FOO
141312
    1MOL0     O    1  10.932   4.006   2.762  0.0795 -0.5980  0.1933
    1MOL0     C    2  10.917   4.106   2.693  0.8843 -0.6076  0.2669
    1MOL0     O    3  10.801   4.133   2.622  0.5776  0.2310 -0.5599
    1MOL0     C    4  10.693   4.056   2.608 -0.3052  0.5242  0.2957
    1MOL0     C    5  10.611   4.101   2.508 -0.1646 -0.2648  0.5780
    1MOL0     C    6  10.508   4.019   2.462  0.1247  0.5518  0.2665
    1MOL0     C    7  10.479   3.898   2.534 -0.4225 -0.5147  0.5972
    1MOL0     O    8  10.378   3.823   2.494  0.4767  0.0002  0.0285
    1MOL0     C    9  10.391   3.675   2.504 -0.3061 -0.8539 -0.7501
    1MOL0     C   10  10.264   3.619   2.435 -0.2293 -0.2888  0.2926
    1MOL0     C   11  10.247   3.467   2.431 -0.9703 -0.1193 -0.2136
    1MOL0     C   12  10.096   3.447   2.391 -0.3495 -0.0081 -0.7372
    1MOL0     C   13  10.057   3.308   2.354 -0.6154  0.6772  0.3980
    1MOL0     C   14   9.917   3.296   2.291  0.5357 -0.3018  0.1169
    1MOL0     C   15   9.794   3.347   2.377 -0.7680  1.2161  0.0537
    1MOL0     C   16   9.751   3.223   2.464  0.7559  0.2189 -0.1027
    1MOL0     N   17   9.652   3.261   2.563 -0.1500  0.0360  0.6732
    1MOL0     C   18   9.687   3.324   2.681 -0.4367  0.3522 -0.5759
    1MOL0     C   19   9.579   3.317   2.760  0.1994  0.0726  0.3328
    1MOL0     C   20   9.567   3.383   2.897  0.4524 -1.2252  0.9111
    1MOL0     C   21   9.431   3.435   2.913  1.3113  0.7858  0.3657
    1MOL0     C   22   9.405   3.530   3.033 -0.1637 -0.0233 -0.0662
    1MOL0     C   23   9.478   3.486   3.161  0.1239  0.4400 -0.3252
    1MOL0     O   24   9.425   3.561   3.271 -1.1222 -0.5009 -0.5121
    1MOL0     C   25   9.298   3.532   3.313  0.4054 -0.6745  0.1069
    1MOL0     C   26   9.231   3.631   3.384 -0.5755  0.8104 -0.1375
    1MOL0     C   27   9.105   3.612   3.429  0.3972  0.0993 -0.4916
    1MOL0     C   28   9.049   3.725   3.505  0.7312 -0.2431 -0.1811
    1MOL0     C   29   9.033   3.494   3.399  0.1830  0.6009  0.0220
    1MOL0     C   30   8.886   3.465   3.420 -0.2844 -0.4938 -0.6387
    1MOL0     O   31   8.826   3.535   3.527 -0.7477  0.3085  0.9062
    1MOL0     C   32   8.696   3.526   3.543 -0.8277  0.8219  0.9392
    1MOL0     C   33   8.635   3.654   3.589  1.1971 -0.1683 -0.2206
    1MOL0     C   34   8.491   3.670   3.583 -0.0137 -0.2694 -0.9406
    1MOL0     C   35   8.410   3.561   3.548  0.2553 -0.0108  0.0758
    1MOL0     O   36   8.270   3.563   3.544 -0.6356  0.1589  0.1198
    1MOL0     C   37   8.208   3.662   3.623 -0.5707  0.5845  0.0874
    1MOL0     C   38   8.054   3.630   3.610  0.4325  0.2071  0.0045
    1MOL0     C   39   7.989   3.765   3.620  0.3779 -0.1430  0.6950
    1MOL0     C   40   7.835   3.748   3.612 -0.1584  0.2258 -0.5681
    1MOL0     C   41   7.765   3.881   3.653  0.1627 -0.3546 -0.8127
    1MOL0     C   42   7.609   3.853   3.657  0.0530  0.1208  1.1819
    1MOL0     C   43   7.528   3.973   3.714  0.4146  0.3405 -0.0572
    1MOL0     C   44   7.575   4.112   3.663 -0.7265 -0.3127 -0.2202
    1MOL0    Cl   45   7.542   4.102   3.487  0.1472  0.2508 -0.6441
    1MOL0     C   46   8.476   3.440   3.528 -0.5329  0.4597  0.7119
    1MOL0     C   47   8.609   3.414   3.536  0.2308 -0.5620 -0.1373
    1MOL0     O   48   8.832   3.385   3.356 -0.7071 -0.1991  0.6308
    1MOL0     C   49   9.103   3.388   3.331 -0.5919 -0.3569  0.0117
    1MOL0     C   50   9.235   3.410   3.285  0.3031  0.0218  1.0380
    1MOL0     N   51   9.487   3.246   2.701 -1.0456 -0.4735 -0.0193
    1MOL0     N   52   9.524   3.211   2.585 -0.0568 -0.1074  0.7053
    1MOL0     C   53  10.555   3.868   2.646  0.8594 -0.4025  0.0061
    1MOL0     C   54  10.660   3.942   2.678 -0.3196 -0.2157 -0.1720
    1MOL0     C   55  11.036   4.199   2.664  0.2417  0.1035 -0.4290
    1MOL0     C   56  11.013   4.315   2.589 -0.0081 -1.3203  0.5568
    1MOL0     C   57  11.105   4.410   2.562 -0.1077 -0.4812 -0.0940
    1MOL0     C   58  11.232   4.394   2.616 -0.3281 -0.4578  0.0398
    1MOL0     O   59  11.314   4.500   2.606  0.3026  0.0770  0.2034
    1MOL0     C   60  11.454   4.485   2.566 -0.2771 -0.3452  0.5508
    1MOL0     C   61  11.526   4.618   2.516 -0.2555 -0.1978 -0.9977
    1MOL0     C   62  11.464   4.647   2.379 -0.1327 -0.1368  0.5429
    1MOL0     C   63  11.494   4.802   2.357  0.7518  1.0672  0.4009
    1MOL0     C   64  11.617   4.809   2.278  0.1151  0.5131  0.2016
    1MOL0     C   65  11.721   4.799   2.225  0.2812 -0.3993  1.1663
    1MOL0     C   66  11.271   4.284   2.688  0.4508  0.1368 -0.6886
    1MOL0     C   67  11.175   4.180   2.709  0.3134  0.2005  0.0499
    1MOL0     C   68  11.212   4.054   2.781 -0.0675  0.2758 -0.0972
    1MOL0     H   69  10.638   4.186   2.446 -1.4242 -0.6958 -0.6196
    1MOL0     H   70  10.455   4.038   2.370 -0.1405  0.5839  0.4270
    1MOL0     H   71  10.384   3.638   2.607 -2.3583  1.7386  0.1310
    1MOL0     H   72  10.489   3.651   2.460  0.7813  1.1131  0.4712
    1MOL0     H   73  10.174   3.656   2.485 -0.2203  0.7258 -0.4008
    1MOL0     H   74  10.264   3.658   2.332 -0.2218 -1.8342 -0.3224
    1MOL0     H   75  10.316   3.439   2.351  0.2665  1.4327  0.2449
    1MOL0     H   76  10.272   3.425   2.528  1.0230 -1.6127 -1.2898
    1MOL0     H   77  10.033   3.491   2.469  1.8267 -1.8481  2.3086
    1MOL0     H   78  10.095   3.504   2.298 -1.6619 -0.1707 -0.8420
    1MOL0     H   79  10.044   3.253   2.448  0.7573 -0.9283 -0.3084
    1MOL0     H   80  10.127   3.254   2.289 -1.9841  0.1947 -0.7286
    1MOL0     H   81   9.921   3.358   2.201  1.9763  2.0276  1.6985
    1MOL0     H   82   9.893   3.199   2.246  1.4290 -0.1725 -0.6630
    1MOL0     H   83   9.708   3.384   2.320  0.7077  3.9373 -0.6015
    1MOL0     H   84   9.831   3.421   2.449  3.5466  0.9447 -1.5649
    1MOL0     H   85   9.713   3.150   2.392  0.8171 -1.3128  1.3654
    1MOL0     H   86   9.846   3.187   2.506  0.9589  0.0488 -0.6976
    1MOL0     H   87   9.776   3.385   2.692  0.2879 -0.7413 -0.1593
    1MOL0     H   88   9.627   3.474   2.888  2.0568 -2.0890  2.1931
    1MOL0     H   89   9.608   3.316   2.974 -0.8697  0.5499  3.2909
    1MOL0     H   90   9.395   3.488   2.824  2.1108  1.4062  0.4031
    1MOL0     H   91   9.363   3.351   2.925  2.6961 -0.8791 -2.4386
    1MOL0     H   92   9.418   3.635   3.008 -0.4389 -0.5672 -2.7551
    1MOL0     H   93   9.296   3.526   3.045 -0.5835  0.9696 -2.9099
    1MOL0     H   94   9.470   3.379   3.186  0.6031  0.6423  0.7198
    1MOL0     H   95   9.585   3.492   3.139  1.1332  0.5086  3.7972
    1MOL0     H   96   9.285   3.724   3.401 -0.5731  0.9068 -0.6396
    1MOL0     H   97   8.941   3.738   3.492 -0.0554 -2.2281  3.1278
    1MOL0     H   98   9.102   3.819   3.489  0.2999  0.1596  0.6482
    1MOL0     H   99   9.038   3.710   3.613 -0.6991 -1.4956 -0.4528
    1MOL0     H  100   8.691   3.745   3.609 -0.3779  0.1650  3.3583
    1MOL0     H  101   8.442   3.764   3.603 -0.1867 -0.0761 -2.1641
    1MOL0     H  102   8.228   3.655   3.730  0.0045 -2.0622 -0.1151
    1MOL0     H  103   8.236   3.756   3.575 -0.8326  0.4876 -0.2639
    1MOL0     H  104   8.032   3.596   3.509 -1.0182  1.6492 -0.1981
    1MOL0     H  105   8.034   3.560   3.692 -2.2028  1.6003  0.6501
    1MOL0     H  106   8.016   3.838   3.543 -1.3554 -0.9026 -0.6851
    1MOL0     H  107   8.023   3.821   3.707 -1.3085  2.8380 -0.4269
    1MOL0     H  108   7.792   3.674   3.681 -3.8527  2.1772 -0.5274
    1MOL0     H  109   7.805   3.719   3.511  1.2917  2.1674 -1.6331
    1MOL0     H  110   7.809   3.909   3.749  2.2242  1.9476 -2.3002
    1MOL0     H  111   7.798   3.962   3.586 -1.0609  2.1098  1.3951
    1MOL0     H  112   7.577   3.771   3.722 -0.3887 -0.0456  0.7543
    1MOL0     H  113   7.577   3.835   3.554  1.1555 -2.0548  1.1697
    1MOL0     H  114   7.553   3.966   3.821 -0.4744 -2.1126  0.0467
    1MOL0     H  115   7.421   3.954   3.706  0.3375  1.3316 -1.7370
    1MOL0     H  116   7.683   4.123   3.674 -0.5542 -0.8263 -1.2564
    1MOL0     H  117   7.522   4.193   3.713  1.3759  0.6868  0.5085
    1MOL0     H  118   8.421   3.347   3.512 -0.6732  0.0789  2.9622
    1MOL0     H  119   8.646   3.312   3.527 -1.6622 -1.2281 -0.8553
    1MOL0     H  120   9.057   3.294   3.302  0.9976 -0.5921 -1.9045
    1MOL0     H  121   9.271   3.324   3.229 -1.0441  0.7764 -1.1002
    1MOL0     H  122  10.522   3.789   2.713 -0.6731  3.3463  4.1737
    1MOL0     H  123  10.712   3.916   2.770 -0.3081 -0.6457 -0.2993
    1MOL0     H  124  10.910   4.329   2.558  0.7024 -0.3362 -1.5589
    1MOL0     H  125  11.085   4.492   2.493  0.3718 -2.2165 -2.4272
    1MOL0     H  126  11.504   4.464   2.661  0.6575  3.5148  1.0951
    1MOL0     H  127  11.463   4.403   2.495 -1.6872  0.8008 -1.0564
    1MOL0     H  128  11.633   4.596   2.501  0.7922  3.4746  0.2005
    1MOL0     H  129  11.506   4.698   2.587  1.7900  0.7025 -1.3630
    1MOL0     H  130  11.506   4.589   2.296 -2.4130  1.3054 -1.7755
    1MOL0     H  131  11.358   4.619   2.377  0.0122 -0.6868  0.3237
    1MOL0     H  132  11.509   4.866   2.444  1.3328  1.6199 -0.0937
    1MOL0     H  133  11.415   4.850   2.298 -0.8520  1.0061  2.3991
    1MOL0     H  134  11.815   4.803   2.174  0.1235  0.5112  0.9193
    1MOL0     H  135  11.365   4.273   2.742 -0.7686 -2.8040  1.1217
    1MOL0     H  136  11.320   4.048   2.797  0.3386 -0.2469 -2.6715
    1MOL0     H  137  11.156   4.049   2.875  0.3814 -3.4636  0.1002
    1MOL0     H  138  11.186   3.958   2.736 -2.4888 -0.3492  2.3502
    2MOL0     O  139   8.539   7.156  11.379 -0.5904 -0.0153 -0.1548
    2MOL0     C  140   8.619   7.075  11.420 -0.5544  0.7342  0.3805
    2MOL0     O  141   8.749   7.110  11.451  0.5429  0.3058  0.3006
    2MOL0     C  142   8.787   7.250  11.431 -0.5408  0.5961 -0.1858
    2MOL0     C  143   8.868   7.321  11.524  0.0168  0.3431  0.0121
    2MOL0     C  144   8.903   7.457  11.508 -1.4788 -0.0007  0.4143
    2MOL0     C  145   8.873   7.519  11.395 -0.2797  0.1147  0.8676
    2MOL0     O  146   8.924   7.651  11.381 -0.3405 -0.1304  0.7031
    2MOL0     C  147   8.926   7.706  11.249  0.2063 -0.9077 -0.2693
    2MOL0     C  148   9.003   7.840  11.256 -0.0402  0.0554 -0.2577
    2MOL0     C  149   9.130   7.822  11.335  0.7394 -0.0952 -0.4129
    2MOL0     C  150   9.240   7.929  11.302  0.6041  0.1054  0.4137
    2MOL0     C  151   9.376   7.928  11.385  0.1923  0.4349  0.3410
    2MOL0     C  152   9.422   7.782  11.408  0.1284 -0.6024  0.0415
    2MOL0     C  153   9.582   7.756  11.413  0.4727 -0.6758  0.1056
    2MOL0     C  154   9.605   7.607  11.474 -0.5472 -0.3187  0.4586
    2MOL0     N  155   9.550   7.507  11.371 -0.8999 -0.2530  0.8061
    2MOL0     C  156   9.449   7.414  11.382  1.1661 -0.2851 -0.4920
    2MOL0     C  157   9.452   7.346  11.268 -1.0207  0.1920 -0.4220
    2MOL0     C  158   9.364   7.220  11.235 -0.6779 -0.1570 -0.2110
    2MOL0     C  159   9.216   7.272  11.236  0.2913  1.0524 -0.9818
    2MOL0     C  160   9.112   7.165  11.214  0.2909  1.6948  0.5255
    2MOL0     C  161   9.108   7.064  11.321  0.0940 -0.9199  0.3873
    2MOL0     O  162   9.192   6.950  11.285  0.6918 -0.9335  0.6338
    2MOL0     C  163   9.126   6.828  11.271 -0.6286  0.7801  1.1702
    2MOL0     C  164   8.992   6.797  11.225 -0.3889 -0.8209 -0.1990
    2MOL0     C  165   8.944   6.665  11.234 -0.6957  0.6737 -0.3594
    2MOL0     C  166   8.792   6.647  11.215  0.2289 -0.1970  0.3963
    2MOL0     C  167   9.023   6.553  11.266  0.0978  0.1937 -0.5677
    2MOL0     C  168   8.980   6.412  11.267  0.2629  0.1816  1.6244
    2MOL0     O  169   9.065   6.328  11.327  1.0398 -0.0791 -0.9685
    2MOL0     C  170   9.026   6.200  11.367  1.2290 -0.6113  0.2753
    2MOL0     C  171   9.104   6.156  11.467 -0.1200  0.7969 -0.8698
    2MOL0     C  172   9.085   6.029  11.532  0.5593  0.0843  1.0595
    2MOL0     C  173   9.007   5.934  11.459  0.0937 -0.7979 -0.2622
    2MOL0     O  174   8.998   5.802  11.494  0.1539  0.4362  0.3278
    2MOL0     C  175   9.121   5.741  11.551  0.5899 -0.5338 -0.2244
    2MOL0     C  176   9.242   5.736  11.456  0.2149 -0.6643 -0.2140
    2MOL0     C  177   9.225   5.677  11.318 -0.5326 -0.0536 -0.1227
    2MOL0     C  178   9.358   5.679  11.244  1.4355  0.5926 -0.3706
    2MOL0     C  179   9.401   5.818  11.197 -0.3544 -0.1833 -0.4563
    2MOL0     C  180   9.300   5.897  11.107  0.3610 -0.8064  0.4859
    2MOL0     C  181   9.343   6.042  11.082  0.2408 -0.2397 -0.2864
    2MOL0     C  182   9.302   6.135  11.190  0.2687 -0.4063  0.2327
    2MOL0    Cl  183   9.316   6.308  11.141  0.2201  0.0794 -0.4453
    2MOL0     C  184   8.924   5.981  11.360 -0.7789 -0.3252  0.5382
    2MOL0     C  185   8.922   6.115  11.313  0.8017 -1.1511 -0.2393
    2MOL0     O  186   8.874   6.383  11.213  0.5723 -0.8969  0.6762
    2MOL0     C  187   9.155   6.583  11.309 -0.1569  0.5194  0.2892
    2MOL0     C  188   9.200   6.717  11.319 -0.4494 -0.0157  0.1757
    2MOL0     N  189   9.539   7.403  11.186  0.2955  0.0914 -0.3166
    2MOL0     N  190   9.595   7.500  11.244  0.7851 -1.3349  0.6381
    2MOL0     C  191   8.808   7.449  11.297  0.0730  0.4777  0.5450
    2MOL0     C  192   8.761   7.317  11.308  0.0370 -0.5378  0.5777
    2MOL0     C  193   8.575   6.928  11.448 -0.5135 -0.7982  0.0005
    2MOL0     C  194   8.672   6.852  11.515 -0.1142  0.1160 -0.2477
    2MOL0     C  195   8.657   6.716  11.548 -0.7739 -0.6729  0.2679
    2MOL0     C  196   8.543   6.652  11.509  0.7853 -0.1804 -0.3288
    2MOL0     O  197   8.511   6.520  11.534  0.3805  0.5492  0.3695
    2MOL0     C  198   8.607   6.445  11.612 -0.1902  0.5591 -0.2425
    2MOL0     C  199   8.563   6.297  11.591  0.3229 -0.6213 -0.4117
    2MOL0     C  200   8.600   6.235  11.456 -0.0146 -1.5863  0.2742
    2MOL0     C  201   8.559   6.322  11.324  0.0484 -0.4726 -0.0522
    2MOL0     C  202   8.572   6.227  11.208 -0.0237  0.4320 -0.7697
    2MOL0     C  203   8.583   6.150  11.112  0.3730 -0.3610 -1.5749
    2MOL0     C  204   8.442   6.725  11.449  0.1512 -1.1749 -0.4609
    2MOL0     C  205   8.458   6.858  11.409  1.4076 -0.9354  0.3067
    2MOL0     C  206   8.352   6.928  11.327 -0.8817  0.2709  0.1113
    2MOL0     H  207   8.906   7.271  11.613 -1.5347  0.5292  0.8229
    2MOL0     H  208   8.980   7.503  11.570  0.0819 -0.4097 -1.1292
    2MOL0     H  209   8.822   7.731  11.223  0.3794 -0.1987 -0.2953
    2MOL0     H  210   8.974   7.641  11.176 -0.8785 -2.9934  0.7786
    2MOL0     H  211   9.025   7.883  11.158  2.1024  3.8868  1.6967
    2MOL0     H  212   8.951   7.917  11.313 -0.8983 -1.0573  0.5183
    2MOL0     H  213   9.119   7.831  11.444  1.5233  0.4404 -0.3724
    2MOL0     H  214   9.169   7.721  11.318  0.3177 -0.4455  0.5834
    2MOL0     H  215   9.264   7.917  11.196 -0.9936 -1.8106  0.2119
    2MOL0     H  216   9.186   8.022  11.326  0.0639 -0.7084  2.6552
    2MOL0     H  217   9.366   7.983  11.480  2.1210 -1.2779  1.6190
    2MOL0     H  218   9.454   7.982  11.331 -0.4754  1.3917  0.2904
    2MOL0     H  219   9.374   7.747  11.500  0.2743  0.0528  0.3779
    2MOL0     H  220   9.378   7.727  11.324 -1.0743 -0.8709  0.8151
    2MOL0     H  221   9.626   7.821  11.490  1.3810  0.3920 -1.2798
    2MOL0     H  222   9.625   7.771  11.314 -0.3753  2.7086  0.1410
    2MOL0     H  223   9.712   7.587  11.484  0.0484  1.6693 -1.2646
    2MOL0     H  224   9.552   7.596  11.568 -3.8494  1.4062 -1.0315
    2MOL0     H  225   9.392   7.384  11.469  2.3181 -1.1340 -0.0038
    2MOL0     H  226   9.389   7.135  11.299 -2.3383  0.1871  0.9748
    2MOL0     H  227   9.386   7.174  11.138  1.2713  0.3220 -0.0359
    2MOL0     H  228   9.194   7.328  11.328 -1.9716 -2.5078  0.8762
    2MOL0     H  229   9.201   7.341  11.153 -0.7405  1.6604 -0.3178
    2MOL0     H  230   9.008   7.199  11.206 -0.0510  0.6208  0.2627
    2MOL0     H  231   9.132   7.115  11.119 -0.5773 -1.1156  1.7070
    2MOL0     H  232   9.147   7.104  11.415  1.3463  0.0047 -0.4742
    2MOL0     H  233   9.007   7.030  11.342 -0.6547  1.5062  1.0146
    2MOL0     H  234   8.928   6.878  11.194 -1.9938 -1.7193  0.6357
    2MOL0     H  235   8.770   6.592  11.123  1.5243 -1.8475  1.0266
    2MOL0     H  236   8.742   6.743  11.200  2.5065  0.8096 -1.4716
    2MOL0     H  237   8.767   6.589  11.304  3.2163 -0.2354  1.3319
    2MOL0     H  238   9.187   6.211  11.511 -0.9171  1.0678  0.3618
    2MOL0     H  239   9.139   6.006  11.623  1.2505 -0.4697  0.5208
    2MOL0     H  240   9.165   5.783  11.642  2.2379 -0.2543 -1.1077
    2MOL0     H  241   9.081   5.644  11.582  1.0945  0.2271  3.1385
    2MOL0     H  242   9.277   5.840  11.452  1.5895 -1.1319 -1.2152
    2MOL0     H  243   9.319   5.674  11.502  1.7533  0.1257 -1.6164
    2MOL0     H  244   9.150   5.717  11.249  0.9561  0.8032 -1.3152
    2MOL0     H  245   9.180   5.581  11.345  0.1367 -0.2226  0.4429
    2MOL0     H  246   9.351   5.612  11.157  1.1708 -1.5602  1.2185
    2MOL0     H  247   9.428   5.630  11.313 -1.0410 -1.7077  0.6976
    2MOL0     H  248   9.428   5.871  11.288  0.4317 -0.5639 -0.4545
    2MOL0     H  249   9.492   5.810  11.136  1.0407  0.0955  1.5071
    2MOL0     H  250   9.203   5.918  11.153  0.6613 -0.0378  0.7797
    2MOL0     H  251   9.276   5.836  11.020 -1.7773  0.2332  0.2861
    2MOL0     H  252   9.291   6.086  10.997  4.9318  1.2660 -2.7666
    2MOL0     H  253   9.447   6.047  11.047 -0.7485  1.3706 -3.4154
    2MOL0     H  254   9.361   6.125  11.282 -0.1823  0.0344  0.5785
    2MOL0     H  255   9.193   6.122  11.200 -0.2454  1.8530 -1.5002
    2MOL0     H  256   8.851   5.915  11.315 -1.7676  0.9214  0.2590
    2MOL0     H  257   8.872   6.167  11.233  3.1635  0.9591 -0.4630
    2MOL0     H  258   9.226   6.507  11.340  1.6021  1.9312 -0.1440
    2MOL0     H  259   9.300   6.741  11.353 -0.2918 -3.8498  2.9719
    2MOL0     H  260   8.797   7.491  11.197 -0.3694 -0.8840 -0.0033
    2MOL0     H  261   8.697   7.265  11.238 -0.1752  0.9085 -0.3405
    2MOL0     H  262   8.769   6.888  11.546 -0.3190  1.3448 -0.9597
    2MOL0     H  263   8.734   6.669  11.609 -0.5932 -0.4841  0.1846
    2MOL0     H  264   8.709   6.449  11.574 -0.9053  0.2265 -2.3189
    2MOL0     H  265   8.600   6.479  11.716  0.2549  2.1687 -0.7189
    2MOL0     H  266   8.455   6.285  11.593 -0.1815  2.1977 -3.0952
    2MOL0     H  267   8.607   6.232  11.667  0.9238  0.4227  0.1538
    2MOL0     H  268   8.708   6.252  11.458 -0.4523  2.0007  0.3888
    2MOL0     H  269   8.578   6.128  11.452 -1.9727 -1.2932  1.4181
    2MOL0     H  270   8.629   6.405  11.318 -0.2915  0.0757  2.4201
    2MOL0     H  271   8.459   6.366  11.317  0.6590  0.7234 -2.1742
    2MOL0     H  272   8.613   6.078  11.039 -0.9887 -3.1609  0.4248
    2MOL0     H  273   8.349   6.673  11.433 -0.3139 -0.1586 -1.2086
    2MOL0     H  274   8.395   6.986  11.245 -0.8684 -0.3679 -0.3397
    2MOL0     H  275   8.276   6.860  11.287 -0.0180  1.5299 -4.1477
    2MOL0     H  276   8.300   6.993  11.398 -1.3073  0.7101 -0.5951
    3MOL0     O  277  11.537   3.068   2.577 -0.0238  0.0252 -0.0647
    3MOL0     C  278  11.442   3.090   2.653 -0.3629  0.1467  0.0021
    3MOL0     O  279  11.361   2.993   2.710 -0.5360  0.5948  0.4832
    3MOL0     C  280  11.379   2.863   2.683 -0.3434 -0.1581  1.0944
    3MOL0     C  281  11.488   2.776   2.730 -0.0170 -0.8231  0.1206
    3MOL0     C  282  11.478   2.636   2.718 -0.0943  0.6844  0.3404
    3MOL0     C  283  11.365   2.573   2.653  0.2766  0.8984 -0.6228
    3MOL0     O  284  11.363   2.438   2.658  0.0845  0.7609  0.2678
    3MOL0     C  285  11.236   2.377   2.626  0.2772 -0.0606 -0.3281
    3MOL0     C  286  11.252   2.228   2.645  0.6901  0.0777 -0.3871
    3MOL0     C  287  11.365   2.157   2.572 -0.3951  0.2092  0.2574
    3MOL0     C  288  11.331   2.156   2.427  0.1266 -0.1982 -0.2121
    3MOL0     C  289  11.417   2.077   2.328  0.5369  0.0346  0.2934
    3MOL0     C  290  11.565   2.137   2.333  0.3721 -0.8534 -0.0098
    3MOL0     C  291  11.667   2.036   2.273  0.4586 -0.6163  0.0736
    3MOL0     C  292  11.803   2.118   2.283 -0.4686 -0.3615  0.2422
    3MOL0     N  293  11.911   2.040   2.221 -0.1127  0.6983 -0.1143
    3MOL0     C  294  11.929   1.906   2.235 -0.5085  0.2234  0.1367
    3MOL0     C  295  12.026   1.873   2.146  0.2596  0.0809 -0.4564
    3MOL0     C  296  12.096   1.740   2.141  0.3688 -0.2961 -0.2776
    3MOL0     C  297  12.108   1.694   2.002  0.0903  0.0976 -0.3971
    3MOL0     C  298  12.193   1.570   1.982  0.4110 -0.2561 -0.5200
    3MOL0     C  299  12.170   1.496   1.845  0.4081  0.1316  0.0144
    3MOL0     O  300  12.114   1.364   1.867 -0.2535 -0.3838 -0.4588
    3MOL0     C  301  12.079   1.283   1.760 -0.2653 -0.2106  0.0859
    3MOL0     C  302  11.972   1.187   1.764 -1.2729 -0.8749 -0.6511
    3MOL0     C  303  11.949   1.109   1.651  0.5965  0.5062  0.9293
    3MOL0     C  304  11.849   0.998   1.679 -0.2355 -0.0046 -0.3349
    3MOL0     C  305  12.044   1.107   1.541  0.6349  0.5457  0.3607
    3MOL0     C  306  12.032   1.017   1.419 -0.2902 -0.4290  0.6657
    3MOL0     O  307  12.134   1.017   1.326 -0.2481 -0.1000 -1.2412
    3MOL0     C  308  12.180   0.902   1.268  0.1987  0.4035  0.2629
    3MOL0     C  309  12.258   0.916   1.150  1.6581  0.6089  1.2699
    3MOL0     C  310  12.308   0.808   1.080  0.2988  0.7879  0.3599
    3MOL0     C  311  12.291   0.687   1.134  0.3201 -0.2115  0.2845
    3MOL0     O  312  12.345   0.578   1.073  0.1076  0.0248 -0.2677
    3MOL0     C  313  12.280   0.447   1.083  0.2181  0.0420  0.0936
    3MOL0     C  314  12.325   0.357   0.971 -0.0257  0.3589 -0.2465
    3MOL0     C  315  12.231   0.231   0.960 -0.3214  0.2349 -1.4198
    3MOL0     C  316  12.311   0.113   0.906 -0.3075 -0.6366 -0.1383
    3MOL0     C  317  12.380   0.134   0.773 -0.2764  0.8948 -0.0700
    3MOL0     C  318  12.280   0.129   0.660  0.6663  0.3885  0.5800
    3MOL0     C  319  12.238  -0.019   0.611  1.3877 -0.4556  0.4103
    3MOL0     C  320  12.303  -0.061   0.472  0.5113  0.5365  0.6849
    3MOL0    Cl  321  12.481  -0.052   0.461  0.7108  0.4233 -0.0382
    3MOL0     C  322  12.207   0.671   1.246  0.1095  0.0044  0.6194
    3MOL0     C  323  12.157   0.776   1.318  0.6856  0.4482 -0.7908
    3MOL0     O  324  11.929   0.952   1.408  0.5847 -0.1527 -0.5789
    3MOL0     C  325  12.152   1.200   1.550 -0.2655  0.4657  0.3336
    3MOL0     C  326  12.167   1.294   1.648 -0.5095  0.8860 -0.5955
    3MOL0     N  327  12.057   1.983   2.068 -0.0411 -0.3109  0.8789
    3MOL0     N  328  11.986   2.085   2.121  0.1797 -0.7446  0.6019
    3MOL0     C  329  11.264   2.660   2.611 -0.5825  1.0403 -0.4754
    3MOL0     C  330  11.268   2.797   2.631 -0.0334 -0.9278 -0.4007
    3MOL0     C  331  11.417   3.218   2.706 -0.4634 -0.7473 -0.3048
    3MOL0     C  332  11.353   3.310   2.628 -0.4553 -0.2369 -0.5935
    3MOL0     C  333  11.316   3.440   2.682 -0.2746 -0.1591 -0.4436
    3MOL0     C  334  11.353   3.474   2.816  0.1063  0.1201  0.2450
    3MOL0     O  335  11.330   3.603   2.855 -0.5005  0.8221 -0.1478
    3MOL0     C  336  11.401   3.664   2.960  0.5859  0.1713 -0.1172
    3MOL0     C  337  11.421   3.806   2.938  0.3077  0.3273 -0.0694
    3MOL0     C  338  11.527   3.857   3.032  0.2413 -0.2014  0.0023
    3MOL0     C  339  11.530   4.005   3.047  0.8675  0.0421  0.2044
    3MOL0     C  340  11.643   4.034   3.120 -0.7843  0.2265 -0.0721
    3MOL0     C  341  11.747   4.066   3.176  0.0738 -0.3595  0.9641
    3MOL0     C  342  11.427   3.379   2.885  0.0780 -0.0583 -0.2347
    3MOL0     C  343  11.447   3.248   2.832 -0.1071 -0.1405 -0.7350
    3MOL0     C  344  11.532   3.154   2.922  0.7914  0.4643 -0.0389
    3MOL0     H  345  11.574   2.827   2.772 -1.3427 -0.5783  2.7119
    3MOL0     H  346  11.564   2.581   2.756  0.8392  0.0114 -2.5021
    3MOL0     H  347  11.193   2.400   2.528 -2.2737  0.5924  0.8544
    3MOL0     H  348  11.154   2.412   2.689 -0.1379 -2.0815  0.3304
    3MOL0     H  349  11.264   2.219   2.754 -0.9593  3.5671  0.2233
    3MOL0     H  350  11.154   2.192   2.612  0.7536  0.5557 -1.0985
    3MOL0     H  351  11.453   2.214   2.604 -0.0698 -1.3592  2.3652
    3MOL0     H  352  11.380   2.054   2.604 -1.8113  0.0050  0.3040
    3MOL0     H  353  11.225   2.132   2.418 -0.5866  1.4009  2.7003
    3MOL0     H  354  11.320   2.260   2.394 -2.2551  0.1243  1.4008
    3MOL0     H  355  11.394   2.100   2.224 -0.1381  1.4813  0.7331
    3MOL0     H  356  11.412   1.970   2.350  0.5759 -0.1093 -0.3800
    3MOL0     H  357  11.564   2.232   2.279  1.2956  0.9029  2.8318
    3MOL0     H  358  11.596   2.171   2.433  2.2602 -3.3620  0.3700
    3MOL0     H  359  11.644   2.017   2.168  0.1784  0.5910 -0.1041
    3MOL0     H  360  11.673   1.941   2.326  0.7959 -0.1004  0.9797
    3MOL0     H  361  11.788   2.213   2.231 -0.8366 -0.5701 -0.0444
    3MOL0     H  362  11.827   2.127   2.389 -2.0788  1.2370  0.5228
    3MOL0     H  363  11.875   1.836   2.298 -4.7991 -0.5763 -3.8750
    3MOL0     H  364  12.057   1.663   2.208  0.7391 -0.7854 -0.6152
    3MOL0     H  365  12.200   1.768   2.159  0.2249 -0.2609  0.5491
    3MOL0     H  366  12.011   1.672   1.956 -1.2632  1.0266  1.8821
    3MOL0     H  367  12.158   1.772   1.943 -0.2129 -0.2286 -1.1039
    3MOL0     H  368  12.297   1.599   2.000 -0.5457  2.5513  1.1540
    3MOL0     H  369  12.170   1.491   2.054 -1.0354 -1.2059 -1.9700
    3MOL0     H  370  12.104   1.555   1.779 -0.3442  2.0737  2.3540
    3MOL0     H  371  12.272   1.485   1.807  1.2308  0.6045  1.9950
    3MOL0     H  372  11.914   1.170   1.854 -0.1747 -1.5325 -0.0408
    3MOL0     H  373  11.830   0.993   1.786  1.7003  0.4130  0.0584
    3MOL0     H  374  11.894   0.902   1.652 -1.4548 -0.6068 -0.3159
    3MOL0     H  375  11.756   1.020   1.625  0.5906  2.4895 -0.8817
    3MOL0     H  376  12.275   1.012   1.101  1.8103  0.1593  0.4163
    3MOL0     H  377  12.361   0.816   0.985 -1.2113 -2.6338 -0.9475
    3MOL0     H  378  12.302   0.387   1.172  0.2220  1.2277  0.9181
    3MOL0     H  379  12.172   0.453   1.063  0.0789 -2.6532 -0.2111
    3MOL0     H  380  12.319   0.411   0.876  3.6465 -1.5042 -1.7299
    3MOL0     H  381  12.429   0.332   0.995  1.1113  1.3665 -3.5512
    3MOL0     H  382  12.159   0.261   0.883 -0.6580  0.1397 -1.1425
    3MOL0     H  383  12.187   0.208   1.057 -1.2718  2.0420 -1.3928
    3MOL0     H  384  12.241   0.030   0.888 -0.6423 -0.4743  0.3844
    3MOL0     H  385  12.394   0.080   0.968  0.3320 -2.5948 -1.9310
    3MOL0     H  386  12.431   0.230   0.760 -1.7483  1.5202 -1.5547
    3MOL0     H  387  12.454   0.055   0.762 -0.0569  0.6292  2.5526
    3MOL0     H  388  12.331   0.179   0.577  1.0640  0.2892  0.7624
    3MOL0     H  389  12.189   0.183   0.687  0.4814 -1.0188  3.0616
    3MOL0     H  390  12.130  -0.021   0.595  1.4556  2.2977 -1.0709
    3MOL0     H  391  12.260  -0.091   0.690 -1.1925 -0.2725  1.4061
    3MOL0     H  392  12.258  -0.015   0.384 -3.1360 -3.4160  0.1328
    3MOL0     H  393  12.276  -0.166   0.461 -2.4410  1.4005 -1.4389
    3MOL0     H  394  12.191   0.569   1.279  1.4053 -0.2928  0.3470
    3MOL0     H  395  12.088   0.764   1.401  0.4447 -0.1676 -1.0751
    3MOL0     H  396  12.198   1.242   1.461  0.7443 -1.1377  0.0633
    3MOL0     H  397  12.240   1.373   1.632  2.0572 -0.9230  1.2549
    3MOL0     H  398  11.174   2.607   2.582 -1.2311  1.1490  1.1736
    3MOL0     H  399  11.176   2.854   2.632  0.9250  0.7141  0.9623
    3MOL0     H  400  11.312   3.271   2.535 -0.1829 -1.5470 -0.1847
    3MOL0     H  401  11.251   3.509   2.629 -0.3037  0.9154  0.9336
    3MOL0     H  402  11.352   3.643   3.055 -1.3428  2.3608 -0.5263
    3MOL0     H  403  11.502   3.622   2.965  0.0536 -1.1963 -0.5586
    3MOL0     H  404  11.319   3.842   2.956 -0.5028 -1.9832  0.2402
    3MOL0     H  405  11.438   3.839   2.835 -2.5681 -0.5722 -0.9360
    3MOL0     H  406  11.511   3.814   3.131 -0.9647  0.0236 -0.0755
    3MOL0     H  407  11.628   3.829   3.002  1.4233  2.3891  1.2071
    3MOL0     H  408  11.448   4.050   3.103  3.6123  0.7623  4.0890
    3MOL0     H  409  11.523   4.032   2.941 -0.5844  0.4710  0.3877
    3MOL0     H  410  11.840   4.086   3.224 -1.3308  1.9821  2.8911
    3MOL0     H  411  11.448   3.402   2.988  2.6203 -2.4604 -0.0952
    3MOL0     H  412  11.638   3.177   2.912  0.7489  0.0435 -1.9646
    3MOL0     H  413  11.513   3.168   3.028 -1.3930  2.0862 -0.5638
    3MOL0     H  414  11.505   3.052   2.893  0.5460  1.6181 -4.7058
    4MOL0     O  415  11.160   2.219   0.440 -0.4418 -0.6437  0.3767
    4MOL0     C  416  11.126   2.243   0.330 -0.2113 -0.3289  0.2329
    4MOL0     O  417  11.006   2.190   0.271  0.5165  0.5031 -0.1528
    4MOL0     C  418  10.944   2.094   0.336 -0.9203  0.1118 -0.1449
    4MOL0     C  419  10.960   1.962   0.282  0.0014 -0.0143 -0.6130
    4MOL0     C  420  10.888   1.861   0.355 -0.8675 -0.4381  0.5078
    4MOL0     C  421  10.813   1.878   0.462 -0.0918 -0.5002  0.4739
    4MOL0     O  422  10.762   1.764   0.513  0.7672 -0.0168  0.0717
    4MOL0     C  423  10.664   1.792   0.612 -0.2373 -0.7011 -0.5743
    4MOL0     C  424  10.608   1.657   0.662 -0.1576  0.6592  0.2811
    4MOL0     C  425  10.508   1.594   0.560  0.1014 -0.1664 -0.2808
    4MOL0     C  426  10.459   1.461   0.608 -0.3589  0.9471  0.8766
    4MOL0     C  427  10.334   1.416   0.518 -1.3882  0.0942  0.1212
    4MOL0     C  428  10.214   1.504   0.553  0.0629  0.9492 -0.2767
    4MOL0     C  429  10.103   1.484   0.444  0.7476  0.1361  0.0695
    4MOL0     C  430  10.055   1.345   0.445 -0.0917 -0.0304 -0.3463
    4MOL0     N  431   9.986   1.306   0.571  0.5280 -0.2253 -0.9166
    4MOL0     C  432   9.848   1.333   0.593  0.7027 -0.6480  0.3081
    4MOL0     C  433   9.828   1.290   0.715 -0.6305  0.7508 -0.4050
    4MOL0     C  434   9.702   1.274   0.797 -0.3057 -0.2738  0.6709
    4MOL0     C  435   9.639   1.406   0.835 -0.7725 -0.6151 -0.8106
    4MOL0     C  436   9.718   1.508   0.929 -0.7828  0.2068  0.3758
    4MOL0     C  437   9.766   1.636   0.854 -0.4847  0.3919  0.5571
    4MOL0     O  438   9.848   1.724   0.925 -0.3680  0.1465  0.0507
    4MOL0     C  439   9.983   1.686   0.945 -0.2871  0.2370  0.0458
    4MOL0     C  440  10.054   1.760   1.049 -0.1369 -0.2613 -0.1588
    4MOL0     C  441  10.189   1.742   1.076 -0.0240 -0.9403 -0.0743
    4MOL0     C  442  10.249   1.828   1.187  0.1004  0.1131 -0.0729
    4MOL0     C  443  10.262   1.635   1.016  0.2859  0.4819 -0.2608
    4MOL0     C  444  10.406   1.617   1.024 -0.1457 -0.8890  0.5615
    4MOL0     O  445  10.450   1.492   1.055 -0.2925 -0.4751  0.3416
    4MOL0     C  446  10.582   1.486   1.089 -0.0390  0.1485 -0.4226
    4MOL0     C  447  10.598   1.444   1.224  0.3310 -0.2502  0.3778
    4MOL0     C  448  10.725   1.436   1.276 -0.2731  0.9527  0.4702
    4MOL0     C  449  10.836   1.477   1.207 -0.3487 -0.1836 -0.1512
    4MOL0     O  450  10.960   1.477   1.266 -0.3200 -0.6455 -0.5697
    4MOL0     C  451  11.078   1.443   1.178  0.3181  0.1776 -0.3776
    4MOL0     C  452  11.163   1.568   1.168  0.2390  0.8019 -0.2066
    4MOL0     C  453  11.259   1.565   1.053 -0.4582  0.1010 -0.1508
    4MOL0     C  454  11.371   1.478   1.084 -0.3585 -0.8797 -0.0250
    4MOL0     C  455  11.452   1.426   0.958  0.8743 -0.9174 -0.2020
    4MOL0     C  456  11.510   1.284   0.974  0.8454  1.2808 -0.0269
    4MOL0     C  457  11.608   1.260   1.092 -0.0628 -0.6632  0.6386
    4MOL0     C  458  11.671   1.122   1.071 -0.1366  0.0910 -0.3276
    4MOL0    Cl  459  11.561   1.007   1.147 -0.3737  0.6350 -0.0328
    4MOL0     C  460  10.818   1.520   1.073 -0.4476 -0.4614  0.3015
    4MOL0     C  461  10.692   1.526   1.014  0.1800  0.9813 -0.7645
    4MOL0     O  462  10.474   1.709   0.979 -0.7484  0.4839 -0.2530
    4MOL0     C  463  10.185   1.550   0.932  0.5565 -0.0549  0.2756
    4MOL0     C  464  10.052   1.575   0.902 -0.6992  0.0996 -0.0302
    4MOL0     N  465   9.938   1.235   0.766 -0.8275  0.4553  0.3210
    4MOL0     N  466  10.038   1.252   0.682  0.0721  0.6700  0.3898
    4MOL0     C  467  10.799   2.011   0.503 -1.4355 -0.4450 -0.0737
    4MOL0     C  468  10.855   2.125   0.447  0.0009  0.1572  0.2532
    4MOL0     C  469  11.209   2.329   0.232  0.3630  0.6206 -0.0840
    4MOL0     C  470  11.147   2.368   0.106  0.5430 -0.1994 -1.1825
    4MOL0     C  471  11.232   2.433   0.013  0.6095  0.2835 -0.6472
    4MOL0     C  472  11.356   2.477   0.041 -0.1513 -0.6454  0.4995
    4MOL0     O  473  11.426   2.556  -0.043  0.3724  0.3930 -0.0789
    4MOL0     C  474  11.407   2.545  -0.187 -0.6776 -1.4037 -0.4042
    4MOL0     C  475  11.529   2.606  -0.269  0.0309 -0.1228  0.1098
    4MOL0     C  476  11.669   2.540  -0.238  0.6682  0.4338 -0.1313
    4MOL0     C  477  11.670   2.395  -0.254 -1.0934 -0.7028 -0.5735
    4MOL0     C  478  11.694   2.346  -0.389  0.1125 -0.5688  0.1114
    4MOL0     C  479  11.701   2.300  -0.490  0.6837 -0.3304 -0.4826
    4MOL0     C  480  11.417   2.447   0.168  0.1471  0.2665 -0.8145
    4MOL0     C  481  11.338   2.366   0.261 -0.2108 -0.3457  1.3083
    4MOL0     C  482  11.407   2.321   0.389 -0.1235 -0.1545  0.7914
    4MOL0     H  483  11.017   1.946   0.191 -0.3160  1.2760 -1.0650
    4MOL0     H  484  10.917   1.763   0.319  0.2195  0.3816 -0.9554
    4MOL0     H  485  10.587   1.861   0.576  1.0748  0.7547 -0.6916
    4MOL0     H  486  10.709   1.837   0.701 -4.1622 -3.3889  3.2079
    4MOL0     H  487  10.682   1.581   0.686  1.0471  2.2375  1.8961
    4MOL0     H  488  10.552   1.673   0.755 -1.6828 -0.2334 -0.4540
    4MOL0     H  489  10.429   1.667   0.536 -0.2413 -0.4576 -0.0460
    4MOL0     H  490  10.556   1.583   0.462  1.0474 -0.0350  0.1617
    4MOL0     H  491  10.550   1.403   0.594  0.5587  3.0624 -3.7145
    4MOL0     H  492  10.424   1.461   0.712 -0.2801  2.7968  0.9310
    4MOL0     H  493  10.333   1.307   0.523  3.2810 -0.2127 -1.2805
    4MOL0     H  494  10.349   1.443   0.413 -1.3250 -2.1422 -0.4945
    4MOL0     H  495  10.180   1.472   0.652  1.4559 -0.2531 -0.1639
    4MOL0     H  496  10.237   1.611   0.553 -1.5928  1.3292 -0.4687
    4MOL0     H  497  10.148   1.510   0.348 -0.5085 -2.0147 -1.1780
    4MOL0     H  498  10.019   1.553   0.456  2.0203  1.2642  4.3034
    4MOL0     H  499   9.979   1.328   0.368 -0.3304 -1.7921  0.2326
    4MOL0     H  500  10.139   1.279   0.420  0.8476  0.1219  2.1403
    4MOL0     H  501   9.780   1.380   0.524 -1.2320 -3.0817  0.4206
    4MOL0     H  502   9.726   1.218   0.888 -3.6899 -0.5947  1.5025
    4MOL0     H  503   9.640   1.216   0.728  1.3140  1.4445 -2.4440
    4MOL0     H  504   9.597   1.467   0.755  0.7299 -0.6117 -1.6459
    4MOL0     H  505   9.553   1.377   0.895 -0.1560 -1.0283 -0.1072
    4MOL0     H  506   9.666   1.545   1.018  0.5558  0.3517  1.1222
    4MOL0     H  507   9.804   1.454   0.970  1.5393  5.3426  3.3179
    4MOL0     H  508   9.827   1.589   0.777 -1.2084  0.2864  0.0429
    4MOL0     H  509   9.680   1.692   0.816  0.4832  2.8710  1.7473
    4MOL0     H  510   9.994   1.837   1.097 -3.8654 -0.8296 -3.3412
    4MOL0     H  511  10.328   1.898   1.159  1.4018 -1.1698  0.2674
    4MOL0     H  512  10.292   1.762   1.263 -1.1218  0.6659  1.1381
    4MOL0     H  513  10.176   1.879   1.251 -1.9003 -3.5749  0.8789
    4MOL0     H  514  10.517   1.422   1.292  1.0711 -1.9259  0.7849
    4MOL0     H  515  10.742   1.414   1.380  0.1063 -1.3329 -0.0373
    4MOL0     H  516  11.143   1.367   1.223 -1.5587 -0.7881  0.8251
    4MOL0     H  517  11.047   1.407   1.079  0.9712  0.7427 -0.7944
    4MOL0     H  518  11.096   1.655   1.165  2.2163  2.3674 -1.6722
    4MOL0     H  519  11.221   1.574   1.261 -2.7451 -0.0239  1.8524
    4MOL0     H  520  11.278   1.669   1.026 -0.4373  0.8625  2.5546
    4MOL0     H  521  11.229   1.525   0.956  1.8458 -0.4317 -0.7127
    4MOL0     H  522  11.340   1.386   1.134  1.5700 -0.3792  2.2655
    4MOL0     H  523  11.438   1.530   1.153  0.6064 -1.8696 -0.1745
    4MOL0     H  524  11.387   1.430   0.871 -1.5799  1.0534  1.5754
    4MOL0     H  525  11.531   1.497   0.932 -0.6095  0.6642 -0.5739
    4MOL0     H  526  11.560   1.266   0.879 -0.4465 -0.3852 -0.4417
    4MOL0     H  527  11.427   1.213   0.966  0.5058  1.9137 -3.5400
    4MOL0     H  528  11.564   1.279   1.190 -2.2267  2.0848 -0.7348
    4MOL0     H  529  11.686   1.335   1.075 -0.9046 -0.2586 -1.8104
    4MOL0     H  530  11.772   1.119   1.113 -0.8418  0.0873  1.4660
    4MOL0     H  531  11.689   1.094   0.967  3.0355 -3.1475  0.8963
    4MOL0     H  532  10.906   1.546   1.015 -0.9149 -2.5087 -1.4458
    4MOL0     H  533  10.684   1.552   0.909 -1.2285  3.0186 -0.2256
    4MOL0     H  534  10.236   1.462   0.894  0.5113  1.1278 -2.8103
    4MOL0     H  535  10.010   1.504   0.831  0.7480 -0.0087 -0.7977
    4MOL0     H  536  10.734   2.038   0.586 -2.7440 -1.5927 -0.6734
    4MOL0     H  537  10.840   2.224   0.490 -1.3895  0.2288 -0.3242
    4MOL0     H  538  11.043   2.351   0.081  0.1865  1.2016 -0.7615
    4MOL0     H  539  11.198   2.462  -0.086  0.0818 -1.8123 -1.1310
    4MOL0     H  540  11.369   2.449  -0.222 -5.5981 -0.1055  0.5482
    4MOL0     H  541  11.335   2.627  -0.197  1.3761  0.3233 -2.1695
    4MOL0     H  542  11.541   2.714  -0.255  1.4181 -0.3521  0.8857
    4MOL0     H  543  11.502   2.584  -0.373  0.0739  0.8484 -0.1156
    4MOL0     H  544  11.745   2.584  -0.303  1.5816 -0.2274  0.4604
    4MOL0     H  545  11.687   2.560  -0.132  1.7572 -0.2106 -0.1684
    4MOL0     H  546  11.572   2.355  -0.226 -2.2416  1.7711 -0.8313
    4MOL0     H  547  11.758   2.362  -0.198  0.2334  2.7655 -0.4045
    4MOL0     H  548  11.694   2.248  -0.583  0.7220  0.8287 -1.1580
    4MOL0     H  549  11.509   2.498   0.193 -0.7848  1.4956  0.2542
    4MOL0     H  550  11.347   2.359   0.472 -1.5002 -1.8417  0.6240
    4MOL0     H  551  11.405   2.212   0.384  2.3332 -0.2240 -0.3167
    4MOL0     H  552  11.512   2.351   0.394 -0.0858 -0.1185 -0.0210
    5MOL0     O  553   5.278   1.902   9.782  0.3774  0.2190 -1.0329
    5MOL0     C  554   5.189   1.889   9.701  0.5593 -0.5297 -0.0902
    5MOL0     O  555   5.168   1.779   9.624  0.2759 -0.1653 -1.1479
    5MOL0     C  556   5.253   1.673   9.640  0.2553  0.6826  0.2157
    5MOL0     C  557   5.221   1.559   9.719 -0.4203 -0.5104 -0.2760
    5MOL0     C  558   5.305   1.441   9.705  0.4121  1.0312 -0.2722
    5MOL0     C  559   5.411   1.436   9.623  0.1145  0.2911  0.2707
    5MOL0     O  560   5.477   1.313   9.602  0.3222 -0.2057 -0.1625
    5MOL0     C  561   5.452   1.243   9.480  0.1414 -0.3660  0.6710
    5MOL0     C  562   5.514   1.104   9.459  0.0750  0.2059 -0.5554
    5MOL0     C  563   5.442   1.006   9.549 -0.1970  1.1514 -0.0118
    5MOL0     C  564   5.505   0.858   9.528  0.1744  0.4972 -0.6575
    5MOL0     C  565   5.467   0.764   9.645 -0.6064 -0.1626 -0.0253
    5MOL0     C  566   5.519   0.621   9.615 -0.0816 -0.1028  0.8533
    5MOL0     C  567   5.426   0.531   9.525 -0.3627  0.3948 -0.3285
    5MOL0     C  568   5.288   0.517   9.596 -0.3322  0.0577  0.0471
    5MOL0     N  569   5.202   0.424   9.516 -0.6617  0.2737  0.1501
    5MOL0     C  570   5.203   0.297   9.560 -0.2603  0.1389  0.7345
    5MOL0     C  571   5.101   0.245   9.496  0.4303  0.5004  0.4191
    5MOL0     C  572   5.033   0.112   9.510 -1.0194  0.6781 -0.4745
    5MOL0     C  573   5.002   0.086   9.662  0.1463 -0.7243  0.2644
    5MOL0     C  574   4.926  -0.042   9.686  0.8159  0.4364 -0.6160
    5MOL0     C  575   4.783  -0.062   9.621  0.1960  0.3835 -0.2937
    5MOL0     O  576   4.789  -0.162   9.510  0.4600 -0.2004 -1.0700
    5MOL0     C  577   4.730  -0.152   9.388  1.0704  1.0243 -0.3430
    5MOL0     C  578   4.658  -0.048   9.336  0.3754  0.1735  0.3753
    5MOL0     C  579   4.591  -0.048   9.209 -0.1543  0.0428  0.2438
    5MOL0     C  580   4.510   0.076   9.169  0.2007 -0.2879  0.4732
    5MOL0     C  581   4.591  -0.168   9.126 -0.3422 -0.4729 -0.9545
    5MOL0     C  582   4.523  -0.198   8.999 -0.6457  0.1173  0.7709
    5MOL0     O  583   4.589  -0.295   8.923 -0.0795  0.2997 -0.6795
    5MOL0     C  584   4.514  -0.331   8.811  0.7087  0.4915 -0.2188
    5MOL0     C  585   4.408  -0.425   8.811 -0.6084  1.2647  0.3909
    5MOL0     C  586   4.352  -0.472   8.688  0.0193  0.6764 -0.5360
    5MOL0     C  587   4.414  -0.439   8.560  0.4520  0.5471 -0.5593
    5MOL0     O  588   4.386  -0.493   8.444  0.2835 -0.7949  0.3338
    5MOL0     C  589   4.292  -0.599   8.447  0.1018 -0.1175 -0.6743
    5MOL0     C  590   4.241  -0.618   8.306  0.0173 -0.4875  0.0557
    5MOL0     C  591   4.357  -0.641   8.205  0.4473  0.0867 -0.4929
    5MOL0     C  592   4.326  -0.727   8.090 -0.2658  0.0534  0.2227
    5MOL0     C  593   4.208  -0.695   8.007  0.3224 -0.8536 -0.4013
    5MOL0     C  594   4.151  -0.814   7.923 -0.3775 -0.0505 -0.4146
    5MOL0     C  595   4.235  -0.841   7.795  0.4145 -0.0957  0.7408
    5MOL0     C  596   4.161  -0.958   7.727  0.3945 -0.6691  0.7539
    5MOL0    Cl  597   4.204  -1.105   7.816  0.3611  0.2359 -0.1393
    5MOL0     C  598   4.520  -0.350   8.567  0.6158 -0.2469 -0.4024
    5MOL0     C  599   4.558  -0.295   8.688 -0.7459  0.8004 -0.2831
    5MOL0     O  600   4.424  -0.133   8.965 -0.2036  0.1191  0.3611
    5MOL0     C  601   4.665  -0.282   9.187 -0.1694  0.2219  0.2302
    5MOL0     C  602   4.723  -0.272   9.315  0.0293  0.4004  0.1087
    5MOL0     N  603   5.052   0.341   9.401 -0.5689  0.6002 -0.0340
    5MOL0     N  604   5.106   0.451   9.427  0.0325  0.4692  0.1415
    5MOL0     C  605   5.457   1.558   9.557  1.3336  0.4217  0.2608
    5MOL0     C  606   5.374   1.671   9.572 -0.9166 -0.6695  0.6592
    5MOL0     C  607   5.088   2.004   9.664  0.6443 -0.0434  0.5945
    5MOL0     C  608   5.003   1.993   9.551 -0.1657  0.8309 -0.2209
    5MOL0     C  609   4.932   2.108   9.497 -0.0388  0.2651  0.1549
    5MOL0     C  610   4.917   2.224   9.573 -0.2695  0.4823 -0.0035
    5MOL0     O  611   4.855   2.337   9.535 -0.6777  0.3619 -0.2342
    5MOL0     C  612   4.771   2.343   9.423 -0.1921  0.5661 -0.1830
    5MOL0     C  613   4.627   2.301   9.468  0.6875 -0.1379 -0.1982
    5MOL0     C  614   4.525   2.309   9.344 -0.5847 -0.5881  0.2574
    5MOL0     C  615   4.483   2.174   9.283  0.6385 -0.9794 -0.0806
    5MOL0     C  616   4.582   2.094   9.217  0.4352  0.3806 -0.1589
    5MOL0     C  617   4.663   2.014   9.176  0.3137 -0.5205 -0.4082
    5MOL0     C  618   4.986   2.234   9.689  0.6336 -0.2328 -0.0529
    5MOL0     C  619   5.072   2.128   9.732  0.1466  0.0455 -0.5391
    5MOL0     C  620   5.156   2.163   9.851 -0.2434 -0.0173  0.2041
    5MOL0     H  621   5.150   1.558   9.801 -1.3347 -0.3491 -1.0459
    5MOL0     H  622   5.287   1.347   9.755  0.6534  2.1332  2.0016
    5MOL0     H  623   5.495   1.297   9.395 -1.2539 -2.3196 -1.3897
    5MOL0     H  624   5.345   1.236   9.461  0.3233  1.2557 -1.2997
    5MOL0     H  625   5.498   1.074   9.355 -0.4267  2.3321 -1.1448
    5MOL0     H  626   5.620   1.104   9.486  0.4349 -0.1523 -1.8948
    5MOL0     H  627   5.468   1.017   9.654  1.6147 -1.8788 -0.0205
    5MOL0     H  628   5.335   1.015   9.531 -0.2647  2.7041  0.9757
    5MOL0     H  629   5.474   0.829   9.427  1.0885 -3.6543  0.0953
    5MOL0     H  630   5.614   0.854   9.521  0.0803 -1.4770 -1.6966
    5MOL0     H  631   5.358   0.766   9.655 -0.5769 -2.8843  1.9239
    5MOL0     H  632   5.507   0.797   9.741 -0.6897 -0.9227  0.2756
    5MOL0     H  633   5.620   0.646   9.582 -0.2404  0.5674  0.8545
    5MOL0     H  634   5.540   0.564   9.706  1.8370  2.9348  2.5014
    5MOL0     H  635   5.473   0.433   9.512 -2.2519 -0.8628  1.6352
    5MOL0     H  636   5.411   0.578   9.427  2.7280  1.5208 -0.3598
    5MOL0     H  637   5.302   0.482   9.698  0.5467 -2.2962 -0.8099
    5MOL0     H  638   5.243   0.616   9.607 -1.8974 -0.5941 -0.1471
    5MOL0     H  639   5.262   0.241   9.632 -0.5701 -1.1729  0.0017
    5MOL0     H  640   5.100   0.036   9.470 -0.8714  0.5629 -0.0191
    5MOL0     H  641   4.945   0.111   9.445 -0.9423 -0.6626 -0.5772
    5MOL0     H  642   5.088   0.095   9.729  0.5543  0.7134 -0.4081
    5MOL0     H  643   4.937   0.165   9.698  1.0249 -0.5750  1.5861
    5MOL0     H  644   4.980  -0.135   9.666 -3.0992 -2.8369  2.2596
    5MOL0     H  645   4.925  -0.037   9.795 -2.0710  2.2352 -0.6106
    5MOL0     H  646   4.735  -0.115   9.703 -0.1814  1.9123  0.5115
    5MOL0     H  647   4.744   0.036   9.592  0.4960  0.2228 -1.2915
    5MOL0     H  648   4.639   0.038   9.400  1.2310  0.5523  0.1386
    5MOL0     H  649   4.515   0.161   9.238 -0.3189 -0.6430  0.9519
    5MOL0     H  650   4.404   0.053   9.157  0.7925 -2.4897 -1.0616
    5MOL0     H  651   4.538   0.109   9.068  3.2296 -1.8590  0.7054
    5MOL0     H  652   4.364  -0.459   8.905 -0.2038  2.3727  1.0019
    5MOL0     H  653   4.261  -0.532   8.690 -0.1292  0.9004 -0.6309
    5MOL0     H  654   4.339  -0.688   8.490  0.1452 -0.4080 -1.3176
    5MOL0     H  655   4.201  -0.572   8.502  0.8532  1.3151 -0.0955
    5MOL0     H  656   4.189  -0.714   8.308  1.2264 -1.2269 -1.7867
    5MOL0     H  657   4.176  -0.538   8.269 -1.9956 -2.0483  0.0072
    5MOL0     H  658   4.455  -0.662   8.248  0.4535  0.6999 -0.1998
    5MOL0     H  659   4.379  -0.539   8.171 -1.3338  0.4886 -0.5453
    5MOL0     H  660   4.305  -0.825   8.135 -1.0134 -0.1147 -0.4640
    5MOL0     H  661   4.413  -0.742   8.026 -0.4485  1.8897 -0.5171
    5MOL0     H  662   4.120  -0.655   8.057  0.0614 -0.4291 -1.1967
    5MOL0     H  663   4.243  -0.612   7.944  0.4267 -3.3708 -3.9692
    5MOL0     H  664   4.043  -0.805   7.915 -0.5629 -0.9071  0.8239
    5MOL0     H  665   4.162  -0.898   7.993  0.4812 -1.3094 -1.9840
    5MOL0     H  666   4.337  -0.876   7.809  1.3376  1.8474 -0.6612
    5MOL0     H  667   4.227  -0.752   7.732  2.9434  0.4403  1.0807
    5MOL0     H  668   4.193  -0.977   7.624 -0.4295 -1.0037  0.5566
    5MOL0     H  669   4.052  -0.960   7.720  0.1547  2.6193  1.9197
    5MOL0     H  670   4.567  -0.316   8.476 -1.2556 -0.1278 -1.3567
    5MOL0     H  671   4.644  -0.229   8.687  0.2177 -0.4319 -1.0733
    5MOL0     H  672   4.684  -0.370   9.126 -0.6061  0.8751 -0.8742
    5MOL0     H  673   4.778  -0.360   9.347 -0.9072 -0.2376 -0.0049
    5MOL0     H  674   5.543   1.550   9.492  1.1409 -1.4015  0.1943
    5MOL0     H  675   5.414   1.759   9.522  1.8960 -2.9316 -1.3669
    5MOL0     H  676   5.005   1.906   9.486  1.9977 -0.3761  1.3371
    5MOL0     H  677   4.881   2.106   9.402 -1.0013 -1.2953  0.6722
    5MOL0     H  678   4.762   2.447   9.390  1.0893  0.7971  0.1447
    5MOL0     H  679   4.798   2.278   9.340 -4.3482 -2.0904  0.2518
    5MOL0     H  680   4.581   2.360   9.547  1.0518 -1.7428  1.2756
    5MOL0     H  681   4.644   2.201   9.509  0.3780 -1.3796 -2.8411
    5MOL0     H  682   4.430   2.347   9.380 -1.2874 -4.5006  3.2393
    5MOL0     H  683   4.562   2.375   9.264 -0.0206  0.1748  1.1304
    5MOL0     H  684   4.420   2.207   9.200  0.9957 -1.2728 -0.4768
    5MOL0     H  685   4.423   2.128   9.362  0.3724  0.3682  0.5400
    5MOL0     H  686   4.738   1.946   9.142  1.0550  1.2007 -2.4133
    5MOL0     H  687   4.982   2.331   9.738  1.4030 -0.3465  0.2403
    5MOL0     H  688   5.147   2.082   9.925  0.0584  0.5318  0.8564
    5MOL0     H  689   5.259   2.169   9.813  0.1000 -0.5021  1.0217
    5MOL0     H  690   5.129   2.257   9.899  0.6445 -0.1131  0.9153
    6MOL0     O  691   8.109   4.616   2.359  0.0702  0.2867  0.3677
    6MOL0     C  692   8.062   4.707   2.420 -0.4309  0.4559  0.7675
    6MOL0     O  693   8.121   4.775   2.523  0.9268 -0.0719  0.8443
    6MOL0     C  694   8.236   4.729   2.584  0.4324  0.2114  0.1355
    6MOL0     C  695   8.275   4.598   2.592 -0.1679  0.9521 -0.3041
    6MOL0     C  696   8.394   4.557   2.649 -0.5639 -0.6983 -0.3261
    6MOL0     C  697   8.487   4.641   2.699  0.0193 -0.2670 -0.0725
    6MOL0     O  698   8.589   4.597   2.779 -0.0783 -0.9637 -0.3546
    6MOL0     C  699   8.573   4.542   2.909  0.0704  0.0721 -0.1872
    6MOL0     C  700   8.562   4.647   3.016  0.3980 -0.3936 -0.4124
    6MOL0     C  701   8.690   4.726   3.054 -0.2892 -0.2624 -0.1190
    6MOL0     C  702   8.687   4.858   2.980  0.3055  0.4354  0.4426
    6MOL0     C  703   8.782   4.965   3.041  0.3300  0.7538  0.5645
    6MOL0     C  704   8.774   5.091   2.952 -0.2414  0.0967 -1.0019
    6MOL0     C  705   8.837   5.204   3.018  0.2134  0.5447 -0.8480
    6MOL0     C  706   8.736   5.253   3.127 -0.8657  0.5818  0.1651
    6MOL0     N  707   8.607   5.298   3.075 -0.6203 -0.0973 -0.1171
    6MOL0     C  708   8.573   5.420   3.008 -0.0282  0.4152  0.9786
    6MOL0     C  709   8.437   5.418   3.002  0.4969  0.7952  0.2824
    6MOL0     C  710   8.349   5.524   2.939 -0.1295  0.3436 -0.2580
    6MOL0     C  711   8.303   5.630   3.036  0.0641 -1.1659 -0.5521
    6MOL0     C  712   8.424   5.712   3.092  0.0696  0.5808  0.0058
    6MOL0     C  713   8.385   5.781   3.231  0.2918  0.7957 -0.7246
    6MOL0     O  714   8.486   5.883   3.258  1.0213 -0.6075  0.0538
    6MOL0     C  715   8.474   5.967   3.359 -0.5492  0.4962 -1.0143
    6MOL0     C  716   8.566   6.070   3.359  0.1184 -0.1776 -0.0853
    6MOL0     C  717   8.557   6.173   3.451 -0.4344  0.0418 -0.5203
    6MOL0     C  718   8.653   6.286   3.441  0.1354 -0.1233 -0.0387
    6MOL0     C  719   8.478   6.168   3.566  0.8632  0.2693  0.1676
    6MOL0     C  720   8.449   6.291   3.653 -0.8466 -0.0420 -1.1720
    6MOL0     O  721   8.407   6.276   3.781  0.1290  0.2319  0.5144
    6MOL0     C  722   8.339   6.379   3.837  0.0423 -0.6064  1.0999
    6MOL0     C  723   8.383   6.446   3.949 -0.3593  0.2186  0.4779
    6MOL0     C  724   8.303   6.535   4.026  0.7469  0.5314  0.8723
    6MOL0     C  725   8.180   6.575   3.976 -0.3122  0.6113  0.5037
    6MOL0     O  726   8.094   6.676   4.028  0.9101 -0.7919 -0.3497
    6MOL0     C  727   8.105   6.722   4.165 -0.2473  0.2016  0.1818
    6MOL0     C  728   7.969   6.781   4.216 -0.7270  0.5908  0.2696
    6MOL0     C  729   7.907   6.877   4.110  0.0775  0.0895 -0.1047
    6MOL0     C  730   7.799   6.953   4.183  0.8764  0.2716 -1.3967
    6MOL0     C  731   7.730   7.064   4.103  0.4899  0.6085  0.0368
    6MOL0     C  732   7.600   7.103   4.176  0.4621 -0.5672 -0.3220
    6MOL0     C  733   7.519   7.207   4.103  0.0514  0.2886  0.5314
    6MOL0     C  734   7.412   7.274   4.185 -0.5603  0.5765 -0.3040
    6MOL0    Cl  735   7.288   7.339   4.078 -0.0018  0.1584  0.1736
    6MOL0     C  736   8.138   6.515   3.854  0.1436 -0.4807 -0.1163
    6MOL0     C  737   8.210   6.415   3.787  0.4442  0.4765  0.3131
    6MOL0     O  738   8.452   6.397   3.593 -0.6260 -0.3555 -0.2297
    6MOL0     C  739   8.390   6.060   3.582 -0.1370  0.3998 -0.1199
    6MOL0     C  740   8.385   5.967   3.470 -0.7812  0.8495  0.6232
    6MOL0     N  741   8.400   5.290   3.053 -0.3180  0.0750  0.0186
    6MOL0     N  742   8.498   5.226   3.101  0.0262 -0.6475 -0.1130
    6MOL0     C  743   8.451   4.784   2.691 -0.2064  0.2161 -0.2235
    6MOL0     C  744   8.324   4.818   2.635  0.3301 -0.6183 -1.2385
    6MOL0     C  745   7.932   4.748   2.388  0.6386 -0.1180 -0.0037
    6MOL0     C  746   7.830   4.675   2.445 -0.6271 -0.0279 -0.5532
    6MOL0     C  747   7.700   4.732   2.434 -0.3559  0.1420  0.3092
    6MOL0     C  748   7.667   4.836   2.353  0.0932 -1.1372 -0.0474
    6MOL0     O  749   7.537   4.879   2.346  0.3675 -0.0187 -1.1318
    6MOL0     C  750   7.516   5.022   2.352  0.0903  0.1141  0.4010
    6MOL0     C  751   7.365   5.030   2.329 -0.1687 -0.3813 -0.3576
    6MOL0     C  752   7.334   5.171   2.286  0.3549 -0.0566 -0.2428
    6MOL0     C  753   7.186   5.180   2.250 -0.1260 -0.0446  0.0730
    6MOL0     C  754   7.093   5.173   2.368 -1.1704  0.2434 -0.2922
    6MOL0     C  755   7.017   5.167   2.456  1.5172 -0.1529  0.2400
    6MOL0     C  756   7.778   4.902   2.292 -0.2399  0.0812 -0.5743
    6MOL0     C  757   7.908   4.859   2.304 -0.3775  1.1805 -0.3156
    6MOL0     C  758   8.020   4.933   2.227 -0.8258 -0.1052 -0.0440
    6MOL0     H  759   8.205   4.518   2.569  1.3523 -0.4510 -0.2440
    6MOL0     H  760   8.418   4.451   2.648 -1.6142 -0.9626 -1.8062
    6MOL0     H  761   8.660   4.481   2.933 -1.7578 -3.3208 -1.4741
    6MOL0     H  762   8.485   4.479   2.920 -0.1907  0.4217 -0.2560
    6MOL0     H  763   8.480   4.716   2.993  1.0059  1.5716  2.7505
    6MOL0     H  764   8.527   4.602   3.109  0.2380 -1.0017 -0.7619
    6MOL0     H  765   8.695   4.739   3.162  2.7100  2.3347 -0.4392
    6MOL0     H  766   8.783   4.675   3.026  0.9271  0.8627  1.6657
    6MOL0     H  767   8.709   4.854   2.873  4.5919 -2.0411  1.2335
    6MOL0     H  768   8.583   4.892   2.979 -0.6671 -1.8534  4.1913
    6MOL0     H  769   8.889   4.941   3.042  1.0326  3.3682 -1.0940
    6MOL0     H  770   8.764   4.983   3.147 -0.4483  1.0943  0.3834
    6MOL0     H  771   8.818   5.059   2.858  2.3200 -1.9936  0.7557
    6MOL0     H  772   8.673   5.110   2.914 -0.5514  0.3120 -0.1062
    6MOL0     H  773   8.867   5.279   2.944  2.1033 -0.3061 -1.0062
    6MOL0     H  774   8.928   5.170   3.068  0.3641  1.5348 -0.4046
    6MOL0     H  775   8.723   5.172   3.200  0.0223  1.0665  0.8807
    6MOL0     H  776   8.788   5.334   3.179  1.2949  1.2935 -2.8751
    6MOL0     H  777   8.648   5.486   2.966  2.3764 -2.7701 -0.1671
    6MOL0     H  778   8.262   5.474   2.895 -0.6502 -0.0482  1.1614
    6MOL0     H  779   8.418   5.565   2.865  0.5242 -0.7463 -0.2785
    6MOL0     H  780   8.222   5.689   2.992  0.5556  0.4300  0.6055
    6MOL0     H  781   8.257   5.581   3.122  1.1850  1.3754  1.6303
    6MOL0     H  782   8.513   5.649   3.102 -1.0253 -1.4475 -2.0329
    6MOL0     H  783   8.438   5.780   3.007 -0.5028 -2.8009 -3.0379
    6MOL0     H  784   8.286   5.829   3.232 -0.3545 -0.4574 -1.4145
    6MOL0     H  785   8.369   5.706   3.309  0.6253 -0.3200 -1.7017
    6MOL0     H  786   8.619   6.075   3.264 -0.3011 -2.5529 -0.5156
    6MOL0     H  787   8.701   6.298   3.538  0.8263  0.2715 -0.4199
    6MOL0     H  788   8.609   6.383   3.418  0.4326  0.4415  1.6459
    6MOL0     H  789   8.737   6.277   3.371  0.6217  1.9647  0.2250
    6MOL0     H  790   8.479   6.408   3.984  0.3028 -0.8820 -2.2686
    6MOL0     H  791   8.333   6.579   4.121 -0.6091 -0.5339  1.8399
    6MOL0     H  792   8.153   6.648   4.230  0.8802  0.8302  0.0963
    6MOL0     H  793   8.171   6.809   4.163  0.1809 -0.1266 -0.4341
    6MOL0     H  794   7.900   6.697   4.229  0.8970 -0.4512  2.8413
    6MOL0     H  795   7.997   6.835   4.306 -0.2881  0.4930  0.1958
    6MOL0     H  796   7.871   6.820   4.025  1.0205  0.9013 -1.0780
    6MOL0     H  797   7.982   6.954   4.088 -0.8201  0.9307 -0.2616
    6MOL0     H  798   7.847   6.991   4.274  2.7740 -0.6185 -1.9603
    6MOL0     H  799   7.713   6.891   4.209  0.9856  1.0170  0.9906
    6MOL0     H  800   7.798   7.149   4.091  0.3680  0.6834 -0.1241
    6MOL0     H  801   7.709   7.030   4.001 -0.9005  1.0172  0.1670
    6MOL0     H  802   7.635   7.147   4.269 -1.2794  1.7292 -0.6746
    6MOL0     H  803   7.533   7.020   4.201  0.2615 -0.8903 -1.7842
    6MOL0     H  804   7.478   7.166   4.011  0.4202  2.7439 -0.8062
    6MOL0     H  805   7.589   7.282   4.065  2.1227 -1.0362  1.5480
    6MOL0     H  806   7.459   7.355   4.241 -1.1537  3.2718 -3.4406
    6MOL0     H  807   7.361   7.204   4.253  0.3459 -0.6169 -0.8113
    6MOL0     H  808   8.038   6.532   3.815  0.0780  0.7329  0.5197
    6MOL0     H  809   8.163   6.377   3.696 -2.2371  1.0708  1.3560
    6MOL0     H  810   8.311   6.063   3.656 -0.0389  2.2771 -0.0291
    6MOL0     H  811   8.320   5.880   3.475  0.7175 -0.4144 -0.5053
    6MOL0     H  812   8.513   4.862   2.734 -0.0654 -0.5237  0.9412
    6MOL0     H  813   8.294   4.922   2.640  0.9438 -0.4588 -0.7887
    6MOL0     H  814   7.861   4.587   2.501  1.6158 -0.1792 -1.8997
    6MOL0     H  815   7.621   4.667   2.471 -1.8215  0.4036 -2.1479
    6MOL0     H  816   7.538   5.055   2.454  0.0404 -3.4701  1.7079
    6MOL0     H  817   7.586   5.064   2.279  2.1659 -1.8755  1.1266
    6MOL0     H  818   7.309   4.996   2.417 -1.0384 -2.3136 -1.5878
    6MOL0     H  819   7.328   4.974   2.242 -0.9641 -2.1322  1.0386
    6MOL0     H  820   7.352   5.238   2.371 -0.8935 -2.8972  2.4756
    6MOL0     H  821   7.381   5.204   2.193  1.5840  0.7759  0.6507
    6MOL0     H  822   7.159   5.106   2.174  1.3196  0.5618 -1.0969
    6MOL0     H  823   7.168   5.278   2.204 -1.3258 -0.4418 -0.3350
    6MOL0     H  824   6.954   5.183   2.542  0.8242 -1.8883  0.1059
    6MOL0     H  825   7.759   4.978   2.217 -4.3890 -0.5655 -0.3755
    6MOL0     H  826   7.967   4.995   2.154 -0.8017 -1.1426 -0.9631
    6MOL0     H  827   8.079   4.992   2.298 -0.0120 -1.2762  0.2679
    6MOL0     H  828   8.082   4.871   2.162  1.3154  2.4749 -0.6626
    7MOL0     O  829   5.291   0.145   5.322 -0.4218 -0.4566  0.0982
    7MOL0     C  830   5.328   0.037   5.276  0.8116 -0.2139  0.6112
    7MOL0     O  831   5.387  -0.065   5.351  0.2299  0.3638  0.1586
    7MOL0     C  832   5.381  -0.062   5.487  0.9670  0.1912  0.2315
    7MOL0     C  833   5.258  -0.061   5.554  0.1285  0.2649  1.3744
    7MOL0     C  834   5.252  -0.072   5.692  0.0743  0.8061 -0.2437
    7MOL0     C  835   5.364  -0.099   5.771 -0.9433 -1.1920  0.0398
    7MOL0     O  836   5.381  -0.098   5.915 -0.1474 -0.4002  0.7357
    7MOL0     C  837   5.268  -0.103   6.003 -0.2737  0.4531 -0.2610
    7MOL0     C  838   5.238   0.037   6.065 -0.0396  0.2328  0.5223
    7MOL0     C  839   5.095   0.028   6.128 -0.0753 -0.1237 -0.3886
    7MOL0     C  840   5.044   0.179   6.132 -0.9135 -0.4962  0.6398
    7MOL0     C  841   4.949   0.202   6.248  0.0878  0.6001 -0.0648
    7MOL0     C  842   4.805   0.162   6.230  0.2519 -0.3227  0.1225
    7MOL0     C  843   4.709   0.232   6.319 -0.9470  0.4112 -0.0869
    7MOL0     C  844   4.570   0.223   6.266 -0.6996  0.7605  0.6540
    7MOL0     N  845   4.468   0.255   6.378 -0.1593  0.8727  0.3345
    7MOL0     C  846   4.375   0.159   6.403 -0.2451  0.1290 -0.7676
    7MOL0     C  847   4.263   0.220   6.434  0.2042 -0.0239  0.0769
    7MOL0     C  848   4.132   0.148   6.434 -0.4570 -0.4311  0.4652
    7MOL0     C  849   4.076   0.150   6.292  0.1650 -0.3782 -0.0118
    7MOL0     C  850   4.000   0.284   6.271  0.4795 -1.1047  0.7382
    7MOL0     C  851   3.930   0.274   6.140  0.2176  0.0563 -0.4622
    7MOL0     O  852   4.029   0.247   6.044  0.3318  0.8778  0.0400
    7MOL0     C  853   4.020   0.273   5.909  1.0455 -0.3007 -0.9186
    7MOL0     C  854   4.135   0.257   5.829 -0.1021  0.3840  0.6251
    7MOL0     C  855   4.128   0.264   5.694  0.1078  1.1099  0.7732
    7MOL0     C  856   4.254   0.194   5.627 -0.8223 -0.9883  0.3255
    7MOL0     C  857   3.995   0.282   5.630  0.0369  0.7921 -0.3302
    7MOL0     C  858   3.971   0.272   5.477 -0.3987 -0.1462  0.1171
    7MOL0     O  859   3.840   0.308   5.419  0.0754  0.2833 -0.4315
    7MOL0     C  860   3.808   0.260   5.296 -0.4912 -0.2089  0.1384
    7MOL0     C  861   3.855   0.321   5.175 -0.6241 -0.6534  0.4603
    7MOL0     C  862   3.812   0.268   5.049 -0.5476 -0.0781 -0.1962
    7MOL0     C  863   3.727   0.158   5.037  0.8165  0.0910 -0.6469
    7MOL0     O  864   3.697   0.096   4.922 -0.4370  0.0753 -0.4567
    7MOL0     C  865   3.734  -0.046   4.898  0.1225  0.0510 -0.1140
    7MOL0     C  866   3.881  -0.066   4.926 -0.3289  0.9252 -0.7118
    7MOL0     C  867   3.983  -0.003   4.827  0.0887 -0.1015 -0.8112
    7MOL0     C  868   4.120  -0.071   4.831 -0.3657  0.2267 -0.0196
    7MOL0     C  869   4.220   0.017   4.748  0.4217 -0.1786  0.0362
    7MOL0     C  870   4.237  -0.057   4.614  0.6942  0.0412  0.4134
    7MOL0     C  871   4.303   0.033   4.501  0.2673  0.6781  0.1837
    7MOL0     C  872   4.453   0.041   4.538 -0.3609 -0.9105  0.9035
    7MOL0    Cl  873   4.532  -0.112   4.546  0.5152  0.4519 -0.3151
    7MOL0     C  874   3.685   0.101   5.169  0.3756 -0.2865  1.0002
    7MOL0     C  875   3.733   0.154   5.292  0.2351 -0.0705 -0.3163
    7MOL0     O  876   4.069   0.230   5.409  0.5594  1.1119  0.2649
    7MOL0     C  877   3.889   0.328   5.709  0.9595  0.8007  0.6090
    7MOL0     C  878   3.900   0.312   5.847 -0.3322  0.3401 -0.7245
    7MOL0     N  879   4.280   0.354   6.446 -0.8774  0.1490  0.3173
    7MOL0     N  880   4.400   0.376   6.400 -0.6962 -1.0146  0.8330
    7MOL0     C  881   5.488  -0.097   5.702  0.2599 -0.1638  0.1953
    7MOL0     C  882   5.494  -0.085   5.564  0.0266 -0.0644 -0.3983
    7MOL0     C  883   5.290   0.013   5.131  0.0620 -0.1307 -0.2014
    7MOL0     C  884   5.229   0.109   5.053 -0.7098 -0.1996  0.5372
    7MOL0     C  885   5.196   0.089   4.920  0.4143  0.1086 -0.6312
    7MOL0     C  886   5.211  -0.033   4.856  0.0749 -0.5843 -0.5230
    7MOL0     O  887   5.182  -0.046   4.728  0.2699  0.0442 -0.1705
    7MOL0     C  888   5.063  -0.132   4.704  0.0510 -0.1284 -0.3728
    7MOL0     C  889   4.967  -0.061   4.617  0.0298 -0.1285 -0.2037
    7MOL0     C  890   4.909   0.072   4.681 -0.6083  0.4753  0.5516
    7MOL0     C  891   4.816   0.145   4.579  0.0580  0.4025 -0.5370
    7MOL0     C  892   4.819   0.293   4.609 -0.6565 -0.0528  0.6350
    7MOL0     C  893   4.825   0.415   4.621 -0.2094  1.0688 -1.2976
    7MOL0     C  894   5.272  -0.135   4.928 -0.6199  0.2600 -0.7414
    7MOL0     C  895   5.303  -0.120   5.063 -0.3949  0.2190 -0.3027
    7MOL0     C  896   5.354  -0.246   5.131  0.1214  0.2590 -0.8266
    7MOL0     H  897   5.177  -0.053   5.483 -0.0876 -0.9431  1.4706
    7MOL0     H  898   5.157  -0.056   5.741 -1.9295  1.2481 -3.9810
    7MOL0     H  899   5.271  -0.181   6.079 -0.4453  3.2772  2.8584
    7MOL0     H  900   5.182  -0.131   5.940 -0.0014 -0.0938 -0.3975
    7MOL0     H  901   5.318   0.070   6.132  0.0026 -1.0229  1.1381
    7MOL0     H  902   5.233   0.102   5.977  1.1290  1.2976  1.2139
    7MOL0     H  903   5.024  -0.033   6.072 -0.5035 -0.1673  0.1861
    7MOL0     H  904   5.086  -0.022   6.225  0.9559 -1.0440 -0.7545
    7MOL0     H  905   5.132   0.238   6.159  1.0984 -3.4733  1.1599
    7MOL0     H  906   4.997   0.213   6.039 -0.7360  0.0846  0.7597
    7MOL0     H  907   4.941   0.308   6.273 -3.8005  0.3417  0.4037
    7MOL0     H  908   4.993   0.156   6.338  0.7000 -0.0530 -0.6823
    7MOL0     H  909   4.800   0.174   6.121  0.5931 -0.1224  0.1271
    7MOL0     H  910   4.791   0.055   6.248 -1.7681 -0.0387  0.4645
    7MOL0     H  911   4.746   0.335   6.316  1.5440 -0.4419 -1.7885
    7MOL0     H  912   4.717   0.190   6.419 -0.7659 -0.6510 -0.5292
    7MOL0     H  913   4.563   0.300   6.188  4.3656  0.9872  0.0653
    7MOL0     H  914   4.545   0.125   6.225 -0.1766  0.1788  1.6967
    7MOL0     H  915   4.380   0.053   6.385 -0.4619 -0.2383  1.1140
    7MOL0     H  916   4.064   0.194   6.506 -0.3892  2.1862 -1.0005
    7MOL0     H  917   4.162   0.046   6.459  0.9927 -0.4953 -1.3204
    7MOL0     H  918   4.154   0.143   6.216 -1.7985 -1.3923 -2.0236
    7MOL0     H  919   4.018   0.061   6.267  0.4342 -0.0769 -1.8673
    7MOL0     H  920   3.923   0.303   6.347 -0.3358 -0.5073 -0.2060
    7MOL0     H  921   4.068   0.369   6.271 -0.7318 -0.1011 -0.0051
    7MOL0     H  922   3.853   0.196   6.138  0.0096 -0.2691  4.9444
    7MOL0     H  923   3.874   0.364   6.113  1.4374  1.6287  1.9588
    7MOL0     H  924   4.233   0.226   5.863 -0.5954 -0.8856  0.9276
    7MOL0     H  925   4.238   0.091   5.593  0.2390  0.0194 -3.7817
    7MOL0     H  926   4.345   0.200   5.686 -1.8323 -1.6610  2.0369
    7MOL0     H  927   4.278   0.242   5.532  0.2423 -2.0482  0.0374
    7MOL0     H  928   3.910   0.415   5.168 -3.9038  1.3350 -4.5027
    7MOL0     H  929   3.827   0.317   4.954  1.2507  1.7759  0.9559
    7MOL0     H  930   3.688  -0.119   4.965 -0.3563  0.6577  0.2249
    7MOL0     H  931   3.718  -0.072   4.793 -0.9487  0.9779 -0.1970
    7MOL0     H  932   3.901  -0.027   5.026  1.0881  2.0959 -1.4143
    7MOL0     H  933   3.922  -0.167   4.929  0.8945  1.3852 -1.4012
    7MOL0     H  934   4.006   0.099   4.860  1.5102 -1.0334  1.3387
    7MOL0     H  935   3.940  -0.005   4.726 -1.5753 -2.0386 -0.1093
    7MOL0     H  936   4.117  -0.175   4.797  3.4549 -0.4372  1.2463
    7MOL0     H  937   4.139  -0.081   4.938 -1.1876 -2.0999 -0.0490
    7MOL0     H  938   4.187   0.119   4.725  1.8100 -0.3530 -3.3406
    7MOL0     H  939   4.317   0.028   4.798  1.2559  1.5512 -1.8230
    7MOL0     H  940   4.140  -0.083   4.571  0.2845  2.6583 -0.4724
    7MOL0     H  941   4.296  -0.146   4.635 -0.4024 -0.7713  0.1546
    7MOL0     H  942   4.258   0.133   4.498 -2.5067 -0.4220  1.6481
    7MOL0     H  943   4.285  -0.015   4.405  1.9509  0.1757  0.0935
    7MOL0     H  944   4.456   0.089   4.637 -2.7197  4.2294 -1.1698
    7MOL0     H  945   4.508   0.111   4.474  2.2218 -0.9376  2.8887
    7MOL0     H  946   3.627   0.008   5.167  0.6198 -0.4497  1.4381
    7MOL0     H  947   3.699   0.110   5.386 -0.3083  1.1549  0.0759
    7MOL0     H  948   3.797   0.362   5.662  0.0735 -0.8231  1.1167
    7MOL0     H  949   3.808   0.328   5.902  0.5645  1.9497  0.3871
    7MOL0     H  950   5.581  -0.107   5.758  0.8971 -4.2794 -1.2007
    7MOL0     H  951   5.579  -0.103   5.498  0.6402  2.2240 -0.3369
    7MOL0     H  952   5.200   0.210   5.082  1.3707  0.5700  0.1320
    7MOL0     H  953   5.153   0.178   4.875  0.4223  1.1186  1.2688
    7MOL0     H  954   5.100  -0.229   4.670  0.6150  0.7284 -2.3557
    7MOL0     H  955   5.004  -0.148   4.795 -0.3811  1.5539 -0.3311
    7MOL0     H  956   4.883  -0.125   4.591  0.6981 -2.0226  2.0115
    7MOL0     H  957   5.010  -0.050   4.517 -1.0650  0.3416 -0.6402
    7MOL0     H  958   4.856   0.050   4.774 -1.5124 -0.8827 -0.2493
    7MOL0     H  959   4.994   0.137   4.701 -4.1192  5.0523  2.5156
    7MOL0     H  960   4.710   0.121   4.593  0.2199  1.0041  2.3516
    7MOL0     H  961   4.845   0.120   4.477  0.1041 -0.1940 -0.3811
    7MOL0     H  962   4.831   0.522   4.618  0.5773  1.0204 -3.4738
    7MOL0     H  963   5.293  -0.223   4.868  1.9733  0.3848 -0.1394
    7MOL0     H  964   5.314  -0.338   5.086 -3.0913  1.0164  0.1930
    7MOL0     H  965   5.463  -0.243   5.127  0.0938  0.0414 -2.2038
    7MOL0     H  966   5.307  -0.255   5.229 -0.1134  2.7500 -0.6487
    8MOL0     O  967   4.194   3.167   3.557  0.5741 -0.0561  0.3991
    8MOL0     C  968   4.280   3.081   3.580  0.1881 -1.3797 -0.1875
    8MOL0     O  969   4.335   3.057   3.699 -0.3169 -0.8651 -0.2602
    8MOL0     C  970   4.318   3.147   3.801 -0.3032  0.1726  0.2568
    8MOL0     C  971   4.392   3.263   3.817  0.4328 -0.0778  0.2647
    8MOL0     C  972   4.370   3.349   3.933 -0.3699  0.1822  0.2565
    8MOL0     C  973   4.279   3.294   4.027 -1.3921  0.6261 -0.5609
    8MOL0     O  974   4.224   3.348   4.139 -0.4560 -1.0569 -0.2652
    8MOL0     C  975   4.155   3.469   4.107  0.3329 -1.0707  0.5659
    8MOL0     C  976   4.215   3.587   4.183 -0.5427 -0.6147 -0.4765
    8MOL0     C  977   4.160   3.723   4.125 -0.2184  0.3532  0.6613
    8MOL0     C  978   4.172   3.833   4.223 -0.7606 -0.4526 -0.6300
    8MOL0     C  979   4.099   3.958   4.177 -0.2261 -0.0107 -0.0864
    8MOL0     C  980   4.178   4.048   4.083  0.0475 -0.3051  0.1798
    8MOL0     C  981   4.267   4.170   4.130  0.3918  0.0425 -0.3577
    8MOL0     C  982   4.413   4.129   4.129  0.0236 -0.4064  0.5939
    8MOL0     N  983   4.498   4.214   4.216  0.5435 -1.2399 -0.5121
    8MOL0     C  984   4.590   4.313   4.176 -0.0869 -0.0096  0.1377
    8MOL0     C  985   4.614   4.398   4.284 -0.4320  0.4635  0.0577
    8MOL0     C  986   4.702   4.517   4.281  0.9755  0.2190 -0.1033
    8MOL0     C  987   4.853   4.488   4.300  0.1490  1.0970 -0.1872
    8MOL0     C  988   4.870   4.477   4.454  0.2199 -0.1806 -0.6331
    8MOL0     C  989   5.015   4.466   4.487  0.0758 -0.4399  1.0697
    8MOL0     O  990   5.070   4.341   4.443 -0.7671  0.0884 -0.0736
    8MOL0     C  991   5.081   4.245   4.540  0.6637 -0.2504  0.4182
    8MOL0     C  992   5.193   4.162   4.550 -0.4272 -0.1462 -0.2062
    8MOL0     C  993   5.203   4.058   4.639  0.2894  0.2301  0.2615
    8MOL0     C  994   5.328   3.974   4.625 -0.4407  0.1004  0.0596
    8MOL0     C  995   5.098   4.029   4.724 -0.4332 -0.5435  0.6549
    8MOL0     C  996   5.081   3.908   4.802 -0.5724 -0.5980 -0.1978
    8MOL0     O  997   5.157   3.802   4.781  0.2217  0.4356  0.3420
    8MOL0     C  998   5.167   3.698   4.861 -0.1541  0.3611 -0.2652
    8MOL0     C  999   5.184   3.726   4.998 -0.0049  0.0410 -0.5582
    8MOL0     C 1000   5.212   3.613   5.077  0.1515 -0.3349 -0.3237
    8MOL0     C 1001   5.203   3.478   5.035 -0.8478  0.2520  0.3737
    8MOL0     O 1002   5.219   3.371   5.114  0.4424 -0.1432  0.0313
    8MOL0     C 1003   5.122   3.355   5.219  0.4293  0.1233  0.4788
    8MOL0     C 1004   5.119   3.203   5.272  0.6234 -0.4878 -0.3902
    8MOL0     C 1005   5.067   3.104   5.168 -0.5521 -0.1247 -0.7664
    8MOL0     C 1006   5.134   2.962   5.200 -0.2958  0.0652 -0.5886
    8MOL0     C 1007   5.070   2.849   5.116  0.1626 -0.5894 -0.7612
    8MOL0     C 1008   5.129   2.714   5.139 -0.5054 -0.1312 -0.1495
    8MOL0     C 1009   5.075   2.609   5.041 -0.6880 -0.2862 -0.3606
    8MOL0     C 1010   4.934   2.575   5.070 -0.2107  0.5395  0.5747
    8MOL0    Cl 1011   4.895   2.469   4.940 -0.2357  0.1271 -0.5119
    8MOL0     C 1012   5.184   3.463   4.897  0.9797  0.2665 -0.6344
    8MOL0     C 1013   5.156   3.575   4.806 -0.4546  1.1905  0.0654
    8MOL0     O 1014   4.988   3.913   4.879  0.5460  0.1365 -0.2460
    8MOL0     C 1015   4.994   4.130   4.731 -0.0566  1.0947  0.7537
    8MOL0     C 1016   4.984   4.234   4.638  0.1515 -0.2617  0.6252
    8MOL0     N 1017   4.541   4.348   4.390 -0.7362 -0.7376  0.2153
    8MOL0     N 1018   4.482   4.238   4.347  0.8050  0.8663 -0.9645
    8MOL0     C 1019   4.200   3.178   4.003  0.0732 -0.3304  0.2537
    8MOL0     C 1020   4.220   3.109   3.887  0.3620  1.4488 -1.4968
    8MOL0     C 1021   4.302   2.981   3.478  0.8792 -0.6793  0.0169
    8MOL0     C 1022   4.292   2.843   3.514 -0.3294 -0.4521  0.7402
    8MOL0     C 1023   4.291   2.740   3.416 -0.4484  0.4858  0.7023
    8MOL0     C 1024   4.296   2.773   3.279  0.6099  0.9040  0.7336
    8MOL0     O 1025   4.307   2.674   3.174 -0.1587 -0.2359  0.4608
    8MOL0     C 1026   4.366   2.546   3.193 -0.1821 -0.1290  0.1189
    8MOL0     C 1027   4.446   2.510   3.076  0.3114 -0.2109  1.4765
    8MOL0     C 1028   4.343   2.482   2.959  0.4979  0.6445 -0.1076
    8MOL0     C 1029   4.414   2.400   2.861  0.7043  0.4770  0.5047
    8MOL0     C 1030   4.353   2.414   2.723 -0.0750 -0.1816 -0.5896
    8MOL0     C 1031   4.293   2.414   2.613  0.2790  0.6735 -1.2544
    8MOL0     C 1032   4.305   2.906   3.242  0.5848 -0.4759 -0.5180
    8MOL0     C 1033   4.298   3.008   3.336  0.7582  0.8873 -0.1543
    8MOL0     C 1034   4.267   3.155   3.290 -0.6575  0.4862  0.1277
    8MOL0     H 1035   4.470   3.281   3.744 -0.2809 -2.7698 -1.2845
    8MOL0     H 1036   4.431   3.437   3.951 -0.3028  0.6599 -2.0713
    8MOL0     H 1037   4.050   3.453   4.133  0.2663  2.6863  3.2812
    8MOL0     H 1038   4.163   3.508   4.005  0.5634  0.6678  1.2287
    8MOL0     H 1039   4.183   3.571   4.287 -2.3779  0.1125 -0.9029
    8MOL0     H 1040   4.324   3.589   4.172 -0.7505  2.7368 -3.6692
    8MOL0     H 1041   4.217   3.748   4.035  1.5415  2.2672  2.2022
    8MOL0     H 1042   4.055   3.718   4.097  0.6392  0.7771 -3.1219
    8MOL0     H 1043   4.147   3.797   4.323 -2.9142  0.3686 -0.8128
    8MOL0     H 1044   4.280   3.850   4.220 -0.5986 -1.3379 -0.1356
    8MOL0     H 1045   4.071   4.010   4.269 -0.0132  0.5464 -0.3299
    8MOL0     H 1046   4.005   3.941   4.123 -0.1554  0.5206 -0.3841
    8MOL0     H 1047   4.238   3.982   4.021  0.9156  2.2129 -1.8501
    8MOL0     H 1048   4.106   4.087   4.010  0.8840 -1.1772 -1.1357
    8MOL0     H 1049   4.237   4.190   4.234  0.4944 -0.9568 -0.1321
    8MOL0     H 1050   4.253   4.259   4.067 -1.7317  0.3820  0.5060
    8MOL0     H 1051   4.428   4.027   4.165 -1.8863 -0.6676  0.7263
    8MOL0     H 1052   4.439   4.125   4.023 -1.3557  0.1306  0.2266
    8MOL0     H 1053   4.637   4.318   4.078 -4.2923 -1.8787 -2.2924
    8MOL0     H 1054   4.664   4.589   4.354  1.9734  1.2935 -0.5945
    8MOL0     H 1055   4.691   4.556   4.179 -0.6307 -0.6612 -0.2873
    8MOL0     H 1056   4.881   4.396   4.248  3.6651  1.4180  0.8323
    8MOL0     H 1057   4.920   4.572   4.278  4.0058 -1.1083  1.8716
    8MOL0     H 1058   4.844   4.577   4.490  0.8209 -0.2366 -0.0427
    8MOL0     H 1059   4.802   4.406   4.501  2.2487 -1.4410  0.4891
    8MOL0     H 1060   5.065   4.548   4.435 -0.5333  0.0035  1.1748
    8MOL0     H 1061   5.039   4.483   4.593  3.1519  1.5651  0.1781
    8MOL0     H 1062   5.273   4.174   4.478 -1.3567 -0.1537 -1.2609
    8MOL0     H 1063   5.311   3.892   4.555 -0.2907 -0.8393  1.1005
    8MOL0     H 1064   5.344   3.930   4.724  0.7224 -3.4399 -1.5184
    8MOL0     H 1065   5.423   4.022   4.601  0.3380 -1.3899  0.0204
    8MOL0     H 1066   5.195   3.819   5.053 -0.1997  0.1620 -0.7188
    8MOL0     H 1067   5.234   3.631   5.182  2.0725 -0.9334 -0.5754
    8MOL0     H 1068   5.153   3.426   5.297  0.7274 -0.1602  0.6214
    8MOL0     H 1069   5.026   3.394   5.185  1.2784  0.4796 -1.6825
    8MOL0     H 1070   5.226   3.186   5.289  0.2263  0.0499  3.7058
    8MOL0     H 1071   5.068   3.199   5.369  0.3267 -3.5363 -0.5899
    8MOL0     H 1072   5.103   3.125   5.066 -2.8339 -1.9635 -2.0429
    8MOL0     H 1073   4.958   3.103   5.162 -0.5237 -2.3368 -2.5002
    8MOL0     H 1074   5.123   2.939   5.307  2.7477 -1.4493 -0.4947
    8MOL0     H 1075   5.244   2.962   5.195 -0.0551 -2.3495  2.1286
    8MOL0     H 1076   4.964   2.854   5.141  0.4562 -1.4221  0.8012
    8MOL0     H 1077   5.082   2.869   5.009 -2.5220 -3.7292 -1.7866
    8MOL0     H 1078   5.123   2.680   5.242  0.8581  0.0528  0.0084
    8MOL0     H 1079   5.237   2.716   5.121  0.1223 -1.7512  2.8789
    8MOL0     H 1080   5.140   2.523   5.061 -0.3419  0.2611  0.9868
    8MOL0     H 1081   5.071   2.651   4.940 -1.6802 -1.0673 -0.6610
    8MOL0     H 1082   4.869   2.662   5.061 -0.1013  0.4216 -1.8982
    8MOL0     H 1083   4.910   2.531   5.168  0.2552  0.3458  0.6030
    8MOL0     H 1084   5.192   3.363   4.854  1.3242  0.2146 -0.4571
    8MOL0     H 1085   5.159   3.575   4.698 -0.8621 -2.0951 -0.0422
    8MOL0     H 1086   4.911   4.107   4.797  0.7461 -2.7759  0.6832
    8MOL0     H 1087   4.896   4.295   4.655 -0.9606 -1.3435 -0.9192
    8MOL0     H 1088   4.124   3.162   4.079 -1.6628 -2.5760 -1.7871
    8MOL0     H 1089   4.157   3.025   3.861 -1.5790  1.8413  1.4115
    8MOL0     H 1090   4.283   2.811   3.617  6.1975  2.3853  2.6682
    8MOL0     H 1091   4.285   2.636   3.448 -1.7276  0.6703  1.1392
    8MOL0     H 1092   4.422   2.549   3.287  0.3697  0.6070 -0.2230
    8MOL0     H 1093   4.290   2.468   3.207  1.0495 -1.3259  0.4205
    8MOL0     H 1094   4.517   2.429   3.092  2.5711  1.7088  1.6092
    8MOL0     H 1095   4.500   2.601   3.049 -0.9537 -0.1934 -1.3880
    8MOL0     H 1096   4.258   2.427   3.001  0.0494  3.1004  2.5168
    8MOL0     H 1097   4.307   2.575   2.916 -2.1372  1.0296  2.5967
    8MOL0     H 1098   4.410   2.294   2.889 -4.3345 -0.0843 -1.4164
    8MOL0     H 1099   4.511   2.450   2.852 -1.0824  4.2399  0.2709
    8MOL0     H 1100   4.240   2.401   2.521  0.1233  1.9464 -1.3690
    8MOL0     H 1101   4.298   2.932   3.137 -0.4663  1.1596 -0.0808
    8MOL0     H 1102   4.311   3.227   3.361 -3.4853  2.3730  0.1461
    8MOL0     H 1103   4.301   3.174   3.188 -0.6625  1.8746  0.3589
    8MOL0     H 1104   4.162   3.183   3.300 -1.4151 -1.0986 -2.6514
    9MOL0     O 1105   9.376   6.136   3.335 -0.2927 -0.2281  0.5282
    9MOL0     C 1106   9.284   6.072   3.286 -0.6855  0.9035 -0.3984
    9MOL0     O 1107   9.165   6.058   3.344 -0.5457  0.3245 -0.2495
    9MOL0     C 1108   9.144   6.119   3.463  0.7641  0.3682  0.8461
    9MOL0     C 1109   9.141   6.261   3.494  0.0424 -0.0297  0.7350
    9MOL0     C 1110   9.134   6.305   3.629 -0.0859  0.0654  0.2574
    9MOL0     C 1111   9.106   6.209   3.725 -0.1051 -0.7768 -0.0704
    9MOL0     O 1112   9.081   6.258   3.845  0.1271 -0.4618  0.0290
    9MOL0     C 1113   9.165   6.223   3.953  0.7132  0.6398 -0.4501
    9MOL0     C 1114   9.287   6.318   3.958  0.1993 -0.8732 -0.2140
    9MOL0     C 1115   9.247   6.474   3.968 -0.4499  0.0936 -0.3525
    9MOL0     C 1116   9.366   6.553   4.004 -0.1514 -0.6231 -0.3672
    9MOL0     C 1117   9.332   6.704   3.995 -0.0282  1.1962  0.5263
    9MOL0     C 1118   9.459   6.789   4.008 -0.2326  0.1218 -0.3188
    9MOL0     C 1119   9.505   6.796   4.159  0.8040  0.3491  0.0003
    9MOL0     C 1120   9.401   6.863   4.257  0.1036  1.4172 -0.6251
    9MOL0     N 1121   9.371   6.995   4.202 -0.4032 -0.4172 -0.4073
    9MOL0     C 1122   9.439   7.109   4.240  0.2677  0.2161  0.3220
    9MOL0     C 1123   9.381   7.213   4.167 -0.2270 -0.6064 -0.0630
    9MOL0     C 1124   9.404   7.364   4.183 -0.4155 -0.1354  0.0039
    9MOL0     C 1125   9.554   7.406   4.194 -0.1227  0.3435 -0.3426
    9MOL0     C 1126   9.570   7.538   4.260 -0.0630 -0.4745  0.3140
    9MOL0     C 1127   9.708   7.606   4.227  0.2797 -0.1143  0.9389
    9MOL0     O 1128   9.703   7.722   4.317 -0.0733 -0.4926 -0.3964
    9MOL0     C 1129   9.815   7.797   4.343 -0.5516  0.0640 -0.9428
    9MOL0     C 1130   9.815   7.888   4.449 -0.1234 -1.5288  0.8939
    9MOL0     C 1131   9.924   7.966   4.481 -0.3679  0.0225 -0.9010
    9MOL0     C 1132   9.899   8.051   4.605 -0.1404 -0.4059 -0.6632
    9MOL0     C 1133  10.047   7.946   4.410 -0.0142 -0.1359  0.4117
    9MOL0     C 1134  10.174   8.015   4.436 -0.5917 -0.0725  0.1104
    9MOL0     O 1135  10.290   7.955   4.381  0.2208  0.1373  0.3367
    9MOL0     C 1136  10.406   8.028   4.381  0.7949  0.3607  1.0451
    9MOL0     C 1137  10.519   7.972   4.444  0.4252 -0.3969  0.3206
    9MOL0     C 1138  10.644   8.034   4.448 -0.5251  0.1045 -0.3693
    9MOL0     C 1139  10.656   8.161   4.395  0.2922 -0.3690 -0.6044
    9MOL0     O 1140  10.767   8.234   4.387  0.0909 -0.4497  0.6190
    9MOL0     C 1141  10.823   8.263   4.523 -0.3848 -0.7306 -0.2051
    9MOL0     C 1142  10.737   8.350   4.626  0.6556 -0.2839  0.2736
    9MOL0     C 1143  10.675   8.479   4.568  0.7575  0.1741  0.3668
    9MOL0     C 1144  10.773   8.553   4.481 -0.3799  0.3178  0.6727
    9MOL0     C 1145  10.722   8.694   4.445  0.6320  0.1002  0.7666
    9MOL0     C 1146  10.729   8.792   4.563 -0.3814 -0.1030  0.6778
    9MOL0     C 1147  10.665   8.930   4.525 -0.2999  0.2461  0.1137
    9MOL0     C 1148  10.505   8.928   4.532 -0.6027  0.2150 -0.6025
    9MOL0    Cl 1149  10.435   9.088   4.535 -0.2767  0.4866  0.3007
    9MOL0     C 1150  10.548   8.223   4.341  0.1892 -0.2487  0.9550
    9MOL0     C 1151  10.423   8.155   4.330  0.3770  0.3461 -0.5419
    9MOL0     O 1152  10.177   8.122   4.500  0.0119  0.1280 -0.0047
    9MOL0     C 1153  10.037   7.860   4.290 -0.4747  0.7941 -0.0753
    9MOL0     C 1154   9.928   7.783   4.265 -0.0208 -0.2978  0.4375
    9MOL0     N 1155   9.267   7.160   4.108  0.3091 -0.1680 -0.0771
    9MOL0     N 1156   9.264   7.035   4.131 -0.0472  0.9354  0.2742
    9MOL0     C 1157   9.099   6.076   3.687 -0.4865 -0.5674 -0.4076
    9MOL0     C 1158   9.116   6.031   3.565 -1.0153 -0.8975 -0.0216
    9MOL0     C 1159   9.307   6.006   3.150  1.2388  0.1213  0.9170
    9MOL0     C 1160   9.193   5.969   3.066 -0.9124 -0.5950  0.0724
    9MOL0     C 1161   9.206   5.906   2.947 -0.6803 -0.3001 -0.0204
    9MOL0     C 1162   9.327   5.855   2.906  0.8128  0.0711 -0.6142
    9MOL0     O 1163   9.348   5.777   2.797 -0.6554 -0.1884  0.3813
    9MOL0     C 1164   9.260   5.752   2.693 -0.1537  0.1587 -0.0457
    9MOL0     C 1165   9.306   5.836   2.569  1.0984 -0.0495 -0.1988
    9MOL0     C 1166   9.306   5.987   2.604  0.2912  0.5746 -0.6248
    9MOL0     C 1167   9.337   6.081   2.483 -0.7525  0.0093 -1.0095
    9MOL0     C 1168   9.476   6.080   2.466 -0.1310  0.0443  0.2058
    9MOL0     C 1169   9.595   6.073   2.464  0.5238  0.7567 -0.3775
    9MOL0     C 1170   9.438   5.875   2.991 -0.0107  0.2189 -0.2290
    9MOL0     C 1171   9.434   5.966   3.104 -0.6618 -0.4619  0.5208
    9MOL0     C 1172   9.562   6.020   3.159 -0.3620  0.7521 -0.2851
    9MOL0     H 1173   9.150   6.326   3.407 -0.8098  0.2502  0.8422
    9MOL0     H 1174   9.142   6.410   3.652 -0.3492  0.0721  0.3173
    9MOL0     H 1175   9.187   6.116   3.947  1.1180  0.7039 -0.1798
    9MOL0     H 1176   9.112   6.237   4.048  0.9725  1.7177 -0.4508
    9MOL0     H 1177   9.335   6.289   4.052 -1.0319 -3.5434 -0.3253
    9MOL0     H 1178   9.347   6.301   3.868  1.5983  1.4263  0.2109
    9MOL0     H 1179   9.203   6.502   3.871  1.1657  2.3445 -0.4965
    9MOL0     H 1180   9.175   6.499   4.047  0.3611  1.5504 -0.0533
    9MOL0     H 1181   9.414   6.525   4.098  1.3589 -0.7168 -1.1352
    9MOL0     H 1182   9.432   6.527   3.920 -1.8209 -2.9209 -1.0804
    9MOL0     H 1183   9.261   6.723   4.076  0.5973  1.7168  0.9667
    9MOL0     H 1184   9.275   6.714   3.902 -2.3229 -1.0904  1.5607
    9MOL0     H 1185   9.536   6.743   3.947  1.1436  0.7654  0.8777
    9MOL0     H 1186   9.426   6.886   3.971 -0.0727 -0.1336 -1.1426
    9MOL0     H 1187   9.597   6.853   4.173 -0.1217  1.4628  2.1061
    9MOL0     H 1188   9.532   6.696   4.195  2.6002  1.2130  1.2307
    9MOL0     H 1189   9.311   6.805   4.278  0.7704  1.6669  4.3184
    9MOL0     H 1190   9.459   6.863   4.350  1.2174 -3.0070 -1.1263
    9MOL0     H 1191   9.523   7.124   4.307  1.6171 -1.4260 -0.9111
    9MOL0     H 1192   9.366   7.394   4.281  1.3643  2.4561 -0.0035
    9MOL0     H 1193   9.362   7.422   4.100  2.5307 -0.7316 -2.0639
    9MOL0     H 1194   9.620   7.334   4.244  0.6561 -0.5222 -2.4977
    9MOL0     H 1195   9.589   7.416   4.091  1.2932 -4.0795 -0.5258
    9MOL0     H 1196   9.487   7.602   4.229  1.4059  1.6021  0.4828
    9MOL0     H 1197   9.575   7.523   4.369  4.5476 -0.7802  0.2465
    9MOL0     H 1198   9.785   7.536   4.259  2.0634  0.2327 -2.1621
    9MOL0     H 1199   9.718   7.640   4.123 -2.8931  1.9088  1.1302
    9MOL0     H 1200   9.726   7.882   4.511 -0.3633  0.4294  0.8048
    9MOL0     H 1201   9.942   8.000   4.692 -2.6151 -1.6835 -0.0925
    9MOL0     H 1202   9.795   8.062   4.635 -0.4644  1.2711 -2.2122
    9MOL0     H 1203   9.949   8.148   4.592  4.7044 -2.8504 -2.6973
    9MOL0     H 1204  10.508   7.872   4.485 -1.1743 -0.1541  0.5613
    9MOL0     H 1205  10.729   7.980   4.487  2.6945  3.2518 -2.4285
    9MOL0     H 1206  10.827   8.162   4.566 -3.1823 -2.0302 -2.6592
    9MOL0     H 1207  10.919   8.313   4.507  0.0022 -2.1931 -3.0119
    9MOL0     H 1208  10.662   8.289   4.678  1.2504  2.1548  4.3957
    9MOL0     H 1209  10.796   8.374   4.715  2.7889 -0.9702 -0.8837
    9MOL0     H 1210  10.631   8.540   4.648  0.3928  3.6712 -2.2412
    9MOL0     H 1211  10.593   8.469   4.495  0.1751  2.4078  0.6265
    9MOL0     H 1212  10.785   8.497   4.389 -3.8037  2.0319 -1.0002
    9MOL0     H 1213  10.872   8.561   4.526 -0.1496  0.8526  0.0868
    9MOL0     H 1214  10.777   8.729   4.358  1.6315 -1.6933  0.6190
    9MOL0     H 1215  10.618   8.673   4.418  0.9219 -2.8836  1.5781
    9MOL0     H 1216  10.837   8.806   4.579 -0.2629 -1.3415  1.0666
    9MOL0     H 1217  10.684   8.755   4.655  0.7860  0.6140  1.5653
    9MOL0     H 1218  10.693   8.982   4.434  1.2830 -0.4975  0.1370
    9MOL0     H 1219  10.702   8.993   4.606 -1.3120 -1.4993  2.0345
    9MOL0     H 1220  10.476   8.881   4.626 -1.5053  2.8135  0.5199
    9MOL0     H 1221  10.462   8.866   4.452 -0.7203 -0.7690  0.2067
    9MOL0     H 1222  10.546   8.317   4.288  0.6790  0.6113  2.4176
    9MOL0     H 1223  10.347   8.220   4.289  0.1883  0.2931 -0.2749
    9MOL0     H 1224  10.128   7.850   4.232  0.8576 -0.6727  2.1011
    9MOL0     H 1225   9.929   7.720   4.177 -0.9877 -0.3848  0.4764
    9MOL0     H 1226   9.098   6.006   3.770 -2.4818 -0.7027 -0.5084
    9MOL0     H 1227   9.130   5.925   3.545  0.2607 -0.5951 -0.8775
    9MOL0     H 1228   9.095   6.007   3.095 -0.2277  1.4715 -0.1697
    9MOL0     H 1229   9.124   5.868   2.887 -0.7304  0.5910 -0.5236
    9MOL0     H 1230   9.267   5.644   2.679  1.8626  0.2286  0.0448
    9MOL0     H 1231   9.157   5.774   2.721  0.1023  2.4286 -0.6390
    9MOL0     H 1232   9.219   5.829   2.503 -1.6781  2.9283  2.7708
    9MOL0     H 1233   9.395   5.798   2.520 -0.4120 -4.9644  0.3259
    9MOL0     H 1234   9.208   5.994   2.654  0.2962 -1.0436 -0.3398
    9MOL0     H 1235   9.390   5.993   2.674  2.0605 -4.6004 -1.8494
    9MOL0     H 1236   9.297   6.180   2.508 -0.7636  0.8623 -3.9980
    9MOL0     H 1237   9.279   6.042   2.399 -5.0273  1.5070  0.9313
    9MOL0     H 1238   9.697   6.051   2.488 -0.1707 -2.6389 -0.0209
    9MOL0     H 1239   9.531   5.826   2.963 -0.3410 -0.4615 -0.1579
    9MOL0     H 1240   9.650   5.977   3.111 -2.2520 -0.5359 -2.8302
    9MOL0     H 1241   9.562   6.130   3.160 -0.1955  0.7874 -1.9394
    9MOL0     H 1242   9.568   5.982   3.262 -0.1607 -4.2167 -1.8655
   10MOL0     O 1243   0.548   2.826   4.721  0.3752 -0.2873  0.1963
   10MOL0     C 1244   0.673   2.823   4.710  0.2871 -0.7549 -0.4409
   10MOL0     O 1245   0.757   2.933   4.720  0.1641  0.4125 -0.3210
   10MOL0     C 1246   0.711   3.061   4.744  0.9839  0.3646  0.7206
   10MOL0     C 1247   0.656   3.097   4.862  0.3896 -0.4819 -0.5927
   10MOL0     C 1248   0.620   3.233   4.888  0.5276 -0.1942 -0.2464
   10MOL0     C 1249   0.645   3.330   4.788 -0.3810 -0.1148  0.1091
   10MOL0     O 1250   0.635   3.466   4.793 -0.1619  0.2765 -0.5997
   10MOL0     C 1251   0.563   3.511   4.907  0.0420  0.0168  0.2178
   10MOL0     C 1252   0.578   3.661   4.922  0.1376 -0.4433  0.0205
   10MOL0     C 1253   0.519   3.716   5.048  0.6186  0.3982  0.0374
   10MOL0     C 1254   0.372   3.681   5.064 -0.0587  0.1729 -0.9190
   10MOL0     C 1255   0.314   3.746   5.192  0.6491 -0.0245  0.2103
   10MOL0     C 1256   0.165   3.712   5.201 -1.4666  0.0154  0.0748
   10MOL0     C 1257   0.094   3.776   5.321 -0.2235 -0.3393 -0.1138
   10MOL0     C 1258  -0.059   3.738   5.316 -0.7201 -1.5052 -0.3933
   10MOL0     N 1259  -0.125   3.772   5.185 -0.9173  0.7211 -0.1995
   10MOL0     C 1260  -0.184   3.889   5.151  0.0357  0.5715  0.0265
   10MOL0     C 1261  -0.253   3.866   5.035  0.6722 -0.0765 -0.4220
   10MOL0     C 1262  -0.338   3.971   4.962  0.4651 -0.1049  0.9409
   10MOL0     C 1263  -0.460   3.918   4.876  0.2789 -0.0654 -0.7136
   10MOL0     C 1264  -0.539   4.018   4.794  0.2535 -0.2449  0.8557
   10MOL0     C 1265  -0.651   3.943   4.707 -0.5770  0.6183 -0.8729
   10MOL0     O 1266  -0.715   4.042   4.621  0.4664  0.2721 -0.1005
   10MOL0     C 1267  -0.804   4.126   4.678  0.3536 -0.1841 -0.7692
   10MOL0     C 1268  -0.858   4.234   4.600  0.0010  0.7419 -0.0337
   10MOL0     C 1269  -0.952   4.324   4.637  0.1865 -0.8308  0.4182
   10MOL0     C 1270  -1.022   4.401   4.524  0.0416  0.7417 -0.1531
   10MOL0     C 1271  -0.988   4.333   4.775 -0.7319  0.0730  0.3390
   10MOL0     C 1272  -1.082   4.430   4.840  0.3430  0.7313 -0.3074
   10MOL0     O 1273  -1.109   4.545   4.764  0.6034 -0.8080 -0.1583
   10MOL0     C 1274  -1.185   4.650   4.821  0.2794  0.0711  0.0201
   10MOL0     C 1275  -1.169   4.684   4.951  0.2804  0.9027 -0.1202
   10MOL0     C 1276  -1.237   4.795   4.998  0.2226 -0.1917  0.5522
   10MOL0     C 1277  -1.330   4.868   4.922 -0.5364  0.3708  0.3678
   10MOL0     O 1278  -1.400   4.977   4.961  0.5231  0.3249 -0.1057
   10MOL0     C 1279  -1.429   5.007   5.098  0.4174  0.3533 -0.0115
   10MOL0     C 1280  -1.550   4.936   5.145  0.0167  0.5468 -0.9684
   10MOL0     C 1281  -1.608   4.986   5.281 -0.9104  0.2815 -1.0374
   10MOL0     C 1282  -1.748   4.936   5.317 -0.0934  0.0287  0.2309
   10MOL0     C 1283  -1.838   5.050   5.362  0.5807 -0.1115  0.1737
   10MOL0     C 1284  -1.984   5.008   5.373 -0.2933 -0.7809  0.2905
   10MOL0     C 1285  -2.011   4.873   5.444  0.1142 -0.6678 -0.1308
   10MOL0     C 1286  -2.154   4.865   5.501 -0.3113  0.6435  0.1605
   10MOL0    Cl 1287  -2.217   4.730   5.604 -0.1696  0.0514  0.5562
   10MOL0     C 1288  -1.339   4.837   4.790  0.0273  0.2640 -0.2114
   10MOL0     C 1289  -1.267   4.730   4.740 -0.4842  0.0268  0.3305
   10MOL0     O 1290  -1.140   4.399   4.946 -0.7358  0.7221 -0.3477
   10MOL0     C 1291  -0.942   4.232   4.853 -0.1782  0.0494  0.4774
   10MOL0     C 1292  -0.856   4.133   4.807  0.3108  0.5768 -0.3818
   10MOL0     N 1293  -0.245   3.734   5.009  0.0053 -0.3424 -0.1487
   10MOL0     N 1294  -0.170   3.676   5.099  0.1486  0.0279 -0.3660
   10MOL0     C 1295   0.695   3.294   4.661  0.0892 -0.2084 -0.1202
   10MOL0     C 1296   0.725   3.161   4.638 -0.3950 -0.6040 -0.1965
   10MOL0     C 1297   0.742   2.690   4.683 -0.1368  0.0024  0.1248
   10MOL0     C 1298   0.677   2.584   4.744  0.5536  0.3446 -0.0531
   10MOL0     C 1299   0.721   2.455   4.729 -0.1387  0.1551 -0.7526
   10MOL0     C 1300   0.832   2.426   4.656  0.6608  0.9547  0.2402
   10MOL0     O 1301   0.883   2.301   4.625  0.3249  0.0984 -0.0769
   10MOL0     C 1302   0.798   2.188   4.607 -0.4849  0.1432 -0.3528
   10MOL0     C 1303   0.834   2.127   4.473 -0.3210 -0.4671 -0.7423
   10MOL0     C 1304   0.717   2.055   4.406 -0.1380 -0.2143 -0.2833
   10MOL0     C 1305   0.734   2.023   4.262  0.4125  0.1727  0.5693
   10MOL0     C 1306   0.613   1.965   4.194 -0.5433  0.2681 -0.1750
   10MOL0     C 1307   0.516   1.910   4.142 -0.1410  0.1174  0.4779
   10MOL0     C 1308   0.900   2.520   4.593  0.7194  0.7010 -0.2857
   10MOL0     C 1309   0.861   2.659   4.612 -0.5302  0.8286 -0.3105
   10MOL0     C 1310   0.949   2.763   4.559 -0.7287 -1.0948 -0.6334
   10MOL0     H 1311   0.643   3.016   4.934  0.3656 -0.4687 -0.5825
   10MOL0     H 1312   0.583   3.248   4.989 -2.6053  2.8300 -1.6459
   10MOL0     H 1313   0.622   3.474   4.991  1.3066  0.5238 -0.4221
   10MOL0     H 1314   0.460   3.474   4.905  0.7937 -2.2439 -1.4099
   10MOL0     H 1315   0.685   3.686   4.928  0.5993 -2.3483  0.4069
   10MOL0     H 1316   0.524   3.704   4.838  1.5088 -0.1280 -0.7400
   10MOL0     H 1317   0.578   3.683   5.135  0.7552 -0.5331 -0.3967
   10MOL0     H 1318   0.531   3.824   5.059 -2.9866  0.7663  1.4241
   10MOL0     H 1319   0.322   3.727   4.978  0.4990  0.4892 -1.0784
   10MOL0     H 1320   0.353   3.573   5.060 -1.9459  0.4834 -0.9353
   10MOL0     H 1321   0.329   3.855   5.198  0.8716 -0.0409 -0.0421
   10MOL0     H 1322   0.355   3.706   5.285  0.1110  0.5244  0.6931
   10MOL0     H 1323   0.120   3.739   5.105 -2.0624  1.3882  0.7318
   10MOL0     H 1324   0.166   3.603   5.216  0.3880 -0.0220 -0.0520
   10MOL0     H 1325   0.104   3.884   5.314 -0.7401 -0.2256  0.6797
   10MOL0     H 1326   0.155   3.744   5.406 -0.0844  1.4368  0.4944
   10MOL0     H 1327  -0.090   3.642   5.357 -0.4719 -1.1643  0.6310
   10MOL0     H 1328  -0.116   3.800   5.386  1.8929 -0.9364  1.4097
   10MOL0     H 1329  -0.166   3.981   5.207  3.3726  0.0667 -0.0172
   10MOL0     H 1330  -0.265   4.017   4.895 -0.3715 -1.1465 -0.7342
   10MOL0     H 1331  -0.368   4.042   5.040  0.5843  1.3788 -0.3386
   10MOL0     H 1332  -0.427   3.832   4.816 -2.9506 -1.2639 -0.9672
   10MOL0     H 1333  -0.536   3.887   4.949 -0.3812  1.9520 -0.4828
   10MOL0     H 1334  -0.579   4.101   4.853 -1.5449  0.5411 -1.2752
   10MOL0     H 1335  -0.486   4.069   4.712  0.0511  1.9072  1.9826
   10MOL0     H 1336  -0.601   3.874   4.638 -1.1598  0.3777 -1.0600
   10MOL0     H 1337  -0.712   3.881   4.774  1.8582 -2.0212 -0.9047
   10MOL0     H 1338  -0.828   4.243   4.496  1.4317  1.2938  0.3990
   10MOL0     H 1339  -1.019   4.505   4.557  0.3369  1.1775 -1.4624
   10MOL0     H 1340  -1.129   4.383   4.536 -0.1873  3.3215  3.0138
   10MOL0     H 1341  -0.991   4.383   4.420 -0.7243 -2.9697  0.1510
   10MOL0     H 1342  -1.085   4.641   5.004  0.5598 -0.1011 -1.3125
   10MOL0     H 1343  -1.208   4.822   5.099 -0.4234  3.1573 -0.0314
   10MOL0     H 1344  -1.341   4.988   5.159  0.5331  0.4755 -0.1403
   10MOL0     H 1345  -1.438   5.115   5.114  1.7688  0.1147  3.0648
   10MOL0     H 1346  -1.627   4.941   5.067 -0.2464 -3.6138 -1.2397
   10MOL0     H 1347  -1.530   4.828   5.148  3.3980  1.0829  2.1067
   10MOL0     H 1348  -1.604   5.095   5.280 -4.3395  0.5115 -2.9873
   10MOL0     H 1349  -1.541   4.940   5.355 -4.1485 -2.0981  0.6714
   10MOL0     H 1350  -1.722   4.873   5.403  2.4323 -0.6185 -0.9171
   10MOL0     H 1351  -1.780   4.877   5.230  1.5768 -0.6385  0.0261
   10MOL0     H 1352  -1.810   5.072   5.466 -0.4029 -0.5265  0.5449
   10MOL0     H 1353  -1.830   5.136   5.295  1.4530 -2.9241 -3.6795
   10MOL0     H 1354  -2.025   5.003   5.272  0.6244  1.4964 -0.2589
   10MOL0     H 1355  -2.039   5.088   5.424  3.7777 -0.6517  5.3875
   10MOL0     H 1356  -1.946   4.862   5.531 -1.0516  1.0351  1.0044
   10MOL0     H 1357  -1.987   4.794   5.372 -0.3364 -0.0641 -0.9574
   10MOL0     H 1358  -2.225   4.853   5.419 -4.3381  1.7985  3.1440
   10MOL0     H 1359  -2.169   4.963   5.548 -1.2066  0.6803 -0.1812
   10MOL0     H 1360  -1.409   4.889   4.725 -0.3685 -0.2450 -0.1966
   10MOL0     H 1361  -1.287   4.706   4.636 -2.9662 -0.1190  0.7805
   10MOL0     H 1362  -0.968   4.228   4.958 -1.6533 -1.3599  0.0900
   10MOL0     H 1363  -0.826   4.050   4.869 -1.2625  0.8051  0.7405
   10MOL0     H 1364   0.707   3.368   4.581  1.0918  1.6802  1.6800
   10MOL0     H 1365   0.780   3.154   4.545  1.1504  2.3427  0.3570
   10MOL0     H 1366   0.578   2.584   4.790 -0.2424 -3.9353 -1.3336
   10MOL0     H 1367   0.659   2.379   4.776  0.6338 -1.4063 -2.1517
   10MOL0     H 1368   0.816   2.118   4.689 -2.0068  0.1216 -0.0042
   10MOL0     H 1369   0.695   2.224   4.607 -0.1936  1.8910  4.9167
   10MOL0     H 1370   0.901   2.044   4.497 -1.2719 -1.0774 -0.1427
   10MOL0     H 1371   0.876   2.203   4.406  2.0539 -1.7567 -0.8110
   10MOL0     H 1372   0.707   1.959   4.455 -1.2407 -1.6968 -3.1529
   10MOL0     H 1373   0.622   2.107   4.420  0.1215  0.0964  0.3646
   10MOL0     H 1374   0.822   1.958   4.253  0.0452 -0.7845  3.1001
   10MOL0     H 1375   0.746   2.115   4.204  1.6681  1.2087  2.3547
   10MOL0     H 1376   0.446   1.840   4.101  2.3670 -1.4628 -1.4205
   10MOL0     H 1377   0.980   2.485   4.529  0.3847  0.1413 -0.4097
   10MOL0     H 1378   1.023   2.737   4.482 -0.7062  0.0085 -1.0008
   10MOL0     H 1379   0.901   2.839   4.498 -0.6198 -1.4745 -1.2016
   10MOL0     H 1380   1.011   2.803   4.640  2.3975 -0.9029 -2.8978
   11MOL0     O 1381   5.700   7.290   1.544 -0.0590 -0.3028 -0.4444
   11MOL0     C 1382   5.824   7.279   1.532 -0.3529 -0.6345 -0.7506
   11MOL0     O 1383   5.919   7.309   1.625 -0.0144  0.1628 -0.2090
   11MOL0     C 1384   5.878   7.395   1.721 -1.1878  0.1892  0.0591
   11MOL0     C 1385   5.903   7.529   1.705  0.3005  0.3443  0.9036
   11MOL0     C 1386   5.901   7.599   1.819 -0.2058 -0.6504 -0.5051
   11MOL0     C 1387   5.853   7.557   1.943  0.2055 -0.1896  0.9274
   11MOL0     O 1388   5.831   7.631   2.059 -0.0236 -0.5940  0.6114
   11MOL0     C 1389   5.954   7.706   2.086  0.2241 -0.5212 -0.4496
   11MOL0     C 1390   6.084   7.615   2.103  0.1067  0.3859  0.2785
   11MOL0     C 1391   6.209   7.710   2.125  1.4026 -0.4602 -0.2034
   11MOL0     C 1392   6.338   7.633   2.119 -0.0991  0.2351  0.4609
   11MOL0     C 1393   6.451   7.718   2.182  0.3380  0.3813  0.0010
   11MOL0     C 1394   6.591   7.643   2.182  0.8312  0.5556 -0.1272
   11MOL0     C 1395   6.703   7.741   2.212  0.0800  0.8689  0.4099
   11MOL0     C 1396   6.837   7.674   2.214 -0.3120  0.6191 -0.1792
   11MOL0     N 1397   6.935   7.750   2.278 -0.1319 -0.5258  0.1372
   11MOL0     C 1398   7.044   7.700   2.342 -0.2156  0.5569  0.5499
   11MOL0     C 1399   7.133   7.800   2.366  0.9077 -0.4477  0.6308
   11MOL0     C 1400   7.257   7.778   2.438 -0.0475  0.1104 -0.2089
   11MOL0     C 1401   7.338   7.914   2.445 -0.0429  0.0959 -0.3699
   11MOL0     C 1402   7.265   8.004   2.545  0.1413  0.3901  0.1155
   11MOL0     C 1403   7.357   8.121   2.574  0.4662 -0.4962  0.7511
   11MOL0     O 1404   7.480   8.079   2.624 -0.5490 -0.1746 -0.5216
   11MOL0     C 1405   7.523   8.166   2.717  0.3376 -1.2946  0.1118
   11MOL0     C 1406   7.475   8.184   2.847  0.4466 -0.5157  1.6859
   11MOL0     C 1407   7.533   8.271   2.940 -0.2510 -0.5561 -0.6401
   11MOL0     C 1408   7.477   8.272   3.075  0.7041 -0.0066  0.4156
   11MOL0     C 1409   7.643   8.352   2.900  0.1243 -0.2070 -0.5147
   11MOL0     C 1410   7.717   8.461   2.989  0.0979  0.6206 -0.3527
   11MOL0     O 1411   7.807   8.544   2.922 -0.2858 -0.7451 -0.6449
   11MOL0     C 1412   7.887   8.628   2.998 -0.0016 -0.2771 -0.0253
   11MOL0     C 1413   7.859   8.768   2.994  0.1158  0.6892 -0.2629
   11MOL0     C 1414   7.935   8.857   3.070  0.7806 -0.0795  0.0938
   11MOL0     C 1415   8.034   8.814   3.153 -0.1868 -0.7308  0.5287
   11MOL0     O 1416   8.109   8.915   3.206  0.4252  0.0058 -1.3417
   11MOL0     C 1417   8.234   8.875   3.272  0.0850  0.1136  0.2337
   11MOL0     C 1418   8.230   8.834   3.419  0.4945 -1.2826  0.2632
   11MOL0     C 1419   8.356   8.769   3.469 -0.0108 -0.5208 -1.3170
   11MOL0     C 1420   8.307   8.710   3.605 -0.4481  0.9786  0.4535
   11MOL0     C 1421   8.414   8.621   3.662 -0.6865  0.2840 -0.4211
   11MOL0     C 1422   8.383   8.610   3.819  0.0172  0.0660 -0.1365
   11MOL0     C 1423   8.456   8.503   3.888 -0.2643 -0.7987  0.3307
   11MOL0     C 1424   8.425   8.525   4.035 -0.1922  0.0739 -1.0205
   11MOL0    Cl 1425   8.507   8.412   4.147 -0.3444  0.0756  0.0714
   11MOL0     C 1426   8.063   8.678   3.164 -0.3759  1.2001 -0.1199
   11MOL0     C 1427   7.992   8.583   3.082  0.4057 -0.2502 -0.4593
   11MOL0     O 1428   7.696   8.462   3.111  0.2069 -0.4759  0.6138
   11MOL0     C 1429   7.696   8.324   2.775 -0.3243  0.9875 -0.5936
   11MOL0     C 1430   7.642   8.222   2.692  0.1018  0.4529  1.4309
   11MOL0     N 1431   7.085   7.908   2.295  0.9611  0.1794  0.6724
   11MOL0     N 1432   6.967   7.880   2.251  1.0560 -0.3412 -0.0656
   11MOL0     C 1433   5.812   7.423   1.948  0.1419 -0.7550  0.5881
   11MOL0     C 1434   5.830   7.342   1.843 -0.0867 -0.1519  0.3348
   11MOL0     C 1435   5.866   7.250   1.383 -0.2641 -0.9224 -0.4368
   11MOL0     C 1436   5.779   7.182   1.294  1.0229 -0.5524 -0.0183
   11MOL0     C 1437   5.806   7.136   1.166 -0.1123  0.2625  0.6927
   11MOL0     C 1438   5.927   7.166   1.104  1.0070  0.7780  0.8973
   11MOL0     O 1439   5.942   7.121   0.973 -0.1985 -0.8206  0.3076
   11MOL0     C 1440   6.063   7.153   0.903 -0.2761 -0.4676  0.7155
   11MOL0     C 1441   6.044   7.304   0.860  0.3683  0.6068  0.3247
   11MOL0     C 1442   5.911   7.344   0.793 -0.6476  0.0078  0.0500
   11MOL0     C 1443   5.913   7.486   0.730  0.1151 -0.1347 -0.2167
   11MOL0     C 1444   5.772   7.525   0.726 -0.2042 -0.5087 -0.5121
   11MOL0     C 1445   5.656   7.551   0.705  0.7399  0.1759 -0.4523
   11MOL0     C 1446   6.013   7.247   1.180  0.4262 -0.6577  0.1477
   11MOL0     C 1447   5.988   7.280   1.319  0.0702  0.4446 -0.1803
   11MOL0     C 1448   6.094   7.365   1.376 -0.0310  0.6932  0.3266
   11MOL0     H 1449   5.932   7.572   1.610  0.4643  1.5497  1.4702
   11MOL0     H 1450   5.924   7.704   1.805  2.8959 -1.0905  0.4912
   11MOL0     H 1451   5.945   7.764   2.178 -0.0724  0.4759 -1.1010
   11MOL0     H 1452   5.990   7.782   2.016  3.3674  2.3016  3.7300
   11MOL0     H 1453   6.075   7.555   2.194 -3.1432 -0.1231 -0.2674
   11MOL0     H 1454   6.094   7.555   2.012  1.5409  0.2913  0.4766
   11MOL0     H 1455   6.211   7.790   2.051  1.0816  2.2882  2.5570
   11MOL0     H 1456   6.211   7.766   2.219  1.4288 -0.2609 -0.3212
   11MOL0     H 1457   6.324   7.533   2.159 -6.0896  1.2137  1.8247
   11MOL0     H 1458   6.360   7.608   2.015  0.6628 -4.2410  1.5259
   11MOL0     H 1459   6.430   7.735   2.288  0.1165 -1.2807  0.2522
   11MOL0     H 1460   6.444   7.810   2.123 -1.0383 -0.2552 -0.8911
   11MOL0     H 1461   6.598   7.556   2.248  3.6310 -1.4643 -2.7719
   11MOL0     H 1462   6.599   7.595   2.084  1.0192  3.0478 -1.3991
   11MOL0     H 1463   6.686   7.801   2.301 -0.5846  0.2643  0.7061
   11MOL0     H 1464   6.704   7.813   2.129 -0.0155  0.6590  0.2231
   11MOL0     H 1465   6.821   7.583   2.272 -1.8024 -0.1316 -1.6764
   11MOL0     H 1466   6.869   7.650   2.112  0.4497 -0.2513  0.2437
   11MOL0     H 1467   7.058   7.600   2.381  0.1843  1.0476  1.7114
   11MOL0     H 1468   7.317   7.701   2.390  1.9165  1.4959 -0.0940
   11MOL0     H 1469   7.238   7.754   2.543  2.8813 -2.5362 -0.1462
   11MOL0     H 1470   7.436   7.884   2.483 -1.7254 -1.0752  3.4940
   11MOL0     H 1471   7.351   7.956   2.345 -0.4053 -0.7342 -0.7731
   11MOL0     H 1472   7.167   8.044   2.519 -0.1751 -0.3127  0.2249
   11MOL0     H 1473   7.237   7.955   2.638 -2.7794  3.0045  0.7635
   11MOL0     H 1474   7.370   8.187   2.487 -3.9725  0.2802  0.4406
   11MOL0     H 1475   7.295   8.187   2.636 -1.2854  1.1615 -2.5242
   11MOL0     H 1476   7.393   8.122   2.883 -2.1491  0.6778 -1.6141
   11MOL0     H 1477   7.536   8.202   3.134  2.2136 -0.1904 -1.2124
   11MOL0     H 1478   7.382   8.217   3.068  3.0863 -4.7147  0.6871
   11MOL0     H 1479   7.476   8.373   3.115  1.7024 -0.1029  0.6981
   11MOL0     H 1480   7.777   8.798   2.930 -1.8120 -3.4941 -0.0498
   11MOL0     H 1481   7.937   8.965   3.057 -0.2874  0.0135  0.6699
   11MOL0     H 1482   8.288   8.803   3.209  0.0561 -0.9490  1.3861
   11MOL0     H 1483   8.285   8.972   3.272  2.6073 -1.1197 -0.2853
   11MOL0     H 1484   8.190   8.920   3.474  0.5469  2.2021 -4.4843
   11MOL0     H 1485   8.149   8.761   3.413  0.2297 -0.9022 -1.1266
   11MOL0     H 1486   8.434   8.846   3.475 -2.0761  1.5906  0.1046
   11MOL0     H 1487   8.385   8.693   3.397 -0.3776 -2.6709  0.6847
   11MOL0     H 1488   8.219   8.646   3.594 -0.0451  0.7242 -1.7424
   11MOL0     H 1489   8.287   8.791   3.677 -3.4290  0.4731  0.3393
   11MOL0     H 1490   8.426   8.525   3.611  1.9286  0.7440 -0.8363
   11MOL0     H 1491   8.504   8.682   3.649 -1.2332  1.3793  0.7627
   11MOL0     H 1492   8.275   8.600   3.827 -0.0898  1.6108  0.7395
   11MOL0     H 1493   8.406   8.705   3.868 -2.2320 -0.3016  1.8117
   11MOL0     H 1494   8.563   8.501   3.866 -0.0408 -0.4283  1.3009
   11MOL0     H 1495   8.411   8.407   3.861 -0.6491 -0.9907  1.5772
   11MOL0     H 1496   8.319   8.521   4.060  0.2967 -0.6855  1.0934
   11MOL0     H 1497   8.451   8.627   4.066 -4.0764  0.0473  3.2909
   11MOL0     H 1498   8.143   8.643   3.229 -1.5690 -1.2478  0.1461
   11MOL0     H 1499   8.021   8.479   3.089  1.8756  0.1725  0.2135
   11MOL0     H 1500   7.782   8.385   2.752  0.8743  0.2344  1.5956
   11MOL0     H 1501   7.692   8.203   2.597  2.0910  3.1573  1.8325
   11MOL0     H 1502   5.788   7.374   2.042 -0.0959  0.9690  1.4716
   11MOL0     H 1503   5.809   7.236   1.856 -3.6845  0.5596  1.2275
   11MOL0     H 1504   5.690   7.136   1.337  2.0981 -4.5691 -1.5805
   11MOL0     H 1505   5.733   7.077   1.113  0.9801 -0.8955  0.4233
   11MOL0     H 1506   6.150   7.157   0.969  0.7486  1.0437 -0.6343
   11MOL0     H 1507   6.067   7.080   0.821  1.5542  0.7740 -0.3798
   11MOL0     H 1508   6.139   7.323   0.809 -0.1334 -2.3991 -1.9629
   11MOL0     H 1509   6.044   7.368   0.949  0.4060 -1.0172  1.5376
   11MOL0     H 1510   5.893   7.279   0.708 -0.0285  0.8937 -0.7810
   11MOL0     H 1511   5.839   7.318   0.872 -1.2973 -0.6214 -0.7348
   11MOL0     H 1512   5.953   7.479   0.629 -0.1285  0.3676 -0.3510
   11MOL0     H 1513   5.957   7.554   0.804 -2.9002  0.0320  1.6453
   11MOL0     H 1514   5.555   7.558   0.672  0.6071 -1.8943 -0.6077
   11MOL0     H 1515   6.107   7.286   1.144  0.0920  1.1927  1.1713
   11MOL0     H 1516   6.189   7.329   1.335 -0.1275  1.8018 -0.9075
   11MOL0     H 1517   6.082   7.472   1.355 -3.4663  0.8122  2.1716
   11MOL0     H 1518   6.111   7.353   1.484  3.1195 -2.4782 -0.3256
   12MOL0     O 1519   9.054  10.993  11.395 -0.1764  0.5698 -0.3103
   12MOL0     C 1520   8.971  11.077  11.400 -0.1137  0.1694 -0.1012
   12MOL0     O 1521   8.832  11.055  11.385  0.2994 -0.8888 -0.1881
   12MOL0     C 1522   8.787  10.931  11.408 -0.3347 -0.7532  0.1006
   12MOL0     C 1523   8.824  10.838  11.500 -0.3765  0.1164 -0.3979
   12MOL0     C 1524   8.775  10.708  11.500 -0.4603  0.1639 -1.0064
   12MOL0     C 1525   8.672  10.677  11.414  1.2088  0.6059  0.5335
   12MOL0     O 1526   8.599  10.555  11.420  0.4323  0.5435  1.2119
   12MOL0     C 1527   8.668  10.433  11.465  0.8132 -0.2115 -0.0553
   12MOL0     C 1528   8.742  10.353  11.357  0.0587 -0.4666 -0.1321
   12MOL0     C 1529   8.671  10.360  11.224  0.4562 -0.0348  0.3170
   12MOL0     C 1530   8.750  10.303  11.100  0.1691 -0.2658 -0.5083
   12MOL0     C 1531   8.853  10.402  11.042  0.5250  0.7751  1.1731
   12MOL0     C 1532   8.926  10.327  10.929 -0.4772 -0.6125 -0.2535
   12MOL0     C 1533   8.986  10.432  10.831 -0.2617 -0.5011 -1.2878
   12MOL0     C 1534   9.094  10.371  10.745 -0.8223  0.7429 -0.5889
   12MOL0     N 1535   9.043  10.255  10.670 -0.0671 -0.0968  0.6234
   12MOL0     C 1536   9.070  10.117  10.684 -0.0342  0.9809  0.3738
   12MOL0     C 1537   9.032  10.064  10.566 -0.7748  1.0486  0.1797
   12MOL0     C 1538   9.046   9.921  10.521 -0.9327  0.3059  0.9975
   12MOL0     C 1539   8.923   9.870  10.446  1.1660  0.1314 -1.6452
   12MOL0     C 1540   8.802   9.834  10.540  0.0291 -0.0839 -0.6466
   12MOL0     C 1541   8.677   9.850  10.462  1.3791  0.3196 -0.1432
   12MOL0     O 1542   8.676   9.750  10.356  0.4978  0.9285 -0.5938
   12MOL0     C 1543   8.580   9.778  10.261  0.4770  0.2870  0.0537
   12MOL0     C 1544   8.568   9.681  10.161  0.0541 -0.4117  0.7333
   12MOL0     C 1545   8.478   9.699  10.050 -0.6908  0.4799  0.7817
   12MOL0     C 1546   8.480   9.605   9.932  0.7481  0.6336 -0.4024
   12MOL0     C 1547   8.392   9.813  10.048  0.0163 -0.8606  0.0299
   12MOL0     C 1548   8.300   9.859   9.938  1.1006  0.1152 -1.0669
   12MOL0     O 1549   8.307   9.989   9.898 -0.5858  0.1481  0.8639
   12MOL0     C 1550   8.196  10.032   9.847  0.6959 -1.1596 -0.7113
   12MOL0     C 1551   8.126  10.131   9.932  0.6174  0.6765  0.0979
   12MOL0     C 1552   8.004  10.179   9.882  0.7198  0.4909 -0.2582
   12MOL0     C 1553   7.943  10.144   9.751 -0.1043  0.6636  0.3066
   12MOL0     O 1554   7.820  10.181   9.706  0.2713  0.5161 -1.1062
   12MOL0     C 1555   7.713  10.089   9.721  0.4417 -0.3631  0.4246
   12MOL0     C 1556   7.619  10.130   9.607  0.3579 -0.3350  0.0934
   12MOL0     C 1557   7.488  10.044   9.584 -0.3093  0.0397  0.7245
   12MOL0     C 1558   7.402  10.008   9.698  0.7842 -0.5199  0.2469
   12MOL0     C 1559   7.258   9.968   9.670 -0.1613 -0.1090 -0.3768
   12MOL0     C 1560   7.168  10.081   9.671 -0.1144 -1.0366  0.1550
   12MOL0     C 1561   7.021  10.059   9.630 -0.2507 -0.2106 -0.4262
   12MOL0     C 1562   6.945   9.966   9.725  0.4786  0.7397 -0.0431
   12MOL0    Cl 1563   6.795   9.918   9.641  0.0184 -0.0904 -0.3589
   12MOL0     C 1564   8.032  10.061   9.672  0.4644  0.4065 -0.0753
   12MOL0     C 1565   8.151  10.001   9.720  0.4258 -0.2452  0.1762
   12MOL0     O 1566   8.220   9.770   9.901  0.5626  0.3308 -0.1970
   12MOL0     C 1567   8.401   9.898  10.160  0.9520 -0.3726 -0.1685
   12MOL0     C 1568   8.492   9.886  10.264 -0.0414  0.2527 -0.1498
   12MOL0     N 1569   8.979  10.166  10.486  0.6357 -0.7486 -0.3032
   12MOL0     N 1570   8.987  10.280  10.551  0.3833  0.2870  0.2655
   12MOL0     C 1571   8.609  10.774  11.342 -0.0016 -0.6982 -0.9378
   12MOL0     C 1572   8.665  10.909  11.348 -0.6088 -0.4388  0.7865
   12MOL0     C 1573   9.025  11.214  11.400  0.8557  0.0140  0.2860
   12MOL0     C 1574   9.048  11.275  11.275  1.3539 -0.7380  0.1325
   12MOL0     C 1575   9.097  11.407  11.264 -0.3362 -0.2535 -0.4610
   12MOL0     C 1576   9.121  11.485  11.378  0.2727  1.0329 -0.2742
   12MOL0     O 1577   9.189  11.602  11.372 -0.2204  0.3875 -0.1052
   12MOL0     C 1578   9.279  11.634  11.480 -0.4246  0.3170  0.0112
   12MOL0     C 1579   9.379  11.740  11.435 -0.5870  0.5882  0.4469
   12MOL0     C 1580   9.492  11.758  11.536 -0.5478  0.2704  0.0044
   12MOL0     C 1581   9.596  11.858  11.473  0.1399  1.5534  0.3556
   12MOL0     C 1582   9.657  11.945  11.581  0.1590 -0.5203  0.6695
   12MOL0     C 1583   9.716  12.003  11.667  0.0796 -0.7290  0.0666
   12MOL0     C 1584   9.089  11.431  11.501  0.3096  0.6131  0.4301
   12MOL0     C 1585   9.032  11.296  11.514 -0.6291  0.2312 -0.4379
   12MOL0     C 1586   9.007  11.233  11.654 -0.2934 -0.4747  0.3134
   12MOL0     H 1587   8.898  10.865  11.574 -1.6963  0.1046  0.9626
   12MOL0     H 1588   8.797  10.643  11.584 -0.6527  1.0380 -0.2656
   12MOL0     H 1589   8.593  10.369  11.512  1.8542 -0.7594  0.9281
   12MOL0     H 1590   8.735  10.461  11.547  1.8500 -0.5823 -0.7494
   12MOL0     H 1591   8.849  10.374  11.352 -0.0725  0.0002 -1.2291
   12MOL0     H 1592   8.750  10.248  11.388  3.4988  0.1758  1.6348
   12MOL0     H 1593   8.573  10.313  11.228  0.3700  0.1510  0.4464
   12MOL0     H 1594   8.647  10.465  11.203 -1.9053 -0.4468  0.6911
   12MOL0     H 1595   8.795  10.206  11.121  2.4644  1.0702  1.2931
   12MOL0     H 1596   8.679  10.289  11.018  1.2485 -0.8185 -1.3830
   12MOL0     H 1597   8.922  10.454  11.109 -0.5170  2.1624  1.2257
   12MOL0     H 1598   8.785  10.479  11.004 -1.3423 -0.9714  0.7660
   12MOL0     H 1599   9.013  10.277  10.972  0.9432 -0.1368 -2.4011
   12MOL0     H 1600   8.873  10.252  10.870  2.5931 -1.1647 -2.5706
   12MOL0     H 1601   9.037  10.516  10.879  2.8961 -0.3347 -4.5143
   12MOL0     H 1602   8.916  10.478  10.760  1.5184  1.1655 -2.0494
   12MOL0     H 1603   9.143  10.450  10.687  1.7527  0.2876  0.8240
   12MOL0     H 1604   9.177  10.340  10.809  1.0568  0.0313 -3.1569
   12MOL0     H 1605   9.106  10.063  10.771 -4.5374  2.0257  3.2148
   12MOL0     H 1606   9.090   9.852  10.594  2.4845 -0.9446 -1.9254
   12MOL0     H 1607   9.135   9.920  10.458 -1.0379 -1.8926  0.7905
   12MOL0     H 1608   8.893   9.938  10.365 -0.6466  1.5276  0.0933
   12MOL0     H 1609   8.941   9.775  10.396 -0.8940 -0.0932 -2.0556
   12MOL0     H 1610   8.822   9.731  10.571  0.4958  0.4175  0.7787
   12MOL0     H 1611   8.801   9.903  10.625 -1.0032  1.3077 -1.7522
   12MOL0     H 1612   8.593   9.827  10.528  1.3728  1.6306  0.3334
   12MOL0     H 1613   8.666   9.953  10.425  2.6011  0.1060 -1.1732
   12MOL0     H 1614   8.623   9.588  10.152  0.2215 -0.1553 -1.4030
   12MOL0     H 1615   8.471   9.659   9.837  0.8656  1.2105 -0.0829
   12MOL0     H 1616   8.388   9.545   9.938 -1.3828  3.3249 -2.9134
   12MOL0     H 1617   8.564   9.536   9.925 -2.0675 -3.0929 -1.0547
   12MOL0     H 1618   8.161  10.162  10.030  1.2087  0.5974 -0.0842
   12MOL0     H 1619   7.953  10.234   9.959  1.6740 -0.3235  1.0058
   12MOL0     H 1620   7.738   9.985   9.699  0.2022 -0.3559  0.1031
   12MOL0     H 1621   7.671  10.115   9.819 -0.4558 -0.1183 -0.0105
   12MOL0     H 1622   7.582  10.230   9.633 -1.6192 -1.9141  4.2508
   12MOL0     H 1623   7.673  10.130   9.512  1.6037 -3.2177  0.6698
   12MOL0     H 1624   7.517   9.949   9.537  2.4713 -0.0345  2.3764
   12MOL0     H 1625   7.439  10.100   9.505  1.4525 -1.4255 -1.5476
   12MOL0     H 1626   7.402  10.097   9.763  2.6321  2.1407 -3.0351
   12MOL0     H 1627   7.455   9.930   9.753 -0.0999  0.9327  3.3836
   12MOL0     H 1628   7.255   9.929   9.568  1.5085 -0.5292 -0.2895
   12MOL0     H 1629   7.227   9.894   9.745  0.3446 -0.4571 -0.5102
   12MOL0     H 1630   7.207  10.143   9.590  1.5622 -0.5224  1.2932
   12MOL0     H 1631   7.169  10.130   9.769  1.3888 -0.0502 -0.3115
   12MOL0     H 1632   7.017  10.015   9.530 -2.7307  0.3027 -0.6050
   12MOL0     H 1633   6.975  10.158   9.634  3.1380  1.4571  0.9240
   12MOL0     H 1634   6.923  10.012   9.822  0.4620  1.6674 -0.4726
   12MOL0     H 1635   6.999   9.874   9.744 -0.5155  0.5298  2.0340
   12MOL0     H 1636   8.008  10.047   9.567  2.0629  1.6053 -0.6467
   12MOL0     H 1637   8.223   9.943   9.663 -0.3632 -1.3624  0.2708
   12MOL0     H 1638   8.330   9.980  10.165  4.4832  2.9381  0.2056
   12MOL0     H 1639   8.495   9.959  10.344 -2.5249 -2.2158  2.4085
   12MOL0     H 1640   8.538  10.746  11.265  1.4810  1.3912 -3.2329
   12MOL0     H 1641   8.630  10.980  11.274  0.6430 -1.9004 -1.3184
   12MOL0     H 1642   9.017  11.214  11.191  0.0567  0.3330 -0.2151
   12MOL0     H 1643   9.125  11.435  11.163 -0.1297 -2.8284 -1.1795
   12MOL0     H 1644   9.216  11.675  11.560 -1.9284 -0.2099 -0.8672
   12MOL0     H 1645   9.334  11.549  11.520  1.8205  1.1775 -1.0523
   12MOL0     H 1646   9.308  11.823  11.437 -0.4597  0.7868 -1.7200
   12MOL0     H 1647   9.423  11.721  11.337 -0.3207 -2.4736  1.0502
   12MOL0     H 1648   9.462  11.789  11.637 -5.0275 -1.1349 -0.6855
   12MOL0     H 1649   9.548  11.666  11.553 -2.9224 -1.4709 -1.0071
   12MOL0     H 1650   9.549  11.929  11.404  1.1037  2.9270  1.0680
   12MOL0     H 1651   9.663  11.800  11.409 -0.2563 -0.1508  1.4366
   12MOL0     H 1652   9.772  12.048  11.746  1.5169 -0.7293 -0.9217
   12MOL0     H 1653   9.098  11.486  11.595  1.9144 -1.5090  1.6069
   12MOL0     H 1654   9.070  11.145  11.664  0.7080 -0.0538 -1.6953
   12MOL0     H 1655   9.031  11.304  11.733  0.1537 -0.8645  0.5310
   12MOL0     H 1656   8.902  11.203  11.663 -0.8650  1.2949 -0.0546
   13MOL0     O 1657   7.447   1.915   8.858  0.3254 -0.1513 -0.2179
   13MOL0     C 1658   7.520   1.911   8.756 -0.1965 -0.0632  1.0560
   13MOL0     O 1659   7.606   1.811   8.723  0.1681  0.3805 -0.3233
   13MOL0     C 1660   7.621   1.709   8.817 -0.7208  0.6326  0.2196
   13MOL0     C 1661   7.534   1.600   8.790 -0.1817 -0.2745 -0.6751
   13MOL0     C 1662   7.542   1.487   8.867  0.2410  0.3793 -0.8756
   13MOL0     C 1663   7.641   1.471   8.965 -0.5317  0.4059  0.5957
   13MOL0     O 1664   7.657   1.351   9.036 -0.2977  0.2549  0.1206
   13MOL0     C 1665   7.535   1.286   9.079 -0.1228 -0.6145 -0.1618
   13MOL0     C 1666   7.574   1.161   9.156 -0.3817 -0.0881 -0.6180
   13MOL0     C 1667   7.617   1.194   9.302 -0.0655 -0.5489 -0.5585
   13MOL0     C 1668   7.495   1.239   9.389  0.4092  0.1525 -0.0938
   13MOL0     C 1669   7.550   1.269   9.534 -0.1617  0.4737 -0.5505
   13MOL0     C 1670   7.597   1.409   9.529 -0.7978  0.2528  0.4152
   13MOL0     C 1671   7.666   1.439   9.659  1.3403  0.2290 -0.9720
   13MOL0     C 1672   7.697   1.584   9.681 -0.6738  0.7322  0.3911
   13MOL0     N 1673   7.579   1.671   9.672 -0.0664  0.4335  1.1465
   13MOL0     C 1674   7.540   1.727   9.552 -0.5419 -0.5277  0.9935
   13MOL0     C 1675   7.408   1.748   9.565  0.1614 -0.5369 -1.6802
   13MOL0     C 1676   7.308   1.799   9.471  0.8960  0.6461 -0.0847
   13MOL0     C 1677   7.220   1.697   9.390 -0.4364 -0.3253 -0.1780
   13MOL0     C 1678   7.319   1.616   9.289 -0.2565  0.0208  0.8014
   13MOL0     C 1679   7.373   1.701   9.170  0.3596 -0.3146  0.1254
   13MOL0     O 1680   7.259   1.759   9.103  0.3403 -0.1318  1.1308
   13MOL0     C 1681   7.217   1.886   9.132 -0.5286  0.4203  0.6048
   13MOL0     C 1682   7.310   1.983   9.159  0.3216  0.1750  0.4883
   13MOL0     C 1683   7.278   2.110   9.206 -0.3086 -0.6716  0.4834
   13MOL0     C 1684   7.400   2.199   9.223 -0.4335 -0.9456  0.4582
   13MOL0     C 1685   7.143   2.133   9.244 -1.0480  0.9006 -0.6431
   13MOL0     C 1686   7.102   2.246   9.327  0.0972 -0.8801  0.6748
   13MOL0     O 1687   7.189   2.349   9.352  0.2704 -0.7568  0.4608
   13MOL0     C 1688   7.167   2.432   9.460  1.1605 -0.4827 -1.0224
   13MOL0     C 1689   7.171   2.402   9.593 -1.0509 -0.2812 -1.3379
   13MOL0     C 1690   7.147   2.498   9.697  0.4916  0.1017  0.0755
   13MOL0     C 1691   7.121   2.628   9.654 -0.2546  0.7458  0.6861
   13MOL0     O 1692   7.108   2.733   9.748  0.5611  0.4699  0.1821
   13MOL0     C 1693   6.969   2.751   9.781  0.0795 -0.8659 -0.6328
   13MOL0     C 1694   6.943   2.692   9.918 -0.2398 -0.3877 -0.1836
   13MOL0     C 1695   6.801   2.711   9.973  0.2573  0.0340  0.4701
   13MOL0     C 1696   6.778   2.651  10.110  0.2254 -0.4171 -0.0995
   13MOL0     C 1697   6.639   2.689  10.165  0.3782  0.1821  0.0609
   13MOL0     C 1698   6.611   2.628  10.299 -0.4869 -0.5650  0.1283
   13MOL0     C 1699   6.473   2.660  10.351  0.0574 -0.5650 -0.5170
   13MOL0     C 1700   6.469   2.768  10.467  0.7080 -0.5737  0.5061
   13MOL0    Cl 1701   6.521   2.687  10.620  0.2914 -0.0427 -0.2098
   13MOL0     C 1702   7.124   2.659   9.518 -0.0901  0.1837  0.3158
   13MOL0     C 1703   7.153   2.569   9.418 -0.8338  0.1368  0.5226
   13MOL0     O 1704   6.995   2.236   9.385  0.5394  0.5450  0.4830
   13MOL0     C 1705   7.051   2.045   9.189  0.3645  0.0884 -0.1821
   13MOL0     C 1706   7.080   1.922   9.126  0.3698 -0.0418 -0.0650
   13MOL0     N 1707   7.371   1.709   9.691  0.2099  0.1569 -0.4758
   13MOL0     N 1708   7.478   1.667   9.756 -0.2503 -0.2059  0.1989
   13MOL0     C 1709   7.728   1.582   8.987  0.2075  1.0165 -0.2490
   13MOL0     C 1710   7.718   1.704   8.922  0.3671 -1.5673  0.1570
   13MOL0     C 1711   7.509   2.021   8.663 -0.2199 -0.0148 -0.3827
   13MOL0     C 1712   7.581   2.007   8.541  0.4453  0.0502  0.2566
   13MOL0     C 1713   7.591   2.106   8.442  0.0264  0.2003  0.3342
   13MOL0     C 1714   7.532   2.232   8.470 -0.4911  0.0892  0.0243
   13MOL0     O 1715   7.540   2.349   8.394 -0.2978 -0.1652  0.3744
   13MOL0     C 1716   7.622   2.335   8.282  0.0814 -0.7837 -0.8582
   13MOL0     C 1717   7.633   2.465   8.206 -1.2213 -0.5603 -0.3480
   13MOL0     C 1718   7.493   2.528   8.166 -0.1111 -0.3488 -0.0455
   13MOL0     C 1719   7.507   2.655   8.086 -0.0553  0.2230  0.2394
   13MOL0     C 1720   7.568   2.770   8.146  0.3246  0.4968 -0.6144
   13MOL0     C 1721   7.606   2.851   8.227 -0.1964  0.0392  0.3764
   13MOL0     C 1722   7.455   2.243   8.582  0.5584 -0.2039 -0.4075
   13MOL0     C 1723   7.444   2.147   8.683  0.0581  0.1149 -0.3760
   13MOL0     C 1724   7.359   2.179   8.806 -0.2001  0.1329  0.9107
   13MOL0     H 1725   7.468   1.596   8.704  1.3576  4.8273 -2.4752
   13MOL0     H 1726   7.479   1.407   8.829  0.5455 -1.0789  1.5483
   13MOL0     H 1727   7.482   1.262   8.987  1.4487 -0.1437 -1.2434
   13MOL0     H 1728   7.480   1.356   9.143  1.0976  1.8802 -1.6652
   13MOL0     H 1729   7.494   1.086   9.160  1.9620 -2.7397  2.3174
   13MOL0     H 1730   7.657   1.103   9.115  1.5050  1.5591  0.6583
   13MOL0     H 1731   7.653   1.103   9.350 -2.0142 -2.7425 -2.9352
   13MOL0     H 1732   7.696   1.268   9.287 -2.2019  1.8363 -0.8319
   13MOL0     H 1733   7.440   1.325   9.352  1.5784  1.0605  0.2347
   13MOL0     H 1734   7.417   1.162   9.400 -0.4697  1.2707  2.0083
   13MOL0     H 1735   7.627   1.194   9.556 -2.1414 -2.0258 -1.6059
   13MOL0     H 1736   7.468   1.261   9.606  1.7512 -0.0296  1.7015
   13MOL0     H 1737   7.680   1.416   9.457  2.0675 -3.1526  3.0503
   13MOL0     H 1738   7.516   1.476   9.499 -2.1996 -2.6007 -2.8477
   13MOL0     H 1739   7.763   1.389   9.668  0.8219 -0.5451  0.9636
   13MOL0     H 1740   7.597   1.411   9.739  0.0493 -1.3089 -2.5415
   13MOL0     H 1741   7.741   1.603   9.780  1.0798 -0.3164 -0.1489
   13MOL0     H 1742   7.771   1.605   9.604 -0.3084 -1.1829  0.1786
   13MOL0     H 1743   7.599   1.735   9.462 -2.8288  3.1797 -0.3812
   13MOL0     H 1744   7.348   1.863   9.392 -1.1737 -1.4102 -2.9932
   13MOL0     H 1745   7.247   1.868   9.530  1.8469  0.0235  1.7027
   13MOL0     H 1746   7.179   1.625   9.462  3.6809 -0.8500  1.9443
   13MOL0     H 1747   7.142   1.741   9.328  0.5677  0.9308 -0.5877
   13MOL0     H 1748   7.403   1.573   9.344  2.0285  1.3218 -1.4680
   13MOL0     H 1749   7.273   1.527   9.244  0.4449 -1.1231  2.2748
   13MOL0     H 1750   7.443   1.771   9.217  1.7499 -1.0144 -0.8380
   13MOL0     H 1751   7.433   1.641   9.100  0.8857 -1.4786  1.5039
   13MOL0     H 1752   7.412   1.956   9.133  0.2682  0.9561 -0.6352
   13MOL0     H 1753   7.371   2.304   9.209  1.6009 -0.5023 -0.9788
   13MOL0     H 1754   7.473   2.184   9.143  0.4062  2.4270  0.4183
   13MOL0     H 1755   7.440   2.179   9.323 -2.2637  0.3390  1.5081
   13MOL0     H 1756   7.178   2.297   9.621 -1.5728 -0.0109 -0.1233
   13MOL0     H 1757   7.148   2.489   9.805  0.5722  6.6095  1.0028
   13MOL0     H 1758   6.959   2.858   9.800  2.2259 -0.3316 -2.1440
   13MOL0     H 1759   6.892   2.712   9.714 -3.3962 -0.3968  2.7410
   13MOL0     H 1760   6.958   2.583   9.925  1.9700 -0.2037 -1.0297
   13MOL0     H 1761   7.012   2.726   9.996  1.2474 -2.3916 -0.5375
   13MOL0     H 1762   6.721   2.677   9.906 -1.0165  0.2597  1.8096
   13MOL0     H 1763   6.779   2.817   9.990 -0.8757 -0.3185  1.3499
   13MOL0     H 1764   6.852   2.694  10.178 -0.4962  3.4648 -1.5102
   13MOL0     H 1765   6.791   2.543  10.104  1.7870 -0.1795 -2.8836
   13MOL0     H 1766   6.635   2.799  10.164  1.3441  0.2339 -1.9044
   13MOL0     H 1767   6.570   2.657  10.087 -2.2172  0.3686  2.1415
   13MOL0     H 1768   6.685   2.656  10.374  0.3945  1.3224 -1.3675
   13MOL0     H 1769   6.614   2.520  10.283  2.5521 -0.6380  0.7727
   13MOL0     H 1770   6.438   2.565  10.393  1.5403 -0.7273  0.4203
   13MOL0     H 1771   6.423   2.703  10.263  0.4087  0.1581 -0.3673
   13MOL0     H 1772   6.366   2.802  10.476  0.4206 -0.4768 -2.2229
   13MOL0     H 1773   6.539   2.851  10.461  1.0715 -0.7545  1.9248
   13MOL0     H 1774   7.094   2.761   9.494 -4.0957 -0.5661  1.4002
   13MOL0     H 1775   7.160   2.597   9.313  2.0327  2.5676  1.2225
   13MOL0     H 1776   6.948   2.077   9.198  0.2266 -0.6385  1.2612
   13MOL0     H 1777   7.000   1.877   9.068 -0.4215  3.6406 -2.1796
   13MOL0     H 1778   7.800   1.559   9.065  0.2507  0.5399 -0.4271
   13MOL0     H 1779   7.786   1.788   8.926 -1.1544 -0.3038  0.3680
   13MOL0     H 1780   7.639   1.918   8.519  2.7218  1.7486 -1.0238
   13MOL0     H 1781   7.638   2.075   8.349 -0.0167  3.8208 -1.0780
   13MOL0     H 1782   7.721   2.312   8.323  0.0735 -2.1003 -1.5190
   13MOL0     H 1783   7.589   2.250   8.221  1.9544 -3.9132  2.0929
   13MOL0     H 1784   7.691   2.441   8.117  4.9405  0.2401  2.8942
   13MOL0     H 1785   7.691   2.531   8.271 -1.7091  2.5911 -2.8999
   13MOL0     H 1786   7.421   2.467   8.111  0.0859 -1.0969  0.5112
   13MOL0     H 1787   7.440   2.552   8.259  0.8279  2.0545 -0.0512
   13MOL0     H 1788   7.401   2.671   8.067  0.4278  2.0258 -1.2074
   13MOL0     H 1789   7.559   2.633   7.993  1.2646 -1.8709  1.3934
   13MOL0     H 1790   7.639   2.925   8.298 -0.5320  1.4313 -0.8711
   13MOL0     H 1791   7.391   2.329   8.600  0.1563 -0.3879 -0.9565
   13MOL0     H 1792   7.408   2.159   8.902 -1.4808 -1.0145  1.3531
   13MOL0     H 1793   7.339   2.286   8.803 -0.9526 -0.0246  0.0555
   13MOL0     H 1794   7.261   2.131   8.811  0.5153 -1.4247  0.6294
   14MOL0     O 1795   0.763   7.457   5.565  0.0391 -0.0656  0.0391
   14MOL0     C 1796   0.783   7.346   5.611 -0.0825 -0.2249  0.1514
   14MOL0     O 1797   0.897   7.283   5.600  0.0750 -0.7706  0.5995
   14MOL0     C 1798   1.011   7.347   5.552 -0.1994 -0.4960 -0.9643
   14MOL0     C 1799   1.122   7.373   5.629 -0.5679 -0.5675 -0.4029
   14MOL0     C 1800   1.245   7.418   5.572  0.7177  0.4913 -0.4607
   14MOL0     C 1801   1.252   7.465   5.444 -0.8313 -0.5778  0.4213
   14MOL0     O 1802   1.357   7.521   5.381 -0.2345 -0.3504 -0.0295
   14MOL0     C 1803   1.463   7.577   5.462  0.2389 -0.3407  0.1521
   14MOL0     C 1804   1.546   7.683   5.398 -0.4931 -0.1679 -0.8258
   14MOL0     C 1805   1.480   7.794   5.311  0.4545  0.9477 -0.2495
   14MOL0     C 1806   1.443   7.919   5.394 -0.3765 -0.4490 -0.3578
   14MOL0     C 1807   1.557   7.997   5.464 -0.0389  0.7661 -0.5866
   14MOL0     C 1808   1.561   7.954   5.612  0.2171 -0.1556 -0.4829
   14MOL0     C 1809   1.697   7.983   5.665 -0.6069 -0.5522  0.3918
   14MOL0     C 1810   1.705   7.924   5.812 -0.4287  0.6717 -0.1707
   14MOL0     N 1811   1.632   8.024   5.900 -0.5881 -0.2683 -0.1302
   14MOL0     C 1812   1.501   8.021   5.938 -0.2618  0.0999 -0.7739
   14MOL0     C 1813   1.486   8.122   6.025 -0.4786 -0.1069  0.5156
   14MOL0     C 1814   1.370   8.144   6.113 -0.1964 -0.3831  0.0127
   14MOL0     C 1815   1.258   8.207   6.034 -0.1254  0.0120 -0.0801
   14MOL0     C 1816   1.138   8.218   6.139  0.0808 -0.4324  0.5671
   14MOL0     C 1817   1.011   8.225   6.047 -0.0619  0.1002  0.1232
   14MOL0     O 1818   0.996   8.351   5.979  0.9492 -0.3153  0.3627
   14MOL0     C 1819   0.896   8.368   5.887  0.5628  0.2029 -0.0294
   14MOL0     C 1820   0.799   8.275   5.835 -0.5090 -0.3805  1.2078
   14MOL0     C 1821   0.703   8.320   5.736  0.2234  0.0019 -1.0405
   14MOL0     C 1822   0.601   8.214   5.684  0.6478 -0.6497  0.5228
   14MOL0     C 1823   0.704   8.457   5.693 -0.4064  0.4420  0.5645
   14MOL0     C 1824   0.613   8.514   5.589  0.0268 -0.1397  0.0116
   14MOL0     O 1825   0.616   8.648   5.578  0.2295 -0.6608  0.5128
   14MOL0     C 1826   0.581   8.711   5.453 -0.2398 -0.3387 -1.1176
   14MOL0     C 1827   0.566   8.854   5.463  0.4135  0.5545  0.7525
   14MOL0     C 1828   0.541   8.933   5.352 -0.1070 -0.3458 -0.1592
   14MOL0     C 1829   0.524   8.872   5.231  0.2966  0.5781 -0.9562
   14MOL0     O 1830   0.494   8.962   5.131  0.4080  0.8259 -0.0745
   14MOL0     C 1831   0.494   8.910   5.004  0.2443 -0.2223  0.9843
   14MOL0     C 1832   0.444   9.035   4.914 -0.2341 -0.2517 -0.3534
   14MOL0     C 1833   0.387   9.147   4.996 -0.3118 -1.7340 -0.4001
   14MOL0     C 1834   0.342   9.253   4.904  0.9682 -0.2947  1.0902
   14MOL0     C 1835   0.265   9.370   4.964  0.4689  0.2794  0.1272
   14MOL0     C 1836   0.212   9.465   4.852  0.4538  0.0250  0.2135
   14MOL0     C 1837   0.069   9.425   4.802  0.1311  0.4516  0.1204
   14MOL0     C 1838   0.026   9.505   4.680  0.0822 -0.5901 -0.3618
   14MOL0    Cl 1839   0.012   9.674   4.730  0.1229  0.2001 -0.1127
   14MOL0     C 1840   0.536   8.729   5.218 -0.6720 -1.2439  0.4618
   14MOL0     C 1841   0.562   8.652   5.325  1.0042 -0.2801  0.5460
   14MOL0     O 1842   0.535   8.439   5.529 -0.7308 -0.2325 -0.6648
   14MOL0     C 1843   0.804   8.541   5.741  0.1794 -0.1020  0.4502
   14MOL0     C 1844   0.898   8.489   5.831  0.8145 -1.0441  0.0762
   14MOL0     N 1845   1.602   8.197   6.014  0.9560 -0.1728 -0.2062
   14MOL0     N 1846   1.686   8.141   5.936 -0.1434  0.1675 -1.0743
   14MOL0     C 1847   1.138   7.453   5.371  0.3528 -0.5192  0.9511
   14MOL0     C 1848   1.024   7.389   5.418  1.2420  0.0836 -0.2935
   14MOL0     C 1849   0.669   7.276   5.676 -0.5206  0.0842 -0.0519
   14MOL0     C 1850   0.648   7.150   5.657  0.7995  1.0885  0.0193
   14MOL0     C 1851   0.548   7.077   5.727 -0.9854  0.0151 -0.9075
   14MOL0     C 1852   0.457   7.142   5.805  0.0276 -0.1292 -0.1472
   14MOL0     O 1853   0.353   7.081   5.868  0.2104  0.6494 -0.3188
   14MOL0     C 1854   0.309   6.955   5.818 -0.0444 -0.7319 -0.3530
   14MOL0     C 1855   0.180   6.922   5.903 -0.6193  0.2440 -0.4610
   14MOL0     C 1856   0.103   6.796   5.859 -0.5857 -0.4724 -0.7866
   14MOL0     C 1857  -0.030   6.792   5.934 -1.0158  1.0962 -0.1857
   14MOL0     C 1858  -0.148   6.868   5.869  0.5538 -0.6094  1.3360
   14MOL0     C 1859  -0.304   6.949   5.789 -0.1944  0.3714  0.0442
   14MOL0     C 1860   0.469   7.282   5.815 -0.6303 -0.1986  0.9693
   14MOL0     C 1861   0.581   7.345   5.759  0.0234 -0.1071 -0.0702
   14MOL0     C 1862   0.608   7.477   5.807  0.4825 -1.0400  1.0244
   14MOL0     H 1863   1.124   7.349   5.735  0.9724 -1.7376 -0.6582
   14MOL0     H 1864   1.331   7.412   5.637 -0.0000 -2.4950  0.3780
   14MOL0     H 1865   1.537   7.513   5.511  1.2999 -0.1122 -1.0807
   14MOL0     H 1866   1.419   7.635   5.543  3.0697  0.9448  0.8996
   14MOL0     H 1867   1.620   7.728   5.465  1.7952 -2.2239 -1.8392
   14MOL0     H 1868   1.598   7.633   5.317 -0.2289 -0.8214 -0.2635
   14MOL0     H 1869   1.546   7.818   5.227 -0.4097  1.4663 -0.8022
   14MOL0     H 1870   1.388   7.753   5.266  1.5273 -2.8768  0.6757
   14MOL0     H 1871   1.391   7.992   5.331  1.8667 -0.0310 -1.8439
   14MOL0     H 1872   1.362   7.884   5.459 -0.3493 -0.5677 -0.3892
   14MOL0     H 1873   1.544   8.105   5.452  1.3800  1.0264 -0.0202
   14MOL0     H 1874   1.650   7.978   5.410  0.5650 -0.3376  0.7573
   14MOL0     H 1875   1.485   8.016   5.660 -0.9143 -1.8180 -0.0661
   14MOL0     H 1876   1.552   7.846   5.625  0.7966 -0.2354 -0.6873
   14MOL0     H 1877   1.706   8.092   5.662  0.0190 -0.5970  0.4982
   14MOL0     H 1878   1.773   7.929   5.608 -0.6586 -0.2446  0.0277
   14MOL0     H 1879   1.660   7.827   5.835  4.0286 -1.2412  1.6862
   14MOL0     H 1880   1.812   7.911   5.833 -0.4928 -1.8071 -1.0542
   14MOL0     H 1881   1.421   7.951   5.914 -2.2167  1.5662  1.0597
   14MOL0     H 1882   1.403   8.221   6.184  0.0004  1.7424 -2.2344
   14MOL0     H 1883   1.341   8.049   6.159  0.6275 -0.6378  0.0329
   14MOL0     H 1884   1.284   8.306   5.996 -1.8173  0.2387 -0.7458
   14MOL0     H 1885   1.225   8.147   5.949 -1.5425 -1.3957  1.4034
   14MOL0     H 1886   1.119   8.147   6.219 -0.3551  2.0061  2.7707
   14MOL0     H 1887   1.157   8.305   6.203  1.9453  0.6535 -1.3276
   14MOL0     H 1888   1.008   8.153   5.965 -3.1925  1.7057 -1.3749
   14MOL0     H 1889   0.920   8.197   6.101 -2.0192  2.2984 -1.7780
   14MOL0     H 1890   0.807   8.174   5.875  1.6125  0.5892  3.4664
   14MOL0     H 1891   0.618   8.121   5.738  2.6772 -0.1774  0.7555
   14MOL0     H 1892   0.598   8.186   5.578 -3.7703 -0.6872  0.4560
   14MOL0     H 1893   0.497   8.245   5.700  1.4691  2.3757  0.5577
   14MOL0     H 1894   0.605   8.897   5.554 -0.1354  0.7018  0.9176
   14MOL0     H 1895   0.545   9.042   5.351  0.3605 -0.3516 -1.2841
   14MOL0     H 1896   0.594   8.879   4.975  1.0607  0.9002  2.4992
   14MOL0     H 1897   0.416   8.836   4.982  1.8883 -2.1783  1.5011
   14MOL0     H 1898   0.533   9.079   4.867 -0.9094 -0.1169 -1.5234
   14MOL0     H 1899   0.380   8.995   4.835 -0.6473 -0.8662  0.2835
   14MOL0     H 1900   0.452   9.196   5.070 -2.1003 -1.8927  1.3730
   14MOL0     H 1901   0.298   9.111   5.048 -0.6942 -0.2024  0.0853
   14MOL0     H 1902   0.268   9.205   4.838  0.1582 -0.4080  2.0665
   14MOL0     H 1903   0.426   9.294   4.847  0.3858 -0.4016  0.1275
   14MOL0     H 1904   0.181   9.321   5.015  0.6753  1.1144  1.3112
   14MOL0     H 1905   0.327   9.426   5.035 -0.9911  2.5037 -0.2525
   14MOL0     H 1906   0.288   9.460   4.774  0.7231  0.1449  0.4648
   14MOL0     H 1907   0.211   9.570   4.884 -2.1101  0.1551 -0.0532
   14MOL0     H 1908   0.001   9.438   4.887  1.1816 -0.3074  1.1097
   14MOL0     H 1909   0.063   9.325   4.759 -1.4238  0.8463 -0.6681
   14MOL0     H 1910  -0.067   9.460   4.642 -1.2735  1.0744  0.8601
   14MOL0     H 1911   0.110   9.484   4.613 -1.2379 -2.0946 -1.6588
   14MOL0     H 1912   0.521   8.672   5.126  0.8067 -3.0404  1.2681
   14MOL0     H 1913   0.570   8.546   5.303  2.9091  0.2301 -1.6880
   14MOL0     H 1914   0.821   8.645   5.714  0.2626  0.4794  2.5501
   14MOL0     H 1915   0.973   8.552   5.878  0.2199  1.2788 -1.8510
   14MOL0     H 1916   1.144   7.490   5.269  0.2279 -1.6651  0.5221
   14MOL0     H 1917   0.940   7.367   5.354 -0.3650  0.7856  1.4765
   14MOL0     H 1918   0.717   7.093   5.596  1.0075  1.4921 -0.1252
   14MOL0     H 1919   0.565   6.969   5.728 -2.0247 -0.1916  1.2469
   14MOL0     H 1920   0.297   6.974   5.711  1.3002 -0.0060 -0.3965
   14MOL0     H 1921   0.391   6.883   5.833  0.8116  0.4146  0.6773
   14MOL0     H 1922   0.116   7.010   5.895 -2.7533 -1.2036 -0.2096
   14MOL0     H 1923   0.208   6.904   6.008  0.9505 -0.9815 -1.0308
   14MOL0     H 1924   0.090   6.803   5.750  0.4825  0.2337 -0.8862
   14MOL0     H 1925   0.151   6.701   5.883 -0.4895  0.0468  1.2222
   14MOL0     H 1926  -0.009   6.827   6.036  1.1320  2.9046 -1.1665
   14MOL0     H 1927  -0.067   6.690   5.942 -2.2449  1.5032 -0.5091
   14MOL0     H 1928  -0.400   6.984   5.756  0.9986  3.0176 -0.8602
   14MOL0     H 1929   0.400   7.330   5.884  0.2012  1.5237  0.6451
   14MOL0     H 1930   0.550   7.522   5.889  1.2292  4.2705 -0.9285
   14MOL0     H 1931   0.715   7.477   5.828  0.6090  0.2684  0.4580
   14MOL0     H 1932   0.588   7.555   5.733  1.5234 -0.0062  1.7830
   15MOL0     O 1933   2.261   6.775   4.914  0.1361 -0.1456 -0.8847
   15MOL0     C 1934   2.233   6.897   4.903 -1.0050 -0.1968 -0.7199
   15MOL0     O 1935   2.251   6.964   4.790 -0.3335 -0.7517 -0.2661
   15MOL0     C 1936   2.308   6.915   4.675  0.0648 -0.3045 -0.6322
   15MOL0     C 1937   2.417   6.836   4.688  0.9365  0.2120 -0.2754
   15MOL0     C 1938   2.485   6.799   4.571  0.1883  0.6952 -0.2501
   15MOL0     C 1939   2.433   6.834   4.444  0.6118 -0.9009  0.0750
   15MOL0     O 1940   2.478   6.765   4.327 -0.1233  0.3537 -0.3031
   15MOL0     C 1941   2.503   6.839   4.214 -0.1223  0.1190  0.2973
   15MOL0     C 1942   2.630   6.920   4.219 -0.9286 -0.3841 -0.4721
   15MOL0     C 1943   2.755   6.843   4.254 -0.9361 -0.2942 -0.2127
   15MOL0     C 1944   2.891   6.919   4.251  0.0171 -0.1063  0.3591
   15MOL0     C 1945   2.928   6.983   4.382  0.2642  0.3232  0.9186
   15MOL0     C 1946   3.062   7.052   4.377  0.9433 -0.2656 -0.3694
   15MOL0     C 1947   3.049   7.182   4.292 -0.3768 -0.4320 -0.4582
   15MOL0     C 1948   3.144   7.295   4.328 -0.5711 -0.4974 -0.4451
   15MOL0     N 1949   3.097   7.395   4.423  0.7577 -0.2198  0.5220
   15MOL0     C 1950   2.977   7.472   4.405 -0.2225  0.4396  0.5242
   15MOL0     C 1951   2.968   7.565   4.507 -0.7396 -0.0231 -0.4137
   15MOL0     C 1952   2.866   7.678   4.527 -0.1962  0.4821  0.6662
   15MOL0     C 1953   2.795   7.676   4.666  0.4922 -0.5712 -0.4313
   15MOL0     C 1954   2.655   7.631   4.643  0.1748 -0.0490  0.4382
   15MOL0     C 1955   2.591   7.614   4.776  0.1001  1.0268  1.0696
   15MOL0     O 1956   2.445   7.620   4.758  0.0845 -0.1046 -0.6781
   15MOL0     C 1957   2.357   7.621   4.857 -1.2499  0.2378 -0.9343
   15MOL0     C 1958   2.235   7.683   4.855  0.2038 -0.4486  0.3474
   15MOL0     C 1959   2.140   7.677   4.958 -0.9634  0.5701  0.0750
   15MOL0     C 1960   2.014   7.753   4.944 -1.2807 -1.1012 -0.5242
   15MOL0     C 1961   2.169   7.597   5.070  0.6002 -0.7776 -0.1222
   15MOL0     C 1962   2.080   7.589   5.190 -0.1674 -0.3582 -0.2281
   15MOL0     O 1963   2.129   7.577   5.316  0.2667  0.4965  0.1086
   15MOL0     C 1964   2.053   7.568   5.434  0.8446  0.2314  0.0879
   15MOL0     C 1965   2.106   7.493   5.536 -0.7720  0.0097 -0.1566
   15MOL0     C 1966   2.036   7.457   5.650 -0.0260 -0.8521 -0.7243
   15MOL0     C 1967   1.909   7.521   5.666  0.0405  1.0039  0.2541
   15MOL0     O 1968   1.822   7.504   5.771  0.2569  0.0256 -0.0105
   15MOL0     C 1969   1.845   7.406   5.874 -0.0314  0.4802 -0.5138
   15MOL0     C 1970   1.711   7.377   5.955 -0.3711 -0.1302 -0.4335
   15MOL0     C 1971   1.637   7.498   6.020  0.0719  0.1705 -0.0662
   15MOL0     C 1972   1.497   7.475   6.081 -0.5058 -0.5730 -0.6084
   15MOL0     C 1973   1.435   7.598   6.159  0.0610 -0.5326 -0.1505
   15MOL0     C 1974   1.362   7.708   6.076  0.2526  0.2227  0.5475
   15MOL0     C 1975   1.230   7.653   6.033  0.1851  0.9054 -1.0078
   15MOL0     C 1976   1.202   7.687   5.884 -0.4623 -0.3097 -0.1205
   15MOL0    Cl 1977   1.162   7.873   5.876 -0.0920 -0.0896 -0.2460
   15MOL0     C 1978   1.856   7.595   5.565 -0.2620 -0.2690  0.7567
   15MOL0     C 1979   1.933   7.634   5.449 -0.2506  0.3217 -0.6784
   15MOL0     O 1980   1.959   7.578   5.168 -0.1409  0.1546  0.4233
   15MOL0     C 1981   2.284   7.532   5.070 -0.7205  0.0871 -0.3815
   15MOL0     C 1982   2.384   7.545   4.975  0.5369 -0.0605 -0.2421
   15MOL0     N 1983   3.074   7.531   4.593  0.2832 -0.3741  1.0413
   15MOL0     N 1984   3.153   7.443   4.536  0.5154 -0.7503 -0.3682
   15MOL0     C 1985   2.326   6.924   4.442  0.2681 -0.0573 -0.7916
   15MOL0     C 1986   2.265   6.966   4.559 -0.6078 -0.8459 -1.1186
   15MOL0     C 1987   2.163   6.958   5.019 -1.0195  0.3841  0.0843
   15MOL0     C 1988   2.132   6.875   5.120 -0.5657 -0.1741  0.7316
   15MOL0     C 1989   2.058   6.939   5.225 -0.1210  1.1296 -0.2905
   15MOL0     C 1990   2.029   7.074   5.243  0.7575  0.0504  0.2265
   15MOL0     O 1991   1.951   7.104   5.353  0.3859  0.1627  0.0084
   15MOL0     C 1992   1.880   7.236   5.343  0.4250 -0.1435 -0.8654
   15MOL0     C 1993   1.798   7.238   5.468 -0.2264  0.1821  0.0412
   15MOL0     C 1994   1.664   7.169   5.435  0.9281 -0.6906 -0.4118
   15MOL0     C 1995   1.569   7.164   5.558 -0.0764 -0.4109  0.5665
   15MOL0     C 1996   1.621   7.120   5.684  0.3430  0.9325  0.2329
   15MOL0     C 1997   1.649   7.091   5.800 -0.0693 -0.2342  0.2442
   15MOL0     C 1998   2.065   7.155   5.132  1.1429  0.2969  0.4197
   15MOL0     C 1999   2.133   7.093   5.023  0.0397 -0.7995  0.0847
   15MOL0     C 2000   2.180   7.197   4.916  0.5260  0.8013  0.0433
   15MOL0     H 2001   2.470   6.806   4.778  1.4081 -0.4678 -0.7707
   15MOL0     H 2002   2.576   6.741   4.583 -1.0483 -1.3019 -0.0824
   15MOL0     H 2003   2.424   6.908   4.182 -0.2020  0.2062  0.6698
   15MOL0     H 2004   2.510   6.777   4.125 -0.4443 -0.6405  0.7975
   15MOL0     H 2005   2.653   6.963   4.122  2.0432  0.8424  0.6627
   15MOL0     H 2006   2.614   7.011   4.278 -3.5548 -2.7437  2.8627
   15MOL0     H 2007   2.731   6.818   4.357 -0.3330  0.5957  0.1529
   15MOL0     H 2008   2.760   6.756   4.187  0.6094 -0.2938 -0.1395
   15MOL0     H 2009   2.966   6.841   4.233 -1.0651 -1.1904  0.4170
   15MOL0     H 2010   2.891   6.995   4.172  0.7140 -1.3320 -0.8663
   15MOL0     H 2011   2.932   6.911   4.464  1.5817 -1.0696 -0.3200
   15MOL0     H 2012   2.854   7.062   4.395 -0.2050  0.2050 -0.7607
   15MOL0     H 2013   3.095   7.066   4.480 -0.8321 -2.4860  0.5830
   15MOL0     H 2014   3.135   6.986   4.331 -0.1238 -0.7458 -1.4308
   15MOL0     H 2015   2.945   7.213   4.283 -0.1064  0.7464  0.2936
   15MOL0     H 2016   3.061   7.153   4.187  1.8324  1.3853 -0.7852
   15MOL0     H 2017   3.232   7.247   4.373 -0.1712  0.6968  0.0805
   15MOL0     H 2018   3.169   7.341   4.232 -2.5791 -0.0447 -0.8099
   15MOL0     H 2019   2.917   7.454   4.317  2.1142  0.0992 -1.0877
   15MOL0     H 2020   2.802   7.679   4.439  1.3646 -0.0582 -0.5178
   15MOL0     H 2021   2.924   7.770   4.513  0.7539 -0.3793 -1.3767
   15MOL0     H 2022   2.847   7.600   4.724  1.5785  1.7313  1.8106
   15MOL0     H 2023   2.799   7.775   4.714 -0.5545  1.0433 -3.3807
   15MOL0     H 2024   2.600   7.702   4.580  1.6257  0.6077 -0.1222
   15MOL0     H 2025   2.657   7.538   4.585 -2.7313 -0.0412  0.1425
   15MOL0     H 2026   2.619   7.516   4.814  1.3340  1.9089  2.5954
   15MOL0     H 2027   2.631   7.682   4.853  1.3788 -0.0914  1.4222
   15MOL0     H 2028   2.223   7.752   4.772  0.6356  0.6637  1.1879
   15MOL0     H 2029   1.929   7.687   4.927 -0.4633 -2.0971 -0.8826
   15MOL0     H 2030   2.031   7.827   4.866  4.3908 -1.8874 -0.4728
   15MOL0     H 2031   1.993   7.803   5.039 -1.3273 -5.0511  1.7977
   15MOL0     H 2032   2.204   7.447   5.526 -0.5667  0.7596 -1.9284
   15MOL0     H 2033   2.084   7.396   5.725  2.8653  0.6222 -1.2315
   15MOL0     H 2034   1.881   7.312   5.832 -0.3649 -1.9217  3.9360
   15MOL0     H 2035   1.913   7.444   5.952 -1.2708  1.4927  0.1142
   15MOL0     H 2036   1.640   7.325   5.890  1.2646  0.0197 -2.4334
   15MOL0     H 2037   1.728   7.299   6.030  1.9872 -2.6054 -3.2755
   15MOL0     H 2038   1.625   7.573   5.941 -0.4977 -1.0384 -1.1728
   15MOL0     H 2039   1.696   7.540   6.102  0.1340  1.9300 -0.9558
   15MOL0     H 2040   1.510   7.391   6.150 -0.8441 -1.2086 -1.3078
   15MOL0     H 2041   1.425   7.446   6.004  1.3759  1.4314 -3.2835
   15MOL0     H 2042   1.365   7.550   6.228 -2.2265  2.2881 -0.3226
   15MOL0     H 2043   1.520   7.646   6.209 -0.4347 -2.5800  2.8551
   15MOL0     H 2044   1.435   7.738   6.000  3.5570 -1.1610  2.9115
   15MOL0     H 2045   1.342   7.789   6.146 -0.5781 -0.4525  1.1111
   15MOL0     H 2046   1.148   7.696   6.091 -1.3931 -1.2931 -1.4336
   15MOL0     H 2047   1.221   7.544   6.038 -0.5741  0.8512 -2.8330
   15MOL0     H 2048   1.114   7.634   5.846 -0.4136  1.2876 -2.6949
   15MOL0     H 2049   1.275   7.660   5.808 -2.1231 -1.9727 -1.2143
   15MOL0     H 2050   1.755   7.635   5.565 -0.1136  0.3131 -2.0988
   15MOL0     H 2051   1.892   7.698   5.372 -0.1193 -2.2980 -3.0724
   15MOL0     H 2052   2.300   7.480   5.164 -0.6924  1.0540  0.1576
   15MOL0     H 2053   2.481   7.498   4.988  1.5126  2.2613  1.5172
   15MOL0     H 2054   2.294   6.980   4.355 -1.9372  3.4897  2.0019
   15MOL0     H 2055   2.185   7.040   4.562 -1.4181 -1.7084  0.8459
   15MOL0     H 2056   2.169   6.778   5.150 -0.2742  1.0240  4.9492
   15MOL0     H 2057   2.022   6.885   5.312 -0.1414 -0.6745 -1.3571
   15MOL0     H 2058   1.961   7.306   5.362  0.0120  0.7473 -2.2758
   15MOL0     H 2059   1.835   7.266   5.248 -0.7570 -0.9629 -0.5869
   15MOL0     H 2060   1.763   7.336   5.501  0.9408 -0.0124  2.0327
   15MOL0     H 2061   1.854   7.185   5.545  0.6079 -0.4355 -0.9681
   15MOL0     H 2062   1.612   7.233   5.363  2.8527  2.2693  0.6451
   15MOL0     H 2063   1.692   7.075   5.388  1.2529  0.8757 -3.6474
   15MOL0     H 2064   1.476   7.110   5.539 -1.3246  0.7146  2.9762
   15MOL0     H 2065   1.534   7.267   5.569 -0.2317 -0.2916 -0.8817
   15MOL0     H 2066   1.685   7.040   5.887 -1.0021  0.1031  0.8391
   15MOL0     H 2067   2.044   7.261   5.122 -1.8413 -0.3456 -1.4464
   15MOL0     H 2068   2.126   7.185   4.822  0.2466  2.2796 -0.0018
   15MOL0     H 2069   2.153   7.297   4.952  1.9616  0.9570  0.7393
   15MOL0     H 2070   2.288   7.191   4.900  0.7101 -1.7946  1.6061
   16MOL0     O 2071   4.429   0.168   0.124 -0.3093  0.0139  0.0274
   16MOL0     C 2072   4.442   0.256   0.211  0.2883 -0.6541 -0.5178
   16MOL0     O 2073   4.496   0.373   0.203 -0.1408 -0.5162  0.0753
   16MOL0     C 2074   4.525   0.416   0.074  0.1622  0.5463 -0.4643
   16MOL0     C 2075   4.646   0.482   0.041  0.5033  0.4635 -1.1223
   16MOL0     C 2076   4.656   0.570  -0.068 -0.5366  0.3132 -0.8881
   16MOL0     C 2077   4.559   0.585  -0.163 -1.0936  0.1557  0.0614
   16MOL0     O 2078   4.567   0.661  -0.283 -0.1835 -0.6112  0.5070
   16MOL0     C 2079   4.643   0.787  -0.286 -0.4022 -0.0080  0.6112
   16MOL0     C 2080   4.613   0.857  -0.424  0.1107  0.1165  0.1978
   16MOL0     C 2081   4.718   0.970  -0.467 -0.3112  0.0945  0.4758
   16MOL0     C 2082   4.862   0.918  -0.487 -0.1981 -0.6229  0.3469
   16MOL0     C 2083   4.949   1.025  -0.562  0.5887 -0.5306  1.0199
   16MOL0     C 2084   5.061   0.965  -0.646 -0.1357 -0.2650 -0.0491
   16MOL0     C 2085   5.136   1.074  -0.732 -0.5948 -0.2773 -0.3254
   16MOL0     C 2086   5.048   1.134  -0.840 -0.0814 -0.1728  0.8115
   16MOL0     N 2087   5.108   1.192  -0.957 -0.3407 -1.0096 -0.1814
   16MOL0     C 2088   5.189   1.127  -1.055 -0.1747 -0.0202 -0.3067
   16MOL0     C 2089   5.229   1.212  -1.150 -0.2002 -0.0884 -0.0460
   16MOL0     C 2090   5.315   1.194  -1.275 -0.1274 -0.6288 -0.0758
   16MOL0     C 2091   5.420   1.295  -1.287 -1.6877  0.0750  0.4727
   16MOL0     C 2092   5.482   1.304  -1.423  0.0457  0.1060  0.5284
   16MOL0     C 2093   5.515   1.161  -1.478 -0.8149  0.5142 -0.8323
   16MOL0     O 2094   5.406   1.098  -1.557  0.5222  0.4543 -0.1879
   16MOL0     C 2095   5.365   0.965  -1.551 -1.2631  0.7307 -0.3605
   16MOL0     C 2096   5.421   0.853  -1.481 -0.5904 -0.4067 -0.3430
   16MOL0     C 2097   5.367   0.721  -1.485 -0.8192  0.2275  0.0068
   16MOL0     C 2098   5.429   0.623  -1.394 -0.1001  0.7964  0.2372
   16MOL0     C 2099   5.266   0.694  -1.580  0.2167  0.0713  0.0021
   16MOL0     C 2100   5.189   0.567  -1.599  0.2821 -0.0839 -1.6659
   16MOL0     O 2101   5.271   0.456  -1.587  0.4572 -0.0621  0.3823
   16MOL0     C 2102   5.233   0.321  -1.584  0.8687  0.6974  0.2538
   16MOL0     C 2103   5.324   0.216  -1.603 -0.0125 -0.1453 -0.1561
   16MOL0     C 2104   5.297   0.086  -1.574  1.0243 -0.0349 -0.3298
   16MOL0     C 2105   5.168   0.049  -1.535  0.2175 -0.0385 -0.7305
   16MOL0     O 2106   5.144  -0.082  -1.524 -0.5880 -0.7147  0.0015
   16MOL0     C 2107   5.056  -0.133  -1.424 -0.2495 -0.0681 -0.0444
   16MOL0     C 2108   5.053  -0.288  -1.417  0.2099 -0.5785 -0.1356
   16MOL0     C 2109   4.934  -0.365  -1.480 -0.5255  0.0091  1.2947
   16MOL0     C 2110   4.931  -0.512  -1.438 -0.0599 -0.5271 -0.4758
   16MOL0     C 2111   4.825  -0.577  -1.527 -0.5387 -0.2388  0.2568
   16MOL0     C 2112   4.806  -0.729  -1.491  0.1624  0.3411  0.2404
   16MOL0     C 2113   4.711  -0.792  -1.596 -0.1009  0.3374 -0.6538
   16MOL0     C 2114   4.676  -0.937  -1.571  0.2301 -0.4178 -0.5428
   16MOL0    Cl 2115   4.549  -0.991  -1.694  0.0790  0.8804 -0.2103
   16MOL0     C 2116   5.066   0.150  -1.518 -0.0025  0.3941  0.0220
   16MOL0     C 2117   5.106   0.278  -1.538 -0.3402 -0.3613  0.4708
   16MOL0     O 2118   5.075   0.567  -1.634  0.2067  0.0664 -0.8862
   16MOL0     C 2119   5.217   0.806  -1.646  0.1380 -0.2205  0.9048
   16MOL0     C 2120   5.262   0.936  -1.639  0.0659 -0.2396  0.8994
   16MOL0     N 2121   5.165   1.337  -1.113  0.0124  0.1622 -0.4432
   16MOL0     N 2122   5.097   1.322  -0.998  0.2193  0.3721 -0.2200
   16MOL0     C 2123   4.441   0.518  -0.130  0.0585  0.0448  1.1970
   16MOL0     C 2124   4.426   0.440  -0.017 -0.5569 -0.8752  0.3081
   16MOL0     C 2125   4.377   0.220   0.347 -0.0752  0.5370  0.1185
   16MOL0     C 2126   4.439   0.252   0.471  0.3566  0.1383  0.5884
   16MOL0     C 2127   4.387   0.213   0.589  1.0122 -0.0968 -0.4552
   16MOL0     C 2128   4.259   0.155   0.598 -0.0894  0.7148 -0.5210
   16MOL0     O 2129   4.226   0.115   0.727 -0.4992  0.3102 -0.2802
   16MOL0     C 2130   4.099   0.055   0.754  1.0833  0.0920  0.3736
   16MOL0     C 2131   4.100  -0.020   0.883 -1.3051 -0.8393 -0.8015
   16MOL0     C 2132   4.103   0.067   1.011  0.0608 -0.3664 -0.4607
   16MOL0     C 2133   4.072  -0.025   1.128  0.2924  0.3422  0.4619
   16MOL0     C 2134   4.024   0.057   1.244 -0.5713  0.1170  0.0614
   16MOL0     C 2135   4.002   0.129   1.338  1.0320  0.0550 -0.6092
   16MOL0     C 2136   4.194   0.132   0.479  0.3703  0.2620 -0.8799
   16MOL0     C 2137   4.251   0.159   0.353  0.3647  0.2714 -0.1397
   16MOL0     C 2138   4.161   0.131   0.232 -0.0479 -0.3296 -0.1309
   16MOL0     H 2139   4.737   0.455   0.093 -0.5270  2.1512  1.8425
   16MOL0     H 2140   4.750   0.615  -0.099  1.7612 -3.1041  0.4934
   16MOL0     H 2141   4.748   0.755  -0.291 -0.5347 -0.2733 -0.9556
   16MOL0     H 2142   4.624   0.866  -0.213 -0.2246  0.8059 -0.1966
   16MOL0     H 2143   4.603   0.781  -0.501 -3.7736 -0.1152  0.7700
   16MOL0     H 2144   4.515   0.905  -0.425 -1.4550 -2.9002 -0.2874
   16MOL0     H 2145   4.688   1.005  -0.566  0.9456  0.8696  0.3363
   16MOL0     H 2146   4.717   1.056  -0.400  0.1129 -0.4740  1.2286
   16MOL0     H 2147   4.905   0.897  -0.389  2.3586  1.4964 -0.1910
   16MOL0     H 2148   4.847   0.821  -0.535 -1.5064 -0.3950  0.2345
   16MOL0     H 2149   4.983   1.097  -0.487  0.8505 -1.6807  2.0350
   16MOL0     H 2150   4.888   1.081  -0.633 -2.4621 -1.8377  2.4297
   16MOL0     H 2151   5.131   0.922  -0.574  0.3412 -0.7966 -0.8158
   16MOL0     H 2152   5.019   0.896  -0.720 -1.7652  1.5612 -0.9326
   16MOL0     H 2153   5.213   1.016  -0.784 -1.5957 -1.3918 -0.6165
   16MOL0     H 2154   5.179   1.146  -0.662 -0.4026 -0.0084 -0.7155
   16MOL0     H 2155   4.974   1.061  -0.875  0.7937 -0.6002 -0.1895
   16MOL0     H 2156   4.981   1.209  -0.798 -0.5575  0.5619 -1.1600
   16MOL0     H 2157   5.226   1.025  -1.051 -1.4314 -0.5312 -1.3413
   16MOL0     H 2158   5.239   1.198  -1.354  0.6475 -1.7850 -0.9131
   16MOL0     H 2159   5.354   1.092  -1.270 -0.3384 -0.8456 -2.0367
   16MOL0     H 2160   5.376   1.393  -1.264  2.4601  2.1504  0.4972
   16MOL0     H 2161   5.502   1.266  -1.221 -1.1062  3.5445  1.4632
   16MOL0     H 2162   5.423   1.348  -1.504  0.2207 -1.2271 -0.3486
   16MOL0     H 2163   5.577   1.360  -1.420  0.9763 -1.3206 -0.9221
   16MOL0     H 2164   5.611   1.149  -1.529  0.0067 -0.8042  0.9271
   16MOL0     H 2165   5.526   1.095  -1.393 -1.2293  2.3277  0.7070
   16MOL0     H 2166   5.499   0.864  -1.406 -0.0189  0.4569 -1.0283
   16MOL0     H 2167   5.495   0.555  -1.449 -0.5214 -0.5819  1.3540
   16MOL0     H 2168   5.365   0.548  -1.345 -1.2788  0.6955 -1.4118
   16MOL0     H 2169   5.487   0.665  -1.311 -0.3549  0.8353  0.3976
   16MOL0     H 2170   5.429   0.239  -1.621  0.0583  1.3609  1.8451
   16MOL0     H 2171   5.363   0.000  -1.576  2.6311  1.1057  1.1033
   16MOL0     H 2172   5.092  -0.104  -1.325  0.3426 -1.4470  0.1693
   16MOL0     H 2173   4.953  -0.099  -1.437 -0.0314 -0.0027 -1.8630
   16MOL0     H 2174   5.148  -0.313  -1.466 -0.3996  1.2327 -2.4056
   16MOL0     H 2175   5.060  -0.310  -1.309 -1.0420  3.3039  0.8928
   16MOL0     H 2176   4.953  -0.371  -1.588 -1.1003 -0.7213  1.2258
   16MOL0     H 2177   4.840  -0.315  -1.458  0.1272  2.1183 -0.3813
   16MOL0     H 2178   4.910  -0.527  -1.331  2.6340 -1.9607 -0.0760
   16MOL0     H 2179   5.029  -0.559  -1.445 -0.5719 -2.0155  1.3788
   16MOL0     H 2180   4.727  -0.530  -1.521 -1.8225 -2.6526 -0.2809
   16MOL0     H 2181   4.864  -0.574  -1.630  2.6196 -0.9563  1.3201
   16MOL0     H 2182   4.767  -0.746  -1.391  2.4364 -1.1921  0.9497
   16MOL0     H 2183   4.894  -0.794  -1.486 -0.4011 -0.4522 -0.0431
   16MOL0     H 2184   4.753  -0.785  -1.697 -2.1503 -1.4832 -1.7087
   16MOL0     H 2185   4.617  -0.735  -1.601 -0.2625 -0.0204 -2.8608
   16MOL0     H 2186   4.632  -0.932  -1.471 -2.5487  1.1946 -1.7085
   16MOL0     H 2187   4.760  -1.006  -1.573  2.4356  1.9224  2.1508
   16MOL0     H 2188   4.964   0.123  -1.494  0.7084 -0.1048  2.7978
   16MOL0     H 2189   5.030   0.345  -1.499  0.1888  1.0484 -0.8318
   16MOL0     H 2190   5.136   0.787  -1.716  0.6450 -2.2459  0.8007
   16MOL0     H 2191   5.226   1.020  -1.698  3.5748  0.0425 -1.1520
   16MOL0     H 2192   4.356   0.524  -0.198 -2.0769  3.0242  3.8448
   16MOL0     H 2193   4.320   0.422   0.003 -1.4897  2.0529 -1.3348
   16MOL0     H 2194   4.543   0.279   0.479  0.9643 -2.5026  3.9411
   16MOL0     H 2195   4.440   0.232   0.682 -3.3342  3.1704  1.7632
   16MOL0     H 2196   4.013   0.121   0.753  0.8662 -0.1886 -0.8930
   16MOL0     H 2197   4.079  -0.018   0.676  0.7875 -0.1248  0.6522
   16MOL0     H 2198   4.198  -0.068   0.877 -0.4517  0.9624 -2.0333
   16MOL0     H 2199   4.029  -0.102   0.897 -1.5190 -0.2137  2.7223
   16MOL0     H 2200   4.196   0.120   1.032  1.2319 -1.8565 -1.6044
   16MOL0     H 2201   4.015   0.131   0.997  1.3048  1.7067  0.8020
   16MOL0     H 2202   4.155  -0.091   1.157 -1.6551 -1.3034  2.6542
   16MOL0     H 2203   3.981  -0.083   1.111 -1.3559  1.4069  4.4490
   16MOL0     H 2204   3.979   0.187   1.426 -1.5463  1.9532 -2.3756
   16MOL0     H 2205   4.098   0.084   0.497  1.4289 -1.1355  1.4168
   16MOL0     H 2206   4.055   0.111   0.249 -0.1485 -0.6718 -1.1065
   16MOL0     H 2207   4.168   0.215   0.163  3.0990 -0.5916 -0.2581
   16MOL0     H 2208   4.201   0.064   0.156 -0.5832  1.6767 -2.3191
   17MOL0     O 2209   9.533   4.836   9.228 -0.0318  0.1553 -0.1350
   17MOL0     C 2210   9.483   4.764   9.305  1.2429 -0.2392 -0.0577
   17MOL0     O 2211   9.407   4.801   9.412  0.2543 -0.3367 -0.6297
   17MOL0     C 2212   9.426   4.923   9.468 -0.6760  0.0361 -0.2370
   17MOL0     C 2213   9.496   4.921   9.589 -0.4272 -0.5715 -0.8447
   17MOL0     C 2214   9.523   5.042   9.661 -0.0038 -0.0643  0.1591
   17MOL0     C 2215   9.466   5.160   9.613  0.3783  0.2685 -0.6671
   17MOL0     O 2216   9.472   5.283   9.684  0.7523  0.6245 -0.3042
   17MOL0     C 2217   9.544   5.284   9.809 -0.3859 -0.1169 -0.2142
   17MOL0     C 2218   9.569   5.427   9.851  0.6655 -0.3165  0.1557
   17MOL0     C 2219   9.428   5.499   9.879  0.2311 -0.2357 -0.1864
   17MOL0     C 2220   9.441   5.639   9.925  0.1905 -0.1870  0.1368
   17MOL0     C 2221   9.306   5.707   9.921  0.1986 -0.4043  1.1429
   17MOL0     C 2222   9.298   5.819   9.814 -1.3697  0.6844  0.3560
   17MOL0     C 2223   9.373   5.946   9.853  0.3176  0.2627 -0.0221
   17MOL0     C 2224   9.354   6.055   9.754  0.7775 -0.2771  0.1647
   17MOL0     N 2225   9.453   6.153   9.758 -0.5017  0.1371  0.0374
   17MOL0     C 2226   9.448   6.268   9.840  0.9543  0.3708  0.3907
   17MOL0     C 2227   9.541   6.352   9.795  0.1810  0.5440 -0.1243
   17MOL0     C 2228   9.589   6.482   9.853 -0.1813  0.9001 -0.8349
   17MOL0     C 2229   9.536   6.598   9.766 -0.4717 -0.6726 -0.0685
   17MOL0     C 2230   9.584   6.724   9.849 -0.8876  0.3189  0.1673
   17MOL0     C 2231   9.579   6.848   9.761 -0.0554 -0.2115 -0.2653
   17MOL0     O 2232   9.638   6.961   9.835  0.4395  0.0246 -0.3750
   17MOL0     C 2233   9.642   7.086   9.784  0.3151  0.5582 -0.9466
   17MOL0     C 2234   9.541   7.148   9.719 -0.8483  0.2424  0.1110
   17MOL0     C 2235   9.554   7.274   9.654 -0.1465  0.3370 -0.4776
   17MOL0     C 2236   9.436   7.311   9.573 -0.8209  0.8347  0.5953
   17MOL0     C 2237   9.669   7.346   9.664  0.3065 -0.3395 -0.8288
   17MOL0     C 2238   9.710   7.466   9.593 -0.4311 -0.4482  0.2530
   17MOL0     O 2239   9.832   7.522   9.623  0.4822 -0.2390 -0.0344
   17MOL0     C 2240   9.851   7.659   9.622  0.1322  0.1466 -0.2989
   17MOL0     C 2241   9.750   7.758   9.597 -0.5558 -0.1477 -0.2874
   17MOL0     C 2242   9.777   7.900   9.618  0.6582  0.4402 -0.4903
   17MOL0     C 2243   9.908   7.939   9.648  0.3769  0.4294 -0.1533
   17MOL0     O 2244   9.930   8.073   9.671  0.5455  0.3511  0.9880
   17MOL0     C 2245  10.065   8.118   9.650 -0.2005  0.6918 -0.0362
   17MOL0     C 2246  10.077   8.265   9.611  0.5786 -0.5268 -1.4408
   17MOL0     C 2247  10.215   8.313   9.590  0.0643  0.8680  1.0040
   17MOL0     C 2248  10.264   8.282   9.451  0.8376 -0.4987  0.3858
   17MOL0     C 2249  10.403   8.337   9.441 -0.3554  0.5765 -0.8464
   17MOL0     C 2250  10.467   8.316   9.306 -0.2804  0.4671  0.6373
   17MOL0     C 2251  10.607   8.372   9.309  0.0861 -0.3246 -0.5244
   17MOL0     C 2252  10.605   8.510   9.268 -1.0703  0.0792  1.2330
   17MOL0    Cl 2253  10.727   8.610   9.369  0.8829 -0.0469 -0.1411
   17MOL0     C 2254  10.003   7.841   9.679 -0.1050 -0.6816 -0.0326
   17MOL0     C 2255   9.975   7.707   9.660  0.1430 -0.1508 -0.3470
   17MOL0     O 2256   9.645   7.491   9.493 -0.6258 -0.2591 -1.1029
   17MOL0     C 2257   9.768   7.290   9.753 -0.1117 -0.0722 -0.6855
   17MOL0     C 2258   9.761   7.152   9.808  0.0474 -0.4465 -0.2906
   17MOL0     N 2259   9.607   6.274   9.696 -0.4310  0.5690 -0.3654
   17MOL0     N 2260   9.551   6.161   9.668 -0.1698  0.2663  0.2558
   17MOL0     C 2261   9.414   5.160   9.485  0.2339 -0.8250 -0.8186
   17MOL0     C 2262   9.403   5.045   9.412  0.5562  0.3794  0.1393
   17MOL0     C 2263   9.522   4.627   9.297  0.4962 -0.5071  0.3560
   17MOL0     C 2264   9.540   4.557   9.419 -0.6386 -0.6650 -0.3050
   17MOL0     C 2265   9.586   4.425   9.420  0.0343 -1.0770  1.1120
   17MOL0     C 2266   9.583   4.357   9.301 -0.8976  0.3208  0.6722
   17MOL0     O 2267   9.602   4.224   9.302  0.5928  0.4117  0.5764
   17MOL0     C 2268   9.693   4.157   9.218  0.2317 -0.0333 -0.9238
   17MOL0     C 2269   9.839   4.195   9.272 -0.1562  0.4562  0.0340
   17MOL0     C 2270   9.944   4.111   9.207  0.4353 -0.4222  0.7857
   17MOL0     C 2271   9.929   3.959   9.211  1.4017  0.2167 -0.9383
   17MOL0     C 2272   9.923   3.893   9.341 -0.4261  0.1945  0.1845
   17MOL0     C 2273   9.931   3.842   9.452 -0.5995 -0.3894 -0.3107
   17MOL0     C 2274   9.565   4.423   9.182 -0.0284 -0.1904  0.4632
   17MOL0     C 2275   9.547   4.559   9.171  0.4993  0.3987  0.8029
   17MOL0     C 2276   9.536   4.614   9.031  0.2090  0.2665  0.0064
   17MOL0     H 2277   9.522   4.833   9.646 -0.9089  0.8825  1.7884
   17MOL0     H 2278   9.571   5.033   9.758 -2.7922  0.6212  1.6868
   17MOL0     H 2279   9.643   5.239   9.797 -0.9710 -1.9365  1.4725
   17MOL0     H 2280   9.484   5.238   9.887  0.1744  1.9678  1.5333
   17MOL0     H 2281   9.629   5.420   9.943 -2.0448 -0.3876  2.0389
   17MOL0     H 2282   9.617   5.490   9.776 -0.4300 -0.2695 -0.5241
   17MOL0     H 2283   9.373   5.500   9.784 -1.0258  0.4674  0.5203
   17MOL0     H 2284   9.374   5.445   9.957 -3.4131 -1.3334 -3.1401
   17MOL0     H 2285   9.474   5.643  10.029  3.3441 -1.4794 -0.6935
   17MOL0     H 2286   9.517   5.695   9.868  2.7517 -1.3373  2.1934
   17MOL0     H 2287   9.280   5.752  10.017 -0.2079 -1.4131  1.5180
   17MOL0     H 2288   9.223   5.638   9.904 -0.4227  0.6106 -0.1786
   17MOL0     H 2289   9.330   5.788   9.714  0.2306  0.8463  0.8027
   17MOL0     H 2290   9.190   5.837   9.811 -1.8927 -2.1130 -0.5791
   17MOL0     H 2291   9.483   5.946   9.848  0.3725  2.7030 -0.0904
   17MOL0     H 2292   9.338   5.977   9.952  0.7171 -0.9339  0.5100
   17MOL0     H 2293   9.371   6.017   9.653  0.9641  0.5831 -0.1322
   17MOL0     H 2294   9.252   6.094   9.754 -0.4272 -3.0933 -1.5090
   17MOL0     H 2295   9.373   6.283   9.917  0.5517  2.8780 -0.3851
   17MOL0     H 2296   9.697   6.478   9.866 -0.4115 -1.5140  1.1046
   17MOL0     H 2297   9.540   6.491   9.951 -2.1754 -2.2816 -1.3905
   17MOL0     H 2298   9.568   6.593   9.661 -0.1954  0.0700 -0.0283
   17MOL0     H 2299   9.427   6.599   9.758 -0.6214  2.5691  0.6276
   17MOL0     H 2300   9.519   6.734   9.937 -0.1001 -0.3907  0.8546
   17MOL0     H 2301   9.686   6.707   9.886 -0.8521  0.9644  0.3813
   17MOL0     H 2302   9.622   6.838   9.661 -0.6512 -1.6972 -0.3851
   17MOL0     H 2303   9.471   6.856   9.749  0.2082 -0.8406 -4.2984
   17MOL0     H 2304   9.443   7.102   9.718 -1.5413  1.5956 -2.2426
   17MOL0     H 2305   9.406   7.232   9.502 -1.2051  0.8486  0.7406
   17MOL0     H 2306   9.436   7.407   9.521 -3.7733 -1.2965 -4.0677
   17MOL0     H 2307   9.346   7.322   9.635 -1.8241  1.1953 -0.8594
   17MOL0     H 2308   9.652   7.739   9.554  0.0906 -0.8318 -1.5612
   17MOL0     H 2309   9.697   7.974   9.610  0.1231  0.1293  1.3710
   17MOL0     H 2310  10.114   8.100   9.746  1.0663  2.2126 -0.3589
   17MOL0     H 2311  10.111   8.074   9.561  2.9073  1.7996  0.8633
   17MOL0     H 2312  10.012   8.290   9.527 -0.3827 -1.0389 -0.8660
   17MOL0     H 2313  10.045   8.317   9.702 -0.1332 -5.4245  1.4581
   17MOL0     H 2314  10.269   8.265   9.672  0.8281 -0.7333 -0.3746
   17MOL0     H 2315  10.221   8.420   9.614 -1.3904  0.5579  3.0062
   17MOL0     H 2316  10.212   8.334   9.370  3.0388 -2.7122 -2.6833
   17MOL0     H 2317  10.249   8.176   9.427 -1.6934 -0.4871  1.5185
   17MOL0     H 2318  10.395   8.445   9.458  0.6365  0.7223 -1.2542
   17MOL0     H 2319  10.467   8.287   9.513 -0.8984  0.4620 -0.4400
   17MOL0     H 2320  10.407   8.367   9.230 -2.0330 -0.3458  1.4381
   17MOL0     H 2321  10.471   8.208   9.285 -2.5071  0.8230 -2.3557
   17MOL0     H 2322  10.669   8.305   9.248 -2.6689 -1.0687 -2.7120
   17MOL0     H 2323  10.650   8.353   9.408 -3.0090  0.0523  1.0057
   17MOL0     H 2324  10.510   8.562   9.286  1.1833  5.0282  0.5373
   17MOL0     H 2325  10.614   8.523   9.159 -2.1894 -2.6297  0.7441
   17MOL0     H 2326  10.100   7.868   9.719 -0.6790 -0.2049  1.0824
   17MOL0     H 2327  10.050   7.631   9.682 -1.5300 -2.0978 -1.0278
   17MOL0     H 2328   9.854   7.351   9.779 -3.5731  4.5641  1.2824
   17MOL0     H 2329   9.832   7.112   9.879 -0.5514 -0.6214  0.2217
   17MOL0     H 2330   9.393   5.256   9.438  2.3553 -0.6100 -1.4335
   17MOL0     H 2331   9.350   5.053   9.317  2.3274 -0.3909 -0.9448
   17MOL0     H 2332   9.527   4.605   9.515  1.6695 -2.8071  1.1938
   17MOL0     H 2333   9.607   4.358   9.503  1.3879 -3.7205 -1.1787
   17MOL0     H 2334   9.676   4.054   9.250 -0.8126  0.4924  0.3387
   17MOL0     H 2335   9.661   4.176   9.115 -2.0111  2.6041  0.1363
   17MOL0     H 2336   9.847   4.184   9.381 -1.3062  1.0104  0.1824
   17MOL0     H 2337   9.869   4.295   9.239  0.5736 -0.0084 -0.7467
   17MOL0     H 2338   9.940   4.147   9.104  0.3071  0.4667  1.0938
   17MOL0     H 2339  10.041   4.130   9.255  1.3633 -1.8276 -0.4522
   17MOL0     H 2340  10.014   3.907   9.167 -2.2804 -2.6342 -5.7263
   17MOL0     H 2341   9.841   3.929   9.152  0.0708  0.8629  0.6235
   17MOL0     H 2342   9.942   3.802   9.551 -1.5427  2.5081  1.0861
   17MOL0     H 2343   9.582   4.368   9.090  0.0461 -0.3271  0.5568
   17MOL0     H 2344   9.533   4.722   9.017  0.0281  0.2226 -0.2769
   17MOL0     H 2345   9.611   4.569   8.966 -1.0813  1.3247 -2.3273
   17MOL0     H 2346   9.439   4.576   8.998  0.3889 -0.2610  0.0769
   18MOL0     O 2347  11.097  10.755   7.306  0.5368 -0.5406  0.4553
   18MOL0     C 2348  11.132  10.817   7.205  0.7434  0.4355 -0.0883
   18MOL0     O 2349  11.144  10.761   7.076  0.5137  0.0959 -0.3013
   18MOL0     C 2350  11.136  10.629   7.056 -0.7882  0.6305 -0.1491
   18MOL0     C 2351  11.068  10.590   6.937 -0.1181  0.7557  0.3876
   18MOL0     C 2352  11.067  10.452   6.899  0.0925 -1.5139 -0.7285
   18MOL0     C 2353  11.131  10.353   6.979  0.3610 -0.6678 -0.2377
   18MOL0     O 2354  11.135  10.229   6.930 -0.0474 -0.3886 -1.0022
   18MOL0     C 2355  11.176  10.192   6.800 -0.0928 -0.0629 -0.7177
   18MOL0     C 2356  11.089  10.077   6.745 -0.2311 -0.2077  0.7350
   18MOL0     C 2357  10.940  10.121   6.756 -0.5507  0.4510 -0.5982
   18MOL0     C 2358  10.841  10.032   6.676  1.3459  0.2663  0.3215
   18MOL0     C 2359  10.801   9.906   6.755 -0.0965  0.5513  0.4213
   18MOL0     C 2360  10.688   9.824   6.685  0.2559 -0.0902 -0.1167
   18MOL0     C 2361  10.652   9.709   6.785  0.3444 -0.1534 -0.2087
   18MOL0     C 2362  10.751   9.590   6.769  0.3016 -0.1260  0.4017
   18MOL0     N 2363  10.685   9.464   6.717  0.5228  0.0609 -0.6569
   18MOL0     C 2364  10.680   9.427   6.583  0.0863  0.0098  0.6943
   18MOL0     C 2365  10.593   9.315   6.589  0.5748 -0.6274 -0.6448
   18MOL0     C 2366  10.533   9.263   6.458  0.9003  0.4238 -0.7801
   18MOL0     C 2367  10.515   9.110   6.468  0.0071 -0.0891  0.1415
   18MOL0     C 2368  10.645   9.028   6.445  0.3753  0.0410 -1.1701
   18MOL0     C 2369  10.623   8.877   6.441  0.8383  0.3400  0.2842
   18MOL0     O 2370  10.571   8.834   6.316 -0.2256  0.1468  0.1953
   18MOL0     C 2371  10.560   8.689   6.297 -0.3360 -0.9422  1.3458
   18MOL0     C 2372  10.495   8.644   6.179 -0.8535 -0.7989 -0.2471
   18MOL0     C 2373  10.481   8.515   6.142  0.1876  0.0195 -0.5584
   18MOL0     C 2374  10.430   8.474   6.008  0.8081 -0.7615 -0.0659
   18MOL0     C 2375  10.500   8.422   6.248  0.0454  0.9059 -0.1554
   18MOL0     C 2376  10.461   8.277   6.236  0.8182 -0.5865 -0.2107
   18MOL0     O 2377  10.521   8.187   6.313  0.0294 -0.1740 -0.1372
   18MOL0     C 2378  10.481   8.051   6.301  0.7916 -0.1891  0.1619
   18MOL0     C 2379  10.473   7.963   6.414  0.3154 -0.0978 -0.3102
   18MOL0     C 2380  10.448   7.824   6.396 -0.1130 -0.1593  0.7901
   18MOL0     C 2381  10.428   7.770   6.270 -0.4240  0.1851  0.7652
   18MOL0     O 2382  10.393   7.637   6.270  0.7108  0.2986  0.0178
   18MOL0     C 2383  10.292   7.602   6.180  0.0992  0.5686 -1.3552
   18MOL0     C 2384  10.203   7.493   6.257  0.0371 -0.2890  1.0151
   18MOL0     C 2385  10.111   7.515   6.371  0.1147  0.7344 -0.3129
   18MOL0     C 2386  10.167   7.582   6.497 -0.1192  1.1658  0.5037
   18MOL0     C 2387  10.059   7.613   6.604  0.6213 -0.4920  0.5062
   18MOL0     C 2388  10.002   7.750   6.570 -0.2064  0.1496 -0.7976
   18MOL0     C 2389   9.917   7.799   6.694 -0.1033  0.4419 -0.1826
   18MOL0     C 2390   9.883   7.942   6.679 -0.1562  0.3313 -0.5905
   18MOL0    Cl 2391   9.789   7.993   6.814 -0.2035  0.0495  0.3706
   18MOL0     C 2392  10.431   7.848   6.162 -1.4536  0.0980  0.1488
   18MOL0     C 2393  10.465   7.985   6.174 -0.1363 -0.3579  0.2470
   18MOL0     O 2394  10.375   8.257   6.146  0.1406 -0.6905  0.3054
   18MOL0     C 2395  10.551   8.465   6.368 -0.1517  1.2159 -0.3057
   18MOL0     C 2396  10.587   8.595   6.401 -0.2273  0.2252 -0.6144
   18MOL0     N 2397  10.574   9.280   6.721 -0.0948  0.1619  0.3211
   18MOL0     N 2398  10.635   9.363   6.792  0.6749  1.0957 -0.1163
   18MOL0     C 2399  11.185  10.393   7.104  0.5945  0.3915  0.0945
   18MOL0     C 2400  11.191  10.529   7.142 -0.4258  0.3571  0.6071
   18MOL0     C 2401  11.162  10.971   7.218 -0.0364  0.0212 -0.5842
   18MOL0     C 2402  11.210  11.038   7.104  0.0621  0.1586  0.2838
   18MOL0     C 2403  11.247  11.170   7.102  0.5019 -0.5256 -0.3936
   18MOL0     C 2404  11.223  11.248   7.212 -0.0523 -0.4812  0.4980
   18MOL0     O 2405  11.257  11.375   7.191  0.2870 -0.1718 -0.1985
   18MOL0     C 2406  11.273  11.455   7.312 -0.2093  0.0707 -0.5339
   18MOL0     C 2407  11.290  11.606   7.293 -0.1572 -0.0276  0.3324
   18MOL0     C 2408  11.341  11.679   7.418 -0.1273 -0.6619 -0.1040
   18MOL0     C 2409  11.254  11.679   7.541  0.4579  0.2635 -0.0197
   18MOL0     C 2410  11.133  11.750   7.510 -0.3299 -0.9410  0.7265
   18MOL0     C 2411  11.045  11.807   7.447  0.2655 -0.1492 -0.7404
   18MOL0     C 2412  11.159  11.188   7.320 -0.1608  0.6294 -0.3810
   18MOL0     C 2413  11.127  11.049   7.328  0.1316 -0.7960  0.0730
   18MOL0     C 2414  11.053  11.010   7.449 -0.8628  0.3594  0.7842
   18MOL0     H 2415  11.019  10.668   6.879 -0.4040  1.7970  1.9751
   18MOL0     H 2416  11.014  10.420   6.810 -0.8633  1.1725 -1.2244
   18MOL0     H 2417  11.281  10.163   6.794 -0.0672 -0.0656 -0.2499
   18MOL0     H 2418  11.166  10.275   6.729  0.6849  2.4055  1.8821
   18MOL0     H 2419  11.115  10.056   6.641  0.7178  1.5158  0.5946
   18MOL0     H 2420  11.106   9.991   6.810  2.2697 -0.4334 -0.1108
   18MOL0     H 2421  10.912  10.122   6.862  0.0346 -0.8920 -0.4071
   18MOL0     H 2422  10.924  10.219   6.710  0.0744  0.2078 -1.3546
   18MOL0     H 2423  10.752  10.094   6.660  0.2069 -1.7752 -1.9498
   18MOL0     H 2424  10.875  10.004   6.576  3.9600 -0.9035  1.4358
   18MOL0     H 2425  10.760   9.941   6.850 -0.7855  1.8536 -0.3369
   18MOL0     H 2426  10.894   9.850   6.766  0.7595  2.0065  0.8230
   18MOL0     H 2427  10.599   9.885   6.673  0.8344  0.2918 -3.8257
   18MOL0     H 2428  10.730   9.783   6.592  0.5890 -1.7530  0.7251
   18MOL0     H 2429  10.550   9.674   6.764  0.1464 -0.5959  1.3219
   18MOL0     H 2430  10.651   9.737   6.891  0.1589  0.5526 -0.3938
   18MOL0     H 2431  10.831   9.618   6.700 -1.4763  2.9147 -0.6450
   18MOL0     H 2432  10.784   9.563   6.870  2.8338 -1.4568 -0.6811
   18MOL0     H 2433  10.711   9.486   6.497 -2.1115  4.5284  2.6665
   18MOL0     H 2434  10.605   9.294   6.382  2.9397  0.0955  0.9126
   18MOL0     H 2435  10.432   9.301   6.444  0.2860 -1.0503 -0.5399
   18MOL0     H 2436  10.464   9.084   6.561 -2.7902  1.9242 -0.6832
   18MOL0     H 2437  10.449   9.066   6.392  0.5561 -4.9547  2.0891
   18MOL0     H 2438  10.689   9.054   6.348  0.8386 -0.0294 -0.9802
   18MOL0     H 2439  10.722   9.052   6.519  2.4122 -0.9509 -2.8509
   18MOL0     H 2440  10.713   8.820   6.462  0.1804 -0.5084  0.8660
   18MOL0     H 2441  10.545   8.855   6.514 -0.0212  1.2706 -0.3231
   18MOL0     H 2442  10.472   8.723   6.109  1.7335 -0.3727 -0.7149
   18MOL0     H 2443  10.436   8.563   5.943 -0.2742 -0.5533  0.0996
   18MOL0     H 2444  10.324   8.448   6.016  0.5993  0.4288  1.4430
   18MOL0     H 2445  10.487   8.398   5.954  1.9946  0.0884 -0.0437
   18MOL0     H 2446  10.494   8.005   6.512 -0.1744  1.6095 -0.8840
   18MOL0     H 2447  10.430   7.759   6.481  1.3259 -0.8163  0.6234
   18MOL0     H 2448  10.230   7.690   6.161 -2.7372 -1.4544 -2.2921
   18MOL0     H 2449  10.331   7.572   6.083 -0.0393 -0.8415 -1.0050
   18MOL0     H 2450  10.137   7.456   6.178 -0.8058 -1.9521  2.4324
   18MOL0     H 2451  10.265   7.403   6.267 -0.6712 -0.8737  0.3109
   18MOL0     H 2452  10.082   7.414   6.401  3.0670 -1.1124 -2.9828
   18MOL0     H 2453  10.024   7.567   6.330 -2.0915 -1.7786  0.8792
   18MOL0     H 2454  10.221   7.673   6.471  1.0230  1.1473  2.5568
   18MOL0     H 2455  10.242   7.517   6.543  0.8843  1.6340 -0.4336
   18MOL0     H 2456   9.989   7.529   6.596  0.5129 -0.5399  1.6949
   18MOL0     H 2457  10.114   7.600   6.698  0.2056  2.5043  1.2520
   18MOL0     H 2458   9.958   7.764   6.471  0.5683  3.8777 -0.7794
   18MOL0     H 2459  10.081   7.826   6.558 -2.9612  3.3062 -0.2951
   18MOL0     H 2460   9.977   7.784   6.784  2.0863 -3.0924 -1.9977
   18MOL0     H 2461   9.830   7.733   6.702  0.2188 -0.1191 -1.1236
   18MOL0     H 2462   9.831   7.959   6.584 -2.3218  4.7846  1.1002
   18MOL0     H 2463   9.981   7.991   6.675 -0.8003  1.6154 -2.9303
   18MOL0     H 2464  10.412   7.810   6.062  1.9094 -3.4129  0.5924
   18MOL0     H 2465  10.476   8.039   6.080  0.6262 -2.8947 -1.2449
   18MOL0     H 2466  10.561   8.395   6.450 -1.9473  2.1425  0.7689
   18MOL0     H 2467  10.627   8.615   6.500 -0.3258 -0.9884 -0.3087
   18MOL0     H 2468  11.232  10.325   7.173  1.6133 -0.2432 -1.1767
   18MOL0     H 2469  11.241  10.557   7.234  3.0522  1.0366 -1.3147
   18MOL0     H 2470  11.222  10.972   7.019 -0.1996 -1.0775  1.1735
   18MOL0     H 2471  11.284  11.221   7.014  2.8995 -0.9937  0.2636
   18MOL0     H 2472  11.194  11.437   7.385 -0.4397 -0.3574 -0.8800
   18MOL0     H 2473  11.369  11.418   7.351 -0.3025 -0.9981 -1.2692
   18MOL0     H 2474  11.196  11.653   7.263 -0.0250 -1.0353 -1.8546
   18MOL0     H 2475  11.362  11.628   7.214  0.6143 -1.0508  0.7302
   18MOL0     H 2476  11.440  11.642   7.448  0.5329  0.5078 -0.7446
   18MOL0     H 2477  11.361  11.782   7.386  0.3066 -1.4291 -2.5459
   18MOL0     H 2478  11.292  11.738   7.624 -1.6804 -0.3232  1.4690
   18MOL0     H 2479  11.242  11.578   7.581 -1.2967  0.2931 -0.3829
   18MOL0     H 2480  10.966  11.868   7.407  1.4763  2.1029  0.1032
   18MOL0     H 2481  11.152  11.243   7.413 -3.1129  0.8185 -0.6048
   18MOL0     H 2482  10.997  10.916   7.442 -1.2711  0.5605  1.2729
   18MOL0     H 2483  11.131  11.008   7.525 -1.2646 -0.9302  1.1878
   18MOL0     H 2484  10.977  11.087   7.467 -2.9081 -1.6959  1.3904
   19MOL0     O 2485  10.983   3.866   8.845  0.1036 -0.5543  0.0995
   19MOL0     C 2486  10.959   3.743   8.831  0.4889 -0.3579  0.7375
   19MOL0     O 2487  11.046   3.645   8.868  0.6309 -0.7173 -0.1269
   19MOL0     C 2488  11.140   3.693   8.956  0.4565 -0.1060  0.1261
   19MOL0     C 2489  11.107   3.689   9.090  0.3488  0.3343  0.2573
   19MOL0     C 2490  11.202   3.701   9.190 -0.0631  0.2154 -0.2051
   19MOL0     C 2491  11.330   3.730   9.155 -0.7323  0.5018  0.8462
   19MOL0     O 2492  11.416   3.768   9.249 -0.0257 -0.1896 -0.6232
   19MOL0     C 2493  11.461   3.655   9.330 -0.1977  0.1420 -0.5780
   19MOL0     C 2494  11.563   3.699   9.426 -0.2347  0.5574 -0.0838
   19MOL0     C 2495  11.625   3.577   9.510 -0.3060 -0.8727 -0.2723
   19MOL0     C 2496  11.742   3.613   9.609  0.7124  0.1832 -0.3116
   19MOL0     C 2497  11.802   3.492   9.673 -0.0244 -0.1485 -0.6244
   19MOL0     C 2498  11.896   3.536   9.784 -0.3537  0.1772  0.2121
   19MOL0     C 2499  11.939   3.427   9.887 -0.0893 -1.5132 -0.8051
   19MOL0     C 2500  12.052   3.331   9.856  0.1056 -0.4647  0.3987
   19MOL0     N 2501  11.996   3.221   9.766  0.0566  0.9042 -0.3992
   19MOL0     C 2502  11.896   3.129   9.788  0.1760 -1.2891 -0.8156
   19MOL0     C 2503  11.899   3.058   9.674  0.7859  0.4140 -0.0193
   19MOL0     C 2504  11.801   2.940   9.659 -0.0755 -1.0209 -0.7335
   19MOL0     C 2505  11.872   2.817   9.605  0.7687 -0.7815  0.3395
   19MOL0     C 2506  11.818   2.697   9.677  0.7436 -0.2364 -0.2231
   19MOL0     C 2507  11.669   2.671   9.650 -0.4235 -0.5102 -0.1398
   19MOL0     O 2508  11.614   2.575   9.735 -0.5699  0.3126  0.0934
   19MOL0     C 2509  11.482   2.557   9.720  0.3365  0.4777 -0.0132
   19MOL0     C 2510  11.426   2.478   9.816 -0.1744 -1.2725  0.7975
   19MOL0     C 2511  11.290   2.455   9.823 -0.4211  1.1849 -0.1266
   19MOL0     C 2512  11.237   2.372   9.935 -0.5379  0.5699 -0.1356
   19MOL0     C 2513  11.206   2.500   9.717 -0.0645  0.3158 -0.0527
   19MOL0     C 2514  11.069   2.465   9.685 -0.0735  0.1421 -0.0131
   19MOL0     O 2515  11.015   2.523   9.577 -0.3932 -0.0648  0.0371
   19MOL0     C 2516  10.906   2.462   9.515 -0.3913 -0.5580 -0.4200
   19MOL0     C 2517  10.786   2.544   9.486 -0.1616 -0.9030  0.5150
   19MOL0     C 2518  10.683   2.490   9.417  0.8080 -0.3697 -0.3275
   19MOL0     C 2519  10.686   2.365   9.366 -0.2710  0.4328 -0.0752
   19MOL0     O 2520  10.576   2.319   9.296  0.1446  0.5603  0.7462
   19MOL0     C 2521  10.572   2.185   9.255  1.2276 -0.7134  0.5472
   19MOL0     C 2522  10.429   2.164   9.201 -0.5943  0.7724  0.0164
   19MOL0     C 2523  10.407   2.014   9.152 -0.4076 -0.6971 -0.1050
   19MOL0     C 2524  10.262   1.994   9.110  0.8686  1.0621 -0.3400
   19MOL0     C 2525  10.228   1.842   9.085  1.2285 -0.2432  0.0024
   19MOL0     C 2526  10.260   1.750   9.208 -0.8570 -1.2361  0.2471
   19MOL0     C 2527  10.196   1.612   9.216 -0.0563 -0.2733 -0.3321
   19MOL0     C 2528  10.236   1.532   9.089  0.2850 -0.6814 -0.5256
   19MOL0    Cl 2529  10.419   1.552   9.053  0.8470 -0.2024  0.4472
   19MOL0     C 2530  10.809   2.295   9.378 -0.0095  0.4776 -0.4854
   19MOL0     C 2531  10.913   2.333   9.460  0.8069  0.7603  0.3613
   19MOL0     O 2532  11.010   2.376   9.754  0.1424  0.5869  0.0562
   19MOL0     C 2533  11.262   2.585   9.624 -0.3225 -0.5242  0.0107
   19MOL0     C 2534  11.401   2.612   9.618  0.9729  0.5029  0.0299
   19MOL0     N 2535  11.989   3.105   9.584  0.2867 -0.6373 -0.6193
   19MOL0     N 2536  12.044   3.206   9.640  0.6009 -0.5291 -0.2347
   19MOL0     C 2537  11.374   3.731   9.019  1.3136 -0.7475  0.5238
   19MOL0     C 2538  11.272   3.714   8.919  0.5994 -0.3339  0.2014
   19MOL0     C 2539  10.831   3.697   8.751 -0.0675 -0.0130 -0.6418
   19MOL0     C 2540  10.746   3.799   8.707 -0.1741  0.1275 -0.3857
   19MOL0     C 2541  10.627   3.762   8.638  0.0284 -0.4803 -1.0822
   19MOL0     C 2542  10.598   3.628   8.604  0.2638  0.3628 -0.3426
   19MOL0     O 2543  10.477   3.599   8.531 -0.5045  0.0448 -0.4137
   19MOL0     C 2544  10.380   3.506   8.587  0.5740 -0.6424 -0.0808
   19MOL0     C 2545  10.259   3.509   8.486 -0.3536 -0.5530  0.2420
   19MOL0     C 2546  10.213   3.648   8.449 -0.4123 -0.8409  0.8715
   19MOL0     C 2547  10.159   3.658   8.305  0.2803  0.9541  0.0958
   19MOL0     C 2548  10.113   3.794   8.267 -0.0879 -0.1344 -0.5666
   19MOL0     C 2549  10.078   3.911   8.253 -0.1264 -0.1926  0.2049
   19MOL0     C 2550  10.682   3.529   8.651  0.1971  0.3371  0.5453
   19MOL0     C 2551  10.793   3.558   8.732 -0.8877  0.0115 -0.2953
   19MOL0     C 2552  10.866   3.439   8.792 -0.3389 -0.2052  0.2128
   19MOL0     H 2553  11.007   3.661   9.123  0.7791 -0.1314  1.2022
   19MOL0     H 2554  11.169   3.691   9.292 -0.1639 -2.7842 -0.4545
   19MOL0     H 2555  11.499   3.575   9.266 -0.2520 -0.2863 -0.0806
   19MOL0     H 2556  11.372   3.624   9.387  2.1815 -2.1528  2.1880
   19MOL0     H 2557  11.641   3.744   9.363  1.3116 -3.8553 -1.6747
   19MOL0     H 2558  11.521   3.780   9.487 -1.3447  0.3593 -0.5595
   19MOL0     H 2559  11.545   3.526   9.564  0.6762 -1.4402  0.6762
   19MOL0     H 2560  11.653   3.504   9.433  1.3259 -0.1562 -0.4100
   19MOL0     H 2561  11.814   3.668   9.549 -0.4087  0.9237 -1.0208
   19MOL0     H 2562  11.690   3.674   9.684 -1.0916 -1.2702 -0.2937
   19MOL0     H 2563  11.861   3.434   9.602  0.3991 -0.7377  0.1983
   19MOL0     H 2564  11.724   3.435   9.724  1.2141  0.1289  1.7024
   19MOL0     H 2565  11.986   3.575   9.736  0.9603 -0.6674  1.8684
   19MOL0     H 2566  11.838   3.602   9.848  1.4919  1.5563  0.5449
   19MOL0     H 2567  11.849   3.379   9.926  0.3975 -0.4722  1.8541
   19MOL0     H 2568  11.987   3.487   9.965 -0.7335 -1.9391 -0.0731
   19MOL0     H 2569  12.136   3.368   9.796 -0.1491  0.3172  0.5124
   19MOL0     H 2570  12.089   3.293   9.952 -0.5648  0.3554  1.0011
   19MOL0     H 2571  11.840   3.113   9.879  1.1913 -0.7265 -0.0740
   19MOL0     H 2572  11.718   2.975   9.597  2.2768  3.5303 -1.7115
   19MOL0     H 2573  11.764   2.912   9.758 -3.1255  0.9338 -1.1895
   19MOL0     H 2574  11.854   2.819   9.497 -1.8426  2.9572  0.6830
   19MOL0     H 2575  11.978   2.822   9.630  0.3090  0.4784  2.1936
   19MOL0     H 2576  11.866   2.606   9.639 -2.5253 -2.8044  1.3227
   19MOL0     H 2577  11.848   2.706   9.782  1.7537 -1.6443 -0.3593
   19MOL0     H 2578  11.615   2.766   9.649 -0.2446 -0.4004  0.2612
   19MOL0     H 2579  11.652   2.631   9.550  0.2954 -0.8175 -0.1429
   19MOL0     H 2580  11.491   2.451   9.898  1.4171 -0.1356 -0.0323
   19MOL0     H 2581  11.149   2.414   9.984 -2.1431 -1.6724 -0.9396
   19MOL0     H 2582  11.324   2.361  10.001  1.0157 -0.6136 -2.2431
   19MOL0     H 2583  11.209   2.270   9.906 -2.2616  1.0331 -0.2226
   19MOL0     H 2584  10.777   2.636   9.543 -0.5122 -3.3613  4.8694
   19MOL0     H 2585  10.595   2.553   9.428  0.9699 -0.3420  1.0658
   19MOL0     H 2586  10.643   2.160   9.176 -0.4615  0.0660 -1.2851
   19MOL0     H 2587  10.566   2.114   9.338  0.0803 -1.9049 -0.5060
   19MOL0     H 2588  10.344   2.196   9.262 -1.3312 -2.5872  0.9726
   19MOL0     H 2589  10.437   2.226   9.111  0.1123 -0.1486 -0.5763
   19MOL0     H 2590  10.443   1.944   9.228 -0.6195  1.6388  2.3153
   19MOL0     H 2591  10.476   2.008   9.068 -2.7715  0.4197 -2.2600
   19MOL0     H 2592  10.253   2.055   9.020  2.4052  0.5425 -0.8822
   19MOL0     H 2593  10.189   2.034   9.181  1.0226 -0.7156  0.8851
   19MOL0     H 2594  10.123   1.833   9.055  1.7546 -0.2177 -1.9953
   19MOL0     H 2595  10.290   1.798   9.006  2.3301  1.3942 -0.0981
   19MOL0     H 2596  10.232   1.802   9.300  0.0019 -1.8779  0.8929
   19MOL0     H 2597  10.370   1.744   9.208 -0.3720  3.5239 -0.5364
   19MOL0     H 2598  10.088   1.620   9.225  0.1440 -0.2956  3.6317
   19MOL0     H 2599  10.236   1.571   9.309 -2.7021  0.8142  1.3830
   19MOL0     H 2600  10.179   1.556   8.999 -2.2378 -3.4621  0.1604
   19MOL0     H 2601  10.216   1.426   9.108 -0.6474 -0.0008  3.1143
   19MOL0     H 2602  10.811   2.195   9.336 -0.3454 -0.4712  1.6411
   19MOL0     H 2603  10.993   2.273   9.503  0.2368  0.8131  1.5348
   19MOL0     H 2604  11.204   2.641   9.551  1.6336  1.4713 -0.1325
   19MOL0     H 2605  11.430   2.683   9.541  0.4048  1.5789  0.7828
   19MOL0     H 2606  11.468   3.757   8.970 -1.1363  2.3357 -3.1767
   19MOL0     H 2607  11.309   3.716   8.817 -0.2219  1.2278 -0.1037
   19MOL0     H 2608  10.777   3.901   8.729  0.7533 -0.5553  1.7652
   19MOL0     H 2609  10.556   3.839   8.611  1.5464 -0.2765 -5.0348
   19MOL0     H 2610  10.430   3.411   8.605 -0.2129 -0.9668  0.4443
   19MOL0     H 2611  10.351   3.550   8.683  1.0357  1.2965 -0.7865
   19MOL0     H 2612  10.170   3.457   8.522 -1.7131  0.4694 -1.4895
   19MOL0     H 2613  10.278   3.445   8.400 -0.6040 -2.4082  1.5014
   19MOL0     H 2614  10.142   3.701   8.513  0.4026  0.4351  0.7638
   19MOL0     H 2615  10.296   3.720   8.452 -1.9696  1.0214  3.0734
   19MOL0     H 2616  10.073   3.595   8.282  1.6763 -0.2534 -2.1990
   19MOL0     H 2617  10.244   3.630   8.243  0.2897 -0.5952  0.7670
   19MOL0     H 2618  10.053   4.015   8.255 -3.4061 -0.8900  0.8392
   19MOL0     H 2619  10.681   3.426   8.618 -1.4226 -0.2741  2.2955
   19MOL0     H 2620  10.951   3.423   8.725  0.6027  1.6123  0.9267
   19MOL0     H 2621  10.899   3.463   8.893 -0.0688 -2.4592  0.7102
   19MOL0     H 2622  10.798   3.354   8.777  1.2407 -0.9304 -5.1767
   20MOL0     O 2623   1.287   3.641   5.619  0.8790  0.4286  0.1670
   20MOL0     C 2624   1.256   3.593   5.510  0.1614  0.3803  0.3776
   20MOL0     O 2625   1.219   3.657   5.396  0.0234 -0.0125 -0.4182
   20MOL0     C 2626   1.224   3.789   5.394 -0.0680  0.4935 -0.4708
   20MOL0     C 2627   1.299   3.853   5.294  0.1582 -0.0856  0.3872
   20MOL0     C 2628   1.306   3.993   5.289  0.3410 -0.0020  0.5749
   20MOL0     C 2629   1.234   4.070   5.382  0.4090  0.6436  0.2990
   20MOL0     O 2630   1.235   4.208   5.364  0.5304 -0.2460 -0.9492
   20MOL0     C 2631   1.166   4.292   5.456  0.4323  0.6433  0.5418
   20MOL0     C 2632   1.196   4.433   5.413 -0.7635  0.6385  0.3835
   20MOL0     C 2633   1.097   4.520   5.476 -0.2506 -0.0882 -0.7207
   20MOL0     C 2634   1.128   4.671   5.445 -0.8943 -0.2732  0.3114
   20MOL0     C 2635   1.101   4.765   5.566 -0.7729  0.0477  0.6216
   20MOL0     C 2636   1.154   4.903   5.543  0.1005  0.6882  0.0641
   20MOL0     C 2637   1.046   4.995   5.471  0.7797 -0.5781  0.0637
   20MOL0     C 2638   1.102   5.136   5.437  0.5603 -0.3945 -0.0944
   20MOL0     N 2639   1.216   5.142   5.340  1.1545 -0.1473 -0.3601
   20MOL0     C 2640   1.196   5.131   5.205 -0.1357 -0.6387  0.0345
   20MOL0     C 2641   1.319   5.155   5.155 -0.8936  0.9382  0.3147
   20MOL0     C 2642   1.364   5.156   5.011  0.1144  0.6496  0.0023
   20MOL0     C 2643   1.385   5.010   4.962 -0.0414 -0.2361  0.0032
   20MOL0     C 2644   1.389   4.997   4.807  1.1205 -0.4198 -0.2587
   20MOL0     C 2645   1.407   4.860   4.764  0.8270  0.2650 -0.0613
   20MOL0     O 2646   1.286   4.780   4.788  0.2258  0.5145  0.7549
   20MOL0     C 2647   1.277   4.652   4.726  0.4169 -0.5100 -1.3142
   20MOL0     C 2648   1.374   4.597   4.642  0.6944  0.9026 -0.2668
   20MOL0     C 2649   1.347   4.458   4.603  0.8130 -0.0133 -0.0904
   20MOL0     C 2650   1.450   4.402   4.500 -0.5762  0.7772  0.1014
   20MOL0     C 2651   1.243   4.385   4.658 -0.2031  0.1882  0.7210
   20MOL0     C 2652   1.216   4.242   4.623  0.5582  0.4922  0.0399
   20MOL0     O 2653   1.188   4.171   4.740  1.1420 -0.1179  0.1111
   20MOL0     C 2654   1.158   4.040   4.718  0.5311  0.6261 -1.0880
   20MOL0     C 2655   1.040   3.989   4.656 -0.2719  0.1819  0.0432
   20MOL0     C 2656   1.004   3.847   4.653 -0.6902 -1.0119  0.5340
   20MOL0     C 2657   1.101   3.754   4.696  1.4866 -0.5522 -0.1231
   20MOL0     O 2658   1.082   3.620   4.692  0.3908 -0.2284  0.3608
   20MOL0     C 2659   1.174   3.557   4.604 -0.0744  0.8489  0.9393
   20MOL0     C 2660   1.169   3.405   4.645  0.2239 -0.2857  0.4475
   20MOL0     C 2661   1.248   3.319   4.546  0.5317 -0.9445 -0.1958
   20MOL0     C 2662   1.220   3.170   4.558 -0.3612  0.4282  0.0005
   20MOL0     C 2663   1.338   3.091   4.501  0.2758  0.1915  0.7215
   20MOL0     C 2664   1.304   2.938   4.530  0.5180 -0.8269  0.3791
   20MOL0     C 2665   1.282   2.916   4.679 -1.3170 -0.1147  1.2318
   20MOL0     C 2666   1.334   2.779   4.720 -0.1224 -0.9864 -1.0980
   20MOL0    Cl 2667   1.258   2.652   4.612  0.1057 -0.1035 -0.3020
   20MOL0     C 2668   1.219   3.794   4.748  0.8146  0.1263 -0.0392
   20MOL0     C 2669   1.241   3.933   4.766  0.9017 -0.4924  0.1297
   20MOL0     O 2670   1.217   4.193   4.513 -0.2869 -0.6803  0.1848
   20MOL0     C 2671   1.156   4.449   4.739  0.2562 -0.6519 -0.3081
   20MOL0     C 2672   1.169   4.581   4.772 -0.7709 -0.4483 -0.4444
   20MOL0     N 2673   1.409   5.179   5.259  0.0985 -0.1070  0.1308
   20MOL0     N 2674   1.340   5.175   5.369 -0.3912  0.4278 -0.3885
   20MOL0     C 2675   1.164   4.004   5.482  0.2752 -0.1430  1.0083
   20MOL0     C 2676   1.149   3.864   5.487  0.0602  0.6259 -1.1450
   20MOL0     C 2677   1.277   3.449   5.504  0.2876 -0.3269 -0.2242
   20MOL0     C 2678   1.256   3.372   5.620  0.5513  0.4208  1.0645
   20MOL0     C 2679   1.288   3.238   5.616  0.3458 -0.6430  0.3813
   20MOL0     C 2680   1.330   3.173   5.506 -0.6577 -1.3712 -0.2304
   20MOL0     O 2681   1.378   3.044   5.497  0.5207 -0.2475 -0.5842
   20MOL0     C 2682   1.360   2.954   5.616 -1.0630  0.1064  0.2464
   20MOL0     C 2683   1.348   2.801   5.585 -0.5185 -0.4532 -0.0826
   20MOL0     C 2684   1.286   2.708   5.694 -0.1310  0.2095 -0.1738
   20MOL0     C 2685   1.245   2.570   5.642  0.6662  0.7702  0.4821
   20MOL0     C 2686   1.117   2.579   5.573  0.9142 -0.7098  0.1463
   20MOL0     C 2687   1.014   2.571   5.506 -0.3391 -1.2046  0.2131
   20MOL0     C 2688   1.351   3.250   5.394 -0.9512 -0.8344  0.3644
   20MOL0     C 2689   1.319   3.387   5.379 -0.1370  0.0263 -1.5029
   20MOL0     C 2690   1.356   3.452   5.246  0.3326  0.2835 -0.1847
   20MOL0     H 2691   1.353   3.785   5.229  1.7717  0.3450  1.2346
   20MOL0     H 2692   1.361   4.050   5.215 -0.4271  1.4801  1.0969
   20MOL0     H 2693   1.194   4.293   5.562 -0.3794 -1.9532  0.8595
   20MOL0     H 2694   1.062   4.258   5.446  0.8253 -0.4333  0.0275
   20MOL0     H 2695   1.301   4.442   5.442 -0.1738  0.3699 -1.5636
   20MOL0     H 2696   1.203   4.437   5.304  4.0876 -1.3885  0.4043
   20MOL0     H 2697   0.997   4.503   5.433 -0.1105 -2.1612 -0.3078
   20MOL0     H 2698   1.095   4.515   5.585 -1.6279  4.0529 -0.3735
   20MOL0     H 2699   1.233   4.689   5.419 -1.0618  3.0650  1.3822
   20MOL0     H 2700   1.057   4.702   5.367 -0.6334  1.6399  0.7649
   20MOL0     H 2701   1.148   4.716   5.652 -1.0995 -2.2536 -0.4268
   20MOL0     H 2702   0.994   4.769   5.589 -1.1573  1.7026 -1.1830
   20MOL0     H 2703   1.173   4.942   5.644  1.4476 -2.6059  1.2141
   20MOL0     H 2704   1.251   4.894   5.493  0.2636 -0.3333  0.5535
   20MOL0     H 2705   0.956   5.011   5.531 -0.1178 -3.1463 -0.4660
   20MOL0     H 2706   1.005   4.949   5.380 -0.3773  1.6621 -0.6094
   20MOL0     H 2707   1.016   5.200   5.413  2.1416  0.7077 -3.2897
   20MOL0     H 2708   1.136   5.170   5.536  0.2099  0.5231 -0.2818
   20MOL0     H 2709   1.110   5.107   5.142  0.4490 -3.0567  0.0340
   20MOL0     H 2710   1.457   5.212   5.001  0.9851 -0.7816 -0.2408
   20MOL0     H 2711   1.285   5.210   4.958 -2.8132 -0.3326  3.0196
   20MOL0     H 2712   1.472   4.965   5.011 -0.7060 -1.0029  0.5101
   20MOL0     H 2713   1.296   4.955   4.994 -1.9694  2.2974 -0.7118
   20MOL0     H 2714   1.289   5.019   4.770  1.6240  1.5406 -0.5836
   20MOL0     H 2715   1.464   5.056   4.754  4.3797 -2.7611  1.3888
   20MOL0     H 2716   1.436   4.862   4.658  1.1348 -2.4479 -0.0929
   20MOL0     H 2717   1.488   4.810   4.819 -1.0748 -0.3041  2.4003
   20MOL0     H 2718   1.456   4.663   4.617 -0.5729  2.8260  0.3931
   20MOL0     H 2719   1.471   4.298   4.523 -0.5784  0.9747  1.0510
   20MOL0     H 2720   1.544   4.456   4.517 -1.1207  1.0220  2.7981
   20MOL0     H 2721   1.405   4.420   4.402 -0.2211  0.1849 -0.1770
   20MOL0     H 2722   0.976   4.060   4.603  1.0918  0.3012 -1.5346
   20MOL0     H 2723   0.909   3.816   4.611  0.1469  0.6303 -2.8970
   20MOL0     H 2724   1.139   3.567   4.500 -0.0402 -1.8582  0.6072
   20MOL0     H 2725   1.276   3.595   4.593  0.6298 -1.1204  0.1883
   20MOL0     H 2726   1.211   3.383   4.743 -0.8908 -3.6301  0.2980
   20MOL0     H 2727   1.063   3.379   4.645  0.5515 -2.3668 -3.4056
   20MOL0     H 2728   1.355   3.334   4.563  0.5657 -0.0281 -1.0750
   20MOL0     H 2729   1.221   3.353   4.445 -0.7084  2.1718  1.0773
   20MOL0     H 2730   1.126   3.144   4.509  0.0829 -2.3762  0.4229
   20MOL0     H 2731   1.213   3.148   4.665 -1.7441  2.4023  0.3544
   20MOL0     H 2732   1.357   3.107   4.394  4.4908 -1.1043  1.0865
   20MOL0     H 2733   1.438   3.114   4.539  0.4264  0.4001  0.2076
   20MOL0     H 2734   1.386   2.878   4.488  1.5037  2.1470 -2.4304
   20MOL0     H 2735   1.211   2.917   4.478 -0.0235  0.1835  0.9091
   20MOL0     H 2736   1.176   2.918   4.709 -1.2978  2.2807  1.2851
   20MOL0     H 2737   1.329   2.993   4.740  0.4214 -0.0067 -0.1752
   20MOL0     H 2738   1.300   2.782   4.824 -0.2245  2.1260 -1.1230
   20MOL0     H 2739   1.443   2.783   4.720 -0.1610  1.3347 -1.2019
   20MOL0     H 2740   1.266   3.708   4.795 -0.5575 -2.5489 -3.1264
   20MOL0     H 2741   1.330   3.964   4.819  0.0779 -1.5433  2.2220
   20MOL0     H 2742   1.069   4.391   4.770 -0.0865 -0.0443 -0.1031
   20MOL0     H 2743   1.094   4.630   4.833  0.3797  0.6812  0.1103
   20MOL0     H 2744   1.104   4.071   5.542  3.2253  2.4191  1.3657
   20MOL0     H 2745   1.085   3.817   5.561  1.5562  0.7361  0.2693
   20MOL0     H 2746   1.228   3.423   5.711  0.4984  1.1017  0.6719
   20MOL0     H 2747   1.271   3.178   5.705 -0.5626 -0.3006  0.4475
   20MOL0     H 2748   1.443   2.953   5.686 -1.7839  0.5015  1.1328
   20MOL0     H 2749   1.268   2.988   5.664 -0.7382 -1.0696  1.7915
   20MOL0     H 2750   1.453   2.771   5.575 -0.3709 -0.6387  1.7489
   20MOL0     H 2751   1.298   2.787   5.488  1.7358  0.5759 -1.4920
   20MOL0     H 2752   1.363   2.692   5.770 -0.7326  0.1635  0.4330
   20MOL0     H 2753   1.198   2.760   5.732 -0.5308 -1.6977  1.7286
   20MOL0     H 2754   1.233   2.497   5.723 -1.0847 -0.1012 -0.5080
   20MOL0     H 2755   1.325   2.525   5.582  0.0472 -1.1107  0.9830
   20MOL0     H 2756   0.923   2.572   5.449 -0.7341  1.4450  0.7471
   20MOL0     H 2757   1.405   3.202   5.314  0.7003  2.4898 -0.6775
   20MOL0     H 2758   1.404   3.377   5.182  0.7998  0.0287  0.4606
   20MOL0     H 2759   1.263   3.488   5.201  1.2584  1.2081 -1.4576
   20MOL0     H 2760   1.424   3.537   5.259 -1.2646  1.4581  0.8372
   21MOL0     O 2761   3.018   7.465   8.890 -0.3416  0.2025  0.6459
   21MOL0     C 2762   3.110   7.537   8.846  0.0271  0.0171  0.8460
   21MOL0     O 2763   3.215   7.578   8.905  0.6286  0.9965 -0.2057
   21MOL0     C 2764   3.211   7.596   9.048 -0.3813 -0.3677  1.2950
   21MOL0     C 2765   3.099   7.647   9.119 -0.6262  0.0954  0.6747
   21MOL0     C 2766   3.099   7.659   9.260 -0.4144  0.3708  0.6378
   21MOL0     C 2767   3.220   7.624   9.329 -0.5087 -0.6182  0.5887
   21MOL0     O 2768   3.220   7.628   9.463  0.4985  0.2307  0.4419
   21MOL0     C 2769   3.228   7.494   9.528  0.9244  0.0337  0.6903
   21MOL0     C 2770   3.109   7.402   9.515  0.0823 -0.3206 -0.4041
   21MOL0     C 2771   2.985   7.436   9.606 -0.0795 -0.1434 -0.3154
   21MOL0     C 2772   2.925   7.577   9.593  0.2303  0.6771 -0.0810
   21MOL0     C 2773   2.819   7.599   9.694 -0.2419  0.3756 -0.6049
   21MOL0     C 2774   2.768   7.741   9.688  0.8411  0.3645  0.1552
   21MOL0     C 2775   2.679   7.766   9.809 -0.5964  0.6753  0.1880
   21MOL0     C 2776   2.632   7.914   9.817 -0.0100 -0.2555 -0.7848
   21MOL0     N 2777   2.512   7.928   9.899 -0.3178 -0.8506  0.4289
   21MOL0     C 2778   2.382   7.973   9.872 -0.0086 -0.2419  0.1230
   21MOL0     C 2779   2.321   7.995   9.987 -0.1041  0.1313 -0.5807
   21MOL0     C 2780   2.184   8.057  10.000  0.1468  0.6258  0.0541
   21MOL0     C 2781   2.184   8.192  10.089  0.1449  0.2697  0.9289
   21MOL0     C 2782   2.053   8.265  10.111 -0.6543  0.2127  0.5417
   21MOL0     C 2783   1.997   8.356   9.997 -0.5378 -0.4939 -0.3988
   21MOL0     O 2784   1.891   8.300   9.919  0.4465  0.0947 -0.4759
   21MOL0     C 2785   1.827   8.390   9.835  0.0211 -0.5920  0.0345
   21MOL0     C 2786   1.705   8.352   9.785  0.1552  1.1977  0.4572
   21MOL0     C 2787   1.639   8.418   9.686  1.2139  0.6843 -1.1185
   21MOL0     C 2788   1.504   8.367   9.649 -0.5559  0.0275  0.3008
   21MOL0     C 2789   1.696   8.538   9.637 -1.0075 -0.1467  0.6523
   21MOL0     C 2790   1.645   8.625   9.533 -0.6568 -0.4056  0.2556
   21MOL0     O 2791   1.738   8.711   9.475 -0.3685  0.3518  0.4000
   21MOL0     C 2792   1.699   8.813   9.388  0.0429 -0.5803 -0.8159
   21MOL0     C 2793   1.808   8.888   9.348 -0.4351 -0.4526 -0.5220
   21MOL0     C 2794   1.802   8.999   9.262  0.1151 -0.1785  0.6170
   21MOL0     C 2795   1.679   9.051   9.232 -0.1616  0.2257 -0.3229
   21MOL0     O 2796   1.661   9.160   9.143 -0.2281  0.4831  0.1788
   21MOL0     C 2797   1.768   9.219   9.070  0.2345  0.8441  0.3413
   21MOL0     C 2798   1.713   9.311   8.959 -0.4863 -0.2416  0.8769
   21MOL0     C 2799   1.649   9.432   9.014  0.7340 -0.3383 -0.4559
   21MOL0     C 2800   1.550   9.522   8.927  0.1099 -0.0664  0.0246
   21MOL0     C 2801   1.460   9.615   9.006 -0.8540  0.1794 -0.0584
   21MOL0     C 2802   1.395   9.727   8.920  0.0634  0.3415 -0.0866
   21MOL0     C 2803   1.308   9.826   9.018  0.1501 -0.3505 -0.2652
   21MOL0     C 2804   1.226   9.933   8.947  0.3982  0.9031 -0.3439
   21MOL0    Cl 2805   1.117   9.849   8.839  0.4306  0.6711  0.2558
   21MOL0     C 2806   1.565   8.985   9.283 -0.6424 -0.0376  0.6388
   21MOL0     C 2807   1.574   8.870   9.360  0.9629  0.6154 -0.3667
   21MOL0     O 2808   1.528   8.618   9.500 -0.7678 -0.1194 -0.1215
   21MOL0     C 2809   1.817   8.583   9.694  0.3538  0.5754 -0.7404
   21MOL0     C 2810   1.881   8.510   9.787  0.1032 -0.2678 -0.3372
   21MOL0     N 2811   2.414   7.965  10.093 -0.5443  1.0282 -0.3691
   21MOL0     N 2812   2.522   7.923  10.039  0.0250 -0.1576 -0.3986
   21MOL0     C 2813   3.331   7.578   9.254 -1.3481  0.5176 -0.4855
   21MOL0     C 2814   3.327   7.566   9.118  0.2944  0.4492 -1.2733
   21MOL0     C 2815   3.112   7.591   8.703 -0.0183 -0.5930 -0.0328
   21MOL0     C 2816   3.218   7.540   8.626 -0.3980 -0.2799 -0.8358
   21MOL0     C 2817   3.232   7.571   8.494  0.0527 -0.8896 -0.0445
   21MOL0     C 2818   3.138   7.654   8.425 -0.3783  0.0995 -0.6784
   21MOL0     O 2819   3.148   7.709   8.297  0.3059  0.2217 -0.1021
   21MOL0     C 2820   3.259   7.667   8.222  0.3185  0.1537 -0.4520
   21MOL0     C 2821   3.394   7.749   8.233 -0.7729 -0.4122  0.7529
   21MOL0     C 2822   3.406   7.850   8.133  0.0327 -0.3560 -0.5593
   21MOL0     C 2823   3.292   7.946   8.146  0.8576 -0.7108  1.5126
   21MOL0     C 2824   3.334   8.079   8.100 -0.3532  0.1531 -0.2457
   21MOL0     C 2825   3.377   8.176   8.056  0.7759 -1.0310 -0.6543
   21MOL0     C 2826   3.030   7.693   8.500  0.4012  0.5329  0.3488
   21MOL0     C 2827   3.011   7.663   8.639  0.5183  0.0194  0.1848
   21MOL0     C 2828   2.882   7.709   8.706 -0.9887  0.3427 -0.8020
   21MOL0     H 2829   3.011   7.684   9.067  0.0307  2.4191  1.0760
   21MOL0     H 2830   3.002   7.668   9.310 -0.8431  2.1872 -0.4202
   21MOL0     H 2831   3.246   7.514   9.634 -2.2042  1.2267  1.0892
   21MOL0     H 2832   3.318   7.446   9.487  0.5707  0.1560 -0.2516
   21MOL0     H 2833   3.065   7.407   9.415 -1.5680  0.4304  0.3291
   21MOL0     H 2834   3.149   7.303   9.539 -0.1083  0.1632  2.2487
   21MOL0     H 2835   2.909   7.369   9.563  0.3122 -0.0088 -1.2489
   21MOL0     H 2836   2.993   7.396   9.707 -0.9161 -1.5089 -0.7641
   21MOL0     H 2837   3.010   7.645   9.607  1.6761 -0.8314 -1.0898
   21MOL0     H 2838   2.891   7.578   9.489 -1.0061 -1.9332  0.2188
   21MOL0     H 2839   2.851   7.587   9.798 -3.0944 -0.2026  0.2980
   21MOL0     H 2840   2.729   7.539   9.677 -0.0637 -0.9011  2.2289
   21MOL0     H 2841   2.847   7.816   9.677 -1.5333  2.8101 -1.4325
   21MOL0     H 2842   2.696   7.752   9.608  0.2104 -0.0147  0.6600
   21MOL0     H 2843   2.727   7.733   9.902  1.8184  2.6678 -0.2501
   21MOL0     H 2844   2.595   7.696   9.797 -0.1696  0.5696 -3.0351
   21MOL0     H 2845   2.712   7.976   9.858 -1.5375  0.6791  0.9607
   21MOL0     H 2846   2.607   7.941   9.714  2.3551 -0.3930 -1.4407
   21MOL0     H 2847   2.338   8.000   9.776 -0.5204  0.1128  0.4568
   21MOL0     H 2848   2.115   7.981  10.037  2.5040 -0.8179  1.8233
   21MOL0     H 2849   2.135   8.077   9.904 -4.5411  0.3581  2.1168
   21MOL0     H 2850   2.218   8.174  10.191  0.3606  0.4532  0.8908
   21MOL0     H 2851   2.258   8.259  10.043 -0.4121  0.6877  0.6228
   21MOL0     H 2852   1.978   8.195  10.148  1.9043 -1.7234  2.4200
   21MOL0     H 2853   2.074   8.343  10.186  0.4999 -2.9214  3.7586
   21MOL0     H 2854   1.976   8.456  10.034  2.7637 -0.0994  0.7804
   21MOL0     H 2855   2.087   8.369   9.936  1.5029 -4.2349  1.4381
   21MOL0     H 2856   1.671   8.254   9.818  0.2896  0.7486 -0.7097
   21MOL0     H 2857   1.506   8.370   9.540 -3.8911  0.9186  0.1429
   21MOL0     H 2858   1.425   8.438   9.675 -0.9109 -0.2309 -0.0602
   21MOL0     H 2859   1.474   8.265   9.674 -0.4457 -0.3674 -1.1169
   21MOL0     H 2860   1.910   8.859   9.371 -0.2100 -0.4108 -1.4226
   21MOL0     H 2861   1.895   9.029   9.214 -0.0616 -2.9755 -1.7567
   21MOL0     H 2862   1.826   9.268   9.149  0.0022  0.7065  0.6000
   21MOL0     H 2863   1.834   9.148   9.019  3.9576  4.0602  0.2172
   21MOL0     H 2864   1.799   9.350   8.905  0.4969  0.4190  2.8176
   21MOL0     H 2865   1.651   9.250   8.892 -2.8182 -0.3472  2.9549
   21MOL0     H 2866   1.723   9.509   9.037 -2.1306  2.8200 -0.8343
   21MOL0     H 2867   1.604   9.417   9.113  1.5152  0.8345  0.0990
   21MOL0     H 2868   1.503   9.456   8.854 -1.8752 -0.9058  1.9743
   21MOL0     H 2869   1.598   9.598   8.864 -2.0199  1.6564  0.3475
   21MOL0     H 2870   1.381   9.547   9.037 -1.3331  0.2076 -1.1819
   21MOL0     H 2871   1.523   9.655   9.086 -3.8805 -1.3427  3.3410
   21MOL0     H 2872   1.338   9.666   8.849  0.3794 -1.6745  1.2733
   21MOL0     H 2873   1.463   9.792   8.865  0.8773  0.6998  1.2818
   21MOL0     H 2874   1.357   9.870   9.105  0.6880 -1.8807  0.2366
   21MOL0     H 2875   1.232   9.762   9.066  0.5555 -0.1825  0.6186
   21MOL0     H 2876   1.293  10.003   8.897  1.0359  0.9095  0.4870
   21MOL0     H 2877   1.157   9.983   9.016  1.5234  1.0629  0.7099
   21MOL0     H 2878   1.473   9.022   9.238 -0.0361  0.7437  0.0184
   21MOL0     H 2879   1.484   8.815   9.384  2.7594 -2.3223  0.1881
   21MOL0     H 2880   1.866   8.676   9.670  2.6672  0.4786  2.8044
   21MOL0     H 2881   1.977   8.543   9.825  0.3586  1.9963 -2.6567
   21MOL0     H 2882   3.425   7.553   9.302  1.0863  1.6911 -4.1672
   21MOL0     H 2883   3.416   7.523   9.073  0.3939 -1.6064  0.7312
   21MOL0     H 2884   3.294   7.479   8.674 -2.3437 -1.2913  1.1849
   21MOL0     H 2885   3.321   7.546   8.437  0.7278  1.9186 -0.3695
   21MOL0     H 2886   3.285   7.561   8.231  0.6233  0.3411  1.0401
   21MOL0     H 2887   3.233   7.669   8.115 -2.3343  2.7513  0.1017
   21MOL0     H 2888   3.475   7.680   8.208 -1.1055 -0.8054  0.7477
   21MOL0     H 2889   3.401   7.785   8.336  1.6824 -0.4325  0.6394
   21MOL0     H 2890   3.504   7.895   8.149 -0.4338  0.1949  0.8770
   21MOL0     H 2891   3.409   7.818   8.028  3.4914 -0.3382 -0.5770
   21MOL0     H 2892   3.258   7.955   8.250 -0.1206 -1.5661  1.2807
   21MOL0     H 2893   3.204   7.908   8.094  0.7048 -0.9950  1.9750
   21MOL0     H 2894   3.426   8.267   8.028  1.5543 -1.8126 -1.9251
   21MOL0     H 2895   2.958   7.757   8.449 -0.0913  0.6862  1.2202
   21MOL0     H 2896   2.797   7.716   8.638 -1.7318  0.1603  0.0748
   21MOL0     H 2897   2.859   7.635   8.784 -0.2129  0.2040 -0.6991
   21MOL0     H 2898   2.911   7.797   8.764 -0.9562 -1.6385  2.4867
   22MOL0     O 2899  10.146   7.168   0.145 -0.0998  0.0195 -0.1939
   22MOL0     C 2900  10.264   7.195   0.135 -0.0021  0.6726  0.6998
   22MOL0     O 2901  10.315   7.327   0.142 -0.0793 -0.2802 -0.3709
   22MOL0     C 2902  10.219   7.406   0.198 -0.3681 -0.7188 -0.8945
   22MOL0     C 2903  10.135   7.486   0.115 -1.1165  0.8812 -0.9541
   22MOL0     C 2904  10.042   7.582   0.171  0.1706 -0.3470 -0.3357
   22MOL0     C 2905  10.015   7.574   0.313  0.5982  0.0036 -0.3088
   22MOL0     O 2906   9.932   7.675   0.361 -0.1282 -0.4640  0.1041
   22MOL0     C 2907   9.874   7.669   0.486 -0.2981  1.0414 -0.1983
   22MOL0     C 2908   9.749   7.754   0.501 -0.2400  0.2510  0.2664
   22MOL0     C 2909   9.633   7.708   0.409  0.5282  1.2442  0.4500
   22MOL0     C 2910   9.499   7.681   0.477 -0.4504  1.0971  0.4391
   22MOL0     C 2911   9.460   7.810   0.546 -0.5703  0.1930 -0.1682
   22MOL0     C 2912   9.322   7.816   0.590 -0.7376  0.8850 -0.3742
   22MOL0     C 2913   9.297   7.947   0.666  0.0273  0.4885 -1.3325
   22MOL0     C 2914   9.382   7.969   0.788 -0.3378 -1.0734  0.0360
   22MOL0     N 2915   9.356   7.869   0.893  0.5359 -0.3765  0.2487
   22MOL0     C 2916   9.300   7.884   1.021 -0.5531  0.8468 -0.6280
   22MOL0     C 2917   9.321   7.758   1.081 -0.4862 -1.4316 -0.4152
   22MOL0     C 2918   9.248   7.727   1.209  0.4790  0.0987  0.7836
   22MOL0     C 2919   9.336   7.774   1.324  0.3003  1.1210 -0.1508
   22MOL0     C 2920   9.277   7.718   1.459 -0.5943  0.1028 -0.4757
   22MOL0     C 2921   9.354   7.767   1.577  0.1088  0.5158  0.2248
   22MOL0     O 2922   9.278   7.758   1.701  0.5008  0.8475  0.0605
   22MOL0     C 2923   9.226   7.634   1.744 -0.2631  0.0390 -1.2253
   22MOL0     C 2924   9.296   7.516   1.706  0.7032 -0.1609  0.4802
   22MOL0     C 2925   9.243   7.388   1.720  0.5639  0.1441 -0.9630
   22MOL0     C 2926   9.341   7.276   1.704  0.2469  0.4996  0.5844
   22MOL0     C 2927   9.109   7.377   1.766 -0.2077 -0.2567 -0.8184
   22MOL0     C 2928   9.036   7.256   1.771 -0.2892 -1.0407 -0.5204
   22MOL0     O 2929   9.086   7.147   1.706 -0.8867 -0.2813  0.7140
   22MOL0     C 2930   9.062   7.025   1.751 -0.2731  1.3774  0.2505
   22MOL0     C 2931   9.124   6.976   1.867 -0.1864  0.0324  0.1165
   22MOL0     C 2932   9.080   6.859   1.920  0.3971 -0.2307 -0.1903
   22MOL0     C 2933   8.978   6.787   1.879 -0.2997  0.1596  0.3450
   22MOL0     O 2934   8.938   6.671   1.943  0.2391  0.0434 -0.0358
   22MOL0     C 2935   9.038   6.605   2.027 -0.1048  0.1834  0.3375
   22MOL0     C 2936   8.977   6.466   2.053  0.1289 -0.5706 -0.8481
   22MOL0     C 2937   9.045   6.392   2.169 -0.5931 -0.6726 -0.3901
   22MOL0     C 2938   9.167   6.313   2.124  0.5007  0.8521  0.4690
   22MOL0     C 2939   9.274   6.307   2.230  0.1630  0.7063 -0.6045
   22MOL0     C 2940   9.407   6.258   2.159 -0.0380 -0.6927  0.3346
   22MOL0     C 2941   9.489   6.375   2.100  0.5081  0.0551  0.0987
   22MOL0     C 2942   9.611   6.420   2.191 -0.1634 -0.4480  0.2185
   22MOL0    Cl 2943   9.552   6.504   2.339 -0.3103  0.2715 -0.5513
   22MOL0     C 2944   8.912   6.834   1.766 -0.4266 -0.7706  0.4557
   22MOL0     C 2945   8.954   6.959   1.704  0.5882  0.0077 -0.1386
   22MOL0     O 2946   8.954   7.255   1.859  0.5570  0.9505 -0.3882
   22MOL0     C 2947   9.045   7.495   1.815 -0.2411  0.1959  0.5195
   22MOL0     C 2948   9.101   7.622   1.803 -1.1739 -0.0192  0.4938
   22MOL0     N 2949   9.406   7.674   1.008 -0.7299 -1.0417 -0.8936
   22MOL0     N 2950   9.426   7.749   0.896 -0.0327 -0.6308 -0.5026
   22MOL0     C 2951  10.099   7.495   0.392  0.0602  0.2603 -0.3223
   22MOL0     C 2952  10.195   7.410   0.337 -0.2167  0.7222 -0.1950
   22MOL0     C 2953  10.353   7.076   0.135 -0.2530 -0.2041  1.0852
   22MOL0     C 2954  10.470   7.090   0.204 -0.2760 -0.2233  0.2053
   22MOL0     C 2955  10.571   6.992   0.209  0.2751 -0.4259  0.0040
   22MOL0     C 2956  10.557   6.880   0.124 -0.2213 -0.5903  0.6541
   22MOL0     O 2957  10.651   6.776   0.136 -0.4455 -0.7697  0.1275
   22MOL0     C 2958  10.691   6.710   0.020 -0.0491 -0.2040  0.4334
   22MOL0     C 2959  10.758   6.578   0.056 -0.2597 -0.1642  0.0963
   22MOL0     C 2960  10.903   6.592   0.104  0.4379  0.3337  0.1716
   22MOL0     C 2961  10.952   6.474   0.191 -0.1977 -0.5635 -0.5864
   22MOL0     C 2962  10.967   6.358   0.100  0.2757  0.7020 -0.9171
   22MOL0     C 2963  10.965   6.265   0.021 -0.5306 -0.9723  0.7783
   22MOL0     C 2964  10.444   6.864   0.049  1.3602 -0.3632 -0.4465
   22MOL0     C 2965  10.342   6.964   0.053  0.9689 -0.1561 -0.1347
   22MOL0     C 2966  10.219   6.942  -0.040 -0.3007 -0.5102  0.7472
   22MOL0     H 2967  10.160   7.479   0.010  2.3139 -1.7726 -0.1141
   22MOL0     H 2968   9.990   7.651   0.104 -2.2792 -0.4744  1.2839
   22MOL0     H 2969   9.950   7.706   0.555  2.4249  0.9300 -2.8878
   22MOL0     H 2970   9.842   7.568   0.511  1.0832  1.0195  1.6774
   22MOL0     H 2971   9.715   7.745   0.604  0.5046 -4.2750  0.3220
   22MOL0     H 2972   9.792   7.854   0.488 -2.0994  1.2787  1.5386
   22MOL0     H 2973   9.626   7.785   0.331 -1.4557 -0.9682 -1.7250
   22MOL0     H 2974   9.657   7.615   0.357 -0.4219  1.6708 -0.8096
   22MOL0     H 2975   9.425   7.668   0.398 -1.4913  1.0306  1.4014
   22MOL0     H 2976   9.496   7.599   0.549 -1.1408  0.1739 -0.6167
   22MOL0     H 2977   9.480   7.884   0.468 -0.9471 -0.5952 -1.0290
   22MOL0     H 2978   9.519   7.832   0.636  0.7103 -1.2483 -0.6163
   22MOL0     H 2979   9.266   7.824   0.496  0.3117  1.7859 -0.9405
   22MOL0     H 2980   9.291   7.729   0.649 -2.4068  0.1214 -2.2619
   22MOL0     H 2981   9.193   7.946   0.699  0.2107  1.1532 -0.7150
   22MOL0     H 2982   9.304   8.024   0.588 -2.1204  1.1404 -0.9467
   22MOL0     H 2983   9.491   7.966   0.777 -0.3836  0.3396 -1.0772
   22MOL0     H 2984   9.360   8.073   0.815 -2.3918 -1.4575 -0.0504
   22MOL0     H 2985   9.252   7.970   1.066 -1.1361 -1.3681  3.4823
   22MOL0     H 2986   9.229   7.619   1.219  0.2936  0.0278 -0.2377
   22MOL0     H 2987   9.156   7.782   1.228  1.8818  2.2774  1.5866
   22MOL0     H 2988   9.440   7.744   1.310 -0.1870 -0.9146  0.2429
   22MOL0     H 2989   9.331   7.883   1.330  1.9234  1.1843  0.6053
   22MOL0     H 2990   9.172   7.750   1.462 -0.2314  1.3654 -0.6401
   22MOL0     H 2991   9.275   7.609   1.454  3.4996 -0.1812  0.8409
   22MOL0     H 2992   9.448   7.713   1.596 -0.2187 -0.2104 -0.1680
   22MOL0     H 2993   9.381   7.872   1.568  1.7611  0.1609  0.6538
   22MOL0     H 2994   9.394   7.531   1.661 -0.0807  2.3825 -0.5530
   22MOL0     H 2995   9.444   7.311   1.692  0.2261  0.5017  0.4131
   22MOL0     H 2996   9.313   7.214   1.619 -2.2623  1.7433  0.4138
   22MOL0     H 2997   9.348   7.208   1.790 -0.1697 -1.5788 -0.9601
   22MOL0     H 2998   9.201   7.035   1.914  1.4334 -2.6351  1.0476
   22MOL0     H 2999   9.128   6.827   2.013 -1.3189  1.0326  1.2006
   22MOL0     H 3000   9.136   6.591   1.982  0.0997  1.1209  0.4732
   22MOL0     H 3001   9.049   6.660   2.121 -1.3389  0.2531  0.4589
   22MOL0     H 3002   8.871   6.476   2.078  0.3146 -1.6556  0.5178
   22MOL0     H 3003   8.969   6.405   1.963 -1.3568  0.4146 -1.4314
   22MOL0     H 3004   8.982   6.323   2.226  0.4095 -0.8031  0.5847
   22MOL0     H 3005   9.083   6.472   2.233 -2.0805  3.0462 -3.7018
   22MOL0     H 3006   9.204   6.348   2.028  0.3995 -2.3526 -0.8740
   22MOL0     H 3007   9.126   6.215   2.097 -1.7879  2.0274 -0.5482
   22MOL0     H 3008   9.286   6.400   2.286  4.5226 -1.2308  2.2225
   22MOL0     H 3009   9.223   6.237   2.298 -1.1963  1.1742 -1.1003
   22MOL0     H 3010   9.383   6.185   2.081 -0.7772  2.0356 -2.1773
   22MOL0     H 3011   9.477   6.220   2.234  1.2440  4.3446  2.1016
   22MOL0     H 3012   9.418   6.449   2.063  0.3818 -0.6743 -1.1753
   22MOL0     H 3013   9.524   6.349   1.999  0.6623 -0.9168  0.3912
   22MOL0     H 3014   9.680   6.477   2.129 -2.7169  1.2239 -1.2480
   22MOL0     H 3015   9.666   6.329   2.217  0.9942 -0.1377 -1.0487
   22MOL0     H 3016   8.823   6.789   1.722 -2.2112  3.8855 -1.2588
   22MOL0     H 3017   8.898   6.999   1.621 -1.0876 -0.7638  0.5701
   22MOL0     H 3018   8.946   7.489   1.860 -0.2045 -0.2959  0.5393
   22MOL0     H 3019   9.040   7.707   1.831  0.0814  0.7566  0.9655
   22MOL0     H 3020  10.072   7.489   0.498 -0.5563 -2.1641 -0.5533
   22MOL0     H 3021  10.267   7.355   0.397  1.2806 -0.0812 -2.5762
   22MOL0     H 3022  10.475   7.176   0.270 -2.7822  0.4175 -0.3375
   22MOL0     H 3023  10.649   7.001   0.284 -0.5252 -1.9027  1.0688
   22MOL0     H 3024  10.605   6.679  -0.040  1.2987 -2.8041 -0.3333
   22MOL0     H 3025  10.765   6.769  -0.036 -1.8864  2.7466  0.8933
   22MOL0     H 3026  10.750   6.515  -0.033 -2.8738 -1.2329  1.0003
   22MOL0     H 3027  10.708   6.527   0.139  2.3209 -1.3437  1.0275
   22MOL0     H 3028  10.964   6.591   0.013 -0.4874 -1.4313 -0.4809
   22MOL0     H 3029  10.921   6.684   0.159 -4.0619  2.2486 -1.1187
   22MOL0     H 3030  10.895   6.448   0.281  1.3584  0.1252  0.6558
   22MOL0     H 3031  11.053   6.500   0.227  0.8044 -0.1258 -3.4615
   22MOL0     H 3032  10.963   6.206  -0.069  1.4351  1.9810 -1.3787
   22MOL0     H 3033  10.424   6.774  -0.009 -3.3589 -0.3546  0.7689
   22MOL0     H 3034  10.203   6.836  -0.063  0.0516 -0.3234 -0.4262
   22MOL0     H 3035  10.116   6.966  -0.015 -1.3673 -0.6200 -2.9424
   22MOL0     H 3036  10.241   6.996  -0.132  1.1821 -0.4148  1.1251
   23MOL0     O 3037   5.881  11.323   7.479  0.0159 -0.7818 -0.1128
   23MOL0     C 3038   5.975  11.314   7.397  0.4285  0.0459 -0.2488
   23MOL0     O 3039   6.078  11.218   7.412  0.1159  0.1356  0.1594
   23MOL0     C 3040   6.069  11.105   7.488 -0.1207 -0.5948  0.6783
   23MOL0     C 3041   6.166  11.082   7.583  0.8231  0.9603 -0.4444
   23MOL0     C 3042   6.143  10.974   7.673 -0.0405  0.3898  0.1961
   23MOL0     C 3043   6.026  10.894   7.668  0.7137 -0.6225 -0.2767
   23MOL0     O 3044   6.017  10.789   7.751 -0.5652 -0.2709 -0.3844
   23MOL0     C 3045   5.914  10.692   7.714 -0.2162 -0.3580 -0.4924
   23MOL0     C 3046   5.928  10.583   7.818  1.8641 -0.9524 -0.5868
   23MOL0     C 3047   5.881  10.623   7.955  0.1550 -0.0958  0.4137
   23MOL0     C 3048   5.896  10.506   8.056 -0.9023 -1.1004  0.1328
   23MOL0     C 3049   5.865  10.555   8.198 -0.3772  1.2050  0.4083
   23MOL0     C 3050   5.906  10.454   8.311 -0.6342  0.1862  0.6146
   23MOL0     C 3051   5.926  10.528   8.443  0.2285  0.4986 -1.2068
   23MOL0     C 3052   5.935  10.431   8.557 -0.3610  0.6378  1.0152
   23MOL0     N 3053   5.949  10.489   8.684  0.5483 -0.1118 -0.3325
   23MOL0     C 3054   6.020  10.597   8.706 -0.3443 -1.0581 -1.0170
   23MOL0     C 3055   5.981  10.651   8.824 -1.0848  0.5752 -0.7752
   23MOL0     C 3056   6.052  10.766   8.898 -0.3952 -0.3423 -0.6872
   23MOL0     C 3057   6.184  10.719   8.972 -0.1776  0.8503  0.3712
   23MOL0     C 3058   6.292  10.690   8.866  0.7893  0.1685  0.0235
   23MOL0     C 3059   6.408  10.661   8.949  0.3880  0.2716  0.0210
   23MOL0     O 3060   6.518  10.610   8.865 -0.4359  0.2360  0.4685
   23MOL0     C 3061   6.576  10.696   8.771  0.4421  0.2340  0.3089
   23MOL0     C 3062   6.591  10.662   8.640  0.3937  1.1863  0.2982
   23MOL0     C 3063   6.658  10.743   8.543  0.1717 -0.3856  0.9550
   23MOL0     C 3064   6.654  10.689   8.397  0.1828 -0.3189  0.2814
   23MOL0     C 3065   6.726  10.854   8.584 -0.0370  0.1410  0.3103
   23MOL0     C 3066   6.809  10.937   8.491  1.0990  0.3482 -0.1171
   23MOL0     O 3067   6.773  10.950   8.360  0.2026  0.5394 -0.4365
   23MOL0     C 3068   6.812  11.063   8.296  0.2665 -0.6270 -0.6649
   23MOL0     C 3069   6.833  11.047   8.159  0.0948 -0.3259  0.4648
   23MOL0     C 3070   6.886  11.156   8.083 -0.5423  0.5103  0.3895
   23MOL0     C 3071   6.900  11.285   8.128  0.0431 -0.1145  0.6370
   23MOL0     O 3072   6.941  11.392   8.059 -0.2462 -0.0427  0.4406
   23MOL0     C 3073   7.065  11.389   7.988 -0.5104  0.6103  0.7068
   23MOL0     C 3074   7.037  11.475   7.855 -0.5453 -0.2406  0.3034
   23MOL0     C 3075   6.966  11.403   7.741  0.5300  0.0369 -0.0145
   23MOL0     C 3076   6.951  11.472   7.608 -0.3469 -0.4148  0.2023
   23MOL0     C 3077   6.847  11.419   7.503  0.0962 -0.3167 -0.8210
   23MOL0     C 3078   6.811  11.545   7.417 -0.3278  0.8488  0.3741
   23MOL0     C 3079   6.705  11.513   7.327  0.1826  0.6576  0.2033
   23MOL0     C 3080   6.664  11.634   7.234  0.9500  0.2228  0.0867
   23MOL0    Cl 3081   6.790  11.651   7.105 -0.4505  0.0122 -0.1345
   23MOL0     C 3082   6.865  11.305   8.263  0.6586 -0.3162  0.2741
   23MOL0     C 3083   6.822  11.196   8.344  0.3117  0.0034 -0.7880
   23MOL0     O 3084   6.908  10.989   8.536  0.6546 -0.5255 -0.0003
   23MOL0     C 3085   6.708  10.897   8.721 -0.5587  0.0908 -0.0250
   23MOL0     C 3086   6.639  10.815   8.805  0.7835  1.1099 -0.1265
   23MOL0     N 3087   5.887  10.562   8.872  0.7418 -0.1342 -0.1521
   23MOL0     N 3088   5.870  10.469   8.795 -0.3876  1.2465  0.4031
   23MOL0     C 3089   5.930  10.925   7.569 -0.2316  0.1822 -0.8893
   23MOL0     C 3090   5.952  11.026   7.476  0.1462 -0.8594  0.1314
   23MOL0     C 3091   5.992  11.418   7.290 -0.2502  0.7342 -1.2356
   23MOL0     C 3092   6.113  11.407   7.212 -0.5838 -0.5419  0.7049
   23MOL0     C 3093   6.148  11.508   7.118 -1.0520 -0.0787 -0.8858
   23MOL0     C 3094   6.057  11.612   7.101 -0.1344 -0.1108  0.0664
   23MOL0     O 3095   6.062  11.722   7.019 -0.2232  0.6010 -0.5036
   23MOL0     C 3096   6.172  11.742   6.941 -0.1998  0.7729  0.9096
   23MOL0     C 3097   6.139  11.832   6.827  1.0373  0.4015  0.1310
   23MOL0     C 3098   6.129  11.973   6.877 -1.4145  0.1142 -0.1085
   23MOL0     C 3099   6.040  12.055   6.786  0.1921 -0.1376  0.2583
   23MOL0     C 3100   6.098  12.058   6.648 -0.0785  0.4406  0.5153
   23MOL0     C 3101   6.163  12.044   6.542 -0.0665  0.4698  0.3450
   23MOL0     C 3102   5.933  11.601   7.161  0.0299 -0.7499 -0.6777
   23MOL0     C 3103   5.899  11.511   7.263 -0.1532  0.2860  0.5902
   23MOL0     C 3104   5.756  11.527   7.319  0.1362  0.0437  0.5964
   23MOL0     H 3105   6.254  11.146   7.587  0.0561  2.0323 -0.0527
   23MOL0     H 3106   6.208  10.961   7.759 -1.6675 -0.0806  1.3883
   23MOL0     H 3107   5.934  10.645   7.617 -5.6049 -0.5122 -1.8187
   23MOL0     H 3108   5.816  10.740   7.707  0.6484  1.3238 -2.0207
   23MOL0     H 3109   5.859  10.502   7.794  0.5792 -0.2903  0.7455
   23MOL0     H 3110   6.033  10.552   7.821  2.0155 -0.4164 -0.2364
   23MOL0     H 3111   5.950  10.707   7.967  0.3917  0.9104 -5.0842
   23MOL0     H 3112   5.777  10.657   7.951  0.1465 -0.2044 -1.3765
   23MOL0     H 3113   5.813  10.436   8.038  1.3049 -4.3519  1.5973
   23MOL0     H 3114   5.995  10.462   8.043 -1.2569 -1.8770 -0.0082
   23MOL0     H 3115   5.757  10.566   8.192 -0.1762  2.7307 -1.7020
   23MOL0     H 3116   5.918  10.651   8.209  0.3708  0.6591  1.8003
   23MOL0     H 3117   5.825  10.381   8.318 -2.9427  1.8995 -3.8319
   23MOL0     H 3118   5.989  10.400   8.264 -2.9273 -3.2348  0.0956
   23MOL0     H 3119   5.842  10.597   8.460  0.2116  0.8912 -2.7416
   23MOL0     H 3120   6.011  10.597   8.437  0.7897 -0.1459 -0.8305
   23MOL0     H 3121   5.850  10.364   8.552  0.2771 -0.2097  1.3224
   23MOL0     H 3122   6.023  10.369   8.536 -0.9460  0.2836 -0.5443
   23MOL0     H 3123   6.106  10.638   8.654  0.9494  1.3283  2.6247
   23MOL0     H 3124   5.992  10.805   8.981  1.4158  0.1799  0.4361
   23MOL0     H 3125   6.069  10.853   8.834 -1.7045  1.3559  1.1221
   23MOL0     H 3126   6.208  10.801   9.040 -1.3694  1.6754 -0.1774
   23MOL0     H 3127   6.164  10.630   9.033  2.6989 -0.6597 -0.6951
   23MOL0     H 3128   6.268  10.607   8.799  0.0017  0.5450 -0.1736
   23MOL0     H 3129   6.313  10.775   8.800 -4.8913 -0.7891 -3.6753
   23MOL0     H 3130   6.432  10.757   8.995 -0.0368 -0.1735  1.2222
   23MOL0     H 3131   6.400  10.580   9.022  2.8926 -0.2457 -0.1629
   23MOL0     H 3132   6.551  10.571   8.596 -0.7571  1.9200 -0.2530
   23MOL0     H 3133   6.558  10.716   8.353  0.0162 -1.2666  0.0333
   23MOL0     H 3134   6.659  10.579   8.392  0.7574 -0.2548 -0.9992
   23MOL0     H 3135   6.731  10.730   8.331 -0.4408 -2.8460 -2.2224
   23MOL0     H 3136   6.798  10.953   8.117  0.5845  0.1735 -1.1483
   23MOL0     H 3137   6.904  11.128   7.980  0.8378  0.5020  0.6126
   23MOL0     H 3138   7.139  11.444   8.047  1.6287  0.7042 -1.8338
   23MOL0     H 3139   7.106  11.293   7.954  0.9909  1.4633 -0.0208
   23MOL0     H 3140   6.981  11.563   7.889  0.5392  1.2078 -1.4679
   23MOL0     H 3141   7.135  11.509   7.820 -1.1799  0.3106 -1.0196
   23MOL0     H 3142   6.869  11.387   7.789  0.9699  3.3971  2.3407
   23MOL0     H 3143   7.017  11.307   7.722 -1.0224 -1.1942  1.6393
   23MOL0     H 3144   7.047  11.469   7.557  0.5876 -0.4033  1.9105
   23MOL0     H 3145   6.933  11.577   7.632 -1.5377 -0.2203 -1.3985
   23MOL0     H 3146   6.884  11.336   7.442 -0.7391 -2.2276  1.1531
   23MOL0     H 3147   6.765  11.371   7.557  2.6762 -0.5421  3.3152
   23MOL0     H 3148   6.901  11.569   7.360 -0.8690 -2.2806 -2.1046
   23MOL0     H 3149   6.784  11.624   7.487  0.9050  1.7993 -0.1921
   23MOL0     H 3150   6.615  11.474   7.374  0.1820 -3.1944 -2.5184
   23MOL0     H 3151   6.725  11.427   7.263  1.6724  0.8674  0.3622
   23MOL0     H 3152   6.645  11.726   7.289 -1.1744  0.2834 -0.6498
   23MOL0     H 3153   6.568  11.603   7.192  1.6138 -3.4709  0.9190
   23MOL0     H 3154   6.876  11.404   8.305  2.5407 -0.8832  1.2632
   23MOL0     H 3155   6.802  11.215   8.449  1.0584 -1.0366 -0.4426
   23MOL0     H 3156   6.755  10.989   8.753 -0.4478  0.9777 -2.4977
   23MOL0     H 3157   6.620  10.839   8.909  2.0667  1.5896  0.0089
   23MOL0     H 3158   5.833  10.876   7.575 -0.7083  1.2851  1.6068
   23MOL0     H 3159   5.859  11.045   7.424 -0.5391 -2.4953  0.6999
   23MOL0     H 3160   6.181  11.330   7.246 -2.3316 -1.3747  2.5339
   23MOL0     H 3161   6.246  11.509   7.071 -0.3708 -3.0643  0.2635
   23MOL0     H 3162   6.243  11.788   7.010  0.7091  1.9559 -0.7378
   23MOL0     H 3163   6.212  11.642   6.919  0.4008  1.1979 -0.0286
   23MOL0     H 3164   6.052  11.788   6.776 -0.3296  3.4530 -0.4142
   23MOL0     H 3165   6.227  11.824   6.763  0.1809  0.1540 -1.0569
   23MOL0     H 3166   6.085  11.975   6.977  0.8630  0.7058  0.9434
   23MOL0     H 3167   6.231  12.009   6.891 -0.5190 -2.2050 -0.3487
   23MOL0     H 3168   6.034  12.161   6.811 -0.2431  0.1450 -0.9715
   23MOL0     H 3169   5.939  12.016   6.794  0.0027  0.5808  1.7572
   23MOL0     H 3170   6.224  12.030   6.455 -2.3265 -1.0153 -1.0966
   23MOL0     H 3171   5.860  11.678   7.138  0.9559 -0.3614 -2.5348
   23MOL0     H 3172   5.747  11.596   7.403  2.3212  1.1507  0.0052
   23MOL0     H 3173   5.688  11.560   7.239 -1.7798  0.6622  2.3879
   23MOL0     H 3174   5.718  11.427   7.344 -0.3531  0.1386  0.2566
   24MOL0     O 3175   8.894   4.788   9.788 -0.4151 -0.0343 -0.5464
   24MOL0     C 3176   9.002   4.772   9.734 -0.7208  1.8416 -0.4564
   24MOL0     O 3177   9.102   4.858   9.744  0.5422 -0.4092  0.0395
   24MOL0     C 3178   9.091   4.972   9.810  0.2611 -0.7056  0.1559
   24MOL0     C 3179   9.174   5.072   9.763  0.1446  0.6832  0.7126
   24MOL0     C 3180   9.178   5.192   9.820  0.2279  0.0461 -0.1740
   24MOL0     C 3181   9.101   5.225   9.939 -0.3656 -0.0289 -0.5902
   24MOL0     O 3182   9.129   5.346   9.999  0.0766 -0.3809 -0.0088
   24MOL0     C 3183   9.016   5.417  10.053  0.7211  0.7346  0.1282
   24MOL0     C 3184   9.079   5.494  10.172  0.0440 -0.0393 -1.3364
   24MOL0     C 3185   8.988   5.598  10.228  0.2188 -0.5918 -0.7331
   24MOL0     C 3186   9.082   5.700  10.305 -0.5923  0.4122 -0.3658
   24MOL0     C 3187   9.015   5.810  10.374  0.3742  0.6188 -0.2238
   24MOL0     C 3188   8.956   5.917  10.282 -0.3256 -0.0137 -0.1693
   24MOL0     C 3189   8.914   6.041  10.351  0.4111 -0.8609 -0.5907
   24MOL0     C 3190   8.788   6.102  10.292  0.0507 -0.3703  0.3446
   24MOL0     N 3191   8.679   6.128  10.383  0.4088  0.9199  0.4185
   24MOL0     C 3192   8.618   6.244  10.404  0.4712 -1.3934 -0.7782
   24MOL0     C 3193   8.532   6.222  10.509  0.0470 -0.5479  0.0487
   24MOL0     C 3194   8.449   6.326  10.582  0.2620 -0.1805  0.1069
   24MOL0     C 3195   8.528   6.424  10.667 -0.5983 -0.0111  0.3600
   24MOL0     C 3196   8.563   6.356  10.802  0.8175 -1.4054  0.2974
   24MOL0     C 3197   8.638   6.455  10.896  0.1575  0.3045  0.8240
   24MOL0     O 3198   8.553   6.572  10.918  0.0792  0.4856 -0.3521
   24MOL0     C 3199   8.600   6.699  10.915  0.1392 -0.0061  0.2463
   24MOL0     C 3200   8.733   6.727  10.891 -0.0416 -0.4339 -0.5644
   24MOL0     C 3201   8.769   6.866  10.902  0.2656  0.4979  0.6794
   24MOL0     C 3202   8.918   6.892  10.885  0.5653  0.1022  0.0431
   24MOL0     C 3203   8.671   6.972  10.932 -0.0881  0.1899 -0.5324
   24MOL0     C 3204   8.713   7.114  10.957  0.6322  0.3516 -0.7230
   24MOL0     O 3205   8.625   7.216  10.924  0.3764 -0.2921 -0.3136
   24MOL0     C 3206   8.665   7.344  10.916 -0.5915  0.0371  0.9696
   24MOL0     C 3207   8.579   7.436  10.963  0.3568  0.2538 -0.2388
   24MOL0     C 3208   8.598   7.574  10.963 -0.3359 -0.9900 -1.1102
   24MOL0     C 3209   8.707   7.626  10.890  0.4645 -0.4578 -0.0081
   24MOL0     O 3210   8.725   7.763  10.873  0.0299 -0.2306  0.0624
   24MOL0     C 3211   8.860   7.811  10.862 -0.4269 -0.5584  0.6340
   24MOL0     C 3212   8.877   7.969  10.883 -0.4607 -0.4860  0.3075
   24MOL0     C 3213   9.022   8.007  10.877 -0.4521  0.1078 -0.5464
   24MOL0     C 3214   9.055   8.142  10.806  0.3167 -0.3175  0.0462
   24MOL0     C 3215   9.201   8.149  10.788  0.4356 -0.0420  0.2933
   24MOL0     C 3216   9.291   8.176  10.904  0.1154  0.2622 -0.6437
   24MOL0     C 3217   9.267   8.326  10.952  0.4119  0.4415  0.0346
   24MOL0     C 3218   9.310   8.436  10.849  0.0296  0.0141  0.4472
   24MOL0    Cl 3219   9.485   8.449  10.831  0.0237 -0.1643  0.4756
   24MOL0     C 3220   8.791   7.530  10.824  0.1369  0.1397  1.0583
   24MOL0     C 3221   8.774   7.391  10.836  0.3009  0.5407 -0.0025
   24MOL0     O 3222   8.818   7.132  11.020 -0.3445  0.6345 -0.1575
   24MOL0     C 3223   8.543   6.932  10.950  0.8290  1.3301 -0.2622
   24MOL0     C 3224   8.509   6.794  10.944 -0.3629 -0.1370  0.0666
   24MOL0     N 3225   8.532   6.085  10.534  0.1867 -0.8690 -0.1073
   24MOL0     N 3226   8.616   6.029  10.451  0.2538  0.1990 -0.4578
   24MOL0     C 3227   9.015   5.125   9.987  0.3183  0.4765 -0.3102
   24MOL0     C 3228   9.018   4.997   9.927 -0.2665 -0.9436  0.2459
   24MOL0     C 3229   9.033   4.649   9.644  0.0828  0.1645  0.6781
   24MOL0     C 3230   9.150   4.657   9.559 -0.5350  0.0171  0.3413
   24MOL0     C 3231   9.197   4.535   9.499  0.3196  0.9857  0.4529
   24MOL0     C 3232   9.126   4.416   9.512  0.1172  0.5813  0.1532
   24MOL0     O 3233   9.151   4.299   9.447 -0.6720  0.1763  0.2955
   24MOL0     C 3234   9.255   4.290   9.351  0.0472 -0.4947  1.2512
   24MOL0     C 3235   9.219   4.186   9.242  0.3568  0.8030 -0.2854
   24MOL0     C 3236   9.245   4.042   9.314  0.2819  0.4738 -0.2103
   24MOL0     C 3237   9.247   3.935   9.206 -0.4257 -1.4738 -0.2421
   24MOL0     C 3238   9.372   3.921   9.143  0.2403  0.4762 -0.6410
   24MOL0     C 3239   9.477   3.901   9.087 -0.0080 -0.3250  0.3814
   24MOL0     C 3240   9.011   4.412   9.584  0.6556 -0.7406  0.8539
   24MOL0     C 3241   8.958   4.523   9.649  0.5417  0.0515 -0.6836
   24MOL0     C 3242   8.831   4.516   9.728 -0.2061 -0.6431 -0.6710
   24MOL0     H 3243   9.222   5.046   9.669 -3.4323 -1.1537 -0.8219
   24MOL0     H 3244   9.242   5.262   9.768  0.5155 -1.0234 -1.3056
   24MOL0     H 3245   8.935   5.351  10.086  4.4657 -2.4209  4.2601
   24MOL0     H 3246   8.961   5.479   9.981  1.6489  1.5664  0.0963
   24MOL0     H 3247   9.120   5.422  10.242  2.8160  0.7434 -2.0129
   24MOL0     H 3248   9.167   5.547  10.134  0.2981  0.3493 -0.2432
   24MOL0     H 3249   8.932   5.652  10.151 -1.2878  0.1901  0.8179
   24MOL0     H 3250   8.914   5.548  10.292  0.7898 -1.7756 -0.9617
   24MOL0     H 3251   9.132   5.642  10.383 -0.0325 -2.1160 -2.4628
   24MOL0     H 3252   9.154   5.744  10.235  0.1029 -2.7888 -1.9080
   24MOL0     H 3253   9.089   5.850  10.444  1.2800 -1.9628  0.3839
   24MOL0     H 3254   8.943   5.764  10.442 -0.1847  0.0602 -1.1674
   24MOL0     H 3255   9.030   5.941  10.206 -2.2915 -0.9009 -2.4856
   24MOL0     H 3256   8.870   5.869  10.234 -0.2253  1.4211 -1.8507
   24MOL0     H 3257   8.996   6.113  10.358 -0.5571  0.3032 -0.9120
   24MOL0     H 3258   8.884   6.029  10.456 -3.1359 -1.4350 -1.5327
   24MOL0     H 3259   8.819   6.203  10.266 -1.3430  0.2673  1.0682
   24MOL0     H 3260   8.755   6.046  10.204  0.0890 -0.9030  0.6603
   24MOL0     H 3261   8.637   6.337  10.350  1.9292 -1.9121 -1.2001
   24MOL0     H 3262   8.369   6.274  10.634 -0.3871 -0.9749 -1.6050
   24MOL0     H 3263   8.420   6.390  10.498  8.1553  3.4240 -0.7936
   24MOL0     H 3264   8.621   6.444  10.614 -0.6219 -2.8798 -0.9629
   24MOL0     H 3265   8.461   6.510  10.677 -0.6656  0.1462 -1.1641
   24MOL0     H 3266   8.471   6.323  10.852 -0.3248  1.6259  0.4017
   24MOL0     H 3267   8.638   6.278  10.786  3.1019  1.0391 -1.9797
   24MOL0     H 3268   8.663   6.409  10.992  1.0882 -1.4812 -0.2183
   24MOL0     H 3269   8.733   6.481  10.848  0.5799  2.4226  2.6335
   24MOL0     H 3270   8.810   6.658  10.859 -0.6788 -1.6351  0.3772
   24MOL0     H 3271   8.953   6.990  10.920  0.7835  0.2914 -0.6925
   24MOL0     H 3272   8.948   6.878  10.781  2.7957 -1.7581  0.8438
   24MOL0     H 3273   8.968   6.821  10.951 -0.6386 -1.7431 -0.9331
   24MOL0     H 3274   8.487   7.398  11.007  0.4758 -3.0473 -2.4666
   24MOL0     H 3275   8.536   7.639  11.024 -0.0176 -1.9735  0.3047
   24MOL0     H 3276   8.915   7.750  10.934 -3.5838 -1.4591  2.4633
   24MOL0     H 3277   8.901   7.784  10.764 -0.3465  1.6990  0.0035
   24MOL0     H 3278   8.814   8.029  10.817  1.6474  0.7125 -0.7483
   24MOL0     H 3279   8.840   7.975  10.986 -1.0776 -1.6485  0.1723
   24MOL0     H 3280   9.066   7.923  10.822 -1.1298 -1.3816  1.0761
   24MOL0     H 3281   9.059   8.011  10.980 -1.7393 -1.1951 -0.0017
   24MOL0     H 3282   9.015   8.225  10.866 -0.2870  0.1430 -0.9641
   24MOL0     H 3283   9.004   8.151  10.710 -0.1133 -3.0054 -0.0420
   24MOL0     H 3284   9.238   8.055  10.746  1.9832 -0.9241  3.3172
   24MOL0     H 3285   9.218   8.230  10.717 -0.2565  1.0386  1.3189
   24MOL0     H 3286   9.399   8.173  10.890  0.2141 -0.3923  0.2061
   24MOL0     H 3287   9.262   8.105  10.982 -0.9550  0.8945 -0.4349
   24MOL0     H 3288   9.310   8.344  11.052  1.1951  2.4466 -0.6107
   24MOL0     H 3289   9.161   8.325  10.978  0.5190  0.7902  0.5002
   24MOL0     H 3290   9.272   8.528  10.893 -1.8701  0.0616 -1.1501
   24MOL0     H 3291   9.259   8.425  10.753 -2.5160  1.0247  1.6091
   24MOL0     H 3292   8.872   7.571  10.764 -0.1472 -0.5738  0.1675
   24MOL0     H 3293   8.841   7.323  10.783 -1.5647 -0.7467 -0.8102
   24MOL0     H 3294   8.461   7.002  10.943 -0.5139  0.1419  2.2989
   24MOL0     H 3295   8.402   6.781  10.963  0.0920  0.3101  3.7062
   24MOL0     H 3296   8.959   5.131  10.079 -0.2776 -2.0142 -0.4375
   24MOL0     H 3297   8.964   4.921   9.984  1.5137 -0.3858  2.8600
   24MOL0     H 3298   9.202   4.752   9.556 -1.7342  0.6998  0.6024
   24MOL0     H 3299   9.280   4.550   9.432 -0.1795 -3.1201 -1.3178
   24MOL0     H 3300   9.261   4.386   9.300 -4.2511 -1.0905 -0.7681
   24MOL0     H 3301   9.348   4.268   9.405  2.6535 -0.7159 -2.9272
   24MOL0     H 3302   9.285   4.187   9.155 -0.6630 -0.5222 -1.0954
   24MOL0     H 3303   9.117   4.195   9.202 -0.4736  0.1775  1.5654
   24MOL0     H 3304   9.344   4.033   9.359 -0.4543  0.1072  1.3878
   24MOL0     H 3305   9.164   4.011   9.381 -0.4670 -1.1049 -1.7687
   24MOL0     H 3306   9.166   3.955   9.136  0.0278 -2.9931 -1.2350
   24MOL0     H 3307   9.216   3.838   9.246 -0.3286 -2.3203 -2.1391
   24MOL0     H 3308   9.574   3.900   9.041 -1.2074 -2.7019 -2.4800
   24MOL0     H 3309   8.950   4.322   9.581  2.1806 -1.8393 -2.4837
   24MOL0     H 3310   8.854   4.524   9.834  1.0607  1.8004 -1.0676
   24MOL0     H 3311   8.770   4.600   9.693  0.8590  1.2345  1.7400
   24MOL0     H 3312   8.785   4.419   9.707  1.2071 -2.0700  2.3238
   25MOL0     O 3313   9.865   7.367   4.083 -0.2163 -0.1584 -0.9656
   25MOL0     C 3314   9.858   7.387   3.961 -0.4795  0.3376 -0.0205
   25MOL0     O 3315   9.932   7.473   3.880 -0.5802 -0.0400 -0.9536
   25MOL0     C 3316  10.042   7.535   3.930 -0.7420 -0.6179 -0.3573
   25MOL0     C 3317  10.131   7.492   4.030  0.1690  0.3216  0.4426
   25MOL0     C 3318  10.245   7.564   4.045 -0.7311  0.3654 -0.6062
   25MOL0     C 3319  10.281   7.672   3.965 -0.3282  0.4892  0.3346
   25MOL0     O 3320  10.408   7.731   3.977  0.3273 -0.2800 -0.0332
   25MOL0     C 3321  10.450   7.777   4.107 -0.2438  0.2550  0.1814
   25MOL0     C 3322  10.590   7.729   4.140 -0.3732 -0.6365  0.0235
   25MOL0     C 3323  10.694   7.815   4.061  0.4484  0.5519 -1.0392
   25MOL0     C 3324  10.771   7.936   4.133 -0.2083  0.3064 -0.0996
   25MOL0     C 3325  10.896   7.982   4.050  0.1831  0.2903  0.2530
   25MOL0     C 3326  10.972   8.091   4.123 -0.2001 -0.5344  0.1612
   25MOL0     C 3327  11.122   8.082   4.123 -0.5438  0.0204 -0.3724
   25MOL0     C 3328  11.187   8.131   3.987  0.2282  0.0081 -0.7888
   25MOL0     N 3329  11.333   8.139   3.988 -0.4105  0.1579 -0.4018
   25MOL0     C 3330  11.405   8.230   4.058 -0.3488 -0.0884  0.7167
   25MOL0     C 3331  11.532   8.174   4.059  0.0363 -0.4809  0.3815
   25MOL0     C 3332  11.642   8.233   4.149 -0.2067  0.0096 -0.1967
   25MOL0     C 3333  11.750   8.306   4.069  0.1612 -1.3802  0.3481
   25MOL0     C 3334  11.791   8.220   3.947 -0.7897 -0.6649  1.0283
   25MOL0     C 3335  11.891   8.296   3.861 -0.4136  0.0808  0.6643
   25MOL0     O 3336  11.836   8.415   3.802  0.5321 -0.1260  0.6426
   25MOL0     C 3337  11.919   8.510   3.746 -0.2140  0.3952  0.6575
   25MOL0     C 3338  11.871   8.627   3.695  0.0366  0.3472 -0.6786
   25MOL0     C 3339  11.965   8.726   3.651  0.2940 -0.0982 -0.1307
   25MOL0     C 3340  11.905   8.857   3.617 -0.3933 -0.5647  1.1728
   25MOL0     C 3341  12.101   8.701   3.629 -0.2412 -0.5657 -0.2806
   25MOL0     C 3342  12.199   8.798   3.564 -0.2527 -0.4765 -0.4680
   25MOL0     O 3343  12.153   8.890   3.481 -0.0354  0.1674 -0.6944
   25MOL0     C 3344  12.246   8.953   3.402 -1.0833  0.5874  0.3596
   25MOL0     C 3345  12.254   8.925   3.265 -0.5035 -0.1311  0.5455
   25MOL0     C 3346  12.355   8.983   3.190 -0.2074  0.7305  0.0882
   25MOL0     C 3347  12.449   9.079   3.241 -0.3648 -1.4841 -0.2104
   25MOL0     O 3348  12.545   9.148   3.178 -0.0789  0.1882  0.3448
   25MOL0     C 3349  12.614   9.075   3.079  0.1370  1.0356 -0.0990
   25MOL0     C 3350  12.641   9.170   2.964  0.0974  0.1528  1.3278
   25MOL0     C 3351  12.514   9.234   2.897  0.9932  0.4218  0.4579
   25MOL0     C 3352  12.550   9.306   2.766 -0.5122  0.4291  0.3227
   25MOL0     C 3353  12.426   9.361   2.685  0.6006 -0.7316  0.7903
   25MOL0     C 3354  12.363   9.482   2.748  0.2109  0.4015 -0.5222
   25MOL0     C 3355  12.274   9.541   2.640 -0.5164 -0.1911 -0.5677
   25MOL0     C 3356  12.226   9.675   2.693  0.4974  0.3942  0.0243
   25MOL0    Cl 3357  12.120   9.738   2.564 -0.2946 -0.0035  0.0004
   25MOL0     C 3358  12.434   9.113   3.377 -0.0859 -0.2138  0.0716
   25MOL0     C 3359  12.331   9.048   3.453 -0.0815  0.0342 -0.9055
   25MOL0     O 3360  12.318   8.785   3.607  0.1496  0.5312  0.2355
   25MOL0     C 3361  12.150   8.578   3.680  0.0021  0.1911  0.2491
   25MOL0     C 3362  12.057   8.487   3.742 -0.0568 -0.9116 -0.6565
   25MOL0     N 3363  11.538   8.055   3.992  0.3571 -0.7314  0.1292
   25MOL0     N 3364  11.421   8.036   3.947 -0.0198 -0.3898 -0.1493
   25MOL0     C 3365  10.195   7.720   3.869 -1.0041  0.6870  0.1631
   25MOL0     C 3366  10.075   7.650   3.854  0.7317  0.5527 -0.5284
   25MOL0     C 3367   9.738   7.338   3.896 -0.0411 -0.1143  0.2961
   25MOL0     C 3368   9.669   7.412   3.794 -1.0194  0.4513  0.1222
   25MOL0     C 3369   9.543   7.380   3.748  0.3503 -0.0615 -0.7358
   25MOL0     C 3370   9.476   7.260   3.794  0.3591  0.4860 -0.6485
   25MOL0     O 3371   9.351   7.240   3.733  0.0999  0.3414 -0.3853
   25MOL0     C 3372   9.291   7.114   3.736  0.3773 -0.1611 -0.6992
   25MOL0     C 3373   9.314   7.037   3.613  0.0159 -0.2719  0.2154
   25MOL0     C 3374   9.463   6.997   3.594  0.6863 -0.9443 -0.0412
   25MOL0     C 3375   9.476   6.906   3.465  0.6675 -0.2424  0.3159
   25MOL0     C 3376   9.614   6.864   3.463  0.2667 -0.5891  0.0140
   25MOL0     C 3377   9.731   6.839   3.454 -0.6900 -0.3457  0.2570
   25MOL0     C 3378   9.554   7.171   3.875 -0.2657 -0.0420  0.3530
   25MOL0     C 3379   9.674   7.213   3.929 -0.3352 -0.2938 -2.0099
   25MOL0     C 3380   9.746   7.105   4.005  0.5074 -0.0848 -0.4570
   25MOL0     H 3381  10.126   7.402   4.090  0.0244 -0.6432 -0.9661
   25MOL0     H 3382  10.320   7.524   4.113  0.1813 -0.4355 -2.0115
   25MOL0     H 3383  10.382   7.738   4.183  1.2062 -0.2016  1.2803
   25MOL0     H 3384  10.455   7.887   4.105 -0.5452  0.3145  1.4883
   25MOL0     H 3385  10.603   7.750   4.247 -0.8600  1.3755 -0.2682
   25MOL0     H 3386  10.607   7.623   4.120  1.9204 -0.2585 -0.2932
   25MOL0     H 3387  10.772   7.739   4.052  1.5422  1.4265  0.5176
   25MOL0     H 3388  10.668   7.848   3.960  0.8757  1.7227 -0.7799
   25MOL0     H 3389  10.708   8.025   4.147  0.5916  0.8111  0.4294
   25MOL0     H 3390  10.802   7.901   4.232 -0.2175  1.1876  0.2275
   25MOL0     H 3391  10.870   8.010   3.947  0.4321  0.1422  0.1487
   25MOL0     H 3392  10.970   7.903   4.037  0.6142  0.7065  0.1436
   25MOL0     H 3393  10.938   8.187   4.084  0.0903  0.4089  2.1495
   25MOL0     H 3394  10.950   8.098   4.230  1.0556 -1.5025  0.5107
   25MOL0     H 3395  11.176   7.988   4.138  1.5290  1.5638  2.8500
   25MOL0     H 3396  11.174   8.139   4.201 -1.4317  0.4528 -0.0863
   25MOL0     H 3397  11.153   8.070   3.904 -3.3758  0.5082  0.1404
   25MOL0     H 3398  11.146   8.233   3.990  1.0426  0.3776  2.4529
   25MOL0     H 3399  11.379   8.315   4.121  0.2836  1.5814 -1.1545
   25MOL0     H 3400  11.689   8.157   4.212  0.5550  1.1089  0.6000
   25MOL0     H 3401  11.598   8.306   4.217  1.7552 -2.9610  4.7577
   25MOL0     H 3402  11.697   8.395   4.035  1.4146  0.7969  3.5918
   25MOL0     H 3403  11.825   8.334   4.143 -0.9494 -0.7771  1.2713
   25MOL0     H 3404  11.834   8.126   3.981  0.8249  0.2876  1.6921
   25MOL0     H 3405  11.709   8.197   3.878 -0.3449  0.6664  0.0150
   25MOL0     H 3406  11.970   8.338   3.924 -1.1272  4.2097 -0.8700
   25MOL0     H 3407  11.928   8.235   3.778  0.3221  2.3029 -0.7380
   25MOL0     H 3408  11.766   8.655   3.693  0.0470  1.1650  2.8461
   25MOL0     H 3409  11.800   8.884   3.635 -0.8546  0.2136 -2.0385
   25MOL0     H 3410  11.923   8.872   3.510  0.4700 -0.4978  1.3202
   25MOL0     H 3411  11.967   8.935   3.663 -0.3200  1.1474 -1.5755
   25MOL0     H 3412  12.196   8.844   3.222 -0.0226 -0.1075 -0.1617
   25MOL0     H 3413  12.369   8.950   3.087  0.9306  0.8213  0.1993
   25MOL0     H 3414  12.700   9.023   3.121 -1.5332 -0.4640  1.5974
   25MOL0     H 3415  12.555   8.994   3.036 -0.4161  0.6929  1.2625
   25MOL0     H 3416  12.712   9.248   2.994  1.4228  0.0031 -1.1674
   25MOL0     H 3417  12.694   9.126   2.880 -2.0173 -4.5034  2.1323
   25MOL0     H 3418  12.460   9.304   2.962  0.3191  0.5447 -0.2228
   25MOL0     H 3419  12.437   9.158   2.879  1.0547  0.5223 -0.2682
   25MOL0     H 3420  12.606   9.234   2.706  0.0964 -2.0679  3.5888
   25MOL0     H 3421  12.620   9.387   2.787  0.8065 -0.7664  0.6641
   25MOL0     H 3422  12.460   9.390   2.585  0.6004 -3.7738 -0.1699
   25MOL0     H 3423  12.356   9.277   2.684  0.1071 -0.3344 -0.6455
   25MOL0     H 3424  12.437   9.560   2.769  2.4679 -1.3673 -1.4796
   25MOL0     H 3425  12.304   9.451   2.835 -1.7112  0.5625 -1.7017
   25MOL0     H 3426  12.195   9.473   2.604  1.4408 -2.9234 -0.0500
   25MOL0     H 3427  12.331   9.562   2.549  0.5154  5.6454  1.0263
   25MOL0     H 3428  12.313   9.739   2.710  0.3658  0.5791 -0.0036
   25MOL0     H 3429  12.163   9.668   2.781  0.5211 -1.0866 -0.0353
   25MOL0     H 3430  12.501   9.191   3.413  1.3668 -1.0085 -0.7763
   25MOL0     H 3431  12.315   9.082   3.555 -0.0167  2.7922 -1.7355
   25MOL0     H 3432  12.256   8.558   3.665  0.1450  2.6250 -3.0384
   25MOL0     H 3433  12.109   8.406   3.793  0.3940  0.3234  0.9168
   25MOL0     H 3434  10.215   7.814   3.818 -2.0016 -1.7696 -5.5455
   25MOL0     H 3435  10.000   7.691   3.787 -0.1832  0.5937  0.4777
   25MOL0     H 3436   9.701   7.509   3.759 -0.1381  0.4366  0.8444
   25MOL0     H 3437   9.515   7.448   3.668  1.4186  0.3748 -0.7554
   25MOL0     H 3438   9.317   7.048   3.819  2.1135 -0.0748 -1.1405
   25MOL0     H 3439   9.182   7.118   3.741  0.4625  1.8494  2.0519
   25MOL0     H 3440   9.267   7.099   3.536 -1.0555 -2.3911 -0.9225
   25MOL0     H 3441   9.252   6.948   3.599  0.8193 -0.5021 -2.5041
   25MOL0     H 3442   9.519   7.089   3.573  3.3765 -1.7574  2.7520
   25MOL0     H 3443   9.505   6.956   3.686 -2.9605 -1.8034  1.4111
   25MOL0     H 3444   9.445   6.956   3.373 -1.1440 -0.7738  0.5920
   25MOL0     H 3445   9.401   6.826   3.468  0.8998 -0.6623 -2.5942
   25MOL0     H 3446   9.835   6.818   3.438 -1.2129 -0.9774 -3.2215
   25MOL0     H 3447   9.522   7.069   3.893 -0.1689 -0.1742 -0.2123
   25MOL0     H 3448   9.852   7.130   4.010  0.2639  0.7275  2.5014
   25MOL0     H 3449   9.708   7.103   4.107  0.3724 -1.7961 -0.5035
   25MOL0     H 3450   9.730   7.003   3.968 -0.6523 -0.1441  0.1645
   26MOL0     O 3451   0.936  11.061   2.995 -0.5973  0.4516 -0.6537
   26MOL0     C 3452   0.993  11.106   2.898 -0.1993  0.3018  0.6655
   26MOL0     O 3453   0.940  11.111   2.775 -0.0298 -0.4516  0.1882
   26MOL0     C 3454   0.800  11.085   2.771  0.2582  0.3776  0.1334
   26MOL0     C 3455   0.708  11.191   2.758  0.0488  0.1665  0.6621
   26MOL0     C 3456   0.572  11.168   2.750  0.3368  0.0330  1.1605
   26MOL0     C 3457   0.529  11.037   2.731 -0.9355 -0.9393 -0.1624
   26MOL0     O 3458   0.399  11.008   2.729  0.6759 -0.0907 -0.6399
   26MOL0     C 3459   0.330  11.022   2.860 -0.4485  0.1361  0.1772
   26MOL0     C 3460   0.252  11.155   2.870 -0.3748 -0.2513 -0.7828
   26MOL0     C 3461   0.151  11.153   2.995  0.4096 -0.8210 -0.5169
   26MOL0     C 3462   0.102  11.301   3.029  0.1246 -0.3078  0.7075
   26MOL0     C 3463  -0.009  11.305   3.126 -0.2417  0.1995 -0.1545
   26MOL0     C 3464   0.038  11.254   3.266 -0.6920 -0.1551 -0.2166
   26MOL0     C 3465  -0.049  11.277   3.383 -0.2265 -0.3410  0.8763
   26MOL0     C 3466  -0.031  11.183   3.512  0.0637  0.0334 -0.5927
   26MOL0     N 3467   0.106  11.198   3.567  0.5782  0.5184 -0.1395
   26MOL0     C 3468   0.175  11.088   3.590  0.0429  0.0683 -0.0300
   26MOL0     C 3469   0.289  11.141   3.645  0.1493  0.7094 -0.7453
   26MOL0     C 3470   0.404  11.071   3.723  0.1960 -0.1046 -0.2394
   26MOL0     C 3471   0.374  11.051   3.869 -0.5987  0.5651  0.6929
   26MOL0     C 3472   0.404  11.174   3.958  0.2332 -0.0387 -0.3163
   26MOL0     C 3473   0.330  11.189   4.095 -0.0369  0.2914 -0.1202
   26MOL0     O 3474   0.390  11.294   4.169 -0.2657 -0.0490  0.4133
   26MOL0     C 3475   0.493  11.265   4.258 -0.3405 -0.0751  0.2673
   26MOL0     C 3476   0.552  11.146   4.289  0.8311 -0.4475  1.1237
   26MOL0     C 3477   0.659  11.136   4.385  0.1018 -0.2663  0.2458
   26MOL0     C 3478   0.707  10.999   4.429 -0.2402  0.5009  0.4267
   26MOL0     C 3479   0.710  11.258   4.448  0.0607 -0.9228 -0.3107
   26MOL0     C 3480   0.820  11.268   4.548  0.2881  0.8169 -0.0283
   26MOL0     O 3481   0.882  11.388   4.556  0.0688  0.5420 -0.1801
   26MOL0     C 3482   0.960  11.429   4.663 -0.2509  0.9360 -0.1302
   26MOL0     C 3483   0.989  11.343   4.769  0.1373 -0.1674  0.0117
   26MOL0     C 3484   1.061  11.395   4.877  0.3484 -0.2304  0.3099
   26MOL0     C 3485   1.121  11.525   4.863  1.1583  0.6096  0.0619
   26MOL0     O 3486   1.191  11.571   4.965  0.1850 -0.6110 -0.5678
   26MOL0     C 3487   1.270  11.690   4.951  0.1506  0.3586 -0.0989
   26MOL0     C 3488   1.372  11.707   5.062  0.1959  0.5755  0.1261
   26MOL0     C 3489   1.467  11.580   5.085 -0.6168 -0.1873 -0.6560
   26MOL0     C 3490   1.610  11.597   5.017 -0.6522  0.5238 -0.1523
   26MOL0     C 3491   1.668  11.453   5.007  0.0337  0.0280  0.4525
   26MOL0     C 3492   1.822  11.460   4.981 -0.3796 -0.0483  0.0057
   26MOL0     C 3493   1.887  11.456   5.130 -0.5266 -1.4644  0.9533
   26MOL0     C 3494   2.036  11.466   5.128  0.1066 -0.5774 -0.8107
   26MOL0    Cl 3495   2.085  11.484   5.306  0.2510 -0.4793  0.0862
   26MOL0     C 3496   1.094  11.606   4.757  0.1857  0.7346 -0.3440
   26MOL0     C 3497   1.009  11.558   4.659 -0.2348  0.1572  0.6031
   26MOL0     O 3498   0.841  11.164   4.617  0.2102  0.3592 -0.1229
   26MOL0     C 3499   0.653  11.376   4.404  0.0536 -0.2652  0.4846
   26MOL0     C 3500   0.539  11.378   4.322  0.1434 -0.1891 -0.0892
   26MOL0     N 3501   0.282  11.274   3.627  0.0506 -0.5110 -0.5517
   26MOL0     N 3502   0.173  11.312   3.576 -0.1576 -0.1899  0.4634
   26MOL0     C 3503   0.615  10.931   2.747 -0.8090 -0.1642 -0.7917
   26MOL0     C 3504   0.749  10.958   2.767 -0.4111  0.7111  0.6454
   26MOL0     C 3505   1.137  11.146   2.903 -0.0617  0.6606 -0.1613
   26MOL0     C 3506   1.205  11.138   2.781  0.4677 -0.6816 -0.1159
   26MOL0     C 3507   1.334  11.165   2.766 -0.5058 -0.0078 -0.1840
   26MOL0     C 3508   1.416  11.185   2.878 -0.2264 -0.2538  0.6628
   26MOL0     O 3509   1.555  11.183   2.858  0.1882 -0.0478  0.4932
   26MOL0     C 3510   1.641  11.223   2.964 -0.3079 -0.1208  0.1013
   26MOL0     C 3511   1.621  11.373   3.007 -0.5459  0.1294 -0.0650
   26MOL0     C 3512   1.723  11.402   3.128 -0.5200  0.4339 -0.6046
   26MOL0     C 3513   1.751  11.551   3.152 -0.4945  0.4641  0.5328
   26MOL0     C 3514   1.814  11.579   3.285 -0.1438  0.3369  0.6122
   26MOL0     C 3515   1.867  11.591   3.396  0.3156  0.4861  0.4927
   26MOL0     C 3516   1.353  11.200   3.004 -0.6718  0.5737  0.1341
   26MOL0     C 3517   1.212  11.184   3.018 -0.7377  0.2066  0.2733
   26MOL0     C 3518   1.141  11.223   3.140  0.9669 -0.4293  0.1312
   26MOL0     H 3519   0.741  11.295   2.767 -0.4559  0.5810 -1.5934
   26MOL0     H 3520   0.497  11.246   2.740  0.9726  0.7209  1.6460
   26MOL0     H 3521   0.400  11.011   2.943 -3.3550 -2.9009  2.4685
   26MOL0     H 3522   0.267  10.934   2.871  0.9327 -0.8279  0.6354
   26MOL0     H 3523   0.323  11.236   2.890 -0.1839 -0.9154  1.6424
   26MOL0     H 3524   0.208  11.177   2.773  1.9799  2.3067 -1.4143
   26MOL0     H 3525   0.063  11.096   2.963  0.8168 -1.7716  0.0259
   26MOL0     H 3526   0.198  11.109   3.083 -3.4534 -3.4624  0.5141
   26MOL0     H 3527   0.190  11.342   3.079 -0.2024  0.5848  0.5730
   26MOL0     H 3528   0.082  11.351   2.933  1.7701 -2.4938 -0.8774
   26MOL0     H 3529  -0.096  11.241   3.105  1.1557 -2.3917  1.4666
   26MOL0     H 3530  -0.052  11.406   3.120 -1.2346 -0.2210 -5.2130
   26MOL0     H 3531   0.042  11.145   3.269 -2.4681 -0.2508  2.6683
   26MOL0     H 3532   0.136  11.295   3.290 -1.7232  2.4908 -0.0957
   26MOL0     H 3533  -0.148  11.276   3.337  0.0208 -0.5173  0.3422
   26MOL0     H 3534  -0.026  11.380   3.414 -1.8836 -0.6347  3.3309
   26MOL0     H 3535  -0.100  11.213   3.591 -0.8233 -0.4757 -1.1510
   26MOL0     H 3536  -0.047  11.077   3.489  1.1396 -0.2355 -0.1426
   26MOL0     H 3537   0.154  10.983   3.571  0.3501  0.4602 -2.9764
   26MOL0     H 3538   0.499  11.124   3.707  1.5047 -1.5889  1.9953
   26MOL0     H 3539   0.421  10.972   3.681 -1.6657  0.2471 -1.9607
   26MOL0     H 3540   0.266  11.044   3.877 -0.8596  1.6840 -1.1622
   26MOL0     H 3541   0.426  10.964   3.909  2.2473  2.2510  0.9609
   26MOL0     H 3542   0.511  11.200   3.956 -0.5050  3.4998 -1.3238
   26MOL0     H 3543   0.356  11.260   3.911 -1.9853  0.3263  2.3773
   26MOL0     H 3544   0.224  11.214   4.081  0.0340  0.2535 -0.7721
   26MOL0     H 3545   0.352  11.087   4.128  0.8870  0.9082  1.2608
   26MOL0     H 3546   0.517  11.056   4.239 -2.1577  2.9183 -3.7976
   26MOL0     H 3547   0.673  10.972   4.530 -3.5847 -2.2589 -1.2141
   26MOL0     H 3548   0.814  10.984   4.415 -0.5779 -1.2246 -0.4784
   26MOL0     H 3549   0.649  10.930   4.368 -0.9758 -0.1547  1.8161
   26MOL0     H 3550   0.961  11.239   4.782 -3.7395  0.6759 -0.5398
   26MOL0     H 3551   1.073  11.342   4.971  3.7191  1.4245  0.9510
   26MOL0     H 3552   1.320  11.694   4.854  2.6898 -1.2791  1.0501
   26MOL0     H 3553   1.201  11.775   4.956  2.0933  1.9129  2.5854
   26MOL0     H 3554   1.445  11.785   5.037  0.0556 -0.1598 -2.8996
   26MOL0     H 3555   1.319  11.732   5.154  1.9137  1.5334  0.9224
   26MOL0     H 3556   1.417  11.490   5.049 -1.1365 -1.1768  2.2721
   26MOL0     H 3557   1.472  11.576   5.194 -1.4673  1.8179 -0.5020
   26MOL0     H 3558   1.674  11.661   5.079  1.0839 -0.1955 -1.1365
   26MOL0     H 3559   1.615  11.639   4.915  2.2103  1.2147  0.1920
   26MOL0     H 3560   1.632  11.402   5.097 -0.8643  0.6074  0.4411
   26MOL0     H 3561   1.617  11.411   4.920  1.1828  0.2407 -0.3573
   26MOL0     H 3562   1.871  11.547   4.935  2.0797 -1.0868  0.5225
   26MOL0     H 3563   1.860  11.377   4.920 -2.6431 -0.5187 -0.8978
   26MOL0     H 3564   1.871  11.365   5.187 -0.3573 -2.8860 -1.1724
   26MOL0     H 3565   1.845  11.538   5.189 -2.5394 -2.1195  0.4831
   26MOL0     H 3566   2.071  11.551   5.069 -0.8357 -1.2399 -2.3949
   26MOL0     H 3567   2.086  11.373   5.101  0.4256 -1.3935  2.2084
   26MOL0     H 3568   1.134  11.706   4.743  3.6124 -0.2160  1.5908
   26MOL0     H 3569   0.976  11.607   4.567  0.0447  0.3665  0.6138
   26MOL0     H 3570   0.694  11.472   4.434 -0.6004  0.1761  0.0194
   26MOL0     H 3571   0.504  11.475   4.288  0.5562  0.2843  0.8254
   26MOL0     H 3572   0.591  10.826   2.755  0.9233 -0.5159  0.0681
   26MOL0     H 3573   0.818  10.875   2.781 -1.7651 -0.3364  1.2903
   26MOL0     H 3574   1.154  11.106   2.691 -3.9380 -0.8201  2.1086
   26MOL0     H 3575   1.382  11.175   2.668 -2.6292  1.9478 -1.1169
   26MOL0     H 3576   1.618  11.168   3.056 -0.2685  3.1404  2.2205
   26MOL0     H 3577   1.744  11.188   2.951 -1.0376 -1.4607 -2.9078
   26MOL0     H 3578   1.521  11.401   3.041  0.9732  1.7282  3.6758
   26MOL0     H 3579   1.652  11.437   2.924 -0.2581  1.0788  0.7527
   26MOL0     H 3580   1.691  11.357   3.223  0.0285 -0.0858 -0.6608
   26MOL0     H 3581   1.822  11.356   3.122 -1.1414 -1.1887  0.6834
   26MOL0     H 3582   1.660  11.607   3.128 -1.2831 -0.6387  0.8364
   26MOL0     H 3583   1.820  11.590   3.077  1.6657 -4.4206 -0.4056
   26MOL0     H 3584   1.920  11.613   3.487  0.0930  0.3331  0.6594
   26MOL0     H 3585   1.409  11.211   3.097 -0.8900  1.2098  0.1924
   26MOL0     H 3586   1.057  11.292   3.122 -0.4115 -2.0536  0.1094
   26MOL0     H 3587   1.098  11.142   3.199  1.2809 -0.2101  0.6581
   26MOL0     H 3588   1.205  11.282   3.206  0.9588 -2.4582  2.0299
   27MOL0     O 3589  10.364   3.054   0.376 -0.3858  0.1097 -0.7328
   27MOL0     C 3590  10.362   3.170   0.425  0.0867 -0.5323  0.1172
   27MOL0     O 3591  10.474   3.237   0.480  0.4642 -0.0411 -0.4825
   27MOL0     C 3592  10.590   3.161   0.508 -0.9968 -0.8008  0.4042
   27MOL0     C 3593  10.606   3.020   0.541  0.1025  0.6985  0.5916
   27MOL0     C 3594  10.732   2.960   0.556  0.5547 -0.2939 -0.5182
   27MOL0     C 3595  10.849   3.033   0.537  1.3139  0.4889  0.3047
   27MOL0     O 3596  10.981   2.992   0.547  0.5383 -0.0296  0.2009
   27MOL0     C 3597  11.020   2.955   0.678  0.0841 -0.2870 -0.9950
   27MOL0     C 3598  11.054   3.092   0.741  0.0345  0.0666  1.0707
   27MOL0     C 3599  11.140   3.067   0.873  0.3794  0.2790  0.1849
   27MOL0     C 3600  11.061   3.054   1.003 -0.2590  1.0000 -0.4679
   27MOL0     C 3601  11.140   3.100   1.133 -0.7878 -0.5256 -1.0191
   27MOL0     C 3602  11.043   3.097   1.261  0.8129  0.6687 -0.1319
   27MOL0     C 3603  11.098   3.162   1.392  1.2235 -1.1163  0.2892
   27MOL0     C 3604  11.091   3.320   1.369 -0.3337 -0.0561 -0.3792
   27MOL0     N 3605  11.140   3.379   1.498 -0.6496 -0.9825  0.0313
   27MOL0     C 3606  11.272   3.392   1.543 -0.1602  0.0141  0.2665
   27MOL0     C 3607  11.272   3.485   1.644 -0.3572 -1.2283  0.2615
   27MOL0     C 3608  11.389   3.520   1.725 -0.9525  0.0693 -0.3862
   27MOL0     C 3609  11.373   3.446   1.861 -0.9755  0.7475 -0.7713
   27MOL0     C 3610  11.411   3.292   1.854  1.2805 -1.5266  0.6190
   27MOL0     C 3611  11.336   3.226   1.979  0.5120  0.2170 -1.0155
   27MOL0     O 3612  11.326   3.083   1.999  0.2835  0.5627  0.6117
   27MOL0     C 3613  11.302   3.018   1.884  0.3291  0.5007  0.2087
   27MOL0     C 3614  11.389   2.931   1.822 -0.7777 -0.3519 -0.5123
   27MOL0     C 3615  11.351   2.848   1.708  0.8596 -0.2636  0.5433
   27MOL0     C 3616  11.469   2.781   1.646  0.4931 -0.5517  0.2050
   27MOL0     C 3617  11.216   2.848   1.668 -0.6884 -0.1912 -0.1500
   27MOL0     C 3618  11.155   2.763   1.562 -0.8779 -0.3455 -0.2495
   27MOL0     O 3619  11.021   2.779   1.536  0.0795 -0.4646  0.5333
   27MOL0     C 3620  10.954   2.742   1.419 -0.3054 -0.7443 -0.3785
   27MOL0     C 3621  11.006   2.703   1.291 -0.4709 -0.5041 -0.1330
   27MOL0     C 3622  10.931   2.698   1.172  0.0997 -0.9377 -0.1105
   27MOL0     C 3623  10.785   2.717   1.174 -0.6676  0.1918  0.8277
   27MOL0     O 3624  10.705   2.709   1.068  0.4597 -0.1895  0.9311
   27MOL0     C 3625  10.749   2.778   0.952  0.1241 -0.7043 -0.5883
   27MOL0     C 3626  10.727   2.927   0.971  0.7277 -0.0892  0.2373
   27MOL0     C 3627  10.581   2.957   0.936  0.0110  0.3018 -0.2364
   27MOL0     C 3628  10.557   3.103   0.941 -0.2933  0.4282  1.1618
   27MOL0     C 3629  10.414   3.129   0.894  0.6423 -0.2476  0.1614
   27MOL0     C 3630  10.394   3.277   0.855  0.3826 -0.8796 -0.4821
   27MOL0     C 3631  10.413   3.372   0.984 -0.6405 -0.0326 -0.7496
   27MOL0     C 3632  10.389   3.519   0.948  0.1783 -1.1439  0.0415
   27MOL0    Cl 3633  10.465   3.647   1.048  0.2157  0.0766  0.0324
   27MOL0     C 3634  10.733   2.750   1.298  0.0591  0.8857  0.4385
   27MOL0     C 3635  10.815   2.757   1.420  0.3091 -0.8785  0.2882
   27MOL0     O 3636  11.232   2.687   1.499  0.0713 -1.1464 -0.3285
   27MOL0     C 3637  11.133   2.938   1.732 -0.0316 -0.4755 -0.1841
   27MOL0     C 3638  11.176   3.024   1.835  0.9260 -0.0161  0.1860
   27MOL0     N 3639  11.142   3.529   1.657  0.2129  0.2694 -0.4713
   27MOL0     N 3640  11.068   3.471   1.572 -0.4796  1.1527 -0.1443
   27MOL0     C 3641  10.840   3.169   0.504 -1.5028 -0.6029 -0.6791
   27MOL0     C 3642  10.715   3.230   0.484  0.6358  1.4037 -1.1998
   27MOL0     C 3643  10.231   3.245   0.415 -0.0013 -0.4244  0.3798
   27MOL0     C 3644  10.219   3.363   0.492  0.1840 -0.8238 -0.0898
   27MOL0     C 3645  10.111   3.447   0.473 -0.0287 -0.4605  0.3603
   27MOL0     C 3646  10.003   3.412   0.390  0.1235  0.5386 -0.4455
   27MOL0     O 3647   9.895   3.485   0.377  0.3112  0.1640 -0.2623
   27MOL0     C 3648   9.905   3.617   0.336  0.6307 -0.5622  1.2548
   27MOL0     C 3649   9.792   3.646   0.234 -0.7042 -1.1032 -0.4320
   27MOL0     C 3650   9.657   3.671   0.297 -0.0550 -0.6718  0.5462
   27MOL0     C 3651   9.538   3.682   0.200  0.0686  0.2891 -0.1690
   27MOL0     C 3652   9.433   3.745   0.276  0.2261 -0.4429  1.0254
   27MOL0     C 3653   9.355   3.817   0.338  0.0955 -1.4969 -0.4583
   27MOL0     C 3654  10.006   3.287   0.326 -0.1391  0.4737  0.0018
   27MOL0     C 3655  10.118   3.209   0.334  0.6103 -0.5181 -0.0837
   27MOL0     C 3656  10.096   3.067   0.270  0.3421 -0.0244  0.9759
   27MOL0     H 3657  10.525   2.949   0.549 -0.3784  1.3323  1.6043
   27MOL0     H 3658  10.746   2.857   0.587  1.5471  0.0222  0.1043
   27MOL0     H 3659  11.106   2.887   0.675 -2.0818 -3.3831  1.0099
   27MOL0     H 3660  10.941   2.908   0.737  1.0561 -0.2022  0.4219
   27MOL0     H 3661  11.112   3.141   0.662 -0.8121 -0.2498  0.2343
   27MOL0     H 3662  10.962   3.151   0.754  0.9610  2.2959 -1.4766
   27MOL0     H 3663  11.209   2.986   0.849  0.2760  0.7228 -1.7713
   27MOL0     H 3664  11.195   3.161   0.884 -0.4302  0.7381  0.3374
   27MOL0     H 3665  10.977   3.123   0.990 -1.5136  0.0233  1.7913
   27MOL0     H 3666  11.018   2.954   1.006  2.5044 -0.2966 -1.1667
   27MOL0     H 3667  11.165   3.205   1.120 -1.3031 -0.3391 -0.5147
   27MOL0     H 3668  11.231   3.044   1.156  0.9366  1.4613 -2.6058
   27MOL0     H 3669  10.950   3.152   1.243  0.2634 -0.5054 -1.0191
   27MOL0     H 3670  11.017   2.992   1.280  1.2240  0.5332 -0.3064
   27MOL0     H 3671  11.194   3.119   1.423  0.4737 -2.6688  0.5754
   27MOL0     H 3672  11.018   3.147   1.466 -0.7506  3.8919 -0.4183
   27MOL0     H 3673  11.163   3.337   1.289  1.1916  0.7332  1.1035
   27MOL0     H 3674  10.990   3.357   1.350 -0.2335  0.8961  0.8204
   27MOL0     H 3675  11.360   3.338   1.512 -0.2492 -0.0085  0.0518
   27MOL0     H 3676  11.390   3.623   1.762  1.0369  0.6145 -1.7272
   27MOL0     H 3677  11.489   3.503   1.682 -0.1888  2.7134  0.1532
   27MOL0     H 3678  11.443   3.493   1.931 -0.8722  0.0173 -0.3714
   27MOL0     H 3679  11.273   3.455   1.903 -0.7683 -0.1349 -0.0498
   27MOL0     H 3680  11.356   3.240   1.776 -1.4267 -0.0618  1.4234
   27MOL0     H 3681  11.519   3.279   1.844  1.3095 -2.3685  1.7631
   27MOL0     H 3682  11.368   3.283   2.067 -4.0585  1.5146  0.1181
   27MOL0     H 3683  11.233   3.261   1.971  0.0994 -1.2870 -2.9775
   27MOL0     H 3684  11.490   2.930   1.860 -0.2640  0.1482 -1.7828
   27MOL0     H 3685  11.563   2.835   1.661  0.6048 -1.0159  1.3132
   27MOL0     H 3686  11.459   2.769   1.538 -3.0533 -2.7298  0.6278
   27MOL0     H 3687  11.470   2.677   1.681  2.5954 -1.0791 -1.1922
   27MOL0     H 3688  11.112   2.687   1.276  0.4675  2.0335  2.6885
   27MOL0     H 3689  10.987   2.678   1.081  1.8278 -0.1802  0.7362
   27MOL0     H 3690  10.850   2.751   0.919  0.5110  0.6645 -0.5572
   27MOL0     H 3691  10.689   2.750   0.864 -1.5274  2.6413 -0.6657
   27MOL0     H 3692  10.732   2.959   1.076 -0.1345  3.6502 -0.7091
   27MOL0     H 3693  10.796   2.979   0.904 -0.1887  1.2710  0.3220
   27MOL0     H 3694  10.508   2.910   1.002  2.7391 -3.1137  0.6646
   27MOL0     H 3695  10.556   2.918   0.837 -6.1993 -0.1968  1.1306
   27MOL0     H 3696  10.632   3.154   0.880 -1.8300  1.1014 -0.2472
   27MOL0     H 3697  10.562   3.149   1.040  2.6202 -0.3664  1.4544
   27MOL0     H 3698  10.385   3.070   0.807 -3.3348 -1.9848  2.3688
   27MOL0     H 3699  10.345   3.099   0.974 -2.0061 -1.0922 -2.2741
   27MOL0     H 3700  10.291   3.281   0.818 -0.5510  0.9745  2.0254
   27MOL0     H 3701  10.454   3.306   0.768  2.5656  1.7618  1.6983
   27MOL0     H 3702  10.511   3.356   1.029 -0.9501 -2.2796 -0.7782
   27MOL0     H 3703  10.341   3.340   1.060  0.4303 -1.8690 -0.4481
   27MOL0     H 3704  10.281   3.530   0.951  0.3895  1.3304  1.4639
   27MOL0     H 3705  10.416   3.536   0.843 -0.6903 -0.6229 -0.0981
   27MOL0     H 3706  10.625   2.759   1.294 -0.0362 -0.2277 -2.8579
   27MOL0     H 3707  10.753   2.788   1.504 -0.3282 -0.9215 -0.1561
   27MOL0     H 3708  11.032   2.955   1.695 -0.6367 -2.9823  0.1361
   27MOL0     H 3709  11.103   3.087   1.883 -0.6765 -2.5281  1.2428
   27MOL0     H 3710  10.929   3.220   0.469 -2.3136 -0.3825 -2.5335
   27MOL0     H 3711  10.710   3.330   0.441 -2.6321  0.4691 -3.3729
   27MOL0     H 3712  10.296   3.391   0.564 -0.4251 -0.0432  0.2743
   27MOL0     H 3713  10.105   3.544   0.522  3.4775  0.2266 -0.3145
   27MOL0     H 3714   9.878   3.687   0.416 -2.3675  3.2381 -2.6435
   27MOL0     H 3715  10.003   3.644   0.294  0.1120 -0.5684  0.0087
   27MOL0     H 3716   9.779   3.557   0.171  0.5608 -1.0980 -0.7263
   27MOL0     H 3717   9.822   3.732   0.174 -0.0464 -0.3642  0.9035
   27MOL0     H 3718   9.650   3.588   0.367  0.4164  1.1382  2.8512
   27MOL0     H 3719   9.667   3.762   0.357  1.8186 -1.1136  0.9783
   27MOL0     H 3720   9.508   3.587   0.155  0.0063  1.5633 -3.1114
   27MOL0     H 3721   9.560   3.746   0.114 -0.8563 -0.5382 -1.0492
   27MOL0     H 3722   9.299   3.884   0.399  2.6235  0.3241  0.0481
   27MOL0     H 3723   9.916   3.259   0.273 -1.0814  0.3609  1.5907
   27MOL0     H 3724  10.007   3.052   0.208 -0.9084 -3.0781  3.2850
   27MOL0     H 3725  10.179   3.056   0.200  0.6379  1.1624  1.1138
   27MOL0     H 3726  10.109   2.988   0.344 -1.3362 -0.7946  0.5044
   28MOL0     O 3727   6.096   3.357  10.471  0.3982 -0.1130  0.4895
   28MOL0     C 3728   6.004   3.287  10.513  0.0595  0.3758 -0.1546
   28MOL0     O 3729   5.914   3.326  10.612 -0.1256  1.0351  0.2336
   28MOL0     C 3730   5.932   3.436  10.687  0.2548  0.2096 -0.3543
   28MOL0     C 3731   5.962   3.555  10.631 -0.1089 -0.6255  0.5508
   28MOL0     C 3732   6.002   3.658  10.721  0.0322  0.0528  0.1163
   28MOL0     C 3733   6.020   3.636  10.860 -0.3624  0.1658  0.1574
   28MOL0     O 3734   6.080   3.713  10.957 -0.6074 -0.1683 -0.5426
   28MOL0     C 3735   6.075   3.855  10.933 -0.6825 -0.5643 -0.4275
   28MOL0     C 3736   6.151   3.931  11.044 -0.4292  0.8315  0.8408
   28MOL0     C 3737   6.207   4.061  11.015 -0.4911 -0.9337 -0.1496
   28MOL0     C 3738   6.348   4.045  10.949  0.6094 -0.4020 -0.7903
   28MOL0     C 3739   6.415   4.187  10.926 -0.0155  0.4218 -0.1883
   28MOL0     C 3740   6.376   4.264  10.802 -0.4302 -0.4530  0.0322
   28MOL0     C 3741   6.406   4.422  10.792 -0.0659  0.2791  0.0686
   28MOL0     C 3742   6.373   4.503  10.918  0.3077  0.4471 -0.5019
   28MOL0     N 3743   6.343   4.644  10.878 -0.0039 -0.7806  0.7812
   28MOL0     C 3744   6.389   4.751  10.952  0.8484  1.1216 -0.3661
   28MOL0     C 3745   6.317   4.861  10.917 -0.1958  0.2595  0.3331
   28MOL0     C 3746   6.337   4.997  10.983  0.4241 -0.1033 -0.3833
   28MOL0     C 3747   6.194   5.055  11.027 -0.4384  0.1157 -0.0972
   28MOL0     C 3748   6.219   5.162  11.131  0.2572  0.5741  0.2805
   28MOL0     C 3749   6.294   5.286  11.075 -0.9278  0.0294  0.9287
   28MOL0     O 3750   6.306   5.400  11.168 -0.8177 -0.3396 -0.5521
   28MOL0     C 3751   6.391   5.393  11.280  0.3629 -0.9170 -0.0058
   28MOL0     C 3752   6.475   5.282  11.307  0.0075 -0.1830 -0.4684
   28MOL0     C 3753   6.582   5.284  11.396 -0.0162 -0.5008  0.7208
   28MOL0     C 3754   6.676   5.157  11.399  1.0735  0.7366 -0.3980
   28MOL0     C 3755   6.587   5.394  11.484  0.5258 -0.4183 -0.1423
   28MOL0     C 3756   6.688   5.406  11.595  0.4972 -0.0389  0.5711
   28MOL0     O 3757   6.708   5.528  11.634  0.1567 -0.2341 -0.4298
   28MOL0     C 3758   6.773   5.558  11.757  0.7307  0.1028  0.9491
   28MOL0     C 3759   6.911   5.589  11.750  1.0977 -0.4095  0.2439
   28MOL0     C 3760   6.974   5.608  11.868 -0.4162  0.2985 -0.6134
   28MOL0     C 3761   6.922   5.575  11.996  0.6824 -1.0267  0.4882
   28MOL0     O 3762   6.986   5.599  12.103 -0.3241  0.9705 -0.3500
   28MOL0     C 3763   6.919   5.695  12.193  0.9907  0.4316  0.2384
   28MOL0     C 3764   6.997   5.706  12.321  0.8817 -0.7001  0.1416
   28MOL0     C 3765   7.147   5.729  12.295 -0.4659  0.4255 -0.0276
   28MOL0     C 3766   7.209   5.749  12.433  0.8001  0.3437 -0.7200
   28MOL0     C 3767   7.360   5.784  12.421  0.0625  0.4094  0.8394
   28MOL0     C 3768   7.423   5.798  12.557  0.0464  0.1928 -0.6673
   28MOL0     C 3769   7.570   5.839  12.554  0.2476 -0.0335 -0.4185
   28MOL0     C 3770   7.602   5.977  12.492  0.1013 -0.3185 -0.3560
   28MOL0    Cl 3771   7.557   6.090  12.625  0.0406  0.5266  0.1204
   28MOL0     C 3772   6.785   5.537  12.006  0.0708  0.0672 -0.0971
   28MOL0     C 3773   6.713   5.531  11.881  0.1046 -0.6475 -0.4559
   28MOL0     O 3774   6.725   5.307  11.661 -0.0291  0.1737 -0.2129
   28MOL0     C 3775   6.501   5.503  11.469  0.0502  0.8572  0.4621
   28MOL0     C 3776   6.407   5.503  11.359 -0.1195  0.6427 -0.5337
   28MOL0     N 3777   6.229   4.820  10.814 -0.3173 -0.4619  0.1696
   28MOL0     N 3778   6.243   4.689  10.796 -0.2254 -1.1321  0.3139
   28MOL0     C 3779   5.975   3.511  10.911  0.5519 -0.3880  0.1224
   28MOL0     C 3780   5.923   3.415  10.818 -0.2568 -0.5121 -0.7983
   28MOL0     C 3781   5.999   3.145  10.461 -0.5641  0.9943  0.0714
   28MOL0     C 3782   6.117   3.085  10.433  0.6008  0.2505  1.3250
   28MOL0     C 3783   6.122   2.953  10.387 -0.7046  0.0301  0.0804
   28MOL0     C 3784   6.001   2.878  10.371 -0.6769  0.7395 -0.1112
   28MOL0     O 3785   6.006   2.743  10.347  0.2107  0.9277 -0.3112
   28MOL0     C 3786   5.909   2.684  10.265 -0.1462  0.3402 -0.0121
   28MOL0     C 3787   5.944   2.538  10.260 -0.4110  0.4588 -0.7295
   28MOL0     C 3788   5.835   2.444  10.187  0.4418 -0.4995  0.1142
   28MOL0     C 3789   5.841   2.466  10.039 -0.9946 -0.1116  0.0578
   28MOL0     C 3790   5.965   2.414   9.971  1.1225 -0.4954 -0.0343
   28MOL0     C 3791   6.055   2.362   9.908  0.4488  0.2844 -0.3181
   28MOL0     C 3792   5.879   2.948  10.382 -0.2296  0.2432 -0.3272
   28MOL0     C 3793   5.875   3.077  10.430  0.4343 -0.6794  0.3238
   28MOL0     C 3794   5.747   3.159  10.436  0.4365 -0.6940 -0.5674
   28MOL0     H 3795   5.950   3.573  10.524  0.5807 -0.7335  0.4499
   28MOL0     H 3796   6.017   3.753  10.670 -1.1102  1.2304  1.8778
   28MOL0     H 3797   5.974   3.892  10.951 -0.2498  1.1545 -1.2636
   28MOL0     H 3798   6.113   3.885  10.835 -0.0097  1.9372  0.5189
   28MOL0     H 3799   6.083   3.947  11.129  0.0277  2.5835  0.9257
   28MOL0     H 3800   6.234   3.871  11.081 -1.5666  1.1038  4.2604
   28MOL0     H 3801   6.133   4.119  10.958 -0.6097 -1.5141 -0.6067
   28MOL0     H 3802   6.209   4.111  11.112 -1.1431 -0.7187 -0.2368
   28MOL0     H 3803   6.424   3.993  11.008  2.8959  3.7876  0.3660
   28MOL0     H 3804   6.322   3.996  10.855  2.6305  1.2750 -2.3217
   28MOL0     H 3805   6.524   4.185  10.930  0.1462  3.3594 -0.6278
   28MOL0     H 3806   6.405   4.250  11.015  0.4235  0.4923 -0.1857
   28MOL0     H 3807   6.415   4.224  10.708  1.3830  4.5524 -1.6987
   28MOL0     H 3808   6.271   4.247  10.778 -0.0188  0.1808 -2.5030
   28MOL0     H 3809   6.363   4.460  10.699  0.1740  0.8898  0.1993
   28MOL0     H 3810   6.512   4.429  10.769 -0.1693 -4.1698 -2.9997
   28MOL0     H 3811   6.284   4.457  10.962  0.9033 -0.6006 -0.3536
   28MOL0     H 3812   6.456   4.502  10.990  0.1427 -0.4607 -0.3185
   28MOL0     H 3813   6.450   4.749  11.042  0.3605 -0.5418 -0.0480
   28MOL0     H 3814   6.381   5.059  10.904 -0.6406 -0.8836 -1.6056
   28MOL0     H 3815   6.396   4.979  11.074 -2.8879 -0.5750  1.8536
   28MOL0     H 3816   6.142   5.094  10.939  0.9657  1.0166 -0.5592
   28MOL0     H 3817   6.140   4.979  11.084  2.7298 -1.0236  1.6290
   28MOL0     H 3818   6.128   5.203  11.175  1.1426  0.9294  1.8860
   28MOL0     H 3819   6.278   5.109  11.206 -1.8274 -3.5980 -0.7506
   28MOL0     H 3820   6.389   5.260  11.028 -2.1482 -0.8139 -1.1939
   28MOL0     H 3821   6.249   5.311  10.979  1.8481  1.1571 -0.1893
   28MOL0     H 3822   6.485   5.200  11.237 -2.8575 -0.9226 -0.1390
   28MOL0     H 3823   6.643   5.074  11.461  1.5319  1.3872  0.7534
   28MOL0     H 3824   6.776   5.183  11.437  1.8999 -3.3702  0.7115
   28MOL0     H 3825   6.693   5.100  11.307 -3.6620 -2.1229  0.1780
   28MOL0     H 3826   6.961   5.614  11.657 -0.8284 -0.6105 -0.9161
   28MOL0     H 3827   7.072   5.654  11.861  1.1224 -1.1723  5.2353
   28MOL0     H 3828   6.906   5.794  12.148 -0.5413 -0.3212 -1.1038
   28MOL0     H 3829   6.817   5.659  12.211  1.3333 -3.1279 -3.3825
   28MOL0     H 3830   6.971   5.793  12.382 -0.9162  0.0947 -1.6318
   28MOL0     H 3831   6.973   5.619  12.383 -1.5275 -1.4295 -1.6719
   28MOL0     H 3832   7.168   5.819  12.236 -1.2465  0.6038 -0.0429
   28MOL0     H 3833   7.195   5.646  12.241 -1.1680 -1.1507  1.6746
   28MOL0     H 3834   7.209   5.651  12.482 -0.5311  1.0825  0.8479
   28MOL0     H 3835   7.160   5.821  12.500  1.4554  2.2414 -2.1972
   28MOL0     H 3836   7.421   5.713  12.364  0.6090  1.8090 -0.3627
   28MOL0     H 3837   7.356   5.883  12.375  3.5397  0.7612  1.0593
   28MOL0     H 3838   7.408   5.705  12.613  1.3008  0.6885  0.5359
   28MOL0     H 3839   7.365   5.856  12.629  2.6111  0.8346  1.0052
   28MOL0     H 3840   7.625   5.764  12.496  0.8801  1.7412 -2.2091
   28MOL0     H 3841   7.608   5.844  12.656 -1.5313 -1.9200  0.4238
   28MOL0     H 3842   7.549   5.998  12.399  1.8594 -3.2120 -2.1817
   28MOL0     H 3843   7.707   5.988  12.461  0.3361  0.2485  0.5878
   28MOL0     H 3844   6.731   5.523  12.099  1.5291  0.0920  0.7924
   28MOL0     H 3845   6.615   5.484  11.881  0.5782 -1.8233  2.3807
   28MOL0     H 3846   6.510   5.588  11.535 -0.3280  2.9453 -2.0163
   28MOL0     H 3847   6.327   5.576  11.351  0.5293  1.2836 -1.5212
   28MOL0     H 3848   5.995   3.492  11.016  1.2098 -0.7235 -0.0592
   28MOL0     H 3849   5.905   3.317  10.862  0.4515  0.3015  1.4702
   28MOL0     H 3850   6.206   3.138  10.468  2.1492 -1.2697 -0.1368
   28MOL0     H 3851   6.212   2.892  10.395 -0.9032 -0.8258 -3.1532
   28MOL0     H 3852   5.811   2.707  10.307  1.2762  1.2813  3.1267
   28MOL0     H 3853   5.913   2.732  10.167 -1.6519 -0.1446 -0.3360
   28MOL0     H 3854   5.959   2.504  10.362  1.8116 -1.2292 -1.5526
   28MOL0     H 3855   6.042   2.517  10.217  0.2430  0.5155  0.6714
   28MOL0     H 3856   5.849   2.340  10.215 -0.0405 -0.8292 -0.8076
   28MOL0     H 3857   5.735   2.474  10.221  0.2785 -1.4354  0.4696
   28MOL0     H 3858   5.835   2.571  10.009  2.2324 -0.0453 -0.7210
   28MOL0     H 3859   5.746   2.426  10.001 -1.6492  2.3853 -1.1703
   28MOL0     H 3860   6.140   2.309   9.869  3.1358  0.3168  4.5834
   28MOL0     H 3861   5.790   2.890  10.358  0.2490 -0.8541  0.4959
   28MOL0     H 3862   5.660   3.114  10.389 -0.9963  1.6220 -0.2956
   28MOL0     H 3863   5.725   3.182  10.541  1.4474  1.3538 -0.7436
   28MOL0     H 3864   5.773   3.253  10.386  3.0854 -1.1266 -0.1777
   29MOL0     O 3865   0.559   1.932   2.696  0.0653 -0.9954 -1.1672
   29MOL0     C 3866   0.487   1.868   2.617  0.6733 -0.3806 -0.2739
   29MOL0     O 3867   0.353   1.871   2.598 -0.0347  0.1757  0.1987
   29MOL0     C 3868   0.281   1.889   2.712 -1.0169  0.2119  0.6737
   29MOL0     C 3869   0.160   1.944   2.696  0.5864  0.3865  0.4553
   29MOL0     C 3870   0.062   1.963   2.811 -0.6290 -0.3763 -0.6670
   29MOL0     C 3871   0.096   1.920   2.940 -0.2708 -0.1882  0.7190
   29MOL0     O 3872   0.006   1.927   3.048 -0.1104  0.2458 -0.5820
   29MOL0     C 3873  -0.087   2.039   3.069 -0.2596  0.1905 -0.2300
   29MOL0     C 3874  -0.170   2.030   3.198  0.0856  0.5356 -1.2594
   29MOL0     C 3875  -0.099   2.002   3.329 -1.4260 -0.3640 -0.6623
   29MOL0     C 3876  -0.202   1.960   3.440  0.1688  0.2715  0.6537
   29MOL0     C 3877  -0.146   1.970   3.583  0.2709  0.3821 -0.4476
   29MOL0     C 3878  -0.203   1.882   3.693 -0.3818  0.2826 -0.3168
   29MOL0     C 3879  -0.150   1.929   3.832  0.7572  0.1721  0.5331
   29MOL0     C 3880  -0.135   1.834   3.948  0.1099  0.3622  0.7880
   29MOL0     N 3881  -0.040   1.732   3.913  0.1243  0.4460 -0.1609
   29MOL0     C 3882   0.097   1.756   3.885  0.5056 -0.9080 -0.1971
   29MOL0     C 3883   0.139   1.638   3.839  0.5445  0.3868 -0.1177
   29MOL0     C 3884   0.281   1.611   3.793 -0.7711  0.4217  0.1923
   29MOL0     C 3885   0.333   1.692   3.675  0.1005 -0.0376  0.1324
   29MOL0     C 3886   0.255   1.643   3.557 -0.0708  0.3372 -0.0655
   29MOL0     C 3887   0.252   1.735   3.434  1.2910  0.0305 -0.2366
   29MOL0     O 3888   0.383   1.764   3.398  0.2643 -0.6639  0.6468
   29MOL0     C 3889   0.443   1.709   3.284  0.3339 -1.1659 -0.4776
   29MOL0     C 3890   0.550   1.788   3.233  0.1671  0.3008  0.3893
   29MOL0     C 3891   0.637   1.753   3.135  0.1859 -0.1920 -0.2426
   29MOL0     C 3892   0.740   1.852   3.094  0.7298 -0.3546  0.6244
   29MOL0     C 3893   0.613   1.625   3.072  0.5388  0.5030 -0.8403
   29MOL0     C 3894   0.694   1.572   2.961 -1.0601  0.4354 -0.3462
   29MOL0     O 3895   0.820   1.575   2.988  0.2318  0.4647  0.3324
   29MOL0     C 3896   0.913   1.548   2.892 -0.4037 -0.2487 -1.1220
   29MOL0     C 3897   1.017   1.469   2.946 -0.8879 -0.0107  0.1105
   29MOL0     C 3898   1.106   1.406   2.855 -0.6301 -0.2408 -0.4731
   29MOL0     C 3899   1.121   1.454   2.719  0.1891  0.1927  0.3591
   29MOL0     O 3900   1.210   1.421   2.622 -0.1759  0.0438  0.1693
   29MOL0     C 3901   1.316   1.336   2.670 -0.0127 -0.4362 -0.3370
   29MOL0     C 3902   1.406   1.297   2.550 -0.5166 -0.2063 -0.7410
   29MOL0     C 3903   1.455   1.431   2.495  0.1334 -0.4790 -0.3591
   29MOL0     C 3904   1.564   1.406   2.395  0.0142  0.5424 -0.0147
   29MOL0     C 3905   1.604   1.529   2.313  0.4721  0.1341  0.1374
   29MOL0     C 3906   1.661   1.493   2.169  0.4379 -0.6751 -0.5247
   29MOL0     C 3907   1.559   1.452   2.074  0.2776  0.0564  0.3172
   29MOL0     C 3908   1.627   1.408   1.951  0.5914  0.9967 -0.3693
   29MOL0    Cl 3909   1.702   1.249   1.970 -0.4439 -0.0020 -0.5299
   29MOL0     C 3910   1.026   1.546   2.677  0.4892 -0.3659  0.1789
   29MOL0     C 3911   0.914   1.582   2.757 -0.5151  0.2161 -0.4550
   29MOL0     O 3912   0.643   1.534   2.863  0.8331  0.5221  0.2865
   29MOL0     C 3913   0.502   1.542   3.126 -0.2433  0.0771  1.1504
   29MOL0     C 3914   0.418   1.589   3.224 -0.2258  1.0096  0.1094
   29MOL0     N 3915   0.030   1.549   3.835  1.2006  0.3002  0.2242
   29MOL0     N 3916  -0.078   1.604   3.875  0.0429 -0.0576 -0.5221
   29MOL0     C 3917   0.222   1.868   2.951 -0.1748  0.1868  0.7630
   29MOL0     C 3918   0.310   1.849   2.843  0.1176  0.4459  0.1098
   29MOL0     C 3919   0.564   1.774   2.532  0.3805  0.2628  0.9183
   29MOL0     C 3920   0.509   1.649   2.519  0.3476  1.1414 -0.0781
   29MOL0     C 3921   0.580   1.540   2.462  1.1589 -0.7503 -0.7186
   29MOL0     C 3922   0.699   1.563   2.406 -1.0059 -0.1701  1.0052
   29MOL0     O 3923   0.756   1.464   2.339  0.4130 -0.1314  0.3759
   29MOL0     C 3924   0.819   1.368   2.427 -0.8813  0.2547 -0.7133
   29MOL0     C 3925   0.902   1.272   2.347 -0.3948 -0.5385 -0.1359
   29MOL0     C 3926   0.821   1.207   2.235  0.0781  0.0951  0.0790
   29MOL0     C 3927   0.892   1.083   2.173  0.3530 -0.2630  0.1829
   29MOL0     C 3928   0.893   0.965   2.260 -0.0199  0.0080 -1.2326
   29MOL0     C 3929   0.888   0.886   2.354  0.0293 -0.8724 -0.6180
   29MOL0     C 3930   0.756   1.684   2.409 -0.3144 -0.3867 -0.7249
   29MOL0     C 3931   0.689   1.789   2.469  0.6501 -0.0820 -0.2205
   29MOL0     C 3932   0.761   1.917   2.472  0.2897  0.3397 -0.2525
   29MOL0     H 3933   0.139   1.975   2.594  2.2450  1.7189  0.4731
   29MOL0     H 3934  -0.036   2.007   2.797  0.3406  1.7045 -1.4607
   29MOL0     H 3935  -0.157   2.052   2.986  3.2443  0.0894 -3.5083
   29MOL0     H 3936  -0.029   2.132   3.077  1.9872 -1.0352 -1.2102
   29MOL0     H 3937  -0.241   2.113   3.200 -2.6531 -1.6630 -0.3579
   29MOL0     H 3938  -0.220   1.932   3.196 -0.4675  0.6702  1.3731
   29MOL0     H 3939  -0.022   1.927   3.313 -2.5743 -0.9085 -4.7712
   29MOL0     H 3940  -0.044   2.090   3.363 -1.1325 -1.2985  1.4651
   29MOL0     H 3941  -0.297   2.014   3.442 -1.8196 -2.8868 -0.3796
   29MOL0     H 3942  -0.245   1.862   3.416 -1.4595  1.0757  0.1340
   29MOL0     H 3943  -0.138   2.074   3.616  3.0361  0.0076  0.3397
   29MOL0     H 3944  -0.040   1.942   3.578 -0.1407 -2.2423  2.5508
   29MOL0     H 3945  -0.312   1.880   3.697 -0.3604 -2.2958  2.2517
   29MOL0     H 3946  -0.162   1.784   3.668 -0.7584  0.1274 -0.3381
   29MOL0     H 3947  -0.230   1.997   3.864  0.3701 -1.0873  2.4190
   29MOL0     H 3948  -0.058   1.987   3.822  1.9572 -1.6314  0.5711
   29MOL0     H 3949  -0.100   1.879   4.041  0.1013 -0.6264  1.2829
   29MOL0     H 3950  -0.225   1.775   3.966 -1.2183  1.1734 -2.4003
   29MOL0     H 3951   0.152   1.847   3.907 -1.1007 -0.1951  1.1096
   29MOL0     H 3952   0.293   1.505   3.773  2.1817  0.4747  1.1845
   29MOL0     H 3953   0.354   1.631   3.873 -1.4132 -1.6097  1.3455
   29MOL0     H 3954   0.306   1.796   3.694 -0.7978 -0.6417  2.4199
   29MOL0     H 3955   0.441   1.676   3.669 -0.1164 -1.1353 -2.4535
   29MOL0     H 3956   0.291   1.545   3.525 -1.1061  0.2266 -0.9745
   29MOL0     H 3957   0.154   1.618   3.592 -0.2967  0.9321 -0.2813
   29MOL0     H 3958   0.203   1.700   3.343  0.6259  0.5042 -0.0675
   29MOL0     H 3959   0.197   1.826   3.458 -1.8345 -1.4877 -1.0156
   29MOL0     H 3960   0.560   1.879   3.292 -0.5033  0.1953  0.6781
   29MOL0     H 3961   0.693   1.950   3.108 -0.9407 -0.7743 -1.5316
   29MOL0     H 3962   0.762   1.847   2.987  0.3835  2.2363  0.3673
   29MOL0     H 3963   0.834   1.844   3.150  1.5535 -0.6422 -0.7469
   29MOL0     H 3964   1.013   1.435   3.050 -0.4063  1.2301  0.5489
   29MOL0     H 3965   1.169   1.329   2.898 -0.8427 -0.1610 -0.0141
   29MOL0     H 3966   1.375   1.401   2.737 -1.8267  2.2738 -1.1873
   29MOL0     H 3967   1.293   1.241   2.719 -0.2426  1.5939  3.9815
   29MOL0     H 3968   1.496   1.239   2.570  1.1380  1.8080 -1.8938
   29MOL0     H 3969   1.345   1.249   2.474  2.6063  0.4650 -3.9362
   29MOL0     H 3970   1.505   1.493   2.570  0.5473  0.3617 -1.2999
   29MOL0     H 3971   1.366   1.473   2.448 -3.3738 -1.4035  4.6173
   29MOL0     H 3972   1.533   1.319   2.336  1.1440  0.3641 -0.3698
   29MOL0     H 3973   1.651   1.365   2.447 -0.8163 -2.5563 -0.8556
   29MOL0     H 3974   1.524   1.602   2.304  1.7405  1.6888  0.8763
   29MOL0     H 3975   1.678   1.582   2.374 -0.2008 -1.9386  2.9677
   29MOL0     H 3976   1.737   1.419   2.194  0.2355 -0.4116  1.0222
   29MOL0     H 3977   1.716   1.576   2.123 -1.0180 -0.2657 -1.6119
   29MOL0     H 3978   1.500   1.544   2.066 -0.4658 -0.2950  1.5351
   29MOL0     H 3979   1.503   1.370   2.121 -1.7282 -0.8580 -3.2671
   29MOL0     H 3980   1.703   1.480   1.921  0.6459  0.5071 -1.4636
   29MOL0     H 3981   1.550   1.404   1.873 -0.6981  2.0542  0.7897
   29MOL0     H 3982   1.021   1.580   2.574  0.4997  0.9457  0.6038
   29MOL0     H 3983   0.835   1.641   2.711 -1.3113  0.5702  1.2675
   29MOL0     H 3984   0.499   1.440   3.088  0.1000 -0.4747  2.5176
   29MOL0     H 3985   0.345   1.524   3.272  0.6828  1.0254  1.5818
   29MOL0     H 3986   0.256   1.832   3.047 -1.6637 -1.0888  0.8527
   29MOL0     H 3987   0.393   1.788   2.877  0.2526  0.8265  0.4680
   29MOL0     H 3988   0.405   1.630   2.544 -0.3116  1.4642 -2.3370
   29MOL0     H 3989   0.544   1.438   2.449 -3.6131  0.9631 -3.3793
   29MOL0     H 3990   0.882   1.431   2.491 -3.9623  3.5697 -0.5989
   29MOL0     H 3991   0.746   1.311   2.484 -0.0715 -0.9308 -0.8223
   29MOL0     H 3992   0.928   1.191   2.415 -2.4181  0.7479  2.3642
   29MOL0     H 3993   0.991   1.324   2.310 -1.0381 -0.4281 -1.5908
   29MOL0     H 3994   0.724   1.174   2.275 -0.9972  1.8370 -0.9665
   29MOL0     H 3995   0.803   1.276   2.152 -0.1567 -1.1236 -0.9113
   29MOL0     H 3996   0.990   1.114   2.135 -1.2683 -0.8115 -5.4046
   29MOL0     H 3997   0.847   1.046   2.080  2.5531 -2.4608 -0.1024
   29MOL0     H 3998   0.887   0.813   2.432 -1.4005  1.2378  1.4788
   29MOL0     H 3999   0.849   1.708   2.359 -0.8051  1.4192 -0.8133
   29MOL0     H 4000   0.797   1.946   2.571 -0.3423 -3.0134  1.1114
   29MOL0     H 4001   0.841   1.919   2.397 -1.1869  0.4534 -1.8801
   29MOL0     H 4002   0.687   1.990   2.439  0.9658  1.8019  1.3398
   30MOL0     O 4003   4.638   1.373   4.210 -0.2221 -0.4619 -0.0509
   30MOL0     C 4004   4.636   1.270   4.139  0.9202  0.2833 -0.0669
   30MOL0     O 4005   4.531   1.218   4.065 -0.4216  0.2840  0.1851
   30MOL0     C 4006   4.410   1.280   4.083  0.3933  0.0890 -0.7453
   30MOL0     C 4007   4.304   1.223   4.170 -1.2339 -0.6634  0.2307
   30MOL0     C 4008   4.175   1.275   4.188  0.3769  0.5507 -0.2102
   30MOL0     C 4009   4.140   1.384   4.101 -0.5405  0.6399 -0.2527
   30MOL0     O 4010   4.009   1.432   4.118 -0.2835  0.1333  0.6634
   30MOL0     C 4011   3.961   1.467   3.994  0.8073 -0.3687 -0.3353
   30MOL0     C 4012   3.808   1.448   3.977  0.1512  0.1208 -0.0352
   30MOL0     C 4013   3.730   1.549   4.059 -0.1774  0.2378 -0.2356
   30MOL0     C 4014   3.702   1.679   3.992 -0.7247 -0.7210  0.1103
   30MOL0     C 4015   3.652   1.778   4.097  0.9735  0.0316  0.4214
   30MOL0     C 4016   3.645   1.915   4.030 -0.8808  0.2653  0.6689
   30MOL0     C 4017   3.584   2.030   4.110  1.3116  0.2988 -0.1442
   30MOL0     C 4018   3.671   2.092   4.213 -0.5843  0.0273 -0.7645
   30MOL0     N 4019   3.749   2.008   4.316 -0.2911  0.2482  0.3202
   30MOL0     C 4020   3.690   1.934   4.419  0.1887  0.1469 -0.1003
   30MOL0     C 4021   3.799   1.909   4.499 -1.2655  0.5647 -0.3248
   30MOL0     C 4022   3.810   1.830   4.627  0.5225  0.0087 -0.0036
   30MOL0     C 4023   3.844   1.685   4.604 -0.7264 -0.2515 -0.3758
   30MOL0     C 4024   3.799   1.619   4.475  0.0960 -0.5500 -0.1198
   30MOL0     C 4025   3.832   1.472   4.465 -0.2537 -0.3828 -1.2645
   30MOL0     O 4026   3.722   1.409   4.536 -0.5916  0.4260  0.8651
   30MOL0     C 4027   3.608   1.383   4.468 -0.6362  0.2598  0.6877
   30MOL0     C 4028   3.489   1.378   4.546  0.6226 -0.8073  0.1516
   30MOL0     C 4029   3.361   1.357   4.498  0.2583 -0.0950  0.3442
   30MOL0     C 4030   3.254   1.394   4.597 -0.2199  0.3058  1.2436
   30MOL0     C 4031   3.348   1.334   4.364 -0.0579  0.4887 -0.2514
   30MOL0     C 4032   3.228   1.276   4.293  0.1742 -0.0391  0.7725
   30MOL0     O 4033   3.219   1.284   4.157 -0.9668 -0.0270 -0.1353
   30MOL0     C 4034   3.166   1.179   4.083 -0.3533  0.9222  0.0026
   30MOL0     C 4035   3.223   1.049   4.067 -0.1511 -0.8214  0.4778
   30MOL0     C 4036   3.184   0.961   3.970 -0.2528  0.2993  0.5871
   30MOL0     C 4037   3.078   0.996   3.885  0.4644 -0.1442 -0.4574
   30MOL0     O 4038   3.011   0.905   3.803 -1.0263  0.2004 -0.0245
   30MOL0     C 4039   3.105   0.839   3.714  0.0606  1.0682 -0.0781
   30MOL0     C 4040   3.031   0.812   3.583  0.4886 -0.5044 -0.3277
   30MOL0     C 4041   2.990   0.949   3.525  0.9717  0.3953 -0.2144
   30MOL0     C 4042   2.936   0.950   3.391 -0.3324 -0.2475  0.6205
   30MOL0     C 4043   2.898   1.092   3.337 -0.1666  0.1962  0.1195
   30MOL0     C 4044   2.810   1.080   3.205 -0.0444  0.2929 -0.3124
   30MOL0     C 4045   2.897   1.017   3.089  0.0200  0.8629 -0.2755
   30MOL0     C 4046   3.002   1.116   3.038 -0.0089 -0.3282 -0.3440
   30MOL0    Cl 4047   2.919   1.268   2.994 -0.3992 -0.0457 -0.5298
   30MOL0     C 4048   3.025   1.126   3.888 -0.3811  0.0550  0.5939
   30MOL0     C 4049   3.069   1.218   3.987  0.3736  1.0543  0.7810
   30MOL0     O 4050   3.149   1.214   4.364 -0.1233 -0.0951 -0.1234
   30MOL0     C 4051   3.462   1.331   4.278  0.0316 -0.6508 -0.0393
   30MOL0     C 4052   3.587   1.367   4.327  0.1188  0.5009  0.2033
   30MOL0     N 4053   3.913   1.964   4.446 -0.9136  0.8914  0.6873
   30MOL0     N 4054   3.883   2.029   4.329 -0.8834  0.1749  0.2653
   30MOL0     C 4055   4.233   1.442   4.017  0.3294 -1.3557  0.9695
   30MOL0     C 4056   4.370   1.394   4.004  0.7483 -0.2279 -0.5223
   30MOL0     C 4057   4.755   1.169   4.146  0.3836 -0.0471  0.3678
   30MOL0     C 4058   4.749   1.044   4.076  0.6526  0.1434  0.4007
   30MOL0     C 4059   4.867   0.966   4.071  0.0717 -0.1743 -1.0182
   30MOL0     C 4060   4.992   1.010   4.115 -0.9482  0.8663  0.4741
   30MOL0     O 4061   5.112   0.948   4.083  0.5163  0.6466  0.2289
   30MOL0     C 4062   5.117   0.823   4.025  0.6083  0.2543  0.5741
   30MOL0     C 4063   5.256   0.757   4.050  0.4774  0.6055  0.2705
   30MOL0     C 4064   5.302   0.771   4.197  0.0399 -0.0613  0.7664
   30MOL0     C 4065   5.219   0.687   4.290 -0.3336 -0.5124 -0.5918
   30MOL0     C 4066   5.280   0.700   4.421 -0.2523  0.9150  0.0785
   30MOL0     C 4067   5.330   0.721   4.528  0.6158 -0.1746  0.5303
   30MOL0     C 4068   4.997   1.131   4.169 -0.2278 -0.3795 -1.0061
   30MOL0     C 4069   4.881   1.215   4.182 -0.0101  0.4190  0.2068
   30MOL0     C 4070   4.910   1.359   4.226  0.1712  1.1578  0.3775
   30MOL0     H 4071   4.325   1.134   4.228 -1.7545 -1.0266 -0.1182
   30MOL0     H 4072   4.099   1.229   4.250  0.8708 -0.4340 -0.3287
   30MOL0     H 4073   3.999   1.402   3.915  0.0175 -0.0685 -0.9646
   30MOL0     H 4074   3.970   1.571   3.960 -0.8838 -0.8041 -2.2862
   30MOL0     H 4075   3.784   1.459   3.871 -0.0047  3.2755  0.2230
   30MOL0     H 4076   3.785   1.351   4.021 -3.0176  1.2090  0.9966
   30MOL0     H 4077   3.639   1.498   4.091 -0.6227  1.3616  0.3780
   30MOL0     H 4078   3.783   1.559   4.154 -1.0692 -4.1354  0.9372
   30MOL0     H 4079   3.793   1.722   3.950 -1.3286  0.5294  0.0435
   30MOL0     H 4080   3.628   1.654   3.915 -2.3993  1.9507  0.7038
   30MOL0     H 4081   3.698   1.780   4.197 -0.0986  0.3480  0.9245
   30MOL0     H 4082   3.546   1.753   4.107  1.6270 -4.2485 -1.4078
   30MOL0     H 4083   3.745   1.945   3.997 -0.1332 -3.7782 -1.4855
   30MOL0     H 4084   3.585   1.923   3.939 -0.5157 -0.0745  0.3947
   30MOL0     H 4085   3.485   1.999   4.146  0.9997  1.0567 -0.3323
   30MOL0     H 4086   3.556   2.110   4.040  0.8621 -0.9907 -1.4853
   30MOL0     H 4087   3.744   2.160   4.169 -2.2304  1.6241 -1.1539
   30MOL0     H 4088   3.606   2.158   4.271 -0.4009  0.9254 -1.5390
   30MOL0     H 4089   3.585   1.905   4.417 -0.3632  2.0159  0.2644
   30MOL0     H 4090   3.709   1.844   4.665 -0.2515  5.0467 -2.9517
   30MOL0     H 4091   3.883   1.889   4.684 -0.8547 -1.1386  3.1667
   30MOL0     H 4092   3.951   1.664   4.608 -1.0428 -2.3053 -1.1588
   30MOL0     H 4093   3.786   1.637   4.684 -1.3862  1.6943  0.3725
   30MOL0     H 4094   3.695   1.629   4.444  0.1523 -4.1079 -2.0405
   30MOL0     H 4095   3.848   1.669   4.391  1.6966 -1.2114  0.3886
   30MOL0     H 4096   3.850   1.421   4.369  2.0296 -2.8556  0.3352
   30MOL0     H 4097   3.926   1.468   4.520 -2.0883  2.1635  2.4518
   30MOL0     H 4098   3.509   1.392   4.652  1.7903  1.8344 -0.3449
   30MOL0     H 4099   3.155   1.413   4.556 -0.2394 -1.3725  0.4591
   30MOL0     H 4100   3.272   1.477   4.667  0.6380  0.1299  1.2382
   30MOL0     H 4101   3.233   1.312   4.667 -0.0998  0.8780  1.9740
   30MOL0     H 4102   3.304   1.019   4.133 -0.4334 -1.9663  0.3296
   30MOL0     H 4103   3.218   0.859   3.951 -0.8300  0.1331  0.4216
   30MOL0     H 4104   3.191   0.904   3.700  1.1331 -0.1879  0.5180
   30MOL0     H 4105   3.140   0.745   3.757 -2.8785  0.0721  0.3565
   30MOL0     H 4106   3.087   0.752   3.511 -0.4250 -1.1750 -0.4817
   30MOL0     H 4107   2.944   0.751   3.608  2.4450 -2.3963  2.4487
   30MOL0     H 4108   3.063   1.029   3.538  0.6852  0.4297  1.4348
   30MOL0     H 4109   2.908   0.990   3.586  0.6997  1.3184 -1.1840
   30MOL0     H 4110   2.851   0.880   3.389 -0.3884 -0.3311  2.7725
   30MOL0     H 4111   3.022   0.917   3.333  0.0248 -0.2150  1.1300
   30MOL0     H 4112   2.830   1.135   3.411 -1.2063 -3.0060  1.1868
   30MOL0     H 4113   2.986   1.156   3.325 -0.1755  0.0958 -0.5447
   30MOL0     H 4114   2.774   1.182   3.186  0.5624  0.2493 -1.8997
   30MOL0     H 4115   2.737   1.003   3.230  1.6508 -0.9014  1.1496
   30MOL0     H 4116   2.838   0.986   3.002  1.2570 -0.9057 -0.5426
   30MOL0     H 4117   2.950   0.925   3.115  0.5764  0.7828 -1.5961
   30MOL0     H 4118   3.036   1.077   2.941  0.5218  0.5621 -0.5274
   30MOL0     H 4119   3.087   1.144   3.102 -3.1967  0.5255  3.9059
   30MOL0     H 4120   2.940   1.157   3.828  0.0250  1.1770  0.5789
   30MOL0     H 4121   3.022   1.316   3.991  0.0100  0.8355  2.3485
   30MOL0     H 4122   3.457   1.296   4.176 -0.4884  0.4835 -0.4154
   30MOL0     H 4123   3.661   1.365   4.248 -1.9153 -0.9313 -1.8239
   30MOL0     H 4124   4.205   1.516   3.943 -2.2491  0.0319  3.1481
   30MOL0     H 4125   4.442   1.446   3.942 -3.7271  5.2582 -1.9779
   30MOL0     H 4126   4.656   0.996   4.045  0.3693 -1.1428  2.9714
   30MOL0     H 4127   4.853   0.872   4.019 -2.2396 -2.1626  2.7424
   30MOL0     H 4128   5.043   0.758   4.072 -1.1418  1.8799  0.2135
   30MOL0     H 4129   5.089   0.824   3.919  1.3858  0.7569  0.3619
   30MOL0     H 4130   5.325   0.817   3.990  1.0130 -2.0759 -1.9393
   30MOL0     H 4131   5.268   0.657   4.009  1.6763  1.4796 -1.6524
   30MOL0     H 4132   5.409   0.755   4.217  0.4368  3.5706  2.3244
   30MOL0     H 4133   5.297   0.876   4.226 -0.6549  0.1992 -0.2591
   30MOL0     H 4134   5.218   0.583   4.258  0.9656 -0.7781  0.1350
   30MOL0     H 4135   5.115   0.721   4.287 -0.2941 -0.1201  1.1896
   30MOL0     H 4136   5.397   0.759   4.601  2.0340  2.8626 -2.1229
   30MOL0     H 4137   5.094   1.173   4.193 -2.0166  3.0271  1.1332
   30MOL0     H 4138   4.896   1.436   4.149  1.3897 -0.1789 -1.2829
   30MOL0     H 4139   4.848   1.377   4.314  0.1609 -0.1136  0.6528
   30MOL0     H 4140   5.016   1.370   4.250  0.4056  0.0072 -0.0475
   31MOL0     O 4141   1.047   2.899   7.403 -0.6023  0.2615  0.2255
   31MOL0     C 4142   1.049   2.962   7.509 -0.3139 -0.5014 -0.1533
   31MOL0     O 4143   1.065   3.097   7.519 -0.5416 -0.5240  0.2245
   31MOL0     C 4144   1.147   3.152   7.427  0.4384  0.9587  0.6095
   31MOL0     C 4145   1.235   3.092   7.333 -0.5282 -0.0503  0.5063
   31MOL0     C 4146   1.298   3.169   7.238  0.1814  0.4644 -0.2861
   31MOL0     C 4147   1.299   3.313   7.235  0.3204 -0.1207  0.0373
   31MOL0     O 4148   1.369   3.385   7.145  0.1773 -1.1259  0.0539
   31MOL0     C 4149   1.399   3.323   7.010 -0.3669 -1.0521  0.8421
   31MOL0     C 4150   1.421   3.435   6.896 -0.4585  0.5099 -0.1620
   31MOL0     C 4151   1.477   3.354   6.779  1.0992 -0.0537 -0.3428
   31MOL0     C 4152   1.530   3.451   6.654 -0.8657 -0.6217 -0.2187
   31MOL0     C 4153   1.628   3.570   6.684 -0.0264 -0.2879  0.0657
   31MOL0     C 4154   1.534   3.691   6.695 -0.2025  0.3435  0.9512
   31MOL0     C 4155   1.571   3.774   6.819  0.0727  0.0497 -0.6547
   31MOL0     C 4156   1.705   3.845   6.804 -0.2069  0.5210  0.6023
   31MOL0     N 4157   1.744   3.940   6.911  0.2843 -0.4118  0.4919
   31MOL0     C 4158   1.728   3.934   7.049  0.0760  0.3605  0.4473
   31MOL0     C 4159   1.768   4.063   7.092 -0.3858  0.7465  0.4907
   31MOL0     C 4160   1.764   4.102   7.233 -0.5108 -0.3684 -0.2196
   31MOL0     C 4161   1.874   4.041   7.312  0.2218  0.3036 -1.3928
   31MOL0     C 4162   1.829   4.013   7.457 -0.7187  0.6023  0.2336
   31MOL0     C 4163   1.944   4.016   7.562 -0.1901 -0.5117  0.4912
   31MOL0     O 4164   1.897   3.960   7.680  0.3333  0.3762 -0.3025
   31MOL0     C 4165   1.988   3.933   7.785 -0.2316 -0.3994 -0.6805
   31MOL0     C 4166   1.957   3.839   7.883  0.4868 -0.4042 -0.8604
   31MOL0     C 4167   2.045   3.769   7.963  0.0804 -0.0926  0.1809
   31MOL0     C 4168   1.999   3.649   8.041 -0.1857  0.4434  0.6488
   31MOL0     C 4169   2.170   3.818   7.956  0.6060 -0.1791 -0.3786
   31MOL0     C 4170   2.281   3.772   8.038 -0.7621  0.3226  0.6434
   31MOL0     O 4171   2.264   3.758   8.173 -0.5069  0.0988  0.8007
   31MOL0     C 4172   2.367   3.737   8.257  0.2547  0.1799 -0.9415
   31MOL0     C 4173   2.347   3.645   8.363 -0.2590  0.1351  0.6457
   31MOL0     C 4174   2.450   3.632   8.457  0.5205  0.9069  0.2979
   31MOL0     C 4175   2.554   3.721   8.467 -0.7021  0.3065  0.1019
   31MOL0     O 4176   2.642   3.691   8.562 -0.4194 -0.2530 -0.3946
   31MOL0     C 4177   2.645   3.791   8.679 -0.5164  0.3993  0.1744
   31MOL0     C 4178   2.536   3.752   8.786  0.1830  0.2678  0.2573
   31MOL0     C 4179   2.588   3.797   8.932  1.0217  0.2037  0.8978
   31MOL0     C 4180   2.495   3.786   9.053 -0.2176  0.3183 -0.2171
   31MOL0     C 4181   2.449   3.650   9.087 -0.4563 -0.5580  0.6684
   31MOL0     C 4182   2.300   3.630   9.065  0.2552  0.3511  0.2906
   31MOL0     C 4183   2.260   3.492   9.119 -0.2890 -0.0700  0.4577
   31MOL0     C 4184   2.112   3.465   9.095 -0.0599 -0.1224  0.0945
   31MOL0    Cl 4185   2.080   3.433   8.924 -0.0676 -0.0536  0.3170
   31MOL0     C 4186   2.569   3.813   8.368 -0.1481  0.5809  0.5893
   31MOL0     C 4187   2.482   3.824   8.257  0.0118 -0.5116 -0.1481
   31MOL0     O 4188   2.389   3.759   7.984 -0.1283  0.2496 -0.2950
   31MOL0     C 4189   2.211   3.927   7.870  0.2075 -0.7638  0.6034
   31MOL0     C 4190   2.115   3.984   7.777 -0.3890  0.2832  0.8600
   31MOL0     N 4191   1.801   4.138   6.980  0.3598 -0.5389  0.1197
   31MOL0     N 4192   1.777   4.073   6.876  0.1037 -0.5455 -0.1373
   31MOL0     C 4193   1.214   3.368   7.327  0.3281 -0.6507  0.4110
   31MOL0     C 4194   1.144   3.294   7.421  0.5273  0.2870 -0.4412
   31MOL0     C 4195   1.034   2.891   7.639  0.2836  0.3366  0.1142
   31MOL0     C 4196   0.968   2.959   7.746 -0.1495 -0.2136 -0.2720
   31MOL0     C 4197   0.926   2.889   7.859  0.8069  1.1498 -0.9990
   31MOL0     C 4198   0.955   2.757   7.871 -0.0004  0.7496 -0.4693
   31MOL0     O 4199   0.910   2.691   7.984 -0.7967  0.3101  0.6202
   31MOL0     C 4200   0.773   2.653   7.988  0.0274  0.2606 -0.2013
   31MOL0     C 4201   0.733   2.598   8.123  0.0318  1.1698 -1.1972
   31MOL0     C 4202   0.712   2.706   8.224 -0.2127 -0.4364  0.2318
   31MOL0     C 4203   0.696   2.662   8.365  0.0659  0.6127 -1.1658
   31MOL0     C 4204   0.593   2.546   8.377 -0.2874 -0.4088 -0.4775
   31MOL0     C 4205   0.523   2.448   8.407 -0.2499  0.0239  0.1412
   31MOL0     C 4206   1.039   2.687   7.782 -0.7365 -0.5186 -0.2375
   31MOL0     C 4207   1.075   2.753   7.661 -0.3552 -0.1550  0.1777
   31MOL0     C 4208   1.172   2.682   7.570  0.2712  0.0335 -0.1055
   31MOL0     H 4209   1.256   2.986   7.324  1.4312  0.2147  1.3981
   31MOL0     H 4210   1.368   3.122   7.170 -1.8445 -1.6261 -1.0857
   31MOL0     H 4211   1.317   3.262   6.971 -0.1146  0.2069 -1.8921
   31MOL0     H 4212   1.486   3.259   7.024 -0.5822 -1.6314 -0.3093
   31MOL0     H 4213   1.330   3.494   6.879 -1.4982 -1.2406 -0.9179
   31MOL0     H 4214   1.511   3.489   6.928  0.2017 -1.2644  1.1249
   31MOL0     H 4215   1.570   3.308   6.815  0.9403  1.1596  1.7954
   31MOL0     H 4216   1.407   3.275   6.750  0.4193  0.9343 -1.4951
   31MOL0     H 4217   1.594   3.389   6.590  0.4778 -0.6501  1.1051
   31MOL0     H 4218   1.447   3.496   6.597 -1.1319 -1.7470 -0.7547
   31MOL0     H 4219   1.700   3.588   6.604 -0.4367 -0.2029 -0.2843
   31MOL0     H 4220   1.693   3.557   6.772  1.8689  3.0896 -0.6350
   31MOL0     H 4221   1.549   3.757   6.609  1.6150 -0.1639  0.8482
   31MOL0     H 4222   1.429   3.665   6.715 -0.2474  0.5440  0.9796
   31MOL0     H 4223   1.570   3.715   6.911  0.3805  2.8574  1.2787
   31MOL0     H 4224   1.502   3.853   6.849 -0.5166 -0.4331 -0.7206
   31MOL0     H 4225   1.787   3.774   6.796  2.3420  3.2927  0.6938
   31MOL0     H 4226   1.718   3.896   6.708  0.4315 -0.9332 -0.1160
   31MOL0     H 4227   1.680   3.850   7.099 -0.1765 -0.2938 -0.8598
   31MOL0     H 4228   1.667   4.074   7.273 -0.3298 -0.6079  0.0570
   31MOL0     H 4229   1.768   4.212   7.235 -3.3526 -0.1767 -1.2439
   31MOL0     H 4230   1.894   3.943   7.269 -2.7384 -2.1074  2.1680
   31MOL0     H 4231   1.958   4.111   7.312 -1.1729  2.0735 -0.0340
   31MOL0     H 4232   1.754   4.087   7.483 -0.1474  2.7762 -3.5073
   31MOL0     H 4233   1.775   3.919   7.442  0.8861 -0.3399  0.0580
   31MOL0     H 4234   2.029   3.961   7.522  1.6135  2.7555 -0.5483
   31MOL0     H 4235   1.969   4.122   7.570  1.7646 -0.9225  0.2292
   31MOL0     H 4236   1.857   3.799   7.870 -0.7718  2.0585  0.6448
   31MOL0     H 4237   1.959   3.690   8.134 -2.4147 -0.6386  0.2431
   31MOL0     H 4238   2.086   3.589   8.070 -1.6850 -2.1462  0.1579
   31MOL0     H 4239   1.928   3.590   7.982  1.0875 -0.6399  0.1444
   31MOL0     H 4240   2.259   3.582   8.363 -2.1417  2.6221  0.0874
   31MOL0     H 4241   2.439   3.552   8.529 -3.9673  0.8568 -0.1815
   31MOL0     H 4242   2.741   3.801   8.730 -1.2023  2.9180  1.1147
   31MOL0     H 4243   2.636   3.893   8.643  0.1758  0.1384 -0.7638
   31MOL0     H 4244   2.440   3.797   8.760 -0.1203 -1.1714 -1.2435
   31MOL0     H 4245   2.526   3.644   8.800  0.6772  0.4936  2.8058
   31MOL0     H 4246   2.599   3.906   8.924 -2.6012  0.6355  0.2396
   31MOL0     H 4247   2.685   3.754   8.957  1.0548 -0.8207 -0.9079
   31MOL0     H 4248   2.414   3.859   9.048  0.4187  1.1270  0.9171
   31MOL0     H 4249   2.555   3.826   9.136  1.7190 -0.1000 -1.3558
   31MOL0     H 4250   2.513   3.577   9.036  2.3156  1.6806  0.6924
   31MOL0     H 4251   2.456   3.637   9.195  0.2648  0.8493  0.8148
   31MOL0     H 4252   2.265   3.643   8.962 -2.4883 -0.6697  0.9983
   31MOL0     H 4253   2.246   3.708   9.118 -1.7266  3.7456 -5.7490
   31MOL0     H 4254   2.268   3.494   9.228  1.3362 -1.4348  0.4292
   31MOL0     H 4255   2.321   3.407   9.083 -0.0534 -1.2208  3.2772
   31MOL0     H 4256   2.055   3.554   9.121  0.9363  0.1340  1.5323
   31MOL0     H 4257   2.071   3.383   9.155 -0.2319 -1.4750 -1.7954
   31MOL0     H 4258   2.659   3.873   8.373  1.0547 -1.0739 -0.3796
   31MOL0     H 4259   2.496   3.890   8.172 -1.3529 -0.6995 -0.5404
   31MOL0     H 4260   2.311   3.969   7.867  0.4251 -1.1599 -3.1451
   31MOL0     H 4261   2.149   4.058   7.705 -1.3645 -0.8466 -0.8307
   31MOL0     H 4262   1.218   3.476   7.318 -0.9011 -0.3651  2.6454
   31MOL0     H 4263   1.095   3.346   7.502  1.3011  2.2769 -1.1921
   31MOL0     H 4264   0.931   3.060   7.734  1.4474  0.3838 -0.3396
   31MOL0     H 4265   0.879   2.943   7.941 -0.8109 -0.4985 -0.7911
   31MOL0     H 4266   0.708   2.739   7.969 -1.3209  0.1408  3.1016
   31MOL0     H 4267   0.761   2.572   7.916  1.0760 -0.7612  0.7265
   31MOL0     H 4268   0.825   2.546   8.152  2.0012  2.4084 -4.6650
   31MOL0     H 4269   0.650   2.527   8.119  1.2953 -1.0745  3.9889
   31MOL0     H 4270   0.786   2.787   8.221 -1.3645  0.7080  1.3606
   31MOL0     H 4271   0.620   2.751   8.187  2.4009  2.5651 -3.4019
   31MOL0     H 4272   0.660   2.746   8.426  2.4995  0.4022  0.7088
   31MOL0     H 4273   0.791   2.622   8.403  0.0262  2.0439  0.6019
   31MOL0     H 4274   0.454   2.366   8.417 -0.4555  0.0484 -0.9448
   31MOL0     H 4275   1.065   2.583   7.800 -1.4590 -0.6578  0.0227
   31MOL0     H 4276   1.138   2.580   7.553  0.9785 -0.2121 -0.0628
   31MOL0     H 4277   1.193   2.730   7.474  1.2335 -0.7116 -0.2734
   31MOL0     H 4278   1.266   2.671   7.625 -0.7971 -0.3597  1.7288
   32MOL0     O 4279   3.677   7.283   7.684  0.3254  0.1714  0.0051
   32MOL0     C 4280   3.797   7.292   7.706 -0.4687 -0.5158  0.5518
   32MOL0     O 4281   3.855   7.301   7.831 -0.2583  0.1606  0.3000
   32MOL0     C 4282   3.772   7.304   7.941 -0.4180 -0.0201 -0.9572
   32MOL0     C 4283   3.646   7.361   7.959 -0.1681  0.1601  0.4810
   32MOL0     C 4284   3.581   7.382   8.085  0.8171  0.7177  0.2105
   32MOL0     C 4285   3.648   7.344   8.202 -0.3844 -0.4609  0.4841
   32MOL0     O 4286   3.583   7.376   8.325  0.0563  0.2663  0.2741
   32MOL0     C 4287   3.645   7.312   8.443 -0.5306 -0.7244 -0.5182
   32MOL0     C 4288   3.565   7.335   8.575 -1.2149  0.0852 -1.3666
   32MOL0     C 4289   3.626   7.276   8.695 -0.4169  0.5162 -0.5555
   32MOL0     C 4290   3.534   7.270   8.827 -0.5198 -0.1804  0.1035
   32MOL0     C 4291   3.611   7.271   8.960  0.0654  0.5813  0.5596
   32MOL0     C 4292   3.716   7.156   8.967  0.8685 -0.2556 -0.0154
   32MOL0     C 4293   3.653   7.019   8.937 -0.5152  0.3462  0.5644
   32MOL0     C 4294   3.757   6.905   8.961 -1.0197  1.1998  0.0735
   32MOL0     N 4295   3.775   6.901   9.106  0.3732  0.3228 -0.7098
   32MOL0     C 4296   3.724   6.808   9.193  0.3955 -0.0907  0.7996
   32MOL0     C 4297   3.807   6.796   9.301  0.0426 -0.1333  0.9689
   32MOL0     C 4298   3.809   6.692   9.407  0.0445 -1.3634  0.1536
   32MOL0     C 4299   3.738   6.742   9.531 -0.2650  0.5008  0.0266
   32MOL0     C 4300   3.745   6.626   9.637  0.2257 -0.2723 -0.2716
   32MOL0     C 4301   3.740   6.674   9.783 -0.2860 -0.2171  0.3200
   32MOL0     O 4302   3.858   6.743   9.814  0.0567  0.0190  0.6370
   32MOL0     C 4303   3.878   6.790   9.938 -0.0613 -0.5379 -0.3405
   32MOL0     C 4304   3.995   6.862   9.964  0.1585 -0.1932  0.3596
   32MOL0     C 4305   4.036   6.896  10.098 -0.4719 -0.8846  0.1220
   32MOL0     C 4306   4.166   6.984  10.107 -0.4908  0.5985  0.0907
   32MOL0     C 4307   3.951   6.881  10.202  0.1511 -0.7012 -0.0689
   32MOL0     C 4308   3.991   6.898  10.344  0.3637  0.1284  0.1804
   32MOL0     O 4309   3.926   6.820  10.443 -0.2010 -0.7036 -0.2365
   32MOL0     C 4310   3.944   6.840  10.580 -0.2430  0.2818  1.2196
   32MOL0     C 4311   3.962   6.961  10.649 -0.6920  0.1477  0.1623
   32MOL0     C 4312   3.953   6.975  10.790  0.3704  0.6457  0.1579
   32MOL0     C 4313   3.930   6.858  10.868  0.9107  0.1472 -0.1886
   32MOL0     O 4314   3.911   6.846  11.003  0.2339  0.0333 -0.6645
   32MOL0     C 4315   3.947   6.967  11.079 -0.1193 -0.4595  0.5227
   32MOL0     C 4316   3.918   6.928  11.231  1.5005 -0.7618  0.6228
   32MOL0     C 4317   3.999   7.005  11.337  0.4311  0.7149  0.9497
   32MOL0     C 4318   3.930   7.004  11.474 -0.2725 -0.2208  0.2248
   32MOL0     C 4319   3.965   7.129  11.554 -0.5100 -0.2345 -0.2868
   32MOL0     C 4320   3.892   7.138  11.686  0.1692  0.0672 -0.4800
   32MOL0     C 4321   3.947   7.261  11.764  0.1576  0.0814 -0.8678
   32MOL0     C 4322   3.880   7.287  11.893 -0.1903  0.2295 -0.2250
   32MOL0    Cl 4323   3.868   7.140  11.979  0.0723 -0.1286  0.7254
   32MOL0     C 4324   3.907   6.739  10.800  0.3480 -0.1282  0.0273
   32MOL0     C 4325   3.914   6.724  10.657  0.4916 -0.6856  0.5581
   32MOL0     O 4326   4.081   6.975  10.371 -0.0686 -0.0126 -0.0977
   32MOL0     C 4327   3.827   6.814  10.182  0.0018  0.4395 -0.4693
   32MOL0     C 4328   3.790   6.768  10.052 -0.1235  0.4900  0.5631
   32MOL0     N 4329   3.893   6.900   9.288 -0.4198  0.0868  0.8490
   32MOL0     N 4330   3.889   6.949   9.164 -0.0858 -0.2158  0.7131
   32MOL0     C 4331   3.778   7.280   8.188  0.3172 -0.7256  0.1904
   32MOL0     C 4332   3.836   7.263   8.061 -0.1334 -0.0186 -0.4260
   32MOL0     C 4333   3.888   7.275   7.590  0.1473  0.1416 -0.3026
   32MOL0     C 4334   3.828   7.252   7.459 -0.9909 -0.8384 -0.6437
   32MOL0     C 4335   3.909   7.218   7.345 -0.6233 -0.6934 -0.3403
   32MOL0     C 4336   4.051   7.220   7.354  0.3109  0.2605 -0.1466
   32MOL0     O 4337   4.145   7.173   7.275 -0.0219  0.3872  0.1423
   32MOL0     C 4338   4.091   7.126   7.146 -0.3381  0.1399  0.1300
   32MOL0     C 4339   4.097   7.237   7.043 -1.1833 -0.2237  0.0459
   32MOL0     C 4340   4.254   7.259   7.014  1.4891 -0.5336 -0.0567
   32MOL0     C 4341   4.263   7.359   6.894  0.1658  0.0723  0.4300
   32MOL0     C 4342   4.389   7.431   6.892 -0.4341 -0.4539 -0.4699
   32MOL0     C 4343   4.506   7.468   6.889 -0.1295 -0.0643  0.1716
   32MOL0     C 4344   4.110   7.255   7.480  0.2069 -0.6938  0.1270
   32MOL0     C 4345   4.036   7.285   7.598 -0.1360  0.0518 -0.6052
   32MOL0     C 4346   4.120   7.333   7.715 -0.0504  0.0223 -0.5864
   32MOL0     H 4347   3.593   7.393   7.870 -1.7063  0.4645  1.4629
   32MOL0     H 4348   3.477   7.415   8.082 -0.9193 -3.7084 -4.6843
   32MOL0     H 4349   3.751   7.340   8.447 -0.4790 -0.3006 -3.1803
   32MOL0     H 4350   3.649   7.204   8.431 -4.1771 -0.9825 -0.6873
   32MOL0     H 4351   3.556   7.443   8.586  2.5453  0.4760 -0.5479
   32MOL0     H 4352   3.466   7.291   8.565 -0.9393 -1.3578  1.2477
   32MOL0     H 4353   3.659   7.172   8.681  1.0969  0.2920  3.4562
   32MOL0     H 4354   3.718   7.333   8.711  1.0225 -0.3978 -4.3073
   32MOL0     H 4355   3.484   7.366   8.812 -0.9623 -0.7709 -2.6187
   32MOL0     H 4356   3.456   7.193   8.826  0.1170 -0.9945  3.1496
   32MOL0     H 4357   3.537   7.270   9.040  1.6899  4.3246  2.3581
   32MOL0     H 4358   3.671   7.361   8.971  0.3648  0.2785  1.4653
   32MOL0     H 4359   3.777   7.175   8.878 -0.5169 -2.6601 -1.6078
   32MOL0     H 4360   3.767   7.172   9.062  0.0059  0.9278  0.2765
   32MOL0     H 4361   3.624   7.002   8.833  1.6439 -1.2137  0.1366
   32MOL0     H 4362   3.564   6.997   8.997 -2.2523 -3.7391 -3.0066
   32MOL0     H 4363   3.702   6.818   8.923 -2.6814  2.4560 -0.5239
   32MOL0     H 4364   3.853   6.919   8.911 -2.2675  1.6106 -2.3401
   32MOL0     H 4365   3.638   6.745   9.173 -0.8674  1.0776  2.2813
   32MOL0     H 4366   3.915   6.697   9.431  0.4138  4.4310 -1.2331
   32MOL0     H 4367   3.783   6.594   9.367 -0.0467 -1.2850  0.0180
   32MOL0     H 4368   3.785   6.835   9.564  1.1372  0.5154 -1.7898
   32MOL0     H 4369   3.635   6.770   9.510 -1.7367 -1.8365  3.3220
   32MOL0     H 4370   3.653   6.573   9.612 -0.0648  1.2412 -2.6942
   32MOL0     H 4371   3.836   6.565   9.635 -0.2716 -1.1387  1.3887
   32MOL0     H 4372   3.649   6.728   9.808  1.3854  3.3112 -0.5960
   32MOL0     H 4373   3.749   6.589   9.852 -1.8195 -0.7543 -0.1118
   32MOL0     H 4374   4.059   6.892   9.882  0.0693 -0.5056  0.1750
   32MOL0     H 4375   4.199   7.019  10.009 -1.7562 -0.9671 -0.9724
   32MOL0     H 4376   4.247   6.928  10.153 -2.2697  0.5918  3.5305
   32MOL0     H 4377   4.148   7.077  10.160  0.0080  0.8363 -0.1532
   32MOL0     H 4378   3.980   7.047  10.586  4.6001 -2.1103 -1.9925
   32MOL0     H 4379   3.963   7.075  10.832  1.4235  1.1158 -1.1491
   32MOL0     H 4380   4.052   6.996  11.076 -0.5621  1.3992  1.7953
   32MOL0     H 4381   3.879   7.050  11.054  1.8101  1.9752  2.8157
   32MOL0     H 4382   3.811   6.947  11.245  1.1702 -3.3720  2.3807
   32MOL0     H 4383   3.933   6.821  11.245 -1.1719 -1.0871  1.6012
   32MOL0     H 4384   4.009   7.107  11.299  0.5196  0.7275  1.0051
   32MOL0     H 4385   4.101   6.967  11.345  0.3987 -0.2263 -2.0135
   32MOL0     H 4386   3.956   6.925  11.544  2.1867  0.4219  0.1234
   32MOL0     H 4387   3.824   7.006  11.447 -0.8672 -0.5456  2.4234
   32MOL0     H 4388   4.072   7.138  11.573 -0.8599  1.4427  1.1686
   32MOL0     H 4389   3.931   7.216  11.498  2.0492  1.7056  0.9881
   32MOL0     H 4390   3.897   7.039  11.733 -0.9969  0.5653  0.7528
   32MOL0     H 4391   3.784   7.151  11.672 -0.3554  1.9803  3.8163
   32MOL0     H 4392   3.929   7.349  11.701 -1.6045 -0.3851 -1.0703
   32MOL0     H 4393   4.056   7.255  11.772  0.3736  3.3644  0.2282
   32MOL0     H 4394   3.780   7.323  11.866 -0.1263 -0.6058 -1.6556
   32MOL0     H 4395   3.942   7.349  11.958  0.6141 -2.5516  1.8101
   32MOL0     H 4396   3.872   6.659  10.864 -0.0533 -0.4131 -0.5436
   32MOL0     H 4397   3.890   6.632  10.604 -2.9956  1.4722 -2.0621
   32MOL0     H 4398   3.758   6.796  10.264  0.1967 -0.4676 -0.4933
   32MOL0     H 4399   3.703   6.705  10.036  1.4608 -1.3814 -1.4266
   32MOL0     H 4400   3.828   7.243   8.277 -1.8139 -1.9989  0.9518
   32MOL0     H 4401   3.936   7.222   8.077  0.0109  1.2127  2.3301
   32MOL0     H 4402   3.722   7.248   7.434 -0.6929 -1.1583 -1.9246
   32MOL0     H 4403   3.853   7.185   7.259 -0.3554  0.2492 -0.8934
   32MOL0     H 4404   4.150   7.039   7.118  0.8928 -0.3073  3.5434
   32MOL0     H 4405   3.991   7.084   7.142 -0.6156  0.8660 -1.1855
   32MOL0     H 4406   4.049   7.326   7.084 -1.7463 -1.1391  1.4902
   32MOL0     H 4407   4.047   7.206   6.951  1.0734 -0.3731 -1.1886
   32MOL0     H 4408   4.290   7.309   7.105 -1.0839 -1.4007  1.5283
   32MOL0     H 4409   4.304   7.165   6.989 -0.2351 -1.2567 -0.9577
   32MOL0     H 4410   4.185   7.435   6.905  1.1981  1.0214  1.4940
   32MOL0     H 4411   4.251   7.312   6.796 -1.4373  0.9317  0.1775
   32MOL0     H 4412   4.611   7.486   6.881 -0.3047  1.2962  0.7830
   32MOL0     H 4413   4.219   7.253   7.475  0.6292  2.4428  3.6817
   32MOL0     H 4414   4.225   7.319   7.688  0.0317 -1.5243  0.3958
   32MOL0     H 4415   4.105   7.441   7.716  0.3271  0.1012 -1.8951
   32MOL0     H 4416   4.099   7.277   7.806  3.7073 -1.8792 -0.6930
   33MOL0     O 4417   8.282  11.024   0.426 -0.5723 -0.8238  0.0704
   33MOL0     C 4418   8.283  10.908   0.389  0.0733  0.4048  0.3153
   33MOL0     O 4419   8.171  10.841   0.343 -0.7562  0.7283 -0.0600
   33MOL0     C 4420   8.076  10.919   0.302 -0.3791 -0.0938  0.7587
   33MOL0     C 4421   8.089  11.012   0.199 -0.0491  0.0185 -0.6340
   33MOL0     C 4422   7.982  11.080   0.138  0.8746  0.0523 -0.4655
   33MOL0     C 4423   7.845  11.059   0.183 -0.0720 -0.2177  0.0770
   33MOL0     O 4424   7.738  11.140   0.167 -0.7321 -0.2482  0.1631
   33MOL0     C 4425   7.727  11.197   0.033 -0.0074 -0.5581 -0.0632
   33MOL0     C 4426   7.594  11.285   0.012  0.2761  0.0465  0.1746
   33MOL0     C 4427   7.487  11.187  -0.023 -0.4573  1.4212 -0.3656
   33MOL0     C 4428   7.465  11.176  -0.180 -0.2656  0.0151 -0.3152
   33MOL0     C 4429   7.392  11.042  -0.210 -1.1854 -1.1468  0.3286
   33MOL0     C 4430   7.343  11.033  -0.358  0.0791 -0.2947 -0.5424
   33MOL0     C 4431   7.280  10.902  -0.383  0.3447  0.2529 -0.6862
   33MOL0     C 4432   7.135  10.903  -0.337 -0.1094 -0.5009  0.0237
   33MOL0     N 4433   7.058  10.799  -0.400 -0.4095  1.1025 -0.3416
   33MOL0     C 4434   7.073  10.661  -0.409  0.0795  0.3902  1.1323
   33MOL0     C 4435   6.954  10.617  -0.459 -0.5226 -0.0202  0.7413
   33MOL0     C 4436   6.918  10.472  -0.486 -0.6787 -0.7232 -0.2172
   33MOL0     C 4437   6.912  10.367  -0.375 -0.4465  0.1737 -0.1263
   33MOL0     C 4438   6.841  10.234  -0.418  0.3918  0.6089 -0.2482
   33MOL0     C 4439   6.938  10.171  -0.514 -0.8637 -0.2781  0.0299
   33MOL0     O 4440   6.898  10.044  -0.548  0.1894  1.6877  0.3886
   33MOL0     C 4441   7.003   9.951  -0.579  0.2275 -0.6611 -0.4037
   33MOL0     C 4442   6.986   9.813  -0.535  0.2683 -0.0001 -0.1748
   33MOL0     C 4443   7.097   9.726  -0.545  0.1225  0.1804 -0.2111
   33MOL0     C 4444   7.084   9.600  -0.472 -0.6884 -0.3078  1.0220
   33MOL0     C 4445   7.212   9.764  -0.623 -0.4098 -0.3831  0.0015
   33MOL0     C 4446   7.334   9.679  -0.650 -0.0769  0.8645 -0.8033
   33MOL0     O 4447   7.416   9.709  -0.750 -0.6600  0.4085  0.2708
   33MOL0     C 4448   7.530   9.638  -0.757 -0.3569 -0.7013  0.7168
   33MOL0     C 4449   7.617   9.612  -0.640  0.8949 -0.1422 -0.2694
   33MOL0     C 4450   7.729   9.539  -0.668  0.0505 -0.1682  0.5949
   33MOL0     C 4451   7.768   9.499  -0.797 -1.0046 -0.3085  0.0094
   33MOL0     O 4452   7.897   9.456  -0.815 -0.7653 -0.7112 -0.1701
   33MOL0     C 4453   7.904   9.316  -0.831  1.0172  0.2563  0.1273
   33MOL0     C 4454   8.058   9.275  -0.824 -0.4318 -0.4900  0.1538
   33MOL0     C 4455   8.070   9.132  -0.774 -0.0900  0.2649  1.7144
   33MOL0     C 4456   8.015   9.032  -0.873  0.1304 -0.4580 -0.4820
   33MOL0     C 4457   8.068   8.891  -0.855 -0.1537 -0.7815 -0.2882
   33MOL0     C 4458   7.998   8.791  -0.949 -0.6969  0.3192 -0.6458
   33MOL0     C 4459   8.035   8.655  -0.913  0.0305  0.5966  0.0781
   33MOL0     C 4460   7.989   8.556  -1.022  0.2248 -0.7301 -0.0792
   33MOL0    Cl 4461   8.007   8.400  -0.950 -0.6028 -0.1718 -0.3355
   33MOL0     C 4462   7.675   9.510  -0.905 -0.7018 -0.1327 -0.9466
   33MOL0     C 4463   7.561   9.584  -0.884 -0.1578 -0.1718  0.1333
   33MOL0     O 4464   7.351   9.584  -0.576  0.3567  0.4594 -0.6434
   33MOL0     C 4465   7.214   9.896  -0.684  0.6105  0.7054  0.4202
   33MOL0     C 4466   7.112   9.989  -0.655  0.0843  0.3791  1.7256
   33MOL0     N 4467   6.870  10.720  -0.474 -0.0440  0.9813 -0.0633
   33MOL0     N 4468   6.937  10.823  -0.440  0.3985 -0.1841 -0.1586
   33MOL0     C 4469   7.835  10.959   0.281 -0.4177 -0.2158  0.5572
   33MOL0     C 4470   7.941  10.883   0.324 -0.1923  0.0187 -0.2709
   33MOL0     C 4471   8.406  10.820   0.385 -0.2049 -0.0527  0.6084
   33MOL0     C 4472   8.421  10.731   0.276  1.2973  0.6702 -0.2735
   33MOL0     C 4473   8.535  10.649   0.259 -0.1730  0.3722  1.0223
   33MOL0     C 4474   8.627  10.646   0.367 -0.6811 -0.2032 -0.0943
   33MOL0     O 4475   8.738  10.571   0.334 -1.1481 -0.3065 -0.0010
   33MOL0     C 4476   8.822  10.532   0.446  0.5851 -0.1676 -0.2245
   33MOL0     C 4477   8.951  10.476   0.392 -0.4949  0.6029 -0.6794
   33MOL0     C 4478   9.037  10.557   0.290  0.3723  0.0077 -0.6666
   33MOL0     C 4479   9.045  10.703   0.342  1.1313 -0.3256  0.0164
   33MOL0     C 4480   9.139  10.784   0.258  0.4499 -0.1421 -0.0465
   33MOL0     C 4481   9.218  10.841   0.192 -0.0477  0.7063 -0.4445
   33MOL0     C 4482   8.608  10.721   0.480 -0.1310 -0.0040  0.1486
   33MOL0     C 4483   8.499  10.812   0.492 -1.4585  0.8112  0.1339
   33MOL0     C 4484   8.504  10.909   0.606 -1.4107  0.6654 -0.2753
   33MOL0     H 4485   8.183  11.020   0.146 -1.0251 -0.5556 -2.5601
   33MOL0     H 4486   8.014  11.152   0.063  1.7719 -0.3743 -0.5013
   33MOL0     H 4487   7.728  11.122  -0.047  2.3662 -0.6028 -0.0368
   33MOL0     H 4488   7.808  11.269   0.023  1.6979 -2.5139 -1.0199
   33MOL0     H 4489   7.574  11.326   0.112  1.1553 -0.2450  0.4743
   33MOL0     H 4490   7.602  11.366  -0.061  1.4699 -0.4018 -0.2082
   33MOL0     H 4491   7.507  11.089   0.023 -0.7894  1.8801  0.8081
   33MOL0     H 4492   7.393  11.218   0.024 -1.5145 -1.1213 -0.6121
   33MOL0     H 4493   7.399  11.257  -0.213  0.1689  0.6575  0.3506
   33MOL0     H 4494   7.557  11.182  -0.239 -0.6226 -0.7897 -0.9706
   33MOL0     H 4495   7.306  11.039  -0.142 -0.7218 -2.7379  0.8878
   33MOL0     H 4496   7.448  10.956  -0.174  0.3036  0.2570  1.5220
   33MOL0     H 4497   7.282  11.121  -0.380 -1.2444  0.6420  5.3407
   33MOL0     H 4498   7.428  11.033  -0.426  0.5150  4.3154 -0.3013
   33MOL0     H 4499   7.344  10.819  -0.352 -0.5444 -0.4302 -0.6531
   33MOL0     H 4500   7.264  10.895  -0.491  0.8147 -0.7581 -0.7019
   33MOL0     H 4501   7.129  10.896  -0.228 -1.4245 -1.0820 -0.0571
   33MOL0     H 4502   7.092  10.995  -0.377  1.1282 -0.3387 -0.9736
   33MOL0     H 4503   7.154  10.592  -0.388 -0.2190  0.1650  1.5498
   33MOL0     H 4504   6.993  10.441  -0.560  0.4848 -2.2707  1.5168
   33MOL0     H 4505   6.827  10.475  -0.546 -0.0449 -1.2461 -1.2565
   33MOL0     H 4506   7.014  10.350  -0.342 -1.8180 -1.3928  3.9775
   33MOL0     H 4507   6.861  10.425  -0.297 -0.2051  3.0583 -1.9611
   33MOL0     H 4508   6.830  10.173  -0.328 -1.4035  1.6251  0.2571
   33MOL0     H 4509   6.738  10.250  -0.451 -0.6238  1.8540  3.1907
   33MOL0     H 4510   6.934  10.223  -0.611  1.7626 -1.5568 -0.8575
   33MOL0     H 4511   7.040  10.177  -0.475 -0.6598  3.1851 -0.6812
   33MOL0     H 4512   6.891   9.796  -0.485  1.2491 -0.0477  1.8054
   33MOL0     H 4513   7.175   9.570  -0.420 -1.2529  0.4148  2.4655
   33MOL0     H 4514   7.060   9.522  -0.546 -1.3020  0.5934  0.2342
   33MOL0     H 4515   7.014   9.615  -0.390 -0.0942  2.0296  1.1748
   33MOL0     H 4516   7.581   9.640  -0.542 -2.7662 -2.0035 -0.8804
   33MOL0     H 4517   7.787   9.526  -0.576 -1.0680  2.2991  1.7428
   33MOL0     H 4518   7.846   9.268  -0.752 -1.1852  0.7606 -1.0985
   33MOL0     H 4519   7.861   9.280  -0.925 -0.2302 -0.1796  0.8401
   33MOL0     H 4520   8.106   9.308  -0.916  0.2894 -0.1689  0.6295
   33MOL0     H 4521   8.100   9.341  -0.747 -0.6291  0.7854 -0.7882
   33MOL0     H 4522   8.017   9.115  -0.680  1.5456 -0.1393  2.6078
   33MOL0     H 4523   8.176   9.109  -0.759  0.6115 -1.3837 -3.5138
   33MOL0     H 4524   8.031   9.076  -0.972  0.8108  2.4421  0.8266
   33MOL0     H 4525   7.906   9.031  -0.865 -0.0608 -0.1208 -2.4572
   33MOL0     H 4526   8.176   8.889  -0.874 -0.3317 -0.3034 -1.4640
   33MOL0     H 4527   8.065   8.874  -0.747  3.2482  1.5020  0.3452
   33MOL0     H 4528   8.022   8.806  -1.055 -0.1835  0.6104 -0.4915
   33MOL0     H 4529   7.891   8.804  -0.930 -0.8827 -2.8226  1.0052
   33MOL0     H 4530   7.975   8.634  -0.824 -1.4842 -0.6538 -1.1837
   33MOL0     H 4531   8.140   8.646  -0.884 -0.2999 -0.6750  0.9543
   33MOL0     H 4532   8.062   8.555  -1.103  1.7218  0.8809  1.1481
   33MOL0     H 4533   7.889   8.575  -1.062  0.5885  2.4707  0.2092
   33MOL0     H 4534   7.692   9.461  -1.000 -2.4484 -0.2539 -1.2141
   33MOL0     H 4535   7.485   9.585  -0.961 -0.4475 -2.3199  0.3448
   33MOL0     H 4536   7.300   9.925  -0.742  0.6473 -0.7131 -0.2612
   33MOL0     H 4537   7.110  10.089  -0.698  1.2814 -0.5965 -0.8242
   33MOL0     H 4538   7.738  10.938   0.326  0.4740 -0.4427  2.4316
   33MOL0     H 4539   7.927  10.799   0.391  0.6651  2.8501  3.8926
   33MOL0     H 4540   8.347  10.742   0.197  2.3906 -0.4594 -1.5172
   33MOL0     H 4541   8.549  10.582   0.175  2.0981  2.0397 -0.0282
   33MOL0     H 4542   8.839  10.609   0.521  2.2487 -0.8491  0.1623
   33MOL0     H 4543   8.757  10.454   0.487 -1.1440  0.9908 -0.6551
   33MOL0     H 4544   8.919  10.384   0.342 -1.0338  0.4509 -0.0714
   33MOL0     H 4545   9.006  10.472   0.487 -2.7123  2.7168  0.8021
   33MOL0     H 4546   9.135  10.511   0.279  0.0168 -2.0230  2.7981
   33MOL0     H 4547   8.985  10.552   0.194 -0.2863  1.3047 -0.4035
   33MOL0     H 4548   9.064  10.719   0.448 -2.7553  1.9384  0.5503
   33MOL0     H 4549   8.954  10.752   0.307  2.0148  3.6263  2.6628
   33MOL0     H 4550   9.287  10.892   0.127 -0.2115  2.0269  0.3740
   33MOL0     H 4551   8.668  10.718   0.570 -0.1732 -4.6348  0.2546
   33MOL0     H 4552   8.533  10.866   0.702 -2.3095 -0.7702 -0.6165
   33MOL0     H 4553   8.587  10.981   0.599 -0.0276 -0.9928 -2.1187
   33MOL0     H 4554   8.414  10.970   0.616 -0.9625  1.6392 -1.7920
   34MOL0     O 4555   3.534  10.002   8.495 -0.6221 -0.4573  0.1663
   34MOL0     C 4556   3.639  10.027   8.436 -0.3069 -0.5818 -0.2311
   34MOL0     O 4557   3.681   9.965   8.322 -0.3286 -0.2148  0.5371
   34MOL0     C 4558   3.585   9.910   8.241  0.0375  0.3732 -0.7766
   34MOL0     C 4559   3.540   9.778   8.259  0.3663 -0.7873  0.9680
   34MOL0     C 4560   3.444   9.713   8.179 -0.1581  0.2651 -1.0789
   34MOL0     C 4561   3.397   9.777   8.065  0.5826  0.5974  0.1560
   34MOL0     O 4562   3.298   9.702   7.999  0.6658  1.1982  0.5474
   34MOL0     C 4563   3.214   9.760   7.901 -0.2755 -0.0535 -0.7833
   34MOL0     C 4564   3.084   9.674   7.889 -0.0886 -0.1522 -1.4523
   34MOL0     C 4565   3.103   9.518   7.890 -0.1613  0.3787  0.6227
   34MOL0     C 4566   3.183   9.469   7.766 -0.5681 -0.2606  0.1400
   34MOL0     C 4567   3.197   9.318   7.773 -0.4897 -0.0076 -0.4946
   34MOL0     C 4568   3.279   9.267   7.653 -0.3046 -0.4805 -0.2494
   34MOL0     C 4569   3.207   9.308   7.518 -0.2302  0.2122  0.3867
   34MOL0     C 4570   3.250   9.218   7.416 -0.4568 -0.0201 -0.3615
   34MOL0     N 4571   3.190   9.082   7.409 -0.8839 -0.4986  0.4919
   34MOL0     C 4572   3.059   9.071   7.367 -0.1434  0.6120  0.1326
   34MOL0     C 4573   3.043   8.937   7.332  0.0531 -0.2659  0.7548
   34MOL0     C 4574   2.918   8.878   7.271 -1.1519 -0.1121  0.4181
   34MOL0     C 4575   2.948   8.749   7.208  0.1908  0.5788  0.7865
   34MOL0     C 4576   2.823   8.674   7.169 -0.1181  0.5849  0.0826
   34MOL0     C 4577   2.849   8.525   7.126 -0.2109 -0.6118 -0.1393
   34MOL0     O 4578   2.727   8.463   7.088  0.5019 -0.1671 -0.1279
   34MOL0     C 4579   2.710   8.326   7.078 -0.4754 -0.4330 -0.6788
   34MOL0     C 4580   2.801   8.226   7.102  0.0418 -0.1763  0.7750
   34MOL0     C 4581   2.775   8.085   7.087  0.3387 -0.1791 -0.0122
   34MOL0     C 4582   2.870   7.970   7.139 -0.3848  0.4406 -0.8659
   34MOL0     C 4583   2.638   8.053   7.057 -0.0512  0.1426  0.0344
   34MOL0     C 4584   2.582   7.917   7.055 -0.6601 -0.4201 -0.0003
   34MOL0     O 4585   2.631   7.830   7.146 -0.4684  0.8805 -0.1580
   34MOL0     C 4586   2.583   7.703   7.160 -0.0687 -0.3171 -0.5459
   34MOL0     C 4587   2.553   7.648   7.290 -0.0008  0.7565  0.3440
   34MOL0     C 4588   2.519   7.511   7.295 -0.0577  0.6376 -0.2776
   34MOL0     C 4589   2.488   7.445   7.180  0.3226 -0.0128  0.6969
   34MOL0     O 4590   2.468   7.308   7.192  0.1601  0.5046 -0.2377
   34MOL0     C 4591   2.358   7.274   7.273  0.8667  1.2509 -0.4529
   34MOL0     C 4592   2.326   7.112   7.257 -0.1394 -1.3145  0.6637
   34MOL0     C 4593   2.462   7.039   7.286  0.3884  0.4139 -0.3247
   34MOL0     C 4594   2.439   6.899   7.323  0.3145  0.3946  0.4501
   34MOL0     C 4595   2.573   6.847   7.372  0.1985 -0.0782  0.0491
   34MOL0     C 4596   2.583   6.697   7.393 -0.8415  0.3484  0.6425
   34MOL0     C 4597   2.721   6.653   7.446 -0.5682 -0.0344  0.1914
   34MOL0     C 4598   2.729   6.520   7.517 -0.2957 -0.1341  0.4593
   34MOL0    Cl 4599   2.867   6.515   7.626 -0.3415  0.3917 -0.0833
   34MOL0     C 4600   2.527   7.487   7.058 -0.0039  0.1075 -0.3918
   34MOL0     C 4601   2.589   7.614   7.054 -0.0434 -0.4398  0.6620
   34MOL0     O 4602   2.488   7.899   6.980  0.0595 -0.1618 -1.0392
   34MOL0     C 4603   2.544   8.156   7.039  0.5414 -0.5403  0.1771
   34MOL0     C 4604   2.576   8.292   7.054 -0.1824  0.1572  0.3001
   34MOL0     N 4605   3.164   8.880   7.350  0.4043 -0.1840  0.1831
   34MOL0     N 4606   3.248   8.959   7.402  0.5929 -0.4674  0.2026
   34MOL0     C 4607   3.432   9.910   8.042 -1.6223 -0.9341  0.5433
   34MOL0     C 4608   3.531   9.969   8.126  0.0429 -0.0435 -0.2576
   34MOL0     C 4609   3.728  10.140   8.498 -0.0351 -0.1692  0.2065
   34MOL0     C 4610   3.864  10.137   8.468  1.1354  0.4670  0.6565
   34MOL0     C 4611   3.963  10.230   8.486 -0.5500 -0.6281 -0.4251
   34MOL0     C 4612   3.923  10.352   8.550  0.4724  0.5322 -0.3668
   34MOL0     O 4613   4.003  10.459   8.570  0.3801 -0.4398 -0.2584
   34MOL0     C 4614   4.123  10.477   8.497  0.5403 -0.4105 -0.7748
   34MOL0     C 4615   4.174  10.617   8.517  0.2404 -0.9552 -0.5422
   34MOL0     C 4616   4.223  10.659   8.660  0.6319  0.4566  0.1635
   34MOL0     C 4617   4.144  10.613   8.781  0.6100  0.6694 -0.2541
   34MOL0     C 4618   4.180  10.677   8.905 -0.6064 -0.4374  0.5715
   34MOL0     C 4619   4.208  10.746   9.006 -0.5140  0.3319 -0.7413
   34MOL0     C 4620   3.790  10.357   8.596  0.4477  0.1348  0.0819
   34MOL0     C 4621   3.691  10.258   8.576 -0.4789 -0.7112  0.0712
   34MOL0     C 4622   3.565  10.276   8.660 -0.2175 -0.1380 -1.0667
   34MOL0     H 4623   3.586   9.715   8.335 -0.2148  0.4664  2.4017
   34MOL0     H 4624   3.409   9.616   8.213 -2.4041  0.5167 -2.4890
   34MOL0     H 4625   3.265   9.761   7.805 -2.7057 -1.5721 -2.2021
   34MOL0     H 4626   3.180   9.859   7.934 -2.2944 -1.0627  0.3711
   34MOL0     H 4627   3.028   9.699   7.980  1.7412 -1.9057  0.2650
   34MOL0     H 4628   3.021   9.703   7.804 -3.1468  3.7226  1.7086
   34MOL0     H 4629   3.147   9.485   7.985  0.2523 -0.2313  0.2310
   34MOL0     H 4630   3.007   9.466   7.893 -1.8358  3.2636  0.4321
   34MOL0     H 4631   3.144   9.495   7.668  1.3296 -2.9925 -1.4956
   34MOL0     H 4632   3.282   9.515   7.769 -0.6880  0.1594 -1.4299
   34MOL0     H 4633   3.101   9.267   7.771  0.0226 -1.1758  1.8713
   34MOL0     H 4634   3.258   9.289   7.859 -2.6379 -2.0645  0.4265
   34MOL0     H 4635   3.382   9.303   7.655  0.8462 -3.2462 -2.3698
   34MOL0     H 4636   3.288   9.158   7.652  0.8905 -0.4036  0.7929
   34MOL0     H 4637   3.223   9.410   7.483 -3.1149  0.3520 -0.7183
   34MOL0     H 4638   3.098   9.312   7.518 -0.3487  6.8093 -0.4554
   34MOL0     H 4639   3.235   9.265   7.319  0.2534  1.4527  0.2113
   34MOL0     H 4640   3.359   9.209   7.425 -0.5143  0.5713  1.3584
   34MOL0     H 4641   2.987   9.152   7.370 -0.7282  0.0886  0.3211
   34MOL0     H 4642   2.877   8.945   7.194  0.0192  1.3223  0.9816
   34MOL0     H 4643   2.849   8.856   7.353  1.8242 -4.1338  2.1238
   34MOL0     H 4644   3.015   8.756   7.121 -1.4369 -1.8978 -0.7879
   34MOL0     H 4645   3.000   8.676   7.272  1.9284  2.0574  1.1417
   34MOL0     H 4646   2.759   8.670   7.258  1.1557 -1.1432  0.9783
   34MOL0     H 4647   2.769   8.726   7.090  0.3388  3.8008  1.7048
   34MOL0     H 4648   2.906   8.527   7.033  1.0408 -1.4526  0.5673
   34MOL0     H 4649   2.917   8.481   7.200  1.2727  1.6052 -0.1026
   34MOL0     H 4650   2.907   8.248   7.106 -0.0971  1.1618 -1.2434
   34MOL0     H 4651   2.833   7.924   7.231 -3.8542  1.5620 -1.5216
   34MOL0     H 4652   2.966   8.011   7.170 -0.4552 -1.8970  3.0632
   34MOL0     H 4653   2.896   7.889   7.071  0.7596  0.9676 -1.0860
   34MOL0     H 4654   2.564   7.708   7.380  1.4119 -1.1284  1.5266
   34MOL0     H 4655   2.502   7.453   7.386  1.7095  0.3649 -0.0799
   34MOL0     H 4656   2.374   7.282   7.381  0.9376  1.0568 -0.4485
   34MOL0     H 4657   2.267   7.330   7.251  0.8752  1.9147  1.0467
   34MOL0     H 4658   2.245   7.081   7.324 -0.3028 -1.3802  0.4358
   34MOL0     H 4659   2.307   7.091   7.152  4.7834  0.0991 -0.7811
   34MOL0     H 4660   2.511   7.092   7.368 -1.7222 -0.8935  1.9085
   34MOL0     H 4661   2.533   7.041   7.202 -1.6049 -0.5543 -2.1240
   34MOL0     H 4662   2.402   6.845   7.236  0.0954  1.6118 -0.2249
   34MOL0     H 4663   2.359   6.882   7.396 -1.4157 -1.1620 -1.6972
   34MOL0     H 4664   2.661   6.878   7.315 -0.1549  1.3606  0.2413
   34MOL0     H 4665   2.604   6.898   7.463 -1.0536 -0.6783  0.8433
   34MOL0     H 4666   2.554   6.647   7.301 -4.7000  1.7494  0.9267
   34MOL0     H 4667   2.515   6.681   7.477 -0.0246 -0.5934  1.1451
   34MOL0     H 4668   2.752   6.724   7.524 -0.9224  4.2252 -3.1615
   34MOL0     H 4669   2.798   6.663   7.369 -1.9804  1.4956 -1.0884
   34MOL0     H 4670   2.740   6.433   7.451 -1.4157  0.3534 -0.4083
   34MOL0     H 4671   2.650   6.495   7.588 -0.6100 -1.1216 -0.2126
   34MOL0     H 4672   2.543   7.414   6.979  2.8779 -0.3503  0.4700
   34MOL0     H 4673   2.636   7.655   6.965  0.3119  4.5902  2.8596
   34MOL0     H 4674   2.439   8.135   7.021 -0.2286  0.7016  2.6662
   34MOL0     H 4675   2.501   8.367   7.031  0.3663  0.6304  0.0128
   34MOL0     H 4676   3.405   9.963   7.951  0.1577  3.2575  2.1858
   34MOL0     H 4677   3.573  10.067   8.104 -1.3570  0.9128  1.1475
   34MOL0     H 4678   3.881  10.044   8.414 -1.8962 -1.3788  2.5935
   34MOL0     H 4679   4.067  10.210   8.467  0.2609 -0.6891  3.2642
   34MOL0     H 4680   4.197  10.406   8.536 -0.1962 -0.3193  0.8884
   34MOL0     H 4681   4.114  10.449   8.392  3.2264 -2.6806 -0.5253
   34MOL0     H 4682   4.096  10.683   8.478  0.9854  0.3589  0.1533
   34MOL0     H 4683   4.260  10.629   8.451 -0.0192  1.0140 -0.5885
   34MOL0     H 4684   4.321  10.615   8.679  0.1032 -1.0238 -0.4021
   34MOL0     H 4685   4.228  10.768   8.652  0.9100  0.3000 -3.4234
   34MOL0     H 4686   4.161  10.506   8.793 -2.7250 -0.5666 -4.2550
   34MOL0     H 4687   4.038  10.628   8.758  0.1480 -1.9826 -0.0984
   34MOL0     H 4688   4.226  10.807   9.093 -0.8515  2.3895 -2.0403
   34MOL0     H 4689   3.755  10.449   8.642  1.4121  1.8409 -2.3797
   34MOL0     H 4690   3.530  10.380   8.659  3.4591  1.2559 -0.7839
   34MOL0     H 4691   3.490  10.197   8.646 -1.2063  1.0379 -2.7337
   34MOL0     H 4692   3.597  10.252   8.762  0.7486  1.7455 -0.8741
   35MOL0     O 4693   2.508   7.296   2.880  0.3731  0.4257 -0.1263
   35MOL0     C 4694   2.557   7.350   2.978 -0.3338  0.5603 -0.8138
   35MOL0     O 4695   2.650   7.295   3.062  0.0600  1.1742  0.2464
   35MOL0     C 4696   2.723   7.185   3.016 -0.5055 -0.2171  0.2552
   35MOL0     C 4697   2.763   7.087   3.103 -0.1859 -0.5529 -0.1176
   35MOL0     C 4698   2.824   6.965   3.065 -0.3547 -0.1098 -0.0459
   35MOL0     C 4699   2.848   6.951   2.927 -0.4297 -0.0009 -0.3870
   35MOL0     O 4700   2.895   6.825   2.887  0.0662  0.0326  0.8283
   35MOL0     C 4701   2.997   6.813   2.786  0.9353  0.8292 -0.2182
   35MOL0     C 4702   3.019   6.661   2.773 -0.6772 -1.1239 -1.0172
   35MOL0     C 4703   3.115   6.631   2.650  0.4945 -0.1573  0.5686
   35MOL0     C 4704   3.137   6.479   2.645 -0.4127  0.7280 -0.5893
   35MOL0     C 4705   3.211   6.436   2.516  0.1963  0.7347 -0.2636
   35MOL0     C 4706   3.228   6.281   2.514  0.1954  1.1366 -0.5827
   35MOL0     C 4707   3.338   6.252   2.417 -1.5854  0.4461 -0.1912
   35MOL0     C 4708   3.354   6.100   2.391 -0.9770  0.6999  1.1212
   35MOL0     N 4709   3.457   6.075   2.283  1.0343 -0.7950  0.5077
   35MOL0     C 4710   3.443   6.151   2.166  0.7462 -0.7608 -0.3939
   35MOL0     C 4711   3.558   6.132   2.099 -0.6886  0.0583 -0.4685
   35MOL0     C 4712   3.604   6.199   1.975  1.3224 -0.2062 -0.0716
   35MOL0     C 4713   3.636   6.355   1.998 -0.1731 -0.2066  0.9076
   35MOL0     C 4714   3.758   6.370   2.095  1.1434 -0.1628  0.9095
   35MOL0     C 4715   3.700   6.403   2.236  1.2690 -0.1971 -0.5213
   35MOL0     O 4716   3.623   6.525   2.219 -0.0567 -0.3022  0.4059
   35MOL0     C 4717   3.559   6.587   2.319 -0.6407 -0.6511 -0.3110
   35MOL0     C 4718   3.489   6.702   2.290  0.4141 -0.1266 -0.5205
   35MOL0     C 4719   3.420   6.779   2.391  0.2071 -0.1290  0.5589
   35MOL0     C 4720   3.316   6.888   2.353  0.6418 -0.6535 -0.2856
   35MOL0     C 4721   3.456   6.753   2.530  0.2472 -0.9492 -0.0104
   35MOL0     C 4722   3.410   6.835   2.650 -0.6416  0.2466 -0.1616
   35MOL0     O 4723   3.468   6.790   2.765  0.2180 -0.3287 -0.0524
   35MOL0     C 4724   3.433   6.870   2.871 -1.1109  0.2441 -0.5581
   35MOL0     C 4725   3.503   6.990   2.899 -0.2821 -0.1636  1.0074
   35MOL0     C 4726   3.480   7.064   3.017 -0.2015 -0.0056 -0.2669
   35MOL0     C 4727   3.378   7.032   3.100 -0.0449  0.0253  0.6718
   35MOL0     O 4728   3.361   7.114   3.208 -0.0392 -0.2084  0.2493
   35MOL0     C 4729   3.302   7.068   3.330 -0.2593  0.5437 -0.0725
   35MOL0     C 4730   3.384   7.096   3.459  0.1721 -0.0830 -0.3026
   35MOL0     C 4731   3.310   7.054   3.587  0.4844 -0.3838 -0.1819
   35MOL0     C 4732   3.351   6.909   3.618 -0.0147 -0.2079  0.0495
   35MOL0     C 4733   3.293   6.863   3.752  0.3492 -0.3010 -0.1501
   35MOL0     C 4734   3.383   6.877   3.870 -0.6506 -0.2447 -0.3604
   35MOL0     C 4735   3.314   6.806   3.984 -0.5456  0.4132  0.1154
   35MOL0     C 4736   3.390   6.819   4.109 -0.1092  0.2162 -0.5842
   35MOL0    Cl 4737   3.271   6.752   4.232 -0.0004 -0.1814 -0.1314
   35MOL0     C 4738   3.298   6.921   3.067  0.2264  0.5619  0.4457
   35MOL0     C 4739   3.327   6.839   2.957  0.2279 -0.9075  0.2959
   35MOL0     O 4740   3.341   6.933   2.637  0.8609  0.9953 -0.2179
   35MOL0     C 4741   3.534   6.636   2.547 -0.4712 -0.9287 -0.7602
   35MOL0     C 4742   3.593   6.564   2.454 -0.5051  0.3081  0.2088
   35MOL0     N 4743   3.646   6.061   2.186 -0.5233 -0.4787  0.0452
   35MOL0     N 4744   3.583   6.024   2.289 -0.0907 -0.0272  0.6564
   35MOL0     C 4745   2.830   7.054   2.831  0.4595 -0.4532 -0.5488
   35MOL0     C 4746   2.775   7.172   2.885  0.5914 -0.2157 -0.1884
   35MOL0     C 4747   2.491   7.480   3.021  0.1890 -0.6208 -0.0487
   35MOL0     C 4748   2.545   7.546   3.134 -0.7418  0.3430 -0.3629
   35MOL0     C 4749   2.488   7.658   3.188  0.3396 -0.8367  0.3505
   35MOL0     C 4750   2.384   7.726   3.116 -0.0294  0.1275 -0.0971
   35MOL0     O 4751   2.320   7.843   3.146  0.8957  0.3148 -0.3264
   35MOL0     C 4752   2.346   7.907   3.268  0.2873 -0.3943 -0.2976
   35MOL0     C 4753   2.479   7.974   3.277  0.4697  0.5859 -1.2686
   35MOL0     C 4754   2.490   8.071   3.400 -0.0806  1.0736  0.4292
   35MOL0     C 4755   2.639   8.097   3.430 -0.8382 -0.2162  0.5200
   35MOL0     C 4756   2.723   7.984   3.469 -0.3243 -1.0834  1.6703
   35MOL0     C 4757   2.803   7.896   3.474 -0.3724  0.4138 -0.2041
   35MOL0     C 4758   2.334   7.671   2.998 -0.5270  1.2315  0.0241
   35MOL0     C 4759   2.387   7.549   2.950  0.0399 -0.2944  0.2310
   35MOL0     C 4760   2.335   7.497   2.816  0.4683 -0.3693 -0.2295
   35MOL0     H 4761   2.755   7.119   3.207  1.0038  1.9212 -0.6931
   35MOL0     H 4762   2.847   6.896   3.146  1.4758  0.6619  0.1436
   35MOL0     H 4763   3.084   6.873   2.812  1.8936 -0.6355  0.0592
   35MOL0     H 4764   2.969   6.844   2.685  1.9564 -1.4093 -1.2457
   35MOL0     H 4765   3.063   6.630   2.868  1.6994 -0.6070 -1.8639
   35MOL0     H 4766   2.917   6.626   2.757 -1.8407  2.4405 -2.1473
   35MOL0     H 4767   3.076   6.686   2.564  1.9810  0.4013  0.2281
   35MOL0     H 4768   3.207   6.685   2.675  1.1637 -0.1169 -1.7615
   35MOL0     H 4769   3.197   6.443   2.730  2.6663  1.5649 -2.2491
   35MOL0     H 4770   3.041   6.427   2.641  0.2273 -0.7416  1.4201
   35MOL0     H 4771   3.306   6.490   2.514 -0.4991  2.1159  1.5316
   35MOL0     H 4772   3.144   6.463   2.433 -1.9018 -1.0888  0.7224
   35MOL0     H 4773   3.253   6.233   2.609  2.8191  3.8967  0.2894
   35MOL0     H 4774   3.144   6.226   2.472  1.9502 -2.3914  0.1866
   35MOL0     H 4775   3.427   6.286   2.471 -0.6994  1.8991 -2.4029
   35MOL0     H 4776   3.312   6.308   2.327 -0.2398  0.4100 -0.6245
   35MOL0     H 4777   3.381   6.029   2.470 -1.6380 -1.1739 -0.2529
   35MOL0     H 4778   3.254   6.066   2.364 -0.1998 -3.1373  2.3962
   35MOL0     H 4779   3.363   6.213   2.126  1.2509 -0.1695 -0.5068
   35MOL0     H 4780   3.524   6.199   1.900  1.4162  1.1661 -0.2066
   35MOL0     H 4781   3.687   6.147   1.928  2.1802  3.4020 -3.0458
   35MOL0     H 4782   3.661   6.405   1.904 -1.0302  1.0280  1.3073
   35MOL0     H 4783   3.545   6.406   2.030  0.0393  0.6466  0.1678
   35MOL0     H 4784   3.822   6.281   2.102 -0.5739 -1.5095  0.1033
   35MOL0     H 4785   3.811   6.452   2.047 -0.1790  0.2004  0.0421
   35MOL0     H 4786   3.645   6.318   2.278  0.1499  1.1554  0.8944
   35MOL0     H 4787   3.788   6.424   2.297  1.4849  4.9291 -2.1477
   35MOL0     H 4788   3.475   6.723   2.185  1.5512 -1.1691 -0.9064
   35MOL0     H 4789   3.293   6.878   2.247  1.5849  3.2738 -1.0097
   35MOL0     H 4790   3.355   6.987   2.378  0.6287 -1.0849  1.5933
   35MOL0     H 4791   3.219   6.862   2.395  0.2117  1.1747 -0.0990
   35MOL0     H 4792   3.584   7.015   2.831 -1.4656  2.3081  0.4002
   35MOL0     H 4793   3.526   7.160   3.038 -2.9956  1.7825 -1.7583
   35MOL0     H 4794   3.203   7.110   3.347 -0.1558 -0.3520  3.5344
   35MOL0     H 4795   3.283   6.960   3.325  0.3544  0.2659  2.3462
   35MOL0     H 4796   3.485   7.055   3.461  1.2935  2.3700 -1.7196
   35MOL0     H 4797   3.396   7.204   3.470  0.4165 -0.0646 -0.7391
   35MOL0     H 4798   3.202   7.063   3.575  0.7393  0.7859 -1.9144
   35MOL0     H 4799   3.330   7.124   3.668 -0.2673  1.3691 -1.4575
   35MOL0     H 4800   3.460   6.902   3.622  0.1296  0.8165 -1.3400
   35MOL0     H 4801   3.322   6.852   3.530  1.4798  1.8898 -1.9030
   35MOL0     H 4802   3.198   6.911   3.777  2.3091  2.1665  3.3271
   35MOL0     H 4803   3.284   6.755   3.741 -3.1455 -0.2827  1.2262
   35MOL0     H 4804   3.403   6.983   3.887 -1.6082  0.8849 -4.9675
   35MOL0     H 4805   3.480   6.829   3.854 -1.1478 -0.5754 -2.7272
   35MOL0     H 4806   3.313   6.698   3.968  1.4569  0.2092  1.0940
   35MOL0     H 4807   3.209   6.831   4.002 -1.0768  0.3604 -2.5207
   35MOL0     H 4808   3.409   6.925   4.129 -0.1949 -0.1821  2.0411
   35MOL0     H 4809   3.486   6.768   4.118  0.4892  1.3619 -0.2605
   35MOL0     H 4810   3.212   6.888   3.124  0.9677  0.2424  1.4027
   35MOL0     H 4811   3.262   6.756   2.929  1.9010 -1.5774 -1.8673
   35MOL0     H 4812   3.553   6.600   2.647  1.3665 -0.1770 -0.8082
   35MOL0     H 4813   3.661   6.481   2.470 -2.1568 -1.9632 -3.3373
   35MOL0     H 4814   2.854   7.037   2.727 -1.5949 -1.9063 -0.8529
   35MOL0     H 4815   2.756   7.251   2.813  3.0648  0.7490  0.1150
   35MOL0     H 4816   2.630   7.511   3.192  0.8004  3.1767 -0.6975
   35MOL0     H 4817   2.533   7.694   3.280  0.0585  0.0755  0.1502
   35MOL0     H 4818   2.262   7.976   3.280  0.5430  0.3214 -2.2865
   35MOL0     H 4819   2.326   7.842   3.354  1.2650  0.2650  0.4592
   35MOL0     H 4820   2.487   8.035   3.186  0.9171 -2.3816 -3.3385
   35MOL0     H 4821   2.560   7.902   3.290  1.7217  2.1018 -0.1222
   35MOL0     H 4822   2.427   8.157   3.376 -3.0476 -0.6306  1.5742
   35MOL0     H 4823   2.444   8.022   3.487  1.2333 -1.1099 -0.0235
   35MOL0     H 4824   2.629   8.156   3.521 -0.8636  0.1306  0.2935
   35MOL0     H 4825   2.683   8.149   3.344  1.1108 -0.9185  1.0466
   35MOL0     H 4826   2.886   7.829   3.482  1.8791  2.9462 -0.7026
   35MOL0     H 4827   2.248   7.714   2.947  0.4451  0.2209 -2.6353
   35MOL0     H 4828   2.270   7.570   2.767 -1.0423 -1.2923  0.3284
   35MOL0     H 4829   2.424   7.481   2.755  2.0572 -0.0708  1.9206
   35MOL0     H 4830   2.282   7.402   2.834 -1.0249  0.2632 -1.0947
   36MOL0     O 4831  10.587   0.908   9.288 -0.0754  0.0692  0.2691
   36MOL0     C 4832  10.564   1.013   9.237 -0.0961 -0.3826  0.0355
   36MOL0     O 4833  10.654   1.103   9.178  0.1302 -0.6154  0.8431
   36MOL0     C 4834  10.777   1.052   9.138  0.3635  0.3754  1.5543
   36MOL0     C 4835  10.795   0.937   9.058 -0.1695  0.0169  0.6767
   36MOL0     C 4836  10.923   0.883   9.022 -0.8044 -0.2784 -0.5919
   36MOL0     C 4837  11.036   0.963   9.062 -0.2732  0.0034 -0.2514
   36MOL0     O 4838  11.165   0.930   9.040  0.5641 -0.3032 -0.3499
   36MOL0     C 4839  11.212   0.796   9.017  0.2188 -0.1146 -0.3937
   36MOL0     C 4840  11.359   0.793   8.983  0.5485  0.5471 -0.6210
   36MOL0     C 4841  11.397   0.851   8.852 -0.1836 -0.3513 -0.1936
   36MOL0     C 4842  11.551   0.868   8.831  0.0728  0.0329  0.5125
   36MOL0     C 4843  11.573   0.960   8.715 -0.6161 -0.7985  0.0128
   36MOL0     C 4844  11.726   0.982   8.712  0.7750 -0.0253 -0.4638
   36MOL0     C 4845  11.763   1.076   8.598 -0.0846 -0.4724  0.5093
   36MOL0     C 4846  11.847   1.198   8.645  0.3458  0.0677 -0.5360
   36MOL0     N 4847  11.835   1.308   8.557 -0.2731 -0.4898 -0.1431
   36MOL0     C 4848  11.897   1.327   8.434  0.9106 -0.6587  0.3676
   36MOL0     C 4849  11.829   1.429   8.376 -0.0533 -0.6978 -0.6554
   36MOL0     C 4850  11.876   1.513   8.269  0.2044 -0.0510 -0.5472
   36MOL0     C 4851  12.022   1.553   8.276  0.0805 -0.5502 -0.4813
   36MOL0     C 4852  12.093   1.601   8.142  0.1699  0.1818 -0.1003
   36MOL0     C 4853  12.034   1.736   8.100  0.0396 -1.3398  0.0312
   36MOL0     O 4854  11.916   1.694   8.037 -0.0195 -0.3316  0.1733
   36MOL0     C 4855  11.847   1.788   7.959 -0.3180 -0.0902  0.5329
   36MOL0     C 4856  11.736   1.736   7.893  0.8478  0.3615 -0.7831
   36MOL0     C 4857  11.665   1.828   7.816  0.3041  0.2706 -0.0691
   36MOL0     C 4858  11.555   1.766   7.733 -0.1179  0.0914 -0.9018
   36MOL0     C 4859  11.699   1.962   7.809  0.8272 -0.9095 -0.5170
   36MOL0     C 4860  11.617   2.052   7.726 -0.4664 -0.2126  0.5885
   36MOL0     O 4861  11.503   2.104   7.780 -0.1975 -0.7480  0.0063
   36MOL0     C 4862  11.427   2.188   7.703  0.4881 -0.0561  0.1129
   36MOL0     C 4863  11.299   2.141   7.658 -0.0893 -0.4162  0.0509
   36MOL0     C 4864  11.231   2.221   7.570  0.6000 -0.6362  0.1218
   36MOL0     C 4865  11.283   2.337   7.520 -0.3632 -1.2133  0.6434
   36MOL0     O 4866  11.206   2.408   7.427  0.1437  0.1490 -0.0102
   36MOL0     C 4867  11.253   2.511   7.341  0.8639 -0.8400  1.1743
   36MOL0     C 4868  11.194   2.647   7.376  0.7074 -0.1291 -0.4472
   36MOL0     C 4869  11.046   2.646   7.386 -0.2613  0.8649 -1.1421
   36MOL0     C 4870  10.979   2.633   7.245 -0.7816  0.1882  0.4844
   36MOL0     C 4871  10.825   2.670   7.250  0.0186 -0.3182  0.1787
   36MOL0     C 4872  10.757   2.701   7.128  0.6688 -0.5943 -0.0803
   36MOL0     C 4873  10.720   2.581   7.034  0.0983  0.0148  0.2123
   36MOL0     C 4874  10.641   2.468   7.090  1.2571 -0.1640  0.1852
   36MOL0    Cl 4875  10.483   2.516   7.136  0.5061 -0.0976 -0.1728
   36MOL0     C 4876  11.396   2.390   7.580  0.7478  0.2927 -0.1969
   36MOL0     C 4877  11.468   2.319   7.669  0.5009  0.0019  0.1088
   36MOL0     O 4878  11.663   2.081   7.617 -0.2025 -0.0258  0.0194
   36MOL0     C 4879  11.811   2.011   7.872 -0.1360  0.6246 -0.4306
   36MOL0     C 4880  11.884   1.918   7.951 -0.9223 -0.1299 -0.5836
   36MOL0     N 4881  11.742   1.476   8.473 -0.3564  0.3952  0.9469
   36MOL0     N 4882  11.755   1.412   8.583  0.3634  0.3817 -0.2327
   36MOL0     C 4883  11.019   1.092   9.115  0.2736  0.4334  0.0251
   36MOL0     C 4884  10.892   1.130   9.162 -1.1537 -0.2525 -0.1525
   36MOL0     C 4885  10.422   1.061   9.230  0.3844 -0.7194 -0.2301
   36MOL0     C 4886  10.374   1.099   9.102 -0.0908 -0.0364  0.2797
   36MOL0     C 4887  10.244   1.139   9.084 -0.0139 -1.3554  0.0185
   36MOL0     C 4888  10.153   1.138   9.183  0.2609  0.0441  0.3983
   36MOL0     O 4889  10.030   1.177   9.150  0.2532  0.5542 -0.0439
   36MOL0     C 4890   9.920   1.184   9.239 -1.0637 -0.0048 -0.0410
   36MOL0     C 4891   9.811   1.271   9.176 -0.1603 -0.7033 -0.8168
   36MOL0     C 4892   9.857   1.398   9.118  0.3926 -0.1405  0.1807
   36MOL0     C 4893   9.738   1.488   9.084  0.2542 -0.0813  0.0324
   36MOL0     C 4894   9.670   1.558   9.197  0.1593 -0.4200  0.1531
   36MOL0     C 4895   9.617   1.600   9.297  0.2199 -0.9125  0.4306
   36MOL0     C 4896  10.200   1.113   9.315 -0.2956  0.7907  0.4376
   36MOL0     C 4897  10.334   1.069   9.340  0.5602  0.5590 -0.2082
   36MOL0     C 4898  10.373   1.037   9.488 -0.3575 -0.4141 -0.7585
   36MOL0     H 4899  10.703   0.885   9.033 -1.0017  0.5574  2.4456
   36MOL0     H 4900  10.929   0.784   8.979  0.2654 -1.1054  1.3568
   36MOL0     H 4901  11.157   0.747   8.935  0.4660  1.8932 -1.8379
   36MOL0     H 4902  11.184   0.732   9.101  0.5023  0.6783  0.3174
   36MOL0     H 4903  11.409   0.841   9.068  1.2538 -1.1495 -0.0428
   36MOL0     H 4904  11.396   0.691   8.985  1.0663  0.6754 -2.0123
   36MOL0     H 4905  11.369   0.785   8.769  3.5921 -0.8401 -1.2620
   36MOL0     H 4906  11.342   0.944   8.837 -1.4166 -0.6789  1.8251
   36MOL0     H 4907  11.604   0.903   8.920  1.9817  0.1702 -0.6190
   36MOL0     H 4908  11.594   0.769   8.810  1.2466  0.9754 -1.8963
   36MOL0     H 4909  11.524   1.057   8.723  1.1424  0.1266 -0.1408
   36MOL0     H 4910  11.538   0.914   8.622 -2.1802 -0.4237  0.3912
   36MOL0     H 4911  11.750   1.022   8.811 -0.2070 -1.3617  0.3561
   36MOL0     H 4912  11.777   0.887   8.690 -0.5310 -0.8862  0.0831
   36MOL0     H 4913  11.682   1.123   8.542 -0.9417 -3.4017 -0.9273
   36MOL0     H 4914  11.814   1.026   8.515  0.3107  0.9855 -0.1550
   36MOL0     H 4915  11.812   1.234   8.742 -0.1912 -3.8425  0.9239
   36MOL0     H 4916  11.953   1.170   8.652  0.2530 -0.0234  5.3908
   36MOL0     H 4917  11.988   1.280   8.399  0.1291 -0.8105 -1.5801
   36MOL0     H 4918  11.817   1.606   8.267 -0.6108 -0.5720 -2.1765
   36MOL0     H 4919  11.859   1.461   8.174  5.0402 -1.1653 -1.0587
   36MOL0     H 4920  12.027   1.633   8.350 -1.6928  1.2283 -2.1558
   36MOL0     H 4921  12.086   1.469   8.303  1.1804  0.6385  0.7341
   36MOL0     H 4922  12.201   1.613   8.155  0.1788  3.0333 -1.9641
   36MOL0     H 4923  12.078   1.519   8.070  1.3342 -0.8761  0.8263
   36MOL0     H 4924  12.021   1.803   8.185  0.5146  0.3213 -1.1698
   36MOL0     H 4925  12.097   1.794   8.032  0.6180  0.7655  2.2462
   36MOL0     H 4926  11.721   1.629   7.888  1.9878  0.2083 -1.2241
   36MOL0     H 4927  11.576   1.791   7.629 -2.9504  2.1780 -1.0839
   36MOL0     H 4928  11.458   1.812   7.753  0.4024  0.2550  1.6265
   36MOL0     H 4929  11.553   1.657   7.741 -0.0873 -0.0671 -2.6803
   36MOL0     H 4930  11.260   2.040   7.668 -1.1270 -0.3215 -2.4378
   36MOL0     H 4931  11.137   2.186   7.530 -1.6048  1.6421  2.9612
   36MOL0     H 4932  11.363   2.513   7.339  0.9785 -0.9841 -3.2846
   36MOL0     H 4933  11.226   2.486   7.238  0.5013  1.6715  0.5952
   36MOL0     H 4934  11.234   2.694   7.467  0.0515  0.8716 -0.6636
   36MOL0     H 4935  11.222   2.723   7.303 -2.9875  5.4258  3.1759
   36MOL0     H 4936  11.011   2.740   7.429  1.1367  0.3843  1.2616
   36MOL0     H 4937  11.020   2.576   7.466  1.4950  1.8109  0.3207
   36MOL0     H 4938  10.988   2.528   7.215  0.7098  0.3376  0.3051
   36MOL0     H 4939  11.034   2.700   7.178  0.7320  1.6726  3.0204
   36MOL0     H 4940  10.765   2.597   7.306  0.4750 -1.7527 -1.1189
   36MOL0     H 4941  10.826   2.766   7.303  2.4690 -0.9292  1.3782
   36MOL0     H 4942  10.829   2.759   7.070 -0.3848  1.0510  0.1700
   36MOL0     H 4943  10.669   2.760   7.158  2.3791  1.9142  0.3832
   36MOL0     H 4944  10.811   2.520   7.030 -0.7172 -1.4881  2.4669
   36MOL0     H 4945  10.692   2.608   6.932  1.5614  0.0604 -0.1962
   36MOL0     H 4946  10.680   2.417   7.179 -1.8161 -2.1678  0.5132
   36MOL0     H 4947  10.638   2.392   7.012 -0.0767  0.8569 -0.7899
   36MOL0     H 4948  11.432   2.489   7.551 -4.8373  3.0603  0.9086
   36MOL0     H 4949  11.556   2.368   7.709 -1.5424  2.0916  2.4476
   36MOL0     H 4950  11.853   2.112   7.869  1.8366  0.0157  2.2933
   36MOL0     H 4951  11.957   1.964   8.016 -1.8415 -2.6818  2.5205
   36MOL0     H 4952  11.108   1.152   9.134  1.3679 -1.2751  0.5631
   36MOL0     H 4953  10.883   1.229   9.206 -0.8985  1.2384 -3.1940
   36MOL0     H 4954  10.437   1.099   9.013  0.0103 -0.5304  0.3436
   36MOL0     H 4955  10.220   1.185   8.988  1.0247  2.0532  1.2302
   36MOL0     H 4956   9.870   1.089   9.260 -0.8374  0.0849  0.9694
   36MOL0     H 4957   9.946   1.219   9.339  0.5784 -1.9182  0.2665
   36MOL0     H 4958   9.729   1.295   9.244 -0.0095  1.0821 -1.2119
   36MOL0     H 4959   9.777   1.210   9.092  0.6410 -0.4282 -1.3509
   36MOL0     H 4960   9.920   1.441   9.197 -0.4014 -1.9572  1.9007
   36MOL0     H 4961   9.924   1.376   9.035 -0.0628  0.7935 -0.4462
   36MOL0     H 4962   9.658   1.430   9.037 -0.8718 -0.2288  2.0647
   36MOL0     H 4963   9.779   1.561   9.013  2.4036 -0.4417  0.8386
   36MOL0     H 4964   9.589   1.643   9.391  1.9983  1.6066 -0.0922
   36MOL0     H 4965  10.135   1.125   9.401  0.4335  4.9054  0.6477
   36MOL0     H 4966  10.412   0.939   9.460 -2.6250 -1.5551 -0.1695
   36MOL0     H 4967  10.454   1.102   9.523 -0.2459 -0.7539 -0.3782
   36MOL0     H 4968  10.291   1.019   9.558  0.0459 -0.0438 -0.1826
   37MOL0     O 4969  10.398  11.419   2.352 -0.1094  0.3173  0.0728
   37MOL0     C 4970  10.393  11.358   2.247  0.7304 -0.1847 -0.0967
   37MOL0     O 4971  10.265  11.330   2.181  0.1941  0.2859 -0.8564
   37MOL0     C 4972  10.141  11.370   2.236 -0.5197  0.5362  0.3234
   37MOL0     C 4973  10.112  11.498   2.278 -1.0203 -0.7520 -0.0669
   37MOL0     C 4974   9.990  11.531   2.344  1.0807  0.1125 -0.3249
   37MOL0     C 4975   9.893  11.419   2.359 -0.8338 -0.4951  0.7282
   37MOL0     O 4976   9.776  11.421   2.425  0.4590  0.3191 -0.2277
   37MOL0     C 4977   9.761  11.530   2.518  0.2021  0.4269 -0.1128
   37MOL0     C 4978   9.667  11.491   2.636  0.8280  0.1091 -0.0994
   37MOL0     C 4979   9.631  11.620   2.711 -0.2082 -0.6977  0.1800
   37MOL0     C 4980   9.525  11.606   2.819  0.0733  0.5601 -0.6820
   37MOL0     C 4981   9.395  11.674   2.781  0.1188 -0.5660 -0.2479
   37MOL0     C 4982   9.293  11.671   2.887  0.3228 -0.6632  0.3224
   37MOL0     C 4983   9.183  11.767   2.844 -0.4117 -0.6575  0.6908
   37MOL0     C 4984   9.056  11.746   2.922 -0.0896 -0.7120  0.4135
   37MOL0     N 4985   8.978  11.876   2.943  0.4206  0.3161  0.1763
   37MOL0     C 4986   8.883  11.935   2.864 -0.6709  0.2675  0.4106
   37MOL0     C 4987   8.836  12.040   2.927  0.2605 -0.5602 -0.1271
   37MOL0     C 4988   8.730  12.134   2.880  0.3152 -0.7609  0.5782
   37MOL0     C 4989   8.658  12.176   3.010  0.5701  0.5289 -0.1732
   37MOL0     C 4990   8.513  12.238   2.997  0.4914 -0.1386  0.9343
   37MOL0     C 4991   8.439  12.247   3.138  0.3615 -0.6723  0.5863
   37MOL0     O 4992   8.394  12.113   3.181 -0.3821  0.2622  0.3630
   37MOL0     C 4993   8.299  12.110   3.277 -0.3795 -0.4681 -1.2479
   37MOL0     C 4994   8.276  12.198   3.383  0.6208 -0.7494  0.3316
   37MOL0     C 4995   8.171  12.182   3.475  0.2322  0.3709 -0.1460
   37MOL0     C 4996   8.177  12.293   3.584  0.4377 -0.3040  0.0353
   37MOL0     C 4997   8.076  12.076   3.451  0.3860  0.0929 -0.2456
   37MOL0     C 4998   7.962  12.056   3.539 -0.6315 -0.0299 -0.5512
   37MOL0     O 4999   7.906  11.934   3.532  0.8167 -0.1142  0.7290
   37MOL0     C 5000   7.777  11.925   3.585 -0.4604  1.1322 -0.7688
   37MOL0     C 5001   7.763  11.854   3.705 -0.0698  0.4986 -0.0252
   37MOL0     C 5002   7.631  11.818   3.750 -0.6064 -0.0484  0.4109
   37MOL0     C 5003   7.522  11.845   3.669 -0.0110  0.3498  0.4467
   37MOL0     O 5004   7.392  11.808   3.702  0.1464 -0.8868 -0.2285
   37MOL0     C 5005   7.376  11.689   3.787  0.5902  0.6879 -0.1595
   37MOL0     C 5006   7.368  11.569   3.703  0.1804  1.1228  0.2553
   37MOL0     C 5007   7.292  11.455   3.775 -0.6633 -0.8106  0.2351
   37MOL0     C 5008   7.303  11.315   3.715 -1.0643 -1.1478  0.1792
   37MOL0     C 5009   7.234  11.217   3.805 -0.1896  0.8510  0.8003
   37MOL0     C 5010   7.311  11.176   3.939  0.3982 -0.3774 -0.1345
   37MOL0     C 5011   7.455  11.115   3.913  0.3359  0.6266  0.5430
   37MOL0     C 5012   7.502  11.011   4.027 -0.1241  0.4149  0.4627
   37MOL0    Cl 5013   7.671  10.951   3.999 -0.0227 -0.1861  0.1787
   37MOL0     C 5014   7.543  11.917   3.552  0.6513 -0.0482  0.0777
   37MOL0     C 5015   7.668  11.960   3.511  0.3990 -0.1243 -0.4888
   37MOL0     O 5016   7.919  12.142   3.608  0.0948 -0.5588 -0.1735
   37MOL0     C 5017   8.093  11.989   3.344  0.1375  0.1426  0.0469
   37MOL0     C 5018   8.209  11.996   3.267 -0.8957  0.0601  0.3318
   37MOL0     N 5019   8.914  12.051   3.043 -0.4896  0.8739 -0.1819
   37MOL0     N 5020   8.987  11.941   3.064  0.9658 -0.6202  0.1891
   37MOL0     C 5021   9.923  11.292   2.312 -1.1607 -0.2015 -0.8973
   37MOL0     C 5022  10.045  11.266   2.247 -0.3331  0.7145 -0.3722
   37MOL0     C 5023  10.511  11.306   2.183 -0.6781  0.3076 -0.4863
   37MOL0     C 5024  10.514  11.304   2.043 -0.2164  0.5929 -0.0217
   37MOL0     C 5025  10.626  11.259   1.968 -1.4289  0.1720 -0.1577
   37MOL0     C 5026  10.734  11.214   2.036 -0.3749  0.5201  0.2992
   37MOL0     O 5027  10.842  11.181   1.956 -0.2423  0.1615  0.1975
   37MOL0     C 5028  10.978  11.157   2.001  0.3072  0.3810  0.1034
   37MOL0     C 5029  11.004  11.017   2.053  0.2573  0.3434  0.6532
   37MOL0     C 5030  11.152  10.982   2.105 -0.5050  0.0179 -0.0368
   37MOL0     C 5031  11.162  10.840   2.140 -0.0014  0.1574  0.0176
   37MOL0     C 5032  11.089  10.785   2.256  0.6182 -0.9088 -0.4329
   37MOL0     C 5033  11.026  10.736   2.346  0.5315 -0.4273  0.0603
   37MOL0     C 5034  10.738  11.212   2.177  0.1804 -0.1032  0.6917
   37MOL0     C 5035  10.630  11.259   2.251 -0.1773  0.3279 -0.1946
   37MOL0     C 5036  10.631  11.254   2.405  0.3052 -0.2647  0.0019
   37MOL0     H 5037  10.191  11.572   2.265 -1.9243 -0.1620 -3.0478
   37MOL0     H 5038   9.956  11.622   2.394  0.1203 -0.0110 -0.7378
   37MOL0     H 5039   9.720  11.609   2.454  1.7030 -1.2905 -3.4157
   37MOL0     H 5040   9.859  11.556   2.558  0.2632  2.7714 -1.6019
   37MOL0     H 5041   9.579  11.438   2.598  1.5573 -1.3829  0.2212
   37MOL0     H 5042   9.717  11.417   2.699  2.0243  0.9955  0.0221
   37MOL0     H 5043   9.720  11.643   2.770  0.6756 -1.7917 -0.6786
   37MOL0     H 5044   9.614  11.701   2.640 -0.8655 -1.9118 -1.0944
   37MOL0     H 5045   9.509  11.499   2.834 -1.4867  0.8599 -0.0715
   37MOL0     H 5046   9.572  11.647   2.909 -2.0515 -1.3900  1.4599
   37MOL0     H 5047   9.358  11.652   2.680  4.2789  0.8737 -2.2940
   37MOL0     H 5048   9.425  11.779   2.779  0.7607 -0.7122  1.1119
   37MOL0     H 5049   9.249  11.572   2.900 -2.2262  0.0753 -1.7034
   37MOL0     H 5050   9.331  11.716   2.979  0.5586 -0.3740  0.0879
   37MOL0     H 5051   9.167  11.749   2.737  0.7653 -2.2969  0.7434
   37MOL0     H 5052   9.206  11.873   2.850 -1.7745 -0.1286 -1.7594
   37MOL0     H 5053   8.992  11.671   2.875 -0.7963  0.4662 -0.5756
   37MOL0     H 5054   9.077  11.706   3.021 -2.7679 -1.4947  0.7624
   37MOL0     H 5055   8.862  11.899   2.763 -0.7555  0.2519  0.4341
   37MOL0     H 5056   8.659  12.086   2.813 -2.0895  0.2215  2.3053
   37MOL0     H 5057   8.765  12.225   2.830 -0.0024 -1.7499 -1.5615
   37MOL0     H 5058   8.646  12.089   3.075  0.2081  2.0430  1.8798
   37MOL0     H 5059   8.720  12.234   3.079 -4.5805  4.6799  1.7233
   37MOL0     H 5060   8.519  12.342   2.963 -0.6337 -0.3083  0.1785
   37MOL0     H 5061   8.452  12.176   2.930  0.4938 -1.4083  2.0536
   37MOL0     H 5062   8.494  12.307   3.211 -3.6708  1.0685  2.5015
   37MOL0     H 5063   8.349  12.308   3.123  0.1100 -1.3818 -0.9790
   37MOL0     H 5064   8.327  12.293   3.387 -2.5952  1.1988 -0.6754
   37MOL0     H 5065   8.199  12.242   3.679 -2.3525  0.2667  1.1081
   37MOL0     H 5066   8.088  12.354   3.602 -0.6866 -2.5460  2.8524
   37MOL0     H 5067   8.259  12.359   3.554 -1.1446  1.0136 -1.5562
   37MOL0     H 5068   7.858  11.829   3.751 -1.4970 -2.1344  1.7528
   37MOL0     H 5069   7.621  11.781   3.852 -0.0073 -0.0530  0.4769
   37MOL0     H 5070   7.443  11.692   3.873 -0.8058  1.7466  0.9269
   37MOL0     H 5071   7.277  11.699   3.832  1.1844  0.2138  1.3112
   37MOL0     H 5072   7.320  11.595   3.608 -1.6930  2.4831  1.5062
   37MOL0     H 5073   7.474  11.545   3.690 -0.6843 -2.3058 -2.0529
   37MOL0     H 5074   7.184  11.466   3.779 -0.8327 -0.5469 -2.7930
   37MOL0     H 5075   7.324  11.457   3.879 -0.5521  1.2352  0.2037
   37MOL0     H 5076   7.411  11.298   3.719 -0.8091  0.4687  1.9353
   37MOL0     H 5077   7.266  11.307   3.612 -0.9103  1.0943 -0.1022
   37MOL0     H 5078   7.135  11.252   3.835 -2.0433 -0.8468 -2.7579
   37MOL0     H 5079   7.202  11.130   3.749  2.9707 -0.0443  0.1888
   37MOL0     H 5080   7.251  11.112   4.004  0.6039  1.7918  2.3421
   37MOL0     H 5081   7.343  11.264   3.994  1.7234 -2.2878  2.3258
   37MOL0     H 5082   7.531  11.194   3.911  0.7991  0.2198  1.3789
   37MOL0     H 5083   7.451  11.064   3.816  1.4314  2.1954 -0.3738
   37MOL0     H 5084   7.429  10.930   4.015 -1.1141  1.4687 -1.0075
   37MOL0     H 5085   7.481  11.050   4.127  0.7081 -1.9203  1.6102
   37MOL0     H 5086   7.458  11.928   3.485  0.2547  1.4123  0.7722
   37MOL0     H 5087   7.685  12.015   3.420 -0.9344  1.1099 -0.0253
   37MOL0     H 5088   8.020  11.912   3.321  0.8466 -0.2156 -1.0893
   37MOL0     H 5089   8.221  11.925   3.186 -4.2078  1.0625 -1.2448
   37MOL0     H 5090   9.856  11.207   2.315 -2.8441  1.0402 -1.4308
   37MOL0     H 5091  10.072  11.174   2.195 -0.6368  0.1569  0.4483
   37MOL0     H 5092  10.427  11.344   1.993  0.0840  1.4026  0.0839
   37MOL0     H 5093  10.626  11.252   1.860 -3.3670  1.1575 -0.2630
   37MOL0     H 5094  11.043  11.176   1.915  2.8880 -3.2086  1.0125
   37MOL0     H 5095  11.003  11.224   2.083  1.6784 -1.1238  0.9570
   37MOL0     H 5096  10.964  10.956   1.971 -3.9743 -0.2595  2.8762
   37MOL0     H 5097  10.933  11.019   2.137 -1.4711 -1.0799 -0.6738
   37MOL0     H 5098  11.223  11.015   2.028 -1.7287  1.8127 -0.4513
   37MOL0     H 5099  11.166  11.046   2.192 -1.3484  0.4775 -0.2313
   37MOL0     H 5100  11.269  10.816   2.138 -0.1713 -0.5987 -0.4414
   37MOL0     H 5101  11.133  10.783   2.051 -1.5704 -0.2190  0.7350
   37MOL0     H 5102  10.990  10.702   2.441 -0.4861  2.3133  0.7665
   37MOL0     H 5103  10.825  11.176   2.230 -0.6312 -1.6865  0.9895
   37MOL0     H 5104  10.626  11.351   2.456 -0.1664 -0.4933  0.3918
   37MOL0     H 5105  10.543  11.196   2.434  1.1376 -0.6750  1.8527
   37MOL0     H 5106  10.720  11.204   2.443  0.2847 -0.9512 -0.8117
   38MOL0     O 5107  10.273   8.942   2.280  0.7216 -0.2655 -0.5499
   38MOL0     C 5108  10.313   8.863   2.363  0.4759  0.0112  0.1417
   38MOL0     O 5109  10.421   8.782   2.345  0.0651  0.5773 -0.4689
   38MOL0     C 5110  10.507   8.804   2.237  0.1028  0.4928 -0.8450
   38MOL0     C 5111  10.638   8.839   2.267 -0.4129  0.9854 -0.7472
   38MOL0     C 5112  10.729   8.878   2.167  0.2866  0.0895  0.6446
   38MOL0     C 5113  10.695   8.876   2.030 -0.0755  0.1689  0.2414
   38MOL0     O 5114  10.790   8.902   1.923 -0.3282 -0.0635 -0.9356
   38MOL0     C 5115  10.928   8.905   1.957  0.3060  0.8675 -0.4704
   38MOL0     C 5116  11.009   8.818   1.860 -0.3291 -0.8475  0.0258
   38MOL0     C 5117  10.962   8.673   1.866 -0.5639  0.7442  0.2151
   38MOL0     C 5118  11.066   8.586   1.801  0.6786 -0.0710 -0.5542
   38MOL0     C 5119  11.032   8.429   1.809 -0.0174 -0.4099 -0.2388
   38MOL0     C 5120  11.092   8.368   1.684 -0.5767  0.3151 -0.4849
   38MOL0     C 5121  11.070   8.218   1.675 -0.4926  0.7452  0.7970
   38MOL0     C 5122  11.149   8.146   1.565  0.1807  0.2224  0.3487
   38MOL0     N 5123  11.069   8.134   1.440 -0.3196 -0.0242 -0.0018
   38MOL0     C 5124  10.965   8.047   1.419 -0.3327 -0.0240  0.8481
   38MOL0     C 5125  10.932   8.058   1.288 -0.0205 -0.3221  0.4042
   38MOL0     C 5126  10.817   8.002   1.228  1.4056 -0.0145 -0.1798
   38MOL0     C 5127  10.840   7.857   1.185  0.0364  0.2512  0.2138
   38MOL0     C 5128  10.802   7.762   1.302 -0.7150 -1.3923  0.0670
   38MOL0     C 5129  10.824   7.620   1.257 -0.2836 -0.3580  0.0039
   38MOL0     O 5130  10.759   7.584   1.133  0.2927 -0.1951  0.4723
   38MOL0     C 5131  10.623   7.559   1.126  0.4408  0.0904 -0.8850
   38MOL0     C 5132  10.525   7.571   1.223 -0.6916 -0.6249 -1.3399
   38MOL0     C 5133  10.399   7.529   1.207 -0.0410 -0.1223 -0.3290
   38MOL0     C 5134  10.299   7.549   1.318 -1.0516  0.3655 -0.7274
   38MOL0     C 5135  10.365   7.471   1.079  1.0771 -0.7820 -1.0768
   38MOL0     C 5136  10.233   7.418   1.055  0.6376 -0.4042  0.2605
   38MOL0     O 5137  10.169   7.444   0.935  0.3659  0.2049  0.2215
   38MOL0     C 5138  10.036   7.404   0.909 -0.5290  0.5149 -0.3404
   38MOL0     C 5139   9.939   7.507   0.886 -0.1221  0.4948 -0.0122
   38MOL0     C 5140   9.816   7.472   0.842 -1.2092  0.6959 -0.1677
   38MOL0     C 5141   9.770   7.341   0.833 -0.2613  0.2386 -0.2935
   38MOL0     O 5142   9.643   7.304   0.798  0.1972 -1.2464 -0.0663
   38MOL0     C 5143   9.525   7.378   0.851 -0.2403  0.4205  0.1962
   38MOL0     C 5144   9.393   7.301   0.841  0.8896 -0.4605  0.0372
   38MOL0     C 5145   9.274   7.378   0.890  0.3675  0.0709  0.6393
   38MOL0     C 5146   9.207   7.450   0.764  0.2939 -0.2703  0.4869
   38MOL0     C 5147   9.077   7.517   0.794  0.1881  0.8892  0.5876
   38MOL0     C 5148   9.087   7.629   0.890  0.0555 -0.0216 -0.4086
   38MOL0     C 5149   8.954   7.680   0.936  1.0079 -0.4661 -1.0867
   38MOL0     C 5150   8.870   7.750   0.839  0.1241  0.7989 -0.6932
   38MOL0    Cl 5151   8.790   7.618   0.735  0.1240  0.0258  0.4184
   38MOL0     C 5152   9.864   7.238   0.868  0.8551 -0.5539 -0.1533
   38MOL0     C 5153   9.992   7.273   0.905 -0.8539 -0.5107 -0.5728
   38MOL0     O 5154  10.183   7.350   1.142  0.3356  0.0766 -0.0695
   38MOL0     C 5155  10.460   7.450   0.981 -0.2068 -0.2835 -1.4489
   38MOL0     C 5156  10.592   7.497   1.011  0.1074  0.2896 -0.1294
   38MOL0     N 5157  11.008   8.159   1.232  0.0286  0.6800 -0.3405
   38MOL0     N 5158  11.089   8.201   1.320 -0.2173 -0.0116  0.2628
   38MOL0     C 5159  10.560   8.839   1.999 -1.5029 -0.5632 -0.2623
   38MOL0     C 5160  10.464   8.809   2.099 -0.0051 -0.0651 -0.5752
   38MOL0     C 5161  10.242   8.850   2.488 -0.7375 -0.7683 -1.2630
   38MOL0     C 5162  10.254   8.729   2.562 -0.1506 -0.3862 -0.0328
   38MOL0     C 5163  10.185   8.715   2.691 -0.1100 -0.0622  1.0467
   38MOL0     C 5164  10.108   8.821   2.736  1.1198 -0.1225  0.2835
   38MOL0     O 5165  10.051   8.795   2.864  0.3166  0.1394  0.5442
   38MOL0     C 5166   9.978   8.906   2.921 -0.5227  0.6433 -0.4075
   38MOL0     C 5167   9.923   8.868   3.060 -0.0543 -0.0902  0.0979
   38MOL0     C 5168   9.846   8.731   3.058 -1.3243  0.0655  0.8476
   38MOL0     C 5169   9.776   8.721   3.193  0.0615 -0.0019 -0.0062
   38MOL0     C 5170   9.678   8.614   3.191 -1.0506 -0.5555  0.0261
   38MOL0     C 5171   9.603   8.525   3.176 -0.2135  0.1486  0.0502
   38MOL0     C 5172  10.100   8.942   2.669  0.4878  0.3588  0.0298
   38MOL0     C 5173  10.166   8.960   2.547 -0.7016  0.6306  0.7177
   38MOL0     C 5174  10.163   9.101   2.488  1.2044  0.6912  0.5075
   38MOL0     H 5175  10.660   8.860   2.371 -2.4586 -2.1403  0.4739
   38MOL0     H 5176  10.821   8.928   2.196  0.7656  0.1549 -0.8703
   38MOL0     H 5177  10.961   8.875   2.057  0.9499  2.3080 -0.2237
   38MOL0     H 5178  10.974   9.003   1.939  0.5883  0.3975 -2.5868
   38MOL0     H 5179  10.994   8.868   1.764  1.8030  0.6952  0.4375
   38MOL0     H 5180  11.111   8.831   1.897 -1.0847  0.8506  1.6617
   38MOL0     H 5181  10.964   8.640   1.970 -2.5679 -0.9146 -0.2014
   38MOL0     H 5182  10.869   8.663   1.809 -0.5382 -1.0100  0.4267
   38MOL0     H 5183  11.040   8.628   1.703  0.9083  0.1489 -0.5210
   38MOL0     H 5184  11.172   8.606   1.820  0.5715  1.1876 -1.1677
   38MOL0     H 5185  10.923   8.420   1.807 -0.4321  2.2507  2.5144
   38MOL0     H 5186  11.065   8.384   1.903 -1.1914  1.7507  1.2995
   38MOL0     H 5187  11.062   8.414   1.590 -1.0815 -1.9649 -1.5256
   38MOL0     H 5188  11.201   8.376   1.695 -0.3296 -3.1173  1.0289
   38MOL0     H 5189  10.962   8.205   1.664 -0.6667 -0.5017  3.2518
   38MOL0     H 5190  11.093   8.179   1.774 -3.1321 -0.2492  1.0882
   38MOL0     H 5191  11.246   8.191   1.541  0.5528  0.7491  2.6544
   38MOL0     H 5192  11.172   8.048   1.606  4.0011  1.3478  1.3223
   38MOL0     H 5193  10.920   7.976   1.487 -4.2232  1.2457 -0.1100
   38MOL0     H 5194  10.797   8.073   1.147  1.6301  0.2820  0.0229
   38MOL0     H 5195  10.722   8.008   1.283 -0.7480  0.5836 -3.6789
   38MOL0     H 5196  10.783   7.839   1.093  2.9077 -1.1525 -1.4598
   38MOL0     H 5197  10.947   7.840   1.168 -0.2260 -1.1258 -0.1765
   38MOL0     H 5198  10.864   7.767   1.392  0.9489  1.0136 -1.1199
   38MOL0     H 5199  10.702   7.796   1.331  1.1822  2.0610  3.4613
   38MOL0     H 5200  10.931   7.597   1.262 -0.2420  0.0855  2.7771
   38MOL0     H 5201  10.779   7.555   1.333  0.0628 -1.1709 -0.4783
   38MOL0     H 5202  10.545   7.621   1.317  0.7141  0.2826 -2.0816
   38MOL0     H 5203  10.325   7.647   1.359  3.6577 -0.8467 -0.2481
   38MOL0     H 5204  10.294   7.474   1.397  1.1304  2.1160  1.2206
   38MOL0     H 5205  10.199   7.564   1.276 -2.2126 -3.2357  0.3763
   38MOL0     H 5206   9.967   7.611   0.896 -2.9790  1.3769 -0.5225
   38MOL0     H 5207   9.742   7.550   0.825 -0.7887  0.9640 -0.7849
   38MOL0     H 5208   9.532   7.402   0.957  2.1334  0.2423  0.1470
   38MOL0     H 5209   9.521   7.471   0.794 -0.5320 -0.4759 -1.3127
   38MOL0     H 5210   9.377   7.266   0.738  0.0649 -0.3791  0.1333
   38MOL0     H 5211   9.401   7.212   0.904  0.0239 -0.9590 -0.5370
   38MOL0     H 5212   9.312   7.449   0.964  3.5543 -0.0419 -0.7183
   38MOL0     H 5213   9.204   7.309   0.936 -0.8832 -1.5386 -3.2397
   38MOL0     H 5214   9.203   7.379   0.681  0.5957 -0.6946  0.8379
   38MOL0     H 5215   9.280   7.523   0.727  0.3679 -0.6145 -0.0555
   38MOL0     H 5216   9.045   7.556   0.697  0.5899 -2.0198 -0.8443
   38MOL0     H 5217   9.005   7.442   0.828 -2.6996  2.2617 -2.0226
   38MOL0     H 5218   9.149   7.711   0.852 -2.2374  3.9013  3.3722
   38MOL0     H 5219   9.147   7.605   0.979 -0.2673  0.1450 -0.1460
   38MOL0     H 5220   8.983   7.760   1.004  2.0247 -2.3473  0.8299
   38MOL0     H 5221   8.899   7.608   0.998 -1.6208  0.7699 -1.8344
   38MOL0     H 5222   8.930   7.821   0.783 -0.2678  0.7104 -1.2306
   38MOL0     H 5223   8.791   7.803   0.892  0.2548 -2.1397  2.9141
   38MOL0     H 5224   9.822   7.138   0.866 -1.1331  0.2230  0.0491
   38MOL0     H 5225  10.062   7.192   0.922 -1.0201 -0.0898  2.6470
   38MOL0     H 5226  10.443   7.389   0.893  3.4276 -2.0453 -1.0958
   38MOL0     H 5227  10.661   7.465   0.933  0.6741 -2.4410  1.3489
   38MOL0     H 5228  10.548   8.843   1.891 -0.3104 -0.0448 -0.3883
   38MOL0     H 5229  10.365   8.770   2.077  0.6093 -2.5570  0.7972
   38MOL0     H 5230  10.292   8.647   2.502 -0.7173 -0.9839  0.4104
   38MOL0     H 5231  10.205   8.626   2.751 -2.2093 -1.0819  0.3080
   38MOL0     H 5232  10.052   8.985   2.943  0.9332 -0.5662 -0.8012
   38MOL0     H 5233   9.895   8.934   2.856 -1.9997 -1.8051  0.3315
   38MOL0     H 5234   9.852   8.946   3.090 -0.8275 -0.5294 -0.5494
   38MOL0     H 5235  10.001   8.870   3.136  0.0164  1.9717  0.0273
   38MOL0     H 5236   9.770   8.742   2.980  1.5329  1.9942 -1.9623
   38MOL0     H 5237   9.901   8.640   3.031  1.8378  1.3706  2.3090
   38MOL0     H 5238   9.715   8.806   3.224  0.7055  0.8156 -0.9287
   38MOL0     H 5239   9.862   8.708   3.259  1.0607 -0.5675 -1.3504
   38MOL0     H 5240   9.539   8.440   3.161  1.4175 -0.6804 -2.9676
   38MOL0     H 5241  10.053   9.027   2.719 -0.4286 -1.4682  2.4377
   38MOL0     H 5242  10.153   9.181   2.563 -1.7644  0.7867  0.1491
   38MOL0     H 5243  10.253   9.127   2.432 -0.1525  2.1789 -1.1235
   38MOL0     H 5244  10.084   9.104   2.413  0.4933 -1.7846  1.0846
   39MOL0     O 5245   9.334   2.421   8.669 -0.0494 -0.8169 -0.2927
   39MOL0     C 5246   9.442   2.384   8.617  0.3271 -1.4288  0.7401
   39MOL0     O 5247   9.479   2.422   8.493  0.3852  0.3547  0.5716
   39MOL0     C 5248   9.397   2.512   8.422 -0.1577  0.4178 -0.3480
   39MOL0     C 5249   9.296   2.464   8.337 -0.6904 -0.2886 -0.1491
   39MOL0     C 5250   9.233   2.550   8.255  0.1779  1.5482  0.4893
   39MOL0     C 5251   9.267   2.688   8.263  0.2437 -0.2546 -0.2050
   39MOL0     O 5252   9.222   2.779   8.175  0.5666 -0.1542  0.3736
   39MOL0     C 5253   9.134   2.871   8.235 -1.0739 -0.0047 -0.2113
   39MOL0     C 5254   9.001   2.880   8.171  0.0009 -0.4484  0.3925
   39MOL0     C 5255   8.933   3.016   8.213 -0.3282  0.0728  0.2915
   39MOL0     C 5256   8.808   3.032   8.121 -0.8760  0.0266  0.1475
   39MOL0     C 5257   8.683   3.008   8.210  0.3930  0.1197  0.4131
   39MOL0     C 5258   8.550   2.980   8.142 -0.2141  0.0253 -0.1404
   39MOL0     C 5259   8.544   2.830   8.116 -0.4122  0.4899 -0.1219
   39MOL0     C 5260   8.391   2.794   8.097  0.6894  0.6677  1.1678
   39MOL0     N 5261   8.321   2.889   8.014 -0.5720  0.0334  0.6027
   39MOL0     C 5262   8.239   2.985   8.060  0.1915  0.8965 -0.2017
   39MOL0     C 5263   8.175   3.022   7.945  0.6343  0.0070 -0.5934
   39MOL0     C 5264   8.058   3.116   7.940 -0.6319 -0.4029 -0.0435
   39MOL0     C 5265   7.932   3.052   7.980 -0.1450  0.4658  0.2241
   39MOL0     C 5266   7.821   3.149   7.932 -0.0838  0.6794  0.2800
   39MOL0     C 5267   7.686   3.113   7.991  0.5120 -0.4985  0.0739
   39MOL0     O 5268   7.682   3.164   8.124  0.8179  0.2051  0.7453
   39MOL0     C 5269   7.586   3.258   8.171 -0.2305  0.6717  0.2974
   39MOL0     C 5270   7.508   3.338   8.087  0.4934 -1.1221  0.7602
   39MOL0     C 5271   7.404   3.414   8.132 -0.6732 -1.2783 -0.1742
   39MOL0     C 5272   7.343   3.509   8.034 -0.0570 -0.0855 -0.0388
   39MOL0     C 5273   7.377   3.409   8.273  1.2109 -0.6464 -0.0654
   39MOL0     C 5274   7.257   3.485   8.325  0.5183  0.0521 -0.0315
   39MOL0     O 5275   7.135   3.502   8.255 -0.2431  0.2516  0.5081
   39MOL0     C 5276   7.036   3.582   8.298 -0.4401 -0.3935 -0.6030
   39MOL0     C 5277   6.902   3.542   8.274 -0.4052 -0.6422 -0.1594
   39MOL0     C 5278   6.797   3.611   8.337  0.0945 -0.2714 -0.0311
   39MOL0     C 5279   6.815   3.729   8.404  0.2226  0.4939  0.6245
   39MOL0     O 5280   6.724   3.809   8.463  0.0653 -0.7296 -0.0771
   39MOL0     C 5281   6.593   3.789   8.415  0.7531  0.8897 -0.2493
   39MOL0     C 5282   6.500   3.901   8.458  0.2171  0.3091  0.3256
   39MOL0     C 5283   6.548   4.040   8.391  0.1707 -0.3032  0.1536
   39MOL0     C 5284   6.456   4.157   8.429  0.4248 -0.5341 -0.6251
   39MOL0     C 5285   6.518   4.284   8.356 -0.0286 -0.2370 -0.0768
   39MOL0     C 5286   6.491   4.285   8.209  0.1158 -0.3968  0.6805
   39MOL0     C 5287   6.537   4.419   8.143  0.4661  0.4657  1.0568
   39MOL0     C 5288   6.589   4.400   8.000  0.5023  0.7249  0.6987
   39MOL0    Cl 5289   6.468   4.360   7.873  0.6964  0.2278 -0.2207
   39MOL0     C 5290   6.949   3.779   8.411 -0.7041 -0.0528  0.4834
   39MOL0     C 5291   7.058   3.706   8.366 -0.3784 -0.6498  0.2905
   39MOL0     O 5292   7.274   3.524   8.441 -0.4839  0.0479  0.0883
   39MOL0     C 5293   7.461   3.332   8.363 -0.1269 -1.0406 -0.2591
   39MOL0     C 5294   7.575   3.262   8.315  0.1585 -0.3224 -0.5346
   39MOL0     N 5295   8.217   2.939   7.841 -0.3848  0.5237 -0.5239
   39MOL0     N 5296   8.296   2.853   7.886  1.1350 -0.1892  0.3097
   39MOL0     C 5297   9.363   2.741   8.348 -1.3141  0.2781 -0.3999
   39MOL0     C 5298   9.426   2.647   8.429 -0.1026  0.1609  0.2538
   39MOL0     C 5299   9.537   2.334   8.717 -0.0642 -1.2719  0.1910
   39MOL0     C 5300   9.669   2.374   8.692 -0.0470  0.0675  0.5846
   39MOL0     C 5301   9.772   2.339   8.779  0.2921  0.2722 -0.0928
   39MOL0     C 5302   9.740   2.263   8.890  0.1910  0.1604  0.8420
   39MOL0     O 5303   9.855   2.236   8.969 -0.0174 -0.3037  0.2631
   39MOL0     C 5304   9.850   2.157   9.085 -0.5072  0.4292  0.1914
   39MOL0     C 5305   9.829   2.000   9.067  0.3168 -0.1955  0.6519
   39MOL0     C 5306   9.879   1.925   9.190  0.5871  0.0334  1.0701
   39MOL0     C 5307   9.812   1.948   9.330 -0.1907  0.2813  0.3467
   39MOL0     C 5308   9.854   2.070   9.397 -1.2221 -0.9301 -0.0452
   39MOL0     C 5309   9.881   2.177   9.456 -0.5873  0.2157  0.0029
   39MOL0     C 5310   9.607   2.211   8.911 -0.2139 -0.7094 -0.8636
   39MOL0     C 5311   9.508   2.257   8.827 -0.4938 -0.1677  0.2181
   39MOL0     C 5312   9.376   2.195   8.857 -0.4549 -0.4321  0.6704
   39MOL0     H 5313   9.268   2.359   8.337  0.2719 -0.6338  2.8131
   39MOL0     H 5314   9.158   2.515   8.184 -1.7254 -1.3939  3.6852
   39MOL0     H 5315   9.179   2.971   8.240 -0.1779 -0.4408  0.7007
   39MOL0     H 5316   9.116   2.835   8.336  2.8888 -1.0673  0.2517
   39MOL0     H 5317   9.023   2.870   8.064 -0.2862 -0.5863  0.3452
   39MOL0     H 5318   8.935   2.808   8.220 -0.1469  0.7348  1.9978
   39MOL0     H 5319   8.907   3.007   8.319 -1.3770 -0.5635 -0.0088
   39MOL0     H 5320   9.001   3.099   8.195  3.3411 -2.8288 -0.4925
   39MOL0     H 5321   8.805   3.136   8.087  2.6288 -0.7887 -3.3727
   39MOL0     H 5322   8.799   2.965   8.035 -1.6486  1.8106 -1.2233
   39MOL0     H 5323   8.671   3.101   8.266 -0.8786 -2.0044  4.0132
   39MOL0     H 5324   8.713   2.925   8.275 -0.2207  0.4527  1.1302
   39MOL0     H 5325   8.470   3.005   8.212 -0.2675  1.8908 -0.7901
   39MOL0     H 5326   8.544   3.051   8.058  1.8374 -1.9853 -2.1446
   39MOL0     H 5327   8.582   2.759   8.189 -2.5245 -1.4895 -0.7810
   39MOL0     H 5328   8.598   2.803   8.024 -1.0964 -2.8073  0.3023
   39MOL0     H 5329   8.382   2.693   8.057  1.8367 -0.8860  4.4165
   39MOL0     H 5330   8.343   2.802   8.196 -0.4881  1.2510  0.5778
   39MOL0     H 5331   8.212   3.006   8.163  1.3589 -0.8303  0.4939
   39MOL0     H 5332   8.054   3.161   7.840 -0.8273 -0.5776 -0.1154
   39MOL0     H 5333   8.069   3.201   8.008 -3.2932  1.1515 -1.3546
   39MOL0     H 5334   7.919   2.964   7.917  1.6849  0.7632 -0.6439
   39MOL0     H 5335   7.919   3.029   8.086 -1.3260 -1.7012 -0.3264
   39MOL0     H 5336   7.864   3.244   7.965  1.7858 -0.6211  1.7168
   39MOL0     H 5337   7.806   3.137   7.824 -1.9964 -0.4308  0.6156
   39MOL0     H 5338   7.607   3.160   7.931  2.1471  0.6286 -1.3153
   39MOL0     H 5339   7.666   3.006   7.996 -2.0386 -0.0319  3.0195
   39MOL0     H 5340   7.507   3.343   7.978 -6.4586 -0.3698  0.3726
   39MOL0     H 5341   7.238   3.484   8.049 -0.2970  1.3362  0.8410
   39MOL0     H 5342   7.365   3.489   7.929 -0.4445 -0.4335 -0.0555
   39MOL0     H 5343   7.357   3.617   8.045  1.1595  0.0666 -2.3349
   39MOL0     H 5344   6.868   3.454   8.221 -1.8756  0.8410 -1.7984
   39MOL0     H 5345   6.698   3.567   8.334 -0.2335  0.4919 -1.3209
   39MOL0     H 5346   6.587   3.771   8.307 -0.5752  2.3752 -0.4638
   39MOL0     H 5347   6.564   3.697   8.467 -2.9030  0.8438 -2.0456
   39MOL0     H 5348   6.396   3.870   8.440  0.9699 -2.7308  0.6392
   39MOL0     H 5349   6.489   3.906   8.567  1.2930  0.8535  0.4208
   39MOL0     H 5350   6.564   4.023   8.284 -2.4387  0.4769 -0.4285
   39MOL0     H 5351   6.639   4.063   8.447 -0.0433  0.4732  0.1835
   39MOL0     H 5352   6.450   4.176   8.536 -0.3285  2.0656 -1.0444
   39MOL0     H 5353   6.348   4.156   8.408 -0.2069 -1.4546  2.2425
   39MOL0     H 5354   6.454   4.365   8.394  0.1026 -1.0061  1.9083
   39MOL0     H 5355   6.625   4.294   8.378 -0.6853 -0.8665  4.4146
   39MOL0     H 5356   6.384   4.261   8.205  0.7460 -3.5929 -0.2474
   39MOL0     H 5357   6.525   4.197   8.155 -0.8149 -0.0536 -0.4928
   39MOL0     H 5358   6.615   4.483   8.185  1.3324  2.0639 -2.6049
   39MOL0     H 5359   6.451   4.486   8.144 -0.8785 -1.1822  0.1037
   39MOL0     H 5360   6.657   4.314   7.994 -2.3719 -1.6322 -0.6222
   39MOL0     H 5361   6.649   4.486   7.969  0.0536  0.7911 -0.0279
   39MOL0     H 5362   6.969   3.870   8.467 -0.2778  0.0371  0.1851
   39MOL0     H 5363   7.157   3.746   8.381  0.1790 -1.3187 -1.3247
   39MOL0     H 5364   7.432   3.329   8.467 -0.2586 -2.1028 -0.3206
   39MOL0     H 5365   7.639   3.192   8.368 -0.2051 -0.3163 -0.0784
   39MOL0     H 5366   9.380   2.846   8.365  0.6769  0.1262 -1.1757
   39MOL0     H 5367   9.507   2.675   8.496  1.1389 -2.2529 -0.1118
   39MOL0     H 5368   9.691   2.446   8.614  0.7990 -2.8304 -2.0934
   39MOL0     H 5369   9.866   2.389   8.758 -1.2082  4.9922  2.9043
   39MOL0     H 5370   9.948   2.160   9.133 -0.1830 -1.6285 -0.2061
   39MOL0     H 5371   9.776   2.199   9.153 -2.1716  1.0944 -1.9060
   39MOL0     H 5372   9.885   1.976   8.976 -1.2451  0.6368 -0.6000
   39MOL0     H 5373   9.722   1.981   9.051 -0.0039  1.8224  0.0879
   39MOL0     H 5374   9.860   1.821   9.160  0.7497  0.3807 -0.2932
   39MOL0     H 5375   9.986   1.936   9.207  0.2747 -1.1827  4.7398
   39MOL0     H 5376   9.843   1.870   9.400  3.0665  1.4885  0.4390
   39MOL0     H 5377   9.703   1.954   9.325 -0.0888  1.9591 -0.7089
   39MOL0     H 5378   9.905   2.257   9.523  0.9531 -0.9332  0.9041
   39MOL0     H 5379   9.600   2.143   8.995 -1.1982  0.6451  0.1901
   39MOL0     H 5380   9.337   2.163   8.760  1.4015  2.3228 -1.1114
   39MOL0     H 5381   9.387   2.119   8.934  1.8258  0.1442  0.9679
   39MOL0     H 5382   9.306   2.275   8.885  0.3413 -0.0243  1.5495
   40MOL0     O 5383   0.820   0.779   5.349  0.4388  0.0368 -0.5333
   40MOL0     C 5384   0.869   0.841   5.253  0.7486 -0.9267  0.7743
   40MOL0     O 5385   0.989   0.826   5.191 -0.2818 -0.2487  0.0172
   40MOL0     C 5386   1.065   0.719   5.233  0.3397 -0.9217  0.4820
   40MOL0     C 5387   1.162   0.725   5.327 -0.4935 -0.3732 -0.1708
   40MOL0     C 5388   1.222   0.609   5.375 -0.1215 -0.6053  0.8720
   40MOL0     C 5389   1.173   0.480   5.346 -0.1633 -0.1990  0.7115
   40MOL0     O 5390   1.222   0.364   5.397 -0.7042  0.4699  0.1031
   40MOL0     C 5391   1.318   0.377   5.509  0.8611  0.5044  0.0397
   40MOL0     C 5392   1.467   0.383   5.462  0.9774 -0.5345  0.4330
   40MOL0     C 5393   1.515   0.246   5.419 -0.0692  0.1246  0.8907
   40MOL0     C 5394   1.584   0.163   5.523  0.2992 -0.6723  0.7771
   40MOL0     C 5395   1.645   0.036   5.463  0.2228 -0.0534 -0.6952
   40MOL0     C 5396   1.690  -0.073   5.572 -0.0555 -0.5831  1.0353
   40MOL0     C 5397   1.750  -0.198   5.507 -0.0793 -0.5641 -0.5061
   40MOL0     C 5398   1.818  -0.290   5.610  0.4538 -0.1467 -0.1327
   40MOL0     N 5399   1.716  -0.375   5.672  0.1211 -0.0017  0.0997
   40MOL0     C 5400   1.662  -0.491   5.626  0.4847  0.4781 -0.1788
   40MOL0     C 5401   1.590  -0.532   5.729  0.5523  0.0261  0.1574
   40MOL0     C 5402   1.522  -0.662   5.734  0.3166  0.8058  0.6384
   40MOL0     C 5403   1.399  -0.648   5.642 -0.8711  0.1305 -0.7296
   40MOL0     C 5404   1.323  -0.781   5.650  0.8144 -0.8778  0.2739
   40MOL0     C 5405   1.201  -0.790   5.559 -0.2175  0.0233 -0.7264
   40MOL0     O 5406   1.101  -0.705   5.614  0.6873 -0.8378  0.6382
   40MOL0     C 5407   1.032  -0.620   5.535  1.0370 -0.4052 -0.7758
   40MOL0     C 5408   1.080  -0.553   5.439  0.6963 -0.4789 -0.2606
   40MOL0     C 5409   1.001  -0.465   5.358 -0.7383  0.3030  0.5702
   40MOL0     C 5410   1.074  -0.382   5.251 -0.1107 -0.2581 -0.3502
   40MOL0     C 5411   0.862  -0.457   5.381 -0.3301  0.4802 -0.2025
   40MOL0     C 5412   0.778  -0.364   5.314  0.1496 -0.1842  0.0057
   40MOL0     O 5413   0.818  -0.308   5.193  0.2443  0.1898 -0.6167
   40MOL0     C 5414   0.729  -0.223   5.128  0.2401 -0.2867 -0.1888
   40MOL0     C 5415   0.670  -0.111   5.184 -0.0545  0.0201  0.7001
   40MOL0     C 5416   0.577  -0.034   5.103 -0.2071  0.3515 -0.6908
   40MOL0     C 5417   0.541  -0.064   4.975  0.9119  0.7217 -0.6700
   40MOL0     O 5418   0.455   0.018   4.906 -0.8965 -0.1611 -0.3059
   40MOL0     C 5419   0.511   0.145   4.868  0.5614 -0.2318  0.1509
   40MOL0     C 5420   0.404   0.206   4.763 -0.5698 -0.0052 -0.6037
   40MOL0     C 5421   0.374   0.115   4.649 -0.4954  0.7578  0.2236
   40MOL0     C 5422   0.281   0.183   4.547 -0.3988 -0.1718 -1.6492
   40MOL0     C 5423   0.272   0.112   4.414  0.9183  0.9144 -0.0104
   40MOL0     C 5424   0.149   0.147   4.338 -0.4242  0.7303 -0.6262
   40MOL0     C 5425   0.110   0.047   4.222  0.8146  0.9741  0.1927
   40MOL0     C 5426   0.068   0.114   4.091 -0.6057 -0.0630  0.0748
   40MOL0    Cl 5427  -0.089   0.193   4.110  0.1855  0.2216 -0.0285
   40MOL0     C 5428   0.605  -0.173   4.918  0.7306  0.8352  0.4837
   40MOL0     C 5429   0.700  -0.246   4.992 -0.1908 -0.3545 -0.9520
   40MOL0     O 5430   0.670  -0.353   5.368 -0.7310 -0.0040 -0.8594
   40MOL0     C 5431   0.809  -0.525   5.497  0.1254  0.2666  0.2450
   40MOL0     C 5432   0.886  -0.614   5.573 -0.0517 -0.0850 -0.0573
   40MOL0     N 5433   1.596  -0.440   5.830 -0.3391  0.0096 -0.6804
   40MOL0     N 5434   1.660  -0.340   5.792 -0.3847 -1.8313 -0.4586
   40MOL0     C 5435   1.083   0.477   5.239  0.9685 -0.0581 -0.1991
   40MOL0     C 5436   1.026   0.590   5.179 -0.1798  0.5365  0.0023
   40MOL0     C 5437   0.775   0.930   5.187  0.1902 -0.8602  0.0442
   40MOL0     C 5438   0.779   0.928   5.044 -0.1530  0.0080 -0.3273
   40MOL0     C 5439   0.705   1.004   4.960  0.7538  0.3680 -0.8501
   40MOL0     C 5440   0.616   1.088   5.014  0.0195 -0.3940  0.0730
   40MOL0     O 5441   0.549   1.171   4.925 -0.8387 -0.2577 -0.7813
   40MOL0     C 5442   0.443   1.243   4.978 -1.2897 -0.1944  0.6783
   40MOL0     C 5443   0.362   1.291   4.853 -0.5979 -0.8412 -0.4607
   40MOL0     C 5444   0.298   1.187   4.776  0.3429 -0.3570 -0.8528
   40MOL0     C 5445   0.211   1.252   4.671 -0.6135 -0.5472  0.1672
   40MOL0     C 5446   0.102   1.331   4.725 -0.5141  0.3453  0.0714
   40MOL0     C 5447   0.000   1.381   4.763 -0.5769 -0.6401  0.4246
   40MOL0     C 5448   0.607   1.099   5.162 -0.1318 -0.5614  0.1276
   40MOL0     C 5449   0.675   1.015   5.250  0.2384 -0.1539  0.1531
   40MOL0     C 5450   0.651   1.040   5.396 -0.1899  0.1789 -0.6939
   40MOL0     H 5451   1.182   0.823   5.368 -0.1918 -0.8398  0.8562
   40MOL0     H 5452   1.298   0.619   5.451  0.5882  0.3028  0.0743
   40MOL0     H 5453   1.330   0.286   5.569  1.1490  1.7547  1.9536
   40MOL0     H 5454   1.282   0.455   5.576 -1.3882  0.9076 -1.5300
   40MOL0     H 5455   1.467   0.442   5.370  1.5279 -0.2550  0.6064
   40MOL0     H 5456   1.540   0.438   5.523  1.0861 -1.2879  0.9990
   40MOL0     H 5457   1.431   0.187   5.381  0.3114 -0.2675  0.6355
   40MOL0     H 5458   1.585   0.268   5.338  0.1921  2.2100  1.6246
   40MOL0     H 5459   1.653   0.233   5.571 -1.7506  1.7734  0.3208
   40MOL0     H 5460   1.504   0.128   5.589 -1.1628 -0.4491 -0.8060
   40MOL0     H 5461   1.725   0.062   5.394  0.1705  4.7757  0.7147
   40MOL0     H 5462   1.562  -0.008   5.406  0.1388  0.0765 -0.6732
   40MOL0     H 5463   1.771  -0.027   5.628  0.5637  0.7854 -0.8793
   40MOL0     H 5464   1.611  -0.101   5.641 -0.2683  0.0066  1.0345
   40MOL0     H 5465   1.820  -0.170   5.427  1.0144 -3.9602 -0.8934
   40MOL0     H 5466   1.660  -0.236   5.457  0.5805  1.5066 -3.5252
   40MOL0     H 5467   1.895  -0.342   5.552  2.1097  2.7188 -0.6879
   40MOL0     H 5468   1.871  -0.229   5.684  0.4925 -2.4389  1.8638
   40MOL0     H 5469   1.681  -0.542   5.532 -1.9286 -2.4356  0.7433
   40MOL0     H 5470   1.469  -0.687   5.826 -2.5924 -0.6386 -1.2782
   40MOL0     H 5471   1.583  -0.747   5.702  1.6492  1.6086  0.9272
   40MOL0     H 5472   1.344  -0.561   5.679  0.1937 -0.5179  2.7041
   40MOL0     H 5473   1.429  -0.628   5.538  0.9774 -2.3021 -0.7660
   40MOL0     H 5474   1.388  -0.865   5.623 -0.6800 -2.2031  0.6730
   40MOL0     H 5475   1.290  -0.812   5.750 -0.2929  1.1882  0.6147
   40MOL0     H 5476   1.229  -0.784   5.453 -2.0985  1.4437 -1.2005
   40MOL0     H 5477   1.164  -0.892   5.569 -1.3413  0.5553  0.9501
   40MOL0     H 5478   1.187  -0.549   5.418  0.8687 -1.0499  0.4803
   40MOL0     H 5479   1.059  -0.274   5.253  0.4423 -0.1618 -0.9166
   40MOL0     H 5480   1.042  -0.412   5.150 -0.1496 -0.2288 -0.3462
   40MOL0     H 5481   1.182  -0.393   5.261  0.1677  3.0309  1.5554
   40MOL0     H 5482   0.696  -0.086   5.287  0.1937 -2.6921  1.3520
   40MOL0     H 5483   0.538   0.058   5.145 -0.7255 -0.8701  1.6438
   40MOL0     H 5484   0.525   0.220   4.947 -0.1128  0.5052 -0.4180
   40MOL0     H 5485   0.608   0.127   4.821 -0.1238 -4.0216 -0.1200
   40MOL0     H 5486   0.311   0.218   4.820 -0.1841 -3.2557  0.8985
   40MOL0     H 5487   0.447   0.299   4.724  2.1640 -1.0186 -0.1851
   40MOL0     H 5488   0.318   0.028   4.685 -1.7682  2.0395  1.4557
   40MOL0     H 5489   0.464   0.075   4.602 -0.9710 -0.3817  0.2490
   40MOL0     H 5490   0.321   0.283   4.530  0.3592 -0.0093  0.7460
   40MOL0     H 5491   0.181   0.195   4.589  0.4184  1.2720  0.0075
   40MOL0     H 5492   0.353   0.142   4.347 -1.8392  2.0241 -3.1302
   40MOL0     H 5493   0.283   0.004   4.426  2.9993  0.7164 -2.8490
   40MOL0     H 5494   0.158   0.250   4.302 -1.8256  0.9288 -0.4461
   40MOL0     H 5495   0.073   0.139   4.416  2.5814 -3.7986  2.2914
   40MOL0     H 5496   0.033  -0.017   4.266 -0.4865  1.4497 -1.3343
   40MOL0     H 5497   0.197  -0.014   4.197 -0.1551 -0.8699  1.1168
   40MOL0     H 5498   0.044   0.042   4.012 -1.4332  2.1111 -1.7778
   40MOL0     H 5499   0.139   0.191   4.061 -1.9218  0.6260 -1.3953
   40MOL0     H 5500   0.587  -0.198   4.814  1.9123 -1.2464  0.7331
   40MOL0     H 5501   0.764  -0.325   4.953  1.2823 -0.2274  1.0630
   40MOL0     H 5502   0.703  -0.519   5.519 -0.4025  0.2938 -2.0792
   40MOL0     H 5503   0.837  -0.674   5.649 -2.5806  0.4341 -1.1838
   40MOL0     H 5504   1.039   0.380   5.216 -1.5913  1.3329 -1.6918
   40MOL0     H 5505   0.942   0.584   5.111  0.6959 -0.3983 -1.0187
   40MOL0     H 5506   0.861   0.872   4.999  0.6336 -1.5725  2.7746
   40MOL0     H 5507   0.715   0.992   4.853  1.1895 -0.4556 -0.7225
   40MOL0     H 5508   0.376   1.184   5.041  0.7577 -0.8500  2.3744
   40MOL0     H 5509   0.480   1.331   5.032  2.6011 -0.2494 -1.5334
   40MOL0     H 5510   0.419   1.360   4.791  0.9140 -0.0217  1.7197
   40MOL0     H 5511   0.283   1.347   4.904 -0.4270 -2.9050  2.3578
   40MOL0     H 5512   0.361   1.118   4.719  2.5099  1.1242 -0.3819
   40MOL0     H 5513   0.237   1.135   4.850  1.5532  0.0610  0.4685
   40MOL0     H 5514   0.163   1.171   4.615 -0.8074 -0.0718 -0.3676
   40MOL0     H 5515   0.278   1.310   4.608 -0.2215  1.4083  2.2857
   40MOL0     H 5516  -0.088   1.431   4.796  0.2358  0.1616  1.4421
   40MOL0     H 5517   0.541   1.177   5.199 -0.0175  1.7261 -3.8871
   40MOL0     H 5518   0.698   1.134   5.426  1.7104 -0.5861 -1.1728
   40MOL0     H 5519   0.544   1.040   5.419 -0.7917  3.8634 -2.6388
   40MOL0     H 5520   0.695   0.959   5.453  1.0551  0.7376 -0.8367
   41MOL0     O 5521   8.775   4.381   1.113  0.1314 -0.1583  0.1568
   41MOL0     C 5522   8.775   4.370   0.988  0.4019  0.1192 -0.6668
   41MOL0     O 5523   8.839   4.444   0.893  0.7323 -0.0225  0.6457
   41MOL0     C 5524   8.942   4.531   0.914  0.7648 -0.4470 -0.9527
   41MOL0     C 5525   8.962   4.650   0.842 -0.1865 -0.5210 -0.2418
   41MOL0     C 5526   9.074   4.721   0.854 -0.3961 -0.7939  1.0049
   41MOL0     C 5527   9.172   4.701   0.956 -1.0495  1.6304 -0.2927
   41MOL0     O 5528   9.294   4.757   0.953  0.3718  0.3113 -0.0634
   41MOL0     C 5529   9.314   4.875   0.866 -0.5902  0.0017 -0.8265
   41MOL0     C 5530   9.463   4.909   0.885 -0.7274  0.5518 -0.0158
   41MOL0     C 5531   9.523   4.994   0.770  0.2260 -0.2374 -0.4194
   41MOL0     C 5532   9.675   5.023   0.779 -0.1802  0.0552  0.3907
   41MOL0     C 5533   9.719   5.133   0.683  0.0077 -0.8867 -0.4891
   41MOL0     C 5534   9.682   5.094   0.538  0.1487 -0.3770 -0.4317
   41MOL0     C 5535   9.741   5.189   0.435  0.3180  0.0651  1.4460
   41MOL0     C 5536   9.896   5.215   0.452  0.3820  0.1837 -0.4225
   41MOL0     N 5537   9.976   5.101   0.426 -0.7715  0.0785  0.2491
   41MOL0     C 5538  10.115   5.102   0.427  0.0749  0.2247 -0.5939
   41MOL0     C 5539  10.165   4.981   0.400 -0.1287  0.0522  0.2383
   41MOL0     C 5540  10.313   4.947   0.395  0.5396 -0.4506 -0.2856
   41MOL0     C 5541  10.376   5.022   0.273 -0.0745 -0.2470 -0.5243
   41MOL0     C 5542  10.527   5.007   0.268  0.2920 -0.4360  0.4651
   41MOL0     C 5543  10.601   5.052   0.392  0.4520  0.3981  0.1649
   41MOL0     O 5544  10.738   5.071   0.353 -0.0423  0.3527 -0.4734
   41MOL0     C 5545  10.803   5.171   0.418 -0.6340  0.6741 -0.5373
   41MOL0     C 5546  10.851   5.155   0.551 -0.2342  0.3987  1.1791
   41MOL0     C 5547  10.938   5.242   0.617 -0.0460 -1.0101  0.2818
   41MOL0     C 5548  10.977   5.215   0.756 -0.3479 -0.2749  0.4776
   41MOL0     C 5549  10.977   5.367   0.552 -0.6820 -0.0882  0.8380
   41MOL0     C 5550  11.062   5.471   0.619 -0.0560  0.1151 -0.0014
   41MOL0     O 5551  11.148   5.529   0.535 -0.6039 -1.2337 -0.2692
   41MOL0     C 5552  11.253   5.614   0.574  1.0832 -1.3518 -0.7602
   41MOL0     C 5553  11.294   5.699   0.476  0.6110 -0.0074 -0.2755
   41MOL0     C 5554  11.399   5.778   0.506  0.0902  0.1027  0.1837
   41MOL0     C 5555  11.467   5.775   0.627 -0.6862 -0.2828 -0.1307
   41MOL0     O 5556  11.578   5.851   0.669  0.8992  0.1880  0.0849
   41MOL0     C 5557  11.602   5.971   0.592 -0.1231 -0.2251  0.3223
   41MOL0     C 5558  11.692   6.070   0.668 -0.4228 -0.2262 -0.2087
   41MOL0     C 5559  11.844   6.032   0.666 -0.1379 -0.1161 -0.3986
   41MOL0     C 5560  11.925   6.133   0.750 -0.3238 -0.2352 -0.1390
   41MOL0     C 5561  12.072   6.092   0.757  0.4930  1.2325  0.2958
   41MOL0     C 5562  12.160   6.220   0.788 -0.0669 -0.2225  0.2099
   41MOL0     C 5563  12.315   6.184   0.754 -0.6858 -0.2103 -0.2151
   41MOL0     C 5564  12.328   6.209   0.608 -0.1129  0.0773  0.5722
   41MOL0    Cl 5565  12.457   6.107   0.539  0.0796  0.3522 -0.2247
   41MOL0     C 5566  11.429   5.693   0.726 -0.5205  0.0841 -0.6682
   41MOL0     C 5567  11.326   5.611   0.694  0.1489  0.3726  0.3139
   41MOL0     O 5568  11.044   5.492   0.736  0.6272 -0.1421  0.2192
   41MOL0     C 5569  10.936   5.371   0.410 -0.1090 -1.4413 -1.1437
   41MOL0     C 5570  10.836   5.286   0.351  0.5424 -0.3649  0.0510
   41MOL0     N 5571  10.049   4.910   0.353  0.3268 -0.3228  0.2323
   41MOL0     N 5572   9.940   4.979   0.374 -0.2929  0.1623  0.7619
   41MOL0     C 5573   9.152   4.588   1.035  0.6752 -0.0286 -0.3398
   41MOL0     C 5574   9.047   4.496   1.007  0.2144  0.0922  0.2497
   41MOL0     C 5575   8.697   4.250   0.932  0.0418  0.1507 -0.4096
   41MOL0     C 5576   8.739   4.200   0.803  0.6418  0.5883 -0.1392
   41MOL0     C 5577   8.675   4.087   0.736 -0.3194  0.5409 -0.8100
   41MOL0     C 5578   8.570   4.019   0.792  0.7742  0.6673 -1.2726
   41MOL0     O 5579   8.493   3.919   0.735 -0.0152 -0.0880 -0.0257
   41MOL0     C 5580   8.486   3.920   0.587  0.4800 -0.3676 -0.4869
   41MOL0     C 5581   8.578   3.822   0.514 -0.6209 -0.5683 -0.3735
   41MOL0     C 5582   8.561   3.670   0.531  0.4700  0.3064 -0.7287
   41MOL0     C 5583   8.647   3.597   0.423 -0.2324 -0.4162 -0.8909
   41MOL0     C 5584   8.667   3.454   0.440 -0.0451 -0.5786  0.4923
   41MOL0     C 5585   8.688   3.335   0.462 -0.1598 -1.1032 -0.5616
   41MOL0     C 5586   8.532   4.061   0.915 -0.2931  0.3928 -0.6621
   41MOL0     C 5587   8.590   4.172   0.988 -0.4048 -0.3797  0.7142
   41MOL0     C 5588   8.545   4.186   1.126  0.5889  0.0141  0.1474
   41MOL0     H 5589   8.888   4.672   0.766 -0.3329  0.5799  0.2054
   41MOL0     H 5590   9.088   4.807   0.789 -0.3474 -0.4389  1.4750
   41MOL0     H 5591   9.253   4.957   0.905  1.3750 -0.0191  2.6819
   41MOL0     H 5592   9.291   4.859   0.760  0.1228  2.0546 -1.3264
   41MOL0     H 5593   9.481   4.961   0.979  1.6613  3.5644 -1.9318
   41MOL0     H 5594   9.521   4.816   0.882 -2.1066 -0.4024 -3.9363
   41MOL0     H 5595   9.498   4.933   0.683 -0.7141 -3.0784  1.6850
   41MOL0     H 5596   9.462   5.085   0.761 -0.2368 -0.7084 -2.5018
   41MOL0     H 5597   9.700   5.069   0.875 -0.2861 -1.4733  1.1761
   41MOL0     H 5598   9.741   4.938   0.764  0.3230  0.5430 -0.2452
   41MOL0     H 5599   9.826   5.133   0.705 -0.2455  0.9918  1.0161
   41MOL0     H 5600   9.674   5.230   0.706  2.1969 -0.1539  1.0518
   41MOL0     H 5601   9.715   4.991   0.527 -0.5980 -1.0853  2.9148
   41MOL0     H 5602   9.573   5.091   0.529 -0.1092  0.6336  1.6993
   41MOL0     H 5603   9.675   5.276   0.447 -2.4877 -1.8880  1.2458
   41MOL0     H 5604   9.713   5.147   0.338 -2.0794  1.9510  1.2105
   41MOL0     H 5605   9.936   5.302   0.400  1.6440  0.6065  1.1497
   41MOL0     H 5606   9.911   5.252   0.554 -1.8555  1.3752 -0.4507
   41MOL0     H 5607  10.171   5.191   0.455  1.0851 -0.6900  0.4470
   41MOL0     H 5608  10.328   4.839   0.388  2.8813 -0.2314  0.2956
   41MOL0     H 5609  10.353   4.981   0.491 -0.5300 -5.0314  2.0416
   41MOL0     H 5610  10.337   4.972   0.183 -1.5274 -0.0541 -0.0357
   41MOL0     H 5611  10.355   5.130   0.275 -0.2964 -0.3019  0.8157
   41MOL0     H 5612  10.557   4.907   0.235  2.6879  0.7023 -1.0494
   41MOL0     H 5613  10.555   5.074   0.186 -1.3593 -0.3823 -0.0972
   41MOL0     H 5614  10.571   5.152   0.425  2.7503  0.5735  2.0050
   41MOL0     H 5615  10.578   4.988   0.477 -0.2143  0.6425  0.1722
   41MOL0     H 5616  10.828   5.059   0.594 -0.0125  0.7894  2.1883
   41MOL0     H 5617  10.956   5.114   0.794  1.3035 -1.3829 -1.3605
   41MOL0     H 5618  10.934   5.292   0.821 -1.2452 -0.2037 -0.1883
   41MOL0     H 5619  11.085   5.234   0.759 -0.8695  3.2750  0.3536
   41MOL0     H 5620  11.237   5.698   0.383 -1.0213 -0.6150  0.6851
   41MOL0     H 5621  11.442   5.851   0.439  0.2391  2.0734  2.3083
   41MOL0     H 5622  11.645   5.948   0.494  3.0950  1.2306  1.2557
   41MOL0     H 5623  11.509   6.025   0.572 -0.5862 -0.3373  2.0202
   41MOL0     H 5624  11.684   6.168   0.618 -0.7330 -0.8044 -1.3246
   41MOL0     H 5625  11.665   6.085   0.773 -1.1015  1.7065 -0.6069
   41MOL0     H 5626  11.884   6.022   0.565  1.3951 -0.9247  0.2533
   41MOL0     H 5627  11.862   5.943   0.727 -1.7289  1.0880  1.9873
   41MOL0     H 5628  11.891   6.138   0.854  0.6986  0.8856  0.1568
   41MOL0     H 5629  11.913   6.235   0.714 -0.7345  0.1348  1.0075
   41MOL0     H 5630  12.082   6.015   0.834 -3.4365  0.7619  0.5237
   41MOL0     H 5631  12.109   6.047   0.665  2.6381 -0.3914  1.8559
   41MOL0     H 5632  12.155   6.237   0.895  0.7994  2.0454 -0.0642
   41MOL0     H 5633  12.130   6.307   0.729  0.9597 -1.5363 -2.4129
   41MOL0     H 5634  12.325   6.076   0.760  3.1845 -0.2317 -3.2137
   41MOL0     H 5635  12.387   6.238   0.816 -1.1801 -1.9254  1.9859
   41MOL0     H 5636  12.359   6.314   0.607 -0.9193  0.3194  0.1577
   41MOL0     H 5637  12.237   6.201   0.549  1.2025  0.1567 -1.5495
   41MOL0     H 5638  11.471   5.697   0.826 -1.5593  1.4452 -0.2607
   41MOL0     H 5639  11.293   5.535   0.763  1.9165 -0.5020  0.2367
   41MOL0     H 5640  10.947   5.457   0.345 -2.6065  0.1158  0.3204
   41MOL0     H 5641  10.808   5.303   0.247  3.0365 -0.5553 -0.7252
   41MOL0     H 5642   9.217   4.564   1.119  3.3282 -1.2155 -2.5823
   41MOL0     H 5643   9.052   4.397   1.050  0.7018  0.7145  1.6875
   41MOL0     H 5644   8.801   4.262   0.739 -1.1611  0.9980 -1.5912
   41MOL0     H 5645   8.713   4.060   0.638 -0.1018  1.4620 -0.9857
   41MOL0     H 5646   8.381   3.903   0.562  0.2409  0.5226 -0.1320
   41MOL0     H 5647   8.503   4.018   0.541  0.5240 -0.7648 -1.3365
   41MOL0     H 5648   8.682   3.849   0.535 -0.8062  2.3605 -2.5744
   41MOL0     H 5649   8.566   3.842   0.408 -3.8598 -0.6788 -0.1426
   41MOL0     H 5650   8.602   3.649   0.630 -0.1027  1.0883 -0.3137
   41MOL0     H 5651   8.457   3.637   0.523  0.3096  0.6130  0.0003
   41MOL0     H 5652   8.743   3.650   0.432  0.0884 -1.0995 -0.1603
   41MOL0     H 5653   8.593   3.606   0.329 -5.4237 -2.6734  1.4941
   41MOL0     H 5654   8.689   3.229   0.479 -1.0457 -0.8154  1.5090
   41MOL0     H 5655   8.464   3.984   0.952  2.0931 -2.2061 -1.2894
   41MOL0     H 5656   8.445   4.144   1.141 -0.7240  2.7352 -0.3679
   41MOL0     H 5657   8.615   4.147   1.200  0.3090  3.3766  2.4451
   41MOL0     H 5658   8.532   4.292   1.150  0.9212 -0.3307  2.0178
   42MOL0     O 5659   8.997   5.063   5.586  0.0557  0.4092 -0.3337
   42MOL0     C 5660   8.990   5.049   5.466  0.0780 -0.4439  0.2092
   42MOL0     O 5661   9.054   5.122   5.377  0.7108  0.1356  0.4244
   42MOL0     C 5662   9.095   5.249   5.428 -0.6544 -0.5917  0.0623
   42MOL0     C 5663   9.216   5.310   5.381 -0.9288  0.5880  0.5294
   42MOL0     C 5664   9.246   5.451   5.394 -0.1083  0.7403 -0.2188
   42MOL0     C 5665   9.142   5.538   5.440  0.2782  1.4729  0.6654
   42MOL0     O 5666   9.166   5.668   5.453  0.4610 -0.3584  0.0484
   42MOL0     C 5667   9.237   5.751   5.357  0.2395  0.4287 -0.0274
   42MOL0     C 5668   9.387   5.765   5.372 -0.3366  0.1309 -0.4458
   42MOL0     C 5669   9.411   5.842   5.499  0.6568 -0.2054  0.4385
   42MOL0     C 5670   9.558   5.889   5.491  0.1571 -0.5034 -0.1086
   42MOL0     C 5671   9.602   5.972   5.615  0.3154 -0.2660 -0.3694
   42MOL0     C 5672   9.746   6.031   5.607 -0.1348  0.4727 -0.0054
   42MOL0     C 5673   9.845   5.938   5.680  0.7168  0.7216  0.6620
   42MOL0     C 5674   9.991   5.985   5.657 -0.7448  0.2831 -0.2052
   42MOL0     N 5675  10.043   6.109   5.730 -0.0019  0.3974 -0.6562
   42MOL0     C 5676  10.027   6.123   5.867  0.6298 -0.1831  0.0875
   42MOL0     C 5677  10.026   6.255   5.894  0.2764  0.5543  0.0543
   42MOL0     C 5678   9.964   6.303   6.025 -0.2911  0.0697 -0.4409
   42MOL0     C 5679   9.828   6.231   6.067 -1.0387  0.3005  0.8259
   42MOL0     C 5680   9.721   6.255   5.957 -0.0627  0.2218 -0.5589
   42MOL0     C 5681   9.595   6.169   5.990  0.3210 -0.6558  0.5743
   42MOL0     O 5682   9.529   6.216   6.105  0.2313  0.0013  0.6496
   42MOL0     C 5683   9.416   6.148   6.151 -0.0608 -0.5046  0.0027
   42MOL0     C 5684   9.348   6.205   6.259 -0.0162  0.7482 -0.2900
   42MOL0     C 5685   9.232   6.151   6.317  0.5344  0.0063  1.0050
   42MOL0     C 5686   9.164   6.238   6.429  0.1866  0.1760  0.8855
   42MOL0     C 5687   9.176   6.028   6.257  0.1977 -0.4896  0.0973
   42MOL0     C 5688   9.049   5.963   6.305  0.0196 -0.5992 -0.7572
   42MOL0     O 5689   9.004   5.860   6.235 -0.2361 -0.2949  0.5001
   42MOL0     C 5690   8.893   5.794   6.286  0.4414  0.6199  0.4217
   42MOL0     C 5691   8.903   5.674   6.360  0.1022  0.1414 -0.1377
   42MOL0     C 5692   8.799   5.619   6.438  0.5662  0.0620 -0.1156
   42MOL0     C 5693   8.672   5.682   6.423  0.2933  0.0903  0.4284
   42MOL0     O 5694   8.560   5.634   6.483  0.2192 -0.0466  0.6311
   42MOL0     C 5695   8.558   5.523   6.573  0.3875  0.0620  0.5959
   42MOL0     C 5696   8.417   5.530   6.642 -0.2657  0.6315 -0.4526
   42MOL0     C 5697   8.400   5.393   6.716 -0.3370 -0.6349  0.5807
   42MOL0     C 5698   8.344   5.291   6.623  0.3125 -0.2322  0.1339
   42MOL0     C 5699   8.369   5.162   6.685  0.1541  0.5356  0.1719
   42MOL0     C 5700   8.295   5.049   6.606 -0.6563 -0.5079  0.2974
   42MOL0     C 5701   8.319   4.919   6.669  0.4395 -0.1343 -0.5754
   42MOL0     C 5702   8.283   4.802   6.572  0.2653 -0.2338  0.8097
   42MOL0    Cl 5703   8.108   4.807   6.541 -0.1638  0.0104 -0.1293
   42MOL0     C 5704   8.658   5.802   6.347  0.4446 -0.0625 -0.4846
   42MOL0     C 5705   8.771   5.856   6.279 -0.3363 -0.6648  0.1624
   42MOL0     O 5706   9.003   5.999   6.416 -0.2600 -0.0104 -0.1609
   42MOL0     C 5707   9.251   5.970   6.159  0.3331  0.4731 -0.7961
   42MOL0     C 5708   9.362   6.030   6.103 -0.3337 -0.4652 -0.1589
   42MOL0     N 5709  10.056   6.321   5.770 -0.2497  0.5813  0.5356
   42MOL0     N 5710  10.065   6.235   5.675  0.6377 -0.1500 -0.4780
   42MOL0     C 5711   9.020   5.480   5.480 -0.0537  0.4164  0.9989
   42MOL0     C 5712   9.000   5.333   5.484 -0.3030 -1.3290 -0.2408
   42MOL0     C 5713   8.903   4.934   5.414 -0.0449 -0.2630 -1.3815
   42MOL0     C 5714   8.831   4.948   5.298 -0.3054  0.3575 -0.2650
   42MOL0     C 5715   8.746   4.849   5.250 -0.0399 -0.6487  0.2321
   42MOL0     C 5716   8.723   4.732   5.320  0.1034 -0.9596  0.0986
   42MOL0     O 5717   8.642   4.626   5.283  0.1972  0.5908  0.4384
   42MOL0     C 5718   8.547   4.648   5.180  0.8535  0.2095 -0.0183
   42MOL0     C 5719   8.419   4.581   5.217  0.0884 -0.0026 -0.4150
   42MOL0     C 5720   8.301   4.658   5.147 -0.0527 -0.4905 -0.3539
   42MOL0     C 5721   8.170   4.603   5.184 -0.2504  0.3410 -0.2030
   42MOL0     C 5722   8.155   4.465   5.135  0.1973 -0.7258  0.5319
   42MOL0     C 5723   8.125   4.351   5.107  0.0190  0.4188 -0.8944
   42MOL0     C 5724   8.791   4.724   5.447 -0.7951  0.7926  0.3026
   42MOL0     C 5725   8.880   4.818   5.499 -0.3902 -0.4432  0.6044
   42MOL0     C 5726   8.950   4.787   5.633 -0.3789  0.6053  0.5885
   42MOL0     H 5727   9.296   5.242   5.355 -1.8832 -0.6075  0.6098
   42MOL0     H 5728   9.341   5.486   5.354 -0.2557  1.0552 -0.2928
   42MOL0     H 5729   9.193   5.851   5.350  0.5673  0.4544 -2.5449
   42MOL0     H 5730   9.217   5.712   5.257  2.2160  2.0611 -1.1265
   42MOL0     H 5731   9.432   5.665   5.370  3.6572  1.7535 -1.2948
   42MOL0     H 5732   9.433   5.809   5.283  1.0469 -0.0790  0.1390
   42MOL0     H 5733   9.353   5.935   5.495 -1.4214 -1.4691  0.1103
   42MOL0     H 5734   9.389   5.780   5.586 -1.6086  0.2552  0.2505
   42MOL0     H 5735   9.625   5.804   5.479 -1.7172 -2.4412  2.2338
   42MOL0     H 5736   9.575   5.950   5.401 -0.8650  1.0971  0.7364
   42MOL0     H 5737   9.600   5.916   5.709  2.6769 -2.3729 -1.4472
   42MOL0     H 5738   9.539   6.061   5.621 -0.5058 -0.7622 -1.3570
   42MOL0     H 5739   9.769   6.030   5.500  0.4911 -3.0362  0.0595
   42MOL0     H 5740   9.743   6.131   5.652 -1.1580 -0.2571  1.6049
   42MOL0     H 5741   9.833   5.834   5.648  1.9565  0.3659  1.3108
   42MOL0     H 5742   9.821   5.937   5.787  3.0093  1.5825  1.2363
   42MOL0     H 5743  10.058   5.903   5.684  2.0506  1.7810 -2.0311
   42MOL0     H 5744  10.006   6.005   5.550  1.0863  0.0645 -0.0150
   42MOL0     H 5745  10.006   6.049   5.943 -2.0638 -1.0749 -1.3902
   42MOL0     H 5746   9.955   6.412   6.021  0.0479  0.1199  0.0274
   42MOL0     H 5747  10.031   6.289   6.111 -2.3997 -0.6978  1.1581
   42MOL0     H 5748   9.847   6.123   6.069 -2.0205  0.0487 -1.2447
   42MOL0     H 5749   9.795   6.274   6.162 -1.9155  1.4252  0.0418
   42MOL0     H 5750   9.705   6.363   5.964 -0.5676  0.1375 -0.3918
   42MOL0     H 5751   9.755   6.233   5.855  0.1277 -1.9006 -0.0916
   42MOL0     H 5752   9.525   6.159   5.907  1.2916 -4.5677  0.0390
   42MOL0     H 5753   9.626   6.067   6.015  2.6734 -0.0635  0.3195
   42MOL0     H 5754   9.380   6.302   6.296  0.2310  0.7657 -0.5482
   42MOL0     H 5755   9.238   6.310   6.466 -0.1544  1.9462 -1.5963
   42MOL0     H 5756   9.129   6.170   6.507  0.0331 -0.0927  0.5859
   42MOL0     H 5757   9.082   6.294   6.383 -0.6129 -3.1290 -2.1631
   42MOL0     H 5758   9.003   5.633   6.357  0.4906  0.9457  1.0083
   42MOL0     H 5759   8.815   5.529   6.497  0.7276 -0.7901 -1.4378
   42MOL0     H 5760   8.569   5.430   6.515 -1.9180  0.6234 -0.8640
   42MOL0     H 5761   8.645   5.541   6.637  1.9757  2.1955 -1.9361
   42MOL0     H 5762   8.417   5.607   6.719  0.5460 -0.6522  0.8785
   42MOL0     H 5763   8.337   5.539   6.568 -2.3745 -0.4221  1.5732
   42MOL0     H 5764   8.334   5.415   6.800  1.0323 -1.0272  1.7929
   42MOL0     H 5765   8.498   5.364   6.753 -1.3728 -1.9282  2.5128
   42MOL0     H 5766   8.400   5.302   6.530 -0.2852  0.2595 -0.1766
   42MOL0     H 5767   8.240   5.318   6.603  0.1906 -1.9246 -1.7202
   42MOL0     H 5768   8.474   5.137   6.700 -0.1295 -1.8650 -1.4149
   42MOL0     H 5769   8.317   5.161   6.782 -2.4584 -2.4846 -1.0741
   42MOL0     H 5770   8.328   5.048   6.501  0.1870  1.8228  0.4889
   42MOL0     H 5771   8.187   5.067   6.610 -0.6096 -0.5063  2.1466
   42MOL0     H 5772   8.265   4.911   6.764  0.4428 -0.9755 -0.6420
   42MOL0     H 5773   8.425   4.904   6.689  0.6701 -0.1770 -1.7932
   42MOL0     H 5774   8.304   4.705   6.620 -2.4845 -2.0327 -1.2834
   42MOL0     H 5775   8.339   4.811   6.479 -1.3711 -1.0879 -0.3186
   42MOL0     H 5776   8.562   5.852   6.344  0.3180  0.0175  2.3840
   42MOL0     H 5777   8.755   5.935   6.206 -0.5738 -2.0615 -1.3785
   42MOL0     H 5778   9.225   5.874   6.114  0.3410  0.0550  0.0639
   42MOL0     H 5779   9.404   5.981   6.016 -0.6923 -0.2337 -0.4669
   42MOL0     H 5780   8.944   5.547   5.517  0.3541  0.6600  1.4027
   42MOL0     H 5781   8.899   5.303   5.508 -0.2715 -0.3914  1.2162
   42MOL0     H 5782   8.845   5.037   5.237 -1.0074  0.1293 -0.7733
   42MOL0     H 5783   8.700   4.875   5.156  0.7231 -0.7977 -0.1866
   42MOL0     H 5784   8.523   4.754   5.171  1.3095  0.2532 -0.8939
   42MOL0     H 5785   8.584   4.620   5.080 -1.3610 -2.2014 -0.2696
   42MOL0     H 5786   8.397   4.597   5.323 -1.4265 -1.4456 -0.4777
   42MOL0     H 5787   8.430   4.473   5.204  0.4531 -0.0173 -0.0166
   42MOL0     H 5788   8.291   4.762   5.180 -0.2334 -0.0427 -1.7652
   42MOL0     H 5789   8.315   4.663   5.038  1.1925 -0.9465 -0.2379
   42MOL0     H 5790   8.101   4.674   5.137  0.9667  2.3892  0.9397
   42MOL0     H 5791   8.156   4.605   5.292  0.0931  0.0608 -0.1508
   42MOL0     H 5792   8.096   4.252   5.077  1.1505  0.1980 -1.3348
   42MOL0     H 5793   8.785   4.637   5.511 -0.3885  1.2048  0.9201
   42MOL0     H 5794   8.947   4.678   5.648 -0.7298  0.4040 -0.7974
   42MOL0     H 5795   9.052   4.824   5.626  0.2797 -1.1172  0.4597
   42MOL0     H 5796   8.896   4.843   5.709 -1.2593 -2.2168  2.2165
   43MOL0     O 5797   9.957   5.162   1.653 -0.2737  0.0387  0.2153
   43MOL0     C 5798   9.941   5.233   1.749  0.0869 -0.5084 -0.5260
   43MOL0     O 5799   9.833   5.234   1.834 -0.2447  0.7548 -0.1677
   43MOL0     C 5800   9.737   5.130   1.836  0.8625  0.3388 -0.3622
   43MOL0     C 5801   9.712   5.061   1.958  0.5655 -0.4997 -0.1833
   43MOL0     C 5802   9.623   4.955   1.957 -0.8906  0.0224  0.7003
   43MOL0     C 5803   9.539   4.941   1.846  0.1551 -0.3768  0.3809
   43MOL0     O 5804   9.445   4.846   1.868 -0.0357 -0.3147  0.0169
   43MOL0     C 5805   9.389   4.792   1.749 -0.8592 -0.2499  0.0325
   43MOL0     C 5806   9.322   4.661   1.779  0.1900 -0.5075 -0.2179
   43MOL0     C 5807   9.305   4.563   1.659 -0.6581  0.0414  0.6389
   43MOL0     C 5808   9.419   4.452   1.651  0.3508  0.5307  0.1692
   43MOL0     C 5809   9.423   4.355   1.532 -0.4764  0.3139  0.7080
   43MOL0     C 5810   9.467   4.426   1.402 -0.2764 -0.3465 -0.1024
   43MOL0     C 5811   9.476   4.339   1.281  0.0276  0.2730  0.4749
   43MOL0     C 5812   9.339   4.270   1.259 -0.6347 -0.2863 -0.1177
   43MOL0     N 5813   9.319   4.244   1.112 -0.1555  0.1909  0.1141
   43MOL0     C 5814   9.414   4.244   1.012 -0.2917  0.2069 -0.4931
   43MOL0     C 5815   9.348   4.240   0.895  0.4129 -0.2649  0.8825
   43MOL0     C 5816   9.411   4.268   0.768 -0.2267 -0.8388 -0.1215
   43MOL0     C 5817   9.305   4.264   0.661  0.4443 -0.1397  0.2315
   43MOL0     C 5818   9.248   4.134   0.620 -0.1767  1.1926 -0.5386
   43MOL0     C 5819   9.106   4.139   0.577  0.9790  0.0039 -0.0126
   43MOL0     O 5820   9.074   4.004   0.545 -0.5797 -0.2704  0.5402
   43MOL0     C 5821   9.033   3.922   0.640  0.0119  0.9524  0.1345
   43MOL0     C 5822   8.988   3.954   0.773  0.8402  1.1094 -0.9713
   43MOL0     C 5823   8.941   3.850   0.856 -0.1291  1.1810 -0.1778
   43MOL0     C 5824   8.876   3.907   0.983  0.0023 -0.5733 -0.2283
   43MOL0     C 5825   8.951   3.714   0.824 -0.8805 -0.5453 -0.6382
   43MOL0     C 5826   8.901   3.602   0.898  0.0239 -0.0189 -0.5576
   43MOL0     O 5827   8.986   3.496   0.922  0.2643  0.4258  0.2715
   43MOL0     C 5828   8.915   3.374   0.930  0.1225 -0.7699 -0.0724
   43MOL0     C 5829   8.854   3.309   0.818  0.2134 -0.5791  0.5206
   43MOL0     C 5830   8.806   3.182   0.824 -0.2276 -0.1534 -0.0039
   43MOL0     C 5831   8.805   3.113   0.947 -0.4812 -0.1600  0.4330
   43MOL0     O 5832   8.753   2.978   0.941 -0.9835 -1.3652  0.1454
   43MOL0     C 5833   8.727   2.908   1.059 -1.3960  0.3858  0.1649
   43MOL0     C 5834   8.641   2.785   1.018 -0.2218 -0.0121 -0.1849
   43MOL0     C 5835   8.490   2.820   1.022 -0.1319  0.1702 -0.1887
   43MOL0     C 5836   8.406   2.708   0.958  0.2478  0.2097 -0.1404
   43MOL0     C 5837   8.253   2.728   0.952  0.6400 -0.6366  1.3883
   43MOL0     C 5838   8.217   2.833   0.843 -1.4183  0.7622 -0.2466
   43MOL0     C 5839   8.066   2.872   0.861 -0.7295 -0.0422  0.0777
   43MOL0     C 5840   8.025   2.983   0.756  0.2118  0.3715 -0.5993
   43MOL0    Cl 5841   8.035   2.910   0.597  0.1155 -0.6407  0.0592
   43MOL0     C 5842   8.861   3.186   1.062  1.3352  0.1370  0.8049
   43MOL0     C 5843   8.920   3.306   1.052  0.1230 -0.4538  0.0181
   43MOL0     O 5844   8.790   3.613   0.943  0.2413 -0.5590  0.3701
   43MOL0     C 5845   8.998   3.679   0.696 -0.5603  0.0818  0.2268
   43MOL0     C 5846   9.027   3.786   0.607 -0.1220  0.2248  0.2471
   43MOL0     N 5847   9.211   4.222   0.928 -0.3504  0.0744  0.4835
   43MOL0     N 5848   9.203   4.214   1.055  0.5324 -0.4507 -0.1529
   43MOL0     C 5849   9.539   5.025   1.732 -0.1111 -0.6503  1.0272
   43MOL0     C 5850   9.647   5.118   1.732 -0.4596  0.5787  0.3525
   43MOL0     C 5851  10.046   5.343   1.779  0.1432  0.6885  0.4696
   43MOL0     C 5852  10.144   5.366   1.685 -0.0068 -0.0250  0.2925
   43MOL0     C 5853  10.228   5.477   1.686 -0.1730  1.1892  0.6820
   43MOL0     C 5854  10.222   5.563   1.791  0.8233  0.2462 -0.5924
   43MOL0     O 5855  10.316   5.663   1.791  0.8567  0.2368  1.2252
   43MOL0     C 5856  10.329   5.762   1.900 -1.1435  0.0337  0.1627
   43MOL0     C 5857  10.235   5.881   1.894 -0.4660 -0.4981  0.7117
   43MOL0     C 5858  10.246   5.967   1.764 -0.7272 -0.1410 -0.3229
   43MOL0     C 5859  10.149   6.076   1.750 -0.6635 -0.8027 -0.0834
   43MOL0     C 5860  10.188   6.191   1.832  0.1623 -0.4225 -0.2801
   43MOL0     C 5861  10.219   6.273   1.918 -0.0314  0.2950 -0.4387
   43MOL0     C 5862  10.124   5.550   1.894  0.0029  0.8725 -0.0102
   43MOL0     C 5863  10.044   5.436   1.890 -0.3136  0.3985 -0.5010
   43MOL0     C 5864   9.977   5.414   2.016 -0.5750  0.6822  0.7485
   43MOL0     H 5865   9.770   5.078   2.047 -1.3866  1.8402  0.7674
   43MOL0     H 5866   9.618   4.885   2.039  1.2959 -0.5452  0.4184
   43MOL0     H 5867   9.474   4.787   1.680 -0.3137  1.8159  0.4593
   43MOL0     H 5868   9.309   4.857   1.712 -1.1381 -0.0688  0.9262
   43MOL0     H 5869   9.385   4.605   1.848  1.0381 -1.2274 -1.5277
   43MOL0     H 5870   9.225   4.675   1.828  0.2834 -0.9646  0.1072
   43MOL0     H 5871   9.205   4.520   1.661 -1.1648  1.1475  0.3077
   43MOL0     H 5872   9.321   4.629   1.573 -1.6905 -1.4009 -0.7115
   43MOL0     H 5873   9.519   4.498   1.655 -0.1779  2.2223 -3.1550
   43MOL0     H 5874   9.416   4.399   1.747 -1.1174 -0.1892 -0.2456
   43MOL0     H 5875   9.327   4.306   1.516 -1.7647  2.5161  1.2671
   43MOL0     H 5876   9.500   4.282   1.560 -0.7322  0.5117  2.0069
   43MOL0     H 5877   9.402   4.512   1.387  1.7420  1.0758 -1.1683
   43MOL0     H 5878   9.562   4.475   1.427 -2.3395  3.6136  0.6856
   43MOL0     H 5879   9.550   4.258   1.283 -1.4327 -1.1983 -1.5723
   43MOL0     H 5880   9.500   4.413   1.205 -0.5703  1.6187  1.5540
   43MOL0     H 5881   9.313   4.182   1.318 -3.7227  0.7524  0.2360
   43MOL0     H 5882   9.263   4.335   1.302  0.3731 -0.9590  3.0118
   43MOL0     H 5883   9.522   4.253   1.024  0.1334 -2.8963 -1.1042
   43MOL0     H 5884   9.491   4.198   0.745  1.9723  0.5451  2.5703
   43MOL0     H 5885   9.464   4.363   0.785 -0.9670 -0.6411  1.2606
   43MOL0     H 5886   9.214   4.320   0.685 -1.2590 -1.8306 -1.8965
   43MOL0     H 5887   9.346   4.317   0.575  0.7613  0.9602  1.0329
   43MOL0     H 5888   9.307   4.082   0.544  1.7465 -0.2752  1.8197
   43MOL0     H 5889   9.252   4.069   0.708 -1.3169  3.9217  1.6685
   43MOL0     H 5890   9.046   4.191   0.651 -0.5984 -0.8207 -0.6736
   43MOL0     H 5891   9.097   4.210   0.494  1.2324  0.0205 -0.0291
   43MOL0     H 5892   8.972   4.059   0.797  2.5974  1.0991  0.4473
   43MOL0     H 5893   8.784   3.955   0.948  0.5749 -1.9370 -4.0363
   43MOL0     H 5894   8.932   3.993   1.024 -0.3841 -1.6281  2.7599
   43MOL0     H 5895   8.854   3.843   1.069 -2.0116  0.6240  0.2168
   43MOL0     H 5896   8.849   3.373   0.731  0.6237 -1.8481 -0.4670
   43MOL0     H 5897   8.764   3.135   0.736  1.5026  1.2995 -1.6836
   43MOL0     H 5898   8.822   2.870   1.099 -2.0646 -1.9342 -0.3097
   43MOL0     H 5899   8.682   2.965   1.141  1.6251  0.6697  1.7802
   43MOL0     H 5900   8.669   2.737   0.924  0.5737 -0.4935  0.2845
   43MOL0     H 5901   8.661   2.708   1.093 -0.3046 -0.4579 -0.6169
   43MOL0     H 5902   8.463   2.916   0.978 -1.0143  0.9471  1.9082
   43MOL0     H 5903   8.465   2.838   1.127 -1.2457  1.6522 -0.6733
   43MOL0     H 5904   8.415   2.618   1.019  0.5414 -0.3157 -0.9326
   43MOL0     H 5905   8.438   2.698   0.854  0.4981 -0.7455  0.0235
   43MOL0     H 5906   8.188   2.642   0.934  0.5030 -1.0463  3.5917
   43MOL0     H 5907   8.223   2.759   1.053 -0.8039 -1.2386  1.1633
   43MOL0     H 5908   8.230   2.789   0.744  4.1836 -0.3544  0.6371
   43MOL0     H 5909   8.276   2.925   0.843  0.3449 -0.3190  0.7453
   43MOL0     H 5910   8.055   2.932   0.952 -2.8656 -2.5488  1.6226
   43MOL0     H 5911   7.993   2.790   0.859 -2.0468  0.8038  3.9428
   43MOL0     H 5912   8.087   3.072   0.769 -2.6097  2.4284 -0.1933
   43MOL0     H 5913   7.927   3.020   0.787 -0.3973 -0.4541 -1.4960
   43MOL0     H 5914   8.855   3.135   1.157  1.0015 -0.8532  0.2674
   43MOL0     H 5915   8.962   3.352   1.141  0.2431 -0.2248 -0.1533
   43MOL0     H 5916   9.004   3.577   0.661  0.5502  0.4132 -0.6110
   43MOL0     H 5917   9.068   3.760   0.510  0.1236  0.5685  0.2552
   43MOL0     H 5918   9.471   5.021   1.647  1.7015 -0.4967 -0.5108
   43MOL0     H 5919   9.671   5.183   1.648 -0.1108 -0.0047 -0.0107
   43MOL0     H 5920  10.165   5.293   1.608 -1.6085  2.1017 -2.3299
   43MOL0     H 5921  10.306   5.484   1.612  0.4858 -0.2423  1.1931
   43MOL0     H 5922  10.319   5.707   1.994 -1.6401 -0.7882 -0.3557
   43MOL0     H 5923  10.430   5.801   1.914 -1.5284  0.3941  2.2542
   43MOL0     H 5924  10.258   5.951   1.975  1.3542  1.5287 -1.4314
   43MOL0     H 5925  10.127   5.860   1.897 -0.8528  1.3606  0.9521
   43MOL0     H 5926  10.350   5.999   1.751 -0.3294  0.5353  3.3961
   43MOL0     H 5927  10.224   5.897   1.683 -1.0450  1.2170 -1.4548
   43MOL0     H 5928  10.047   6.051   1.781 -0.0672 -4.6443 -0.7317
   43MOL0     H 5929  10.154   6.096   1.643  4.8555  2.1101  0.3696
   43MOL0     H 5930  10.228   6.343   1.999 -2.1728 -0.3184  0.4023
   43MOL0     H 5931  10.126   5.615   1.982 -0.4883 -1.1967  1.6080
   43MOL0     H 5932   9.983   5.313   2.059 -1.7798  1.4018  2.7537
   43MOL0     H 5933  10.007   5.482   2.097 -1.0010 -1.6315  2.9823
   43MOL0     H 5934   9.872   5.430   1.992 -0.8437 -0.3771  1.1550
   44MOL0     O 5935   2.635   8.843   1.723 -0.2690 -0.9137  0.1508
   44MOL0     C 5936   2.548   8.753   1.741  0.2040 -0.8168 -0.7331
   44MOL0     O 5937   2.588   8.619   1.743  0.9498  0.3607 -0.0289
   44MOL0     C 5938   2.720   8.591   1.744  1.0021 -0.4173  1.0937
   44MOL0     C 5939   2.813   8.636   1.835 -0.2660  0.5705 -0.5705
   44MOL0     C 5940   2.947   8.592   1.825  0.0647  0.8128  0.0140
   44MOL0     C 5941   2.995   8.521   1.717  0.6185  0.7217  0.4077
   44MOL0     O 5942   3.126   8.480   1.704 -0.1661  0.0338  0.3750
   44MOL0     C 5943   3.176   8.427   1.582  0.0062 -0.5142 -0.4400
   44MOL0     C 5944   3.200   8.535   1.473  0.1901  0.3108 -0.3200
   44MOL0     C 5945   3.305   8.641   1.505  0.8386  0.4071  0.4185
   44MOL0     C 5946   3.339   8.715   1.380  0.6321  0.5968 -1.0674
   44MOL0     C 5947   3.444   8.828   1.406  0.0018  0.2465  0.0932
   44MOL0     C 5948   3.459   8.927   1.285 -0.7860 -0.1085 -0.7216
   44MOL0     C 5949   3.485   8.844   1.154 -0.4356  0.4125 -0.5641
   44MOL0     C 5950   3.489   8.946   1.038 -0.4100  0.2435 -0.5137
   44MOL0     N 5951   3.628   8.986   1.012 -0.0610  0.3329 -0.4516
   44MOL0     C 5952   3.707   8.895   0.950  0.3696 -0.4166  0.6338
   44MOL0     C 5953   3.828   8.955   0.930 -0.2052 -0.2219 -1.2301
   44MOL0     C 5954   3.958   8.902   0.870 -0.1831 -0.5813  0.1890
   44MOL0     C 5955   4.032   9.022   0.804 -0.2062 -0.9781  0.1940
   44MOL0     C 5956   4.143   8.968   0.720 -0.0336 -0.3609  0.2940
   44MOL0     C 5957   4.232   9.067   0.652 -0.1014  0.1508  0.6328
   44MOL0     O 5958   4.356   9.059   0.727  0.7930 -0.0023 -0.0067
   44MOL0     C 5959   4.450   9.157   0.708  0.5973  0.1196 -0.3521
   44MOL0     C 5960   4.560   9.149   0.792  0.9019 -0.1626  0.5852
   44MOL0     C 5961   4.668   9.245   0.783  0.2467 -1.0336 -0.1100
   44MOL0     C 5962   4.770   9.226   0.897  0.2498 -0.2065  0.3646
   44MOL0     C 5963   4.660   9.341   0.677 -0.7974 -0.6415 -0.4359
   44MOL0     C 5964   4.774   9.438   0.647 -0.0997 -0.1179 -0.1951
   44MOL0     O 5965   4.901   9.401   0.680  0.1317  0.2612  0.2058
   44MOL0     C 5966   5.001   9.489   0.645  0.2371 -0.3333 -0.2430
   44MOL0     C 5967   5.046   9.505   0.509  0.1317  0.0181 -0.5546
   44MOL0     C 5968   5.144   9.605   0.482  0.8276 -0.0243  0.2762
   44MOL0     C 5969   5.201   9.684   0.580 -0.2471  0.0088 -0.0144
   44MOL0     O 5970   5.327   9.750   0.567 -0.2656  0.8446  0.0880
   44MOL0     C 5971   5.382   9.783   0.433  0.6863  0.3685  0.1010
   44MOL0     C 5972   5.499   9.881   0.429 -0.4059  0.0395 -0.0359
   44MOL0     C 5973   5.485  10.006   0.506 -0.0538  0.3806  0.2600
   44MOL0     C 5974   5.340  10.064   0.519 -0.6857  0.1151 -1.0047
   44MOL0     C 5975   5.342  10.215   0.555 -0.0903  0.5088  0.5087
   44MOL0     C 5976   5.205  10.270   0.545  0.4314 -0.4583 -0.3916
   44MOL0     C 5977   5.208  10.417   0.587  0.5986 -0.3946  0.0530
   44MOL0     C 5978   5.056  10.471   0.608 -0.3722  0.1226 -1.1199
   44MOL0    Cl 5979   4.971  10.504   0.457 -0.3734  0.6171  0.4262
   44MOL0     C 5980   5.145   9.674   0.713 -0.3798  0.6873 -0.1070
   44MOL0     C 5981   5.048   9.581   0.742 -0.0214  0.0820 -0.4899
   44MOL0     O 5982   4.742   9.546   0.596  0.3537  0.0930  0.1623
   44MOL0     C 5983   4.547   9.347   0.603  0.1758  0.7647  0.5948
   44MOL0     C 5984   4.438   9.261   0.616 -0.5356 -0.0326 -0.8632
   44MOL0     N 5985   3.818   9.081   0.987  0.4793  0.0317  0.1378
   44MOL0     N 5986   3.699   9.104   1.047 -0.1898 -0.6824  1.4812
   44MOL0     C 5987   2.898   8.486   1.617  0.7852 -0.9054 -0.0439
   44MOL0     C 5988   2.767   8.532   1.628  0.3579 -1.0191 -0.2558
   44MOL0     C 5989   2.414   8.776   1.778 -0.1210 -0.0932 -0.4128
   44MOL0     C 5990   2.336   8.676   1.857  0.3974  0.2997 -0.0116
   44MOL0     C 5991   2.208   8.694   1.896 -1.4294  0.5706  0.4379
   44MOL0     C 5992   2.137   8.811   1.860 -0.3120  0.4354  0.2932
   44MOL0     O 5993   2.003   8.815   1.891 -0.0741 -0.6243  0.5212
   44MOL0     C 5994   1.909   8.890   1.810  0.2328  0.6684  0.6435
   44MOL0     C 5995   1.878   8.824   1.675 -0.5569 -0.5774 -1.1947
   44MOL0     C 5996   1.842   8.677   1.685  0.1405  0.0424 -0.2548
   44MOL0     C 5997   1.736   8.653   1.792  0.4037 -0.4525  0.3006
   44MOL0     C 5998   1.609   8.709   1.738  0.4571  1.2671 -0.4167
   44MOL0     C 5999   1.501   8.762   1.714 -0.3183 -0.9624 -0.4074
   44MOL0     C 6000   2.195   8.915   1.785 -0.8273 -0.1355  0.5813
   44MOL0     C 6001   2.343   8.899   1.750  0.0900  0.7552 -0.4848
   44MOL0     C 6002   2.406   9.003   1.652  0.6464  0.4439 -0.0872
   44MOL0     H 6003   2.797   8.688   1.929 -0.0753  1.6483 -1.1155
   44MOL0     H 6004   3.025   8.624   1.894  1.1806 -1.2606 -0.2263
   44MOL0     H 6005   3.104   8.352   1.546 -0.5493 -0.8974  1.3720
   44MOL0     H 6006   3.268   8.373   1.607  1.3210  1.1988 -1.3675
   44MOL0     H 6007   3.227   8.493   1.375  0.5414  1.9553 -0.9536
   44MOL0     H 6008   3.102   8.581   1.458 -0.7063 -0.0595  3.4575
   44MOL0     H 6009   3.257   8.706   1.579 -1.8996 -3.3684  2.3048
   44MOL0     H 6010   3.385   8.595   1.563 -0.2014 -2.0404  0.0449
   44MOL0     H 6011   3.379   8.638   1.314 -1.0659 -2.4606  1.2016
   44MOL0     H 6012   3.250   8.762   1.337  0.1822 -0.3589 -1.1920
   44MOL0     H 6013   3.542   8.786   1.430 -0.9428 -1.3780  1.3366
   44MOL0     H 6014   3.409   8.887   1.492 -2.9006 -1.8414  0.5136
   44MOL0     H 6015   3.369   8.990   1.283 -0.3983  0.5179  0.5232
   44MOL0     H 6016   3.542   8.996   1.306 -0.5280 -0.1583 -1.5387
   44MOL0     H 6017   3.397   8.782   1.133 -2.0648  2.0333  1.0698
   44MOL0     H 6018   3.571   8.777   1.166  1.2487  2.8109  2.1246
   44MOL0     H 6019   3.454   8.904   0.943 -2.3359  1.7659 -0.5481
   44MOL0     H 6020   3.436   9.034   1.075 -2.6004 -1.2036 -0.0121
   44MOL0     H 6021   3.676   8.797   0.914  0.8568  0.1846 -1.5393
   44MOL0     H 6022   3.928   8.823   0.800 -0.9073  0.4379 -0.6645
   44MOL0     H 6023   4.030   8.854   0.937  0.3489 -1.7365 -1.1404
   44MOL0     H 6024   3.967   9.093   0.753  1.1342  0.9494  1.0446
   44MOL0     H 6025   4.073   9.084   0.884  1.8866 -2.5229  0.4190
   44MOL0     H 6026   4.193   8.892   0.781 -1.7977 -1.0238  0.9709
   44MOL0     H 6027   4.091   8.913   0.641  0.3798  0.7194 -0.7640
   44MOL0     H 6028   4.261   9.029   0.554  3.4745 -2.6648  2.5600
   44MOL0     H 6029   4.181   9.164   0.648 -0.8135 -0.2445 -0.4734
   44MOL0     H 6030   4.571   9.073   0.868 -0.2545  1.5691  2.6059
   44MOL0     H 6031   4.795   9.323   0.940  1.1253 -0.1018 -0.3553
   44MOL0     H 6032   4.860   9.178   0.859  0.4080  2.0064 -2.3913
   44MOL0     H 6033   4.739   9.163   0.981 -0.4384  0.2199  0.4377
   44MOL0     H 6034   5.002   9.451   0.426  2.0371 -2.0294 -0.3456
   44MOL0     H 6035   5.177   9.602   0.379  0.8353 -2.1767  0.3117
   44MOL0     H 6036   5.418   9.688   0.390  1.2977  0.3668  0.6129
   44MOL0     H 6037   5.304   9.816   0.364 -1.8721 -2.3292  1.4417
   44MOL0     H 6038   5.589   9.831   0.468  2.6505  4.4394 -0.7629
   44MOL0     H 6039   5.518   9.901   0.323  2.1039 -3.4871 -0.4338
   44MOL0     H 6040   5.541  10.080   0.449 -1.1442  0.1057 -1.2185
   44MOL0     H 6041   5.521   9.990   0.608 -1.8613 -1.9347  0.6215
   44MOL0     H 6042   5.287  10.002   0.591  1.7975  1.0111  1.8270
   44MOL0     H 6043   5.290  10.068   0.422 -2.0408  3.1132 -0.3059
   44MOL0     H 6044   5.384  10.235   0.654  2.2144 -0.6564 -0.1703
   44MOL0     H 6045   5.409  10.267   0.486 -3.5941  0.4550 -3.2549
   44MOL0     H 6046   5.152  10.208   0.618  2.3740 -1.1495  0.5023
   44MOL0     H 6047   5.172  10.259   0.441  0.2467  2.4533 -0.7095
   44MOL0     H 6048   5.272  10.478   0.523 -0.6625  1.4399  0.4562
   44MOL0     H 6049   5.255  10.429   0.685  1.9103  3.5822 -0.8836
   44MOL0     H 6050   5.074  10.565   0.662  0.2707  1.5163 -3.5954
   44MOL0     H 6051   4.992  10.410   0.671 -0.3168  0.3890 -0.7989
   44MOL0     H 6052   5.189   9.733   0.793  1.4493 -0.7267  0.0073
   44MOL0     H 6053   5.002   9.572   0.840  1.1989  0.7672  0.1680
   44MOL0     H 6054   4.520   9.430   0.538 -2.9958  0.4639  1.3537
   44MOL0     H 6055   4.343   9.278   0.566  0.0554 -0.4645 -2.1979
   44MOL0     H 6056   2.922   8.450   1.517  0.4232 -1.2324 -0.0164
   44MOL0     H 6057   2.707   8.515   1.539 -1.2299  2.0908  0.0714
   44MOL0     H 6058   2.393   8.587   1.882 -1.7479 -1.2531 -0.4149
   44MOL0     H 6059   2.152   8.606   1.925 -0.4786  0.2153  1.2392
   44MOL0     H 6060   1.815   8.902   1.865 -0.2422  0.5042 -0.1189
   44MOL0     H 6061   1.920   8.998   1.803 -4.4050  1.6212  3.4288
   44MOL0     H 6062   1.966   8.823   1.610  0.9061 -0.0204  0.7222
   44MOL0     H 6063   1.799   8.878   1.621 -1.3397 -1.7644 -1.2798
   44MOL0     H 6064   1.813   8.644   1.584  0.9597  3.3900 -1.7173
   44MOL0     H 6065   1.934   8.626   1.716  0.8906  1.7540  0.4801
   44MOL0     H 6066   1.763   8.703   1.885  2.4823 -1.2911  0.2041
   44MOL0     H 6067   1.715   8.547   1.813 -0.7072  0.0706  1.9722
   44MOL0     H 6068   1.397   8.784   1.701 -0.4333 -1.3864 -0.2190
   44MOL0     H 6069   2.136   9.000   1.755  0.6599  0.9942  0.7610
   44MOL0     H 6070   2.322   9.031   1.588  1.4634 -0.3995 -1.5794
   44MOL0     H 6071   2.441   9.079   1.721  3.2107 -2.2842  1.8969
   44MOL0     H 6072   2.481   8.962   1.584  0.7425  1.8315 -0.8461
   45MOL0     O 6073   4.327   1.665   5.363  0.2567  0.6901 -0.3735
   45MOL0     C 6074   4.354   1.580   5.455 -0.2802 -1.3391  0.7247
   45MOL0     O 6075   4.265   1.531   5.538  0.4411 -0.0686  0.3198
   45MOL0     C 6076   4.130   1.549   5.521 -0.8186 -0.0635  0.1670
   45MOL0     C 6077   4.057   1.588   5.407  0.5606  0.5704  0.5019
   45MOL0     C 6078   3.923   1.595   5.407  0.9474 -0.4240 -0.3343
   45MOL0     C 6079   3.849   1.577   5.525  0.3713  0.5531  0.4066
   45MOL0     O 6080   3.708   1.596   5.513 -0.0950  0.4700  0.2323
   45MOL0     C 6081   3.649   1.677   5.609  0.3312 -0.5337  0.3354
   45MOL0     C 6082   3.508   1.720   5.543  0.2582  0.8079  0.0334
   45MOL0     C 6083   3.498   1.776   5.399 -0.5288  0.9567 -0.0095
   45MOL0     C 6084   3.367   1.858   5.396 -0.1225  0.5880  0.5767
   45MOL0     C 6085   3.345   1.923   5.268  0.4027 -1.1110 -0.6591
   45MOL0     C 6086   3.210   2.003   5.251  0.3574  0.0375 -0.2140
   45MOL0     C 6087   3.202   2.139   5.327 -0.0015  0.1209 -0.4005
   45MOL0     C 6088   3.292   2.246   5.290 -0.3776 -0.5301  0.7286
   45MOL0     N 6089   3.421   2.243   5.355  0.2730 -0.3001  0.5010
   45MOL0     C 6090   3.452   2.226   5.488  0.4765  0.7503  0.0870
   45MOL0     C 6091   3.584   2.214   5.481 -0.4863  0.3217  0.4794
   45MOL0     C 6092   3.669   2.194   5.600 -0.3142 -0.2602  0.4903
   45MOL0     C 6093   3.644   2.068   5.682 -1.5109  0.2031 -0.6912
   45MOL0     C 6094   3.698   2.071   5.823 -1.4561 -0.0857 -0.5479
   45MOL0     C 6095   3.747   1.932   5.869 -0.4465 -0.0593 -0.0684
   45MOL0     O 6096   3.636   1.844   5.878 -0.0898 -0.5226 -1.0273
   45MOL0     C 6097   3.648   1.733   5.950  0.2321  0.3776 -0.5859
   45MOL0     C 6098   3.532   1.672   5.966 -0.4138  1.0502 -0.7271
   45MOL0     C 6099   3.524   1.549   6.041 -0.0971 -0.5371  0.4083
   45MOL0     C 6100   3.397   1.491   6.078  0.5566  0.1447 -0.1905
   45MOL0     C 6101   3.643   1.487   6.082  0.1006  0.1139 -0.4627
   45MOL0     C 6102   3.649   1.353   6.162 -0.8331 -0.3534  0.0873
   45MOL0     O 6103   3.776   1.305   6.163 -0.5865 -0.1104 -0.6404
   45MOL0     C 6104   3.810   1.198   6.237  1.2523  0.4160  0.9756
   45MOL0     C 6105   3.918   1.205   6.320 -0.8053 -0.2331 -0.4061
   45MOL0     C 6106   3.959   1.091   6.399  0.2758 -0.7615 -0.0679
   45MOL0     C 6107   3.892   0.973   6.381 -0.2248  0.0548 -0.1271
   45MOL0     O 6108   3.916   0.855   6.447  0.5517  0.5169 -0.4776
   45MOL0     C 6109   4.023   0.841   6.551  0.6166  0.3682 -0.8233
   45MOL0     C 6110   4.029   0.686   6.583 -0.5485  0.3343  0.3475
   45MOL0     C 6111   4.112   0.653   6.701  0.1671 -0.5573 -0.1514
   45MOL0     C 6112   4.070   0.514   6.752 -0.5596  0.1105  0.8903
   45MOL0     C 6113   4.178   0.463   6.842  0.4798 -1.5498 -0.5487
   45MOL0     C 6114   4.156   0.317   6.902 -0.0598 -0.2699  0.8187
   45MOL0     C 6115   4.024   0.305   6.983 -0.6366 -0.3869  0.5187
   45MOL0     C 6116   4.027   0.204   7.087 -0.5069 -0.2929  0.0673
   45MOL0    Cl 6117   4.019   0.032   7.027 -0.5922 -0.1450 -0.1348
   45MOL0     C 6118   3.793   0.969   6.279 -0.6743  0.0722 -0.1022
   45MOL0     C 6119   3.749   1.076   6.210 -0.4919  0.2071  0.6130
   45MOL0     O 6120   3.553   1.317   6.228  0.0330  0.1562  0.6987
   45MOL0     C 6121   3.772   1.549   6.035 -0.0970 -0.6130 -0.4379
   45MOL0     C 6122   3.769   1.674   5.989 -0.1138 -0.7850  0.1618
   45MOL0     N 6123   3.636   2.232   5.357  0.1405 -0.4795  0.6928
   45MOL0     N 6124   3.530   2.250   5.280 -0.5190  0.6575 -0.3294
   45MOL0     C 6125   3.908   1.530   5.638  0.9083  0.0565  0.1012
   45MOL0     C 6126   4.050   1.524   5.636  0.0293 -0.5200  0.5291
   45MOL0     C 6127   4.500   1.537   5.482  0.6627 -0.2016 -0.2925
   45MOL0     C 6128   4.530   1.482   5.616 -0.2372  0.0812  0.2725
   45MOL0     C 6129   4.652   1.430   5.641 -0.0910 -0.7903 -0.2220
   45MOL0     C 6130   4.762   1.451   5.549  0.2345  0.9224  0.1450
   45MOL0     O 6131   4.886   1.416   5.600 -0.1251 -0.2338  0.6540
   45MOL0     C 6132   5.003   1.476   5.541  0.3999  0.2712  1.0899
   45MOL0     C 6133   5.118   1.440   5.631 -0.9019 -0.8307 -0.7515
   45MOL0     C 6134   5.165   1.291   5.613  0.0007  0.2919  0.9839
   45MOL0     C 6135   5.281   1.258   5.702  0.2446 -0.2855 -0.2574
   45MOL0     C 6136   5.321   1.124   5.688  0.0302 -1.0256  0.2776
   45MOL0     C 6137   5.346   1.012   5.689  0.3194  0.6603  0.8313
   45MOL0     C 6138   4.735   1.524   5.436 -0.2276  0.0940 -0.9375
   45MOL0     C 6139   4.609   1.555   5.394  0.3174 -1.2546 -0.1023
   45MOL0     C 6140   4.606   1.633   5.265  0.5301 -0.2006 -0.0293
   45MOL0     H 6141   4.108   1.597   5.312 -1.1777 -0.9990 -0.6520
   45MOL0     H 6142   3.865   1.617   5.319  1.0436 -0.2641 -0.3571
   45MOL0     H 6143   3.701   1.770   5.634  0.6540 -1.3474  2.9856
   45MOL0     H 6144   3.628   1.619   5.700 -1.5909 -0.8526 -0.2533
   45MOL0     H 6145   3.440   1.635   5.544  1.5450 -0.2669  1.8294
   45MOL0     H 6146   3.466   1.783   5.623  1.5249  0.3218  1.1294
   45MOL0     H 6147   3.589   1.836   5.403 -0.3418  0.7101  4.4162
   45MOL0     H 6148   3.503   1.691   5.329  2.0712  0.8310  0.2300
   45MOL0     H 6149   3.287   1.785   5.413  0.7204 -0.0714  1.9053
   45MOL0     H 6150   3.364   1.939   5.468  1.1964 -0.4527  1.8684
   45MOL0     H 6151   3.364   1.840   5.198 -2.4376 -1.5485 -1.0061
   45MOL0     H 6152   3.431   1.987   5.241  2.1035 -2.6004  0.9766
   45MOL0     H 6153   3.200   2.025   5.145 -1.0961  0.6087  0.0174
   45MOL0     H 6154   3.132   1.933   5.282 -0.4441  0.3099 -1.5757
   45MOL0     H 6155   3.204   2.118   5.434 -0.0490  2.0042  0.0076
   45MOL0     H 6156   3.102   2.174   5.299 -0.5788 -1.5568 -0.5303
   45MOL0     H 6157   3.306   2.261   5.182 -0.7064 -1.0192  0.6145
   45MOL0     H 6158   3.252   2.342   5.324 -0.1453  0.5489 -1.8306
   45MOL0     H 6159   3.378   2.228   5.567 -2.3592 -1.1231 -2.2967
   45MOL0     H 6160   3.651   2.277   5.670 -1.9731 -0.9860  0.9603
   45MOL0     H 6161   3.771   2.204   5.562 -0.9563 -1.3334 -1.6773
   45MOL0     H 6162   3.538   2.042   5.688 -1.4465 -0.0328 -0.5462
   45MOL0     H 6163   3.692   1.986   5.627  0.5626 -0.1509  1.4726
   45MOL0     H 6164   3.786   2.136   5.830 -1.4349 -0.1808  0.1419
   45MOL0     H 6165   3.628   2.098   5.903 -0.9266 -0.3941  0.0247
   45MOL0     H 6166   3.823   1.909   5.794  0.1617 -1.1017  0.8378
   45MOL0     H 6167   3.788   1.934   5.971 -0.5195  1.9827 -0.0406
   45MOL0     H 6168   3.445   1.728   5.934  0.3355  3.7909  1.6287
   45MOL0     H 6169   3.318   1.544   6.023  0.7657  0.0124 -0.6214
   45MOL0     H 6170   3.368   1.491   6.184 -3.1840 -1.2045 -1.0225
   45MOL0     H 6171   3.391   1.386   6.047 -0.0314 -1.0170  3.3319
   45MOL0     H 6172   3.954   1.307   6.331 -3.2213  0.8153 -1.4102
   45MOL0     H 6173   4.040   1.087   6.471  3.5549 -1.2602 -3.4396
   45MOL0     H 6174   4.121   0.859   6.506  1.2128  1.5664  0.8768
   45MOL0     H 6175   4.001   0.916   6.627 -0.5251  0.1226 -0.8978
   45MOL0     H 6176   3.926   0.665   6.614 -0.5426  2.7791  2.3247
   45MOL0     H 6177   4.060   0.618   6.503  1.0196 -0.3543  1.4880
   45MOL0     H 6178   4.078   0.722   6.778 -0.7004 -2.2269  1.0352
   45MOL0     H 6179   4.217   0.671   6.678  0.0242 -0.7312 -1.0199
   45MOL0     H 6180   4.063   0.434   6.678 -2.5307  0.1530  0.9815
   45MOL0     H 6181   3.968   0.517   6.791 -1.0064  0.8142 -0.2852
   45MOL0     H 6182   4.276   0.472   6.795  0.7667  1.5191  0.4309
   45MOL0     H 6183   4.189   0.527   6.930  1.8061 -1.3165 -0.8668
   45MOL0     H 6184   4.243   0.287   6.961  0.1795  0.5427  0.9014
   45MOL0     H 6185   4.147   0.249   6.817  1.8307 -0.7221  0.9342
   45MOL0     H 6186   3.940   0.290   6.915 -1.3540 -3.2617  1.8689
   45MOL0     H 6187   4.009   0.406   7.022  0.0737  0.4473 -1.2323
   45MOL0     H 6188   3.944   0.235   7.151 -1.1419 -0.1669 -0.8095
   45MOL0     H 6189   4.116   0.212   7.151 -1.0856  0.3186  0.8168
   45MOL0     H 6190   3.747   0.876   6.246 -2.6121  0.6472  0.8233
   45MOL0     H 6191   3.674   1.079   6.133  1.0008 -3.3989 -1.2232
   45MOL0     H 6192   3.869   1.500   6.045  0.5586 -0.2231 -3.7697
   45MOL0     H 6193   3.865   1.721   5.968  0.0634 -0.6521  1.1893
   45MOL0     H 6194   3.850   1.500   5.724 -4.5371 -0.7913 -3.3881
   45MOL0     H 6195   4.108   1.503   5.725  1.2032  1.6742  0.3584
   45MOL0     H 6196   4.458   1.468   5.696  0.1220 -0.2779  0.5333
   45MOL0     H 6197   4.674   1.375   5.731  1.2662  0.6468  0.3686
   45MOL0     H 6198   5.039   1.442   5.444 -0.1237 -1.0486  1.3413
   45MOL0     H 6199   4.989   1.584   5.531  0.2914  0.2725  1.2455
   45MOL0     H 6200   5.099   1.467   5.735  2.3135 -0.0244 -0.2727
   45MOL0     H 6201   5.206   1.499   5.605 -2.1402  0.6901 -1.6569
   45MOL0     H 6202   5.080   1.226   5.635 -0.7489 -0.2576 -2.7820
   45MOL0     H 6203   5.185   1.271   5.508  0.8106 -0.1700  1.2234
   45MOL0     H 6204   5.250   1.269   5.807 -1.4578 -1.1403 -0.6266
   45MOL0     H 6205   5.370   1.316   5.677  0.7967 -1.1572 -0.3533
   45MOL0     H 6206   5.376   0.909   5.687  6.0324  1.9607  2.2595
   45MOL0     H 6207   4.825   1.546   5.378  1.0791 -4.3050 -0.9629
   45MOL0     H 6208   4.694   1.621   5.202  0.8417  2.5937 -0.2479
   45MOL0     H 6209   4.514   1.622   5.206  0.4764  1.8619 -0.3885
   45MOL0     H 6210   4.611   1.740   5.289  0.0093 -0.0119 -0.7357
   46MOL0     O 6211   4.730   7.457   7.698  0.8282 -0.0697 -0.7472
   46MOL0     C 6212   4.754   7.338   7.679 -0.3779 -0.3615  0.4513
   46MOL0     O 6213   4.867   7.292   7.625 -0.2334 -0.5819 -0.0091
   46MOL0     C 6214   4.957   7.385   7.574 -0.6010  0.0310 -0.3288
   46MOL0     C 6215   4.928   7.458   7.460  0.2992  0.4958 -0.0916
   46MOL0     C 6216   5.005   7.562   7.404  0.3581  0.3115 -1.2048
   46MOL0     C 6217   5.131   7.581   7.463 -0.2735  0.8011 -0.5676
   46MOL0     O 6218   5.221   7.675   7.420  0.6230  0.5290  0.4476
   46MOL0     C 6219   5.175   7.797   7.360  0.8685 -0.6430  0.0162
   46MOL0     C 6220   5.297   7.888   7.343  0.2778  0.4443  0.3217
   46MOL0     C 6221   5.373   7.835   7.220 -0.1484  0.3753  0.4794
   46MOL0     C 6222   5.516   7.875   7.227  0.2264 -0.1737  0.3407
   46MOL0     C 6223   5.580   7.841   7.092 -0.5876 -0.4956  0.6003
   46MOL0     C 6224   5.578   7.698   7.061  0.6730 -0.4067  0.0239
   46MOL0     C 6225   5.656   7.670   6.936 -0.1308  0.2371 -0.0118
   46MOL0     C 6226   5.594   7.708   6.792 -0.4787  0.0885  0.1954
   46MOL0     N 6227   5.496   7.601   6.760  0.0769  0.1220 -0.6052
   46MOL0     C 6228   5.366   7.606   6.769 -0.6212 -0.4564  0.1949
   46MOL0     C 6229   5.317   7.510   6.685 -0.3971  0.7415 -1.1981
   46MOL0     C 6230   5.176   7.480   6.667 -0.5003  0.3666 -1.0343
   46MOL0     C 6231   5.114   7.402   6.795  0.3129  0.5140  0.8021
   46MOL0     C 6232   5.067   7.499   6.906 -0.5881 -0.2369 -0.2145
   46MOL0     C 6233   4.960   7.434   6.998 -0.2544 -0.4061  0.2168
   46MOL0     O 6234   5.018   7.328   7.068 -1.0527  0.2605 -0.3624
   46MOL0     C 6235   4.928   7.253   7.137 -0.0884  0.0763 -0.0729
   46MOL0     C 6236   4.789   7.276   7.147  0.9958 -1.0566  0.5391
   46MOL0     C 6237   4.698   7.198   7.228 -0.6782  0.5950 -0.2877
   46MOL0     C 6238   4.554   7.237   7.238 -0.2060 -0.8596  0.5998
   46MOL0     C 6239   4.752   7.078   7.281 -0.1868 -0.7484  0.1352
   46MOL0     C 6240   4.672   6.973   7.349  0.2316 -1.0863  0.3431
   46MOL0     O 6241   4.732   6.910   7.454 -0.2434  0.2110 -0.3364
   46MOL0     C 6242   4.682   6.785   7.482  0.1743 -0.1384 -1.0770
   46MOL0     C 6243   4.731   6.681   7.410  0.7984  0.0432 -0.5429
   46MOL0     C 6244   4.703   6.547   7.467 -0.1198  0.6937  0.0179
   46MOL0     C 6245   4.625   6.522   7.582  0.6206  0.5360  0.1377
   46MOL0     O 6246   4.595   6.391   7.628  0.0653  0.1482  0.9400
   46MOL0     C 6247   4.628   6.359   7.766  0.2605 -0.9513 -0.0303
   46MOL0     C 6248   4.579   6.227   7.806 -1.2176  0.2561  0.4777
   46MOL0     C 6249   4.431   6.223   7.844  0.4732  0.3532  0.3201
   46MOL0     C 6250   4.395   6.298   7.976  0.5922 -0.3507 -0.3320
   46MOL0     C 6251   4.259   6.250   8.011  0.3663  0.4734  0.2127
   46MOL0     C 6252   4.206   6.308   8.142  0.1077 -1.0751  0.5858
   46MOL0     C 6253   4.060   6.287   8.155  0.6515  0.9904  0.5633
   46MOL0     C 6254   4.009   6.362   8.273  0.4428 -0.6795 -0.1468
   46MOL0    Cl 6255   3.835   6.330   8.299  0.4866  0.2528  0.5947
   46MOL0     C 6256   4.575   6.628   7.645  0.5087 -0.1152  1.0560
   46MOL0     C 6257   4.605   6.759   7.598 -0.1397 -0.5265  0.0232
   46MOL0     O 6258   4.555   6.944   7.309 -1.3380  0.1700  0.3228
   46MOL0     C 6259   4.886   7.062   7.282 -0.1831  0.3915 -0.6658
   46MOL0     C 6260   4.972   7.151   7.223 -0.3338  1.4241 -0.7366
   46MOL0     N 6261   5.427   7.444   6.635  0.4603  0.7732 -1.5363
   46MOL0     N 6262   5.531   7.499   6.679 -0.0067  0.0540 -0.3062
   46MOL0     C 6263   5.169   7.501   7.584 -0.1295  0.4820 -0.1427
   46MOL0     C 6264   5.085   7.408   7.639  0.1782  0.1043  0.1028
   46MOL0     C 6265   4.628   7.246   7.692 -0.1618  0.2864  0.1273
   46MOL0     C 6266   4.587   7.180   7.580 -0.5400  0.2496 -0.2807
   46MOL0     C 6267   4.472   7.102   7.588 -0.6605 -0.7103  0.1012
   46MOL0     C 6268   4.386   7.093   7.704  0.1192 -0.1641 -0.1408
   46MOL0     O 6269   4.262   7.025   7.708 -0.6310  0.7075  0.2694
   46MOL0     C 6270   4.210   6.942   7.597  0.0250  0.6926 -0.1969
   46MOL0     C 6271   4.073   6.881   7.629  0.1051  0.1755  0.1159
   46MOL0     C 6272   3.974   6.887   7.515 -0.2435 -0.1389 -0.4946
   46MOL0     C 6273   3.980   6.761   7.416 -0.4991 -0.0316  0.3843
   46MOL0     C 6274   4.105   6.759   7.325 -0.1009 -0.7004  0.1626
   46MOL0     C 6275   4.198   6.776   7.250  0.1885  0.3485  0.2752
   46MOL0     C 6276   4.421   7.162   7.816  0.4982  0.2937 -0.1508
   46MOL0     C 6277   4.542   7.236   7.813  0.2503 -0.4332 -0.6906
   46MOL0     C 6278   4.581   7.297   7.948 -0.4119  0.0582 -1.0143
   46MOL0     H 6279   4.834   7.433   7.413  1.6030 -1.4068 -1.8652
   46MOL0     H 6280   4.972   7.628   7.325 -1.8077  0.1897 -0.4694
   46MOL0     H 6281   5.098   7.844   7.421  0.3928 -0.4684 -0.7039
   46MOL0     H 6282   5.132   7.780   7.261  2.3680 -0.8904 -0.6319
   46MOL0     H 6283   5.256   7.988   7.324  1.5422  1.2988  1.8623
   46MOL0     H 6284   5.359   7.886   7.433  0.7691  1.5280  0.0195
   46MOL0     H 6285   5.358   7.727   7.208 -0.8618  0.6146 -1.1060
   46MOL0     H 6286   5.324   7.883   7.134 -2.1920 -1.3883  0.5920
   46MOL0     H 6287   5.528   7.982   7.245  2.9129 -0.4675  0.7828
   46MOL0     H 6288   5.573   7.812   7.296  3.4329 -1.1419 -2.8381
   46MOL0     H 6289   5.683   7.876   7.097 -0.7252 -0.1131  0.8528
   46MOL0     H 6290   5.535   7.900   7.011 -0.9546  0.3450  1.4009
   46MOL0     H 6291   5.617   7.640   7.145  0.6087 -2.6897 -1.4193
   46MOL0     H 6292   5.481   7.656   7.033  0.9201  0.6319 -2.6620
   46MOL0     H 6293   5.674   7.563   6.930  0.9817  0.2356  2.2267
   46MOL0     H 6294   5.758   7.707   6.947  0.3325 -1.6824  3.6312
   46MOL0     H 6295   5.561   7.812   6.787 -0.3367  0.1597  0.6868
   46MOL0     H 6296   5.676   7.700   6.720  0.4638  2.3169  0.9470
   46MOL0     H 6297   5.291   7.663   6.824 -1.1422 -0.7333 -0.2210
   46MOL0     H 6298   5.170   7.422   6.575  0.6315  1.9154 -2.1204
   46MOL0     H 6299   5.124   7.575   6.651  0.9123  1.6830  1.4932
   46MOL0     H 6300   5.033   7.341   6.754 -0.5240  1.3402  1.1919
   46MOL0     H 6301   5.194   7.338   6.833 -0.6109 -1.0529  0.2034
   46MOL0     H 6302   5.155   7.521   6.968 -0.9166 -1.5628  0.7580
   46MOL0     H 6303   5.026   7.593   6.868 -0.9135  0.7609  2.3815
   46MOL0     H 6304   4.909   7.503   7.066  0.7774 -1.7064  2.4108
   46MOL0     H 6305   4.878   7.401   6.934 -1.3479  1.0497  0.8135
   46MOL0     H 6306   4.753   7.367   7.099 -0.4994 -1.6289  0.5275
   46MOL0     H 6307   4.511   7.202   7.144  3.0876 -1.3304 -0.8627
   46MOL0     H 6308   4.554   7.346   7.248  1.8885 -0.7391 -0.1279
   46MOL0     H 6309   4.496   7.188   7.317  0.6825  1.6680  3.0012
   46MOL0     H 6310   4.802   6.692   7.329 -0.3897 -0.1921 -1.6590
   46MOL0     H 6311   4.741   6.449   7.441 -1.4259  0.3478 -0.7137
   46MOL0     H 6312   4.737   6.357   7.770  0.3789  2.0080  0.0913
   46MOL0     H 6313   4.597   6.432   7.841  1.2891 -1.6297  1.0934
   46MOL0     H 6314   4.602   6.162   7.721  1.0219  1.2151  0.2978
   46MOL0     H 6315   4.639   6.185   7.887  3.5443  0.5308 -2.5351
   46MOL0     H 6316   4.406   6.117   7.861 -0.5292  0.9555  3.0578
   46MOL0     H 6317   4.380   6.264   7.756  0.8738 -0.7860 -0.4704
   46MOL0     H 6318   4.386   6.405   7.959 -0.1681 -0.2886  0.3755
   46MOL0     H 6319   4.472   6.284   8.052 -1.3175 -0.9214  1.5638
   46MOL0     H 6320   4.191   6.272   7.928  1.2308  0.7884 -0.4282
   46MOL0     H 6321   4.256   6.141   8.018  3.0020  0.2865 -0.4054
   46MOL0     H 6322   4.221   6.416   8.136 -1.1175 -0.9598 -2.3340
   46MOL0     H 6323   4.257   6.262   8.226 -1.3578 -3.6549  0.1784
   46MOL0     H 6324   4.030   6.187   8.186 -2.5505  1.3085 -1.1060
   46MOL0     H 6325   4.018   6.318   8.059  0.3891  1.1709  0.7370
   46MOL0     H 6326   4.028   6.467   8.247  1.9938 -1.1704 -1.1541
   46MOL0     H 6327   4.071   6.337   8.360 -0.0645 -2.4432 -0.2596
   46MOL0     H 6328   4.512   6.606   7.731  0.6915 -1.3222  0.8883
   46MOL0     H 6329   4.554   6.842   7.646  1.2409  1.2031 -1.3437
   46MOL0     H 6330   4.938   6.980   7.330  1.0853 -0.1554 -2.8018
   46MOL0     H 6331   5.077   7.130   7.244 -0.6805 -1.5452 -1.5290
   46MOL0     H 6332   5.265   7.510   7.634 -2.2178 -0.6825  4.6634
   46MOL0     H 6333   5.113   7.360   7.732  1.5442  0.5165 -0.0814
   46MOL0     H 6334   4.632   7.198   7.483 -2.2671  2.2308 -0.7857
   46MOL0     H 6335   4.435   7.056   7.498  0.7072 -0.3192 -0.6855
   46MOL0     H 6336   4.200   7.009   7.512 -1.4575 -0.2378 -0.7898
   46MOL0     H 6337   4.270   6.855   7.570 -2.3721 -1.0156 -0.3400
   46MOL0     H 6338   4.025   6.952   7.698 -0.3182  0.6282 -0.6348
   46MOL0     H 6339   4.073   6.783   7.677  0.7296  0.5946  1.0155
   46MOL0     H 6340   3.872   6.894   7.555  0.0072  0.3501  0.0917
   46MOL0     H 6341   3.989   6.976   7.453  5.8038 -1.3847 -1.4583
   46MOL0     H 6342   3.890   6.774   7.355 -1.1087  0.8797  1.4400
   46MOL0     H 6343   3.969   6.664   7.464 -1.4499  0.2775  0.8057
   46MOL0     H 6344   4.269   6.773   7.170  0.3575 -1.8736  0.4517
   46MOL0     H 6345   4.357   7.166   7.903  2.4754 -2.5498  1.6193
   46MOL0     H 6346   4.515   7.370   7.996 -0.8742 -1.2466  0.4297
   46MOL0     H 6347   4.587   7.217   8.023 -0.7721  0.5116 -0.4887
   46MOL0     H 6348   4.675   7.350   7.933  1.0575 -2.6031 -1.7959
   47MOL0     O 6349   1.830   9.821   5.882 -0.5813 -0.5242 -0.0328
   47MOL0     C 6350   1.756   9.768   5.801  0.0288 -0.1972 -0.3755
   47MOL0     O 6351   1.785   9.643   5.748  0.1259  0.8810  0.0216
   47MOL0     C 6352   1.878   9.552   5.804 -0.2236 -0.2294 -0.4367
   47MOL0     C 6353   1.908   9.548   5.942 -0.5058 -0.4169  0.0414
   47MOL0     C 6354   2.001   9.444   5.985  0.3710 -0.7006 -1.0274
   47MOL0     C 6355   2.045   9.347   5.891  0.0804  0.3888 -0.5934
   47MOL0     O 6356   2.111   9.229   5.921  0.0216 -1.3777 -0.0754
   47MOL0     C 6357   2.145   9.196   6.053 -0.8935  0.3338 -0.5543
   47MOL0     C 6358   2.032   9.131   6.117 -0.3201  0.0579  0.0856
   47MOL0     C 6359   2.081   9.064   6.253 -0.6105  0.8760  0.5723
   47MOL0     C 6360   1.990   8.942   6.285  0.2005  0.5554 -0.2186
   47MOL0     C 6361   2.043   8.856   6.399  0.2511 -0.1466  0.4324
   47MOL0     C 6362   2.026   8.920   6.536  0.7114  0.6027 -0.4591
   47MOL0     C 6363   2.057   8.825   6.646 -0.6553 -0.1719  0.1242
   47MOL0     C 6364   2.051   8.879   6.785  0.1302 -0.0676  0.3653
   47MOL0     N 6365   1.941   8.819   6.850  0.2406 -0.7894  0.6964
   47MOL0     C 6366   1.809   8.854   6.824  0.1035 -0.1961 -0.4065
   47MOL0     C 6367   1.743   8.780   6.910 -0.8406  0.7413 -0.1293
   47MOL0     C 6368   1.598   8.776   6.920 -0.0576 -0.4176  0.2759
   47MOL0     C 6369   1.514   8.794   6.788 -0.7349 -0.0650 -0.2393
   47MOL0     C 6370   1.526   8.667   6.701  0.2884 -0.3458  0.3694
   47MOL0     C 6371   1.486   8.689   6.557  0.1898  0.1790 -0.5476
   47MOL0     O 6372   1.354   8.752   6.575  0.1813  0.3091  0.4582
   47MOL0     C 6373   1.286   8.782   6.457  0.3359  0.4336  0.0233
   47MOL0     C 6374   1.282   8.698   6.343  0.4643 -0.7157  0.0613
   47MOL0     C 6375   1.204   8.729   6.232 -0.0654  0.5436 -0.0370
   47MOL0     C 6376   1.194   8.626   6.123  0.3710 -0.5313  1.0210
   47MOL0     C 6377   1.126   8.845   6.220 -0.3529  0.5768  0.2734
   47MOL0     C 6378   1.056   8.889   6.092 -0.1311  0.3217  0.2837
   47MOL0     O 6379   1.137   8.897   5.980 -0.1680  0.3266 -0.0222
   47MOL0     C 6380   1.080   8.948   5.869  0.0733 -0.2114 -0.5026
   47MOL0     C 6381   1.000   8.869   5.785 -0.3279  0.4382  0.2194
   47MOL0     C 6382   0.951   8.920   5.667  0.1536  0.1468 -0.6451
   47MOL0     C 6383   0.978   9.050   5.625  0.1121 -0.3311  0.7931
   47MOL0     O 6384   0.922   9.097   5.505  0.4076  0.0916 -0.3910
   47MOL0     C 6385   0.800   9.180   5.517 -0.2996 -0.8886  1.2017
   47MOL0     C 6386   0.823   9.327   5.562 -0.5094 -0.0598  0.6080
   47MOL0     C 6387   0.905   9.392   5.456  0.3661 -0.9263  0.6253
   47MOL0     C 6388   0.893   9.543   5.468  0.1164  0.1676 -0.6435
   47MOL0     C 6389   0.945   9.632   5.351 -0.0587 -0.2098  0.2883
   47MOL0     C 6390   1.091   9.602   5.318 -0.8941 -0.5282 -0.6300
   47MOL0     C 6391   1.145   9.720   5.233  0.5625  0.6444  0.4473
   47MOL0     C 6392   1.172   9.857   5.311  0.3890  0.0567  0.2085
   47MOL0    Cl 6393   1.234   9.989   5.206  0.0172 -0.1545 -0.6197
   47MOL0     C 6394   1.068   9.131   5.697  0.4981 -0.7832 -0.4887
   47MOL0     C 6395   1.117   9.076   5.825 -1.2095 -0.0881 -0.0903
   47MOL0     O 6396   0.935   8.923   6.099 -0.3733 -0.3025  0.3589
   47MOL0     C 6397   1.125   8.920   6.342  0.3066  0.1384  0.2089
   47MOL0     C 6398   1.204   8.892   6.455  0.2681 -0.7833  1.2562
   47MOL0     N 6399   1.836   8.709   6.994  0.5864 -0.3682  1.2712
   47MOL0     N 6400   1.957   8.741   6.956  0.0300  0.2973  0.2415
   47MOL0     C 6401   2.028   9.372   5.758 -0.2332  0.7065  0.1955
   47MOL0     C 6402   1.940   9.472   5.712  0.8508  0.2209 -0.2511
   47MOL0     C 6403   1.633   9.834   5.750  0.2429  0.3948  1.0524
   47MOL0     C 6404   1.579   9.798   5.628  1.3401 -0.3804 -0.7225
   47MOL0     C 6405   1.456   9.861   5.591  0.2852 -0.3309 -0.3178
   47MOL0     C 6406   1.388   9.958   5.664  0.8268 -0.6660 -0.4542
   47MOL0     O 6407   1.274  10.011   5.609 -0.1589 -0.1689  0.8565
   47MOL0     C 6408   1.205  10.123   5.668 -0.4863 -0.4783  0.0821
   47MOL0     C 6409   1.076  10.147   5.601 -0.1914  0.7509 -0.4730
   47MOL0     C 6410   1.084  10.185   5.456  0.0664 -0.4681  0.8862
   47MOL0     C 6411   1.095  10.339   5.442 -0.2510  0.2066 -0.3817
   47MOL0     C 6412   1.228  10.393   5.449  0.5327 -0.2913 -0.2671
   47MOL0     C 6413   1.341  10.448   5.458 -0.0733 -0.9191  1.6319
   47MOL0     C 6414   1.452  10.000   5.785  0.7630 -0.3539  0.5443
   47MOL0     C 6415   1.565   9.939   5.826  0.8864  0.6486 -0.2157
   47MOL0     C 6416   1.616   9.995   5.952 -0.0869  0.4995 -0.0918
   47MOL0     H 6417   1.871   9.612   6.021 -0.6857  2.2703 -2.1010
   47MOL0     H 6418   2.014   9.425   6.091  1.4338  0.4543 -0.9214
   47MOL0     H 6419   2.179   9.282   6.112  1.3742  0.5756 -2.0629
   47MOL0     H 6420   2.232   9.131   6.047 -1.1314  0.1578 -2.9901
   47MOL0     H 6421   1.967   9.215   6.142  1.6161  1.5827  0.2792
   47MOL0     H 6422   1.989   9.069   6.038  3.0054  0.4741 -2.2626
   47MOL0     H 6423   2.183   9.024   6.250 -0.4967  1.0884  1.3297
   47MOL0     H 6424   2.071   9.136   6.334 -0.8305  0.7243  0.6844
   47MOL0     H 6425   1.884   8.958   6.304 -0.4338 -1.5285 -1.5730
   47MOL0     H 6426   1.989   8.876   6.197  1.4765  1.5434 -1.0176
   47MOL0     H 6427   2.150   8.849   6.379  0.7224  2.7959  1.4180
   47MOL0     H 6428   1.985   8.763   6.393 -0.7825  0.4563  0.6894
   47MOL0     H 6429   2.094   9.006   6.541  0.6574  0.7028  4.8947
   47MOL0     H 6430   1.923   8.951   6.552  1.1168  2.0667 -0.5923
   47MOL0     H 6431   2.157   8.783   6.634 -0.9685 -0.6276 -0.9938
   47MOL0     H 6432   1.994   8.737   6.638 -2.2549  0.8918  0.5265
   47MOL0     H 6433   2.142   8.845   6.835  2.0760  1.6317 -1.7993
   47MOL0     H 6434   2.048   8.989   6.790 -1.8732  0.0216 -1.5238
   47MOL0     H 6435   1.760   8.919   6.752 -2.2009 -0.7403  0.6126
   47MOL0     H 6436   1.561   8.857   6.984 -2.1483 -0.5514 -0.6812
   47MOL0     H 6437   1.574   8.682   6.970  0.0321  0.7373  2.6192
   47MOL0     H 6438   1.411   8.816   6.819 -0.8716  0.6050 -1.1389
   47MOL0     H 6439   1.550   8.880   6.732 -0.5809  0.7159  1.0268
   47MOL0     H 6440   1.628   8.627   6.703 -0.4067 -2.2175  0.4599
   47MOL0     H 6441   1.461   8.594   6.751 -1.0596  0.6442  0.1071
   47MOL0     H 6442   1.552   8.760   6.507 -2.8778  2.4531 -1.7361
   47MOL0     H 6443   1.483   8.590   6.511  0.6401  0.6801 -1.6888
   47MOL0     H 6444   1.344   8.609   6.338  0.7056 -0.5628 -4.4750
   47MOL0     H 6445   1.241   8.667   6.033 -0.2183 -0.6855  0.6429
   47MOL0     H 6446   1.089   8.623   6.094  0.5529  4.7085 -1.3792
   47MOL0     H 6447   1.241   8.532   6.152 -1.8334 -0.2705  6.4705
   47MOL0     H 6448   0.962   8.773   5.818  0.4219 -0.9475 -2.6629
   47MOL0     H 6449   0.898   8.852   5.601  1.5786 -1.2713 -0.3920
   47MOL0     H 6450   0.748   9.181   5.421  3.7274 -1.8937 -1.2341
   47MOL0     H 6451   0.736   9.127   5.588 -1.7621 -0.4040  0.2844
   47MOL0     H 6452   0.729   9.378   5.585  0.4607  1.7365  0.8169
   47MOL0     H 6453   0.880   9.329   5.655 -0.6258  0.9347  0.6678
   47MOL0     H 6454   0.871   9.364   5.355  1.0816 -1.3607  0.5004
   47MOL0     H 6455   1.009   9.359   5.467  0.9685 -0.3399 -2.4019
   47MOL0     H 6456   0.969   9.568   5.544  0.1330 -2.7760  0.4350
   47MOL0     H 6457   0.789   9.570   5.489  0.4524 -0.4717  2.3385
   47MOL0     H 6458   0.881   9.607   5.266 -2.6665 -1.2842  2.4059
   47MOL0     H 6459   0.931   9.736   5.380  2.1278 -0.2973  1.8743
   47MOL0     H 6460   1.107   9.501   5.281  1.5612  0.2998 -2.0690
   47MOL0     H 6461   1.149   9.593   5.410 -1.0888  1.6894 -0.2219
   47MOL0     H 6462   1.095   9.734   5.137  0.1315 -0.7598  0.4411
   47MOL0     H 6463   1.243   9.676   5.212 -0.5990 -2.5281  1.0434
   47MOL0     H 6464   1.225   9.839   5.405  1.6810 -0.2137 -0.5453
   47MOL0     H 6465   1.074   9.897   5.338  2.0268  2.6225  2.9987
   47MOL0     H 6466   1.097   9.231   5.665 -0.2804  0.2989  1.9570
   47MOL0     H 6467   1.180   9.145   5.880  1.4782 -1.4283 -1.2969
   47MOL0     H 6468   1.052   8.999   6.345  1.5580  1.3209  0.3686
   47MOL0     H 6469   1.198   8.967   6.533 -0.4305  0.6458 -0.0979
   47MOL0     H 6470   2.071   9.305   5.684  0.4563 -0.0212  1.2374
   47MOL0     H 6471   1.908   9.497   5.612 -3.0735 -0.8557  0.5732
   47MOL0     H 6472   1.618   9.710   5.578 -1.3383  0.5303 -4.8708
   47MOL0     H 6473   1.419   9.836   5.492 -1.4245 -2.3385  0.7585
   47MOL0     H 6474   1.179  10.102   5.772  0.5696  0.8491  0.6391
   47MOL0     H 6475   1.262  10.216   5.665 -2.5707  0.8563 -1.1588
   47MOL0     H 6476   1.028  10.223   5.662  2.6669  2.3629 -0.0650
   47MOL0     H 6477   1.016  10.055   5.606  3.1365 -1.7966 -2.5072
   47MOL0     H 6478   1.162  10.135   5.399 -2.1162 -1.5783 -1.3187
   47MOL0     H 6479   0.986  10.167   5.412  0.3222 -1.3452  0.6648
   47MOL0     H 6480   1.029  10.400   5.504 -0.8472  2.4066 -3.0239
   47MOL0     H 6481   1.061  10.367   5.342 -1.0534  0.0090 -0.1715
   47MOL0     H 6482   1.440  10.488   5.451  0.0161 -1.2390  0.9074
   47MOL0     H 6483   1.407  10.083   5.839 -0.7625  1.4757 -3.1653
   47MOL0     H 6484   1.540  10.053   6.007 -1.0609 -1.8362  1.1637
   47MOL0     H 6485   1.639   9.907   6.012  0.8811 -0.1064 -1.3235
   47MOL0     H 6486   1.711  10.048   5.940  0.5211 -0.2281  1.2398
   48MOL0     O 6487   7.776   0.458   5.545  0.4353  0.1785  0.6530
   48MOL0     C 6488   7.862   0.441   5.628  0.4675 -0.2008 -1.5176
   48MOL0     O 6489   7.976   0.516   5.630  0.1898  0.0782 -0.1088
   48MOL0     C 6490   8.005   0.582   5.511  0.3192 -0.7937 -0.3725
   48MOL0     C 6491   8.056   0.510   5.403  0.2555 -0.7678 -0.2869
   48MOL0     C 6492   8.090   0.577   5.290  0.6540 -0.9993  0.6108
   48MOL0     C 6493   8.093   0.728   5.287  1.1502  1.7007 -0.0007
   48MOL0     O 6494   8.147   0.806   5.184  0.0213  0.6278 -0.8824
   48MOL0     C 6495   8.244   0.735   5.100  0.1065  0.4982 -0.0165
   48MOL0     C 6496   8.326   0.828   5.018 -0.3781  0.9140  0.3037
   48MOL0     C 6497   8.422   0.917   5.089 -0.1924  0.4274 -0.4215
   48MOL0     C 6498   8.544   0.839   5.113 -0.1567 -0.3344 -0.6335
   48MOL0     C 6499   8.670   0.936   5.130  1.3214  1.0593 -0.3017
   48MOL0     C 6500   8.801   0.857   5.134  0.0744  0.6426 -0.8574
   48MOL0     C 6501   8.810   0.747   5.242  0.2376  0.4454  0.2434
   48MOL0     C 6502   8.938   0.682   5.227 -0.0736 -0.0571 -0.7050
   48MOL0     N 6503   8.939   0.575   5.322 -1.2993  1.0196 -0.7349
   48MOL0     C 6504   8.919   0.443   5.296  0.0904  0.6557 -0.4195
   48MOL0     C 6505   8.952   0.372   5.410  0.2317 -0.3242  0.2513
   48MOL0     C 6506   8.953   0.223   5.423  0.8753  0.2081 -0.6045
   48MOL0     C 6507   9.043   0.176   5.527  0.2952  0.2553  0.1158
   48MOL0     C 6508   9.066   0.024   5.537  0.3290 -0.2811  0.8900
   48MOL0     C 6509   8.936  -0.058   5.543  0.0853 -0.4363  0.2283
   48MOL0     O 6510   8.903  -0.097   5.408 -0.3264  0.3212 -0.3632
   48MOL0     C 6511   8.799  -0.189   5.384  0.0221  0.8747 -0.1547
   48MOL0     C 6512   8.793  -0.236   5.257  1.1881  0.4286 -0.2180
   48MOL0     C 6513   8.698  -0.335   5.221 -0.1507 -0.0755 -0.5330
   48MOL0     C 6514   8.713  -0.385   5.078  1.1511 -0.2947  0.7612
   48MOL0     C 6515   8.619  -0.393   5.323 -0.6061  0.5834  0.1271
   48MOL0     C 6516   8.535  -0.506   5.298  0.0097  0.1988 -0.3600
   48MOL0     O 6517   8.498  -0.571   5.406 -0.4009  0.2348  0.9060
   48MOL0     C 6518   8.387  -0.652   5.423  0.9191  0.2782  0.0850
   48MOL0     C 6519   8.386  -0.727   5.538  0.1882  0.2143  1.0187
   48MOL0     C 6520   8.270  -0.789   5.581  0.4523 -0.3328 -0.4626
   48MOL0     C 6521   8.155  -0.791   5.508  0.0921 -0.1198  0.1399
   48MOL0     O 6522   8.037  -0.846   5.563 -0.1673 -0.2709 -0.0544
   48MOL0     C 6523   8.005  -0.967   5.496 -0.3743  0.5903 -0.4017
   48MOL0     C 6524   7.917  -1.057   5.583  0.0664  0.6623  0.2996
   48MOL0     C 6525   7.777  -0.986   5.609 -0.3742 -0.2971 -0.7841
   48MOL0     C 6526   7.664  -1.048   5.535 -0.3876  0.0765  0.1907
   48MOL0     C 6527   7.625  -1.174   5.597  0.1188 -0.1505  0.2357
   48MOL0     C 6528   7.503  -1.230   5.513  0.1989  0.0689  0.0710
   48MOL0     C 6529   7.492  -1.383   5.551 -0.0597  0.4516 -0.2814
   48MOL0     C 6530   7.364  -1.454   5.527 -0.3135  0.3323 -0.1321
   48MOL0    Cl 6531   7.247  -1.410   5.648 -0.4046  0.1559  0.4824
   48MOL0     C 6532   8.152  -0.717   5.387  0.2774  0.0113  0.2503
   48MOL0     C 6533   8.263  -0.644   5.343  0.9881 -0.3476 -0.7547
   48MOL0     O 6534   8.504  -0.545   5.185 -0.2948 -0.3511  1.0500
   48MOL0     C 6535   8.613  -0.328   5.454  0.2775 -0.1764 -0.3649
   48MOL0     C 6536   8.714  -0.227   5.485 -0.4462 -0.3272  0.0627
   48MOL0     N 6537   8.975   0.473   5.507 -0.1029 -0.0162 -0.0784
   48MOL0     N 6538   8.965   0.590   5.450 -0.0588  0.1979  0.7670
   48MOL0     C 6539   8.043   0.794   5.396 -0.1779 -0.4173 -0.1464
   48MOL0     C 6540   7.999   0.727   5.513 -0.6046 -0.5231  0.3290
   48MOL0     C 6541   7.813   0.367   5.747 -0.3814  0.2310  0.0072
   48MOL0     C 6542   7.699   0.288   5.735 -0.3602 -0.1466 -0.3980
   48MOL0     C 6543   7.654   0.212   5.843  0.0124  0.5131  0.1409
   48MOL0     C 6544   7.720   0.205   5.969 -0.7980 -0.4922  0.4543
   48MOL0     O 6545   7.698   0.129   6.083 -0.5489 -0.3251  0.2811
   48MOL0     C 6546   7.578   0.048   6.085  0.1780  0.0727  1.0097
   48MOL0     C 6547   7.564  -0.016   6.223 -0.3332  0.3828  0.0873
   48MOL0     C 6548   7.427  -0.087   6.229  0.2740 -0.1007 -0.0222
   48MOL0     C 6549   7.383  -0.127   6.373  0.4347 -0.2381 -0.1958
   48MOL0     C 6550   7.476  -0.219   6.427 -0.5625  0.1084  0.0359
   48MOL0     C 6551   7.569  -0.278   6.463  0.0401 -0.1744  0.5652
   48MOL0     C 6552   7.832   0.279   5.970  0.4640 -0.1825 -0.5346
   48MOL0     C 6553   7.887   0.360   5.869 -0.6920  0.7547 -0.4436
   48MOL0     C 6554   8.020   0.421   5.894 -0.8609  0.9457 -0.1452
   48MOL0     H 6555   8.076   0.404   5.411  0.0550 -0.7004  1.6400
   48MOL0     H 6556   8.122   0.515   5.208 -0.9949  1.0077 -1.7057
   48MOL0     H 6557   8.197   0.660   5.036 -1.3582  2.3012 -1.1750
   48MOL0     H 6558   8.318   0.689   5.166 -0.6345 -0.3753  0.2171
   48MOL0     H 6559   8.377   0.776   4.936  0.9899  0.8515  1.1656
   48MOL0     H 6560   8.254   0.899   4.976 -0.0534  0.5385 -0.9397
   48MOL0     H 6561   8.418   1.005   5.025 -2.2759  0.2558 -0.6230
   48MOL0     H 6562   8.373   0.939   5.185 -0.1951 -1.7168  0.1333
   48MOL0     H 6563   8.522   0.775   5.198  1.0152 -1.1200 -0.9004
   48MOL0     H 6564   8.564   0.775   5.026 -1.2660  0.4510 -1.5115
   48MOL0     H 6565   8.665   0.987   5.226  1.1640 -2.4116  1.7086
   48MOL0     H 6566   8.686   1.008   5.049  2.1267 -0.1024 -1.2148
   48MOL0     H 6567   8.801   0.808   5.036 -1.6809 -3.1902  0.8466
   48MOL0     H 6568   8.876   0.933   5.157  0.9212 -0.7004  1.1659
   48MOL0     H 6569   8.725   0.681   5.225  1.3818 -1.3934  1.3633
   48MOL0     H 6570   8.798   0.796   5.339 -1.9963 -1.5286  1.0383
   48MOL0     H 6571   8.956   0.641   5.127  1.1942  1.6062 -1.2182
   48MOL0     H 6572   9.017   0.752   5.256 -0.9351 -0.0856  1.9462
   48MOL0     H 6573   8.898   0.396   5.200  2.8733 -2.5099  0.3514
   48MOL0     H 6574   8.992   0.185   5.328 -0.1992 -2.4025 -0.1131
   48MOL0     H 6575   8.850   0.191   5.442  0.6934  0.4871 -1.1201
   48MOL0     H 6576   9.137   0.215   5.487 -0.4553  1.1307 -0.8375
   48MOL0     H 6577   9.012   0.211   5.626 -3.6647 -3.8866  0.6095
   48MOL0     H 6578   9.113  -0.020   5.449 -0.0913  2.3302 -0.7656
   48MOL0     H 6579   9.140   0.003   5.614  1.7759 -1.8177 -0.8225
   48MOL0     H 6580   8.933  -0.146   5.607  2.0758 -2.7409 -2.5951
   48MOL0     H 6581   8.854   0.003   5.582  0.0796 -0.2280 -0.1116
   48MOL0     H 6582   8.858  -0.182   5.190  0.7159  2.3069  0.7691
   48MOL0     H 6583   8.807  -0.343   5.043  1.6304 -1.5941  0.4394
   48MOL0     H 6584   8.633  -0.358   5.008  0.3455 -4.8347 -0.3836
   48MOL0     H 6585   8.703  -0.494   5.075 -3.1773 -0.0863 -2.0374
   48MOL0     H 6586   8.483  -0.714   5.586  0.3913  1.7426  0.2628
   48MOL0     H 6587   8.266  -0.833   5.680  0.0403  0.1613 -0.2536
   48MOL0     H 6588   7.958  -0.950   5.399  1.5792 -0.0306 -1.5254
   48MOL0     H 6589   8.096  -1.027   5.484 -1.6866 -1.7342  0.5762
   48MOL0     H 6590   7.904  -1.150   5.527  3.7180 -0.0022  0.3187
   48MOL0     H 6591   7.976  -1.084   5.671  0.2036 -2.3761 -0.6183
   48MOL0     H 6592   7.782  -0.885   5.568  2.5907  0.0995  0.2833
   48MOL0     H 6593   7.760  -0.985   5.717  0.4129 -0.4578 -0.6509
   48MOL0     H 6594   7.692  -1.068   5.431  0.1177  0.2099  0.2948
   48MOL0     H 6595   7.581  -0.978   5.523  1.1829  1.9413 -0.4642
   48MOL0     H 6596   7.709  -1.241   5.578  3.4363  3.9194 -0.7258
   48MOL0     H 6597   7.601  -1.169   5.704 -0.8469  0.2340  0.0138
   48MOL0     H 6598   7.531  -1.222   5.407  2.5583  0.5694  0.6657
   48MOL0     H 6599   7.407  -1.185   5.541  0.7938 -0.3200  3.0938
   48MOL0     H 6600   7.518  -1.411   5.654 -2.8096 -0.7025  0.2099
   48MOL0     H 6601   7.572  -1.427   5.491 -1.0201 -1.9745  0.1154
   48MOL0     H 6602   7.388  -1.560   5.517  1.0004  0.7456 -1.9541
   48MOL0     H 6603   7.318  -1.427   5.431  0.4568 -2.1114 -1.2618
   48MOL0     H 6604   8.059  -0.713   5.331  0.5750  0.5162 -0.2219
   48MOL0     H 6605   8.268  -0.593   5.248 -1.8441  0.2506 -0.6472
   48MOL0     H 6606   8.542  -0.361   5.528 -0.3136  0.9794 -0.4013
   48MOL0     H 6607   8.710  -0.180   5.583 -1.6548  0.9849 -0.5842
   48MOL0     H 6608   8.033   0.902   5.398 -1.6658 -0.5552  0.5332
   48MOL0     H 6609   7.980   0.775   5.608  1.2568  0.1357  0.4052
   48MOL0     H 6610   7.640   0.294   5.644  1.6640  1.3518 -1.7149
   48MOL0     H 6611   7.558   0.162   5.833 -1.2697  3.0096 -0.8942
   48MOL0     H 6612   7.486   0.099   6.055  0.5488 -0.7887 -1.8725
   48MOL0     H 6613   7.600  -0.031   6.013  0.3783 -0.0697  1.2256
   48MOL0     H 6614   7.577   0.052   6.307  0.5142  1.3532 -0.8129
   48MOL0     H 6615   7.633  -0.099   6.240  0.1196  0.3406 -1.7128
   48MOL0     H 6616   7.353  -0.014   6.193 -0.3925 -0.7557 -0.0037
   48MOL0     H 6617   7.432  -0.181   6.172  0.8070 -0.0045 -0.1445
   48MOL0     H 6618   7.284  -0.170   6.358 -0.2268  1.5468 -1.2758
   48MOL0     H 6619   7.370  -0.035   6.431 -0.8284  0.3800 -1.3935
   48MOL0     H 6620   7.650  -0.328   6.512 -1.3118 -2.2275  0.8737
   48MOL0     H 6621   7.883   0.278   6.066 -1.4707 -0.0676  0.5320
   48MOL0     H 6622   8.039   0.423   6.002  0.8042 -0.7887 -0.3524
   48MOL0     H 6623   8.105   0.372   5.847  0.8663  1.9263  1.7981
   48MOL0     H 6624   8.030   0.525   5.862 -1.7842  0.5773 -1.7735
   49MOL0     O 6625   6.155   3.294   8.962 -0.3272  0.3286  0.2014
   49MOL0     C 6626   6.241   3.282   9.046  0.1390 -0.3839 -0.1756
   49MOL0     O 6627   6.345   3.196   9.046  1.0733  0.0159  0.3754
   49MOL0     C 6628   6.347   3.110   8.947  0.1568 -0.3344  0.1893
   49MOL0     C 6629   6.241   3.017   8.914 -0.7194  0.5618 -0.4960
   49MOL0     C 6630   6.254   2.934   8.798  0.2943  0.0916 -0.1454
   49MOL0     C 6631   6.375   2.927   8.722  0.7940  0.6039 -0.9008
   49MOL0     O 6632   6.389   2.852   8.615  0.9639 -0.8145  0.6186
   49MOL0     C 6633   6.295   2.863   8.513  0.3852 -0.0706 -0.8835
   49MOL0     C 6634   6.363   2.882   8.381  0.2307 -0.4336  0.4235
   49MOL0     C 6635   6.254   2.899   8.270  0.3325  0.2712  0.0530
   49MOL0     C 6636   6.323   2.953   8.145 -0.3536 -0.0816 -0.4591
   49MOL0     C 6637   6.216   2.959   8.044 -1.2345  0.2110 -0.1399
   49MOL0     C 6638   6.279   3.021   7.913 -0.5611  0.5079 -0.6678
   49MOL0     C 6639   6.170   3.017   7.805  0.1676  0.8290 -0.6521
   49MOL0     C 6640   6.193   3.096   7.686  0.2376  0.3652  0.3813
   49MOL0     N 6641   6.170   3.238   7.722 -0.5319 -0.8160 -0.2417
   49MOL0     C 6642   6.061   3.292   7.794  0.2121 -0.0149  1.0360
   49MOL0     C 6643   6.072   3.422   7.785  0.3712  0.2816  0.4759
   49MOL0     C 6644   5.966   3.529   7.811  0.4586  0.1516  0.3770
   49MOL0     C 6645   5.898   3.517   7.953 -0.0900  0.1156 -0.4055
   49MOL0     C 6646   5.826   3.643   8.001 -0.0919  0.4947 -0.0885
   49MOL0     C 6647   5.723   3.689   7.904  0.4761 -0.1267  0.8709
   49MOL0     O 6648   5.626   3.585   7.896 -0.6876 -0.7217 -0.0467
   49MOL0     C 6649   5.556   3.593   7.789  0.1600 -0.1990  0.6948
   49MOL0     C 6650   5.532   3.487   7.708  0.7009  0.8983 -0.4726
   49MOL0     C 6651   5.448   3.493   7.600 -0.7257  0.7527 -0.2958
   49MOL0     C 6652   5.426   3.370   7.520 -0.2483 -0.3132  0.2344
   49MOL0     C 6653   5.381   3.609   7.568 -0.3178  0.3622  0.5393
   49MOL0     C 6654   5.299   3.638   7.446  0.3809 -0.0961  0.3909
   49MOL0     O 6655   5.196   3.711   7.468 -0.0346  0.2908  0.4230
   49MOL0     C 6656   5.156   3.811   7.377  0.4153  0.0925  0.5134
   49MOL0     C 6657   5.213   3.847   7.251 -0.0979 -0.4659  0.1442
   49MOL0     C 6658   5.159   3.955   7.178 -0.5872 -0.0865 -0.3274
   49MOL0     C 6659   5.054   4.033   7.241  0.1404 -0.8836 -0.1686
   49MOL0     O 6660   5.000   4.151   7.190  0.0417 -0.2477 -0.7596
   49MOL0     C 6661   5.083   4.235   7.102 -0.4865  0.5584  0.2501
   49MOL0     C 6662   5.001   4.365   7.079  0.8061  0.3021  0.1191
   49MOL0     C 6663   4.976   4.441   7.210  0.0363 -0.4305  0.7443
   49MOL0     C 6664   4.923   4.581   7.174 -0.4209  0.4200 -0.1717
   49MOL0     C 6665   4.919   4.662   7.299 -0.0376 -0.3015  0.5816
   49MOL0     C 6666   4.803   4.605   7.400 -0.0651 -0.2931  0.1892
   49MOL0     C 6667   4.772   4.704   7.505  0.3324 -1.2127 -0.5379
   49MOL0     C 6668   4.660   4.662   7.608  0.4935  0.6090  0.1611
   49MOL0    Cl 6669   4.707   4.518   7.697 -0.4207 -0.4845 -0.5163
   49MOL0     C 6670   4.992   3.984   7.351 -0.0689 -0.0829 -1.0063
   49MOL0     C 6671   5.038   3.868   7.417 -0.2399 -0.5541  0.9233
   49MOL0     O 6672   5.329   3.584   7.337  0.3538 -0.1159  0.0028
   49MOL0     C 6673   5.406   3.725   7.639  0.4635  0.6891 -0.9259
   49MOL0     C 6674   5.497   3.722   7.751 -0.0783  0.1993  0.4946
   49MOL0     N 6675   6.187   3.454   7.709  0.1639  0.5442 -0.4510
   49MOL0     N 6676   6.241   3.343   7.672 -0.0877 -1.2256 -0.4001
   49MOL0     C 6677   6.471   3.017   8.752 -1.3452  0.5749 -0.3221
   49MOL0     C 6678   6.455   3.109   8.859 -0.9637  0.2094  0.7596
   49MOL0     C 6679   6.227   3.365   9.164  0.5123  0.4135  0.5160
   49MOL0     C 6680   6.262   3.504   9.169  0.3676  0.7411  0.6613
   49MOL0     C 6681   6.245   3.589   9.272  0.9031 -0.4920 -0.6111
   49MOL0     C 6682   6.178   3.536   9.385 -0.4538 -0.5087 -0.1356
   49MOL0     O 6683   6.150   3.609   9.497  0.6323  0.3111 -0.0060
   49MOL0     C 6684   6.050   3.714   9.474  0.4246  0.2113  0.5529
   49MOL0     C 6685   6.092   3.851   9.407  0.1994  0.2844  0.0162
   49MOL0     C 6686   6.219   3.907   9.455 -0.2415  1.1495 -0.2587
   49MOL0     C 6687   6.280   4.018   9.367 -0.1442  1.1563 -0.6324
   49MOL0     C 6688   6.301   3.972   9.235  0.0223  0.0377  0.2282
   49MOL0     C 6689   6.314   3.932   9.123  0.7765 -0.3080 -0.1347
   49MOL0     C 6690   6.141   3.404   9.382  0.8043  0.2077 -0.0057
   49MOL0     C 6691   6.164   3.313   9.276 -0.5733 -0.0188  0.3924
   49MOL0     C 6692   6.114   3.180   9.298  0.7212 -0.4818  0.3665
   49MOL0     H 6693   6.155   3.017   8.980  0.3650  0.5311  0.9579
   49MOL0     H 6694   6.164   2.885   8.765  0.4821  0.2853 -0.9828
   49MOL0     H 6695   6.226   2.946   8.530  2.5212  1.4811  0.8728
   49MOL0     H 6696   6.255   2.762   8.518  2.9685 -1.1470  3.6223
   49MOL0     H 6697   6.410   2.981   8.384 -3.7995  1.7583 -1.2279
   49MOL0     H 6698   6.436   2.801   8.369  0.2846 -0.1903 -1.1068
   49MOL0     H 6699   6.207   2.805   8.242  2.3750  0.0894 -3.1943
   49MOL0     H 6700   6.177   2.965   8.313 -1.5690 -2.0541  0.4225
   49MOL0     H 6701   6.377   3.047   8.160  0.5514 -0.7383  0.5491
   49MOL0     H 6702   6.397   2.879   8.112  0.2995  0.4994 -0.3387
   49MOL0     H 6703   6.127   3.016   8.074 -1.4992 -1.1805  1.8658
   49MOL0     H 6704   6.179   2.856   8.036 -2.1752  0.2748  2.5573
   49MOL0     H 6705   6.308   3.122   7.945  0.1759 -0.4191  1.8422
   49MOL0     H 6706   6.367   2.970   7.875 -0.9293  0.7719 -1.9070
   49MOL0     H 6707   6.074   3.047   7.847 -0.9118 -1.3800 -1.4008
   49MOL0     H 6708   6.166   2.910   7.782  1.2412  1.3116 -3.4661
   49MOL0     H 6709   6.291   3.083   7.640 -0.1385 -2.8754  0.3024
   49MOL0     H 6710   6.113   3.078   7.614 -1.6387  1.3671  2.1256
   49MOL0     H 6711   5.978   3.231   7.827 -0.6517 -1.1050 -2.7089
   49MOL0     H 6712   5.887   3.531   7.736  0.6889 -1.1780  0.0798
   49MOL0     H 6713   6.012   3.628   7.803 -0.5888  0.6380  0.1473
   49MOL0     H 6714   5.820   3.440   7.951  1.6183 -1.6797 -0.5742
   49MOL0     H 6715   5.969   3.488   8.030 -1.5653 -1.0581  0.5558
   49MOL0     H 6716   5.781   3.628   8.100  2.8244 -1.3326  1.0745
   49MOL0     H 6717   5.902   3.718   8.025  1.8580 -0.6587 -2.2866
   49MOL0     H 6718   5.683   3.783   7.943  1.1471 -0.3015  2.0416
   49MOL0     H 6719   5.776   3.714   7.811 -0.5449 -3.2540 -0.6683
   49MOL0     H 6720   5.596   3.401   7.726  1.1399  1.8636  3.5401
   49MOL0     H 6721   5.500   3.293   7.541  0.1574  0.1571  0.5486
   49MOL0     H 6722   5.428   3.392   7.413 -1.5810  0.7282  0.3819
   49MOL0     H 6723   5.326   3.335   7.550  0.2661 -0.1411  2.3073
   49MOL0     H 6724   5.295   3.786   7.214 -0.3892 -1.4541  1.0704
   49MOL0     H 6725   5.208   3.984   7.085 -0.7765  0.4951 -0.2539
   49MOL0     H 6726   5.186   4.250   7.137 -0.7864 -1.8243  2.5168
   49MOL0     H 6727   5.104   4.183   7.009  0.3573 -1.7366  1.6336
   49MOL0     H 6728   5.048   4.429   7.004 -4.2540  4.8742  0.1961
   49MOL0     H 6729   4.902   4.332   7.045  1.6267 -1.9855 -0.2362
   49MOL0     H 6730   5.072   4.457   7.259 -0.8525  2.6431  1.6967
   49MOL0     H 6731   4.901   4.377   7.257  1.1172 -4.0498 -1.9620
   49MOL0     H 6732   4.825   4.564   7.129  0.0453 -2.8187 -0.1864
   49MOL0     H 6733   4.990   4.632   7.105  3.3206  0.7316  3.3110
   49MOL0     H 6734   5.009   4.648   7.358  0.4937  2.4851  0.5732
   49MOL0     H 6735   4.919   4.767   7.268  2.3750 -1.0698 -2.6413
   49MOL0     H 6736   4.844   4.518   7.450 -2.9526 -1.8888 -0.0365
   49MOL0     H 6737   4.718   4.564   7.345 -1.7072 -2.0482  3.7831
   49MOL0     H 6738   4.743   4.796   7.454  0.7706  0.6588  2.3577
   49MOL0     H 6739   4.867   4.724   7.556  0.2987 -0.6300 -0.6978
   49MOL0     H 6740   4.567   4.641   7.555  0.6409  0.3499  0.0041
   49MOL0     H 6741   4.639   4.738   7.685 -1.0882 -1.9324  2.4029
   49MOL0     H 6742   4.902   4.034   7.384 -2.5068 -1.6513 -4.7266
   49MOL0     H 6743   4.986   3.828   7.504 -1.2043  0.9494  1.0823
   49MOL0     H 6744   5.375   3.828   7.620  2.2946  1.6410  0.9281
   49MOL0     H 6745   5.513   3.821   7.792 -1.1109  0.7073 -0.2797
   49MOL0     H 6746   6.566   3.008   8.700 -0.2088  0.7501  1.6022
   49MOL0     H 6747   6.542   3.161   8.898  0.4197 -0.3921 -1.3161
   49MOL0     H 6748   6.327   3.548   9.093  0.8492 -3.0370 -1.3846
   49MOL0     H 6749   6.279   3.690   9.253  0.1213 -0.2691 -0.8775
   49MOL0     H 6750   5.966   3.672   9.419 -0.0026  0.8563  0.7028
   49MOL0     H 6751   6.022   3.745   9.575  1.6021  1.2000  0.5956
   49MOL0     H 6752   6.013   3.925   9.424 -0.6980 -1.0595  1.9970
   49MOL0     H 6753   6.105   3.829   9.300  2.3562 -0.7931  0.4553
   49MOL0     H 6754   6.194   3.935   9.557  1.1753 -1.8519  1.0296
   49MOL0     H 6755   6.306   3.842   9.466 -0.3800  0.8689 -0.7460
   49MOL0     H 6756   6.369   4.067   9.408 -2.9439  5.4954  0.9495
   49MOL0     H 6757   6.214   4.102   9.345  2.5142  2.5398 -4.1285
   49MOL0     H 6758   6.314   3.895   9.023 -0.0513 -2.5886  0.6366
   49MOL0     H 6759   6.104   3.370   9.479  1.2296  0.3078  0.1941
   49MOL0     H 6760   6.010   3.168   9.264  1.3769  0.0013 -1.9853
   49MOL0     H 6761   6.179   3.106   9.250 -2.1067 -2.7323 -0.2887
   49MOL0     H 6762   6.116   3.149   9.403 -1.7671  0.8458  0.8862
   50MOL0     O 6763   7.429   3.486   7.287  0.0613  0.4714  0.7055
   50MOL0     C 6764   7.414   3.357   7.307 -0.5677  0.0461 -1.2300
   50MOL0     O 6765   7.424   3.261   7.211 -0.4673  0.3058  0.6104
   50MOL0     C 6766   7.465   3.292   7.086 -1.3116 -0.7947  0.3135
   50MOL0     C 6767   7.394   3.267   6.977 -0.1526 -0.2120  0.6146
   50MOL0     C 6768   7.431   3.302   6.846  0.1271 -0.1883 -0.2049
   50MOL0     C 6769   7.544   3.383   6.824  0.9557 -0.7764  0.3327
   50MOL0     O 6770   7.564   3.430   6.698  0.4896 -0.5369 -0.0436
   50MOL0     C 6771   7.685   3.502   6.662 -0.2276  0.0462  0.7430
   50MOL0     C 6772   7.686   3.510   6.505 -0.7125 -0.2234 -0.4517
   50MOL0     C 6773   7.739   3.385   6.442  0.4746  0.6690  0.7068
   50MOL0     C 6774   7.772   3.430   6.293  0.2521 -0.0568  1.2218
   50MOL0     C 6775   7.784   3.318   6.198  0.2329 -0.0018 -0.0883
   50MOL0     C 6776   7.788   3.362   6.054 -0.2539  0.7807  0.8018
   50MOL0     C 6777   7.815   3.249   5.954 -0.6736 -0.0341  0.1799
   50MOL0     C 6778   7.781   3.293   5.803  0.4110  0.2554 -0.0240
   50MOL0     N 6779   7.867   3.202   5.720  0.2011 -0.8172  0.1992
   50MOL0     C 6780   7.818   3.096   5.660  0.3879  0.0571  0.3789
   50MOL0     C 6781   7.907   3.053   5.567  1.2630 -0.6928  0.1557
   50MOL0     C 6782   7.891   2.950   5.459 -0.5379 -0.1611 -0.1549
   50MOL0     C 6783   7.854   3.035   5.339  0.5774 -0.4154  0.3590
   50MOL0     C 6784   7.708   3.085   5.349 -0.2033 -0.3314  0.0565
   50MOL0     C 6785   7.602   2.977   5.336 -0.6721 -0.0568  0.6073
   50MOL0     O 6786   7.477   3.036   5.355 -0.0711  0.2789 -0.0429
   50MOL0     C 6787   7.458   3.068   5.490  0.5101  0.9719 -0.2666
   50MOL0     C 6788   7.501   3.000   5.606 -0.6254  0.4591 -0.6063
   50MOL0     C 6789   7.473   3.061   5.733 -0.6919 -0.1317 -0.5583
   50MOL0     C 6790   7.485   2.967   5.860 -0.3352 -0.1405  0.0292
   50MOL0     C 6791   7.423   3.186   5.749 -0.0115  0.1862  0.5840
   50MOL0     C 6792   7.413   3.253   5.877  0.4785  0.8833  0.8428
   50MOL0     O 6793   7.330   3.363   5.872 -0.6186  0.7001 -0.2033
   50MOL0     C 6794   7.317   3.428   5.990 -0.7311 -0.2873  0.4353
   50MOL0     C 6795   7.405   3.536   6.002  0.6822  0.6764 -0.1167
   50MOL0     C 6796   7.416   3.614   6.116 -0.2344 -0.2458 -0.0125
   50MOL0     C 6797   7.341   3.581   6.226  0.5407 -0.6176 -0.1585
   50MOL0     O 6798   7.331   3.661   6.341 -0.0438  0.4323 -0.2037
   50MOL0     C 6799   7.417   3.778   6.349  0.0162 -0.1320  0.2619
   50MOL0     C 6800   7.390   3.847   6.486 -0.0855  0.9452  0.2887
   50MOL0     C 6801   7.484   3.962   6.511  0.1979  0.2485 -1.3873
   50MOL0     C 6802   7.465   4.012   6.652 -0.5259  0.4248 -0.2450
   50MOL0     C 6803   7.543   4.144   6.676  0.4552 -0.3709  0.9759
   50MOL0     C 6804   7.499   4.209   6.807  0.0324 -0.3749 -0.2393
   50MOL0     C 6805   7.353   4.269   6.806  0.0400  0.3037 -0.1312
   50MOL0     C 6806   7.263   4.189   6.897  0.8396  0.1246 -0.3147
   50MOL0    Cl 6807   7.293   4.254   7.063 -0.2556  0.0861  0.1203
   50MOL0     C 6808   7.255   3.472   6.216  0.3965  0.7335 -0.5227
   50MOL0     C 6809   7.249   3.386   6.100  0.2636 -0.2248  0.2853
   50MOL0     O 6810   7.506   3.236   5.956  0.1562 -0.4649  0.0610
   50MOL0     C 6811   7.391   3.259   5.638 -0.2246 -0.1904  0.7255
   50MOL0     C 6812   7.397   3.195   5.513  0.3444 -0.1402  0.2483
   50MOL0     N 6813   8.003   3.151   5.568 -0.3307  0.3472 -0.5175
   50MOL0     N 6814   7.985   3.236   5.662  0.1649  0.0261 -0.4667
   50MOL0     C 6815   7.628   3.397   6.930  0.4533 -0.6925  0.0983
   50MOL0     C 6816   7.596   3.353   7.067  0.9365 -0.0702  0.1213
   50MOL0     C 6817   7.376   3.314   7.447 -0.2938  0.4174 -0.4587
   50MOL0     C 6818   7.452   3.365   7.551  0.5974 -0.7799  0.5536
   50MOL0     C 6819   7.446   3.321   7.684  0.7020  0.0898  0.2484
   50MOL0     C 6820   7.340   3.236   7.716 -0.3477  0.3673  0.1605
   50MOL0     O 6821   7.331   3.210   7.855 -0.1161  0.5320  0.5004
   50MOL0     C 6822   7.262   3.091   7.888 -0.1433  0.5674  0.6025
   50MOL0     C 6823   7.306   3.044   8.026 -0.0622 -0.0439 -0.2980
   50MOL0     C 6824   7.212   2.961   8.103 -0.0406 -0.1097  0.1748
   50MOL0     C 6825   7.089   3.035   8.165  0.5011  0.1042 -0.0240
   50MOL0     C 6826   7.134   3.116   8.283  0.2022  0.0501 -0.1307
   50MOL0     C 6827   7.176   3.181   8.380  1.1918  0.2942  0.1097
   50MOL0     C 6828   7.264   3.175   7.615 -0.2845 -0.1197  0.8496
   50MOL0     C 6829   7.283   3.215   7.479 -0.4061  0.8803  0.3063
   50MOL0     C 6830   7.201   3.144   7.367 -0.7667  0.2324  0.8045
   50MOL0     H 6831   7.298   3.217   6.975 -1.5786  2.3905  0.5887
   50MOL0     H 6832   7.362   3.273   6.768  2.2763 -3.7466 -1.0049
   50MOL0     H 6833   7.779   3.455   6.693  1.1491  1.9277 -0.3834
   50MOL0     H 6834   7.692   3.601   6.707  2.6921 -0.5831  1.8803
   50MOL0     H 6835   7.586   3.541   6.472 -0.9316  1.8866  1.9008
   50MOL0     H 6836   7.754   3.593   6.484  2.4724 -2.2623  1.0662
   50MOL0     H 6837   7.827   3.346   6.493  2.0727  1.4187 -1.3795
   50MOL0     H 6838   7.658   3.311   6.441 -1.9856  3.0615 -3.0123
   50MOL0     H 6839   7.701   3.504   6.254  1.2423  2.3759  3.6916
   50MOL0     H 6840   7.864   3.488   6.308 -1.5920  2.9833  1.6679
   50MOL0     H 6841   7.700   3.249   6.206  0.4302 -0.2933 -0.4824
   50MOL0     H 6842   7.871   3.262   6.231 -1.6648 -2.6265  0.8153
   50MOL0     H 6843   7.692   3.406   6.025 -1.9925 -1.0230  3.3277
   50MOL0     H 6844   7.868   3.435   6.041  1.0910 -0.4629  1.7286
   50MOL0     H 6845   7.759   3.161   5.987  1.5737 -1.4238  0.5618
   50MOL0     H 6846   7.922   3.226   5.966 -1.1845 -1.6385  2.4461
   50MOL0     H 6847   7.673   3.286   5.788  0.2351  2.0302  0.2509
   50MOL0     H 6848   7.799   3.397   5.775  1.3839  0.3403  0.8193
   50MOL0     H 6849   7.719   3.053   5.672  0.3453 -1.8647 -4.5495
   50MOL0     H 6850   7.821   2.867   5.476  1.1003 -1.3268  1.2113
   50MOL0     H 6851   7.990   2.911   5.433 -0.2776  1.2123 -1.3448
   50MOL0     H 6852   7.926   3.116   5.330  1.0619 -0.9621 -0.9257
   50MOL0     H 6853   7.867   2.967   5.254  2.8605 -1.5236  1.4908
   50MOL0     H 6854   7.690   3.159   5.427 -3.7953  1.0791 -1.8811
   50MOL0     H 6855   7.694   3.149   5.262 -0.0099  0.5062  0.6295
   50MOL0     H 6856   7.615   2.938   5.234  1.3025  3.7358 -0.8099
   50MOL0     H 6857   7.610   2.897   5.411  0.3093  1.8607  2.6380
   50MOL0     H 6858   7.541   2.900   5.620 -0.2268  0.6414 -0.4231
   50MOL0     H 6859   7.471   2.864   5.828 -1.6846  0.6269 -2.0179
   50MOL0     H 6860   7.403   2.990   5.929 -0.5152 -1.3485  0.2312
   50MOL0     H 6861   7.576   2.955   5.920  0.9332  0.0811 -1.7728
   50MOL0     H 6862   7.468   3.558   5.916 -0.5798  0.1582 -1.2132
   50MOL0     H 6863   7.484   3.698   6.109 -1.2168  0.5894  0.1191
   50MOL0     H 6864   7.522   3.748   6.342  0.5918  1.8836 -0.1788
   50MOL0     H 6865   7.392   3.841   6.263  0.2437  0.0550  0.3317
   50MOL0     H 6866   7.287   3.876   6.507 -0.3983 -1.3830  2.5378
   50MOL0     H 6867   7.414   3.765   6.555  0.4064  1.6862  1.0213
   50MOL0     H 6868   7.465   4.044   6.441  0.5919 -0.2649 -2.1091
   50MOL0     H 6869   7.582   3.918   6.495 -0.5073 -2.0767  0.1190
   50MOL0     H 6870   7.491   3.928   6.718 -2.9284  3.2867  5.0167
   50MOL0     H 6871   7.363   4.044   6.674 -0.4844 -0.7321  1.9918
   50MOL0     H 6872   7.651   4.124   6.677  0.5800  0.1386 -0.2815
   50MOL0     H 6873   7.517   4.216   6.599 -0.1269  4.2674  4.9736
   50MOL0     H 6874   7.577   4.286   6.818  0.8587 -1.0239 -1.3786
   50MOL0     H 6875   7.519   4.128   6.878 -1.3476  0.1039  0.7376
   50MOL0     H 6876   7.308   4.255   6.708 -3.7139  0.5580  1.3648
   50MOL0     H 6877   7.343   4.373   6.838 -2.1625 -0.4777  2.0209
   50MOL0     H 6878   7.294   4.086   6.876 -0.6093  0.0049 -2.1391
   50MOL0     H 6879   7.156   4.201   6.874  0.9102  1.5419  0.0247
   50MOL0     H 6880   7.192   3.435   6.296  0.3129 -0.5159 -1.1517
   50MOL0     H 6881   7.178   3.305   6.090  0.2379 -0.4791  2.1700
   50MOL0     H 6882   7.369   3.364   5.626  0.3527 -0.3844 -3.7084
   50MOL0     H 6883   7.366   3.254   5.427 -2.3017 -0.8208  0.6577
   50MOL0     H 6884   7.722   3.451   6.919 -1.5468  2.8021 -1.8883
   50MOL0     H 6885   7.657   3.385   7.150 -1.2511  1.4425  1.2508
   50MOL0     H 6886   7.536   3.428   7.524  0.0640  0.0789  0.8466
   50MOL0     H 6887   7.515   3.371   7.751 -0.4786  0.4458  1.2369
   50MOL0     H 6888   7.153   3.101   7.887 -0.0533  1.5632 -0.2932
   50MOL0     H 6889   7.296   3.011   7.821  1.3792  1.0953  0.7146
   50MOL0     H 6890   7.323   3.117   8.105 -1.4974 -2.2511  2.2087
   50MOL0     H 6891   7.402   2.992   8.021  0.0227 -0.2379  2.1747
   50MOL0     H 6892   7.177   2.877   8.042 -0.2811 -1.5745  2.2383
   50MOL0     H 6893   7.270   2.907   8.178  2.0324  1.4401 -0.2213
   50MOL0     H 6894   7.008   2.965   8.189  0.0344  0.8686  0.6508
   50MOL0     H 6895   7.050   3.114   8.100 -2.6315 -1.5511 -0.3641
   50MOL0     H 6896   7.206   3.212   8.478 -1.0406  0.3199  0.8293
   50MOL0     H 6897   7.190   3.097   7.634  1.5156 -2.7784 -2.0377
   50MOL0     H 6898   7.260   3.105   7.284 -0.5340  5.1447 -1.7045
   50MOL0     H 6899   7.135   3.066   7.408  0.8934 -2.1072 -0.6879
   50MOL0     H 6900   7.141   3.228   7.331  2.3765  0.5574 -4.6652
   51MOL0     O 6901   3.413   4.815   4.524  0.5319  0.6011  0.7824
   51MOL0     C 6902   3.305   4.881   4.510 -0.4828 -0.0855  0.5564
   51MOL0     O 6903   3.184   4.845   4.548 -0.6988  0.7970 -0.0141
   51MOL0     C 6904   3.172   4.744   4.638  0.2398 -0.7905  0.2174
   51MOL0     C 6905   3.134   4.613   4.603  0.4168  0.0806 -0.3437
   51MOL0     C 6906   3.110   4.508   4.698 -1.4711  0.4954  0.4721
   51MOL0     C 6907   3.123   4.536   4.834 -0.5141 -0.6624  0.4945
   51MOL0     O 6908   3.102   4.458   4.942  1.2761 -0.3471  0.1913
   51MOL0     C 6909   3.108   4.318   4.929  0.2346 -0.3125 -0.3196
   51MOL0     C 6910   3.249   4.273   4.897  0.7257  0.1473  0.1727
   51MOL0     C 6911   3.341   4.325   5.009 -0.8143  0.5758  0.2998
   51MOL0     C 6912   3.334   4.238   5.132  0.5485 -0.1135  0.2759
   51MOL0     C 6913   3.431   4.298   5.231 -1.1343 -0.2077 -0.7039
   51MOL0     C 6914   3.429   4.234   5.369 -0.0747  0.1613  0.6844
   51MOL0     C 6915   3.472   4.085   5.356  0.3515  0.0719 -1.0965
   51MOL0     C 6916   3.479   4.018   5.487  0.2468 -0.5057  0.3526
   51MOL0     N 6917   3.488   3.874   5.463 -0.7503 -0.2655 -0.2497
   51MOL0     C 6918   3.601   3.799   5.463 -0.2615  0.2542 -0.2378
   51MOL0     C 6919   3.564   3.686   5.401 -0.6188  0.2660  0.6161
   51MOL0     C 6920   3.642   3.574   5.353 -0.0816  0.0472  0.2216
   51MOL0     C 6921   3.646   3.456   5.463  1.2882  0.0439 -0.0228
   51MOL0     C 6922   3.517   3.374   5.484  0.7934  0.2621  0.0988
   51MOL0     C 6923   3.457   3.336   5.357  0.0231 -0.0195  1.5434
   51MOL0     O 6924   3.547   3.275   5.269  0.0395 -0.3594 -0.1416
   51MOL0     C 6925   3.507   3.255   5.137  0.2092  0.4292  0.1926
   51MOL0     C 6926   3.373   3.234   5.104  0.7835  1.0623  0.6423
   51MOL0     C 6927   3.343   3.208   4.974 -0.1151  1.0706 -0.0458
   51MOL0     C 6928   3.199   3.165   4.949 -1.4249  0.0426  0.1824
   51MOL0     C 6929   3.448   3.211   4.874  0.1040 -0.0792  0.1325
   51MOL0     C 6930   3.425   3.172   4.730 -0.2412  0.6496  0.0400
   51MOL0     O 6931   3.535   3.125   4.659  0.0305  0.5159  0.2191
   51MOL0     C 6932   3.518   3.068   4.528 -1.1431 -1.5510 -0.7263
   51MOL0     C 6933   3.522   2.931   4.507  0.2267  0.1405 -0.2252
   51MOL0     C 6934   3.513   2.882   4.376 -0.8763  0.4996  0.5853
   51MOL0     C 6935   3.503   2.963   4.267  0.4299 -0.0720  0.1867
   51MOL0     O 6936   3.503   2.925   4.131  0.4751  0.4563  0.4357
   51MOL0     C 6937   3.543   2.792   4.091 -1.0011 -0.1875 -0.8922
   51MOL0     C 6938   3.578   2.780   3.947  0.9433 -0.2357 -0.0516
   51MOL0     C 6939   3.463   2.804   3.852 -0.3060  0.1601 -0.8601
   51MOL0     C 6940   3.502   2.754   3.702  0.4371  1.1482 -0.7432
   51MOL0     C 6941   3.385   2.764   3.596  0.0176 -0.2239 -0.4730
   51MOL0     C 6942   3.419   2.687   3.462  0.3201 -0.1450  0.0475
   51MOL0     C 6943   3.539   2.740   3.379 -0.2800 -0.2136 -0.0322
   51MOL0     C 6944   3.506   2.889   3.333  0.6694 -0.2466  0.5488
   51MOL0    Cl 6945   3.624   2.934   3.217 -0.5030 -0.5614  0.3226
   51MOL0     C 6946   3.502   3.106   4.287  0.5033  0.7083 -0.2418
   51MOL0     C 6947   3.505   3.150   4.422 -0.0856 -0.1692  0.2480
   51MOL0     O 6948   3.319   3.203   4.681  0.5728  0.8933 -0.0369
   51MOL0     C 6949   3.576   3.255   4.907 -0.5328 -0.0370  0.1460
   51MOL0     C 6950   3.603   3.263   5.042 -0.6531 -0.1966  0.2844
   51MOL0     N 6951   3.430   3.694   5.364  0.9952  0.3275 -0.7914
   51MOL0     N 6952   3.388   3.799   5.415  0.3147  1.2498  0.3998
   51MOL0     C 6953   3.165   4.665   4.871 -1.1849 -0.5952  0.2554
   51MOL0     C 6954   3.197   4.766   4.773  0.7796  1.0383  0.4771
   51MOL0     C 6955   3.311   5.001   4.432 -0.6724  0.5867 -0.2015
   51MOL0     C 6956   3.395   5.005   4.326 -0.4044 -0.1831 -1.1669
   51MOL0     C 6957   3.399   5.125   4.254  0.2770  0.3896  0.6216
   51MOL0     C 6958   3.302   5.226   4.273  0.4891  0.6185 -0.6095
   51MOL0     O 6959   3.307   5.339   4.201  1.0680  0.1686  0.0891
   51MOL0     C 6960   3.344   5.450   4.285 -0.4240 -0.6089 -0.8578
   51MOL0     C 6961   3.405   5.557   4.191 -0.4665  0.2343  0.1092
   51MOL0     C 6962   3.449   5.694   4.249 -0.4817 -0.5114  0.0049
   51MOL0     C 6963   3.331   5.791   4.236  0.0397  0.2176  0.2542
   51MOL0     C 6964   3.367   5.919   4.299  0.0222  0.4390  0.2830
   51MOL0     C 6965   3.395   6.024   4.358 -0.1464 -0.3884 -0.8419
   51MOL0     C 6966   3.215   5.216   4.375 -0.6463 -0.4871  0.5837
   51MOL0     C 6967   3.220   5.100   4.449  0.3040 -0.2980 -0.5175
   51MOL0     C 6968   3.115   5.106   4.564 -0.2661 -0.5719 -0.4239
   51MOL0     H 6969   3.125   4.584   4.498 -0.7407 -3.1146  0.5057
   51MOL0     H 6970   3.093   4.408   4.658  0.8903 -0.3590  1.4400
   51MOL0     H 6971   3.049   4.278   4.846  2.5230  0.5465 -2.4734
   51MOL0     H 6972   3.059   4.271   5.016 -1.2883 -1.0464 -1.5241
   51MOL0     H 6973   3.250   4.164   4.885 -3.6964 -0.1469  0.8580
   51MOL0     H 6974   3.286   4.325   4.809 -2.3366  0.7785 -0.8803
   51MOL0     H 6975   3.440   4.321   4.963 -1.1658 -1.4399 -0.4019
   51MOL0     H 6976   3.318   4.430   5.027 -1.9532  0.1949  1.1614
   51MOL0     H 6977   3.236   4.238   5.180  0.6144  0.2705  0.4128
   51MOL0     H 6978   3.370   4.137   5.110 -0.2330 -0.1853 -0.7339
   51MOL0     H 6979   3.413   4.405   5.244  0.7452  0.0630  0.0571
   51MOL0     H 6980   3.534   4.300   5.194 -0.1905 -3.5355  1.3058
   51MOL0     H 6981   3.513   4.265   5.432  1.6590  0.4619 -1.6294
   51MOL0     H 6982   3.333   4.251   5.419  0.5256  1.4867  1.4372
   51MOL0     H 6983   3.568   4.070   5.306  0.2470 -0.9280 -1.0220
   51MOL0     H 6984   3.396   4.026   5.305 -0.5416  0.2202  0.0111
   51MOL0     H 6985   3.572   4.054   5.533  2.5593 -4.2182 -0.9107
   51MOL0     H 6986   3.399   4.043   5.558  0.6517  2.5090 -0.1315
   51MOL0     H 6987   3.700   3.830   5.494 -1.1124  1.6094  1.2669
   51MOL0     H 6988   3.747   3.603   5.342  0.5954 -1.8480  1.3100
   51MOL0     H 6989   3.610   3.544   5.253 -2.5051 -0.4054  1.0824
   51MOL0     H 6990   3.724   3.381   5.446  1.0034 -0.4005  0.6067
   51MOL0     H 6991   3.682   3.500   5.556  0.6296  1.0941 -0.2462
   51MOL0     H 6992   3.532   3.290   5.553  0.4370 -0.6180 -0.8801
   51MOL0     H 6993   3.439   3.433   5.532  0.3275 -0.5078  0.3116
   51MOL0     H 6994   3.370   3.273   5.373 -2.4914  2.2988 -1.6441
   51MOL0     H 6995   3.414   3.427   5.314  0.8005 -0.7340 -0.8812
   51MOL0     H 6996   3.304   3.236   5.188 -2.7479 -0.7800 -1.9265
   51MOL0     H 6997   3.153   3.240   4.884 -2.2485 -0.8818 -0.3354
   51MOL0     H 6998   3.151   3.152   5.047  2.9674 -3.5602  2.2780
   51MOL0     H 6999   3.194   3.069   4.896 -1.7986  0.2931 -0.2420
   51MOL0     H 7000   3.547   2.868   4.592  1.3046 -0.2136 -0.7942
   51MOL0     H 7001   3.536   2.776   4.377 -0.1564  0.6438  0.0879
   51MOL0     H 7002   3.629   2.760   4.152 -0.8549 -0.3059 -1.1587
   51MOL0     H 7003   3.464   2.719   4.111 -2.2009  1.1128 -0.7341
   51MOL0     H 7004   3.671   2.830   3.918 -0.0897  1.3184 -0.7849
   51MOL0     H 7005   3.609   2.676   3.932 -0.1002 -0.5544 -0.0722
   51MOL0     H 7006   3.446   2.912   3.855  1.6902  0.5042  0.8455
   51MOL0     H 7007   3.370   2.750   3.870 -1.1202  1.2885 -1.5437
   51MOL0     H 7008   3.539   2.651   3.706 -1.5576  0.3294 -1.7649
   51MOL0     H 7009   3.579   2.820   3.662  2.6347 -0.7844  0.0338
   51MOL0     H 7010   3.304   2.703   3.637  1.2481 -1.8260 -0.3393
   51MOL0     H 7011   3.362   2.870   3.576  1.5743  0.2897  0.3202
   51MOL0     H 7012   3.331   2.684   3.396  2.7604 -1.5362 -3.4234
   51MOL0     H 7013   3.435   2.583   3.493  2.6130 -0.6315 -2.4738
   51MOL0     H 7014   3.566   2.677   3.293 -2.2354  1.7107 -2.2125
   51MOL0     H 7015   3.635   2.740   3.432  0.8737 -0.4452 -2.0201
   51MOL0     H 7016   3.502   2.955   3.419 -1.3501 -1.7172  1.6682
   51MOL0     H 7017   3.406   2.889   3.289  0.4397 -2.1988  0.9793
   51MOL0     H 7018   3.494   3.171   4.199 -0.9610  2.5934  1.1925
   51MOL0     H 7019   3.511   3.259   4.427 -2.4562  0.0862 -1.1544
   51MOL0     H 7020   3.647   3.273   4.827  1.5088  0.5557  1.9804
   51MOL0     H 7021   3.709   3.259   5.067 -0.1399 -0.7435 -1.7792
   51MOL0     H 7022   3.167   4.703   4.972 -1.2167  2.8291 -0.9010
   51MOL0     H 7023   3.209   4.869   4.806 -1.0920  0.3056  3.9447
   51MOL0     H 7024   3.459   4.923   4.295 -0.3733  0.3251 -2.5251
   51MOL0     H 7025   3.480   5.136   4.182  1.6731 -0.5045  1.9746
   51MOL0     H 7026   3.268   5.497   4.348  0.7921  0.7724 -0.3761
   51MOL0     H 7027   3.428   5.424   4.351  1.3088  0.5752 -2.5073
   51MOL0     H 7028   3.344   5.581   4.104 -2.7035  1.0847  1.8129
   51MOL0     H 7029   3.493   5.511   4.146 -2.9572 -3.1492 -1.7138
   51MOL0     H 7030   3.468   5.686   4.357  0.5440  1.0566 -0.0160
   51MOL0     H 7031   3.537   5.734   4.197 -0.5397  3.9081  2.7843
   51MOL0     H 7032   3.240   5.744   4.275  1.5985 -1.3812  2.2334
   51MOL0     H 7033   3.330   5.813   4.129  1.6805  2.8306  0.6787
   51MOL0     H 7034   3.420   6.116   4.405 -2.3850  0.1802 -0.6272
   51MOL0     H 7035   3.143   5.294   4.398  1.1510  1.4267  0.0885
   51MOL0     H 7036   3.079   5.208   4.580  1.4150 -0.1016  0.5319
   51MOL0     H 7037   3.033   5.034   4.566 -2.6654  1.9901 -0.3652
   51MOL0     H 7038   3.178   5.098   4.653 -3.1093 -1.6321  1.6398
   52MOL0     O 7039   7.066   1.437   7.154 -0.6672 -1.1461  0.3286
   52MOL0     C 7040   7.003   1.488   7.244  0.0133 -0.5413  1.1639
   52MOL0     O 7041   6.868   1.503   7.247  0.6428  0.1289 -0.5898
   52MOL0     C 7042   6.782   1.472   7.142 -0.9952 -0.4400  0.1115
   52MOL0     C 7043   6.809   1.469   7.008  0.0770  0.4058  0.2393
   52MOL0     C 7044   6.706   1.425   6.927  0.4640  0.6177  0.1906
   52MOL0     C 7045   6.575   1.404   6.967 -0.3625 -0.2814  0.3057
   52MOL0     O 7046   6.470   1.371   6.881 -0.3575 -0.5214  0.0507
   52MOL0     C 7047   6.492   1.360   6.741  0.3389 -0.3098  0.2117
   52MOL0     C 7048   6.370   1.337   6.653  0.6153 -0.2239 -0.3323
   52MOL0     C 7049   6.284   1.216   6.687 -0.9109  1.0732 -0.3521
   52MOL0     C 7050   6.161   1.203   6.598  0.3928  0.5285 -0.2870
   52MOL0     C 7051   6.095   1.070   6.634  0.3584  0.2692  0.0006
   52MOL0     C 7052   5.982   1.036   6.540  1.3709  0.1061 -0.4529
   52MOL0     C 7053   5.947   0.883   6.538  0.4164 -0.2481 -0.2566
   52MOL0     C 7054   5.871   0.835   6.658 -0.0198 -0.0137  0.0089
   52MOL0     N 7055   5.731   0.872   6.676 -0.1587  0.1315  0.4694
   52MOL0     C 7056   5.633   0.818   6.594 -0.7036 -0.3590  0.3542
   52MOL0     C 7057   5.520   0.890   6.634 -0.4767  0.6781  0.3331
   52MOL0     C 7058   5.381   0.874   6.581 -0.2906 -0.3321 -0.2432
   52MOL0     C 7059   5.371   0.964   6.460  0.0688 -0.1004  0.2288
   52MOL0     C 7060   5.341   1.110   6.512 -0.4686 -0.0323 -1.0808
   52MOL0     C 7061   5.374   1.205   6.388  0.0558  0.6327 -0.7514
   52MOL0     O 7062   5.314   1.162   6.265 -0.5248 -0.5183 -0.1840
   52MOL0     C 7063   5.179   1.182   6.234  0.5540  0.3920  0.3508
   52MOL0     C 7064   5.134   1.120   6.112 -0.0150 -0.3379  0.1766
   52MOL0     C 7065   4.991   1.113   6.083  0.2281 -0.5706  0.5247
   52MOL0     C 7066   4.942   1.029   5.964 -0.3955  0.3022  0.3344
   52MOL0     C 7067   4.898   1.185   6.155  0.3688  0.1718 -0.2332
   52MOL0     C 7068   4.759   1.182   6.128  0.1880 -0.8493 -0.3061
   52MOL0     O 7069   4.715   1.230   6.009 -0.0287  0.2382 -0.7336
   52MOL0     C 7070   4.587   1.233   5.969  0.4047 -0.7556  0.0396
   52MOL0     C 7071   4.527   1.361   5.973 -0.6538 -0.3282 -0.8093
   52MOL0     C 7072   4.391   1.379   5.948  0.2797  0.1240 -0.4299
   52MOL0     C 7073   4.305   1.270   5.929 -0.8783  0.4924  1.2867
   52MOL0     O 7074   4.169   1.291   5.900 -0.4251 -0.0219 -0.2759
   52MOL0     C 7075   4.076   1.245   6.003 -0.0835  0.2145  0.6255
   52MOL0     C 7076   4.012   1.111   5.958 -0.1566 -0.6506  0.9147
   52MOL0     C 7077   3.944   1.116   5.824  0.7900 -0.2952  0.0200
   52MOL0     C 7078   3.818   1.209   5.821  0.0715  0.9648 -0.2789
   52MOL0     C 7079   3.748   1.197   5.686 -0.9887  0.2739 -0.3504
   52MOL0     C 7080   3.620   1.280   5.691 -0.7577  0.4129  0.5105
   52MOL0     C 7081   3.545   1.250   5.557  0.7073 -0.5093 -0.2422
   52MOL0     C 7082   3.396   1.290   5.574 -0.2160 -0.3914  0.7776
   52MOL0    Cl 7083   3.320   1.209   5.719 -0.8793  0.2429 -0.3906
   52MOL0     C 7084   4.360   1.137   5.940 -0.4665 -0.4267  0.2589
   52MOL0     C 7085   4.493   1.123   5.966  0.3656  0.8370  0.0718
   52MOL0     O 7086   4.681   1.159   6.221  0.2462  0.3653  0.2665
   52MOL0     C 7087   4.951   1.268   6.265 -0.0338  0.7108  0.6729
   52MOL0     C 7088   5.087   1.260   6.304 -0.8001  0.3293 -0.3347
   52MOL0     N 7089   5.556   0.965   6.745 -0.2444  0.0037  0.0047
   52MOL0     N 7090   5.683   0.959   6.768  0.1715  0.3051  0.1412
   52MOL0     C 7091   6.556   1.396   7.102 -0.8863 -0.3281  0.7892
   52MOL0     C 7092   6.661   1.424   7.188  0.3445 -0.8889  0.2993
   52MOL0     C 7093   7.073   1.541   7.364  0.1485 -1.3945  0.0168
   52MOL0     C 7094   7.000   1.604   7.470  0.8957  0.3197  0.4578
   52MOL0     C 7095   7.058   1.653   7.578  0.0506  0.5977  0.6844
   52MOL0     C 7096   7.198   1.645   7.593 -0.1977  0.4269 -0.2404
   52MOL0     O 7097   7.250   1.682   7.718 -0.4850 -1.2231 -1.1940
   52MOL0     C 7098   7.346   1.788   7.703  0.2004  1.4952  0.4661
   52MOL0     C 7099   7.400   1.813   7.840  0.8995 -0.6054 -0.8055
   52MOL0     C 7100   7.489   1.704   7.897 -0.2045 -0.1844 -0.2534
   52MOL0     C 7101   7.583   1.746   8.003 -0.8650  1.0013 -0.1904
   52MOL0     C 7102   7.533   1.795   8.132  0.6304  0.0723 -0.4625
   52MOL0     C 7103   7.481   1.816   8.244 -0.3263 -0.7578  0.6626
   52MOL0     C 7104   7.281   1.590   7.491  1.2355 -0.2499 -0.1547
   52MOL0     C 7105   7.218   1.540   7.373 -1.7215 -0.2532  0.4442
   52MOL0     C 7106   7.314   1.474   7.274  0.3265 -0.1333 -0.0887
   52MOL0     H 7107   6.901   1.510   6.967  0.4518  2.2429  2.6440
   52MOL0     H 7108   6.722   1.445   6.822 -1.5014  7.3970  0.7015
   52MOL0     H 7109   6.549   1.267   6.736  0.7319 -0.0366 -0.4516
   52MOL0     H 7110   6.552   1.443   6.703 -2.2178 -0.0250 -3.9214
   52MOL0     H 7111   6.311   1.429   6.660  2.4737  1.0261 -0.4977
   52MOL0     H 7112   6.396   1.334   6.546  3.9993 -1.2030  0.3972
   52MOL0     H 7113   6.342   1.124   6.686 -1.6514  0.4294  3.4384
   52MOL0     H 7114   6.246   1.233   6.788  1.2004  0.5470  0.5584
   52MOL0     H 7115   6.090   1.286   6.613  0.3603  0.1409  1.9743
   52MOL0     H 7116   6.189   1.196   6.492  0.5652 -2.4675 -0.1081
   52MOL0     H 7117   6.060   1.074   6.738  0.1709  2.3555 -0.0863
   52MOL0     H 7118   6.166   0.990   6.614  1.4032  1.4862 -1.3958
   52MOL0     H 7119   5.887   1.078   6.575  0.2859 -1.3416 -1.5247
   52MOL0     H 7120   6.003   1.067   6.437  3.4639 -0.9028 -0.3804
   52MOL0     H 7121   6.038   0.825   6.518  1.1521  0.4687  0.8625
   52MOL0     H 7122   5.870   0.876   6.461 -0.7984 -3.1845  1.0827
   52MOL0     H 7123   5.876   0.726   6.665 -0.1684 -0.0755 -0.7774
   52MOL0     H 7124   5.935   0.867   6.741  3.0067 -0.1994 -2.0929
   52MOL0     H 7125   5.647   0.764   6.501  1.8330  1.9615 -0.7507
   52MOL0     H 7126   5.311   0.901   6.661  1.6287  1.1420  1.0480
   52MOL0     H 7127   5.369   0.768   6.557  1.5908 -1.3224  2.6245
   52MOL0     H 7128   5.466   0.965   6.405  1.2866 -0.1701  2.2476
   52MOL0     H 7129   5.294   0.927   6.392 -1.5168  0.9855  1.3802
   52MOL0     H 7130   5.233   1.112   6.529 -0.2706  0.6775  0.2392
   52MOL0     H 7131   5.401   1.139   6.599 -4.3192  2.1631  1.1372
   52MOL0     H 7132   5.348   1.308   6.413  0.3196  0.5490 -0.0984
   52MOL0     H 7133   5.483   1.204   6.378  0.3728  1.5389  1.8113
   52MOL0     H 7134   5.199   1.055   6.055 -1.2864 -1.5665  0.0841
   52MOL0     H 7135   4.881   1.089   5.897  0.3170 -0.3011 -0.8996
   52MOL0     H 7136   4.883   0.942   5.996  1.2307 -1.6629 -1.6814
   52MOL0     H 7137   5.028   0.995   5.906  0.1878  0.5126  1.0553
   52MOL0     H 7138   4.590   1.442   6.009  0.8932 -2.6652  2.2666
   52MOL0     H 7139   4.341   1.476   5.948  1.2527  0.6527  0.9343
   52MOL0     H 7140   4.127   1.238   6.099  0.7525 -0.1641  0.1637
   52MOL0     H 7141   3.993   1.312   6.024 -0.6236 -0.1657 -0.2384
   52MOL0     H 7142   4.103   1.050   5.954  1.9303  2.3081 -1.7515
   52MOL0     H 7143   3.940   1.067   6.028 -3.6353  0.5082 -1.6847
   52MOL0     H 7144   3.927   1.012   5.794  1.0280  0.2808 -2.3147
   52MOL0     H 7145   4.020   1.146   5.751 -1.2036  3.1369 -0.8742
   52MOL0     H 7146   3.863   1.307   5.836 -0.6874  1.5309 -1.5241
   52MOL0     H 7147   3.743   1.199   5.899  0.3710 -2.7013 -0.2706
   52MOL0     H 7148   3.823   1.223   5.611  1.5993 -1.5126  1.4617
   52MOL0     H 7149   3.715   1.094   5.672 -2.7635  0.3561  2.4635
   52MOL0     H 7150   3.649   1.385   5.688  0.1694  0.3416  3.8163
   52MOL0     H 7151   3.559   1.258   5.779 -0.8094 -1.3278  0.0785
   52MOL0     H 7152   3.545   1.143   5.532  1.5052 -0.2443 -1.4547
   52MOL0     H 7153   3.591   1.298   5.471 -1.1831  5.3950  1.5872
   52MOL0     H 7154   3.338   1.260   5.486 -1.9647  0.0228  1.7491
   52MOL0     H 7155   3.389   1.399   5.578 -0.9349 -0.4302  0.6545
   52MOL0     H 7156   4.300   1.049   5.919  1.2483 -1.2046 -1.6148
   52MOL0     H 7157   4.529   1.021   5.966 -0.3721  0.5650  1.2614
   52MOL0     H 7158   4.885   1.334   6.320  0.5451  0.7880  1.2782
   52MOL0     H 7159   5.105   1.323   6.391 -1.4737  1.6708 -1.1294
   52MOL0     H 7160   6.461   1.361   7.140 -0.8704  1.1944  2.4035
   52MOL0     H 7161   6.635   1.425   7.294  2.0332 -1.8505  0.7498
   52MOL0     H 7162   6.892   1.606   7.475  0.8483  0.2813 -0.4928
   52MOL0     H 7163   6.995   1.692   7.658  0.3605 -1.3525  1.9812
   52MOL0     H 7164   7.439   1.776   7.647  0.2684 -0.1737  0.8845
   52MOL0     H 7165   7.302   1.878   7.659  0.5049  0.9842 -0.9305
   52MOL0     H 7166   7.314   1.823   7.908  0.5458 -3.1308 -0.7829
   52MOL0     H 7167   7.458   1.906   7.846  1.3003 -0.9063  0.2019
   52MOL0     H 7168   7.432   1.616   7.926 -3.1626  1.5742 -0.3149
   52MOL0     H 7169   7.560   1.672   7.820  2.3641 -0.5356  2.0967
   52MOL0     H 7170   7.629   1.836   7.962 -1.2108  0.5336 -1.6561
   52MOL0     H 7171   7.657   1.669   8.027  1.1363  3.6215  2.9078
   52MOL0     H 7172   7.429   1.845   8.333 -2.7022 -1.9936 -0.2403
   52MOL0     H 7173   7.389   1.588   7.503  1.2707 -1.9630 -0.5636
   52MOL0     H 7174   7.418   1.478   7.306  0.0633  1.1420  0.6687
   52MOL0     H 7175   7.278   1.372   7.261  1.2906 -0.4120 -0.6139
   52MOL0     H 7176   7.302   1.526   7.178  0.7216 -0.9518 -0.5914
   53MOL0     O 7177   1.896   1.633   4.523  0.4116  0.2824  0.2769
   53MOL0     C 7178   1.984   1.638   4.604  0.0255  0.2438  0.5316
   53MOL0     O 7179   2.009   1.749   4.678  0.4791  0.4609  0.2944
   53MOL0     C 7180   1.925   1.857   4.691 -0.0626  1.2232  0.7601
   53MOL0     C 7181   1.971   1.991   4.673 -0.1004 -0.1099 -0.2749
   53MOL0     C 7182   1.882   2.096   4.690  0.7437 -0.3997  0.2583
   53MOL0     C 7183   1.750   2.071   4.731 -0.4879 -0.1369 -0.8208
   53MOL0     O 7184   1.654   2.175   4.735 -0.2366  0.1429 -0.3673
   53MOL0     C 7185   1.679   2.290   4.819  0.4125  0.1951 -0.4235
   53MOL0     C 7186   1.580   2.405   4.792 -0.5633  0.1286  0.2245
   53MOL0     C 7187   1.593   2.491   4.661  0.6817 -0.2049  1.3283
   53MOL0     C 7188   1.698   2.602   4.655 -1.3316  0.3149 -0.5608
   53MOL0     C 7189   1.683   2.696   4.537 -0.1595 -0.5129  0.1402
   53MOL0     C 7190   1.791   2.804   4.535  0.5835  0.1238  0.7292
   53MOL0     C 7191   1.791   2.892   4.405 -0.2260 -0.2840  0.4751
   53MOL0     C 7192   1.921   2.962   4.385  0.3264  0.5886 -0.5309
   53MOL0     N 7193   1.952   3.072   4.481  0.0509 -0.5356  0.5760
   53MOL0     C 7194   2.000   3.064   4.604 -0.6544 -0.2793 -0.5613
   53MOL0     C 7195   2.042   3.185   4.642 -0.3753 -0.0552  0.0427
   53MOL0     C 7196   2.132   3.226   4.760  0.0347  0.8168  0.3996
   53MOL0     C 7197   2.052   3.244   4.888 -0.5581  0.0617 -0.4439
   53MOL0     C 7198   1.953   3.360   4.899  0.1944  0.4804  0.9509
   53MOL0     C 7199   2.024   3.499   4.935  0.4895  0.1088  0.8331
   53MOL0     O 7200   2.047   3.490   5.076  0.6027  0.6902 -0.5941
   53MOL0     C 7201   2.073   3.613   5.137  0.1606 -0.2068 -0.4409
   53MOL0     C 7202   2.190   3.674   5.093 -1.6786 -0.7964 -0.0798
   53MOL0     C 7203   2.223   3.799   5.153  0.4792  0.8489  0.4177
   53MOL0     C 7204   2.357   3.851   5.103  0.8158 -0.5482  1.1235
   53MOL0     C 7205   2.157   3.851   5.272 -0.1719  0.9610  1.4047
   53MOL0     C 7206   2.188   3.970   5.340 -1.4015  0.4224  0.4500
   53MOL0     O 7207   2.116   4.009   5.456  0.2305 -0.0496 -0.6161
   53MOL0     C 7208   2.145   4.125   5.522 -0.5933 -0.4892  0.3757
   53MOL0     C 7209   2.157   4.243   5.453  0.1916 -0.6007 -0.2143
   53MOL0     C 7210   2.209   4.357   5.522 -0.1689 -0.3511  0.3665
   53MOL0     C 7211   2.264   4.338   5.643 -0.8548 -0.2417 -0.0732
   53MOL0     O 7212   2.336   4.447   5.690  0.5346  0.5970  0.7499
   53MOL0     C 7213   2.457   4.425   5.764 -0.4956 -0.5912  0.6649
   53MOL0     C 7214   2.553   4.322   5.702 -1.0651 -0.3364  0.4404
   53MOL0     C 7215   2.585   4.357   5.556 -0.9537 -0.5524  0.1771
   53MOL0     C 7216   2.581   4.233   5.464 -0.0186  0.4251 -0.6405
   53MOL0     C 7217   2.603   4.270   5.317  0.4400  0.0455 -0.8347
   53MOL0     C 7218   2.643   4.146   5.237 -0.8620 -0.3722  0.1840
   53MOL0     C 7219   2.709   4.185   5.093 -0.7430 -0.1210  0.0133
   53MOL0     C 7220   2.725   4.067   5.004 -1.0095  0.1460  0.7353
   53MOL0    Cl 7221   2.814   4.128   4.857  0.2978  0.3061  0.0280
   53MOL0     C 7222   2.238   4.226   5.727  0.0450 -0.5414 -0.5511
   53MOL0     C 7223   2.176   4.117   5.661  0.2446  0.3189  0.8135
   53MOL0     O 7224   2.291   4.031   5.306 -0.4834  0.1240  0.1303
   53MOL0     C 7225   2.038   3.790   5.300 -0.2064  0.2070 -0.1405
   53MOL0     C 7226   1.997   3.672   5.241 -0.6022 -0.2591  0.3682
   53MOL0     N 7227   2.019   3.278   4.538  0.6188 -0.5166 -0.5192
   53MOL0     N 7228   1.951   3.200   4.453  0.8374 -0.0022 -0.0499
   53MOL0     C 7229   1.710   1.940   4.761 -0.0564  0.8085  0.6620
   53MOL0     C 7230   1.793   1.832   4.739 -0.1530  0.1846 -0.3245
   53MOL0     C 7231   2.077   1.523   4.626 -1.0444 -0.2262  0.8799
   53MOL0     C 7232   2.049   1.400   4.553 -0.5089 -1.3375 -0.7811
   53MOL0     C 7233   2.130   1.288   4.579  0.2703  0.1797 -1.1334
   53MOL0     C 7234   2.236   1.293   4.670 -0.8091  0.8260  0.6399
   53MOL0     O 7235   2.321   1.195   4.711 -0.7648  0.7039 -0.9790
   53MOL0     C 7236   2.299   1.060   4.681 -0.9366  0.1573  0.9657
   53MOL0     C 7237   2.379   1.000   4.565  0.2133 -0.6314  0.4567
   53MOL0     C 7238   2.531   1.019   4.583 -0.2813 -0.2555  0.5217
   53MOL0     C 7239   2.605   0.975   4.458 -0.3980  0.5250 -0.8625
   53MOL0     C 7240   2.748   1.014   4.462  0.1966 -0.8819  0.2390
   53MOL0     C 7241   2.868   1.037   4.454 -0.4904  0.1012  0.2003
   53MOL0     C 7242   2.267   1.417   4.731 -1.5788 -0.3298  0.5178
   53MOL0     C 7243   2.198   1.531   4.701 -0.3379 -0.3165 -0.9248
   53MOL0     C 7244   2.250   1.653   4.761  0.1928  0.4855 -0.0155
   53MOL0     H 7245   2.064   2.030   4.632 -0.7818  2.9771  0.8628
   53MOL0     H 7246   1.911   2.196   4.661 -1.9794  0.2034 -0.6091
   53MOL0     H 7247   1.772   2.340   4.791 -0.5683  3.2105  1.1869
   53MOL0     H 7248   1.674   2.278   4.928  1.5324  1.6504 -0.1793
   53MOL0     H 7249   1.479   2.365   4.804 -0.4785 -0.4640 -0.9200
   53MOL0     H 7250   1.597   2.483   4.867  3.3215  1.2404 -1.5528
   53MOL0     H 7251   1.606   2.418   4.581 -1.3393 -0.5448  1.2748
   53MOL0     H 7252   1.494   2.529   4.636  0.7280 -2.1709 -2.4830
   53MOL0     H 7253   1.696   2.651   4.752  2.3129 -2.1854  1.0146
   53MOL0     H 7254   1.797   2.557   4.647 -1.5792 -0.1557 -1.0480
   53MOL0     H 7255   1.585   2.744   4.539  1.5506  3.7818 -3.0494
   53MOL0     H 7256   1.701   2.645   4.442  2.8676 -1.2793  1.0154
   53MOL0     H 7257   1.768   2.863   4.625  2.2573  0.0491  1.2489
   53MOL0     H 7258   1.891   2.759   4.538  1.6360  2.2069 -0.8244
   53MOL0     H 7259   1.711   2.965   4.396  1.2252  1.1689 -1.1998
   53MOL0     H 7260   1.776   2.828   4.317 -0.5743  0.1309  0.2309
   53MOL0     H 7261   2.005   2.893   4.405 -1.2592 -0.8375  1.7107
   53MOL0     H 7262   1.922   3.001   4.283 -3.3396  3.3955  0.3073
   53MOL0     H 7263   2.001   2.975   4.667  2.2426 -0.6179 -0.9212
   53MOL0     H 7264   2.189   3.316   4.737  0.2428  0.7718  0.7426
   53MOL0     H 7265   2.212   3.153   4.770  2.7629  3.2130 -1.7973
   53MOL0     H 7266   2.005   3.147   4.908 -1.5083  0.4850 -0.5966
   53MOL0     H 7267   2.119   3.257   4.973  0.0031  2.6134 -1.2075
   53MOL0     H 7268   1.882   3.377   4.818 -0.1729  2.9023  1.6879
   53MOL0     H 7269   1.884   3.338   4.981 -0.9530 -1.0663 -0.3752
   53MOL0     H 7270   2.109   3.521   4.869  0.8956  0.9281  1.5940
   53MOL0     H 7271   1.942   3.572   4.927  0.0342 -0.4490  0.2924
   53MOL0     H 7272   2.237   3.635   5.003  2.0891  0.6358  1.0835
   53MOL0     H 7273   2.340   3.947   5.053  3.3853 -0.8731 -0.5847
   53MOL0     H 7274   2.400   3.778   5.033 -0.2757  2.5643 -3.2443
   53MOL0     H 7275   2.418   3.871   5.192 -0.6107  3.3511  1.4410
   53MOL0     H 7276   2.137   4.252   5.347 -1.4056  1.1934  0.1837
   53MOL0     H 7277   2.233   4.440   5.457 -1.9778 -0.4941 -0.5618
   53MOL0     H 7278   2.507   4.523   5.763  1.2327 -1.3461 -2.7606
   53MOL0     H 7279   2.435   4.395   5.867 -2.3887  0.2344  0.5569
   53MOL0     H 7280   2.654   4.324   5.744 -0.2570 -0.3152 -1.4010
   53MOL0     H 7281   2.517   4.220   5.714 -1.6804 -0.2276 -0.4167
   53MOL0     H 7282   2.683   4.405   5.551 -1.0178 -0.4354 -0.0037
   53MOL0     H 7283   2.518   4.430   5.508  0.3109 -0.8879 -2.2729
   53MOL0     H 7284   2.493   4.170   5.484  0.5724 -0.6199 -1.2221
   53MOL0     H 7285   2.660   4.166   5.500 -2.3018 -1.5655  1.0008
   53MOL0     H 7286   2.517   4.322   5.274  0.1317 -1.0736 -1.5982
   53MOL0     H 7287   2.681   4.346   5.306 -0.6941  1.1503 -1.5702
   53MOL0     H 7288   2.558   4.080   5.217 -0.0348 -1.2346 -0.5647
   53MOL0     H 7289   2.720   4.091   5.291 -0.7935 -1.4062 -0.9171
   53MOL0     H 7290   2.815   4.205   5.113  0.4707 -4.6611 -0.7054
   53MOL0     H 7291   2.648   4.265   5.051 -1.7194 -1.2149 -0.7237
   53MOL0     H 7292   2.627   4.026   4.979  1.0144 -4.1826 -1.1657
   53MOL0     H 7293   2.783   3.991   5.057 -0.5406  0.8535  1.2616
   53MOL0     H 7294   2.280   4.235   5.826  0.1286  0.7834 -0.6891
   53MOL0     H 7295   2.153   4.026   5.716  0.7301 -1.5747 -1.8793
   53MOL0     H 7296   1.993   3.827   5.391  1.0757  1.6538 -0.0727
   53MOL0     H 7297   1.912   3.624   5.289  0.1074 -3.2686 -1.1391
   53MOL0     H 7298   1.604   1.928   4.782 -0.1578  0.9510  0.2539
   53MOL0     H 7299   1.760   1.732   4.767 -3.3750  1.7686  2.2594
   53MOL0     H 7300   1.956   1.388   4.500 -0.8401 -1.0050 -0.2831
   53MOL0     H 7301   2.102   1.191   4.538  0.0970 -0.7719  1.0730
   53MOL0     H 7302   2.334   1.001   4.766  1.8719  1.1464  0.5808
   53MOL0     H 7303   2.191   1.047   4.666 -0.9199 -1.2787  1.9177
   53MOL0     H 7304   2.354   1.053   4.473 -1.2478 -0.4693  0.9265
   53MOL0     H 7305   2.355   0.894   4.556  0.5402 -0.7873  1.2652
   53MOL0     H 7306   2.553   1.121   4.616  1.5903 -0.5727  0.3909
   53MOL0     H 7307   2.572   0.962   4.667 -0.8601 -1.3464  0.0925
   53MOL0     H 7308   2.561   1.012   4.365 -2.4667  2.7043  0.8445
   53MOL0     H 7309   2.602   0.866   4.448 -1.8896  0.2795  1.6313
   53MOL0     H 7310   2.972   1.056   4.434  0.4472 -4.2069 -0.0175
   53MOL0     H 7311   2.354   1.415   4.797 -0.3714 -2.5175 -0.9939
   53MOL0     H 7312   2.347   1.649   4.812  0.3888  3.5363  0.0680
   53MOL0     H 7313   2.265   1.728   4.682  1.4376 -0.7293 -0.9893
   53MOL0     H 7314   2.178   1.697   4.830  0.5906  2.8849 -1.0063
   54MOL0     O 7315   6.835  10.445   0.750 -0.0743 -0.6033 -0.2584
   54MOL0     C 7316   6.754  10.360   0.776  0.1008 -0.9073  0.1273
   54MOL0     O 7317   6.685  10.351   0.895  0.3400 -0.0157 -0.3594
   54MOL0     C 7318   6.744  10.392   1.012  0.8516  0.3722  0.5577
   54MOL0     C 7319   6.652  10.425   1.113  0.5203 -0.3034 -0.4506
   54MOL0     C 7320   6.691  10.465   1.241  0.2510  0.4496  0.3010
   54MOL0     C 7321   6.826  10.461   1.264 -0.3894 -0.2377  0.0910
   54MOL0     O 7322   6.881  10.483   1.388  0.0659  0.6972  0.0859
   54MOL0     C 7323   6.798  10.535   1.486  0.1227  0.0425  0.0306
   54MOL0     C 7324   6.880  10.615   1.584  0.8659 -0.3376  0.7609
   54MOL0     C 7325   6.972  10.521   1.670 -0.4054  0.8586 -0.3305
   54MOL0     C 7326   7.052  10.609   1.775 -0.1579  0.5057  0.2232
   54MOL0     C 7327   7.165  10.536   1.846  0.1427  0.2982 -0.4743
   54MOL0     C 7328   7.268  10.650   1.882 -0.7694  0.1054 -0.4859
   54MOL0     C 7329   7.372  10.593   1.975 -0.3365 -0.4988  0.0098
   54MOL0     C 7330   7.499  10.685   1.978  0.6402  0.0189  0.1754
   54MOL0     N 7331   7.614  10.602   2.026 -0.4210 -0.9358 -0.2215
   54MOL0     C 7332   7.698  10.527   1.946  0.4102 -0.4136 -0.3018
   54MOL0     C 7333   7.797  10.492   2.033 -0.3554  0.4807 -0.6656
   54MOL0     C 7334   7.922  10.422   1.996 -0.1952  0.2208 -0.0849
   54MOL0     C 7335   8.050  10.494   2.026 -0.0451 -0.0375  0.5875
   54MOL0     C 7336   8.172  10.406   2.006  0.1239 -0.5003 -0.7378
   54MOL0     C 7337   8.311  10.490   2.016  0.2574  0.3542  0.9563
   54MOL0     O 7338   8.329  10.568   1.894 -0.2683 -0.5393 -0.0928
   54MOL0     C 7339   8.423  10.669   1.892 -0.4494  0.7308  0.1563
   54MOL0     C 7340   8.535  10.670   1.968 -0.2238  0.1704  0.3298
   54MOL0     C 7341   8.615  10.784   1.976  0.2709 -0.8394 -0.7487
   54MOL0     C 7342   8.705  10.794   2.103  0.2298  0.2064  0.7872
   54MOL0     C 7343   8.598  10.895   1.879 -0.4236  0.2071  0.8776
   54MOL0     C 7344   8.692  11.004   1.875 -0.0516  0.0233  0.5081
   54MOL0     O 7345   8.831  10.988   1.911 -0.1802 -0.1738 -0.3735
   54MOL0     C 7346   8.913  11.098   1.906  0.5528 -0.4178  1.2048
   54MOL0     C 7347   8.935  11.164   2.024 -0.6849 -1.1314  0.8366
   54MOL0     C 7348   9.019  11.276   2.033  0.8442 -0.1157  0.3289
   54MOL0     C 7349   9.075  11.335   1.912 -0.8918  0.4037 -1.0884
   54MOL0     O 7350   9.150  11.449   1.912 -0.5197 -0.8441  0.2264
   54MOL0     C 7351   9.088  11.558   1.990  0.2266  0.8073 -0.0051
   54MOL0     C 7352   9.146  11.695   1.952  1.3151  0.8049  0.0120
   54MOL0     C 7353   9.276  11.715   2.027 -0.1674 -0.2287  0.0656
   54MOL0     C 7354   9.380  11.769   1.936  0.2176  0.1249 -0.3781
   54MOL0     C 7355   9.516  11.785   2.013  0.4873 -0.5174 -0.1629
   54MOL0     C 7356   9.535  11.914   2.079  0.8687 -0.5339  0.1105
   54MOL0     C 7357   9.479  11.933   2.220 -0.3319 -0.8378  0.6263
   54MOL0     C 7358   9.538  11.832   2.322  0.4203  0.4335 -0.5291
   54MOL0    Cl 7359   9.511  11.890   2.483  0.4583 -0.3364  0.0930
   54MOL0     C 7360   9.057  11.261   1.798 -0.4896  0.0143 -0.4679
   54MOL0     C 7361   8.975  11.145   1.793  0.4146 -0.1429 -1.0643
   54MOL0     O 7362   8.649  11.111   1.830  0.4968  0.9919 -0.2010
   54MOL0     C 7363   8.478  10.895   1.802 -0.0085  0.5333  0.6157
   54MOL0     C 7364   8.393  10.780   1.813  0.7886 -0.1198  0.7641
   54MOL0     N 7365   7.771  10.536   2.163  0.6829 -0.3514  0.3889
   54MOL0     N 7366   7.656  10.602   2.157  0.1599  0.0575 -0.2961
   54MOL0     C 7367   6.919  10.432   1.162 -0.0757 -0.2973 -0.4142
   54MOL0     C 7368   6.881  10.393   1.042 -0.4213 -0.2721  0.0425
   54MOL0     C 7369   6.706  10.274   0.658 -0.6676 -0.1119 -0.2303
   54MOL0     C 7370   6.601  10.189   0.686  0.8396 -0.5802  0.8133
   54MOL0     C 7371   6.528  10.122   0.588 -0.6436 -0.5455 -0.3232
   54MOL0     C 7372   6.578  10.101   0.458 -0.0355 -0.7016  0.4245
   54MOL0     O 7373   6.510  10.043   0.347  0.1639 -0.1916 -0.4568
   54MOL0     C 7374   6.494   9.898   0.349  0.5322 -0.3917  1.1962
   54MOL0     C 7375   6.365   9.845   0.284  0.1878  0.1687 -0.1504
   54MOL0     C 7376   6.329   9.882   0.141  0.5189 -0.1695  0.7965
   54MOL0     C 7377   6.190   9.840   0.106 -0.4105  0.2672 -0.5294
   54MOL0     C 7378   6.176   9.836  -0.039  0.2374 -0.3309  0.3015
   54MOL0     C 7379   6.142   9.822  -0.155 -0.1698 -0.8941 -0.2858
   54MOL0     C 7380   6.692  10.168   0.434  0.1014 -0.0294  0.3673
   54MOL0     C 7381   6.761  10.257   0.530  0.5486 -0.4140  0.3690
   54MOL0     C 7382   6.886  10.317   0.475  0.8069 -0.2977 -0.8087
   54MOL0     H 7383   6.551  10.437   1.075  0.1442  1.5229  1.0009
   54MOL0     H 7384   6.626  10.480   1.326 -0.6127  2.6134 -0.6611
   54MOL0     H 7385   6.739  10.461   1.540 -0.4842  0.8251  0.4488
   54MOL0     H 7386   6.723  10.601   1.441 -1.9261 -2.4465 -0.4821
   54MOL0     H 7387   6.939  10.687   1.526 -0.7238 -1.7087 -2.9016
   54MOL0     H 7388   6.815  10.666   1.656 -3.2915  1.2749 -3.5968
   54MOL0     H 7389   6.903  10.451   1.717 -0.4750  1.1810  0.0568
   54MOL0     H 7390   7.045  10.467   1.609 -1.2021 -0.8287  0.1479
   54MOL0     H 7391   7.093  10.689   1.713  1.1964  1.0099  1.7147
   54MOL0     H 7392   6.990  10.657   1.851  0.9975  2.3652  0.0686
   54MOL0     H 7393   7.209  10.455   1.787  1.2193 -1.0827  2.0400
   54MOL0     H 7394   7.126  10.492   1.938 -2.4411  0.0958 -1.5820
   54MOL0     H 7395   7.321  10.658   1.787  1.5844 -3.4141  0.3163
   54MOL0     H 7396   7.226  10.743   1.920  1.0479  0.3755  0.9390
   54MOL0     H 7397   7.401  10.494   1.939 -1.2395 -0.1758 -1.6799
   54MOL0     H 7398   7.334  10.567   2.074  0.0049 -1.6131 -0.1387
   54MOL0     H 7399   7.515  10.720   1.875 -2.5055  1.9572  0.2279
   54MOL0     H 7400   7.479  10.774   2.039 -1.5373 -2.3468  3.1933
   54MOL0     H 7401   7.689  10.519   1.838  0.9117 -1.3101 -0.2861
   54MOL0     H 7402   7.919  10.370   1.899  0.9603  0.2164 -0.1275
   54MOL0     H 7403   7.924  10.330   2.055  0.3729 -0.4318 -1.0811
   54MOL0     H 7404   8.050  10.575   1.953  1.5545 -2.3811 -2.2073
   54MOL0     H 7405   8.047  10.532   2.128  2.0020  0.8992  0.3462
   54MOL0     H 7406   8.178  10.332   2.086  1.1152 -0.7973 -1.0812
   54MOL0     H 7407   8.168  10.348   1.913 -5.3888 -1.7145 -0.1218
   54MOL0     H 7408   8.312  10.552   2.105 -0.4654  1.9964 -0.1353
   54MOL0     H 7409   8.390  10.414   2.017  0.6710  0.7573 -0.0251
   54MOL0     H 7410   8.548  10.589   2.039 -1.6368  0.3592  0.8439
   54MOL0     H 7411   8.717  10.899   2.130 -2.7720  0.7127  0.5053
   54MOL0     H 7412   8.800  10.744   2.082 -0.4917  0.2064 -3.2327
   54MOL0     H 7413   8.664  10.749   2.194 -0.1160 -1.5132 -0.1794
   54MOL0     H 7414   8.888  11.121   2.112 -0.4235 -2.1085  0.5175
   54MOL0     H 7415   9.035  11.330   2.125 -0.9047 -2.4581  2.1078
   54MOL0     H 7416   8.980  11.560   1.969  0.0690 -2.9500 -0.1849
   54MOL0     H 7417   9.103  11.544   2.098  0.6378  0.2031 -0.1418
   54MOL0     H 7418   9.170  11.686   1.846  1.1889 -2.1277  0.1374
   54MOL0     H 7419   9.078  11.775   1.980 -0.3223  0.3152 -2.3349
   54MOL0     H 7420   9.315  11.619   2.063  1.1683  0.4161  0.3920
   54MOL0     H 7421   9.265  11.782   2.113 -2.0164  1.4054 -1.3872
   54MOL0     H 7422   9.348  11.861   1.885 -3.3837 -0.2875  0.8082
   54MOL0     H 7423   9.397  11.703   1.851  2.6101  1.2768 -0.8688
   54MOL0     H 7424   9.539  11.709   2.088  1.7806  1.1447  1.2160
   54MOL0     H 7425   9.582  11.764   1.928 -0.5111  2.4419 -1.7967
   54MOL0     H 7426   9.486  11.995   2.024 -0.0868 -1.8039 -0.9749
   54MOL0     H 7427   9.641  11.941   2.076  1.0552 -1.3461 -2.6072
   54MOL0     H 7428   9.370  11.943   2.213 -0.0284  3.2625 -1.1569
   54MOL0     H 7429   9.510  12.032   2.255 -1.6404 -0.1389 -0.1067
   54MOL0     H 7430   9.645  11.814   2.311  0.3525  1.4490 -4.0716
   54MOL0     H 7431   9.489  11.736   2.304 -0.8530  1.4911 -3.3548
   54MOL0     H 7432   9.093  11.305   1.706  0.1524  0.9581  0.2184
   54MOL0     H 7433   8.947  11.100   1.699 -0.3164 -1.8929 -0.0618
   54MOL0     H 7434   8.450  10.978   1.738 -2.0815  1.3252  2.4078
   54MOL0     H 7435   8.293  10.787   1.772  0.6821 -0.2237  1.0066
   54MOL0     H 7436   7.021  10.426   1.197  0.1505  0.8453 -0.8434
   54MOL0     H 7437   6.949  10.365   0.962 -1.3952  0.5577 -1.1095
   54MOL0     H 7438   6.557  10.204   0.785  2.6696  4.3499  1.1860
   54MOL0     H 7439   6.437  10.070   0.616 -1.6078  0.7471 -0.9466
   54MOL0     H 7440   6.566   9.871   0.272 -3.3361 -0.2875 -2.8513
   54MOL0     H 7441   6.515   9.853   0.446 -1.3258 -1.3028  1.2306
   54MOL0     H 7442   6.283   9.868   0.353  0.4049 -1.3404  0.6505
   54MOL0     H 7443   6.360   9.736   0.293  0.9342  0.1259 -0.1756
   54MOL0     H 7444   6.315   9.991   0.139 -2.0167 -0.4566 -0.5211
   54MOL0     H 7445   6.408   9.857   0.070 -1.8525 -0.2395 -2.0181
   54MOL0     H 7446   6.119   9.901   0.161  0.7905  1.5563 -0.3592
   54MOL0     H 7447   6.187   9.734   0.133 -0.6354 -0.2436 -2.4020
   54MOL0     H 7448   6.112   9.808  -0.257  2.2441 -2.1205 -0.8923
   54MOL0     H 7449   6.736  10.154   0.336  0.1774  1.8470  0.0896
   54MOL0     H 7450   6.915  10.287   0.374 -2.7354 -0.0161 -2.0718
   54MOL0     H 7451   6.855  10.421   0.464 -0.6257 -0.4932  0.9317
   54MOL0     H 7452   6.962  10.321   0.553  2.0222  1.7709 -2.0184
   55MOL0     O 7453   6.046   1.223   3.140 -0.0135  0.1393  0.9066
   55MOL0     C 7454   5.981   1.334   3.158 -0.8142 -0.8461  0.2267
   55MOL0     O 7455   6.032   1.447   3.218 -0.3209  0.0164 -0.0247
   55MOL0     C 7456   6.165   1.450   3.208  0.5172 -0.3210  0.0693
   55MOL0     C 7457   6.256   1.393   3.300  0.8918 -0.0473  0.3573
   55MOL0     C 7458   6.391   1.414   3.291  0.5872  0.3187  0.1994
   55MOL0     C 7459   6.448   1.512   3.211 -0.1632 -0.5948 -0.4915
   55MOL0     O 7460   6.581   1.542   3.200 -0.5603  0.5083  0.4894
   55MOL0     C 7461   6.673   1.444   3.245  0.5897  0.0692 -0.5645
   55MOL0     C 7462   6.809   1.457   3.177  0.8608  0.3285 -0.1768
   55MOL0     C 7463   6.781   1.455   3.024  0.5552  0.1288 -1.0062
   55MOL0     C 7464   6.913   1.421   2.950 -0.3986 -0.5690 -0.0903
   55MOL0     C 7465   6.895   1.442   2.800  1.1148 -0.0086  0.0111
   55MOL0     C 7466   7.000   1.360   2.720 -0.3439 -0.1938 -0.9950
   55MOL0     C 7467   6.965   1.340   2.572  0.3881  0.0519 -0.0909
   55MOL0     C 7468   7.096   1.288   2.515 -0.2984 -0.5032 -0.2229
   55MOL0     N 7469   7.142   1.158   2.556  0.3510  0.3530  1.3829
   55MOL0     C 7470   7.069   1.050   2.594  0.2809  0.0681 -0.1114
   55MOL0     C 7471   7.167   0.961   2.635 -0.9418 -0.7082  0.0218
   55MOL0     C 7472   7.140   0.830   2.694  1.2257  0.5218  0.0189
   55MOL0     C 7473   7.136   0.839   2.843 -0.2282 -0.3700  0.3673
   55MOL0     C 7474   7.033   0.933   2.899  0.8658  0.1038 -0.4053
   55MOL0     C 7475   7.038   0.935   3.050  1.0561  0.3852  0.9025
   55MOL0     O 7476   6.958   0.825   3.090 -0.2330  0.0744  0.4774
   55MOL0     C 7477   6.853   0.845   3.173  0.1401  1.2690  0.5242
   55MOL0     C 7478   6.871   0.922   3.288 -0.2215  0.5208  0.0421
   55MOL0     C 7479   6.766   0.979   3.359  0.0909 -1.2275 -0.4126
   55MOL0     C 7480   6.806   1.088   3.463  0.4720 -0.1733 -0.5124
   55MOL0     C 7481   6.632   0.937   3.328 -0.7731  0.3655  0.1420
   55MOL0     C 7482   6.510   1.002   3.385  0.3977  0.4124 -1.1865
   55MOL0     O 7483   6.409   0.916   3.401  0.5508 -0.5461 -0.5453
   55MOL0     C 7484   6.282   0.960   3.448  0.2442 -0.0035  0.1489
   55MOL0     C 7485   6.265   0.967   3.589 -0.0551  1.2445  0.2872
   55MOL0     C 7486   6.156   1.025   3.635  0.7024  0.3534  0.2604
   55MOL0     C 7487   6.046   1.064   3.557  0.1460  0.5300  0.0066
   55MOL0     O 7488   5.939   1.102   3.622  0.0931  0.4564 -0.4203
   55MOL0     C 7489   5.856   1.209   3.565 -0.7643  0.4397 -0.6856
   55MOL0     C 7490   5.774   1.266   3.684 -0.4010  0.4384 -1.1886
   55MOL0     C 7491   5.649   1.189   3.717 -0.0188  0.1934 -0.2319
   55MOL0     C 7492   5.538   1.242   3.617  0.5488 -0.2498  0.3499
   55MOL0     C 7493   5.403   1.213   3.667  0.4100  0.7990  0.1545
   55MOL0     C 7494   5.394   1.063   3.649  1.0128 -0.4051 -0.4994
   55MOL0     C 7495   5.252   1.023   3.687 -0.7744 -0.0985  0.2099
   55MOL0     C 7496   5.207   0.895   3.620 -0.6156 -0.1754 -0.0029
   55MOL0    Cl 7497   5.285   0.749   3.694  0.1658 -0.0456 -0.5874
   55MOL0     C 7498   6.059   1.072   3.419 -0.7892  0.8238 -0.0679
   55MOL0     C 7499   6.181   1.024   3.366 -0.9795 -0.9300  0.5582
   55MOL0     O 7500   6.510   1.122   3.417  0.1568 -0.6331  0.0737
   55MOL0     C 7501   6.611   0.849   3.219 -1.1635  0.4969 -0.1772
   55MOL0     C 7502   6.722   0.806   3.141  0.3767  0.9000 -0.1509
   55MOL0     N 7503   7.288   1.022   2.610  0.0075 -0.1537  0.2769
   55MOL0     N 7504   7.277   1.140   2.561 -0.3868 -0.6937 -0.7646
   55MOL0     C 7505   6.366   1.572   3.127  0.4951  0.2261  0.3555
   55MOL0     C 7506   6.223   1.540   3.121  0.6840  0.6535  0.6650
   55MOL0     C 7507   5.834   1.328   3.135  0.1314  0.4576  0.1266
   55MOL0     C 7508   5.793   1.226   3.043 -0.7534 -0.3360  0.8076
   55MOL0     C 7509   5.659   1.196   3.016 -0.3563 -0.6162 -0.8136
   55MOL0     C 7510   5.555   1.257   3.091 -0.4696  0.0038 -0.0268
   55MOL0     O 7511   5.420   1.245   3.079  0.4396  0.0409 -0.1639
   55MOL0     C 7512   5.363   1.152   2.974 -0.1117 -0.2117 -0.6448
   55MOL0     C 7513   5.354   1.229   2.842 -0.0540  0.4244  0.7141
   55MOL0     C 7514   5.283   1.138   2.745 -0.1191  0.4141 -1.0116
   55MOL0     C 7515   5.329   1.137   2.597  0.5645  0.6679  0.0187
   55MOL0     C 7516   5.461   1.084   2.570 -0.0433  0.5186 -0.4686
   55MOL0     C 7517   5.580   1.056   2.564  0.2678 -0.3334  0.2115
   55MOL0     C 7518   5.599   1.357   3.184  0.0871 -0.7635 -0.5334
   55MOL0     C 7519   5.736   1.396   3.207 -0.5338 -0.2274  0.0963
   55MOL0     C 7520   5.758   1.497   3.313 -0.4717  0.7459 -0.0856
   55MOL0     H 7521   6.212   1.325   3.372  0.8120  1.6847  2.0064
   55MOL0     H 7522   6.439   1.363   3.374  0.5568  1.5250  0.9796
   55MOL0     H 7523   6.633   1.344   3.228 -1.0736  0.4928  0.6206
   55MOL0     H 7524   6.694   1.430   3.351  2.7944 -0.7705 -1.0562
   55MOL0     H 7525   6.853   1.547   3.220  1.1027 -0.8927  2.2627
   55MOL0     H 7526   6.869   1.372   3.208 -0.9604  0.1236  3.3080
   55MOL0     H 7527   6.714   1.374   2.995 -0.5462  1.2693 -1.7439
   55MOL0     H 7528   6.736   1.551   2.996 -2.4434 -0.1365  2.1425
   55MOL0     H 7529   6.994   1.488   2.984  0.9569 -0.3561 -3.4063
   55MOL0     H 7530   6.948   1.319   2.966  0.1137 -0.5946 -1.2606
   55MOL0     H 7531   6.903   1.547   2.772 -1.2204 -0.1850 -1.5851
   55MOL0     H 7532   6.798   1.403   2.768  1.9450 -0.2747 -2.3839
   55MOL0     H 7533   7.093   1.418   2.726 -1.3439  1.3527  0.9301
   55MOL0     H 7534   7.035   1.269   2.771  1.4338  2.0265  2.1560
   55MOL0     H 7535   6.930   1.432   2.525 -2.9014 -0.9385  0.1631
   55MOL0     H 7536   6.895   1.257   2.560  0.3716  0.2257 -1.2909
   55MOL0     H 7537   7.084   1.284   2.407 -0.8393  2.3439 -0.3532
   55MOL0     H 7538   7.173   1.366   2.525  0.4230 -1.3505  1.3539
   55MOL0     H 7539   6.963   1.027   2.600  0.5125 -1.1454 -0.4557
   55MOL0     H 7540   7.225   0.765   2.673 -1.1405 -2.9868  0.4465
   55MOL0     H 7541   7.044   0.784   2.668  0.1464  2.6464  0.0468
   55MOL0     H 7542   7.125   0.735   2.876 -0.2185 -0.8866 -1.1629
   55MOL0     H 7543   7.233   0.878   2.874 -0.5210  1.4794 -0.9363
   55MOL0     H 7544   7.047   1.035   2.863  0.2088  0.2579 -0.2394
   55MOL0     H 7545   6.929   0.913   2.871  0.6928  0.5161 -0.0765
   55MOL0     H 7546   7.142   0.917   3.081  0.7014 -3.6366  0.3650
   55MOL0     H 7547   6.994   1.028   3.085 -2.0635  0.1292 -1.8406
   55MOL0     H 7548   6.973   0.958   3.300  0.4316 -1.3323  0.2841
   55MOL0     H 7549   6.756   1.184   3.448  1.6101  0.5859  0.3618
   55MOL0     H 7550   6.912   1.112   3.451  0.3560  0.1055 -1.0222
   55MOL0     H 7551   6.797   1.051   3.566  1.0879  1.3916  0.1384
   55MOL0     H 7552   6.350   0.932   3.646 -0.6068  2.5635  2.0154
   55MOL0     H 7553   6.138   1.029   3.742 -2.2363 -0.9753 -0.0884
   55MOL0     H 7554   5.917   1.287   3.519 -0.4207  0.0024 -0.9745
   55MOL0     H 7555   5.784   1.165   3.494  0.0153  1.1284 -1.9342
   55MOL0     H 7556   5.837   1.281   3.772 -0.8939  1.7319 -1.0360
   55MOL0     H 7557   5.744   1.368   3.658  0.5560  1.1431  0.3289
   55MOL0     H 7558   5.613   1.220   3.815  1.2367 -0.3074  0.4178
   55MOL0     H 7559   5.667   1.081   3.708  1.3298  0.1046  2.3714
   55MOL0     H 7560   5.557   1.204   3.516 -0.7334 -0.9266  0.3406
   55MOL0     H 7561   5.531   1.351   3.620  0.0142 -0.2576 -0.3292
   55MOL0     H 7562   5.396   1.248   3.771  0.9352  1.2644  0.0405
   55MOL0     H 7563   5.334   1.270   3.605  2.1063  0.4902 -2.1458
   55MOL0     H 7564   5.460   1.013   3.720  1.7869 -1.1350 -1.6959
   55MOL0     H 7565   5.423   1.029   3.549  2.7664 -1.3815  0.3053
   55MOL0     H 7566   5.191   1.105   3.647 -0.5997  0.2959  0.7451
   55MOL0     H 7567   5.229   1.005   3.792  0.9111 -1.7556  0.3466
   55MOL0     H 7568   5.211   0.905   3.511 -1.2448  0.5287  0.0289
   55MOL0     H 7569   5.101   0.883   3.646 -0.6942  0.2936 -0.0880
   55MOL0     H 7570   5.988   1.115   3.350  1.8696  0.2295 -3.5112
   55MOL0     H 7571   6.213   1.033   3.262 -0.9848 -1.0870  0.5420
   55MOL0     H 7572   6.511   0.811   3.199  0.4063 -2.2671 -3.8188
   55MOL0     H 7573   6.708   0.727   3.068  2.7723 -1.9813  2.2457
   55MOL0     H 7574   6.406   1.639   3.052  1.1246 -2.4195 -1.8402
   55MOL0     H 7575   6.161   1.596   3.052  2.1629  1.8173  0.2474
   55MOL0     H 7576   5.869   1.172   2.989  1.0978  0.6261  2.3353
   55MOL0     H 7577   5.640   1.115   2.948  1.6717 -0.6483 -1.4139
   55MOL0     H 7578   5.422   1.061   2.962  0.2396  0.0964 -1.3854
   55MOL0     H 7579   5.265   1.120   3.009 -0.7392  0.2730 -1.9303
   55MOL0     H 7580   5.449   1.242   2.789 -1.0204 -1.2490 -1.5960
   55MOL0     H 7581   5.303   1.326   2.845 -0.8143  0.2631 -2.5410
   55MOL0     H 7582   5.293   1.035   2.779 -0.3702  0.5123 -0.6334
   55MOL0     H 7583   5.177   1.165   2.746 -0.8080 -2.0959  0.1092
   55MOL0     H 7584   5.319   1.239   2.559 -0.4819  0.2917 -0.7554
   55MOL0     H 7585   5.248   1.083   2.546  0.9613  0.0326  0.0519
   55MOL0     H 7586   5.687   1.051   2.560  0.1814 -2.3837 -3.0903
   55MOL0     H 7587   5.527   1.423   3.230  1.4865 -0.9585  2.1428
   55MOL0     H 7588   5.791   1.446   3.405 -1.7007 -0.4714 -0.2825
   55MOL0     H 7589   5.846   1.562   3.303  2.4343 -2.6502  1.0581
   55MOL0     H 7590   5.670   1.559   3.331 -1.0670  0.6323 -2.3392
   56MOL0     O 7591   6.693   9.084   0.349 -0.8474  0.1666 -0.5469
   56MOL0     C 7592   6.705   9.210   0.336  0.4715  0.5688 -0.4650
   56MOL0     O 7593   6.657   9.289   0.239 -1.0740 -0.0957 -0.7614
   56MOL0     C 7594   6.556   9.255   0.157  0.5875  0.2637 -0.1617
   56MOL0     C 7595   6.449   9.351   0.144 -0.7245 -0.4576  0.1143
   56MOL0     C 7596   6.336   9.315   0.062 -0.3820  0.1268  0.7171
   56MOL0     C 7597   6.337   9.193  -0.006 -0.4957  1.1830  0.6882
   56MOL0     O 7598   6.230   9.145  -0.085  0.1651 -0.3374 -0.2549
   56MOL0     C 7599   6.105   9.218  -0.102  0.2208  0.2442  0.1300
   56MOL0     C 7600   6.127   9.304  -0.231 -0.2887 -0.2319  0.4244
   56MOL0     C 7601   6.184   9.226  -0.345 -0.4628 -0.3549  0.5721
   56MOL0     C 7602   6.282   9.314  -0.420  0.4396  0.4416  0.3871
   56MOL0     C 7603   6.360   9.238  -0.530  1.1261 -0.4991  0.5123
   56MOL0     C 7604   6.470   9.126  -0.497  0.1675 -0.6139  0.3057
   56MOL0     C 7605   6.591   9.178  -0.415  0.8956  0.3890  0.2763
   56MOL0     C 7606   6.709   9.077  -0.440 -0.9481  0.2485  0.1424
   56MOL0     N 7607   6.830   9.137  -0.382 -0.0788 -0.7798  0.4275
   56MOL0     C 7608   6.853   9.170  -0.252 -0.1297 -0.5671 -0.1744
   56MOL0     C 7609   6.983   9.207  -0.243  0.5531  0.1825  0.2766
   56MOL0     C 7610   7.058   9.260  -0.122  0.2865  0.8996 -0.2113
   56MOL0     C 7611   7.138   9.388  -0.155  0.0338 -0.1542 -0.1148
   56MOL0     C 7612   7.150   9.476  -0.032  0.2965  1.1680 -0.2769
   56MOL0     C 7613   7.241   9.597  -0.060 -0.2071 -0.7601  0.3496
   56MOL0     O 7614   7.155   9.711  -0.066 -0.0639 -0.4319 -0.1858
   56MOL0     C 7615   7.203   9.827  -0.123  0.2904 -0.1801 -0.1067
   56MOL0     C 7616   7.340   9.868  -0.115  0.8280  0.8520  0.0828
   56MOL0     C 7617   7.389   9.978  -0.172  0.3113 -0.2331  0.2880
   56MOL0     C 7618   7.534   9.995  -0.166 -0.8794  0.0588  0.1931
   56MOL0     C 7619   7.293  10.081  -0.234 -0.5158  0.2354  1.0320
   56MOL0     C 7620   7.333  10.211  -0.296 -0.1117  0.7504  0.4508
   56MOL0     O 7621   7.463  10.245  -0.287 -0.8445 -0.0587  0.3106
   56MOL0     C 7622   7.518  10.367  -0.326 -0.1090 -0.0257 -0.1532
   56MOL0     C 7623   7.553  10.460  -0.234  0.6239  0.0921 -0.2211
   56MOL0     C 7624   7.614  10.581  -0.275  0.5921  0.7416 -0.3679
   56MOL0     C 7625   7.628  10.607  -0.410 -0.3423  0.1885  0.0218
   56MOL0     O 7626   7.671  10.735  -0.447  0.3548  0.4277 -0.5253
   56MOL0     C 7627   7.646  10.774  -0.588  0.3226 -0.1991  0.0662
   56MOL0     C 7628   7.768  10.760  -0.676  0.0794  0.3406 -0.0164
   56MOL0     C 7629   7.873  10.860  -0.623  0.0085 -1.1482  1.4273
   56MOL0     C 7630   7.993  10.885  -0.717  0.6396  0.3296  0.8553
   56MOL0     C 7631   8.040  11.032  -0.735 -0.1923 -0.5378 -0.5566
   56MOL0     C 7632   8.118  11.086  -0.612 -0.2045 -0.0820  0.0615
   56MOL0     C 7633   8.198  11.205  -0.652  0.6588 -0.0004  0.5107
   56MOL0     C 7634   8.254  11.293  -0.536 -0.2561  1.3148  0.7256
   56MOL0    Cl 7635   8.329  11.447  -0.584  0.1805 -0.0914  0.5826
   56MOL0     C 7636   7.590  10.509  -0.503  0.4556  0.1128  0.0813
   56MOL0     C 7637   7.545  10.388  -0.464  0.0461  0.7034 -0.4596
   56MOL0     O 7638   7.250  10.285  -0.348  0.2923  0.2574 -0.3651
   56MOL0     C 7639   7.164  10.049  -0.225  1.2419 -0.6592  0.2081
   56MOL0     C 7640   7.116   9.922  -0.181  0.0184 -0.1899 -0.5253
   56MOL0     N 7641   7.029   9.204  -0.370 -0.9495 -0.9185 -0.3661
   56MOL0     N 7642   6.942   9.155  -0.455  0.3752 -0.2211  0.4448
   56MOL0     C 7643   6.449   9.107  -0.006  0.7539 -0.3020  0.6484
   56MOL0     C 7644   6.554   9.143   0.080 -0.0191 -0.0353 -0.4871
   56MOL0     C 7645   6.792   9.284   0.432  0.4918 -0.4958 -0.1555
   56MOL0     C 7646   6.896   9.369   0.381 -0.4982  0.8246  0.4084
   56MOL0     C 7647   6.982   9.439   0.464  0.1970 -0.1626 -0.5814
   56MOL0     C 7648   6.965   9.440   0.606  0.2128 -0.5328  0.5315
   56MOL0     O 7649   7.036   9.512   0.698  0.3147  0.6777 -0.0684
   56MOL0     C 7650   7.127   9.608   0.641 -0.0354 -0.8864 -0.4376
   56MOL0     C 7651   7.205   9.653   0.771  0.0932 -0.2489  0.4403
   56MOL0     C 7652   7.302   9.549   0.823  0.2814 -0.3060  0.3446
   56MOL0     C 7653   7.333   9.572   0.972 -0.2444  0.5726 -0.2997
   56MOL0     C 7654   7.465   9.520   1.021  0.3172 -0.0124  0.8464
   56MOL0     C 7655   7.561   9.462   1.055 -0.8286  0.0142  0.8209
   56MOL0     C 7656   6.868   9.359   0.659  0.9009  0.4940  0.4391
   56MOL0     C 7657   6.781   9.281   0.579  0.1349 -0.0076  0.8184
   56MOL0     C 7658   6.673   9.216   0.653  0.8190 -0.0481  0.5600
   56MOL0     H 7659   6.451   9.440   0.206  2.4378 -2.1375  2.7405
   56MOL0     H 7660   6.255   9.387   0.049 -0.3820 -0.4251 -3.6880
   56MOL0     H 7661   6.090   9.275  -0.010  1.0476 -1.2663  1.2379
   56MOL0     H 7662   6.036   9.135  -0.115  2.1334 -1.3049 -0.7367
   56MOL0     H 7663   6.035   9.348  -0.271 -0.9280 -0.4140  1.6524
   56MOL0     H 7664   6.202   9.377  -0.198 -2.3192  1.3198  1.8634
   56MOL0     H 7665   6.225   9.131  -0.311  4.6933  1.2117 -0.4082
   56MOL0     H 7666   6.098   9.188  -0.402 -1.7775  0.5676  1.8620
   56MOL0     H 7667   6.250   9.400  -0.479 -2.3199  0.5355  1.8884
   56MOL0     H 7668   6.355   9.360  -0.353  1.3959  4.1691 -2.8259
   56MOL0     H 7669   6.416   9.309  -0.590  1.3413  0.5479  1.9063
   56MOL0     H 7670   6.280   9.189  -0.587  0.6325 -0.0319  0.7994
   56MOL0     H 7671   6.426   9.045  -0.438  0.4150 -0.0392  1.3000
   56MOL0     H 7672   6.495   9.086  -0.595 -2.4933  2.4614 -1.8499
   56MOL0     H 7673   6.568   9.180  -0.308  0.9125  0.5860  0.2767
   56MOL0     H 7674   6.629   9.271  -0.458  2.5135  0.5733  2.0181
   56MOL0     H 7675   6.693   8.984  -0.384 -1.6249 -0.5877 -1.3798
   56MOL0     H 7676   6.733   9.052  -0.544 -0.9945 -0.4254  0.2889
   56MOL0     H 7677   6.790   9.170  -0.163  0.7403 -0.4466  0.4545
   56MOL0     H 7678   7.117   9.182  -0.074 -1.3718  0.0908  0.6116
   56MOL0     H 7679   6.978   9.283  -0.051 -1.4392 -0.8251 -1.4894
   56MOL0     H 7680   7.242   9.370  -0.186  0.1211 -3.9108  1.7327
   56MOL0     H 7681   7.104   9.433  -0.249  1.7692 -2.2827 -1.8632
   56MOL0     H 7682   7.047   9.497  -0.003  0.2412  2.1773 -1.1465
   56MOL0     H 7683   7.196   9.424   0.053 -1.4454  2.3551  1.4614
   56MOL0     H 7684   7.314   9.604   0.020  0.0535 -0.6554  0.1041
   56MOL0     H 7685   7.300   9.591  -0.152  2.5369 -2.6651  2.0831
   56MOL0     H 7686   7.409   9.799  -0.068  1.2959 -1.0561 -3.1343
   56MOL0     H 7687   7.576  10.041  -0.076  0.5744 -1.3503  0.2938
   56MOL0     H 7688   7.569  10.042  -0.258 -0.2894 -1.1931 -0.2532
   56MOL0     H 7689   7.577   9.895  -0.180 -1.7861  0.0110 -3.0740
   56MOL0     H 7690   7.542  10.434  -0.129 -3.6466  2.5069  0.1668
   56MOL0     H 7691   7.648  10.654  -0.203  2.0060 -0.7744  0.5686
   56MOL0     H 7692   7.566  10.714  -0.632 -0.7185  1.1852 -0.0049
   56MOL0     H 7693   7.612  10.878  -0.583  2.3621  0.5334 -0.5086
   56MOL0     H 7694   7.802  10.656  -0.667 -0.8109  0.1284  1.1555
   56MOL0     H 7695   7.743  10.775  -0.782 -1.9724  1.4317  0.5778
   56MOL0     H 7696   7.910  10.818  -0.529  1.7138 -1.5284  0.6256
   56MOL0     H 7697   7.833  10.960  -0.605 -2.5166 -2.2252  2.2965
   56MOL0     H 7698   7.977  10.841  -0.815  0.9851  0.6241  0.6652
   56MOL0     H 7699   8.076  10.825  -0.679  2.4490  2.5785  0.7135
   56MOL0     H 7700   8.099  11.048  -0.826 -1.1428 -3.4172 -1.8074
   56MOL0     H 7701   7.944  11.085  -0.745  1.7168  3.0047 -2.0033
   56MOL0     H 7702   8.176  11.005  -0.567  0.9614  3.1284  4.9997
   56MOL0     H 7703   8.042  11.099  -0.535 -2.1545 -0.1243 -1.7484
   56MOL0     H 7704   8.135  11.265  -0.719  0.0739 -1.9037 -0.7318
   56MOL0     H 7705   8.287  11.188  -0.714  0.4407  1.6551 -0.3125
   56MOL0     H 7706   8.340  11.244  -0.488  0.9697  4.3302  1.8878
   56MOL0     H 7707   8.169  11.301  -0.467 -3.1925 -0.1101 -2.4568
   56MOL0     H 7708   7.604  10.518  -0.610 -0.4507  0.3475 -0.0232
   56MOL0     H 7709   7.544  10.308  -0.537 -1.8995 -0.8508  1.1513
   56MOL0     H 7710   7.087  10.122  -0.251 -0.9363 -2.1412  2.1480
   56MOL0     H 7711   7.010   9.897  -0.176  0.1404 -0.9266 -1.4593
   56MOL0     H 7712   6.450   9.021  -0.073 -0.7251  0.9604 -1.0837
   56MOL0     H 7713   6.642   9.080   0.085  1.1077  1.5229  0.1098
   56MOL0     H 7714   6.918   9.370   0.275 -0.3537 -2.4850  0.3098
   56MOL0     H 7715   7.052   9.504   0.414 -1.5317  2.6103  0.3594
   56MOL0     H 7716   7.199   9.558   0.576  0.7972  4.3049 -4.1155
   56MOL0     H 7717   7.076   9.689   0.587 -0.2883 -0.8222 -0.1125
   56MOL0     H 7718   7.140   9.686   0.853 -0.1500 -1.7274  0.8834
   56MOL0     H 7719   7.261   9.743   0.747 -0.0234  0.9606  4.1292
   56MOL0     H 7720   7.275   9.446   0.798 -0.9845 -0.2236  1.2973
   56MOL0     H 7721   7.392   9.575   0.766 -1.4333  0.7013 -2.1078
   56MOL0     H 7722   7.263   9.515   1.034 -3.3737  1.3337 -2.8692
   56MOL0     H 7723   7.322   9.680   0.990 -0.5961  0.1537  2.3478
   56MOL0     H 7724   7.654   9.423   1.090  1.8007  4.7637  0.0887
   56MOL0     H 7725   6.849   9.372   0.765  2.2030 -0.3008  0.7924
   56MOL0     H 7726   6.691   9.200   0.760  3.7747 -0.7979  0.0248
   56MOL0     H 7727   6.594   9.291   0.662 -0.3891 -1.3075  0.8047
   56MOL0     H 7728   6.640   9.124   0.604  0.2252 -1.5228  3.4948
   57MOL0     O 7729   1.336   6.879   1.499  0.8650  0.2339  0.7535
   57MOL0     C 7730   1.216   6.886   1.521 -1.1816 -0.5111 -0.1066
   57MOL0     O 7731   1.138   6.781   1.551 -0.6808 -0.0052  0.0990
   57MOL0     C 7732   1.206   6.672   1.590 -0.2940 -0.1890  0.7711
   57MOL0     C 7733   1.278   6.666   1.707 -0.4344 -0.1856  0.3081
   57MOL0     C 7734   1.354   6.559   1.738 -0.3972  0.3162  0.8549
   57MOL0     C 7735   1.353   6.442   1.662  0.1420 -0.1632  0.1029
   57MOL0     O 7736   1.428   6.325   1.690 -0.5542 -0.3550  0.0797
   57MOL0     C 7737   1.525   6.315   1.798 -0.4335 -0.1156  1.1370
   57MOL0     C 7738   1.467   6.289   1.937 -0.2379 -0.1963 -0.4117
   57MOL0     C 7739   1.373   6.165   1.940 -0.0586 -0.2712 -0.6644
   57MOL0     C 7740   1.426   6.032   1.898 -0.1221  1.1277  0.2954
   57MOL0     C 7741   1.323   5.919   1.887  0.7524  0.0498 -0.0413
   57MOL0     C 7742   1.365   5.784   1.828  0.0442  0.5550 -0.5704
   57MOL0     C 7743   1.501   5.724   1.867 -0.3543 -0.7101 -0.1894
   57MOL0     C 7744   1.502   5.713   2.034 -1.1309  0.8402 -0.0812
   57MOL0     N 7745   1.450   5.587   2.091 -0.4187  0.5103 -0.1271
   57MOL0     C 7746   1.325   5.534   2.085  0.7814  0.8361  0.1808
   57MOL0     C 7747   1.323   5.417   2.151 -0.8968 -0.3553 -0.2872
   57MOL0     C 7748   1.188   5.346   2.161 -0.7194  0.4123  0.1450
   57MOL0     C 7749   1.185   5.255   2.283 -0.8498 -0.2604  0.2798
   57MOL0     C 7750   1.068   5.158   2.284 -0.1612  0.2858  1.0581
   57MOL0     C 7751   1.038   5.109   2.416 -0.1963  0.3742 -0.1115
   57MOL0     O 7752   0.989   5.217   2.504 -0.8132  0.0374 -0.6763
   57MOL0     C 7753   1.023   5.206   2.630 -0.6966 -0.0092 -0.2282
   57MOL0     C 7754   1.049   5.325   2.697 -0.3023 -0.0024  1.1343
   57MOL0     C 7755   1.088   5.333   2.830  0.3938 -0.8687  1.0996
   57MOL0     C 7756   1.115   5.478   2.874 -0.0805 -0.6384 -0.9599
   57MOL0     C 7757   1.103   5.210   2.901 -0.5597 -0.2819 -0.3640
   57MOL0     C 7758   1.161   5.203   3.038 -0.2611  0.6567  0.8296
   57MOL0     O 7759   1.197   5.078   3.086  0.4927 -0.0808 -0.1400
   57MOL0     C 7760   1.264   5.059   3.205 -0.8167  0.0285  0.8355
   57MOL0     C 7761   1.308   5.159   3.302 -0.5280  0.8739  0.1247
   57MOL0     C 7762   1.381   5.115   3.417 -0.1588  0.4972  0.0523
   57MOL0     C 7763   1.399   4.979   3.447 -0.6718 -0.6102  0.2335
   57MOL0     O 7764   1.444   4.946   3.565 -0.8396 -0.2787 -0.6111
   57MOL0     C 7765   1.574   4.871   3.572 -0.4768 -0.5799  0.5327
   57MOL0     C 7766   1.697   4.968   3.599 -0.7306 -0.2736  0.3581
   57MOL0     C 7767   1.825   4.910   3.566  0.3885 -0.1466  0.2477
   57MOL0     C 7768   1.928   5.014   3.617  0.1961 -0.1250  0.2552
   57MOL0     C 7769   2.075   4.970   3.574  0.0915 -0.0652  1.0046
   57MOL0     C 7770   2.130   4.853   3.652 -0.4084  0.4978  0.7792
   57MOL0     C 7771   2.273   4.811   3.607  1.0334 -0.8987  0.3253
   57MOL0     C 7772   2.344   4.736   3.713  0.1232  0.9018 -0.6604
   57MOL0    Cl 7773   2.362   4.828   3.859 -0.2258  0.6107 -0.3195
   57MOL0     C 7774   1.348   4.885   3.362  0.3717 -0.7038 -0.0812
   57MOL0     C 7775   1.291   4.928   3.234 -0.9146  0.7510 -0.6062
   57MOL0     O 7776   1.161   5.303   3.109  0.2185  0.1149 -0.5288
   57MOL0     C 7777   1.064   5.093   2.836 -0.4240  0.0808  0.3361
   57MOL0     C 7778   1.028   5.092   2.699  0.0510  0.8041 -0.1092
   57MOL0     N 7779   1.457   5.394   2.196 -0.1018 -0.0599  0.7317
   57MOL0     N 7780   1.523   5.498   2.169  0.4526 -0.5126  0.0818
   57MOL0     C 7781   1.275   6.442   1.541 -0.6967 -0.7998 -0.8282
   57MOL0     C 7782   1.197   6.557   1.508  0.3466  0.4899 -0.3059
   57MOL0     C 7783   1.147   7.010   1.497  0.3591  0.0992 -1.1913
   57MOL0     C 7784   1.006   7.015   1.485 -0.0996  0.2693  0.6038
   57MOL0     C 7785   0.922   7.120   1.465  0.5620  0.6270  0.2788
   57MOL0     C 7786   0.980   7.243   1.444 -0.1196  0.6107  0.3452
   57MOL0     O 7787   0.915   7.362   1.423  0.1513 -0.3714  0.4281
   57MOL0     C 7788   0.843   7.357   1.302 -0.2539  0.0021  0.4879
   57MOL0     C 7789   0.692   7.362   1.326  0.2334  0.3529  1.0806
   57MOL0     C 7790   0.608   7.388   1.195 -1.1437 -0.4961  0.0276
   57MOL0     C 7791   0.462   7.377   1.226  0.7076  0.0812  0.6477
   57MOL0     C 7792   0.408   7.491   1.290  0.2658  0.0781  0.4187
   57MOL0     C 7793   0.352   7.591   1.336  0.9201  0.2183  1.2096
   57MOL0     C 7794   1.123   7.247   1.464 -0.1704 -0.9351 -0.0375
   57MOL0     C 7795   1.200   7.142   1.500  0.3017 -0.5847 -0.0188
   57MOL0     C 7796   1.340   7.164   1.563 -0.3984  0.1930 -0.4954
   57MOL0     H 7797   1.280   6.763   1.756  3.4679 -0.2966  0.6986
   57MOL0     H 7798   1.425   6.560   1.820  2.1070 -4.2758 -0.8969
   57MOL0     H 7799   1.598   6.396   1.792  0.6931 -1.1613  0.3481
   57MOL0     H 7800   1.589   6.233   1.767 -0.7859  0.4024 -1.1177
   57MOL0     H 7801   1.546   6.260   2.006  0.3668 -0.6514 -1.2839
   57MOL0     H 7802   1.422   6.385   1.966  0.2257  0.5998 -2.1630
   57MOL0     H 7803   1.336   6.150   2.042 -1.5390 -0.6525 -1.2228
   57MOL0     H 7804   1.284   6.197   1.885  0.6080  2.6623 -0.1981
   57MOL0     H 7805   1.476   6.028   1.801  0.7470 -1.0619  0.7895
   57MOL0     H 7806   1.503   6.011   1.973 -1.1098 -3.2793  0.3438
   57MOL0     H 7807   1.231   5.957   1.840  0.1503 -1.5351 -0.1992
   57MOL0     H 7808   1.295   5.896   1.990 -1.4952  0.0147 -0.6049
   57MOL0     H 7809   1.287   5.711   1.851  2.7497 -1.8170  1.9851
   57MOL0     H 7810   1.364   5.799   1.720 -0.2304  1.4670 -0.4505
   57MOL0     H 7811   1.586   5.786   1.837  0.0957  0.0174  2.3474
   57MOL0     H 7812   1.514   5.623   1.830 -3.7123 -0.4951 -2.3496
   57MOL0     H 7813   1.606   5.708   2.065 -0.6623 -0.3874 -1.6961
   57MOL0     H 7814   1.457   5.805   2.074 -0.3015  0.8839  0.7740
   57MOL0     H 7815   1.245   5.578   2.026  2.1668  2.5257 -0.5319
   57MOL0     H 7816   1.159   5.280   2.079 -0.5190 -1.8453  1.7621
   57MOL0     H 7817   1.107   5.413   2.192 -1.2808  0.4336 -1.3248
   57MOL0     H 7818   1.280   5.200   2.282 -0.4462  0.4213 -0.3517
   57MOL0     H 7819   1.181   5.317   2.373  0.1369 -1.9820  1.5806
   57MOL0     H 7820   0.981   5.193   2.227  1.4496  0.8650 -1.1826
   57MOL0     H 7821   1.106   5.074   2.224 -0.3157  0.6673  0.4126
   57MOL0     H 7822   0.955   5.039   2.409 -1.0313  1.3471 -0.1735
   57MOL0     H 7823   1.132   5.063   2.449  2.0605  3.7747 -1.2632
   57MOL0     H 7824   1.055   5.407   2.627 -0.1583  1.3240  2.6256
   57MOL0     H 7825   1.028   5.533   2.911  2.2719  0.8820  2.9246
   57MOL0     H 7826   1.136   5.546   2.791  0.7783  0.6428  0.2542
   57MOL0     H 7827   1.194   5.496   2.947 -1.4811  1.1978  0.2007
   57MOL0     H 7828   1.301   5.263   3.275  0.2555  0.8774 -0.0981
   57MOL0     H 7829   1.424   5.194   3.479 -0.4973 -0.1395  1.1405
   57MOL0     H 7830   1.566   4.791   3.646  0.3496 -3.1095 -1.9270
   57MOL0     H 7831   1.592   4.814   3.481  0.2442  1.8505 -0.9449
   57MOL0     H 7832   1.677   5.062   3.549 -2.3601  0.0125  1.4489
   57MOL0     H 7833   1.697   5.005   3.702  3.6534  1.4756 -0.0483
   57MOL0     H 7834   1.840   4.914   3.458 -1.3251  4.4310 -0.0365
   57MOL0     H 7835   1.833   4.808   3.604  0.6037  0.2552  1.3510
   57MOL0     H 7836   1.913   5.022   3.725 -2.9445  1.2564 -0.1811
   57MOL0     H 7837   1.920   5.112   3.570  1.1365  0.8152  1.9217
   57MOL0     H 7838   2.076   4.960   3.465  0.5866  0.1370  0.9885
   57MOL0     H 7839   2.154   5.045   3.584  0.4925 -0.0057 -1.8215
   57MOL0     H 7840   2.063   4.768   3.635  0.5927 -1.0466  3.7631
   57MOL0     H 7841   2.125   4.872   3.760 -1.1652  0.7665  0.7032
   57MOL0     H 7842   2.327   4.903   3.584 -0.9530  0.1634 -0.3325
   57MOL0     H 7843   2.258   4.743   3.523 -1.7301  0.0817 -0.0926
   57MOL0     H 7844   2.436   4.698   3.668 -0.7609 -1.0167 -0.9471
   57MOL0     H 7845   2.284   4.649   3.741 -0.7419  0.3211 -3.8909
   57MOL0     H 7846   1.343   4.786   3.408 -2.3131  0.2103  1.8939
   57MOL0     H 7847   1.246   4.855   3.167  0.3697  0.2192 -0.9043
   57MOL0     H 7848   1.083   4.993   2.874  2.6600 -0.2392 -1.6843
   57MOL0     H 7849   0.995   4.993   2.669  0.4992  0.7272 -0.3523
   57MOL0     H 7850   1.275   6.348   1.488 -2.4752 -0.7311 -0.9804
   57MOL0     H 7851   1.145   6.577   1.415  1.8033  0.3655 -1.1770
   57MOL0     H 7852   0.942   6.927   1.490  2.2189 -1.4630  1.6526
   57MOL0     H 7853   0.817   7.111   1.440 -0.3353 -4.4677  4.2652
   57MOL0     H 7854   0.873   7.433   1.228  0.8969 -3.5079 -3.0376
   57MOL0     H 7855   0.860   7.262   1.251  4.6788  0.6268  0.4968
   57MOL0     H 7856   0.659   7.444   1.390  1.2979 -0.4018  2.6869
   57MOL0     H 7857   0.652   7.269   1.368 -0.4912  0.4031  0.5191
   57MOL0     H 7858   0.635   7.493   1.177 -4.2401  0.3377 -0.3890
   57MOL0     H 7859   0.635   7.327   1.108  0.7307 -0.9985  0.9178
   57MOL0     H 7860   0.432   7.294   1.291  2.2134 -0.5048  0.6295
   57MOL0     H 7861   0.394   7.370   1.141  1.0520 -2.4713  0.5047
   57MOL0     H 7862   0.313   7.681   1.381  2.0226 -0.6755  4.1685
   57MOL0     H 7863   1.171   7.344   1.469 -0.0537 -0.8499 -1.8750
   57MOL0     H 7864   1.372   7.086   1.632  0.4714  1.2163  0.2972
   57MOL0     H 7865   1.424   7.173   1.494  1.9713  1.6998  2.3766
   57MOL0     H 7866   1.347   7.257   1.620  0.8309 -0.0504 -0.2187
   58MOL0     O 7867  10.478   6.761  11.237 -0.5077  0.6928 -0.0827
   58MOL0     C 7868  10.489   6.739  11.117  0.0638  0.7448 -0.1619
   58MOL0     O 7869  10.391   6.696  11.032 -0.3674 -0.6382  0.0112
   58MOL0     C 7870  10.271   6.737  11.079 -0.1051 -0.7060  0.0691
   58MOL0     C 7871  10.162   6.648  11.090 -0.7477  1.6129 -0.4442
   58MOL0     C 7872  10.037   6.684  11.137  0.4806 -0.5400 -0.5539
   58MOL0     C 7873  10.008   6.823  11.147 -0.8347 -0.1051 -0.0546
   58MOL0     O 7874   9.884   6.867  11.191  0.4784 -0.6241  0.2456
   58MOL0     C 7875   9.776   6.864  11.092 -0.0123  0.6802 -0.4973
   58MOL0     C 7876   9.695   6.735  11.116 -0.2288  0.3009  0.0347
   58MOL0     C 7877   9.596   6.711  10.994 -0.3489 -0.4211  0.2655
   58MOL0     C 7878   9.643   6.593  10.915 -0.2887 -0.1026  0.2065
   58MOL0     C 7879   9.539   6.571  10.807 -0.0494 -0.9736  0.1765
   58MOL0     C 7880   9.547   6.431  10.745 -0.4520  0.1692 -0.3098
   58MOL0     C 7881   9.454   6.435  10.621  0.3623 -0.1766 -0.0357
   58MOL0     C 7882   9.416   6.295  10.558  0.0933 -0.5100 -0.3635
   58MOL0     N 7883   9.358   6.308  10.417 -0.7971  0.0854  0.0894
   58MOL0     C 7884   9.229   6.284  10.375  0.9409  0.0306 -0.3154
   58MOL0     C 7885   9.240   6.320  10.244 -0.8328 -0.4530 -0.1322
   58MOL0     C 7886   9.129   6.324  10.148 -0.5767  0.0379  0.0173
   58MOL0     C 7887   9.065   6.460  10.162  0.3883 -0.5726  0.0175
   58MOL0     C 7888   8.934   6.440  10.081  0.9079  0.2797  0.0949
   58MOL0     C 7889   8.845   6.565  10.063  0.2782 -0.2845  0.7264
   58MOL0     O 7890   8.919   6.683  10.019 -1.1112 -0.2781 -1.1010
   58MOL0     C 7891   8.858   6.796  10.071  0.2668  0.0517 -0.0722
   58MOL0     C 7892   8.924   6.878  10.163 -0.5971 -1.0845 -0.5375
   58MOL0     C 7893   8.861   7.002  10.216  1.4307  0.0267  0.1613
   58MOL0     C 7894   8.925   7.068  10.334 -0.4681 -0.2894 -0.2967
   58MOL0     C 7895   8.741   7.052  10.153  0.7262 -0.3870  0.3304
   58MOL0     C 7896   8.674   7.186  10.180  0.0711  1.2367 -0.8583
   58MOL0     O 7897   8.553   7.211  10.113 -0.0412  0.1885  0.7731
   58MOL0     C 7898   8.478   7.323  10.130 -0.5522 -0.0784 -0.5301
   58MOL0     C 7899   8.541   7.452  10.153 -1.2700 -0.1343  0.2444
   58MOL0     C 7900   8.456   7.559  10.179  0.2623 -0.4264 -0.3521
   58MOL0     C 7901   8.314   7.548  10.183  0.1686  0.5491 -0.7390
   58MOL0     O 7902   8.247   7.663  10.218 -0.0809 -0.0955 -0.1964
   58MOL0     C 7903   8.111   7.654  10.256 -0.1703 -0.4787 -0.0169
   58MOL0     C 7904   8.039   7.770  10.200  0.3329 -0.1155  0.2191
   58MOL0     C 7905   7.882   7.748  10.212  1.1485  0.2706  0.0523
   58MOL0     C 7906   7.848   7.645  10.105 -0.0539 -0.2338  0.2191
   58MOL0     C 7907   7.695   7.674  10.054 -0.4587 -0.0785 -0.3553
   58MOL0     C 7908   7.577   7.688  10.161  0.7907  0.0539 -0.8709
   58MOL0     C 7909   7.435   7.723  10.100 -0.1289 -0.4911  0.6392
   58MOL0     C 7910   7.331   7.736  10.206  0.5882  0.3093 -0.0105
   58MOL0    Cl 7911   7.306   7.587  10.313 -0.2255  0.1909 -0.5819
   58MOL0     C 7912   8.257   7.421  10.158 -0.1428  1.0864  1.0916
   58MOL0     C 7913   8.339   7.312  10.123  0.4493  0.3965  0.2021
   58MOL0     O 7914   8.725   7.260  10.255  0.3163 -0.4550 -0.6041
   58MOL0     C 7915   8.678   6.957  10.065 -0.6785  0.3944  0.9061
   58MOL0     C 7916   8.729   6.836  10.026  0.0870 -0.4993  0.1853
   58MOL0     N 7917   9.370   6.354  10.215  0.5413 -0.5946 -0.0688
   58MOL0     N 7918   9.441   6.357  10.318 -1.0494  0.7547  0.5866
   58MOL0     C 7919  10.112   6.917  11.107 -0.0009  0.5375  0.0351
   58MOL0     C 7920  10.240   6.875  11.080 -0.2983  0.2279  0.5011
   58MOL0     C 7921  10.624   6.752  11.073  0.6171  0.5483 -0.2834
   58MOL0     C 7922  10.730   6.702  11.154  0.2227 -0.6033 -0.0705
   58MOL0     C 7923  10.862   6.706  11.108 -0.2159  0.7719  0.3262
   58MOL0     C 7924  10.892   6.757  10.982  0.3119  0.3245  0.5256
   58MOL0     O 7925  11.016   6.775  10.935  0.1902 -1.0257 -0.1372
   58MOL0     C 7926  11.068   6.662  10.865 -0.4042 -0.3801  0.4979
   58MOL0     C 7927  11.050   6.523  10.925  0.4542 -0.8285  0.0032
   58MOL0     C 7928  11.092   6.409  10.832  0.0810 -0.5282  0.3066
   58MOL0     C 7929  11.237   6.362  10.862  1.3808 -0.3721  0.4695
   58MOL0     C 7930  11.345   6.460  10.876  0.0215 -0.4825  0.4555
   58MOL0     C 7931  11.450   6.521  10.902 -0.1988 -0.6525 -0.5303
   58MOL0     C 7932  10.792   6.812  10.904 -0.5307  0.9884 -0.2010
   58MOL0     C 7933  10.653   6.808  10.949 -1.5726  0.2811 -0.2441
   58MOL0     C 7934  10.547   6.864  10.848  0.2486 -0.4951  0.3149
   58MOL0     H 7935  10.186   6.542  11.085  1.2020  2.0433 -0.7334
   58MOL0     H 7936   9.950   6.627  11.165 -0.1846  0.2921 -0.8700
   58MOL0     H 7937   9.804   6.874  10.987 -1.1308  1.4607 -0.7465
   58MOL0     H 7938   9.706   6.947  11.102 -3.0701 -1.5207 -1.9234
   58MOL0     H 7939   9.758   6.645  11.120  0.0345  0.5258  1.6214
   58MOL0     H 7940   9.634   6.733  11.206 -1.8463 -0.4904 -1.0335
   58MOL0     H 7941   9.493   6.695  11.028 -0.8248 -0.3822 -1.0819
   58MOL0     H 7942   9.589   6.802  10.933 -1.8691 -0.9632 -0.4215
   58MOL0     H 7943   9.743   6.604  10.873  0.7516 -0.8678  2.3154
   58MOL0     H 7944   9.650   6.506  10.982 -2.0442 -0.2009  0.3034
   58MOL0     H 7945   9.569   6.638  10.725 -1.7583 -0.7541 -0.3003
   58MOL0     H 7946   9.436   6.599  10.829  0.7463  1.2838  1.4250
   58MOL0     H 7947   9.645   6.403  10.707 -1.6160 -3.1427 -1.2167
   58MOL0     H 7948   9.523   6.355  10.820  0.9315 -0.3533 -0.3655
   58MOL0     H 7949   9.501   6.499  10.546  0.2772  0.2703  0.2885
   58MOL0     H 7950   9.361   6.488  10.646 -0.1802 -1.1129  0.0081
   58MOL0     H 7951   9.516   6.252  10.547  0.0111 -0.5423 -1.0089
   58MOL0     H 7952   9.350   6.241  10.628  0.5987  2.7492  2.9385
   58MOL0     H 7953   9.139   6.248  10.425  0.4029  0.9360 -0.5967
   58MOL0     H 7954   9.062   6.251  10.193 -0.1739 -0.6939 -0.5328
   58MOL0     H 7955   9.166   6.290  10.051 -3.5346  0.2041 -1.2566
   58MOL0     H 7956   9.054   6.490  10.266  1.8794 -3.8167  1.2720
   58MOL0     H 7957   9.126   6.529  10.103  0.8930 -0.7518  0.3143
   58MOL0     H 7958   8.965   6.395   9.987  0.7998  1.9481 -0.7750
   58MOL0     H 7959   8.871   6.363  10.128 -0.8275 -0.5665 -3.3237
   58MOL0     H 7960   8.770   6.545   9.986  0.0495  1.9907  0.3083
   58MOL0     H 7961   8.790   6.579  10.157 -0.2818  0.9633  0.2339
   58MOL0     H 7962   9.008   6.841  10.222 -0.5532 -1.2767 -0.7187
   58MOL0     H 7963   8.986   6.995  10.389 -0.4259  2.1570  3.2143
   58MOL0     H 7964   8.848   7.109  10.399 -1.4543  0.3388 -1.7908
   58MOL0     H 7965   8.979   7.158  10.304  2.3358 -1.8245 -0.2175
   58MOL0     H 7966   8.649   7.460  10.155 -1.0879 -2.1806  1.6302
   58MOL0     H 7967   8.493   7.656  10.210 -0.3345 -0.4897  0.6072
   58MOL0     H 7968   8.063   7.561  10.222  0.5367 -1.3156  1.1971
   58MOL0     H 7969   8.104   7.660  10.365 -0.4104  1.4357 -0.1101
   58MOL0     H 7970   8.047   7.862  10.258 -4.3019  0.9634 -0.5236
   58MOL0     H 7971   8.075   7.784  10.098  1.1618  0.5381  0.5947
   58MOL0     H 7972   7.822   7.835  10.185 -1.2116 -1.3579 -0.2230
   58MOL0     H 7973   7.855   7.720  10.314 -0.0683  1.5189  0.1118
   58MOL0     H 7974   7.850   7.543  10.143 -3.0031  0.5831  3.0398
   58MOL0     H 7975   7.913   7.642  10.017  2.6827  2.6999  1.9355
   58MOL0     H 7976   7.704   7.767   9.997  0.8036  3.1017  4.3920
   58MOL0     H 7977   7.671   7.586   9.995 -0.7704 -2.5252  3.1212
   58MOL0     H 7978   7.594   7.774  10.226 -0.4820  2.0544 -3.0229
   58MOL0     H 7979   7.578   7.597  10.222  1.5269 -0.9092 -2.2493
   58MOL0     H 7980   7.407   7.650  10.023  0.4644  1.7287 -1.8702
   58MOL0     H 7981   7.443   7.813  10.038 -2.2168 -0.9079 -0.3479
   58MOL0     H 7982   7.233   7.759  10.164 -0.9583  0.1726  3.2668
   58MOL0     H 7983   7.355   7.830  10.256 -1.5842  0.9274 -0.0416
   58MOL0     H 7984   8.150   7.402  10.163  0.0054  0.5121  3.0880
   58MOL0     H 7985   8.296   7.215  10.104  1.2781  0.1269 -0.3548
   58MOL0     H 7986   8.580   6.985  10.029 -0.4571  1.5485  1.1547
   58MOL0     H 7987   8.677   6.770   9.957  1.4802 -2.2283  0.7164
   58MOL0     H 7988  10.102   7.025  11.097  1.8947  1.1109  2.9152
   58MOL0     H 7989  10.303   6.954  11.041 -1.9179  2.4829  2.2515
   58MOL0     H 7990  10.705   6.659  11.250  1.9448  1.1354  1.2331
   58MOL0     H 7991  10.943   6.668  11.169  1.7189 -0.3029 -2.7297
   58MOL0     H 7992  11.027   6.657  10.763 -0.3805 -0.4699  0.4928
   58MOL0     H 7993  11.176   6.680  10.866 -0.4417 -0.0207 -0.4162
   58MOL0     H 7994  10.945   6.495  10.937  0.3147  0.0562  0.9982
   58MOL0     H 7995  11.093   6.500  11.023  1.5184 -1.3411 -0.5620
   58MOL0     H 7996  11.035   6.316  10.835 -0.7738 -0.0017  0.8054
   58MOL0     H 7997  11.084   6.446  10.729  0.0228  0.2872  0.5929
   58MOL0     H 7998  11.272   6.291  10.786 -0.0083 -2.4171  1.6392
   58MOL0     H 7999  11.232   6.313  10.959 -0.9319  1.2380  1.2495
   58MOL0     H 8000  11.534   6.587  10.905 -0.6730 -0.0149 -0.9740
   58MOL0     H 8001  10.814   6.850  10.805 -2.3506 -1.0046 -1.4756
   58MOL0     H 8002  10.485   6.790  10.796 -0.1565  0.1456 -0.1372
   58MOL0     H 8003  10.478   6.924  10.908  2.1072  0.5374  1.5113
   58MOL0     H 8004  10.581   6.930  10.767 -4.8420  2.0294 -0.1821
   59MOL0     O 8005   2.578   2.297   2.999 -0.6386 -0.5141 -1.0765
   59MOL0     C 8006   2.603   2.421   3.018  0.2880 -0.5105 -0.4827
   59MOL0     O 8007   2.603   2.486   3.144 -0.4994  0.2143  0.6160
   59MOL0     C 8008   2.593   2.408   3.249  0.0050  0.0664  1.1690
   59MOL0     C 8009   2.484   2.409   3.329 -0.2182  0.6490  0.4920
   59MOL0     C 8010   2.482   2.332   3.443  0.6999 -0.2969 -0.5794
   59MOL0     C 8011   2.593   2.256   3.490  0.1227 -0.5847 -0.6834
   59MOL0     O 8012   2.588   2.184   3.607  0.0820  0.4319 -0.0098
   59MOL0     C 8013   2.561   2.255   3.729  0.1347 -1.1179 -0.4193
   59MOL0     C 8014   2.579   2.154   3.845 -0.1570  0.5422 -0.2585
   59MOL0     C 8015   2.469   2.054   3.842  0.0443 -0.3637 -0.0031
   59MOL0     C 8016   2.490   1.950   3.948 -0.7804  0.1124 -0.6504
   59MOL0     C 8017   2.395   1.831   3.952  0.3340  0.3633  0.3820
   59MOL0     C 8018   2.417   1.725   4.055 -0.1287  0.0040  0.6994
   59MOL0     C 8019   2.313   1.620   4.039 -0.0579  0.0446  0.6263
   59MOL0     C 8020   2.174   1.669   4.074  0.4772  0.1180  0.4748
   59MOL0     N 8021   2.083   1.552   4.096  0.1597  0.3766  0.3581
   59MOL0     C 8022   2.095   1.444   4.184 -0.4421 -1.3417  0.1076
   59MOL0     C 8023   2.014   1.352   4.128 -0.7080  1.0720  0.7505
   59MOL0     C 8024   2.001   1.214   4.189 -0.0022 -0.0936  0.0810
   59MOL0     C 8025   2.018   1.093   4.083  0.7311 -0.3956 -0.1350
   59MOL0     C 8026   2.150   1.102   4.002 -0.7370 -0.0523  0.1662
   59MOL0     C 8027   2.287   1.130   4.076  0.1459  1.0743 -0.4451
   59MOL0     O 8028   2.284   1.074   4.210  0.2747  0.0511  0.3100
   59MOL0     C 8029   2.277   0.940   4.231  0.3540  0.9344 -0.0790
   59MOL0     C 8030   2.185   0.888   4.325 -0.7177  0.7285  0.2585
   59MOL0     C 8031   2.151   0.753   4.347  0.0676  0.1592  0.0949
   59MOL0     C 8032   2.043   0.724   4.460 -0.1441 -0.1960 -0.3413
   59MOL0     C 8033   2.206   0.662   4.252 -0.0349  0.0563  0.3554
   59MOL0     C 8034   2.171   0.518   4.250 -0.1147  0.3527 -0.3557
   59MOL0     O 8035   2.070   0.474   4.329  0.4639  0.5570 -0.2369
   59MOL0     C 8036   2.057   0.347   4.367 -0.1268  0.8415 -0.8976
   59MOL0     C 8037   2.119   0.316   4.484 -0.3697 -0.7396 -0.1918
   59MOL0     C 8038   2.085   0.197   4.558  1.0741 -0.5688  0.5900
   59MOL0     C 8039   2.006   0.089   4.496 -0.8457  0.0751 -0.8168
   59MOL0     O 8040   1.968  -0.024   4.572 -0.2005 -0.0147  0.1057
   59MOL0     C 8041   1.856  -0.112   4.528 -0.0485 -0.0859  0.2128
   59MOL0     C 8042   1.714  -0.043   4.513  0.0066 -0.9492 -1.0091
   59MOL0     C 8043   1.615  -0.128   4.596  0.0438  0.1671 -0.0566
   59MOL0     C 8044   1.477  -0.056   4.616  0.5015  0.1130 -0.4943
   59MOL0     C 8045   1.390  -0.028   4.491  0.5333 -0.0114 -0.0128
   59MOL0     C 8046   1.325  -0.159   4.443 -0.2061  0.4220  0.3333
   59MOL0     C 8047   1.208  -0.121   4.351 -0.1134 -0.5413  0.4101
   59MOL0     C 8048   1.256  -0.094   4.209  0.5699 -0.4667 -0.0415
   59MOL0    Cl 8049   1.117  -0.048   4.122 -0.0532  0.3126  0.2041
   59MOL0     C 8050   1.952   0.128   4.374 -0.5109 -0.1246 -0.8158
   59MOL0     C 8051   1.972   0.251   4.315 -0.5369 -0.7902  1.1233
   59MOL0     O 8052   2.249   0.448   4.188 -0.5139  0.4310  0.1099
   59MOL0     C 8053   2.307   0.705   4.163  0.3113 -0.4097 -0.1930
   59MOL0     C 8054   2.341   0.846   4.150 -0.2238 -0.3536 -0.8975
   59MOL0     N 8055   1.942   1.407   4.020  0.0853 -0.0545  0.7939
   59MOL0     N 8056   1.984   1.530   4.008  0.1146 -0.1318  0.2545
   59MOL0     C 8057   2.703   2.260   3.405 -0.2659 -0.0460  0.0501
   59MOL0     C 8058   2.703   2.329   3.282  0.3941  0.4873  1.0577
   59MOL0     C 8059   2.668   2.487   2.905 -0.0695 -0.2276  0.6046
   59MOL0     C 8060   2.753   2.408   2.825 -0.4904  0.4152 -0.1247
   59MOL0     C 8061   2.811   2.461   2.711  0.2677  0.4210  0.3136
   59MOL0     C 8062   2.789   2.590   2.672  0.7708 -0.1539 -0.6761
   59MOL0     O 8063   2.856   2.636   2.558  0.5815 -0.1173 -0.7000
   59MOL0     C 8064   2.854   2.779   2.533  0.0256 -0.7552 -0.3735
   59MOL0     C 8065   2.908   2.798   2.393  0.5084  0.2437 -0.1715
   59MOL0     C 8066   2.847   2.689   2.295  0.5075 -0.2156  0.1109
   59MOL0     C 8067   2.880   2.726   2.145 -0.5067 -0.5113 -0.4108
   59MOL0     C 8068   3.028   2.722   2.138 -0.0177 -0.1763 -0.0479
   59MOL0     C 8069   3.143   2.743   2.156  0.3917 -0.8365 -0.2589
   59MOL0     C 8070   2.707   2.675   2.758 -0.0593 -0.6913  0.4793
   59MOL0     C 8071   2.657   2.626   2.874  0.0840  0.1349  0.6724
   59MOL0     C 8072   2.586   2.714   2.968 -0.8942 -0.5344 -0.4126
   59MOL0     H 8073   2.390   2.445   3.287 -1.8994 -4.4207 -0.9555
   59MOL0     H 8074   2.383   2.326   3.488 -0.2993  1.9371 -2.2739
   59MOL0     H 8075   2.457   2.287   3.741  0.2924 -0.1827 -1.3782
   59MOL0     H 8076   2.634   2.336   3.739  5.5158 -4.6544 -4.8671
   59MOL0     H 8077   2.671   2.095   3.833 -1.1680 -1.2211  0.3652
   59MOL0     H 8078   2.586   2.213   3.937  0.7965  2.2881 -1.3973
   59MOL0     H 8079   2.368   2.090   3.864 -0.3536 -0.9364 -0.8745
   59MOL0     H 8080   2.467   2.002   3.746 -2.2200  0.3485 -0.4037
   59MOL0     H 8081   2.592   1.911   3.942  0.3200  2.0762  2.4188
   59MOL0     H 8082   2.478   1.992   4.049  1.3139 -0.2694 -0.1926
   59MOL0     H 8083   2.387   1.782   3.855  0.4646 -0.1162  0.6129
   59MOL0     H 8084   2.296   1.873   3.968  0.5101  0.3403  1.6304
   59MOL0     H 8085   2.511   1.668   4.049 -0.4426 -0.8201  2.7516
   59MOL0     H 8086   2.425   1.775   4.152  2.5424  0.0234  0.5482
   59MOL0     H 8087   2.338   1.541   4.110 -0.4128 -2.1486 -1.5727
   59MOL0     H 8088   2.317   1.577   3.938 -0.7712 -0.3108  0.7435
   59MOL0     H 8089   2.181   1.728   4.166  1.1725 -0.8729  1.0873
   59MOL0     H 8090   2.128   1.730   3.996  1.7746 -1.6714 -1.7926
   59MOL0     H 8091   2.169   1.423   4.261 -0.1938 -0.5861  0.0817
   59MOL0     H 8092   1.898   1.213   4.227 -0.4769  0.2118 -1.1336
   59MOL0     H 8093   2.079   1.198   4.264  0.6978  4.7342  0.7145
   59MOL0     H 8094   2.010   0.999   4.139  0.6433 -0.7410 -0.7230
   59MOL0     H 8095   1.934   1.099   4.013  0.5127 -3.5572 -0.2695
   59MOL0     H 8096   2.163   1.007   3.949 -1.8825 -0.5909  0.8127
   59MOL0     H 8097   2.147   1.182   3.927  0.5083  0.4229  0.5885
   59MOL0     H 8098   2.367   1.082   4.019  0.4651 -1.1728  1.7783
   59MOL0     H 8099   2.299   1.239   4.084 -2.4004  1.3485  1.0853
   59MOL0     H 8100   2.122   0.958   4.379 -3.7078 -1.6370  0.1113
   59MOL0     H 8101   1.952   0.667   4.436  1.0481 -2.2900 -0.1300
   59MOL0     H 8102   2.012   0.821   4.501  1.2287  0.1110  0.0286
   59MOL0     H 8103   2.088   0.660   4.537 -0.6131 -2.8313 -2.1133
   59MOL0     H 8104   2.190   0.392   4.514 -0.4277 -0.4768 -0.7145
   59MOL0     H 8105   2.115   0.196   4.662 -0.3795 -0.0978  1.0471
   59MOL0     H 8106   1.889  -0.147   4.430  1.4964  4.1246 -1.0066
   59MOL0     H 8107   1.851  -0.200   4.593 -1.0995 -0.4209 -0.2909
   59MOL0     H 8108   1.713   0.059   4.553 -2.5748 -1.0190 -0.7244
   59MOL0     H 8109   1.684  -0.023   4.410  1.1773  1.4268 -0.9689
   59MOL0     H 8110   1.664  -0.159   4.689  0.8455  1.0062 -0.1921
   59MOL0     H 8111   1.599  -0.223   4.544 -2.2950  1.1749 -1.3600
   59MOL0     H 8112   1.491   0.040   4.667 -1.2166 -0.2307  0.7292
   59MOL0     H 8113   1.417  -0.120   4.682 -2.4511  2.0213 -1.1340
   59MOL0     H 8114   1.316   0.046   4.522  0.3298 -0.0966 -0.2977
   59MOL0     H 8115   1.450   0.025   4.417 -2.2070  2.3480 -0.7145
   59MOL0     H 8116   1.276  -0.207   4.528 -0.2480 -1.7239 -0.8309
   59MOL0     H 8117   1.391  -0.234   4.400 -1.6423 -1.3820  1.1208
   59MOL0     H 8118   1.158  -0.034   4.393 -0.7296 -1.3985  1.5028
   59MOL0     H 8119   1.139  -0.207   4.350  0.5914 -1.1165 -0.0560
   59MOL0     H 8120   1.312  -0.177   4.166 -0.0937 -1.3341  0.7142
   59MOL0     H 8121   1.327  -0.011   4.208 -1.9709  1.8622 -1.6131
   59MOL0     H 8122   1.899   0.050   4.321 -1.9197  0.4387 -0.2751
   59MOL0     H 8123   1.920   0.274   4.223  4.4892 -2.9010 -2.6552
   59MOL0     H 8124   2.365   0.648   4.091 -0.5652  1.8300 -2.8071
   59MOL0     H 8125   2.417   0.862   4.075  2.0711 -1.3185  1.0904
   59MOL0     H 8126   2.787   2.210   3.452 -0.4434  1.5169  2.2314
   59MOL0     H 8127   2.785   2.322   3.211 -1.1181 -0.6991 -0.6803
   59MOL0     H 8128   2.784   2.314   2.868 -0.4238  1.8239  3.1913
   59MOL0     H 8129   2.876   2.395   2.654  2.8890  1.4250  1.9052
   59MOL0     H 8130   2.747   2.800   2.540 -0.5119 -3.4982  2.1866
   59MOL0     H 8131   2.898   2.843   2.610 -1.9750  0.4913 -0.2112
   59MOL0     H 8132   3.017   2.783   2.388  0.4905  0.4675 -2.5874
   59MOL0     H 8133   2.888   2.898   2.353 -0.1686  0.2041  0.0692
   59MOL0     H 8134   2.870   2.586   2.324 -3.2827 -1.5511 -0.9930
   59MOL0     H 8135   2.738   2.698   2.307  0.6893  3.3766  0.3996
   59MOL0     H 8136   2.850   2.827   2.116  1.0717  0.3894  0.8996
   59MOL0     H 8137   2.844   2.645   2.082  1.4285 -1.0713 -0.8513
   59MOL0     H 8138   3.248   2.748   2.179 -0.0845 -2.3160  2.5943
   59MOL0     H 8139   2.683   2.777   2.728 -0.2261 -0.9826 -0.4036
   59MOL0     H 8140   2.557   2.800   2.906  2.1364 -0.9203 -2.5435
   59MOL0     H 8141   2.494   2.665   3.001 -0.4211 -2.0867 -1.3016
   59MOL0     H 8142   2.652   2.749   3.048 -0.3469 -2.2208 -0.0818
   60MOL0     O 8143   6.594   0.161   4.313 -0.3184 -0.2824  0.2338
   60MOL0     C 8144   6.670   0.072   4.353 -0.0382 -0.2817 -0.4895
   60MOL0     O 8145   6.629  -0.026   4.431  1.0299  0.3231  0.7782
   60MOL0     C 8146   6.495  -0.021   4.474 -0.5992  0.6717  0.6445
   60MOL0     C 8147   6.424  -0.141   4.462  0.5675 -0.8203 -0.7457
   60MOL0     C 8148   6.292  -0.147   4.502  0.0520 -0.7709 -0.1992
   60MOL0     C 8149   6.236  -0.043   4.568  0.7654  0.6158 -1.1795
   60MOL0     O 8150   6.104  -0.049   4.610  0.1097  1.0132 -1.2231
   60MOL0     C 8151   6.065   0.035   4.730  0.6982 -0.8087 -0.4866
   60MOL0     C 8152   5.911   0.050   4.743  0.2429 -1.0275 -0.3879
   60MOL0     C 8153   5.850   0.078   4.607 -0.2131 -0.5455 -0.2314
   60MOL0     C 8154   5.909   0.200   4.538  0.1791 -1.1225 -0.9790
   60MOL0     C 8155   5.836   0.241   4.414 -0.2721  0.2076  0.3175
   60MOL0     C 8156   5.884   0.388   4.371  0.2014  0.3491 -0.4722
   60MOL0     C 8157   5.820   0.450   4.244 -0.2598  0.5432  0.3973
   60MOL0     C 8158   5.682   0.494   4.268  0.0537  0.8403 -0.8722
   60MOL0     N 8159   5.613   0.514   4.140 -0.5951  0.0784 -0.7957
   60MOL0     C 8160   5.521   0.425   4.088 -0.3608 -0.0359 -0.2165
   60MOL0     C 8161   5.494   0.468   3.962 -0.6298  0.8293  0.7267
   60MOL0     C 8162   5.406   0.398   3.861  0.4284 -0.9206  0.1221
   60MOL0     C 8163   5.296   0.306   3.910  0.0808  0.1445 -0.0844
   60MOL0     C 8164   5.193   0.394   3.984  0.3182  0.1825  0.4254
   60MOL0     C 8165   5.064   0.309   4.018 -0.3770 -0.1709  0.4575
   60MOL0     O 8166   4.971   0.384   4.095 -0.4073  0.7140 -1.2006
   60MOL0     C 8167   4.894   0.481   4.037 -0.7922 -0.5265 -0.5783
   60MOL0     C 8168   4.900   0.522   3.901 -0.9775 -0.5020 -0.1704
   60MOL0     C 8169   4.811   0.612   3.845 -0.2666 -0.2355  0.4501
   60MOL0     C 8170   4.848   0.674   3.706 -0.9530 -0.1894 -0.0425
   60MOL0     C 8171   4.698   0.652   3.924 -0.5143  0.1630  0.3542
   60MOL0     C 8172   4.582   0.737   3.876 -0.3745 -0.1861 -0.1620
   60MOL0     O 8173   4.488   0.762   3.968 -0.3363 -0.0078 -0.4749
   60MOL0     C 8174   4.371   0.821   3.927 -0.3785 -0.4837  0.0806
   60MOL0     C 8175   4.349   0.963   3.925 -0.1258  0.0132  0.3449
   60MOL0     C 8176   4.238   1.019   3.868 -0.1571 -0.7160  0.9760
   60MOL0     C 8177   4.127   0.937   3.829  0.1149 -1.2325  0.7729
   60MOL0     O 8178   4.008   0.984   3.778 -0.0554  0.2404 -0.3511
   60MOL0     C 8179   4.004   1.123   3.756 -0.5233  0.1629  0.0312
   60MOL0     C 8180   3.862   1.183   3.723  0.0537 -0.3724 -0.1679
   60MOL0     C 8181   3.751   1.105   3.785  0.6145  0.4581  0.2772
   60MOL0     C 8182   3.619   1.163   3.724 -0.1771  0.3621  0.3976
   60MOL0     C 8183   3.602   1.110   3.572  0.1573 -0.5107 -0.8622
   60MOL0     C 8184   3.461   1.146   3.511  0.4619 -0.4263  0.1604
   60MOL0     C 8185   3.427   1.069   3.379 -0.7451  0.2585 -0.5502
   60MOL0     C 8186   3.301   1.098   3.304  0.4407 -0.0687 -0.0710
   60MOL0    Cl 8187   3.291   1.271   3.267  0.6199  0.4835 -0.2986
   60MOL0     C 8188   4.137   0.799   3.846  0.3533 -0.3700  0.0310
   60MOL0     C 8189   4.264   0.746   3.888  0.3270 -0.0688  0.1050
   60MOL0     O 8190   4.577   0.775   3.761  0.4102 -0.4303  0.7129
   60MOL0     C 8191   4.689   0.603   4.056 -0.7443  0.5693  0.1435
   60MOL0     C 8192   4.789   0.523   4.109  0.0783  0.1518  0.0664
   60MOL0     N 8193   5.566   0.576   3.930 -0.4062 -0.4277  1.1297
   60MOL0     N 8194   5.637   0.602   4.040  0.5670 -0.5499  0.2268
   60MOL0     C 8195   6.311   0.070   4.595 -0.5226 -0.2365  0.2915
   60MOL0     C 8196   6.434   0.091   4.539 -0.5738 -0.2467  1.0137
   60MOL0     C 8197   6.819   0.072   4.305  0.2590  0.8617  0.2186
   60MOL0     C 8198   6.864   0.175   4.226  0.0406 -0.8426  0.1801
   60MOL0     C 8199   7.000   0.172   4.189 -0.3328  0.4015  0.4548
   60MOL0     C 8200   7.097   0.082   4.234  0.2259  0.4965 -0.0635
   60MOL0     O 8201   7.233   0.076   4.204  0.1544  0.2450 -0.3853
   60MOL0     C 8202   7.312   0.183   4.145  0.0694 -0.4582 -0.0943
   60MOL0     C 8203   7.347   0.290   4.261 -0.0024  0.7118 -0.1922
   60MOL0     C 8204   7.458   0.398   4.214 -0.0540  0.5044  0.1892
   60MOL0     C 8205   7.420   0.455   4.083 -0.6203  0.0600  0.0646
   60MOL0     C 8206   7.488   0.584   4.084  0.4778 -0.1458 -0.2642
   60MOL0     C 8207   7.553   0.678   4.084 -0.5889 -0.2633 -0.5048
   60MOL0     C 8208   7.054  -0.024   4.307 -0.5477 -0.3217  0.3337
   60MOL0     C 8209   6.917  -0.039   4.344  1.2935  0.4738  0.6528
   60MOL0     C 8210   6.881  -0.154   4.446  0.4397  0.2219 -0.1665
   60MOL0     H 8211   6.477  -0.216   4.404 -0.9629 -0.6121 -2.5193
   60MOL0     H 8212   6.246  -0.243   4.482  1.6058 -1.3941 -0.8885
   60MOL0     H 8213   6.105   0.136   4.726 -1.5314  0.0692 -2.6803
   60MOL0     H 8214   6.114  -0.001   4.822  3.0622  1.0621 -0.9118
   60MOL0     H 8215   5.869  -0.048   4.764 -1.5481 -0.7993 -2.4950
   60MOL0     H 8216   5.887   0.121   4.822 -1.3880  0.4024 -2.0641
   60MOL0     H 8217   5.866  -0.011   4.546 -1.9778 -1.1691  0.1587
   60MOL0     H 8218   5.741   0.077   4.615 -0.4726 -4.0124 -2.0567
   60MOL0     H 8219   5.911   0.279   4.613  2.1219 -0.9387 -1.1713
   60MOL0     H 8220   6.014   0.181   4.516  0.3877 -1.3247  0.1320
   60MOL0     H 8221   5.730   0.231   4.437 -0.1721 -1.5339  0.1533
   60MOL0     H 8222   5.880   0.172   4.341 -0.0359  1.7373 -1.0293
   60MOL0     H 8223   5.869   0.452   4.458 -1.2756 -0.5838 -0.0149
   60MOL0     H 8224   5.989   0.386   4.340  0.2829  2.7255 -0.5324
   60MOL0     H 8225   5.826   0.364   4.177 -2.0376 -1.5494  2.7366
   60MOL0     H 8226   5.879   0.530   4.199 -5.2622  3.1695 -2.4367
   60MOL0     H 8227   5.612   0.426   4.317 -1.8500  2.2954 -1.4412
   60MOL0     H 8228   5.679   0.588   4.323  0.2564  0.8477 -0.8720
   60MOL0     H 8229   5.477   0.335   4.129  0.9244 -0.4866  0.2219
   60MOL0     H 8230   5.472   0.336   3.800 -0.0679 -2.8025  1.3930
   60MOL0     H 8231   5.361   0.461   3.784 -0.6543 -1.1728  0.5189
   60MOL0     H 8232   5.264   0.243   3.827  0.1334 -0.2663  0.2009
   60MOL0     H 8233   5.351   0.234   3.972  1.0092  0.8772 -0.0270
   60MOL0     H 8234   5.241   0.433   4.074  1.4688  0.1840 -0.1566
   60MOL0     H 8235   5.164   0.482   3.925 -0.7274  0.1316  0.8400
   60MOL0     H 8236   5.014   0.264   3.932 -1.7753  0.0100  1.1521
   60MOL0     H 8237   5.094   0.223   4.079 -0.2889  0.5771  1.5110
   60MOL0     H 8238   4.966   0.474   3.830 -0.4023 -0.5636  0.4022
   60MOL0     H 8239   4.765   0.661   3.637 -1.5480  0.1352  0.5993
   60MOL0     H 8240   4.933   0.622   3.659 -1.3334  0.1657 -1.1420
   60MOL0     H 8241   4.874   0.780   3.714  2.3686 -0.9684  1.3416
   60MOL0     H 8242   4.442   1.018   3.939 -0.7012  2.5101 -3.8925
   60MOL0     H 8243   4.241   1.127   3.862  1.0833 -0.7504  0.7720
   60MOL0     H 8244   4.038   1.183   3.841 -0.6245  0.7007 -0.3059
   60MOL0     H 8245   4.061   1.150   3.667 -3.2661 -1.1400 -2.2709
   60MOL0     H 8246   3.862   1.284   3.764 -0.3402 -1.1106  1.7696
   60MOL0     H 8247   3.857   1.190   3.614  2.7736 -0.5937 -0.3901
   60MOL0     H 8248   3.754   1.120   3.893  3.9090 -0.0170  0.3484
   60MOL0     H 8249   3.760   0.998   3.764 -2.7823  0.1823 -0.4247
   60MOL0     H 8250   3.626   1.272   3.729  0.7764  0.2744  1.2859
   60MOL0     H 8251   3.537   1.122   3.783 -0.0827  1.2564  1.1752
   60MOL0     H 8252   3.678   1.145   3.502 -1.0880 -1.7509 -2.9557
   60MOL0     H 8253   3.616   1.002   3.577 -0.6521 -0.5635  1.9181
   60MOL0     H 8254   3.458   1.253   3.488  1.4821 -0.4637 -0.1810
   60MOL0     H 8255   3.388   1.126   3.590 -1.9049  1.3306 -1.4255
   60MOL0     H 8256   3.446   0.962   3.390 -0.1153  0.4522  0.3368
   60MOL0     H 8257   3.507   1.109   3.316  1.6413 -2.3116  0.6213
   60MOL0     H 8258   3.219   1.072   3.371  2.7524  2.6360  4.2590
   60MOL0     H 8259   3.298   1.049   3.206  0.0329  1.5744 -0.9062
   60MOL0     H 8260   4.050   0.742   3.818 -1.0083  1.1383  0.9771
   60MOL0     H 8261   4.253   0.638   3.893  1.8938 -0.2276  0.5835
   60MOL0     H 8262   4.601   0.607   4.119  0.4818 -1.0665  2.0792
   60MOL0     H 8263   4.766   0.483   4.207 -1.0690  1.1835  0.2387
   60MOL0     H 8264   6.277   0.162   4.643  0.8529  1.8363 -2.4504
   60MOL0     H 8265   6.480   0.190   4.541  0.7550 -0.7778 -0.6099
   60MOL0     H 8266   6.793   0.246   4.185 -0.4705 -1.2475  0.3659
   60MOL0     H 8267   7.046   0.252   4.133  1.4585 -1.6173 -1.1210
   60MOL0     H 8268   7.412   0.150   4.118  0.4567 -2.3506  3.0872
   60MOL0     H 8269   7.260   0.236   4.065 -0.9371 -0.2512  0.6712
   60MOL0     H 8270   7.391   0.229   4.340 -0.0161  2.2745  1.0750
   60MOL0     H 8271   7.260   0.344   4.300  1.0540  0.0561  3.4544
   60MOL0     H 8272   7.462   0.470   4.296  0.1849  1.1847 -0.4065
   60MOL0     H 8273   7.552   0.344   4.201 -1.6630 -2.4099 -0.1355
   60MOL0     H 8274   7.315   0.472   4.056 -0.3564  2.4084  0.2655
   60MOL0     H 8275   7.452   0.399   3.995  0.5724  1.9175 -0.7390
   60MOL0     H 8276   7.632   0.749   4.078  1.5486 -2.5670 -1.8640
   60MOL0     H 8277   7.127  -0.090   4.354 -1.3795 -1.1884  0.4421
   60MOL0     H 8278   6.797  -0.213   4.407 -0.6005  0.9664  0.8965
   60MOL0     H 8279   6.962  -0.228   4.443 -0.7132 -1.3893  3.2465
   60MOL0     H 8280   6.868  -0.122   4.550  2.4352  0.8028 -0.0475
   61MOL0     O 8281   2.928   1.355   9.531 -0.2237  0.0646  0.0147
   61MOL0     C 8282   2.984   1.260   9.586  0.4816 -0.0400  0.3817
   61MOL0     O 8283   3.076   1.267   9.681  0.1935 -0.0130  0.3085
   61MOL0     C 8284   3.073   1.391   9.749 -0.3076 -0.3802  0.5380
   61MOL0     C 8285   2.964   1.447   9.831 -0.0404  0.1228  0.1141
   61MOL0     C 8286   3.000   1.562   9.906  0.4602  0.4097  0.9694
   61MOL0     C 8287   3.123   1.631   9.881 -0.4152  1.6280 -0.0807
   61MOL0     O 8288   3.138   1.756   9.932  0.0154  0.6472 -0.0896
   61MOL0     C 8289   3.061   1.867   9.902 -1.0462 -0.4324  1.0355
   61MOL0     C 8290   3.143   1.992   9.923  0.0941  0.7921 -0.7380
   61MOL0     C 8291   3.187   2.011  10.071 -0.3832  0.3274  0.4333
   61MOL0     C 8292   3.077   2.039  10.169 -0.2810  0.3430  0.1365
   61MOL0     C 8293   3.146   2.097  10.292  0.5127  0.1662  0.1371
   61MOL0     C 8294   3.051   2.139  10.404 -1.1505 -0.3141 -0.3301
   61MOL0     C 8295   2.958   2.250  10.376 -0.1142  0.2500  0.1546
   61MOL0     C 8296   2.851   2.252  10.477  0.1413  0.5645 -1.0946
   61MOL0     N 8297   2.751   2.355  10.453 -0.4565 -0.4798 -0.8695
   61MOL0     C 8298   2.612   2.349  10.462  0.5573 -0.0609 -0.2283
   61MOL0     C 8299   2.575   2.479  10.464  0.8593 -0.5533  0.5925
   61MOL0     C 8300   2.432   2.519  10.478  0.1973 -0.5069 -1.1055
   61MOL0     C 8301   2.368   2.549  10.348 -0.1686  0.8327 -0.2488
   61MOL0     C 8302   2.419   2.668  10.262  0.5989 -0.5780 -0.5005
   61MOL0     C 8303   2.318   2.723  10.163 -0.0503 -0.1787  0.4680
   61MOL0     O 8304   2.366   2.857  10.128  0.0910 -0.0733  0.7915
   61MOL0     C 8305   2.265   2.947  10.117 -0.3740  0.3110 -0.3172
   61MOL0     C 8306   2.273   3.065  10.193 -0.4041  0.3473  0.1910
   61MOL0     C 8307   2.179   3.166  10.187 -0.0343 -0.3414  0.1839
   61MOL0     C 8308   2.215   3.277  10.282  0.7414  0.4066 -0.4017
   61MOL0     C 8309   2.068   3.140  10.102  0.9377 -0.8359 -1.1125
   61MOL0     C 8310   1.955   3.236  10.080 -0.1880 -0.4426  0.3618
   61MOL0     O 8311   1.828   3.195  10.034  0.5740  0.2942 -0.2387
   61MOL0     C 8312   1.720   3.269  10.078 -0.6263 -0.9414 -0.1882
   61MOL0     C 8313   1.707   3.343  10.202  1.0379 -0.5063  0.3669
   61MOL0     C 8314   1.589   3.414  10.230  0.8987  0.5243  0.7253
   61MOL0     C 8315   1.480   3.415  10.151 -0.3241  0.5271 -0.3615
   61MOL0     O 8316   1.354   3.461  10.187 -0.4787 -0.3065  0.3819
   61MOL0     C 8317   1.327   3.490  10.325 -0.2024  0.7473  0.1065
   61MOL0     C 8318   1.345   3.371  10.423  0.3253 -0.1460 -0.3922
   61MOL0     C 8319   1.292   3.420  10.560  0.3423 -0.4556  0.5216
   61MOL0     C 8320   1.137   3.446  10.563  0.6154  0.6477  0.2854
   61MOL0     C 8321   1.073   3.454  10.702  0.0871  0.2542 -0.2260
   61MOL0     C 8322   0.935   3.508  10.683 -1.1840  1.0209  0.3638
   61MOL0     C 8323   0.920   3.656  10.676  0.0108  0.9125 -0.5100
   61MOL0     C 8324   0.782   3.693  10.618  0.0045 -0.4401  0.3663
   61MOL0    Cl 8325   0.807   3.742  10.446 -0.2353  0.1740  0.8559
   61MOL0     C 8326   1.490   3.339  10.033 -0.8461  0.6374  0.1316
   61MOL0     C 8327   1.611   3.274   9.997 -0.3027 -0.0944 -0.0317
   61MOL0     O 8328   1.991   3.354  10.104 -0.3614 -0.2791  0.3521
   61MOL0     C 8329   2.049   3.023  10.027 -0.0656  0.0493 -0.2447
   61MOL0     C 8330   2.153   2.931  10.039 -0.1153 -0.6597  0.9296
   61MOL0     N 8331   2.676   2.559  10.448  0.2831  0.0174  0.4622
   61MOL0     N 8332   2.785   2.493  10.448  0.3047  0.4448 -0.9101
   61MOL0     C 8333   3.221   1.578   9.802  0.9455 -0.8921  0.7602
   61MOL0     C 8334   3.196   1.463   9.742  0.4597 -0.0165 -0.1848
   61MOL0     C 8335   2.953   1.118   9.545  0.4296  0.7865 -0.1967
   61MOL0     C 8336   2.967   1.009   9.646 -0.7060 -0.7051  0.1938
   61MOL0     C 8337   2.945   0.876   9.610 -0.2047  0.5749  0.7718
   61MOL0     C 8338   2.905   0.846   9.485 -0.4480 -1.4085 -0.1847
   61MOL0     O 8339   2.861   0.723   9.453 -0.1651  0.4903  0.9262
   61MOL0     C 8340   2.719   0.694   9.435  0.9241  0.2378  1.0353
   61MOL0     C 8341   2.705   0.581   9.326 -0.5892  1.3447  0.1600
   61MOL0     C 8342   2.687   0.439   9.391  0.6785  0.0678 -0.4494
   61MOL0     C 8343   2.824   0.381   9.434  0.0320  0.1209 -0.6012
   61MOL0     C 8344   2.855   0.422   9.571  0.1577  0.2949 -0.1888
   61MOL0     C 8345   2.896   0.465   9.672 -1.0471  0.4003 -0.2964
   61MOL0     C 8346   2.884   0.951   9.388 -0.0016  0.2474 -0.6453
   61MOL0     C 8347   2.900   1.088   9.414 -0.3088  1.0252 -0.7794
   61MOL0     C 8348   2.881   1.182   9.303  0.3862  0.4863 -1.6716
   61MOL0     H 8349   2.866   1.401   9.836 -1.0157  2.1804  1.1037
   61MOL0     H 8350   2.932   1.585   9.987 -2.0557  2.7388 -1.5800
   61MOL0     H 8351   2.971   1.871   9.963 -0.0925  1.1368  2.4123
   61MOL0     H 8352   3.019   1.859   9.801  0.7616  0.4484  0.1632
   61MOL0     H 8353   3.234   1.974   9.864 -0.0714  0.9292 -1.0409
   61MOL0     H 8354   3.084   2.074   9.882 -0.9728 -0.8678 -2.7095
   61MOL0     H 8355   3.236   1.928  10.123 -2.0626 -2.1469 -1.6911
   61MOL0     H 8356   3.259   2.093  10.070 -0.4463  0.3850  0.6088
   61MOL0     H 8357   3.008   2.110  10.122  2.1334  3.5719  1.1350
   61MOL0     H 8358   3.021   1.952  10.202 -1.6888  1.3383  0.4545
   61MOL0     H 8359   3.220   2.174  10.271  0.9648 -0.4866 -0.7126
   61MOL0     H 8360   3.201   2.019  10.346 -1.6808 -0.2879  1.9085
   61MOL0     H 8361   3.010   2.040  10.429  0.0198 -1.5265 -2.8548
   61MOL0     H 8362   3.121   2.171  10.482  0.4529 -2.7119 -0.6635
   61MOL0     H 8363   2.915   2.240  10.276 -0.1727  0.4577  0.1590
   61MOL0     H 8364   3.006   2.349  10.373  0.0129  0.1608 -2.1399
   61MOL0     H 8365   2.804   2.156  10.499 -0.2975  0.7200 -1.3606
   61MOL0     H 8366   2.888   2.282  10.576  0.6520 -0.0610 -1.0890
   61MOL0     H 8367   2.550   2.261  10.477  1.2497 -0.1816  2.2572
   61MOL0     H 8368   2.424   2.608  10.541  2.0829 -1.3386  0.3964
   61MOL0     H 8369   2.380   2.439  10.530 -2.1155  0.7901 -1.2729
   61MOL0     H 8370   2.373   2.460  10.285 -1.6735  1.6758 -1.6465
   61MOL0     H 8371   2.262   2.569  10.370  0.0945  0.2663  1.7948
   61MOL0     H 8372   2.419   2.737  10.347 -3.7939  1.8337 -2.1199
   61MOL0     H 8373   2.513   2.641  10.215  0.2478 -2.1293 -0.3681
   61MOL0     H 8374   2.302   2.669  10.070 -0.5570  3.3920 -1.7061
   61MOL0     H 8375   2.220   2.728  10.212 -0.0380  0.6664  0.4205
   61MOL0     H 8376   2.354   3.067  10.265  0.5826  1.2177 -0.8964
   61MOL0     H 8377   2.296   3.334  10.236  0.0003  0.6556 -1.4156
   61MOL0     H 8378   2.245   3.232  10.377  2.0051  2.2255  0.1076
   61MOL0     H 8379   2.123   3.334  10.296 -0.7063 -2.0879  0.9062
   61MOL0     H 8380   1.786   3.350  10.276  0.0704  0.1750  1.3711
   61MOL0     H 8381   1.598   3.470  10.323 -2.0091  0.9748  0.8436
   61MOL0     H 8382   1.387   3.577  10.355  0.3940  0.7630 -1.0795
   61MOL0     H 8383   1.220   3.513  10.321 -0.1559  0.7691 -2.0412
   61MOL0     H 8384   1.301   3.278  10.387 -1.6871 -1.6818  5.0282
   61MOL0     H 8385   1.449   3.348  10.443  0.3923  1.1119  0.8928
   61MOL0     H 8386   1.339   3.512  10.595 -2.6239  0.6994  1.8569
   61MOL0     H 8387   1.319   3.343  10.633  2.5039  0.8604  1.1996
   61MOL0     H 8388   1.090   3.373  10.496  1.5629  1.0953 -0.9069
   61MOL0     H 8389   1.120   3.544  10.517  0.5399 -0.4817 -2.2788
   61MOL0     H 8390   1.054   3.353  10.740 -1.1196  0.0531 -1.2987
   61MOL0     H 8391   1.138   3.508  10.772  0.1286  1.7672 -1.3972
   61MOL0     H 8392   0.861   3.471  10.755 -2.8021 -2.4038 -2.7078
   61MOL0     H 8393   0.897   3.474  10.587 -2.7741 -0.6352  1.5076
   61MOL0     H 8394   1.007   3.708  10.634 -0.3163  3.2514  1.4901
   61MOL0     H 8395   0.922   3.687  10.781 -1.5495  0.0654 -0.2080
   61MOL0     H 8396   0.739   3.774  10.679  0.3668 -1.5657  2.1776
   61MOL0     H 8397   0.710   3.611  10.620  1.3126 -1.5933  0.9656
   61MOL0     H 8398   1.399   3.306   9.984 -0.7204 -1.1219  1.0045
   61MOL0     H 8399   1.616   3.225   9.900  2.9693 -0.3334  0.1482
   61MOL0     H 8400   1.967   2.998   9.961  0.5113  1.3752 -1.5369
   61MOL0     H 8401   2.158   2.837   9.984  0.7332 -1.2983  2.0442
   61MOL0     H 8402   3.310   1.636   9.781 -0.7985  0.7874 -2.8982
   61MOL0     H 8403   3.275   1.440   9.671  3.8112  5.3607  1.1466
   61MOL0     H 8404   2.988   1.024   9.752  1.8438  0.0266 -0.3461
   61MOL0     H 8405   2.980   0.783   9.655  0.4405 -1.7793 -4.0367
   61MOL0     H 8406   2.663   0.671   9.525 -0.9951  3.5483  0.8589
   61MOL0     H 8407   2.670   0.786   9.399  0.4254  0.0045  1.1120
   61MOL0     H 8408   2.787   0.588   9.253 -0.4398 -2.8339 -0.3264
   61MOL0     H 8409   2.613   0.605   9.273 -1.4131 -3.4688 -1.0478
   61MOL0     H 8410   2.622   0.456   9.477  0.0844  1.6257 -1.1643
   61MOL0     H 8411   2.633   0.366   9.331 -1.6695 -1.4973  3.2080
   61MOL0     H 8412   2.909   0.416   9.374  0.0232 -0.4570 -0.9610
   61MOL0     H 8413   2.834   0.272   9.439  1.9291  0.3252  2.1052
   61MOL0     H 8414   2.952   0.493   9.760 -1.5152  0.4937 -0.0261
   61MOL0     H 8415   2.848   0.910   9.294 -0.6496  1.2102 -0.8282
   61MOL0     H 8416   2.863   1.133   9.207 -2.3505 -5.0684  1.2107
   61MOL0     H 8417   2.788   1.233   9.331 -0.5528 -2.0256  0.1041
   61MOL0     H 8418   2.962   1.253   9.284  0.8928  0.6442  0.7557
   62MOL0     O 8419   5.811  11.459   4.265  0.4147  0.5997 -0.4615
   62MOL0     C 8420   5.926  11.429   4.237  0.6901 -0.0480 -0.3669
   62MOL0     O 8421   5.986  11.306   4.249 -0.5521  0.3230  0.3039
   62MOL0     C 8422   5.910  11.195   4.257 -0.4069  0.2949 -0.1409
   62MOL0     C 8423   5.944  11.098   4.348 -0.2831  0.5283 -0.3524
   62MOL0     C 8424   5.870  10.977   4.358  0.1223  1.5448 -0.7809
   62MOL0     C 8425   5.753  10.957   4.280  0.6593  0.3948  0.4321
   62MOL0     O 8426   5.674  10.837   4.280 -0.5063 -0.6622  0.1151
   62MOL0     C 8427   5.669  10.755   4.397 -1.1238  0.4888  0.0288
   62MOL0     C 8428   5.529  10.682   4.397 -0.1102  0.7776  0.5155
   62MOL0     C 8429   5.531  10.591   4.273 -0.6119  0.6361  0.5170
   62MOL0     C 8430   5.595  10.460   4.308  0.7121  0.0587 -0.0471
   62MOL0     C 8431   5.598  10.355   4.198  0.2433  0.1993 -0.8401
   62MOL0     C 8432   5.464  10.328   4.120 -0.3591 -1.1719  0.2320
   62MOL0     C 8433   5.478  10.220   4.010  0.2263  0.5201  0.4867
   62MOL0     C 8434   5.352  10.191   3.938  0.7144  0.1538  0.9410
   62MOL0     N 8435   5.287  10.062   3.954 -0.3906  0.1362 -0.6082
   62MOL0     C 8436   5.238  10.032   4.082 -0.2214 -0.1217 -0.6154
   62MOL0     C 8437   5.182   9.912   4.062 -0.2904  0.2310  0.8672
   62MOL0     C 8438   5.129   9.813   4.172  0.3188 -0.1995  0.4374
   62MOL0     C 8439   4.990   9.764   4.143 -0.4486 -0.8442 -0.4564
   62MOL0     C 8440   4.914   9.696   4.262 -0.6544 -0.4202 -0.0502
   62MOL0     C 8441   4.782   9.629   4.226 -0.2982  0.3550  0.6083
   62MOL0     O 8442   4.685   9.737   4.210  0.2871 -1.0505 -0.1204
   62MOL0     C 8443   4.566   9.720   4.141 -0.2141  0.8624  0.4126
   62MOL0     C 8444   4.517   9.590   4.124 -0.2935  0.3327 -0.2472
   62MOL0     C 8445   4.400   9.560   4.053 -1.0322 -0.2318  0.5753
   62MOL0     C 8446   4.357   9.415   4.027 -0.6285 -0.1096  0.3991
   62MOL0     C 8447   4.324   9.668   3.995 -0.0170  0.2851  0.2742
   62MOL0     C 8448   4.192   9.647   3.925 -0.0704 -0.8562 -0.2232
   62MOL0     O 8449   4.108   9.548   3.972 -0.3715 -1.4028 -0.4750
   62MOL0     C 8450   3.997   9.510   3.910  0.3271  0.1041  0.3185
   62MOL0     C 8451   3.981   9.370   3.886 -0.6183 -0.4491  0.0014
   62MOL0     C 8452   3.871   9.324   3.822 -0.0037 -0.2353 -0.0583
   62MOL0     C 8453   3.759   9.408   3.795 -0.2084 -0.4005 -0.5038
   62MOL0     O 8454   3.643   9.350   3.743 -0.4145  0.0223 -0.0880
   62MOL0     C 8455   3.527   9.426   3.701 -0.5991  0.5817 -0.0524
   62MOL0     C 8456   3.404   9.343   3.683  0.5635  0.4138  0.6371
   62MOL0     C 8457   3.414   9.253   3.556 -0.7895  1.1460  0.1361
   62MOL0     C 8458   3.290   9.208   3.482  0.1089 -0.3497 -0.7079
   62MOL0     C 8459   3.188   9.316   3.444 -0.4490 -0.7324  0.5884
   62MOL0     C 8460   3.085   9.252   3.351  0.8281 -0.0435 -0.3086
   62MOL0     C 8461   2.939   9.296   3.368  0.7458 -0.4636  0.3260
   62MOL0     C 8462   2.873   9.271   3.505  0.1807  0.6902 -0.4566
   62MOL0    Cl 8463   2.687   9.289   3.490 -0.3629  0.0505  0.2530
   62MOL0     C 8464   3.775   9.543   3.811  0.1547 -0.4954 -0.8630
   62MOL0     C 8465   3.898   9.604   3.871 -0.4002  0.3814  0.4380
   62MOL0     O 8466   4.158   9.745   3.854 -0.6921 -0.1513 -0.0704
   62MOL0     C 8467   4.373   9.797   4.022 -0.3444  1.3123 -0.4721
   62MOL0     C 8468   4.489   9.830   4.089  0.9587  0.8017 -0.2562
   62MOL0     N 8469   5.186   9.889   3.922 -0.6440  0.6581 -0.0162
   62MOL0     N 8470   5.253   9.981   3.860 -0.4462 -0.3678  0.5481
   62MOL0     C 8471   5.725  11.052   4.179  1.2862  0.4225  0.7392
   62MOL0     C 8472   5.800  11.175   4.171 -0.0981  0.4825  1.0518
   62MOL0     C 8473   6.013  11.534   4.181  0.1697  0.6464  0.1481
   62MOL0     C 8474   6.151  11.527   4.207  0.0408  0.3499  0.3286
   62MOL0     C 8475   6.241  11.624   4.169  0.0319  0.0880  0.5306
   62MOL0     C 8476   6.193  11.735   4.095 -0.1355  0.0805  0.1459
   62MOL0     O 8477   6.271  11.843   4.051  0.3314 -0.3060  0.3633
   62MOL0     C 8478   6.369  11.888   4.138  0.2100  0.2819 -0.6496
   62MOL0     C 8479   6.304  11.952   4.272  0.4112 -0.6313  0.6696
   62MOL0     C 8480   6.421  11.991   4.372 -0.9872 -0.7129  0.0012
   62MOL0     C 8481   6.390  12.102   4.477  0.6948 -0.2913 -0.2562
   62MOL0     C 8482   6.255  12.091   4.537  0.2672  0.2119 -0.1755
   62MOL0     C 8483   6.134  12.071   4.570 -0.5972  0.5617  0.1585
   62MOL0     C 8484   6.065  11.729   4.042  0.3973  0.6788 -0.7767
   62MOL0     C 8485   5.970  11.634   4.092 -0.3806 -0.1747  0.2123
   62MOL0     C 8486   5.837  11.644   4.015  0.2543 -0.1247 -0.8805
   62MOL0     H 8487   6.035  11.098   4.408  0.6477 -3.3862 -1.4216
   62MOL0     H 8488   5.901  10.895   4.423  1.0767  1.7386 -0.9849
   62MOL0     H 8489   5.686  10.816   4.486  1.2136 -0.6702  0.4818
   62MOL0     H 8490   5.755  10.687   4.390  0.7104  1.8363  5.1380
   62MOL0     H 8491   5.516  10.623   4.488 -0.3627 -2.1790 -1.3038
   62MOL0     H 8492   5.446  10.752   4.404 -0.6574  0.0060  5.3164
   62MOL0     H 8493   5.426  10.588   4.243 -0.2519 -2.8643 -0.8058
   62MOL0     H 8494   5.577  10.630   4.182 -1.7562 -0.6122 -0.6286
   62MOL0     H 8495   5.698  10.483   4.335  1.3263  1.1326 -2.8727
   62MOL0     H 8496   5.539  10.435   4.398 -0.2817  1.0898 -0.3406
   62MOL0     H 8497   5.635  10.255   4.219  0.6369  0.5439  0.2110
   62MOL0     H 8498   5.660  10.414   4.129 -3.0387  5.3911  0.0465
   62MOL0     H 8499   5.383  10.303   4.188 -0.7740 -3.6687 -1.0280
   62MOL0     H 8500   5.446  10.420   4.063  1.5137 -0.4412  0.7542
   62MOL0     H 8501   5.512  10.129   4.061  0.2688 -0.1833 -0.7555
   62MOL0     H 8502   5.561  10.242   3.942  0.3307 -0.4517  0.2879
   62MOL0     H 8503   5.280  10.273   3.944 -0.4540 -0.8471  0.8827
   62MOL0     H 8504   5.378  10.194   3.831 -1.2971 -1.8102  0.3227
   62MOL0     H 8505   5.245  10.083   4.178  0.7775 -0.9637 -0.2305
   62MOL0     H 8506   5.130   9.859   4.271  0.5342  1.1238 -0.1601
   62MOL0     H 8507   5.191   9.724   4.158 -0.3184 -1.0770  2.8138
   62MOL0     H 8508   4.937   9.859   4.128  1.6328  0.6032  0.8463
   62MOL0     H 8509   4.994   9.698   4.056 -1.6619  0.0160 -1.2068
   62MOL0     H 8510   4.977   9.615   4.302  0.3037 -0.2829 -1.2318
   62MOL0     H 8511   4.892   9.766   4.343  1.3916 -0.6014  0.7267
   62MOL0     H 8512   4.793   9.571   4.134 -0.8534 -1.5183  1.6602
   62MOL0     H 8513   4.757   9.547   4.294 -0.8071 -0.2293 -0.2644
   62MOL0     H 8514   4.566   9.499   4.157 -0.7601 -0.6777 -2.1368
   62MOL0     H 8515   4.317   9.409   3.926 -0.8540 -1.7379  0.5478
   62MOL0     H 8516   4.282   9.370   4.093  0.0416 -2.0426 -0.0790
   62MOL0     H 8517   4.451   9.359   4.034  0.5527  1.7499  0.0842
   62MOL0     H 8518   4.059   9.300   3.913 -1.6137 -1.0374  1.4815
   62MOL0     H 8519   3.874   9.220   3.793  1.6901 -0.4027  0.6242
   62MOL0     H 8520   3.507   9.489   3.788  0.1525 -1.0390  1.3373
   62MOL0     H 8521   3.548   9.478   3.607  1.5026 -2.9195 -1.7146
   62MOL0     H 8522   3.392   9.271   3.764  1.9441 -1.9281 -1.0933
   62MOL0     H 8523   3.316   9.400   3.653 -0.1769 -1.0056  0.0249
   62MOL0     H 8524   3.473   9.168   3.592 -1.9674 -0.6284 -1.8708
   62MOL0     H 8525   3.471   9.304   3.478 -2.8146  1.2532 -1.3607
   62MOL0     H 8526   3.240   9.128   3.536  0.1887  0.6699  0.9454
   62MOL0     H 8527   3.318   9.149   3.394  0.3294 -0.9240 -0.2534
   62MOL0     H 8528   3.136   9.358   3.530  1.3926  1.0927  0.8803
   62MOL0     H 8529   3.236   9.393   3.384  2.7364 -2.0697  1.2108
   62MOL0     H 8530   3.088   9.148   3.385  1.1541  1.0225  3.2992
   62MOL0     H 8531   3.115   9.248   3.245 -3.6757  3.5412 -2.0187
   62MOL0     H 8532   2.879   9.250   3.290  1.2055 -1.1897  0.3892
   62MOL0     H 8533   2.937   9.403   3.345 -1.1124 -0.4888  0.2707
   62MOL0     H 8534   2.908   9.344   3.579 -3.7746  0.4443  1.9519
   62MOL0     H 8535   2.903   9.172   3.541 -0.6861  0.2351 -0.9439
   62MOL0     H 8536   3.700   9.609   3.768 -0.5027 -1.2121 -0.8405
   62MOL0     H 8537   3.906   9.712   3.883 -0.5074  0.5482 -0.9007
   62MOL0     H 8538   4.316   9.879   3.979 -1.6618  0.0880 -1.1565
   62MOL0     H 8539   4.533   9.927   4.108  0.2594  1.0041  0.3872
   62MOL0     H 8540   5.661  11.026   4.096  1.9580  1.2545 -0.0633
   62MOL0     H 8541   5.774  11.242   4.090 -2.1861 -1.8435 -0.3295
   62MOL0     H 8542   6.184  11.446   4.271  2.4020  4.4078  4.9040
   62MOL0     H 8543   6.339  11.617   4.216 -0.9503 -3.6712  2.4620
   62MOL0     H 8544   6.439  11.818   4.184  0.5030 -0.0777 -1.6302
   62MOL0     H 8545   6.431  11.960   4.084 -1.6037  0.4344 -2.6728
   62MOL0     H 8546   6.225  11.895   4.321 -1.1666  1.9617  1.3683
   62MOL0     H 8547   6.260  12.051   4.255 -0.6687 -0.8273  2.1934
   62MOL0     H 8548   6.441  11.902   4.432  1.0471 -0.5886 -0.4204
   62MOL0     H 8549   6.518  12.025   4.333 -1.2276  2.6994  1.9641
   62MOL0     H 8550   6.391  12.197   4.423  1.1883  0.8919  1.7318
   62MOL0     H 8551   6.467  12.108   4.554 -2.0483 -0.2208  2.6935
   62MOL0     H 8552   6.039  12.059   4.618  0.8114  0.1651  3.0931
   62MOL0     H 8553   6.040  11.810   3.973 -1.5312  1.9323  1.2591
   62MOL0     H 8554   5.768  11.703   4.075  0.9592 -0.8614  0.6936
   62MOL0     H 8555   5.841  11.702   3.922 -1.2044  1.0910 -0.2260
   62MOL0     H 8556   5.792  11.547   3.992 -1.5628  0.5319 -0.2770
   63MOL0     O 8557   9.765   9.255   2.639 -0.2988 -0.1582 -0.1003
   63MOL0     C 8558   9.694   9.211   2.728  0.2360  0.2871  0.2940
   63MOL0     O 8559   9.572   9.151   2.710  0.7541 -0.3970  0.0388
   63MOL0     C 8560   9.530   9.138   2.573 -0.1807 -0.2848 -0.0254
   63MOL0     C 8561   9.494   9.014   2.530 -0.1962  0.5720  0.2738
   63MOL0     C 8562   9.464   8.987   2.393 -0.9280  0.5996  0.9355
   63MOL0     C 8563   9.458   9.092   2.298 -0.3364 -0.5275 -0.1695
   63MOL0     O 8564   9.431   9.066   2.168  0.6762  0.2497  0.5671
   63MOL0     C 8565   9.382   8.936   2.120  0.5097 -0.6286 -0.7974
   63MOL0     C 8566   9.336   8.928   1.984  0.0230 -0.0694 -0.2705
   63MOL0     C 8567   9.199   8.993   1.961 -0.3448  0.6197 -0.1298
   63MOL0     C 8568   9.184   9.012   1.810  0.1022  0.0112 -0.0623
   63MOL0     C 8569   9.184   9.163   1.770  0.1536  0.2379  0.2780
   63MOL0     C 8570   9.196   9.196   1.615  0.1053  0.8440 -0.3653
   63MOL0     C 8571   9.077   9.145   1.534  0.2067 -0.0818 -0.4961
   63MOL0     C 8572   8.956   9.235   1.552  0.1438  0.0530 -0.0501
   63MOL0     N 8573   8.858   9.151   1.616 -0.2237 -0.4219 -0.6137
   63MOL0     C 8574   8.813   9.175   1.739  0.5855 -0.5136  0.3849
   63MOL0     C 8575   8.719   9.079   1.750  0.0163  0.1370  0.1003
   63MOL0     C 8576   8.627   9.069   1.870 -0.0699  0.5059  1.1616
   63MOL0     C 8577   8.702   9.053   1.999 -0.2140  0.2809  0.3079
   63MOL0     C 8578   8.780   8.914   1.995  0.5751  0.0368 -0.1957
   63MOL0     C 8579   8.851   8.888   2.130 -0.0124  0.2458 -0.4300
   63MOL0     O 8580   8.923   9.009   2.171  0.2251  0.0355  0.1502
   63MOL0     C 8581   8.954   9.015   2.304  0.2150 -0.6196 -0.4772
   63MOL0     C 8582   9.027   9.130   2.339 -0.3902 -0.0418 -0.3167
   63MOL0     C 8583   9.060   9.170   2.470 -0.2850  0.3286 -0.5124
   63MOL0     C 8584   9.144   9.294   2.487 -0.0578  0.1220  1.5061
   63MOL0     C 8585   9.029   9.077   2.572 -0.4112 -0.6433 -0.3040
   63MOL0     C 8586   9.053   9.100   2.721 -0.0733 -0.4038  0.6537
   63MOL0     O 8587   9.051   8.992   2.796  0.8958  0.4087  0.0374
   63MOL0     C 8588   9.074   8.982   2.932 -0.2226 -0.2400  1.2044
   63MOL0     C 8589   8.990   8.908   3.019 -0.0418  0.1553 -0.1175
   63MOL0     C 8590   9.021   8.894   3.149 -0.3527  0.2431 -0.0987
   63MOL0     C 8591   9.138   8.946   3.203 -0.1655 -0.7861  0.1653
   63MOL0     O 8592   9.175   8.933   3.336 -0.9570 -0.1887 -0.1892
   63MOL0     C 8593   9.217   9.060   3.406  0.1912 -0.5152  0.3867
   63MOL0     C 8594   9.367   9.062   3.447 -0.3571 -1.1047  0.0957
   63MOL0     C 8595   9.389   8.927   3.525 -1.3162 -0.5115 -0.5573
   63MOL0     C 8596   9.527   8.917   3.600  0.1742 -0.3048  0.5606
   63MOL0     C 8597   9.559   8.780   3.646  0.7299 -0.2963  0.4042
   63MOL0     C 8598   9.588   8.680   3.529  0.4519 -0.4614 -0.0746
   63MOL0     C 8599   9.653   8.554   3.596 -0.8067  0.7202  0.0147
   63MOL0     C 8600   9.693   8.442   3.497  0.0804  0.5131  1.0224
   63MOL0    Cl 8601   9.735   8.292   3.598 -0.1168 -0.3998  0.1447
   63MOL0     C 8602   9.228   9.017   3.119 -0.1132  0.2339 -0.0621
   63MOL0     C 8603   9.189   9.030   2.985  0.8704  0.6573  1.2529
   63MOL0     O 8604   9.078   9.217   2.761 -0.4293  0.4709  0.1343
   63MOL0     C 8605   8.975   8.956   2.535 -0.0317  0.3693 -0.4496
   63MOL0     C 8606   8.944   8.925   2.408 -0.8069 -0.2196  0.0728
   63MOL0     N 8607   8.700   9.010   1.634  1.0069 -0.2225 -0.6716
   63MOL0     N 8608   8.783   9.056   1.552  0.0013 -1.0473 -1.0960
   63MOL0     C 8609   9.486   9.227   2.343 -0.0876 -0.0081  0.1108
   63MOL0     C 8610   9.519   9.249   2.482 -0.5311  0.2228  0.4654
   63MOL0     C 8611   9.736   9.229   2.869  0.0605 -0.0175 -0.4731
   63MOL0     C 8612   9.643   9.192   2.972  0.1249 -0.2514 -0.4861
   63MOL0     C 8613   9.659   9.238   3.104 -0.3917  0.5877 -0.2735
   63MOL0     C 8614   9.765   9.320   3.146  0.0746  0.0130  1.1213
   63MOL0     O 8615   9.783   9.375   3.272 -0.3947 -0.1003  0.5410
   63MOL0     C 8616   9.669   9.399   3.354  0.2151 -0.2669 -0.7139
   63MOL0     C 8617   9.722   9.428   3.496 -0.3477  0.9941  1.0545
   63MOL0     C 8618   9.843   9.532   3.493  0.2974  0.4268 -0.9191
   63MOL0     C 8619   9.886   9.555   3.637  0.9937 -0.3719 -0.3838
   63MOL0     C 8620  10.012   9.632   3.642  0.8067 -0.9362  0.3948
   63MOL0     C 8621  10.119   9.687   3.625 -0.1678  0.3962 -0.2782
   63MOL0     C 8622   9.860   9.345   3.049  0.6402  0.5742  0.1945
   63MOL0     C 8623   9.857   9.294   2.914  0.0720 -0.4121  0.2759
   63MOL0     C 8624   9.984   9.321   2.826  0.7060 -0.1597 -0.4046
   63MOL0     H 8625   9.505   8.929   2.598 -2.6511 -1.2198 -1.3968
   63MOL0     H 8626   9.443   8.884   2.365  0.2423  0.9417 -1.4550
   63MOL0     H 8627   9.303   8.901   2.187 -0.9334 -0.1184 -2.1649
   63MOL0     H 8628   9.462   8.864   2.139 -0.4351 -1.9285 -1.6163
   63MOL0     H 8629   9.414   8.967   1.918  0.2643  1.1833  0.7021
   63MOL0     H 8630   9.321   8.823   1.957 -0.0434 -0.0561 -0.2851
   63MOL0     H 8631   9.112   8.941   2.002 -0.6088  2.4389  1.8012
   63MOL0     H 8632   9.194   9.089   2.014  1.4802  1.3281 -1.1467
   63MOL0     H 8633   9.266   8.957   1.762  0.2489 -0.5393  0.8057
   63MOL0     H 8634   9.089   8.967   1.781 -3.0605  4.8223  1.6096
   63MOL0     H 8635   9.268   9.210   1.822 -0.3476 -1.9274  3.2797
   63MOL0     H 8636   9.092   9.208   1.809 -0.2348 -0.6637  0.4263
   63MOL0     H 8637   9.200   9.306   1.608  3.5122  0.7359 -2.4099
   63MOL0     H 8638   9.293   9.164   1.576 -1.3813  0.3671 -4.1356
   63MOL0     H 8639   9.053   9.044   1.569  1.2919 -0.1725  0.0315
   63MOL0     H 8640   9.094   9.128   1.428 -0.7610  3.0683 -1.2792
   63MOL0     H 8641   8.974   9.327   1.608 -0.4306  0.3919 -0.4155
   63MOL0     H 8642   8.917   9.266   1.455  3.3903  2.5797 -0.7496
   63MOL0     H 8643   8.824   9.264   1.799 -2.0813  1.2309 -1.4594
   63MOL0     H 8644   8.562   8.987   1.839  0.1150  1.3715 -1.9633
   63MOL0     H 8645   8.553   9.150   1.877 -0.1578  0.2656  3.5498
   63MOL0     H 8646   8.759   9.142   2.027 -2.6666  2.4970 -1.3577
   63MOL0     H 8647   8.635   9.053   2.085 -2.6320  2.8250 -1.4061
   63MOL0     H 8648   8.714   8.829   1.975 -0.2652  0.9532 -1.4510
   63MOL0     H 8649   8.858   8.925   1.919  0.7779 -0.4141 -0.0577
   63MOL0     H 8650   8.777   8.864   2.207 -0.7799  2.1184 -0.5459
   63MOL0     H 8651   8.931   8.814   2.122 -0.1543  0.2299 -1.8968
   63MOL0     H 8652   9.060   9.198   2.261 -0.3269  1.8965  1.3283
   63MOL0     H 8653   9.080   9.366   2.538  0.6905  0.7316  1.5992
   63MOL0     H 8654   9.175   9.330   2.389  0.5697 -3.9150  0.0501
   63MOL0     H 8655   9.228   9.291   2.557  0.8567  1.0582  0.4776
   63MOL0     H 8656   8.905   8.862   2.970  2.8329 -4.5794 -1.3477
   63MOL0     H 8657   8.958   8.835   3.216 -2.1579  0.3005 -1.6530
   63MOL0     H 8658   9.194   9.149   3.346 -0.3566 -1.6585 -1.1596
   63MOL0     H 8659   9.162   9.080   3.498 -0.2350  1.2095 -0.1949
   63MOL0     H 8660   9.437   9.078   3.364 -0.8482  1.3699  0.0962
   63MOL0     H 8661   9.384   9.141   3.521 -4.8283 -0.2065  0.4354
   63MOL0     H 8662   9.384   8.844   3.454  3.6412 -0.7969 -0.9560
   63MOL0     H 8663   9.313   8.910   3.602  0.9180 -0.7219  1.7465
   63MOL0     H 8664   9.529   8.991   3.681  1.0416  1.5601 -1.0832
   63MOL0     H 8665   9.601   8.944   3.524 -0.4697 -1.5571 -0.5574
   63MOL0     H 8666   9.654   8.790   3.699  0.7758 -2.0017  0.7086
   63MOL0     H 8667   9.483   8.741   3.713  0.5552 -2.1405 -0.7935
   63MOL0     H 8668   9.652   8.715   3.447 -0.2162 -0.3999 -0.5823
   63MOL0     H 8669   9.497   8.640   3.483 -0.8618  2.0818  0.1653
   63MOL0     H 8670   9.586   8.504   3.666 -2.4506 -2.5253 -3.5134
   63MOL0     H 8671   9.740   8.580   3.657  0.1469 -0.0938 -0.9594
   63MOL0     H 8672   9.773   8.477   3.430 -0.4366 -0.7584 -0.3345
   63MOL0     H 8673   9.611   8.418   3.428 -0.6724  4.0538  0.5317
   63MOL0     H 8674   9.331   9.041   3.143  0.7835  0.5907 -3.6630
   63MOL0     H 8675   9.259   9.081   2.920  1.6062 -0.3922  1.1908
   63MOL0     H 8676   8.942   8.882   2.607  2.0208 -0.8911 -0.7125
   63MOL0     H 8677   8.890   8.833   2.387 -2.8056  0.1477  3.0690
   63MOL0     H 8678   9.491   9.307   2.270  0.4383  0.3004  0.4770
   63MOL0     H 8679   9.538   9.346   2.526 -1.4713 -0.1507  1.7511
   63MOL0     H 8680   9.554   9.130   2.966  0.4778 -0.9489  1.1091
   63MOL0     H 8681   9.577   9.215   3.171  0.2957  1.0978  0.7536
   63MOL0     H 8682   9.630   9.488   3.304  3.2022  0.4880 -1.9279
   63MOL0     H 8683   9.592   9.321   3.350  0.3266 -0.6496  2.2756
   63MOL0     H 8684   9.762   9.334   3.533  1.8446  2.6064  3.1205
   63MOL0     H 8685   9.636   9.470   3.551 -1.0582 -1.4643  1.9379
   63MOL0     H 8686   9.930   9.497   3.436 -0.5309  0.8799 -2.4981
   63MOL0     H 8687   9.810   9.622   3.442 -2.7297  0.0441  0.1626
   63MOL0     H 8688   9.885   9.458   3.688 -1.9449 -1.8162 -2.9238
   63MOL0     H 8689   9.807   9.616   3.682 -2.1367 -2.7550 -2.2546
   63MOL0     H 8690  10.207   9.746   3.607  1.2380 -0.6068  2.6387
   63MOL0     H 8691   9.947   9.405   3.073 -0.3811  2.3501 -0.3341
   63MOL0     H 8692  10.046   9.392   2.881 -0.2162  3.4910 -3.6490
   63MOL0     H 8693  10.044   9.233   2.802 -2.8669 -2.0487 -3.5271
   63MOL0     H 8694   9.967   9.373   2.731  1.0185 -1.6700 -1.3128
   64MOL0     O 8695   7.909   8.065   7.946 -0.0583 -0.0299 -0.1462
   64MOL0     C 8696   7.974   8.014   7.848 -0.0927  0.3299  0.0181
   64MOL0     O 8697   7.913   7.968   7.737  0.0441  0.2412  0.1887
   64MOL0     C 8698   7.781   7.931   7.741 -0.3442 -0.8780  0.3208
   64MOL0     C 8699   7.716   7.870   7.847  0.8937 -0.4512 -0.3298
   64MOL0     C 8700   7.582   7.842   7.839  0.4604  0.4353 -0.7723
   64MOL0     C 8701   7.514   7.850   7.716 -0.1287  0.3057 -0.0199
   64MOL0     O 8702   7.384   7.822   7.732 -0.0267  0.7880  0.4291
   64MOL0     C 8703   7.331   7.757   7.609 -0.0332  0.1555  0.1690
   64MOL0     C 8704   7.179   7.780   7.593 -0.6066 -0.3691 -0.0765
   64MOL0     C 8705   7.171   7.935   7.578  0.0555 -0.0139 -0.5610
   64MOL0     C 8706   7.029   7.982   7.594 -0.6382  0.5176 -0.3432
   64MOL0     C 8707   7.015   8.128   7.575  0.2477 -1.3417 -0.1768
   64MOL0     C 8708   6.869   8.170   7.618  0.1512  0.0660  0.6729
   64MOL0     C 8709   6.842   8.319   7.583  0.1139 -0.1271 -0.5008
   64MOL0     C 8710   6.946   8.413   7.644 -0.8508 -0.1146 -0.8867
   64MOL0     N 8711   6.907   8.556   7.675 -0.3962 -0.1124 -0.1713
   64MOL0     C 8712   6.843   8.591   7.789 -0.0441 -0.5383  0.5091
   64MOL0     C 8713   6.821   8.721   7.767 -0.2163  0.1197 -0.2200
   64MOL0     C 8714   6.767   8.815   7.873 -0.0253  0.6086  0.3199
   64MOL0     C 8715   6.860   8.828   7.991 -0.2360 -0.7309 -1.3302
   64MOL0     C 8716   6.809   8.928   8.096  0.9005  0.4322  0.1139
   64MOL0     C 8717   6.913   8.985   8.191 -0.3002  0.2100  0.4986
   64MOL0     O 8718   7.014   9.057   8.120  0.3600 -0.8941 -0.3450
   64MOL0     C 8719   7.115   9.113   8.195 -0.6727 -0.3352  0.5798
   64MOL0     C 8720   7.217   9.172   8.120  0.3931  1.0420  0.0817
   64MOL0     C 8721   7.321   9.232   8.181 -1.1852 -0.6564 -0.5533
   64MOL0     C 8722   7.432   9.287   8.097  0.6178  0.1636 -0.1560
   64MOL0     C 8723   7.329   9.234   8.324 -0.0813 -0.4235  0.2474
   64MOL0     C 8724   7.434   9.306   8.401 -0.8516  0.2220 -0.0919
   64MOL0     O 8725   7.461   9.248   8.520  0.3121 -0.4849  0.1324
   64MOL0     C 8726   7.577   9.299   8.582 -0.9478  0.1832 -0.0052
   64MOL0     C 8727   7.565   9.378   8.698  0.1821  1.2527 -0.9734
   64MOL0     C 8728   7.678   9.412   8.770 -0.8780 -0.0910 -0.8343
   64MOL0     C 8729   7.806   9.369   8.725 -0.2550  0.0585  0.5318
   64MOL0     O 8730   7.928   9.411   8.770 -0.3303 -0.0524  0.7841
   64MOL0     C 8731   7.924   9.545   8.824 -0.2606  0.1481  1.1714
   64MOL0     C 8732   8.064   9.587   8.818  0.4525 -0.3673 -0.7753
   64MOL0     C 8733   8.066   9.730   8.856  0.2712  0.3790  0.3060
   64MOL0     C 8734   8.197   9.789   8.858  0.8144  0.6336  0.1855
   64MOL0     C 8735   8.199   9.938   8.913 -0.1917 -0.4475 -0.2443
   64MOL0     C 8736   8.165  10.041   8.800 -0.0865  0.2382 -0.3763
   64MOL0     C 8737   8.284  10.039   8.696  1.1989 -0.0969 -0.1065
   64MOL0     C 8738   8.314  10.165   8.616 -1.2086  0.0526 -1.2828
   64MOL0    Cl 8739   8.155  10.204   8.545  0.2315  0.1236 -0.3415
   64MOL0     C 8740   7.817   9.280   8.612 -0.3093  0.1678  0.1361
   64MOL0     C 8741   7.699   9.257   8.532  0.3834 -0.0970 -0.5099
   64MOL0     O 8742   7.494   9.404   8.357  0.2008  0.5450  0.2832
   64MOL0     C 8743   7.223   9.181   8.387 -0.6365  0.8619 -0.3783
   64MOL0     C 8744   7.116   9.126   8.330  0.3542  0.4188 -0.3720
   64MOL0     N 8745   6.863   8.758   7.646  0.3969  0.5254  0.6510
   64MOL0     N 8746   6.919   8.656   7.589  0.5533  0.1167 -0.4572
   64MOL0     C 8747   7.579   7.907   7.600 -0.1586 -0.0543 -1.0300
   64MOL0     C 8748   7.714   7.943   7.618 -0.2881  0.1290  0.2503
   64MOL0     C 8749   8.115   8.056   7.829  0.5809  0.5064 -0.5303
   64MOL0     C 8750   8.150   8.105   7.706 -0.0986  0.5162  0.2906
   64MOL0     C 8751   8.274   8.180   7.694 -0.7740 -0.1715  0.4276
   64MOL0     C 8752   8.361   8.177   7.804 -1.0438  0.2051  1.0993
   64MOL0     O 8753   8.482   8.237   7.800 -0.4518 -0.0631  0.0275
   64MOL0     C 8754   8.477   8.382   7.773  1.2576  0.9462 -0.1155
   64MOL0     C 8755   8.604   8.453   7.797 -0.0241  1.2280  0.0595
   64MOL0     C 8756   8.600   8.606   7.780 -0.6508 -0.3767 -0.4911
   64MOL0     C 8757   8.729   8.687   7.808 -0.5914 -0.3247  0.1755
   64MOL0     C 8758   8.803   8.655   7.937 -0.0654 -0.1736  0.7591
   64MOL0     C 8759   8.867   8.633   8.035 -0.7062 -0.0370 -0.4640
   64MOL0     C 8760   8.322   8.116   7.935  0.4290 -0.7520  1.0199
   64MOL0     C 8761   8.195   8.057   7.939 -0.4682 -0.4459  0.3321
   64MOL0     C 8762   8.158   7.995   8.071 -0.2754 -0.5007  0.1083
   64MOL0     H 8763   7.763   7.845   7.941 -0.2534 -1.1877  0.0637
   64MOL0     H 8764   7.551   7.810   7.938  0.4406  0.7933 -0.6627
   64MOL0     H 8765   7.344   7.649   7.622  1.5208  0.3390  0.2754
   64MOL0     H 8766   7.386   7.790   7.521 -0.9347 -0.9426 -0.8400
   64MOL0     H 8767   7.135   7.725   7.509  1.0349 -0.2360 -1.0664
   64MOL0     H 8768   7.126   7.742   7.680 -2.4008  1.8715 -0.0839
   64MOL0     H 8769   7.225   7.988   7.657 -0.0558 -1.1482  0.3055
   64MOL0     H 8770   7.214   7.973   7.485  0.9706  0.5730  0.0880
   64MOL0     H 8771   6.975   7.927   7.516  0.9518 -1.6019 -0.0667
   64MOL0     H 8772   6.982   7.942   7.685  0.8199 -0.1566  0.1521
   64MOL0     H 8773   7.033   8.152   7.469  0.1134 -1.4755 -0.2300
   64MOL0     H 8774   7.089   8.191   7.626 -0.9361 -1.2024  1.4135
   64MOL0     H 8775   6.793   8.113   7.563  1.4720 -0.8118 -0.3036
   64MOL0     H 8776   6.847   8.167   7.725 -0.0663  0.8226  0.6564
   64MOL0     H 8777   6.739   8.335   7.615  0.2239  0.5730 -0.4856
   64MOL0     H 8778   6.846   8.330   7.474  4.9525 -1.9928 -0.7831
   64MOL0     H 8779   6.969   8.378   7.746 -1.0392 -0.8028 -1.0710
   64MOL0     H 8780   7.036   8.415   7.581  2.1524  0.6444  2.9829
   64MOL0     H 8781   6.797   8.533   7.868 -0.5512 -0.9377 -0.0751
   64MOL0     H 8782   6.674   8.761   7.894  1.1048 -1.5594  0.0117
   64MOL0     H 8783   6.742   8.915   7.838 -3.1121  0.0449  0.5955
   64MOL0     H 8784   6.870   8.728   8.033  1.2991 -0.0006  0.2075
   64MOL0     H 8785   6.964   8.852   7.971  1.1540 -3.1577  2.0890
   64MOL0     H 8786   6.748   9.000   8.041 -1.5061 -0.0186  2.0617
   64MOL0     H 8787   6.729   8.883   8.155 -0.7959  4.1792  0.9813
   64MOL0     H 8788   6.863   9.059   8.254 -1.5294 -0.0783 -0.1050
   64MOL0     H 8789   6.955   8.900   8.245  0.0965 -2.6555 -3.8302
   64MOL0     H 8790   7.212   9.157   8.013  3.2575 -0.2716  0.0428
   64MOL0     H 8791   7.411   9.258   7.993  2.5940  1.3500 -0.9336
   64MOL0     H 8792   7.531   9.264   8.137 -0.0453  0.6627  1.9014
   64MOL0     H 8793   7.428   9.395   8.112  1.1113  0.1188  0.3483
   64MOL0     H 8794   7.463   9.396   8.731  0.0719 -3.3877  2.2148
   64MOL0     H 8795   7.666   9.472   8.859 -0.3274 -2.1194  0.6759
   64MOL0     H 8796   7.864   9.605   8.755 -3.2222 -3.7200  0.0087
   64MOL0     H 8797   7.889   9.546   8.928  1.1187  0.9024  1.6494
   64MOL0     H 8798   8.127   9.533   8.890 -0.0483 -0.8757 -0.7051
   64MOL0     H 8799   8.109   9.574   8.719  0.8600 -0.6188 -0.5603
   64MOL0     H 8800   8.017   9.751   8.952 -4.1790  2.8497 -2.1829
   64MOL0     H 8801   8.015   9.784   8.776  0.7220  0.6008  0.1672
   64MOL0     H 8802   8.252   9.779   8.764 -2.3993  2.9676 -2.1639
   64MOL0     H 8803   8.257   9.728   8.926 -1.1561 -0.1264  1.3076
   64MOL0     H 8804   8.136   9.935   9.003  0.9312 -3.0383  0.5644
   64MOL0     H 8805   8.297   9.967   8.951 -0.1032  0.4363 -1.1042
   64MOL0     H 8806   8.147  10.137   8.849  0.7068 -0.2371  0.9152
   64MOL0     H 8807   8.066  10.005   8.770 -0.6860  3.8080 -3.3842
   64MOL0     H 8808   8.248   9.964   8.625 -2.1443 -0.5318  1.8251
   64MOL0     H 8809   8.372   9.991   8.739  0.4446 -2.1421 -0.7408
   64MOL0     H 8810   8.390  10.152   8.538  0.9000 -0.7767  0.8098
   64MOL0     H 8811   8.340  10.239   8.692 -2.7307 -0.0112 -0.6603
   64MOL0     H 8812   7.913   9.240   8.580 -0.5181 -0.3458  0.1563
   64MOL0     H 8813   7.708   9.193   8.445  2.7724  0.1008 -0.4769
   64MOL0     H 8814   7.216   9.190   8.495  0.4595 -0.7547 -0.1469
   64MOL0     H 8815   7.036   9.085   8.389 -1.3603  0.0907 -2.7821
   64MOL0     H 8816   7.519   7.932   7.513  0.1139  2.4681 -0.5648
   64MOL0     H 8817   7.758   7.974   7.524 -0.9113  0.8837  0.1979
   64MOL0     H 8818   8.076   8.123   7.629  2.9287  2.3546 -2.4350
   64MOL0     H 8819   8.302   8.237   7.606 -1.9002 -2.7917 -1.7670
   64MOL0     H 8820   8.457   8.409   7.669  0.9781 -0.0489 -0.3313
   64MOL0     H 8821   8.393   8.418   7.832  0.0221  0.1579 -1.3077
   64MOL0     H 8822   8.682   8.412   7.732  0.9748  2.2120  0.6137
   64MOL0     H 8823   8.634   8.429   7.899  1.6502  2.3337 -0.1407
   64MOL0     H 8824   8.565   8.636   7.681  1.4094 -2.0730 -1.8348
   64MOL0     H 8825   8.526   8.646   7.849  0.8442 -1.1716  1.7005
   64MOL0     H 8826   8.704   8.793   7.813 -0.0264  0.1767 -3.9338
   64MOL0     H 8827   8.800   8.683   7.725 -2.6648 -0.9831 -1.6749
   64MOL0     H 8828   8.903   8.624   8.136 -2.7081  2.7490  0.6215
   64MOL0     H 8829   8.386   8.113   8.023 -0.4522  3.8878  2.0689
   64MOL0     H 8830   8.142   8.075   8.144 -0.4777 -0.0008 -0.4677
   64MOL0     H 8831   8.063   7.941   8.073  0.3863 -1.8800 -1.8154
   64MOL0     H 8832   8.234   7.919   8.090 -2.3301 -2.5889  0.4926
   65MOL0     O 8833   1.235   1.922   1.902  0.5232  0.3921  0.1843
   65MOL0     C 8834   1.242   1.816   1.965 -0.2207  0.0522  0.3800
   65MOL0     O 8835   1.322   1.711   1.931 -0.6554 -0.6078 -0.3116
   65MOL0     C 8836   1.429   1.743   1.843 -0.5443 -0.1858 -0.9240
   65MOL0     C 8837   1.430   1.716   1.707 -0.4002 -0.4219 -0.3778
   65MOL0     C 8838   1.543   1.732   1.624 -0.3626 -0.3722  0.4854
   65MOL0     C 8839   1.654   1.797   1.674  0.8799  0.3611  0.3369
   65MOL0     O 8840   1.763   1.813   1.598 -0.2345  0.0614  0.0921
   65MOL0     C 8841   1.812   1.947   1.580 -0.5097 -0.2165  0.4007
   65MOL0     C 8842   1.850   1.967   1.434 -0.7868 -0.4088  0.0246
   65MOL0     C 8843   1.727   1.967   1.345  0.2022  0.5864  1.0224
   65MOL0     C 8844   1.769   1.931   1.200 -0.2989  0.8676 -0.3935
   65MOL0     C 8845   1.765   1.783   1.153 -0.6310  0.3206 -0.6679
   65MOL0     C 8846   1.743   1.772   1.000 -0.7977  0.0227  1.0452
   65MOL0     C 8847   1.810   1.634   0.965 -0.5317  0.1933  0.4118
   65MOL0     C 8848   1.750   1.518   1.045 -0.4711 -0.9057  0.0716
   65MOL0     N 8849   1.776   1.379   0.988  0.4641 -0.2196 -1.1563
   65MOL0     C 8850   1.868   1.299   1.037 -0.0313  0.5465  0.2630
   65MOL0     C 8851   1.860   1.185   0.961 -0.6889 -1.5450 -0.1183
   65MOL0     C 8852   1.937   1.055   0.984 -0.3285  0.3610  0.0647
   65MOL0     C 8853   2.036   1.042   0.879 -0.2419  0.2573  0.1737
   65MOL0     C 8854   2.133   0.921   0.888 -0.0433 -1.0800  0.5294
   65MOL0     C 8855   2.275   0.957   0.906 -0.6609 -0.4852 -0.6621
   65MOL0     O 8856   2.301   1.046   1.019  1.3074  0.8483  0.2332
   65MOL0     C 8857   2.420   1.021   1.078 -0.1393  0.5380 -0.1194
   65MOL0     C 8858   2.539   1.083   1.049  0.5644 -1.1393  0.3888
   65MOL0     C 8859   2.663   1.048   1.103  0.2398  0.1087  0.0181
   65MOL0     C 8860   2.781   1.117   1.042 -0.4100 -0.3147  0.1593
   65MOL0     C 8861   2.676   0.948   1.201 -0.7241 -0.2199  0.5730
   65MOL0     C 8862   2.804   0.910   1.259  0.1268  0.4168 -0.5508
   65MOL0     O 8863   2.821   0.776   1.300 -0.0656 -0.0127  0.9819
   65MOL0     C 8864   2.943   0.736   1.279 -0.4602  1.4322  0.3892
   65MOL0     C 8865   3.045   0.759   1.378 -0.0082 -0.0609 -0.4966
   65MOL0     C 8866   3.165   0.692   1.377 -0.0223  0.2887 -0.3466
   65MOL0     C 8867   3.192   0.597   1.278  0.7917 -0.1226  0.6526
   65MOL0     O 8868   3.310   0.532   1.276 -0.8730  0.0141  0.7412
   65MOL0     C 8869   3.288   0.427   1.375 -0.0506 -0.1290  0.8703
   65MOL0     C 8870   3.413   0.359   1.430 -0.1419  0.2933  0.0391
   65MOL0     C 8871   3.525   0.328   1.331 -0.1242 -0.0328  0.1228
   65MOL0     C 8872   3.498   0.254   1.205  1.5035 -0.1270 -0.1927
   65MOL0     C 8873   3.608   0.192   1.124  0.0197  0.2240  0.0458
   65MOL0     C 8874   3.564   0.141   0.990 -0.0939  0.4560 -0.3446
   65MOL0     C 8875   3.689   0.080   0.918 -0.1178  0.2517 -0.3237
   65MOL0     C 8876   3.649   0.051   0.774 -0.2324  0.5296  0.2878
   65MOL0    Cl 8877   3.793  -0.020   0.696  0.2231 -0.1033  0.5440
   65MOL0     C 8878   3.094   0.571   1.176 -0.7882  0.2731 -0.4756
   65MOL0     C 8879   2.973   0.645   1.175  0.3099  0.4043 -0.7719
   65MOL0     O 8880   2.895   0.991   1.264 -0.8160  0.2578  0.3353
   65MOL0     C 8881   2.556   0.880   1.226  0.5106  0.0808 -0.4624
   65MOL0     C 8882   2.437   0.920   1.169  0.0138  0.5610  0.8777
   65MOL0     N 8883   1.755   1.196   0.869  0.7485  1.4939 -0.1774
   65MOL0     N 8884   1.711   1.314   0.886  0.8843 -0.1800  0.1919
   65MOL0     C 8885   1.654   1.836   1.812 -0.5116 -0.1581  0.8149
   65MOL0     C 8886   1.543   1.806   1.894  0.0142  0.1054 -0.1615
   65MOL0     C 8887   1.213   1.815   2.115 -0.2923  0.4005  0.0508
   65MOL0     C 8888   1.213   1.939   2.181  0.0739  0.2247 -0.6289
   65MOL0     C 8889   1.196   1.942   2.319 -0.1331 -0.1021  0.3285
   65MOL0     C 8890   1.174   1.830   2.400  0.0134 -1.0205  0.0039
   65MOL0     O 8891   1.135   1.833   2.535  0.1885  0.0862 -0.4899
   65MOL0     C 8892   1.138   1.962   2.610  0.9871  0.3932  0.4797
   65MOL0     C 8893   1.054   1.946   2.746  0.4094 -0.7455 -0.0755
   65MOL0     C 8894   1.106   2.043   2.847 -0.1479  0.0119  0.0865
   65MOL0     C 8895   0.989   2.082   2.936 -0.4588  0.1802 -0.5996
   65MOL0     C 8896   1.033   2.174   3.046  0.2069  0.3319  1.2508
   65MOL0     C 8897   1.081   2.250   3.127 -0.0458 -0.6183  1.0317
   65MOL0     C 8898   1.159   1.705   2.336  0.0087 -0.6333 -0.5026
   65MOL0     C 8899   1.188   1.695   2.196  0.4171  0.0067  1.1706
   65MOL0     C 8900   1.176   1.555   2.138 -0.8214  0.1355  0.2273
   65MOL0     H 8901   1.340   1.672   1.665 -0.8165  0.2917 -0.2463
   65MOL0     H 8902   1.542   1.693   1.522 -1.3628  0.7296  0.0511
   65MOL0     H 8903   1.901   1.975   1.638 -1.6214  0.2548  1.9425
   65MOL0     H 8904   1.744   2.029   1.603  0.3188  0.2204  1.4133
   65MOL0     H 8905   1.906   2.060   1.416  0.0743 -0.3043  2.7318
   65MOL0     H 8906   1.920   1.888   1.405  0.3345  1.0536 -1.4702
   65MOL0     H 8907   1.656   1.893   1.384  1.3866 -1.4043 -0.4110
   65MOL0     H 8908   1.686   2.067   1.329 -1.8451 -0.2224  1.0480
   65MOL0     H 8909   1.704   1.978   1.125 -0.9277 -0.8432 -0.9627
   65MOL0     H 8910   1.870   1.973   1.190 -1.5987  4.2296 -0.5977
   65MOL0     H 8911   1.694   1.721   1.208  2.2195 -1.8068  0.9315
   65MOL0     H 8912   1.861   1.748   1.193  0.7964  1.0413 -3.2132
   65MOL0     H 8913   1.637   1.761   0.976 -0.1496 -0.8888 -1.7321
   65MOL0     H 8914   1.788   1.855   0.945  0.4012 -2.0523 -1.3372
   65MOL0     H 8915   1.916   1.652   0.988  0.5592  2.8672 -5.0524
   65MOL0     H 8916   1.807   1.624   0.856  1.0991  0.5595  0.2977
   65MOL0     H 8917   1.798   1.530   1.143 -1.1743 -2.0841  0.5924
   65MOL0     H 8918   1.644   1.543   1.054  0.0024  0.7745  1.4459
   65MOL0     H 8919   1.933   1.320   1.121  0.3339 -1.4093  0.5142
   65MOL0     H 8920   1.869   0.970   0.980  0.9261 -1.0536  3.9012
   65MOL0     H 8921   1.984   1.058   1.083  2.2289 -2.2516 -0.9164
   65MOL0     H 8922   1.985   1.039   0.783 -2.3362  1.7648  1.1702
   65MOL0     H 8923   2.100   1.130   0.874 -1.8555  1.4059 -1.6057
   65MOL0     H 8924   2.100   0.847   0.962 -3.7520  0.5800  0.7691
   65MOL0     H 8925   2.132   0.870   0.791 -0.1907  1.3716 -0.8303
   65MOL0     H 8926   2.335   0.865   0.900 -2.3035 -1.6589  0.1422
   65MOL0     H 8927   2.319   1.015   0.825  0.9617  0.9174  1.1262
   65MOL0     H 8928   2.547   1.170   0.985  1.8827 -0.1073  1.8776
   65MOL0     H 8929   2.813   1.203   1.101  1.6497 -0.3536 -0.8112
   65MOL0     H 8930   2.762   1.155   0.942 -3.3107 -1.2951  0.2484
   65MOL0     H 8931   2.864   1.047   1.026 -0.7501 -0.1129 -3.1373
   65MOL0     H 8932   3.010   0.808   1.469 -0.8940  1.4236 -1.5835
   65MOL0     H 8933   3.236   0.727   1.452 -1.9129  1.1888  1.1085
   65MOL0     H 8934   3.235   0.469   1.461 -0.2673 -0.2562  0.8004
   65MOL0     H 8935   3.230   0.345   1.332  1.6143 -0.5110 -0.7835
   65MOL0     H 8936   3.450   0.423   1.511  0.3293 -0.6446  0.5867
   65MOL0     H 8937   3.379   0.265   1.475 -0.2904 -0.6019 -1.8635
   65MOL0     H 8938   3.603   0.261   1.368  0.9554  0.1338 -1.7414
   65MOL0     H 8939   3.583   0.420   1.327  3.6851 -2.1533  1.1920
   65MOL0     H 8940   3.437   0.309   1.133  0.2678 -1.0402  0.1145
   65MOL0     H 8941   3.431   0.171   1.228 -1.0952  2.6155  3.1459
   65MOL0     H 8942   3.690   0.257   1.094 -0.5436  0.2091 -1.5747
   65MOL0     H 8943   3.660   0.115   1.184 -1.3870 -0.8326 -0.0385
   65MOL0     H 8944   3.524   0.226   0.934  0.9412  2.2734  1.5485
   65MOL0     H 8945   3.490   0.063   1.012  0.5603 -1.0058 -2.8876
   65MOL0     H 8946   3.726  -0.009   0.970 -1.0668 -0.4043 -0.7221
   65MOL0     H 8947   3.767   0.156   0.927  0.2665 -0.3339  1.9326
   65MOL0     H 8948   3.623   0.143   0.722 -1.3204  0.2494  0.3135
   65MOL0     H 8949   3.562  -0.015   0.778  0.8949 -1.0955 -0.4790
   65MOL0     H 8950   3.129   0.498   1.104  1.8477 -1.5556  2.4237
   65MOL0     H 8951   2.901   0.604   1.105  0.5016 -0.9861 -0.1974
   65MOL0     H 8952   2.554   0.789   1.286  0.6258 -0.1032 -0.7376
   65MOL0     H 8953   2.350   0.858   1.187 -1.0139  2.4733  2.9222
   65MOL0     H 8954   1.743   1.887   1.848 -0.0064 -1.2037  1.0843
   65MOL0     H 8955   1.548   1.839   1.997  0.0317  0.6529 -0.3376
   65MOL0     H 8956   1.230   2.025   2.118  1.6954  1.5901  1.5241
   65MOL0     H 8957   1.202   2.042   2.362  3.7701 -0.1726  0.2913
   65MOL0     H 8958   1.240   1.987   2.641  1.4456  0.0251 -0.7049
   65MOL0     H 8959   1.090   2.035   2.544 -1.4778 -1.2421  0.3272
   65MOL0     H 8960   1.049   1.840   2.773 -2.5787 -1.3874 -2.5417
   65MOL0     H 8961   0.955   1.977   2.709  1.5326  3.2175 -0.1768
   65MOL0     H 8962   1.185   1.996   2.905 -1.2905 -1.8338  0.2121
   65MOL0     H 8963   1.153   2.126   2.792 -2.4031  0.3434 -1.4896
   65MOL0     H 8964   0.943   1.994   2.983  1.0850  0.1535  0.9943
   65MOL0     H 8965   0.919   2.143   2.879 -0.4046  1.1836  0.3679
   65MOL0     H 8966   1.121   2.308   3.207  3.1671 -0.9518 -0.1957
   65MOL0     H 8967   1.128   1.627   2.405  1.3060 -1.4736 -0.8312
   65MOL0     H 8968   1.277   1.527   2.106 -0.5422  0.9350  0.3816
   65MOL0     H 8969   1.141   1.482   2.211 -2.2441  0.8111  0.2453
   65MOL0     H 8970   1.112   1.556   2.049 -0.0829  0.4213 -0.3127
   66MOL0     O 8971   4.697   8.090   4.910 -0.0650  0.0075 -1.0583
   66MOL0     C 8972   4.631   8.101   5.015  0.5187 -0.4439  1.1184
   66MOL0     O 8973   4.564   8.216   5.056 -0.1544  0.4517 -0.5259
   66MOL0     C 8974   4.579   8.333   4.998 -0.5445  0.5487  0.6107
   66MOL0     C 8975   4.486   8.430   5.029  0.5543  0.1867  0.6902
   66MOL0     C 8976   4.487   8.552   4.980 -0.1436  0.6372  0.3329
   66MOL0     C 8977   4.593   8.600   4.898 -0.6106 -0.0189 -0.3770
   66MOL0     O 8978   4.605   8.733   4.875  1.0166  0.5207  0.6217
   66MOL0     C 8979   4.587   8.813   4.993 -0.2216  0.1304  0.5402
   66MOL0     C 8980   4.708   8.800   5.079 -0.7406 -0.1305 -0.2112
   66MOL0     C 8981   4.728   8.913   5.176  0.4387 -0.8737 -0.6066
   66MOL0     C 8982   4.649   8.903   5.304  0.5913  1.1522 -0.1536
   66MOL0     C 8983   4.638   9.021   5.386 -0.4097 -1.6636  0.0123
   66MOL0     C 8984   4.586   8.996   5.521 -0.4732 -0.0526 -0.6846
   66MOL0     C 8985   4.564   9.130   5.594 -0.4524 -0.1301 -0.0287
   66MOL0     C 8986   4.559   9.099   5.744 -1.0832 -0.3550  0.4345
   66MOL0     N 8987   4.524   9.223   5.808 -0.0272 -0.3902  0.4854
   66MOL0     C 8988   4.433   9.244   5.915  0.1935  0.4133 -0.4129
   66MOL0     C 8989   4.454   9.370   5.956 -0.0171 -0.3857 -0.4406
   66MOL0     C 8990   4.359   9.441   6.052  0.3025  0.2999  0.0438
   66MOL0     C 8991   4.430   9.500   6.182 -0.1687  0.5237  0.6994
   66MOL0     C 8992   4.448   9.649   6.160  0.0634 -0.5811  0.7447
   66MOL0     C 8993   4.551   9.696   6.258 -0.2009 -0.3284  0.6560
   66MOL0     O 8994   4.493   9.701   6.384  0.2489 -0.1312 -0.3813
   66MOL0     C 8995   4.511   9.800   6.474 -0.4627  0.0139  0.1264
   66MOL0     C 8996   4.615   9.893   6.454 -0.9162 -0.2610  0.1174
   66MOL0     C 8997   4.662   9.984   6.548 -0.8060 -0.5074 -0.2594
   66MOL0     C 8998   4.793  10.051   6.520  0.2335 -0.1154 -1.0895
   66MOL0     C 8999   4.598   9.991   6.677 -0.3453 -0.0821  0.2224
   66MOL0     C 9000   4.644  10.073   6.791 -0.3273  0.1982 -0.6833
   66MOL0     O 9001   4.753  10.156   6.785  0.3598 -0.4872  0.5118
   66MOL0     C 9002   4.777  10.230   6.902 -0.2686  0.9053  0.2834
   66MOL0     C 9003   4.901  10.207   6.974  0.4526  0.0918 -0.1452
   66MOL0     C 9004   4.929  10.264   7.092  0.1201  1.2279  0.4089
   66MOL0     C 9005   4.830  10.356   7.141  0.1542  0.0795 -0.2498
   66MOL0     O 9006   4.859  10.423   7.260 -0.8019  0.1186  0.4163
   66MOL0     C 9007   4.865  10.563   7.239  0.5600  0.5023 -0.3586
   66MOL0     C 9008   4.977  10.608   7.326 -0.0570 -0.1557  0.5173
   66MOL0     C 9009   5.023  10.754   7.301  0.3163  0.5187 -1.0363
   66MOL0     C 9010   5.084  10.787   7.155  0.3038  0.4182  0.5654
   66MOL0     C 9011   5.181  10.904   7.161  0.2659  0.3672  0.6027
   66MOL0     C 9012   5.126  11.044   7.196  0.2379 -0.0672 -0.0256
   66MOL0     C 9013   5.222  11.147   7.133  0.1033  0.2398 -0.4277
   66MOL0     C 9014   5.209  11.295   7.173 -0.1294  0.1287  0.2711
   66MOL0    Cl 9015   5.356  11.349   7.263  0.3997  0.6384  0.4845
   66MOL0     C 9016   4.722  10.385   7.071  0.8554 -0.3531  0.4531
   66MOL0     C 9017   4.685  10.324   6.952  0.6807  0.3223  0.8765
   66MOL0     O 9018   4.580  10.055   6.891 -0.0689  0.8000 -0.8264
   66MOL0     C 9019   4.487   9.907   6.691  0.6325  0.0095  0.4019
   66MOL0     C 9020   4.434   9.817   6.592 -0.2897 -1.0548  0.0734
   66MOL0     N 9021   4.553   9.425   5.884 -0.7231  0.4450 -0.2218
   66MOL0     N 9022   4.593   9.340   5.790 -0.5849  0.3099  0.7299
   66MOL0     C 9023   4.703   8.508   4.882  0.1737 -0.2591 -0.5817
   66MOL0     C 9024   4.696   8.373   4.927  0.4622 -0.2514 -0.5562
   66MOL0     C 9025   4.620   7.980   5.097  0.4961 -0.0347 -0.9298
   66MOL0     C 9026   4.723   7.885   5.073 -0.8683  0.0424 -0.1196
   66MOL0     C 9027   4.724   7.759   5.129 -0.4851  0.3309 -0.4793
   66MOL0     C 9028   4.615   7.716   5.206 -0.5197  0.5460  1.4254
   66MOL0     O 9029   4.625   7.586   5.255 -0.3106  0.0167 -0.1804
   66MOL0     C 9030   4.509   7.522   5.296 -1.0811  0.5509 -0.0770
   66MOL0     C 9031   4.403   7.495   5.188 -0.0097 -0.7606  0.1516
   66MOL0     C 9032   4.335   7.361   5.225 -0.7211  0.0670  0.6458
   66MOL0     C 9033   4.197   7.335   5.174  0.5024 -0.1233  1.0041
   66MOL0     C 9034   4.189   7.346   5.029  0.4893  0.1761 -0.4551
   66MOL0     C 9035   4.171   7.365   4.910  0.1174  0.7401  0.2178
   66MOL0     C 9036   4.514   7.810   5.245 -0.5694  0.3657  0.4430
   66MOL0     C 9037   4.514   7.942   5.191  0.0719 -0.1418 -0.0700
   66MOL0     C 9038   4.399   8.041   5.228 -0.1211 -0.2524  1.0503
   66MOL0     H 9039   4.397   8.400   5.084 -0.6972  0.2804 -1.1763
   66MOL0     H 9040   4.415   8.631   5.002 -1.5801 -0.7527  0.8381
   66MOL0     H 9041   4.497   8.794   5.053 -0.2833 -2.1236 -0.1448
   66MOL0     H 9042   4.583   8.918   4.963  0.3428  0.5786  1.9510
   66MOL0     H 9043   4.718   8.700   5.123 -2.3807 -1.5884 -2.8424
   66MOL0     H 9044   4.793   8.794   5.010 -0.1334 -3.2808  0.6550
   66MOL0     H 9045   4.833   8.941   5.187  0.2395  0.3245 -1.4639
   66MOL0     H 9046   4.692   9.006   5.131 -3.5951 -1.6687  0.5811
   66MOL0     H 9047   4.548   8.874   5.274 -0.5346  3.0412  1.5797
   66MOL0     H 9048   4.691   8.826   5.371 -1.3177  1.8620  1.9874
   66MOL0     H 9049   4.580   9.095   5.330  0.2885 -1.8573 -0.9901
   66MOL0     H 9050   4.735   9.070   5.399 -2.2536  2.0374  1.5376
   66MOL0     H 9051   4.486   8.952   5.518 -0.8048  0.6472  0.0669
   66MOL0     H 9052   4.650   8.929   5.579 -0.1641  3.1231  2.9954
   66MOL0     H 9053   4.472   9.183   5.568 -0.1631  0.9964  1.1206
   66MOL0     H 9054   4.651   9.195   5.580  0.5409 -0.8219  2.3595
   66MOL0     H 9055   4.487   9.022   5.773  0.6154 -1.1044  3.0199
   66MOL0     H 9056   4.660   9.074   5.777 -0.3483  0.5367 -1.0155
   66MOL0     H 9057   4.368   9.181   5.975  2.5141 -0.7436  1.0793
   66MOL0     H 9058   4.282   9.371   6.086  1.1637  0.0661  1.5655
   66MOL0     H 9059   4.301   9.519   6.002 -0.2876  0.7813  1.4561
   66MOL0     H 9060   4.364   9.491   6.268 -1.1176 -1.0972 -0.1391
   66MOL0     H 9061   4.527   9.450   6.183  0.5094  1.7538 -0.3376
   66MOL0     H 9062   4.482   9.676   6.059  1.9633  0.1137  1.5203
   66MOL0     H 9063   4.347   9.679   6.190 -0.6459 -3.5940  1.7481
   66MOL0     H 9064   4.653   9.658   6.249  0.6005  1.8914 -0.4886
   66MOL0     H 9065   4.563   9.799   6.221  0.2096 -1.4325 -2.6341
   66MOL0     H 9066   4.671   9.880   6.362 -2.5961  0.4066 -1.0600
   66MOL0     H 9067   4.835  10.042   6.419  2.0972 -3.0766 -0.1919
   66MOL0     H 9068   4.871  10.024   6.592 -0.0280 -1.3771 -1.2610
   66MOL0     H 9069   4.776  10.159   6.520  2.7190  0.4553  2.6373
   66MOL0     H 9070   4.959  10.128   6.928  3.2527  1.2631  1.1464
   66MOL0     H 9071   5.017  10.229   7.145 -2.1499 -3.0247  1.8728
   66MOL0     H 9072   4.897  10.601   7.141  4.4087 -1.2679  0.0181
   66MOL0     H 9073   4.772  10.607   7.275  0.7366 -0.0070  0.7577
   66MOL0     H 9074   4.952  10.601   7.432 -0.1034  1.0310  0.6025
   66MOL0     H 9075   5.064  10.546   7.300  0.6913  1.2751 -0.5540
   66MOL0     H 9076   5.105  10.770   7.372  0.2857  2.1237 -1.3157
   66MOL0     H 9077   4.934  10.810   7.331  1.2880  0.2594  2.8966
   66MOL0     H 9078   5.006  10.816   7.085 -0.2141 -0.4008  0.7812
   66MOL0     H 9079   5.128  10.697   7.110  1.4908  1.3054 -0.1052
   66MOL0     H 9080   5.265  10.888   7.230  1.4721  2.8533 -0.1533
   66MOL0     H 9081   5.227  10.906   7.061 -2.8255 -3.2116 -1.1100
   66MOL0     H 9082   5.134  11.047   7.305  3.5216 -2.4938 -0.0739
   66MOL0     H 9083   5.020  11.055   7.168 -0.4860 -1.5944  1.8851
   66MOL0     H 9084   5.204  11.145   7.026  0.5014 -0.8920 -0.4848
   66MOL0     H 9085   5.328  11.121   7.125  0.3374  0.2728  1.7985
   66MOL0     H 9086   5.116  11.306   7.229 -0.0226  1.3665  0.2291
   66MOL0     H 9087   5.205  11.346   7.076  1.5820  0.3766  0.2891
   66MOL0     H 9088   4.642  10.442   7.118  0.7704 -1.0167  1.1363
   66MOL0     H 9089   4.603  10.347   6.885  0.3858  0.3597  1.2448
   66MOL0     H 9090   4.427   9.906   6.781  0.9586 -2.0187  0.6619
   66MOL0     H 9091   4.351   9.750   6.614  0.2907 -1.1614  2.1057
   66MOL0     H 9092   4.794   8.528   4.826 -0.7838 -1.2177 -2.5923
   66MOL0     H 9093   4.780   8.310   4.901  1.1951  0.6828 -0.5007
   66MOL0     H 9094   4.796   7.909   4.997 -0.4245 -0.6500  0.0762
   66MOL0     H 9095   4.799   7.687   5.098 -0.9956  0.2195 -1.5003
   66MOL0     H 9096   4.539   7.420   5.325  0.6606  0.5167 -1.8469
   66MOL0     H 9097   4.465   7.583   5.375  0.8658  3.1460 -0.8568
   66MOL0     H 9098   4.445   7.503   5.087 -0.7536  1.8441 -0.0333
   66MOL0     H 9099   4.337   7.582   5.197  0.6151 -0.0447 -1.6469
   66MOL0     H 9100   4.402   7.278   5.201  2.6213  3.1316 -1.7799
   66MOL0     H 9101   4.322   7.342   5.332 -1.6219 -0.7202  0.4062
   66MOL0     H 9102   4.133   7.415   5.210 -1.0613 -0.4831 -0.7685
   66MOL0     H 9103   4.145   7.243   5.203  1.0566 -2.0009 -3.1573
   66MOL0     H 9104   4.177   7.386   4.805  1.8996  0.4798  0.2391
   66MOL0     H 9105   4.438   7.782   5.318 -1.4555  1.5902  0.0379
   66MOL0     H 9106   4.415   8.128   5.293  1.0893 -1.8283  3.0032
   66MOL0     H 9107   4.366   8.083   5.133 -0.6231 -2.2191  0.3108
   66MOL0     H 9108   4.316   7.980   5.267  0.0203 -0.5762  0.8463
   67MOL0     O 9109   0.152   3.185   7.197  0.8786 -0.2047 -0.5112
   67MOL0     C 9110   0.269   3.218   7.212  0.2718 -0.7885  0.3603
   67MOL0     O 9111   0.323   3.253   7.327 -0.8886  0.1823 -0.0413
   67MOL0     C 9112   0.235   3.283   7.430 -0.6516  0.8266  0.4002
   67MOL0     C 9113   0.221   3.418   7.473 -0.1133  0.3898  0.7864
   67MOL0     C 9114   0.149   3.451   7.579  0.5864 -0.0536 -0.2220
   67MOL0     C 9115   0.076   3.360   7.649  0.6126 -0.0924  0.6654
   67MOL0     O 9116  -0.014   3.389   7.756 -0.3642 -0.0380 -0.1258
   67MOL0     C 9117  -0.080   3.518   7.759  0.4546 -0.5516  0.9432
   67MOL0     C 9118  -0.039   3.592   7.879 -0.8371 -0.0548 -0.8906
   67MOL0     C 9119  -0.109   3.727   7.911  1.0376 -0.6804 -0.8284
   67MOL0     C 9120  -0.137   3.809   7.788  0.4358 -0.2745 -0.1711
   67MOL0     C 9121  -0.034   3.867   7.705 -0.2531 -0.4361  0.7243
   67MOL0     C 9122   0.065   3.953   7.783 -1.2218 -0.9428 -0.2178
   67MOL0     C 9123   0.176   4.004   7.688  1.2349 -0.7318  0.2129
   67MOL0     C 9124   0.134   4.132   7.608  0.3767  0.0539 -0.0324
   67MOL0     N 9125   0.218   4.247   7.629 -0.6423 -0.0502 -0.4913
   67MOL0     C 9126   0.224   4.312   7.748 -0.3140  0.8532 -0.7237
   67MOL0     C 9127   0.295   4.425   7.724  0.1773  0.1001  0.1468
   67MOL0     C 9128   0.321   4.533   7.823  0.2911  0.7155  0.2355
   67MOL0     C 9129   0.253   4.663   7.789  0.8663 -0.5094 -0.5976
   67MOL0     C 9130   0.212   4.746   7.913  0.2222 -0.1138 -0.3482
   67MOL0     C 9131   0.137   4.866   7.879  0.2170  0.1314  0.0259
   67MOL0     O 9132   0.104   4.906   7.743  0.4222  0.1602 -0.4939
   67MOL0     C 9133   0.057   5.036   7.733  0.0537  0.0776  0.0021
   67MOL0     C 9134  -0.072   5.063   7.790 -0.5474 -0.5501  0.3861
   67MOL0     C 9135  -0.133   5.186   7.774 -1.0997 -0.3042 -0.2808
   67MOL0     C 9136  -0.277   5.192   7.805  0.2291  0.1236  0.5715
   67MOL0     C 9137  -0.055   5.288   7.704  0.3588  0.0246  1.1743
   67MOL0     C 9138  -0.105   5.429   7.661 -0.2871  0.5564  0.0041
   67MOL0     O 9139  -0.183   5.484   7.757 -0.4295  0.0445  0.1466
   67MOL0     C 9140  -0.248   5.598   7.715  0.5723  0.1592 -0.8856
   67MOL0     C 9141  -0.382   5.594   7.689  1.2733 -0.0839  0.9027
   67MOL0     C 9142  -0.446   5.719   7.654 -0.0546 -0.1334 -0.0121
   67MOL0     C 9143  -0.369   5.840   7.655  0.6196 -0.0937  0.2261
   67MOL0     O 9144  -0.427   5.962   7.639  0.0269  0.0793 -0.3049
   67MOL0     C 9145  -0.538   5.981   7.729  0.1615  0.2793 -0.3018
   67MOL0     C 9146  -0.520   6.119   7.794  0.4095  0.7189 -0.7795
   67MOL0     C 9147  -0.442   6.107   7.933 -0.4816 -0.0456 -0.0021
   67MOL0     C 9148  -0.371   6.241   7.975 -0.0217  0.7778  0.3999
   67MOL0     C 9149  -0.340   6.256   8.122  0.1278  0.4087  0.0686
   67MOL0     C 9150  -0.249   6.371   8.165 -0.8538  0.0802  0.2889
   67MOL0     C 9151  -0.301   6.503   8.126  0.4697 -0.0125  0.1467
   67MOL0     C 9152  -0.222   6.630   8.157  0.2789 -0.1269 -0.7388
   67MOL0    Cl 9153  -0.064   6.640   8.060  0.1653  0.2507 -0.2858
   67MOL0     C 9154  -0.231   5.834   7.695  0.1751  0.0592 -0.0050
   67MOL0     C 9155  -0.174   5.712   7.725 -0.0369 -0.3833  0.5181
   67MOL0     O 9156  -0.085   5.476   7.549  0.1974  0.7747  0.2337
   67MOL0     C 9157   0.085   5.260   7.661 -1.0091 -0.3270 -0.3129
   67MOL0     C 9158   0.138   5.136   7.680 -0.0705 -1.3448  0.3868
   67MOL0     N 9159   0.303   4.431   7.585  0.7439 -0.2046 -0.5820
   67MOL0     N 9160   0.268   4.324   7.526  0.3599  0.1201 -0.1570
   67MOL0     C 9161   0.078   3.225   7.613  0.6331  0.8141 -0.4800
   67MOL0     C 9162   0.164   3.188   7.507 -0.2805  0.5890  0.0403
   67MOL0     C 9163   0.336   3.258   7.085  0.2863 -0.6884  0.2118
   67MOL0     C 9164   0.429   3.374   7.084  0.0354  0.0711  1.0421
   67MOL0     C 9165   0.494   3.414   6.976 -0.5210 -0.1543  0.6868
   67MOL0     C 9166   0.468   3.357   6.847 -0.1954 -0.6748 -0.2218
   67MOL0     O 9167   0.530   3.395   6.730 -0.2397  0.3968 -0.3134
   67MOL0     C 9168   0.599   3.515   6.719 -0.3615 -0.4621 -0.4665
   67MOL0     C 9169   0.609   3.566   6.576 -0.1334 -0.5537 -0.2014
   67MOL0     C 9170   0.475   3.620   6.531  0.1252  0.3803  0.9508
   67MOL0     C 9171   0.466   3.612   6.380  0.1171  0.1447  0.1556
   67MOL0     C 9172   0.338   3.657   6.320 -0.0570 -0.4324 -0.4361
   67MOL0     C 9173   0.243   3.705   6.266  0.5661  0.1376 -0.0795
   67MOL0     C 9174   0.371   3.260   6.846  0.0130 -0.5316  0.2825
   67MOL0     C 9175   0.301   3.212   6.958  0.0625  0.8408  1.0003
   67MOL0     C 9176   0.216   3.084   6.934 -0.5064 -0.3752 -0.1137
   67MOL0     H 9177   0.260   3.511   7.434 -1.1077  1.3436  1.9696
   67MOL0     H 9178   0.149   3.557   7.600  0.5992  0.0555 -0.7478
   67MOL0     H 9179  -0.188   3.503   7.766  0.0221  0.6354 -1.6838
   67MOL0     H 9180  -0.056   3.577   7.670  0.0659 -1.4856  0.2122
   67MOL0     H 9181  -0.057   3.532   7.969 -0.5144 -1.5678 -1.8000
   67MOL0     H 9182   0.067   3.616   7.873 -1.2709  2.3311 -0.0260
   67MOL0     H 9183  -0.209   3.707   7.950  0.9586 -0.9311 -1.1507
   67MOL0     H 9184  -0.055   3.778   7.991 -0.0607 -0.0598 -0.4767
   67MOL0     H 9185  -0.196   3.746   7.721 -0.2823  1.0021 -0.7846
   67MOL0     H 9186  -0.195   3.900   7.807  1.9800  1.1577 -1.9010
   67MOL0     H 9187  -0.084   3.926   7.628 -0.9030  1.9391  2.8413
   67MOL0     H 9188   0.031   3.799   7.649  0.3372  2.6639 -2.7776
   67MOL0     H 9189   0.008   4.029   7.837 -0.0347 -0.5103  0.4764
   67MOL0     H 9190   0.118   3.895   7.860 -0.0126  0.4241  0.0328
   67MOL0     H 9191   0.210   3.936   7.609  0.8084  0.4860 -1.0686
   67MOL0     H 9192   0.263   4.018   7.752 -1.0385 -0.2989  3.4382
   67MOL0     H 9193   0.142   4.105   7.502  2.8443  4.6037 -1.3022
   67MOL0     H 9194   0.031   4.164   7.625  1.3004  1.3156  4.7558
   67MOL0     H 9195   0.179   4.271   7.837 -4.0341  0.2162 -2.7190
   67MOL0     H 9196   0.427   4.558   7.811  0.2269 -0.0287 -3.0107
   67MOL0     H 9197   0.292   4.503   7.924  0.3495 -0.6706 -0.1375
   67MOL0     H 9198   0.314   4.734   7.733 -3.8024  2.9414 -2.0163
   67MOL0     H 9199   0.155   4.646   7.743  0.0500 -1.6702  1.4241
   67MOL0     H 9200   0.159   4.688   7.988  0.9411 -1.2601 -0.6936
   67MOL0     H 9201   0.310   4.777   7.949  1.4545 -2.7790 -1.0971
   67MOL0     H 9202   0.045   4.853   7.936  0.6608 -1.1945  0.4675
   67MOL0     H 9203   0.192   4.949   7.924  2.4917 -0.9143 -0.6759
   67MOL0     H 9204  -0.126   4.981   7.834  1.4914 -1.3121  1.6193
   67MOL0     H 9205  -0.324   5.108   7.857 -2.5566 -0.0930 -1.9870
   67MOL0     H 9206  -0.336   5.205   7.714 -0.1630  0.6349  0.8936
   67MOL0     H 9207  -0.297   5.285   7.860  0.9369  1.1912 -0.9256
   67MOL0     H 9208  -0.441   5.503   7.696  2.3640 -0.8633  0.3209
   67MOL0     H 9209  -0.548   5.735   7.621 -0.1185  0.2053  0.3461
   67MOL0     H 9210  -0.630   5.990   7.670 -0.3456 -1.4402  0.1590
   67MOL0     H 9211  -0.544   5.913   7.815  1.1014  1.7301  0.9466
   67MOL0     H 9212  -0.472   6.177   7.714  1.4031  0.8174 -0.1243
   67MOL0     H 9213  -0.620   6.162   7.805 -0.3878 -1.2787  0.3246
   67MOL0     H 9214  -0.374   6.023   7.946  0.0391  0.6208  1.8048
   67MOL0     H 9215  -0.513   6.089   8.014  1.4866 -2.7093  1.2643
   67MOL0     H 9216  -0.425   6.323   7.928  1.1074 -0.4119 -3.2484
   67MOL0     H 9217  -0.271   6.233   7.931  0.1428 -0.5699  0.9598
   67MOL0     H 9218  -0.434   6.270   8.176 -0.9470 -1.8149 -1.0810
   67MOL0     H 9219  -0.290   6.162   8.147 -0.0953 -0.1289 -1.4254
   67MOL0     H 9220  -0.151   6.353   8.119 -1.1312 -4.1946  0.9539
   67MOL0     H 9221  -0.232   6.374   8.273  2.1275 -0.0284 -0.1075
   67MOL0     H 9222  -0.395   6.513   8.182  0.2796 -1.2048  0.0608
   67MOL0     H 9223  -0.321   6.511   8.019  2.9535 -0.6501 -0.4319
   67MOL0     H 9224  -0.206   6.643   8.264 -0.8712  3.6808 -0.8929
   67MOL0     H 9225  -0.282   6.718   8.133  1.5793  0.2285 -3.0062
   67MOL0     H 9226  -0.182   5.931   7.694  1.1669 -0.4259  0.4745
   67MOL0     H 9227  -0.071   5.712   7.758  0.2015  2.5601  0.0667
   67MOL0     H 9228   0.143   5.342   7.620 -0.4633 -0.9851 -0.8890
   67MOL0     H 9229   0.233   5.109   7.636  1.6977  2.9072  1.1968
   67MOL0     H 9230   0.032   3.145   7.670  0.5497 -1.7467 -3.8858
   67MOL0     H 9231   0.197   3.088   7.482  1.9437  1.0849  0.7821
   67MOL0     H 9232   0.459   3.413   7.181 -0.2070 -0.8664  1.5026
   67MOL0     H 9233   0.586   3.473   6.980 -2.1939  3.1742 -3.1262
   67MOL0     H 9234   0.561   3.583   6.796 -0.6070 -1.8890  0.7366
   67MOL0     H 9235   0.702   3.501   6.750 -0.9760 -0.4386  1.7762
   67MOL0     H 9236   0.641   3.482   6.514 -1.7888 -0.1109 -1.7233
   67MOL0     H 9237   0.668   3.656   6.558 -2.9428  1.8645  1.7805
   67MOL0     H 9238   0.400   3.558   6.582 -1.9367  1.7011 -0.2907
   67MOL0     H 9239   0.461   3.725   6.559 -0.7489  1.6657 -3.5178
   67MOL0     H 9240   0.492   3.509   6.356 -0.3719  0.1902 -0.5910
   67MOL0     H 9241   0.542   3.672   6.330  1.1832 -1.2369  0.0774
   67MOL0     H 9242   0.159   3.738   6.209  0.6624  0.8767  0.1961
   67MOL0     H 9243   0.337   3.214   6.753  0.8623 -1.4118  0.3979
   67MOL0     H 9244   0.108   3.101   6.928 -0.0874  2.7894 -0.8422
   67MOL0     H 9245   0.244   3.023   6.848  0.5972  0.7303 -0.5708
   67MOL0     H 9246   0.225   3.015   7.018 -0.5100  1.5842  1.5746
   68MOL0     O 9247   5.024   3.054   3.435 -0.2835 -0.1047  0.0575
   68MOL0     C 9248   4.983   3.103   3.333  0.0555 -0.3112  0.3546
   68MOL0     O 9249   5.050   3.087   3.211  0.3469 -0.1979  0.5312
   68MOL0     C 9250   5.137   2.982   3.198 -0.3395  0.0915  0.0624
   68MOL0     C 9251   5.105   2.851   3.151 -0.4439  0.1038 -0.5866
   68MOL0     C 9252   5.206   2.751   3.146 -0.3515 -0.2828 -0.3999
   68MOL0     C 9253   5.339   2.784   3.175  0.3826 -1.3842  0.2680
   68MOL0     O 9254   5.451   2.707   3.167  0.1334  0.0460  1.3106
   68MOL0     C 9255   5.439   2.569   3.135 -0.5631  0.4632  0.5937
   68MOL0     C 9256   5.579   2.503   3.146  0.1734  0.8792  0.3820
   68MOL0     C 9257   5.616   2.517   3.295  0.4663 -0.5779 -0.4824
   68MOL0     C 9258   5.745   2.602   3.304  0.6808 -0.9374 -0.2871
   68MOL0     C 9259   5.819   2.610   3.440  1.0187 -0.2247 -0.8789
   68MOL0     C 9260   5.940   2.695   3.429 -0.4850  0.4176  1.0440
   68MOL0     C 9261   5.998   2.724   3.570  0.3945  0.1886 -0.1981
   68MOL0     C 9262   5.988   2.601   3.674 -1.2057 -0.5265 -0.1706
   68MOL0     N 9263   6.078   2.617   3.791 -0.0474 -0.4186  0.5918
   68MOL0     C 9264   6.136   2.736   3.841  0.3515 -0.3126  0.3790
   68MOL0     C 9265   6.230   2.693   3.930  0.3211 -0.5182  0.1519
   68MOL0     C 9266   6.302   2.783   4.021  0.2820  0.5387  0.3005
   68MOL0     C 9267   6.442   2.799   3.972 -0.6554  0.0406 -1.4459
   68MOL0     C 9268   6.516   2.669   4.002  0.6690  0.8668  0.3060
   68MOL0     C 9269   6.656   2.687   3.943 -0.0663 -0.2495 -0.5912
   68MOL0     O 9270   6.656   2.715   3.806 -0.0642 -0.8874 -0.0441
   68MOL0     C 9271   6.742   2.822   3.766 -0.0402 -0.3164  0.8031
   68MOL0     C 9272   6.737   2.950   3.804 -0.8175  0.2369  0.7630
   68MOL0     C 9273   6.829   3.044   3.758 -0.3479 -0.1447  0.4393
   68MOL0     C 9274   6.811   3.178   3.815 -0.4811  0.3570 -0.5617
   68MOL0     C 9275   6.939   3.011   3.677 -0.5833  0.4026  0.6002
   68MOL0     C 9276   7.042   3.108   3.629  0.2375  0.1183 -0.4874
   68MOL0     O 9277   7.118   3.063   3.525  0.1330 -0.0163  0.3520
   68MOL0     C 9278   7.243   3.127   3.504  0.6549 -0.0905 -0.7699
   68MOL0     C 9279   7.355   3.052   3.455 -0.9092 -0.1049  0.8510
   68MOL0     C 9280   7.478   3.098   3.429 -0.1756 -0.2106 -0.9706
   68MOL0     C 9281   7.509   3.228   3.463 -0.0115  0.1960 -0.0707
   68MOL0     O 9282   7.638   3.264   3.433 -0.6903  0.4489 -0.4526
   68MOL0     C 9283   7.692   3.394   3.467 -0.4219  0.1404  0.8777
   68MOL0     C 9284   7.822   3.435   3.381  0.2935  0.5478  0.5308
   68MOL0     C 9285   7.923   3.323   3.411 -0.4307 -0.3421  0.2010
   68MOL0     C 9286   8.070   3.340   3.366 -0.5791 -0.1373  0.1884
   68MOL0     C 9287   8.152   3.219   3.417  0.5004  0.7392  0.6380
   68MOL0     C 9288   8.272   3.188   3.329 -0.7507  0.4435 -0.4768
   68MOL0     C 9289   8.225   3.140   3.192  0.3638 -0.8307  0.4453
   68MOL0     C 9290   8.339   3.081   3.105 -0.2568  0.8024 -0.3479
   68MOL0    Cl 9291   8.469   3.195   3.081  0.4367 -0.1664  0.2002
   68MOL0     C 9292   7.409   3.312   3.513 -0.2646  0.8014  0.6356
   68MOL0     C 9293   7.277   3.258   3.533  0.0366 -0.4515  0.7551
   68MOL0     O 9294   7.056   3.214   3.694  0.0721  0.5957  0.2044
   68MOL0     C 9295   6.939   2.877   3.636  0.3340 -0.2207 -0.3504
   68MOL0     C 9296   6.837   2.784   3.667  0.0084 -0.1764 -0.5472
   68MOL0     N 9297   6.225   2.553   3.920 -0.0546 -0.5963 -0.2721
   68MOL0     N 9298   6.127   2.507   3.853  0.0695  0.2454  0.4141
   68MOL0     C 9299   5.364   2.911   3.225  0.3699  0.5942 -0.4437
   68MOL0     C 9300   5.265   3.011   3.227 -0.5966  1.0800 -0.7067
   68MOL0     C 9301   4.871   3.201   3.331 -0.5424  0.4411  1.0176
   68MOL0     C 9302   4.870   3.299   3.230  0.6684 -0.5857 -0.1767
   68MOL0     C 9303   4.764   3.402   3.224 -0.6471  0.0880 -0.1032
   68MOL0     C 9304   4.669   3.404   3.322  0.6231 -0.4098 -0.1175
   68MOL0     O 9305   4.564   3.496   3.339 -0.2591 -0.7211  0.6736
   68MOL0     C 9306   4.497   3.551   3.215  0.1363 -0.3179  0.2652
   68MOL0     C 9307   4.418   3.676   3.234  0.3861  0.0072 -0.1702
   68MOL0     C 9308   4.493   3.814   3.226  0.2597  0.3953  0.2382
   68MOL0     C 9309   4.634   3.810   3.299 -0.2834 -0.1208 -0.1616
   68MOL0     C 9310   4.695   3.936   3.349 -0.1372 -0.8831 -1.0492
   68MOL0     C 9311   4.707   4.044   3.397 -0.5222  0.1056 -0.7593
   68MOL0     C 9312   4.683   3.315   3.420 -0.3258 -0.8813 -0.1330
   68MOL0     C 9313   4.777   3.211   3.427  1.2235  0.1898  0.8333
   68MOL0     C 9314   4.773   3.121   3.549  0.3263  0.0457 -0.1366
   68MOL0     H 9315   5.000   2.843   3.127 -0.3438  1.4131 -1.5519
   68MOL0     H 9316   5.180   2.650   3.117 -0.4928 -1.1436  2.4178
   68MOL0     H 9317   5.396   2.543   3.038 -1.3559 -3.4681  1.8040
   68MOL0     H 9318   5.379   2.523   3.214 -1.9076  1.1531 -0.0115
   68MOL0     H 9319   5.578   2.396   3.125  0.9467  0.4725  2.2418
   68MOL0     H 9320   5.643   2.562   3.079 -1.8475  1.7163 -0.9340
   68MOL0     H 9321   5.543   2.565   3.359  2.0299  4.7851 -2.1874
   68MOL0     H 9322   5.632   2.415   3.332 -0.0567 -0.9585 -1.2860
   68MOL0     H 9323   5.818   2.570   3.229  0.1308  0.5037 -1.4773
   68MOL0     H 9324   5.719   2.705   3.279  0.8042 -0.9954 -0.6680
   68MOL0     H 9325   5.853   2.510   3.467 -0.0088 -0.3595 -0.0570
   68MOL0     H 9326   5.751   2.657   3.511  0.9274  0.7052 -1.5645
   68MOL0     H 9327   6.008   2.654   3.354 -0.2863  2.2308  0.1656
   68MOL0     H 9328   5.908   2.788   3.382 -0.4587  0.2469  0.6911
   68MOL0     H 9329   5.940   2.802   3.621 -0.0949 -0.3946  0.1400
   68MOL0     H 9330   6.096   2.773   3.560 -0.4676  2.0272 -0.0740
   68MOL0     H 9331   5.884   2.580   3.701 -0.9141 -0.5703  0.9725
   68MOL0     H 9332   6.024   2.516   3.616 -1.1492  0.4045 -1.5503
   68MOL0     H 9333   6.117   2.841   3.820 -2.0375 -0.6107  0.6890
   68MOL0     H 9334   6.312   2.732   4.117  2.4312  2.0865  0.9783
   68MOL0     H 9335   6.247   2.878   4.030 -0.3017  0.3754 -1.2645
   68MOL0     H 9336   6.440   2.812   3.863  0.1296 -2.7360 -1.8506
   68MOL0     H 9337   6.494   2.880   4.024  1.6717 -2.3610  0.1997
   68MOL0     H 9338   6.528   2.636   4.106  0.7131  0.4262  0.1660
   68MOL0     H 9339   6.463   2.586   3.953 -1.3736 -0.2778  4.0549
   68MOL0     H 9340   6.696   2.775   3.994 -0.2144  0.8487 -2.2903
   68MOL0     H 9341   6.725   2.605   3.964  1.8504  1.7030  1.2327
   68MOL0     H 9342   6.660   2.978   3.876  0.1391  1.5002  1.3182
   68MOL0     H 9343   6.818   3.249   3.733  3.7299  0.5646 -0.2405
   68MOL0     H 9344   6.875   3.213   3.897 -0.9376  0.2219 -0.1427
   68MOL0     H 9345   6.711   3.198   3.853 -1.1244  1.8895 -2.8375
   68MOL0     H 9346   7.340   2.948   3.429  0.6700 -0.3965  1.0245
   68MOL0     H 9347   7.555   3.026   3.401 -2.1368 -2.7213 -0.2123
   68MOL0     H 9348   7.616   3.473   3.455  0.2369  0.6361 -0.1849
   68MOL0     H 9349   7.725   3.387   3.571  3.2479  1.5504 -0.0399
   68MOL0     H 9350   7.796   3.447   3.275  0.1891  1.9701  0.6968
   68MOL0     H 9351   7.866   3.531   3.412  3.6558 -0.7187  0.1206
   68MOL0     H 9352   7.881   3.226   3.381 -0.8384  0.6131 -2.5377
   68MOL0     H 9353   7.929   3.316   3.520 -1.9419  1.1090  0.4111
   68MOL0     H 9354   8.129   3.427   3.397 -1.1987  0.7233 -0.9724
   68MOL0     H 9355   8.062   3.356   3.258  1.3372  0.2538  0.0777
   68MOL0     H 9356   8.188   3.244   3.517 -0.4377 -1.2860  1.5631
   68MOL0     H 9357   8.093   3.129   3.438  1.5168 -0.1254 -0.1190
   68MOL0     H 9358   8.326   3.102   3.371 -1.9409  0.5171  1.2990
   68MOL0     H 9359   8.349   3.265   3.317  1.2523 -1.4972 -0.8996
   68MOL0     H 9360   8.175   3.224   3.142 -1.7406  0.0210  3.6839
   68MOL0     H 9361   8.158   3.054   3.201  1.5108 -1.7757  0.2728
   68MOL0     H 9362   8.291   3.038   3.017  0.8213 -1.3078  0.0338
   68MOL0     H 9363   8.381   2.989   3.148  0.6905  2.7178  3.3018
   68MOL0     H 9364   7.410   3.420   3.527 -1.4066  0.8081  0.7577
   68MOL0     H 9365   7.199   3.329   3.558 -0.8102  0.4326 -3.6186
   68MOL0     H 9366   7.020   2.834   3.579 -1.1167 -0.2396 -2.5229
   68MOL0     H 9367   6.847   2.679   3.640  3.2112 -0.5687  1.6605
   68MOL0     H 9368   5.466   2.940   3.248  0.8530  1.4217 -3.2887
   68MOL0     H 9369   5.290   3.105   3.274  0.3255  0.2883  0.4473
   68MOL0     H 9370   4.951   3.294   3.158  1.3418 -0.1491  0.5200
   68MOL0     H 9371   4.758   3.476   3.145 -1.4895  1.5899  1.3168
   68MOL0     H 9372   4.569   3.556   3.132 -2.7716 -2.1855 -2.6185
   68MOL0     H 9373   4.418   3.484   3.178  0.1378  0.4593 -1.2294
   68MOL0     H 9374   4.383   3.660   3.336 -0.6145 -1.3747 -0.7102
   68MOL0     H 9375   4.329   3.684   3.171  0.0913  0.2699  0.2670
   68MOL0     H 9376   4.492   3.842   3.120  1.4350  1.4112  0.4820
   68MOL0     H 9377   4.433   3.890   3.276  1.3400 -0.3924  2.8817
   68MOL0     H 9378   4.711   3.761   3.239  0.7459 -0.6579  1.5619
   68MOL0     H 9379   4.621   3.759   3.395 -0.0553  3.6468  2.0688
   68MOL0     H 9380   4.727   4.149   3.409 -2.1464  0.3706 -0.0554
   68MOL0     H 9381   4.618   3.318   3.507  0.6692 -0.2650  0.6214
   68MOL0     H 9382   4.676   3.147   3.592 -1.3248 -3.4754 -1.3751
   68MOL0     H 9383   4.753   3.018   3.516  1.2420 -0.0550 -0.4057
   68MOL0     H 9384   4.852   3.130   3.624 -0.2465  0.1576  0.4647
   69MOL0     O 9385   0.747   4.641   3.435  0.2110  0.0641 -0.5253
   69MOL0     C 9386   0.793   4.750   3.403 -0.0354  1.2713  1.0938
   69MOL0     O 9387   0.800   4.865   3.480  0.5339 -0.1156 -0.2815
   69MOL0     C 9388   0.760   4.876   3.617 -0.4146 -0.0439  0.3415
   69MOL0     C 9389   0.706   5.004   3.657 -0.5349  0.7811  0.7454
   69MOL0     C 9390   0.659   5.020   3.784 -1.0819  0.2166  0.6325
   69MOL0     C 9391   0.675   4.927   3.883  0.9219 -0.1816 -0.5998
   69MOL0     O 9392   0.634   4.955   4.015 -0.1031  0.1134  0.0328
   69MOL0     C 9393   0.653   4.853   4.127  0.6533 -0.1535  0.2043
   69MOL0     C 9394   0.561   4.891   4.239  0.2211  0.5511 -0.5644
   69MOL0     C 9395   0.592   4.797   4.359  0.6082 -0.9664  0.1366
   69MOL0     C 9396   0.470   4.813   4.449  0.2137  0.0662 -0.3457
   69MOL0     C 9397   0.496   4.707   4.560 -0.6940 -0.3399  0.2655
   69MOL0     C 9398   0.442   4.573   4.525  0.5742 -0.1154  0.7269
   69MOL0     C 9399   0.438   4.478   4.635  0.0331 -0.4204  0.5750
   69MOL0     C 9400   0.342   4.509   4.756  0.5075  0.4656  0.1957
   69MOL0     N 9401   0.330   4.409   4.860 -0.1731 -0.1181  0.2318
   69MOL0     C 9402   0.250   4.296   4.867 -0.2769 -0.0541 -0.1744
   69MOL0     C 9403   0.290   4.239   4.990 -0.0899  0.3149  0.6608
   69MOL0     C 9404   0.237   4.113   5.056 -1.0052  0.0234 -0.7794
   69MOL0     C 9405   0.178   4.153   5.202  0.1324  0.0490  0.0127
   69MOL0     C 9406   0.295   4.156   5.298 -0.0173 -0.0372  0.0761
   69MOL0     C 9407   0.245   4.197   5.435  0.5732  0.5523 -0.1592
   69MOL0     O 9408   0.192   4.076   5.489 -0.0843  0.0418 -0.6567
   69MOL0     C 9409   0.092   4.069   5.575 -0.2210  0.0576 -0.6142
   69MOL0     C 9410   0.036   3.948   5.609  0.3315 -0.2429 -0.0182
   69MOL0     C 9411  -0.066   3.935   5.707  0.1915  0.5553  0.4505
   69MOL0     C 9412  -0.114   3.798   5.749  0.1379  0.3141 -0.0108
   69MOL0     C 9413  -0.114   4.050   5.774  0.4483 -1.1014 -0.2069
   69MOL0     C 9414  -0.220   4.042   5.872 -0.0529 -0.4720  0.7033
   69MOL0     O 9415  -0.205   3.957   5.977  0.0661 -0.0855 -0.0754
   69MOL0     C 9416  -0.303   3.915   6.055  0.4421  0.6690  0.2680
   69MOL0     C 9417  -0.282   3.883   6.195  0.1056  0.2640  0.2411
   69MOL0     C 9418  -0.388   3.835   6.279  0.2096 -0.3603  1.2526
   69MOL0     C 9419  -0.519   3.809   6.223 -0.5441 -0.6657  0.2413
   69MOL0     O 9420  -0.631   3.761   6.291 -0.2104  0.3567  0.2545
   69MOL0     C 9421  -0.687   3.638   6.243 -0.2092 -0.5008 -0.1100
   69MOL0     C 9422  -0.591   3.514   6.230 -0.3481  0.4197  0.3766
   69MOL0     C 9423  -0.682   3.396   6.192  0.0708  0.3164  0.0160
   69MOL0     C 9424  -0.618   3.269   6.260  1.1801 -0.5877  0.1246
   69MOL0     C 9425  -0.670   3.250   6.397  0.7989  0.3129 -0.1049
   69MOL0     C 9426  -0.649   3.106   6.450  0.0015 -0.2998  0.2524
   69MOL0     C 9427  -0.695   3.081   6.598  0.4481 -0.0029  0.0512
   69MOL0     C 9428  -0.729   3.196   6.687  0.0972  0.1710 -0.6404
   69MOL0    Cl 9429  -0.592   3.295   6.738 -0.1780  0.3422 -0.3058
   69MOL0     C 9430  -0.534   3.827   6.084 -0.6248 -0.1926  0.8838
   69MOL0     C 9431  -0.432   3.883   6.010 -0.5793  0.1499 -0.2464
   69MOL0     O 9432  -0.318   4.110   5.847  0.5858 -0.0383  0.7727
   69MOL0     C 9433  -0.054   4.172   5.744  0.2269  0.2611 -0.6756
   69MOL0     C 9434   0.053   4.180   5.656 -0.1664  0.6311 -0.7816
   69MOL0     N 9435   0.405   4.313   5.032 -0.6216  0.3799 -0.2711
   69MOL0     N 9436   0.423   4.411   4.964  0.0230 -0.1503  0.1015
   69MOL0     C 9437   0.742   4.816   3.850 -1.2433  0.0812 -0.0095
   69MOL0     C 9438   0.774   4.783   3.715  0.0600  1.2446 -0.0215
   69MOL0     C 9439   0.845   4.762   3.266 -0.2642  0.0419  0.4814
   69MOL0     C 9440   0.897   4.647   3.204  0.8211  0.5085  0.2368
   69MOL0     C 9441   0.956   4.640   3.077 -1.4690 -0.0086  0.0922
   69MOL0     C 9442   0.954   4.758   3.001  0.2038  0.3635  0.7149
   69MOL0     O 9443   1.002   4.750   2.870  0.1409 -0.0516  0.5668
   69MOL0     C 9444   0.887   4.729   2.780 -0.5926  0.0133  0.1203
   69MOL0     C 9445   0.844   4.577   2.758  0.1984  0.6766  0.0226
   69MOL0     C 9446   0.928   4.509   2.648 -0.8725 -0.3178 -0.2929
   69MOL0     C 9447   0.922   4.361   2.654  0.5839  0.0237  0.3462
   69MOL0     C 9448   0.786   4.304   2.643 -0.2778 -1.0745  0.2084
   69MOL0     C 9449   0.677   4.263   2.659  0.7007  0.2031 -0.7369
   69MOL0     C 9450   0.896   4.875   3.056 -0.0112 -0.1404 -0.1213
   69MOL0     C 9451   0.841   4.879   3.185 -0.0859 -0.1027 -0.3238
   69MOL0     C 9452   0.786   5.017   3.218 -0.3491  0.7922 -0.4520
   69MOL0     H 9453   0.721   5.087   3.588  0.9925  1.0103  1.3187
   69MOL0     H 9454   0.620   5.118   3.811 -2.4965 -0.4549  1.1198
   69MOL0     H 9455   0.756   4.854   4.164  0.8347 -0.0332 -0.2926
   69MOL0     H 9456   0.620   4.753   4.099  0.9271 -0.1367 -0.1972
   69MOL0     H 9457   0.566   4.990   4.285  1.7535 -1.5719  4.5902
   69MOL0     H 9458   0.460   4.879   4.199  1.4271 -0.7455 -3.5734
   69MOL0     H 9459   0.590   4.694   4.322  2.5540 -0.9034 -0.2823
   69MOL0     H 9460   0.689   4.825   4.400  0.0593 -0.3103  1.0100
   69MOL0     H 9461   0.460   4.915   4.486 -1.1652 -1.1718  3.1113
   69MOL0     H 9462   0.372   4.793   4.404 -0.4766  0.1624  1.0757
   69MOL0     H 9463   0.439   4.740   4.647 -0.2615  0.8176  0.1269
   69MOL0     H 9464   0.601   4.703   4.588 -0.9076  1.6939  1.5379
   69MOL0     H 9465   0.349   4.573   4.468  0.8859  0.5622  0.1989
   69MOL0     H 9466   0.509   4.527   4.452 -1.5737 -3.5254  0.7208
   69MOL0     H 9467   0.542   4.469   4.669  2.3185  1.3494 -4.9231
   69MOL0     H 9468   0.407   4.381   4.595  0.2231  0.3683 -1.5795
   69MOL0     H 9469   0.355   4.609   4.798  2.9201  0.7319 -1.0571
   69MOL0     H 9470   0.246   4.524   4.705  0.9556  1.3534 -0.4155
   69MOL0     H 9471   0.176   4.284   4.789  1.9273 -1.4825 -2.2157
   69MOL0     H 9472   0.321   4.047   5.077 -1.7428 -1.0194 -1.0555
   69MOL0     H 9473   0.166   4.054   4.998 -1.9487  0.7650 -0.4045
   69MOL0     H 9474   0.118   4.244   5.198 -0.0864 -0.0137  1.4510
   69MOL0     H 9475   0.116   4.069   5.236 -1.0824  0.9628  0.1094
   69MOL0     H 9476   0.333   4.054   5.309 -0.1829 -0.1093 -0.0094
   69MOL0     H 9477   0.367   4.228   5.260 -2.3524  1.6775 -1.3853
   69MOL0     H 9478   0.328   4.244   5.489 -0.2456  1.2400  0.5303
   69MOL0     H 9479   0.173   4.279   5.425  0.7017  0.7694  0.6208
   69MOL0     H 9480   0.066   3.858   5.555  0.8714  1.8165 -3.3960
   69MOL0     H 9481  -0.223   3.790   5.754  0.1448  0.7770  1.4551
   69MOL0     H 9482  -0.080   3.752   5.842 -0.4763 -0.6784 -0.2550
   69MOL0     H 9483  -0.091   3.731   5.665  2.1932 -0.5848  1.1962
   69MOL0     H 9484  -0.186   3.894   6.243  0.2816  0.9439 -0.2579
   69MOL0     H 9485  -0.367   3.800   6.380  0.0124  0.7235  1.6893
   69MOL0     H 9486  -0.780   3.617   6.296 -0.4244  0.8085  0.0446
   69MOL0     H 9487  -0.721   3.659   6.142  2.3218 -1.3698 -1.2442
   69MOL0     H 9488  -0.514   3.532   6.155  0.4621 -0.9808  0.8350
   69MOL0     H 9489  -0.551   3.494   6.329 -3.3439 -2.5994  1.1739
   69MOL0     H 9490  -0.690   3.382   6.084 -1.9866  2.2688 -0.1681
   69MOL0     H 9491  -0.786   3.400   6.228  0.3129 -1.8370  1.1285
   69MOL0     H 9492  -0.509   3.278   6.262  1.1044  1.6170 -1.9213
   69MOL0     H 9493  -0.636   3.180   6.199 -0.8489 -0.6084  0.6749
   69MOL0     H 9494  -0.624   3.326   6.461 -2.4967 -0.5363  3.6508
   69MOL0     H 9495  -0.779   3.257   6.407  0.8686 -1.5130  4.6824
   69MOL0     H 9496  -0.543   3.093   6.429  0.4220  2.3497  0.4921
   69MOL0     H 9497  -0.715   3.054   6.380 -0.5192  4.8802 -3.7075
   69MOL0     H 9498  -0.622   3.013   6.643 -0.2926 -1.0539 -0.2920
   69MOL0     H 9499  -0.786   3.022   6.593 -0.0059  0.3180  3.0146
   69MOL0     H 9500  -0.781   3.165   6.777  2.1915  2.1993  1.4115
   69MOL0     H 9501  -0.779   3.276   6.631 -0.6861 -0.1328 -0.3871
   69MOL0     H 9502  -0.619   3.810   6.019 -0.5081  0.0466  0.6646
   69MOL0     H 9503  -0.457   3.891   5.905 -2.8610 -0.9916  0.1538
   69MOL0     H 9504  -0.080   4.263   5.797  2.7458  0.0960  1.0058
   69MOL0     H 9505   0.110   4.272   5.654  1.2332 -0.1941 -0.6564
   69MOL0     H 9506   0.772   4.735   3.917  2.1369  2.2229  1.3481
   69MOL0     H 9507   0.823   4.689   3.691 -1.8283  0.2810 -0.3204
   69MOL0     H 9508   0.874   4.548   3.243  0.2814  0.4515 -0.2176
   69MOL0     H 9509   0.996   4.547   3.037 -1.0770 -1.4790  3.4891
   69MOL0     H 9510   0.801   4.785   2.817 -0.6917  1.6603 -2.3519
   69MOL0     H 9511   0.912   4.772   2.683  0.2288 -0.3007  0.1880
   69MOL0     H 9512   0.739   4.570   2.731 -0.5137 -1.8134  2.8764
   69MOL0     H 9513   0.844   4.518   2.850 -3.0772  0.2693 -0.1474
   69MOL0     H 9514   0.894   4.559   2.557  0.0119 -2.1730 -1.7053
   69MOL0     H 9515   1.036   4.528   2.660 -0.5265 -1.8819 -0.7283
   69MOL0     H 9516   0.958   4.340   2.755  0.1420  3.1428  1.2367
   69MOL0     H 9517   0.967   4.316   2.565 -0.7212  0.4385 -0.5595
   69MOL0     H 9518   0.578   4.225   2.670  0.1352  1.9639  0.7882
   69MOL0     H 9519   0.874   4.955   2.985  1.8816 -0.8827 -1.6395
   69MOL0     H 9520   0.849   5.056   3.298 -0.1186  2.2966 -1.3235
   69MOL0     H 9521   0.793   5.082   3.130  0.1804  1.0484 -0.2287
   69MOL0     H 9522   0.685   5.013   3.259  1.1430  0.2523  3.5998
   70MOL0     O 9523   0.621  10.822   6.058  0.1528 -0.0644  0.5106
   70MOL0     C 9524   0.702  10.826   5.974 -0.3563  1.3061  0.0105
   70MOL0     O 9525   0.702  10.912   5.870  0.5003  0.0945  0.2946
   70MOL0     C 9526   0.616  11.018   5.871  0.5986  0.4895 -0.3111
   70MOL0     C 9527   0.632  11.119   5.972 -0.4605 -0.8847  0.2529
   70MOL0     C 9528   0.532  11.219   5.985 -0.9735  0.8861  0.1786
   70MOL0     C 9529   0.414  11.220   5.911 -0.5438  0.2132  0.7580
   70MOL0     O 9530   0.309  11.311   5.930  1.4827  0.6253 -0.0330
   70MOL0     C 9531   0.320  11.407   6.033 -0.9181 -0.0507  0.0712
   70MOL0     C 9532   0.192  11.490   6.034  0.3076 -0.2264 -0.6572
   70MOL0     C 9533   0.155  11.557   5.895  0.5087  0.2186 -0.2357
   70MOL0     C 9534   0.053  11.668   5.929  0.4737 -0.4917 -0.2528
   70MOL0     C 9535  -0.055  11.690   5.821 -0.0887 -0.2177  0.0719
   70MOL0     C 9536  -0.140  11.814   5.853 -0.3197 -0.3939 -0.7854
   70MOL0     C 9537  -0.248  11.862   5.759  0.4410  0.5829  0.0665
   70MOL0     C 9538  -0.354  11.747   5.738  0.5990  0.7888  0.5573
   70MOL0     N 9539  -0.481  11.792   5.681  0.2365 -0.4397 -0.2191
   70MOL0     C 9540  -0.488  11.855   5.557 -0.2394  0.2410 -1.3466
   70MOL0     C 9541  -0.612  11.909   5.554 -0.8017  0.0798 -1.7079
   70MOL0     C 9542  -0.688  11.958   5.432  0.7053  0.4005  0.2260
   70MOL0     C 9543  -0.725  11.827   5.353 -0.4621  0.9628 -0.0610
   70MOL0     C 9544  -0.798  11.860   5.211 -0.0454  0.1880  0.1520
   70MOL0     C 9545  -0.909  11.961   5.217 -0.3061  0.3838 -0.5112
   70MOL0     O 9546  -0.977  11.969   5.087  0.3164  0.5183  0.2733
   70MOL0     C 9547  -1.059  11.859   5.051  0.8473 -0.4307  0.0517
   70MOL0     C 9548  -1.091  11.740   5.132 -0.6537  0.8773  0.1713
   70MOL0     C 9549  -1.151  11.626   5.070  0.2360 -0.7053  0.3057
   70MOL0     C 9550  -1.172  11.511   5.156 -0.9578 -0.4005  0.2330
   70MOL0     C 9551  -1.201  11.635   4.937  0.3071  0.5722 -0.3407
   70MOL0     C 9552  -1.247  11.516   4.867  0.1746  0.1749  0.6986
   70MOL0     O 9553  -1.311  11.411   4.937  0.0955  0.0797  0.1345
   70MOL0     C 9554  -1.312  11.287   4.883  0.7730 -0.1151  0.1369
   70MOL0     C 9555  -1.261  11.174   4.954 -0.3934 -0.2336 -0.1228
   70MOL0     C 9556  -1.271  11.047   4.905 -0.0527  0.2259  0.5511
   70MOL0     C 9557  -1.345  11.022   4.786  0.4516  0.2601 -0.0129
   70MOL0     O 9558  -1.355  10.901   4.735 -0.5233  1.0036  0.2626
   70MOL0     C 9559  -1.422  10.805   4.816  1.7613  0.6230 -0.3068
   70MOL0     C 9560  -1.479  10.694   4.726  0.3661  0.3789 -0.1920
   70MOL0     C 9561  -1.622  10.727   4.669  0.0835  0.1087 -0.3348
   70MOL0     C 9562  -1.653  10.624   4.565 -1.2649  0.1440  0.0505
   70MOL0     C 9563  -1.784  10.642   4.503  0.3130  1.3378 -0.1003
   70MOL0     C 9564  -1.826  10.507   4.434 -0.1819  0.3796 -0.2955
   70MOL0     C 9565  -1.949  10.523   4.348  0.6251 -0.5678  0.1652
   70MOL0     C 9566  -2.016  10.391   4.315  0.2816 -0.0788 -0.6346
   70MOL0    Cl 9567  -1.898  10.290   4.241 -0.1532  0.1004  0.1764
   70MOL0     C 9568  -1.393  11.131   4.715 -0.5401 -0.1770  0.0309
   70MOL0     C 9569  -1.376  11.257   4.758  0.4722 -0.4941  0.1257
   70MOL0     O 9570  -1.251  11.525   4.738 -0.4216 -0.5255 -0.0460
   70MOL0     C 9571  -1.192  11.752   4.864 -0.7143 -0.5238 -0.6439
   70MOL0     C 9572  -1.113  11.861   4.920 -1.0124 -0.1343 -0.2765
   70MOL0     N 9573  -0.678  11.871   5.666  0.0003 -0.6850 -0.2782
   70MOL0     N 9574  -0.599  11.809   5.747  0.6732  0.1140  0.2589
   70MOL0     C 9575   0.410  11.123   5.804  0.3074 -0.9517 -0.5833
   70MOL0     C 9576   0.501  11.027   5.793 -0.2470 -0.0028  0.2842
   70MOL0     C 9577   0.795  10.699   5.967  0.4699 -1.0052 -0.5427
   70MOL0     C 9578   0.830  10.649   5.839  0.2039  0.3923  0.4945
   70MOL0     C 9579   0.946  10.568   5.828  0.0354  0.1080  0.2805
   70MOL0     C 9580   1.024  10.528   5.925  0.0403 -0.5314  0.8288
   70MOL0     O 9581   1.145  10.474   5.903  0.5546 -0.4913  0.2158
   70MOL0     C 9582   1.213  10.420   6.007 -0.1268  0.6975  1.1557
   70MOL0     C 9583   1.355  10.360   5.960 -0.9280  0.3545 -0.1385
   70MOL0     C 9584   1.459  10.478   5.949  0.6964  0.4598 -0.2677
   70MOL0     C 9585   1.602  10.434   5.925  0.0427 -0.6450  0.2255
   70MOL0     C 9586   1.617  10.363   5.799  0.1761 -0.1600 -0.7199
   70MOL0     C 9587   1.610  10.325   5.682  0.3089  0.0311 -0.1351
   70MOL0     C 9588   0.971  10.547   6.061 -0.1027 -0.1709  0.0767
   70MOL0     C 9589   0.852  10.634   6.079  0.2623  0.5765  0.5798
   70MOL0     C 9590   0.799  10.652   6.221 -0.9330  0.2963  1.1334
   70MOL0     H 9591   0.712  11.116   6.045 -2.0999  0.0124  2.1629
   70MOL0     H 9592   0.559  11.284   6.067  1.8899 -2.8849  2.5983
   70MOL0     H 9593   0.404  11.471   6.006 -4.1357  3.5697 -2.5436
   70MOL0     H 9594   0.335  11.359   6.130  0.8341 -0.0768 -0.1856
   70MOL0     H 9595   0.116  11.416   6.060  1.5267 -1.4089 -0.3474
   70MOL0     H 9596   0.200  11.570   6.107  2.0775 -3.2381  2.7613
   70MOL0     H 9597   0.237  11.606   5.841  0.5021  2.1405  1.3901
   70MOL0     H 9598   0.110  11.482   5.829 -2.4972  1.5432  0.1682
   70MOL0     H 9599  -0.002  11.644   6.021  0.3357  0.9472  0.0575
   70MOL0     H 9600   0.111  11.758   5.952 -0.3184 -0.5280  2.2056
   70MOL0     H 9601  -0.114  11.600   5.804  1.3767 -0.6752 -3.5118
   70MOL0     H 9602  -0.012  11.685   5.721 -0.6447 -2.5980 -0.1026
   70MOL0     H 9603  -0.180  11.809   5.955  2.4870  2.3823  0.6027
   70MOL0     H 9604  -0.071  11.898   5.855  0.3901 -0.9772 -0.5315
   70MOL0     H 9605  -0.206  11.894   5.663 -0.1068  3.8033  0.8131
   70MOL0     H 9606  -0.294  11.951   5.802  2.1883  1.6203 -0.1515
   70MOL0     H 9607  -0.313  11.653   5.701 -0.1192 -0.7021  3.2568
   70MOL0     H 9608  -0.377  11.716   5.841  0.5674  1.0253  0.6220
   70MOL0     H 9609  -0.408  11.853   5.484  2.0131  0.6206  0.9569
   70MOL0     H 9610  -0.626  12.025   5.371  0.3265  0.3915 -0.1700
   70MOL0     H 9611  -0.773  12.020   5.462  0.0199 -0.4235  0.0167
   70MOL0     H 9612  -0.642  11.758   5.335 -1.5668 -0.7883  1.2728
   70MOL0     H 9613  -0.791  11.767   5.416 -0.0083 -0.9669 -1.3358
   70MOL0     H 9614  -0.730  11.894   5.132  0.2644 -1.6271 -0.4140
   70MOL0     H 9615  -0.827  11.763   5.170 -1.5599  0.8911 -0.4824
   70MOL0     H 9616  -0.980  11.936   5.296  0.2803  0.2075 -0.0306
   70MOL0     H 9617  -0.862  12.057   5.239  0.5367 -0.0903 -0.2017
   70MOL0     H 9618  -1.048  11.741   5.232  4.0835  1.2873 -1.6218
   70MOL0     H 9619  -1.090  11.440   5.138  1.0281  1.5803  0.9815
   70MOL0     H 9620  -1.270  11.463   5.150 -2.4396  2.4922 -0.4025
   70MOL0     H 9621  -1.148  11.533   5.261  1.9190  2.0615 -0.7823
   70MOL0     H 9622  -1.195  11.199   5.037  1.2740 -1.4606 -1.0283
   70MOL0     H 9623  -1.240  10.958   4.958 -0.0723  0.2380  0.5836
   70MOL0     H 9624  -1.349  10.750   4.875  0.4550 -4.1147 -2.6640
   70MOL0     H 9625  -1.505  10.843   4.877  0.5704 -1.0519 -0.8071
   70MOL0     H 9626  -1.418  10.678   4.636 -0.3163 -1.5324 -0.3573
   70MOL0     H 9627  -1.487  10.594   4.769  2.0039  0.0071 -0.6720
   70MOL0     H 9628  -1.623  10.828   4.629 -0.3289  1.3877  2.6535
   70MOL0     H 9629  -1.699  10.724   4.746 -0.7831 -0.3674 -1.1956
   70MOL0     H 9630  -1.659  10.526   4.613 -4.2439  0.0381 -0.3362
   70MOL0     H 9631  -1.576  10.622   4.488  0.5786 -1.6405  1.8151
   70MOL0     H 9632  -1.856  10.669   4.581 -0.0425  1.4302 -0.4544
   70MOL0     H 9633  -1.779  10.715   4.422 -0.3451  1.7970  0.2643
   70MOL0     H 9634  -1.830  10.423   4.504  2.8444 -0.1187 -0.5758
   70MOL0     H 9635  -1.754  10.478   4.358 -0.9799  0.6985 -1.1882
   70MOL0     H 9636  -1.920  10.570   4.254  1.5307  0.7016  1.0350
   70MOL0     H 9637  -2.020  10.590   4.399  3.3267  0.7950  2.4140
   70MOL0     H 9638  -2.096  10.410   4.244  1.2711 -0.2524 -1.8308
   70MOL0     H 9639  -2.060  10.342   4.403  0.0012 -0.0789 -0.7742
   70MOL0     H 9640  -1.448  11.104   4.626  0.5795  0.1089 -0.7740
   70MOL0     H 9641  -1.423  11.339   4.704  0.9242 -2.2082 -3.1201
   70MOL0     H 9642  -1.216  11.772   4.760  2.0538  1.1181 -1.0628
   70MOL0     H 9643  -1.096  11.947   4.856 -1.9165  0.5206  0.3351
   70MOL0     H 9644   0.316  11.131   5.750  0.4585  0.2968 -0.6946
   70MOL0     H 9645   0.472  10.947   5.725  1.0016 -2.7872  2.7995
   70MOL0     H 9646   0.775  10.669   5.747  0.9710  3.9487  0.6754
   70MOL0     H 9647   0.975  10.538   5.728 -0.8205  1.7303 -0.5008
   70MOL0     H 9648   1.227  10.507   6.073  0.6777 -1.0747  3.4360
   70MOL0     H 9649   1.151  10.345   6.057  0.2141  0.3209  1.0197
   70MOL0     H 9650   1.340  10.307   5.866  0.6641 -1.2182  0.4305
   70MOL0     H 9651   1.375  10.292   6.044 -1.0271  0.9001  0.3358
   70MOL0     H 9652   1.416  10.549   5.879 -1.5845  0.3140  0.9041
   70MOL0     H 9653   1.459  10.544   6.036 -2.2521  0.2562 -0.0398
   70MOL0     H 9654   1.635  10.359   5.998  1.7223  0.7229  0.9529
   70MOL0     H 9655   1.670  10.520   5.931 -1.1823  0.5280 -1.5963
   70MOL0     H 9656   1.604  10.284   5.583  3.9551  0.0728 -0.5034
   70MOL0     H 9657   1.023  10.518   6.152 -0.6684 -0.2323  0.3866
   70MOL0     H 9658   0.738  10.564   6.241  2.0514 -1.7274  2.1614
   70MOL0     H 9659   0.882  10.631   6.290 -2.7518 -1.8244  2.8293
   70MOL0     H 9660   0.754  10.748   6.250  0.4089  0.1203  4.2946
   71MOL0     O 9661   9.767   0.688   6.489  0.2511  0.4050 -0.2402
   71MOL0     C 9662   9.743   0.637   6.382  0.0635  0.5547  0.4054
   71MOL0     O 9663   9.777   0.686   6.263 -0.9159 -0.9448 -0.5478
   71MOL0     C 9664   9.828   0.810   6.257  0.6087 -0.8127  0.4820
   71MOL0     C 9665   9.742   0.916   6.263  0.5642 -0.0138  0.5043
   71MOL0     C 9666   9.787   1.039   6.278  0.2548  0.4611 -0.0442
   71MOL0     C 9667   9.920   1.067   6.275 -0.4790 -0.3175  0.4711
   71MOL0     O 9668   9.971   1.197   6.277  0.1721 -1.2045 -0.0063
   71MOL0     C 9669   9.982   1.283   6.163 -0.1932 -0.3604  1.3219
   71MOL0     C 9670   9.877   1.388   6.151  0.3089  0.6412  1.0870
   71MOL0     C 9671   9.878   1.479   6.272 -0.5583  0.3025  0.5451
   71MOL0     C 9672   9.985   1.588   6.267 -0.5234  0.7816  0.3898
   71MOL0     C 9673   9.961   1.696   6.378 -0.3428  0.4061 -0.1031
   71MOL0     C 9674  10.094   1.774   6.387 -0.3686  0.0821  0.0096
   71MOL0     C 9675  10.062   1.895   6.486  0.0608 -0.3821  0.5059
   71MOL0     C 9676  10.195   1.982   6.516  0.9013  0.5010  0.1298
   71MOL0     N 9677  10.275   1.914   6.609 -0.5287  0.4338 -0.3349
   71MOL0     C 9678  10.408   1.882   6.573  0.0395  0.4221 -0.7374
   71MOL0     C 9679  10.459   1.824   6.688  0.0314  0.5395  0.0855
   71MOL0     C 9680  10.608   1.795   6.720  0.3431 -0.7107  0.8909
   71MOL0     C 9681  10.683   1.917   6.743 -0.0305  0.3288  0.5130
   71MOL0     C 9682  10.822   1.880   6.788  0.6769 -0.0172  0.5352
   71MOL0     C 9683  10.899   1.786   6.689  0.2633 -0.0308 -0.0913
   71MOL0     O 9684  10.890   1.866   6.566 -0.9806 -0.0329 -0.5679
   71MOL0     C 9685  10.981   1.968   6.550  0.2762  0.1902 -0.6630
   71MOL0     C 9686  10.947   2.041   6.438 -0.2250 -0.8281 -0.1672
   71MOL0     C 9687  11.026   2.146   6.393  0.6909 -0.3878 -0.5593
   71MOL0     C 9688  10.995   2.210   6.255  0.4199 -0.3189 -1.1173
   71MOL0     C 9689  11.139   2.187   6.470 -0.0434 -0.7139  0.0041
   71MOL0     C 9690  11.215   2.314   6.448  0.1105 -0.4916 -0.1913
   71MOL0     O 9691  11.148   2.407   6.379  0.3639  0.3709 -0.3686
   71MOL0     C 9692  11.180   2.531   6.345 -0.1998 -0.0064 -0.2219
   71MOL0     C 9693  11.082   2.612   6.283 -0.5242 -0.1996  0.0563
   71MOL0     C 9694  11.116   2.738   6.225  0.4013  0.5048 -0.3918
   71MOL0     C 9695  11.246   2.789   6.229 -0.9749  0.3274 -0.1149
   71MOL0     O 9696  11.292   2.897   6.162  0.3466 -0.3265 -0.3843
   71MOL0     C 9697  11.218   2.975   6.063 -0.0786 -0.2663  0.5804
   71MOL0     C 9698  11.269   2.953   5.925  0.1392 -0.4394 -0.0345
   71MOL0     C 9699  11.219   2.823   5.875 -0.1737  0.0490 -0.0027
   71MOL0     C 9700  11.283   2.783   5.735  0.3767 -0.0956 -0.0558
   71MOL0     C 9701  11.238   2.639   5.694  0.1610 -0.4546  0.1903
   71MOL0     C 9702  11.244   2.616   5.538  0.1616 -0.2802 -0.2321
   71MOL0     C 9703  11.152   2.707   5.457  0.5254  0.4541  0.1116
   71MOL0     C 9704  11.012   2.735   5.518 -0.4019 -0.0235 -0.6427
   71MOL0    Cl 9705  10.926   2.825   5.401  0.3326  0.1273  0.8086
   71MOL0     C 9706  11.346   2.709   6.287  0.8425 -0.1323  0.2064
   71MOL0     C 9707  11.310   2.583   6.337 -0.2907  0.8541  0.1744
   71MOL0     O 9708  11.322   2.329   6.511  0.5804 -0.0202 -0.9650
   71MOL0     C 9709  11.169   2.108   6.592 -0.6515  0.6652 -0.0142
   71MOL0     C 9710  11.091   1.998   6.628 -0.3155  0.8336 -0.1094
   71MOL0     N 9711  10.360   1.811   6.785 -1.1188 -0.0795 -0.2598
   71MOL0     N 9712  10.251   1.872   6.739 -0.2110 -0.6778  0.1591
   71MOL0     C 9713  10.008   0.965   6.254  0.7183 -0.0792 -0.2534
   71MOL0     C 9714   9.959   0.833   6.248  1.1945  0.3883  0.1417
   71MOL0     C 9715   9.653   0.518   6.382  0.7558  0.2713  0.1417
   71MOL0     C 9716   9.556   0.507   6.282  0.2304 -0.3107 -0.1394
   71MOL0     C 9717   9.443   0.415   6.288 -0.1971  0.0297  0.5160
   71MOL0     C 9718   9.450   0.314   6.384 -0.7220  0.0347 -0.3476
   71MOL0     O 9719   9.358   0.215   6.419 -0.6792  1.0664 -0.1058
   71MOL0     C 9720   9.260   0.177   6.335 -0.6928  0.2656 -0.4565
   71MOL0     C 9721   9.121   0.236   6.377 -0.5152  0.0418 -0.6422
   71MOL0     C 9722   8.993   0.172   6.321  0.3819  0.8762  0.0890
   71MOL0     C 9723   8.864   0.257   6.346  0.6149  0.0386  0.2996
   71MOL0     C 9724   8.858   0.366   6.250  0.3682  0.0417  0.4640
   71MOL0     C 9725   8.866   0.466   6.180  0.0980 -0.1007 -0.4443
   71MOL0     C 9726   9.565   0.306   6.470 -0.1919  0.1892  0.5796
   71MOL0     C 9727   9.661   0.409   6.471 -0.8126  0.5027  0.3869
   71MOL0     C 9728   9.786   0.397   6.558  0.1605 -0.3020 -0.7347
   71MOL0     H 9729   9.634   0.909   6.275  0.7020 -1.5341  1.1568
   71MOL0     H 9730   9.717   1.121   6.276  1.9585  1.9743 -1.3202
   71MOL0     H 9731   9.979   1.214   6.078 -2.4487  0.1304  0.9355
   71MOL0     H 9732  10.083   1.325   6.156 -0.2686 -0.4631 -1.4804
   71MOL0     H 9733   9.883   1.446   6.059 -1.6059 -0.2380  0.3523
   71MOL0     H 9734   9.779   1.340   6.150  1.0002 -0.7882  0.4219
   71MOL0     H 9735   9.786   1.537   6.272 -0.2620  0.8357 -1.4281
   71MOL0     H 9736   9.878   1.419   6.363  0.0047  1.2010  1.1606
   71MOL0     H 9737  10.076   1.532   6.289 -1.9687 -1.6283  0.5363
   71MOL0     H 9738   9.982   1.636   6.169  0.7860 -0.8724 -0.4959
   71MOL0     H 9739   9.925   1.663   6.476  1.4889  1.7398  1.0790
   71MOL0     H 9740   9.900   1.778   6.339 -0.5534 -0.5640 -1.9440
   71MOL0     H 9741  10.183   1.722   6.425  1.4879  2.1170 -1.2903
   71MOL0     H 9742  10.126   1.813   6.290 -0.4565 -0.8892 -0.4224
   71MOL0     H 9743  10.020   1.859   6.580 -0.9990  0.8099  0.5194
   71MOL0     H 9744   9.986   1.952   6.431  1.0083 -2.8203 -3.7659
   71MOL0     H 9745  10.246   1.988   6.420  0.4343  2.9772 -0.0201
   71MOL0     H 9746  10.163   2.074   6.565 -1.4333 -0.3654  0.3836
   71MOL0     H 9747  10.466   1.904   6.483 -1.6098  0.6693 -1.7728
   71MOL0     H 9748  10.646   1.748   6.629  0.5519  0.8337  0.1451
   71MOL0     H 9749  10.610   1.728   6.806  1.3158 -1.7092  0.1162
   71MOL0     H 9750  10.685   1.988   6.659  2.9766  1.6243  1.5367
   71MOL0     H 9751  10.627   1.981   6.812  1.6982  1.6314  0.7732
   71MOL0     H 9752  10.892   1.963   6.797  0.8015 -0.2163  1.5794
   71MOL0     H 9753  10.824   1.835   6.888 -1.5335 -2.5060 -0.4139
   71MOL0     H 9754  10.996   1.770   6.737 -0.6949  1.4938  2.5401
   71MOL0     H 9755  10.858   1.688   6.663  2.9749 -0.4290 -3.7387
   71MOL0     H 9756  10.865   2.023   6.369 -0.4875 -1.7138  0.3466
   71MOL0     H 9757  11.085   2.257   6.212  0.5337  0.1480 -0.4036
   71MOL0     H 9758  10.914   2.284   6.253  0.1671 -0.6057 -1.4784
   71MOL0     H 9759  10.955   2.137   6.184  0.8373 -3.4874  1.6553
   71MOL0     H 9760  10.985   2.570   6.259 -0.7544  0.9707 -1.2410
   71MOL0     H 9761  11.032   2.781   6.172 -1.8927 -0.2359  2.3831
   71MOL0     H 9762  11.113   2.952   6.084  0.7695 -3.4725  1.7943
   71MOL0     H 9763  11.236   3.081   6.083  0.2122 -0.2913  0.4547
   71MOL0     H 9764  11.232   3.029   5.856 -0.5265 -1.0431 -0.3590
   71MOL0     H 9765  11.378   2.954   5.932  0.1155 -2.3801  1.5670
   71MOL0     H 9766  11.109   2.826   5.869 -0.2154 -0.1460  0.6100
   71MOL0     H 9767  11.229   2.742   5.947 -3.4972 -1.0540 -0.5903
   71MOL0     H 9768  11.392   2.777   5.739  0.2895 -2.1079  0.3286
   71MOL0     H 9769  11.241   2.861   5.671 -0.8920 -1.0219 -0.4091
   71MOL0     H 9770  11.281   2.562   5.758  1.0331  0.6887  1.0348
   71MOL0     H 9771  11.130   2.638   5.714 -0.2133 -1.7974 -1.6873
   71MOL0     H 9772  11.215   2.511   5.522 -0.5510 -0.1222 -0.0027
   71MOL0     H 9773  11.348   2.628   5.505 -0.6510  1.4379 -2.4677
   71MOL0     H 9774  11.134   2.651   5.365 -0.9826 -4.2196  2.9293
   71MOL0     H 9775  11.198   2.803   5.431  1.2541 -0.4343 -2.1186
   71MOL0     H 9776  11.027   2.797   5.607  2.8636  1.0404 -1.7909
   71MOL0     H 9777  10.951   2.647   5.536  1.6958 -1.1459  1.5277
   71MOL0     H 9778  11.450   2.734   6.272  0.2874  0.8752 -2.7377
   71MOL0     H 9779  11.395   2.522   6.366 -2.2018 -1.7422  0.6143
   71MOL0     H 9780  11.250   2.140   6.656 -1.9583  2.9710  0.5986
   71MOL0     H 9781  11.120   1.934   6.710 -0.8980 -2.4848 -2.2930
   71MOL0     H 9782  10.113   0.990   6.244 -0.0739  3.3985 -0.9475
   71MOL0     H 9783  10.024   0.746   6.251  1.8257  0.7967  4.4243
   71MOL0     H 9784   9.565   0.588   6.210  1.2991 -0.7410 -0.4962
   71MOL0     H 9785   9.358   0.420   6.220  2.2870 -4.1136 -3.4567
   71MOL0     H 9786   9.281   0.190   6.229 -1.0391  0.3291 -0.5189
   71MOL0     H 9787   9.253   0.068   6.341 -1.9751  0.1740 -2.4842
   71MOL0     H 9788   9.127   0.340   6.344 -0.0877 -0.0868 -0.9719
   71MOL0     H 9789   9.109   0.237   6.485  0.2444 -0.7696 -0.5403
   71MOL0     H 9790   8.999   0.156   6.213  1.5727 -0.0478  0.2662
   71MOL0     H 9791   8.975   0.079   6.376 -1.2065  0.3933 -1.1609
   71MOL0     H 9792   8.854   0.282   6.452 -3.0818 -0.1605  0.1169
   71MOL0     H 9793   8.775   0.195   6.336  0.7795 -0.0247 -0.9896
   71MOL0     H 9794   8.874   0.550   6.113 -1.2237  2.3894  2.3168
   71MOL0     H 9795   9.578   0.225   6.541  1.0307 -1.9353 -1.8964
   71MOL0     H 9796   9.797   0.485   6.622  1.5657 -0.4663 -0.7220
   71MOL0     H 9797   9.784   0.306   6.618  0.2856 -0.8797 -1.5847
   71MOL0     H 9798   9.880   0.382   6.504  0.2506 -2.7418 -0.0503
   72MOL0     O 9799   0.038   3.939   2.588  0.5106  0.2017 -0.5601
   72MOL0     C 9800   0.157   3.953   2.597  0.0881  0.3137  0.8463
   72MOL0     O 9801   0.232   4.035   2.526 -0.2402 -0.5930 -0.4060
   72MOL0     C 9802   0.176   4.109   2.422  0.0824 -0.5088  0.5865
   72MOL0     C 9803   0.209   4.245   2.421  0.7617  0.3084  0.1774
   72MOL0     C 9804   0.163   4.333   2.316 -0.0959 -0.0977  0.3920
   72MOL0     C 9805   0.069   4.280   2.223 -0.4057  0.6426 -0.2890
   72MOL0     O 9806   0.020   4.371   2.138  1.1250 -0.0596 -0.1894
   72MOL0     C 9807  -0.119   4.343   2.087 -0.1838  0.1227 -0.3459
   72MOL0     C 9808  -0.172   4.448   1.975  0.1102 -0.2954 -0.7297
   72MOL0     C 9809  -0.142   4.586   2.024 -0.1294 -0.2252 -0.1000
   72MOL0     C 9810  -0.178   4.701   1.918  0.4530  0.1099  0.1191
   72MOL0     C 9811  -0.080   4.824   1.913  0.0962 -0.3724 -0.0317
   72MOL0     C 9812  -0.129   4.943   1.825  0.3492  0.7603 -0.0762
   72MOL0     C 9813  -0.146   4.900   1.679 -0.2541  0.1162  0.8116
   72MOL0     C 9814  -0.291   4.893   1.620 -0.1315  1.5735 -0.3193
   72MOL0     N 9815  -0.347   5.027   1.600 -0.4073 -0.0069  0.6151
   72MOL0     C 9816  -0.384   5.123   1.691 -0.5640 -0.2836 -0.8194
   72MOL0     C 9817  -0.379   5.238   1.619 -0.0099 -0.3535 -0.2910
   72MOL0     C 9818  -0.416   5.373   1.678 -0.3760 -0.3657 -0.2546
   72MOL0     C 9819  -0.302   5.485   1.665  0.1627  0.1368  0.4511
   72MOL0     C 9820  -0.359   5.604   1.747  0.2892 -0.6155  0.0512
   72MOL0     C 9821  -0.275   5.731   1.723 -0.5502  0.1168  0.1283
   72MOL0     O 9822  -0.351   5.842   1.776 -0.3495  0.1217  0.0142
   72MOL0     C 9823  -0.328   5.884   1.905  0.8134 -0.2124 -0.0845
   72MOL0     C 9824  -0.395   6.009   1.944 -1.0522  1.3167  0.0294
   72MOL0     C 9825  -0.384   6.060   2.067  0.1877  0.0815 -0.3406
   72MOL0     C 9826  -0.480   6.159   2.111  0.7458  0.9330 -0.0035
   72MOL0     C 9827  -0.301   5.986   2.165  0.4416 -0.4002 -0.0122
   72MOL0     C 9828  -0.298   6.018   2.309  0.2359  0.3508 -0.2354
   72MOL0     O 9829  -0.203   5.941   2.388 -0.1460 -0.4054 -0.4328
   72MOL0     C 9830  -0.180   5.969   2.517 -0.1618  0.0706 -0.1334
   72MOL0     C 9831  -0.144   5.866   2.609  0.4626 -0.2465 -0.4659
   72MOL0     C 9832  -0.111   5.904   2.744  1.1374 -0.0069 -0.7552
   72MOL0     C 9833  -0.102   6.037   2.781 -0.0500  0.0262  1.1230
   72MOL0     O 9834  -0.062   6.070   2.906 -0.2795 -0.6343 -0.6003
   72MOL0     C 9835  -0.154   6.137   2.996  0.2218  1.0942 -1.0538
   72MOL0     C 9836  -0.147   6.092   3.139  0.1605  0.5270 -1.0433
   72MOL0     C 9837  -0.246   6.171   3.232  0.6770 -0.7128  0.0728
   72MOL0     C 9838  -0.268   6.111   3.373  0.3519  0.5660  0.7993
   72MOL0     C 9839  -0.403   6.142   3.422  0.5820  0.0821  0.6814
   72MOL0     C 9840  -0.447   6.044   3.532  1.2618  0.8515  0.0604
   72MOL0     C 9841  -0.569   6.096   3.601 -0.7615  0.3500  0.4278
   72MOL0     C 9842  -0.588   6.075   3.759 -0.7832  0.3579 -0.6766
   72MOL0    Cl 9843  -0.585   5.900   3.798 -0.0706 -0.3777 -0.0619
   72MOL0     C 9844  -0.138   6.141   2.692 -0.1831 -0.0490 -0.6894
   72MOL0     C 9845  -0.167   6.110   2.560  0.1433  0.3330 -0.4187
   72MOL0     O 9846  -0.401   6.066   2.358  1.0280  0.0994 -0.1710
   72MOL0     C 9847  -0.223   5.878   2.119  0.1725  0.7784  0.5525
   72MOL0     C 9848  -0.247   5.822   2.000 -0.4222  0.0147 -0.3651
   72MOL0     N 9849  -0.369   5.210   1.489  0.7997 -0.0983 -0.9820
   72MOL0     N 9850  -0.356   5.082   1.475  0.2852 -0.8862  0.6839
   72MOL0     C 9851   0.022   4.147   2.238 -0.2782  1.1145  1.0665
   72MOL0     C 9852   0.086   4.061   2.327  0.7474 -0.1537  0.4159
   72MOL0     C 9853   0.234   3.886   2.698  1.0169  1.2818 -0.1025
   72MOL0     C 9854   0.342   3.951   2.755 -0.5191 -0.8775 -0.3061
   72MOL0     C 9855   0.418   3.882   2.850  0.5989  0.4977  0.2595
   72MOL0     C 9856   0.399   3.748   2.880  0.2264 -0.1852 -0.1430
   72MOL0     O 9857   0.475   3.675   2.973  0.2757 -0.3823  0.2768
   72MOL0     C 9858   0.491   3.736   3.098 -0.3914  0.2846 -0.2162
   72MOL0     C 9859   0.367   3.762   3.181  0.1491 -0.9187 -0.1597
   72MOL0     C 9860   0.299   3.633   3.237  0.2836 -0.2317 -0.5317
   72MOL0     C 9861   0.229   3.547   3.134 -0.4138  0.5879 -0.9835
   72MOL0     C 9862   0.137   3.443   3.176  0.7319 -1.0339  0.7757
   72MOL0     C 9863   0.058   3.362   3.229  0.3238 -0.0075 -0.4262
   72MOL0     C 9864   0.298   3.679   2.816 -0.6983 -0.6057 -0.6405
   72MOL0     C 9865   0.210   3.748   2.730  0.2298  0.4340 -0.0156
   72MOL0     C 9866   0.086   3.675   2.669 -0.0731 -0.4019  0.0177
   72MOL0     H 9867   0.259   4.279   2.511 -1.9485 -1.3709  2.4959
   72MOL0     H 9868   0.184   4.439   2.305  0.0189 -0.4112 -4.9425
   72MOL0     H 9869  -0.192   4.332   2.168 -0.2180 -3.6477 -0.6881
   72MOL0     H 9870  -0.112   4.256   2.020 -1.0255  0.8723 -1.4288
   72MOL0     H 9871  -0.117   4.426   1.883 -0.8732 -0.8725 -1.1957
   72MOL0     H 9872  -0.279   4.431   1.960  0.0665 -1.2637  0.5107
   72MOL0     H 9873  -0.202   4.603   2.114  0.1670 -0.8637  0.2209
   72MOL0     H 9874  -0.035   4.595   2.040  0.8071 -1.6679 -4.2064
   72MOL0     H 9875  -0.179   4.647   1.822  1.5316 -1.2593  0.8360
   72MOL0     H 9876  -0.277   4.729   1.954  0.4846 -1.5052  1.6049
   72MOL0     H 9877   0.018   4.797   1.874  1.6360  0.4655  2.9630
   72MOL0     H 9878  -0.069   4.853   2.018 -0.9306 -1.9057  0.5448
   72MOL0     H 9879  -0.224   4.991   1.848  0.1045  1.5034 -2.3817
   72MOL0     H 9880  -0.068   5.033   1.832 -0.1124  1.1840 -1.2178
   72MOL0     H 9881  -0.086   4.810   1.663 -0.4824  0.3526 -1.7107
   72MOL0     H 9882  -0.089   4.976   1.626  2.2966 -1.2149  1.5103
   72MOL0     H 9883  -0.289   4.838   1.526  0.2768  3.5292 -1.5117
   72MOL0     H 9884  -0.354   4.837   1.690  1.9702 -0.2389  0.2766
   72MOL0     H 9885  -0.403   5.115   1.797  0.2446 -0.6767 -0.6974
   72MOL0     H 9886  -0.446   5.371   1.783  0.8856  0.0499  0.1310
   72MOL0     H 9887  -0.505   5.408   1.624 -0.6698 -0.0896  0.4092
   72MOL0     H 9888  -0.205   5.445   1.697  0.1099 -0.4167 -0.0770
   72MOL0     H 9889  -0.293   5.527   1.564  1.5256 -0.6292  0.2306
   72MOL0     H 9890  -0.460   5.626   1.712 -0.1897 -0.3980  1.5371
   72MOL0     H 9891  -0.356   5.589   1.855 -2.5920  0.4417  0.3547
   72MOL0     H 9892  -0.178   5.711   1.769  0.2078 -0.5263 -1.6849
   72MOL0     H 9893  -0.254   5.751   1.617  0.6300 -0.9872  0.1331
   72MOL0     H 9894  -0.466   6.048   1.871 -2.1304  1.2886  1.0374
   72MOL0     H 9895  -0.527   6.206   2.024  2.1025  3.6614  0.6047
   72MOL0     H 9896  -0.446   6.243   2.173 -1.5073  2.5889 -0.8691
   72MOL0     H 9897  -0.549   6.112   2.182  2.0193  1.3167  1.5535
   72MOL0     H 9898  -0.152   5.761   2.584 -2.9645 -0.8637  2.4664
   72MOL0     H 9899  -0.105   5.835   2.827 -1.5577  1.0884  0.4570
   72MOL0     H 9900  -0.146   6.246   2.991  1.0687  1.1228  0.3104
   72MOL0     H 9901  -0.257   6.105   2.979  0.1436 -0.0567  1.1685
   72MOL0     H 9902  -0.163   5.984   3.147  1.3945  0.4653  1.9700
   72MOL0     H 9903  -0.046   6.111   3.177 -0.4273  1.6445  0.0179
   72MOL0     H 9904  -0.333   6.197   3.171  0.9876  0.5693  0.1275
   72MOL0     H 9905  -0.210   6.274   3.246  1.0655  0.0261 -4.6927
   72MOL0     H 9906  -0.203   6.156   3.449 -1.0524  1.5070  1.4763
   72MOL0     H 9907  -0.245   6.004   3.371  2.3705  0.9594  0.3198
   72MOL0     H 9908  -0.384   6.241   3.464  0.5075  1.4180 -2.1548
   72MOL0     H 9909  -0.487   6.153   3.353 -0.7238  1.2977  2.3905
   72MOL0     H 9910  -0.359   6.035   3.597  0.7204 -0.2692  0.6677
   72MOL0     H 9911  -0.461   5.942   3.494  0.5049  0.2224  1.9479
   72MOL0     H 9912  -0.654   6.067   3.540 -0.2072 -3.0412  1.0851
   72MOL0     H 9913  -0.571   6.204   3.587  2.1363  0.3503 -0.6495
   72MOL0     H 9914  -0.684   6.111   3.795 -1.5820 -1.4783 -0.8633
   72MOL0     H 9915  -0.505   6.122   3.812  1.3941 -1.8701 -1.8478
   72MOL0     H 9916  -0.134   6.244   2.727 -1.2668  0.5020 -2.0550
   72MOL0     H 9917  -0.194   6.195   2.498  0.0711 -0.0655 -0.9474
   72MOL0     H 9918  -0.147   5.837   2.185  1.8025  2.1738 -0.3853
   72MOL0     H 9919  -0.198   5.729   1.973 -0.6796  0.0791 -1.0766
   72MOL0     H 9920  -0.055   4.093   2.183  0.2772  0.7241  0.6503
   72MOL0     H 9921   0.060   3.956   2.327  0.8216 -0.2612 -2.7452
   72MOL0     H 9922   0.358   4.056   2.736 -3.4316 -0.5707 -1.5440
   72MOL0     H 9923   0.501   3.934   2.897  0.5445 -0.5036  1.5181
   72MOL0     H 9924   0.562   3.675   3.155  0.0556 -2.6155 -3.5399
   72MOL0     H 9925   0.539   3.834   3.085  0.1831 -0.1138 -1.1881
   72MOL0     H 9926   0.292   3.816   3.122  1.9958  0.8278 -1.0453
   72MOL0     H 9927   0.386   3.819   3.273  0.1692  1.4857 -1.5586
   72MOL0     H 9928   0.383   3.573   3.274  0.1811 -0.0872 -0.0503
   72MOL0     H 9929   0.225   3.666   3.311  2.3239  2.5622  0.4819
   72MOL0     H 9930   0.308   3.496   3.080  1.8843  0.1593  2.4904
   72MOL0     H 9931   0.169   3.614   3.071 -2.5571  0.8238  1.1344
   72MOL0     H 9932  -0.009   3.296   3.280  0.3252  0.2309 -0.1096
   72MOL0     H 9933   0.287   3.571   2.826  4.7837 -1.2492  1.9908
   72MOL0     H 9934   0.083   3.672   2.560 -1.4367  2.3420 -0.1118
   72MOL0     H 9935   0.084   3.575   2.713  2.0719  1.0042  3.7481
   72MOL0     H 9936  -0.015   3.715   2.686 -0.8727 -1.0350 -2.7141
   73MOL0     O 9937   8.701   8.250   1.361  0.1366  0.2980 -1.2038
   73MOL0     C 9938   8.718   8.373   1.356  0.3163 -0.6152  0.7331
   73MOL0     O 9939   8.793   8.440   1.270 -0.5627 -0.2565 -0.6308
   73MOL0     C 9940   8.857   8.373   1.171  0.1057 -0.3201  1.3174
   73MOL0     C 9941   8.990   8.331   1.171  0.2914  0.1148  0.5854
   73MOL0     C 9942   9.033   8.249   1.058 -0.0994  0.0562  0.0202
   73MOL0     C 9943   8.947   8.221   0.952 -0.5508 -0.1223 -0.3143
   73MOL0     O 9944   9.011   8.150   0.849  0.7418  0.1702 -0.3665
   73MOL0     C 9945   9.007   8.209   0.714 -0.1724 -0.3458  0.3126
   73MOL0     C 9946   8.926   8.128   0.615 -0.6363  0.3810  0.1651
   73MOL0     C 9947   8.924   8.201   0.481 -0.2665  0.5273  0.2564
   73MOL0     C 9948   8.865   8.338   0.478 -0.5068 -0.3339 -0.1522
   73MOL0     C 9949   8.784   8.373   0.357  0.0497  0.1271 -0.7544
   73MOL0     C 9950   8.716   8.519   0.374  0.3514  0.6278 -0.4614
   73MOL0     C 9951   8.656   8.581   0.242  0.0320  0.4631 -0.8779
   73MOL0     C 9952   8.567   8.485   0.163 -0.2514  0.2719  1.1298
   73MOL0     N 9953   8.500   8.557   0.049 -0.1177 -0.7018 -0.2188
   73MOL0     C 9954   8.381   8.622   0.046  0.3593 -0.2875 -0.7137
   73MOL0     C 9955   8.378   8.689  -0.065 -0.0565 -0.1353  1.0959
   73MOL0     C 9956   8.277   8.772  -0.118 -0.6550  0.4495 -0.5158
   73MOL0     C 9957   8.319   8.825  -0.253  0.9060 -0.1735  0.0116
   73MOL0     C 9958   8.213   8.935  -0.302  0.0908 -0.6038  0.4720
   73MOL0     C 9959   8.271   9.020  -0.425 -0.1529 -0.4778  0.5177
   73MOL0     O 9960   8.406   9.059  -0.396 -0.3165  0.0764  0.6729
   73MOL0     C 9961   8.409   9.179  -0.329 -0.0773  0.0338  0.0208
   73MOL0     C 9962   8.413   9.185  -0.183  1.0888 -0.2067  0.1678
   73MOL0     C 9963   8.443   9.308  -0.128 -0.1251 -0.5393 -0.0182
   73MOL0     C 9964   8.460   9.308   0.019 -0.7588  0.4088  0.3401
   73MOL0     C 9965   8.458   9.430  -0.210 -0.0557  0.2412 -0.2481
   73MOL0     C 9966   8.493   9.572  -0.153  0.7915  0.3220  0.4533
   73MOL0     O 9967   8.503   9.676  -0.250 -0.2506  0.0558  0.2609
   73MOL0     C 9968   8.459   9.803  -0.210  0.7539  0.5326 -0.4905
   73MOL0     C 9969   8.345   9.829  -0.141  0.0036  0.2406 -0.2499
   73MOL0     C 9970   8.303   9.953  -0.103  0.4883  0.3616 -0.0023
   73MOL0     C 9971   8.378  10.060  -0.152  0.0863  0.2189  0.9593
   73MOL0     O 9972   8.343  10.196  -0.129 -1.3564  0.3278  0.3952
   73MOL0     C 9973   8.274  10.212  -0.004  0.3163 -0.2749  0.5154
   73MOL0     C 9974   8.243  10.354   0.011 -0.1853  0.3029 -0.2537
   73MOL0     C 9975   8.183  10.429  -0.102 -0.2063  0.0622  0.0786
   73MOL0     C 9976   8.189  10.578  -0.071  0.2775  0.0869  0.4654
   73MOL0     C 9977   8.224  10.665  -0.193 -0.3888 -1.6997 -0.5192
   73MOL0     C 9978   8.250  10.809  -0.142 -0.1166  0.4052 -0.4472
   73MOL0     C 9979   8.118  10.899  -0.124 -0.3977  0.4368 -0.4472
   73MOL0     C 9980   8.063  10.953  -0.251 -0.0782 -0.5748  0.9874
   73MOL0    Cl 9981   7.956  11.096  -0.218  0.1954  0.5422 -0.1263
   73MOL0     C 9982   8.482  10.038  -0.249  0.0677  0.1992 -0.0467
   73MOL0     C 9983   8.525   9.910  -0.264 -0.1288 -0.9180 -0.3513
   73MOL0     O 9984   8.512   9.582  -0.030  0.0844 -0.2711  0.4022
   73MOL0     C 9985   8.449   9.420  -0.347 -0.7752  0.4890 -0.3325
   73MOL0     C 9986   8.431   9.292  -0.404  0.8897 -0.4943  0.3785
   73MOL0     N 9987   8.497   8.662  -0.135 -0.3902  0.1120 -0.3453
   73MOL0     N 9988   8.569   8.584  -0.061 -0.5978  0.7217  0.1790
   73MOL0     C 9989   8.821   8.267   0.954  1.0661 -0.6485  0.3297
   73MOL0     C 9990   8.777   8.343   1.064 -0.0841  1.3089  0.0596
   73MOL0     C 9991   8.649   8.455   1.461 -0.8951 -0.4811 -0.2440
   73MOL0     C 9992   8.611   8.387   1.574 -0.3932  0.3438  0.7433
   73MOL0     C 9993   8.565   8.457   1.686  0.3847 -0.7980  0.6708
   73MOL0     C 9994   8.563   8.593   1.688  1.3973  0.3451 -0.1180
   73MOL0     O 9995   8.497   8.643   1.799  0.0058 -0.1385 -0.0262
   73MOL0     C 9996   8.379   8.711   1.780  0.3031  0.0486 -0.5456
   73MOL0     C 9997   8.335   8.760   1.919 -0.0435  0.6319 -1.2302
   73MOL0     C 9998   8.288   8.649   2.019 -0.4159 -0.1774  0.6103
   73MOL0     C 9999   8.251   8.708   2.155  0.5357  0.4314  0.2422
   73MOL0     C10000   8.144   8.807   2.168 -0.0384  0.2386 -0.5757
   73MOL0     C10001   8.052   8.888   2.158 -0.8277  0.0427 -0.2567
   73MOL0     C10002   8.593   8.660   1.576 -0.0205 -0.7481 -0.4435
   73MOL0     C10003   8.637   8.593   1.460 -0.1562 -0.2226  1.0677
   73MOL0     C10004   8.667   8.683   1.332 -0.3907 -0.0423  1.4436
   73MOL0     H10005   9.076   8.357   1.231  0.4417  2.6888 -0.6158
   73MOL0     H10006   9.136   8.217   1.051 -0.4626 -1.0786 -0.5560
   73MOL0     H10007   9.114   8.213   0.691  0.4430 -2.1259  2.5428
   73MOL0     H10008   8.972   8.312   0.725  0.5695  0.2561 -2.2231
   73MOL0     H10009   8.962   8.025   0.609 -1.2872  0.1734 -0.3507
   73MOL0     H10010   8.822   8.115   0.644 -0.7430 -1.5979 -0.9308
   73MOL0     H10011   9.022   8.204   0.434 -0.8076  0.1029 -0.9600
   73MOL0     H10012   8.864   8.132   0.420 -3.1683  1.6278  1.6826
   73MOL0     H10013   8.818   8.367   0.572  1.2037  0.3684  0.5405
   73MOL0     H10014   8.947   8.409   0.465  2.0559 -2.8181  1.2729
   73MOL0     H10015   8.703   8.300   0.345  0.9987 -1.0570 -0.2246
   73MOL0     H10016   8.848   8.364   0.269 -0.7732 -1.7231 -1.2205
   73MOL0     H10017   8.644   8.502   0.455  2.5513 -0.4776  1.3696
   73MOL0     H10018   8.780   8.594   0.422 -1.1082  0.4115  2.0328
   73MOL0     H10019   8.743   8.617   0.187 -0.4424  1.8522 -0.7604
   73MOL0     H10020   8.601   8.669   0.276 -1.7596 -1.6037  2.0705
   73MOL0     H10021   8.623   8.397   0.130 -1.9745 -0.4270 -0.1156
   73MOL0     H10022   8.487   8.446   0.227 -0.2378  2.6135  2.6742
   73MOL0     H10023   8.295   8.629   0.112  0.0951 -0.4930 -1.0321
   73MOL0     H10024   8.259   8.861  -0.057 -1.4035 -0.4520  0.6461
   73MOL0     H10025   8.178   8.728  -0.134 -1.5835 -0.4587  5.2953
   73MOL0     H10026   8.425   8.850  -0.259  1.6047 -3.0491 -1.2623
   73MOL0     H10027   8.322   8.737  -0.318  0.1166 -1.9649  2.2590
   73MOL0     H10028   8.124   8.878  -0.331  1.2956 -2.0299 -0.5958
   73MOL0     H10029   8.199   9.005  -0.219 -0.5484 -2.6819  2.2044
   73MOL0     H10030   8.263   8.967  -0.520  6.5281 -1.2370 -0.1055
   73MOL0     H10031   8.214   9.109  -0.453  1.6581  0.6529  0.2195
   73MOL0     H10032   8.396   9.095  -0.125 -0.2551 -0.4840 -0.6006
   73MOL0     H10033   8.552   9.359   0.048  2.0829 -2.7588 -2.2215
   73MOL0     H10034   8.477   9.206   0.058  0.4786  0.6503  0.4870
   73MOL0     H10035   8.375   9.362   0.060 -0.6484  1.5099 -0.8401
   73MOL0     H10036   8.300   9.738  -0.104  3.6149 -1.3116  0.6928
   73MOL0     H10037   8.209   9.964  -0.050  0.0987  0.5079 -0.7092
   73MOL0     H10038   8.182  10.153   0.001 -0.9590  1.5735 -0.1928
   73MOL0     H10039   8.337  10.173   0.077  0.1641 -2.8762 -0.4960
   73MOL0     H10040   8.181  10.346   0.101 -1.3190  2.6322 -0.7609
   73MOL0     H10041   8.340  10.397   0.039 -0.2510  0.9172 -0.9757
   73MOL0     H10042   8.079  10.400  -0.115  0.3370 -0.6959 -4.1700
   73MOL0     H10043   8.238  10.404  -0.194 -0.1297  2.5277 -0.6327
   73MOL0     H10044   8.255  10.602   0.013  0.5889  0.9771 -0.0276
   73MOL0     H10045   8.089  10.602  -0.035  0.6923  0.7934  1.1509
   73MOL0     H10046   8.312  10.622  -0.241  1.4568  1.5279 -0.2766
   73MOL0     H10047   8.152  10.674  -0.275  2.8848 -1.3135 -3.5662
   73MOL0     H10048   8.312  10.857  -0.218 -2.6389  0.5586 -2.5736
   73MOL0     H10049   8.293  10.789  -0.043 -0.5318 -0.1268 -0.3690
   73MOL0     H10050   8.150  10.982  -0.060 -1.2754  0.2696  0.2319
   73MOL0     H10051   8.037  10.847  -0.073 -0.6988  1.7502  0.4737
   73MOL0     H10052   8.015  10.884  -0.321 -0.5623  1.7550 -1.1351
   73MOL0     H10053   8.149  10.996  -0.303  0.8138 -3.3331  0.0203
   73MOL0     H10054   8.547  10.112  -0.294  0.3070  0.7689  1.1838
   73MOL0     H10055   8.605   9.896  -0.336  0.1775  0.9358 -0.4235
   73MOL0     H10056   8.457   9.508  -0.410  0.2303  1.6263  1.3129
   73MOL0     H10057   8.421   9.293  -0.512  3.6741  3.7440 -0.0664
   73MOL0     H10058   8.767   8.244   0.863  1.7990  2.2031 -0.9254
   73MOL0     H10059   8.673   8.374   1.060 -0.6442 -0.4753 -0.1675
   73MOL0     H10060   8.625   8.280   1.586  0.1524  0.5335  2.0063
   73MOL0     H10061   8.538   8.406   1.778 -1.1514 -0.7793  0.2612
   73MOL0     H10062   8.394   8.790   1.706  2.7211 -0.9900 -1.2340
   73MOL0     H10063   8.294   8.658   1.736  0.1310 -0.6595  0.5996
   73MOL0     H10064   8.242   8.816   1.907 -1.8566 -2.1872 -1.3868
   73MOL0     H10065   8.421   8.812   1.962  0.0273 -1.9777  2.2307
   73MOL0     H10066   8.199   8.600   1.979 -1.1594  2.1936 -0.8567
   73MOL0     H10067   8.372   8.582   2.038  0.2084  0.6087  0.6415
   73MOL0     H10068   8.341   8.761   2.188  0.2195  1.9089 -1.1288
   73MOL0     H10069   8.222   8.628   2.224 -2.5925  0.9810 -0.2793
   73MOL0     H10070   7.968   8.953   2.145 -0.4400  1.0512  1.8033
   73MOL0     H10071   8.602   8.767   1.593  1.8701 -1.2063  2.0447
   73MOL0     H10072   8.621   8.638   1.243  2.3272 -1.2875  0.5251
   73MOL0     H10073   8.624   8.782   1.348 -2.6047 -0.7717  0.4186
   73MOL0     H10074   8.773   8.689   1.303 -1.1286 -3.3201 -3.0400
   74MOL0     O10075   8.871  11.115   3.592  0.2197 -0.5536 -0.5541
   74MOL0     C10076   8.884  11.053   3.489 -0.3265  0.4295 -1.4780
   74MOL0     O10077   8.779  10.993   3.425  0.8136  0.1316  0.7810
   74MOL0     C10078   8.650  11.006   3.476  0.2895  0.5473 -0.1178
   74MOL0     C10079   8.614  10.929   3.591 -0.0923 -0.1194  0.9428
   74MOL0     C10080   8.482  10.933   3.638 -0.4725 -0.1867 -0.2847
   74MOL0     C10081   8.389  11.027   3.578  0.5449 -0.2801 -0.4079
   74MOL0     O10082   8.262  11.019   3.631 -0.0487  0.3321  0.2147
   74MOL0     C10083   8.155  11.082   3.552 -0.7788  0.7585 -0.9493
   74MOL0     C10084   8.027  11.016   3.584 -0.2875 -0.4761 -0.3153
   74MOL0     C10085   7.894  11.059   3.503 -0.2568  0.2842 -0.0996
   74MOL0     C10086   7.784  10.966   3.547  0.2527  0.0405 -0.1900
   74MOL0     C10087   7.639  10.973   3.494  0.3723 -0.3615  0.0850
   74MOL0     C10088   7.529  10.888   3.563  0.5541 -0.0079 -0.6390
   74MOL0     C10089   7.383  10.934   3.538  0.0291 -0.2946 -0.1066
   74MOL0     C10090   7.349  10.946   3.393 -0.3293  0.0238 -0.0093
   74MOL0     N10091   7.209  10.997   3.394  0.4193 -0.7307 -0.1673
   74MOL0     C10092   7.173  11.129   3.411 -0.5477 -0.2301  0.0369
   74MOL0     C10093   7.039  11.123   3.427 -0.3963 -0.1509 -0.2389
   74MOL0     C10094   6.961  11.256   3.440  1.2045 -0.7647  0.3113
   74MOL0     C10095   6.928  11.299   3.583  0.5638 -0.0276 -0.1972
   74MOL0     C10096   6.816  11.197   3.621 -1.1598 -0.9672  0.2820
   74MOL0     C10097   6.684  11.230   3.567  0.5282 -0.9907 -0.3842
   74MOL0     O10098   6.586  11.181   3.661  0.3558 -0.3736  0.0662
   74MOL0     C10099   6.453  11.239   3.669 -0.0304 -0.5614 -0.1303
   74MOL0     C10100   6.416  11.369   3.628  0.2126 -0.2436  0.6639
   74MOL0     C10101   6.281  11.409   3.621 -0.1054 -0.3530  1.0621
   74MOL0     C10102   6.272  11.563   3.586 -0.0821  0.1248 -0.3422
   74MOL0     C10103   6.175  11.321   3.640 -0.2460  0.3015 -0.3383
   74MOL0     C10104   6.037  11.357   3.637  0.4015 -0.1447  0.3365
   74MOL0     O10105   5.960  11.250   3.595  0.1785  0.1558  0.7857
   74MOL0     C10106   5.834  11.274   3.539 -0.0691  0.6041  0.2135
   74MOL0     C10107   5.734  11.198   3.604 -1.0844  0.4225 -0.5025
   74MOL0     C10108   5.608  11.209   3.549 -1.1295 -0.3611 -1.2566
   74MOL0     C10109   5.573  11.285   3.437  0.0201 -0.1919 -0.2817
   74MOL0     O10110   5.436  11.274   3.399 -0.1980  0.2621  0.1870
   74MOL0     C10111   5.381  11.386   3.337 -0.1381  0.2601 -0.4753
   74MOL0     C10112   5.375  11.377   3.182 -0.1688 -0.8136 -0.6430
   74MOL0     C10113   5.284  11.252   3.149 -0.1226  0.4148 -0.4777
   74MOL0     C10114   5.126  11.263   3.136  0.7274 -0.2206 -0.3720
   74MOL0     C10115   5.062  11.130   3.119 -1.2296  0.5273  0.3369
   74MOL0     C10116   5.071  11.077   2.971 -1.4233 -0.0602  0.6113
   74MOL0     C10117   5.017  10.945   2.959 -0.2194  0.4022 -0.3262
   74MOL0     C10118   5.096  10.846   2.869 -0.0573  1.0798 -0.2727
   74MOL0    Cl10119   4.993  10.704   2.828  0.4692  0.3450 -0.1606
   74MOL0     C10120   5.674  11.354   3.369  0.0626 -0.5376  0.3200
   74MOL0     C10121   5.809  11.348   3.418  0.2690 -1.1515 -0.2936
   74MOL0     O10122   5.998  11.472   3.650 -0.5398 -0.6709 -0.1063
   74MOL0     C10123   6.210  11.185   3.676 -0.4093  0.4126 -0.4170
   74MOL0     C10124   6.347  11.147   3.694  0.5186 -0.6618 -0.6762
   74MOL0     N10125   6.996  10.995   3.425 -0.1688 -0.6826  0.3171
   74MOL0     N10126   7.098  10.920   3.401  0.4163  0.4921 -0.6824
   74MOL0     C10127   8.431  11.110   3.470  1.3362  0.6211 -0.1655
   74MOL0     C10128   8.558  11.090   3.417 -0.6870 -0.8973  0.2289
   74MOL0     C10129   9.018  11.013   3.445  0.0002  0.6580 -0.2130
   74MOL0     C10130   9.028  10.911   3.356 -0.5037  0.0995 -0.5674
   74MOL0     C10131   9.151  10.861   3.316 -0.2964  0.0887 -0.1746
   74MOL0     C10132   9.271  10.927   3.355 -0.0396  0.2142  0.6341
   74MOL0     O10133   9.392  10.889   3.305  0.2960  0.0784  0.3698
   74MOL0     C10134   9.413  10.764   3.246 -0.3924  0.5924 -0.6707
   74MOL0     C10135   9.402  10.770   3.097 -0.8962  0.5281 -0.2319
   74MOL0     C10136   9.467  10.638   3.042  0.8647  0.0945  1.0669
   74MOL0     C10137   9.458  10.630   2.886  0.4915 -0.1770  0.1075
   74MOL0     C10138   9.525  10.727   2.804 -0.8914  0.5273 -0.6648
   74MOL0     C10139   9.596  10.814   2.746  0.1735  0.8421  0.0818
   74MOL0     C10140   9.266  11.040   3.434 -0.5442  0.0308  0.1074
   74MOL0     C10141   9.137  11.075   3.497  0.0115  0.4765  0.2273
   74MOL0     C10142   9.152  11.186   3.596 -0.0751  0.4067  1.0152
   74MOL0     H10143   8.676  10.850   3.632 -1.8578 -1.4966  1.0825
   74MOL0     H10144   8.464  10.849   3.705  0.7476 -0.0542  0.2337
   74MOL0     H10145   8.172  11.070   3.445 -0.2789 -1.4967 -0.6767
   74MOL0     H10146   8.134  11.186   3.579  3.2153  0.9596  2.3885
   74MOL0     H10147   8.042  10.909   3.563 -1.7681 -1.2522  2.1374
   74MOL0     H10148   7.999  11.019   3.690 -1.0381  0.7255 -0.5385
   74MOL0     H10149   7.873  11.164   3.525  0.8356 -0.0104  2.7453
   74MOL0     H10150   7.916  11.041   3.397 -3.1558  0.7942 -0.8813
   74MOL0     H10151   7.819  10.862   3.544 -0.0514 -0.0810  0.2401
   74MOL0     H10152   7.763  10.988   3.653 -0.8532  2.2047 -0.7912
   74MOL0     H10153   7.651  10.932   3.393 -2.0558  0.6210 -0.6771
   74MOL0     H10154   7.606  11.077   3.484 -1.2870 -0.9292 -0.5797
   74MOL0     H10155   7.538  10.783   3.536 -0.4993 -0.5357  0.9403
   74MOL0     H10156   7.544  10.893   3.671  1.5052  1.5835 -0.8097
   74MOL0     H10157   7.362  11.031   3.583 -1.8333 -1.1970  1.0924
   74MOL0     H10158   7.308  10.880   3.596 -0.5312 -1.0179 -1.4597
   74MOL0     H10159   7.419  11.015   3.346  0.0872 -1.1819 -1.2331
   74MOL0     H10160   7.355  10.848   3.343  2.2362 -1.2599  2.5513
   74MOL0     H10161   7.237  11.216   3.411 -1.2487  0.3073  1.3782
   74MOL0     H10162   6.865  11.236   3.391 -0.5975  1.1866  2.7873
   74MOL0     H10163   7.012  11.337   3.387  0.8699 -0.2263  0.8012
   74MOL0     H10164   7.014  11.284   3.650  0.4667 -0.3429 -0.1377
   74MOL0     H10165   6.892  11.401   3.591 -1.0595 -0.6516  1.0993
   74MOL0     H10166   6.843  11.093   3.601  2.2805  0.1381 -1.6829
   74MOL0     H10167   6.826  11.202   3.730  3.5254 -1.3142  0.0787
   74MOL0     H10168   6.668  11.338   3.560  4.2596 -0.4480 -3.7290
   74MOL0     H10169   6.658  11.194   3.467 -0.4652  1.2405 -0.9961
   74MOL0     H10170   6.489  11.450   3.628  1.2888 -1.0900 -2.3755
   74MOL0     H10171   6.224  11.574   3.488  0.3247  1.5416 -0.3984
   74MOL0     H10172   6.363  11.622   3.597 -0.2057 -0.0143  1.8978
   74MOL0     H10173   6.202  11.616   3.651 -0.9339  0.6856 -1.6703
   74MOL0     H10174   5.757  11.138   3.691  2.4639  0.5220 -1.2380
   74MOL0     H10175   5.538  11.155   3.612  3.0075 -1.6951  2.7518
   74MOL0     H10176   5.274  11.383   3.362 -0.2522  1.5108 -0.7663
   74MOL0     H10177   5.429  11.475   3.377  3.4287 -1.1131 -1.2950
   74MOL0     H10178   5.336  11.469   3.139  1.1709  1.7280  3.0201
   74MOL0     H10179   5.474  11.359   3.139  0.4095  2.7740 -1.0682
   74MOL0     H10180   5.307  11.186   3.232  2.0763  2.5527  0.7632
   74MOL0     H10181   5.326  11.223   3.052 -2.6195  2.0801 -2.1846
   74MOL0     H10182   5.092  11.334   3.060  0.1745 -2.6755 -2.5546
   74MOL0     H10183   5.089  11.308   3.229  3.2482  2.2266 -0.4059
   74MOL0     H10184   5.122  11.065   3.183 -1.1402  0.0054 -0.2699
   74MOL0     H10185   4.959  11.129   3.154 -1.0524  1.7794  0.9683
   74MOL0     H10186   5.176  11.071   2.942 -2.2523 -1.0971 -2.6285
   74MOL0     H10187   5.029  11.151   2.901  1.1794  0.3974 -0.5707
   74MOL0     H10188   4.917  10.967   2.919 -0.2907  1.5712  0.4470
   74MOL0     H10189   4.989  10.895   3.052 -1.9914 -2.2078 -2.1115
   74MOL0     H10190   5.186  10.815   2.922  0.8319  0.4511 -2.0403
   74MOL0     H10191   5.143  10.887   2.778 -0.7278  1.0442 -0.6437
   74MOL0     H10192   5.653  11.403   3.274  0.2074  1.4688  1.2725
   74MOL0     H10193   5.883  11.414   3.374 -0.2416 -2.5272 -3.5341
   74MOL0     H10194   6.143  11.100   3.685 -0.0990  0.3799  2.8735
   74MOL0     H10195   6.384  11.050   3.728  1.2219 -0.9303 -2.1339
   74MOL0     H10196   8.369  11.190   3.433 -2.8438 -1.4386  1.7196
   74MOL0     H10197   8.593  11.157   3.339 -0.5156 -1.3365 -0.0761
   74MOL0     H10198   8.940  10.861   3.317  1.1275 -1.4625 -2.4487
   74MOL0     H10199   9.160  10.779   3.245 -0.5067  0.8528 -1.1095
   74MOL0     H10200   9.517  10.747   3.275 -1.1835  1.2594  3.0481
   74MOL0     H10201   9.345  10.686   3.282 -1.0767  0.5279 -2.0265
   74MOL0     H10202   9.450  10.860   3.057  2.4194 -0.1575  1.8481
   74MOL0     H10203   9.296  10.767   3.067 -0.3706 -1.4127 -2.1036
   74MOL0     H10204   9.573  10.637   3.072  1.2210  1.4578 -0.0320
   74MOL0     H10205   9.424  10.543   3.075  0.5362 -0.8440 -1.8070
   74MOL0     H10206   9.358  10.615   2.843  0.2401 -1.0783  0.9692
   74MOL0     H10207   9.497  10.529   2.866 -1.1083 -0.8969  0.4408
   74MOL0     H10208   9.666  10.890   2.716  1.0022  2.2679  4.8064
   74MOL0     H10209   9.365  11.074   3.464  0.1647 -2.0361  0.2744
   74MOL0     H10210   9.116  11.157   3.695 -1.0253  1.5599  1.0246
   74MOL0     H10211   9.257  11.212   3.610 -0.1958  1.1384  0.6313
   74MOL0     H10212   9.098  11.276   3.566  1.0511  0.8917  0.3532
   75MOL0     O10213   9.833   9.081   7.366 -0.2607 -0.3244  0.1055
   75MOL0     C10214   9.892   9.163   7.300  1.1745 -0.2513  0.2305
   75MOL0     O10215   9.962   9.267   7.350  0.1573  0.1922  0.1621
   75MOL0     C10216  10.010   9.281   7.481  0.5521  0.4865  0.1298
   75MOL0     C10217  10.025   9.407   7.538  0.6774 -0.5305  0.7427
   75MOL0     C10218  10.065   9.417   7.669  0.3776 -0.1721 -0.5688
   75MOL0     C10219  10.111   9.312   7.742 -0.0816  0.6404 -0.5428
   75MOL0     O10220  10.173   9.302   7.870 -0.5503  0.2381  0.3156
   75MOL0     C10221  10.198   9.424   7.945  0.3609 -0.7724  0.4300
   75MOL0     C10222  10.321   9.489   7.878 -0.2349 -1.2623  0.0197
   75MOL0     C10223  10.444   9.405   7.851 -0.2542 -0.9395 -0.2918
   75MOL0     C10224  10.571   9.476   7.815  0.1969  0.5172 -0.5302
   75MOL0     C10225  10.705   9.393   7.843  0.4935  0.1449  0.2613
   75MOL0     C10226  10.721   9.264   7.765 -0.4422 -0.4974  0.1374
   75MOL0     C10227  10.864   9.205   7.770 -0.9634  0.9942  0.3741
   75MOL0     C10228  10.885   9.064   7.831  0.0685  0.3675  0.6862
   75MOL0     N10229  11.033   9.029   7.828 -0.9504 -0.6250  0.6368
   75MOL0     C10230  11.128   9.081   7.906  0.9618 -0.1403  0.8278
   75MOL0     C10231  11.247   9.019   7.868  0.1341 -0.0797 -0.0105
   75MOL0     C10232  11.379   9.058   7.928 -0.1478 -0.4271  0.3445
   75MOL0     C10233  11.386   9.209   7.951  0.2060 -0.5065  0.3889
   75MOL0     C10234  11.400   9.296   7.826  0.2292 -0.3597  0.3042
   75MOL0     C10235  11.413   9.434   7.876  0.3998  0.1687 -0.1022
   75MOL0     O10236  11.417   9.498   7.750  0.2603  0.0387 -0.6027
   75MOL0     C10237  11.364   9.625   7.752  0.3476 -0.5175 -0.6538
   75MOL0     C10238  11.322   9.686   7.636  0.1130  0.2903  0.3654
   75MOL0     C10239  11.266   9.815   7.627 -0.3283  0.3956 -1.0533
   75MOL0     C10240  11.209   9.845   7.490  0.0273 -0.4520 -0.0905
   75MOL0     C10241  11.256   9.901   7.740 -0.2416  0.1322 -0.1249
   75MOL0     C10242  11.213  10.044   7.726  0.1553  0.1224 -1.2289
   75MOL0     O10243  11.129  10.092   7.629 -0.1408 -0.4651 -0.4048
   75MOL0     C10244  11.058  10.210   7.663 -0.0424 -0.8458 -0.2306
   75MOL0     C10245  10.966  10.220   7.770  0.4981  0.5622 -0.1592
   75MOL0     C10246  10.908  10.349   7.785 -0.0682 -0.1997 -0.2698
   75MOL0     C10247  10.922  10.463   7.701 -0.2520 -0.1191 -0.0685
   75MOL0     O10248  10.859  10.581   7.726  0.5317  0.1385 -1.3237
   75MOL0     C10249  10.882  10.699   7.657 -0.8119 -0.8994  0.1416
   75MOL0     C10250  10.783  10.817   7.696  0.6708 -0.4871  0.6168
   75MOL0     C10251  10.638  10.785   7.657  0.0643  0.5459  0.2139
   75MOL0     C10252  10.627  10.714   7.527 -0.3615  0.0250  0.7667
   75MOL0     C10253  10.485  10.691   7.481 -0.1281  0.6476  0.2571
   75MOL0     C10254  10.486  10.631   7.332 -0.8838 -0.6205 -0.8206
   75MOL0     C10255  10.357  10.591   7.274 -0.4102 -0.3070 -0.1108
   75MOL0     C10256  10.382  10.560   7.133 -0.0911  0.1684 -0.3016
   75MOL0    Cl10257  10.213  10.502   7.067  0.0637 -0.2305 -0.1770
   75MOL0     C10258  11.009  10.440   7.583 -0.0889  0.4213 -0.3368
   75MOL0     C10259  11.062  10.310   7.567  0.6143  0.6767 -0.6274
   75MOL0     O10260  11.243  10.110   7.818 -0.0008 -0.1801 -0.5457
   75MOL0     C10261  11.301   9.844   7.863  0.1638  0.0368 -0.1246
   75MOL0     C10262  11.360   9.714   7.866  0.5831  0.2292 -0.1249
   75MOL0     N10263  11.216   8.923   7.765 -0.0021 -0.5595  0.2938
   75MOL0     N10264  11.092   8.941   7.736  0.3104 -0.7150  0.3593
   75MOL0     C10265  10.083   9.189   7.689  0.2002 -0.4870 -1.2524
   75MOL0     C10266  10.028   9.169   7.567 -0.1042  0.0713  0.4686
   75MOL0     C10267   9.910   9.143   7.150 -0.1696  0.9984 -0.2726
   75MOL0     C10268  10.027   9.193   7.088  0.0190 -1.7342  1.0100
   75MOL0     C10269  10.064   9.188   6.951  0.1778  0.8234 -0.5356
   75MOL0     C10270   9.983   9.102   6.872 -0.0060 -0.8244 -0.1515
   75MOL0     O10271  10.008   9.079   6.739 -0.3016  0.0579  0.4511
   75MOL0     C10272  10.146   9.079   6.703  0.0777  0.7842 -0.0712
   75MOL0     C10273  10.184   9.212   6.641 -0.0989  0.2258 -0.4038
   75MOL0     C10274  10.099   9.237   6.521  0.5246  0.8281 -1.0356
   75MOL0     C10275  10.060   9.386   6.492  0.3589  0.2097 -0.7769
   75MOL0     C10276   9.964   9.410   6.391  0.1168 -0.2527 -0.0586
   75MOL0     C10277   9.881   9.431   6.304 -0.2180 -0.0293 -1.1039
   75MOL0     C10278   9.866   9.042   6.931 -1.0154 -0.1179  0.5467
   75MOL0     C10279   9.827   9.063   7.064  0.6596 -0.5695 -0.7512
   75MOL0     C10280   9.685   9.017   7.106  0.1593  0.3875  0.3920
   75MOL0     H10281  10.002   9.492   7.474  0.4636 -2.4619 -1.9170
   75MOL0     H10282  10.064   9.511   7.723 -1.7697  0.2079 -1.2069
   75MOL0     H10283  10.235   9.399   8.045 -0.2286 -0.6340  0.6882
   75MOL0     H10284  10.108   9.486   7.949  0.8251  0.2182 -2.2625
   75MOL0     H10285  10.297   9.541   7.785  2.8424 -0.9314 -0.6887
   75MOL0     H10286  10.354   9.568   7.946 -3.3840  0.5075 -0.3091
   75MOL0     H10287  10.467   9.368   7.952 -5.5609 -1.1849  1.1402
   75MOL0     H10288  10.430   9.320   7.784 -1.8288  1.5474 -3.3727
   75MOL0     H10289  10.569   9.492   7.707 -2.6193 -0.2382 -0.6746
   75MOL0     H10290  10.570   9.572   7.867  0.0543 -0.0650  0.5641
   75MOL0     H10291  10.710   9.371   7.950 -2.0916 -1.5501  0.1356
   75MOL0     H10292  10.793   9.450   7.812  2.8533 -3.2226  0.2029
   75MOL0     H10293  10.649   9.187   7.794  0.3020 -0.6503  1.6479
   75MOL0     H10294  10.695   9.290   7.662 -0.8343  0.7463  0.5361
   75MOL0     H10295  10.940   9.269   7.815 -0.5692  1.0115 -0.3035
   75MOL0     H10296  10.900   9.188   7.668  1.0134  0.6473  1.0929
   75MOL0     H10297  10.850   9.062   7.935 -1.4252 -2.3214  0.2390
   75MOL0     H10298  10.837   8.980   7.779  2.5347 -0.0487 -1.0866
   75MOL0     H10299  11.110   9.156   7.982 -0.0964  0.6554 -0.1859
   75MOL0     H10300  11.462   9.021   7.868 -1.0093 -2.7968  0.5036
   75MOL0     H10301  11.375   9.014   8.028  2.5702  0.1155  0.7773
   75MOL0     H10302  11.290   9.244   7.992 -0.5072 -1.2355 -0.6151
   75MOL0     H10303  11.472   9.220   8.018  0.6426 -1.3403 -0.0281
   75MOL0     H10304  11.486   9.270   7.764 -0.9477 -0.4246 -1.3550
   75MOL0     H10305  11.310   9.289   7.765  0.4113 -0.6887  0.0696
   75MOL0     H10306  11.321   9.452   7.932  0.6515  0.4577  0.2245
   75MOL0     H10307  11.498   9.452   7.942  0.8438  1.3179 -0.9477
   75MOL0     H10308  11.340   9.631   7.544  0.1010 -0.9827  1.1025
   75MOL0     H10309  11.225   9.946   7.451 -3.8284  0.8477  1.2728
   75MOL0     H10310  11.100   9.841   7.488  0.0122 -0.0365 -0.5709
   75MOL0     H10311  11.247   9.773   7.417  0.4799  0.7802 -1.1083
   75MOL0     H10312  10.957  10.148   7.850  0.8857  0.0295 -0.5878
   75MOL0     H10313  10.850  10.366   7.876 -2.7868  1.9883 -2.2382
   75MOL0     H10314  10.986  10.727   7.676 -1.3500  0.0474  1.8865
   75MOL0     H10315  10.878  10.674   7.550  2.6783 -2.2172  0.1935
   75MOL0     H10316  10.784  10.823   7.806  0.3488 -1.9956  0.7195
   75MOL0     H10317  10.806  10.918   7.660 -0.8820 -0.3204 -0.0069
   75MOL0     H10318  10.584  10.880   7.664  0.0714  0.8130 -2.3250
   75MOL0     H10319  10.591  10.726   7.736 -0.3913  0.2389 -0.2840
   75MOL0     H10320  10.663  10.611   7.522 -1.4734 -0.3972  1.0952
   75MOL0     H10321  10.686  10.776   7.458  2.6504 -3.0368  0.3021
   75MOL0     H10322  10.427  10.620   7.540 -0.4556  0.9069  0.2465
   75MOL0     H10323  10.429  10.785   7.477  0.7794  1.1800 -2.4983
   75MOL0     H10324  10.562  10.554   7.320  0.0424  0.4042 -1.7706
   75MOL0     H10325  10.533  10.712   7.275  6.1403 -0.6403  3.7245
   75MOL0     H10326  10.280  10.668   7.288 -1.9872 -1.8610  0.0201
   75MOL0     H10327  10.319  10.503   7.326 -1.6303  0.0534 -0.3520
   75MOL0     H10328  10.446  10.472   7.119 -1.1331 -0.2767 -2.6948
   75MOL0     H10329  10.434  10.644   7.086 -0.0782  1.5494  2.0065
   75MOL0     H10330  11.030  10.512   7.504  1.4290 -0.4209 -0.7429
   75MOL0     H10331  11.114  10.283   7.475  1.9200 -2.4676  0.8952
   75MOL0     H10332  11.317   9.896   7.957 -2.2446 -1.1792  1.0285
   75MOL0     H10333  11.401   9.677   7.960  0.8825 -0.5315 -0.5465
   75MOL0     H10334  10.117   9.103   7.746  1.2669 -0.2590 -1.5200
   75MOL0     H10335  10.014   9.066   7.536 -0.9052  0.8105 -1.7820
   75MOL0     H10336  10.103   9.241   7.149  1.2984 -2.6153  0.1526
   75MOL0     H10337  10.160   9.232   6.926  2.0117 -1.4628  1.8245
   75MOL0     H10338  10.201   9.046   6.791 -1.1679 -1.6278 -0.1133
   75MOL0     H10339  10.162   9.003   6.626 -1.9824 -0.0150  0.2207
   75MOL0     H10340  10.285   9.214   6.599 -0.6759 -1.1584 -1.9916
   75MOL0     H10341  10.176   9.294   6.713 -1.4136 -1.2915  1.2845
   75MOL0     H10342  10.146   9.199   6.430 -1.6241 -1.6646 -1.2185
   75MOL0     H10343  10.007   9.179   6.532 -1.2146  3.7409  1.3046
   75MOL0     H10344  10.146   9.451   6.478  1.1528 -0.7193 -0.3089
   75MOL0     H10345  10.021   9.424   6.587  0.1774  2.9171 -1.8447
   75MOL0     H10346   9.813   9.421   6.222  0.0029 -1.6825 -1.1017
   75MOL0     H10347   9.790   8.990   6.874 -1.9939  0.5641  1.2046
   75MOL0     H10348   9.607   9.093   7.101  0.5335  0.7860  0.6074
   75MOL0     H10349   9.644   8.938   7.041  1.7225 -3.7202  3.9112
   75MOL0     H10350   9.682   8.958   7.198  1.3019 -3.1879 -1.6371
   76MOL0     O10351  10.330   3.644   1.816  0.1355 -0.3048 -0.4800
   76MOL0     C10352  10.408   3.575   1.758  0.0663  0.0449  0.8430
   76MOL0     O10353  10.411   3.562   1.626  0.2947  0.2937  0.2404
   76MOL0     C10354  10.307   3.587   1.548  0.1565 -0.9663  0.5503
   76MOL0     C10355  10.166   3.616   1.585 -0.3735  0.3639 -0.1754
   76MOL0     C10356  10.070   3.627   1.486  0.1376 -0.6842  0.8567
   76MOL0     C10357  10.101   3.619   1.354  0.4913 -0.2524  0.1796
   76MOL0     O10358   9.996   3.626   1.261 -0.3120 -0.4859  0.1855
   76MOL0     C10359   9.998   3.737   1.162  0.2316 -0.2830 -0.0363
   76MOL0     C10360   9.887   3.715   1.057  0.1431  0.0458  0.5671
   76MOL0     C10361   9.899   3.574   0.989  0.8343  0.0643 -0.3010
   76MOL0     C10362   9.782   3.483   1.018 -0.1786  1.3061  1.0252
   76MOL0     C10363   9.798   3.335   0.957 -0.4021 -0.2937 -0.4908
   76MOL0     C10364   9.803   3.304   0.802 -0.6484 -0.1385  0.3958
   76MOL0     C10365   9.835   3.158   0.757  0.1563 -0.3201 -0.1435
   76MOL0     C10366   9.903   3.134   0.614 -0.0886 -0.1573 -0.6171
   76MOL0     N10367   9.807   3.116   0.507 -0.2780 -0.2561  0.1823
   76MOL0     C10368   9.718   3.209   0.471  0.2580 -0.0018  0.0105
   76MOL0     C10369   9.634   3.150   0.383  0.7946 -0.3596 -0.4120
   76MOL0     C10370   9.510   3.201   0.322  0.3686 -0.0743  0.9343
   76MOL0     C10371   9.526   3.238   0.173 -0.4935 -0.6713 -0.1743
   76MOL0     C10372   9.580   3.125   0.093 -0.3356  0.0604 -1.4101
   76MOL0     C10373   9.600   3.166  -0.060 -0.0815  0.7542 -0.7429
   76MOL0     O10374   9.702   3.273  -0.070  0.3034  0.0448  0.0010
   76MOL0     C10375   9.838   3.228  -0.072  0.1109  0.5286  0.2999
   76MOL0     C10376   9.879   3.093  -0.093 -0.5391 -0.8813  0.7486
   76MOL0     C10377  10.011   3.051  -0.104  0.5803 -0.6171 -0.7391
   76MOL0     C10378  10.039   2.908  -0.146 -0.0916  0.2122 -0.3733
   76MOL0     C10379  10.112   3.146  -0.087  0.2170  0.6244 -0.1167
   76MOL0     C10380  10.254   3.113  -0.095 -0.2586  0.8001 -0.4314
   76MOL0     O10381  10.347   3.167  -0.009 -0.0431  0.1866 -0.5190
   76MOL0     C10382  10.483   3.130  -0.005 -0.6493  0.0272 -0.0591
   76MOL0     C10383  10.549   3.067  -0.109  0.0014 -0.1500  0.0653
   76MOL0     C10384  10.686   3.034  -0.112  0.8274 -0.3771 -0.6307
   76MOL0     C10385  10.753   3.073   0.003 -0.3170 -1.4500 -0.7678
   76MOL0     O10386  10.893   3.057   0.026  0.1012 -0.1972 -0.1164
   76MOL0     C10387  10.980   2.997  -0.078  0.7608  0.1102  0.2288
   76MOL0     C10388  11.117   2.988  -0.014  0.3791  0.7993 -1.2498
   76MOL0     C10389  11.239   2.950  -0.110  0.1022 -0.6424  0.2192
   76MOL0     C10390  11.326   3.070  -0.135 -0.1613  0.6116 -0.6647
   76MOL0     C10391  11.435   3.056  -0.232 -0.2803 -0.2195  0.3787
   76MOL0     C10392  11.534   3.172  -0.219 -0.1877 -0.1012  0.0663
   76MOL0     C10393  11.608   3.205  -0.345  0.3192  0.6683 -0.0492
   76MOL0     C10394  11.712   3.313  -0.323 -0.9594  0.0535 -1.5603
   76MOL0    Cl10395  11.857   3.222  -0.257 -0.0082 -0.0010 -0.5083
   76MOL0     C10396  10.694   3.127   0.115 -1.0289  0.8070 -0.2118
   76MOL0     C10397  10.562   3.170   0.109 -0.6375  0.1435  0.6962
   76MOL0     O10398  10.279   3.032  -0.174  0.0154  0.8343  0.1480
   76MOL0     C10399  10.075   3.284  -0.072  0.6738  0.2489 -0.0070
   76MOL0     C10400   9.945   3.319  -0.069  1.2922 -0.3926  0.2107
   76MOL0     N10401   9.678   3.026   0.364  0.4857  0.2041 -0.0807
   76MOL0     N10402   9.778   3.001   0.443  0.4469  0.4164  0.0556
   76MOL0     C10403  10.230   3.600   1.318  0.4129 -0.7356  0.5929
   76MOL0     C10404  10.337   3.588   1.410  0.2505  0.0865  0.1519
   76MOL0     C10405  10.521   3.514   1.828 -0.7461  0.1145 -0.0983
   76MOL0     C10406  10.631   3.485   1.750  0.0336 -0.1117  0.0978
   76MOL0     C10407  10.743   3.415   1.795 -0.6482 -0.0880  0.0552
   76MOL0     C10408  10.754   3.390   1.937  0.4668  0.1266  1.4003
   76MOL0     O10409  10.868   3.333   1.981  0.0963  1.5673  0.0434
   76MOL0     C10410  10.917   3.350   2.120 -0.6934  0.1682 -0.2947
   76MOL0     C10411  10.897   3.217   2.196  1.1629  0.2229 -0.1233
   76MOL0     C10412  11.005   3.120   2.202  0.1355  0.3142  0.0272
   76MOL0     C10413  11.136   3.155   2.288  0.1295  0.0292  0.2323
   76MOL0     C10414  11.106   3.164   2.429  0.8037 -0.4209  0.3387
   76MOL0     C10415  11.057   3.160   2.538  0.4177 -0.3850  0.2692
   76MOL0     C10416  10.646   3.430   2.022  0.5820  0.2158  0.8128
   76MOL0     C10417  10.532   3.500   1.969 -0.8656 -0.3079  0.5030
   76MOL0     C10418  10.428   3.540   2.068  0.3075 -0.1571  0.0715
   76MOL0     H10419  10.144   3.623   1.690  1.3484 -1.4524  0.3852
   76MOL0     H10420   9.969   3.653   1.516  0.2887 -0.9296  1.5893
   76MOL0     H10421  10.097   3.743   1.114  0.4447 -0.1164  0.4124
   76MOL0     H10422   9.978   3.839   1.197  2.6826  1.2640 -2.6389
   76MOL0     H10423   9.791   3.725   1.109  0.0762  1.7811  0.1891
   76MOL0     H10424   9.903   3.793   0.982 -2.5877 -0.6009 -0.8285
   76MOL0     H10425   9.917   3.593   0.882  0.7266  1.6533 -0.0633
   76MOL0     H10426   9.995   3.533   1.021  2.4906  2.9864 -1.1693
   76MOL0     H10427   9.783   3.471   1.127 -0.3219 -0.3373  0.8671
   76MOL0     H10428   9.684   3.520   0.985 -0.3888 -0.8531 -1.0444
   76MOL0     H10429   9.713   3.272   0.986 -1.6514  1.1913 -0.7884
   76MOL0     H10430   9.881   3.292   1.014 -1.9838 -0.9622  1.4106
   76MOL0     H10431   9.709   3.331   0.753 -0.8653  1.1564  1.4623
   76MOL0     H10432   9.879   3.369   0.757 -1.5326  0.6836  0.0468
   76MOL0     H10433   9.740   3.103   0.765 -1.2210  2.2019  3.0796
   76MOL0     H10434   9.903   3.111   0.828  1.0176 -0.9837 -1.3836
   76MOL0     H10435   9.972   3.215   0.590  3.0916 -3.0271 -2.0362
   76MOL0     H10436   9.972   3.049   0.607  0.3057  0.2325 -1.6527
   76MOL0     H10437   9.709   3.313   0.501 -2.3001  0.4794 -2.0234
   76MOL0     H10438   9.484   3.296   0.369 -0.1725 -0.0500  0.6031
   76MOL0     H10439   9.425   3.131   0.328  1.8290 -2.5722 -3.1933
   76MOL0     H10440   9.433   3.274   0.128 -1.0327  1.4977  2.4066
   76MOL0     H10441   9.594   3.322   0.154 -3.4152  1.3487 -2.9171
   76MOL0     H10442   9.680   3.100   0.131 -0.5604 -3.3131 -2.6707
   76MOL0     H10443   9.515   3.038   0.100  0.1675 -0.2011  0.9433
   76MOL0     H10444   9.619   3.082  -0.126 -0.0762  1.3707 -1.5427
   76MOL0     H10445   9.510   3.218  -0.095 -1.2650 -0.3885  0.4672
   76MOL0     H10446   9.812   3.011  -0.115 -0.2970 -0.6585 -0.9683
   76MOL0     H10447  10.082   2.901  -0.246 -1.2658  1.9482 -1.0419
   76MOL0     H10448   9.947   2.849  -0.152 -0.0476  0.0763  0.2062
   76MOL0     H10449  10.108   2.852  -0.082  0.0728  0.5791 -0.2267
   76MOL0     H10450  10.496   3.045  -0.202  3.1551  1.4562 -2.3264
   76MOL0     H10451  10.721   2.969  -0.191  0.8840 -0.5999 -0.4259
   76MOL0     H10452  10.937   2.903  -0.116 -1.6126  1.6842 -1.2563
   76MOL0     H10453  10.991   3.068  -0.161  2.5440 -0.5963 -0.1811
   76MOL0     H10454  11.133   3.082   0.040  1.0653  0.4468 -0.8188
   76MOL0     H10455  11.119   2.914   0.067  2.2282  0.5606 -1.4715
   76MOL0     H10456  11.204   2.906  -0.204  0.5463 -0.1324 -0.1875
   76MOL0     H10457  11.295   2.868  -0.062  2.6913  0.1274 -1.2679
   76MOL0     H10458  11.381   3.083  -0.041  0.2065  0.8722 -0.9167
   76MOL0     H10459  11.256   3.151  -0.158  2.4570  2.7040 -1.6470
   76MOL0     H10460  11.475   2.955  -0.216  1.3606  0.1331 -1.1280
   76MOL0     H10461  11.391   3.046  -0.332  3.5916  0.9035 -1.6365
   76MOL0     H10462  11.604   3.140  -0.141 -0.0498 -1.8280 -0.7042
   76MOL0     H10463  11.482   3.264  -0.191 -2.1810 -0.3901 -2.3853
   76MOL0     H10464  11.529   3.232  -0.416 -1.0637 -1.4019  0.5902
   76MOL0     H10465  11.657   3.111  -0.375 -1.9648 -1.0943  1.3903
   76MOL0     H10466  11.673   3.392  -0.259  0.0614  1.1864 -2.3042
   76MOL0     H10467  11.736   3.375  -0.410 -0.3707 -0.1027 -1.5141
   76MOL0     H10468  10.748   3.149   0.207  1.9504 -2.1357 -1.0892
   76MOL0     H10469  10.521   3.216   0.198  1.0288 -0.1476  1.6504
   76MOL0     H10470  10.154   3.357  -0.054  0.7817  0.5692 -1.5922
   76MOL0     H10471   9.924   3.424  -0.055  1.7153 -0.3026  0.1697
   76MOL0     H10472  10.241   3.575   1.213 -2.1609 -1.9696  0.5360
   76MOL0     H10473  10.435   3.575   1.366 -0.2600 -1.8906 -0.5190
   76MOL0     H10474  10.636   3.502   1.643 -0.9320 -1.0591 -0.1126
   76MOL0     H10475  10.827   3.397   1.728 -0.8470 -4.3586  0.6881
   76MOL0     H10476  11.026   3.360   2.121 -0.6581  0.5167  3.0416
   76MOL0     H10477  10.872   3.433   2.175 -1.5115 -0.0429 -0.6414
   76MOL0     H10478  10.808   3.165   2.160  1.1985 -0.3442  0.6042
   76MOL0     H10479  10.885   3.247   2.300  2.9845  0.0867  0.1584
   76MOL0     H10480  10.953   3.033   2.244  0.9371 -1.3109 -2.1427
   76MOL0     H10481  11.046   3.105   2.101 -2.0765  1.1738 -1.0726
   76MOL0     H10482  11.182   3.247   2.252  1.5046 -0.3521  0.9420
   76MOL0     H10483  11.209   3.074   2.278 -0.7739 -0.9302  1.1097
   76MOL0     H10484  11.014   3.137   2.633  0.4497  0.9570  0.6274
   76MOL0     H10485  10.670   3.422   2.127  1.4621  0.0243  0.6008
   76MOL0     H10486  10.329   3.499   2.047  0.4568 -0.5482  0.1139
   76MOL0     H10487  10.457   3.510   2.170  0.5467 -3.1028 -0.7602
   76MOL0     H10488  10.426   3.647   2.045  2.4808 -0.6440 -3.1150
   77MOL0     O10489  11.265   8.824  11.068 -0.5806  0.1365  0.2200
   77MOL0     C10490  11.257   8.860  11.188  0.6286 -0.0479 -0.3841
   77MOL0     O10491  11.327   8.800  11.287 -0.5862 -0.4843  0.2500
   77MOL0     C10492  11.385   8.672  11.272  0.1521 -0.2535 -0.1737
   77MOL0     C10493  11.524   8.657  11.246  0.7560 -0.3726 -0.2705
   77MOL0     C10494  11.581   8.524  11.253 -0.0892 -0.5093  0.2168
   77MOL0     C10495  11.502   8.414  11.278 -0.9161  0.5835 -0.5101
   77MOL0     O10496  11.544   8.285  11.290 -0.4245 -0.5512  0.5025
   77MOL0     C10497  11.687   8.269  11.289  0.7210 -0.2864  0.2776
   77MOL0     C10498  11.731   8.119  11.308  0.3280 -0.0182  0.8681
   77MOL0     C10499  11.881   8.097  11.314 -0.1472  0.1192 -0.0443
   77MOL0     C10500  11.908   7.953  11.293  0.7279 -0.5691  0.4598
   77MOL0     C10501  12.056   7.916  11.281  1.0923  1.0624  0.1916
   77MOL0     C10502  12.129   7.917  11.417  0.9078  0.8785  0.8390
   77MOL0     C10503  12.081   7.824  11.523 -0.1382 -0.2898  0.5392
   77MOL0     C10504  12.100   7.677  11.488  0.6904  0.0830  1.2225
   77MOL0     N10505  12.090   7.589  11.605  0.5078 -0.3886  0.6126
   77MOL0     C10506  12.183   7.574  11.701 -0.5453 -0.0084 -0.6429
   77MOL0     C10507  12.138   7.469  11.781  0.6112 -0.1318 -1.1462
   77MOL0     C10508  12.201   7.412  11.904  0.3335  0.0351  0.0132
   77MOL0     C10509  12.353   7.415  11.909  0.3444  0.6841  0.5495
   77MOL0     C10510  12.419   7.325  11.796  0.5487 -0.7234  0.3577
   77MOL0     C10511  12.561   7.295  11.830 -0.1710 -0.1228  0.6840
   77MOL0     O10512  12.589   7.243  11.960 -0.0019  0.0591 -0.6153
   77MOL0     C10513  12.719   7.238  11.985  0.5117 -0.1505  0.3570
   77MOL0     C10514  12.796   7.353  12.011  0.4256 -0.0938  1.2279
   77MOL0     C10515  12.929   7.345  12.025 -0.2068 -0.6715 -1.0574
   77MOL0     C10516  12.999   7.480  12.058 -0.1794  0.0553  0.4622
   77MOL0     C10517  12.993   7.218  12.022  0.6430  0.1352 -1.0145
   77MOL0     C10518  13.140   7.218  12.054 -0.2630  1.3846  0.3471
   77MOL0     O10519  13.213   7.127  11.977  0.2617  0.7328  0.0971
   77MOL0     C10520  13.344   7.114  12.017  0.5148  0.8777  0.0782
   77MOL0     C10521  13.444   7.162  11.931  0.0272  0.0273 -0.7099
   77MOL0     C10522  13.579   7.127  11.971  0.1353 -0.8042  0.3249
   77MOL0     C10523  13.602   7.035  12.073  0.0802  0.5989 -0.1935
   77MOL0     O10524  13.717   6.966  12.091  0.1174  0.0377 -0.3342
   77MOL0     C10525  13.827   6.976  12.004 -0.7791 -0.0452 -0.3741
   77MOL0     C10526  13.922   6.856  12.039 -0.4031  0.1377  0.1683
   77MOL0     C10527  13.982   6.865  12.175 -0.0597  0.7288  0.9557
   77MOL0     C10528  14.102   6.973  12.192  1.1778  0.2886 -0.4168
   77MOL0     C10529  14.223   6.941  12.104 -0.1706 -0.1099  0.4133
   77MOL0     C10530  14.305   7.071  12.085 -0.7424 -1.1187  0.0484
   77MOL0     C10531  14.417   7.033  11.983  0.2843  0.0249 -1.6115
   77MOL0     C10532  14.504   7.153  11.947 -0.5639 -0.1247 -0.4777
   77MOL0    Cl10533  14.424   7.286  11.882  0.1444 -0.7427 -0.3192
   77MOL0     C10534  13.496   7.000  12.164 -0.7830  0.1601  0.2203
   77MOL0     C10535  13.367   7.043  12.131 -0.7876  0.4747 -0.4698
   77MOL0     O10536  13.185   7.282  12.149 -0.0139 -0.2093 -0.3940
   77MOL0     C10537  12.920   7.103  11.999  0.7904 -0.5585  0.0058
   77MOL0     C10538  12.778   7.115  11.972 -0.8078 -0.2130 -0.5742
   77MOL0     N10539  12.003   7.450  11.745 -0.1689  0.1033  0.6799
   77MOL0     N10540  11.980   7.523  11.635  1.1121  0.1997  0.3439
   77MOL0     C10541  11.371   8.439  11.302 -0.6233  0.1019 -0.5512
   77MOL0     C10542  11.318   8.562  11.311  0.5215  0.6884  0.6792
   77MOL0     C10543  11.153   8.959  11.239 -0.7362  1.3653 -0.3839
   77MOL0     C10544  11.041   8.975  11.153  0.1018 -0.3814  0.7606
   77MOL0     C10545  10.935   9.055  11.184 -0.5515 -0.7107  0.3176
   77MOL0     C10546  10.939   9.126  11.297  0.8399 -0.0507 -0.3661
   77MOL0     O10547  10.826   9.201  11.315 -0.5094  0.2053 -0.1224
   77MOL0     C10548  10.813   9.298  11.414 -0.6307  0.6034  1.2125
   77MOL0     C10549  10.890   9.422  11.371  0.0536 -0.6373  1.0324
   77MOL0     C10550  10.824   9.497  11.257 -0.4587 -0.4355 -0.6935
   77MOL0     C10551  10.909   9.615  11.216 -0.3463 -0.4287 -0.6238
   77MOL0     C10552  10.848   9.677  11.100 -0.2097  0.7281 -0.4851
   77MOL0     C10553  10.798   9.712  10.999 -0.2887 -0.0794 -0.1173
   77MOL0     C10554  11.047   9.109  11.387  0.5923 -0.3132  0.5553
   77MOL0     C10555  11.155   9.025  11.359 -0.0367  0.5595 -0.7298
   77MOL0     C10556  11.269   9.021  11.455 -0.3040 -0.6491 -0.2707
   77MOL0     H10557  11.589   8.736  11.210  1.8558 -1.8175 -1.6043
   77MOL0     H10558  11.688   8.519  11.242 -0.1521  0.0769 -0.8821
   77MOL0     H10559  11.719   8.344  11.361 -3.2184  2.5028 -0.5342
   77MOL0     H10560  11.724   8.293  11.189 -1.2826  0.8824 -0.2427
   77MOL0     H10561  11.690   8.075  11.399 -1.7227 -1.0872 -0.4797
   77MOL0     H10562  11.686   8.054  11.231 -1.5410  0.2656  1.6592
   77MOL0     H10563  11.924   8.164  11.238  0.9610  2.0511  2.1466
   77MOL0     H10564  11.928   8.120  11.410 -0.1488 -0.2713  0.0504
   77MOL0     H10565  11.859   7.895  11.371 -0.9132  0.3439  0.1401
   77MOL0     H10566  11.860   7.923  11.199  0.5067 -0.0254  0.4006
   77MOL0     H10567  12.106   7.989  11.217  1.4398  1.3626  0.7929
   77MOL0     H10568  12.060   7.813  11.244 -0.0715  0.5627  1.3656
   77MOL0     H10569  12.235   7.894  11.398  1.6070  0.9254  4.0881
   77MOL0     H10570  12.142   8.012  11.469 -0.7396  2.1966 -1.0315
   77MOL0     H10571  11.979   7.836  11.560  0.7022  0.4577  2.7588
   77MOL0     H10572  12.148   7.848  11.607 -0.2899 -0.7394  0.7918
   77MOL0     H10573  12.021   7.649  11.418  1.3739  0.3754  0.3118
   77MOL0     H10574  12.179   7.635  11.425 -0.4060  1.0416 -0.9256
   77MOL0     H10575  12.277   7.627  11.706 -2.0438  2.8998 -1.3243
   77MOL0     H10576  12.178   7.306  11.900 -3.0294  0.5759  1.5613
   77MOL0     H10577  12.167   7.461  11.996  0.5795  0.1655  0.0357
   77MOL0     H10578  12.384   7.521  11.908 -1.0663  1.1127  0.3036
   77MOL0     H10579  12.374   7.364  12.003 -0.1687  0.7457  0.7004
   77MOL0     H10580  12.367   7.229  11.794  2.6079 -1.9941  2.4799
   77MOL0     H10581  12.408   7.388  11.707 -0.6947  1.8267  2.2101
   77MOL0     H10582  12.618   7.243  11.752  3.4462  0.4212  2.7183
   77MOL0     H10583  12.609   7.394  11.825  1.9621 -1.1380 -2.0476
   77MOL0     H10584  12.758   7.455  12.013  3.6058  1.2017  0.1832
   77MOL0     H10585  13.083   7.514  11.996 -0.4522  1.1289  0.6516
   77MOL0     H10586  13.022   7.473  12.165 -0.6208  1.8383  0.7084
   77MOL0     H10587  12.924   7.559  12.048 -0.6431 -0.1106  2.2890
   77MOL0     H10588  13.421   7.205  11.834 -2.8129 -2.0202 -1.0749
   77MOL0     H10589  13.668   7.160  11.919  0.0036  0.3505  0.7859
   77MOL0     H10590  13.801   6.969  11.898 -1.7129  0.4409 -0.1830
   77MOL0     H10591  13.881   7.070  12.023  0.7357 -0.3757 -2.6592
   77MOL0     H10592  13.858   6.767  12.035 -0.4961  0.1762  0.6989
   77MOL0     H10593  13.998   6.834  11.965 -0.2853 -1.9258  0.8280
   77MOL0     H10594  14.017   6.764  12.201 -1.0677 -0.4767 -1.9867
   77MOL0     H10595  13.914   6.890  12.257 -0.6285  1.4615  0.2782
   77MOL0     H10596  14.130   6.979  12.298  0.5565 -0.7063 -0.1833
   77MOL0     H10597  14.052   7.066  12.163  2.9115  0.8390 -1.8469
   77MOL0     H10598  14.282   6.865  12.155  0.9431  1.5632  1.7107
   77MOL0     H10599  14.191   6.887  12.014  2.2303  0.2210 -0.7316
   77MOL0     H10600  14.342   7.121  12.176 -0.0257  1.8175 -1.7112
   77MOL0     H10601  14.239   7.151  12.049 -0.5894 -1.1958 -0.4089
   77MOL0     H10602  14.372   6.987  11.895 -2.9502  2.0099 -1.1473
   77MOL0     H10603  14.481   6.956  12.028 -0.2891  0.9555  0.9545
   77MOL0     H10604  14.581   7.117  11.879  1.7740  1.8861  0.9398
   77MOL0     H10605  14.559   7.185  12.036  2.8488  0.5268 -2.6328
   77MOL0     H10606  13.538   6.931  12.237  0.1550  0.6586  0.1647
   77MOL0     H10607  13.283   7.024  12.197  0.8809 -1.9567  1.1045
   77MOL0     H10608  12.970   7.007  11.999 -1.5904 -1.9908  3.1478
   77MOL0     H10609  12.710   7.031  11.977  0.8709 -1.5579  2.1596
   77MOL0     H10610  11.312   8.350  11.319  1.1585 -0.3299  5.8772
   77MOL0     H10611  11.211   8.563  11.330  0.6814 -0.1056  1.7031
   77MOL0     H10612  11.045   8.911  11.065  5.0329 -1.3624  1.3934
   77MOL0     H10613  10.845   9.060  11.123 -1.7807  0.6080  2.1525
   77MOL0     H10614  10.710   9.333  11.427 -1.1171 -1.0297  2.0684
   77MOL0     H10615  10.855   9.271  11.512  0.0458  2.1769  1.3785
   77MOL0     H10616  10.992   9.390  11.347 -1.2716 -4.3792 -0.3316
   77MOL0     H10617  10.884   9.496  11.451 -0.8009  0.1949  0.2300
   77MOL0     H10618  10.803   9.427  11.175 -2.8117  2.1052 -2.4369
   77MOL0     H10619  10.731   9.542  11.295  2.4240  4.2839  1.7185
   77MOL0     H10620  11.013   9.589  11.195 -0.1851 -0.2188 -0.1243
   77MOL0     H10621  10.917   9.694  11.292  5.3478 -1.8192  0.7450
   77MOL0     H10622  10.746   9.751  10.915 -0.8824  0.5464  0.5266
   77MOL0     H10623  11.041   9.167  11.479 -1.0054 -0.8692  0.8459
   77MOL0     H10624  11.362   9.003  11.401  0.6551  1.8054  0.4056
   77MOL0     H10625  11.289   9.118  11.502  1.3013 -1.3350  0.5244
   77MOL0     H10626  11.258   8.953  11.540  1.0842 -0.5441  0.0085
   78MOL0     O10627   3.500   9.758  11.484  1.2535 -0.0396 -0.1909
   78MOL0     C10628   3.550   9.728  11.372  0.7357 -0.9884 -0.3089
   78MOL0     O10629   3.486   9.634  11.286  0.8548  0.6286 -0.5837
   78MOL0     C10630   3.389   9.561  11.345  0.8084  0.4605  0.2608
   78MOL0     C10631   3.256   9.575  11.309 -0.2982 -0.2810  0.0837
   78MOL0     C10632   3.156   9.500  11.376  0.3454  0.2177 -0.3057
   78MOL0     C10633   3.182   9.400  11.473  0.0696  0.2949  0.4498
   78MOL0     O10634   3.090   9.307  11.528  0.2600 -0.3916  0.5264
   78MOL0     C10635   2.951   9.304  11.482 -1.1314  0.2783  0.1315
   78MOL0     C10636   2.900   9.159  11.523 -0.2710  0.4298 -0.4654
   78MOL0     C10637   2.875   9.150  11.679  0.7098  0.3990  0.1465
   78MOL0     C10638   2.759   9.045  11.700 -0.2608 -0.0734  0.6146
   78MOL0     C10639   2.709   9.055  11.849 -0.5153  0.8053  1.1117
   78MOL0     C10640   2.585   8.963  11.870  0.9164  0.0712 -0.2204
   78MOL0     C10641   2.536   8.962  12.015 -0.5797  0.2072  1.3537
   78MOL0     C10642   2.636   8.914  12.109 -0.2219  1.3027 -0.3599
   78MOL0     N10643   2.576   8.946  12.242  0.0934  0.1201  0.1080
   78MOL0     C10644   2.461   8.884  12.295 -0.2652 -0.1495  0.2317
   78MOL0     C10645   2.417   8.954  12.394  0.6116 -0.6522  0.4678
   78MOL0     C10646   2.289   8.931  12.453  0.5219  0.4738  0.0448
   78MOL0     C10647   2.197   9.046  12.499  0.3633  0.3367  0.8309
   78MOL0     C10648   2.264   9.158  12.584  0.3345  0.7494  0.7947
   78MOL0     C10649   2.348   9.103  12.698  0.6511  0.2801  0.2942
   78MOL0     O10650   2.278   9.002  12.774  0.0584 -0.5553 -0.5552
   78MOL0     C10651   2.172   9.048  12.847  0.6069 -0.6674  0.9821
   78MOL0     C10652   2.176   9.147  12.945  0.5434 -0.3491 -0.1960
   78MOL0     C10653   2.073   9.186  13.018  0.5400 -0.8383  0.2361
   78MOL0     C10654   2.108   9.302  13.109 -0.0311 -0.5882 -0.0095
   78MOL0     C10655   1.948   9.123  13.008 -0.3656  0.3739  0.1988
   78MOL0     C10656   1.838   9.147  13.095  0.8464  0.1260 -0.5141
   78MOL0     O10657   1.720   9.078  13.067 -0.1777 -0.1234 -0.2277
   78MOL0     C10658   1.603   9.120  13.118  0.0753 -0.1977 -0.3628
   78MOL0     C10659   1.575   9.133  13.263 -1.1464 -0.9280  0.0951
   78MOL0     C10660   1.448   9.141  13.316  0.2861 -0.1367  0.2245
   78MOL0     C10661   1.342   9.148  13.226  0.4986  0.3259 -0.0302
   78MOL0     O10662   1.213   9.153  13.262  0.5495 -0.0857 -0.4249
   78MOL0     C10663   1.180   9.089  13.388 -0.4412 -0.0493 -0.1741
   78MOL0     C10664   1.028   9.074  13.426 -0.1125 -0.4082  0.0995
   78MOL0     C10665   0.949   9.023  13.311  1.3187 -0.4618  0.3788
   78MOL0     C10666   0.798   9.052  13.342  0.7546 -0.8029  0.1575
   78MOL0     C10667   0.704   8.951  13.267 -0.2197  0.2524  0.1273
   78MOL0     C10668   0.559   8.991  13.276  0.7357  0.3974  0.6283
   78MOL0     C10669   0.460   8.870  13.267  0.6118  0.2134 -0.5721
   78MOL0     C10670   0.317   8.914  13.249  0.3359  0.0034 -0.3126
   78MOL0    Cl10671   0.291   8.965  13.076 -0.0332 -0.5459  0.3200
   78MOL0     C10672   1.364   9.155  13.092  0.1328 -0.7664  0.4087
   78MOL0     C10673   1.488   9.132  13.033 -0.5637  1.0729  0.1136
   78MOL0     O10674   1.852   9.222  13.191 -0.1780  0.6489 -0.0298
   78MOL0     C10675   1.946   9.020  12.914  1.1456 -1.2285  0.4290
   78MOL0     C10676   2.050   8.991  12.835  0.8831  0.5389  0.2752
   78MOL0     N10677   2.508   9.066  12.407 -0.8245  0.1336 -0.0933
   78MOL0     N10678   2.607   9.058  12.320  0.3890  0.3337 -0.2272
   78MOL0     C10679   3.313   9.381  11.509 -0.9340  0.1413  0.3977
   78MOL0     C10680   3.408   9.477  11.459 -0.0461 -0.0299 -0.0885
   78MOL0     C10681   3.676   9.793  11.332 -0.3570  0.4451 -0.6493
   78MOL0     C10682   3.724   9.766  11.201  0.1955  0.3206  0.4437
   78MOL0     C10683   3.835   9.830  11.146 -0.7806  0.7700  0.9172
   78MOL0     C10684   3.902   9.929  11.213 -0.9370  0.2960 -0.2300
   78MOL0     O10685   3.998  10.001  11.158 -0.5925  0.5629 -0.3586
   78MOL0     C10686   4.101   9.931  11.077  0.7085  0.4087  0.7546
   78MOL0     C10687   4.214   9.893  11.175 -0.3989  0.4463 -1.3334
   78MOL0     C10688   4.176   9.773  11.268  1.0409  0.2537 -0.0359
   78MOL0     C10689   4.301   9.720  11.329  0.2399 -0.1689 -0.1471
   78MOL0     C10690   4.270   9.592  11.401  0.4784 -0.6324  0.9572
   78MOL0     C10691   4.243   9.499  11.474  0.1066  0.2883 -0.3954
   78MOL0     C10692   3.853   9.961  11.339 -0.0164  0.6545 -0.3197
   78MOL0     C10693   3.751   9.891  11.404 -0.3373 -0.2199 -0.3233
   78MOL0     C10694   3.705   9.945  11.538 -0.5422 -0.0147  0.6240
   78MOL0     H10695   3.217   9.631  11.225 -0.3988 -1.9895 -1.0711
   78MOL0     H10696   3.052   9.507  11.347  0.2564  2.2389  0.3616
   78MOL0     H10697   2.947   9.305  11.373  4.3081  3.5722 -0.4080
   78MOL0     H10698   2.890   9.388  11.517 -0.2183  0.9506  0.1488
   78MOL0     H10699   2.808   9.141  11.467 -0.9076 -1.5226  1.0765
   78MOL0     H10700   2.976   9.086  11.492  1.1874  2.6088 -2.3824
   78MOL0     H10701   2.957   9.124  11.747  0.4816 -1.3420 -0.1807
   78MOL0     H10702   2.843   9.248  11.715  0.6876  1.1093 -1.6813
   78MOL0     H10703   2.671   9.071  11.640 -0.2434  0.7071  0.9171
   78MOL0     H10704   2.801   8.948  11.673 -0.9613 -0.1421 -0.2836
   78MOL0     H10705   2.672   9.156  11.868 -0.5879  0.6636  1.7206
   78MOL0     H10706   2.795   9.046  11.915 -0.1200  2.7865  0.9131
   78MOL0     H10707   2.507   9.002  11.804 -2.4429 -2.8456  1.7156
   78MOL0     H10708   2.604   8.858  11.845 -1.8037  0.0310 -2.6093
   78MOL0     H10709   2.439   8.911  12.018 -0.3126 -0.2983  1.4992
   78MOL0     H10710   2.515   9.066  12.043 -0.9760  0.0351  1.7170
   78MOL0     H10711   2.664   8.810  12.093  0.1739  1.1706  1.0424
   78MOL0     H10712   2.724   8.978  12.118  0.6632 -0.0533  1.2996
   78MOL0     H10713   2.419   8.794  12.251 -0.2037  0.0827 -0.3135
   78MOL0     H10714   2.333   8.884  12.541  0.2968 -0.2539 -0.2243
   78MOL0     H10715   2.231   8.858  12.396  2.0157 -1.2307  0.6267
   78MOL0     H10716   2.161   9.099  12.410  0.2962 -0.0605  0.6218
   78MOL0     H10717   2.109   9.006  12.551 -1.4038  2.5989 -0.2581
   78MOL0     H10718   2.331   9.217  12.521  2.0119 -1.5551  0.2971
   78MOL0     H10719   2.181   9.219  12.622  0.0090  0.1540  1.0628
   78MOL0     H10720   2.436   9.054  12.657  0.2380 -3.8739  3.6497
   78MOL0     H10721   2.388   9.179  12.766  1.9764 -1.3550  1.4221
   78MOL0     H10722   2.277   9.185  12.959  0.9907 -1.7718  0.6202
   78MOL0     H10723   2.211   9.331  13.089 -0.3479  0.6107  0.0450
   78MOL0     H10724   2.091   9.295  13.217  2.2622  2.4756  0.6852
   78MOL0     H10725   2.043   9.388  13.088 -2.5722 -2.0259  1.4337
   78MOL0     H10726   1.664   9.133  13.325 -1.1587 -0.4306  0.1148
   78MOL0     H10727   1.436   9.144  13.424 -0.8377  0.8920  0.0950
   78MOL0     H10728   1.214   8.986  13.392  0.5191  0.2462 -0.5284
   78MOL0     H10729   1.209   9.151  13.473 -1.7739 -1.0769  1.0628
   78MOL0     H10730   0.999   9.015  13.513 -1.8937  0.2208 -0.0184
   78MOL0     H10731   0.989   9.173  13.454 -3.4724 -2.1092  2.0414
   78MOL0     H10732   0.942   8.915  13.294 -1.4749 -0.0911 -1.6757
   78MOL0     H10733   0.978   9.069  13.216  0.9357  2.7615  1.6996
   78MOL0     H10734   0.768   9.154  13.316  0.0600 -1.3290 -1.1808
   78MOL0     H10735   0.773   9.031  13.447  0.8344  0.1426  0.3718
   78MOL0     H10736   0.735   8.948  13.162  0.0542  0.8493  0.1869
   78MOL0     H10737   0.704   8.849  13.308 -0.6829  0.0903 -0.2719
   78MOL0     H10738   0.541   9.061  13.194 -0.5463 -0.6977 -0.0630
   78MOL0     H10739   0.538   9.034  13.375  2.5846  2.5145  0.1769
   78MOL0     H10740   0.462   8.808  13.357 -0.1479  3.6119  1.9908
   78MOL0     H10741   0.491   8.808  13.182  2.8941  0.7202 -0.1538
   78MOL0     H10742   0.306   8.993  13.324 -0.4860 -1.1329  0.8176
   78MOL0     H10743   0.247   8.831  13.261  0.0738  0.3075  0.3134
   78MOL0     H10744   1.278   9.176  13.029  0.3761 -1.1719 -0.0695
   78MOL0     H10745   1.498   9.110  12.927 -0.5467  3.7890 -0.5150
   78MOL0     H10746   1.858   8.957  12.904  0.1657 -0.7343  4.1612
   78MOL0     H10747   2.044   8.928  12.746  1.5773  4.0978 -2.5117
   78MOL0     H10748   3.352   9.305  11.576  2.4842  0.7480 -0.6800
   78MOL0     H10749   3.512   9.471  11.489  0.4139  3.5388 -0.5120
   78MOL0     H10750   3.687   9.697  11.127  1.6376 -0.3746  0.3271
   78MOL0     H10751   3.868   9.801  11.047  1.0164  3.4358  0.6223
   78MOL0     H10752   4.061   9.845  11.023  0.7813 -0.2714  1.7599
   78MOL0     H10753   4.128   9.990  10.989 -0.0345 -0.9066 -0.3868
   78MOL0     H10754   4.231   9.980  11.239  2.2267  0.9006 -2.5240
   78MOL0     H10755   4.310   9.874  11.127  0.9412 -0.9496  1.6254
   78MOL0     H10756   4.119   9.809  11.354 -1.3394  0.5871 -1.6412
   78MOL0     H10757   4.112   9.697  11.222 -3.0054  1.5538  2.8924
   78MOL0     H10758   4.332   9.782  11.413 -0.7818  0.4246 -0.1943
   78MOL0     H10759   4.380   9.700  11.256 -1.3421 -1.5527 -1.5735
   78MOL0     H10760   4.219   9.407  11.524  0.3329  1.2485  1.5722
   78MOL0     H10761   3.897  10.045  11.392  2.6025 -1.3765  0.9218
   78MOL0     H10762   3.764  10.030  11.576  3.0675 -0.7345 -2.7156
   78MOL0     H10763   3.607   9.989  11.519 -0.3093 -1.1333 -5.1356
   78MOL0     H10764   3.691   9.862  11.608  1.3267 -0.5181  0.4793
   79MOL0     O10765  10.403   6.105   0.548 -0.7359 -0.0296  0.4147
   79MOL0     C10766  10.431   6.001   0.601 -0.1971 -0.3647  0.5656
   79MOL0     O10767  10.533   5.920   0.566 -0.9082 -1.6155 -0.2513
   79MOL0     C10768  10.583   5.941   0.440 -0.6491 -0.1928 -0.4525
   79MOL0     C10769  10.685   6.029   0.407  0.6560  0.5055 -0.8181
   79MOL0     C10770  10.725   6.050   0.274  0.1665  0.1918  1.3385
   79MOL0     C10771  10.666   5.983   0.161 -0.4826 -0.2104  0.3408
   79MOL0     O10772  10.713   5.991   0.034  0.9127 -0.5114 -0.2693
   79MOL0     C10773  10.833   5.929   0.008  1.0005 -0.7639  0.5935
   79MOL0     C10774  10.833   5.781   0.010  0.0175  0.0068 -0.1672
   79MOL0     C10775  10.975   5.738  -0.040  0.8154 -0.5701  0.2399
   79MOL0     C10776  10.997   5.584  -0.023 -0.2107 -0.2888 -0.6697
   79MOL0     C10777  11.141   5.552  -0.099 -0.0706  0.7568  0.4354
   79MOL0     C10778  11.187   5.409  -0.076  0.2220 -0.5133 -0.4731
   79MOL0     C10779  11.310   5.361  -0.169  0.6138 -0.0742  1.3364
   79MOL0     C10780  11.435   5.436  -0.133 -0.1315  0.2216 -0.3319
   79MOL0     N10781  11.544   5.390  -0.217 -0.5030 -0.3831  0.3844
   79MOL0     C10782  11.585   5.455  -0.333 -0.2554  0.9740  1.0406
   79MOL0     C10783  11.694   5.377  -0.379  0.5855 -0.5555 -0.4089
   79MOL0     C10784  11.791   5.415  -0.490 -0.0567  0.2835 -0.3046
   79MOL0     C10785  11.931   5.463  -0.458  0.2630 -0.0328 -0.5486
   79MOL0     C10786  12.030   5.341  -0.441 -0.7325 -0.9432  1.0362
   79MOL0     C10787  12.173   5.368  -0.404  0.2655  0.0257 -0.2006
   79MOL0     O10788  12.237   5.241  -0.436 -0.1388  0.2369  0.0184
   79MOL0     C10789  12.373   5.217  -0.426  0.3959  1.2921 -0.5538
   79MOL0     C10790  12.417   5.090  -0.465  0.2461 -0.4131  0.4966
   79MOL0     C10791  12.553   5.053  -0.448 -0.2827  0.8834  0.4361
   79MOL0     C10792  12.589   4.916  -0.493 -0.5120  1.2319  0.5109
   79MOL0     C10793  12.648   5.140  -0.389  0.5505 -0.1423 -0.2751
   79MOL0     C10794  12.795   5.126  -0.369  0.0582  0.0092  0.2419
   79MOL0     O10795  12.858   5.216  -0.295  0.3121 -0.6382  0.6948
   79MOL0     C10796  12.990   5.193  -0.265 -0.0794  0.7263  0.5645
   79MOL0     C10797  13.094   5.208  -0.357  0.6867 -0.0208  1.0033
   79MOL0     C10798  13.228   5.195  -0.320  0.1856 -0.3826 -0.4707
   79MOL0     C10799  13.259   5.186  -0.179 -0.2331  0.0881 -0.2763
   79MOL0     O10800  13.386   5.192  -0.127 -0.4724 -0.0959 -0.5207
   79MOL0     C10801  13.492   5.181  -0.222 -0.3216  0.4274 -0.3251
   79MOL0     C10802  13.608   5.101  -0.155  0.7992 -0.6519 -0.4990
   79MOL0     C10803  13.684   5.198  -0.061 -0.0017 -0.2341  0.1674
   79MOL0     C10804  13.789   5.136   0.031  0.1993  0.3761  0.6442
   79MOL0     C10805  13.880   5.254   0.093 -0.1856  1.2817  1.1810
   79MOL0     C10806  13.999   5.178   0.160  0.3412 -0.2549 -0.5654
   79MOL0     C10807  14.070   5.285   0.243 -0.8206 -1.1768 -0.3387
   79MOL0     C10808  14.195   5.244   0.324 -0.0712  0.4841  0.6789
   79MOL0    Cl10809  14.158   5.156   0.472  0.0109 -0.0445 -0.3903
   79MOL0     C10810  13.152   5.183  -0.083  0.4905  0.5157  0.0357
   79MOL0     C10811  13.014   5.174  -0.128  0.5178 -0.1502  0.1361
   79MOL0     O10812  12.849   5.024  -0.414 -0.6176 -0.0014  0.1462
   79MOL0     C10813  12.593   5.266  -0.355  0.3795 -0.7024 -0.4658
   79MOL0     C10814  12.465   5.302  -0.372  0.4514 -0.3503 -0.4096
   79MOL0     N10815  11.710   5.277  -0.292 -1.6458  0.5138 -0.8070
   79MOL0     N10816  11.624   5.291  -0.196  0.7090  0.2702  0.8964
   79MOL0     C10817  10.560   5.898   0.192 -0.3502  0.2535 -1.1659
   79MOL0     C10818  10.518   5.870   0.335 -1.0264  0.0115  0.3108
   79MOL0     C10819  10.359   5.946   0.717 -1.6455  0.1646  0.6643
   79MOL0     C10820  10.414   5.835   0.785  0.9964 -0.2147  0.1425
   79MOL0     C10821  10.336   5.769   0.878  0.6228  0.2907 -0.2489
   79MOL0     C10822  10.218   5.828   0.929  0.4755 -0.1405  0.2842
   79MOL0     O10823  10.156   5.779   1.041 -0.1053 -0.6113  0.1121
   79MOL0     C10824  10.043   5.855   1.084  1.0016 -0.1737 -0.5101
   79MOL0     C10825  10.001   5.800   1.221 -0.7193 -0.0383  0.7031
   79MOL0     C10826   9.852   5.834   1.246  0.5381 -0.1301 -0.1075
   79MOL0     C10827   9.837   5.868   1.399 -0.7854  0.4712 -0.0737
   79MOL0     C10828   9.874   5.744   1.474 -0.2979  0.6455  0.0270
   79MOL0     C10829   9.888   5.665   1.561  0.0316 -0.2973 -0.3742
   79MOL0     C10830  10.169   5.934   0.853  0.3965 -0.7171 -0.0553
   79MOL0     C10831  10.232   5.997   0.747  0.8876  0.8662 -0.7759
   79MOL0     C10832  10.152   6.108   0.682 -0.4374 -0.1362  0.3082
   79MOL0     H10833  10.726   6.081   0.492 -1.5719 -0.5369  1.0014
   79MOL0     H10834  10.800   6.122   0.244  1.3372 -1.8924 -1.0963
   79MOL0     H10835  10.907   5.964   0.081  0.4159 -2.6269  2.1581
   79MOL0     H10836  10.867   5.962  -0.090 -1.0031 -0.3685 -0.0251
   79MOL0     H10837  10.813   5.752   0.113 -1.9305 -0.9512 -0.7706
   79MOL0     H10838  10.755   5.737  -0.053 -2.7454 -0.6216  3.3778
   79MOL0     H10839  10.992   5.772  -0.143  0.7568  4.2712  1.5642
   79MOL0     H10840  11.052   5.797   0.011  2.4828 -1.0367 -1.6119
   79MOL0     H10841  11.010   5.566   0.084  1.8781 -1.9382 -1.1273
   79MOL0     H10842  10.918   5.520  -0.063  0.9321 -1.1659 -1.5787
   79MOL0     H10843  11.217   5.618  -0.058  0.2575 -0.7935  2.4896
   79MOL0     H10844  11.112   5.579  -0.201 -2.9353  1.0778  1.2392
   79MOL0     H10845  11.214   5.399   0.030 -2.0996  2.1270  0.4718
   79MOL0     H10846  11.101   5.346  -0.099 -0.4119  0.2450 -0.2116
   79MOL0     H10847  11.276   5.362  -0.273 -0.2424 -1.4164  1.5718
   79MOL0     H10848  11.334   5.255  -0.157  0.0352 -0.3376  0.2494
   79MOL0     H10849  11.421   5.542  -0.158 -1.7587  0.3487  0.9367
   79MOL0     H10850  11.447   5.431  -0.025 -0.7894  2.7593 -0.0940
   79MOL0     H10851  11.546   5.547  -0.378 -1.4419  0.0216  0.0165
   79MOL0     H10852  11.739   5.487  -0.553 -0.9369  0.2219  0.3270
   79MOL0     H10853  11.806   5.322  -0.546  1.9811  1.2021 -1.4047
   79MOL0     H10854  11.958   5.520  -0.548 -0.1778  1.1386  0.0366
   79MOL0     H10855  11.923   5.517  -0.363 -2.4022 -2.5379  0.7907
   79MOL0     H10856  11.985   5.280  -0.362 -1.7211 -0.2198  1.0507
   79MOL0     H10857  12.024   5.286  -0.536 -0.1302 -0.6216  0.8031
   79MOL0     H10858  12.212   5.447  -0.470  0.6964  0.7861  0.9269
   79MOL0     H10859  12.182   5.402  -0.300  0.9912  1.1292 -0.5982
   79MOL0     H10860  12.351   5.011  -0.499  0.9584 -0.8245  0.0661
   79MOL0     H10861  12.506   4.850  -0.521 -1.1342  1.8648  0.8142
   79MOL0     H10862  12.636   4.866  -0.408  0.0137  1.1543  0.1789
   79MOL0     H10863  12.663   4.924  -0.574  0.1320 -0.0451  0.9423
   79MOL0     H10864  13.075   5.234  -0.461  1.0897  1.0803  1.1949
   79MOL0     H10865  13.309   5.218  -0.389  2.1439  0.9252  2.0954
   79MOL0     H10866  13.469   5.120  -0.309 -0.3956 -2.4482  1.5773
   79MOL0     H10867  13.528   5.282  -0.244 -0.6927  0.0277 -3.0049
   79MOL0     H10868  13.564   5.013  -0.106 -0.5545 -0.0988 -0.6696
   79MOL0     H10869  13.680   5.059  -0.225 -0.0835 -0.5477 -1.4841
   79MOL0     H10870  13.609   5.249  -0.001  1.9356 -0.3866  2.8790
   79MOL0     H10871  13.721   5.276  -0.128 -0.7291 -1.2665 -1.5081
   79MOL0     H10872  13.851   5.079  -0.039  1.1104  1.3178  0.6429
   79MOL0     H10873  13.739   5.062   0.094  1.2330 -0.4614  0.5042
   79MOL0     H10874  13.915   5.333   0.026 -2.5862 -0.3763 -2.3249
   79MOL0     H10875  13.818   5.303   0.169  1.2968  1.8657  2.0709
   79MOL0     H10876  14.068   5.148   0.081  0.3062  4.0438 -2.5294
   79MOL0     H10877  13.973   5.096   0.227  1.7623  1.0776  1.7440
   79MOL0     H10878  14.004   5.333   0.316 -2.5104 -1.2515 -1.7457
   79MOL0     H10879  14.100   5.366   0.176  0.9413 -2.0996 -0.7310
   79MOL0     H10880  14.256   5.325   0.366  4.2491 -2.7154  1.2522
   79MOL0     H10881  14.257   5.181   0.260 -2.0124 -0.0968 -0.7263
   79MOL0     H10882  13.174   5.190   0.023  4.0731  1.4981 -0.6358
   79MOL0     H10883  12.932   5.149  -0.062 -1.8567  0.4997 -2.3565
   79MOL0     H10884  12.658   5.340  -0.309  1.1833 -2.7285  1.8969
   79MOL0     H10885  12.428   5.398  -0.338 -1.1878 -1.2568  0.4536
   79MOL0     H10886  10.524   5.837   0.111 -0.3176 -0.5089 -0.6139
   79MOL0     H10887  10.453   5.784   0.348 -1.7183  0.2312 -1.4119
   79MOL0     H10888  10.512   5.795   0.763  1.8389  1.9255 -0.2698
   79MOL0     H10889  10.364   5.671   0.914  0.8404 -0.2656 -1.8712
   79MOL0     H10890  10.075   5.959   1.096 -1.5166  0.3406  3.8885
   79MOL0     H10891   9.966   5.846   1.006  2.3930  1.9424 -2.2521
   79MOL0     H10892  10.074   5.847   1.287 -0.4228 -0.0051  0.3521
   79MOL0     H10893  10.013   5.691   1.221  0.8048  0.0770 -1.5372
   79MOL0     H10894   9.810   5.921   1.194  0.2184  0.7055  1.4723
   79MOL0     H10895   9.780   5.757   1.217 -1.2119  2.1058 -2.2324
   79MOL0     H10896   9.742   5.912   1.430 -1.2646  0.5554 -1.5934
   79MOL0     H10897   9.918   5.939   1.414 -1.0258  1.0418 -1.3053
   79MOL0     H10898   9.908   5.589   1.634  0.9216 -0.5097 -0.8110
   79MOL0     H10899  10.080   5.989   0.880  0.5900  1.7679 -3.7615
   79MOL0     H10900  10.210   6.200   0.699  0.5448 -0.7577  0.3677
   79MOL0     H10901  10.155   6.095   0.573  0.2518 -0.7666  0.3917
   79MOL0     H10902  10.050   6.121   0.719 -0.6840 -1.7856  0.2634
   80MOL0     O10903  10.858   5.017   5.505 -0.5327 -0.1500  0.6487
   80MOL0     C10904  10.870   4.946   5.595  0.1485 -0.7536  0.6243
   80MOL0     O10905  10.954   4.844   5.590 -0.3922 -0.5171  0.1019
   80MOL0     C10906  11.011   4.794   5.700  0.4793  0.1590 -1.1554
   80MOL0     C10907  11.088   4.869   5.787  0.7830  1.3314  0.5396
   80MOL0     C10908  11.155   4.808   5.894 -0.0950  0.3561 -0.5138
   80MOL0     C10909  11.151   4.663   5.917 -1.0048 -1.0948 -0.2468
   80MOL0     O10910  11.230   4.617   6.022  1.0602  0.4796  0.4528
   80MOL0     C10911  11.225   4.472   6.051 -0.1554 -0.8270  0.0635
   80MOL0     C10912  11.250   4.454   6.200 -0.0047  0.2933  0.5195
   80MOL0     C10913  11.273   4.310   6.246  0.3707  0.4365 -0.2529
   80MOL0     C10914  11.346   4.327   6.385 -0.5740  0.6053  0.2841
   80MOL0     C10915  11.365   4.203   6.467  0.0235  0.3216 -0.0181
   80MOL0     C10916  11.246   4.160   6.561 -0.0721 -0.7658  0.3776
   80MOL0     C10917  11.290   4.062   6.672 -0.0317 -0.7284 -0.1551
   80MOL0     C10918  11.185   4.067   6.792  0.3503  0.5494 -0.5572
   80MOL0     N10919  11.192   4.192   6.872 -0.2586  0.8921 -0.9542
   80MOL0     C10920  11.310   4.261   6.898 -0.0409 -0.8632 -0.8782
   80MOL0     C10921  11.270   4.363   6.971 -0.0608 -0.5880 -0.6584
   80MOL0     C10922  11.357   4.483   7.014 -0.4590  0.1230 -0.2232
   80MOL0     C10923  11.322   4.612   6.949  0.1869 -0.5599 -1.0797
   80MOL0     C10924  11.342   4.731   7.047  0.5144  0.3165  0.4206
   80MOL0     C10925  11.284   4.856   6.989  0.3792  0.7441  0.7681
   80MOL0     O10926  11.334   4.891   6.861 -0.6090  0.0541 -0.0717
   80MOL0     C10927  11.271   4.995   6.802 -0.9314 -0.1191  0.1757
   80MOL0     C10928  11.289   5.005   6.662  0.0259  0.2163  0.5347
   80MOL0     C10929  11.228   5.101   6.584 -0.4671 -0.5267  0.1629
   80MOL0     C10930  11.266   5.109   6.441  0.4590  0.2635  0.2510
   80MOL0     C10931  11.133   5.194   6.642 -0.2785 -0.1783 -0.0207
   80MOL0     C10932  11.060   5.296   6.561  0.7805 -0.0381  0.4808
   80MOL0     O10933  11.029   5.410   6.631  0.3484  0.8060 -0.0379
   80MOL0     C10934  10.958   5.515   6.573  0.4929 -0.9622  0.3919
   80MOL0     C10935  10.861   5.511   6.466  0.1313 -0.1015 -0.7222
   80MOL0     C10936  10.807   5.629   6.408 -0.0827 -0.8445 -0.1869
   80MOL0     C10937  10.822   5.753   6.480 -0.3682 -0.4299 -0.6118
   80MOL0     O10938  10.774   5.868   6.420 -0.9141  0.4624 -0.8821
   80MOL0     C10939  10.822   6.007   6.461  0.0231 -0.4187 -0.7490
   80MOL0     C10940  10.729   6.078   6.562 -0.6061 -0.1023 -0.1818
   80MOL0     C10941  10.583   6.058   6.531  0.1558 -0.5812  0.4858
   80MOL0     C10942  10.535   6.135   6.404 -0.1809 -0.2765 -0.2810
   80MOL0     C10943  10.534   6.293   6.426  0.4404 -0.2202  0.2595
   80MOL0     C10944  10.489   6.361   6.298 -0.4684 -0.4622 -0.1381
   80MOL0     C10945  10.341   6.394   6.279  0.4590  0.0286  0.2381
   80MOL0     C10946  10.307   6.514   6.362  0.1743 -0.3035  0.0850
   80MOL0    Cl10947  10.131   6.555   6.362 -0.1975 -0.2001 -0.0216
   80MOL0     C10948  10.902   5.750   6.603  0.0012  0.7401 -0.7446
   80MOL0     C10949  10.976   5.635   6.640  0.3636  0.7029  0.0442
   80MOL0     O10950  11.033   5.287   6.441  0.5211 -0.1841  0.5098
   80MOL0     C10951  11.126   5.188   6.781  0.4150 -1.1557 -0.7482
   80MOL0     C10952  11.195   5.096   6.860  0.1521  0.6102 -0.0084
   80MOL0     N10953  11.139   4.360   6.977  1.1468 -0.0492 -0.7570
   80MOL0     N10954  11.092   4.264   6.920  0.5544 -0.2217 -0.0256
   80MOL0     C10955  11.087   4.587   5.819 -0.3127 -0.1047  0.4686
   80MOL0     C10956  11.020   4.654   5.712 -0.8983  0.0431  1.3010
   80MOL0     C10957  10.779   4.960   5.715 -0.1638  0.5179  0.6617
   80MOL0     C10958  10.716   4.848   5.771  0.3844  0.0977 -0.0307
   80MOL0     C10959  10.603   4.865   5.857 -0.7169  0.0384 -0.2315
   80MOL0     C10960  10.568   4.989   5.904  0.4502 -0.1899 -0.1900
   80MOL0     O10961  10.462   5.002   5.995  0.0196 -0.4282  0.1515
   80MOL0     C10962  10.421   5.132   6.047  0.0369  0.2974 -0.3259
   80MOL0     C10963  10.319   5.197   5.952 -0.1068 -0.9242  0.2003
   80MOL0     C10964  10.201   5.091   5.927  0.6846  0.0685 -0.2352
   80MOL0     C10965  10.090   5.168   5.840  0.1278  0.2563  0.0044
   80MOL0     C10966  10.025   5.059   5.758  0.0520 -0.7918  0.5359
   80MOL0     C10967   9.971   4.978   5.686 -0.7279 -0.9996  0.9221
   80MOL0     C10968  10.631   5.104   5.842 -0.4842  0.2803  0.4615
   80MOL0     C10969  10.738   5.089   5.752  0.0940 -0.2906 -0.3499
   80MOL0     C10970  10.801   5.210   5.698  0.4425 -0.2146 -0.5697
   80MOL0     H10971  11.080   4.976   5.772 -0.2797  1.4079  1.4438
   80MOL0     H10972  11.234   4.866   5.941  2.3264 -3.7068  0.9411
   80MOL0     H10973  11.291   4.421   5.979 -0.9319 -2.6079  0.5668
   80MOL0     H10974  11.120   4.442   6.044  0.4958 -3.5877  0.9811
   80MOL0     H10975  11.344   4.502   6.229 -0.6025  0.9827  1.3887
   80MOL0     H10976  11.175   4.502   6.265 -1.7230 -1.3238 -0.1818
   80MOL0     H10977  11.184   4.253   6.275  1.3788 -3.0035 -3.1965
   80MOL0     H10978  11.319   4.246   6.170 -3.9384 -2.7335 -0.6200
   80MOL0     H10979  11.443   4.376   6.373  0.0397 -0.2068  1.7389
   80MOL0     H10980  11.285   4.396   6.443  1.0561  0.7550  1.9128
   80MOL0     H10981  11.457   4.224   6.522  0.9668 -0.0688 -1.3849
   80MOL0     H10982  11.393   4.115   6.407  0.8888 -0.2047  1.1190
   80MOL0     H10983  11.216   4.251   6.614  0.0310  0.0064 -0.8354
   80MOL0     H10984  11.163   4.129   6.498 -0.6582  2.0966 -0.4240
   80MOL0     H10985  11.387   4.091   6.714  1.0035 -0.9029 -2.2610
   80MOL0     H10986  11.292   3.959   6.635  0.6007 -0.3331 -1.2727
   80MOL0     H10987  11.084   4.041   6.760 -0.5748  0.3223  2.2780
   80MOL0     H10988  11.204   3.983   6.858  1.1001 -1.0062 -2.6281
   80MOL0     H10989  11.415   4.251   6.876  0.4032  2.7201 -1.0182
   80MOL0     H10990  11.459   4.451   6.993  0.0631  0.5801  1.4722
   80MOL0     H10991  11.351   4.494   7.122 -0.5196  0.2660 -0.2403
   80MOL0     H10992  11.385   4.636   6.863  3.6608  0.1636  1.4529
   80MOL0     H10993  11.218   4.608   6.915  0.0645 -0.9659 -0.6598
   80MOL0     H10994  11.298   4.712   7.145  0.6468 -0.4776  0.3354
   80MOL0     H10995  11.449   4.745   7.060  0.8213 -1.5576  0.2811
   80MOL0     H10996  11.175   4.846   6.986  0.3110  1.5412 -1.0341
   80MOL0     H10997  11.311   4.929   7.065 -0.3697  0.8333  0.9496
   80MOL0     H10998  11.345   4.932   6.603  2.4934  3.0704 -0.9560
   80MOL0     H10999  11.307   5.208   6.418  0.8891 -0.8269 -4.6855
   80MOL0     H11000  11.176   5.093   6.381 -0.9498 -0.3660  2.4080
   80MOL0     H11001  11.344   5.036   6.416  1.7597  1.3237  1.0918
   80MOL0     H11002  10.842   5.412   6.427  1.8485 -1.0363  0.7069
   80MOL0     H11003  10.751   5.614   6.316 -2.5475 -1.4437  1.3125
   80MOL0     H11004  10.922   6.007   6.506  0.2738 -0.7570 -1.2998
   80MOL0     H11005  10.816   6.071   6.373  0.2820  1.2912  0.4297
   80MOL0     H11006  10.744   6.051   6.667  2.0882  0.0439 -0.4516
   80MOL0     H11007  10.747   6.186   6.563  2.5217 -0.4611 -2.0497
   80MOL0     H11008  10.539   6.102   6.620 -0.7283 -0.8287  0.1837
   80MOL0     H11009  10.557   5.952   6.522  1.6035 -0.8545 -0.8528
   80MOL0     H11010  10.436   6.097   6.379 -0.1065 -1.6117  1.2313
   80MOL0     H11011  10.597   6.113   6.316 -0.4384  0.4516 -0.6502
   80MOL0     H11012  10.471   6.315   6.513 -0.0247 -0.4082 -0.0257
   80MOL0     H11013  10.635   6.324   6.456 -0.5271  0.8361  2.7114
   80MOL0     H11014  10.516   6.312   6.204 -4.0887  0.7925 -2.0672
   80MOL0     H11015  10.547   6.454   6.300 -1.0159 -0.1120 -0.0282
   80MOL0     H11016  10.281   6.314   6.324  0.1519 -0.1453 -0.4631
   80MOL0     H11017  10.315   6.408   6.173  0.9584  2.2518  0.3642
   80MOL0     H11018  10.354   6.602   6.316 -3.4681  1.5213 -0.5581
   80MOL0     H11019  10.342   6.502   6.464  0.5981  1.2556  0.1525
   80MOL0     H11020  10.921   5.837   6.664  2.7148  1.2064 -2.0911
   80MOL0     H11021  11.043   5.628   6.725  1.8390  2.5839 -0.8771
   80MOL0     H11022  11.060   5.248   6.843 -1.5465 -2.8329 -1.0726
   80MOL0     H11023  11.180   5.106   6.967  2.1497  1.1471  0.2573
   80MOL0     H11024  11.083   4.479   5.831  0.9830 -0.2006  0.2024
   80MOL0     H11025  10.986   4.592   5.631 -1.9942 -1.5299  2.8957
   80MOL0     H11026  10.734   4.748   5.733  0.0233  0.7405 -2.0027
   80MOL0     H11027  10.556   4.779   5.903  0.2452 -0.1816  0.3544
   80MOL0     H11028  10.382   5.108   6.147  0.3228 -0.9298 -0.4931
   80MOL0     H11029  10.514   5.187   6.064  0.6938 -1.1811  1.2192
   80MOL0     H11030  10.374   5.239   5.867 -0.7173 -1.4970 -0.4896
   80MOL0     H11031  10.267   5.285   5.992 -0.4397 -0.7335 -0.6335
   80MOL0     H11032  10.240   5.002   5.876 -0.5021 -0.1855 -0.7263
   80MOL0     H11033  10.161   5.064   6.025 -0.9221  3.9501  0.3600
   80MOL0     H11034  10.131   5.242   5.770  1.6888 -0.1504  0.4403
   80MOL0     H11035  10.014   5.215   5.902 -0.6573  0.8012 -1.3151
   80MOL0     H11036   9.935   4.905   5.616  1.3998 -2.8133  1.6030
   80MOL0     H11037  10.596   5.204   5.866  1.5315  1.7080 -2.0494
   80MOL0     H11038  10.743   5.236   5.609 -4.9675  0.2076  2.6120
   80MOL0     H11039  10.787   5.301   5.757 -2.5438 -0.4642 -0.7018
   80MOL0     H11040  10.908   5.193   5.683  1.4771 -0.3124  5.0115
   81MOL0     O11041  10.351  10.225   2.139 -0.1449 -0.0946 -0.0173
   81MOL0     C11042  10.266  10.288   2.204  0.0400 -0.2372 -0.2613
   81MOL0     O11043  10.130  10.302   2.176 -0.6052  0.6340 -0.5988
   81MOL0     C11044  10.070  10.218   2.084  0.3760 -0.5404 -0.8138
   81MOL0     C11045   9.999  10.281   1.982 -0.4720  0.9413 -0.7297
   81MOL0     C11046   9.927  10.208   1.881 -0.1324 -0.2273 -0.8423
   81MOL0     C11047   9.917  10.066   1.887  0.3594 -0.6019 -0.8006
   81MOL0     O11048   9.820  10.006   1.811  1.4177  1.0537  0.1859
   81MOL0     C11049   9.747   9.884   1.849 -1.4294 -0.6276 -0.1553
   81MOL0     C11050   9.684   9.906   1.984 -0.7385  0.0889 -0.1337
   81MOL0     C11051   9.573  10.015   1.974  0.7446 -0.1238 -0.6087
   81MOL0     C11052   9.455   9.979   1.882  0.3226 -0.8061  0.2752
   81MOL0     C11053   9.328  10.056   1.907 -0.1250  0.1622  0.4356
   81MOL0     C11054   9.333  10.204   1.866  0.1422  0.3895  0.1781
   81MOL0     C11055   9.188  10.247   1.847  0.1723  0.0274  0.2162
   81MOL0     C11056   9.097  10.262   1.975 -0.0551 -0.6993  0.1690
   81MOL0     N11057   8.978  10.346   1.948 -0.0956 -0.0056  1.5892
   81MOL0     C11058   8.894  10.318   1.841 -0.4992  0.2478  0.2311
   81MOL0     C11059   8.781  10.383   1.877  0.6870 -0.4986 -0.5476
   81MOL0     C11060   8.651  10.389   1.799 -0.3434 -0.2663  0.1451
   81MOL0     C11061   8.680  10.486   1.676 -0.7351 -0.4008 -0.4941
   81MOL0     C11062   8.560  10.494   1.576 -0.3415 -0.0809 -0.2028
   81MOL0     C11063   8.478  10.372   1.571  0.5744  0.1833  0.9640
   81MOL0     O11064   8.389  10.376   1.456  0.9413 -0.6134 -0.0950
   81MOL0     C11065   8.281  10.455   1.474  1.4730 -0.9424 -0.0774
   81MOL0     C11066   8.234  10.535   1.366 -0.0298 -0.1581 -0.3946
   81MOL0     C11067   8.106  10.607   1.370 -1.4282  0.8200  0.2726
   81MOL0     C11068   8.078  10.690   1.255 -0.1490  1.2247 -0.5563
   81MOL0     C11069   8.018  10.581   1.484 -0.4830  0.1398  0.0170
   81MOL0     C11070   7.881  10.637   1.499  0.2139  1.0384  0.9314
   81MOL0     O11071   7.799  10.602   1.605  0.5612 -0.6360  0.3772
   81MOL0     C11072   7.666  10.640   1.590 -0.9457  1.9580 -0.4241
   81MOL0     C11073   7.572  10.545   1.547 -0.3752 -1.2250  0.2376
   81MOL0     C11074   7.441  10.586   1.523  0.5054  0.8403 -0.7259
   81MOL0     C11075   7.404  10.722   1.525 -0.1197  0.2073  0.0232
   81MOL0     O11076   7.280  10.743   1.467 -0.7631 -0.4739 -0.1758
   81MOL0     C11077   7.218  10.871   1.472 -0.0388 -0.1662 -0.0769
   81MOL0     C11078   7.243  10.950   1.340 -0.0340 -0.3616  0.5608
   81MOL0     C11079   7.223  10.872   1.207 -0.2647 -0.4788 -0.2077
   81MOL0     C11080   7.093  10.799   1.204 -0.8668  0.3075 -0.2060
   81MOL0     C11081   7.066  10.748   1.068 -0.1426 -0.1622 -0.1614
   81MOL0     C11082   7.166  10.657   1.009 -0.5631  1.3299 -0.5523
   81MOL0     C11083   7.107  10.602   0.874  0.1428  0.3350 -0.5358
   81MOL0     C11084   7.188  10.484   0.829 -1.3557 -0.0667  0.0651
   81MOL0    Cl11085   7.344  10.532   0.743  0.5868  0.0633 -0.4823
   81MOL0     C11086   7.501  10.814   1.572  0.5020 -0.6619  0.0352
   81MOL0     C11087   7.625  10.775   1.607 -0.0854 -1.3313  0.6181
   81MOL0     O11088   7.849  10.704   1.407  0.0673 -0.0110  0.7866
   81MOL0     C11089   8.070  10.502   1.588  1.0502 -0.4523  0.2441
   81MOL0     C11090   8.196  10.448   1.592 -0.0102 -0.4802  0.2284
   81MOL0     N11091   8.813  10.460   1.988 -0.8408  0.3631 -0.0276
   81MOL0     N11092   8.929  10.431   2.032 -0.6379  0.3255 -0.3170
   81MOL0     C11093  10.010  10.007   1.979  1.6291  0.3024  0.1875
   81MOL0     C11094  10.072  10.081   2.082 -0.8213  0.1267 -0.0363
   81MOL0     C11095  10.299  10.354   2.337  0.2611  0.6408 -0.4892
   81MOL0     C11096  10.432  10.357   2.374  0.9153 -0.5620  0.1658
   81MOL0     C11097  10.489  10.423   2.488  0.2396 -0.5141  0.4344
   81MOL0     C11098  10.401  10.494   2.570 -0.3048  0.4350 -0.1388
   81MOL0     O11099  10.439  10.567   2.676 -0.3240 -0.7682 -0.6657
   81MOL0     C11100  10.427  10.705   2.654 -0.2972  0.4158  1.0131
   81MOL0     C11101  10.475  10.779   2.775 -0.6543 -0.7697 -0.2012
   81MOL0     C11102  10.476  10.929   2.741  0.0743 -0.7223 -0.0374
   81MOL0     C11103  10.534  11.010   2.853 -0.0411  0.9680  1.6532
   81MOL0     C11104  10.548  11.144   2.798 -0.6551 -0.0992  0.9399
   81MOL0     C11105  10.559  11.249   2.747  0.3085 -0.0116  1.4573
   81MOL0     C11106  10.262  10.488   2.538  0.4965  0.5806  0.1086
   81MOL0     C11107  10.203  10.422   2.425  0.6155 -0.1167  0.7282
   81MOL0     C11108  10.047  10.425   2.427 -0.0594 -0.4164  0.2211
   81MOL0     H11109   9.993  10.389   1.988 -2.2764  0.8313  0.1184
   81MOL0     H11110   9.879  10.273   1.809 -0.5276  0.7998  0.3064
   81MOL0     H11111   9.816   9.800   1.837  0.9639  1.5264 -3.1747
   81MOL0     H11112   9.660   9.878   1.783 -2.2164 -1.3473  0.9203
   81MOL0     H11113   9.635   9.810   2.007 -1.3571 -0.7991 -4.4007
   81MOL0     H11114   9.767   9.923   2.054 -0.4254 -0.4780 -0.3647
   81MOL0     H11115   9.544  10.033   2.078 -0.1596  2.8134 -1.2674
   81MOL0     H11116   9.623  10.107   1.942 -1.0373  1.5282  1.0686
   81MOL0     H11117   9.482  10.004   1.778  0.7844  0.2885  0.6376
   81MOL0     H11118   9.432   9.873   1.885 -0.2243 -0.6896  0.2552
   81MOL0     H11119   9.302  10.039   2.011  1.1307  1.1769  0.9559
   81MOL0     H11120   9.246  10.011   1.851  1.1291 -2.7359  0.7356
   81MOL0     H11121   9.387  10.266   1.939  1.7449 -1.1008  0.3159
   81MOL0     H11122   9.385  10.206   1.770  0.6855  1.3651  0.4700
   81MOL0     H11123   9.143  10.168   1.787  2.2701 -1.9865  1.1150
   81MOL0     H11124   9.196  10.347   1.803 -1.2570 -0.1415 -0.4701
   81MOL0     H11125   9.072  10.162   2.013 -1.7318 -0.1116  0.6807
   81MOL0     H11126   9.156  10.320   2.046 -0.3230 -0.9650  0.6133
   81MOL0     H11127   8.909  10.249   1.759 -1.3111  1.4630 -0.9925
   81MOL0     H11128   8.569  10.407   1.869 -0.9878 -0.9284 -0.4228
   81MOL0     H11129   8.635  10.288   1.759 -0.8256  0.6260 -2.0785
   81MOL0     H11130   8.714  10.577   1.725  0.8332 -3.4692  4.8725
   81MOL0     H11131   8.762  10.448   1.614  1.2306 -2.8894  3.2668
   81MOL0     H11132   8.494  10.576   1.605  1.0232  0.2750  2.2039
   81MOL0     H11133   8.595  10.507   1.473 -2.0286  2.1179 -0.5763
   81MOL0     H11134   8.531  10.280   1.543  0.3168  0.6180 -1.1127
   81MOL0     H11135   8.428  10.350   1.667  1.5474 -0.2612  1.3828
   81MOL0     H11136   8.294  10.540   1.275 -0.1616  3.6700 -0.4444
   81MOL0     H11137   7.993  10.646   1.202  0.5301 -1.5486  0.4482
   81MOL0     H11138   8.169  10.684   1.195  1.9891 -4.5067  2.4492
   81MOL0     H11139   8.053  10.792   1.285 -0.6234  0.2061  2.9831
   81MOL0     H11140   7.617  10.449   1.522 -0.7721 -1.3467 -0.0273
   81MOL0     H11141   7.378  10.508   1.481  1.3329 -0.3562  0.1502
   81MOL0     H11142   7.110  10.859   1.485 -0.3786 -0.7950 -2.8251
   81MOL0     H11143   7.254  10.930   1.556  0.3423 -1.0976  0.4258
   81MOL0     H11144   7.200  11.051   1.333 -0.0929 -0.4780 -1.7481
   81MOL0     H11145   7.349  10.973   1.354 -0.2736  0.9460  0.3277
   81MOL0     H11146   7.310  10.807   1.196 -0.5926 -1.3512  1.9400
   81MOL0     H11147   7.224  10.939   1.121  0.5550 -2.3833 -1.7706
   81MOL0     H11148   7.016  10.871   1.233 -2.1884 -0.5797 -1.3496
   81MOL0     H11149   7.084  10.717   1.276 -2.7084  0.4553 -0.2018
   81MOL0     H11150   6.974  10.692   1.089 -0.1234  0.2323  1.0767
   81MOL0     H11151   7.061  10.838   1.006 -1.0826  1.7858  2.5319
   81MOL0     H11152   7.179  10.577   1.082 -3.0467  1.1733 -0.1922
   81MOL0     H11153   7.261  10.706   0.987  0.6741 -0.6459  0.1188
   81MOL0     H11154   7.109  10.680   0.797 -2.2568  1.1911  0.1785
   81MOL0     H11155   7.004  10.575   0.895  0.7164  0.2313  2.7059
   81MOL0     H11156   7.133  10.421   0.758  1.6011  0.9441 -3.4121
   81MOL0     H11157   7.209  10.421   0.916 -1.5002 -0.2442 -0.0290
   81MOL0     H11158   7.463  10.916   1.576  0.7827 -0.5506 -0.1551
   81MOL0     H11159   7.697  10.852   1.633  1.9620 -2.8181 -0.3529
   81MOL0     H11160   8.004  10.487   1.673  1.5034  1.8909  1.0881
   81MOL0     H11161   8.228  10.387   1.676  2.3169 -0.8464 -0.8508
   81MOL0     H11162  10.002   9.899   1.993 -1.8751  0.2908 -0.8747
   81MOL0     H11163  10.119  10.022   2.160 -0.5231  0.2915 -0.0902
   81MOL0     H11164  10.508  10.326   2.303  2.2597  3.2088 -0.3027
   81MOL0     H11165  10.595  10.426   2.509  0.1479 -0.1827  0.8870
   81MOL0     H11166  10.477  10.746   2.566 -1.8772  3.6230  1.4426
   81MOL0     H11167  10.319  10.725   2.645 -0.2925  0.4120  0.9585
   81MOL0     H11168  10.574  10.738   2.797 -1.0043 -2.4089 -1.5412
   81MOL0     H11169  10.414  10.742   2.858  0.4949  1.8570  2.0025
   81MOL0     H11170  10.554  10.926   2.664 -0.3436  2.1818 -0.6766
   81MOL0     H11171  10.379  10.960   2.701  1.0544 -0.5318 -2.4321
   81MOL0     H11172  10.633  10.977   2.888 -0.6812 -3.0607  0.2823
   81MOL0     H11173  10.466  11.004   2.938 -1.0909 -4.1957  0.8312
   81MOL0     H11174  10.582  11.347   2.710  1.1804 -0.4374  0.8308
   81MOL0     H11175  10.200  10.525   2.620  0.1624 -1.8938  1.0678
   81MOL0     H11176  10.011  10.519   2.469  1.4926  0.8012 -1.0237
   81MOL0     H11177  10.005  10.424   2.326 -0.6555 -2.1820  0.4569
   81MOL0     H11178  10.001  10.346   2.486  0.5504 -0.5943  0.4736
   82MOL0     O11179   7.742   7.592   1.222  0.4813 -0.0837  0.5818
   82MOL0     C11180   7.740   7.498   1.147  0.1758 -0.5847 -1.7532
   82MOL0     O11181   7.627   7.418   1.135  0.3354 -0.1707 -0.4253
   82MOL0     C11182   7.502   7.462   1.178  0.4655 -0.4553 -0.2552
   82MOL0     C11183   7.419   7.536   1.100  0.0030 -0.4021  0.3663
   82MOL0     C11184   7.288   7.568   1.142 -0.7904 -1.4275 -0.0503
   82MOL0     C11185   7.237   7.513   1.266  0.5685 -0.6233  0.8947
   82MOL0     O11186   7.102   7.533   1.300  0.1569  1.5183 -0.0493
   82MOL0     C11187   7.038   7.644   1.252  0.4209  0.0837 -0.0702
   82MOL0     C11188   6.888   7.654   1.282  0.1976  0.3464  0.1897
   82MOL0     C11189   6.858   7.630   1.429 -0.4848 -0.5096 -0.0715
   82MOL0     C11190   6.705   7.659   1.462  0.1241 -0.4237  0.3777
   82MOL0     C11191   6.668   7.573   1.578  1.0562  0.0453  0.3204
   82MOL0     C11192   6.530   7.606   1.642  0.5326  0.4012  0.0020
   82MOL0     C11193   6.418   7.575   1.531 -1.6445 -0.0348 -0.0473
   82MOL0     C11194   6.282   7.578   1.591  1.1357 -0.0430  0.6433
   82MOL0     N11195   6.248   7.718   1.626  0.0744 -0.7876 -0.8833
   82MOL0     C11196   6.248   7.832   1.545  0.3632 -0.4923 -0.8281
   82MOL0     C11197   6.185   7.925   1.624 -0.2405 -0.0210  0.5803
   82MOL0     C11198   6.124   8.054   1.576  0.2601  0.3493 -0.5149
   82MOL0     C11199   6.145   8.159   1.673  0.7481 -0.8143 -0.1303
   82MOL0     C11200   6.099   8.303   1.634  0.1896 -0.6455 -0.0399
   82MOL0     C11201   6.030   8.388   1.745 -0.5442  0.2124  0.6562
   82MOL0     O11202   6.131   8.410   1.833  0.5642 -0.1009 -0.3102
   82MOL0     C11203   6.092   8.402   1.966  0.0590 -0.2075 -0.4476
   82MOL0     C11204   6.037   8.288   2.015  0.0581  0.6505 -0.1402
   82MOL0     C11205   6.008   8.269   2.155  0.4840  0.3328  0.1068
   82MOL0     C11206   5.966   8.133   2.188 -0.3078  0.1997 -0.2569
   82MOL0     C11207   6.039   8.374   2.244  0.8168  0.0621  0.4028
   82MOL0     C11208   6.023   8.362   2.388 -0.0502  0.8145  0.3403
   82MOL0     O11209   6.088   8.251   2.440  0.0823  0.0868 -0.4529
   82MOL0     C11210   6.090   8.219   2.572 -1.0730  0.9739  0.0890
   82MOL0     C11211   6.067   8.084   2.606  1.2018  0.1381 -0.0067
   82MOL0     C11212   6.059   8.036   2.730 -0.4083 -0.2133 -0.7836
   82MOL0     C11213   6.077   8.132   2.837 -0.3966  0.0369 -0.0264
   82MOL0     O11214   6.060   8.083   2.967 -0.2395 -0.3992  0.5569
   82MOL0     C11215   6.043   8.188   3.071 -0.2895 -0.8499 -0.1212
   82MOL0     C11216   5.975   8.140   3.199  0.5992  0.5916 -1.0153
   82MOL0     C11217   5.842   8.089   3.148  0.2311 -0.6953 -1.4551
   82MOL0     C11218   5.756   8.041   3.264  0.1784  0.6619 -0.5623
   82MOL0     C11219   5.616   7.990   3.217  1.1945 -0.4743  0.2964
   82MOL0     C11220   5.563   7.869   3.285 -0.0150  0.0475  0.6043
   82MOL0     C11221   5.563   7.880   3.438 -0.2172 -0.8462  1.1852
   82MOL0     C11222   5.446   7.815   3.504  0.7000  0.1716  1.1321
   82MOL0    Cl11223   5.326   7.938   3.534  0.4404  0.3819 -0.3102
   82MOL0     C11224   6.123   8.266   2.805 -0.4151  1.0007  0.6305
   82MOL0     C11225   6.136   8.307   2.670 -0.7439  0.1343 -0.6398
   82MOL0     O11226   5.959   8.437   2.453  0.1255 -0.3396 -0.0312
   82MOL0     C11227   6.094   8.489   2.195  0.2863  0.2453  0.2630
   82MOL0     C11228   6.112   8.508   2.055  0.9742 -0.6439 -0.5851
   82MOL0     N11229   6.143   7.871   1.751 -0.6337  0.3460  0.4074
   82MOL0     N11230   6.208   7.758   1.750  1.2238  0.3914 -0.5687
   82MOL0     C11231   7.323   7.440   1.336 -0.1289 -0.6915 -0.0112
   82MOL0     C11232   7.462   7.411   1.297 -0.1222  0.3201  0.2916
   82MOL0     C11233   7.865   7.468   1.074 -0.0790  0.4918 -0.3767
   82MOL0     C11234   7.981   7.541   1.116 -1.1221  0.1104  0.8333
   82MOL0     C11235   8.106   7.507   1.061  0.5561  0.2076  0.0076
   82MOL0     C11236   8.118   7.397   0.975 -0.3290 -0.4633 -0.0597
   82MOL0     O11237   8.234   7.363   0.910 -0.6783  0.4452  0.5248
   82MOL0     C11238   8.338   7.457   0.899 -0.5330 -0.0074 -0.0888
   82MOL0     C11239   8.436   7.436   0.779  0.3378 -0.2633  0.1360
   82MOL0     C11240   8.453   7.300   0.727 -0.5881  0.6217 -0.3426
   82MOL0     C11241   8.573   7.286   0.639 -0.4383  0.3163  0.2408
   82MOL0     C11242   8.699   7.265   0.723  0.1246 -0.3554  0.0635
   82MOL0     C11243   8.789   7.268   0.810  0.2817  0.6189  0.7364
   82MOL0     C11244   8.005   7.328   0.935  0.3204  0.5954  0.2834
   82MOL0     C11245   7.881   7.363   0.985 -0.3826  0.2980 -0.9858
   82MOL0     C11246   7.762   7.293   0.908  0.6706 -0.1454  0.0129
   82MOL0     H11247   7.446   7.575   1.002 -2.8176 -2.7796 -1.5394
   82MOL0     H11248   7.236   7.643   1.082 -1.6880  0.1611  2.5532
   82MOL0     H11249   7.046   7.643   1.143 -0.9617 -0.6785 -0.1823
   82MOL0     H11250   7.085   7.735   1.292 -1.1395  0.4283  1.0919
   82MOL0     H11251   6.871   7.756   1.248  0.5071  1.1178  2.2249
   82MOL0     H11252   6.830   7.578   1.228  0.7444  0.5884 -0.7610
   82MOL0     H11253   6.867   7.521   1.442 -0.2222 -1.1358 -4.2881
   82MOL0     H11254   6.922   7.679   1.503 -1.2645 -1.1304  1.0623
   82MOL0     H11255   6.692   7.763   1.492 -0.6744 -0.4904  0.2856
   82MOL0     H11256   6.652   7.640   1.368  3.4651 -2.4710 -1.3245
   82MOL0     H11257   6.742   7.569   1.658 -0.1784 -1.8520  1.4230
   82MOL0     H11258   6.664   7.472   1.537  0.1087  0.2822 -0.2081
   82MOL0     H11259   6.501   7.532   1.717  0.8550 -1.1137 -1.3204
   82MOL0     H11260   6.520   7.707   1.682  0.8432  1.8793 -3.2774
   82MOL0     H11261   6.435   7.479   1.481  2.4782 -0.8390  2.3827
   82MOL0     H11262   6.437   7.656   1.462  0.6450 -0.0520  0.4864
   82MOL0     H11263   6.207   7.536   1.524  0.2529  0.6662  1.1730
   82MOL0     H11264   6.289   7.515   1.680 -2.1420 -2.0781 -0.3711
   82MOL0     H11265   6.290   7.846   1.446  1.6017  1.5056 -0.0901
   82MOL0     H11266   6.017   8.033   1.566  0.9929 -2.7738 -3.5329
   82MOL0     H11267   6.157   8.077   1.474 -1.3221  0.3322 -1.0559
   82MOL0     H11268   6.099   8.131   1.768  3.1429  0.5924  1.5884
   82MOL0     H11269   6.253   8.156   1.693  0.8301 -0.9975 -0.5966
   82MOL0     H11270   6.190   8.355   1.601 -0.6161  1.0194  0.2375
   82MOL0     H11271   6.024   8.292   1.555 -0.4125  0.4635  0.3442
   82MOL0     H11272   5.996   8.488   1.715 -2.9026  1.1439  5.4857
   82MOL0     H11273   5.943   8.330   1.775 -1.9960  0.9395 -1.8874
   82MOL0     H11274   6.021   8.202   1.951  4.7758 -1.2451  0.7927
   82MOL0     H11275   5.909   8.083   2.109  2.2791 -0.7236 -1.6692
   82MOL0     H11276   5.917   8.124   2.285  2.9513 -1.6424  1.4215
   82MOL0     H11277   6.059   8.075   2.195 -2.6706 -4.6525 -3.3109
   82MOL0     H11278   6.066   8.017   2.520  0.5564  1.0359 -0.7185
   82MOL0     H11279   6.037   7.934   2.760 -1.3003  0.9602  3.2417
   82MOL0     H11280   6.143   8.229   3.088 -0.5302 -0.2054 -0.2416
   82MOL0     H11281   5.982   8.266   3.026  0.8917 -0.4040 -1.0024
   82MOL0     H11282   6.028   8.053   3.237  0.0555  0.6049 -0.2104
   82MOL0     H11283   5.972   8.220   3.273  2.0324  0.0271 -0.2990
   82MOL0     H11284   5.848   8.005   3.078  0.6464 -2.1991  0.2909
   82MOL0     H11285   5.793   8.170   3.094  2.6407  2.0477  0.1777
   82MOL0     H11286   5.753   8.119   3.342 -1.3808 -0.2094  0.3043
   82MOL0     H11287   5.813   7.956   3.301  1.8930  2.3456  0.9080
   82MOL0     H11288   5.550   8.074   3.241  2.0652 -0.0360  1.2194
   82MOL0     H11289   5.605   7.966   3.111 -0.7576 -1.7247  0.7238
   82MOL0     H11290   5.617   7.778   3.259  1.3579  0.3031  2.3880
   82MOL0     H11291   5.457   7.861   3.258  0.2284  1.5359 -1.0092
   82MOL0     H11292   5.567   7.987   3.461 -0.6611 -0.5932  0.1665
   82MOL0     H11293   5.657   7.836   3.473 -1.7986 -3.4225  2.4521
   82MOL0     H11294   5.489   7.747   3.578  1.0501 -2.2906 -1.1655
   82MOL0     H11295   5.404   7.741   3.435 -1.2112  2.7144 -0.6571
   82MOL0     H11296   6.141   8.343   2.879 -1.8233  1.4477  0.5409
   82MOL0     H11297   6.184   8.400   2.639  2.7828  0.6816  4.9891
   82MOL0     H11298   6.120   8.566   2.268  1.0247  1.4187 -1.1820
   82MOL0     H11299   6.125   8.610   2.019 -2.3719  1.3765  3.1505
   82MOL0     H11300   7.279   7.395   1.425 -1.8609  2.1847  0.7221
   82MOL0     H11301   7.516   7.348   1.366 -0.4769 -0.2044  0.0993
   82MOL0     H11302   7.976   7.605   1.204 -0.1508 -1.5795  2.1856
   82MOL0     H11303   8.187   7.572   1.092  1.4137  0.0899 -1.8462
   82MOL0     H11304   8.293   7.557   0.894 -2.9953 -0.8572  2.5096
   82MOL0     H11305   8.396   7.457   0.991 -1.8276  4.9726  1.0427
   82MOL0     H11306   8.537   7.473   0.800 -0.0037  0.9685 -0.3354
   82MOL0     H11307   8.395   7.494   0.697  0.4263  0.8077  0.8277
   82MOL0     H11308   8.467   7.222   0.803 -0.0601 -0.4141 -1.4723
   82MOL0     H11309   8.370   7.261   0.668  2.9022 -2.9872 -3.4025
   82MOL0     H11310   8.584   7.369   0.569  0.3148 -1.8368 -2.3603
   82MOL0     H11311   8.565   7.196   0.578  0.2495 -1.4738  2.6230
   82MOL0     H11312   8.872   7.287   0.876  0.0262  0.6231  1.0599
   82MOL0     H11313   8.013   7.248   0.862 -0.1514  1.7507 -1.0796
   82MOL0     H11314   7.719   7.212   0.967 -0.1373 -0.2011 -0.6370
   82MOL0     H11315   7.689   7.370   0.880  1.9979  0.7665 -1.0468
   82MOL0     H11316   7.796   7.260   0.810 -3.3842  0.9618 -1.9830
   83MOL0     O11317   1.517   6.201   7.787 -0.5761 -0.7255 -0.5770
   83MOL0     C11318   1.514   6.174   7.902 -0.0327 -0.2686 -0.6722
   83MOL0     O11319   1.515   6.049   7.954 -0.3254 -0.5079 -0.5358
   83MOL0     C11320   1.511   5.930   7.886 -0.1037 -0.7782  0.4501
   83MOL0     C11321   1.418   5.832   7.914  0.2886 -0.7407  0.0984
   83MOL0     C11322   1.405   5.713   7.846  1.0181  0.2229 -0.0469
   83MOL0     C11323   1.500   5.691   7.744 -0.2453  0.3316 -0.1710
   83MOL0     O11324   1.466   5.573   7.679 -0.2679 -0.2212  0.0355
   83MOL0     C11325   1.574   5.497   7.644 -0.8032  0.5157  0.3514
   83MOL0     C11326   1.527   5.381   7.553 -0.3019  0.1359  0.0885
   83MOL0     C11327   1.417   5.286   7.607 -0.6951  0.3121 -0.8524
   83MOL0     C11328   1.434   5.228   7.744 -0.1110 -0.3598 -0.1494
   83MOL0     C11329   1.560   5.150   7.760 -0.6900 -0.4128 -0.4853
   83MOL0     C11330   1.607   5.151   7.905 -0.6868  0.6604 -0.2560
   83MOL0     C11331   1.758   5.118   7.913 -0.0055  0.3135  0.3657
   83MOL0     C11332   1.801   4.991   7.834  0.5975  0.1516 -0.9737
   83MOL0     N11333   1.748   4.867   7.875  0.2510 -0.0225  0.6760
   83MOL0     C11334   1.822   4.759   7.914  1.4611 -0.0585 -0.2994
   83MOL0     C11335   1.734   4.659   7.895  0.5213 -0.2857  0.6939
   83MOL0     C11336   1.765   4.518   7.910 -0.7835  0.5362 -0.0435
   83MOL0     C11337   1.663   4.434   7.837  1.5434  0.3301 -0.4474
   83MOL0     C11338   1.710   4.286   7.840  0.0033  0.7995  0.3174
   83MOL0     C11339   1.620   4.178   7.770 -0.0632  0.2980  0.0070
   83MOL0     O11340   1.567   4.219   7.641  0.0656  0.4968 -0.4199
   83MOL0     C11341   1.490   4.137   7.553  0.1785 -0.1828 -0.0527
   83MOL0     C11342   1.482   3.997   7.565  0.2532 -0.6170  0.2507
   83MOL0     C11343   1.420   3.918   7.467 -0.4406  0.0444 -0.2468
   83MOL0     C11344   1.411   3.765   7.483 -0.2053 -0.0036  0.4585
   83MOL0     C11345   1.371   3.987   7.351  0.4140  0.4680 -0.3850
   83MOL0     C11346   1.312   3.909   7.244  0.3350  0.3578  0.0608
   83MOL0     O11347   1.177   3.900   7.243  0.1384 -0.3598 -0.6770
   83MOL0     C11348   1.107   3.798   7.181 -0.2659  0.2122 -0.3393
   83MOL0     C11349   0.965   3.784   7.198  0.1125 -0.4280  1.2254
   83MOL0     C11350   0.897   3.684   7.129 -0.0463 -0.8322 -0.9400
   83MOL0     C11351   0.957   3.590   7.046  0.5680 -0.6379  0.5067
   83MOL0     O11352   0.884   3.491   6.988 -0.0697 -0.9628 -0.0803
   83MOL0     C11353   0.934   3.364   7.038 -0.1029 -0.2775 -0.6603
   83MOL0     C11354   0.836   3.254   7.034  0.2490 -0.0399  0.6488
   83MOL0     C11355   0.796   3.209   6.890  0.4999  1.4176 -0.0884
   83MOL0     C11356   0.712   3.091   6.916  0.4005 -0.7219 -0.0580
   83MOL0     C11357   0.679   2.997   6.800 -0.5153  0.7334  0.3835
   83MOL0     C11358   0.585   2.883   6.849  0.4603 -0.5002  0.0385
   83MOL0     C11359   0.544   2.792   6.729 -0.2455 -0.2551 -0.1967
   83MOL0     C11360   0.473   2.658   6.771 -0.0384 -1.1399 -0.6670
   83MOL0    Cl11361   0.325   2.698   6.874 -0.3007 -0.0224  0.3429
   83MOL0     C11362   1.094   3.600   7.035  0.0737 -0.3178  1.0168
   83MOL0     C11363   1.173   3.701   7.101  0.3771 -0.0537  1.3104
   83MOL0     O11364   1.385   3.890   7.156 -0.0193  0.3342  0.7331
   83MOL0     C11365   1.360   4.130   7.346  0.0642 -0.0389 -0.0804
   83MOL0     C11366   1.428   4.209   7.448 -0.2965  0.9394 -0.2409
   83MOL0     N11367   1.611   4.717   7.855  0.1163  0.2059 -0.0448
   83MOL0     N11368   1.622   4.838   7.839 -0.1233 -0.0979 -0.7023
   83MOL0     C11369   1.600   5.783   7.719 -0.1627 -0.1825 -0.2745
   83MOL0     C11370   1.607   5.909   7.785  0.3878 -1.3754 -1.0184
   83MOL0     C11371   1.496   6.284   7.996  0.0628 -0.6197 -0.7792
   83MOL0     C11372   1.458   6.245   8.131 -0.5375  0.4480 -0.0778
   83MOL0     C11373   1.405   6.331   8.222 -0.3414 -0.4301  0.0422
   83MOL0     C11374   1.399   6.463   8.193 -0.6595  0.3618 -1.3394
   83MOL0     O11375   1.358   6.544   8.293 -0.0993 -0.3195 -0.1845
   83MOL0     C11376   1.442   6.663   8.324  0.5575 -0.1112 -0.0752
   83MOL0     C11377   1.421   6.729   8.452  0.5685  0.5722  0.1569
   83MOL0     C11378   1.293   6.822   8.458  0.2969  0.3036 -0.7089
   83MOL0     C11379   1.278   6.893   8.594  0.5710  0.4920 -0.7206
   83MOL0     C11380   1.354   7.019   8.594 -0.5512 -0.0010 -0.1140
   83MOL0     C11381   1.426   7.118   8.600  0.3000 -0.0864  0.1097
   83MOL0     C11382   1.448   6.511   8.076 -0.7067  0.4905  0.0468
   83MOL0     C11383   1.490   6.421   7.969  0.1195  0.0938 -0.6734
   83MOL0     C11384   1.521   6.490   7.835  0.4655 -0.5553 -0.3709
   83MOL0     H11385   1.354   5.853   8.000  0.0694  3.8185 -0.9291
   83MOL0     H11386   1.334   5.638   7.879 -0.0985  2.4024  2.9516
   83MOL0     H11387   1.620   5.462   7.737  0.3351  1.1379  0.0483
   83MOL0     H11388   1.648   5.557   7.588  2.0576 -0.4984  2.7924
   83MOL0     H11389   1.482   5.427   7.464 -0.8350  1.0574  0.8145
   83MOL0     H11390   1.611   5.321   7.517 -0.1237  1.4627 -1.8867
   83MOL0     H11391   1.320   5.335   7.603  0.2718  2.8757  2.6968
   83MOL0     H11392   1.424   5.201   7.538  0.7613 -0.5217  0.2491
   83MOL0     H11393   1.431   5.319   7.804 -1.7702 -0.5674  0.1148
   83MOL0     H11394   1.350   5.166   7.777  0.1117 -0.0918  0.9466
   83MOL0     H11395   1.640   5.179   7.691 -0.0447 -3.3053 -1.1215
   83MOL0     H11396   1.547   5.044   7.738  2.1939 -1.0541  0.3319
   83MOL0     H11397   1.589   5.248   7.953 -0.2989  0.6293 -0.0454
   83MOL0     H11398   1.553   5.071   7.957 -0.4252 -1.0024 -2.4423
   83MOL0     H11399   1.801   5.120   8.014  2.2228 -0.6345 -0.4978
   83MOL0     H11400   1.805   5.202   7.863  1.2584 -0.8130 -0.4123
   83MOL0     H11401   1.789   4.999   7.726 -2.7020 -0.7224 -0.7873
   83MOL0     H11402   1.905   4.990   7.867  0.4209  1.9929 -0.2504
   83MOL0     H11403   1.920   4.762   7.962  1.5821 -2.0392 -0.3510
   83MOL0     H11404   1.782   4.490   8.015  2.3170  0.0556 -0.5622
   83MOL0     H11405   1.865   4.511   7.865  1.1806  1.3729  3.6929
   83MOL0     H11406   1.570   4.440   7.895  1.7244  0.3949 -0.1626
   83MOL0     H11407   1.651   4.482   7.739  0.9533  0.4032 -0.3425
   83MOL0     H11408   1.802   4.270   7.784 -0.6202 -1.4898 -0.1522
   83MOL0     H11409   1.728   4.250   7.942  0.6243 -0.7865 -0.3215
   83MOL0     H11410   1.667   4.080   7.764 -2.7716 -1.0677 -0.3164
   83MOL0     H11411   1.535   4.148   7.832  2.3578 -1.3750  2.8169
   83MOL0     H11412   1.511   3.949   7.657  1.7175 -1.8508 -0.8116
   83MOL0     H11413   1.495   3.718   7.430 -1.9851  2.0190 -4.7703
   83MOL0     H11414   1.320   3.727   7.436  1.1143 -3.6259  0.5175
   83MOL0     H11415   1.413   3.736   7.588 -2.0462  1.4696  0.9446
   83MOL0     H11416   0.912   3.859   7.256 -0.9450 -1.4369  1.6074
   83MOL0     H11417   0.795   3.670   7.162  0.0642  0.4890  0.0327
   83MOL0     H11418   1.030   3.358   6.985 -0.3688  0.9883 -1.3233
   83MOL0     H11419   0.958   3.375   7.144 -0.0213 -3.1221 -0.2860
   83MOL0     H11420   0.884   3.173   7.090 -1.6413 -0.8965  1.1217
   83MOL0     H11421   0.749   3.279   7.096 -1.7639 -0.4587 -1.8539
   83MOL0     H11422   0.882   3.175   6.832 -0.6208 -0.3655 -0.8137
   83MOL0     H11423   0.744   3.277   6.822 -0.4742 -1.7552 -2.8237
   83MOL0     H11424   0.611   3.122   6.943  0.7668 -2.2050  3.5069
   83MOL0     H11425   0.762   3.025   6.988 -0.9848 -1.3605  0.3418
   83MOL0     H11426   0.637   3.037   6.707  1.7695  2.1565 -0.1146
   83MOL0     H11427   0.775   2.952   6.772  0.8745  3.6265  0.1430
   83MOL0     H11428   0.503   2.923   6.911  2.5633  1.6473  1.6189
   83MOL0     H11429   0.637   2.829   6.929 -1.3017  1.4983  2.7229
   83MOL0     H11430   0.641   2.758   6.692  0.5425  0.2706  1.3036
   83MOL0     H11431   0.483   2.845   6.654 -2.9980 -0.7925  1.4969
   83MOL0     H11432   0.544   2.615   6.842  0.0641  3.6334  2.5324
   83MOL0     H11433   0.446   2.602   6.681 -1.5255 -1.6936  0.0860
   83MOL0     H11434   1.143   3.545   6.955  0.9232  5.2805 -2.9186
   83MOL0     H11435   1.273   3.711   7.061 -1.3223  2.4405 -3.0174
   83MOL0     H11436   1.319   4.176   7.256  0.9708  1.9884  0.4919
   83MOL0     H11437   1.419   4.317   7.445 -3.7453  0.7875 -0.3811
   83MOL0     H11438   1.670   5.763   7.638  3.7573  0.3180  2.6933
   83MOL0     H11439   1.672   5.991   7.756 -1.3002 -0.2342 -1.7530
   83MOL0     H11440   1.472   6.141   8.156  2.4189  0.6853 -0.3398
   83MOL0     H11441   1.373   6.295   8.319  0.3010  0.4182  0.5774
   83MOL0     H11442   1.547   6.634   8.313  1.9384  4.1912 -0.0266
   83MOL0     H11443   1.437   6.733   8.240  1.8396 -0.4446 -0.4547
   83MOL0     H11444   1.515   6.777   8.479  2.5337 -0.1705 -4.2838
   83MOL0     H11445   1.413   6.657   8.534 -0.2645 -1.3075 -1.4887
   83MOL0     H11446   1.289   6.908   8.391 -0.2468  1.2513  0.4966
   83MOL0     H11447   1.211   6.750   8.451 -0.5040  0.9242  1.5377
   83MOL0     H11448   1.307   6.828   8.677  0.2578  2.3809  0.9622
   83MOL0     H11449   1.170   6.905   8.607  0.6863  0.5673  0.2387
   83MOL0     H11450   1.491   7.203   8.599 -1.3763  1.2885  1.2064
   83MOL0     H11451   1.456   6.619   8.069 -1.7883  0.6393  0.8296
   83MOL0     H11452   1.543   6.597   7.842 -0.7909 -0.3764  4.1449
   83MOL0     H11453   1.601   6.430   7.791  1.1269 -1.2465  1.6401
   83MOL0     H11454   1.436   6.468   7.771  0.5283  0.3581 -0.7919
   84MOL0     O11455   1.564  10.741   5.328 -0.0142  0.6191 -0.3980
   84MOL0     C11456   1.615  10.707   5.222 -0.1480  0.1047  0.3983
   84MOL0     O11457   1.551  10.669   5.109 -0.2097 -0.2429 -0.5833
   84MOL0     C11458   1.416  10.643   5.122 -0.4066 -0.8515  0.5165
   84MOL0     C11459   1.334  10.756   5.135  0.3208 -0.1304 -0.6655
   84MOL0     C11460   1.196  10.741   5.148  0.0916 -0.2037 -1.1551
   84MOL0     C11461   1.133  10.621   5.154 -0.2396  0.5375  0.5320
   84MOL0     O11462   1.003  10.609   5.180  0.3144 -0.3405  0.0406
   84MOL0     C11463   0.911  10.706   5.131 -0.5019  0.4128 -0.8099
   84MOL0     C11464   0.771  10.656   5.163  0.0121  0.7721 -0.6980
   84MOL0     C11465   0.656  10.731   5.099  0.0615  0.1034  1.1100
   84MOL0     C11466   0.647  10.884   5.136 -0.1160 -0.2411 -0.5735
   84MOL0     C11467   0.526  10.963   5.078  0.1820  0.0341 -0.1153
   84MOL0     C11468   0.517  10.955   4.924 -0.2223  0.0577  0.1579
   84MOL0     C11469   0.420  11.059   4.869 -0.1514  0.2747  0.1553
   84MOL0     C11470   0.428  11.072   4.714  0.4386  0.8927  0.0532
   84MOL0     N11471   0.370  10.944   4.665 -0.0640 -0.3452 -0.3670
   84MOL0     C11472   0.235  10.931   4.653 -0.4022 -0.2853  0.0303
   84MOL0     C11473   0.216  10.829   4.568  0.0382  0.2890 -0.9640
   84MOL0     C11474   0.090  10.773   4.516 -0.0334  0.7837 -0.8026
   84MOL0     C11475  -0.048  10.803   4.579 -0.1225  0.3789  0.9097
   84MOL0     C11476  -0.162  10.810   4.470 -0.7090 -0.3540 -0.1211
   84MOL0     C11477  -0.192  10.677   4.408  0.0297  0.5655 -0.3715
   84MOL0     O11478  -0.302  10.698   4.326  0.0131 -0.3187 -0.2991
   84MOL0     C11479  -0.300  10.770   4.212  0.3000 -0.3813  0.6190
   84MOL0     C11480  -0.173  10.819   4.164  1.2091 -0.1870  0.0405
   84MOL0     C11481  -0.181  10.895   4.037 -0.0707  0.1776 -0.3685
   84MOL0     C11482  -0.035  10.935   3.994  0.1395 -0.3946  0.3792
   84MOL0     C11483  -0.294  10.921   3.972  0.1908  0.2562  0.1554
   84MOL0     C11484  -0.290  10.977   3.833 -0.4815 -0.5946 -0.6887
   84MOL0     O11485  -0.413  11.008   3.777  0.0729 -0.2565  0.3031
   84MOL0     C11486  -0.418  11.073   3.653  0.8195  0.2455 -0.5968
   84MOL0     C11487  -0.470  11.201   3.662 -0.1073 -0.1088  1.2030
   84MOL0     C11488  -0.483  11.267   3.531 -0.3321  0.8993 -0.2613
   84MOL0     C11489  -0.440  11.200   3.412 -0.2432 -0.8904  0.0659
   84MOL0     O11490  -0.448  11.252   3.286  0.0338  0.5349 -0.5307
   84MOL0     C11491  -0.568  11.326   3.247  1.0592 -0.1721 -0.1266
   84MOL0     C11492  -0.607  11.276   3.093 -0.7926  0.7179  0.9506
   84MOL0     C11493  -0.645  11.130   3.080  0.0531 -0.1436 -0.0412
   84MOL0     C11494  -0.785  11.113   3.145 -0.8183  0.0393  0.1696
   84MOL0     C11495  -0.819  10.968   3.158  0.0823  0.2354  0.5788
   84MOL0     C11496  -0.961  10.934   3.204 -0.6908  0.2081 -0.7026
   84MOL0     C11497  -1.009  10.789   3.169 -1.2330  0.4362 -0.2263
   84MOL0     C11498  -1.141  10.766   3.243  1.3705  0.7774  0.0650
   84MOL0    Cl11499  -1.226  10.623   3.198  0.5344 -0.1562 -0.1972
   84MOL0     C11500  -0.387  11.077   3.417 -0.7925  0.2427 -0.3799
   84MOL0     C11501  -0.370  11.016   3.537 -0.3966 -0.5552 -0.8699
   84MOL0     O11502  -0.182  11.002   3.772 -0.0978  0.6762  0.2239
   84MOL0     C11503  -0.412  10.888   4.044  0.6696  0.4103  0.9389
   84MOL0     C11504  -0.416  10.803   4.154  0.1971 -0.6715 -0.5683
   84MOL0     N11505   0.343  10.774   4.535 -0.5056 -0.0782 -0.3938
   84MOL0     N11506   0.423  10.844   4.598 -0.3583  0.5555  0.1027
   84MOL0     C11507   1.207  10.507   5.137  0.0006  1.4376 -0.1340
   84MOL0     C11508   1.346  10.521   5.127 -0.2367  1.1415  0.4471
   84MOL0     C11509   1.762  10.705   5.206 -0.2770 -0.1752 -0.7813
   84MOL0     C11510   1.822  10.729   5.082  0.1721  0.8559  0.6417
   84MOL0     C11511   1.954  10.700   5.064  0.0661  1.1320 -0.1326
   84MOL0     C11512   2.042  10.657   5.166 -0.4095 -0.4347  0.4873
   84MOL0     O11513   2.171  10.625   5.127 -0.3391  0.5134 -0.1413
   84MOL0     C11514   2.276  10.607   5.224  0.1947  0.2041  0.4317
   84MOL0     C11515   2.412  10.660   5.174 -0.2757 -0.4283  0.4958
   84MOL0     C11516   2.532  10.637   5.270  0.6288 -0.3952  0.6906
   84MOL0     C11517   2.649  10.721   5.226  0.2939 -0.0218  0.3011
   84MOL0     C11518   2.745  10.743   5.328 -0.7747  0.2935 -0.3452
   84MOL0     C11519   2.832  10.757   5.412 -0.0004 -0.9691  0.5726
   84MOL0     C11520   1.983  10.654   5.292  0.1981  0.4517  0.2645
   84MOL0     C11521   1.847  10.675   5.313 -0.6507 -0.5562 -0.3976
   84MOL0     C11522   1.803  10.663   5.464 -0.8061 -0.2256  0.4139
   84MOL0     H11523   1.387  10.850   5.127 -0.8024  0.3926 -2.2129
   84MOL0     H11524   1.134  10.830   5.149 -0.8211 -0.8212  0.5474
   84MOL0     H11525   0.920  10.704   5.022  3.3398 -0.6647 -0.6064
   84MOL0     H11526   0.930  10.808   5.166  2.7692 -0.9134  1.8544
   84MOL0     H11527   0.752  10.557   5.122  0.5495  0.5221 -0.3551
   84MOL0     H11528   0.751  10.660   5.270 -1.6219  0.0528 -0.9516
   84MOL0     H11529   0.669  10.717   4.991 -0.4569 -1.9472  1.2732
   84MOL0     H11530   0.556  10.691   5.118 -0.8819  1.8411  0.1270
   84MOL0     H11531   0.649  10.890   5.246  3.5502  2.0631 -0.5573
   84MOL0     H11532   0.732  10.945   5.103  1.2633 -1.0419  1.3341
   84MOL0     H11533   0.533  11.065   5.117 -4.9180  0.1959  1.1612
   84MOL0     H11534   0.432  10.921   5.117  1.0005 -2.0493 -0.2203
   84MOL0     H11535   0.618  10.971   4.886 -0.0933 -0.6784  0.1688
   84MOL0     H11536   0.497  10.851   4.895  0.9693 -0.3208  0.6530
   84MOL0     H11537   0.440  11.157   4.914  0.2974  0.3320 -0.1676
   84MOL0     H11538   0.315  11.038   4.893 -0.0171 -1.9533 -1.0042
   84MOL0     H11539   0.374  11.164   4.690 -1.4385  0.7393  3.1534
   84MOL0     H11540   0.526  11.072   4.665 -0.5132 -0.4001 -1.9472
   84MOL0     H11541   0.166  11.003   4.696  0.8724 -0.9414  3.4713
   84MOL0     H11542   0.093  10.664   4.513 -2.0880  0.6284  0.5747
   84MOL0     H11543   0.102  10.811   4.414 -3.8246  3.9644 -0.2990
   84MOL0     H11544  -0.067  10.730   4.658 -1.0445  0.6689  0.9723
   84MOL0     H11545  -0.043  10.903   4.622  2.6148 -0.0853  1.8332
   84MOL0     H11546  -0.250  10.834   4.530 -0.9030  0.0201 -0.5530
   84MOL0     H11547  -0.152  10.894   4.400  1.9166  0.6301  1.3024
   84MOL0     H11548  -0.110  10.633   4.351  1.1959  1.3375  0.6677
   84MOL0     H11549  -0.222  10.603   4.483  0.9418  1.7008  1.1583
   84MOL0     H11550  -0.072  10.809   4.202  2.1348 -0.9419 -2.4454
   84MOL0     H11551   0.035  10.869   4.045  2.4073  2.2666  0.9373
   84MOL0     H11552  -0.014  11.041   4.013  0.0412 -0.4905  1.0657
   84MOL0     H11553  -0.009  10.906   3.892 -1.0736  1.4136 -0.4965
   84MOL0     H11554  -0.514  11.257   3.744 -0.9498 -0.6584  1.1368
   84MOL0     H11555  -0.532  11.364   3.523  0.3541  1.3105  0.4517
   84MOL0     H11556  -0.645  11.311   3.324  1.3483  0.7799  0.3656
   84MOL0     H11557  -0.538  11.431   3.245  0.2455  0.0966  0.8021
   84MOL0     H11558  -0.688  11.335   3.048 -0.5164 -1.0051 -2.0534
   84MOL0     H11559  -0.521  11.293   3.027 -1.4200  0.6117  0.0894
   84MOL0     H11560  -0.576  11.071   3.142  0.3027  0.7343  0.5372
   84MOL0     H11561  -0.647  11.116   2.972 -3.5779  2.9712 -0.5885
   84MOL0     H11562  -0.859  11.166   3.085 -2.3765 -2.8258 -0.6414
   84MOL0     H11563  -0.781  11.161   3.243  2.6948  1.5527 -0.5333
   84MOL0     H11564  -0.808  10.931   3.056 -1.4102  2.5184 -0.4955
   84MOL0     H11565  -0.748  10.918   3.224  2.1271  1.2866 -0.7286
   84MOL0     H11566  -1.041  10.998   3.167 -0.6727  1.1397  0.7951
   84MOL0     H11567  -0.963  10.951   3.312 -3.2422  1.7646 -0.9104
   84MOL0     H11568  -0.950  10.711   3.217 -0.0935  2.2223  1.3887
   84MOL0     H11569  -1.012  10.780   3.060  1.3555  1.5388 -0.4730
   84MOL0     H11570  -1.212  10.846   3.217 -0.6507  0.3321  3.6150
   84MOL0     H11571  -1.140  10.777   3.352 -3.2541  0.6630  0.3176
   84MOL0     H11572  -0.354  11.025   3.327 -0.8073  0.1535 -0.3337
   84MOL0     H11573  -0.312  10.928   3.562  3.7186  2.9560  3.8716
   84MOL0     H11574  -0.505  10.932   4.009  0.1522 -1.2289  0.2090
   84MOL0     H11575  -0.509  10.778   4.203 -1.4254  2.2489 -1.8549
   84MOL0     H11576   1.178  10.404   5.154  2.1316  0.5432 -1.4699
   84MOL0     H11577   1.408  10.434   5.147 -3.6442 -1.1070  1.9913
   84MOL0     H11578   1.773  10.745   4.987 -2.0126 -1.8563  1.1671
   84MOL0     H11579   1.995  10.710   4.964 -1.3206 -0.5076 -0.9203
   84MOL0     H11580   2.251  10.660   5.317  1.2086  2.5514 -0.5637
   84MOL0     H11581   2.268  10.503   5.257 -2.5718  0.3287  0.3709
   84MOL0     H11582   2.388  10.761   5.139 -0.4631 -0.3201  0.9297
   84MOL0     H11583   2.429  10.604   5.081 -0.5439 -2.8957  1.8478
   84MOL0     H11584   2.492  10.672   5.365 -1.7740  0.5814 -0.5937
   84MOL0     H11585   2.554  10.530   5.277 -1.3806 -0.7464  4.7433
   84MOL0     H11586   2.617  10.809   5.171 -1.1202 -1.4696 -1.2976
   84MOL0     H11587   2.698  10.659   5.150 -0.2730 -0.2933  0.1559
   84MOL0     H11588   2.899  10.775   5.493 -1.2429  1.4456  1.1658
   84MOL0     H11589   2.055  10.627   5.369  0.0311  1.2598  0.7118
   84MOL0     H11590   1.767  10.565   5.496 -0.7242 -0.3863  0.0157
   84MOL0     H11591   1.889  10.682   5.530 -0.8587  1.3583  0.0722
   84MOL0     H11592   1.736  10.744   5.496 -0.6325 -1.0941  3.2557
   85MOL0     O11593   9.868   7.614   8.095  0.0170  0.1309 -0.4174
   85MOL0     C11594   9.904   7.636   8.207  0.4715  0.1695  0.5180
   85MOL0     O11595   9.879   7.747   8.276  0.3044 -0.8404 -1.0220
   85MOL0     C11596   9.795   7.845   8.235  0.1079 -0.0215  0.2392
   85MOL0     C11597   9.678   7.828   8.153  0.2256 -0.9461 -0.1697
   85MOL0     C11598   9.596   7.941   8.119 -0.5160 -0.1754  0.1354
   85MOL0     C11599   9.623   8.065   8.171  0.5788  0.0340 -0.3620
   85MOL0     O11600   9.566   8.186   8.142 -0.0029 -0.9452 -0.1120
   85MOL0     C11601   9.448   8.198   8.059  0.4707  0.1980  0.3969
   85MOL0     C11602   9.424   8.337   8.021 -0.0855  0.4111 -0.4447
   85MOL0     C11603   9.543   8.418   7.983  0.3971  0.0858 -0.4251
   85MOL0     C11604   9.508   8.529   7.881  0.8669 -0.6983 -0.0753
   85MOL0     C11605   9.631   8.620   7.876 -0.3356  0.2141  0.9143
   85MOL0     C11606   9.626   8.730   7.778 -0.5027 -0.5375  0.3932
   85MOL0     C11607   9.748   8.826   7.820  0.0631  0.5376 -0.0660
   85MOL0     C11608   9.818   8.902   7.706  0.4039 -0.4197  0.1307
   85MOL0     N11609   9.894   8.809   7.626 -1.1691  0.1787 -0.0895
   85MOL0     C11610   9.865   8.775   7.499 -0.7724 -0.2497  0.2047
   85MOL0     C11611   9.977   8.699   7.464 -0.2238 -0.6168  1.4310
   85MOL0     C11612  10.010   8.666   7.319 -0.3040  0.6514  0.0478
   85MOL0     C11613  10.091   8.759   7.242  0.2233 -0.2271  0.6230
   85MOL0     C11614  10.135   8.683   7.122 -0.2107  0.4254  1.4717
   85MOL0     C11615  10.232   8.772   7.041  1.7428  0.4025 -1.0029
   85MOL0     O11616  10.282   8.707   6.928 -0.5251  0.3759  0.0749
   85MOL0     C11617  10.219   8.720   6.804  0.6868  0.0196 -0.0527
   85MOL0     C11618  10.082   8.758   6.796  0.2613 -0.8957 -0.6776
   85MOL0     C11619  10.018   8.777   6.669  0.2664 -0.0841 -0.5486
   85MOL0     C11620   9.872   8.811   6.655  0.2942  0.6384  0.9068
   85MOL0     C11621  10.087   8.749   6.553  0.0624  0.1197 -0.1522
   85MOL0     C11622  10.034   8.769   6.415 -0.3754  0.7346  0.0908
   85MOL0     O11623  10.035   8.661   6.327 -0.9647 -0.3409  0.1923
   85MOL0     C11624  10.005   8.680   6.195  0.1959 -0.0788  0.8744
   85MOL0     C11625  10.108   8.639   6.109  0.2886 -0.0318  0.0066
   85MOL0     C11626  10.084   8.626   5.970 -1.6455 -0.3043  0.3173
   85MOL0     C11627   9.959   8.657   5.925 -0.2729  1.3880 -0.0112
   85MOL0     O11628   9.944   8.666   5.788 -0.8586 -0.6457  0.0531
   85MOL0     C11629   9.931   8.796   5.750  0.1947 -0.0247 -0.4452
   85MOL0     C11630   9.969   8.809   5.599  0.1266  0.9213 -0.0242
   85MOL0     C11631  10.113   8.771   5.577  0.3274  0.6768  0.6164
   85MOL0     C11632  10.160   8.834   5.452  0.1071 -0.1803 -0.1727
   85MOL0     C11633  10.294   8.788   5.397  0.3488  0.5015  0.1179
   85MOL0     C11634  10.408   8.778   5.497  0.3838  0.4681 -0.7969
   85MOL0     C11635  10.543   8.754   5.425  0.8448 -0.0441 -0.1210
   85MOL0     C11636  10.656   8.719   5.517 -0.1306 -0.1982 -0.0909
   85MOL0    Cl11637  10.615   8.570   5.604 -0.2013 -0.3954 -0.3194
   85MOL0     C11638   9.857   8.700   6.009 -0.6351  0.3882 -0.7016
   85MOL0     C11639   9.877   8.711   6.146 -0.2153 -0.1062 -0.7148
   85MOL0     O11640   9.997   8.885   6.386 -0.4046  0.5962  0.4923
   85MOL0     C11641  10.220   8.696   6.564 -0.1788  0.2515  0.5396
   85MOL0     C11642  10.280   8.676   6.685  0.5262  0.6378  0.1408
   85MOL0     N11643  10.069   8.686   7.563  0.0010 -0.7992 -0.2012
   85MOL0     N11644  10.009   8.742   7.666  0.7811 -0.5959  0.4878
   85MOL0     C11645   9.744   8.079   8.246  0.2584 -0.7633  0.2964
   85MOL0     C11646   9.818   7.971   8.272 -0.1712  0.2727  0.0432
   85MOL0     C11647   9.972   7.522   8.271  0.4067  0.5430 -0.2701
   85MOL0     C11648  10.110   7.516   8.260 -0.3513  0.0393 -0.0249
   85MOL0     C11649  10.187   7.412   8.303 -0.4456  0.1731  0.2767
   85MOL0     C11650  10.127   7.306   8.366  0.6795 -0.5443  1.0462
   85MOL0     O11651  10.187   7.210   8.436  0.0538  1.0478 -0.5498
   85MOL0     C11652  10.258   7.121   8.351  0.3512  0.3472 -0.3516
   85MOL0     C11653  10.299   6.993   8.418 -0.5577 -1.1335 -0.6634
   85MOL0     C11654  10.187   6.918   8.487  0.6782  0.3001 -0.2795
   85MOL0     C11655  10.235   6.779   8.539  0.3449  1.0070 -0.3861
   85MOL0     C11656  10.242   6.675   8.434 -0.4935  0.4811  0.7151
   85MOL0     C11657  10.243   6.593   8.344 -0.4819 -0.5526  1.5191
   85MOL0     C11658   9.984   7.305   8.379  1.0475 -0.1709 -0.1729
   85MOL0     C11659   9.906   7.409   8.330  0.3147  0.5599  0.4284
   85MOL0     C11660   9.756   7.399   8.343  0.0847 -0.3876 -0.4824
   85MOL0     H11661   9.647   7.728   8.124 -2.1083  0.5209 -3.4966
   85MOL0     H11662   9.529   7.931   8.035 -0.4939 -1.5756  0.2573
   85MOL0     H11663   9.350   8.173   8.102  0.6564  1.0671  1.3611
   85MOL0     H11664   9.463   8.132   7.973 -1.4401 -0.1549  0.2905
   85MOL0     H11665   9.356   8.347   7.936 -0.0743 -3.3147 -1.0503
   85MOL0     H11666   9.381   8.382   8.111 -0.1923  0.6541 -0.6148
   85MOL0     H11667   9.583   8.464   8.074  1.7770  1.9045 -1.8865
   85MOL0     H11668   9.625   8.351   7.954  1.6573  0.6701  1.5591
   85MOL0     H11669   9.486   8.477   7.787 -1.8370  0.1836 -0.0041
   85MOL0     H11670   9.421   8.591   7.907  2.2687  1.7031 -0.7809
   85MOL0     H11671   9.728   8.574   7.856  0.4328  1.6879  1.0984
   85MOL0     H11672   9.643   8.664   7.976  4.8397 -0.6562  0.9544
   85MOL0     H11673   9.658   8.688   7.682  1.7869 -0.0132  0.8679
   85MOL0     H11674   9.530   8.780   7.765  0.2798  0.6843 -0.9485
   85MOL0     H11675   9.834   8.774   7.864 -0.9943  1.9797  4.2228
   85MOL0     H11676   9.717   8.898   7.897 -0.1996 -1.5631  1.8897
   85MOL0     H11677   9.759   8.966   7.640  0.0420  0.5719  1.3722
   85MOL0     H11678   9.889   8.968   7.756 -0.3904  0.5723 -0.0121
   85MOL0     H11679   9.785   8.817   7.439 -1.3966 -0.1966  1.0724
   85MOL0     H11680   9.909   8.661   7.278 -1.4184  1.8509  2.4249
   85MOL0     H11681  10.055   8.566   7.322 -1.1385  0.2714  0.1436
   85MOL0     H11682  10.038   8.850   7.212  0.6737 -1.0567 -3.2175
   85MOL0     H11683  10.164   8.787   7.319  1.0662  0.6117 -0.4528
   85MOL0     H11684  10.189   8.591   7.147 -0.6416  0.3778  2.2487
   85MOL0     H11685  10.048   8.657   7.062  1.1779 -0.7737 -0.1213
   85MOL0     H11686  10.181   8.863   7.009 -3.6385 -1.5611  0.9945
   85MOL0     H11687  10.324   8.786   7.098 -0.0086  0.0211  2.0991
   85MOL0     H11688  10.030   8.794   6.885 -2.4561 -0.8788 -2.1446
   85MOL0     H11689   9.855   8.902   6.597  0.1030 -0.4143 -0.7789
   85MOL0     H11690   9.831   8.834   6.754 -1.2268 -3.9962  1.6406
   85MOL0     H11691   9.816   8.737   6.597  1.3604 -2.2968  3.3464
   85MOL0     H11692  10.203   8.608   6.152 -0.2303 -0.7456  0.6666
   85MOL0     H11693  10.170   8.598   5.910  1.0065  0.3017  3.5331
   85MOL0     H11694   9.824   8.820   5.758  0.2863  0.1653  0.2351
   85MOL0     H11695   9.986   8.871   5.807 -0.9647  1.4698 -1.2105
   85MOL0     H11696   9.903   8.746   5.539 -0.1247  1.8853 -0.8007
   85MOL0     H11697   9.955   8.913   5.567 -1.4067  1.3754  1.8922
   85MOL0     H11698  10.126   8.663   5.577 -1.5955  0.4049  1.8064
   85MOL0     H11699  10.169   8.818   5.658  0.2051  2.4248 -0.2668
   85MOL0     H11700  10.171   8.940   5.478  1.7813 -0.5325  0.6868
   85MOL0     H11701  10.088   8.830   5.370  1.1654 -4.2166 -1.1162
   85MOL0     H11702  10.288   8.682   5.369  1.9259  0.8780 -1.8973
   85MOL0     H11703  10.318   8.862   5.319 -0.4779 -2.3702 -3.1030
   85MOL0     H11704  10.389   8.694   5.565 -1.3637  0.4456 -1.2593
   85MOL0     H11705  10.406   8.875   5.548 -0.2666  0.6841 -1.2226
   85MOL0     H11706  10.576   8.838   5.364  3.8521 -1.6574 -0.8952
   85MOL0     H11707  10.527   8.670   5.357  1.0581 -0.2758  0.1099
   85MOL0     H11708  10.678   8.804   5.583 -0.5186  0.8215 -1.2298
   85MOL0     H11709  10.749   8.713   5.461 -0.7652  2.0968 -1.5071
   85MOL0     H11710   9.766   8.728   5.958  0.7974  1.3706 -2.8600
   85MOL0     H11711   9.801   8.757   6.208  0.3262 -2.1499  1.6248
   85MOL0     H11712  10.276   8.683   6.472 -2.8064 -3.0432 -0.8287
   85MOL0     H11713  10.382   8.640   6.693 -0.5610 -2.7261  0.4715
   85MOL0     H11714   9.767   8.173   8.295 -0.3903  0.0870 -0.9724
   85MOL0     H11715   9.914   7.984   8.321  0.6856 -2.3772 -0.7889
   85MOL0     H11716  10.160   7.605   8.224 -1.3371  1.2203  1.3864
   85MOL0     H11717  10.295   7.418   8.309 -0.2469 -1.8654 -0.4239
   85MOL0     H11718  10.200   7.095   8.261  1.9041  0.0825 -1.3051
   85MOL0     H11719  10.350   7.168   8.316  1.2237 -1.3287 -0.4081
   85MOL0     H11720  10.374   7.014   8.494  0.5113 -3.7469 -0.8881
   85MOL0     H11721  10.340   6.933   8.336 -1.7420 -1.3180 -1.1562
   85MOL0     H11722  10.162   6.973   8.579  2.2666 -1.4993  1.3205
   85MOL0     H11723  10.098   6.910   8.425 -0.7118 -1.0049  1.7596
   85MOL0     H11724  10.158   6.752   8.612  1.2131  1.4533  0.7315
   85MOL0     H11725  10.327   6.799   8.594  1.0690  1.5568 -1.7643
   85MOL0     H11726  10.236   6.531   8.257 -2.4026 -0.8126  1.8033
   85MOL0     H11727   9.934   7.221   8.426  0.3174 -1.8073 -3.6059
   85MOL0     H11728   9.706   7.490   8.310  1.5532 -0.5259 -3.4174
   85MOL0     H11729   9.714   7.308   8.299  0.1552 -1.7530  2.0536
   85MOL0     H11730   9.736   7.389   8.450  0.8043  0.8066 -0.2116
   86MOL0     O11731   7.317   6.964  10.253  0.3852 -0.1187 -0.3190
   86MOL0     C11732   7.232   6.887  10.303 -0.1130  0.6449  0.4308
   86MOL0     O11733   7.090   6.918  10.317  0.1085 -0.1130  0.6688
   86MOL0     C11734   7.043   7.033  10.253 -0.5582  0.4534  0.6707
   86MOL0     C11735   6.957   7.008  10.144  0.1890  0.1704  0.4308
   86MOL0     C11736   6.908   7.109  10.069  0.2841 -0.3685 -0.2522
   86MOL0     C11737   6.950   7.251  10.090  0.2579  1.0417 -0.1053
   86MOL0     O11738   6.883   7.349  10.025  0.6419  0.4787 -0.6477
   86MOL0     C11739   6.786   7.325   9.926  0.4179 -0.6985  0.2138
   86MOL0     C11740   6.848   7.314   9.793  0.1529  0.2660  0.4050
   86MOL0     C11741   6.931   7.424   9.743 -0.6641  0.0088 -0.6008
   86MOL0     C11742   6.999   7.364   9.619  0.3123  0.4329 -1.5292
   86MOL0     C11743   7.067   7.456   9.519 -0.1813 -0.8100 -1.2525
   86MOL0     C11744   7.145   7.382   9.409 -0.0316 -0.1172 -0.4984
   86MOL0     C11745   7.201   7.489   9.309 -0.6264  0.5169 -0.7393
   86MOL0     C11746   7.101   7.575   9.216 -0.2654  0.9029 -0.2063
   86MOL0     N11747   6.995   7.499   9.163  0.6005  0.0754  0.1427
   86MOL0     C11748   6.994   7.442   9.045  0.0067 -0.4254 -0.1220
   86MOL0     C11749   6.875   7.380   9.019 -0.8400  0.2212 -0.3164
   86MOL0     C11750   6.814   7.306   8.898 -0.8180 -0.1220 -0.5023
   86MOL0     C11751   6.869   7.161   8.880 -0.1703 -0.4070 -1.2501
   86MOL0     C11752   6.833   7.074   9.009 -0.8179 -0.4319 -1.0944
   86MOL0     C11753   6.883   6.929   8.966 -1.1025  0.0972 -0.5024
   86MOL0     O11754   6.886   6.845   9.082 -0.0812 -0.4099 -0.4706
   86MOL0     C11755   6.974   6.733   9.085  0.6160 -0.6934  0.0369
   86MOL0     C11756   7.035   6.680   8.977  0.4523 -0.7400  0.4393
   86MOL0     C11757   7.115   6.561   8.983  0.2579  0.1861 -0.1992
   86MOL0     C11758   7.173   6.505   8.861 -0.1585 -0.4400  0.1088
   86MOL0     C11759   7.128   6.493   9.102  0.1928 -0.2573 -0.8528
   86MOL0     C11760   7.203   6.367   9.119 -0.3525 -0.1514 -0.5819
   86MOL0     O11761   7.156   6.275   9.202  0.0575 -0.2488 -0.4395
   86MOL0     C11762   7.206   6.146   9.205 -0.1496 -0.0285 -0.7393
   86MOL0     C11763   7.225   6.100   9.342 -0.3703 -0.3309  0.2219
   86MOL0     C11764   7.280   5.972   9.364 -0.5398 -0.2104  0.5746
   86MOL0     C11765   7.309   5.882   9.255 -0.2490 -0.4685 -0.7013
   86MOL0     O11766   7.343   5.753   9.268 -0.7932 -0.3352 -0.4933
   86MOL0     C11767   7.336   5.691   9.395  0.0020  0.4441 -0.6726
   86MOL0     C11768   7.406   5.556   9.374  0.1917  0.5327  0.0259
   86MOL0     C11769   7.408   5.461   9.501  0.4210  0.0707  0.0369
   86MOL0     C11770   7.366   5.317   9.461  0.0782  0.2765  1.6304
   86MOL0     C11771   7.341   5.226   9.587 -0.1642 -0.2746  0.9871
   86MOL0     C11772   7.322   5.069   9.550  0.4123 -0.8374 -0.5711
   86MOL0     C11773   7.294   4.996   9.686  0.1837  0.1796 -0.1858
   86MOL0     C11774   7.304   4.848   9.656  0.5222 -0.1227 -0.6250
   86MOL0    Cl11775   7.303   4.747   9.805  0.2000 -0.4924 -0.2740
   86MOL0     C11776   7.271   5.931   9.129 -0.6104  1.1028  0.3361
   86MOL0     C11777   7.220   6.057   9.097  0.0956  0.4215  0.3365
   86MOL0     O11778   7.312   6.358   9.068  0.0871 -0.7289  0.3388
   86MOL0     C11779   7.054   6.554   9.210 -0.2170  0.0673 -0.9037
   86MOL0     C11780   6.992   6.676   9.207 -1.0191 -0.9785  0.0267
   86MOL0     N11781   6.802   7.404   9.133  0.5971  0.2918  0.3789
   86MOL0     N11782   6.874   7.464   9.219 -0.3338 -0.5130 -0.8471
   86MOL0     C11783   7.029   7.274  10.205  0.0124  0.1456 -1.0785
   86MOL0     C11784   7.078   7.164  10.285 -0.4014  0.3203 -0.0210
   86MOL0     C11785   7.282   6.754  10.347  0.0200  0.6868 -0.5798
   86MOL0     C11786   7.186   6.660  10.386  0.0777  0.2374 -0.0078
   86MOL0     C11787   7.226   6.529  10.415  0.4460 -0.7910  0.2025
   86MOL0     C11788   7.366   6.487  10.416 -0.2700  0.2676  0.4373
   86MOL0     O11789   7.403   6.358  10.447 -0.8234 -0.3659 -0.2550
   86MOL0     C11790   7.489   6.297  10.354 -0.0888 -0.3066 -0.6588
   86MOL0     C11791   7.478   6.147  10.382 -0.7112 -0.3305 -0.3471
   86MOL0     C11792   7.590   6.067  10.326 -1.0563  0.6913 -0.0734
   86MOL0     C11793   7.597   5.916  10.367 -0.2695 -0.8193  0.9841
   86MOL0     C11794   7.476   5.858  10.299 -0.7506  0.9965  0.3445
   86MOL0     C11795   7.385   5.804  10.242  0.0063 -0.7753  1.0087
   86MOL0     C11796   7.460   6.579  10.387 -0.5148 -0.2845  0.5631
   86MOL0     C11797   7.418   6.714  10.371 -0.4140  0.3060 -0.2938
   86MOL0     C11798   7.527   6.815  10.394 -0.2257  0.7156 -0.0064
   86MOL0     H11799   6.922   6.905  10.137 -0.8625  0.2331  3.4008
   86MOL0     H11800   6.837   7.092   9.988 -0.1813  2.3898 -0.5312
   86MOL0     H11801   6.729   7.419   9.928  1.7940  0.2411 -1.6447
   86MOL0     H11802   6.716   7.242   9.938 -0.7419  0.3678  1.0336
   86MOL0     H11803   6.917   7.231   9.811  2.1854  1.9439  0.7236
   86MOL0     H11804   6.771   7.292   9.718 -0.0160  3.2106 -0.3990
   86MOL0     H11805   6.867   7.511   9.723  1.0689  0.9993 -2.2735
   86MOL0     H11806   7.007   7.456   9.815 -2.1551 -2.4476  2.2543
   86MOL0     H11807   7.070   7.291   9.658  0.5018  1.6269  0.4755
   86MOL0     H11808   6.929   7.302   9.562 -0.6637 -0.2123  0.2946
   86MOL0     H11809   7.122   7.522   9.586 -0.5440  0.2253 -1.9408
   86MOL0     H11810   7.003   7.533   9.474  1.8509  1.8859  0.1328
   86MOL0     H11811   7.225   7.327   9.461  1.0678  2.0451  0.2134
   86MOL0     H11812   7.076   7.324   9.347 -0.2448 -0.8297  0.3782
   86MOL0     H11813   7.260   7.420   9.248  0.3596  2.2344 -1.8093
   86MOL0     H11814   7.270   7.566   9.345  0.5194  0.1636 -2.1032
   86MOL0     H11815   7.065   7.660   9.274  0.0308 -0.3155  1.8549
   86MOL0     H11816   7.168   7.601   9.134  2.4031 -1.6130  1.0152
   86MOL0     H11817   7.085   7.433   8.986  0.5329  2.0162  0.2410
   86MOL0     H11818   6.821   7.349   8.797 -3.1613 -0.6856 -0.9848
   86MOL0     H11819   6.707   7.313   8.921 -0.4931 -0.1617  1.1247
   86MOL0     H11820   6.810   7.104   8.808 -0.1319  0.4339 -1.9610
   86MOL0     H11821   6.970   7.155   8.838 -1.4761  1.1831 -5.0986
   86MOL0     H11822   6.892   7.110   9.094 -2.8152 -1.6149  0.8775
   86MOL0     H11823   6.729   7.083   9.041 -0.5585 -3.2235  0.8823
   86MOL0     H11824   6.812   6.888   8.893 -3.9951  0.8694  1.6998
   86MOL0     H11825   6.984   6.937   8.927 -0.1899 -2.2059  1.1503
   86MOL0     H11826   7.024   6.733   8.882  2.0843  2.8844  2.0979
   86MOL0     H11827   7.124   6.411   8.835  2.2116 -1.2906 -1.6347
   86MOL0     H11828   7.281   6.492   8.867 -0.1737 -1.4984 -1.4109
   86MOL0     H11829   7.154   6.571   8.776 -2.9737 -0.8868  0.3028
   86MOL0     H11830   7.192   6.159   9.426 -0.5574 -0.5798  0.3227
   86MOL0     H11831   7.297   5.933   9.464  1.5036  3.2917  1.7534
   86MOL0     H11832   7.383   5.747   9.476 -3.0853 -0.5421  1.9889
   86MOL0     H11833   7.230   5.683   9.418 -0.4219  3.6000 -1.1733
   86MOL0     H11834   7.343   5.504   9.301 -0.5422  1.0115  0.3169
   86MOL0     H11835   7.507   5.565   9.331  1.6004 -0.8364  2.7415
   86MOL0     H11836   7.348   5.497   9.585 -1.3545 -2.2546 -0.1225
   86MOL0     H11837   7.509   5.448   9.542  0.0834 -2.4641  0.2362
   86MOL0     H11838   7.443   5.277   9.394 -0.6932 -1.0701  1.5139
   86MOL0     H11839   7.276   5.304   9.401 -1.4758  0.1859  3.8689
   86MOL0     H11840   7.429   5.239   9.651 -1.6396 -3.0336  3.8325
   86MOL0     H11841   7.252   5.256   9.642 -0.9232  0.0271 -0.3705
   86MOL0     H11842   7.415   5.033   9.503  3.4073  0.9018  3.4650
   86MOL0     H11843   7.237   5.067   9.481  0.5805 -0.2595 -0.7981
   86MOL0     H11844   7.189   5.010   9.715  0.1851  1.5261 -0.7937
   86MOL0     H11845   7.357   5.024   9.771 -1.6149  0.5871  1.0816
   86MOL0     H11846   7.402   4.821   9.615  0.8225  1.2874 -0.8698
   86MOL0     H11847   7.219   4.822   9.592 -0.5372 -1.6199  1.2660
   86MOL0     H11848   7.280   5.847   9.061  1.8260 -0.8559  2.8633
   86MOL0     H11849   7.196   6.093   8.998 -0.0939  1.3726  0.7114
   86MOL0     H11850   7.049   6.502   9.305  0.3629  0.9274 -0.3894
   86MOL0     H11851   6.946   6.716   9.297  0.9258 -0.9788  1.0689
   86MOL0     H11852   7.048   7.375  10.238  3.7339 -1.9056  4.4505
   86MOL0     H11853   7.135   7.170  10.377  0.6887 -4.7729 -0.0479
   86MOL0     H11854   7.080   6.676  10.377 -0.0309 -1.1786 -1.7812
   86MOL0     H11855   7.160   6.447  10.442  0.8116 -0.7097  1.4036
   86MOL0     H11856   7.453   6.308  10.252 -3.7924  1.1933  0.6510
   86MOL0     H11857   7.594   6.329  10.361  0.3812 -2.0140  1.0458
   86MOL0     H11858   7.383   6.113  10.339 -0.2742 -1.6037 -0.3769
   86MOL0     H11859   7.477   6.133  10.490  3.2272 -3.1650 -0.4608
   86MOL0     H11860   7.585   6.067  10.217 -1.5243 -0.1606 -0.0613
   86MOL0     H11861   7.686   6.106  10.363 -0.1148 -1.1285 -0.4476
   86MOL0     H11862   7.575   5.909  10.474 -1.5301  0.1225  0.8083
   86MOL0     H11863   7.696   5.879  10.340  2.3063  4.9392  1.0899
   86MOL0     H11864   7.292   5.769  10.200 -1.6283  0.8486  3.0128
   86MOL0     H11865   7.568   6.571  10.380 -0.0477  4.3400 -1.2848
   86MOL0     H11866   7.601   6.772  10.463 -1.8286 -1.4836  0.4291
   86MOL0     H11867   7.571   6.848  10.299  2.7155  3.4335  2.0574
   86MOL0     H11868   7.495   6.899  10.456 -1.8404  0.4228 -0.3925
   87MOL0     O11869   7.918   1.490   9.354 -0.3448  0.1760 -0.3835
   87MOL0     C11870   7.973   1.552   9.264  0.4255  0.5004  0.3455
   87MOL0     O11871   7.977   1.687   9.252 -1.0075 -0.0822  0.6430
   87MOL0     C11872   7.909   1.773   9.338 -0.7377  0.5207  0.6712
   87MOL0     C11873   7.808   1.850   9.282 -0.2210 -0.5404 -0.4399
   87MOL0     C11874   7.739   1.932   9.373 -0.7337 -0.3470  0.4584
   87MOL0     C11875   7.784   1.959   9.501 -1.0711  0.1242  0.0654
   87MOL0     O11876   7.711   2.050   9.572  0.3747  0.6950  0.4078
   87MOL0     C11877   7.763   2.095   9.698 -0.3103 -0.3901 -0.1291
   87MOL0     C11878   7.675   2.201   9.754  0.9045  0.7421 -0.4389
   87MOL0     C11879   7.693   2.329   9.675 -0.9715  0.7099 -0.1297
   87MOL0     C11880   7.622   2.451   9.729 -0.3831 -0.1050 -0.5935
   87MOL0     C11881   7.637   2.584   9.650  0.7517  0.3833 -0.1173
   87MOL0     C11882   7.539   2.693   9.691  0.4918  0.4248 -0.6495
   87MOL0     C11883   7.545   2.819   9.617 -0.2112  0.3935  0.2506
   87MOL0     C11884   7.665   2.905   9.654 -0.8691 -0.2860  0.3756
   87MOL0     N11885   7.655   3.020   9.571  0.6076  0.2821  0.1486
   87MOL0     C11886   7.619   3.139   9.617  0.7205 -0.8063  0.4269
   87MOL0     C11887   7.631   3.218   9.512 -0.5415  0.2601  0.7098
   87MOL0     C11888   7.589   3.366   9.507 -0.6948 -0.4031 -0.2275
   87MOL0     C11889   7.687   3.456   9.585 -0.2919 -0.2473 -0.3629
   87MOL0     C11890   7.631   3.592   9.597  0.3713 -1.0636  0.5758
   87MOL0     C11891   7.711   3.690   9.696  0.6230  0.5154 -0.5156
   87MOL0     O11892   7.638   3.814   9.689  0.7513  0.4750  0.2649
   87MOL0     C11893   7.648   3.891   9.798  0.3755 -0.2485 -0.1143
   87MOL0     C11894   7.678   4.027   9.794 -0.2183 -0.9601 -0.2402
   87MOL0     C11895   7.670   4.117   9.901  0.1615 -0.5450  0.4302
   87MOL0     C11896   7.721   4.251   9.870  0.9826  0.7891  0.2802
   87MOL0     C11897   7.633   4.061  10.031 -0.7824 -0.3703  0.6663
   87MOL0     C11898   7.617   4.145  10.153  0.6313 -0.2096 -0.1699
   87MOL0     O11899   7.555   4.085  10.253 -0.1102 -1.0755 -0.3968
   87MOL0     C11900   7.544   4.153  10.370  0.1886  0.2141  0.6361
   87MOL0     C11901   7.619   4.104  10.472 -0.2010  0.7946 -0.2215
   87MOL0     C11902   7.612   4.171  10.593  0.2651  0.6565  0.1927
   87MOL0     C11903   7.540   4.287  10.619 -0.5490 -0.0007  0.1862
   87MOL0     O11904   7.562   4.353  10.736  0.1210  1.3534 -0.5213
   87MOL0     C11905   7.480   4.467  10.770  0.5775 -0.3876 -0.0351
   87MOL0     C11906   7.510   4.502  10.917 -0.5176  0.8666 -0.5785
   87MOL0     C11907   7.428   4.629  10.956  0.2007 -0.2534 -0.5342
   87MOL0     C11908   7.281   4.601  10.979  0.6562  0.1974 -0.1912
   87MOL0     C11909   7.208   4.712  11.061  0.4231 -0.0385  0.4883
   87MOL0     C11910   7.262   4.718  11.204  0.0602 -0.0129 -0.7243
   87MOL0     C11911   7.160   4.783  11.312 -0.4250 -1.1788  0.3529
   87MOL0     C11912   7.109   4.919  11.278 -0.3039  0.0515  0.3354
   87MOL0    Cl11913   6.960   4.933  11.370  0.1063 -0.0977  0.1171
   87MOL0     C11914   7.470   4.344  10.512 -0.8645  0.5492 -0.2898
   87MOL0     C11915   7.472   4.270  10.394 -0.8126  1.1442  0.4740
   87MOL0     O11916   7.637   4.267  10.135 -0.9203  0.1231  0.5388
   87MOL0     C11917   7.599   3.918  10.031 -0.4189 -0.0655 -0.4410
   87MOL0     C11918   7.611   3.841   9.921  0.1899  0.9467  0.3680
   87MOL0     N11919   7.692   3.153   9.404  0.1663  0.5672 -0.4134
   87MOL0     N11920   7.704   3.031   9.446 -0.6209  0.2429  0.3043
   87MOL0     C11921   7.887   1.878   9.552 -0.1047 -0.2563  1.1672
   87MOL0     C11922   7.953   1.792   9.466 -0.2403  0.2083  0.3212
   87MOL0     C11923   8.045   1.464   9.166  0.0778 -0.0686  0.1444
   87MOL0     C11924   8.066   1.510   9.031 -0.4274 -0.2425 -0.0958
   87MOL0     C11925   8.129   1.426   8.928 -0.1161 -0.4072 -0.1009
   87MOL0     C11926   8.171   1.298   8.956 -0.5119 -0.0553 -0.3009
   87MOL0     O11927   8.241   1.218   8.868 -1.0284  0.2172  0.3897
   87MOL0     C11928   8.308   1.273   8.758 -0.3596 -0.1348  0.3503
   87MOL0     C11929   8.244   1.207   8.634  0.3930  0.3575 -0.3676
   87MOL0     C11930   8.283   1.060   8.617 -0.3328  0.2043 -1.2565
   87MOL0     C11931   8.282   1.009   8.475  0.4714  0.7205 -0.0264
   87MOL0     C11932   8.319   0.864   8.467 -0.4902  0.5230  0.0940
   87MOL0     C11933   8.342   0.745   8.454 -0.5783 -0.4894  0.1056
   87MOL0     C11934   8.151   1.252   9.087  0.5855 -0.0502 -0.0183
   87MOL0     C11935   8.099   1.335   9.192  0.2921  0.6842  0.1330
   87MOL0     C11936   8.082   1.259   9.327  0.4624 -1.4774  0.0118
   87MOL0     H11937   7.790   1.842   9.175 -1.4462  1.0694 -0.3930
   87MOL0     H11938   7.661   1.992   9.328 -2.5865 -2.2486  0.9264
   87MOL0     H11939   7.865   2.134   9.702 -0.6834  0.4917  2.2180
   87MOL0     H11940   7.766   2.016   9.774  0.2548 -1.3365 -1.0972
   87MOL0     H11941   7.573   2.168   9.775  1.6563  0.5209  3.8702
   87MOL0     H11942   7.706   2.242   9.850 -0.6491  2.5497 -0.6506
   87MOL0     H11943   7.799   2.355   9.671 -0.3906 -1.1047  1.7858
   87MOL0     H11944   7.662   2.313   9.571  1.5341  1.0160 -0.9811
   87MOL0     H11945   7.513   2.437   9.733 -0.5090  1.0961  0.9811
   87MOL0     H11946   7.656   2.476   9.830 -2.2108 -0.3326  0.1341
   87MOL0     H11947   7.618   2.560   9.545 -0.7152 -0.4977  0.3263
   87MOL0     H11948   7.738   2.624   9.663  1.6969 -1.5681 -1.0071
   87MOL0     H11949   7.435   2.661   9.680  0.4505 -0.0939  0.9783
   87MOL0     H11950   7.558   2.712   9.797 -0.8995 -2.5477  0.2680
   87MOL0     H11951   7.455   2.880   9.631 -1.3393 -0.6885 -1.8300
   87MOL0     H11952   7.564   2.785   9.515  2.2447  2.7567 -0.2213
   87MOL0     H11953   7.669   2.935   9.759  1.6223  1.8366 -0.2171
   87MOL0     H11954   7.765   2.862   9.645 -0.9426 -1.2672  3.2808
   87MOL0     H11955   7.576   3.168   9.712 -2.5522  0.8794 -1.3991
   87MOL0     H11956   7.491   3.360   9.555 -0.5290 -0.7300  0.0718
   87MOL0     H11957   7.574   3.400   9.404 -0.5619  0.0116 -0.1146
   87MOL0     H11958   7.714   3.411   9.681  0.8006 -2.8114 -1.7539
   87MOL0     H11959   7.774   3.463   9.519  0.6025 -0.6783  0.7406
   87MOL0     H11960   7.639   3.644   9.501  3.1671  3.4671  2.9154
   87MOL0     H11961   7.527   3.595   9.630  0.0934  0.2041 -0.3513
   87MOL0     H11962   7.714   3.635   9.791  2.0753 -2.8622 -2.3697
   87MOL0     H11963   7.819   3.702   9.682  0.8931  0.3328  1.1585
   87MOL0     H11964   7.707   4.078   9.703 -1.6206  1.3055  0.4815
   87MOL0     H11965   7.798   4.273   9.945  1.1809  0.5132  0.1588
   87MOL0     H11966   7.647   4.332   9.876 -1.0555 -1.0602  2.4981
   87MOL0     H11967   7.756   4.262   9.767 -0.6301 -0.8020 -0.4825
   87MOL0     H11968   7.681   4.015  10.466  1.5026  1.9134 -0.0423
   87MOL0     H11969   7.666   4.131  10.679  0.8435 -3.4592 -1.8256
   87MOL0     H11970   7.491   4.557  10.709 -2.1238  0.8062  1.1177
   87MOL0     H11971   7.379   4.430  10.751  1.0040 -0.9701 -1.3526
   87MOL0     H11972   7.487   4.413  10.976  1.2247  0.5462 -0.3310
   87MOL0     H11973   7.616   4.522  10.933 -0.6452 -0.8950  4.0421
   87MOL0     H11974   7.431   4.718  10.892 -1.2901  1.0810  1.1648
   87MOL0     H11975   7.471   4.672  11.047  1.0381  0.9784 -1.4702
   87MOL0     H11976   7.260   4.504  11.027  0.7126 -0.0424 -0.6451
   87MOL0     H11977   7.237   4.582  10.881  2.2651 -1.9337 -0.5695
   87MOL0     H11978   7.236   4.809  11.018  1.6071  0.6571  2.6474
   87MOL0     H11979   7.101   4.690  11.062  0.7910 -2.0959 -0.4259
   87MOL0     H11980   7.351   4.780  11.190  1.8447 -1.8941  1.5490
   87MOL0     H11981   7.293   4.620  11.240  1.1253 -0.5685 -2.9889
   87MOL0     H11982   7.213   4.797  11.406  2.6403 -0.9757 -1.2688
   87MOL0     H11983   7.077   4.712  11.319 -0.9993 -0.4725  0.8297
   87MOL0     H11984   7.077   4.920  11.173  1.9383 -0.4326 -0.4216
   87MOL0     H11985   7.188   4.991  11.300 -0.7256  0.6018  0.0502
   87MOL0     H11986   7.405   4.431  10.523 -2.8647 -0.9830  0.5852
   87MOL0     H11987   7.419   4.309  10.308  0.6477  1.4342 -0.3210
   87MOL0     H11988   7.564   3.879  10.125  0.0527  0.1667 -0.1638
   87MOL0     H11989   7.588   3.735   9.929 -1.2986  1.1697 -0.6257
   87MOL0     H11990   7.920   1.884   9.655 -0.6123 -1.8006  1.4456
   87MOL0     H11991   8.039   1.736   9.500  0.1943  0.5869 -0.1298
   87MOL0     H11992   8.020   1.602   8.995 -1.1163 -0.3106  0.6071
   87MOL0     H11993   8.128   1.462   8.826  3.5383 -3.2985 -1.3704
   87MOL0     H11994   8.291   1.380   8.740  0.4282 -0.4195 -2.5959
   87MOL0     H11995   8.416   1.256   8.765 -0.3016 -2.0007 -3.2175
   87MOL0     H11996   8.277   1.269   8.550 -1.2649  2.4020  0.3981
   87MOL0     H11997   8.135   1.218   8.637  0.1996 -0.8077 -2.0772
   87MOL0     H11998   8.378   1.041   8.669 -1.3355  1.1156  1.0551
   87MOL0     H11999   8.211   1.004   8.678  0.9071 -2.1832 -1.8527
   87MOL0     H12000   8.341   1.064   8.401  1.3875  2.3540  1.8385
   87MOL0     H12001   8.174   1.012   8.457  0.5078  0.1126 -0.3691
   87MOL0     H12002   8.382   0.648   8.432 -3.4499 -1.3098 -2.0365
   87MOL0     H12003   8.172   1.150   9.118  0.8983  0.2552  0.8068
   87MOL0     H12004   8.090   1.334   9.406  0.9080 -0.5694 -0.8709
   87MOL0     H12005   7.997   1.190   9.329  0.8718 -2.0507 -1.1659
   87MOL0     H12006   8.167   1.191   9.339  0.4362 -1.1278  2.7301
   88MOL0     O12007   7.070   0.819   7.056 -0.3217  0.0978 -0.2159
   88MOL0     C12008   7.031   0.732   6.979  0.1769 -0.0764  0.8872
   88MOL0     O12009   7.029   0.596   7.015  0.6583  0.3799 -0.3458
   88MOL0     C12010   7.087   0.543   7.120  0.4953 -0.7732 -0.2405
   88MOL0     C12011   7.180   0.597   7.204 -1.1687  0.2581 -0.4305
   88MOL0     C12012   7.224   0.527   7.322  0.0761 -0.2292  0.7789
   88MOL0     C12013   7.183   0.403   7.356  1.1069  0.5865 -0.4965
   88MOL0     O12014   7.222   0.360   7.479  0.2665  0.1969  0.0585
   88MOL0     C12015   7.211   0.222   7.509  0.2201 -0.7435  0.3293
   88MOL0     C12016   7.316   0.148   7.418  0.5475  0.3304 -1.1206
   88MOL0     C12017   7.286   0.003   7.397 -0.8067 -1.1102 -0.4007
   88MOL0     C12018   7.323  -0.082   7.527 -0.8028 -0.2683  0.8810
   88MOL0     C12019   7.307  -0.239   7.497  1.0018  0.1112 -0.2004
   88MOL0     C12020   7.413  -0.293   7.403  0.5027 -0.3436 -0.2874
   88MOL0     C12021   7.394  -0.429   7.342  0.2576  0.3601 -0.3221
   88MOL0     C12022   7.386  -0.535   7.451 -0.1604 -0.0055  0.7962
   88MOL0     N12023   7.416  -0.679   7.408  0.5812  0.3781 -0.7516
   88MOL0     C12024   7.410  -0.726   7.281  0.2186  0.0523  0.3805
   88MOL0     C12025   7.436  -0.865   7.297  0.0806  0.0705 -0.5926
   88MOL0     C12026   7.450  -0.967   7.188  0.1118 -0.4998 -0.1908
   88MOL0     C12027   7.378  -1.097   7.208  1.0903  0.9803  0.3530
   88MOL0     C12028   7.228  -1.071   7.180  0.8660  0.1993 -0.3221
   88MOL0     C12029   7.146  -1.194   7.128 -0.5286 -0.4677 -0.3267
   88MOL0     O12030   7.137  -1.304   7.218  0.4045 -0.6172 -1.0711
   88MOL0     C12031   7.046  -1.287   7.317  0.8996 -0.2673 -1.3303
   88MOL0     C12032   6.956  -1.182   7.340  0.1973  0.2957  0.5439
   88MOL0     C12033   6.873  -1.171   7.458  0.6673  0.8957  0.6436
   88MOL0     C12034   6.800  -1.051   7.469  0.5593 -0.1236 -0.1898
   88MOL0     C12035   6.882  -1.275   7.549  0.4863 -0.2845  0.4548
   88MOL0     C12036   6.810  -1.281   7.680 -0.5873  0.4963  0.1597
   88MOL0     O12037   6.866  -1.335   7.793 -0.0591 -0.5773  0.1541
   88MOL0     C12038   6.804  -1.330   7.914  0.5741  0.1401 -0.0942
   88MOL0     C12039   6.734  -1.442   7.968 -0.4002  0.4219 -0.2901
   88MOL0     C12040   6.661  -1.428   8.085  0.3654 -0.0909 -1.1654
   88MOL0     C12041   6.670  -1.305   8.156 -0.4595  0.2633 -0.4896
   88MOL0     O12042   6.621  -1.286   8.281 -0.0166  0.5962  0.7949
   88MOL0     C12043   6.554  -1.399   8.342  0.2689 -0.0845 -0.0809
   88MOL0     C12044   6.534  -1.374   8.493 -0.0898  0.5208 -0.0016
   88MOL0     C12045   6.438  -1.258   8.504 -0.3694 -0.3007  0.4216
   88MOL0     C12046   6.425  -1.199   8.654 -0.3426  0.4987 -0.3427
   88MOL0     C12047   6.335  -1.292   8.737  0.6866  0.8351 -0.0657
   88MOL0     C12048   6.306  -1.231   8.873  0.4441 -0.5951 -0.4304
   88MOL0     C12049   6.169  -1.282   8.929  0.8235 -0.1167 -0.2833
   88MOL0     C12050   6.116  -1.214   9.054 -0.3652  0.0331 -1.1561
   88MOL0    Cl12051   6.218  -1.223   9.187 -0.5523  0.1065  0.1730
   88MOL0     C12052   6.734  -1.192   8.102 -0.0123 -0.2878  0.5041
   88MOL0     C12053   6.798  -1.204   7.977  0.0198  0.1362 -0.5207
   88MOL0     O12054   6.696  -1.233   7.677 -0.4745 -0.2182  0.2701
   88MOL0     C12055   6.959  -1.388   7.523 -0.0577  0.0558  0.7132
   88MOL0     C12056   7.042  -1.401   7.406  0.1019 -0.0771 -0.2971
   88MOL0     N12057   7.456  -0.885   7.433  0.3524 -0.4215 -0.2766
   88MOL0     N12058   7.448  -0.777   7.500  0.1781 -0.5596 -0.8017
   88MOL0     C12059   7.096   0.346   7.262  0.6322 -0.7348  0.6397
   88MOL0     C12060   7.046   0.414   7.148  0.2717 -0.2547  0.1730
   88MOL0     C12061   6.938   0.771   6.864  0.5533 -0.0093  0.1421
   88MOL0     C12062   6.937   0.692   6.751  0.6097  0.5030 -0.5333
   88MOL0     C12063   6.874   0.729   6.632  0.1146 -0.5946 -0.3860
   88MOL0     C12064   6.788   0.841   6.626 -0.4595 -0.5148  0.0456
   88MOL0     O12065   6.711   0.878   6.520 -0.2027 -0.8061  0.9901
   88MOL0     C12066   6.736   0.804   6.402  0.2748  0.1873  0.1778
   88MOL0     C12067   6.664   0.877   6.286  0.5096 -0.8447 -0.6670
   88MOL0     C12068   6.511   0.856   6.278  0.2581 -0.8277  0.2415
   88MOL0     C12069   6.417   0.961   6.349  0.2530  0.8313  0.0652
   88MOL0     C12070   6.411   1.098   6.292 -0.2064  0.0084 -1.1041
   88MOL0     C12071   6.393   1.203   6.239  0.6775 -0.8035  0.5418
   88MOL0     C12072   6.782   0.920   6.746  0.0460 -0.7211  0.1809
   88MOL0     C12073   6.864   0.898   6.864  0.1485  0.4104  0.0832
   88MOL0     C12074   6.864   1.004   6.967  0.5599  0.8376 -0.2772
   88MOL0     H12075   7.223   0.692   7.174 -4.6116  2.0464 -0.1265
   88MOL0     H12076   7.304   0.570   7.383  0.6556  2.8366 -1.8257
   88MOL0     H12077   7.109   0.193   7.482  0.9233 -0.8648 -2.4618
   88MOL0     H12078   7.229   0.198   7.614 -1.6631  0.5624  1.0010
   88MOL0     H12079   7.322   0.191   7.317 -0.9869 -0.2715 -1.4988
   88MOL0     H12080   7.415   0.149   7.464  0.4060 -2.1843 -0.6173
   88MOL0     H12081   7.181  -0.019   7.375 -0.5867 -1.6624 -0.9340
   88MOL0     H12082   7.350  -0.039   7.319  1.2269 -0.1080  0.6649
   88MOL0     H12083   7.429  -0.065   7.544 -1.2148  1.2639  2.1372
   88MOL0     H12084   7.252  -0.054   7.606 -0.5733 -0.2894  1.0945
   88MOL0     H12085   7.212  -0.267   7.452  0.0729 -1.8733  2.6915
   88MOL0     H12086   7.298  -0.293   7.592  0.4841  0.8491  0.1835
   88MOL0     H12087   7.424  -0.230   7.314 -2.5367 -0.0408 -0.5653
   88MOL0     H12088   7.508  -0.298   7.455  1.2487 -1.1533 -1.6535
   88MOL0     H12089   7.482  -0.446   7.279  1.2650  0.2720  1.0656
   88MOL0     H12090   7.306  -0.427   7.277  2.0296  1.2475 -2.8840
   88MOL0     H12091   7.460  -0.514   7.529 -0.8488  0.9160  1.2224
   88MOL0     H12092   7.290  -0.525   7.501 -1.5293  0.1675 -1.7332
   88MOL0     H12093   7.380  -0.686   7.185 -3.0594  0.3367  1.4104
   88MOL0     H12094   7.559  -0.973   7.188  0.3465  2.2941 -0.1893
   88MOL0     H12095   7.425  -0.929   7.089  3.2131 -1.4670 -1.4641
   88MOL0     H12096   7.410  -1.170   7.133 -0.2600  0.3124  0.4025
   88MOL0     H12097   7.396  -1.146   7.305 -3.9896 -0.3218  0.9167
   88MOL0     H12098   7.175  -1.036   7.269 -0.6038  0.0769 -1.1330
   88MOL0     H12099   7.215  -0.989   7.108 -0.7316  2.6160  2.4906
   88MOL0     H12100   7.049  -1.164   7.088  0.0145 -2.3222 -3.4391
   88MOL0     H12101   7.210  -1.230   7.047  3.1359  2.0378  1.1719
   88MOL0     H12102   6.960  -1.096   7.274  2.1158 -0.6389 -0.6635
   88MOL0     H12103   6.789  -1.015   7.571  2.0858 -2.0445  0.7192
   88MOL0     H12104   6.700  -1.075   7.433  0.6355 -2.4123  0.9725
   88MOL0     H12105   6.840  -0.975   7.401 -0.3641 -0.8590 -1.6006
   88MOL0     H12106   6.737  -1.542   7.926 -1.2611  0.8578 -1.4552
   88MOL0     H12107   6.616  -1.522   8.116  0.5185  0.4437  0.7842
   88MOL0     H12108   6.454  -1.420   8.304 -0.0130  0.3246  0.4361
   88MOL0     H12109   6.614  -1.490   8.328 -0.7841 -0.4787 -2.6103
   88MOL0     H12110   6.486  -1.464   8.532 -1.3481  1.0775 -0.2173
   88MOL0     H12111   6.630  -1.346   8.537  0.9173  0.0635 -1.8014
   88MOL0     H12112   6.345  -1.289   8.455  1.0978 -1.9323 -1.5357
   88MOL0     H12113   6.480  -1.180   8.439 -2.2856  0.8631  0.4992
   88MOL0     H12114   6.379  -1.100   8.648 -0.2316  0.6492  0.9756
   88MOL0     H12115   6.526  -1.182   8.693 -0.5920 -0.9189  1.0221
   88MOL0     H12116   6.243  -1.311   8.682  1.8089 -4.5963 -0.6697
   88MOL0     H12117   6.388  -1.387   8.749 -2.3404 -1.2318 -1.8088
   88MOL0     H12118   6.315  -1.122   8.868  0.2830 -0.6299 -3.4921
   88MOL0     H12119   6.389  -1.275   8.930  1.0908  1.6203  0.4607
   88MOL0     H12120   6.182  -1.389   8.949 -5.0127 -1.5698 -2.2473
   88MOL0     H12121   6.093  -1.287   8.850  1.2210 -1.7253 -0.6053
   88MOL0     H12122   6.018  -1.247   9.089 -0.8894  3.7397  1.4372
   88MOL0     H12123   6.104  -1.107   9.036  1.0805  0.5553  0.6735
   88MOL0     H12124   6.733  -1.096   8.151 -3.7267 -0.9440  2.0717
   88MOL0     H12125   6.844  -1.119   7.928 -0.4515  1.9412  1.9428
   88MOL0     H12126   6.951  -1.466   7.598  0.2479  1.1049  1.8676
   88MOL0     H12127   7.092  -1.495   7.387 -1.2048 -0.5967 -1.3440
   88MOL0     H12128   7.064   0.243   7.275  0.3367 -0.9306 -1.3364
   88MOL0     H12129   6.977   0.359   7.085 -2.9997  0.3342  2.9306
   88MOL0     H12130   6.995   0.601   6.751  1.4263  1.0203 -0.6349
   88MOL0     H12131   6.886   0.662   6.548 -0.7948  3.0708 -3.7489
   88MOL0     H12132   6.842   0.792   6.378  0.2593  3.3636 -2.2163
   88MOL0     H12133   6.691   0.704   6.401  1.7747 -0.5342  1.2949
   88MOL0     H12134   6.716   0.844   6.195  2.3209 -0.2230  0.0972
   88MOL0     H12135   6.687   0.983   6.293  0.6760 -0.7593 -2.0716
   88MOL0     H12136   6.495   0.851   6.170 -0.3341 -0.9023  0.3288
   88MOL0     H12137   6.472   0.762   6.318 -2.9419 -0.3385 -1.4532
   88MOL0     H12138   6.462   0.979   6.447  1.8497  3.8527 -1.0611
   88MOL0     H12139   6.314   0.924   6.350  0.5671 -0.8942 -4.4317
   88MOL0     H12140   6.385   1.301   6.198  1.8988 -1.1497 -0.5952
   88MOL0     H12141   6.729   1.014   6.757  0.2638 -0.7062  1.2596
   88MOL0     H12142   6.957   1.059   6.955  1.1386 -0.1301 -0.3058
   88MOL0     H12143   6.776   1.070   6.966  1.4065  1.9887 -1.2929
   88MOL0     H12144   6.851   0.965   7.069 -6.2644 -0.2786 -1.0709
   89MOL0     O12145   5.778   0.085   5.738 -0.2376  0.0426 -0.2607
   89MOL0     C12146   5.905   0.077   5.731 -0.4657  0.5700  0.5239
   89MOL0     O12147   5.985  -0.011   5.794 -0.6518 -0.3504 -0.0330
   89MOL0     C12148   5.918  -0.081   5.890  0.3051  0.0294 -0.0241
   89MOL0     C12149   5.898  -0.022   6.015  0.3278  0.6320  0.8915
   89MOL0     C12150   5.825  -0.096   6.115 -0.2935  0.4102 -0.7344
   89MOL0     C12151   5.765  -0.223   6.078  1.0495 -0.5340 -0.3442
   89MOL0     O12152   5.701  -0.297   6.171 -0.3647  0.0458 -0.3857
   89MOL0     C12153   5.581  -0.238   6.225  0.0113  0.0727  1.0989
   89MOL0     C12154   5.500  -0.351   6.279  0.4382  0.5367 -0.1501
   89MOL0     C12155   5.399  -0.305   6.393 -0.6905 -0.5790  0.1266
   89MOL0     C12156   5.368  -0.161   6.425 -1.3807 -0.4534 -0.0634
   89MOL0     C12157   5.249  -0.158   6.513 -0.2124  0.0288 -0.3798
   89MOL0     C12158   5.197  -0.015   6.547  0.3456  0.2952 -0.2381
   89MOL0     C12159   5.077  -0.022   6.644 -0.1160  0.5518 -0.2374
   89MOL0     C12160   5.126  -0.075   6.780  0.6794 -0.4452 -0.2208
   89MOL0     N12161   4.999  -0.102   6.856 -0.7736 -0.5619  0.6970
   89MOL0     C12162   4.950  -0.020   6.950  0.0975  0.1198 -0.6224
   89MOL0     C12163   4.872  -0.102   7.027  0.1108  0.4473  1.4002
   89MOL0     C12164   4.787  -0.063   7.149 -0.4435 -0.6931 -0.4301
   89MOL0     C12165   4.790  -0.160   7.263 -0.4330 -0.0500 -1.0293
   89MOL0     C12166   4.720  -0.099   7.389 -0.0019  0.3525 -0.0526
   89MOL0     C12167   4.723  -0.214   7.493  0.0650 -0.1391  0.2586
   89MOL0     O12168   4.625  -0.315   7.474 -0.0510  0.0365 -0.4524
   89MOL0     C12169   4.501  -0.305   7.523 -0.4384 -0.6202  0.3632
   89MOL0     C12170   4.440  -0.197   7.588  0.7825  1.1010  0.3553
   89MOL0     C12171   4.304  -0.198   7.630 -0.2133  1.0493  0.2174
   89MOL0     C12172   4.266  -0.089   7.716 -0.0025  0.2360 -0.1968
   89MOL0     C12173   4.222  -0.315   7.597 -0.5094 -0.0489 -0.4165
   89MOL0     C12174   4.080  -0.348   7.638 -0.6380  0.6788 -0.9444
   89MOL0     O12175   4.023  -0.455   7.603 -0.2539  0.5308  0.1323
   89MOL0     C12176   3.908  -0.496   7.667  0.2347  0.1048  0.0343
   89MOL0     C12177   3.886  -0.482   7.803 -0.5417 -1.0262  0.5147
   89MOL0     C12178   3.761  -0.523   7.857  0.6317  0.2171  0.0467
   89MOL0     C12179   3.653  -0.586   7.783 -0.1970 -1.3388 -0.3454
   89MOL0     O12180   3.531  -0.598   7.844  0.1324  0.3513 -0.3274
   89MOL0     C12181   3.427  -0.671   7.773 -0.9193 -0.2147 -0.7220
   89MOL0     C12182   3.346  -0.762   7.857  0.3149  0.5019  0.0151
   89MOL0     C12183   3.219  -0.796   7.781 -0.6897  0.4627 -0.2093
   89MOL0     C12184   3.119  -0.845   7.879 -0.6865 -0.5106  0.2914
   89MOL0     C12185   2.981  -0.863   7.819 -0.5264 -0.0099  0.0183
   89MOL0     C12186   2.892  -0.975   7.898  0.4060 -0.7790 -0.7524
   89MOL0     C12187   2.779  -1.024   7.807 -0.2715  0.0274 -0.0952
   89MOL0     C12188   2.667  -1.102   7.886 -0.1638 -0.0557  1.3047
   89MOL0    Cl12189   2.728  -1.233   7.982 -0.4247 -0.0227  0.2421
   89MOL0     C12190   3.680  -0.590   7.642  0.3775  0.8017 -0.3910
   89MOL0     C12191   3.809  -0.551   7.591  0.2822  0.0109  0.3106
   89MOL0     O12192   4.016  -0.253   7.695  0.0480 -0.0043  0.9063
   89MOL0     C12193   4.287  -0.421   7.527  0.0690 -0.7217  0.0284
   89MOL0     C12194   4.417  -0.413   7.490 -0.6222 -0.5906 -0.8388
   89MOL0     N12195   4.857  -0.224   6.965  0.0320  0.1406 -0.0213
   89MOL0     N12196   4.923  -0.214   6.855  0.3497 -0.0742  0.4601
   89MOL0     C12197   5.778  -0.269   5.947  0.2514 -0.5761  0.1129
   89MOL0     C12198   5.858  -0.198   5.860 -0.3568  1.4068 -0.5914
   89MOL0     C12199   5.968   0.183   5.647  0.2286  1.0107  0.1822
   89MOL0     C12200   6.105   0.207   5.683  0.4734  0.1883  0.3132
   89MOL0     C12201   6.172   0.305   5.615 -0.2463  0.8812  0.2836
   89MOL0     C12202   6.121   0.377   5.508  0.5588 -0.6212 -0.3290
   89MOL0     O12203   6.194   0.478   5.462 -0.0159 -0.1030  0.6728
   89MOL0     C12204   6.161   0.566   5.346 -0.4002 -0.7977  0.5149
   89MOL0     C12205   6.253   0.689   5.373  0.0048 -0.5291  0.1592
   89MOL0     C12206   6.219   0.799   5.273  0.8526  0.8934  0.0900
   89MOL0     C12207   6.319   0.911   5.270  0.8495  0.2831  0.5119
   89MOL0     C12208   6.273   1.027   5.193 -0.4945 -0.3057 -0.2370
   89MOL0     C12209   6.246   1.123   5.131  0.4900 -0.1895 -0.5116
   89MOL0     C12210   5.988   0.346   5.470  0.6254  0.6153 -0.4730
   89MOL0     C12211   5.908   0.251   5.540 -0.7029  0.0829  0.0829
   89MOL0     C12212   5.761   0.238   5.496 -0.5743 -0.1867 -0.0239
   89MOL0     H12213   5.951   0.071   6.030  1.6295  0.3130 -1.2814
   89MOL0     H12214   5.801  -0.048   6.209  1.8725 -0.4290  0.3313
   89MOL0     H12215   5.532  -0.177   6.148  3.2792 -0.7958 -1.9750
   89MOL0     H12216   5.617  -0.182   6.311  0.3159  1.0277  0.3719
   89MOL0     H12217   5.451  -0.403   6.196  1.1205  0.5183 -0.5457
   89MOL0     H12218   5.578  -0.412   6.325  0.8736  1.1327 -0.0892
   89MOL0     H12219   5.298  -0.343   6.376 -1.7815  1.3314  1.9102
   89MOL0     H12220   5.454  -0.352   6.476  1.9576  3.2562  0.7814
   89MOL0     H12221   5.459  -0.126   6.474 -0.1975 -3.2672 -0.0667
   89MOL0     H12222   5.352  -0.104   6.333  1.1492 -1.4133 -1.1840
   89MOL0     H12223   5.275  -0.219   6.600 -1.7163  1.9352  1.5235
   89MOL0     H12224   5.165  -0.202   6.458 -0.2783  0.9207 -1.0275
   89MOL0     H12225   5.274   0.043   6.599  0.0117 -1.1847  2.0863
   89MOL0     H12226   5.163   0.042   6.461  0.6147  0.3091 -0.3369
   89MOL0     H12227   4.996  -0.090   6.615 -0.3457 -0.5014  2.5730
   89MOL0     H12228   5.041   0.080   6.662 -2.4166 -0.3374  0.6401
   89MOL0     H12229   5.173  -0.170   6.755  0.6175  0.0815 -2.5836
   89MOL0     H12230   5.191  -0.001   6.829 -0.2022 -0.3698  0.8924
   89MOL0     H12231   4.955   0.089   6.955  1.2816  0.1378 -1.7328
   89MOL0     H12232   4.683  -0.042   7.123  0.1758  1.5734 -1.2898
   89MOL0     H12233   4.821   0.034   7.188  1.2698 -0.7201 -1.7333
   89MOL0     H12234   4.753  -0.260   7.239  1.3811 -1.4011  1.3049
   89MOL0     H12235   4.897  -0.161   7.284 -1.0050  0.4455  2.6210
   89MOL0     H12236   4.766  -0.003   7.414  0.6342 -0.0003  0.1915
   89MOL0     H12237   4.614  -0.083   7.373 -1.2053 -4.6659  1.0915
   89MOL0     H12238   4.814  -0.273   7.481 -0.8624 -1.3187 -1.2877
   89MOL0     H12239   4.701  -0.164   7.588 -3.3091 -0.6241 -0.1457
   89MOL0     H12240   4.512  -0.119   7.612  2.1541  0.0188 -0.1167
   89MOL0     H12241   4.208  -0.124   7.802 -0.3838  1.1504 -0.0677
   89MOL0     H12242   4.192  -0.029   7.662  1.2009  1.6734 -0.3189
   89MOL0     H12243   4.340  -0.017   7.750  1.6190 -1.7859  0.7865
   89MOL0     H12244   3.955  -0.430   7.869  0.3936 -1.1736 -0.3334
   89MOL0     H12245   3.744  -0.516   7.964 -0.5652 -1.0742 -0.0241
   89MOL0     H12246   3.374  -0.586   7.728  0.8992  1.0041 -0.6896
   89MOL0     H12247   3.459  -0.737   7.693 -0.3526 -3.1219  1.7385
   89MOL0     H12248   3.398  -0.854   7.883  3.9255  1.0758 -4.0365
   89MOL0     H12249   3.311  -0.706   7.944 -0.3641  0.2807 -0.1111
   89MOL0     H12250   3.234  -0.875   7.708 -2.0332 -0.2222  0.2263
   89MOL0     H12251   3.172  -0.709   7.733 -2.8061  0.4101  1.6172
   89MOL0     H12252   3.117  -0.783   7.969  3.4215 -0.2577  0.4018
   89MOL0     H12253   3.160  -0.942   7.907  0.9427  0.2087  0.5002
   89MOL0     H12254   2.927  -0.769   7.827 -2.2663 -1.0729  2.1648
   89MOL0     H12255   2.989  -0.893   7.714  0.7497 -4.1255  1.1002
   89MOL0     H12256   2.856  -0.947   7.997  0.4422  0.3442 -1.0483
   89MOL0     H12257   2.952  -1.064   7.922 -1.5509 -2.1466 -0.6992
   89MOL0     H12258   2.827  -1.102   7.748 -0.4402 -0.1219 -0.0363
   89MOL0     H12259   2.739  -0.944   7.744  0.5967  0.1670 -0.4701
   89MOL0     H12260   2.600  -1.139   7.808  1.4829  3.8930 -2.3732
   89MOL0     H12261   2.610  -1.027   7.942 -1.3357  1.1587 -1.3292
   89MOL0     H12262   3.595  -0.615   7.580 -0.5176  1.5835  0.5004
   89MOL0     H12263   3.829  -0.563   7.485  1.3173 -0.0747  0.5082
   89MOL0     H12264   4.233  -0.514   7.508  0.0747 -1.7008  3.9219
   89MOL0     H12265   4.456  -0.505   7.446 -0.8811  0.7297 -4.1598
   89MOL0     H12266   5.739  -0.367   5.919  2.9137 -0.5581 -4.7899
   89MOL0     H12267   5.869  -0.232   5.757 -1.7678 -2.4697  0.3721
   89MOL0     H12268   6.154   0.157   5.766  1.0191  0.8465  0.4003
   89MOL0     H12269   6.272   0.329   5.650 -0.0969  0.0442  0.4432
   89MOL0     H12270   6.174   0.515   5.250  2.3805 -0.6138  0.7348
   89MOL0     H12271   6.063   0.616   5.346  0.1295  0.3576 -1.6841
   89MOL0     H12272   6.360   0.669   5.377  1.1728  4.5589  1.3084
   89MOL0     H12273   6.239   0.732   5.473  0.1947 -2.5164  1.0942
   89MOL0     H12274   6.206   0.753   5.175 -0.2116 -2.7628  1.7729
   89MOL0     H12275   6.120   0.840   5.297  1.2388  0.6659  2.2943
   89MOL0     H12276   6.400   0.886   5.201 -1.8100 -4.1205 -1.3945
   89MOL0     H12277   6.357   0.936   5.370  1.2913 -2.8593  1.2279
   89MOL0     H12278   6.215   1.209   5.075 -0.3447  0.7228  1.2580
   89MOL0     H12279   5.936   0.405   5.395 -1.1029  1.2711  1.1610
   89MOL0     H12280   5.731   0.133   5.495  0.2727 -0.4743 -2.0194
   89MOL0     H12281   5.716   0.296   5.577  2.6006  2.7097 -0.0811
   89MOL0     H12282   5.751   0.283   5.397 -0.7778 -0.9407 -0.3521
   90MOL0     O12283   0.697   0.643   4.840 -0.9183  0.9532 -0.9638
   90MOL0     C12284   0.620   0.563   4.895  0.7477 -0.5114  0.3191
   90MOL0     O12285   0.487   0.544   4.867 -0.0130  0.2483 -0.4546
   90MOL0     C12286   0.431   0.639   4.782  0.5229 -0.5601  0.4514
   90MOL0     C12287   0.397   0.750   4.851 -0.4475  0.0356 -0.8850
   90MOL0     C12288   0.318   0.841   4.791  0.7623 -0.2613 -0.5447
   90MOL0     C12289   0.290   0.831   4.657  0.9121 -0.2216 -0.0000
   90MOL0     O12290   0.212   0.935   4.608  0.1823 -0.1057 -0.4299
   90MOL0     C12291   0.118   0.881   4.517  1.1606 -0.7099  0.7561
   90MOL0     C12292   0.002   0.976   4.506 -0.5989  0.3739 -0.4853
   90MOL0     C12293   0.014   1.072   4.386  0.3883 -0.0248 -0.7352
   90MOL0     C12294  -0.070   1.197   4.382  0.2151 -0.0151 -0.4718
   90MOL0     C12295  -0.036   1.291   4.265  1.0412  0.0755 -0.1012
   90MOL0     C12296  -0.074   1.245   4.129  0.4101  0.6511  0.0603
   90MOL0     C12297  -0.222   1.188   4.116  0.0985 -0.3447  0.4472
   90MOL0     C12298  -0.258   1.159   3.961 -0.8223 -0.0168 -0.6138
   90MOL0     N12299  -0.165   1.058   3.908 -1.7499  0.3221 -0.6571
   90MOL0     C12300  -0.157   0.923   3.930  0.4770  0.4433 -0.1198
   90MOL0     C12301  -0.042   0.888   3.881  0.3029  0.8381  0.2960
   90MOL0     C12302   0.003   0.740   3.889  0.0741  0.3537  0.7118
   90MOL0     C12303   0.010   0.681   4.028  0.3479 -0.0017 -0.0238
   90MOL0     C12304   0.109   0.740   4.125  1.0749  0.5502 -0.0253
   90MOL0     C12305   0.255   0.723   4.084  0.0275 -0.5876 -0.5198
   90MOL0     O12306   0.318   0.756   4.206 -0.3292  0.6247 -0.2231
   90MOL0     C12307   0.439   0.824   4.190  1.4154 -0.4391 -0.4211
   90MOL0     C12308   0.482   0.901   4.298 -1.2466  0.4215 -0.3299
   90MOL0     C12309   0.616   0.952   4.303  0.6567 -0.5722  0.1691
   90MOL0     C12310   0.657   1.007   4.442 -0.0625 -0.3598  0.0330
   90MOL0     C12311   0.700   0.925   4.194  0.1789 -1.0781  0.1983
   90MOL0     C12312   0.838   0.990   4.183 -0.2004 -0.4541 -0.5797
   90MOL0     O12313   0.868   1.088   4.272  0.3743 -0.0171 -0.6026
   90MOL0     C12314   0.982   1.158   4.251  0.6336 -0.6479 -0.6149
   90MOL0     C12315   0.995   1.246   4.142 -0.4857 -0.3827  0.0141
   90MOL0     C12316   1.110   1.316   4.123 -0.6679 -0.5381  0.8330
   90MOL0     C12317   1.234   1.275   4.180  0.3997 -0.9029  0.2537
   90MOL0     O12318   1.358   1.322   4.162 -0.4857 -0.3205  0.3025
   90MOL0     C12319   1.372   1.462   4.161  0.0662 -0.3485  0.2925
   90MOL0     C12320   1.514   1.506   4.207 -0.8409 -0.2125 -0.9839
   90MOL0     C12321   1.546   1.649   4.209 -0.0783 -0.2903  0.6547
   90MOL0     C12322   1.618   1.694   4.078 -0.2732 -1.4319 -0.3891
   90MOL0     C12323   1.611   1.845   4.062  0.7566  0.4565 -0.4175
   90MOL0     C12324   1.722   1.921   4.141  0.2546  0.1269  0.0710
   90MOL0     C12325   1.859   1.855   4.140 -0.8240  0.1827 -0.1224
   90MOL0     C12326   1.974   1.949   4.173  0.7628  0.2639 -0.3616
   90MOL0    Cl12327   1.973   2.014   4.344  0.0492 -0.1361  0.3171
   90MOL0     C12328   1.223   1.174   4.281  0.7582  0.5306  0.6146
   90MOL0     C12329   1.102   1.127   4.319  0.7506  0.6921  0.1646
   90MOL0     O12330   0.917   0.951   4.100  0.1466  0.3180  0.0980
   90MOL0     C12331   0.650   0.860   4.083 -0.0306  1.1858 -0.2003
   90MOL0     C12332   0.521   0.804   4.083 -0.3544  1.0082  0.0249
   90MOL0     N12333   0.015   0.993   3.810 -0.6238 -0.6661 -0.1331
   90MOL0     N12334  -0.054   1.097   3.837 -0.0513 -0.6144 -0.9359
   90MOL0     C12335   0.334   0.721   4.578  0.0873  0.8034 -0.2060
   90MOL0     C12336   0.410   0.622   4.641  0.1942  0.0945 -0.3157
   90MOL0     C12337   0.686   0.461   4.984  0.1199 -0.3953  0.0073
   90MOL0     C12338   0.647   0.441   5.112  1.1635  1.0425 -0.1394
   90MOL0     C12339   0.695   0.339   5.199  0.1178 -0.6208  0.7997
   90MOL0     C12340   0.783   0.246   5.149 -0.5340 -0.8055 -0.1603
   90MOL0     O12341   0.838   0.143   5.226 -0.2507 -0.7333 -0.0570
   90MOL0     C12342   0.858   0.171   5.364  1.0852 -0.5906 -0.7936
   90MOL0     C12343   0.965   0.076   5.427 -0.0567 -0.5840  0.2417
   90MOL0     C12344   1.076   0.056   5.318  0.6466 -0.6485 -0.7693
   90MOL0     C12345   1.202   0.041   5.396  0.4954 -0.1065 -0.2091
   90MOL0     C12346   1.207  -0.087   5.468  0.1414 -0.5637  0.0068
   90MOL0     C12347   1.228  -0.192   5.516 -0.0396  0.2315  0.2574
   90MOL0     C12348   0.814   0.253   5.010  0.0302  0.4341  0.3002
   90MOL0     C12349   0.773   0.363   4.929  0.4295  0.1307 -0.2221
   90MOL0     C12350   0.806   0.361   4.787 -0.0236 -0.0165  0.2640
   90MOL0     H12351   0.418   0.769   4.955  2.6377 -0.5405 -1.3167
   90MOL0     H12352   0.275   0.914   4.858  0.5536 -0.6698 -0.2344
   90MOL0     H12353   0.073   0.784   4.541  1.7375 -1.8260 -2.2921
   90MOL0     H12354   0.171   0.880   4.421 -0.1426  1.0242 -0.0400
   90MOL0     H12355  -0.090   0.920   4.485  0.0363  0.5376 -4.6439
   90MOL0     H12356  -0.021   1.025   4.600 -4.2562 -1.1847 -0.4038
   90MOL0     H12357   0.118   1.108   4.382  1.3127 -2.2646  1.0928
   90MOL0     H12358  -0.008   1.013   4.297 -1.4191 -0.8392  0.1996
   90MOL0     H12359  -0.173   1.161   4.374  0.2677  0.1425 -2.5299
   90MOL0     H12360  -0.064   1.248   4.478 -3.6557 -1.8635  0.9688
   90MOL0     H12361   0.065   1.331   4.280  0.0235  2.4319  1.1381
   90MOL0     H12362  -0.084   1.389   4.278  2.2406  0.6373  0.2695
   90MOL0     H12363  -0.078   1.324   4.054 -2.9348 -1.2388 -2.0164
   90MOL0     H12364   0.011   1.182   4.100 -0.1967  0.2558 -0.9004
   90MOL0     H12365  -0.288   1.261   4.166 -0.2334  0.7429 -1.4991
   90MOL0     H12366  -0.239   1.092   4.166 -1.0891 -0.9996 -1.1331
   90MOL0     H12367  -0.349   1.098   3.965 -2.2305  2.0042  0.0500
   90MOL0     H12368  -0.252   1.242   3.889  2.6738 -0.6014 -1.1906
   90MOL0     H12369  -0.232   0.859   3.975  2.4153 -0.1029  2.5095
   90MOL0     H12370   0.108   0.754   3.860  0.1495  0.5281  1.0647
   90MOL0     H12371  -0.046   0.673   3.817  1.6009 -1.0977  0.9555
   90MOL0     H12372  -0.093   0.700   4.061  0.6897 -1.1956  1.8453
   90MOL0     H12373   0.027   0.574   4.022 -1.9805 -0.3881 -0.5872
   90MOL0     H12374   0.085   0.846   4.138 -3.1715 -0.2457 -0.1309
   90MOL0     H12375   0.086   0.695   4.222 -1.7685  1.6157 -0.1113
   90MOL0     H12376   0.292   0.627   4.047 -0.1975  0.0261 -2.4373
   90MOL0     H12377   0.272   0.800   4.008 -0.7577  0.9200  0.7715
   90MOL0     H12378   0.413   0.914   4.381 -2.5856  0.5595 -1.4120
   90MOL0     H12379   0.672   1.115   4.435  2.6822 -0.7471 -1.4615
   90MOL0     H12380   0.749   0.960   4.478 -1.5450 -1.3073  2.8602
   90MOL0     H12381   0.575   0.981   4.510 -0.8352 -0.4450 -0.9115
   90MOL0     H12382   0.913   1.283   4.082  1.9890  1.2768 -2.6086
   90MOL0     H12383   1.107   1.398   4.051 -1.5828 -1.6819 -0.4912
   90MOL0     H12384   1.364   1.485   4.055 -1.9148 -2.2000 -0.0153
   90MOL0     H12385   1.298   1.506   4.229  2.6030 -2.7884  5.1874
   90MOL0     H12386   1.520   1.465   4.308 -0.7098 -0.0545 -0.9261
   90MOL0     H12387   1.588   1.454   4.145  2.5126  1.2848  1.4095
   90MOL0     H12388   1.610   1.675   4.294  2.0182  0.5098 -1.0629
   90MOL0     H12389   1.447   1.695   4.208  0.1516  0.2268 -0.7051
   90MOL0     H12390   1.579   1.643   3.989  1.1595 -2.4348 -0.4780
   90MOL0     H12391   1.720   1.654   4.072  0.0178 -0.6654 -0.6450
   90MOL0     H12392   1.620   1.864   3.955  0.2381  2.2890 -0.1697
   90MOL0     H12393   1.511   1.880   4.090  0.3895 -2.0669  1.9042
   90MOL0     H12394   1.671   1.924   4.238  0.3396  0.6319  0.1026
   90MOL0     H12395   1.730   2.020   4.096 -1.2851 -0.6580 -2.1335
   90MOL0     H12396   1.877   1.811   4.042  1.6034 -3.6536  1.8008
   90MOL0     H12397   1.868   1.777   4.216  2.9258  0.0303 -0.5319
   90MOL0     H12398   1.967   2.031   4.101 -1.2585  0.9750  0.5517
   90MOL0     H12399   2.070   1.898   4.164  0.4517 -0.5260  0.5939
   90MOL0     H12400   1.307   1.142   4.342 -0.5376 -0.9150  1.7324
   90MOL0     H12401   1.109   1.039   4.382  1.1016 -0.6510 -1.6798
   90MOL0     H12402   0.714   0.848   3.995  1.1920  1.8283  0.5753
   90MOL0     H12403   0.484   0.739   4.005 -2.4195  1.0103  0.9297
   90MOL0     H12404   0.301   0.714   4.475  1.8759  1.5522 -0.8819
   90MOL0     H12405   0.437   0.524   4.602  1.9212 -0.1341  1.3021
   90MOL0     H12406   0.586   0.522   5.151  0.7573 -0.8864  3.7402
   90MOL0     H12407   0.666   0.337   5.303  0.3222  0.9067  0.9070
   90MOL0     H12408   0.900   0.271   5.383  0.8639 -0.7757  0.7591
   90MOL0     H12409   0.761   0.163   5.415  1.6026  0.1078  0.3434
   90MOL0     H12410   0.922  -0.007   5.483 -0.9201  0.9462  1.9703
   90MOL0     H12411   1.011   0.128   5.511 -0.3990  0.5736 -0.2642
   90MOL0     H12412   1.057  -0.026   5.248 -2.9344  1.5281 -2.6313
   90MOL0     H12413   1.092   0.144   5.256 -2.6158  2.1341  1.8539
   90MOL0     H12414   1.210   0.129   5.460  0.6137  2.8713 -3.9091
   90MOL0     H12415   1.283   0.038   5.322 -1.1283 -3.2347 -2.0721
   90MOL0     H12416   1.240  -0.283   5.571 -2.0606 -0.2006  0.0891
   90MOL0     H12417   0.874   0.174   4.966 -2.8678 -1.7453  0.0061
   90MOL0     H12418   0.846   0.460   4.764  0.0932 -0.0107  0.4914
   90MOL0     H12419   0.890   0.293   4.769 -0.5080 -0.6456  0.3226
   90MOL0     H12420   0.715   0.344   4.729 -0.5096  1.9726  0.3773
   91MOL0     O12421  10.775   0.519   2.553  0.2747  0.1677 -0.1809
   91MOL0     C12422  10.866   0.571   2.620  0.4982  0.5323 -0.3768
   91MOL0     O12423  10.993   0.519   2.644  0.5193  0.0910  0.1291
   91MOL0     C12424  11.015   0.399   2.577  0.6624  0.3635  0.5569
   91MOL0     C12425  11.022   0.397   2.438 -0.0288  0.3574 -0.6899
   91MOL0     C12426  11.067   0.279   2.377 -1.2352 -0.0030 -0.0200
   91MOL0     C12427  11.106   0.165   2.445  0.5368  0.5385 -0.1726
   91MOL0     O12428  11.162   0.054   2.386  0.0025  0.7626  0.2798
   91MOL0     C12429  11.263   0.074   2.294  0.7610 -0.7775  1.2164
   91MOL0     C12430  11.335  -0.061   2.263  0.2740  0.9367 -0.6635
   91MOL0     C12431  11.441  -0.065   2.157  0.3003  0.5120  0.4607
   91MOL0     C12432  11.524  -0.195   2.175 -0.2615  1.1265  0.1001
   91MOL0     C12433  11.615  -0.224   2.055  0.1151  0.4824  0.4356
   91MOL0     C12434  11.680  -0.362   2.077 -0.1772 -0.5030  0.7720
   91MOL0     C12435  11.593  -0.485   2.047 -0.1451  0.2475  0.1525
   91MOL0     C12436  11.669  -0.609   2.003 -0.4263 -0.7174 -0.0582
   91MOL0     N12437  11.767  -0.665   2.096  0.0814  0.0940 -0.0139
   91MOL0     C12438  11.887  -0.611   2.148 -0.2973  0.3311  0.6992
   91MOL0     C12439  11.929  -0.696   2.244  0.5729  0.4322 -0.2627
   91MOL0     C12440  12.054  -0.696   2.340  0.6480 -0.3365 -0.2643
   91MOL0     C12441  12.148  -0.804   2.293  0.1148  0.2681 -0.0767
   91MOL0     C12442  12.276  -0.817   2.379  0.3118 -0.0280  0.1458
   91MOL0     C12443  12.355  -0.687   2.379  1.0271  0.2058 -0.1655
   91MOL0     O12444  12.338  -0.620   2.253  0.6394 -0.3011  0.4075
   91MOL0     C12445  12.401  -0.494   2.247  0.0839 -0.1305 -0.9337
   91MOL0     C12446  12.483  -0.437   2.343 -0.2368 -0.0970 -0.0867
   91MOL0     C12447  12.543  -0.310   2.337  0.5721  0.5761 -0.1964
   91MOL0     C12448  12.613  -0.251   2.452 -0.9979  0.2299  0.4661
   91MOL0     C12449  12.526  -0.239   2.217  0.1081  0.3807 -0.0236
   91MOL0     C12450  12.613  -0.128   2.178  0.2041  0.6525 -0.2903
   91MOL0     O12451  12.705  -0.142   2.076  0.3315  0.3394 -0.3392
   91MOL0     C12452  12.834  -0.097   2.090  0.1536  0.5827  0.8057
   91MOL0     C12453  12.891  -0.067   2.211  0.8070 -0.9545  0.2385
   91MOL0     C12454  13.014   0.003   2.215  1.0159 -0.8080 -0.2714
   91MOL0     C12455  13.089   0.023   2.089  0.6073  0.4874 -0.1323
   91MOL0     O12456  13.208   0.095   2.076 -0.3081  0.2747  0.2511
   91MOL0     C12457  13.302   0.091   2.184 -0.6423  0.1930 -0.0137
   91MOL0     C12458  13.436   0.122   2.114 -0.0257  0.4586  0.5531
   91MOL0     C12459  13.471   0.015   2.008  0.0497  0.0900  0.8056
   91MOL0     C12460  13.604   0.041   1.938 -0.3933 -0.2374  0.2027
   91MOL0     C12461  13.627  -0.063   1.828 -0.0579  0.2379 -0.5388
   91MOL0     C12462  13.684  -0.192   1.879 -0.7889  0.0610 -0.2222
   91MOL0     C12463  13.671  -0.308   1.780 -0.1944 -0.1755 -0.7457
   91MOL0     C12464  13.705  -0.445   1.858  0.1200 -0.9868  0.7393
   91MOL0    Cl12465  13.646  -0.585   1.760  0.5578  0.1891  0.1204
   91MOL0     C12466  13.022  -0.012   1.970  0.6254  0.3519 -0.0134
   91MOL0     C12467  12.893  -0.067   1.974 -0.5103 -0.4981  0.0424
   91MOL0     O12468  12.593  -0.031   2.245 -0.1473  0.1303 -0.3970
   91MOL0     C12469  12.449  -0.291   2.116 -0.3007  0.3791  0.1915
   91MOL0     C12470  12.386  -0.416   2.129  0.1607  0.2369  0.5025
   91MOL0     N12471  11.824  -0.787   2.267 -0.3986 -0.2311  0.2666
   91MOL0     N12472  11.722  -0.757   2.185 -0.3008  0.5207  0.4004
   91MOL0     C12473  11.094   0.164   2.582 -0.0719 -0.3295  0.1247
   91MOL0     C12474  11.054   0.284   2.645  0.5754  0.3318  0.8349
   91MOL0     C12475  10.827   0.691   2.687 -0.5038 -0.8973 -1.1300
   91MOL0     C12476  10.898   0.730   2.806 -0.3006  0.7384 -0.3767
   91MOL0     C12477  10.856   0.830   2.892  0.6037 -0.1457 -0.0523
   91MOL0     C12478  10.745   0.907   2.857 -0.6723  0.7810 -0.7414
   91MOL0     O12479  10.709   1.020   2.929 -0.0292  0.3847  0.6254
   91MOL0     C12480  10.745   1.031   3.067 -0.1376 -0.2239  0.4496
   91MOL0     C12481  10.702   1.160   3.127  0.7962 -0.9098 -0.1675
   91MOL0     C12482  10.775   1.174   3.260  0.7999  0.2444 -0.4301
   91MOL0     C12483  10.705   1.290   3.338 -1.5852  0.1917  0.5422
   91MOL0     C12484  10.777   1.306   3.454  0.0558 -0.3173  0.8120
   91MOL0     C12485  10.840   1.348   3.549 -1.0909  0.0253 -0.7293
   91MOL0     C12486  10.670   0.862   2.746 -1.0014 -0.6702 -0.3313
   91MOL0     C12487  10.717   0.771   2.653  0.4978  0.0478 -0.5080
   91MOL0     C12488  10.643   0.765   2.522 -0.2431 -1.2307  0.6896
   91MOL0     H12489  10.995   0.493   2.395 -0.3691 -0.3001 -1.9847
   91MOL0     H12490  11.076   0.273   2.269 -2.7174  2.1213 -0.3277
   91MOL0     H12491  11.337   0.146   2.330  1.9956 -2.3815  1.9653
   91MOL0     H12492  11.217   0.115   2.204  1.8319 -0.5234  0.7695
   91MOL0     H12493  11.370  -0.103   2.357 -1.7456 -3.2511 -1.5599
   91MOL0     H12494  11.248  -0.123   2.238 -2.2517  2.9861  2.2930
   91MOL0     H12495  11.394  -0.060   2.058  0.2646 -3.0637  0.1911
   91MOL0     H12496  11.503   0.023   2.176  0.4983 -0.4205  5.3709
   91MOL0     H12497  11.589  -0.185   2.263  0.0731 -0.6715  0.0867
   91MOL0     H12498  11.455  -0.279   2.189  0.6258  0.3587 -0.0802
   91MOL0     H12499  11.691  -0.149   2.029  1.4787 -1.1593 -0.5634
   91MOL0     H12500  11.553  -0.226   1.965  1.0297 -2.1578 -0.2426
   91MOL0     H12501  11.754  -0.363   1.997 -0.5605  0.9975  0.3570
   91MOL0     H12502  11.733  -0.378   2.171  1.6588  0.3374 -0.0819
   91MOL0     H12503  11.531  -0.449   1.964  1.4870  2.1887 -0.2985
   91MOL0     H12504  11.537  -0.510   2.138  1.1292 -0.7639  0.6954
   91MOL0     H12505  11.604  -0.696   1.989 -0.7757 -0.5041  0.2009
   91MOL0     H12506  11.720  -0.595   1.908 -0.0329  3.3745  0.5695
   91MOL0     H12507  11.945  -0.529   2.106 -1.0571 -1.0817 -3.5672
   91MOL0     H12508  12.014  -0.703   2.441 -2.0006 -0.2633 -1.2342
   91MOL0     H12509  12.096  -0.596   2.327 -2.4878  0.8431 -2.9961
   91MOL0     H12510  12.092  -0.896   2.314 -0.3463  0.6804  0.5263
   91MOL0     H12511  12.170  -0.791   2.187  1.7622  0.4146  0.2505
   91MOL0     H12512  12.252  -0.857   2.478  0.6175  1.3520  0.8049
   91MOL0     H12513  12.335  -0.895   2.331  0.0127  0.1292 -0.4890
   91MOL0     H12514  12.319  -0.627   2.463  3.9431 -1.2122  2.2527
   91MOL0     H12515  12.458  -0.710   2.407  1.1234  1.3341  0.4636
   91MOL0     H12516  12.505  -0.488   2.437  0.3232 -3.7241 -2.0208
   91MOL0     H12517  12.639  -0.329   2.524 -1.6410 -0.0114  0.4485
   91MOL0     H12518  12.547  -0.187   2.512  0.3896 -0.2791  2.6762
   91MOL0     H12519  12.700  -0.200   2.409 -1.6515 -1.1762 -2.8356
   91MOL0     H12520  12.837  -0.087   2.303 -1.4084 -4.8927 -1.6723
   91MOL0     H12521  13.064   0.020   2.309 -1.2991 -0.4143  0.9454
   91MOL0     H12522  13.280   0.164   2.262 -1.6472  0.6665 -0.7173
   91MOL0     H12523  13.316  -0.007   2.231 -1.4215  0.6547  1.2071
   91MOL0     H12524  13.429   0.218   2.061 -1.1486 -1.2147 -2.5777
   91MOL0     H12525  13.509   0.131   2.195  0.1363 -1.9319  0.7263
   91MOL0     H12526  13.389   0.007   1.936 -1.1723  2.5218  1.8203
   91MOL0     H12527  13.483  -0.080   2.062 -1.6034 -1.6378 -1.6780
   91MOL0     H12528  13.686   0.023   2.009 -0.6809 -0.7533  0.4085
   91MOL0     H12529  13.624   0.141   1.898  0.3905 -0.9450 -1.2279
   91MOL0     H12530  13.530  -0.086   1.783  0.7582 -1.8243 -1.3627
   91MOL0     H12531  13.682  -0.025   1.742  0.6065  0.5616  0.0234
   91MOL0     H12532  13.646  -0.220   1.978 -1.2492 -0.9785 -0.6848
   91MOL0     H12533  13.791  -0.170   1.886 -0.9354  0.3528  3.3921
   91MOL0     H12534  13.746  -0.306   1.700  3.0536 -1.5858  2.0379
   91MOL0     H12535  13.568  -0.315   1.744 -0.6681  2.5487 -0.1272
   91MOL0     H12536  13.686  -0.446   1.965 -2.6208 -0.0482  0.3413
   91MOL0     H12537  13.813  -0.458   1.851 -0.2038 -4.4564  0.1418
   91MOL0     H12538  13.066   0.013   1.874  0.0729 -0.1773 -0.4116
   91MOL0     H12539  12.835  -0.082   1.884 -3.9819 -1.3713  2.2289
   91MOL0     H12540  12.448  -0.258   2.012  1.2141 -2.7357 -0.9193
   91MOL0     H12541  12.339  -0.446   2.036 -0.7756  3.5914 -0.2447
   91MOL0     H12542  11.140   0.087   2.644 -0.0193  0.9012  1.6519
   91MOL0     H12543  11.054   0.301   2.752  1.4032  3.2912  0.4540
   91MOL0     H12544  10.984   0.675   2.845  0.7148  2.1585 -0.5562
   91MOL0     H12545  10.921   0.859   2.974  1.9674 -1.9667 -0.4099
   91MOL0     H12546  10.708   0.944   3.121  0.6760 -0.7991  0.1010
   91MOL0     H12547  10.854   1.024   3.075 -0.0233 -0.7261 -1.1143
   91MOL0     H12548  10.593   1.149   3.134  1.0200 -2.2443  2.4653
   91MOL0     H12549  10.716   1.247   3.062  1.0043 -1.0515 -0.3125
   91MOL0     H12550  10.774   1.080   3.316  2.2399  0.7691  0.5360
   91MOL0     H12551  10.880   1.194   3.240  0.9704 -1.4102 -1.3095
   91MOL0     H12552  10.602   1.270   3.369 -0.8248 -1.3920  2.2856
   91MOL0     H12553  10.717   1.379   3.276  1.3900  0.0925  0.7994
   91MOL0     H12554  10.899   1.382   3.631  0.1924 -0.2048 -1.5373
   91MOL0     H12555  10.584   0.924   2.720 -0.7924 -1.1660 -2.2903
   91MOL0     H12556  10.561   0.695   2.545 -0.3728 -1.0077  0.9063
   91MOL0     H12557  10.592   0.855   2.487 -0.1620 -0.9901  1.1913
   91MOL0     H12558  10.690   0.720   2.434 -1.1460 -1.0743  0.1030
   92MOL0     O12559   0.805   6.997   1.215  0.1159 -0.1128  0.3840
   92MOL0     C12560   0.793   6.880   1.174 -0.3819 -0.5471  0.4556
   92MOL0     O12561   0.679   6.814   1.149 -0.7510  0.2381 -0.0780
   92MOL0     C12562   0.575   6.887   1.104  0.5549 -0.1726  0.9617
   92MOL0     C12563   0.582   7.019   1.050  0.3847  0.6747  0.0396
   92MOL0     C12564   0.464   7.090   1.005 -0.5952  0.1440 -0.7520
   92MOL0     C12565   0.339   7.025   1.004  0.2191 -1.4954  1.3120
   92MOL0     O12566   0.241   7.112   0.952 -0.0569  0.4240 -0.2273
   92MOL0     C12567   0.102   7.061   0.960 -0.2404 -0.4926  0.0446
   92MOL0     C12568   0.063   6.970   0.837 -0.6670 -0.1237 -0.0639
   92MOL0     C12569  -0.087   6.921   0.840  0.6599 -0.5096 -0.3700
   92MOL0     C12570  -0.131   6.864   0.979 -0.1233  0.1637  0.5822
   92MOL0     C12571  -0.264   6.785   0.983 -0.6972 -0.3048 -0.3785
   92MOL0     C12572  -0.385   6.828   0.898 -0.5506  0.6000 -0.1735
   92MOL0     C12573  -0.514   6.785   0.962  0.0004 -0.1104 -1.3165
   92MOL0     C12574  -0.627   6.807   0.879 -0.9386  1.1715 -0.2866
   92MOL0     N12575  -0.748   6.729   0.919 -0.4729 -0.8335 -0.1526
   92MOL0     C12576  -0.775   6.601   0.876  0.2129  0.4119 -0.4625
   92MOL0     C12577  -0.866   6.542   0.968 -0.5913 -0.2499 -0.2949
   92MOL0     C12578  -0.919   6.403   0.981  0.9516  0.2753 -0.3051
   92MOL0     C12579  -0.985   6.350   0.851 -0.0843  0.1324  0.1664
   92MOL0     C12580  -1.100   6.260   0.878  0.1119  0.5199 -0.1202
   92MOL0     C12581  -1.076   6.147   0.981 -0.1365  0.0009 -0.1738
   92MOL0     O12582  -1.095   6.192   1.115  0.2885  0.0370  0.0965
   92MOL0     C12583  -1.216   6.208   1.174  0.5352 -0.4725 -0.7747
   92MOL0     C12584  -1.338   6.201   1.110  0.8459  0.2176  0.4608
   92MOL0     C12585  -1.459   6.213   1.174 -0.3402  0.0974  0.0823
   92MOL0     C12586  -1.575   6.215   1.081 -0.4802 -0.3480  0.9314
   92MOL0     C12587  -1.469   6.238   1.311  0.0853  0.5089 -1.0560
   92MOL0     C12588  -1.603   6.245   1.388 -0.2169 -0.0002  0.1392
   92MOL0     O12589  -1.598   6.301   1.516  0.3742  0.3069 -0.0735
   92MOL0     C12590  -1.721   6.335   1.577 -0.6738  0.3889 -0.0077
   92MOL0     C12591  -1.699   6.453   1.648 -0.2663  0.9338  0.1250
   92MOL0     C12592  -1.805   6.510   1.722 -0.7296  0.2212  0.5753
   92MOL0     C12593  -1.926   6.449   1.722 -0.3658 -0.3417  0.1104
   92MOL0     O12594  -2.033   6.501   1.794  0.7438  0.0842 -0.1707
   92MOL0     C12595  -2.035   6.636   1.842 -0.1460 -0.0434 -0.8809
   92MOL0     C12596  -2.028   6.739   1.729 -0.1496 -0.0597  0.2025
   92MOL0     C12597  -2.158   6.744   1.650  0.5348 -0.9556 -0.3333
   92MOL0     C12598  -2.155   6.841   1.531 -0.6420 -0.0217 -0.4720
   92MOL0     C12599  -2.288   6.844   1.453 -0.2176 -0.4059  0.1905
   92MOL0     C12600  -2.271   6.905   1.315 -0.3828 -0.1142  0.0273
   92MOL0     C12601  -2.238   7.058   1.301  0.0848 -0.3803 -0.1854
   92MOL0     C12602  -2.141   7.080   1.190 -0.8222  0.0945  0.7639
   92MOL0    Cl12603  -1.976   7.028   1.245 -0.2595 -0.2024  0.3625
   92MOL0     C12604  -1.949   6.326   1.654 -0.0962  0.3677  0.2267
   92MOL0     C12605  -1.847   6.272   1.579 -1.3778  0.2675  0.4952
   92MOL0     O12606  -1.713   6.200   1.343 -0.1879 -0.3383  0.8383
   92MOL0     C12607  -1.341   6.253   1.382  0.3555 -0.6799 -0.0126
   92MOL0     C12608  -1.221   6.242   1.308  0.1432  0.8547  0.3970
   92MOL0     N12609  -0.890   6.641   1.060  0.3300  0.3140  0.0834
   92MOL0     N12610  -0.820   6.750   1.032  1.4612  0.7093  0.8942
   92MOL0     C12611   0.325   6.902   1.069 -0.3476  0.4572 -0.2815
   92MOL0     C12612   0.443   6.834   1.106 -0.3135  0.3504  0.1182
   92MOL0     C12613   0.909   6.785   1.155  0.2673  0.0618  0.1549
   92MOL0     C12614   0.883   6.644   1.181  0.6267 -0.2262 -0.1033
   92MOL0     C12615   0.976   6.545   1.188 -0.5496 -0.0356  0.8065
   92MOL0     C12616   1.106   6.580   1.156  0.0541 -0.3157  0.1305
   92MOL0     O12617   1.203   6.480   1.152  0.3117  0.5000  0.1154
   92MOL0     C12618   1.346   6.513   1.127 -0.2388 -0.0116 -0.7444
   92MOL0     C12619   1.414   6.567   1.257  0.1259 -0.0453 -0.1474
   92MOL0     C12620   1.567   6.575   1.232 -0.2427  0.8406 -0.9223
   92MOL0     C12621   1.629   6.636   1.364  0.7869 -1.3770  0.7415
   92MOL0     C12622   1.771   6.651   1.332 -0.1886  0.4808  0.7444
   92MOL0     C12623   1.891   6.644   1.294  0.1973 -0.4293  0.0960
   92MOL0     C12624   1.132   6.720   1.152  0.5727  0.3268 -0.3289
   92MOL0     C12625   1.041   6.822   1.140  0.1194 -0.8541 -0.1295
   92MOL0     C12626   1.089   6.964   1.110  0.3147 -0.0377 -0.3183
   92MOL0     H12627   0.670   7.082   1.039  1.3008 -0.3290  1.2759
   92MOL0     H12628   0.476   7.190   0.965  3.8749 -0.1294 -0.6689
   92MOL0     H12629   0.038   7.149   0.951  0.1178 -0.2777 -0.4885
   92MOL0     H12630   0.080   7.016   1.057 -2.1562  1.1515  0.4430
   92MOL0     H12631   0.070   7.021   0.740 -1.7457  1.2220  0.5396
   92MOL0     H12632   0.125   6.880   0.833  0.4864  0.6491 -0.0008
   92MOL0     H12633  -0.154   7.006   0.822  0.1316 -0.8021  0.2047
   92MOL0     H12634  -0.096   6.846   0.761 -0.5382 -0.9218  0.1317
   92MOL0     H12635  -0.043   6.807   1.014 -0.4180  1.1002  3.0913
   92MOL0     H12636  -0.142   6.945   1.051  0.4335  0.6354  0.1442
   92MOL0     H12637  -0.284   6.762   1.089  1.6864 -0.5422  0.0752
   92MOL0     H12638  -0.238   6.693   0.931  2.7774  1.0436 -1.3243
   92MOL0     H12639  -0.387   6.938   0.895 -2.8845  0.6317  0.3454
   92MOL0     H12640  -0.375   6.786   0.798  0.9389 -0.0694  0.2326
   92MOL0     H12641  -0.533   6.855   1.045  0.1364 -0.2163 -1.1957
   92MOL0     H12642  -0.503   6.681   0.995  1.3098 -0.1418 -1.7994
   92MOL0     H12643  -0.643   6.915   0.879 -1.3403  1.1247 -1.3449
   92MOL0     H12644  -0.611   6.774   0.776  0.4114  1.7343 -0.2652
   92MOL0     H12645  -0.724   6.545   0.798  1.5185 -3.4354  2.8186
   92MOL0     H12646  -0.996   6.408   1.058  0.1972  2.4071 -1.1196
   92MOL0     H12647  -0.839   6.334   1.011  1.9949  0.5962 -2.1562
   92MOL0     H12648  -1.019   6.432   0.786 -0.9389 -1.3740 -1.3704
   92MOL0     H12649  -0.901   6.296   0.805 -0.0609 -0.1870  0.5810
   92MOL0     H12650  -1.184   6.318   0.917  1.5213  1.0103  2.3486
   92MOL0     H12651  -1.118   6.213   0.781  0.2760  0.6438 -0.2118
   92MOL0     H12652  -1.147   6.065   0.968 -1.2558  1.2212 -2.5168
   92MOL0     H12653  -0.978   6.101   0.971 -0.9663 -1.9792  0.3357
   92MOL0     H12654  -1.314   6.189   1.005  3.1428 -1.2285  1.0804
   92MOL0     H12655  -1.605   6.317   1.055  0.5891 -0.7641 -2.3363
   92MOL0     H12656  -1.656   6.156   1.126 -0.5193 -0.7593  0.3299
   92MOL0     H12657  -1.552   6.159   0.990 -1.1645 -0.5442  0.8743
   92MOL0     H12658  -1.605   6.505   1.634 -0.7040  1.6071 -0.4101
   92MOL0     H12659  -1.784   6.603   1.774  1.0911  0.4136 -0.4135
   92MOL0     H12660  -2.125   6.640   1.903  0.8906 -1.0586  0.7833
   92MOL0     H12661  -1.955   6.651   1.915  1.7438 -3.3502 -2.0525
   92MOL0     H12662  -2.000   6.839   1.765 -3.8550  1.4395 -0.5230
   92MOL0     H12663  -1.947   6.719   1.658  1.5178 -0.5384  2.1387
   92MOL0     H12664  -2.236   6.765   1.723  0.5522 -0.5014 -0.4463
   92MOL0     H12665  -2.170   6.641   1.614 -0.6448 -1.5207  1.4929
   92MOL0     H12666  -2.074   6.813   1.462  0.8040  2.6589  0.0001
   92MOL0     H12667  -2.129   6.941   1.565 -0.3021  0.2959 -1.6074
   92MOL0     H12668  -2.336   6.745   1.450 -1.0643 -0.0390  1.1228
   92MOL0     H12669  -2.365   6.905   1.501  1.4464  1.0982  1.0455
   92MOL0     H12670  -2.359   6.892   1.251 -1.0357  3.6200 -0.0973
   92MOL0     H12671  -2.192   6.845   1.270 -1.5095 -2.0568  0.5333
   92MOL0     H12672  -2.190   7.089   1.394 -0.5070  0.9882 -0.3199
   92MOL0     H12673  -2.326   7.122   1.297 -0.7771 -1.6088 -1.6007
   92MOL0     H12674  -2.132   7.185   1.160  2.0529 -0.7778 -2.0348
   92MOL0     H12675  -2.184   7.034   1.100  1.8924 -0.0423 -0.5582
   92MOL0     H12676  -2.048   6.287   1.635  0.0985 -0.1589  0.2866
   92MOL0     H12677  -1.871   6.184   1.520 -0.6232  1.2617 -1.3949
   92MOL0     H12678  -1.335   6.273   1.488  1.6155 -1.3844  0.0694
   92MOL0     H12679  -1.130   6.263   1.364  0.5274 -0.3517  0.2404
   92MOL0     H12680   0.230   6.852   1.081 -0.8528  1.9882  3.3922
   92MOL0     H12681   0.430   6.745   1.168 -0.8242  1.6757  1.9966
   92MOL0     H12682   0.790   6.589   1.189  1.1705 -1.6583 -2.5129
   92MOL0     H12683   0.940   6.445   1.209  0.0312 -0.0029  2.0556
   92MOL0     H12684   1.401   6.422   1.101 -0.1255 -0.2199  0.1875
   92MOL0     H12685   1.355   6.588   1.048  1.6981  0.3332 -0.2520
   92MOL0     H12686   1.392   6.494   1.335 -0.8001  1.1522  0.7332
   92MOL0     H12687   1.376   6.665   1.285 -0.2434 -1.1685  3.8644
   92MOL0     H12688   1.606   6.474   1.215  1.3384  1.9490 -5.1272
   92MOL0     H12689   1.596   6.641   1.150  1.8529  2.5457  1.0566
   92MOL0     H12690   1.602   6.576   1.451  1.7555 -2.0610  0.5815
   92MOL0     H12691   1.597   6.740   1.378  0.0558 -1.1559 -2.0203
   92MOL0     H12692   1.987   6.662   1.248  0.0502  1.2465  0.3849
   92MOL0     H12693   1.235   6.754   1.145  1.0818 -0.9469  0.6127
   92MOL0     H12694   1.119   6.995   1.211 -3.3180  1.9017  0.3568
   92MOL0     H12695   1.171   6.962   1.038 -0.4704  0.5549 -1.2557
   92MOL0     H12696   1.015   7.036   1.075  4.2688  3.3331 -2.7136
   93MOL0     O12697   3.114   0.111  10.330 -0.4267 -1.0999  0.6692
   93MOL0     C12698   3.148   0.009  10.268 -0.2076 -0.1296 -0.3835
   93MOL0     O12699   3.255   0.009  10.184  0.0534 -0.1218 -0.6140
   93MOL0     C12700   3.344   0.112  10.159 -0.9142 -0.2137  0.4506
   93MOL0     C12701   3.421   0.093  10.049 -0.6085 -0.7444  0.7800
   93MOL0     C12702   3.513   0.195  10.004 -0.1097  1.1931 -0.4243
   93MOL0     C12703   3.523   0.312  10.078  0.5901  0.0664 -1.3261
   93MOL0     O12704   3.619   0.398  10.024 -0.2320 -0.6076  0.7323
   93MOL0     C12705   3.667   0.507  10.108  0.5581 -0.8640  0.0989
   93MOL0     C12706   3.820   0.544  10.078  0.2738  0.0279  0.0676
   93MOL0     C12707   3.829   0.591   9.934 -0.7068  0.5998  0.6529
   93MOL0     C12708   3.976   0.594   9.893 -0.9693 -0.0233 -0.0345
   93MOL0     C12709   3.989   0.662   9.753  0.2386  0.0495 -0.0035
   93MOL0     C12710   4.138   0.643   9.709 -0.2043 -0.3376 -0.2122
   93MOL0     C12711   4.179   0.715   9.574  1.2601 -0.2069 -0.3457
   93MOL0     C12712   4.198   0.870   9.580  1.0949  0.1572 -0.2557
   93MOL0     N12713   4.338   0.900   9.569  0.1125 -0.4203  0.4407
   93MOL0     C12714   4.416   0.895   9.458  1.5930 -0.6704  0.0160
   93MOL0     C12715   4.550   0.921   9.498 -0.1713 -0.3386  0.6855
   93MOL0     C12716   4.666   0.955   9.415 -0.3420  0.3448  0.3105
   93MOL0     C12717   4.746   0.845   9.365 -0.5919 -0.0592  0.3632
   93MOL0     C12718   4.861   0.878   9.270  0.4193 -0.1576 -0.0040
   93MOL0     C12719   4.948   0.753   9.242  0.0304  0.3638 -0.0793
   93MOL0     O12720   5.024   0.777   9.118  0.0135  0.0953 -0.4743
   93MOL0     C12721   5.142   0.839   9.099 -0.1035  0.0414 -0.7878
   93MOL0     C12722   5.152   0.897   8.980 -0.3966 -0.5667 -0.7280
   93MOL0     C12723   5.265   0.959   8.930  0.5053 -0.2669  0.2820
   93MOL0     C12724   5.265   1.011   8.788  0.3564  0.2438 -0.7708
   93MOL0     C12725   5.377   0.960   9.013  0.3925  0.7402  0.5017
   93MOL0     C12726   5.510   1.001   8.964  0.0133 -0.8681 -1.0208
   93MOL0     O12727   5.548   0.999   8.831 -0.2979 -0.0066  0.1944
   93MOL0     C12728   5.668   1.035   8.790 -0.7269 -0.0423  0.0817
   93MOL0     C12729   5.684   1.131   8.690 -0.2756  0.1967  0.3434
   93MOL0     C12730   5.810   1.193   8.662  0.8920 -0.7111 -0.1480
   93MOL0     C12731   5.930   1.154   8.724  0.7223 -0.2181 -0.0975
   93MOL0     O12732   6.049   1.222   8.694 -0.0804  0.3438 -0.7391
   93MOL0     C12733   6.164   1.138   8.675 -0.1980  0.5610  0.7901
   93MOL0     C12734   6.142   1.017   8.572  0.5270  0.2785 -0.8192
   93MOL0     C12735   6.136   1.078   8.431 -0.1861  0.1035  0.7732
   93MOL0     C12736   6.154   0.970   8.320  0.0365  0.0440  1.1842
   93MOL0     C12737   6.143   1.022   8.176 -0.3141 -0.7191 -0.1036
   93MOL0     C12738   6.016   0.974   8.102 -0.5590  0.3563 -0.9311
   93MOL0     C12739   5.876   0.985   8.159 -0.3490 -0.8283  0.0808
   93MOL0     C12740   5.777   0.925   8.051  0.7431 -0.1556 -0.0820
   93MOL0    Cl12741   5.608   0.936   8.111  0.1407  0.1792 -0.6552
   93MOL0     C12742   5.909   1.055   8.820  0.6110  0.1396 -0.1917
   93MOL0     C12743   5.781   0.997   8.857  0.7277 -0.3026  0.0292
   93MOL0     O12744   5.578   1.042   9.062 -0.4139 -0.4236  0.4129
   93MOL0     C12745   5.368   0.895   9.146  0.8602  0.2226 -0.0790
   93MOL0     C12746   5.248   0.841   9.184  0.2744 -0.4348  0.1717
   93MOL0     N12747   4.546   0.950   9.638  0.2566  0.1144  0.1496
   93MOL0     N12748   4.419   0.932   9.670 -0.4154 -0.8698 -0.1805
   93MOL0     C12749   3.444   0.331  10.189 -0.3037 -0.2639 -0.1000
   93MOL0     C12750   3.352   0.233  10.233 -0.5047 -0.2895  0.4422
   93MOL0     C12751   3.076  -0.121  10.296 -0.7272  0.2179 -0.0742
   93MOL0     C12752   3.120  -0.232  10.219  0.0574  0.0138 -0.4725
   93MOL0     C12753   3.067  -0.361  10.238 -0.8869  0.0521 -0.3477
   93MOL0     C12754   2.967  -0.381  10.331  0.2593 -0.2747  0.6201
   93MOL0     O12755   2.894  -0.494  10.337 -0.5803  0.6764  1.0009
   93MOL0     C12756   2.908  -0.564  10.459 -0.1910 -0.0103 -0.1878
   93MOL0     C12757   2.887  -0.718  10.457  0.8125 -0.3542 -0.3036
   93MOL0     C12758   2.761  -0.769  10.383 -0.0670 -0.0542 -0.5849
   93MOL0     C12759   2.804  -0.885  10.291 -0.6090  0.0480 -0.4508
   93MOL0     C12760   2.836  -1.013  10.352  0.1802  0.0094  0.4357
   93MOL0     C12761   2.862  -1.120  10.397  0.0598  1.2084 -0.7219
   93MOL0     C12762   2.915  -0.276  10.401  0.8937  0.6053 -0.5143
   93MOL0     C12763   2.976  -0.147  10.393  1.0794 -0.4754  0.3378
   93MOL0     C12764   2.915  -0.046  10.483 -0.5846 -1.1141  0.1546
   93MOL0     H12765   3.413   0.009   9.981  0.5389 -3.2898  3.5797
   93MOL0     H12766   3.575   0.181   9.916 -0.4916 -0.2403 -0.4859
   93MOL0     H12767   3.655   0.484  10.214  1.4678 -2.0652 -0.0491
   93MOL0     H12768   3.605   0.597  10.098 -1.2962 -1.8609  1.8986
   93MOL0     H12769   3.838   0.628  10.146 -0.4575  0.5046 -0.3253
   93MOL0     H12770   3.885   0.461  10.107  3.5449  1.7621 -1.6658
   93MOL0     H12771   3.767   0.525   9.873 -0.8111  0.0611  1.3314
   93MOL0     H12772   3.793   0.693   9.924  2.8742  2.2624  2.7137
   93MOL0     H12773   4.024   0.660   9.966  0.1349 -0.1534 -0.6255
   93MOL0     H12774   4.014   0.492   9.897 -2.5291 -0.5903  2.5703
   93MOL0     H12775   3.963   0.769   9.755 -0.4406 -0.0726 -1.0641
   93MOL0     H12776   3.920   0.608   9.687 -0.3772 -3.1195  2.9806
   93MOL0     H12777   4.212   0.666   9.787  1.8386 -2.0457 -1.5223
   93MOL0     H12778   4.159   0.542   9.672  4.2325  0.0864  0.5173
   93MOL0     H12779   4.104   0.689   9.499 -0.8137  3.2297  0.3246
   93MOL0     H12780   4.280   0.683   9.546  2.8276  2.1937  2.1415
   93MOL0     H12781   4.149   0.925   9.499 -0.1125 -0.3366  0.1207
   93MOL0     H12782   4.167   0.897   9.682 -4.3702 -0.5332 -1.4267
   93MOL0     H12783   4.375   0.867   9.361  0.1869 -0.5224  0.5441
   93MOL0     H12784   4.725   1.036   9.458 -3.0973  3.8890 -1.9351
   93MOL0     H12785   4.630   1.007   9.325 -1.2999 -1.1302 -0.1970
   93MOL0     H12786   4.784   0.797   9.455 -0.7566 -1.9028 -0.4924
   93MOL0     H12787   4.694   0.767   9.308  0.0432  0.5584 -1.1031
   93MOL0     H12788   4.826   0.915   9.173 -1.2462 -2.8502 -0.5346
   93MOL0     H12789   4.926   0.950   9.321 -1.3878  0.2658  1.8460
   93MOL0     H12790   4.999   0.734   9.337 -0.4421 -0.6169 -0.0173
   93MOL0     H12791   4.890   0.663   9.223 -0.2923  0.3016  1.1661
   93MOL0     H12792   5.073   0.902   8.906 -0.3546 -0.4260 -0.7632
   93MOL0     H12793   5.324   1.100   8.763 -1.8983  1.7559 -0.9446
   93MOL0     H12794   5.164   1.039   8.758  0.6002  0.5666 -1.3076
   93MOL0     H12795   5.304   0.923   8.734  0.0782 -1.0554  1.0385
   93MOL0     H12796   5.599   1.158   8.627  1.0714  1.6212 -0.9575
   93MOL0     H12797   5.808   1.275   8.590  0.1181 -0.7434 -0.1651
   93MOL0     H12798   6.246   1.196   8.631 -1.4659  3.2406  1.7334
   93MOL0     H12799   6.195   1.102   8.774 -1.5190  1.9525  1.7599
   93MOL0     H12800   6.215   0.939   8.592 -1.8880 -1.6789  1.0331
   93MOL0     H12801   6.047   0.964   8.585  0.6727  0.3645  0.8570
   93MOL0     H12802   6.221   1.145   8.416  1.4371 -1.6506  1.7054
   93MOL0     H12803   6.046   1.139   8.421  0.4667  1.2425  1.4795
   93MOL0     H12804   6.097   0.879   8.340 -0.7161  0.5330  1.2776
   93MOL0     H12805   6.257   0.933   8.327  0.0654  0.1652  1.3953
   93MOL0     H12806   6.131   1.130   8.189  0.0853 -0.8902  2.0373
   93MOL0     H12807   6.237   0.998   8.126  0.5082 -1.1191  1.5576
   93MOL0     H12808   6.035   0.867   8.087  0.8944  0.0501  2.2170
   93MOL0     H12809   6.011   1.032   8.009  0.1916 -0.0381 -1.2299
   93MOL0     H12810   5.850   1.090   8.171 -2.0949 -1.0124 -1.5075
   93MOL0     H12811   5.879   0.929   8.253 -1.3269  0.6394  1.0269
   93MOL0     H12812   5.801   0.821   8.027 -0.8691  0.0674 -3.1348
   93MOL0     H12813   5.792   0.989   7.964 -1.2169  3.8540  2.2427
   93MOL0     H12814   5.995   1.011   8.870 -0.4560 -0.7543  0.9290
   93MOL0     H12815   5.775   0.917   8.930  0.2443  0.3226  0.6894
   93MOL0     H12816   5.459   0.898   9.205  0.1837 -2.3955  1.2239
   93MOL0     H12817   5.235   0.788   9.278 -0.4968  0.6341  0.6907
   93MOL0     H12818   3.436   0.422  10.248 -1.6098  0.5464 -1.4310
   93MOL0     H12819   3.295   0.277  10.314  0.2405  4.2122 -1.1852
   93MOL0     H12820   3.199  -0.239  10.144 -0.4585 -3.4938 -0.8854
   93MOL0     H12821   3.108  -0.439  10.175 -0.9915 -0.1889 -0.1182
   93MOL0     H12822   3.002  -0.538  10.509 -1.1458 -1.4541  2.5415
   93MOL0     H12823   2.830  -0.513  10.516  1.1455  1.1060  0.7059
   93MOL0     H12824   2.881  -0.746  10.562  1.0078  1.6316  0.2867
   93MOL0     H12825   2.979  -0.759  10.414  3.1643  1.3214  2.7341
   93MOL0     H12826   2.688  -0.813  10.452 -1.8661  0.4153 -2.0849
   93MOL0     H12827   2.711  -0.687  10.330 -1.6160  0.1050  1.0185
   93MOL0     H12828   2.887  -0.846  10.232 -0.4871  1.2687  0.4935
   93MOL0     H12829   2.724  -0.910  10.220 -0.3864 -0.8161 -0.4136
   93MOL0     H12830   2.903  -1.213  10.432  1.7015  3.0950  2.8935
   93MOL0     H12831   2.830  -0.290  10.467 -1.0596  2.6305 -2.4211
   93MOL0     H12832   2.856   0.026  10.425  2.4795  3.2864  1.9329
   93MOL0     H12833   2.848  -0.094  10.556 -0.0515  1.3601  2.4376
   93MOL0     H12834   2.986   0.024  10.529 -2.0511 -0.4337  1.5004
   94MOL0     O12835   2.233  10.750   7.756  0.1499  0.0970 -0.0484
   94MOL0     C12836   2.228  10.856   7.694 -0.5572 -0.0283  0.0978
   94MOL0     O12837   2.111  10.925   7.652 -0.3479  0.1833  0.5887
   94MOL0     C12838   2.010  10.837   7.607  0.3029  0.0960  0.5839
   94MOL0     C12839   1.990  10.836   7.465 -0.7354  0.7543  0.4910
   94MOL0     C12840   1.904  10.739   7.405 -0.1109 -0.8061  0.1228
   94MOL0     C12841   1.832  10.646   7.481 -0.2129  0.5987  1.0541
   94MOL0     O12842   1.780  10.538   7.412  0.1888 -0.1149 -0.3175
   94MOL0     C12843   1.811  10.409   7.460  0.2654  0.2948 -0.5196
   94MOL0     C12844   1.827  10.308   7.342 -0.4181 -0.8128  0.0407
   94MOL0     C12845   1.856  10.165   7.391  0.2671  0.1501  0.0499
   94MOL0     C12846   1.896  10.067   7.273 -0.0162 -0.7518 -0.4635
   94MOL0     C12847   1.779  10.029   7.193 -0.3439  1.0565  0.3691
   94MOL0     C12848   1.825   9.934   7.093  0.4557 -0.4079  0.0680
   94MOL0     C12849   1.701   9.874   7.019 -0.1495 -1.0008 -0.2123
   94MOL0     C12850   1.638   9.970   6.919  0.9705 -0.0043 -0.4411
   94MOL0     N12851   1.530   9.907   6.846  0.6667 -0.7544  0.1816
   94MOL0     C12852   1.406   9.876   6.887 -0.2909  0.2358 -0.8325
   94MOL0     C12853   1.341   9.851   6.773 -0.7913 -0.0472  0.0988
   94MOL0     C12854   1.206   9.810   6.759  0.0023 -0.0146  0.3661
   94MOL0     C12855   1.161   9.780   6.618  0.2502  0.4029  0.2416
   94MOL0     C12856   1.008   9.780   6.593 -0.3764  0.4265  0.4302
   94MOL0     C12857   0.958   9.921   6.597 -0.3509  0.1997 -0.3037
   94MOL0     O12858   0.833   9.921   6.547  0.5627 -0.9024  0.3081
   94MOL0     C12859   0.759  10.034   6.542  0.2741  0.1021  0.1875
   94MOL0     C12860   0.613  10.025   6.513 -0.7682  0.0947  0.2820
   94MOL0     C12861   0.543  10.143   6.518  0.8473  0.3089 -0.4150
   94MOL0     C12862   0.394  10.131   6.484 -0.7715 -0.1682 -1.3204
   94MOL0     C12863   0.594  10.266   6.552  0.1711  0.3468  0.0059
   94MOL0     C12864   0.508  10.389   6.586  0.2085 -0.0187  0.2325
   94MOL0     O12865   0.576  10.512   6.599 -0.5249 -0.0808 -0.7644
   94MOL0     C12866   0.492  10.616   6.634  1.0531 -0.2546  0.5985
   94MOL0     C12867   0.495  10.734   6.561 -0.8972  0.1152 -0.5695
   94MOL0     C12868   0.414  10.847   6.585 -0.6190 -0.0192 -0.2126
   94MOL0     C12869   0.330  10.849   6.697 -0.5750 -0.0755  0.0282
   94MOL0     O12870   0.241  10.949   6.725  0.1327 -0.0152 -0.2156
   94MOL0     C12871   0.137  10.922   6.825 -0.6564 -0.2562  0.1908
   94MOL0     C12872   0.081  11.050   6.872  0.4442 -0.6042  0.1839
   94MOL0     C12873   0.183  11.107   6.983 -0.4394 -0.1130 -0.8922
   94MOL0     C12874   0.127  11.244   7.035  0.7931 -0.4560  0.2603
   94MOL0     C12875   0.236  11.325   7.109 -0.4074 -0.8072 -0.4653
   94MOL0     C12876   0.174  11.451   7.184  0.8772  0.1789 -0.5383
   94MOL0     C12877   0.268  11.550   7.257  0.5738 -1.1916  0.0518
   94MOL0     C12878   0.181  11.638   7.353 -0.8186 -0.1584  0.1057
   94MOL0    Cl12879   0.274  11.763   7.463  0.2361  0.1931 -0.5384
   94MOL0     C12880   0.326  10.726   6.770  0.3351 -0.7579 -0.8741
   94MOL0     C12881   0.395  10.612   6.738 -0.4650 -0.3291 -0.2748
   94MOL0     O12882   0.384  10.379   6.581 -0.2800  0.0097 -0.3976
   94MOL0     C12883   0.738  10.272   6.569 -0.3527  0.1621  0.0784
   94MOL0     C12884   0.815  10.159   6.567 -0.5859  0.3513  0.8451
   94MOL0     N12885   1.436   9.849   6.671  0.4391 -0.3846 -0.3443
   94MOL0     N12886   1.547   9.890   6.709 -0.4863  0.2539 -0.1384
   94MOL0     C12887   1.853  10.652   7.617 -0.3420  0.4290  0.8677
   94MOL0     C12888   1.932  10.744   7.679 -0.2376  0.9056  0.7192
   94MOL0     C12889   2.351  10.933   7.702 -0.6872 -0.1708 -0.1979
   94MOL0     C12890   2.350  11.073   7.724 -0.8155  0.0971 -0.1613
   94MOL0     C12891   2.468  11.146   7.747 -0.0667 -0.1569 -0.1304
   94MOL0     C12892   2.592  11.085   7.747 -0.0029 -0.6650 -0.5446
   94MOL0     O12893   2.698  11.158   7.788  0.3121 -0.3152  0.3735
   94MOL0     C12894   2.723  11.154   7.927  0.2241  0.3761 -1.3533
   94MOL0     C12895   2.757  11.297   7.987 -0.5084  1.1071  0.2859
   94MOL0     C12896   2.643  11.399   7.987 -0.4164  0.2680  0.5113
   94MOL0     C12897   2.549  11.372   8.096 -1.1194 -0.6314  0.3505
   94MOL0     C12898   2.437  11.288   8.069  0.2897  0.6480 -0.4762
   94MOL0     C12899   2.340  11.224   8.043  0.3669 -0.1728  0.1876
   94MOL0     C12900   2.599  10.947   7.733 -0.7431 -0.0007  0.9192
   94MOL0     C12901   2.483  10.872   7.701  0.8253  0.0479  0.2379
   94MOL0     C12902   2.496  10.722   7.662  1.2130 -0.0691  0.3003
   94MOL0     H12903   2.050  10.904   7.405 -0.2769 -1.5226 -1.8683
   94MOL0     H12904   1.893  10.749   7.298 -1.9106 -0.0053  0.3421
   94MOL0     H12905   1.726  10.373   7.519 -0.0117  2.7409  0.7198
   94MOL0     H12906   1.901  10.408   7.521 -0.5930  0.2684  0.7866
   94MOL0     H12907   1.743  10.316   7.272  1.6854  0.0684 -2.5468
   94MOL0     H12908   1.910  10.336   7.276  0.5872 -2.2533  0.6326
   94MOL0     H12909   1.923  10.175   7.477 -0.2223 -0.0234  0.4665
   94MOL0     H12910   1.769  10.124   7.444 -0.8539  2.8327  0.4370
   94MOL0     H12911   1.968  10.110   7.202 -2.0778  1.5975 -1.2943
   94MOL0     H12912   1.926   9.975   7.323  0.7650  1.2586  3.1914
   94MOL0     H12913   1.745  10.116   7.136 -0.9606  1.9120  1.9959
   94MOL0     H12914   1.702   9.989   7.258 -0.5640  2.4677  1.0128
   94MOL0     H12915   1.908   9.970   7.031  0.9308 -2.5208 -0.6177
   94MOL0     H12916   1.861   9.844   7.145 -0.7976 -0.7988  0.2814
   94MOL0     H12917   1.619   9.853   7.088  0.7952 -0.5433  1.0892
   94MOL0     H12918   1.718   9.776   6.975  2.9054 -0.0762 -1.4220
   94MOL0     H12919   1.596  10.050   6.980 -0.3442  1.0123 -2.5387
   94MOL0     H12920   1.697  10.024   6.844 -1.9334 -0.0120 -2.9504
   94MOL0     H12921   1.361   9.880   6.985  1.0765 -2.0604 -0.0187
   94MOL0     H12922   1.137   9.878   6.811 -0.9805  0.0027 -0.9076
   94MOL0     H12923   1.204   9.725   6.828  0.0586 -1.5451 -1.4738
   94MOL0     H12924   1.216   9.837   6.543  0.7025  2.2303  1.8688
   94MOL0     H12925   1.202   9.681   6.599  0.1702  0.8833 -2.9616
   94MOL0     H12926   0.990   9.734   6.496  0.6794  1.8292 -0.4690
   94MOL0     H12927   0.955   9.716   6.665 -2.5504  0.6878 -0.8457
   94MOL0     H12928   0.959   9.963   6.698  0.7003  0.7478 -0.5297
   94MOL0     H12929   1.027   9.982   6.538 -1.4930  0.7844 -1.0837
   94MOL0     H12930   0.572   9.930   6.480 -1.5456  0.6489 -0.3489
   94MOL0     H12931   0.340  10.141   6.578  1.1858  1.9158 -0.3145
   94MOL0     H12932   0.380  10.027   6.454  0.6963 -0.5370 -0.7864
   94MOL0     H12933   0.363  10.195   6.400  0.3360 -0.5605 -2.0508
   94MOL0     H12934   0.570  10.734   6.482 -0.1927 -2.3589 -0.0019
   94MOL0     H12935   0.428  10.937   6.524 -0.8495  1.3892  1.7321
   94MOL0     H12936   0.054  10.861   6.787 -0.3266 -1.1087  0.8028
   94MOL0     H12937   0.187  10.877   6.911  0.5912  1.6878  0.5382
   94MOL0     H12938   0.074  11.128   6.796 -1.3039  1.1873  2.0400
   94MOL0     H12939  -0.021  11.039   6.911 -0.5440 -1.2010 -2.4043
   94MOL0     H12940   0.282  11.121   6.940 -0.4323 -2.8751 -1.9469
   94MOL0     H12941   0.192  11.042   7.070 -1.0519 -0.4426 -1.0671
   94MOL0     H12942   0.038  11.216   7.092 -1.2700  2.2722 -1.3591
   94MOL0     H12943   0.101  11.319   6.960 -0.2517 -0.4056  0.6559
   94MOL0     H12944   0.286  11.258   7.180  1.6713 -1.7411 -2.6629
   94MOL0     H12945   0.316  11.356   7.042 -0.1480 -2.6035 -1.0534
   94MOL0     H12946   0.111  11.410   7.264 -0.6976  0.5817 -1.5240
   94MOL0     H12947   0.119  11.515   7.115  0.8312 -0.3990 -1.0518
   94MOL0     H12948   0.322  11.608   7.182 -0.2112 -1.1468 -0.4891
   94MOL0     H12949   0.337  11.492   7.320  3.0892 -0.8857 -2.2048
   94MOL0     H12950   0.107  11.580   7.409 -2.0968  0.2089 -1.1571
   94MOL0     H12951   0.130  11.707   7.285  1.2356  1.2709 -0.0709
   94MOL0     H12952   0.271  10.724   6.863 -0.2609  1.1659 -1.1317
   94MOL0     H12953   0.384  10.526   6.803  0.2723  0.4112  0.8674
   94MOL0     H12954   0.787  10.368   6.578  1.7252 -0.7185 -1.0653
   94MOL0     H12955   0.923  10.171   6.571 -0.4864  0.6322 -1.3626
   94MOL0     H12956   1.805  10.572   7.672 -2.0494 -0.5781 -1.8469
   94MOL0     H12957   1.930  10.743   7.788 -4.5285 -1.6570  0.8455
   94MOL0     H12958   2.260  11.135   7.728  0.3840  1.8621  1.0397
   94MOL0     H12959   2.450  11.252   7.764  0.0550  0.3129 -2.5649
   94MOL0     H12960   2.642  11.111   7.986 -1.2830  1.5651 -2.4805
   94MOL0     H12961   2.813  11.096   7.952  1.0703  2.5270  1.1721
   94MOL0     H12962   2.835  11.330   7.917 -1.7225 -0.9327 -2.2144
   94MOL0     H12963   2.800  11.279   8.085 -1.1762 -3.1832 -0.0272
   94MOL0     H12964   2.674  11.502   8.007  1.3930  0.4175 -2.3241
   94MOL0     H12965   2.602  11.400   7.885 -0.3294  0.0202  0.4725
   94MOL0     H12966   2.515  11.469   8.131 -2.8000 -1.3163  0.6916
   94MOL0     H12967   2.606  11.335   8.182  1.2048  1.7683 -0.0173
   94MOL0     H12968   2.257  11.159   8.024  0.0803 -0.5655  2.4602
   94MOL0     H12969   2.700  10.908   7.739 -0.2896  1.2039  1.5784
   94MOL0     H12970   2.599  10.702   7.631  1.3265  1.0722 -0.1260
   94MOL0     H12971   2.471  10.661   7.749 -0.3878 -0.9774 -0.7402
   94MOL0     H12972   2.424  10.691   7.585 -0.6310 -0.8030  2.2212
   95MOL0     O12973   8.785   9.427   6.025 -0.3645 -0.1650 -0.4390
   95MOL0     C12974   8.845   9.390   5.921 -0.8594  0.1357  0.4652
   95MOL0     O12975   8.885   9.477   5.828  0.4820  0.2626  0.3870
   95MOL0     C12976   8.817   9.596   5.824 -0.5407 -0.9810  0.4919
   95MOL0     C12977   8.852   9.707   5.903 -0.3449 -0.4463  0.4196
   95MOL0     C12978   8.789   9.829   5.884 -0.6619 -0.1258 -0.6806
   95MOL0     C12979   8.696   9.843   5.785 -0.0196 -0.3831  0.0410
   95MOL0     O12980   8.634   9.961   5.748  0.6188  1.1150 -1.0524
   95MOL0     C12981   8.704  10.077   5.792 -0.0321 -0.6757 -0.3477
   95MOL0     C12982   8.623  10.190   5.740  0.4867 -0.0201 -0.0479
   95MOL0     C12983   8.704  10.302   5.659  0.3016  0.8638  1.0118
   95MOL0     C12984   8.626  10.424   5.642  0.0322 -0.1344 -0.1879
   95MOL0     C12985   8.690  10.532   5.554  0.7853 -0.0385 -0.3076
   95MOL0     C12986   8.633  10.511   5.413 -0.1377 -0.6834  0.7848
   95MOL0     C12987   8.726  10.587   5.312 -0.0829  0.5006  0.3162
   95MOL0     C12988   8.690  10.729   5.319  0.2008 -0.5131  0.7690
   95MOL0     N12989   8.798  10.799   5.239 -0.1257  0.2044  0.4327
   95MOL0     C12990   8.910  10.848   5.301  0.4374 -0.4265 -0.0645
   95MOL0     C12991   9.000  10.868   5.206  0.7196  0.9843  0.0107
   95MOL0     C12992   9.143  10.923   5.231 -0.1212 -0.2666 -0.5898
   95MOL0     C12993   9.145  11.058   5.308 -0.4037 -1.0209  0.2676
   95MOL0     C12994   9.274  11.132   5.280 -0.0837 -0.1974  0.3540
   95MOL0     C12995   9.394  11.071   5.360  0.5356  0.0284 -0.2163
   95MOL0     O12996   9.371  11.105   5.502  0.3531 -0.0539  0.4326
   95MOL0     C12997   9.466  11.074   5.592 -0.5349  0.6295  0.4511
   95MOL0     C12998   9.596  11.011   5.562 -0.2473 -0.2749 -0.2734
   95MOL0     C12999   9.699  10.995   5.657 -0.5011 -0.1673 -0.2793
   95MOL0     C13000   9.819  10.907   5.630  0.1471  1.5909  0.5963
   95MOL0     C13001   9.688  11.060   5.781 -0.5100  0.8081  0.6699
   95MOL0     C13002   9.792  11.062   5.884  0.3022  0.3929 -0.2490
   95MOL0     O13003   9.747  11.040   6.013  0.4988  0.0360 -0.4272
   95MOL0     C13004   9.827  11.090   6.116  0.3702  1.3065 -0.6665
   95MOL0     C13005   9.913  11.198   6.120 -0.6477 -0.1959 -0.1095
   95MOL0     C13006   9.984  11.234   6.237  0.3713  1.3316 -0.2970
   95MOL0     C13007   9.967  11.152   6.349  0.0558 -0.8181  0.1657
   95MOL0     O13008  10.018  11.183   6.475  0.5453 -0.0437 -0.3787
   95MOL0     C13009  10.085  11.306   6.498  0.4831  0.5083 -0.1168
   95MOL0     C13010  10.110  11.326   6.649  0.2706  0.3954  0.1516
   95MOL0     C13011   9.983  11.337   6.733 -0.8227 -0.3539 -0.2560
   95MOL0     C13012  10.016  11.359   6.890  0.3361 -0.0029 -0.1431
   95MOL0     C13013   9.896  11.448   6.948  0.2079  0.5224  0.3959
   95MOL0     C13014   9.916  11.600   6.942 -0.2916  0.4396 -0.1589
   95MOL0     C13015   9.808  11.669   7.027  0.6054  0.6853 -0.3565
   95MOL0     C13016   9.818  11.825   7.034 -0.6756  0.6413  0.9700
   95MOL0    Cl13017   9.814  11.884   6.862  0.0335 -0.4674  0.2113
   95MOL0     C13018   9.871  11.053   6.351  0.0692 -0.0417 -0.4025
   95MOL0     C13019   9.805  11.021   6.235 -0.6549  1.2936  0.3828
   95MOL0     O13020   9.909  11.089   5.850  1.1682  0.5121 -0.0305
   95MOL0     C13021   9.568  11.118   5.816 -0.1111  0.3754 -0.1658
   95MOL0     C13022   9.456  11.128   5.725 -0.0383 -0.0093  0.2688
   95MOL0     N13023   8.937  10.828   5.082 -0.2875 -0.1611 -0.5215
   95MOL0     N13024   8.820  10.783   5.105 -0.6913  0.4777 -0.1925
   95MOL0     C13025   8.664   9.731   5.705  0.6334  0.7057  1.0724
   95MOL0     C13026   8.715   9.611   5.734 -0.0272  0.2144 -0.4303
   95MOL0     C13027   8.895   9.247   5.916  0.5559  0.0252 -0.0890
   95MOL0     C13028   8.857   9.155   6.021  0.6495  0.1626  0.2957
   95MOL0     C13029   8.898   9.017   6.018  0.4559 -0.6375 -1.0532
   95MOL0     C13030   8.966   8.971   5.905 -0.3547  0.6434 -0.0175
   95MOL0     O13031   9.014   8.842   5.892 -0.0033 -0.3153 -0.0629
   95MOL0     C13032   8.992   8.735   5.983  0.7947  0.1107 -0.3294
   95MOL0     C13033   9.057   8.753   6.117  0.3793 -0.0545  0.6785
   95MOL0     C13034   9.039   8.639   6.221 -0.5079 -0.4785  0.5701
   95MOL0     C13035   8.910   8.618   6.300  0.3683 -0.7034 -0.2228
   95MOL0     C13036   8.797   8.601   6.207  0.2964  0.6072  0.5855
   95MOL0     C13037   8.710   8.560   6.124 -0.0878 -1.1906 -1.0255
   95MOL0     C13038   8.987   9.064   5.800  0.2803 -0.2319 -0.0273
   95MOL0     C13039   8.967   9.204   5.810  0.2248  0.2443 -0.3095
   95MOL0     C13040   8.998   9.279   5.685 -0.1391  0.0519  0.9072
   95MOL0     H13041   8.932   9.703   5.977  0.8466  0.0493 -0.8148
   95MOL0     H13042   8.825   9.907   5.950 -2.5499 -1.1676  1.7150
   95MOL0     H13043   8.804  10.095   5.750 -0.4232 -0.2908 -1.1232
   95MOL0     H13044   8.704  10.083   5.901  1.3660 -0.0716 -0.3481
   95MOL0     H13045   8.541  10.151   5.680 -0.0121  0.0410  0.5754
   95MOL0     H13046   8.570  10.247   5.817  1.8360  3.2254 -1.3409
   95MOL0     H13047   8.790  10.325   5.722 -1.1743  2.5029  2.5585
   95MOL0     H13048   8.729  10.263   5.560  2.2015 -0.3693  1.9095
   95MOL0     H13049   8.529  10.396   5.601  1.4446  0.1332 -4.1423
   95MOL0     H13050   8.617  10.460   5.745 -0.8081  4.0129 -1.5270
   95MOL0     H13051   8.799  10.523   5.559  0.9543  1.9955  1.0456
   95MOL0     H13052   8.671  10.628   5.603  0.9470  0.0511 -0.4179
   95MOL0     H13053   8.648  10.405   5.393  1.2211  0.2288 -4.5191
   95MOL0     H13054   8.530  10.549   5.407 -0.2882 -0.8733  2.0689
   95MOL0     H13055   8.706  10.549   5.212 -2.2254  1.0464  0.4993
   95MOL0     H13056   8.830  10.567   5.343 -0.4705 -0.7238  0.8867
   95MOL0     H13057   8.586  10.741   5.286 -0.9185 -2.6953  3.1709
   95MOL0     H13058   8.699  10.761   5.423  1.4188  1.3404  0.1496
   95MOL0     H13059   8.920  10.881   5.404 -2.2410  0.7134 -0.0625
   95MOL0     H13060   9.205  10.933   5.141  0.6571 -0.7089 -0.1205
   95MOL0     H13061   9.198  10.851   5.292  0.3461  1.3916  1.0320
   95MOL0     H13062   9.072  11.123   5.259 -2.1832 -1.1554  2.5296
   95MOL0     H13063   9.124  11.036   5.414  0.1951  0.5094  0.7288
   95MOL0     H13064   9.296  11.120   5.174 -0.4360 -2.0666  0.4622
   95MOL0     H13065   9.278  11.240   5.300  0.9387 -0.3398  0.9589
   95MOL0     H13066   9.404  10.963   5.348 -1.2124 -0.4128  1.6836
   95MOL0     H13067   9.492  11.108   5.329  1.0492  0.1229  1.3797
   95MOL0     H13068   9.596  10.967   5.463 -0.7465 -1.4568  0.2364
   95MOL0     H13069   9.798  10.857   5.536 -0.7582  1.9384  0.6035
   95MOL0     H13070   9.833  10.837   5.712 -0.0196  2.3577  1.2985
   95MOL0     H13071   9.917  10.956   5.620  2.2356 -2.2605  0.4572
   95MOL0     H13072   9.927  11.278   6.048 -0.7105 -0.3409 -0.2825
   95MOL0     H13073  10.043  11.325   6.239  1.0057  0.9210  0.2570
   95MOL0     H13074  10.185  11.293   6.455  1.7182  1.3724  2.2681
   95MOL0     H13075  10.034  11.393   6.455 -0.9176  0.1978  0.8484
   95MOL0     H13076  10.174  11.244   6.683  0.8778  1.1416  0.8293
   95MOL0     H13077  10.171  11.417   6.652 -0.4368  1.0015 -1.9523
   95MOL0     H13078   9.926  11.246   6.711  1.6203 -1.7772 -1.1429
   95MOL0     H13079   9.930  11.423   6.691  2.6863 -0.0465 -4.8209
   95MOL0     H13080  10.118  11.397   6.900  0.2669  0.3216 -0.6101
   95MOL0     H13081  10.008  11.260   6.936  1.2740 -0.3431 -0.6801
   95MOL0     H13082   9.800  11.425   6.901  1.4654 -1.1632 -1.5104
   95MOL0     H13083   9.890  11.426   7.055 -0.9704  0.4870  0.3305
   95MOL0     H13084   9.917  11.638   6.839 -1.6713 -1.5861 -0.9815
   95MOL0     H13085  10.013  11.631   6.983 -0.2042  5.0792 -3.1102
   95MOL0     H13086   9.799  11.623   7.126 -2.8809 -0.2950 -0.9835
   95MOL0     H13087   9.714  11.644   6.977  0.4716 -2.1084  1.1115
   95MOL0     H13088   9.900  11.859   7.097 -0.0387 -2.3485  1.9351
   95MOL0     H13089   9.728  11.866   7.082 -0.6374  0.3117  1.3321
   95MOL0     H13090   9.859  10.980   6.431 -1.0592 -2.8650 -2.9422
   95MOL0     H13091   9.729  10.944   6.235 -0.4619  1.0728 -1.2412
   95MOL0     H13092   9.570  11.167   5.913  1.0497  0.3506 -0.1725
   95MOL0     H13093   9.367  11.180   5.759  0.2069  2.1659 -2.1298
   95MOL0     H13094   8.582   9.747   5.635 -1.1462 -0.0038  2.8843
   95MOL0     H13095   8.688   9.523   5.676 -1.4102  0.4053 -0.0995
   95MOL0     H13096   8.798   9.191   6.105 -1.0216 -1.1473 -0.2764
   95MOL0     H13097   8.850   8.948   6.086 -1.7489  0.8186 -1.0310
   95MOL0     H13098   8.885   8.717   5.994  0.9874 -0.1133  1.5063
   95MOL0     H13099   9.027   8.642   5.936  0.7877  0.7846 -1.7271
   95MOL0     H13100   9.034   8.853   6.156  0.6406  0.2329  0.1158
   95MOL0     H13101   9.165   8.758   6.104  0.4222  0.0868  1.0828
   95MOL0     H13102   9.049   8.546   6.165  2.4547 -2.0116  3.3529
   95MOL0     H13103   9.122   8.658   6.289 -1.8962  0.2184  2.1585
   95MOL0     H13104   8.898   8.715   6.349 -0.8303  0.7478 -3.1382
   95MOL0     H13105   8.914   8.530   6.364  0.5806 -1.0381 -0.6907
   95MOL0     H13106   8.644   8.522   6.049 -1.2997 -0.0095 -0.5926
   95MOL0     H13107   9.033   9.025   5.710  1.4021 -2.2536  1.3500
   95MOL0     H13108   9.065   9.234   5.612 -0.5721 -0.7882  1.0191
   95MOL0     H13109   8.905   9.306   5.634  0.1211  1.7151  1.2612
   95MOL0     H13110   9.051   9.372   5.711 -0.6429  1.2393 -1.9075
   96MOL0     O13111   9.089   1.180  10.749  0.0699  0.5088  0.3695
   96MOL0     C13112   9.097   1.234  10.640 -0.0185  0.1959 -0.2956
   96MOL0     O13113   9.004   1.242  10.544  0.0476  0.0582  0.6680
   96MOL0     C13114   8.908   1.145  10.520  0.9657  0.9762 -0.3095
   96MOL0     C13115   8.786   1.166  10.473 -0.8039 -0.5982  0.5180
   96MOL0     C13116   8.697   1.059  10.445 -0.3757 -0.3837  0.9236
   96MOL0     C13117   8.719   0.929  10.489 -0.6557  1.1809 -0.1048
   96MOL0     O13118   8.612   0.844  10.484 -0.8871 -0.1467  0.5224
   96MOL0     C13119   8.608   0.736  10.578  0.3915  1.3991  0.3399
   96MOL0     C13120   8.469   0.676  10.592 -0.0561  0.1067  0.2244
   96MOL0     C13121   8.454   0.571  10.705 -0.1995  0.6647 -0.7385
   96MOL0     C13122   8.310   0.580  10.756 -0.6417  0.0931 -0.1268
   96MOL0     C13123   8.278   0.464  10.857  0.0247 -1.0966 -0.7127
   96MOL0     C13124   8.340   0.508  10.992  0.4462 -1.0175 -0.1574
   96MOL0     C13125   8.286   0.455  11.122 -0.2685  0.7611 -0.2997
   96MOL0     C13126   8.261   0.305  11.124 -0.2886 -0.5218  0.6930
   96MOL0     N13127   8.331   0.238  11.231  0.2242 -0.6072 -0.0417
   96MOL0     C13128   8.441   0.152  11.218  0.1131 -0.9578  0.4657
   96MOL0     C13129   8.495   0.152  11.342  0.1111  0.4814  0.9820
   96MOL0     C13130   8.627   0.083  11.370  1.1282  0.2777  1.3359
   96MOL0     C13131   8.595  -0.056  11.422 -0.7316  0.5046  0.2700
   96MOL0     C13132   8.692  -0.169  11.389  0.8500 -0.8537  0.2612
   96MOL0     C13133   8.682  -0.205  11.241 -0.6251  0.2183  0.3248
   96MOL0     O13134   8.777  -0.118  11.163  0.2352 -0.1085 -0.1976
   96MOL0     C13135   8.794  -0.148  11.029 -0.1012 -0.6906  0.1625
   96MOL0     C13136   8.897  -0.072  10.977  0.4277 -0.5378  0.1888
   96MOL0     C13137   8.927  -0.087  10.842 -0.9277  0.7049 -1.0161
   96MOL0     C13138   9.057  -0.028  10.803 -0.1449  0.7165 -1.0904
   96MOL0     C13139   8.854  -0.177  10.758  1.0418 -1.0594  0.7596
   96MOL0     C13140   8.877  -0.186  10.612 -0.8626  0.4185  0.1846
   96MOL0     O13141   8.976  -0.109  10.554 -0.4134 -0.0887 -0.1144
   96MOL0     C13142   8.980  -0.100  10.416  0.5423 -0.0203  0.0304
   96MOL0     C13143   9.083  -0.170  10.363 -0.5574 -0.7840 -0.0631
   96MOL0     C13144   9.092  -0.176  10.222  0.6885  0.1582 -0.3916
   96MOL0     C13145   8.993  -0.120  10.137  0.2644  0.1834 -0.0266
   96MOL0     O13146   9.019  -0.132  10.001 -0.7035  0.2328  0.1550
   96MOL0     C13147   8.925  -0.079   9.913 -0.4179 -0.3196 -0.0181
   96MOL0     C13148   8.964  -0.117   9.770 -0.4232  0.1344 -0.5409
   96MOL0     C13149   8.876  -0.031   9.673 -0.0363  0.7602  0.5221
   96MOL0     C13150   8.885  -0.104   9.537 -0.6222 -0.2622 -0.1232
   96MOL0     C13151   8.877  -0.011   9.416 -0.5302 -0.0537  0.5127
   96MOL0     C13152   8.881  -0.080   9.276  0.5797  0.9727 -0.3601
   96MOL0     C13153   8.900   0.022   9.172 -0.3210  0.4839 -0.3960
   96MOL0     C13154   8.911  -0.053   9.038  0.6261 -0.1875 -0.9610
   96MOL0    Cl13155   8.746  -0.080   8.964  0.0876 -0.7019  0.6589
   96MOL0     C13156   8.888  -0.053  10.198  0.2468  0.9428  0.9571
   96MOL0     C13157   8.879  -0.041  10.343 -0.2178 -0.0141 -0.2519
   96MOL0     O13158   8.818  -0.270  10.547  0.0530  0.7131  0.0748
   96MOL0     C13159   8.744  -0.250  10.812  0.0338  0.5017  0.2698
   96MOL0     C13160   8.711  -0.233  10.952 -0.1444 -0.3173 -0.0700
   96MOL0     N13161   8.419   0.233  11.422 -0.2628  0.7197 -0.1960
   96MOL0     N13162   8.323   0.282  11.358  0.3681  0.9608  0.3538
   96MOL0     C13163   8.855   0.906  10.535  0.3358 -0.3578 -0.3238
   96MOL0     C13164   8.943   1.012  10.537 -0.1895 -1.0414 -0.1574
   96MOL0     C13165   9.224   1.295  10.604 -0.3887 -0.6581  0.4173
   96MOL0     C13166   9.229   1.393  10.503  0.0967 -0.7126  0.0985
   96MOL0     C13167   9.346   1.458  10.455 -0.5073 -0.7359  0.5888
   96MOL0     C13168   9.469   1.427  10.505 -0.2794  0.5570 -0.4702
   96MOL0     O13169   9.580   1.492  10.456  0.0557  0.9529  0.2587
   96MOL0     C13170   9.707   1.493  10.521 -0.7827 -0.3745 -0.5713
   96MOL0     C13171   9.718   1.628  10.596  0.2358 -1.0816 -0.2467
   96MOL0     C13172   9.635   1.645  10.726  0.5397  1.2478 -0.2054
   96MOL0     C13173   9.672   1.773  10.799 -0.0492 -0.6436  0.9158
   96MOL0     C13174   9.677   1.758  10.950 -0.1801 -0.3809  0.4692
   96MOL0     C13175   9.671   1.764  11.067  0.3734 -0.4330 -0.1919
   96MOL0     C13176   9.468   1.322  10.604 -1.4651 -0.9073  0.1597
   96MOL0     C13177   9.353   1.265  10.657  0.2289 -0.2576 -0.5283
   96MOL0     C13178   9.367   1.160  10.764 -0.2893 -0.1791  0.0583
   96MOL0     H13179   8.766   1.272  10.463  0.0174 -0.3917  0.9822
   96MOL0     H13180   8.604   1.089  10.396 -0.6120 -1.7607  0.4910
   96MOL0     H13181   8.631   0.771  10.679  2.3060 -0.9575  0.8085
   96MOL0     H13182   8.681   0.658  10.555 -1.0135 -1.2125  3.7594
   96MOL0     H13183   8.405   0.759  10.623  2.0289  1.3705  1.4028
   96MOL0     H13184   8.438   0.624  10.501 -0.7336 -0.4847  0.7791
   96MOL0     H13185   8.465   0.476  10.652  1.9263  0.6875 -0.4436
   96MOL0     H13186   8.530   0.588  10.782  2.1659 -1.1709 -2.5204
   96MOL0     H13187   8.310   0.676  10.809 -1.7240  0.0373 -0.0072
   96MOL0     H13188   8.240   0.587  10.672  0.1553 -0.7383 -0.8891
   96MOL0     H13189   8.325   0.371  10.822  0.5835 -0.5873 -1.3266
   96MOL0     H13190   8.171   0.443  10.865  0.1029 -1.5123 -0.7071
   96MOL0     H13191   8.443   0.470  10.999  0.5789 -0.5384  0.5736
   96MOL0     H13192   8.339   0.617  11.002 -0.1474 -1.0242 -0.1387
   96MOL0     H13193   8.204   0.516  11.163  0.9353  1.7163  0.7475
   96MOL0     H13194   8.364   0.478  11.195  1.8408 -0.3930 -2.0647
   96MOL0     H13195   8.155   0.293  11.148  0.1244  0.8818  3.5472
   96MOL0     H13196   8.281   0.260  11.026 -1.6328 -0.5013  0.3917
   96MOL0     H13197   8.475   0.108  11.125  1.2969  1.6836 -0.4420
   96MOL0     H13198   8.688   0.140  11.441  0.0585  0.6475  1.9936
   96MOL0     H13199   8.685   0.082  11.278 -1.2332 -4.6320 -0.4307
   96MOL0     H13200   8.592  -0.059  11.531  1.5367 -1.5420  0.3790
   96MOL0     H13201   8.492  -0.088  11.400 -1.1824  1.9186  0.2630
   96MOL0     H13202   8.789  -0.121  11.404 -0.7219  2.8214 -0.2591
   96MOL0     H13203   8.672  -0.245  11.465  0.2429 -0.3469  0.6232
   96MOL0     H13204   8.720  -0.307  11.252  2.0306  1.2813  2.2206
   96MOL0     H13205   8.583  -0.194  11.196 -0.3509  0.8660 -0.1302
   96MOL0     H13206   8.965  -0.009  11.034  1.6267 -2.5620  1.1158
   96MOL0     H13207   9.035   0.046  10.725 -2.7977  0.0854 -1.0394
   96MOL0     H13208   9.118  -0.105  10.753 -0.7940 -0.5063 -0.0694
   96MOL0     H13209   9.107   0.024  10.884  0.4399  1.4481 -1.9015
   96MOL0     H13210   9.157  -0.215  10.429 -0.2309 -0.8968 -0.5011
   96MOL0     H13211   9.165  -0.247  10.184  2.9572  1.5734  1.0570
   96MOL0     H13212   8.824  -0.108   9.941 -1.8195  2.2780 -1.9489
   96MOL0     H13213   8.937   0.029   9.928  2.6080 -0.7060  1.2075
   96MOL0     H13214   9.071  -0.108   9.750  0.2553  0.4811  2.6316
   96MOL0     H13215   8.939  -0.221   9.746 -0.5278  0.5070 -2.1849
   96MOL0     H13216   8.928   0.065   9.662 -1.0268  1.3470  0.8405
   96MOL0     H13217   8.771  -0.016   9.699  0.3880  2.7204  1.3470
   96MOL0     H13218   8.809  -0.183   9.534 -0.0220 -0.8154 -2.1610
   96MOL0     H13219   8.982  -0.155   9.532 -0.1573  0.5623 -5.5578
   96MOL0     H13220   8.789   0.054   9.417 -0.6219 -0.1829  1.0300
   96MOL0     H13221   8.965   0.053   9.422 -0.2196 -0.2907 -0.9322
   96MOL0     H13222   8.789  -0.137   9.264  0.6916  0.0402  2.5167
   96MOL0     H13223   8.964  -0.151   9.269  0.4971  1.0386 -3.5443
   96MOL0     H13224   8.993   0.074   9.195 -2.1308  2.9593  1.8781
   96MOL0     H13225   8.815   0.090   9.170  0.8009  1.9362 -0.4729
   96MOL0     H13226   8.972  -0.143   9.053  0.2959 -0.8399 -3.1063
   96MOL0     H13227   8.966   0.014   8.971 -1.6829  2.9933  0.0727
   96MOL0     H13228   8.814  -0.007  10.132  0.6114  2.8013  1.7619
   96MOL0     H13229   8.789   0.001  10.386 -1.3808 -2.4257 -0.2154
   96MOL0     H13230   8.686  -0.313  10.745  2.2667 -2.2005  0.7027
   96MOL0     H13231   8.624  -0.286  10.988 -1.4099  1.8893  0.3292
   96MOL0     H13232   8.887   0.806  10.561  0.1217 -0.5007 -0.6089
   96MOL0     H13233   9.050   1.002  10.553  0.1888  0.7918 -1.3691
   96MOL0     H13234   9.146   1.426  10.441  0.4828 -1.3481 -0.7702
   96MOL0     H13235   9.343   1.518  10.364 -1.9144 -4.2801 -1.9054
   96MOL0     H13236   9.728   1.412  10.592 -0.2901 -0.1461 -0.4524
   96MOL0     H13237   9.781   1.489  10.441 -1.0146  2.5502 -1.0234
   96MOL0     H13238   9.676   1.695  10.520 -1.0983 -2.4717 -0.7735
   96MOL0     H13239   9.819   1.665  10.619  0.1303 -1.2616  0.5260
   96MOL0     H13240   9.528   1.628  10.707  0.6141 -0.4424  0.7407
   96MOL0     H13241   9.671   1.564  10.790  1.3689  0.8547 -1.1471
   96MOL0     H13242   9.594   1.846  10.777 -1.0933 -1.2385  2.4367
   96MOL0     H13243   9.764   1.817  10.761 -1.6591  0.0999 -2.5850
   96MOL0     H13244   9.664   1.776  11.173 -2.9440 -0.0073 -0.3553
   96MOL0     H13245   9.563   1.306  10.653 -0.7493  2.6739  0.1582
   96MOL0     H13246   9.306   1.070  10.767  0.2707 -0.5990 -0.7510
   96MOL0     H13247   9.470   1.126  10.777 -0.7265 -0.6206  2.9509
   96MOL0     H13248   9.340   1.203  10.861 -0.8450 -1.3122  0.4179
   97MOL0     O13249   8.341   6.988   6.658  0.1037  0.4838  0.0148
   97MOL0     C13250   8.278   6.912   6.728 -0.0403  0.3810 -0.3367
   97MOL0     O13251   8.280   6.922   6.867 -0.6235  0.0431 -1.5352
   97MOL0     C13252   8.392   6.959   6.938  0.7046  0.7325  0.5465
   97MOL0     C13253   8.391   7.063   7.019  0.5587  0.5002 -0.8137
   97MOL0     C13254   8.512   7.121   7.076  0.7018 -0.7747 -0.6456
   97MOL0     C13255   8.633   7.071   7.050 -0.3120 -0.7717 -0.3047
   97MOL0     O13256   8.739   7.140   7.118  0.1660  0.2908  0.2066
   97MOL0     C13257   8.867   7.070   7.143 -0.2667  0.3147 -0.6257
   97MOL0     C13258   8.986   7.164   7.177 -0.2920  0.3645  0.0291
   97MOL0     C13259   9.030   7.260   7.057  0.2934 -1.6460  0.2261
   97MOL0     C13260   9.185   7.305   7.072  0.1224 -0.5407  0.3298
   97MOL0     C13261   9.299   7.193   7.067  0.1161 -0.3737  0.3275
   97MOL0     C13262   9.292   7.125   6.927 -0.4129  0.3417 -0.8235
   97MOL0     C13263   9.412   7.043   6.892  0.1763  0.4456  0.5781
   97MOL0     C13264   9.484   7.099   6.766  0.2691 -0.1865  0.2157
   97MOL0     N13265   9.609   7.018   6.739  0.3559 -0.4859  0.3905
   97MOL0     C13266   9.721   6.993   6.814 -0.3514  0.2166  0.3707
   97MOL0     C13267   9.786   6.904   6.752 -0.1833 -0.1061 -0.1877
   97MOL0     C13268   9.895   6.825   6.824  0.2107 -0.1611 -0.8902
   97MOL0     C13269   9.946   6.710   6.729 -0.5966 -0.1742  0.0253
   97MOL0     C13270  10.048   6.621   6.804  0.4686 -0.4608 -0.3426
   97MOL0     C13271  10.103   6.520   6.712  0.1190 -0.2007 -1.0302
   97MOL0     O13272  10.190   6.429   6.784 -0.4998  0.7567 -0.2193
   97MOL0     C13273  10.211   6.305   6.724 -0.0472  0.7694 -0.3156
   97MOL0     C13274  10.155   6.248   6.615  1.3923 -0.4108 -0.6143
   97MOL0     C13275  10.194   6.118   6.577 -0.5966 -0.0968 -0.2838
   97MOL0     C13276  10.116   6.065   6.464  0.0741  0.7977 -0.4157
   97MOL0     C13277  10.277   6.036   6.662  1.1375 -0.5606  0.1230
   97MOL0     C13278  10.312   5.891   6.645 -1.3248  0.0248 -0.3730
   97MOL0     O13279  10.383   5.847   6.760  0.0845  0.3908 -0.1451
   97MOL0     C13280  10.426   5.716   6.777 -0.4691 -0.0085  0.5962
   97MOL0     C13281  10.554   5.677   6.740  0.4104 -0.2810  0.2900
   97MOL0     C13282  10.602   5.553   6.767 -0.6147  0.1367  1.2637
   97MOL0     C13283  10.522   5.450   6.820  0.2858  0.3818  0.0772
   97MOL0     O13284  10.568   5.324   6.853 -0.8286 -1.1546 -0.1506
   97MOL0     C13285  10.691   5.277   6.783 -1.0303  1.0779 -1.1181
   97MOL0     C13286  10.707   5.125   6.801 -0.3122 -0.1027 -0.1389
   97MOL0     C13287  10.610   5.035   6.724  0.6794  0.3458  0.6715
   97MOL0     C13288  10.649   5.027   6.575  0.5486  0.8684 -0.1137
   97MOL0     C13289  10.544   4.967   6.482 -0.2751  0.2606  0.8983
   97MOL0     C13290  10.531   4.818   6.498 -0.7402  0.6686 -0.4513
   97MOL0     C13291  10.436   4.755   6.390 -0.8955 -0.8145 -0.1190
   97MOL0     C13292  10.449   4.597   6.372  0.1265 -0.1641  0.0063
   97MOL0    Cl13293  10.631   4.550   6.342  0.4579 -0.4354  0.1099
   97MOL0     C13294  10.389   5.479   6.852 -0.1329 -0.2791  0.8050
   97MOL0     C13295  10.352   5.617   6.832 -0.1729  0.2282 -0.0336
   97MOL0     O13296  10.286   5.826   6.541 -0.4145 -0.2191  0.0413
   97MOL0     C13297  10.340   6.105   6.770  0.5189  0.0846 -0.6001
   97MOL0     C13298  10.300   6.234   6.805  0.1403 -0.2415 -0.4601
   97MOL0     N13299   9.725   6.875   6.630  0.0722  0.3817 -1.1941
   97MOL0     N13300   9.620   6.949   6.619 -0.0454 -0.7220  0.4353
   97MOL0     C13301   8.634   6.952   6.980  0.6010  0.9488  0.0028
   97MOL0     C13302   8.518   6.889   6.922 -0.6116 -0.0610 -0.2130
   97MOL0     C13303   8.167   6.840   6.655  0.4380  0.2074 -0.0078
   97MOL0     C13304   8.194   6.803   6.525 -0.0457  0.4273  0.9373
   97MOL0     C13305   8.113   6.722   6.445  0.2162 -0.0332 -0.2427
   97MOL0     C13306   7.992   6.693   6.493  0.6795  0.0703 -0.6434
   97MOL0     O13307   7.927   6.606   6.416 -0.8591 -0.7376  0.3930
   97MOL0     C13308   7.809   6.540   6.455  0.1679 -0.0773 -0.0010
   97MOL0     C13309   7.741   6.489   6.328 -0.1117 -0.8550 -0.3452
   97MOL0     C13310   7.818   6.379   6.252 -0.4714  0.0527  1.2914
   97MOL0     C13311   7.781   6.235   6.283 -0.3067  0.2366 -0.1741
   97MOL0     C13312   7.841   6.187   6.408  0.0143 -0.0847  0.2018
   97MOL0     C13313   7.900   6.151   6.506 -0.2108 -0.6685 -0.5003
   97MOL0     C13314   7.956   6.731   6.623 -0.1416 -0.4748  0.6456
   97MOL0     C13315   8.040   6.803   6.709  0.1338  0.0726  0.6155
   97MOL0     C13316   7.996   6.834   6.853 -0.5116  0.2413  0.4293
   97MOL0     H13317   8.296   7.101   7.057 -0.7595 -0.1422 -3.2234
   97MOL0     H13318   8.505   7.204   7.146  0.6325 -0.8897 -0.5160
   97MOL0     H13319   8.888   7.022   7.047 -1.6265  0.1753 -0.8727
   97MOL0     H13320   8.851   7.008   7.232 -0.2177  2.0185  0.6516
   97MOL0     H13321   8.951   7.232   7.255  0.8274  1.7048 -0.5846
   97MOL0     H13322   9.067   7.101   7.215  1.4854  0.6277 -2.9900
   97MOL0     H13323   9.004   7.213   6.962  0.2777  1.1913 -1.3077
   97MOL0     H13324   8.975   7.355   7.057  1.2039 -1.0251  2.9208
   97MOL0     H13325   9.202   7.375   6.990  2.5344 -0.0195  1.1887
   97MOL0     H13326   9.190   7.359   7.168 -3.4903 -2.2501  1.6597
   97MOL0     H13327   9.278   7.120   7.146 -1.9651 -0.9090 -0.6543
   97MOL0     H13328   9.402   7.221   7.093 -0.0199 -2.3148  3.4544
   97MOL0     H13329   9.205   7.058   6.931 -0.0329 -0.2353 -1.8843
   97MOL0     H13330   9.274   7.202   6.852 -1.6668  1.9382  1.0388
   97MOL0     H13331   9.383   6.939   6.879 -0.6060  0.6496  0.6502
   97MOL0     H13332   9.488   7.048   6.970  0.7407 -4.8169  0.7418
   97MOL0     H13333   9.425   7.094   6.674 -1.7516 -0.3217  1.4490
   97MOL0     H13334   9.504   7.206   6.776  0.3014 -0.2348  0.6898
   97MOL0     H13335   9.736   7.025   6.916  2.5504 -0.9293  0.4315
   97MOL0     H13336   9.842   6.784   6.911  3.1462 -2.9799 -0.2327
   97MOL0     H13337   9.979   6.883   6.863 -0.2630 -0.0050 -0.0674
   97MOL0     H13338   9.856   6.651   6.709 -1.2100 -0.5147  3.1710
   97MOL0     H13339   9.984   6.753   6.636  0.0704  0.8240  0.7367
   97MOL0     H13340  10.133   6.678   6.842  0.7496 -0.9292 -0.2579
   97MOL0     H13341   9.991   6.568   6.881 -1.2671  0.8376 -0.6773
   97MOL0     H13342  10.029   6.477   6.645  1.0765 -0.1306 -2.1767
   97MOL0     H13343  10.173   6.582   6.654  0.9183  0.7973  0.8973
   97MOL0     H13344  10.074   6.298   6.563 -0.3584 -0.6084  1.7433
   97MOL0     H13345  10.051   6.144   6.425 -2.0952 -0.4031  0.5595
   97MOL0     H13346  10.048   5.992   6.509  0.1862  0.3421 -0.9664
   97MOL0     H13347  10.170   6.010   6.386  1.0100  2.3213 -0.8695
   97MOL0     H13348  10.616   5.752   6.691 -0.0529 -0.5637 -0.7478
   97MOL0     H13349  10.706   5.535   6.745 -0.5197  0.4222  1.4655
   97MOL0     H13350  10.669   5.284   6.676 -0.5304 -1.9794 -1.5270
   97MOL0     H13351  10.780   5.337   6.805 -0.7470  0.2058  0.2468
   97MOL0     H13352  10.813   5.099   6.793 -0.8277 -1.5910 -3.9144
   97MOL0     H13353  10.690   5.101   6.907  0.7621  0.1157  0.0964
   97MOL0     H13354  10.510   5.070   6.748  0.3450 -0.1899  0.0990
   97MOL0     H13355  10.620   4.936   6.771  1.6236  0.8885  1.6646
   97MOL0     H13356  10.738   4.966   6.560 -1.4811 -2.1038 -0.9658
   97MOL0     H13357  10.685   5.123   6.537  1.3725  0.8666  0.6402
   97MOL0     H13358  10.448   5.019   6.483 -1.6216 -2.0262 -0.3649
   97MOL0     H13359  10.583   4.976   6.380  1.1457 -2.1549  1.1533
   97MOL0     H13360  10.484   4.799   6.595 -0.4913 -0.4323 -0.5397
   97MOL0     H13361  10.632   4.777   6.497 -0.9941  0.0252 -0.5805
   97MOL0     H13362  10.476   4.786   6.293 -2.0968 -0.5989 -0.5585
   97MOL0     H13363  10.331   4.783   6.405 -1.1039 -1.5765 -0.1308
   97MOL0     H13364  10.405   4.584   6.273 -2.7937 -1.3370  1.3344
   97MOL0     H13365  10.401   4.529   6.442 -0.4241  1.6637  1.5061
   97MOL0     H13366  10.322   5.401   6.886 -0.3649 -0.1027  0.7533
   97MOL0     H13367  10.251   5.639   6.865 -0.2528  2.3981 -1.4797
   97MOL0     H13368  10.405   6.059   6.843  0.3419 -0.1812 -0.6087
   97MOL0     H13369  10.336   6.293   6.889  3.2860 -0.7971 -1.3073
   97MOL0     H13370   8.718   6.884   6.965  0.3899  0.5213  0.6887
   97MOL0     H13371   8.523   6.800   6.861  0.7641 -0.3384  0.2797
   97MOL0     H13372   8.290   6.820   6.477  1.0356 -0.0840  2.8272
   97MOL0     H13373   8.127   6.704   6.338  0.9625  0.4157 -0.2339
   97MOL0     H13374   7.835   6.455   6.519  0.4981 -2.8573 -3.5203
   97MOL0     H13375   7.740   6.607   6.508 -1.2547 -1.0461 -0.5362
   97MOL0     H13376   7.718   6.568   6.256  0.8422 -0.2089  0.0478
   97MOL0     H13377   7.648   6.452   6.371 -0.3582 -0.2076 -0.3202
   97MOL0     H13378   7.791   6.393   6.147  2.2851 -0.4523  0.4244
   97MOL0     H13379   7.925   6.394   6.265 -0.0875 -3.4149  3.4830
   97MOL0     H13380   7.827   6.167   6.210 -0.9764  0.4445 -0.8021
   97MOL0     H13381   7.672   6.225   6.277 -0.2090 -0.5078 -1.1266
   97MOL0     H13382   7.964   6.114   6.583  1.5394  0.0261 -1.5620
   97MOL0     H13383   7.857   6.707   6.661  0.0368 -3.4601 -0.4831
   97MOL0     H13384   8.052   6.770   6.922 -3.1468 -3.3575 -0.4654
   97MOL0     H13385   8.030   6.936   6.873  1.4657  0.6147 -3.7414
   97MOL0     H13386   7.889   6.816   6.865 -0.7326  0.5871 -0.9230
   98MOL0     O13387   5.111   9.316   0.154  0.7426 -1.1221 -0.7026
   98MOL0     C13388   5.020   9.398   0.154  0.4199 -0.3207  1.0204
   98MOL0     O13389   4.893   9.376   0.179 -0.0667 -0.2448 -0.1246
   98MOL0     C13390   4.832   9.253   0.203  0.5338 -0.0854 -1.0010
   98MOL0     C13391   4.707   9.256   0.271  0.3115  0.8252 -0.0149
   98MOL0     C13392   4.650   9.131   0.314 -0.1383  0.4766 -0.0988
   98MOL0     C13393   4.701   9.006   0.271 -0.0417  0.4147  0.1505
   98MOL0     O13394   4.652   8.892   0.321 -0.8336 -0.1225 -0.1070
   98MOL0     C13395   4.627   8.879   0.466 -0.3515  0.3462 -0.0025
   98MOL0     C13396   4.510   8.786   0.476 -0.5705  0.1722 -0.4840
   98MOL0     C13397   4.465   8.748   0.618  0.7152 -0.1104  0.5076
   98MOL0     C13398   4.540   8.638   0.676  0.1979  1.1571  0.5630
   98MOL0     C13399   4.532   8.603   0.823  0.2319 -0.2429  1.0861
   98MOL0     C13400   4.393   8.638   0.870  0.0204  0.0555 -1.1192
   98MOL0     C13401   4.388   8.648   1.022 -0.0074  0.3222 -0.1084
   98MOL0     C13402   4.241   8.679   1.059  0.4101 -0.4752  0.1231
   98MOL0     N13403   4.150   8.572   1.024  0.4301 -0.2787  1.2376
   98MOL0     C13404   4.105   8.486   1.124 -0.5379 -1.4774 -0.4669
   98MOL0     C13405   4.008   8.416   1.063 -0.5695 -0.4111 -0.6385
   98MOL0     C13406   3.935   8.294   1.115  0.0734  0.1488 -0.2843
   98MOL0     C13407   3.980   8.164   1.046  0.0536 -0.7562  1.2485
   98MOL0     C13408   3.962   8.039   1.115  0.4640 -0.4396 -0.6459
   98MOL0     C13409   3.819   8.021   1.170  0.1699  1.1046 -0.6391
   98MOL0     O13410   3.792   7.882   1.198 -0.0233  0.0378  0.0489
   98MOL0     C13411   3.791   7.820   1.316 -0.1801 -0.3529  0.5310
   98MOL0     C13412   3.723   7.701   1.344  0.0911  0.2045  0.0245
   98MOL0     C13413   3.708   7.645   1.471  0.2906 -0.2749  0.1590
   98MOL0     C13414   3.603   7.535   1.483 -0.8653 -0.4310 -0.3373
   98MOL0     C13415   3.765   7.712   1.580  0.1977 -0.0032 -0.2585
   98MOL0     C13416   3.760   7.668   1.717 -0.4735 -0.0266 -0.2846
   98MOL0     O13417   3.857   7.715   1.802 -0.6073 -0.1270 -0.1617
   98MOL0     C13418   3.895   7.634   1.913  0.1033 -1.2701 -0.8155
   98MOL0     C13419   4.018   7.572   1.907 -0.3126  0.3587  0.4502
   98MOL0     C13420   4.062   7.503   2.013  0.6861 -0.1843  0.9441
   98MOL0     C13421   3.980   7.488   2.126  0.0815  0.2458  0.0961
   98MOL0     O13422   4.029   7.419   2.234 -1.0875  0.6193  0.2239
   98MOL0     C13423   4.129   7.492   2.305  0.1421  0.3654 -0.3305
   98MOL0     C13424   4.186   7.419   2.433  0.6527 -0.4548  0.0506
   98MOL0     C13425   4.242   7.278   2.405 -0.2476  0.0723  0.8532
   98MOL0     C13426   4.389   7.292   2.365 -0.7966  0.7124  0.3168
   98MOL0     C13427   4.441   7.151   2.313 -0.7927  0.2947 -0.4793
   98MOL0     C13428   4.578   7.162   2.247  0.3465 -0.1092  0.3262
   98MOL0     C13429   4.614   7.023   2.194 -0.8476 -0.2218 -0.9786
   98MOL0     C13430   4.763   7.023   2.164  0.5978  1.2918  0.0083
   98MOL0    Cl13431   4.875   7.025   2.306 -0.5018  0.4307 -0.2322
   98MOL0     C13432   3.852   7.545   2.129  0.8105  0.0335  0.1368
   98MOL0     C13433   3.815   7.629   2.028 -0.8334 -0.5695 -0.1970
   98MOL0     O13434   3.680   7.578   1.749 -0.1538  0.2686 -0.1948
   98MOL0     C13435   3.857   7.819   1.553  0.3373 -0.1021 -0.9108
   98MOL0     C13436   3.866   7.866   1.420 -0.3030 -0.4589 -1.2076
   98MOL0     N13437   3.986   8.468   0.938  0.3297 -0.0043  0.3138
   98MOL0     N13438   4.079   8.557   0.916  1.5670 -0.3585 -0.4124
   98MOL0     C13439   4.810   9.001   0.183  0.0227 -0.6008  0.3748
   98MOL0     C13440   4.886   9.126   0.150  0.1491  0.4583 -0.4887
   98MOL0     C13441   5.072   9.532   0.117  1.1222  1.1062 -0.3546
   98MOL0     C13442   4.977   9.633   0.130 -0.3573  0.6862 -0.1120
   98MOL0     C13443   5.015   9.763   0.091  0.4217 -0.3839 -0.2912
   98MOL0     C13444   5.140   9.802   0.054  0.4932 -0.3526  0.4883
   98MOL0     O13445   5.165   9.938   0.041 -0.9324  0.2294  0.1021
   98MOL0     C13446   5.151  10.021   0.161  0.0300  0.2321 -0.1093
   98MOL0     C13447   5.167  10.169   0.139 -0.0284  0.3132 -0.2194
   98MOL0     C13448   5.105  10.215   0.009 -0.3664  0.6558 -0.0142
   98MOL0     C13449   4.977  10.156  -0.027  0.7684  0.4642  0.6080
   98MOL0     C13450   4.873  10.175   0.066  0.7358  1.3560  0.0793
   98MOL0     C13451   4.776  10.192   0.138  0.2068 -0.1347  0.0842
   98MOL0     C13452   5.228   9.702   0.026 -0.6286 -0.4669 -0.2885
   98MOL0     C13453   5.199   9.565   0.057 -0.3416 -0.6762 -0.2439
   98MOL0     C13454   5.307   9.466   0.031  0.1752  0.3910  0.2194
   98MOL0     H13455   4.656   9.345   0.306  0.3236  1.0758 -0.6200
   98MOL0     H13456   4.557   9.135   0.370 -0.4209  1.1783 -0.5960
   98MOL0     H13457   4.612   8.977   0.511  0.8764 -0.3112  1.9707
   98MOL0     H13458   4.721   8.848   0.513 -0.3524 -1.6941 -1.2137
   98MOL0     H13459   4.425   8.841   0.435  0.3866  1.0448 -1.3239
   98MOL0     H13460   4.518   8.695   0.415  0.7259  0.1533 -0.2980
   98MOL0     H13461   4.461   8.842   0.674 -1.6447  1.0414 -1.3663
   98MOL0     H13462   4.359   8.722   0.604 -1.3800  4.8964  4.0536
   98MOL0     H13463   4.515   8.550   0.617  0.5022  1.7293 -0.4504
   98MOL0     H13464   4.646   8.656   0.658 -0.0398  2.0209 -0.0157
   98MOL0     H13465   4.603   8.668   0.874 -1.7435  0.3675  3.2337
   98MOL0     H13466   4.560   8.498   0.840  0.1848 -0.4553 -0.0361
   98MOL0     H13467   4.362   8.737   0.833 -0.1724 -0.0829 -1.3366
   98MOL0     H13468   4.324   8.562   0.831 -1.9583  0.8128  0.6838
   98MOL0     H13469   4.454   8.728   1.058  2.0310 -1.7707  1.0325
   98MOL0     H13470   4.415   8.550   1.063  2.0900  1.4029  1.2599
   98MOL0     H13471   4.238   8.684   1.168  0.2484  0.5475  0.0846
   98MOL0     H13472   4.215   8.776   1.016  0.4556 -1.3298 -1.9235
   98MOL0     H13473   4.136   8.482   1.228 -2.0302 -0.8070  0.0414
   98MOL0     H13474   3.827   8.309   1.106 -0.0030 -0.3356 -0.2414
   98MOL0     H13475   3.967   8.290   1.219  2.6137  0.8150 -0.9758
   98MOL0     H13476   3.928   8.156   0.950  0.8005 -3.8096  1.0025
   98MOL0     H13477   4.089   8.168   1.042  0.0523 -1.7290 -0.5766
   98MOL0     H13478   3.979   7.955   1.048 -2.3708 -0.2543 -1.7626
   98MOL0     H13479   4.040   8.032   1.191 -0.4706 -0.8878  0.3008
   98MOL0     H13480   3.803   8.080   1.261  0.0400  0.2776 -0.1121
   98MOL0     H13481   3.750   8.058   1.094 -0.2262 -2.2580 -2.0767
   98MOL0     H13482   3.671   7.649   1.264  1.2064  1.0223 -1.2983
   98MOL0     H13483   3.521   7.588   1.532  2.2098  2.5626  2.0666
   98MOL0     H13484   3.633   7.446   1.539 -0.1023  0.3827  0.5744
   98MOL0     H13485   3.563   7.512   1.384 -1.4031 -1.2900  0.0687
   98MOL0     H13486   4.073   7.571   1.814 -1.1580 -0.8613 -0.0643
   98MOL0     H13487   4.158   7.454   2.010 -0.2989 -2.1898  1.0637
   98MOL0     H13488   4.212   7.526   2.242  1.0152 -1.3855 -0.1939
   98MOL0     H13489   4.092   7.589   2.340 -2.4568 -1.4409  2.3300
   98MOL0     H13490   4.247   7.479   2.501  1.9371 -0.6231 -0.9000
   98MOL0     H13491   4.096   7.413   2.495  0.6481  3.7688  0.7560
   98MOL0     H13492   4.177   7.223   2.338 -0.4319  0.0685  1.0327
   98MOL0     H13493   4.230   7.220   2.497 -0.4343 -0.4991  0.4673
   98MOL0     H13494   4.445   7.323   2.454  2.9109  1.8868 -2.1941
   98MOL0     H13495   4.406   7.366   2.287 -1.2192 -0.0918 -0.5518
   98MOL0     H13496   4.427   7.076   2.391 -0.3316 -1.7173 -2.2307
   98MOL0     H13497   4.369   7.117   2.238 -2.1795  0.0963  0.9020
   98MOL0     H13498   4.658   7.205   2.308  0.7648  0.7171 -0.7635
   98MOL0     H13499   4.565   7.228   2.160  0.9366 -2.7039 -1.8611
   98MOL0     H13500   4.576   6.999   2.094 -0.3337  0.5341 -1.3619
   98MOL0     H13501   4.602   6.941   2.266  2.6736 -1.0108 -1.0602
   98MOL0     H13502   4.785   7.109   2.100  3.1270  0.6065 -0.1463
   98MOL0     H13503   4.781   6.938   2.097  2.1971  2.5513 -1.2442
   98MOL0     H13504   3.794   7.521   2.218 -0.6763  0.9094 -0.5439
   98MOL0     H13505   3.731   7.695   2.048 -0.6267 -0.2035 -0.5027
   98MOL0     H13506   3.909   7.866   1.637 -1.3353 -2.1979  1.4574
   98MOL0     H13507   3.930   7.953   1.405  2.5992 -2.1018  0.7359
   98MOL0     H13508   4.839   8.907   0.137 -1.7219  0.1404 -2.5640
   98MOL0     H13509   4.983   9.125   0.102  0.1373 -0.7940 -0.5187
   98MOL0     H13510   4.876   9.615   0.167  1.0426 -1.6150  3.0372
   98MOL0     H13511   4.942   9.843   0.102  0.6160 -0.3066  0.5070
   98MOL0     H13512   5.050  10.005   0.202  0.7770  2.4679  2.9923
   98MOL0     H13513   5.230   9.994   0.231  2.4628  0.4803 -2.6150
   98MOL0     H13514   5.275  10.188   0.138 -0.1390  1.2419  1.7201
   98MOL0     H13515   5.115  10.229   0.215  2.0236  3.0163 -0.7690
   98MOL0     H13516   5.087  10.323   0.005 -1.0396  0.5281 -1.0440
   98MOL0     H13517   5.173  10.187  -0.072  2.3550 -3.5903  3.3049
   98MOL0     H13518   4.989  10.054  -0.065 -1.3366  0.5557 -0.4284
   98MOL0     H13519   4.935  10.215  -0.109 -4.8619 -0.7741  2.1137
   98MOL0     H13520   4.687  10.190   0.197 -1.0366 -0.3138 -1.6934
   98MOL0     H13521   5.328   9.723  -0.012 -0.6839 -2.5248 -1.7634
   98MOL0     H13522   5.369   9.451   0.120  0.6678  0.2942 -0.1360
   98MOL0     H13523   5.276   9.374  -0.019  2.5570  0.0848 -0.8227
   98MOL0     H13524   5.368   9.503  -0.052  1.3608 -1.0757  0.4011
   99MOL0     O13525   7.541   1.033   6.347  0.2684  1.1286  0.7960
   99MOL0     C13526   7.550   1.129   6.427 -0.0145  0.1761  0.5532
   99MOL0     O13527   7.631   1.139   6.529 -0.0246 -0.0623 -0.5513
   99MOL0     C13528   7.720   1.033   6.534  0.3044  0.4846  0.2620
   99MOL0     C13529   7.855   1.053   6.507 -0.8110  0.0405 -0.2720
   99MOL0     C13530   7.956   0.951   6.531 -0.0143 -1.2390 -0.7908
   99MOL0     C13531   7.912   0.829   6.569 -0.3949 -0.8452 -0.1706
   99MOL0     O13532   7.992   0.719   6.563  0.7700 -0.0016 -0.4031
   99MOL0     C13533   8.049   0.706   6.427  0.2331 -0.1989  0.2518
   99MOL0     C13534   8.012   0.569   6.371  0.3473 -0.2271  0.6134
   99MOL0     C13535   7.869   0.540   6.366 -0.1319  0.0078 -0.4714
   99MOL0     C13536   7.795   0.608   6.250  0.0141 -0.6354 -0.0606
   99MOL0     C13537   7.651   0.541   6.238 -0.4730 -0.0745 -0.6090
   99MOL0     C13538   7.574   0.557   6.369 -0.4644  0.3260 -0.4188
   99MOL0     C13539   7.437   0.502   6.347  0.1422  0.0540 -0.7882
   99MOL0     C13540   7.436   0.349   6.350 -0.1039 -0.2172 -0.7938
   99MOL0     N13541   7.301   0.313   6.333  0.0514 -0.8690  0.9162
   99MOL0     C13542   7.217   0.283   6.435  1.1059  0.1578 -0.3998
   99MOL0     C13543   7.118   0.202   6.389 -0.3744 -0.1437 -0.5401
   99MOL0     C13544   7.025   0.130   6.482  0.0926 -0.2134 -0.0294
   99MOL0     C13545   7.068  -0.004   6.525 -0.0794  0.7955 -0.2328
   99MOL0     C13546   7.021  -0.066   6.663  0.0583 -0.6677  1.1662
   99MOL0     C13547   7.008  -0.216   6.671 -0.6337  0.0364 -0.2797
   99MOL0     O13548   7.124  -0.290   6.623 -0.3134 -0.6815  0.4193
   99MOL0     C13549   7.121  -0.422   6.594  0.0303 -0.1147  0.7681
   99MOL0     C13550   7.003  -0.502   6.607 -0.3924 -0.0704 -0.5970
   99MOL0     C13551   7.007  -0.641   6.573  1.3488  0.5310 -0.7248
   99MOL0     C13552   6.878  -0.711   6.568  0.1445  0.2561 -0.2406
   99MOL0     C13553   7.135  -0.694   6.529  0.2175 -0.0763  0.0208
   99MOL0     C13554   7.148  -0.843   6.501  0.5278 -0.4915 -0.0252
   99MOL0     O13555   7.237  -0.883   6.404  0.7169 -0.3775 -0.8155
   99MOL0     C13556   7.246  -1.018   6.365  0.9625  0.0098  0.5786
   99MOL0     C13557   7.346  -1.103   6.416  0.1566  0.3896  1.1142
   99MOL0     C13558   7.354  -1.236   6.373  0.4816 -0.8696 -0.2061
   99MOL0     C13559   7.268  -1.284   6.280 -0.7766  0.8637  0.0874
   99MOL0     O13560   7.288  -1.418   6.240  0.8346  0.0674 -0.2336
   99MOL0     C13561   7.159  -1.484   6.262 -1.0113  0.6039  1.0123
   99MOL0     C13562   7.168  -1.631   6.219 -1.2254  0.7294  0.4385
   99MOL0     C13563   7.235  -1.725   6.320  0.1638 -0.2596  0.5809
   99MOL0     C13564   7.382  -1.684   6.354 -0.0227  0.1454 -0.1444
   99MOL0     C13565   7.481  -1.691   6.236  0.3299 -0.3383 -0.2924
   99MOL0     C13566   7.629  -1.688   6.280 -0.7210  0.2543  0.5621
   99MOL0     C13567   7.719  -1.731   6.161  0.0571 -0.5872  1.0289
   99MOL0     C13568   7.873  -1.725   6.191  0.2897 -0.0270  0.3614
   99MOL0    Cl13569   7.958  -1.812   6.065 -0.2731  0.2228  0.1670
   99MOL0     C13570   7.169  -1.206   6.228  0.2391 -0.2628  0.1177
   99MOL0     C13571   7.160  -1.070   6.262  0.3448 -0.4309  0.1679
   99MOL0     O13572   7.071  -0.918   6.560  0.3183 -0.1670  1.1035
   99MOL0     C13573   7.245  -0.607   6.517  0.2747  0.1860  0.1561
   99MOL0     C13574   7.241  -0.474   6.553  0.2248 -0.2808 -0.3450
   99MOL0     N13575   7.136   0.200   6.251 -0.0851 -0.2027 -0.4366
   99MOL0     N13576   7.238   0.266   6.221  0.7078 -0.3291 -0.3104
   99MOL0     C13577   7.784   0.813   6.600  0.8094 -0.4557 -0.6752
   99MOL0     C13578   7.685   0.908   6.585  0.0070  0.3696 -0.3380
   99MOL0     C13579   7.469   1.251   6.396  0.6271 -0.0310  0.1822
   99MOL0     C13580   7.416   1.317   6.506 -0.2877  0.1667 -1.1778
   99MOL0     C13581   7.331   1.421   6.499 -0.4955 -0.4763 -1.6212
   99MOL0     C13582   7.302   1.473   6.366  0.1261  0.3054 -0.9989
   99MOL0     O13583   7.212   1.567   6.362  0.8212 -0.0066  0.4353
   99MOL0     C13584   7.246   1.674   6.265  0.0840 -0.2747  0.1858
   99MOL0     C13585   7.183   1.808   6.319  1.0091 -0.6252  0.4621
   99MOL0     C13586   7.035   1.810   6.288  0.2757 -0.1033 -0.2950
   99MOL0     C13587   6.979   1.946   6.350 -0.5911  0.7597  0.2947
   99MOL0     C13588   6.855   1.973   6.283 -0.4531  0.6501 -0.9374
   99MOL0     C13589   6.748   2.000   6.242 -0.4066  0.3454  0.1644
   99MOL0     C13590   7.356   1.413   6.253 -1.0788 -0.4679  0.0371
   99MOL0     C13591   7.442   1.303   6.265 -1.4728 -0.1248 -0.8023
   99MOL0     C13592   7.507   1.238   6.137 -0.7142  0.9709 -0.8328
   99MOL0     H13593   7.884   1.150   6.470  0.5339 -0.0304  0.4874
   99MOL0     H13594   8.061   0.958   6.503  0.0621  0.9981 -0.1342
   99MOL0     H13595   8.157   0.717   6.438 -0.1123  2.6347  2.2692
   99MOL0     H13596   8.018   0.780   6.352  2.5997 -1.7745 -2.4535
   99MOL0     H13597   8.055   0.553   6.271 -1.2986 -2.6158  0.2079
   99MOL0     H13598   8.061   0.502   6.443  3.9247 -0.6719 -1.9617
   99MOL0     H13599   7.859   0.431   6.359 -1.4365  0.2041 -3.6268
   99MOL0     H13600   7.826   0.566   6.463  0.3130  3.7461 -1.1239
   99MOL0     H13601   7.783   0.714   6.274  0.8224  0.6769 -4.5207
   99MOL0     H13602   7.851   0.597   6.157  0.0346  0.3457 -0.1778
   99MOL0     H13603   7.668   0.435   6.219 -1.9417 -0.3870 -0.2983
   99MOL0     H13604   7.594   0.589   6.159  0.8548  2.0126 -0.3800
   99MOL0     H13605   7.620   0.510   6.457  4.1584  3.6364 -0.6968
   99MOL0     H13606   7.574   0.662   6.397  0.9086 -0.7643  4.7843
   99MOL0     H13607   7.386   0.531   6.255 -5.1532  1.3368  2.1278
   99MOL0     H13608   7.370   0.543   6.424  0.5427  1.1769 -1.0201
   99MOL0     H13609   7.509   0.318   6.276  0.2314 -1.6109  0.0822
   99MOL0     H13610   7.479   0.320   6.447 -0.6843 -0.6330 -0.6526
   99MOL0     H13611   7.237   0.293   6.541  0.6239 -1.0617 -0.1716
   99MOL0     H13612   6.927   0.124   6.434 -0.9590  2.8440  1.4540
   99MOL0     H13613   6.998   0.188   6.571 -0.7267  2.5773 -1.9677
   99MOL0     H13614   7.028  -0.077   6.454  0.1325 -0.5276  0.9534
   99MOL0     H13615   7.176  -0.016   6.541 -0.3591 -1.7210  0.3299
   99MOL0     H13616   7.089  -0.028   6.739  1.5339  1.7786 -1.1902
   99MOL0     H13617   6.922  -0.023   6.681 -0.3428 -2.1402  2.7029
   99MOL0     H13618   6.978  -0.252   6.769 -1.6112 -1.5351 -1.1117
   99MOL0     H13619   6.924  -0.234   6.604  0.2224  1.0334 -1.6835
   99MOL0     H13620   6.916  -0.456   6.652  1.7979  2.0386  1.9085
   99MOL0     H13621   6.869  -0.776   6.655 -1.8602  0.3182 -0.3489
   99MOL0     H13622   6.863  -0.774   6.480  1.6831 -3.1186  1.7170
   99MOL0     H13623   6.797  -0.637   6.564 -1.3819 -1.0266  3.0779
   99MOL0     H13624   7.416  -1.056   6.485 -1.2716  2.3246  1.3192
   99MOL0     H13625   7.427  -1.298   6.424 -0.4496 -4.0787 -2.4743
   99MOL0     H13626   7.134  -1.481   6.368  2.5594  0.1685  2.0092
   99MOL0     H13627   7.087  -1.445   6.190 -0.3292 -0.7714 -0.4727
   99MOL0     H13628   7.070  -1.675   6.195  0.0649 -1.4685 -1.1689
   99MOL0     H13629   7.218  -1.648   6.123 -2.7678  2.3139 -0.7017
   99MOL0     H13630   7.232  -1.829   6.285  2.6299 -0.6606  1.3544
   99MOL0     H13631   7.184  -1.724   6.416  1.7035 -0.9977  1.4374
   99MOL0     H13632   7.420  -1.755   6.428  1.7540 -1.0601 -2.1061
   99MOL0     H13633   7.383  -1.578   6.385  0.9730  0.2929 -0.6613
   99MOL0     H13634   7.469  -1.779   6.171 -0.3356 -0.8996  0.5667
   99MOL0     H13635   7.455  -1.610   6.168 -0.6402  0.0417  0.5061
   99MOL0     H13636   7.642  -1.748   6.370  2.5294  1.4885  1.0530
   99MOL0     H13637   7.663  -1.592   6.319  1.7298 -0.0481 -0.6296
   99MOL0     H13638   7.694  -1.657   6.085 -3.1246 -2.5567 -0.0254
   99MOL0     H13639   7.686  -1.831   6.132 -0.5052 -0.8715  2.5600
   99MOL0     H13640   7.910  -1.761   6.287  3.3504  3.0239  0.5293
   99MOL0     H13641   7.896  -1.618   6.189 -0.4706  0.2430 -3.6052
   99MOL0     H13642   7.100  -1.247   6.155  0.7089  3.4350 -2.6664
   99MOL0     H13643   7.078  -1.010   6.223  0.1145 -1.2692 -0.6862
   99MOL0     H13644   7.346  -0.636   6.491  0.4979  1.8937 -1.0463
   99MOL0     H13645   7.329  -0.415   6.530  1.5632 -2.4929 -1.1981
   99MOL0     H13646   7.756   0.717   6.643  0.6976 -0.6255 -1.1188
   99MOL0     H13647   7.583   0.904   6.622 -0.4268  1.4820 -1.3336
   99MOL0     H13648   7.451   1.270   6.597 -0.5879  2.7670  0.3955
   99MOL0     H13649   7.300   1.455   6.597  1.7486 -1.2333 -0.5910
   99MOL0     H13650   7.355   1.676   6.261  0.1920 -3.2680 -2.8681
   99MOL0     H13651   7.215   1.652   6.162  2.0917 -1.8250 -0.1379
   99MOL0     H13652   7.228   1.898   6.277 -3.2547  1.2228 -0.7336
   99MOL0     H13653   7.192   1.811   6.428 -1.6317  1.0784  0.7457
   99MOL0     H13654   7.019   1.814   6.180  1.1282 -3.2699 -0.6341
   99MOL0     H13655   6.989   1.732   6.349  1.9376  0.6074  2.0278
   99MOL0     H13656   7.047   2.030   6.335 -1.2351  1.5242  1.5645
   99MOL0     H13657   6.967   1.931   6.457  1.2743  2.9673  0.8904
   99MOL0     H13658   6.654   2.047   6.220  0.8872  3.3135  0.4124
   99MOL0     H13659   7.336   1.453   6.155 -0.9620 -0.3740  0.0519
   99MOL0     H13660   7.500   1.310   6.055 -1.7733  1.7542 -0.0917
   99MOL0     H13661   7.612   1.238   6.165 -1.4131 -0.3388  2.1672
   99MOL0     H13662   7.490   1.134   6.109  1.0511 -0.1184  1.7968
  100MOL0     O13663   3.381   0.055   5.104  0.7153  0.7540  0.5400
  100MOL0     C13664   3.285   0.066   5.185 -0.1849  0.6827 -1.2341
  100MOL0     O13665   3.156   0.065   5.149  0.1336 -0.6060  0.2151
  100MOL0     C13666   3.059   0.099   5.240  0.6404  0.7578 -0.3232
  100MOL0     C13667   3.003  -0.008   5.317 -0.4905  1.0205 -0.2718
  100MOL0     C13668   2.908   0.032   5.418 -0.6705 -0.3394  0.1683
  100MOL0     C13669   2.862   0.170   5.432  0.0541  0.7128 -1.4763
  100MOL0     O13670   2.781   0.216   5.538  0.5166 -0.1065 -0.1639
  100MOL0     C13671   2.769   0.148   5.667 -0.4928 -0.5044 -0.3044
  100MOL0     C13672   2.717   0.251   5.780 -0.4165 -0.1970  0.0891
  100MOL0     C13673   2.813   0.354   5.824 -0.5637  0.4341  0.1678
  100MOL0     C13674   2.789   0.398   5.966 -0.7852 -1.1806 -0.2440
  100MOL0     C13675   2.896   0.502   6.000 -0.8620 -0.0998 -0.3811
  100MOL0     C13676   2.881   0.545   6.148  0.0475  0.3125 -0.2189
  100MOL0     C13677   3.006   0.614   6.194 -0.3176  0.4268 -0.0588
  100MOL0     C13678   2.994   0.638   6.347 -0.8158 -1.1934 -0.7044
  100MOL0     N13679   2.986   0.512   6.435  0.2268  0.6359  0.8758
  100MOL0     C13680   2.891   0.467   6.522 -0.1182  0.3030  0.6393
  100MOL0     C13681   2.927   0.339   6.561 -0.4820 -0.6807 -0.7255
  100MOL0     C13682   2.883   0.255   6.682  0.1190 -0.5419 -0.4032
  100MOL0     C13683   2.756   0.313   6.744  0.2431 -0.1871 -0.2660
  100MOL0     C13684   2.737   0.265   6.886  0.0856  0.3600 -1.5440
  100MOL0     C13685   2.737   0.111   6.920 -0.3299 -0.3315 -0.2621
  100MOL0     O13686   2.851   0.050   6.965 -0.2011  0.0502 -0.2607
  100MOL0     C13687   2.888   0.056   7.093  0.1068  0.8420 -0.1949
  100MOL0     C13688   3.010  -0.011   7.123 -1.3661  0.0591  0.3500
  100MOL0     C13689   3.063  -0.004   7.252 -1.1369 -0.5895  0.4428
  100MOL0     C13690   3.204  -0.062   7.287  0.4867 -0.2471  0.6608
  100MOL0     C13691   3.001   0.082   7.351  0.2620 -0.5696  0.5658
  100MOL0     C13692   3.063   0.109   7.482 -0.0495 -0.7921 -0.1759
  100MOL0     O13693   2.962   0.126   7.575  0.9181 -0.1285  0.0121
  100MOL0     C13694   3.001   0.123   7.707 -0.1596 -0.6925 -0.2580
  100MOL0     C13695   3.047   0.011   7.771 -0.0629  0.5022 -0.1016
  100MOL0     C13696   3.101   0.028   7.903  0.4476  0.6666  0.8906
  100MOL0     C13697   3.086   0.146   7.979 -0.6237 -0.0424  0.8433
  100MOL0     O13698   3.140   0.167   8.101 -0.4551  0.2482 -0.4623
  100MOL0     C13699   3.049   0.143   8.209 -0.1219 -0.3175  0.3794
  100MOL0     C13700   3.053   0.009   8.279 -0.0501  0.5659 -0.7929
  100MOL0     C13701   2.918  -0.026   8.354  0.2572 -1.1362  0.1900
  100MOL0     C13702   2.914  -0.146   8.464 -0.5691 -0.3631  0.3474
  100MOL0     C13703   2.863  -0.100   8.598 -0.4463 -0.1542  0.6110
  100MOL0     C13704   2.809  -0.209   8.688  0.0961 -0.0829 -0.2014
  100MOL0     C13705   2.786  -0.155   8.829  0.8010  0.3588  0.3544
  100MOL0     C13706   2.688  -0.233   8.911  0.6303 -0.4319 -0.0869
  100MOL0    Cl13707   2.615  -0.129   9.025  0.4009 -0.4428  0.0051
  100MOL0     C13708   3.026   0.254   7.907  0.1128 -0.5570 -0.2513
  100MOL0     C13709   2.992   0.250   7.774  0.3328  0.3825  0.3909
  100MOL0     O13710   3.185   0.114   7.500 -0.1557 -0.4855 -0.0106
  100MOL0     C13711   2.874   0.134   7.318  0.1719 -0.9421 -0.7103
  100MOL0     C13712   2.821   0.124   7.198 -0.1454 -0.7067 -0.5330
  100MOL0     N13713   3.035   0.310   6.493 -0.0957  1.0593  0.5869
  100MOL0     N13714   3.065   0.404   6.417  0.0119  0.0247 -0.4933
  100MOL0     C13715   2.921   0.262   5.359  0.9669  0.1203  0.0486
  100MOL0     C13716   3.011   0.230   5.254  0.3674  0.2421 -0.3527
  100MOL0     C13717   3.341   0.099   5.324  0.2317  0.1418  1.2379
  100MOL0     C13718   3.344  -0.006   5.416  0.6458  0.3634 -0.9620
  100MOL0     C13719   3.417   0.011   5.537  0.1700 -0.1074  0.0503
  100MOL0     C13720   3.477   0.129   5.575 -0.5089 -0.1216  1.0353
  100MOL0     O13721   3.564   0.154   5.679 -0.3169 -0.0872  0.2949
  100MOL0     C13722   3.611   0.058   5.782  0.6146 -0.2816  0.4826
  100MOL0     C13723   3.743  -0.008   5.751 -0.3559 -0.7258 -0.0472
  100MOL0     C13724   3.753  -0.135   5.846  0.0226 -0.0369 -0.1683
  100MOL0     C13725   3.885  -0.209   5.796  0.3404 -0.6091  0.3155
  100MOL0     C13726   3.877  -0.328   5.885 -1.0373  0.1210  0.1997
  100MOL0     C13727   3.863  -0.432   5.945  0.1048  0.2564 -1.4362
  100MOL0     C13728   3.455   0.242   5.483  0.9217  0.3607 -0.3769
  100MOL0     C13729   3.391   0.228   5.357  0.7667 -0.3354  0.2652
  100MOL0     C13730   3.398   0.341   5.253 -0.0404  0.1257 -0.0184
  100MOL0     H13731   3.057  -0.102   5.310  1.5258  2.0953  0.0593
  100MOL0     H13732   2.884  -0.023   5.508 -0.4717 -0.7866 -0.0460
  100MOL0     H13733   2.862   0.100   5.700 -1.1544 -0.3261  2.0111
  100MOL0     H13734   2.692   0.071   5.659 -0.8489 -0.1668 -0.1493
  100MOL0     H13735   2.636   0.313   5.739 -0.1801  0.6420  0.8538
  100MOL0     H13736   2.674   0.199   5.866 -3.7923  2.2260  0.0880
  100MOL0     H13737   2.912   0.310   5.807  0.5414  2.8118 -0.0147
  100MOL0     H13738   2.812   0.445   5.762  2.7662  0.4741 -0.0073
  100MOL0     H13739   2.687   0.436   5.966 -0.4420  0.0529 -3.5194
  100MOL0     H13740   2.798   0.317   6.040 -2.3822 -1.5059 -0.3663
  100MOL0     H13741   2.886   0.595   5.943 -2.1407 -1.4343 -2.4534
  100MOL0     H13742   2.992   0.452   5.995  0.0880  1.7460 -2.3642
  100MOL0     H13743   2.792   0.604   6.170  0.6949  0.6429  1.7788
  100MOL0     H13744   2.879   0.452   6.205  2.4071  0.5612  0.3714
  100MOL0     H13745   3.014   0.709   6.139 -0.4480  1.6245  1.9099
  100MOL0     H13746   3.094   0.553   6.171 -0.5094  0.0553  0.1892
  100MOL0     H13747   3.079   0.699   6.380 -1.4747  0.8847 -2.5563
  100MOL0     H13748   2.904   0.696   6.366 -0.3176 -0.5666 -0.2186
  100MOL0     H13749   2.806   0.517   6.569  0.2197  0.6159  0.9192
  100MOL0     H13750   2.957   0.243   6.761 -0.5598 -0.6943  0.2176
  100MOL0     H13751   2.859   0.155   6.644  3.4916 -1.5215 -0.2198
  100MOL0     H13752   2.776   0.420   6.750  3.0730 -0.3367 -3.6725
  100MOL0     H13753   2.671   0.291   6.679  1.0124 -0.9855 -1.0308
  100MOL0     H13754   2.816   0.312   6.945  0.2949  1.4042 -2.6158
  100MOL0     H13755   2.643   0.305   6.925 -0.1801 -2.1037  0.6309
  100MOL0     H13756   2.656   0.092   6.990  1.9416 -0.8243  2.4414
  100MOL0     H13757   2.708   0.058   6.829 -2.0843 -1.3027  0.8184
  100MOL0     H13758   3.067  -0.063   7.047 -1.5692  2.9706 -1.9588
  100MOL0     H13759   3.199  -0.093   7.391  1.2991 -0.9929  0.4881
  100MOL0     H13760   3.279   0.016   7.273  1.1397 -0.9705  0.0312
  100MOL0     H13761   3.227  -0.149   7.225 -4.6375  0.2637 -2.5921
  100MOL0     H13762   3.060  -0.076   7.708  0.1612  2.0025 -2.2313
  100MOL0     H13763   3.159  -0.057   7.938 -0.6308 -1.3696 -1.9360
  100MOL0     H13764   3.073   0.220   8.283  0.2721  2.4924 -2.4465
  100MOL0     H13765   2.946   0.162   8.177  0.1660  0.8778  0.1373
  100MOL0     H13766   3.093  -0.076   8.222  1.3118  1.5862 -1.4258
  100MOL0     H13767   3.128   0.026   8.357  0.6549  3.6637 -1.9735
  100MOL0     H13768   2.836  -0.034   8.283  0.3865 -0.2347 -0.0827
  100MOL0     H13769   2.896   0.063   8.413  2.9758 -0.4345  0.3159
  100MOL0     H13770   3.005  -0.205   8.481  1.5552  2.2730 -1.0288
  100MOL0     H13771   2.831  -0.212   8.438  0.5989 -2.4350  1.6586
  100MOL0     H13772   2.929  -0.029   8.648  3.1407 -1.7280 -1.5339
  100MOL0     H13773   2.778  -0.038   8.567  1.8782  3.3224  0.7311
  100MOL0     H13774   2.880  -0.292   8.688  0.8123  0.4791 -2.0531
  100MOL0     H13775   2.717  -0.242   8.638  2.0093 -0.9771 -3.3944
  100MOL0     H13776   2.737  -0.059   8.809 -0.6736 -0.9090 -2.9631
  100MOL0     H13777   2.879  -0.147   8.885  0.1384 -0.6646  1.6505
  100MOL0     H13778   2.741  -0.318   8.954 -2.1817 -2.1503  0.1816
  100MOL0     H13779   2.605  -0.272   8.852 -0.4914  1.9924 -0.2704
  100MOL0     H13780   3.019   0.342   7.971 -0.5252 -1.0372  0.3435
  100MOL0     H13781   2.962   0.339   7.719  0.9449  0.9513  0.9617
  100MOL0     H13782   2.812   0.194   7.384  2.1876  4.1344 -2.8704
  100MOL0     H13783   2.728   0.176   7.179 -0.9300 -1.9214 -0.1388
  100MOL0     H13784   2.899   0.367   5.372 -1.7479 -0.2429 -0.8607
  100MOL0     H13785   3.048   0.306   5.185  1.6144  0.5785  0.6509
  100MOL0     H13786   3.309  -0.109   5.410  0.0278  0.4960  0.0718
  100MOL0     H13787   3.419  -0.076   5.603  2.0868 -1.3591 -1.5498
  100MOL0     H13788   3.621   0.112   5.877 -0.9461 -0.9583  1.0688
  100MOL0     H13789   3.529  -0.010   5.805 -0.5992  0.4780 -1.4268
  100MOL0     H13790   3.831   0.049   5.783 -1.1249 -0.6223  2.0236
  100MOL0     H13791   3.757  -0.014   5.643  2.6138  4.0873 -0.1930
  100MOL0     H13792   3.762  -0.102   5.950 -3.5703  0.6869  0.0569
  100MOL0     H13793   3.672  -0.209   5.847  1.1033 -1.2960 -1.3092
  100MOL0     H13794   3.970  -0.143   5.816 -1.9739  2.7385 -0.0697
  100MOL0     H13795   3.882  -0.242   5.692  0.4615  1.2891 -0.3251
  100MOL0     H13796   3.859  -0.519   6.008 -0.3553  1.1993 -0.1186
  100MOL0     H13797   3.501   0.335   5.513  1.3915  0.2398 -0.7030
  100MOL0     H13798   3.412   0.438   5.302  1.0302 -1.2818  2.6307
  100MOL0     H13799   3.473   0.326   5.174 -0.9600  4.2824 -1.9978
  100MOL0     H13800   3.299   0.349   5.206 -0.2811 -0.7876  0.3337
  101MOL0     O13801   9.008   9.187   5.178  0.2490 -0.1278 -0.8260
  101MOL0     C13802   9.063   9.219   5.078 -0.1678 -0.6713 -0.6518
  101MOL0     O13803   9.008   9.193   4.954 -0.2357 -0.0903  0.5570
  101MOL0     C13804   8.936   9.080   4.952 -0.0517  0.0724  0.2257
  101MOL0     C13805   8.989   8.957   4.989  0.2526 -0.2781  0.1842
  101MOL0     C13806   8.918   8.842   4.967  0.2175  0.4838 -0.6470
  101MOL0     C13807   8.791   8.839   4.902  0.0966  0.3007 -0.0586
  101MOL0     O13808   8.704   8.726   4.898 -0.0098 -0.1062  0.4837
  101MOL0     C13809   8.763   8.595   4.911  0.7965 -0.3196 -0.3451
  101MOL0     C13810   8.855   8.565   4.793  0.2976  0.6152 -0.5558
  101MOL0     C13811   8.795   8.598   4.658 -0.4178  0.1456  1.3611
  101MOL0     C13812   8.660   8.520   4.611 -0.7871  0.3473 -1.0938
  101MOL0     C13813   8.625   8.550   4.459 -0.4995 -0.4498  0.5494
  101MOL0     C13814   8.599   8.704   4.452  1.0473 -0.2671 -0.4386
  101MOL0     C13815   8.550   8.742   4.317  0.1426  0.2370  0.7498
  101MOL0     C13816   8.536   8.900   4.313 -0.2832  1.2360 -0.1310
  101MOL0     N13817   8.457   8.958   4.202  0.1028  0.3237  0.0359
  101MOL0     C13818   8.341   8.913   4.152 -0.1269 -0.1154  0.4603
  101MOL0     C13819   8.308   8.995   4.055  0.6868 -0.9806  0.3816
  101MOL0     C13820   8.187   8.977   3.957  0.9305  0.4119 -0.1037
  101MOL0     C13821   8.089   8.872   4.013  0.0235 -0.0542  0.2058
  101MOL0     C13822   7.966   8.827   3.925 -0.0149  0.3576  0.2985
  101MOL0     C13823   7.885   8.711   3.981 -0.1777  0.5070 -0.7042
  101MOL0     O13824   7.960   8.585   3.996 -0.0079 -0.1775 -0.2881
  101MOL0     C13825   8.016   8.519   3.898 -0.7138 -0.5421  0.1924
  101MOL0     C13826   8.087   8.407   3.942 -0.0239 -0.0811 -0.0708
  101MOL0     C13827   8.149   8.313   3.848  0.1167  0.4085  0.2110
  101MOL0     C13828   8.232   8.211   3.901 -0.4899  0.6991 -1.8094
  101MOL0     C13829   8.115   8.328   3.709  0.0557  0.7362 -0.0109
  101MOL0     C13830   8.153   8.240   3.601 -0.6597 -0.1160  0.1827
  101MOL0     O13831   8.111   8.277   3.476  0.8538 -0.9152  0.6439
  101MOL0     C13832   8.177   8.226   3.369 -0.4364  0.9552 -1.3396
  101MOL0     C13833   8.181   8.088   3.342  0.2057  1.1038 -0.3447
  101MOL0     C13834   8.253   8.034   3.239  0.2223 -0.0932 -0.2639
  101MOL0     C13835   8.330   8.121   3.158 -0.8079 -0.3142  0.1100
  101MOL0     O13836   8.404   8.068   3.057  0.1197 -0.2516  0.4897
  101MOL0     C13837   8.510   7.982   3.109 -0.1096  0.0051  0.8497
  101MOL0     C13838   8.572   7.890   3.014  0.3598  0.2126 -0.5437
  101MOL0     C13839   8.463   7.812   2.942  0.4667  0.2170 -0.1220
  101MOL0     C13840   8.523   7.687   2.874  0.0506 -0.0832 -0.1431
  101MOL0     C13841   8.433   7.616   2.775 -0.1913 -0.1410 -0.4413
  101MOL0     C13842   8.317   7.553   2.849 -1.1213 -0.0004  0.8821
  101MOL0     C13843   8.191   7.651   2.835 -0.7173  0.2725 -0.1827
  101MOL0     C13844   8.097   7.629   2.950 -0.1464 -0.8884  0.2046
  101MOL0    Cl13845   8.014   7.470   2.939  0.1147 -0.0434  0.2587
  101MOL0     C13846   8.328   8.259   3.177 -0.8774 -0.2528  0.2235
  101MOL0     C13847   8.256   8.309   3.281  0.7847 -0.4953 -0.5370
  101MOL0     O13848   8.198   8.133   3.632 -0.1215 -0.7198  0.7224
  101MOL0     C13849   8.035   8.443   3.668 -0.0821  0.5357 -0.7201
  101MOL0     C13850   7.990   8.538   3.763 -0.0491  0.3205  0.5181
  101MOL0     N13851   8.404   9.096   4.041  0.5371  0.5452 -0.3191
  101MOL0     N13852   8.496   9.072   4.135 -0.2515 -1.0153 -0.3138
  101MOL0     C13853   8.742   8.966   4.860 -0.0628 -0.0223 -0.8370
  101MOL0     C13854   8.816   9.080   4.882 -0.1597 -0.8209 -0.3861
  101MOL0     C13855   9.186   9.296   5.085  0.2932 -0.3963 -0.6938
  101MOL0     C13856   9.265   9.321   4.965  0.6142  0.6328 -0.9310
  101MOL0     C13857   9.391   9.375   4.969 -0.0914  0.0249 -0.4258
  101MOL0     C13858   9.451   9.413   5.085  0.0418  0.4967 -0.1943
  101MOL0     O13859   9.578   9.476   5.084  0.4032  0.3272 -0.5508
  101MOL0     C13860   9.584   9.613   5.048  0.4869  1.1193 -0.7212
  101MOL0     C13861   9.721   9.656   5.096  0.4621 -1.0452 -0.1897
  101MOL0     C13862   9.830   9.566   5.030  1.1692 -0.1188  0.4892
  101MOL0     C13863   9.947   9.650   4.984 -0.1180  0.6508 -0.9707
  101MOL0     C13864   9.925   9.745   4.878 -0.7314 -0.5690  0.3178
  101MOL0     C13865   9.908   9.838   4.799  0.1746  0.4208  0.7218
  101MOL0     C13866   9.376   9.415   5.202  0.0530 -0.5574 -0.2194
  101MOL0     C13867   9.242   9.359   5.204 -0.2545 -0.2478 -0.2851
  101MOL0     C13868   9.173   9.359   5.335  0.7553 -1.2726  0.0868
  101MOL0     H13869   9.082   8.927   5.034  0.5926 -2.1145 -1.5694
  101MOL0     H13870   8.957   8.754   5.016  1.4564  1.3163 -0.0747
  101MOL0     H13871   8.672   8.535   4.899 -1.0343  2.3760 -0.8405
  101MOL0     H13872   8.786   8.590   5.017 -1.3216 -1.7727  0.1186
  101MOL0     H13873   8.948   8.623   4.797  1.8837 -1.8730  1.9795
  101MOL0     H13874   8.888   8.461   4.801 -0.5233  0.3793 -0.1428
  101MOL0     H13875   8.787   8.706   4.646  0.9827  0.3547  2.1100
  101MOL0     H13876   8.877   8.572   4.591 -1.8625  1.4949 -1.0472
  101MOL0     H13877   8.680   8.412   4.612 -0.4158  0.4132 -0.9730
  101MOL0     H13878   8.577   8.548   4.676 -0.0758 -1.3877  0.6722
  101MOL0     H13879   8.534   8.495   4.431 -0.9716  1.3330 -1.7361
  101MOL0     H13880   8.700   8.533   4.381  1.6180  2.6798  1.6864
  101MOL0     H13881   8.528   8.733   4.529 -2.2254 -0.5187 -3.1210
  101MOL0     H13882   8.694   8.757   4.461 -0.3485  2.2536  0.3428
  101MOL0     H13883   8.459   8.687   4.294  0.8260 -0.4006 -0.5892
  101MOL0     H13884   8.618   8.694   4.246 -3.8473 -3.8096 -0.8322
  101MOL0     H13885   8.477   8.927   4.401 -1.9190  2.7107 -1.5854
  101MOL0     H13886   8.640   8.933   4.312  0.9631 -2.2055  0.8705
  101MOL0     H13887   8.291   8.824   4.190  1.9694 -1.5321  0.0243
  101MOL0     H13888   8.223   8.936   3.861  1.5041 -2.8757  1.3596
  101MOL0     H13889   8.149   9.076   3.930  1.1387  0.4821 -0.1389
  101MOL0     H13890   8.156   8.787   4.029  0.7425  0.9630  3.2390
  101MOL0     H13891   8.047   8.911   4.106  1.1361  2.0556 -0.1138
  101MOL0     H13892   7.911   8.922   3.923  1.3381  1.2791  2.6306
  101MOL0     H13893   8.008   8.809   3.826  1.3603  1.3870  0.6631
  101MOL0     H13894   7.848   8.747   4.077  0.2507  0.6199 -0.5823
  101MOL0     H13895   7.797   8.707   3.916  0.8493  2.9538 -2.3661
  101MOL0     H13896   8.106   8.401   4.048 -0.6062 -1.1973 -0.0086
  101MOL0     H13897   8.239   8.224   4.009  0.3817 -0.6489 -1.6854
  101MOL0     H13898   8.333   8.224   3.863  0.9069 -0.1586  1.2835
  101MOL0     H13899   8.193   8.111   3.882 -0.5976  0.4098 -0.2163
  101MOL0     H13900   8.133   8.025   3.416  0.5577  2.4493  1.0897
  101MOL0     H13901   8.243   7.929   3.213  0.0919  0.0380 -0.7523
  101MOL0     H13902   8.595   8.033   3.155 -1.7168  1.0876  2.7155
  101MOL0     H13903   8.472   7.926   3.195  2.1217 -1.2431  1.0941
  101MOL0     H13904   8.614   7.958   2.939 -3.7032  1.5912 -1.8540
  101MOL0     H13905   8.647   7.824   3.057 -1.6783 -1.4023  0.6961
  101MOL0     H13906   8.403   7.875   2.875 -2.4061 -1.5179  0.6378
  101MOL0     H13907   8.390   7.775   3.014  0.4101  2.2856  0.9290
  101MOL0     H13908   8.550   7.619   2.955  1.1942  0.7716  0.2155
  101MOL0     H13909   8.607   7.707   2.807 -0.8078 -2.6150 -2.1707
  101MOL0     H13910   8.404   7.677   2.689 -1.9409 -1.5450 -0.8922
  101MOL0     H13911   8.489   7.528   2.742 -0.4079 -0.4272 -0.0551
  101MOL0     H13912   8.334   7.533   2.955 -0.4429  1.4428  1.0733
  101MOL0     H13913   8.288   7.459   2.800 -1.7298 -2.1725  4.9813
  101MOL0     H13914   8.137   7.625   2.744  0.3316 -1.4236 -0.3702
  101MOL0     H13915   8.223   7.756   2.835  1.9377 -0.4094 -2.2028
  101MOL0     H13916   8.024   7.711   2.958  0.7527 -0.1369  0.9744
  101MOL0     H13917   8.156   7.637   3.042 -0.4553  4.6870  0.2451
  101MOL0     H13918   8.379   8.325   3.107 -1.9081 -1.0628 -1.3399
  101MOL0     H13919   8.269   8.412   3.312  1.0693 -0.8129  0.4750
  101MOL0     H13920   8.001   8.459   3.566 -2.6139  2.2207  0.2912
  101MOL0     H13921   7.958   8.633   3.721  2.6229 -0.7301 -4.7065
  101MOL0     H13922   8.642   8.958   4.818 -1.3085 -1.8737  2.1074
  101MOL0     H13923   8.775   9.170   4.836 -2.7875 -1.7560 -0.0376
  101MOL0     H13924   9.227   9.291   4.868  2.2600  0.0332 -1.4100
  101MOL0     H13925   9.444   9.386   4.875 -0.7442  0.8595 -0.6997
  101MOL0     H13926   9.570   9.621   4.940 -1.5822 -1.0294 -0.7076
  101MOL0     H13927   9.502   9.673   5.088  1.1970  1.0201  0.9608
  101MOL0     H13928   9.724   9.643   5.205 -0.6088 -0.4425 -0.0732
  101MOL0     H13929   9.741   9.760   5.070  1.1231 -0.7484  1.3517
  101MOL0     H13930   9.868   9.487   5.095 -1.5183 -0.4511  1.7996
  101MOL0     H13931   9.779   9.529   4.940  0.3747  0.2327  0.7866
  101MOL0     H13932  10.017   9.575   4.945 -1.1651 -2.6320  2.7607
  101MOL0     H13933   9.992   9.708   5.064 -0.9912 -0.8847  0.7060
  101MOL0     H13934   9.896   9.920   4.730 -0.4433  0.6105  1.0513
  101MOL0     H13935   9.416   9.428   5.302 -0.2295 -2.6791  0.2198
  101MOL0     H13936   9.178   9.258   5.377 -2.8015 -0.3890  3.1454
  101MOL0     H13937   9.220   9.426   5.407 -0.6988  1.0938 -1.0493
  101MOL0     H13938   9.065   9.374   5.330  0.4680 -3.4170 -2.0124
  102MOL0     O13939   9.085   5.893   8.256  0.2708 -0.9151 -0.7440
  102MOL0     C13940   9.051   5.834   8.156  0.1552  0.2527  0.2443
  102MOL0     O13941   9.126   5.736   8.097 -0.2194 -0.2158  0.9862
  102MOL0     C13942   9.261   5.725   8.154 -0.6186 -0.4747 -0.0851
  102MOL0     C13943   9.307   5.615   8.228  0.2135 -0.1618 -0.7533
  102MOL0     C13944   9.431   5.612   8.288  0.3343 -0.4560 -0.0623
  102MOL0     C13945   9.518   5.723   8.280 -0.1174  0.3899  0.6553
  102MOL0     O13946   9.639   5.743   8.338  0.0300  0.4758  0.3581
  102MOL0     C13947   9.646   5.736   8.478 -0.0355 -0.3359  0.1966
  102MOL0     C13948   9.709   5.865   8.518 -1.1334 -0.6106 -0.0859
  102MOL0     C13949   9.615   5.985   8.511  0.7619  0.7228 -0.4126
  102MOL0     C13950   9.489   5.962   8.588 -0.0463 -0.6304  0.8799
  102MOL0     C13951   9.401   6.085   8.591 -0.7055 -0.9664 -0.3242
  102MOL0     C13952   9.323   6.100   8.453 -0.5703 -0.0538 -0.0251
  102MOL0     C13953   9.227   6.215   8.458  0.8619 -0.6416 -0.3205
  102MOL0     C13954   9.186   6.253   8.321 -0.4081 -0.3749  0.9330
  102MOL0     N13955   9.138   6.395   8.316 -0.1931  0.3922  0.2842
  102MOL0     C13956   9.214   6.508   8.331 -0.2377 -1.1120 -0.4288
  102MOL0     C13957   9.132   6.614   8.377 -0.9178 -0.3728  0.3946
  102MOL0     C13958   9.183   6.753   8.417 -0.3351  0.4801 -0.0962
  102MOL0     C13959   9.160   6.768   8.567  0.5757 -0.2832  0.2442
  102MOL0     C13960   9.189   6.907   8.617 -0.2912 -1.2401  0.2831
  102MOL0     C13961   9.133   6.940   8.758 -0.2634  0.9110  0.0954
  102MOL0     O13962   9.165   6.829   8.840  0.5385  1.0315 -0.5663
  102MOL0     C13963   9.077   6.723   8.879  0.5577  0.5256  0.9368
  102MOL0     C13964   9.125   6.635   8.976  1.2689  0.3509 -0.9969
  102MOL0     C13965   9.053   6.517   9.013 -0.1523 -0.8506 -0.6678
  102MOL0     C13966   9.115   6.432   9.124  0.3723  1.0572  0.7341
  102MOL0     C13967   8.925   6.502   8.960  0.9848  0.2711 -0.8544
  102MOL0     C13968   8.831   6.394   8.991  0.3368  0.0619 -1.0152
  102MOL0     O13969   8.742   6.358   8.899  0.1180 -0.2506  0.0756
  102MOL0     C13970   8.644   6.265   8.929  0.3117  0.6816 -0.4450
  102MOL0     C13971   8.539   6.276   9.028  0.7937 -0.5412 -0.0434
  102MOL0     C13972   8.446   6.178   9.052  0.1447 -0.1776  0.0990
  102MOL0     C13973   8.450   6.053   8.983 -0.7264  0.2777  0.0027
  102MOL0     O13974   8.355   5.955   9.001 -0.4389  0.5749  0.5327
  102MOL0     C13975   8.265   5.968   9.114 -0.3549 -0.6368 -0.0619
  102MOL0     C13976   8.215   5.823   9.135 -0.4140 -0.7886  0.1319
  102MOL0     C13977   8.090   5.811   9.219 -0.0543  0.2154 -0.4901
  102MOL0     C13978   7.963   5.839   9.146  0.0717 -0.0600  0.6024
  102MOL0     C13979   7.835   5.865   9.226 -0.0054  0.5157 -0.3414
  102MOL0     C13980   7.761   5.976   9.160  0.8016 -0.8608 -0.4627
  102MOL0     C13981   7.640   6.019   9.243 -0.1637  0.0250  0.3465
  102MOL0     C13982   7.611   6.171   9.251  0.6411 -0.1289 -0.0212
  102MOL0    Cl13983   7.706   6.259   9.375 -0.2308  0.4572  0.2874
  102MOL0     C13984   8.541   6.041   8.877 -0.1016  0.3043  0.2505
  102MOL0     C13985   8.635   6.147   8.858 -0.0132 -0.3198  0.2268
  102MOL0     O13986   8.812   6.373   9.111 -0.1911  0.5344 -0.3093
  102MOL0     C13987   8.878   6.594   8.864  0.3982  0.0347  0.1044
  102MOL0     C13988   8.952   6.699   8.820 -0.4844 -0.8726 -0.1322
  102MOL0     N13989   9.009   6.567   8.345  0.3622 -0.0895  0.6500
  102MOL0     N13990   9.013   6.444   8.321  0.5648  0.9836  0.2839
  102MOL0     C13991   9.470   5.828   8.194 -0.0166 -0.2613  0.8720
  102MOL0     C13992   9.345   5.830   8.146  0.8469  0.3302  1.1611
  102MOL0     C13993   8.934   5.876   8.086 -0.1546 -0.5139  1.0489
  102MOL0     C13994   8.844   5.964   8.154  0.0193  0.2073 -0.6387
  102MOL0     C13995   8.735   6.010   8.099  0.8988 -0.1025  0.2716
  102MOL0     C13996   8.706   5.972   7.962 -1.3422 -0.2858  0.2978
  102MOL0     O13997   8.591   6.029   7.912  0.1556  0.9747 -0.0274
  102MOL0     C13998   8.574   6.018   7.765 -0.3480 -0.0364  0.5087
  102MOL0     C13999   8.448   6.086   7.733 -0.6695 -0.3336 -0.3871
  102MOL0     C14000   8.471   6.238   7.715  0.5050 -0.5621 -0.0030
  102MOL0     C14001   8.497   6.307   7.858 -0.2555  0.2198 -0.6685
  102MOL0     C14002   8.445   6.443   7.867  0.7026 -0.8360  0.2327
  102MOL0     C14003   8.413   6.558   7.855  0.5516 -0.6159 -0.3756
  102MOL0     C14004   8.796   5.893   7.886  0.3277  0.3458  0.0522
  102MOL0     C14005   8.909   5.839   7.940 -0.7645  0.3570 -0.3839
  102MOL0     C14006   9.010   5.759   7.849  0.2871 -0.2484 -0.1173
  102MOL0     H14007   9.247   5.526   8.244  0.7308 -0.3578  0.1772
  102MOL0     H14008   9.456   5.536   8.362 -1.0762  1.4225  2.4807
  102MOL0     H14009   9.714   5.653   8.498 -0.3755 -0.9048 -0.9287
  102MOL0     H14010   9.553   5.730   8.535  0.7948  2.4197  2.0756
  102MOL0     H14011   9.741   5.849   8.622 -0.2286  0.7266 -0.1294
  102MOL0     H14012   9.793   5.889   8.453 -0.5381 -1.6176  0.2858
  102MOL0     H14013   9.656   6.078   8.551 -1.3463  0.3103  3.0602
  102MOL0     H14014   9.585   5.992   8.406 -1.0819  1.3886  0.1218
  102MOL0     H14015   9.429   5.890   8.532  0.0327 -0.9313  1.1806
  102MOL0     H14016   9.501   5.922   8.689  2.6839 -2.9559 -0.2296
  102MOL0     H14017   9.461   6.175   8.607 -0.1250 -1.7796  2.6809
  102MOL0     H14018   9.333   6.082   8.677  1.7248  2.6858  2.0290
  102MOL0     H14019   9.391   6.115   8.369  0.3997 -0.9944  0.5790
  102MOL0     H14020   9.268   6.007   8.436 -1.4788  0.9971 -3.5161
  102MOL0     H14021   9.266   6.303   8.509 -2.5216  0.9197 -0.1328
  102MOL0     H14022   9.133   6.188   8.508  1.7999 -0.9769  1.3235
  102MOL0     H14023   9.277   6.233   8.264 -0.7614 -1.6571  0.7786
  102MOL0     H14024   9.098   6.191   8.299  0.3238 -1.4081  0.8524
  102MOL0     H14025   9.322   6.513   8.335 -0.0458 -3.4886  3.5354
  102MOL0     H14026   9.140   6.832   8.354  1.0578 -0.0918 -1.8783
  102MOL0     H14027   9.289   6.755   8.388 -0.3519  3.0448 -0.2852
  102MOL0     H14028   9.051   6.755   8.568  0.3258  1.4069 -0.7477
  102MOL0     H14029   9.225   6.691   8.610  0.8294 -1.7635 -2.5127
  102MOL0     H14030   9.298   6.919   8.617 -0.3370 -0.1519 -2.1871
  102MOL0     H14031   9.144   6.977   8.546  0.4641 -0.4345  0.5935
  102MOL0     H14032   9.182   7.029   8.797  0.5657 -0.0759  1.3531
  102MOL0     H14033   9.025   6.950   8.742 -0.4693 -1.6653 -0.5903
  102MOL0     H14034   9.220   6.658   9.024 -1.4068  1.7728  4.4527
  102MOL0     H14035   9.051   6.440   9.213  0.5720 -0.8296  1.0919
  102MOL0     H14036   9.212   6.472   9.154  0.5896  2.0170 -1.1001
  102MOL0     H14037   9.125   6.326   9.097 -1.3203  0.8119  0.9481
  102MOL0     H14038   8.534   6.355   9.101 -0.4003 -0.5019 -0.1376
  102MOL0     H14039   8.369   6.196   9.127  0.6016  2.7900 -0.0432
  102MOL0     H14040   8.318   5.989   9.208  1.0378 -1.1580 -0.7142
  102MOL0     H14041   8.183   6.038   9.094  0.0380 -0.2939 -0.4877
  102MOL0     H14042   8.184   5.784   9.037 -3.0277  2.7777 -0.6847
  102MOL0     H14043   8.291   5.751   9.166 -2.2307 -3.0265 -0.3405
  102MOL0     H14044   8.104   5.889   9.295  4.3951  0.0074 -0.8393
  102MOL0     H14045   8.080   5.710   9.260  0.4000  1.3838  2.7543
  102MOL0     H14046   7.953   5.765   9.066 -1.3171  0.7910 -0.0476
  102MOL0     H14047   7.977   5.930   9.088 -4.6938  0.6057  0.1073
  102MOL0     H14048   7.766   5.781   9.236  0.3203  0.1294 -1.2246
  102MOL0     H14049   7.868   5.893   9.326  2.0070  2.5199 -1.4582
  102MOL0     H14050   7.724   5.955   9.059 -4.6805  2.6806  0.3928
  102MOL0     H14051   7.831   6.058   9.137  1.9507 -2.6239 -4.1220
  102MOL0     H14052   7.648   5.986   9.347  0.9330  1.6949  0.8393
  102MOL0     H14053   7.547   5.974   9.208  0.6168 -3.8199  2.6890
  102MOL0     H14054   7.504   6.174   9.273  0.7034 -1.5176  0.5672
  102MOL0     H14055   7.630   6.231   9.161 -0.6452  2.6426  1.4281
  102MOL0     H14056   8.542   5.955   8.811 -1.5254 -0.4085  1.1095
  102MOL0     H14057   8.705   6.143   8.775 -0.3533  1.4329 -0.1978
  102MOL0     H14058   8.778   6.590   8.821  0.3292  4.0136 -0.5244
  102MOL0     H14059   8.907   6.764   8.745  0.3065 -1.5985 -1.2594
  102MOL0     H14060   9.533   5.916   8.188  0.2544 -0.1589  4.0003
  102MOL0     H14061   9.306   5.921   8.100 -1.4895 -2.1356 -2.1601
  102MOL0     H14062   8.873   6.005   8.250 -2.6109  0.2957  0.2072
  102MOL0     H14063   8.682   6.072   8.170 -2.2739 -0.5214 -1.5523
  102MOL0     H14064   8.659   6.059   7.710  0.8996 -2.7523  0.2531
  102MOL0     H14065   8.561   5.914   7.735 -3.3611  0.3026  0.3073
  102MOL0     H14066   8.380   6.075   7.818 -0.5156 -2.4134 -0.4809
  102MOL0     H14067   8.416   6.034   7.641  2.0983 -1.2816 -0.9092
  102MOL0     H14068   8.560   6.253   7.652 -0.1705  0.9712 -0.6463
  102MOL0     H14069   8.380   6.289   7.682 -1.0897  0.0363  4.5643
  102MOL0     H14070   8.605   6.307   7.876 -0.1233  1.0441 -1.4013
  102MOL0     H14071   8.446   6.244   7.932  0.1726  0.8029  0.1423
  102MOL0     H14072   8.396   6.663   7.853 -1.2571 -0.8914 -1.0203
  102MOL0     H14073   8.782   5.853   7.786  0.2590  0.1115  0.1535
  102MOL0     H14074   9.027   5.662   7.896 -2.8467 -0.2528  1.2698
  102MOL0     H14075   8.985   5.730   7.747 -1.6885  0.2839  0.1667
  102MOL0     H14076   9.100   5.819   7.837  0.8085 -0.6224  1.6757
  103MOL0     O14077  11.362   7.115   9.760 -0.2022 -0.2122  0.7048
  103MOL0     C14078  11.347   7.001   9.810 -0.3040 -0.6119 -0.4227
  103MOL0     O14079  11.452   6.922   9.851  0.7172  0.3907 -0.5847
  103MOL0     C14080  11.586   6.953   9.840 -0.3232  0.2890  0.8641
  103MOL0     C14081  11.641   7.022   9.734 -0.3219  0.4557 -0.6233
  103MOL0     C14082  11.781   7.023   9.726  0.4622  0.4658  0.2040
  103MOL0     C14083  11.864   6.976   9.828  0.3513 -0.3941  0.1494
  103MOL0     O14084  11.999   6.987   9.812 -0.5936  0.1253  0.0569
  103MOL0     C14085  12.090   6.965   9.928  0.4646 -0.4919  0.0686
  103MOL0     C14086  12.083   7.063  10.050  0.2175  0.2980 -0.9236
  103MOL0     C14087  12.022   6.997  10.183 -0.5476 -0.3823  1.0194
  103MOL0     C14088  12.050   7.089  10.301  0.5338  0.6232  0.1466
  103MOL0     C14089  11.987   7.033  10.432 -0.7125  0.8726  0.2712
  103MOL0     C14090  12.021   6.888  10.471  0.6280  0.4694  0.6405
  103MOL0     C14091  11.978   6.846  10.614 -0.0897  0.0507 -0.2549
  103MOL0     C14092  11.833   6.870  10.653 -0.1423  0.6359  0.0475
  103MOL0     N14093  11.809   6.829  10.790 -0.8046 -0.1976 -0.1510
  103MOL0     C14094  11.762   6.904  10.892  0.9475 -0.1564  0.3019
  103MOL0     C14095  11.724   6.824  10.994  0.4809  0.3299 -0.1065
  103MOL0     C14096  11.654   6.873  11.114 -1.1083 -0.4989  0.3574
  103MOL0     C14097  11.505   6.884  11.109  0.1014 -0.1635  1.0290
  103MOL0     C14098  11.454   6.994  11.013 -0.1337 -0.1158 -0.0932
  103MOL0     C14099  11.304   7.007  11.012  1.3439 -0.7697  0.6357
  103MOL0     O14100  11.265   7.116  10.925 -0.3095  0.2317  0.1815
  103MOL0     C14101  11.135   7.176  10.949  0.1529 -0.4139  0.0353
  103MOL0     C14102  11.113   7.312  10.913 -0.3287  0.1182 -0.0814
  103MOL0     C14103  10.987   7.372  10.921 -0.1643  1.2593  0.0063
  103MOL0     C14104  10.970   7.509  10.846  0.0271 -0.2982 -0.1554
  103MOL0     C14105  10.881   7.304  10.980  0.4233  0.3361 -0.2701
  103MOL0     C14106  10.740   7.355  10.989 -0.0881 -0.1644 -0.1898
  103MOL0     O14107  10.639   7.278  10.929  0.2120  0.1000 -0.5378
  103MOL0     C14108  10.513   7.295  10.983 -0.8108 -0.5777  0.3820
  103MOL0     C14109  10.461   7.202  11.069  0.1603  0.1469  0.1113
  103MOL0     C14110  10.336   7.228  11.131 -0.3354  0.9278  0.4402
  103MOL0     C14111  10.249   7.327  11.089 -0.4283  0.4199  0.1683
  103MOL0     O14112  10.128   7.355  11.146 -0.0466 -1.4216  0.6455
  103MOL0     C14113  10.104   7.294  11.275  0.1827  0.0517 -1.0267
  103MOL0     C14114   9.992   7.356  11.372 -0.4946  0.0839 -0.0941
  103MOL0     C14115   9.860   7.272  11.362  0.0016 -1.7743 -0.3598
  103MOL0     C14116   9.882   7.135  11.423 -0.2249 -0.1251  0.4106
  103MOL0     C14117   9.751   7.078  11.481 -0.7698  0.0808 -0.4369
  103MOL0     C14118   9.777   6.976  11.587 -0.5110 -0.7891  0.4930
  103MOL0     C14119   9.822   6.843  11.524 -0.5100  0.1425 -0.2774
  103MOL0     C14120   9.760   6.721  11.590 -0.8987  0.3799  0.2862
  103MOL0    Cl14121   9.585   6.705  11.524  0.5660 -0.0649 -0.3024
  103MOL0     C14122  10.306   7.420  10.995 -0.5155  0.0471 -0.8260
  103MOL0     C14123  10.438   7.411  10.964 -0.0033 -0.2720  0.2966
  103MOL0     O14124  10.725   7.468  11.047 -0.3914 -0.3139 -0.1826
  103MOL0     C14125  10.896   7.167  11.013 -0.2217 -0.4128  0.8785
  103MOL0     C14126  11.024   7.109  11.006 -0.2722  0.6646 -0.0671
  103MOL0     N14127  11.763   6.700  10.966  0.3680  0.8098 -0.1086
  103MOL0     N14128  11.805   6.699  10.839 -0.1241 -0.1337  0.0465
  103MOL0     C14129  11.796   6.918   9.935  0.6935 -1.2776 -0.2469
  103MOL0     C14130  11.661   6.914   9.947  0.2749 -0.4107 -0.1359
  103MOL0     C14131  11.205   6.975   9.851 -0.4077  0.3355 -0.1080
  103MOL0     C14132  11.191   6.900   9.968  0.4487  0.4743 -0.0454
  103MOL0     C14133  11.060   6.870  10.021  0.0091 -0.5765  0.1925
  103MOL0     C14134  10.946   6.900   9.947 -0.4108 -0.0537 -0.5910
  103MOL0     O14135  10.822   6.857   9.998  0.2310  0.6482  0.4702
  103MOL0     C14136  10.696   6.874   9.931  0.7003 -0.8515 -0.5105
  103MOL0     C14137  10.631   6.994  10.008 -0.2485  0.2622 -0.3374
  103MOL0     C14138  10.537   7.081   9.927  0.0379 -0.2168  0.0319
  103MOL0     C14139  10.588   7.149   9.805  0.3349 -0.1864 -0.2297
  103MOL0     C14140  10.563   7.054   9.687  0.3902 -0.0024 -0.3373
  103MOL0     C14141  10.538   6.986   9.588 -0.6980 -0.4788  0.0019
  103MOL0     C14142  10.960   6.978   9.828 -0.7038 -0.5924 -0.1317
  103MOL0     C14143  11.084   7.015   9.779 -0.2747 -0.1694  0.7353
  103MOL0     C14144  11.077   7.076   9.637 -0.5954  0.1297 -0.3251
  103MOL0     H14145  11.600   7.072   9.647 -1.0078  1.6656  0.3569
  103MOL0     H14146  11.832   7.078   9.648  1.6305  0.1458  0.7257
  103MOL0     H14147  12.191   6.963   9.886 -0.4255 -1.5394 -2.1349
  103MOL0     H14148  12.081   6.864   9.968  2.7365 -0.2417  1.4628
  103MOL0     H14149  12.186   7.091  10.075  0.1171 -1.5145  1.9563
  103MOL0     H14150  12.025   7.152  10.024 -0.4509  0.1326 -0.0222
  103MOL0     H14151  11.915   6.978  10.167 -0.2597 -0.4529 -1.1360
  103MOL0     H14152  12.064   6.898  10.206  1.0226  0.3295  1.2994
  103MOL0     H14153  12.157   7.095  10.326  0.4197  1.2614  0.4790
  103MOL0     H14154  12.012   7.190  10.288 -0.2163  0.5183  1.3446
  103MOL0     H14155  11.880   7.035  10.408 -0.6643 -1.7881 -0.5095
  103MOL0     H14156  11.989   7.092  10.524 -0.6521 -2.8818  2.9215
  103MOL0     H14157  11.984   6.813  10.401 -0.9964  0.2047  1.7500
  103MOL0     H14158  12.131   6.889  10.471  0.7324  0.5378 -2.7286
  103MOL0     H14159  12.038   6.915  10.675 -1.6497  0.4982  0.8391
  103MOL0     H14160  12.012   6.745  10.637 -0.1473  0.5030  2.0335
  103MOL0     H14161  11.811   6.977  10.658 -2.2397  0.1989  1.0262
  103MOL0     H14162  11.768   6.810  10.589  4.1901  0.5617 -4.9687
  103MOL0     H14163  11.743   7.010  10.883 -0.8566 -0.6475 -2.9840
  103MOL0     H14164  11.707   6.957  11.160 -0.8004  1.0532 -2.5817
  103MOL0     H14165  11.681   6.800  11.190  1.9720  1.9321  1.8180
  103MOL0     H14166  11.468   6.785  11.082  0.3672 -0.0060  0.0463
  103MOL0     H14167  11.466   6.907  11.209 -0.5856  0.1715  0.6866
  103MOL0     H14168  11.496   7.089  11.048  3.0885 -1.6574  0.5464
  103MOL0     H14169  11.480   6.989  10.906 -3.5721  3.2260 -1.3426
  103MOL0     H14170  11.256   6.912  10.989 -0.2817  0.1882 -0.1477
  103MOL0     H14171  11.269   7.032  11.112 -1.3820  0.5038 -0.5421
  103MOL0     H14172  11.196   7.371  10.878 -0.9977  0.1427 -1.7408
  103MOL0     H14173  11.068   7.533  10.805  2.3625 -4.4877  2.2499
  103MOL0     H14174  10.949   7.590  10.915  3.2349  0.0417  0.5684
  103MOL0     H14175  10.897   7.504  10.764  0.9790  1.1599 -1.1312
  103MOL0     H14176  10.526   7.120  11.097  0.4808  0.3818  0.0623
  103MOL0     H14177  10.302   7.153  11.202  0.5266  0.1329  0.0419
  103MOL0     H14178  10.080   7.188  11.261  2.6697 -1.2678  2.9866
  103MOL0     H14179  10.195   7.304  11.334 -0.3749 -0.3351 -0.0845
  103MOL0     H14180  10.025   7.352  11.476 -1.6195  2.1036  0.4095
  103MOL0     H14181   9.986   7.461  11.339  0.2720 -0.1899 -1.1527
  103MOL0     H14182   9.817   7.267  11.261  1.3945 -1.2099 -1.0159
  103MOL0     H14183   9.781   7.322  11.418 -0.5845  1.2003 -3.5161
  103MOL0     H14184   9.959   7.140  11.501 -0.7272 -1.5323  1.0248
  103MOL0     H14185   9.920   7.067  11.347 -0.8439 -1.1143  0.9714
  103MOL0     H14186   9.697   7.165  11.522  2.4538  2.6308 -1.1852
  103MOL0     H14187   9.705   7.030  11.394  0.5520  0.6837 -1.4978
  103MOL0     H14188   9.677   6.967  11.628 -0.5345  1.2157  0.9757
  103MOL0     H14189   9.853   7.019  11.653 -1.2757  2.8040 -0.7495
  103MOL0     H14190   9.931   6.839  11.519 -0.3895  1.9156  0.1958
  103MOL0     H14191   9.789   6.837  11.420  0.4034  3.0012 -0.8072
  103MOL0     H14192   9.763   6.720  11.700  2.9170  1.7344  0.3515
  103MOL0     H14193   9.795   6.624  11.552 -1.8561  0.8855 -2.0431
  103MOL0     H14194  10.255   7.499  10.941 -0.5229  0.0288 -0.8458
  103MOL0     H14195  10.492   7.490  10.915  1.4811 -0.1068  2.0946
  103MOL0     H14196  10.817   7.105  11.055 -3.0988  2.1545 -0.3310
  103MOL0     H14197  11.027   7.005  11.035  2.6048  0.5883 -0.3519
  103MOL0     H14198  11.853   6.863  10.010 -0.0806 -0.3317  1.0841
  103MOL0     H14199  11.613   6.861  10.029 -0.6935  0.9031  0.1984
  103MOL0     H14200  11.273   6.867  10.031  0.1333 -0.3885 -0.0846
  103MOL0     H14201  11.036   6.822  10.115  2.6237  0.3132  1.4192
  103MOL0     H14202  10.706   6.886   9.823 -1.4094 -0.3813 -0.7074
  103MOL0     H14203  10.623   6.792   9.933 -0.6946  0.3497 -0.1384
  103MOL0     H14204  10.717   7.055  10.036  0.6254 -0.3597 -1.5992
  103MOL0     H14205  10.568   6.975  10.096 -2.3349  0.3643 -1.7454
  103MOL0     H14206  10.444   7.024   9.915  0.4601 -1.4231  1.9447
  103MOL0     H14207  10.510   7.155  10.003  0.6661  0.2957 -0.2378
  103MOL0     H14208  10.695   7.169   9.818  0.6679 -1.7693 -0.3636
  103MOL0     H14209  10.521   7.235   9.797 -1.6430 -1.3021  2.8742
  103MOL0     H14210  10.525   6.929   9.497  2.1691 -0.6759 -0.3766
  103MOL0     H14211  10.880   7.000   9.758  1.8135 -0.8040 -3.2573
  103MOL0     H14212  11.004   7.156   9.646 -0.7566  0.0193 -0.6141
  103MOL0     H14213  11.169   7.112   9.590  0.1634 -2.6181 -1.1679
  103MOL0     H14214  11.044   6.993   9.573 -1.8033  1.1150 -1.0172
  104MOL0     O14215   3.875   2.387   8.137  0.3424  0.0347 -0.3720
  104MOL0     C14216   3.989   2.375   8.108  0.6001 -0.6257 -0.2651
  104MOL0     O14217   4.032   2.321   7.985 -0.4749 -0.0539 -0.4838
  104MOL0     C14218   3.926   2.301   7.900  0.7443  0.2557  0.4646
  104MOL0     C14219   3.859   2.178   7.919  0.3293  0.1403 -0.0943
  104MOL0     C14220   3.749   2.156   7.840  0.4770  0.9453  0.2170
  104MOL0     C14221   3.707   2.241   7.740  0.6008 -0.0964 -0.1751
  104MOL0     O14222   3.602   2.230   7.653 -0.0809  0.2709  0.5353
  104MOL0     C14223   3.561   2.098   7.631  0.2576  0.4282  0.6125
  104MOL0     C14224   3.436   2.053   7.707 -0.5757 -0.4860 -0.5998
  104MOL0     C14225   3.319   2.145   7.674 -0.0784  0.6288 -0.2670
  104MOL0     C14226   3.197   2.126   7.757 -0.0386  0.3457  0.1231
  104MOL0     C14227   3.074   2.189   7.674 -1.1134  0.3804 -0.5099
  104MOL0     C14228   3.011   2.104   7.565 -0.7806  0.5904  0.0724
  104MOL0     C14229   2.967   2.199   7.454  0.1535 -0.2213  0.3216
  104MOL0     C14230   2.896   2.109   7.345 -0.1231  0.1599 -0.6630
  104MOL0     N14231   2.837   2.189   7.242  0.0717  0.0249  0.3151
  104MOL0     C14232   2.737   2.272   7.260 -0.5969 -0.3001  0.1830
  104MOL0     C14233   2.742   2.349   7.143 -0.2135 -0.3172 -0.9122
  104MOL0     C14234   2.645   2.464   7.126  0.7638  1.0211  0.5515
  104MOL0     C14235   2.695   2.611   7.149 -0.5559  0.7311 -0.1006
  104MOL0     C14236   2.826   2.631   7.090 -0.1105  0.4187  0.0391
  104MOL0     C14237   2.944   2.590   7.179 -0.1256  0.4524 -0.1387
  104MOL0     O14238   2.990   2.694   7.268  0.0563  0.6841 -0.4014
  104MOL0     C14239   3.083   2.786   7.224  0.4288  0.1128  0.6674
  104MOL0     C14240   3.138   2.868   7.321 -0.7692  0.5431  0.6584
  104MOL0     C14241   3.215   2.978   7.282 -0.1668 -0.2955 -0.0628
  104MOL0     C14242   3.255   3.071   7.405  0.1015  0.8197 -0.5895
  104MOL0     C14243   3.253   2.995   7.145  0.4954 -0.6021 -0.5216
  104MOL0     C14244   3.347   3.102   7.099  0.3624 -0.4729 -0.7405
  104MOL0     O14245   3.398   3.190   7.182 -0.0963 -0.6197 -0.3490
  104MOL0     C14246   3.492   3.274   7.126 -0.0302  0.5218  0.3520
  104MOL0     C14247   3.460   3.409   7.102  0.3905 -0.7048 -0.4474
  104MOL0     C14248   3.556   3.499   7.050  0.1034  0.5366 -0.4732
  104MOL0     C14249   3.682   3.448   7.013  0.4713  0.9096  0.5218
  104MOL0     O14250   3.765   3.524   6.943 -0.3517  0.3100  0.2016
  104MOL0     C14251   3.778   3.472   6.805 -0.5299 -0.7831 -0.1473
  104MOL0     C14252   3.896   3.541   6.737  0.0402 -0.3082  0.1123
  104MOL0     C14253   3.927   3.498   6.588 -0.1465  0.2045 -0.7511
  104MOL0     C14254   4.006   3.599   6.516  0.6389 -0.9449 -0.6549
  104MOL0     C14255   4.045   3.572   6.371  0.2589 -0.2085  1.8293
  104MOL0     C14256   4.131   3.683   6.317 -0.0164 -0.1641 -0.6537
  104MOL0     C14257   4.160   3.669   6.170 -0.3768  0.1504  0.0268
  104MOL0     C14258   4.264   3.775   6.122  0.2296  0.6192  0.2173
  104MOL0    Cl14259   4.274   3.780   5.938  0.4700  0.5903 -0.0354
  104MOL0     C14260   3.712   3.312   7.044  0.0208  0.3368  0.8725
  104MOL0     C14261   3.626   3.223   7.105  0.3580 -0.3920  0.2777
  104MOL0     O14262   3.368   3.102   6.980 -0.7611 -0.7591 -0.4425
  104MOL0     C14263   3.193   2.903   7.056 -0.8740 -0.7430  0.5306
  104MOL0     C14264   3.110   2.805   7.085  0.9174 -0.9911 -1.1924
  104MOL0     N14265   2.838   2.296   7.056 -0.2362  0.6686  0.4672
  104MOL0     N14266   2.888   2.189   7.112  0.5567  0.3026 -0.3260
  104MOL0     C14267   3.776   2.362   7.726  0.1165  0.4365  0.1548
  104MOL0     C14268   3.887   2.391   7.799 -0.0083  0.1087 -0.4352
  104MOL0     C14269   4.088   2.423   8.201  0.1340  0.1185 -1.6081
  104MOL0     C14270   4.221   2.387   8.174 -0.2180  0.5147  0.1143
  104MOL0     C14271   4.325   2.428   8.260  0.4969  0.2525 -0.0109
  104MOL0     C14272   4.302   2.497   8.376  0.2464 -0.5235 -0.5509
  104MOL0     O14273   4.392   2.531   8.476 -0.3155  0.4373 -0.2512
  104MOL0     C14274   4.528   2.478   8.479 -0.4702  0.7196 -0.0127
  104MOL0     C14275   4.636   2.580   8.508  0.6620  0.1393  0.3463
  104MOL0     C14276   4.776   2.523   8.547 -0.0922 -0.8778 -0.1658
  104MOL0     C14277   4.800   2.565   8.694 -0.1236 -0.1914  0.0807
  104MOL0     C14278   4.932   2.531   8.736 -0.3561 -0.0163 -0.6590
  104MOL0     C14279   5.039   2.507   8.790 -0.0143  1.0180  0.7428
  104MOL0     C14280   4.167   2.529   8.409  0.2542 -0.2985  0.2376
  104MOL0     C14281   4.057   2.494   8.324  0.9493  0.2373  0.5024
  104MOL0     C14282   3.921   2.540   8.364 -0.1301 -0.2107  0.0105
  104MOL0     H14283   3.880   2.110   8.000 -1.8444  0.1911  0.5791
  104MOL0     H14284   3.696   2.068   7.877  2.7998 -0.6040  0.1022
  104MOL0     H14285   3.635   2.017   7.633 -0.0494 -0.0104 -2.2267
  104MOL0     H14286   3.521   2.099   7.529 -1.5061  1.6731  1.2606
  104MOL0     H14287   3.404   1.956   7.667 -1.9661  0.3086 -1.5031
  104MOL0     H14288   3.455   2.050   7.815  0.8028  1.4830 -0.7205
  104MOL0     H14289   3.347   2.251   7.679  1.6051  0.2540 -1.1067
  104MOL0     H14290   3.297   2.138   7.567 -0.7975  0.9134 -0.1425
  104MOL0     H14291   3.180   2.019   7.773  3.0776 -0.2892 -0.0966
  104MOL0     H14292   3.208   2.168   7.857 -0.1298 -2.6659  1.4990
  104MOL0     H14293   3.118   2.274   7.621 -0.4587  0.7483  0.5786
  104MOL0     H14294   2.996   2.220   7.743 -0.1450 -1.0355  1.3167
  104MOL0     H14295   3.069   2.016   7.538  0.0611  0.2013  2.8399
  104MOL0     H14296   2.912   2.072   7.599 -1.1073  1.2389 -0.2291
  104MOL0     H14297   3.050   2.253   7.407  0.8658  5.3320  6.5329
  104MOL0     H14298   2.901   2.276   7.494  1.1905  1.5533 -1.2170
  104MOL0     H14299   2.960   2.034   7.297  1.6174 -0.7996  2.8708
  104MOL0     H14300   2.817   2.058   7.400 -0.2263 -0.4799 -1.3905
  104MOL0     H14301   2.682   2.305   7.347  0.6261 -0.4486  1.0308
  104MOL0     H14302   2.564   2.443   7.197  0.5181 -0.5668 -0.1638
  104MOL0     H14303   2.599   2.466   7.027 -1.5178 -0.2448  1.5144
  104MOL0     H14304   2.623   2.675   7.097  1.4692  3.3031  0.0605
  104MOL0     H14305   2.690   2.631   7.256  1.3759 -0.5903  0.2934
  104MOL0     H14306   2.813   2.567   7.002 -2.0850 -1.9271  1.8918
  104MOL0     H14307   2.844   2.733   7.054  0.0818  0.0593 -0.9216
  104MOL0     H14308   2.926   2.498   7.235 -1.1362  1.8827  2.0355
  104MOL0     H14309   3.019   2.566   7.102  2.2800 -1.0629  2.4883
  104MOL0     H14310   3.132   2.848   7.427  1.2381 -0.2149  0.6657
  104MOL0     H14311   3.303   3.169   7.395  4.5984 -1.1498 -0.3968
  104MOL0     H14312   3.326   3.021   7.472 -1.1640 -1.7605 -1.0620
  104MOL0     H14313   3.161   3.075   7.462 -0.0607 -1.1694 -0.6628
  104MOL0     H14314   3.361   3.445   7.131  1.0240  0.2753  0.5887
  104MOL0     H14315   3.536   3.605   7.056  2.9859  1.0745  2.9736
  104MOL0     H14316   3.792   3.364   6.794  0.0649 -0.4252 -4.2542
  104MOL0     H14317   3.683   3.506   6.762 -0.8000 -0.9235  0.3269
  104MOL0     H14318   3.859   3.644   6.734  0.5606 -0.0916  0.9186
  104MOL0     H14319   3.979   3.535   6.808 -2.6228 -0.3095  3.5073
  104MOL0     H14320   3.828   3.486   6.543 -0.8519  2.9817 -0.1806
  104MOL0     H14321   3.977   3.401   6.592  0.2545  0.4031 -0.9153
  104MOL0     H14322   4.100   3.607   6.570  0.0274 -0.3389  0.3667
  104MOL0     H14323   3.971   3.703   6.514 -2.1330 -1.5811  3.2190
  104MOL0     H14324   4.092   3.475   6.351 -1.6648 -0.5213 -2.0360
  104MOL0     H14325   3.954   3.565   6.311  1.7000  1.4137 -0.7675
  104MOL0     H14326   4.216   3.691   6.385 -2.2391  0.5738  2.2714
  104MOL0     H14327   4.077   3.777   6.335 -2.2502 -1.4565 -0.2555
  104MOL0     H14328   4.072   3.692   6.110 -1.2238  1.5023  1.7084
  104MOL0     H14329   4.212   3.574   6.151  3.2289  1.4310  2.2988
  104MOL0     H14330   4.366   3.753   6.157  0.5926 -1.7800 -2.0237
  104MOL0     H14331   4.226   3.871   6.158  3.2927  2.1274 -0.2289
  104MOL0     H14332   3.814   3.281   7.027 -0.1294  0.1335  0.3238
  104MOL0     H14333   3.643   3.120   7.133 -0.6844 -0.0995  2.1576
  104MOL0     H14334   3.225   2.918   6.953 -2.2652 -0.5213  0.1189
  104MOL0     H14335   3.062   2.756   7.001 -2.3910 -1.5987  0.8504
  104MOL0     H14336   3.723   2.442   7.676  0.7749  2.2517  2.2115
  104MOL0     H14337   3.956   2.475   7.795 -1.8617  1.8517  1.4477
  104MOL0     H14338   4.245   2.321   8.091 -3.5866  1.6828 -2.0024
  104MOL0     H14339   4.427   2.398   8.237 -0.5481 -1.3363 -3.0562
  104MOL0     H14340   4.524   2.405   8.561 -3.8725  0.2965 -0.4115
  104MOL0     H14341   4.561   2.427   8.388  3.4098  3.3260 -0.3107
  104MOL0     H14342   4.587   2.646   8.581  0.5581  1.7008 -1.0855
  104MOL0     H14343   4.641   2.644   8.419  1.2263  1.4808  1.3122
  104MOL0     H14344   4.763   2.415   8.533 -1.3679 -0.7364 -0.1682
  104MOL0     H14345   4.856   2.554   8.479 -0.7726 -0.6926 -0.9033
  104MOL0     H14346   4.739   2.500   8.757 -0.6088  1.1470  1.0299
  104MOL0     H14347   4.768   2.669   8.710 -0.7973 -0.1869 -1.1676
  104MOL0     H14348   5.124   2.468   8.842 -0.6445 -0.4578  0.7181
  104MOL0     H14349   4.138   2.574   8.504 -2.0131 -0.2391 -0.4126
  104MOL0     H14350   3.859   2.451   8.376  2.5968 -2.3601 -0.7246
  104MOL0     H14351   3.936   2.606   8.450  3.8423  0.0808 -0.7229
  104MOL0     H14352   3.901   2.596   8.272  2.4080 -2.0057 -1.7926
  105MOL0     O14353   0.367   4.510   1.573  0.9831  0.3792  0.0527
  105MOL0     C14354   0.295   4.536   1.665 -0.3802  0.6634 -0.8399
  105MOL0     O14355   0.166   4.579   1.652  0.0438 -0.9194  0.2212
  105MOL0     C14356   0.113   4.616   1.532  0.0602  0.2672  1.0607
  105MOL0     C14357  -0.021   4.570   1.499 -1.0072 -0.0561 -0.1805
  105MOL0     C14358  -0.080   4.620   1.386 -0.0272  0.1418 -0.2829
  105MOL0     C14359  -0.024   4.721   1.300 -0.2010 -0.3895 -0.8612
  105MOL0     O14360  -0.096   4.771   1.193  0.8270  0.1875  1.6068
  105MOL0     C14361  -0.017   4.819   1.078  0.2818  0.1773 -0.7858
  105MOL0     C14362  -0.070   4.774   0.941 -0.6247 -0.0778 -0.5147
  105MOL0     C14363  -0.213   4.819   0.911  0.1644  0.4953 -0.0563
  105MOL0     C14364  -0.308   4.708   0.941  0.5999  0.2992 -0.1036
  105MOL0     C14365  -0.450   4.762   0.925 -0.0234  0.6066 -0.6778
  105MOL0     C14366  -0.506   4.773   0.781  0.1940 -0.5456  0.1286
  105MOL0     C14367  -0.653   4.808   0.785  0.1652 -0.1031  0.1981
  105MOL0     C14368  -0.739   4.682   0.789 -0.7255 -0.0670 -0.0264
  105MOL0     N14369  -0.882   4.716   0.781 -0.1949 -0.5892 -0.1464
  105MOL0     C14370  -0.968   4.777   0.866 -0.3218 -0.7615 -0.5176
  105MOL0     C14371  -1.074   4.807   0.792 -0.2622  0.6403 -0.4298
  105MOL0     C14372  -1.183   4.892   0.838  0.3961  0.2401 -0.0402
  105MOL0     C14373  -1.331   4.857   0.795 -0.3422 -0.1196 -0.0808
  105MOL0     C14374  -1.424   4.983   0.778  0.1613 -0.6589 -0.2174
  105MOL0     C14375  -1.490   5.035   0.912 -0.3430  0.0109 -0.1934
  105MOL0     O14376  -1.526   5.172   0.913  0.1269  0.3401 -0.0597
  105MOL0     C14377  -1.451   5.255   0.991  0.1904  0.7401 -0.5778
  105MOL0     C14378  -1.498   5.282   1.122  0.3411 -0.4168 -0.4862
  105MOL0     C14379  -1.432   5.373   1.207 -0.4039 -0.7208  0.3711
  105MOL0     C14380  -1.504   5.394   1.339 -0.4247  0.7903  0.1122
  105MOL0     C14381  -1.311   5.435   1.155 -0.1812  0.4085  0.2381
  105MOL0     C14382  -1.224   5.519   1.247 -0.2252  0.4459 -0.0111
  105MOL0     O14383  -1.151   5.615   1.179 -0.3815 -0.1397 -0.3434
  105MOL0     C14384  -1.114   5.723   1.261  0.2239  0.5340 -0.6905
  105MOL0     C14385  -1.178   5.775   1.383 -0.1747  0.5822  0.1954
  105MOL0     C14386  -1.118   5.889   1.449  0.7543 -0.8766  0.4628
  105MOL0     C14387  -1.016   5.961   1.394 -0.4269 -0.0641  0.7041
  105MOL0     O14388  -0.969   6.070   1.464  0.9171 -0.4344  0.1071
  105MOL0     C14389  -0.865   6.147   1.407  0.0897 -0.0108  0.2152
  105MOL0     C14390  -0.816   6.245   1.511 -0.0206  0.2856  0.2907
  105MOL0     C14391  -0.794   6.377   1.437  1.0537 -0.2008 -0.2789
  105MOL0     C14392  -0.719   6.464   1.530 -0.1212  0.4079 -0.5135
  105MOL0     C14393  -0.618   6.549   1.455 -0.9620 -0.9229  0.9543
  105MOL0     C14394  -0.675   6.657   1.358  0.3541  0.4521 -0.4859
  105MOL0     C14395  -0.564   6.767   1.349  0.0478  0.2644  0.3788
  105MOL0     C14396  -0.531   6.855   1.471  0.5112 -0.4073 -1.0717
  105MOL0    Cl14397  -0.403   6.966   1.425  0.1142  0.3100  0.7536
  105MOL0     C14398  -0.962   5.909   1.267 -0.5991 -0.4910  0.4422
  105MOL0     C14399  -1.010   5.793   1.207 -1.0854 -0.0472  0.0673
  105MOL0     O14400  -1.207   5.491   1.366  0.2857 -0.0954 -0.3451
  105MOL0     C14401  -1.268   5.412   1.021  0.4101 -0.1444 -0.4293
  105MOL0     C14402  -1.328   5.311   0.949 -1.6006  0.0943  1.0982
  105MOL0     N14403  -1.065   4.739   0.675 -0.5640 -0.0065  0.5460
  105MOL0     N14404  -0.945   4.695   0.664  0.2480  0.3328  0.0656
  105MOL0     C14405   0.105   4.757   1.343  0.0062  0.1052  0.7294
  105MOL0     C14406   0.171   4.710   1.453  0.0086  0.0305 -0.6931
  105MOL0     C14407   0.352   4.510   1.798 -0.2251 -0.1028  0.7106
  105MOL0     C14408   0.257   4.522   1.897 -0.6007  0.2800  0.1205
  105MOL0     C14409   0.301   4.501   2.030 -0.3290 -0.1383  0.7639
  105MOL0     C14410   0.440   4.481   2.057  0.2067  0.1174  0.3898
  105MOL0     O14411   0.469   4.462   2.190  0.3192  0.6352 -0.0319
  105MOL0     C14412   0.507   4.326   2.221  0.6338 -0.7004 -0.3865
  105MOL0     C14413   0.626   4.320   2.307  0.0732 -0.4831  0.2405
  105MOL0     C14414   0.764   4.329   2.233  1.0283 -0.2473  0.6522
  105MOL0     C14415   0.799   4.195   2.154  0.7767  0.1197  0.8912
  105MOL0     C14416   0.924   4.222   2.087 -0.0387  0.2817  0.0277
  105MOL0     C14417   1.028   4.218   2.031  0.4161  0.1868 -0.3442
  105MOL0     C14418   0.539   4.469   1.953  0.2144 -0.0584  0.1528
  105MOL0     C14419   0.494   4.480   1.822  0.6804  0.5489  0.7555
  105MOL0     C14420   0.602   4.448   1.723  0.1264 -0.0762 -0.2592
  105MOL0     H14421  -0.047   4.498   1.576  0.3205 -1.5339 -1.0594
  105MOL0     H14422  -0.180   4.579   1.372  0.3177 -0.6301 -0.5161
  105MOL0     H14423   0.086   4.784   1.085 -0.2557 -1.4153 -0.2643
  105MOL0     H14424  -0.023   4.928   1.075 -2.3905  0.3665  3.1912
  105MOL0     H14425  -0.001   4.804   0.862 -1.5924  1.5223 -0.7946
  105MOL0     H14426  -0.074   4.665   0.944 -0.4248 -0.0687  0.9685
  105MOL0     H14427  -0.235   4.916   0.957  0.3478  0.5234 -0.0276
  105MOL0     H14428  -0.217   4.841   0.804  3.9456  1.0168 -0.2407
  105MOL0     H14429  -0.288   4.615   0.886 -1.5913 -1.4291  1.8284
  105MOL0     H14430  -0.291   4.690   1.047  1.5558 -1.1852 -0.4783
  105MOL0     H14431  -0.454   4.863   0.968 -1.0597 -0.5330  2.0813
  105MOL0     H14432  -0.516   4.695   0.981 -0.3606  1.2524 -0.2882
  105MOL0     H14433  -0.459   4.858   0.730 -2.8633  0.9384 -0.4745
  105MOL0     H14434  -0.496   4.678   0.728 -1.1536 -1.6604  1.7965
  105MOL0     H14435  -0.676   4.876   0.702  1.4431 -0.0108 -0.0980
  105MOL0     H14436  -0.663   4.873   0.872  0.2162  1.0095 -0.5963
  105MOL0     H14437  -0.698   4.617   0.712  0.2544 -1.6995  1.7599
  105MOL0     H14438  -0.733   4.631   0.886 -0.8847  0.3214  0.1909
  105MOL0     H14439  -0.958   4.812   0.968 -0.6261  0.9969 -1.0478
  105MOL0     H14440  -1.157   4.991   0.799 -2.0139  0.7728 -0.4032
  105MOL0     H14441  -1.191   4.896   0.947 -0.6297  1.8778 -0.1512
  105MOL0     H14442  -1.340   4.807   0.699 -3.9465  1.1317 -0.5140
  105MOL0     H14443  -1.366   4.779   0.864  2.7677 -1.3977  0.2356
  105MOL0     H14444  -1.358   5.057   0.732  0.7070  0.5453  2.3419
  105MOL0     H14445  -1.503   4.958   0.707  0.3505 -1.7156 -0.0779
  105MOL0     H14446  -1.578   4.972   0.927 -0.2355  0.2467  1.6892
  105MOL0     H14447  -1.412   5.008   0.984  1.5662  2.7783 -1.0628
  105MOL0     H14448  -1.602   5.264   1.150  0.8280  0.9271  2.7032
  105MOL0     H14449  -1.463   5.478   1.396 -0.4687 -0.3601  1.9149
  105MOL0     H14450  -1.487   5.301   1.394 -2.9931  1.0590  1.5301
  105MOL0     H14451  -1.609   5.411   1.315  0.0559 -0.1845 -3.0753
  105MOL0     H14452  -1.271   5.735   1.420 -0.0388 -0.1642 -0.2617
  105MOL0     H14453  -1.153   5.932   1.542  0.1379 -0.7911  0.1949
  105MOL0     H14454  -0.778   6.084   1.387  0.6701  0.8913 -0.1713
  105MOL0     H14455  -0.896   6.202   1.317  0.1132 -0.4920 -0.0905
  105MOL0     H14456  -0.890   6.260   1.589  0.0023  0.2177  0.3256
  105MOL0     H14457  -0.720   6.214   1.553 -0.6409 -2.4312 -0.1340
  105MOL0     H14458  -0.887   6.429   1.414  2.0979  2.2615  0.6954
  105MOL0     H14459  -0.738   6.362   1.344  1.3183 -1.0567  0.0126
  105MOL0     H14460  -0.668   6.414   1.613  2.5716 -0.4409 -2.5454
  105MOL0     H14461  -0.793   6.531   1.575 -0.7091 -1.0517  0.7949
  105MOL0     H14462  -0.548   6.605   1.518  0.7240  2.6804 -3.4623
  105MOL0     H14463  -0.550   6.483   1.401  1.4239  0.0928  2.5529
  105MOL0     H14464  -0.764   6.698   1.405 -0.6478 -2.3146  0.2118
  105MOL0     H14465  -0.696   6.610   1.262  1.3337 -2.1742  0.4895
  105MOL0     H14466  -0.613   6.830   1.275  1.0438  1.2920  0.5572
  105MOL0     H14467  -0.474   6.723   1.305  0.5452 -0.5527  2.1015
  105MOL0     H14468  -0.497   6.796   1.557  1.2082  0.4018 -0.7712
  105MOL0     H14469  -0.622   6.905   1.506  0.7273  1.1617 -2.6201
  105MOL0     H14470  -0.870   5.956   1.233  0.6244  0.6957  4.7128
  105MOL0     H14471  -0.959   5.772   1.113 -2.3733 -0.5681 -0.5427
  105MOL0     H14472  -1.186   5.469   0.980 -1.9407  2.5316 -1.7733
  105MOL0     H14473  -1.300   5.306   0.844 -0.5652 -0.1446  1.3742
  105MOL0     H14474   0.170   4.817   1.280 -2.4340 -1.1687 -3.3513
  105MOL0     H14475   0.265   4.747   1.493  1.2749 -1.3048 -2.3141
  105MOL0     H14476   0.151   4.543   1.885 -0.1992  2.6153  0.1445
  105MOL0     H14477   0.218   4.502   2.100  0.7546 -2.5534  2.2356
  105MOL0     H14478   0.430   4.261   2.264  0.8824  0.4280  1.8925
  105MOL0     H14479   0.533   4.278   2.126  1.1817  1.3683 -1.3342
  105MOL0     H14480   0.616   4.232   2.372  2.1178  1.2907  3.2258
  105MOL0     H14481   0.627   4.407   2.374  0.9626 -0.2440 -0.0732
  105MOL0     H14482   0.757   4.400   2.149 -0.5480 -0.4858  0.5458
  105MOL0     H14483   0.849   4.356   2.297 -0.1033 -0.5841  2.3650
  105MOL0     H14484   0.729   4.174   2.073  3.0824 -2.9945 -0.5102
  105MOL0     H14485   0.798   4.103   2.213  2.6230  0.3618  1.3654
  105MOL0     H14486   1.124   4.221   1.983  1.6596 -1.3249  1.8831
  105MOL0     H14487   0.636   4.428   1.980  0.8340  0.1727 -1.5577
  105MOL0     H14488   0.609   4.534   1.657  1.2108 -0.9194 -1.2864
  105MOL0     H14489   0.702   4.439   1.766 -0.5225 -3.0714  0.9203
  105MOL0     H14490   0.576   4.362   1.661 -1.2355 -0.5162  0.8733
  106MOL0     O14491   8.031  10.467   6.995 -0.0296 -0.3013  0.9069
  106MOL0     C14492   8.013  10.346   7.016  0.3462  0.6164  0.0661
  106MOL0     O14493   7.909  10.294   7.097 -0.8394 -0.3901 -0.0209
  106MOL0     C14494   7.883  10.344   7.224  0.1356  0.6186 -1.1944
  106MOL0     C14495   7.745  10.345   7.263 -0.7652  0.6709  0.3263
  106MOL0     C14496   7.705  10.386   7.394 -0.0946 -0.0992 -0.1703
  106MOL0     C14497   7.808  10.429   7.485  0.6296 -0.1365  1.4879
  106MOL0     O14498   7.798  10.479   7.611  0.5264  0.6717 -0.2113
  106MOL0     C14499   7.687  10.563   7.644 -0.7534  0.3611 -0.6096
  106MOL0     C14500   7.658  10.557   7.795  0.9919  0.7679 -0.1063
  106MOL0     C14501   7.767  10.522   7.891 -0.1125 -0.4738  0.4527
  106MOL0     C14502   7.730  10.542   8.032  0.5532  0.2859 -0.3197
  106MOL0     C14503   7.808  10.442   8.122 -0.1966 -0.0268 -0.2989
  106MOL0     C14504   7.957  10.481   8.133  0.2806 -0.3914 -0.1772
  106MOL0     C14505   8.037  10.400   8.225 -0.4196  0.4485  0.4529
  106MOL0     C14506   8.188  10.427   8.220 -0.3002 -0.3833  0.1356
  106MOL0     N14507   8.204  10.548   8.303 -0.3113 -0.8988  0.4937
  106MOL0     C14508   8.249  10.546   8.432  0.2700  0.2847  0.3231
  106MOL0     C14509   8.217  10.669   8.475  0.5927  1.0893 -0.3159
  106MOL0     C14510   8.241  10.720   8.611 -0.8857  0.3694 -0.6153
  106MOL0     C14511   8.151  10.660   8.721  0.1803  0.4153  0.5309
  106MOL0     C14512   8.155  10.730   8.855  0.1677 -0.4267 -0.8438
  106MOL0     C14513   8.041  10.687   8.951  0.9465 -0.2481 -0.1199
  106MOL0     O14514   8.056  10.547   8.982  0.4652  0.2744  0.3477
  106MOL0     C14515   8.154  10.500   9.056  0.0247  0.2462  0.3488
  106MOL0     C14516   8.204  10.568   9.161 -0.0691  1.2111  0.0034
  106MOL0     C14517   8.303  10.509   9.235  0.1624 -0.2819 -1.1324
  106MOL0     C14518   8.358  10.585   9.351 -0.6824 -0.8901 -0.2155
  106MOL0     C14519   8.358  10.387   9.204  0.1102  0.5373  0.3628
  106MOL0     C14520   8.470  10.321   9.273 -0.5703 -1.3832 -0.4471
  106MOL0     O14521   8.573  10.398   9.321 -0.1525 -0.1703 -0.1536
  106MOL0     C14522   8.681  10.337   9.380  0.0459  0.7096  0.4085
  106MOL0     C14523   8.707  10.364   9.511  0.1825 -0.9404  0.2163
  106MOL0     C14524   8.821  10.318   9.569 -0.5951  0.0456 -0.4201
  106MOL0     C14525   8.909  10.221   9.509  1.3885  0.0032 -0.2837
  106MOL0     O14526   9.030  10.180   9.561 -0.0753 -0.1156  0.8176
  106MOL0     C14527   9.026  10.149   9.707  0.6527 -0.3249 -0.7858
  106MOL0     C14528   9.134  10.055   9.739 -0.1261  1.1634  0.2490
  106MOL0     C14529   9.281  10.084   9.698  0.5692 -0.1466 -0.6733
  106MOL0     C14530   9.376   9.982   9.731  0.5837 -0.0697 -0.3415
  106MOL0     C14531   9.521  10.022   9.700 -0.6394 -0.7901 -0.1061
  106MOL0     C14532   9.573  10.143   9.781  0.7304 -0.7315  0.1366
  106MOL0     C14533   9.554  10.136   9.924 -0.2360 -0.3817  0.1004
  106MOL0     C14534   9.605  10.266   9.990 -0.1790  0.0859 -0.2041
  106MOL0    Cl14535   9.570  10.258  10.169  0.3114 -0.0953 -0.4831
  106MOL0     C14536   8.886  10.202   9.374 -0.2144  0.1786  0.2781
  106MOL0     C14537   8.770  10.254   9.305 -0.3767 -0.0426  0.0363
  106MOL0     O14538   8.466  10.197   9.278 -0.0232  0.0347 -0.7677
  106MOL0     C14539   8.311  10.318   9.088  0.9157  0.4928  1.1573
  106MOL0     C14540   8.201  10.376   9.015 -1.0615 -0.4657 -0.3012
  106MOL0     N14541   8.162  10.743   8.370  0.5765 -0.0318  0.1953
  106MOL0     N14542   8.160  10.671   8.267 -0.4963  0.2617  0.0820
  106MOL0     C14543   7.937  10.417   7.448 -0.9706 -1.0382  0.6867
  106MOL0     C14544   7.977  10.384   7.314 -0.2144  0.2574  0.1350
  106MOL0     C14545   8.089  10.236   6.946 -0.0431  0.5541 -0.6437
  106MOL0     C14546   8.040  10.101   6.953  0.2195  0.0375 -0.5237
  106MOL0     C14547   8.110  10.000   6.886 -0.4277 -0.2339  0.5692
  106MOL0     C14548   8.232  10.014   6.827  0.5758 -0.1744 -0.2197
  106MOL0     O14549   8.286   9.904   6.781  0.0995  0.3873 -0.7273
  106MOL0     C14550   8.400   9.902   6.692 -0.7067 -0.0219  0.7868
  106MOL0     C14551   8.389   9.966   6.554  0.1949 -0.0014  0.9962
  106MOL0     C14552   8.251   9.923   6.475  0.0778 -0.1321 -0.0635
  106MOL0     C14553   8.228   9.772   6.438 -0.6294 -0.8001 -0.9870
  106MOL0     C14554   8.338   9.723   6.351  0.0724 -0.8362 -1.2055
  106MOL0     C14555   8.428   9.663   6.292 -0.3082 -0.2648 -0.8883
  106MOL0     C14556   8.286  10.142   6.834 -0.4015 -0.1179 -0.0442
  106MOL0     C14557   8.215  10.251   6.884 -0.3993  0.3283  0.2023
  106MOL0     C14558   8.291  10.380   6.861  0.0846  0.6033 -0.4723
  106MOL0     H14559   7.681  10.314   7.181 -1.4892  4.0195 -0.5157
  106MOL0     H14560   7.599  10.406   7.407 -0.4318  0.4293 -3.1278
  106MOL0     H14561   7.599  10.547   7.581 -1.6827 -1.6109  1.0673
  106MOL0     H14562   7.724  10.663   7.620  2.4769 -0.7929 -0.9630
  106MOL0     H14563   7.610  10.652   7.819 -0.2288 -0.4770  2.8205
  106MOL0     H14564   7.576  10.485   7.799  2.0827 -0.5669 -0.8673
  106MOL0     H14565   7.811  10.423   7.873  0.2951 -0.2798  0.3744
  106MOL0     H14566   7.849  10.591   7.869 -1.1663 -0.4728 -4.7253
  106MOL0     H14567   7.744  10.646   8.063  0.9526  0.6415 -1.6235
  106MOL0     H14568   7.625  10.516   8.045  1.2434 -1.8958  1.5924
  106MOL0     H14569   7.810  10.341   8.081 -4.0681 -0.4462  0.1402
  106MOL0     H14570   7.762  10.428   8.220  1.7261 -4.1467  0.2184
  106MOL0     H14571   8.003  10.468   8.035  1.3241 -0.3127  0.2899
  106MOL0     H14572   7.968  10.586   8.161 -0.7844 -0.6342  1.2616
  106MOL0     H14573   8.015  10.298   8.194  0.4758  0.8246 -1.5362
  106MOL0     H14574   7.999  10.403   8.328  1.3593  3.4186  1.1399
  106MOL0     H14575   8.246  10.336   8.241  2.0467  0.1242 -3.3003
  106MOL0     H14576   8.214  10.455   8.117 -1.9155 -0.0291 -0.2014
  106MOL0     H14577   8.290  10.468   8.495 -0.5074 -0.5046 -0.1211
  106MOL0     H14578   8.235  10.829   8.620 -1.3163  0.4915 -2.0799
  106MOL0     H14579   8.337  10.696   8.657 -1.5396  1.4914  1.4965
  106MOL0     H14580   8.049  10.650   8.681 -0.4963  0.4505  2.1789
  106MOL0     H14581   8.190  10.559   8.732  0.4542  0.5458  0.7585
  106MOL0     H14582   8.251  10.699   8.898  0.7271 -0.7909 -2.3048
  106MOL0     H14583   8.151  10.839   8.851  1.0435 -0.3978 -1.2679
  106MOL0     H14584   8.030  10.752   9.039 -0.9118 -1.7849  0.8533
  106MOL0     H14585   7.950  10.695   8.890  1.0572 -1.4373 -0.4750
  106MOL0     H14586   8.177  10.672   9.176 -1.3744  0.8756  0.1395
  106MOL0     H14587   8.370  10.520   9.438  2.1647 -1.0693 -0.6343
  106MOL0     H14588   8.306  10.679   9.373 -1.5503 -1.4913  0.3435
  106MOL0     H14589   8.460  10.614   9.324 -1.1718  1.2746  0.0370
  106MOL0     H14590   8.648  10.439   9.562 -0.6992 -1.2725 -0.2925
  106MOL0     H14591   8.837  10.346   9.673  0.5376 -1.5279 -0.1432
  106MOL0     H14592   9.043  10.239   9.767  1.4549 -1.1680  0.2935
  106MOL0     H14593   8.937  10.097   9.741 -0.0691  0.7545 -0.9653
  106MOL0     H14594   9.134  10.046   9.848  2.8647  0.4102  0.2783
  106MOL0     H14595   9.108   9.956   9.700 -0.6660  1.8124 -1.1041
  106MOL0     H14596   9.312  10.176   9.747 -0.7051  0.6604 -1.3191
  106MOL0     H14597   9.286  10.092   9.590  2.8495 -1.0883 -0.6956
  106MOL0     H14598   9.348   9.894   9.672  0.0660 -0.2491  0.1632
  106MOL0     H14599   9.369   9.958   9.838  0.5955  0.3315 -0.2493
  106MOL0     H14600   9.588   9.937   9.719  1.5571  0.7094 -0.7765
  106MOL0     H14601   9.521  10.052   9.595 -0.4520 -2.2113 -0.5316
  106MOL0     H14602   9.519  10.229   9.741 -2.8816 -3.0086 -0.4029
  106MOL0     H14603   9.676  10.157   9.748  0.9120  1.4448  1.4227
  106MOL0     H14604   9.600  10.047   9.968 -2.1139 -0.7665  1.3986
  106MOL0     H14605   9.451  10.112   9.953  0.1583 -2.4316 -0.0320
  106MOL0     H14606   9.569  10.357   9.941 -0.3477 -1.2209 -2.6638
  106MOL0     H14607   9.714  10.275   9.986  0.1551 -1.0798  3.0990
  106MOL0     H14608   8.958  10.146   9.314  0.6772  0.4280  1.0938
  106MOL0     H14609   8.729  10.239   9.206 -2.0307  0.5188  0.6095
  106MOL0     H14610   8.350  10.222   9.056 -2.5413 -0.5343 -0.4977
  106MOL0     H14611   8.168  10.329   8.924  0.6489 -1.2682 -0.5460
  106MOL0     H14612   8.015  10.437   7.521 -0.8302  0.8070  0.0766
  106MOL0     H14613   8.084  10.380   7.296 -0.0522 -1.2676  1.2129
  106MOL0     H14614   7.945  10.070   6.995  0.2480  1.9462  1.1360
  106MOL0     H14615   8.057   9.906   6.883  1.1379 -1.1485  0.4818
  106MOL0     H14616   8.489   9.946   6.738 -2.2831  2.4572  1.6837
  106MOL0     H14617   8.436   9.800   6.679  1.2732  0.9371 -2.4274
  106MOL0     H14618   8.479   9.942   6.497 -0.7105  0.1758 -0.5620
  106MOL0     H14619   8.392  10.074   6.572  0.2983  0.2574 -0.4522
  106MOL0     H14620   8.169   9.948   6.542 -0.5288 -0.6972 -0.5860
  106MOL0     H14621   8.242   9.990   6.388  1.8545 -0.0012 -0.1882
  106MOL0     H14622   8.134   9.775   6.383 -1.1410 -0.1943 -0.1166
  106MOL0     H14623   8.219   9.708   6.527  1.3269  0.3797  0.1407
  106MOL0     H14624   8.493   9.611   6.224  0.8411 -1.4148  0.9951
  106MOL0     H14625   8.390  10.149   6.804 -1.2789 -1.4974 -4.0166
  106MOL0     H14626   8.399  10.369   6.845 -0.0450 -0.8861 -0.4343
  106MOL0     H14627   8.246  10.426   6.773  3.0390  3.2998 -0.7626
  106MOL0     H14628   8.277  10.454   6.940 -3.0173 -1.1053  0.7660
  107MOL0     O14629  10.480   1.270   5.236  0.3476 -0.1424  0.2944
  107MOL0     C14630  10.446   1.222   5.345  0.2301 -0.1696  1.0128
  107MOL0     O14631  10.328   1.152   5.367 -0.2639 -0.7000  0.1910
  107MOL0     C14632  10.258   1.134   5.253  0.9671  0.0581  0.2439
  107MOL0     C14633  10.275   1.015   5.191 -1.0896  0.3534 -0.7471
  107MOL0     C14634  10.218   0.986   5.066  0.2892  0.6395  0.0351
  107MOL0     C14635  10.126   1.075   5.017 -0.0867 -0.2582  0.1838
  107MOL0     O14636  10.080   1.032   4.891  0.5872 -0.1660  0.0817
  107MOL0     C14637  10.075   1.138   4.794 -0.4421 -0.9096 -0.3454
  107MOL0     C14638  10.218   1.147   4.730 -0.5096  0.1247  0.2313
  107MOL0     C14639  10.332   1.203   4.817  0.4281 -0.3371 -0.6880
  107MOL0     C14640  10.468   1.178   4.749 -0.2503  0.0896 -0.4291
  107MOL0     C14641  10.588   1.266   4.795 -0.1244  0.0202  0.3175
  107MOL0     C14642  10.650   1.215   4.923  0.0714 -0.9581  0.2251
  107MOL0     C14643  10.724   1.329   5.000  0.3636  0.7585 -0.4706
  107MOL0     C14644  10.851   1.387   4.922 -0.3208 -0.0461 -0.4739
  107MOL0     N14645  10.963   1.293   4.926 -0.3842  0.3232 -0.1727
  107MOL0     C14646  10.984   1.194   4.833 -0.2134  0.6403  0.2670
  107MOL0     C14647  11.099   1.137   4.876  0.3077  0.7939 -0.0741
  107MOL0     C14648  11.168   1.030   4.792 -0.3923  0.2537  0.5483
  107MOL0     C14649  11.277   0.963   4.887  0.2075 -0.4483 -0.8893
  107MOL0     C14650  11.323   0.832   4.823 -0.3811  0.1964 -0.3246
  107MOL0     C14651  11.403   0.752   4.918  0.9797 -0.2420 -0.4978
  107MOL0     O14652  11.510   0.830   4.978  1.1088  0.1609 -0.0721
  107MOL0     C14653  11.584   0.765   5.075  0.4863  0.3830  0.2870
  107MOL0     C14654  11.708   0.821   5.115  0.1025  0.5258 -0.5342
  107MOL0     C14655  11.806   0.749   5.191 -0.3444  0.7482 -0.3348
  107MOL0     C14656  11.946   0.819   5.218  0.9003 -1.1926 -0.1432
  107MOL0     C14657  11.765   0.613   5.240 -0.0336 -0.4466 -0.4125
  107MOL0     C14658  11.862   0.530   5.314  0.4731 -0.4971  0.3202
  107MOL0     O14659  11.961   0.594   5.391  0.4715 -0.4441 -0.3426
  107MOL0     C14660  12.015   0.517   5.497 -0.2243 -0.4827  0.6689
  107MOL0     C14661  12.149   0.534   5.535  0.7760 -0.5413 -0.2033
  107MOL0     C14662  12.194   0.456   5.643 -0.6352 -0.4054  0.4603
  107MOL0     C14663  12.115   0.368   5.716  0.6048 -0.3434 -0.3610
  107MOL0     O14664  12.157   0.301   5.832  0.0981 -0.2390  0.0739
  107MOL0     C14665  12.298   0.290   5.853 -0.1103 -0.4935  0.0586
  107MOL0     C14666  12.345   0.409   5.936  0.5665  0.2605 -0.6753
  107MOL0     C14667  12.493   0.399   5.975 -0.3798  0.4622 -0.2223
  107MOL0     C14668  12.589   0.441   5.854 -0.2257 -0.5922 -0.0891
  107MOL0     C14669  12.633   0.589   5.844  0.4970 -0.3114 -0.4340
  107MOL0     C14670  12.519   0.685   5.832 -0.2905 -0.1151  0.1819
  107MOL0     C14671  12.568   0.822   5.836 -0.3362 -0.7810  0.6476
  107MOL0     C14672  12.486   0.928   5.762 -1.0384  0.0914 -0.3428
  107MOL0    Cl14673  12.543   1.093   5.793  0.6552 -0.1305  0.1444
  107MOL0     C14674  11.979   0.353   5.677 -1.0358 -0.5811 -0.7850
  107MOL0     C14675  11.938   0.427   5.575 -0.1297 -0.9114  0.8603
  107MOL0     O14676  11.874   0.413   5.283 -0.1566 -0.6837  0.0375
  107MOL0     C14677  11.639   0.571   5.208 -0.3157  0.0463  0.0930
  107MOL0     C14678  11.549   0.638   5.125 -0.2952  0.4111 -1.0518
  107MOL0     N14679  11.137   1.189   4.995 -0.1289  0.3935  0.9235
  107MOL0     N14680  11.060   1.296   5.014 -0.6666  0.4059 -0.1538
  107MOL0     C14681  10.093   1.196   5.078 -1.1622 -0.3408  0.6450
  107MOL0     C14682  10.163   1.225   5.197 -0.7063 -0.4208 -0.2367
  107MOL0     C14683  10.541   1.223   5.455 -0.8569 -0.3525  0.7800
  107MOL0     C14684  10.556   1.111   5.532 -0.1679  0.3191  0.8392
  107MOL0     C14685  10.636   1.116   5.645  0.6252  0.0574 -0.3239
  107MOL0     C14686  10.717   1.233   5.662  1.0593  0.3719  0.2549
  107MOL0     O14687  10.817   1.247   5.747 -0.4726  0.3725 -0.4258
  107MOL0     C14688  10.841   1.158   5.857 -0.7575 -0.1641 -0.1372
  107MOL0     C14689  10.980   1.187   5.918  1.3041 -0.2438  0.8824
  107MOL0     C14690  11.019   1.067   6.012  0.4143 -0.1562  0.6355
  107MOL0     C14691  11.170   1.064   6.034 -0.2647 -1.0467 -0.3334
  107MOL0     C14692  11.215   1.171   6.123  0.3979 -0.2421  0.3500
  107MOL0     C14693  11.260   1.258   6.191  0.0850 -0.9063  0.2128
  107MOL0     C14694  10.716   1.332   5.576 -0.2300 -0.4083  1.2377
  107MOL0     C14695  10.627   1.335   5.471 -0.1206  0.4734  0.6690
  107MOL0     C14696  10.617   1.456   5.382 -0.1971  0.5331  0.6890
  107MOL0     H14697  10.336   0.948   5.250 -4.0186 -2.1255 -0.2440
  107MOL0     H14698  10.234   0.893   5.013  3.9736 -0.8941  3.3136
  107MOL0     H14699  10.034   1.231   4.833 -2.3068 -1.2602 -1.3615
  107MOL0     H14700  10.003   1.107   4.718 -1.1097 -0.4416  0.0885
  107MOL0     H14701  10.238   1.047   4.692 -2.2510  0.2413 -1.0916
  107MOL0     H14702  10.210   1.209   4.640 -3.8906 -0.8544 -0.2586
  107MOL0     H14703  10.322   1.311   4.827  1.6344 -0.3209  0.7287
  107MOL0     H14704  10.344   1.165   4.919 -0.1966  1.6426  0.1591
  107MOL0     H14705  10.499   1.073   4.760  1.1136  0.2774 -1.9908
  107MOL0     H14706  10.448   1.196   4.643  2.7452 -3.7348 -1.8934
  107MOL0     H14707  10.549   1.368   4.790  0.2921  0.1889  0.4295
  107MOL0     H14708  10.668   1.268   4.720 -1.2952 -1.5524 -1.0537
  107MOL0     H14709  10.566   1.181   4.984 -0.3402 -0.2498  0.0606
  107MOL0     H14710  10.715   1.132   4.893 -0.1597 -2.0147  2.4590
  107MOL0     H14711  10.756   1.276   5.090 -1.7057 -0.6693 -0.5081
  107MOL0     H14712  10.655   1.408   5.031 -2.2158 -1.7051  0.5113
  107MOL0     H14713  10.818   1.419   4.823  0.5850  2.7366  0.0568
  107MOL0     H14714  10.892   1.482   4.956  0.9862 -0.4007 -0.9941
  107MOL0     H14715  10.940   1.187   4.733 -1.4575  0.2521  0.8208
  107MOL0     H14716  11.223   1.069   4.706  1.4541  3.2782  2.8780
  107MOL0     H14717  11.100   0.951   4.758  0.5708 -0.4751  0.2491
  107MOL0     H14718  11.358   1.031   4.916  0.6786 -0.2221 -2.6162
  107MOL0     H14719  11.228   0.936   4.981  1.9598 -0.9635 -0.0930
  107MOL0     H14720  11.238   0.767   4.797 -0.5517 -0.1006  0.9225
  107MOL0     H14721  11.381   0.857   4.734 -0.1978 -1.8739 -0.8535
  107MOL0     H14722  11.329   0.733   4.996  2.4360  2.6735  1.7656
  107MOL0     H14723  11.445   0.660   4.876  2.1607  0.7720 -1.5952
  107MOL0     H14724  11.738   0.921   5.084  0.5648  0.8996  1.0127
  107MOL0     H14725  12.029   0.748   5.222  1.3232 -0.6381  1.9540
  107MOL0     H14726  11.927   0.861   5.317 -2.0354 -1.6381 -0.4354
  107MOL0     H14727  11.959   0.888   5.134 -5.0190  0.9305  0.1747
  107MOL0     H14728  12.216   0.599   5.481 -0.3270 -0.7196 -1.8588
  107MOL0     H14729  12.299   0.463   5.668 -0.2285  1.9605 -1.5684
  107MOL0     H14730  12.301   0.199   5.913  0.0017 -0.4450  0.1273
  107MOL0     H14731  12.354   0.270   5.761 -1.0975 -2.4442 -0.1654
  107MOL0     H14732  12.312   0.502   5.889 -0.4277  0.4363  0.3263
  107MOL0     H14733  12.294   0.400   6.033  0.4249 -0.4193 -0.8073
  107MOL0     H14734  12.523   0.299   6.008  0.7171  1.1737  1.0600
  107MOL0     H14735  12.520   0.472   6.052  1.5174  0.6574 -1.0281
  107MOL0     H14736  12.541   0.421   5.758  0.1695 -0.7044 -0.2647
  107MOL0     H14737  12.678   0.379   5.868  0.1906  0.2708  1.2827
  107MOL0     H14738  12.688   0.628   5.930 -0.9336 -0.9466  0.8189
  107MOL0     H14739  12.690   0.592   5.750 -0.0624 -1.7207 -0.8550
  107MOL0     H14740  12.442   0.677   5.909  0.4156 -0.1203  0.8952
  107MOL0     H14741  12.465   0.673   5.737 -0.2443 -1.7599  0.3362
  107MOL0     H14742  12.673   0.825   5.806 -0.2977 -0.6828  0.7933
  107MOL0     H14743  12.555   0.847   5.941 -0.8888 -0.1744  0.4440
  107MOL0     H14744  12.380   0.924   5.788 -0.4072 -0.1504  2.5085
  107MOL0     H14745  12.499   0.912   5.654 -1.8586  1.3999 -0.6646
  107MOL0     H14746  11.907   0.283   5.718 -1.7342 -1.4741 -3.3249
  107MOL0     H14747  11.830   0.424   5.562 -0.2060 -0.0831  1.2329
  107MOL0     H14748  11.608   0.471   5.239 -1.8704  0.4400 -0.1363
  107MOL0     H14749  11.453   0.588   5.112 -0.2836 -1.3919  3.7831
  107MOL0     H14750  10.018   1.261   5.035 -1.1481 -0.5814  0.2527
  107MOL0     H14751  10.142   1.326   5.230  1.8687 -0.5880  2.3340
  107MOL0     H14752  10.491   1.025   5.525  0.1960 -0.1788  3.0013
  107MOL0     H14753  10.636   1.041   5.724  1.3012  3.0228  2.7544
  107MOL0     H14754  10.769   1.164   5.940  0.3104 -1.3119  0.9188
  107MOL0     H14755  10.830   1.053   5.828  1.9262 -1.0373  1.6757
  107MOL0     H14756  10.973   1.282   5.972 -1.0527 -0.8902  1.8707
  107MOL0     H14757  11.053   1.201   5.838  2.6836  1.9154  2.4014
  107MOL0     H14758  10.975   1.076   6.111 -2.3898 -2.6513 -0.2126
  107MOL0     H14759  10.974   0.978   5.966  0.0990  0.8674 -1.1434
  107MOL0     H14760  11.231   1.084   5.945  0.7299  3.3650  1.0902
  107MOL0     H14761  11.196   0.973   6.088 -0.0056 -1.1415 -0.6137
  107MOL0     H14762  11.292   1.328   6.265  0.2682 -1.0205  0.2429
  107MOL0     H14763  10.791   1.409   5.592 -0.5244 -0.3936  2.7046
  107MOL0     H14764  10.513   1.491   5.387 -1.1283 -1.8668 -0.0262
  107MOL0     H14765  10.681   1.532   5.426  1.2880 -1.5040  2.2670
  107MOL0     H14766  10.645   1.442   5.277  1.5720  0.6282  1.1265
  108MOL0     O14767   2.546   8.817   6.562  0.6066  0.2361 -0.0629
  108MOL0     C14768   2.482   8.715   6.594  0.3565  0.1414 -0.6569
  108MOL0     O14769   2.439   8.618   6.510  0.1085 -0.6624 -0.1989
  108MOL0     C14770   2.509   8.586   6.400 -0.5343 -0.1027  0.4593
  108MOL0     C14771   2.642   8.621   6.349  0.3031  0.3697 -0.0959
  108MOL0     C14772   2.691   8.582   6.220  0.4767 -0.5940  0.7691
  108MOL0     C14773   2.611   8.500   6.139 -0.6276  0.2915  0.5105
  108MOL0     O14774   2.686   8.455   6.030 -0.2077 -0.0836 -0.3367
  108MOL0     C14775   2.620   8.449   5.903 -0.0877  0.0863 -0.5478
  108MOL0     C14776   2.646   8.572   5.812 -0.2687  0.5741 -0.0626
  108MOL0     C14777   2.793   8.611   5.807  0.9602  0.4581 -0.1874
  108MOL0     C14778   2.893   8.489   5.792 -0.4759 -0.2592 -0.1013
  108MOL0     C14779   3.042   8.537   5.749  0.2387  0.7325  0.0661
  108MOL0     C14780   3.126   8.420   5.690 -1.0776 -0.4315 -0.3956
  108MOL0     C14781   3.252   8.447   5.610 -0.0576  0.0891  0.7551
  108MOL0     C14782   3.235   8.499   5.463  0.7037  1.1117  0.4153
  108MOL0     N14783   3.210   8.641   5.452  0.1798 -0.2661  0.3705
  108MOL0     C14784   3.280   8.742   5.506 -0.5769 -0.4249  0.2687
  108MOL0     C14785   3.213   8.856   5.478 -0.2143 -0.1537 -0.7631
  108MOL0     C14786   3.249   8.987   5.532  0.1730 -0.9037 -0.3525
  108MOL0     C14787   3.220   8.996   5.674 -0.3179 -0.5806 -1.1755
  108MOL0     C14788   3.060   9.003   5.713 -0.5074  0.2993  0.0173
  108MOL0     C14789   2.990   9.123   5.642  0.9562 -1.1364 -0.1985
  108MOL0     O14790   2.852   9.121   5.689 -0.7459 -0.8864  0.1981
  108MOL0     C14791   2.776   9.229   5.653  0.0637 -0.5473 -0.1793
  108MOL0     C14792   2.648   9.236   5.694 -0.3531  0.2173 -1.0527
  108MOL0     C14793   2.553   9.333   5.652  0.8549  0.0344  1.0063
  108MOL0     C14794   2.412   9.325   5.682 -0.3874  0.2493 -0.9443
  108MOL0     C14795   2.601   9.441   5.574  0.5101 -0.2527 -0.0385
  108MOL0     C14796   2.511   9.549   5.522  0.6100 -0.5353  0.7100
  108MOL0     O14797   2.428   9.607   5.608 -0.4745 -0.4053 -0.0453
  108MOL0     C14798   2.340   9.695   5.565  0.7751  0.8913  0.6773
  108MOL0     C14799   2.208   9.651   5.553 -0.8541  0.5589 -0.6427
  108MOL0     C14800   2.111   9.743   5.535 -0.1924 -0.3811  0.1926
  108MOL0     C14801   2.136   9.881   5.522  0.4826 -0.5876  0.7222
  108MOL0     O14802   2.048   9.980   5.503 -0.2131 -0.7124 -0.2461
  108MOL0     C14803   1.914   9.946   5.481 -0.7624  0.1635  1.0213
  108MOL0     C14804   1.844  10.063   5.414 -0.4100  0.2769 -0.1979
  108MOL0     C14805   1.882  10.082   5.265  0.3381 -0.4895  0.3116
  108MOL0     C14806   1.811  10.210   5.204 -0.9242  0.2718  0.2930
  108MOL0     C14807   1.862  10.225   5.060 -0.7799 -0.2608  0.4825
  108MOL0     C14808   1.783  10.318   4.976 -0.5874 -0.4332 -0.2694
  108MOL0     C14809   1.640  10.266   4.952 -0.2567  0.1117  0.0019
  108MOL0     C14810   1.639  10.175   4.829 -0.0391  0.7017 -0.8551
  108MOL0    Cl14811   1.479  10.163   4.761 -0.0129 -0.1986  0.2970
  108MOL0     C14812   2.264   9.922   5.531  0.5561  0.1475  0.0179
  108MOL0     C14813   2.364   9.828   5.553 -0.1378  0.1881  0.5324
  108MOL0     O14814   2.546   9.596   5.411  0.9823 -0.5399  0.1628
  108MOL0     C14815   2.732   9.441   5.535 -0.6699  0.7968  0.4107
  108MOL0     C14816   2.820   9.332   5.566  0.8505 -0.3456 -0.2855
  108MOL0     N14817   3.116   8.818   5.387 -0.3671 -0.1552 -0.4718
  108MOL0     N14818   3.106   8.694   5.385  0.0026 -0.6950  0.8821
  108MOL0     C14819   2.476   8.474   6.182 -0.1069 -0.6070  0.7362
  108MOL0     C14820   2.432   8.517   6.313 -0.3929  0.3586 -0.1858
  108MOL0     C14821   2.443   8.698   6.732 -0.1951 -0.5588 -0.7984
  108MOL0     C14822   2.318   8.630   6.760  0.7495  0.3927 -0.4280
  108MOL0     C14823   2.277   8.601   6.892 -0.6424 -0.2490 -0.2661
  108MOL0     C14824   2.348   8.641   7.009 -0.6890 -0.8354  1.0950
  108MOL0     O14825   2.291   8.607   7.128  0.5755 -0.9853 -0.2864
  108MOL0     C14826   2.382   8.618   7.242 -0.4269  0.6245  0.6971
  108MOL0     C14827   2.303   8.559   7.350  0.4252  0.1116 -0.0595
  108MOL0     C14828   2.172   8.644   7.368 -0.1907 -0.4041  0.2067
  108MOL0     C14829   2.105   8.625   7.509  0.1561  0.0622 -0.0786
  108MOL0     C14830   2.010   8.523   7.531 -0.0454 -0.1694  0.1563
  108MOL0     C14831   1.921   8.452   7.568 -0.6208  0.2832  0.4041
  108MOL0     C14832   2.461   8.716   6.977  0.6624 -0.6592 -0.0944
  108MOL0     C14833   2.514   8.744   6.846  0.3013 -1.1313 -0.3483
  108MOL0     C14834   2.644   8.821   6.839  0.3921 -0.1519 -0.3027
  108MOL0     H14835   2.715   8.676   6.407 -1.2119  3.6884 -1.0913
  108MOL0     H14836   2.793   8.599   6.188 -0.1860 -1.0764 -1.8429
  108MOL0     H14837   2.511   8.442   5.910 -0.3890  3.8193  1.9802
  108MOL0     H14838   2.655   8.363   5.846 -3.3397 -0.5701 -1.7901
  108MOL0     H14839   2.609   8.549   5.712 -1.5262 -3.1889  1.0748
  108MOL0     H14840   2.583   8.650   5.856 -2.9033 -1.6173  0.3238
  108MOL0     H14841   2.799   8.686   5.727  0.4484 -2.6906 -3.4453
  108MOL0     H14842   2.818   8.659   5.902 -0.7668 -0.6253  0.8722
  108MOL0     H14843   2.895   8.434   5.887 -0.8692 -0.4791 -0.2199
  108MOL0     H14844   2.858   8.428   5.709 -1.2359  0.2554 -0.1683
  108MOL0     H14845   3.092   8.601   5.822 -3.1257  0.3153  3.0377
  108MOL0     H14846   3.025   8.604   5.664  3.5471  0.3329 -1.0249
  108MOL0     H14847   3.175   8.371   5.774  2.1870  2.4337 -0.3938
  108MOL0     H14848   3.056   8.352   5.640 -2.4043  0.8325 -0.3103
  108MOL0     H14849   3.327   8.367   5.605  0.2396  0.4181 -0.2942
  108MOL0     H14850   3.301   8.520   5.674  1.9787 -0.3047 -0.2618
  108MOL0     H14851   3.318   8.477   5.395  0.3364  1.1592 -0.0505
  108MOL0     H14852   3.141   8.465   5.420 -0.6336  3.2248  1.4849
  108MOL0     H14853   3.367   8.737   5.571 -0.2668  0.6926 -0.0343
  108MOL0     H14854   3.185   9.057   5.478  1.3712  0.7758  0.3419
  108MOL0     H14855   3.354   9.013   5.514 -0.7115  4.5978  0.7427
  108MOL0     H14856   3.260   8.909   5.726  2.9503  0.5756 -1.5376
  108MOL0     H14857   3.271   9.080   5.722 -1.5373 -0.2077 -0.4926
  108MOL0     H14858   3.014   8.909   5.681 -3.9796  1.5389  0.8241
  108MOL0     H14859   3.041   8.999   5.821  3.4498 -0.5037  0.8188
  108MOL0     H14860   3.047   9.214   5.662  2.2332 -1.9294 -0.1169
  108MOL0     H14861   2.965   9.101   5.538 -1.9822  1.2703 -0.1011
  108MOL0     H14862   2.616   9.161   5.765  0.6329 -0.3909 -1.2331
  108MOL0     H14863   2.348   9.317   5.593  1.0396  0.0470 -1.9749
  108MOL0     H14864   2.388   9.420   5.729  1.2731  1.0578 -1.6506
  108MOL0     H14865   2.390   9.244   5.752 -0.6968  0.7305 -0.4863
  108MOL0     H14866   2.187   9.552   5.592  0.1646  1.3862  2.2811
  108MOL0     H14867   2.006   9.713   5.534 -0.6668  1.1387 -1.1708
  108MOL0     H14868   1.908   9.864   5.410  2.4266  1.7229 -1.3135
  108MOL0     H14869   1.878   9.913   5.579  2.5179 -3.9054  1.1441
  108MOL0     H14870   1.737  10.041   5.419 -0.6891  0.3925 -3.3511
  108MOL0     H14871   1.870  10.155   5.466 -0.1802 -1.5857  3.2889
  108MOL0     H14872   1.865   9.986   5.216  2.0413 -0.7389  0.1610
  108MOL0     H14873   1.988  10.102   5.248 -0.2999  3.6878  0.0830
  108MOL0     H14874   1.837  10.303   5.254 -2.1999  0.7126  0.1817
  108MOL0     H14875   1.702  10.201   5.207 -0.8117 -2.4835 -0.8333
  108MOL0     H14876   1.963  10.266   5.064 -1.3476  1.5889 -2.0502
  108MOL0     H14877   1.853  10.124   5.018 -2.4368  0.1146 -0.1402
  108MOL0     H14878   1.835  10.340   4.882  0.1161 -1.6508 -0.1847
  108MOL0     H14879   1.789  10.417   5.022  1.4093 -1.3814  1.7142
  108MOL0     H14880   1.585  10.354   4.918  1.4743  0.9464 -0.7745
  108MOL0     H14881   1.582  10.226   5.036 -0.4549  0.2780 -0.0534
  108MOL0     H14882   1.668  10.073   4.858 -1.6234  0.5443  0.3013
  108MOL0     H14883   1.703  10.226   4.757 -1.1621  2.6004 -0.5739
  108MOL0     H14884   2.284  10.027   5.546 -1.6771  0.5726  0.3841
  108MOL0     H14885   2.468   9.859   5.553 -1.0440  3.7350  1.8574
  108MOL0     H14886   2.761   9.532   5.483  1.9119  1.3171  2.5905
  108MOL0     H14887   2.922   9.335   5.528  1.5337 -0.0830  1.4914
  108MOL0     H14888   2.412   8.411   6.121 -2.1251  0.7914  1.3127
  108MOL0     H14889   2.341   8.467   6.346 -0.4453 -0.1774 -1.0957
  108MOL0     H14890   2.256   8.582   6.685 -0.3732  1.7578 -0.4241
  108MOL0     H14891   2.188   8.541   6.908  0.1288 -1.4852 -0.4484
  108MOL0     H14892   2.476   8.563   7.226 -0.2859  1.2176 -0.6437
  108MOL0     H14893   2.404   8.722   7.269  0.6930  1.0317 -1.5123
  108MOL0     H14894   2.360   8.560   7.444  1.2324  4.5439 -0.4086
  108MOL0     H14895   2.289   8.454   7.323  0.8053  0.2418 -0.7887
  108MOL0     H14896   2.191   8.752   7.362 -2.0397 -0.1136 -1.1427
  108MOL0     H14897   2.104   8.608   7.292  2.3440 -2.5532 -1.2112
  108MOL0     H14898   2.057   8.718   7.541 -2.2717 -0.8950 -0.7260
  108MOL0     H14899   2.181   8.606   7.585  0.4171 -0.9410 -0.5747
  108MOL0     H14900   1.830   8.398   7.585 -1.3813  0.8595 -1.5888
  108MOL0     H14901   2.521   8.750   7.060  2.9021  0.0515 -1.8991
  108MOL0     H14902   2.657   8.875   6.933  0.5187 -1.7761  0.6471
  108MOL0     H14903   2.731   8.756   6.822  0.5679 -1.0856  3.3941
  108MOL0     H14904   2.655   8.889   6.754 -0.8771 -0.5236 -0.7831
  109MOL0     O14905   2.679   1.151   6.723  0.0048 -0.0691  0.6005
  109MOL0     C14906   2.736   1.262   6.705  0.0557  0.3506 -0.1327
  109MOL0     O14907   2.738   1.342   6.589  0.1599  0.1155 -0.8055
  109MOL0     C14908   2.634   1.326   6.497 -0.1769 -1.0494  0.5319
  109MOL0     C14909   2.511   1.255   6.508  0.2319  0.2842 -0.6059
  109MOL0     C14910   2.439   1.234   6.390  0.0238 -0.3708  1.4786
  109MOL0     C14911   2.482   1.288   6.263 -0.0105  0.1384 -0.1936
  109MOL0     O14912   2.398   1.263   6.155  0.2153  0.5592 -0.6398
  109MOL0     C14913   2.386   1.351   6.043  0.6503 -0.9092  0.0060
  109MOL0     C14914   2.284   1.286   5.954  0.3071 -0.6143  1.2611
  109MOL0     C14915   2.301   1.127   5.936 -0.5497 -1.3674  0.6703
  109MOL0     C14916   2.237   1.056   5.818  0.3487  0.2702 -0.0603
  109MOL0     C14917   2.338   1.024   5.700 -0.0536 -1.3914 -0.0375
  109MOL0     C14918   2.382   1.164   5.647 -0.3852 -0.3886 -0.3441
  109MOL0     C14919   2.456   1.149   5.513 -0.2522  0.1577  0.3659
  109MOL0     C14920   2.351   1.111   5.401 -0.2623 -0.1255  0.4970
  109MOL0     N14921   2.399   1.164   5.260 -0.1305 -0.8358 -0.3270
  109MOL0     C14922   2.510   1.111   5.195  0.5285 -0.3949  0.0960
  109MOL0     C14923   2.542   1.203   5.093 -0.2165  1.0956  0.0055
  109MOL0     C14924   2.657   1.187   4.997 -0.2212  0.0663 -0.2904
  109MOL0     C14925   2.681   1.295   4.895 -0.1728 -0.4935  0.0505
  109MOL0     C14926   2.790   1.254   4.795  0.2247  0.0872  0.1408
  109MOL0     C14927   2.868   1.372   4.720  0.3015  0.2468 -0.2903
  109MOL0     O14928   2.776   1.461   4.652 -0.8798  0.1948 -0.6767
  109MOL0     C14929   2.763   1.434   4.517 -0.0771  0.4613  0.0964
  109MOL0     C14930   2.625   1.420   4.477  0.3320 -0.0930 -0.5775
  109MOL0     C14931   2.578   1.374   4.353  0.1778  0.0178  0.5115
  109MOL0     C14932   2.442   1.341   4.324  0.4710  0.2044 -0.2482
  109MOL0     C14933   2.677   1.352   4.250  0.5199 -0.8151  0.4142
  109MOL0     C14934   2.654   1.293   4.118 -0.4074  0.9065 -0.7364
  109MOL0     O14935   2.700   1.166   4.107  0.6184  0.2324 -0.2842
  109MOL0     C14936   2.671   1.074   4.010 -1.6197 -0.3167 -0.4256
  109MOL0     C14937   2.648   1.101   3.872 -0.2053 -0.3141 -0.6791
  109MOL0     C14938   2.642   0.992   3.786 -0.4679 -0.3546  1.4017
  109MOL0     C14939   2.639   0.858   3.843  0.5025 -0.9136  0.3479
  109MOL0     O14940   2.590   0.754   3.777 -0.0028  0.0832  0.5581
  109MOL0     C14941   2.483   0.762   3.679 -0.6174  0.1801 -0.8712
  109MOL0     C14942   2.546   0.759   3.544  0.7996  0.2546 -0.0769
  109MOL0     C14943   2.436   0.802   3.444 -0.3573 -0.5829 -0.3228
  109MOL0     C14944   2.503   0.890   3.329  1.4902 -0.3400 -0.8138
  109MOL0     C14945   2.399   0.924   3.220  0.2435 -0.9883 -0.1501
  109MOL0     C14946   2.320   0.826   3.149  0.4572 -0.0131  0.4703
  109MOL0     C14947   2.405   0.734   3.054 -0.2124  0.0200 -0.2191
  109MOL0     C14948   2.318   0.688   2.940  0.4534  0.0192  0.4938
  109MOL0    Cl14949   2.160   0.619   2.993  0.0990  0.2327 -0.4799
  109MOL0     C14950   2.651   0.838   3.980 -0.3134 -0.9777 -0.3626
  109MOL0     C14951   2.677   0.945   4.066 -0.2778 -0.4256 -0.3388
  109MOL0     O14952   2.609   1.359   4.034 -0.0094 -0.8721 -0.2230
  109MOL0     C14953   2.815   1.369   4.287 -1.1367 -0.4549 -0.6560
  109MOL0     C14954   2.857   1.412   4.414  0.9247 -0.8869 -0.7331
  109MOL0     N14955   2.457   1.309   5.104 -1.0121  0.1129 -0.2443
  109MOL0     N14956   2.367   1.287   5.203  0.2944  0.5945 -0.1729
  109MOL0     C14957   2.602   1.358   6.250 -0.7830  0.0624  0.2817
  109MOL0     C14958   2.671   1.381   6.367 -0.0115 -0.2638 -1.0728
  109MOL0     C14959   2.832   1.305   6.810 -0.2311  0.2172  0.3227
  109MOL0     C14960   2.955   1.372   6.782  0.1182  0.0566 -1.0431
  109MOL0     C14961   3.048   1.400   6.889 -0.9876  0.5196 -1.0721
  109MOL0     C14962   3.020   1.372   7.021  0.1559 -1.0833 -0.0508
  109MOL0     O14963   3.107   1.406   7.121  1.1422 -0.9745 -0.2183
  109MOL0     C14964   3.246   1.399   7.102 -0.0399 -0.8351  0.1654
  109MOL0     C14965   3.312   1.450   7.224  0.7299 -0.6579  0.6409
  109MOL0     C14966   3.256   1.588   7.279  0.6490  0.5084  0.2034
  109MOL0     C14967   3.363   1.672   7.350  0.3700 -0.0970 -0.2211
  109MOL0     C14968   3.316   1.714   7.481 -0.5245 -0.7884  0.2597
  109MOL0     C14969   3.257   1.736   7.582 -0.3975 -0.0995 -1.0790
  109MOL0     C14970   2.906   1.308   7.049  0.4548 -0.7580  0.1020
  109MOL0     C14971   2.815   1.276   6.950  0.1455  0.0161  0.3771
  109MOL0     C14972   2.685   1.229   6.998  0.6403 -0.4971 -0.7052
  109MOL0     H14973   2.478   1.201   6.597 -1.5836  0.0803 -1.3596
  109MOL0     H14974   2.350   1.172   6.400 -2.2446  2.4400  0.3889
  109MOL0     H14975   2.483   1.362   5.994  0.6170  0.6772  0.2265
  109MOL0     H14976   2.346   1.446   6.080 -1.5526 -0.5148 -3.0259
  109MOL0     H14977   2.190   1.309   6.005  1.7279  2.5277  2.7159
  109MOL0     H14978   2.296   1.330   5.854  0.0690 -0.2702  1.3832
  109MOL0     H14979   2.408   1.106   5.942  0.1755  1.9648  1.3523
  109MOL0     H14980   2.265   1.080   6.028  0.8863 -0.8690  1.5080
  109MOL0     H14981   2.196   0.971   5.874 -0.1875  1.3699  1.2600
  109MOL0     H14982   2.156   1.114   5.773 -0.1313  0.0796  0.5496
  109MOL0     H14983   2.283   0.971   5.622  0.7021 -1.9716 -0.1874
  109MOL0     H14984   2.421   0.958   5.727  2.1692  0.7394 -1.2698
  109MOL0     H14985   2.299   1.236   5.643 -0.6472 -0.7357 -2.0269
  109MOL0     H14986   2.455   1.207   5.716 -1.0675 -0.4729  0.4427
  109MOL0     H14987   2.531   1.069   5.504 -0.2315  0.2828 -0.6894
  109MOL0     H14988   2.507   1.243   5.489 -0.0375  0.6724  2.6404
  109MOL0     H14989   2.333   1.004   5.407  0.2307 -0.3373 -1.2438
  109MOL0     H14990   2.255   1.160   5.418  0.2183  0.8213  0.5522
  109MOL0     H14991   2.564   1.023   5.228  0.3724  0.3119  2.4400
  109MOL0     H14992   2.644   1.087   4.955  0.1330 -0.2140  0.2539
  109MOL0     H14993   2.744   1.189   5.064 -1.3736  1.2394  1.2652
  109MOL0     H14994   2.581   1.314   4.857 -0.9526 -3.0176  0.6744
  109MOL0     H14995   2.703   1.392   4.941 -2.9663  0.3287 -0.2066
  109MOL0     H14996   2.868   1.199   4.848 -0.2861  1.3834  2.3300
  109MOL0     H14997   2.753   1.190   4.714 -1.9500  0.4762  0.7821
  109MOL0     H14998   2.918   1.430   4.799 -3.0082  1.6298  0.9873
  109MOL0     H14999   2.941   1.327   4.653  0.1573  0.9777 -0.9581
  109MOL0     H15000   2.552   1.443   4.554 -0.9873  3.3042 -2.6330
  109MOL0     H15001   2.388   1.377   4.412 -0.9809 -2.8660  0.2462
  109MOL0     H15002   2.425   1.234   4.316 -1.8718  0.5809 -0.9330
  109MOL0     H15003   2.401   1.391   4.236 -0.6116 -1.6228 -0.8441
  109MOL0     H15004   2.647   1.201   3.832 -0.8808 -0.0989 -0.1402
  109MOL0     H15005   2.632   1.002   3.678  0.7633  1.9966  1.4411
  109MOL0     H15006   2.417   0.676   3.695 -2.5154  1.7026 -0.2362
  109MOL0     H15007   2.409   0.841   3.695  0.9089  0.9930  3.5538
  109MOL0     H15008   2.626   0.833   3.545  0.1110  1.0506  2.4845
  109MOL0     H15009   2.608   0.670   3.528 -0.6140 -1.0200  1.1805
  109MOL0     H15010   2.364   0.868   3.492 -0.6873  0.2887 -1.9190
  109MOL0     H15011   2.388   0.710   3.412 -2.8154 -0.3466  2.3019
  109MOL0     H15012   2.593   0.845   3.286  0.8532  0.1426 -2.7650
  109MOL0     H15013   2.529   0.985   3.376  2.2375 -1.8316  2.0234
  109MOL0     H15014   2.320   0.982   3.267  0.6198 -0.4243 -0.1926
  109MOL0     H15015   2.455   0.987   3.149  0.3936 -0.5671  0.3374
  109MOL0     H15016   2.250   0.885   3.088  0.2003 -0.6104  0.1771
  109MOL0     H15017   2.257   0.773   3.220 -0.6964 -0.0288 -0.5403
  109MOL0     H15018   2.424   0.649   3.120  1.7535  0.6474  0.0921
  109MOL0     H15019   2.501   0.766   3.013  0.1496  1.1623  1.4437
  109MOL0     H15020   2.370   0.615   2.877 -2.4313 -1.1101 -0.7731
  109MOL0     H15021   2.303   0.775   2.877 -1.4925 -0.7546 -0.2000
  109MOL0     H15022   2.647   0.737   4.020 -0.1457 -1.4169 -1.4277
  109MOL0     H15023   2.709   0.929   4.169  1.4744  1.0782 -0.5906
  109MOL0     H15024   2.890   1.361   4.209  0.5617  1.4106  0.6735
  109MOL0     H15025   2.964   1.423   4.429  1.0575  0.7987 -2.4663
  109MOL0     H15026   2.637   1.404   6.158 -2.0522  1.5316  0.4998
  109MOL0     H15027   2.767   1.433   6.360  0.3549 -0.1421  2.8253
  109MOL0     H15028   2.996   1.388   6.683  2.5055 -3.8025 -0.8727
  109MOL0     H15029   3.150   1.425   6.859  1.1143 -4.6315  0.6515
  109MOL0     H15030   3.278   1.299   7.072  1.6784 -0.2028 -0.2590
  109MOL0     H15031   3.276   1.468   7.022 -0.6474  0.0517  0.6790
  109MOL0     H15032   3.419   1.461   7.205  0.3174  1.4422 -0.7113
  109MOL0     H15033   3.306   1.367   7.296 -0.8092 -0.9444  0.1996
  109MOL0     H15034   3.223   1.649   7.194  0.0969  2.2430  1.6221
  109MOL0     H15035   3.160   1.573   7.328  0.2274  1.0748 -0.4350
  109MOL0     H15036   3.386   1.755   7.283  2.4060 -1.0445 -0.7844
  109MOL0     H15037   3.451   1.608   7.366  0.6521 -0.2496 -2.1719
  109MOL0     H15038   3.197   1.740   7.671  2.5145  0.0347  1.0238
  109MOL0     H15039   2.887   1.298   7.155  4.2923  0.0246  1.0067
  109MOL0     H15040   2.610   1.284   6.942  0.0994  0.3324  0.7872
  109MOL0     H15041   2.683   1.121   6.978  3.3386 -1.0533  1.3456
  109MOL0     H15042   2.662   1.251   7.103 -1.8799 -1.9511 -0.8818
  110MOL0     O15043   4.068   0.972   2.213 -0.5230  0.6827 -0.0834
  110MOL0     C15044   4.137   1.075   2.222 -0.3080 -0.4273  0.4436
  110MOL0     O15045   4.080   1.196   2.196 -0.2520 -0.1250  0.0983
  110MOL0     C15046   3.969   1.213   2.108 -0.9657 -0.5440  0.3416
  110MOL0     C15047   3.958   1.140   1.992  0.3438 -0.1354 -0.8272
  110MOL0     C15048   3.855   1.164   1.905 -0.3227  0.7444  0.3056
  110MOL0     C15049   3.759   1.255   1.932  0.0482 -0.2562  0.4360
  110MOL0     O15050   3.669   1.287   1.829 -0.2883 -0.7345  0.6494
  110MOL0     C15051   3.537   1.269   1.872  0.0756  0.3622 -0.5805
  110MOL0     C15052   3.447   1.334   1.765 -0.2118 -0.3628 -0.3004
  110MOL0     C15053   3.442   1.246   1.641 -0.0602  0.6667 -0.1788
  110MOL0     C15054   3.363   1.115   1.656 -0.1231  0.3022 -0.6108
  110MOL0     C15055   3.416   1.009   1.550 -0.2991  0.0085 -0.7455
  110MOL0     C15056   3.405   1.044   1.405  0.4878 -1.1576  0.1245
  110MOL0     C15057   3.263   1.079   1.357 -0.5746 -0.5065 -0.1919
  110MOL0     C15058   3.250   1.057   1.204  0.0321  0.0592 -0.2453
  110MOL0     N15059   3.318   1.164   1.128  0.3983 -0.0631 -0.7501
  110MOL0     C15060   3.455   1.170   1.108  0.6239 -0.3037  0.0177
  110MOL0     C15061   3.467   1.276   1.027  0.6578 -0.1531 -0.8184
  110MOL0     C15062   3.594   1.318   0.963 -0.4262  0.5250  0.1241
  110MOL0     C15063   3.684   1.379   1.066 -0.0971 -0.5342 -0.6905
  110MOL0     C15064   3.798   1.456   0.984 -0.2339  0.1529 -0.3461
  110MOL0     C15065   3.886   1.539   1.068 -0.4951  0.5754 -0.6159
  110MOL0     O15066   3.828   1.656   1.137  0.1377 -0.0759 -0.2636
  110MOL0     C15067   3.896   1.738   1.221  0.0368 -0.3903 -0.2106
  110MOL0     C15068   3.823   1.846   1.276 -0.4865 -0.1289  0.7956
  110MOL0     C15069   3.886   1.922   1.369 -1.2078  0.6142  0.6775
  110MOL0     C15070   3.800   2.039   1.412 -0.3466  0.0060  0.0590
  110MOL0     C15071   4.015   1.893   1.415 -1.0826  0.0949 -0.7664
  110MOL0     C15072   4.090   1.993   1.506  0.4507 -0.3540  0.2243
  110MOL0     O15073   4.070   2.130   1.502  0.1372  0.6044  0.2782
  110MOL0     C15074   4.114   2.200   1.608  0.5831  0.0385  1.4326
  110MOL0     C15075   4.221   2.301   1.588  0.7517  0.4774 -0.3064
  110MOL0     C15076   4.247   2.383   1.705  0.2578 -0.5059  0.2834
  110MOL0     C15077   4.183   2.374   1.833 -0.6633  0.8678 -0.1781
  110MOL0     O15078   4.213   2.467   1.927  0.6388  0.0347  0.0879
  110MOL0     C15079   4.145   2.461   2.056  1.2259 -0.0130  0.0694
  110MOL0     C15080   4.210   2.543   2.161  0.4716  0.5900  0.0385
  110MOL0     C15081   4.351   2.490   2.198  0.3228  0.1665  0.4003
  110MOL0     C15082   4.413   2.577   2.309  0.7012 -1.1781 -0.4431
  110MOL0     C15083   4.544   2.516   2.367 -1.4010  0.3034  0.2090
  110MOL0     C15084   4.645   2.468   2.266  0.3114  0.1671 -0.4419
  110MOL0     C15085   4.701   2.576   2.178  0.1216  0.7622 -0.1472
  110MOL0     C15086   4.786   2.685   2.248 -0.0303 -1.1647 -0.2586
  110MOL0    Cl15087   4.934   2.610   2.326 -0.7445  0.0280  0.0672
  110MOL0     C15088   4.103   2.258   1.854  0.3098  0.5209  0.8360
  110MOL0     C15089   4.059   2.191   1.739  0.1214  0.2883  0.5469
  110MOL0     O15090   4.173   1.944   1.578  0.1302  0.5262 -0.3075
  110MOL0     C15091   4.079   1.781   1.361  0.3385 -0.6452 -0.4010
  110MOL0     C15092   4.026   1.711   1.252 -0.2692  0.1018  0.3497
  110MOL0     N15093   3.342   1.325   1.004  0.5244 -0.0760 -0.8002
  110MOL0     N15094   3.248   1.269   1.075 -0.9256 -0.6242  0.2145
  110MOL0     C15095   3.762   1.332   2.053 -0.1596 -0.5295 -0.2514
  110MOL0     C15096   3.872   1.309   2.138 -0.0420  0.1217  0.3582
  110MOL0     C15097   4.278   1.079   2.258  0.9883  0.0053  0.2446
  110MOL0     C15098   4.333   1.194   2.315  0.5761 -0.2822  0.1144
  110MOL0     C15099   4.467   1.212   2.347  0.4758  0.0180 -0.1589
  110MOL0     C15100   4.562   1.100   2.350  0.3795  0.6455  0.2264
  110MOL0     O15101   4.694   1.109   2.381  0.0479 -0.4359  0.2787
  110MOL0     C15102   4.734   1.216   2.467 -0.1682 -0.2778  0.5106
  110MOL0     C15103   4.885   1.195   2.513 -0.0412  0.8185 -0.5099
  110MOL0     C15104   4.891   1.081   2.614  0.1316  0.1485 -0.9817
  110MOL0     C15105   4.862   0.941   2.548 -0.0550  0.3525  0.1467
  110MOL0     C15106   4.925   0.835   2.624  0.3306 -0.1039 -0.2842
  110MOL0     C15107   4.987   0.743   2.678 -0.5178 -0.1722  0.9960
  110MOL0     C15108   4.513   0.980   2.306  0.0180 -0.0354  0.5039
  110MOL0     C15109   4.376   0.970   2.255  0.0533  0.3151 -0.0347
  110MOL0     C15110   4.328   0.834   2.198 -0.2690 -0.3337  0.8648
  110MOL0     H15111   4.035   1.068   1.966 -2.3175 -2.0440 -4.2273
  110MOL0     H15112   3.855   1.109   1.811 -0.1029 -0.7455  1.1400
  110MOL0     H15113   3.523   1.330   1.961 -0.0549 -1.4869  0.7281
  110MOL0     H15114   3.511   1.165   1.895 -0.3231  0.4255 -0.7383
  110MOL0     H15115   3.345   1.362   1.795  1.1290  1.9690  2.6182
  110MOL0     H15116   3.488   1.432   1.739 -0.6940 -0.5858 -2.0476
  110MOL0     H15117   3.388   1.297   1.560 -0.6865 -0.6423 -0.6143
  110MOL0     H15118   3.537   1.228   1.589 -2.3650  0.5672 -4.8362
  110MOL0     H15119   3.382   1.073   1.756 -0.7594  0.2275 -0.5191
  110MOL0     H15120   3.258   1.137   1.641  0.2146  1.6916 -1.0585
  110MOL0     H15121   3.352   0.924   1.575  0.3178 -0.4406 -0.6590
  110MOL0     H15122   3.522   0.983   1.558  0.7674  3.2638 -2.5558
  110MOL0     H15123   3.465   1.133   1.384 -0.6260 -0.2694  0.5977
  110MOL0     H15124   3.456   0.964   1.350  1.8712 -1.1196  1.3051
  110MOL0     H15125   3.233   1.182   1.377  0.2574 -0.7718  3.0069
  110MOL0     H15126   3.198   0.999   1.395  0.6662 -1.6271 -0.3537
  110MOL0     H15127   3.304   0.965   1.180  0.3648 -0.0905  1.0211
  110MOL0     H15128   3.144   1.058   1.176 -0.0594  1.0246  0.0980
  110MOL0     H15129   3.536   1.103   1.137 -0.7469 -2.4919 -0.8975
  110MOL0     H15130   3.567   1.388   0.883 -2.6755 -1.2900 -0.8213
  110MOL0     H15131   3.640   1.226   0.925 -2.5349 -0.3035 -0.6181
  110MOL0     H15132   3.617   1.442   1.125 -0.6099 -0.7943 -0.9859
  110MOL0     H15133   3.724   1.301   1.131  1.1591  0.2780 -0.4482
  110MOL0     H15134   3.857   1.382   0.930 -1.3549 -0.9067 -0.1667
  110MOL0     H15135   3.740   1.523   0.920 -1.2063 -1.7360 -1.5287
  110MOL0     H15136   3.925   1.472   1.146 -2.1207  0.9885  0.5958
  110MOL0     H15137   3.970   1.575   1.009  2.8525 -2.8093  1.5532
  110MOL0     H15138   3.721   1.851   1.239 -0.5607 -3.2705  0.3277
  110MOL0     H15139   3.703   2.033   1.362 -0.2298 -3.3632  0.0015
  110MOL0     H15140   3.850   2.128   1.373 -0.5717 -0.4039 -1.2084
  110MOL0     H15141   3.796   2.034   1.521 -1.8345  0.6021  0.0487
  110MOL0     H15142   4.268   2.330   1.494  0.7099 -0.9746 -0.7976
  110MOL0     H15143   4.327   2.457   1.703 -0.0361 -0.1859  0.2016
  110MOL0     H15144   4.037   2.475   2.045  1.2440 -0.5995 -0.9394
  110MOL0     H15145   4.152   2.358   2.092  0.0298 -0.1905 -0.1687
  110MOL0     H15146   4.223   2.642   2.116 -0.2473  0.5442 -0.2933
  110MOL0     H15147   4.137   2.540   2.243 -0.8172 -0.6897 -1.1035
  110MOL0     H15148   4.414   2.491   2.109 -2.5712 -3.1661 -1.9488
  110MOL0     H15149   4.343   2.383   2.221  0.0017  0.1252  0.0976
  110MOL0     H15150   4.336   2.593   2.385  0.9362 -1.2648 -0.1871
  110MOL0     H15151   4.448   2.671   2.264  2.4403 -0.6079  1.9021
  110MOL0     H15152   4.593   2.591   2.429 -0.4860  2.3680 -2.7593
  110MOL0     H15153   4.517   2.429   2.428  0.9763 -0.3831  0.3775
  110MOL0     H15154   4.595   2.398   2.198  1.4708 -1.9136  0.7214
  110MOL0     H15155   4.728   2.412   2.311  1.9305  1.1005 -2.1194
  110MOL0     H15156   4.615   2.621   2.128  1.2238  3.2105 -0.0001
  110MOL0     H15157   4.767   2.542   2.098 -2.6860 -0.9784 -1.8569
  110MOL0     H15158   4.745   2.755   2.322  3.1227  1.8166 -1.0840
  110MOL0     H15159   4.811   2.747   2.162  0.1990  0.9960  1.2722
  110MOL0     H15160   4.068   2.238   1.954  1.0958 -0.5204  0.9219
  110MOL0     H15161   3.978   2.120   1.756  0.4672 -0.1935  0.1936
  110MOL0     H15162   4.186   1.773   1.375  0.6529 -4.4054 -3.2725
  110MOL0     H15163   4.079   1.637   1.193 -0.6363  0.5499 -0.5617
  110MOL0     H15164   3.708   1.421   2.082  1.7204  0.1386  1.4680
  110MOL0     H15165   3.894   1.371   2.225  1.0920  0.4673 -0.1585
  110MOL0     H15166   4.267   1.279   2.323 -0.5426 -1.0156 -0.9005
  110MOL0     H15167   4.496   1.315   2.362 -0.8132  0.3898 -0.0847
  110MOL0     H15168   4.731   1.305   2.404  3.7340 -0.3433 -0.0223
  110MOL0     H15169   4.667   1.241   2.550 -0.0213  2.4338 -0.1048
  110MOL0     H15170   4.925   1.287   2.557 -1.2674  0.6255  1.1379
  110MOL0     H15171   4.948   1.176   2.426  0.3724 -0.4212  0.0342
  110MOL0     H15172   4.993   1.087   2.654 -0.9103  3.5012  1.7281
  110MOL0     H15173   4.835   1.097   2.707  0.3325 -0.4461 -0.7527
  110MOL0     H15174   4.900   0.941   2.445 -0.6714  1.5132 -0.1046
  110MOL0     H15175   4.755   0.919   2.541 -0.1540  1.2504 -1.7569
  110MOL0     H15176   5.036   0.666   2.736  2.8862  1.8568  1.0689
  110MOL0     H15177   4.580   0.895   2.303 -0.0748 -0.0973 -1.1673
  110MOL0     H15178   4.253   0.784   2.260 -1.6841 -0.4372 -0.8426
  110MOL0     H15179   4.293   0.838   2.094  5.1438 -3.1866 -1.4640
  110MOL0     H15180   4.413   0.766   2.190  0.4865  0.6150  0.6938
  111MOL0     O15181   5.731  11.182   1.147 -0.2443 -0.8468  0.1586
  111MOL0     C15182   5.742  11.303   1.127  0.5958 -0.2104 -0.1153
  111MOL0     O15183   5.817  11.390   1.199  0.1358  0.6344 -0.5023
  111MOL0     C15184   5.922  11.350   1.287  0.7798  0.5425  0.5571
  111MOL0     C15185   5.996  11.235   1.275 -0.5552 -0.0649 -0.0927
  111MOL0     C15186   6.101  11.204   1.361 -0.4134 -0.5002 -0.3021
  111MOL0     C15187   6.130  11.284   1.471  0.0755  0.4363  1.6427
  111MOL0     O15188   6.238  11.250   1.552  0.3338 -0.4111 -0.4236
  111MOL0     C15189   6.290  11.337   1.653 -0.8319 -0.1405 -0.0171
  111MOL0     C15190   6.376  11.447   1.581  0.0116  0.1498  0.0684
  111MOL0     C15191   6.497  11.401   1.499 -0.0936  0.0623  0.0258
  111MOL0     C15192   6.562  11.527   1.440 -0.3141  0.0132  0.2105
  111MOL0     C15193   6.704  11.485   1.388 -0.9942 -0.1247 -0.3980
  111MOL0     C15194   6.771  11.606   1.322 -0.0305  0.2237 -1.0751
  111MOL0     C15195   6.900  11.539   1.258  0.3397 -0.8307 -0.0508
  111MOL0     C15196   6.949  11.612   1.136 -0.1713  0.2171  1.0668
  111MOL0     N15197   7.016  11.736   1.165  1.4427 -0.4714  0.6433
  111MOL0     C15198   6.947  11.857   1.191  0.3202  0.0284 -1.1758
  111MOL0     C15199   7.051  11.947   1.205  0.2197 -0.2855 -0.3306
  111MOL0     C15200   7.033  12.088   1.262 -0.4302  0.5818 -0.0475
  111MOL0     C15201   7.015  12.183   1.149  0.5560 -0.0905 -0.4808
  111MOL0     C15202   7.141  12.233   1.088 -0.4790  0.5677 -0.7559
  111MOL0     C15203   7.261  12.273   1.175 -0.0188 -0.0756 -0.0959
  111MOL0     O15204   7.229  12.390   1.251 -0.5279  0.4562 -0.0757
  111MOL0     C15205   7.315  12.405   1.363 -0.0823  0.0022 -0.3685
  111MOL0     C15206   7.243  12.447   1.472 -0.3939  0.3652 -0.3032
  111MOL0     C15207   7.305  12.497   1.590 -1.0230 -0.2313  1.0475
  111MOL0     C15208   7.211  12.539   1.689  0.2173 -0.3912  0.0397
  111MOL0     C15209   7.447  12.489   1.604 -0.6002  1.0364 -0.7345
  111MOL0     C15210   7.516  12.535   1.727 -0.5602 -0.6172 -0.6814
  111MOL0     O15211   7.438  12.609   1.813 -0.1734 -0.3716 -0.0919
  111MOL0     C15212   7.492  12.654   1.935 -0.9538  0.8617 -0.4482
  111MOL0     C15213   7.609  12.730   1.943  0.4357  0.1369 -0.2043
  111MOL0     C15214   7.661  12.763   2.068  0.1007  0.5430 -0.3019
  111MOL0     C15215   7.599  12.731   2.193 -0.3836 -0.1901 -0.4490
  111MOL0     O15216   7.666  12.769   2.309 -0.0617  0.5561  0.7171
  111MOL0     C15217   7.594  12.797   2.428  0.0604 -0.4994  0.3741
  111MOL0     C15218   7.509  12.925   2.407  0.6535  0.1468 -0.1248
  111MOL0     C15219   7.592  13.055   2.450 -0.3698 -1.0087  0.4789
  111MOL0     C15220   7.584  13.085   2.603 -0.2668 -0.8692 -0.4379
  111MOL0     C15221   7.645  13.219   2.654 -0.2322 -0.3315 -0.2762
  111MOL0     C15222   7.765  13.259   2.568 -0.1484 -0.6185 -0.4289
  111MOL0     C15223   7.804  13.396   2.629  0.2135  0.2862  1.6442
  111MOL0     C15224   7.911  13.460   2.549  0.1876 -0.5367  0.0555
  111MOL0    Cl15225   7.944  13.622   2.620 -0.1575 -0.3140 -0.5042
  111MOL0     C15226   7.478  12.666   2.178 -0.3919  0.7776  0.7033
  111MOL0     C15227   7.419  12.636   2.054  1.0561 -0.2058  0.6753
  111MOL0     O15228   7.633  12.506   1.747 -0.1410 -0.2784  0.8813
  111MOL0     C15229   7.522  12.457   1.493  0.8174 -0.1923 -0.1939
  111MOL0     C15230   7.459  12.404   1.375  0.5136  0.2678 -0.5263
  111MOL0     N15231   7.171  11.887   1.174 -0.1363 -0.3256  0.3709
  111MOL0     N15232   7.148  11.761   1.148 -0.5023 -0.2602 -0.6539
  111MOL0     C15233   6.052  11.399   1.486  0.2864 -0.5237 -0.5294
  111MOL0     C15234   5.950  11.431   1.392 -0.0502 -0.6227 -0.5318
  111MOL0     C15235   5.666  11.366   1.010 -0.1640 -0.0091 -0.3377
  111MOL0     C15236   5.718  11.481   0.943 -0.2344  0.0834  0.5340
  111MOL0     C15237   5.663  11.546   0.829  0.3482  0.1405 -0.4448
  111MOL0     C15238   5.550  11.486   0.779  0.4925  0.6465  0.1752
  111MOL0     O15239   5.494  11.541   0.662  0.1357 -0.6246 -0.5230
  111MOL0     C15240   5.404  11.657   0.673  0.7249 -1.0317  0.4685
  111MOL0     C15241   5.374  11.718   0.538 -0.4598 -0.1506  0.0116
  111MOL0     C15242   5.269  11.634   0.462  0.2302 -0.4749  0.3806
  111MOL0     C15243   5.200  11.733   0.371  0.4225 -0.0754 -0.1884
  111MOL0     C15244   5.292  11.777   0.263  0.2409  0.0666 -0.1913
  111MOL0     C15245   5.368  11.818   0.181  0.2678 -0.6734 -0.5947
  111MOL0     C15246   5.496  11.381   0.846 -0.9106 -0.3296 -0.8507
  111MOL0     C15247   5.551  11.317   0.951 -0.4160  0.7731 -0.5656
  111MOL0     C15248   5.488  11.181   0.993 -1.1139 -0.0089  0.6439
  111MOL0     H15249   5.980  11.152   1.207  1.0823 -0.7805  0.3433
  111MOL0     H15250   6.148  11.108   1.341  0.0874 -0.4054  0.3630
  111MOL0     H15251   6.341  11.276   1.729  0.4639  0.1016 -0.6689
  111MOL0     H15252   6.208  11.383   1.709  0.3457  3.0062 -0.6818
  111MOL0     H15253   6.312  11.515   1.523 -0.7777 -1.3553 -0.8931
  111MOL0     H15254   6.423  11.508   1.659  1.6907 -0.5515 -0.3570
  111MOL0     H15255   6.579  11.353   1.553 -1.9497 -2.6992  0.6288
  111MOL0     H15256   6.460  11.338   1.418 -2.4640  3.1347 -1.5036
  111MOL0     H15257   6.505  11.574   1.360  3.4881  0.9374 -2.2159
  111MOL0     H15258   6.581  11.604   1.515  3.0699  0.1381 -0.6382
  111MOL0     H15259   6.686  11.403   1.318 -0.5004 -0.7780  0.2323
  111MOL0     H15260   6.763  11.458   1.476  1.1436  5.0922  0.1671
  111MOL0     H15261   6.701  11.634   1.243 -1.4414  0.8569  0.3446
  111MOL0     H15262   6.804  11.692   1.381  0.4346 -0.6770  0.0228
  111MOL0     H15263   6.863  11.444   1.218 -0.8407 -0.4264  0.0565
  111MOL0     H15264   6.978  11.529   1.334  3.2710  0.4753 -2.6707
  111MOL0     H15265   7.018  11.545   1.084  1.1802  0.6644  2.2289
  111MOL0     H15266   6.863  11.636   1.074  1.0854  1.4654 -0.2716
  111MOL0     H15267   6.841  11.869   1.211  0.3970 -2.9277  1.8238
  111MOL0     H15268   7.117  12.109   1.327 -0.6372 -0.6800  0.6629
  111MOL0     H15269   6.951  12.107   1.331  0.1331  0.5681  0.6309
  111MOL0     H15270   6.948  12.134   1.079 -1.3813  2.3733 -0.5089
  111MOL0     H15271   6.971  12.277   1.185 -0.0450  1.1599 -4.0782
  111MOL0     H15272   7.180  12.171   1.007  1.5295  1.5314 -0.5936
  111MOL0     H15273   7.113  12.320   1.029 -0.8202  1.2628  0.4110
  111MOL0     H15274   7.303  12.192   1.235 -1.9435 -0.3597  0.9436
  111MOL0     H15275   7.352  12.296   1.118  0.8545 -1.5192  0.6565
  111MOL0     H15276   7.135  12.435   1.474 -0.1280 -2.9272  0.6641
  111MOL0     H15277   7.234  12.503   1.790  1.5314 -3.2620 -1.1555
  111MOL0     H15278   7.111  12.505   1.661 -0.8047  2.6045 -0.2559
  111MOL0     H15279   7.219  12.648   1.684 -1.3167 -0.2328  0.6450
  111MOL0     H15280   7.651  12.757   1.847  2.3416 -1.7651  0.0015
  111MOL0     H15281   7.766  12.788   2.071 -0.4633  3.6068 -1.4945
  111MOL0     H15282   7.522  12.715   2.438 -1.6955  0.6907 -1.6262
  111MOL0     H15283   7.658  12.807   2.516 -2.7361 -0.1303  2.5091
  111MOL0     H15284   7.474  12.936   2.304  1.4622 -3.1127 -0.8647
  111MOL0     H15285   7.417  12.913   2.465 -0.4010  1.0607 -1.5531
  111MOL0     H15286   7.567  13.147   2.396 -0.6873  0.0470  2.3524
  111MOL0     H15287   7.697  13.036   2.426  0.6308  0.0042  3.6697
  111MOL0     H15288   7.632  13.006   2.661  0.4494 -0.7939 -0.9264
  111MOL0     H15289   7.477  13.085   2.629 -0.1544 -1.2576  0.0341
  111MOL0     H15290   7.571  13.299   2.653  0.4362  0.3165 -2.2129
  111MOL0     H15291   7.682  13.202   2.756 -0.2332 -2.6105 -0.6082
  111MOL0     H15292   7.728  13.284   2.468  0.9973 -1.1630 -1.0072
  111MOL0     H15293   7.846  13.186   2.572  0.4581  0.0299  3.4745
  111MOL0     H15294   7.841  13.384   2.731  2.7363 -0.4226  0.7272
  111MOL0     H15295   7.718  13.463   2.633 -0.1448 -0.1122  0.8681
  111MOL0     H15296   7.871  13.463   2.447 -0.1281 -1.6657  0.1419
  111MOL0     H15297   8.002  13.400   2.539  0.4353  0.1149 -2.2361
  111MOL0     H15298   7.430  12.624   2.266  1.1849 -4.0939 -0.4367
  111MOL0     H15299   7.319  12.594   2.058  0.7745  0.1182 -1.6226
  111MOL0     H15300   7.629  12.475   1.493  0.5754  1.4601  0.8434
  111MOL0     H15301   7.508  12.372   1.284 -1.7345 -1.3343 -1.2781
  111MOL0     H15302   6.058  11.467   1.570  3.0571  1.7131 -2.3728
  111MOL0     H15303   5.884  11.516   1.405 -4.9603 -3.9630 -0.8220
  111MOL0     H15304   5.809  11.528   0.980  0.1179 -0.4874  0.4144
  111MOL0     H15305   5.708  11.632   0.780  0.6321  0.0688 -0.3096
  111MOL0     H15306   5.317  11.635   0.736 -2.4201  0.5955 -2.9066
  111MOL0     H15307   5.461  11.733   0.726  0.2318 -1.3545  1.4989
  111MOL0     H15308   5.462  11.729   0.473 -0.0031  0.5751  0.7222
  111MOL0     H15309   5.337  11.820   0.556 -1.0968 -0.6267  1.5195
  111MOL0     H15310   5.320  11.556   0.406  1.1163 -0.4445  1.1182
  111MOL0     H15311   5.194  11.610   0.539  0.2940  1.9440  1.2822
  111MOL0     H15312   5.161  11.822   0.421 -2.3547  0.0239 -2.2726
  111MOL0     H15313   5.114  11.699   0.312 -0.9078  0.4016  1.3857
  111MOL0     H15314   5.440  11.862   0.114 -1.3436  0.7188 -1.4783
  111MOL0     H15315   5.412  11.332   0.799 -1.2095 -2.1122  1.3694
  111MOL0     H15316   5.488  11.170   1.102 -2.4885 -1.3518  0.5547
  111MOL0     H15317   5.383  11.166   0.966 -0.2783  0.2621 -3.3091
  111MOL0     H15318   5.548  11.104   0.944  1.5672  2.0643  0.4746
  112MOL0     O15319   1.921   7.753  11.430 -0.6548 -0.5629  0.4943
  112MOL0     C15320   2.014   7.817  11.384  0.3481 -0.5207  0.0701
  112MOL0     O15321   2.003   7.925  11.297  0.1284 -0.1211  0.0608
  112MOL0     C15322   1.879   7.942  11.243 -0.0953 -0.7253 -0.3736
  112MOL0     C15323   1.795   7.843  11.175 -0.0792  0.3200 -0.7427
  112MOL0     C15324   1.667   7.886  11.137 -0.0323 -0.4947  0.4554
  112MOL0     C15325   1.619   8.014  11.154  0.1681  0.2115  0.7662
  112MOL0     O15326   1.493   8.043  11.101  0.6082 -0.1387 -0.6541
  112MOL0     C15327   1.438   8.169  11.117 -0.1393  0.5642 -0.1226
  112MOL0     C15328   1.287   8.149  11.106  0.4695 -0.2961 -0.1611
  112MOL0     C15329   1.243   8.044  11.209  0.6362 -0.5882  0.6012
  112MOL0     C15330   1.096   7.991  11.196  0.4851 -0.5026  0.0977
  112MOL0     C15331   1.071   7.883  11.296 -0.5740  0.3547  0.4581
  112MOL0     C15332   1.070   7.930  11.434  0.8649  0.7073 -0.5874
  112MOL0     C15333   1.017   7.824  11.523 -0.3380 -0.1548 -0.6627
  112MOL0     C15334   0.993   7.881  11.659 -1.1561  0.5989 -0.2661
  112MOL0     N15335   1.116   7.899  11.733 -0.0256 -0.3443 -0.5557
  112MOL0     C15336   1.169   8.019  11.779  0.6689 -0.8429 -0.0553
  112MOL0     C15337   1.251   7.980  11.869 -0.0367  0.3109 -1.1182
  112MOL0     C15338   1.320   8.067  11.955 -0.5715  0.7208  0.2210
  112MOL0     C15339   1.455   8.098  11.895  0.0644 -0.0113  0.0285
  112MOL0     C15340   1.532   8.175  12.000  0.6563 -0.5859 -0.5040
  112MOL0     C15341   1.655   8.243  11.938  0.6377 -0.0333 -1.1620
  112MOL0     O15342   1.689   8.346  12.029 -0.0625 -0.0620  0.2097
  112MOL0     C15343   1.791   8.434  11.985 -1.1313  0.1039  0.2488
  112MOL0     C15344   1.900   8.388  11.905 -1.2677  0.6616  0.0310
  112MOL0     C15345   1.988   8.481  11.848 -0.2643 -0.0619  0.4342
  112MOL0     C15346   2.091   8.432  11.750 -0.0967  0.3729  0.2862
  112MOL0     C15347   1.993   8.613  11.902  0.4652  0.2417  0.2017
  112MOL0     C15348   2.084   8.714  11.849 -0.5046 -0.2070  0.7677
  112MOL0     O15349   2.113   8.722  11.716 -0.0651  0.0997 -0.3589
  112MOL0     C15350   2.170   8.826  11.645 -0.3069 -0.0976 -0.3028
  112MOL0     C15351   2.224   8.795  11.525  0.0156 -0.0250  1.0382
  112MOL0     C15352   2.279   8.895  11.449  0.2179 -0.1442 -0.2060
  112MOL0     C15353   2.291   9.028  11.491 -0.2716 -0.5551 -0.6037
  112MOL0     O15354   2.357   9.119  11.418 -0.1435  0.0200  0.2733
  112MOL0     C15355   2.284   9.217  11.341  0.7374  0.0847  0.1731
  112MOL0     C15356   2.383   9.269  11.239  0.5609  0.0664 -0.7278
  112MOL0     C15357   2.304   9.330  11.127 -0.4714 -0.0319 -0.0966
  112MOL0     C15358   2.391   9.334  11.012  0.1279  0.3927 -0.2460
  112MOL0     C15359   2.301   9.392  10.893  0.3685 -0.2610  0.1345
  112MOL0     C15360   2.372   9.402  10.759  0.9033 -0.2187  0.1659
  112MOL0     C15361   2.358   9.265  10.685  0.6347 -0.1007  0.5051
  112MOL0     C15362   2.462   9.240  10.581  0.4220 -0.7002 -0.5290
  112MOL0    Cl15363   2.424   9.302  10.416 -0.0016 -0.2361  0.1667
  112MOL0     C15364   2.244   9.066  11.625  0.0506  0.0009 -0.1177
  112MOL0     C15365   2.179   8.960  11.696 -0.1828  0.1451  0.6599
  112MOL0     O15366   2.139   8.785  11.932  0.4719  0.1344 -0.2587
  112MOL0     C15367   1.912   8.647  12.002 -1.0739 -0.3341 -0.9170
  112MOL0     C15368   1.809   8.557  12.043  0.1787  0.4623  0.0074
  112MOL0     N15369   1.264   7.836  11.876  0.8263 -0.3785  0.6129
  112MOL0     N15370   1.182   7.787  11.791  0.1453 -0.7609 -0.7955
  112MOL0     C15371   1.710   8.109  11.215 -0.5380  0.0816  0.6506
  112MOL0     C15372   1.843   8.076  11.249 -0.0874 -0.3315  0.0542
  112MOL0     C15373   2.149   7.776  11.424 -0.2539 -0.0599 -0.3832
  112MOL0     C15374   2.253   7.851  11.364  0.5054 -0.9684  0.0043
  112MOL0     C15375   2.385   7.812  11.385  0.1390 -0.1334 -0.1746
  112MOL0     C15376   2.418   7.707  11.478  0.1538  0.5076 -0.0312
  112MOL0     O15377   2.535   7.660  11.519 -0.0996 -0.3468 -0.3774
  112MOL0     C15378   2.657   7.712  11.460  0.3054 -0.1212 -0.2423
  112MOL0     C15379   2.699   7.643  11.331  0.2226  0.3921  0.4363
  112MOL0     C15380   2.837   7.689  11.280 -0.1012  0.1258  0.6078
  112MOL0     C15381   2.831   7.821  11.199  0.0178 -0.2672 -0.5085
  112MOL0     C15382   2.720   7.829  11.097 -1.1250  0.5560  0.4568
  112MOL0     C15383   2.616   7.824  11.039  0.3148 -0.6569  0.3933
  112MOL0     C15384   2.317   7.630  11.521 -1.0143  0.3855 -0.5990
  112MOL0     C15385   2.185   7.651  11.502  0.0935 -0.0059  0.1915
  112MOL0     C15386   2.085   7.558  11.564  0.4219  0.3611  0.1900
  112MOL0     H15387   1.827   7.740  11.168  0.2948  0.5000 -1.7468
  112MOL0     H15388   1.609   7.822  11.070 -0.9519 -0.9404  1.6448
  112MOL0     H15389   1.470   8.238  11.038  6.9559 -1.7724 -0.0066
  112MOL0     H15390   1.459   8.217  11.213  2.8589 -0.0232 -0.3868
  112MOL0     H15391   1.233   8.243  11.114  0.0818 -0.5923  0.9331
  112MOL0     H15392   1.254   8.105  11.011 -1.2776 -1.6152  0.9729
  112MOL0     H15393   1.313   7.960  11.212 -0.7117 -1.7307  0.9369
  112MOL0     H15394   1.261   8.087  11.308  0.7505 -1.4963  0.9880
  112MOL0     H15395   1.030   8.076  11.210 -0.2453 -1.2167  1.1590
  112MOL0     H15396   1.083   7.947  11.096  2.3471 -1.3528  0.1822
  112MOL0     H15397   1.150   7.807  11.288  0.5547  1.4858  0.6333
  112MOL0     H15398   0.969   7.855  11.266 -0.7197 -0.3717  1.5511
  112MOL0     H15399   1.171   7.945  11.472  1.0014  1.9225 -1.3944
  112MOL0     H15400   1.006   8.016  11.457  0.6558  0.7651 -1.3721
  112MOL0     H15401   1.080   7.734  11.522 -1.3951 -0.9136 -0.4466
  112MOL0     H15402   0.920   7.803  11.477  0.0009 -1.7978 -0.6845
  112MOL0     H15403   0.930   7.970  11.666  1.5312  2.5584  0.7206
  112MOL0     H15404   0.933   7.798  11.698 -1.0793  0.6614 -0.0094
  112MOL0     H15405   1.133   8.112  11.736 -0.8522 -2.3858 -2.3947
  112MOL0     H15406   1.340   8.013  12.047  0.3957  2.7309  1.2415
  112MOL0     H15407   1.262   8.155  11.982 -0.2350  1.6624 -1.9056
  112MOL0     H15408   1.517   8.017  11.857  1.3442  0.7390  0.4749
  112MOL0     H15409   1.447   8.171  11.814  0.8599 -1.5551 -1.4696
  112MOL0     H15410   1.472   8.253  12.047 -0.0752 -0.6614 -1.2883
  112MOL0     H15411   1.566   8.103  12.075 -0.7148  0.9677  1.7414
  112MOL0     H15412   1.730   8.166  11.920 -0.4899 -0.9603 -2.0041
  112MOL0     H15413   1.644   8.290  11.840  1.9113  0.0611 -1.2758
  112MOL0     H15414   1.912   8.292  11.857  1.6045  2.3743 -3.0910
  112MOL0     H15415   2.047   8.444  11.650 -0.3305  0.9228  0.4500
  112MOL0     H15416   2.119   8.329  11.770  0.9987  0.6503  0.2539
  112MOL0     H15417   2.179   8.498  11.751 -0.1432  0.4830 -0.8925
  112MOL0     H15418   2.222   8.691  11.495 -0.3798  0.1349  0.4889
  112MOL0     H15419   2.342   8.874  11.363  0.9063  1.9543 -0.2765
  112MOL0     H15420   2.196   9.172  11.296  1.2964 -0.1604 -0.7014
  112MOL0     H15421   2.241   9.291  11.409 -2.4645 -1.8205  0.3919
  112MOL0     H15422   2.452   9.342  11.282  0.8936  0.6209 -2.1564
  112MOL0     H15423   2.437   9.182  11.200 -0.9616 -2.5344  2.4549
  112MOL0     H15424   2.255   9.425  11.151 -0.1576 -0.2820  1.7051
  112MOL0     H15425   2.224   9.257  11.112 -0.6439 -0.0656  0.9318
  112MOL0     H15426   2.424   9.232  10.993 -2.2842 -0.6740  0.8695
  112MOL0     H15427   2.472   9.407  11.028  1.5878 -0.5078 -2.8660
  112MOL0     H15428   2.208   9.336  10.877 -0.3072  1.1650 -1.2329
  112MOL0     H15429   2.263   9.491  10.921 -0.4354 -0.8158  1.0432
  112MOL0     H15430   2.477   9.428  10.778  1.2153 -1.1596 -0.2064
  112MOL0     H15431   2.329   9.490  10.710 -0.6363 -0.5657  0.8343
  112MOL0     H15432   2.260   9.258  10.637  0.4958 -1.9347  0.9666
  112MOL0     H15433   2.374   9.187  10.760  0.0173  1.7052  2.5934
  112MOL0     H15434   2.468   9.131  10.568 -0.8609 -0.5671 -2.7311
  112MOL0     H15435   2.555   9.278  10.623  0.2917 -0.8908 -0.0556
  112MOL0     H15436   2.257   9.162  11.673  1.1428 -1.2447  2.2960
  112MOL0     H15437   2.140   8.982  11.795 -0.9005  0.0080  0.4110
  112MOL0     H15438   1.931   8.737  12.059  2.1416 -1.4641  0.0417
  112MOL0     H15439   1.748   8.578  12.129 -0.5529  4.0026 -1.1974
  112MOL0     H15440   1.672   8.210  11.222 -0.4746  0.1834 -0.3529
  112MOL0     H15441   1.909   8.154  11.286  0.1789 -0.5117 -0.0452
  112MOL0     H15442   2.236   7.938  11.302 -0.1915 -1.6553 -0.7828
  112MOL0     H15443   2.465   7.863  11.333  2.1262 -1.1401  1.7369
  112MOL0     H15444   2.644   7.819  11.441  2.6501  0.5510  1.4659
  112MOL0     H15445   2.732   7.699  11.538 -1.0339 -1.8405  0.8511
  112MOL0     H15446   2.619   7.658  11.258  2.9460 -2.2211 -3.4475
  112MOL0     H15447   2.698   7.536  11.350  0.4325  0.1634 -0.7763
  112MOL0     H15448   2.910   7.686  11.361  0.7067 -0.6433 -0.1160
  112MOL0     H15449   2.879   7.617  11.208 -0.8957 -1.2166  1.4406
  112MOL0     H15450   2.929   7.841  11.155 -0.3439  2.5711 -0.2059
  112MOL0     H15451   2.814   7.901  11.271 -2.6825  0.0426 -1.3785
  112MOL0     H15452   2.517   7.838  11.000 -0.0080  0.3243  1.4758
  112MOL0     H15453   2.360   7.550  11.580  1.4074  1.3898 -0.9003
  112MOL0     H15454   2.013   7.516  11.493 -2.3134  2.2188  1.6929
  112MOL0     H15455   2.143   7.485  11.621  3.2593 -2.0900 -5.1020
  112MOL0     H15456   2.026   7.618  11.634 -1.4936 -2.5210  1.2118
  113MOL0     O15457  10.008   5.534   3.172 -0.2278 -0.0198  0.0885
  113MOL0     C15458   9.897   5.509   3.124  1.2324  0.5274 -1.2750
  113MOL0     O15459   9.773   5.546   3.181  0.1903  0.2285  0.1388
  113MOL0     C15460   9.791   5.613   3.300 -0.8134  0.3008  0.8700
  113MOL0     C15461   9.857   5.555   3.408  0.2053 -0.2278  0.6145
  113MOL0     C15462   9.862   5.620   3.524 -0.6678 -0.1988 -0.0193
  113MOL0     C15463   9.799   5.742   3.538 -0.1995 -0.7040  0.4908
  113MOL0     O15464   9.802   5.817   3.654 -0.1664 -0.1934  0.2880
  113MOL0     C15465   9.885   5.780   3.754 -0.4372 -0.1411  0.3386
  113MOL0     C15466   9.892   5.884   3.877 -0.7704 -0.2644  0.5549
  113MOL0     C15467  10.024   5.965   3.876 -0.3251 -0.0081  0.1457
  113MOL0     C15468  10.021   6.077   3.764 -0.0797 -0.4162  0.3031
  113MOL0     C15469  10.147   6.157   3.748 -0.6466 -0.2508 -0.3060
  113MOL0     C15470  10.122   6.284   3.662  0.2423  0.6052  0.1550
  113MOL0     C15471  10.122   6.409   3.750 -0.0035  0.4353  0.0667
  113MOL0     C15472  10.258   6.432   3.817  1.0668  0.6951 -0.3019
  113MOL0     N15473  10.239   6.523   3.929  0.1804 -0.1804 -0.0939
  113MOL0     C15474  10.273   6.656   3.937  0.4085  0.5634  0.1036
  113MOL0     C15475  10.288   6.689   4.061 -1.0799 -0.1091 -0.3521
  113MOL0     C15476  10.308   6.833   4.109 -1.3323 -0.6298  0.3325
  113MOL0     C15477  10.178   6.903   4.172  0.0665 -0.2454  1.4484
  113MOL0     C15478  10.146   7.052   4.136  0.1597 -0.3974 -0.3575
  113MOL0     C15479  10.264   7.152   4.156 -0.7082  0.1562  0.6739
  113MOL0     O15480  10.295   7.162   4.298  0.5726 -0.0271 -0.0582
  113MOL0     C15481  10.382   7.264   4.338 -0.0829  0.0503 -0.2233
  113MOL0     C15482  10.370   7.321   4.470 -1.0703 -0.0768  0.1322
  113MOL0     C15483  10.466   7.413   4.509 -1.3305 -0.3655 -0.0559
  113MOL0     C15484  10.454   7.475   4.644 -0.1831 -0.1009  0.3513
  113MOL0     C15485  10.568   7.457   4.425  0.6681  0.6109  0.6318
  113MOL0     C15486  10.665   7.551   4.466  0.7873  0.3039 -0.2555
  113MOL0     O15487  10.790   7.525   4.429  0.0742 -0.6068  0.6823
  113MOL0     C15488  10.885   7.618   4.472 -0.7462 -0.7531  0.4260
  113MOL0     C15489  10.970   7.665   4.373  0.4118 -0.8221  0.2959
  113MOL0     C15490  11.077   7.755   4.395  0.4508  0.0205  0.0882
  113MOL0     C15491  11.102   7.787   4.535  0.8043 -0.2124 -0.9638
  113MOL0     O15492  11.205   7.880   4.553 -0.0474  0.3898  0.1776
  113MOL0     C15493  11.266   7.895   4.680  0.4349 -0.1948 -0.3482
  113MOL0     C15494  11.361   8.011   4.678 -0.2455 -0.1218 -0.2143
  113MOL0     C15495  11.497   7.968   4.629  0.2759 -0.0490  0.2529
  113MOL0     C15496  11.605   8.082   4.650  0.0515 -0.5574  0.3749
  113MOL0     C15497  11.753   8.036   4.619 -0.5583  0.0197 -0.5181
  113MOL0     C15498  11.796   7.924   4.715 -0.0069 -0.2594  1.1450
  113MOL0     C15499  11.947   7.898   4.712 -0.0097 -0.1204  1.6841
  113MOL0     C15500  11.987   7.830   4.840 -0.7048 -0.6489  0.3965
  113MOL0    Cl15501  11.957   7.938   4.978  0.2519 -0.4314 -0.0689
  113MOL0     C15502  11.024   7.727   4.640 -0.1700 -0.5948 -0.2599
  113MOL0     C15503  10.914   7.646   4.610 -0.6477  0.8747  0.1102
  113MOL0     O15504  10.629   7.657   4.514  0.3885 -0.2503 -0.3946
  113MOL0     C15505  10.567   7.408   4.297  0.9588 -0.8116  0.7696
  113MOL0     C15506  10.486   7.301   4.251 -1.5353  0.4006 -0.5771
  113MOL0     N15507  10.266   6.576   4.140  0.1567 -0.3906 -0.2442
  113MOL0     N15508  10.241   6.486   4.056 -0.2954  0.4259  0.8941
  113MOL0     C15509   9.730   5.805   3.428 -0.4793  0.2354  0.0080
  113MOL0     C15510   9.721   5.727   3.313  0.3596 -0.6358  0.1564
  113MOL0     C15511   9.888   5.411   3.007 -0.1803 -0.2898 -0.0026
  113MOL0     C15512   9.771   5.422   2.929  0.3137 -0.3976 -0.3942
  113MOL0     C15513   9.735   5.337   2.829  0.5253  0.0537 -0.5996
  113MOL0     C15514   9.815   5.219   2.811 -0.3612  0.5889  0.0686
  113MOL0     O15515   9.795   5.118   2.726  1.1178  0.5897  0.5737
  113MOL0     C15516   9.674   5.095   2.647  0.5614  0.4034  0.2928
  113MOL0     C15517   9.714   4.971   2.561  0.1330 -0.0282  1.3226
  113MOL0     C15518   9.594   4.938   2.467 -0.4030 -0.5619  0.2507
  113MOL0     C15519   9.609   4.809   2.383  0.3835 -0.4958  0.4775
  113MOL0     C15520   9.724   4.818   2.293 -0.7240 -1.5517 -0.2867
  113MOL0     C15521   9.826   4.840   2.223 -0.1001 -0.8894  0.2638
  113MOL0     C15522   9.930   5.204   2.886  0.0963  0.0952 -0.2534
  113MOL0     C15523   9.974   5.301   2.980  0.1412  0.0249 -0.5362
  113MOL0     C15524  10.085   5.266   3.079  0.4083  0.3104 -0.3158
  113MOL0     H15525   9.914   5.462   3.406  2.0297  0.8368  0.9103
  113MOL0     H15526   9.910   5.571   3.608 -0.2584  1.0707  0.5090
  113MOL0     H15527   9.983   5.757   3.710 -0.6125  0.7680 -0.5669
  113MOL0     H15528   9.838   5.689   3.793 -0.2520 -0.7712 -0.8485
  113MOL0     H15529   9.797   5.938   3.878 -1.1466 -0.9096  0.2907
  113MOL0     H15530   9.871   5.826   3.967  0.1205 -1.9146 -0.2313
  113MOL0     H15531  10.019   6.018   3.971 -0.3115 -1.5794  1.0481
  113MOL0     H15532  10.122   5.918   3.881  1.6986  3.8785  1.0843
  113MOL0     H15533  10.008   6.018   3.674 -2.4945  0.9563 -0.3471
  113MOL0     H15534   9.942   6.149   3.789 -1.1957 -1.6764  0.5207
  113MOL0     H15535  10.219   6.091   3.700  3.1191  3.2539 -0.0095
  113MOL0     H15536  10.181   6.181   3.849 -0.0488 -0.5537 -0.4357
  113MOL0     H15537  10.199   6.296   3.586  0.8613 -1.7675  0.3119
  113MOL0     H15538  10.027   6.277   3.609  1.7552 -2.2913 -2.5730
  113MOL0     H15539  10.053   6.401   3.834  0.3261 -2.3736  0.1743
  113MOL0     H15540  10.094   6.489   3.681  1.8707 -0.0561 -1.3722
  113MOL0     H15541  10.300   6.347   3.872 -0.3113  1.5781  2.3421
  113MOL0     H15542  10.333   6.462   3.743  1.9229 -0.0488  0.2401
  113MOL0     H15543  10.276   6.722   3.851 -2.4833 -1.0043 -1.3241
  113MOL0     H15544  10.348   6.898   4.032 -1.9458  0.7067  1.1037
  113MOL0     H15545  10.376   6.838   4.194 -1.1074 -0.8320  0.1644
  113MOL0     H15546  10.092   6.858   4.122 -0.9684  1.7487  1.3059
  113MOL0     H15547  10.168   6.894   4.280  0.8958 -0.1100  1.5384
  113MOL0     H15548  10.123   7.064   4.029  1.1550  0.8268 -0.4711
  113MOL0     H15549  10.058   7.087   4.191  0.2821 -0.7467  0.0625
  113MOL0     H15550  10.351   7.108   4.108 -0.0570  1.7963  0.2974
  113MOL0     H15551  10.237   7.249   4.114 -0.8305 -0.2937 -0.2980
  113MOL0     H15552  10.285   7.284   4.527 -0.3888 -0.2647  1.0710
  113MOL0     H15553  10.387   7.411   4.702 -1.6084 -0.4724 -1.6120
  113MOL0     H15554  10.399   7.569   4.630  1.5045  1.2602  2.1917
  113MOL0     H15555  10.548   7.496   4.696  0.1952  1.6577 -0.9331
  113MOL0     H15556  10.935   7.639   4.274 -2.1571 -2.2717  1.4947
  113MOL0     H15557  11.158   7.785   4.329  2.6201  1.8493  3.2632
  113MOL0     H15558  11.194   7.927   4.756  1.5416  1.9184 -0.0901
  113MOL0     H15559  11.297   7.806   4.734  0.5603  0.3762  0.5428
  113MOL0     H15560  11.315   8.088   4.616  1.7276  0.5145 -0.9713
  113MOL0     H15561  11.372   8.048   4.780 -2.1686  2.7453 -0.9357
  113MOL0     H15562  11.486   7.950   4.522 -0.7274  2.6691 -0.1814
  113MOL0     H15563  11.527   7.874   4.677  0.5566 -0.1226 -0.0630
  113MOL0     H15564  11.590   8.123   4.750  0.2428 -1.6143  0.8472
  113MOL0     H15565  11.582   8.157   4.574 -2.1097 -2.7743 -1.3605
  113MOL0     H15566  11.778   7.995   4.520  1.2415  0.9856 -0.5074
  113MOL0     H15567  11.826   8.117   4.629  2.4180 -1.8742 -3.9532
  113MOL0     H15568  11.740   7.836   4.682 -2.0118  0.5443  2.1933
  113MOL0     H15569  11.769   7.938   4.821  1.7965 -2.0205  1.8979
  113MOL0     H15570  12.005   7.990   4.700  1.0580 -0.9653 -0.1458
  113MOL0     H15571  11.962   7.839   4.621 -0.4366 -1.2968  2.3515
  113MOL0     H15572  12.096   7.822   4.834 -0.4317  1.2250  1.8750
  113MOL0     H15573  11.949   7.731   4.865  0.2018 -0.6886  1.7349
  113MOL0     H15574  11.050   7.776   4.733  0.7079  2.3891 -1.9380
  113MOL0     H15575  10.851   7.627   4.696  0.4349  3.3157  1.5347
  113MOL0     H15576  10.650   7.437   4.232  1.6050 -2.6488  0.7384
  113MOL0     H15577  10.526   7.273   4.154  0.9357  0.9983  0.1980
  113MOL0     H15578   9.674   5.898   3.431  0.1981  0.6182  1.6718
  113MOL0     H15579   9.675   5.765   3.222 -0.4429 -1.3589  0.2386
  113MOL0     H15580   9.702   5.504   2.945  2.1356  1.0950  0.0284
  113MOL0     H15581   9.644   5.357   2.774 -0.6916  0.7488  1.5365
  113MOL0     H15582   9.583   5.076   2.704  0.1183  0.3483 -0.4174
  113MOL0     H15583   9.654   5.176   2.576 -0.6230 -0.1515 -0.0227
  113MOL0     H15584   9.736   4.885   2.625 -1.3192  0.7521  2.9905
  113MOL0     H15585   9.801   4.993   2.499 -1.2646 -0.6931 -0.9970
  113MOL0     H15586   9.495   4.935   2.513 -0.8056  1.3220 -0.4187
  113MOL0     H15587   9.586   5.019   2.394  3.1100  0.2868  0.6232
  113MOL0     H15588   9.519   4.803   2.321 -1.6653  0.8425  3.1323
  113MOL0     H15589   9.613   4.719   2.445  1.8230 -1.6957 -1.2493
  113MOL0     H15590   9.923   4.870   2.187 -0.2467  0.3605  0.8677
  113MOL0     H15591   9.997   5.123   2.856  0.2053  0.6714 -1.6336
  113MOL0     H15592  10.058   5.299   3.180  0.2485  1.3994 -0.6942
  113MOL0     H15593  10.107   5.159   3.083  0.9890  0.4284 -0.2136
  113MOL0     H15594  10.172   5.326   3.052 -1.2689  2.0268 -2.2657
  114MOL0     O15595   5.252   7.238   3.654 -0.0523 -0.6481 -0.1384
  114MOL0     C15596   5.219   7.353   3.668  1.0419  0.8324  0.7437
  114MOL0     O15597   5.295   7.450   3.702 -0.2713  0.4212 -0.3714
  114MOL0     C15598   5.430   7.424   3.704  0.6912 -1.2431 -0.2254
  114MOL0     C15599   5.485   7.376   3.830  0.7084 -0.0601 -0.3325
  114MOL0     C15600   5.615   7.341   3.823  0.0431 -0.3574 -0.2764
  114MOL0     C15601   5.700   7.371   3.721 -0.2832 -0.5675 -0.5904
  114MOL0     O15602   5.840   7.358   3.741  0.4046  0.3146 -0.2912
  114MOL0     C15603   5.905   7.396   3.863 -0.0595  0.4473  0.1729
  114MOL0     C15604   5.908   7.548   3.881 -0.5434 -0.5801  0.0742
  114MOL0     C15605   5.950   7.595   4.022  0.3129  0.5453  0.5839
  114MOL0     C15606   5.892   7.730   4.039  0.6364 -0.0412  1.4854
  114MOL0     C15607   5.920   7.778   4.180  0.2427 -0.2109 -0.2345
  114MOL0     C15608   5.831   7.895   4.215  0.1209 -0.7495 -0.3708
  114MOL0     C15609   5.892   8.028   4.144  0.1223  0.0872 -0.9735
  114MOL0     C15610   5.820   8.149   4.202 -0.4810 -0.6989 -0.0300
  114MOL0     N15611   5.896   8.273   4.161 -0.3389 -1.0371  0.6013
  114MOL0     C15612   5.914   8.317   4.035 -0.6123  0.0705  0.2283
  114MOL0     C15613   5.983   8.443   4.056 -0.2129  0.4059 -0.1000
  114MOL0     C15614   6.021   8.540   3.947 -0.1585  0.1729  0.1622
  114MOL0     C15615   5.899   8.634   3.915 -0.5115  0.3152 -0.9550
  114MOL0     C15616   5.814   8.585   3.798  0.7398  0.9207  0.1602
  114MOL0     C15617   5.692   8.663   3.780  0.5215  0.2980 -0.4416
  114MOL0     O15618   5.656   8.635   3.642  0.7624 -0.7505 -0.1594
  114MOL0     C15619   5.671   8.735   3.551 -0.1757 -1.4786  1.0318
  114MOL0     C15620   5.771   8.829   3.554 -0.4149 -0.0103 -0.7843
  114MOL0     C15621   5.766   8.950   3.474  0.0915 -0.6066 -0.3394
  114MOL0     C15622   5.893   9.028   3.476  0.2389  0.1434  0.2678
  114MOL0     C15623   5.658   8.962   3.386  0.2820  0.2024 -0.3796
  114MOL0     C15624   5.633   9.090   3.309  1.3484 -0.5323 -0.4357
  114MOL0     O15625   5.746   9.163   3.272  0.3741  0.3442  0.7117
  114MOL0     C15626   5.731   9.263   3.181  0.4925  0.2641  0.8906
  114MOL0     C15627   5.794   9.390   3.197  0.3293 -0.4615 -0.3505
  114MOL0     C15628   5.799   9.491   3.093  0.8658 -1.4737  0.6165
  114MOL0     C15629   5.728   9.461   2.973 -0.7485 -0.0182 -0.8006
  114MOL0     O15630   5.728   9.546   2.868 -0.3439  0.0170  0.7469
  114MOL0     C15631   5.664   9.670   2.904  0.2398  0.1217 -0.1222
  114MOL0     C15632   5.679   9.767   2.791 -0.3416 -0.2048 -1.2401
  114MOL0     C15633   5.836   9.794   2.766  0.5562 -0.3695 -0.2966
  114MOL0     C15634   5.861   9.911   2.670  0.1704 -1.2519  0.1881
  114MOL0     C15635   6.010   9.903   2.620 -0.0291 -0.5143 -0.3760
  114MOL0     C15636   6.027   9.945   2.478 -1.0867 -0.4915  0.8044
  114MOL0     C15637   5.961  10.079   2.447 -0.4989 -0.3466 -1.0739
  114MOL0     C15638   6.028  10.141   2.323  0.2412 -0.3640  0.3662
  114MOL0    Cl15639   6.208  10.174   2.330  0.2541  0.3980  0.6676
  114MOL0     C15640   5.672   9.335   2.951  0.4836  0.2442  0.4772
  114MOL0     C15641   5.680   9.234   3.047 -0.1084  0.4274  0.1679
  114MOL0     O15642   5.517   9.128   3.307  0.0564 -0.8179 -0.6767
  114MOL0     C15643   5.565   8.862   3.382  0.1062 -0.2798  0.7004
  114MOL0     C15644   5.568   8.753   3.467 -0.1211  0.1129  0.5598
  114MOL0     N15645   5.974   8.480   4.188 -0.3214  0.5799 -0.4836
  114MOL0     N15646   5.924   8.380   4.243 -0.1181 -0.6415 -0.0716
  114MOL0     C15647   5.647   7.436   3.602 -0.4829 -0.3861 -0.7277
  114MOL0     C15648   5.514   7.465   3.594  0.5581  0.5392 -0.4260
  114MOL0     C15649   5.086   7.395   3.623  0.7692  0.6888 -0.8841
  114MOL0     C15650   4.997   7.292   3.578 -0.5684  0.6873 -0.3551
  114MOL0     C15651   4.876   7.329   3.509 -0.5675  0.8701 -1.0730
  114MOL0     C15652   4.834   7.462   3.497 -0.1886  0.0439  0.9379
  114MOL0     O15653   4.714   7.505   3.454  0.5429 -0.7841  0.2259
  114MOL0     C15654   4.601   7.417   3.450  0.0385 -0.5917  0.0215
  114MOL0     C15655   4.532   7.388   3.591 -0.4574  0.5708 -0.0206
  114MOL0     C15656   4.432   7.497   3.640 -0.3410  0.6764  0.9750
  114MOL0     C15657   4.493   7.631   3.678 -0.2395  1.2955  0.4485
  114MOL0     C15658   4.403   7.718   3.753  0.3557 -0.1328  0.2695
  114MOL0     C15659   4.340   7.787   3.823 -0.0393 -1.0823  0.8516
  114MOL0     C15660   4.915   7.554   3.557  0.1410  0.4060  0.9145
  114MOL0     C15661   5.034   7.528   3.626  1.3041 -0.5584 -0.0658
  114MOL0     C15662   5.084   7.658   3.692  0.4846  0.7671 -0.2644
  114MOL0     H15663   5.423   7.345   3.913  0.4820  0.9499 -0.1150
  114MOL0     H15664   5.654   7.287   3.909 -0.2034 -0.2614 -0.1008
  114MOL0     H15665   6.002   7.346   3.875 -0.9008 -1.7271 -1.6215
  114MOL0     H15666   5.849   7.351   3.946  0.6468 -0.0153  0.4162
  114MOL0     H15667   5.983   7.595   3.816 -0.2857  2.6100  2.4497
  114MOL0     H15668   5.812   7.592   3.852  0.5943  2.3318  0.4144
  114MOL0     H15669   5.916   7.520   4.094 -1.9919 -0.2022 -1.1831
  114MOL0     H15670   6.058   7.591   4.036  0.2820  0.8158  0.9376
  114MOL0     H15671   5.940   7.797   3.967 -0.3409 -2.5108 -1.7189
  114MOL0     H15672   5.787   7.740   4.010  1.1950  2.6814  0.0299
  114MOL0     H15673   6.025   7.809   4.191 -0.1405  0.2798  4.5120
  114MOL0     H15674   5.904   7.688   4.240 -0.0486 -0.9347 -1.3726
  114MOL0     H15675   5.728   7.867   4.195  0.8303 -4.6142  0.6180
  114MOL0     H15676   5.851   7.913   4.322  1.2791  0.6063 -0.7761
  114MOL0     H15677   5.857   8.015   4.041  0.2124 -0.3595 -0.9475
  114MOL0     H15678   6.001   8.031   4.145  0.1155  0.1336  0.2777
  114MOL0     H15679   5.716   8.159   4.169 -0.2361  1.7891 -0.2198
  114MOL0     H15680   5.827   8.145   4.311 -2.7369  2.4134  0.3644
  114MOL0     H15681   5.888   8.268   3.942 -1.2777  2.2521 -0.8073
  114MOL0     H15682   6.044   8.479   3.859  1.0759  1.4275 -0.4159
  114MOL0     H15683   6.104   8.593   3.994  0.2437 -1.9143  1.9453
  114MOL0     H15684   5.840   8.649   4.006 -0.1143 -0.6956 -0.5098
  114MOL0     H15685   5.938   8.731   3.882  0.7574 -1.0193 -3.7671
  114MOL0     H15686   5.868   8.577   3.703  1.9675  2.4286  0.7121
  114MOL0     H15687   5.790   8.482   3.827  0.1674  1.3781  1.3648
  114MOL0     H15688   5.617   8.615   3.844 -0.6003 -1.9009 -3.1815
  114MOL0     H15689   5.690   8.767   3.812 -1.9227 -0.0917  0.9622
  114MOL0     H15690   5.856   8.809   3.619 -0.4048  1.4316 -0.3259
  114MOL0     H15691   5.960   8.995   3.397  1.1506 -1.7954  1.7664
  114MOL0     H15692   5.949   9.008   3.568 -0.0346  1.3378  0.7136
  114MOL0     H15693   5.868   9.133   3.461  0.1385  0.3137  1.5382
  114MOL0     H15694   5.861   9.399   3.282 -0.4257 -1.0710  0.3163
  114MOL0     H15695   5.855   9.584   3.104  1.4873 -1.1997 -3.3709
  114MOL0     H15696   5.556   9.661   2.914 -0.2683  2.2675 -2.4489
  114MOL0     H15697   5.721   9.717   2.985 -0.8343 -1.1490  1.4151
  114MOL0     H15698   5.620   9.731   2.707 -2.2115  0.1741 -0.1463
  114MOL0     H15699   5.635   9.862   2.822  0.0379 -0.8910  1.7165
  114MOL0     H15700   5.879   9.702   2.724  2.2905  0.2891 -0.0448
  114MOL0     H15701   5.877   9.817   2.864 -1.7212 -2.3710  1.2618
  114MOL0     H15702   5.849  10.009   2.718  0.9872 -0.4832 -1.1068
  114MOL0     H15703   5.793   9.900   2.585  1.9000 -1.4521 -1.2167
  114MOL0     H15704   6.061   9.962   2.697 -1.7662 -1.6634  1.7515
  114MOL0     H15705   6.055   9.804   2.629 -2.1194 -1.5783 -1.1630
  114MOL0     H15706   5.976   9.877   2.409 -1.0163  2.4972 -2.5438
  114MOL0     H15707   6.132   9.955   2.450 -1.5172 -0.2721 -0.8254
  114MOL0     H15708   5.982  10.150   2.527 -1.7690 -1.7983  0.6405
  114MOL0     H15709   5.853  10.067   2.437 -0.4419 -1.8705 -0.1969
  114MOL0     H15710   5.975  10.235   2.303  1.3054  1.4423  4.9044
  114MOL0     H15711   6.021  10.071   2.239  1.1485  1.4269 -1.2843
  114MOL0     H15712   5.651   9.310   2.848  4.2067  0.8615 -0.5945
  114MOL0     H15713   5.634   9.140   3.018  0.1879  0.7768 -1.5354
  114MOL0     H15714   5.471   8.874   3.329  0.0574 -0.3385  0.7715
  114MOL0     H15715   5.482   8.686   3.471 -0.2242  0.2607  0.8871
  114MOL0     H15716   5.704   7.485   3.524 -2.2401  1.5468 -0.8634
  114MOL0     H15717   5.465   7.498   3.503 -3.2348 -5.1598 -1.0362
  114MOL0     H15718   5.026   7.188   3.592 -1.2573  0.5697  0.3192
  114MOL0     H15719   4.815   7.249   3.468 -0.2027 -0.8331  1.4460
  114MOL0     H15720   4.524   7.454   3.382  0.7222 -2.8274 -2.0733
  114MOL0     H15721   4.626   7.319   3.409 -2.1799 -0.4885 -1.7996
  114MOL0     H15722   4.607   7.364   3.667  0.8414  2.5952 -0.5684
  114MOL0     H15723   4.493   7.289   3.564  1.5037  0.4896 -3.1232
  114MOL0     H15724   4.363   7.512   3.557  0.6814  0.2633  0.0275
  114MOL0     H15725   4.376   7.453   3.724  0.3136  0.4344  1.2901
  114MOL0     H15726   4.533   7.677   3.588  0.5988 -0.0605  0.1004
  114MOL0     H15727   4.582   7.600   3.733  0.5827  0.2434 -1.4064
  114MOL0     H15728   4.269   7.850   3.872  0.1860 -0.4271  0.3439
  114MOL0     H15729   4.872   7.653   3.560 -2.6483 -0.6595 -0.3716
  114MOL0     H15730   5.134   7.726   3.624  3.9511  0.1860  1.4635
  114MOL0     H15731   5.002   7.704   3.748 -1.2704 -3.9325  1.5816
  114MOL0     H15732   5.167   7.645   3.762 -1.4227  1.2716  2.2374
  115MOL0     O15733   8.051   4.589   0.583  0.8963 -1.7627  0.3556
  115MOL0     C15734   7.986   4.673   0.522 -0.4578  0.3766  1.5019
  115MOL0     O15735   7.945   4.788   0.575  1.4514  0.3248 -0.0602
  115MOL0     C15736   7.959   4.810   0.710  0.6875  0.1345 -0.8456
  115MOL0     C15737   8.088   4.838   0.766  0.3123  0.5482  0.9329
  115MOL0     C15738   8.099   4.867   0.906 -0.5747  0.1752  0.6386
  115MOL0     C15739   7.985   4.874   0.984 -0.3638 -0.6524  0.7542
  115MOL0     O15740   8.008   4.919   1.109  0.9618 -0.5578 -0.3565
  115MOL0     C15741   7.918   4.883   1.215 -0.1653 -0.1743  0.1123
  115MOL0     C15742   7.832   5.006   1.265  0.6108 -0.1048  0.1165
  115MOL0     C15743   7.721   4.969   1.366 -0.3644 -0.3398  0.3654
  115MOL0     C15744   7.602   4.896   1.299  0.2752 -0.3027  0.0033
  115MOL0     C15745   7.479   4.879   1.396 -1.3222 -0.5225 -0.0338
  115MOL0     C15746   7.354   4.903   1.312 -0.0831  0.0596 -0.8150
  115MOL0     C15747   7.221   4.923   1.391  1.0856  0.0063 -0.4758
  115MOL0     C15748   7.115   4.983   1.302 -0.2575 -0.9500 -0.3440
  115MOL0     N15749   7.053   4.896   1.201  0.2127 -0.0864  1.4397
  115MOL0     C15750   7.036   4.759   1.202 -0.7980  0.5964  1.1959
  115MOL0     C15751   6.984   4.719   1.080  0.0788  0.5441 -0.0350
  115MOL0     C15752   6.959   4.582   1.029  0.4629 -0.3676  0.0891
  115MOL0     C15753   6.809   4.565   1.031  0.0405  0.0103  0.3603
  115MOL0     C15754   6.770   4.464   0.928 -0.0346  0.4904  0.4390
  115MOL0     C15755   6.621   4.431   0.941  0.5698 -0.0232 -0.0246
  115MOL0     O15756   6.588   4.349   0.829 -0.4224 -0.4027 -0.1359
  115MOL0     C15757   6.460   4.300   0.813  0.1861 -0.0993  0.2558
  115MOL0     C15758   6.361   4.318   0.908 -0.2754  0.0228 -0.0466
  115MOL0     C15759   6.242   4.246   0.890  0.7087  0.1547 -0.0488
  115MOL0     C15760   6.155   4.243   1.019  0.0102  0.8464 -0.2730
  115MOL0     C15761   6.229   4.155   0.781  0.3386 -1.1365  0.4728
  115MOL0     C15762   6.113   4.072   0.764  0.1138 -0.4551 -0.2212
  115MOL0     O15763   6.004   4.107   0.827  0.8815 -0.3301  0.2376
  115MOL0     C15764   5.873   4.049   0.822  0.0747  0.0782 -0.0579
  115MOL0     C15765   5.822   3.967   0.715 -1.4078 -0.2906 -1.0788
  115MOL0     C15766   5.689   3.930   0.720 -0.6885 -0.5174 -0.9414
  115MOL0     C15767   5.614   3.946   0.843  0.4964  0.3775 -0.8631
  115MOL0     O15768   5.496   3.884   0.875 -0.5665 -0.1917 -0.3561
  115MOL0     C15769   5.411   3.886   0.761 -0.9456 -0.3880  0.3578
  115MOL0     C15770   5.267   3.865   0.795 -0.0492  0.1720  0.1875
  115MOL0     C15771   5.217   3.943   0.915  1.0931  0.3043  0.1301
  115MOL0     C15772   5.065   3.935   0.932  0.3189  0.8691  0.0167
  115MOL0     C15773   5.030   3.995   1.056  0.2033  0.4862 -0.1325
  115MOL0     C15774   4.883   3.984   1.080  0.0052 -0.1354  0.1329
  115MOL0     C15775   4.816   3.844   1.082 -0.4180  1.1117  0.2530
  115MOL0     C15776   4.665   3.851   1.105 -0.2707 -0.0119  0.4176
  115MOL0    Cl15777   4.642   3.850   1.278  0.2825  0.1970 -0.0174
  115MOL0     C15778   5.678   4.008   0.955 -1.0044 -0.7518 -1.1660
  115MOL0     C15779   5.798   4.065   0.940  0.6857  0.8301  0.6374
  115MOL0     O15780   6.128   3.969   0.699 -0.6419  0.3336 -0.0646
  115MOL0     C15781   6.324   4.147   0.679 -0.3045 -0.3956 -0.1935
  115MOL0     C15782   6.443   4.215   0.702 -0.0478 -0.4650 -0.2100
  115MOL0     N15783   6.962   4.842   1.010 -0.4257  0.3033  0.6750
  115MOL0     N15784   7.001   4.947   1.079 -0.1789 -0.3561  0.1640
  115MOL0     C15785   7.859   4.855   0.931 -0.4589 -0.2811  0.6818
  115MOL0     C15786   7.851   4.820   0.798  0.3061 -0.7838 -0.9984
  115MOL0     C15787   7.958   4.670   0.369 -0.1363  0.3140  0.6118
  115MOL0     C15788   7.844   4.727   0.314  0.3405  0.6952  0.4924
  115MOL0     C15789   7.809   4.711   0.179 -0.6435  0.2997 -0.7036
  115MOL0     C15790   7.899   4.647   0.092  0.3802  0.6910  0.0634
  115MOL0     O15791   7.860   4.653  -0.039 -0.0180 -0.4183  0.3996
  115MOL0     C15792   7.948   4.623  -0.149 -0.3322  0.2762 -0.5372
  115MOL0     C15793   7.896   4.678  -0.282 -0.4573  0.0688 -0.0335
  115MOL0     C15794   7.812   4.805  -0.263 -0.5463  0.3340  0.5765
  115MOL0     C15795   7.870   4.914  -0.181  0.6135 -0.2987  0.3390
  115MOL0     C15796   7.989   4.971  -0.250 -0.4887 -1.0695 -0.7867
  115MOL0     C15797   8.071   5.009  -0.334 -0.5676 -1.0151 -0.7658
  115MOL0     C15798   8.022   4.592   0.142  0.4793 -0.1637 -0.4467
  115MOL0     C15799   8.048   4.607   0.282  1.0690 -0.8182  0.7219
  115MOL0     C15800   8.180   4.557   0.324  0.1634  0.2052 -0.1225
  115MOL0     H15801   8.180   4.840   0.710  1.0482 -0.2838  2.0655
  115MOL0     H15802   8.191   4.902   0.952  0.6658 -3.5043  1.2602
  115MOL0     H15803   7.979   4.855   1.301  0.4973  0.3962 -0.1698
  115MOL0     H15804   7.856   4.798   1.186 -0.5205  0.6291 -1.5850
  115MOL0     H15805   7.891   5.079   1.321  2.9224 -0.6044 -1.5147
  115MOL0     H15806   7.784   5.068   1.190  3.1929  3.6709  1.2876
  115MOL0     H15807   7.749   4.902   1.447 -1.2524  1.2553  2.0490
  115MOL0     H15808   7.684   5.065   1.403  0.6736 -0.7093  2.4731
  115MOL0     H15809   7.576   4.964   1.217 -0.9892  0.9106  1.3515
  115MOL0     H15810   7.632   4.800   1.257 -0.0034  1.0841 -3.8179
  115MOL0     H15811   7.495   4.964   1.463 -1.5819  0.9725 -1.7794
  115MOL0     H15812   7.474   4.787   1.455 -0.4085 -1.8401 -1.8881
  115MOL0     H15813   7.373   4.994   1.254  1.0766  0.7451  0.5776
  115MOL0     H15814   7.349   4.820   1.241  1.1647 -0.6262 -0.1375
  115MOL0     H15815   7.241   4.988   1.477 -0.1870 -1.6811  1.1828
  115MOL0     H15816   7.194   4.822   1.426 -1.0292  0.7471  0.1944
  115MOL0     H15817   7.036   5.022   1.366 -0.1289  0.3676 -0.9579
  115MOL0     H15818   7.165   5.068   1.256  2.3772 -1.9007  0.5696
  115MOL0     H15819   7.065   4.703   1.290 -0.4029  1.9139  1.9333
  115MOL0     H15820   7.012   4.513   1.095  1.8009 -0.0637 -0.6242
  115MOL0     H15821   6.984   4.576   0.923 -0.5148 -1.6872 -0.0808
  115MOL0     H15822   6.780   4.528   1.130  3.2168 -1.5474  0.8262
  115MOL0     H15823   6.775   4.665   1.003  1.2223 -0.6151 -3.8600
  115MOL0     H15824   6.798   4.511   0.833  0.0389 -4.1579 -2.1842
  115MOL0     H15825   6.822   4.367   0.925 -1.5482 -0.3560  0.2792
  115MOL0     H15826   6.600   4.400   1.043  2.1250 -0.7043  0.1134
  115MOL0     H15827   6.560   4.518   0.915 -0.3786 -1.3867 -2.8523
  115MOL0     H15828   6.371   4.400   0.978  1.6542  0.9490 -1.3066
  115MOL0     H15829   6.104   4.147   1.032  1.0161  0.1500 -1.3138
  115MOL0     H15830   6.081   4.324   1.023 -0.0779  0.7487  0.1358
  115MOL0     H15831   6.207   4.257   1.114 -2.5915 -0.4873  1.4898
  115MOL0     H15832   5.889   3.944   0.633 -0.6236  0.4935 -0.6743
  115MOL0     H15833   5.660   3.871   0.633  1.6589 -1.8902 -0.8829
  115MOL0     H15834   5.422   3.985   0.714  0.5672 -1.4036 -1.6029
  115MOL0     H15835   5.447   3.808   0.693  0.9192  1.1857 -0.5814
  115MOL0     H15836   5.211   3.867   0.701 -0.5708 -3.0263  0.3315
  115MOL0     H15837   5.260   3.765   0.837 -1.9938 -0.0523 -0.5590
  115MOL0     H15838   5.245   4.048   0.905  1.0080  0.4765  1.4953
  115MOL0     H15839   5.273   3.896   0.996 -0.6361 -2.3772 -0.1091
  115MOL0     H15840   5.044   3.828   0.942  2.9377  0.3733  0.9780
  115MOL0     H15841   5.011   3.980   0.849  1.8740 -0.5927 -1.8957
  115MOL0     H15842   5.074   3.948   1.145  2.9337  2.1417 -0.5006
  115MOL0     H15843   5.052   4.102   1.056 -0.0401  0.5486  1.1601
  115MOL0     H15844   4.832   4.037   0.998 -1.0071 -1.8973 -0.4422
  115MOL0     H15845   4.864   4.034   1.175  1.8655 -0.2321  0.5837
  115MOL0     H15846   4.841   3.773   1.161  0.2755  0.6534 -0.3640
  115MOL0     H15847   4.835   3.794   0.986 -0.2695 -0.4289  1.0437
  115MOL0     H15848   4.621   3.757   1.071 -0.1673  0.4915 -1.2029
  115MOL0     H15849   4.615   3.939   1.064 -4.2119 -2.0202  0.4515
  115MOL0     H15850   5.630   4.009   1.052  3.1110 -0.3189  1.0946
  115MOL0     H15851   5.846   4.127   1.016 -0.6697  1.2058  1.2179
  115MOL0     H15852   6.330   4.089   0.588 -1.6985 -0.8679 -0.0081
  115MOL0     H15853   6.531   4.209   0.639  0.9992  0.4493  1.1084
  115MOL0     H15854   7.774   4.880   0.995  0.8852 -0.9026  2.8041
  115MOL0     H15855   7.753   4.794   0.759 -0.7428  0.4812  0.6276
  115MOL0     H15856   7.776   4.773   0.385 -0.7171 -1.2859  0.8513
  115MOL0     H15857   7.716   4.749   0.140 -2.7131 -1.2976  2.3013
  115MOL0     H15858   8.047   4.667  -0.131 -0.4660  2.2820 -3.7711
  115MOL0     H15859   7.965   4.516  -0.162 -0.1524 -0.3528  3.7497
  115MOL0     H15860   7.833   4.607  -0.337  0.1802  1.4997 -2.7862
  115MOL0     H15861   7.972   4.707  -0.355 -0.6103 -2.8259 -1.5050
  115MOL0     H15862   7.787   4.836  -0.365  3.8113 -1.1563 -1.1832
  115MOL0     H15863   7.719   4.768  -0.220 -2.3413  0.3562 -2.9376
  115MOL0     H15864   7.881   4.883  -0.077 -2.7034 -0.6124  0.6989
  115MOL0     H15865   7.795   4.993  -0.171  0.8968 -0.3198  4.0513
  115MOL0     H15866   8.144   5.051  -0.400 -1.6680  0.9593 -0.8160
  115MOL0     H15867   8.102   4.548   0.083 -0.9995  0.3954 -3.0319
  115MOL0     H15868   8.169   4.451   0.349 -2.2414  0.6994  1.2034
  115MOL0     H15869   8.257   4.560   0.246 -1.1017 -2.5134 -1.6220
  115MOL0     H15870   8.212   4.612   0.413 -0.8150 -0.5627  0.7426
  116MOL0     O15871   4.933  10.981   7.690 -0.0969  0.0064 -0.0982
  116MOL0     C15872   4.920  10.867   7.739 -0.6150 -0.5052 -0.1156
  116MOL0     O15873   5.004  10.823   7.838  0.4828 -0.5164 -0.6269
  116MOL0     C15874   5.125  10.882   7.864  0.1167 -0.6784  1.2382
  116MOL0     C15875   5.234  10.820   7.809  0.0447  0.3856  0.1954
  116MOL0     C15876   5.357  10.887   7.831 -0.2410 -0.0904  0.1149
  116MOL0     C15877   5.382  10.996   7.926 -0.3014  0.1539 -0.0774
  116MOL0     O15878   5.505  11.059   7.953 -0.2920  0.6317 -0.1050
  116MOL0     C15879   5.629  10.981   7.943 -0.3691  0.1407 -0.3859
  116MOL0     C15880   5.740  11.053   8.010 -0.1580  0.2819 -0.2131
  116MOL0     C15881   5.733  11.048   8.165 -0.1247 -0.4632 -0.2172
  116MOL0     C15882   5.799  10.917   8.216 -0.9229 -0.4656  0.2813
  116MOL0     C15883   5.798  10.923   8.372  0.0729  0.1005  1.0067
  116MOL0     C15884   5.669  10.867   8.425  0.4979  0.0557  0.6182
  116MOL0     C15885   5.686  10.828   8.575 -0.6485 -0.1252 -0.1207
  116MOL0     C15886   5.565  10.758   8.633  0.0711  0.6661  0.0767
  116MOL0     N15887   5.545  10.633   8.561 -1.1288 -0.0116  0.2542
  116MOL0     C15888   5.458  10.614   8.457 -0.3350 -0.1043  0.6754
  116MOL0     C15889   5.478  10.490   8.418  0.2387  0.1117 -0.7230
  116MOL0     C15890   5.392  10.427   8.315 -0.7061  0.3280 -0.3988
  116MOL0     C15891   5.439  10.288   8.287  0.4833 -0.3802 -0.6013
  116MOL0     C15892   5.354  10.196   8.190  0.6167 -0.4389 -0.0657
  116MOL0     C15893   5.373  10.231   8.032  0.7665  0.7836 -0.5914
  116MOL0     O15894   5.360  10.369   8.010  0.5576 -0.1843 -0.2163
  116MOL0     C15895   5.384  10.420   7.883 -0.2900  0.2045 -0.4707
  116MOL0     C15896   5.320  10.377   7.766 -0.3406  0.4809 -0.6659
  116MOL0     C15897   5.362  10.432   7.642  0.9162  0.4406 -0.5241
  116MOL0     C15898   5.283  10.367   7.536 -1.1229 -0.1199  0.2266
  116MOL0     C15899   5.463  10.530   7.633 -0.3676 -0.2569  0.0193
  116MOL0     C15900   5.509  10.591   7.505 -0.1987 -0.0366  0.2515
  116MOL0     O15901   5.644  10.651   7.509  1.2070 -0.1111 -0.0338
  116MOL0     C15902   5.671  10.711   7.393  0.1952 -0.0792  0.4670
  116MOL0     C15903   5.614  10.850   7.384 -0.7306 -0.4966 -0.2526
  116MOL0     C15904   5.661  10.929   7.281  0.1414  0.1908 -0.0505
  116MOL0     C15905   5.752  10.880   7.186 -0.0844  0.3192  0.7523
  116MOL0     O15906   5.794  10.940   7.070 -0.5451 -0.8242 -0.0366
  116MOL0     C15907   5.835  11.076   7.097 -0.7739 -0.1380 -0.3914
  116MOL0     C15908   5.907  11.117   6.965 -0.6051  0.6358 -0.8967
  116MOL0     C15909   6.028  11.033   6.936  0.8235 -0.1552  0.7691
  116MOL0     C15910   6.143  11.020   7.043  0.0357 -0.0812  0.0450
  116MOL0     C15911   6.239  10.910   7.000  0.2458 -0.1679  0.9719
  116MOL0     C15912   6.300  10.932   6.863  0.3872  0.0013  0.8903
  116MOL0     C15913   6.365  10.796   6.816 -0.3698 -0.0645 -0.8683
  116MOL0     C15914   6.479  10.816   6.713 -0.0922  0.1229 -0.8839
  116MOL0    Cl15915   6.600  10.936   6.768 -0.4754  0.5427  0.5014
  116MOL0     C15916   5.797  10.751   7.202  0.9705  0.5764 -0.3140
  116MOL0     C15917   5.769  10.671   7.309 -0.3697  0.1649  0.0597
  116MOL0     O15918   5.440  10.569   7.405 -0.5445 -0.8423 -0.1300
  116MOL0     C15919   5.525  10.572   7.754 -0.7983  0.5629  0.4540
  116MOL0     C15920   5.489  10.512   7.873  0.4256 -0.6870 -0.7416
  116MOL0     N15921   5.576  10.432   8.497 -0.0901  0.2013  0.1402
  116MOL0     N15922   5.612  10.520   8.592 -0.0169  0.0656  0.0379
  116MOL0     C15923   5.268  11.060   7.965  0.1425 -0.1665  0.2369
  116MOL0     C15924   5.137  11.001   7.939  0.3896 -0.2081 -0.0926
  116MOL0     C15925   4.827  10.760   7.690 -0.4487 -0.4211  0.5762
  116MOL0     C15926   4.834  10.636   7.744  0.6188  1.0481 -0.3777
  116MOL0     C15927   4.746  10.529   7.702 -0.6071 -0.1920 -0.2350
  116MOL0     C15928   4.647  10.561   7.605 -0.4583  0.0683  0.5581
  116MOL0     O15929   4.554  10.459   7.579 -0.4089  0.9012  0.5476
  116MOL0     C15930   4.444  10.479   7.494  0.5714 -0.0797 -0.8536
  116MOL0     C15931   4.356  10.355   7.471  0.3592 -0.5875 -0.9937
  116MOL0     C15932   4.422  10.219   7.465 -0.9203  0.6668  0.6816
  116MOL0     C15933   4.330  10.096   7.495  0.4113 -1.3424  0.5719
  116MOL0     C15934   4.273  10.100   7.630 -0.3468 -0.0178 -0.0993
  116MOL0     C15935   4.240  10.096   7.746 -0.1262 -0.4718  0.1756
  116MOL0     C15936   4.643  10.685   7.540 -0.0346  0.7708 -0.8921
  116MOL0     C15937   4.732  10.781   7.587 -0.4586 -0.2745  0.0732
  116MOL0     C15938   4.721  10.910   7.501  0.5534 -0.1645  0.6758
  116MOL0     H15939   5.219  10.732   7.747  0.5624  0.0622  0.5163
  116MOL0     H15940   5.437  10.846   7.771  0.2287 -0.3424  0.8940
  116MOL0     H15941   5.658  10.971   7.838 -1.1316 -0.6584 -0.5357
  116MOL0     H15942   5.629  10.881   7.988 -1.1463  0.3374  0.0657
  116MOL0     H15943   5.840  11.014   7.986  0.0172  0.1317  0.7023
  116MOL0     H15944   5.745  11.160   7.989  3.6122  0.3410  0.2424
  116MOL0     H15945   5.768  11.137   8.218 -2.1200  1.6112 -2.1619
  116MOL0     H15946   5.626  11.049   8.189 -0.3642 -3.4064 -0.7970
  116MOL0     H15947   5.740  10.835   8.175 -0.8692 -0.3977  0.0694
  116MOL0     H15948   5.906  10.916   8.192 -0.7851 -0.1056  0.8638
  116MOL0     H15949   5.813  11.025   8.410 -1.6764  1.1490 -0.9451
  116MOL0     H15950   5.882  10.863   8.408  1.5981  1.9198  0.6360
  116MOL0     H15951   5.594  10.945   8.415 -0.3296 -0.9305 -1.4535
  116MOL0     H15952   5.645  10.778   8.366  2.0116  0.3740 -0.5529
  116MOL0     H15953   5.722  10.916   8.629 -0.1401  1.1032 -2.3630
  116MOL0     H15954   5.777  10.767   8.585 -0.7627  0.0332  2.9851
  116MOL0     H15955   5.571  10.735   8.739  0.9568 -1.4178 -0.3738
  116MOL0     H15956   5.478  10.822   8.617 -1.2193 -0.7745  1.1350
  116MOL0     H15957   5.412  10.685   8.389 -1.0545 -0.7573  0.4681
  116MOL0     H15958   5.391  10.488   8.224  1.5925  1.7583  0.4383
  116MOL0     H15959   5.296  10.428   8.368  1.2094  1.5315  3.4102
  116MOL0     H15960   5.539  10.293   8.244 -0.4084 -1.1869 -2.9093
  116MOL0     H15961   5.455  10.247   8.387  1.0823  3.8392  1.2820
  116MOL0     H15962   5.390  10.093   8.200  1.7884  0.0332  0.7721
  116MOL0     H15963   5.247  10.190   8.210  0.6158  0.6526  0.2893
  116MOL0     H15964   5.456  10.190   7.976  0.1058  1.9308 -2.4938
  116MOL0     H15965   5.286  10.183   7.986 -0.3868  2.5614 -0.3598
  116MOL0     H15966   5.232  10.318   7.790 -0.1926  1.0387  1.4375
  116MOL0     H15967   5.222  10.285   7.575 -0.3193 -1.8853 -2.0268
  116MOL0     H15968   5.348  10.314   7.466 -2.5612 -2.0729  0.2911
  116MOL0     H15969   5.230  10.446   7.482  1.2768  0.2529 -1.7606
  116MOL0     H15970   5.531  10.887   7.443  0.7295  1.8489  0.4788
  116MOL0     H15971   5.615  11.025   7.261  0.3881 -0.0999 -2.2255
  116MOL0     H15972   5.750  11.141   7.117 -0.4892  0.3993 -0.9041
  116MOL0     H15973   5.904  11.084   7.181 -0.1554 -0.7414 -0.8319
  116MOL0     H15974   5.837  11.109   6.882 -0.4433 -0.2044 -0.9594
  116MOL0     H15975   5.934  11.223   6.978  3.1981 -0.2882  0.1177
  116MOL0     H15976   6.061  11.078   6.842 -0.1801 -2.2982 -0.7170
  116MOL0     H15977   5.997  10.930   6.914  2.9791 -1.0128  1.4027
  116MOL0     H15978   6.099  11.012   7.143 -1.0555  2.2949 -0.1633
  116MOL0     H15979   6.205  11.110   7.049 -0.1135  0.0266 -0.0182
  116MOL0     H15980   6.317  10.895   7.074  0.4395  1.7403  1.1999
  116MOL0     H15981   6.185  10.814   6.996 -0.6150  0.3320 -0.2035
  116MOL0     H15982   6.376  11.009   6.880  1.5325 -0.5837 -1.2573
  116MOL0     H15983   6.229  10.972   6.790 -0.8939 -4.4439 -0.6287
  116MOL0     H15984   6.286  10.734   6.774 -0.6333 -1.3210  1.3345
  116MOL0     H15985   6.411  10.737   6.895 -3.1699 -0.8395  0.2899
  116MOL0     H15986   6.440  10.840   6.613  1.8283 -1.6659 -2.1512
  116MOL0     H15987   6.518  10.719   6.681 -2.7235 -1.2907 -0.1270
  116MOL0     H15988   5.853  10.706   7.121  1.7876  2.4123 -0.8180
  116MOL0     H15989   5.815  10.574   7.322  0.3099  0.7081  2.2703
  116MOL0     H15990   5.605  10.643   7.738 -3.3978  3.1945 -2.1111
  116MOL0     H15991   5.532  10.537   7.969 -0.9093 -1.3388  0.0440
  116MOL0     H15992   5.269  11.160   8.008  0.1438 -0.0883  0.0567
  116MOL0     H15993   5.048  11.060   7.960 -0.6595 -1.7664 -0.0423
  116MOL0     H15994   4.901  10.601   7.822 -1.2766  1.8394  1.6719
  116MOL0     H15995   4.753  10.428   7.742  0.9539 -0.3579 -0.8820
  116MOL0     H15996   4.383  10.564   7.525 -0.1501 -1.4766  1.8416
  116MOL0     H15997   4.489  10.508   7.398 -0.1152  2.7680 -0.4095
  116MOL0     H15998   4.298  10.376   7.381  0.1660 -1.1378 -1.0024
  116MOL0     H15999   4.281  10.361   7.551 -0.7594  0.4026 -2.0869
  116MOL0     H16000   4.459  10.206   7.363  0.3252  0.7047  1.1103
  116MOL0     H16001   4.518  10.220   7.518  0.4774 -2.4090 -1.5523
  116MOL0     H16002   4.389  10.004   7.484 -0.4371 -1.8738  0.2525
  116MOL0     H16003   4.253  10.076   7.419  0.9555 -1.9800  0.1746
  116MOL0     H16004   4.212  10.120   7.847 -1.0109  1.0048 -0.3832
  116MOL0     H16005   4.562  10.698   7.468 -1.2025 -1.2747 -0.0176
  116MOL0     H16006   4.664  10.900   7.408  2.0855  3.7847 -0.8916
  116MOL0     H16007   4.678  10.995   7.557 -1.3841  2.1391 -3.7826
  116MOL0     H16008   4.819  10.942   7.465 -0.1353 -0.8049 -1.9708
  117MOL0     O16009   9.044   4.534   7.567 -0.2163  0.0804  0.1841
  117MOL0     C16010   9.064   4.605   7.466  1.1106 -0.0243  0.3803
  117MOL0     O16011   9.024   4.577   7.340  0.4057  0.3773 -0.2262
  117MOL0     C16012   8.976   4.456   7.306 -0.5768 -0.7199 -0.3954
  117MOL0     C16013   8.871   4.448   7.219 -0.3629 -0.2369 -0.9809
  117MOL0     C16014   8.830   4.318   7.177 -0.7918 -0.4922  1.3484
  117MOL0     C16015   8.884   4.204   7.228  0.2275  0.2216 -0.2392
  117MOL0     O16016   8.842   4.088   7.168  0.5108  0.2360  0.8893
  117MOL0     C16017   8.915   3.972   7.202  0.2881 -0.1066  0.3577
  117MOL0     C16018   8.858   3.844   7.135  0.1390 -0.5997  0.1929
  117MOL0     C16019   8.709   3.834   7.118 -0.6088  0.5475 -0.4063
  117MOL0     C16020   8.687   3.681   7.082 -0.9522 -0.1060 -0.0545
  117MOL0     C16021   8.548   3.658   7.082 -0.8585  0.2645 -0.5449
  117MOL0     C16022   8.501   3.519   7.128  0.1227  0.1949  1.1674
  117MOL0     C16023   8.349   3.498   7.098  0.3767 -0.0040  0.2268
  117MOL0     C16024   8.311   3.503   6.948  0.0545 -0.3943  0.1249
  117MOL0     N16025   8.183   3.440   6.934  0.6712  0.6140  0.2425
  117MOL0     C16026   8.147   3.311   6.967 -0.3663  0.0856 -0.6979
  117MOL0     C16027   8.020   3.294   6.920  0.2130 -0.4590 -0.4530
  117MOL0     C16028   7.956   3.166   6.890  1.1155  0.4411 -0.2993
  117MOL0     C16029   7.885   3.154   6.759  0.3253  0.4852  0.3053
  117MOL0     C16030   7.821   3.016   6.747 -0.1138  1.1956  0.4562
  117MOL0     C16031   7.733   3.014   6.620 -1.2401  0.7352  0.3689
  117MOL0     O16032   7.684   2.883   6.590 -0.7828  0.2029  0.2393
  117MOL0     C16033   7.591   2.872   6.491  0.0564  0.4606 -0.0451
  117MOL0     C16034   7.534   2.983   6.432  0.3960  0.1124  1.0719
  117MOL0     C16035   7.443   2.979   6.323 -0.9053  0.1013  0.8380
  117MOL0     C16036   7.389   3.107   6.261  0.3193 -0.0294  0.3988
  117MOL0     C16037   7.417   2.848   6.271  1.0374 -1.2424 -0.1903
  117MOL0     C16038   7.339   2.818   6.144 -0.1986  0.1668 -0.4269
  117MOL0     O16039   7.233   2.892   6.112  0.4221  0.7459  0.5292
  117MOL0     C16040   7.170   2.871   5.992  0.2067 -0.5501 -0.4576
  117MOL0     C16041   7.104   2.754   5.955  0.0491 -0.7132 -0.7312
  117MOL0     C16042   7.035   2.767   5.835  0.4179  0.3138  0.5025
  117MOL0     C16043   7.029   2.870   5.749 -0.1635  0.8286 -0.4055
  117MOL0     O16044   6.971   2.857   5.631 -1.1383 -0.6896  0.7876
  117MOL0     C16045   7.008   2.946   5.523  1.4163  0.0813 -0.2427
  117MOL0     C16046   6.987   2.882   5.390  0.5635 -0.8108 -0.3086
  117MOL0     C16047   7.068   2.749   5.377 -0.5560 -0.5733  0.0727
  117MOL0     C16048   7.210   2.788   5.328  0.6281 -0.5882 -0.8888
  117MOL0     C16049   7.296   2.658   5.309 -0.1424 -1.7888 -0.8555
  117MOL0     C16050   7.367   2.656   5.172 -0.2802 -0.1086  0.4153
  117MOL0     C16051   7.446   2.526   5.158  0.3671 -0.3500 -0.5552
  117MOL0     C16052   7.519   2.522   5.028  0.9964 -0.6950  0.3955
  117MOL0    Cl16053   7.610   2.368   5.027  0.3623 -0.1803 -0.1071
  117MOL0     C16054   7.090   2.991   5.788 -0.6307 -0.3972 -0.6214
  117MOL0     C16055   7.154   2.993   5.911 -1.2971  1.1965  0.3217
  117MOL0     O16056   7.389   2.726   6.071 -0.1428  0.0280 -0.1143
  117MOL0     C16057   7.473   2.735   6.326  0.2124  0.6581  0.2721
  117MOL0     C16058   7.559   2.743   6.437 -0.4032  0.0322 -0.3886
  117MOL0     N16059   7.988   3.403   6.845  0.4594  0.7176  0.6273
  117MOL0     N16060   8.085   3.482   6.845 -1.4030  0.3542  0.3082
  117MOL0     C16061   8.987   4.210   7.316 -0.2728  0.0724  0.1618
  117MOL0     C16062   9.026   4.337   7.364 -0.7590 -0.4671  0.1503
  117MOL0     C16063   9.161   4.716   7.467 -0.0277 -0.2266  0.3043
  117MOL0     C16064   9.225   4.745   7.352 -0.1609  0.9005 -0.6545
  117MOL0     C16065   9.313   4.851   7.342 -0.0548 -0.1562  0.9878
  117MOL0     C16066   9.346   4.934   7.451 -0.1891 -1.3616 -0.7160
  117MOL0     O16067   9.424   5.044   7.427 -0.6072 -0.5266  0.4736
  117MOL0     C16068   9.476   5.106   7.543  0.2921  0.5649 -0.4663
  117MOL0     C16069   9.537   5.238   7.501  0.3398  0.3875 -0.0440
  117MOL0     C16070   9.681   5.248   7.452 -0.3358 -0.3924  0.1044
  117MOL0     C16071   9.706   5.385   7.386 -0.3257  0.2782 -0.3749
  117MOL0     C16072   9.749   5.480   7.488  0.4377 -1.0120  0.0218
  117MOL0     C16073   9.766   5.576   7.560  1.1403  0.1871 -0.2933
  117MOL0     C16074   9.285   4.906   7.573  0.1686 -0.7466 -0.5774
  117MOL0     C16075   9.192   4.797   7.578  0.0223  0.2860 -0.1180
  117MOL0     C16076   9.116   4.778   7.708  0.0377  0.3522 -0.2193
  117MOL0     H16077   8.849   4.539   7.165 -0.3432  0.3083 -0.0924
  117MOL0     H16078   8.769   4.321   7.086  2.6174 -1.0703 -1.1403
  117MOL0     H16079   8.896   3.955   7.308 -0.0988  2.9369  0.8505
  117MOL0     H16080   9.024   3.968   7.192  0.0377 -1.1601 -3.9058
  117MOL0     H16081   8.910   3.839   7.039  2.6868 -1.5962  1.5377
  117MOL0     H16082   8.893   3.763   7.198  0.0715 -0.6518  0.1636
  117MOL0     H16083   8.646   3.863   7.203 -2.7158 -2.9893 -0.5819
  117MOL0     H16084   8.682   3.890   7.027 -0.9674  0.0995 -0.5804
  117MOL0     H16085   8.726   3.650   6.985  1.6595  2.5346  0.0134
  117MOL0     H16086   8.741   3.624   7.158 -1.2060  1.8794  1.7186
  117MOL0     H16087   8.508   3.695   6.987  0.0687  2.3875 -0.1786
  117MOL0     H16088   8.504   3.723   7.159  0.3965 -0.3040  0.7043
  117MOL0     H16089   8.551   3.442   7.069  0.1454  1.2316 -0.2062
  117MOL0     H16090   8.525   3.500   7.233  3.9635 -0.5621  0.3114
  117MOL0     H16091   8.291   3.571   7.155 -0.6226  0.4709 -1.3433
  117MOL0     H16092   8.322   3.402   7.144 -0.1383  0.6752  1.3829
  117MOL0     H16093   8.306   3.605   6.909  1.5169 -0.8732 -1.4526
  117MOL0     H16094   8.378   3.451   6.879  2.6265  4.5661 -1.5804
  117MOL0     H16095   8.214   3.239   7.012  2.8257  2.6018 -1.0755
  117MOL0     H16096   7.883   3.137   6.967  0.3348 -1.6161 -1.7168
  117MOL0     H16097   8.034   3.090   6.883  1.2942  0.7859 -3.4410
  117MOL0     H16098   7.798   3.221   6.762 -0.7327 -0.8535  2.5609
  117MOL0     H16099   7.952   3.189   6.681 -1.5042  1.3857 -0.9523
  117MOL0     H16100   7.904   2.945   6.739  1.5852  3.2387 -2.1160
  117MOL0     H16101   7.753   2.993   6.829 -2.5584  0.3278 -1.6690
  117MOL0     H16102   7.651   3.084   6.639 -2.4972 -1.1419  2.3205
  117MOL0     H16103   7.785   3.056   6.534  1.5235 -0.3937  1.3797
  117MOL0     H16104   7.576   3.082   6.448 -0.4899  0.5340  0.8725
  117MOL0     H16105   7.374   3.105   6.153 -1.9012  1.3282  0.6165
  117MOL0     H16106   7.449   3.197   6.277  1.2679 -0.7416  0.9322
  117MOL0     H16107   7.292   3.141   6.297  0.2563  0.3185 -0.0842
  117MOL0     H16108   7.097   2.667   6.020  1.9502 -0.0370  0.4793
  117MOL0     H16109   6.972   2.681   5.813  2.9575 -1.3717 -0.6787
  117MOL0     H16110   6.938   3.030   5.522  0.1907 -0.8882  0.5330
  117MOL0     H16111   7.112   2.972   5.541  1.3152 -0.9912  2.3813
  117MOL0     H16112   6.882   2.854   5.379  0.1378  0.8933 -0.8728
  117MOL0     H16113   7.016   2.948   5.308  0.4866 -0.3191  0.0536
  117MOL0     H16114   7.012   2.689   5.304  1.3452 -1.1463 -0.9580
  117MOL0     H16115   7.078   2.688   5.468 -1.3116 -0.9998 -0.1222
  117MOL0     H16116   7.252   2.855   5.403 -2.9819  2.0416 -0.9670
  117MOL0     H16117   7.204   2.843   5.233 -0.4318  0.9082 -0.0014
  117MOL0     H16118   7.371   2.667   5.389  0.1638 -1.2748 -1.1864
  117MOL0     H16119   7.231   2.573   5.328 -2.7383  0.3172  0.3153
  117MOL0     H16120   7.432   2.743   5.166  0.9713 -1.1260 -1.8511
  117MOL0     H16121   7.300   2.670   5.087  0.6034 -0.0444 -0.2776
  117MOL0     H16122   7.382   2.437   5.154  3.1226 -2.4608 -4.4948
  117MOL0     H16123   7.514   2.517   5.243 -2.1223 -0.8482  1.5275
  117MOL0     H16124   7.586   2.605   5.005 -1.6653  1.2761 -0.8159
  117MOL0     H16125   7.441   2.510   4.952  1.1181  3.5875 -0.6890
  117MOL0     H16126   7.084   3.083   5.731 -0.2664 -0.7441 -1.2305
  117MOL0     H16127   7.201   3.084   5.947  0.4586 -0.8197  3.7180
  117MOL0     H16128   7.452   2.633   6.297  4.3253  0.0766 -1.3356
  117MOL0     H16129   7.598   2.652   6.481 -0.3835  0.5431  0.6770
  117MOL0     H16130   9.026   4.125   7.371 -2.9669 -0.7886  0.8951
  117MOL0     H16131   9.109   4.331   7.434  1.6361  3.5800 -1.9517
  117MOL0     H16132   9.205   4.684   7.264 -1.1717  1.2937 -0.7205
  117MOL0     H16133   9.344   4.863   7.239 -2.8959 -0.8250 -0.0550
  117MOL0     H16134   9.391   5.140   7.602 -0.9648  0.2862 -2.0404
  117MOL0     H16135   9.556   5.039   7.578  0.8874  1.2662 -0.4707
  117MOL0     H16136   9.530   5.303   7.589 -0.2925 -0.1451  0.3086
  117MOL0     H16137   9.477   5.266   7.414 -1.0595  0.1217  0.7964
  117MOL0     H16138   9.761   5.225   7.523  1.7726 -0.1901 -2.0791
  117MOL0     H16139   9.701   5.167   7.382 -1.1277 -1.2237  0.8156
  117MOL0     H16140   9.619   5.426   7.333 -1.9862 -1.7614  0.6176
  117MOL0     H16141   9.794   5.365   7.324 -1.6401  0.3178 -2.3601
  117MOL0     H16142   9.771   5.660   7.626 -0.7434 -0.0287  0.1975
  117MOL0     H16143   9.305   4.955   7.667  2.0844 -1.1944 -0.7266
  117MOL0     H16144   9.011   4.773   7.679 -1.7749  0.4408  5.2167
  117MOL0     H16145   9.146   4.684   7.756 -1.1412 -1.6932 -3.2003
  117MOL0     H16146   9.132   4.867   7.769 -0.1213  1.6185 -1.9555
  118MOL0     O16147   3.005   3.043   2.739 -0.1407 -0.7856 -0.1896
  118MOL0     C16148   2.922   3.044   2.829  0.3283  0.0259  0.5581
  118MOL0     O16149   2.791   3.062   2.814  0.3633 -0.4644  0.2434
  118MOL0     C16150   2.729   3.070   2.692  0.4192  0.4951 -0.2637
  118MOL0     C16151   2.785   3.083   2.565 -0.3604 -0.5676 -0.5781
  118MOL0     C16152   2.707   3.057   2.450  0.1590 -0.4144 -0.1064
  118MOL0     C16153   2.573   3.020   2.467  0.2622  0.2049 -0.7305
  118MOL0     O16154   2.491   2.961   2.365 -0.3400 -0.0811  0.2562
  118MOL0     C16155   2.538   2.960   2.223 -0.0463  0.3350  0.5404
  118MOL0     C16156   2.440   2.877   2.139 -0.1158  0.2288 -0.4114
  118MOL0     C16157   2.456   2.905   1.990 -0.6589  0.1406  0.2355
  118MOL0     C16158   2.604   2.871   1.940  0.0124  0.0464 -1.0066
  118MOL0     C16159   2.614   2.871   1.785  1.3915  0.1621 -0.3292
  118MOL0     C16160   2.738   2.804   1.727  0.1221 -0.9036  0.6725
  118MOL0     C16161   2.756   2.862   1.585  0.1224 -0.4405 -0.5938
  118MOL0     C16162   2.868   2.803   1.491  0.6892 -0.3237 -1.0016
  118MOL0     N16163   2.990   2.809   1.568  0.3386  0.3048 -0.0739
  118MOL0     C16164   3.027   2.746   1.689 -1.0385 -0.0699  0.6881
  118MOL0     C16165   3.151   2.788   1.723 -0.3348 -0.2232 -0.9136
  118MOL0     C16166   3.251   2.730   1.824 -0.0450 -0.3627  0.2377
  118MOL0     C16167   3.370   2.656   1.759  0.7314 -0.4385  0.0552
  118MOL0     C16168   3.483   2.641   1.860 -0.2003 -0.3366  0.6123
  118MOL0     C16169   3.454   2.571   1.994  0.7310  0.4352 -0.2020
  118MOL0     O16170   3.521   2.645   2.099 -0.1209 -0.0135  0.0344
  118MOL0     C16171   3.475   2.632   2.235 -0.1250  0.3679  0.7955
  118MOL0     C16172   3.493   2.730   2.337  1.0348  0.8182  0.9427
  118MOL0     C16173   3.444   2.707   2.464 -0.9206 -0.4526  0.2741
  118MOL0     C16174   3.478   2.815   2.566 -0.2055  0.2732  0.0036
  118MOL0     C16175   3.371   2.592   2.491  0.6784  0.3451 -0.6379
  118MOL0     C16176   3.298   2.570   2.624  0.2285 -0.1984  0.0006
  118MOL0     O16177   3.346   2.618   2.740 -0.9856 -0.6769  0.0421
  118MOL0     C16178   3.272   2.615   2.852 -0.7001  0.7542 -0.1383
  118MOL0     C16179   3.337   2.592   2.975 -0.2157 -0.1423 -0.1223
  118MOL0     C16180   3.271   2.586   3.095 -0.7629  0.2154  0.9414
  118MOL0     C16181   3.128   2.605   3.093  0.1658 -0.3136 -0.1836
  118MOL0     O16182   3.079   2.631   3.218  0.1866  0.0164  0.1864
  118MOL0     C16183   2.935   2.639   3.231 -0.7407  0.9308  0.4868
  118MOL0     C16184   2.901   2.707   3.358 -0.2975  0.1359  0.3478
  118MOL0     C16185   2.902   2.614   3.483 -0.6589 -0.0491 -1.0601
  118MOL0     C16186   3.042   2.554   3.517 -0.7613 -0.1774  0.0696
  118MOL0     C16187   3.066   2.466   3.642 -0.0011 -0.2760 -0.2014
  118MOL0     C16188   3.019   2.513   3.779 -0.1585 -0.9328 -0.0145
  118MOL0     C16189   2.869   2.482   3.813  1.3104 -0.9242  0.2676
  118MOL0     C16190   2.782   2.591   3.878  0.8302  0.8474 -1.0793
  118MOL0    Cl16191   2.825   2.629   4.040 -0.2453 -0.1012  0.1342
  118MOL0     C16192   3.063   2.627   2.973 -0.5680  0.7676  0.5683
  118MOL0     C16193   3.136   2.640   2.850 -0.2992  0.1104 -0.5830
  118MOL0     O16194   3.195   2.501   2.616  0.2160  0.0923 -0.3650
  118MOL0     C16195   3.359   2.491   2.389  0.4877  0.5820 -0.8564
  118MOL0     C16196   3.408   2.514   2.265 -0.2661  0.5617 -0.2904
  118MOL0     N16197   3.191   2.884   1.629 -0.2271  0.7009 -0.7213
  118MOL0     N16198   3.091   2.898   1.544 -0.0367 -0.3832 -0.3966
  118MOL0     C16199   2.516   3.021   2.596 -0.3617 -0.6900  0.5707
  118MOL0     C16200   2.595   3.041   2.708  0.3617 -0.4009 -0.3721
  118MOL0     C16201   2.972   3.038   2.966  1.5190  0.9830  0.0691
  118MOL0     C16202   2.878   3.024   3.071 -0.8208  0.0913  0.7009
  118MOL0     C16203   2.917   3.026   3.205  0.5010  0.4072  0.1929
  118MOL0     C16204   3.043   3.050   3.239 -0.0083  0.8313 -0.8321
  118MOL0     O16205   3.068   3.059   3.375  0.1104 -0.3995  0.1627
  118MOL0     C16206   3.201   3.082   3.432  0.0265  0.0635 -0.0002
  118MOL0     C16207   3.195   3.162   3.557  1.0441  0.3602 -0.2945
  118MOL0     C16208   3.075   3.132   3.641 -0.3934  0.8464  0.3183
  118MOL0     C16209   3.062   2.988   3.691  0.4675 -0.1028  0.2596
  118MOL0     C16210   3.132   2.988   3.816 -0.2927  0.7385 -0.2495
  118MOL0     C16211   3.192   2.975   3.920  1.0011 -0.2209 -0.6023
  118MOL0     C16212   3.139   3.050   3.137 -0.1426  0.1096  0.4894
  118MOL0     C16213   3.105   3.043   3.004 -0.0752  0.7305 -0.6067
  118MOL0     C16214   3.221   3.052   2.912 -0.2930 -0.0054 -0.0228
  118MOL0     H16215   2.881   3.127   2.542 -0.2903 -0.0176  0.6808
  118MOL0     H16216   2.752   3.061   2.351 -0.2825 -0.9504 -0.3326
  118MOL0     H16217   2.638   2.920   2.203 -0.3146  0.5758 -1.5155
  118MOL0     H16218   2.550   3.065   2.194  1.0307  0.4550  1.3630
  118MOL0     H16219   2.454   2.771   2.161  1.9270  0.0381 -2.2818
  118MOL0     H16220   2.343   2.921   2.164 -0.8606 -0.1985 -2.3593
  118MOL0     H16221   2.382   2.844   1.937  0.0490  0.8587 -1.7035
  118MOL0     H16222   2.445   3.009   1.960 -0.3258 -0.2410 -1.3140
  118MOL0     H16223   2.672   2.950   1.976  1.9463 -1.9911  0.0714
  118MOL0     H16224   2.625   2.774   1.985 -4.1502  0.1594  1.7011
  118MOL0     H16225   2.608   2.976   1.753 -1.8292  0.5726  1.1629
  118MOL0     H16226   2.528   2.823   1.737  0.4797  1.4047 -0.0208
  118MOL0     H16227   2.819   2.835   1.795 -0.0359  1.3119 -0.0759
  118MOL0     H16228   2.724   2.696   1.716  1.0488 -0.8832 -0.9285
  118MOL0     H16229   2.790   2.965   1.595 -1.7531  0.4444 -2.4389
  118MOL0     H16230   2.661   2.853   1.531 -0.0788  1.3299 -0.6020
  118MOL0     H16231   2.840   2.704   1.454 -0.1160 -1.5252  2.4501
  118MOL0     H16232   2.872   2.874   1.407 -2.4592  3.6869  1.8506
  118MOL0     H16233   2.977   2.668   1.745 -1.4888 -1.3075 -1.3042
  118MOL0     H16234   3.191   2.662   1.885  0.7107 -1.4030 -0.1519
  118MOL0     H16235   3.292   2.819   1.873  4.1532 -0.8971 -1.9327
  118MOL0     H16236   3.342   2.554   1.732  3.1014 -1.5065  1.2756
  118MOL0     H16237   3.399   2.696   1.661  0.0185  0.3999  0.1780
  118MOL0     H16238   3.566   2.594   1.807 -0.8681  0.2424 -0.9972
  118MOL0     H16239   3.520   2.742   1.877 -2.1038  0.0127  3.4643
  118MOL0     H16240   3.347   2.564   2.019  0.6702  0.7120 -0.3756
  118MOL0     H16241   3.486   2.467   1.989 -2.2351 -0.6224  0.5351
  118MOL0     H16242   3.541   2.827   2.322  2.7654  0.0662  1.3875
  118MOL0     H16243   3.382   2.846   2.608 -0.1314  1.5214 -0.7113
  118MOL0     H16244   3.535   2.895   2.519 -1.2572  0.8616 -0.3143
  118MOL0     H16245   3.536   2.771   2.648  1.6009  0.7159 -1.0058
  118MOL0     H16246   3.445   2.581   2.980 -0.1520  0.4882 -0.0765
  118MOL0     H16247   3.318   2.572   3.192  0.6439  1.3190  0.4670
  118MOL0     H16248   2.892   2.694   3.146 -2.5322 -0.6370  0.3085
  118MOL0     H16249   2.893   2.539   3.221  1.1816  0.2323 -1.2738
  118MOL0     H16250   2.981   2.780   3.370  0.4026 -0.2560 -1.6253
  118MOL0     H16251   2.806   2.759   3.344 -2.1149 -2.9357  0.1988
  118MOL0     H16252   2.822   2.540   3.484  0.3740 -1.2168 -1.8913
  118MOL0     H16253   2.891   2.687   3.564  4.8305  4.6425 -3.7955
  118MOL0     H16254   3.113   2.637   3.525 -2.4221  1.2511  0.6838
  118MOL0     H16255   3.066   2.493   3.430 -1.8075  1.9154 -1.7676
  118MOL0     H16256   3.038   2.363   3.619  1.8649 -0.6544 -0.9669
  118MOL0     H16257   3.175   2.461   3.649  0.1045 -0.9563 -1.9230
  118MOL0     H16258   3.027   2.621   3.793 -1.1772 -1.1212  2.5643
  118MOL0     H16259   3.073   2.454   3.854 -1.9336 -0.0034  2.1338
  118MOL0     H16260   2.860   2.398   3.882  0.8520 -0.3684  0.9049
  118MOL0     H16261   2.814   2.450   3.724  0.4625  2.0959 -0.4289
  118MOL0     H16262   2.682   2.549   3.869  0.0840  2.4121 -0.3909
  118MOL0     H16263   2.781   2.680   3.815 -0.0457  0.5657 -1.4758
  118MOL0     H16264   2.959   2.649   2.953 -0.0497  0.9396 -2.4981
  118MOL0     H16265   3.086   2.669   2.758  0.4222  2.6588 -0.2450
  118MOL0     H16266   3.311   2.396   2.410  4.1805 -1.6541 -1.4946
  118MOL0     H16267   3.404   2.440   2.186 -0.4237  1.5659 -1.2397
  118MOL0     H16268   2.409   3.011   2.612 -0.6566  1.5870  0.2695
  118MOL0     H16269   2.543   3.031   2.803  0.6053 -3.3887 -0.4761
  118MOL0     H16270   2.773   3.015   3.043 -1.0289  0.4087  1.3490
  118MOL0     H16271   2.841   3.036   3.281  2.5342 -2.8677  2.9535
  118MOL0     H16272   3.246   2.984   3.450  0.1249  0.3199  1.2624
  118MOL0     H16273   3.265   3.142   3.367  0.9013  1.9251  2.4180
  118MOL0     H16274   3.197   3.271   3.545  1.4387  0.2337 -1.4980
  118MOL0     H16275   3.279   3.139   3.623 -0.1222 -2.0559  0.4748
  118MOL0     H16276   3.071   3.208   3.720 -0.4744 -1.0359  2.2106
  118MOL0     H16277   2.993   3.158   3.573 -0.6175  0.8267  0.5798
  118MOL0     H16278   3.086   2.916   3.612  1.6973  2.5521 -1.9426
  118MOL0     H16279   2.956   2.972   3.713 -0.2614  2.8553 -0.6720
  118MOL0     H16280   3.238   2.953   4.015  0.5796 -2.2960 -0.8360
  118MOL0     H16281   3.242   3.075   3.161  0.6401 -2.5777  0.1643
  118MOL0     H16282   3.317   3.036   2.961 -1.5784  0.5619  2.8660
  118MOL0     H16283   3.220   2.973   2.836 -1.0523 -0.1032  0.0863
  118MOL0     H16284   3.230   3.149   2.863 -2.4427 -1.4923 -3.7812
  119MOL0     O16285  11.528   0.253   9.300  0.3760 -0.0139 -0.2879
  119MOL0     C16286  11.585   0.279   9.201 -0.4848 -0.5449  0.7115
  119MOL0     O16287  11.519   0.313   9.079  0.2302  0.1115 -0.2305
  119MOL0     C16288  11.384   0.338   9.070 -0.0283  0.0346 -0.1418
  119MOL0     C16289  11.314   0.294   8.956 -0.8727  0.1688  0.0493
  119MOL0     C16290  11.178   0.320   8.921 -0.1642  0.0142  0.1586
  119MOL0     C16291  11.101   0.392   9.019 -0.3468 -0.0164 -0.1632
  119MOL0     O16292  10.975   0.416   8.979 -0.2970  0.1855  0.9406
  119MOL0     C16293  10.877   0.450   9.079  0.3776  0.0270  0.8765
  119MOL0     C16294  10.733   0.451   9.012 -1.2265  0.6385 -1.4392
  119MOL0     C16295  10.617   0.445   9.101 -0.5160 -0.7853 -0.2248
  119MOL0     C16296  10.588   0.580   9.174  0.7298 -0.3138 -0.4571
  119MOL0     C16297  10.477   0.550   9.279 -1.0731  0.0858  0.7337
  119MOL0     C16298  10.341   0.512   9.203  0.2192  0.0626 -1.1947
  119MOL0     C16299  10.285   0.608   9.090  0.3780  0.2481 -0.8530
  119MOL0     C16300  10.155   0.556   9.022  1.1279  0.9259  0.3026
  119MOL0     N16301  10.183   0.419   8.958  0.5822  0.2040  0.2447
  119MOL0     C16302  10.262   0.395   8.851 -0.0302 -0.2318  0.4511
  119MOL0     C16303  10.240   0.272   8.835 -0.8550  1.1143  0.8557
  119MOL0     C16304  10.325   0.188   8.744  0.5413  0.1431  0.7763
  119MOL0     C16305  10.443   0.140   8.826  0.0516  0.6882  0.6848
  119MOL0     C16306  10.530   0.064   8.724  0.5866 -1.5893  1.4308
  119MOL0     C16307  10.663   0.060   8.788 -0.3697 -0.1043  0.6128
  119MOL0     O16308  10.742  -0.021   8.695 -0.2589  0.7464  0.3482
  119MOL0     C16309  10.880  -0.028   8.722  0.4312  0.5219  1.1336
  119MOL0     C16310  10.949  -0.101   8.623  0.3548 -0.6373 -0.7448
  119MOL0     C16311  11.085  -0.131   8.645 -0.0717 -0.4416  0.7547
  119MOL0     C16312  11.152  -0.230   8.559  0.3176  0.1070  0.5069
  119MOL0     C16313  11.164  -0.072   8.749  1.1485 -0.2582 -0.2637
  119MOL0     C16314  11.306  -0.090   8.770 -0.4572  0.3081  1.1884
  119MOL0     O16315  11.342  -0.077   8.895 -0.0036  0.1705 -0.1649
  119MOL0     C16316  11.445  -0.156   8.945 -0.9081 -0.8212 -0.4453
  119MOL0     C16317  11.475  -0.128   9.082  0.7886 -0.2425  0.7163
  119MOL0     C16318  11.563  -0.205   9.147  0.3091 -0.2465 -0.3910
  119MOL0     C16319  11.649  -0.300   9.080 -0.0156 -1.2225 -0.0400
  119MOL0     O16320  11.748  -0.375   9.143  0.3318  0.4683  0.6953
  119MOL0     C16321  11.678  -0.442   9.250  0.0052  0.1281 -0.3144
  119MOL0     C16322  11.783  -0.555   9.296  0.2554 -0.1835  0.2584
  119MOL0     C16323  11.911  -0.473   9.339  0.9629  0.1192 -0.6431
  119MOL0     C16324  12.014  -0.578   9.382  0.8012 -0.3839 -0.1049
  119MOL0     C16325  12.128  -0.495   9.451 -0.3189 -0.1649  1.1608
  119MOL0     C16326  12.254  -0.576   9.469  0.1523 -0.1403 -1.1725
  119MOL0     C16327  12.317  -0.612   9.331  0.3373  0.4908  0.3278
  119MOL0     C16328  12.452  -0.678   9.355  0.2968  1.6519 -0.5736
  119MOL0    Cl16329  12.574  -0.579   9.430 -0.2507  0.3183  0.2683
  119MOL0     C16330  11.624  -0.322   8.946 -0.7107 -0.7496 -0.7247
  119MOL0     C16331  11.529  -0.248   8.881 -0.7357  0.8749  0.2880
  119MOL0     O16332  11.385  -0.100   8.671 -0.4127  0.3782  0.1429
  119MOL0     C16333  11.091   0.018   8.832 -0.4960  0.0835 -0.7576
  119MOL0     C16334  10.950   0.032   8.826 -0.0067 -0.4141 -0.2896
  119MOL0     N16335  10.158   0.213   8.922 -0.0319  0.5279  0.3358
  119MOL0     N16336  10.125   0.309   8.994  0.8040  0.3946  0.8302
  119MOL0     C16337  11.173   0.448   9.127 -0.1963 -0.0318 -0.2602
  119MOL0     C16338  11.309   0.413   9.157  0.2780 -0.2357  0.1383
  119MOL0     C16339  11.734   0.279   9.211 -0.7796  1.4364 -0.0907
  119MOL0     C16340  11.808   0.202   9.307 -0.2706  0.3896  0.1031
  119MOL0     C16341  11.950   0.210   9.314 -0.5701 -0.6098 -0.7652
  119MOL0     C16342  12.027   0.261   9.205 -0.5864 -0.2596 -0.0056
  119MOL0     O16343  12.167   0.248   9.204  0.7901 -0.3636 -0.0969
  119MOL0     C16344  12.210   0.212   9.069  0.0853  0.3889  0.2828
  119MOL0     C16345  12.355   0.180   9.057  0.1336  0.1764  0.0691
  119MOL0     C16346  12.445   0.307   9.072 -0.0755  0.1019  1.2994
  119MOL0     C16347  12.589   0.259   9.030 -0.8147 -0.1779 -0.9588
  119MOL0     C16348  12.688   0.349   9.086 -0.6759 -1.2600  0.5497
  119MOL0     C16349  12.771   0.416   9.145  0.7064 -0.2092  0.4600
  119MOL0     C16350  11.953   0.334   9.112 -0.3920  0.7406 -0.2227
  119MOL0     C16351  11.812   0.350   9.119  0.4987 -0.3100 -0.3782
  119MOL0     C16352  11.764   0.457   9.032  0.8273  0.8072 -0.0920
  119MOL0     H16353  11.369   0.224   8.894 -1.4954 -0.0341 -0.2841
  119MOL0     H16354  11.135   0.282   8.829 -0.6790  2.0281 -0.4937
  119MOL0     H16355  10.900   0.549   9.119  2.5103 -0.1706  0.2499
  119MOL0     H16356  10.880   0.373   9.156 -1.4931  0.4671  1.4485
  119MOL0     H16357  10.726   0.537   8.945  1.6915 -0.9629 -4.0516
  119MOL0     H16358  10.745   0.370   8.940 -0.5273  0.3155 -0.9707
  119MOL0     H16359  10.535   0.408   9.039 -0.5179  0.7247 -1.1938
  119MOL0     H16360  10.631   0.367   9.176 -1.5155 -1.2335 -0.4955
  119MOL0     H16361  10.671   0.611   9.238 -0.8803 -0.4416  1.8219
  119MOL0     H16362  10.560   0.653   9.097 -2.3794 -3.6463 -2.8480
  119MOL0     H16363  10.454   0.640   9.337 -0.5865 -1.0483  2.7603
  119MOL0     H16364  10.508   0.480   9.357  0.4412  1.5123  1.4803
  119MOL0     H16365  10.343   0.414   9.155 -0.6439  0.2034 -1.5322
  119MOL0     H16366  10.263   0.491   9.277  1.5396  0.2228  0.2969
  119MOL0     H16367  10.365   0.614   9.016  1.7024  0.7200  0.5481
  119MOL0     H16368  10.266   0.706   9.135  0.6939 -0.6701  1.4051
  119MOL0     H16369  10.076   0.537   9.096  0.8256  1.2492  0.0662
  119MOL0     H16370  10.128   0.631   8.947 -0.7191  0.0536  0.0430
  119MOL0     H16371  10.329   0.461   8.797 -1.4933 -0.3674 -1.6365
  119MOL0     H16372  10.357   0.248   8.658  1.0859 -0.4650  0.5451
  119MOL0     H16373  10.264   0.107   8.702  1.5346  0.8336 -2.2568
  119MOL0     H16374  10.504   0.216   8.876 -2.1058  0.9917  3.0216
  119MOL0     H16375  10.399   0.076   8.902  1.3513  0.4145  1.2415
  119MOL0     H16376  10.492  -0.034   8.694 -0.9631 -0.3968 -0.8169
  119MOL0     H16377  10.543   0.121   8.631 -0.5659 -1.2655  1.4531
  119MOL0     H16378  10.702   0.162   8.802 -0.7392  0.9151 -4.0564
  119MOL0     H16379  10.651   0.014   8.886 -4.2018  2.1321  1.3815
  119MOL0     H16380  10.901  -0.124   8.528  1.2949  1.3409 -1.7441
  119MOL0     H16381  11.232  -0.184   8.500 -0.7438  1.9496  0.4506
  119MOL0     H16382  11.076  -0.270   8.491 -0.1375  1.9665 -0.1397
  119MOL0     H16383  11.190  -0.316   8.615 -2.1099 -1.7183 -0.4700
  119MOL0     H16384  11.425  -0.058   9.148 -1.2651 -0.4645 -0.5174
  119MOL0     H16385  11.584  -0.188   9.252  0.4226 -2.5367  0.0114
  119MOL0     H16386  11.658  -0.381   9.338 -0.4217  2.1729 -1.7564
  119MOL0     H16387  11.590  -0.493   9.209 -0.3651  0.5591 -0.0677
  119MOL0     H16388  11.756  -0.630   9.371 -1.9821  1.2144  0.9492
  119MOL0     H16389  11.805  -0.608   9.203  1.0187 -0.3806  0.5460
  119MOL0     H16390  11.897  -0.401   9.421 -0.3072 -1.7920  0.9308
  119MOL0     H16391  11.939  -0.405   9.258  0.8299  0.6565 -0.2485
  119MOL0     H16392  12.045  -0.641   9.298 -0.7728 -1.0369 -0.2358
  119MOL0     H16393  11.981  -0.637   9.469 -0.4647  2.3098  1.3596
  119MOL0     H16394  12.157  -0.414   9.384  1.1282 -0.0128  1.9452
  119MOL0     H16395  12.098  -0.459   9.550 -2.5801  0.7455  0.2306
  119MOL0     H16396  12.247  -0.666   9.530  3.8096  1.2482  1.6453
  119MOL0     H16397  12.326  -0.510   9.517 -0.4901 -0.7508  0.6952
  119MOL0     H16398  12.307  -0.530   9.259 -1.1346  0.6388  0.6773
  119MOL0     H16399  12.250  -0.687   9.288 -0.5515  1.5706 -0.2403
  119MOL0     H16400  12.506  -0.703   9.263 -1.7777 -1.5340 -1.1276
  119MOL0     H16401  12.432  -0.771   9.410 -0.1031  1.5062 -0.9530
  119MOL0     H16402  11.690  -0.395   8.900  0.6162  0.3528 -0.6633
  119MOL0     H16403  11.506  -0.288   8.782  3.6225  1.2628 -1.1077
  119MOL0     H16404  11.153   0.076   8.900 -0.4639  1.3214 -1.8014
  119MOL0     H16405  10.907   0.096   8.902 -0.1435 -1.0444  0.1595
  119MOL0     H16406  11.117   0.514   9.193 -1.4731 -1.2034 -0.1256
  119MOL0     H16407  11.381   0.462   9.222  2.0154 -0.1352 -1.7718
  119MOL0     H16408  11.776   0.147   9.394  2.8002  1.2311  1.9521
  119MOL0     H16409  12.001   0.168   9.401  1.9346 -0.2444 -1.9761
  119MOL0     H16410  12.138   0.138   9.034  0.3610 -0.0263  0.5843
  119MOL0     H16411  12.191   0.300   9.007 -3.5846 -0.0023  0.6681
  119MOL0     H16412  12.366   0.144   8.955  1.4426 -0.6401  0.4675
  119MOL0     H16413  12.399   0.103   9.121  1.7844  0.2256 -0.9509
  119MOL0     H16414  12.405   0.391   9.015 -0.0751 -1.3838 -1.0782
  119MOL0     H16415  12.446   0.347   9.173  3.7196 -1.8558  2.2360
  119MOL0     H16416  12.604   0.261   8.921  0.3727 -1.2659 -0.8308
  119MOL0     H16417  12.619   0.158   9.058  3.5631  1.1232 -0.2852
  119MOL0     H16418  12.819   0.471   9.223  1.2635  1.4427 -0.9972
  119MOL0     H16419  12.021   0.377   9.040 -2.3434 -0.2224 -2.8018
  119MOL0     H16420  11.683   0.517   9.073 -1.2153 -1.3702 -0.7549
  119MOL0     H16421  11.847   0.526   9.012 -0.7590  2.1537 -2.6376
  119MOL0     H16422  11.738   0.413   8.935  1.1649 -0.9801  0.5974
  120MOL0     O16423   6.290   4.622  11.204  0.2528  0.2105 -0.0310
  120MOL0     C16424   6.191   4.702  11.224  0.1328 -0.1499 -0.6202
  120MOL0     O16425   6.075   4.709  11.156  0.1094 -0.2778 -0.1183
  120MOL0     C16426   6.052   4.609  11.059 -0.0128  0.4380  1.0791
  120MOL0     C16427   6.059   4.466  11.072 -0.4629 -0.3166 -0.3319
  120MOL0     C16428   6.005   4.386  10.975  0.2954  0.2546  1.0774
  120MOL0     C16429   5.935   4.443  10.867 -0.6628 -0.1204  0.1599
  120MOL0     O16430   5.864   4.355  10.780  0.4917 -0.2936 -0.3806
  120MOL0     C16431   5.887   4.365  10.639  0.5704  0.4804 -0.0620
  120MOL0     C16432   5.877   4.238  10.559 -0.1365  0.5337  0.7754
  120MOL0     C16433   5.739   4.149  10.580 -0.9866  0.7917  0.0491
  120MOL0     C16434   5.750   4.004  10.506 -0.3589  0.7988  0.1529
  120MOL0     C16435   5.618   3.928  10.529  1.1917 -0.2637 -0.3929
  120MOL0     C16436   5.603   3.873  10.676  0.7301 -0.2814  0.0370
  120MOL0     C16437   5.482   3.772  10.673  0.0255  0.2184 -0.2188
  120MOL0     C16438   5.364   3.804  10.581  0.5150 -0.2676 -0.6597
  120MOL0     N16439   5.256   3.710  10.593  0.1818 -0.6410  0.0021
  120MOL0     C16440   5.225   3.605  10.516  0.6601  0.3596  0.7504
  120MOL0     C16441   5.127   3.530  10.579 -0.6751  1.0937 -0.6007
  120MOL0     C16442   5.082   3.395  10.539  0.3536 -0.0272  0.3403
  120MOL0     C16443   5.214   3.309  10.521 -0.1504  0.8750 -0.9044
  120MOL0     C16444   5.285   3.269  10.654  0.5129 -0.6364 -0.3349
  120MOL0     C16445   5.421   3.207  10.620 -0.3761 -0.0985  0.7740
  120MOL0     O16446   5.469   3.110  10.718  0.0541 -0.8490 -0.1094
  120MOL0     C16447   5.400   2.988  10.738 -0.7704 -0.1531  0.7830
  120MOL0     C16448   5.452   2.901  10.835  0.2978  0.5897  1.6340
  120MOL0     C16449   5.411   2.763  10.848 -0.2940  0.0860 -0.5084
  120MOL0     C16450   5.478   2.686  10.957 -0.4817 -0.2204  0.6044
  120MOL0     C16451   5.304   2.712  10.769 -0.7612  0.2692 -0.5328
  120MOL0     C16452   5.260   2.566  10.764 -0.4099 -1.3480  0.5554
  120MOL0     O16453   5.162   2.527  10.670 -0.2709 -0.0496  0.0896
  120MOL0     C16454   5.132   2.395  10.666  0.1329  0.2845 -0.3482
  120MOL0     C16455   5.014   2.338  10.693  0.6697 -0.0507  0.4351
  120MOL0     C16456   4.986   2.207  10.661 -0.0230  0.2166 -1.2473
  120MOL0     C16457   5.087   2.125  10.599  0.5006 -0.1349  0.0986
  120MOL0     O16458   5.054   1.997  10.574  0.3577  0.6214 -0.5828
  120MOL0     C16459   5.146   1.889  10.615  0.3906  0.0705  0.2457
  120MOL0     C16460   5.170   1.788  10.500 -0.0203  0.4163 -1.0662
  120MOL0     C16461   5.233   1.662  10.557  0.8146  0.3745 -0.3766
  120MOL0     C16462   5.384   1.658  10.560  0.4259 -0.3376  0.2833
  120MOL0     C16463   5.449   1.526  10.584 -0.3470  0.7362 -0.3734
  120MOL0     C16464   5.420   1.453  10.710  0.2069  0.3380  0.2730
  120MOL0     C16465   5.498   1.323  10.706 -0.4745  0.6855 -0.4928
  120MOL0     C16466   5.494   1.245  10.838  0.2541 -0.3047 -1.3392
  120MOL0    Cl16467   5.488   1.340  10.987 -0.3289  0.3348  0.0561
  120MOL0     C16468   5.211   2.177  10.581  1.0088 -0.4997  0.7097
  120MOL0     C16469   5.225   2.314  10.600  0.2173  0.5109  0.1422
  120MOL0     O16470   5.317   2.490  10.837 -0.0159 -0.0188 -1.2960
  120MOL0     C16471   5.247   2.806  10.689  0.0982  0.6504  0.1226
  120MOL0     C16472   5.292   2.941  10.664  1.1359  0.1099 -0.6732
  120MOL0     N16473   5.095   3.606  10.691 -0.4946  1.0939 -0.2833
  120MOL0     N16474   5.178   3.699  10.703 -0.2980  0.2013  0.3758
  120MOL0     C16475   5.929   4.581  10.851 -0.2739  0.3212 -0.4087
  120MOL0     C16476   5.980   4.662  10.947  0.1552  0.5455  0.9376
  120MOL0     C16477   6.218   4.805  11.331  0.6958  0.7692  0.2777
  120MOL0     C16478   6.102   4.864  11.376  0.2558  0.1116  0.1159
  120MOL0     C16479   6.099   4.961  11.473  0.1519 -0.3921 -0.2918
  120MOL0     C16480   6.222   5.013  11.519  0.1948  1.0676  0.3610
  120MOL0     O16481   6.219   5.106  11.617  0.7269 -0.1822  0.5410
  120MOL0     C16482   6.328   5.189  11.648  0.5230  0.0970 -0.1650
  120MOL0     C16483   6.303   5.287  11.759  0.2395 -0.6936 -0.0142
  120MOL0     C16484   6.194   5.384  11.717 -0.0200 -0.3983 -0.3547
  120MOL0     C16485   6.169   5.495  11.821  0.6138  0.2846 -0.4789
  120MOL0     C16486   6.258   5.608  11.801  0.7137  0.5374 -0.9319
  120MOL0     C16487   6.334   5.694  11.764 -0.4133 -0.6185  0.1562
  120MOL0     C16488   6.344   4.952  11.479  0.1643 -0.4434  0.0544
  120MOL0     C16489   6.344   4.838  11.397 -0.5453 -0.7478 -0.2415
  120MOL0     C16490   6.475   4.774  11.364  0.5223 -0.0103  0.2085
  120MOL0     H16491   6.097   4.421  11.163  1.6267  1.7841 -0.0747
  120MOL0     H16492   6.016   4.278  10.974  3.1125  0.4578 -1.4209
  120MOL0     H16493   5.984   4.417  10.632  0.2210  1.3915  1.3151
  120MOL0     H16494   5.815   4.435  10.596 -1.8372 -1.7434  0.1757
  120MOL0     H16495   5.873   4.274  10.455 -2.6735 -0.9383  0.2717
  120MOL0     H16496   5.966   4.182  10.587 -0.4255  0.5789  1.8325
  120MOL0     H16497   5.729   4.126  10.686  1.5087  0.1922  0.2090
  120MOL0     H16498   5.650   4.203  10.547 -0.0331  1.5539 -1.4172
  120MOL0     H16499   5.768   4.020  10.399 -0.3843  1.4665  0.2428
  120MOL0     H16500   5.837   3.947  10.538 -0.9315 -2.0125 -2.7343
  120MOL0     H16501   5.627   3.837  10.469  1.5863  0.2947 -1.2072
  120MOL0     H16502   5.530   3.990  10.507  2.4617  1.1644 -1.6994
  120MOL0     H16503   5.696   3.829  10.714  2.0535  1.9892 -0.3994
  120MOL0     H16504   5.574   3.946  10.752 -3.8951  0.1297 -1.7821
  120MOL0     H16505   5.449   3.772  10.778  2.3641  1.3125  0.5706
  120MOL0     H16506   5.508   3.674  10.632 -0.0892  0.3986 -0.7237
  120MOL0     H16507   5.328   3.905  10.603  1.6262  0.0030  0.0064
  120MOL0     H16508   5.392   3.809  10.475 -1.3337 -2.5239 -1.3528
  120MOL0     H16509   5.273   3.579  10.422 -0.5888 -1.1688  0.4886
  120MOL0     H16510   5.015   3.398  10.452 -1.8163 -2.3208  1.7862
  120MOL0     H16511   5.029   3.346  10.621  1.5118 -2.1961 -0.1315
  120MOL0     H16512   5.196   3.211  10.476 -1.8284  0.6516  0.1518
  120MOL0     H16513   5.289   3.343  10.450 -1.2352 -0.6425 -2.8794
  120MOL0     H16514   5.286   3.349  10.729 -2.4176 -2.7358  2.2252
  120MOL0     H16515   5.227   3.193  10.707 -0.4777  0.7830  0.7155
  120MOL0     H16516   5.407   3.156  10.525  0.6157 -0.6029  0.8822
  120MOL0     H16517   5.492   3.290  10.613 -0.8232  0.1651 -0.8864
  120MOL0     H16518   5.526   2.938  10.906  1.9105  1.8041 -0.5734
  120MOL0     H16519   5.404   2.627  11.011 -0.4726  1.5611  2.7087
  120MOL0     H16520   5.533   2.756  11.022  2.0885 -0.4871 -1.1426
  120MOL0     H16521   5.550   2.615  10.917 -0.8049 -0.9518  1.2947
  120MOL0     H16522   4.929   2.388  10.740 -0.9190 -1.9912 -0.2400
  120MOL0     H16523   4.887   2.175  10.689 -0.1129  3.2809  2.9544
  120MOL0     H16524   5.244   1.935  10.630 -0.1456  1.2690  0.1575
  120MOL0     H16525   5.111   1.825  10.696  0.8774 -0.5129  0.0044
  120MOL0     H16526   5.076   1.763  10.450  0.2847 -0.3006 -1.2907
  120MOL0     H16527   5.233   1.841  10.429  1.3264  2.2521  1.3399
  120MOL0     H16528   5.186   1.581  10.499 -0.7868 -0.1563  1.5530
  120MOL0     H16529   5.196   1.645  10.658 -0.3566  1.4086 -0.6092
  120MOL0     H16530   5.416   1.735  10.630  2.0849 -1.4586  0.8170
  120MOL0     H16531   5.415   1.706  10.467 -0.2335  0.2488  0.3596
  120MOL0     H16532   5.413   1.457  10.507 -1.7193 -0.6687  1.4431
  120MOL0     H16533   5.556   1.543  10.567 -0.4895  3.8643  1.2355
  120MOL0     H16534   5.312   1.442  10.721 -0.2743  2.8454 -1.2390
  120MOL0     H16535   5.461   1.520  10.786  0.8982 -1.1907  1.2968
  120MOL0     H16536   5.601   1.340  10.671 -0.5567  0.0609 -1.0563
  120MOL0     H16537   5.459   1.248  10.637 -3.5174  2.0702 -0.4168
  120MOL0     H16538   5.583   1.181  10.847 -0.1499 -0.5713  1.8155
  120MOL0     H16539   5.411   1.176  10.846 -0.4198  0.6858  1.3483
  120MOL0     H16540   5.291   2.116  10.539  1.2479  1.7232 -2.3476
  120MOL0     H16541   5.322   2.356  10.577  1.6297 -2.9336 -0.7751
  120MOL0     H16542   5.165   2.776  10.625 -1.7303  0.0135  2.6018
  120MOL0     H16543   5.252   3.005  10.586 -0.6746 -2.2003 -1.7618
  120MOL0     H16544   5.873   4.633  10.774 -1.1736  0.2617  0.1789
  120MOL0     H16545   5.964   4.769  10.941  0.4079  0.5093 -0.9322
  120MOL0     H16546   6.013   4.848  11.316  0.0451  3.6772 -0.7790
  120MOL0     H16547   6.003   5.001  11.505  0.0857 -0.9684  0.2511
  120MOL0     H16548   6.418   5.131  11.670  1.3047  1.5701  0.6734
  120MOL0     H16549   6.354   5.245  11.557 -1.9796  0.6242 -0.6341
  120MOL0     H16550   6.391   5.350  11.776  0.0200  0.0137 -1.3548
  120MOL0     H16551   6.283   5.230  11.850 -0.8315 -0.8305 -0.3278
  120MOL0     H16552   6.223   5.426  11.620 -3.6638 -2.7185 -2.7080
  120MOL0     H16553   6.095   5.340  11.704  0.8547 -2.7753  0.5716
  120MOL0     H16554   6.193   5.450  11.918  0.3378  0.1670 -0.4625
  120MOL0     H16555   6.062   5.519  11.829  0.4959 -0.3864  0.0461
  120MOL0     H16556   6.414   5.761  11.739  0.5862  0.7420  5.6730
  120MOL0     H16557   6.437   4.984  11.524  0.9475 -2.7828  0.2460
  120MOL0     H16558   6.478   4.757  11.256  1.6120 -1.0090  0.3803
  120MOL0     H16559   6.568   4.822  11.395  0.2530 -1.4325  3.5631
  120MOL0     H16560   6.476   4.670  11.399 -0.1012  0.1496  0.7261
  121MOL0     O16561   2.313   4.991  10.064  1.0541  0.7012  0.0883
  121MOL0     C16562   2.300   4.872  10.020 -0.2118  0.0564  0.3782
  121MOL0     O16563   2.205   4.835   9.933  0.1764  0.0150 -0.5238
  121MOL0     C16564   2.167   4.936   9.846  0.4224 -0.6465 -0.0305
  121MOL0     C16565   2.261   4.992   9.763 -0.7509 -0.1405  0.0752
  121MOL0     C16566   2.223   5.092   9.670 -0.3244 -1.0332 -0.2137
  121MOL0     C16567   2.092   5.146   9.662 -0.8175 -0.4469  0.0082
  121MOL0     O16568   2.054   5.249   9.587 -0.3420 -0.2117  0.5530
  121MOL0     C16569   2.111   5.377   9.613  0.5447 -0.2701 -0.5357
  121MOL0     C16570   2.087   5.438   9.763 -0.5750 -0.2313  0.5158
  121MOL0     C16571   1.953   5.498   9.775  0.2690 -1.1442  0.1429
  121MOL0     C16572   1.857   5.416   9.876  0.5572  0.7897  0.4536
  121MOL0     C16573   1.709   5.468   9.876 -0.0659 -0.1812 -0.4419
  121MOL0     C16574   1.608   5.419   9.983  0.0443 -0.0083  0.5513
  121MOL0     C16575   1.473   5.406   9.914 -0.1490  0.1881  0.1685
  121MOL0     C16576   1.362   5.410  10.015 -0.2881  0.2077  0.2737
  121MOL0     N16577   1.244   5.389   9.937  0.0977 -0.4462 -0.7222
  121MOL0     C16578   1.188   5.474   9.845 -0.5339  0.0493  0.3278
  121MOL0     C16579   1.077   5.403   9.802  0.4545 -0.2959 -0.0752
  121MOL0     C16580   0.991   5.448   9.683 -0.4265 -0.0444 -0.8444
  121MOL0     C16581   0.851   5.473   9.724 -0.1613  0.3174  0.3285
  121MOL0     C16582   0.789   5.571   9.626 -0.6658 -0.5522  0.1812
  121MOL0     C16583   0.655   5.612   9.670  0.5429  0.6071  0.9435
  121MOL0     O16584   0.562   5.498   9.681  0.0626 -0.2388 -0.2029
  121MOL0     C16585   0.487   5.517   9.799 -0.2972  0.3520 -0.0836
  121MOL0     C16586   0.532   5.481   9.923 -0.7793 -0.6511  0.6990
  121MOL0     C16587   0.470   5.521  10.047  0.0439 -0.5401  0.2554
  121MOL0     C16588   0.538   5.480  10.172  0.2736 -0.4559  0.8985
  121MOL0     C16589   0.335   5.585  10.030 -0.8157 -0.7513  0.0167
  121MOL0     C16590   0.259   5.624  10.146  0.3942 -0.0593 -0.8471
  121MOL0     O16591   0.135   5.617  10.133 -0.2291  0.3955 -0.1022
  121MOL0     C16592   0.046   5.600  10.243 -0.3184 -0.3942 -0.3775
  121MOL0     C16593   0.068   5.542  10.371  0.1863 -0.8253 -0.1918
  121MOL0     C16594  -0.028   5.537  10.477 -0.1766 -0.1593  1.3715
  121MOL0     C16595  -0.149   5.601  10.456 -0.0975  0.4797  0.0476
  121MOL0     O16596  -0.231   5.604  10.567 -0.0078 -0.0143  0.0961
  121MOL0     C16597  -0.286   5.485  10.603  0.3269 -0.6031 -0.3684
  121MOL0     C16598  -0.426   5.474  10.528 -0.6722  1.1884 -0.0286
  121MOL0     C16599  -0.518   5.594  10.565  0.0391 -0.0399  0.6274
  121MOL0     C16600  -0.653   5.567  10.502 -0.2161  0.3225  0.7700
  121MOL0     C16601  -0.732   5.693  10.495  0.1676  0.3202  0.4424
  121MOL0     C16602  -0.886   5.665  10.502  0.1185 -0.5007 -0.0199
  121MOL0     C16603  -0.965   5.793  10.505  0.7822  0.4487 -0.2998
  121MOL0     C16604  -1.108   5.773  10.581 -1.0829 -0.1800  0.0174
  121MOL0    Cl16605  -1.093   5.736  10.752 -0.6208 -0.0131 -0.3053
  121MOL0     C16606  -0.176   5.662  10.332 -0.7289  0.8836  0.2106
  121MOL0     C16607  -0.078   5.666  10.230 -0.1533  0.1257 -0.3035
  121MOL0     O16608   0.319   5.644  10.253  0.6338 -0.8604 -0.0701
  121MOL0     C16609   0.279   5.608   9.902 -0.0344  0.1352  0.2205
  121MOL0     C16610   0.361   5.579   9.790 -0.6882 -0.3515  0.5068
  121MOL0     N16611   1.071   5.284   9.866  0.5699  1.0432  0.9311
  121MOL0     N16612   1.181   5.270   9.935  0.2672 -0.4040 -0.0142
  121MOL0     C16613   2.003   5.079   9.740 -0.3941 -0.0497  0.2468
  121MOL0     C16614   2.032   4.974   9.831 -0.8128  1.0617  0.3279
  121MOL0     C16615   2.379   4.763  10.069  0.2141  0.5780  0.7395
  121MOL0     C16616   2.312   4.658  10.132  0.0394  1.4802  0.2134
  121MOL0     C16617   2.384   4.574  10.211 -0.0106 -0.5970 -0.6422
  121MOL0     C16618   2.525   4.572  10.220 -0.3076 -0.0707 -0.1657
  121MOL0     O16619   2.578   4.458  10.277  0.4084 -0.0447 -0.3659
  121MOL0     C16620   2.717   4.426  10.289  0.4577 -0.2860 -0.6493
  121MOL0     C16621   2.731   4.279  10.326  0.5736  0.6410 -1.0890
  121MOL0     C16622   2.863   4.223  10.289  1.1600  0.1387  0.3312
  121MOL0     C16623   2.857   4.084  10.323  0.6496  0.7708 -1.1001
  121MOL0     C16624   2.858   4.054  10.464 -0.7164 -0.2160 -0.2006
  121MOL0     C16625   2.853   4.023  10.581  0.1996  0.2639 -0.5715
  121MOL0     C16626   2.591   4.668  10.146 -0.3415 -1.1288  0.3521
  121MOL0     C16627   2.520   4.768  10.080  0.1430  0.0165  0.8044
  121MOL0     C16628   2.590   4.890  10.022 -0.0119  0.6131 -1.2082
  121MOL0     H16629   2.363   4.955   9.764 -0.3072  1.0051 -0.4589
  121MOL0     H16630   2.303   5.141   9.615  0.6925 -1.5736  0.7545
  121MOL0     H16631   2.079   5.445   9.534 -2.3225 -2.9563 -1.8708
  121MOL0     H16632   2.220   5.373   9.605  0.5466 -2.3085  0.0043
  121MOL0     H16633   2.092   5.348   9.825 -0.8354 -1.3276 -1.0032
  121MOL0     H16634   2.162   5.515   9.782  0.1661 -0.5767 -0.9234
  121MOL0     H16635   1.962   5.596   9.824 -0.2279 -1.4073  0.7688
  121MOL0     H16636   1.904   5.514   9.679 -1.4278 -2.1749  0.7908
  121MOL0     H16637   1.852   5.307   9.863  1.2570  0.3702  3.0737
  121MOL0     H16638   1.899   5.424   9.977  0.7543  0.7142  0.3786
  121MOL0     H16639   1.675   5.444   9.774 -1.7301  0.0662  0.0260
  121MOL0     H16640   1.714   5.577   9.874  0.3248 -0.2013 -0.7006
  121MOL0     H16641   1.641   5.323  10.024  2.9126  0.8550  0.4576
  121MOL0     H16642   1.622   5.492  10.063  2.4344  0.8999 -0.6170
  121MOL0     H16643   1.474   5.321   9.844 -3.0528  1.4341 -1.5913
  121MOL0     H16644   1.467   5.493   9.848 -2.0139 -0.9396 -1.2454
  121MOL0     H16645   1.383   5.322  10.078  0.6561  0.2829  0.0653
  121MOL0     H16646   1.356   5.503  10.071  0.4871 -0.3329  1.2738
  121MOL0     H16647   1.231   5.568   9.814 -0.8171  0.8063  2.1468
  121MOL0     H16648   0.985   5.367   9.610  0.4280 -0.1282 -0.8315
  121MOL0     H16649   1.037   5.540   9.645  0.4776  0.6872  1.7582
  121MOL0     H16650   0.793   5.380   9.724  0.9667 -0.4196  1.4548
  121MOL0     H16651   0.849   5.514   9.826 -1.0539  1.0810  0.0218
  121MOL0     H16652   0.842   5.667   9.616 -2.1389  0.3742  0.8723
  121MOL0     H16653   0.791   5.526   9.527  1.8831  0.7761 -0.4721
  121MOL0     H16654   0.666   5.680   9.755  4.8342  2.5797 -0.8754
  121MOL0     H16655   0.620   5.666   9.581  0.3416 -1.5679 -0.3803
  121MOL0     H16656   0.620   5.419   9.937  1.3132  1.5283 -1.7054
  121MOL0     H16657   0.523   5.375  10.197 -0.3720 -0.4107  0.7180
  121MOL0     H16658   0.516   5.533  10.265  3.3512  0.8872  1.0056
  121MOL0     H16659   0.644   5.496  10.151 -0.1795 -0.0671 -1.4042
  121MOL0     H16660   0.157   5.494  10.412  1.7143  2.5560  0.8478
  121MOL0     H16661  -0.030   5.470  10.563  0.3136 -1.3865  0.4558
  121MOL0     H16662  -0.216   5.407  10.575 -0.8447 -0.8359 -2.9158
  121MOL0     H16663  -0.303   5.491  10.711  3.5148 -2.6689  0.3766
  121MOL0     H16664  -0.406   5.480  10.421 -1.0227 -1.3729 -0.3122
  121MOL0     H16665  -0.466   5.373  10.545  0.9687  0.5172  0.0622
  121MOL0     H16666  -0.486   5.694  10.536  0.0468 -0.0604  0.5637
  121MOL0     H16667  -0.532   5.598  10.674  1.8944  3.2996  0.8726
  121MOL0     H16668  -0.702   5.491  10.564 -0.7392  0.3173  0.3659
  121MOL0     H16669  -0.638   5.528  10.401 -2.0112 -1.1099  0.9862
  121MOL0     H16670  -0.700   5.746  10.585  1.8296 -1.1800  0.7908
  121MOL0     H16671  -0.710   5.754  10.408  0.7204 -2.0017 -1.1549
  121MOL0     H16672  -0.908   5.616  10.597  0.2288  0.6807  0.6369
  121MOL0     H16673  -0.910   5.599  10.417 -3.2411 -0.2837  0.5966
  121MOL0     H16674  -0.995   5.827  10.405 -3.5557  0.0155  0.6475
  121MOL0     H16675  -0.927   5.877  10.564  0.0855  1.6861 -1.5562
  121MOL0     H16676  -1.169   5.708  10.518 -2.8475  2.0547 -0.7260
  121MOL0     H16677  -1.158   5.868  10.560 -0.4413 -0.1298 -1.4691
  121MOL0     H16678  -0.277   5.695  10.309 -0.3020  3.5528  1.7535
  121MOL0     H16679  -0.088   5.713  10.132 -0.0858  0.7204 -0.0266
  121MOL0     H16680   0.189   5.666   9.886  0.9595  1.9822  1.0134
  121MOL0     H16681   0.326   5.604   9.690 -2.9758 -0.4571  1.2119
  121MOL0     H16682   1.898   5.100   9.724 -0.0751  1.2582 -0.2489
  121MOL0     H16683   1.963   4.905   9.879 -0.0813 -0.5018 -0.7962
  121MOL0     H16684   2.203   4.652  10.133  0.1322 -2.2545  1.0481
  121MOL0     H16685   2.343   4.498  10.277  0.4584 -0.9928 -0.7970
  121MOL0     H16686   2.767   4.430  10.192  3.1304  2.4552  0.6819
  121MOL0     H16687   2.772   4.491  10.358  1.7688 -0.7921 -1.1862
  121MOL0     H16688   2.649   4.228  10.275  0.6969 -0.2594 -0.4064
  121MOL0     H16689   2.714   4.262  10.433  3.0516 -2.0000 -1.0012
  121MOL0     H16690   2.872   4.215  10.180 -1.6212 -3.0378  0.1957
  121MOL0     H16691   2.942   4.282  10.336  0.3621  1.9834 -0.5508
  121MOL0     H16692   2.946   4.039  10.278  1.1513 -2.4314  2.5506
  121MOL0     H16693   2.765   4.042  10.282  0.2464  0.1283  0.3857
  121MOL0     H16694   2.838   3.974  10.675  2.3732 -2.4463 -1.5006
  121MOL0     H16695   2.699   4.671  10.152 -0.0377  1.2445 -3.3666
  121MOL0     H16696   2.562   4.984  10.072  3.0333  1.2201 -0.4234
  121MOL0     H16697   2.696   4.873  10.042 -0.6448 -2.8722 -0.1327
  121MOL0     H16698   2.577   4.890   9.914 -2.4657  0.5267 -0.9734
  122MOL0     O16699   9.477   9.864   8.945 -0.3980  0.3877  0.1514
  122MOL0     C16700   9.385   9.798   8.995 -0.7386  0.3843  0.0687
  122MOL0     O16701   9.398   9.664   9.030 -0.4622 -0.7975 -0.7741
  122MOL0     C16702   9.507   9.598   8.995 -0.6900 -0.9171  1.1140
  122MOL0     C16703   9.535   9.584   8.855  0.2460 -0.8264 -0.3480
  122MOL0     C16704   9.629   9.497   8.809  1.0579 -0.1084  0.3595
  122MOL0     C16705   9.691   9.403   8.890 -0.3340  0.3457 -0.0685
  122MOL0     O16706   9.768   9.298   8.844 -0.6879  0.2685 -0.1864
  122MOL0     C16707   9.710   9.220   8.742 -0.2455 -0.1894  0.7738
  122MOL0     C16708   9.800   9.093   8.751 -0.3190 -0.3828  1.1997
  122MOL0     C16709   9.950   9.124   8.713  0.4934 -0.5968 -0.2914
  122MOL0     C16710  10.034   8.992   8.694  0.1541 -0.5793 -0.4889
  122MOL0     C16711  10.010   8.926   8.560 -0.0820 -0.2583  0.0501
  122MOL0     C16712  10.042   9.002   8.434  0.7302 -0.7867  0.7220
  122MOL0     C16713  10.081   8.911   8.320 -0.2134  0.4759  0.7316
  122MOL0     C16714   9.965   8.823   8.258  0.3780  0.1485  0.0001
  122MOL0     N16715   9.863   8.916   8.215 -0.1347 -0.0097 -0.1000
  122MOL0     C16716   9.879   9.007   8.109  0.9293  0.5164  0.0585
  122MOL0     C16717   9.769   9.086   8.100  0.3638  0.3018  0.2645
  122MOL0     C16718   9.748   9.202   8.006  0.4326 -0.8360  0.6407
  122MOL0     C16719   9.855   9.304   8.026 -0.4628  0.2599  0.2716
  122MOL0     C16720   9.841   9.383   8.155  0.7473 -0.3404  0.6960
  122MOL0     C16721   9.707   9.443   8.194 -0.5782  0.3202  0.8722
  122MOL0     O16722   9.707   9.530   8.303 -0.5456  0.9160 -0.3657
  122MOL0     C16723   9.598   9.609   8.310  0.9880  0.0805  0.0817
  122MOL0     C16724   9.472   9.559   8.327  0.3507  0.0495 -0.9829
  122MOL0     C16725   9.364   9.641   8.340  0.3621 -0.7473  0.0128
  122MOL0     C16726   9.230   9.581   8.383 -0.5153 -0.3026  0.5700
  122MOL0     C16727   9.383   9.787   8.337 -0.1800 -0.5593 -0.6887
  122MOL0     C16728   9.278   9.889   8.355  0.4806  0.1561  0.1034
  122MOL0     O16729   9.314  10.010   8.425  0.2619  1.0498 -0.2181
  122MOL0     C16730   9.215  10.096   8.449  0.3257 -0.1383  0.5230
  122MOL0     C16731   9.130  10.106   8.568 -0.8832  0.5733  0.5832
  122MOL0     C16732   9.028  10.203   8.585  0.3658  0.3813 -0.0571
  122MOL0     C16733   9.012  10.296   8.486 -0.4908  0.5230 -0.3527
  122MOL0     O16734   8.914  10.386   8.507  0.1120  0.7728  0.7100
  122MOL0     C16735   8.930  10.518   8.450  1.1464  0.0332 -0.2728
  122MOL0     C16736   8.791  10.593   8.451 -0.8022 -0.4172  0.2157
  122MOL0     C16737   8.693  10.541   8.341 -0.6083 -0.5836  0.1208
  122MOL0     C16738   8.618  10.419   8.390 -0.3212  0.6351  0.3544
  122MOL0     C16739   8.568  10.314   8.285 -0.6598 -0.3838  0.3426
  122MOL0     C16740   8.662  10.207   8.252 -0.2390 -0.9738 -0.8279
  122MOL0     C16741   8.652  10.080   8.336  0.2636 -0.1089  0.4871
  122MOL0     C16742   8.702   9.973   8.247 -0.3398 -0.7988  0.5144
  122MOL0    Cl16743   8.865  10.018   8.168  0.2446  0.1462 -0.2065
  122MOL0     C16744   9.085  10.288   8.365 -0.6615 -0.6105  0.3911
  122MOL0     C16745   9.187  10.195   8.353  1.2393 -0.3825 -0.0356
  122MOL0     O16746   9.179   9.869   8.294  0.5595  0.3777  0.0248
  122MOL0     C16747   9.516   9.838   8.327  0.3888  0.1955  0.1573
  122MOL0     C16748   9.618   9.753   8.311 -0.2330 -0.7200 -0.3817
  122MOL0     N16749   9.686   9.047   8.209  0.0997  0.1109  0.1236
  122MOL0     N16750   9.750   8.957   8.275  0.0351  0.5291 -0.1775
  122MOL0     C16751   9.668   9.414   9.030 -0.1268 -0.4433  0.1680
  122MOL0     C16752   9.575   9.515   9.082 -0.5905  0.2365  0.7563
  122MOL0     C16753   9.246   9.857   9.000 -0.3126 -0.3281  0.0015
  122MOL0     C16754   9.227   9.984   8.945 -0.0653 -0.2239  0.8753
  122MOL0     C16755   9.098  10.039   8.943  0.2051 -0.0711 -0.0982
  122MOL0     C16756   8.988   9.963   8.991  0.1995  0.2684  0.1768
  122MOL0     O16757   8.857  10.014   8.962  0.0791 -0.4948 -0.4013
  122MOL0     C16758   8.734   9.942   8.985 -0.1902  0.7995 -0.5901
  122MOL0     C16759   8.617   9.991   8.903 -0.6501 -0.2379  0.3557
  122MOL0     C16760   8.613  10.144   8.906  0.0627  0.5401  0.2253
  122MOL0     C16761   8.698  10.213   8.800  0.3148  1.0055  0.5231
  122MOL0     C16762   8.619  10.315   8.748  0.3025 -0.9002  0.0809
  122MOL0     C16763   8.544  10.404   8.709 -0.3603 -0.2984 -0.0803
  122MOL0     C16764   9.008   9.844   9.055  0.3667  0.3286 -0.6440
  122MOL0     C16765   9.136   9.782   9.059  0.1246  0.0123  0.3796
  122MOL0     C16766   9.138   9.657   9.141  0.0403  0.6950 -0.3010
  122MOL0     H16767   9.481   9.647   8.785 -2.8440  0.6388  3.0477
  122MOL0     H16768   9.637   9.494   8.701  1.9063  3.2239  0.2414
  122MOL0     H16769   9.736   9.266   8.647  0.7896 -4.3499 -1.2103
  122MOL0     H16770   9.602   9.204   8.749 -1.0507  2.8355 -2.0704
  122MOL0     H16771   9.781   9.032   8.840 -3.5040 -0.8732  0.3055
  122MOL0     H16772   9.755   9.032   8.672 -1.2326  1.2977  0.3612
  122MOL0     H16773   9.944   9.186   8.623  1.1239 -0.1433 -0.0306
  122MOL0     H16774   9.996   9.180   8.795 -1.9669 -0.0175  0.7786
  122MOL0     H16775  10.139   9.020   8.699 -0.2594  1.3775 -1.6897
  122MOL0     H16776  10.020   8.917   8.773  1.0786  1.0931  1.3215
  122MOL0     H16777   9.903   8.903   8.558 -0.6513  2.2048 -0.8633
  122MOL0     H16778  10.062   8.830   8.568  0.1350 -0.0963  0.6016
  122MOL0     H16779   9.954   9.060   8.406  0.5655 -1.2864  0.1807
  122MOL0     H16780  10.133   9.059   8.457  1.7992 -2.6255  1.3189
  122MOL0     H16781  10.159   8.842   8.355  0.7774  0.8694 -0.6214
  122MOL0     H16782  10.130   8.970   8.242  1.1808  1.4038  2.2478
  122MOL0     H16783   9.995   8.759   8.174 -2.7747 -0.7995 -0.5578
  122MOL0     H16784   9.906   8.771   8.334 -1.1941  0.5911 -0.8544
  122MOL0     H16785   9.961   9.019   8.039 -1.2722  0.9300 -2.6450
  122MOL0     H16786   9.650   9.248   8.022 -0.0078  0.0377 -3.5282
  122MOL0     H16787   9.749   9.180   7.899 -0.0467  2.5112 -0.1449
  122MOL0     H16788   9.955   9.261   8.035  0.9129  3.4711  2.1633
  122MOL0     H16789   9.845   9.381   7.949  2.1075  0.1326 -0.2864
  122MOL0     H16790   9.873   9.325   8.242  2.3530  1.1194  1.1333
  122MOL0     H16791   9.908   9.469   8.151 -1.1078  1.1288 -0.1637
  122MOL0     H16792   9.660   9.488   8.105 -0.6030 -3.4917 -1.2647
  122MOL0     H16793   9.647   9.356   8.222 -0.7920  1.1801  3.2534
  122MOL0     H16794   9.461   9.454   8.353  0.3931  0.1641 -0.4958
  122MOL0     H16795   9.159   9.615   8.306  0.1471 -0.6217 -0.1940
  122MOL0     H16796   9.202   9.621   8.481  0.2592  0.9961  0.2849
  122MOL0     H16797   9.227   9.472   8.387  2.5871 -0.4459  3.5341
  122MOL0     H16798   9.138  10.027   8.642 -0.6011  0.0753  0.0343
  122MOL0     H16799   8.965  10.198   8.673  1.4333 -0.1471  0.7036
  122MOL0     H16800   9.002  10.563   8.518 -0.5719  0.7674  1.1597
  122MOL0     H16801   8.969  10.521   8.348  0.6536  3.0417 -0.4636
  122MOL0     H16802   8.755  10.591   8.554  0.3223 -0.2669  0.6239
  122MOL0     H16803   8.816  10.697   8.430  2.1149 -1.4364 -2.1300
  122MOL0     H16804   8.756  10.508   8.258  1.7561  0.6782  1.3101
  122MOL0     H16805   8.612  10.604   8.303 -1.2295 -1.6308 -0.3545
  122MOL0     H16806   8.539  10.464   8.452  0.1067  1.1027  0.5747
  122MOL0     H16807   8.674  10.366   8.467 -0.2808  1.1492  0.6880
  122MOL0     H16808   8.472  10.269   8.311 -0.5648 -2.1303 -2.0032
  122MOL0     H16809   8.537  10.375   8.200  2.2178  2.8632  1.3924
  122MOL0     H16810   8.766  10.233   8.270  0.2318 -2.1220 -1.7599
  122MOL0     H16811   8.628  10.188   8.149 -1.0346 -0.1165 -0.7424
  122MOL0     H16812   8.549  10.060   8.368 -0.4801 -0.2870 -1.8221
  122MOL0     H16813   8.714  10.082   8.426 -0.7689 -0.7989  1.2256
  122MOL0     H16814   8.634   9.953   8.164 -0.4695  0.7454  0.2043
  122MOL0     H16815   8.712   9.879   8.301 -0.7057 -1.9978 -1.4011
  122MOL0     H16816   9.073  10.354   8.280 -0.0035 -0.2388  0.5762
  122MOL0     H16817   9.259  10.198   8.272  2.7954  1.5003  1.3145
  122MOL0     H16818   9.528   9.946   8.327 -1.0740  0.3889  0.8906
  122MOL0     H16819   9.712   9.801   8.285 -1.9420  3.4890  0.3597
  122MOL0     H16820   9.714   9.340   9.095  0.9859 -1.4186 -1.6580
  122MOL0     H16821   9.580   9.533   9.189  0.4819 -1.9134  1.1260
  122MOL0     H16822   9.315  10.032   8.903  0.2275 -1.2927  0.2296
  122MOL0     H16823   9.088  10.133   8.889  0.0697 -0.1071 -0.1364
  122MOL0     H16824   8.741   9.835   8.965 -0.5215  0.8254 -0.8530
  122MOL0     H16825   8.708   9.943   9.092 -0.0704  0.6027 -0.5584
  122MOL0     H16826   8.525   9.952   8.947 -0.2716  0.1651  1.5402
  122MOL0     H16827   8.634   9.964   8.798  0.2211 -0.6076  0.5871
  122MOL0     H16828   8.510  10.162   8.876 -0.0925 -2.6496 -1.6419
  122MOL0     H16829   8.618  10.191   9.005  1.1223  0.0700  0.4128
  122MOL0     H16830   8.727  10.147   8.717 -0.3261  1.5058 -0.1098
  122MOL0     H16831   8.786  10.261   8.845  3.3992 -3.1767 -0.3675
  122MOL0     H16832   8.459  10.460   8.673 -0.7244 -0.2876  0.7796
  122MOL0     H16833   8.920   9.792   9.091 -0.9673  2.2480 -0.9415
  122MOL0     H16834   9.222   9.671   9.210 -1.1159  1.0492  1.0866
  122MOL0     H16835   9.045   9.630   9.193  0.1027  1.9146  0.4825
  122MOL0     H16836   9.166   9.580   9.069 -1.2533  1.0560 -1.2304
  123MOL0     O16837  11.124   1.406   3.701 -0.7854  0.4411  0.4203
  123MOL0     C16838  11.172   1.517   3.678 -0.3452 -0.5721  0.3449
  123MOL0     O16839  11.149   1.638   3.745  0.0815 -0.2481 -0.1132
  123MOL0     C16840  11.043   1.632   3.831  0.3578 -0.0325  0.0059
  123MOL0     C16841  10.904   1.644   3.782 -0.1915 -0.5039  0.5176
  123MOL0     C16842  10.796   1.647   3.866  0.1358  0.6083 -0.5036
  123MOL0     C16843  10.817   1.620   4.002 -0.5851 -0.1196 -0.6672
  123MOL0     O16844  10.708   1.628   4.079 -0.4008 -0.2582 -1.3166
  123MOL0     C16845  10.709   1.594   4.217  0.8822 -0.2568 -0.0047
  123MOL0     C16846  10.727   1.719   4.294  0.1144  0.1624  0.1391
  123MOL0     C16847  10.776   1.712   4.438 -0.8199  0.3567  0.2923
  123MOL0     C16848  10.697   1.621   4.527  0.8312 -0.4050 -0.5414
  123MOL0     C16849  10.729   1.624   4.670  0.7299  0.4170  0.4992
  123MOL0     C16850  10.693   1.752   4.741 -0.8365 -0.0312 -0.0507
  123MOL0     C16851  10.717   1.736   4.890  0.8264 -0.0918  0.3598
  123MOL0     C16852  10.649   1.842   4.964  1.1494 -0.4838  0.4956
  123MOL0     N16853  10.686   1.859   5.109 -0.3882 -0.6273 -0.9812
  123MOL0     C16854  10.618   1.813   5.213  0.0162  0.8730 -0.8442
  123MOL0     C16855  10.692   1.843   5.323  0.2714 -0.1205  1.1417
  123MOL0     C16856  10.655   1.848   5.461  0.3825 -0.1998 -0.5400
  123MOL0     C16857  10.525   1.932   5.479  0.3707  0.3896 -0.9191
  123MOL0     C16858  10.495   1.938   5.634  0.5559  0.0699  0.0115
  123MOL0     C16859  10.399   2.048   5.683  0.4671  0.7406 -0.5381
  123MOL0     O16860  10.406   2.172   5.612  0.0988 -0.3375  0.2090
  123MOL0     C16861  10.378   2.274   5.702  0.3536 -1.3178 -0.0734
  123MOL0     C16862  10.479   2.369   5.717  0.0991 -0.6978  0.7423
  123MOL0     C16863  10.468   2.474   5.809 -0.4935 -0.5388  0.8149
  123MOL0     C16864  10.590   2.574   5.819  0.7184  0.5555 -0.3827
  123MOL0     C16865  10.349   2.487   5.885 -1.2969 -0.1802 -0.2073
  123MOL0     C16866  10.352   2.568   6.008 -0.5437 -0.0429 -0.0180
  123MOL0     O16867  10.391   2.693   5.982 -0.5932 -0.6051  0.0398
  123MOL0     C16868  10.406   2.778   6.093 -0.9761  0.2058 -0.2508
  123MOL0     C16869  10.300   2.866   6.129  0.2774 -0.6086  0.2580
  123MOL0     C16870  10.316   2.949   6.249 -0.5252 -0.4353  0.2737
  123MOL0     C16871  10.431   2.938   6.314 -0.9414  0.3602 -0.1453
  123MOL0     O16872  10.455   3.003   6.426  0.2050  0.5782 -0.5923
  123MOL0     C16873  10.358   2.994   6.529  0.2619 -0.4752 -0.1364
  123MOL0     C16874  10.412   3.089   6.643  0.3470  0.6228 -0.3178
  123MOL0     C16875  10.425   3.235   6.601 -0.4202  0.3247 -0.3151
  123MOL0     C16876  10.428   3.320   6.733 -0.6053  0.2301 -0.0888
  123MOL0     C16877  10.294   3.350   6.791 -0.1416  0.1180  0.0203
  123MOL0     C16878  10.193   3.433   6.698  0.2444  1.2731  0.5811
  123MOL0     C16879  10.111   3.540   6.783 -0.1168 -1.0491  0.5620
  123MOL0     C16880   9.991   3.607   6.707  0.8124  0.4709 -0.0971
  123MOL0    Cl16881   9.869   3.496   6.652 -0.6241  0.0912 -0.4388
  123MOL0     C16882  10.536   2.853   6.280 -0.5563 -0.4561  0.5496
  123MOL0     C16883  10.529   2.776   6.164  0.4320  0.7913  0.1843
  123MOL0     O16884  10.307   2.524   6.111  0.1117 -0.9427 -0.8908
  123MOL0     C16885  10.249   2.405   5.855 -0.5548 -0.4727 -0.4541
  123MOL0     C16886  10.259   2.297   5.766  0.2389 -0.0932 -0.0651
  123MOL0     N16887  10.814   1.904   5.277  0.3612  0.3028  0.1224
  123MOL0     N16888  10.808   1.914   5.151  0.0678  0.0945 -0.5854
  123MOL0     C16889  10.947   1.592   4.050 -0.1705  0.8223 -0.4206
  123MOL0     C16890  11.057   1.595   3.967  0.2570 -0.5952 -1.4087
  123MOL0     C16891  11.267   1.535   3.567 -0.9086  0.5104 -0.7286
  123MOL0     C16892  11.399   1.481   3.581  0.4267  0.4920  0.1108
  123MOL0     C16893  11.491   1.470   3.481  0.2769  0.0345 -0.0398
  123MOL0     C16894  11.465   1.524   3.354  0.2211 -0.8290  0.4914
  123MOL0     O16895  11.574   1.532   3.266  0.2924  0.5266  0.8330
  123MOL0     C16896  11.570   1.580   3.129  0.6129 -0.1785  0.1349
  123MOL0     C16897  11.559   1.465   3.032 -0.6204 -0.0616  0.3067
  123MOL0     C16898  11.678   1.372   3.040 -0.6610  0.1265  0.4479
  123MOL0     C16899  11.797   1.394   2.949  0.7340  0.7522 -0.2191
  123MOL0     C16900  11.783   1.356   2.808  0.7670 -0.0601 -0.7381
  123MOL0     C16901  11.760   1.311   2.699 -0.8179  0.1225  0.6626
  123MOL0     C16902  11.348   1.587   3.338  0.5334 -0.1582  0.5456
  123MOL0     C16903  11.242   1.577   3.436 -0.6498  0.4674  0.3623
  123MOL0     C16904  11.108   1.624   3.400 -1.1748 -1.6855 -0.0486
  123MOL0     H16905  10.894   1.654   3.675 -3.2489 -2.8414  0.4609
  123MOL0     H16906  10.691   1.670   3.849 -0.5081 -0.3193  1.8543
  123MOL0     H16907  10.788   1.524   4.245  0.2937 -0.2690  1.6990
  123MOL0     H16908  10.618   1.536   4.237  0.1364 -0.1388 -2.6197
  123MOL0     H16909  10.793   1.785   4.236 -0.7322 -2.6990 -4.6174
  123MOL0     H16910  10.632   1.773   4.303 -0.1746 -0.6338  2.2168
  123MOL0     H16911  10.882   1.691   4.451 -0.3544  3.4862  2.6637
  123MOL0     H16912  10.773   1.816   4.474  0.1791  1.4362 -2.4894
  123MOL0     H16913  10.588   1.628   4.526  0.8032 -0.6146  0.2402
  123MOL0     H16914  10.703   1.520   4.486 -0.2990 -0.2751 -1.0615
  123MOL0     H16915  10.836   1.606   4.684  0.8306 -0.3858 -1.0917
  123MOL0     H16916  10.667   1.540   4.702  1.4248 -0.9325 -1.5401
  123MOL0     H16917  10.752   1.834   4.699 -0.2876  1.3104  3.0223
  123MOL0     H16918  10.589   1.777   4.719 -0.7130  1.2505  0.7204
  123MOL0     H16919  10.824   1.729   4.910  0.5252 -0.2498  2.0539
  123MOL0     H16920  10.669   1.644   4.925  0.0965  0.7836  1.7201
  123MOL0     H16921  10.668   1.940   4.918 -4.9437 -0.2039 -2.4631
  123MOL0     H16922  10.541   1.825   4.962  0.8976  0.7623  1.7060
  123MOL0     H16923  10.520   1.766   5.208  1.0580 -1.4195 -0.7319
  123MOL0     H16924  10.731   1.892   5.525 -0.4496 -0.6051  0.7537
  123MOL0     H16925  10.641   1.741   5.478  2.7448 -1.0691 -3.1467
  123MOL0     H16926  10.544   2.036   5.451 -0.9277  1.2458  1.1348
  123MOL0     H16927  10.437   1.885   5.434 -1.1551 -0.4765  2.6184
  123MOL0     H16928  10.465   1.836   5.660  0.6628  0.0703  0.1400
  123MOL0     H16929  10.588   1.966   5.685  0.7604  1.0690 -0.8792
  123MOL0     H16930  10.297   2.008   5.677 -1.0175  3.7031  2.2120
  123MOL0     H16931  10.423   2.051   5.790 -2.8907 -0.3753  0.3949
  123MOL0     H16932  10.571   2.369   5.658 -1.5744  2.9149 -2.3451
  123MOL0     H16933  10.680   2.534   5.772  0.6349  2.7113 -2.5948
  123MOL0     H16934  10.617   2.591   5.923  2.1091 -0.2554 -0.5791
  123MOL0     H16935  10.551   2.657   5.760 -0.8426 -0.1420 -0.3760
  123MOL0     H16936  10.211   2.867   6.066  2.4448 -0.3496 -3.0146
  123MOL0     H16937  10.246   3.022   6.288 -1.2136 -1.2164  0.5217
  123MOL0     H16938  10.261   3.030   6.494  0.0486 -3.0652 -2.5913
  123MOL0     H16939  10.341   2.888   6.549  1.0021 -0.6511 -0.3970
  123MOL0     H16940  10.341   3.075   6.725  0.8155 -1.4061 -0.1924
  123MOL0     H16941  10.509   3.042   6.663 -1.5867 -5.1233 -2.3397
  123MOL0     H16942  10.341   3.259   6.535 -0.0281 -1.4889 -1.5416
  123MOL0     H16943  10.515   3.251   6.542  0.8830 -1.4799  1.0650
  123MOL0     H16944  10.478   3.416   6.716  0.5344 -0.0933  1.2387
  123MOL0     H16945  10.487   3.261   6.804  0.0492  0.7399 -0.1926
  123MOL0     H16946  10.245   3.255   6.814  1.8111 -0.7649  0.7563
  123MOL0     H16947  10.316   3.399   6.886  3.8207 -0.3523 -0.4909
  123MOL0     H16948  10.110   3.369   6.665 -1.6055  3.3621  0.9135
  123MOL0     H16949  10.233   3.474   6.605  4.6117  2.3521  2.6687
  123MOL0     H16950  10.180   3.607   6.835 -1.2134 -0.3039  1.1020
  123MOL0     H16951  10.063   3.475   6.857  2.3626 -3.2198  0.4377
  123MOL0     H16952  10.021   3.674   6.626  2.3719  0.2186  0.2438
  123MOL0     H16953   9.953   3.676   6.783 -1.5416 -1.2249  0.3781
  123MOL0     H16954  10.624   2.846   6.344 -1.1609  1.6757  1.7128
  123MOL0     H16955  10.621   2.729   6.129 -1.2516 -3.0691  0.4817
  123MOL0     H16956  10.146   2.422   5.882 -0.6703  0.5373 -1.4156
  123MOL0     H16957  10.178   2.227   5.749  0.8981 -1.3751  1.7395
  123MOL0     H16958  10.977   1.572   4.153  0.1939 -1.4364 -0.9246
  123MOL0     H16959  11.160   1.570   3.990  0.9788  0.7124 -3.0151
  123MOL0     H16960  11.414   1.445   3.683  0.5612  1.1779  0.3379
  123MOL0     H16961  11.587   1.422   3.496  0.5446  0.1731 -1.1989
  123MOL0     H16962  11.485   1.648   3.117  1.1239  0.0979 -2.4981
  123MOL0     H16963  11.662   1.633   3.102 -0.0044 -0.1876 -2.2673
  123MOL0     H16964  11.563   1.514   2.935 -1.9758  4.0693  2.1384
  123MOL0     H16965  11.464   1.413   3.052 -0.3757  0.0462  1.9364
  123MOL0     H16966  11.715   1.371   3.143 -1.3838 -0.2914  0.7110
  123MOL0     H16967  11.639   1.270   3.030  0.0608  0.0547 -2.3474
  123MOL0     H16968  11.880   1.335   2.989 -2.1977 -1.8935  2.5656
  123MOL0     H16969  11.826   1.499   2.954  0.6736  0.7543  0.1424
  123MOL0     H16970  11.751   1.257   2.606 -0.0431 -1.9708  1.7290
  123MOL0     H16971  11.340   1.628   3.238  0.5283 -2.9763 -0.7268
  123MOL0     H16972  11.084   1.716   3.453 -0.2581 -0.5324 -1.5542
  123MOL0     H16973  11.103   1.641   3.292 -0.8377 -3.8317 -0.4603
  123MOL0     H16974  11.031   1.550   3.426 -1.4193 -1.5711 -0.4391
  124MOL0     O16975   7.899   1.463   5.409  0.1717 -0.1878  0.3251
  124MOL0     C16976   7.859   1.510   5.304  0.2141  0.5932  0.3552
  124MOL0     O16977   7.725   1.493   5.260 -0.8389 -0.1404 -0.1578
  124MOL0     C16978   7.618   1.491   5.341  0.7154  0.3806 -0.4142
  124MOL0     C16979   7.512   1.408   5.300 -0.3459  0.5750 -1.3340
  124MOL0     C16980   7.399   1.392   5.374  0.2964  0.1449  0.9743
  124MOL0     C16981   7.381   1.473   5.486  0.6118  0.2042  0.2497
  124MOL0     O16982   7.273   1.468   5.577  0.1677  0.6700  0.2265
  124MOL0     C16983   7.180   1.355   5.572  0.7466 -0.3135 -0.0027
  124MOL0     C16984   7.239   1.216   5.599 -0.5124 -0.2936  1.0429
  124MOL0     C16985   7.217   1.151   5.737  0.2521 -1.1647 -0.0771
  124MOL0     C16986   7.291   1.021   5.746  0.1017 -0.3186 -0.2901
  124MOL0     C16987   7.347   0.979   5.883 -0.0796  0.4421  0.4835
  124MOL0     C16988   7.240   0.957   5.986  0.2418  0.8256  0.6394
  124MOL0     C16989   7.310   0.889   6.105 -0.1640 -0.4111 -0.2384
  124MOL0     C16990   7.226   0.891   6.237 -0.9527  0.1507  0.1940
  124MOL0     N16991   7.136   0.777   6.246  0.3295  0.1407 -0.3960
  124MOL0     C16992   7.032   0.749   6.158 -1.2865  0.0667  0.1345
  124MOL0     C16993   6.971   0.636   6.207 -0.9321 -0.2521  0.0030
  124MOL0     C16994   6.862   0.565   6.155  0.5983 -0.7041 -0.2180
  124MOL0     C16995   6.800   0.456   6.248 -0.2645 -0.3028  0.1164
  124MOL0     C16996   6.672   0.390   6.191  1.0062  0.5115 -0.2424
  124MOL0     C16997   6.549   0.463   6.218 -0.3314  0.7859 -0.2033
  124MOL0     O16998   6.528   0.512   6.354  0.3014  0.4289 -0.4835
  124MOL0     C16999   6.518   0.414   6.457 -0.1936  0.3790 -0.0426
  124MOL0     C17000   6.582   0.453   6.578 -0.4790  0.2292 -0.1576
  124MOL0     C17001   6.587   0.366   6.681 -0.0322  0.1492  0.2833
  124MOL0     C17002   6.664   0.412   6.808 -0.1259 -0.6819 -0.1107
  124MOL0     C17003   6.518   0.238   6.668 -0.2688 -0.6852  0.2091
  124MOL0     C17004   6.495   0.130   6.771 -0.2220  0.8343  0.5895
  124MOL0     O17005   6.490  -0.001   6.731 -0.5175 -0.9454 -0.3396
  124MOL0     C17006   6.511  -0.091   6.835  0.4823 -0.8314 -0.0158
  124MOL0     C17007   6.637  -0.148   6.860 -0.5718  0.2106  1.1906
  124MOL0     C17008   6.660  -0.242   6.959  0.4309  0.1661  0.6661
  124MOL0     C17009   6.552  -0.285   7.038 -0.4033 -0.3315  0.7746
  124MOL0     O17010   6.559  -0.379   7.140  1.2614  0.4080  0.3952
  124MOL0     C17011   6.674  -0.454   7.158  0.3821 -0.0696  0.2448
  124MOL0     C17012   6.653  -0.528   7.298  0.1739  0.1571 -0.0530
  124MOL0     C17013   6.571  -0.656   7.286 -0.0607  0.2167 -0.2655
  124MOL0     C17014   6.580  -0.747   7.408  0.2766 -0.5756 -0.2643
  124MOL0     C17015   6.479  -0.861   7.395 -0.4285 -0.5151 -0.0452
  124MOL0     C17016   6.344  -0.819   7.451 -0.4708  0.0831 -0.3674
  124MOL0     C17017   6.236  -0.928   7.435  0.0977 -0.4637 -0.1151
  124MOL0     C17018   6.252  -1.038   7.533 -0.1505  0.6110 -1.1448
  124MOL0    Cl17019   6.121  -1.162   7.499 -0.0532 -0.2661  0.1414
  124MOL0     C17020   6.422  -0.238   7.000  0.3722  0.0733  0.2986
  124MOL0     C17021   6.400  -0.153   6.896  0.8022  1.2877  0.3275
  124MOL0     O17022   6.484   0.161   6.892 -0.4554  0.3578 -0.2534
  124MOL0     C17023   6.440   0.212   6.550 -0.1180 -0.0270  0.4284
  124MOL0     C17024   6.437   0.299   6.445  0.3173  0.4598  0.0625
  124MOL0     N17025   7.042   0.600   6.326 -0.4518  0.3337  0.3209
  124MOL0     N17026   7.135   0.686   6.348  0.7449  0.1970 -0.7366
  124MOL0     C17027   7.483   1.568   5.521  0.8953 -0.2938  0.5026
  124MOL0     C17028   7.608   1.570   5.456  0.8268 -0.9127  0.0923
  124MOL0     C17029   7.953   1.580   5.199 -0.7531  0.4621  0.0144
  124MOL0     C17030   7.916   1.571   5.065  0.1926  0.6054  0.2112
  124MOL0     C17031   7.981   1.636   4.966  0.1014 -1.1928  0.5652
  124MOL0     C17032   8.088   1.715   4.995  0.3125  0.4459 -0.0452
  124MOL0     O17033   8.134   1.814   4.910 -0.1151  0.7824  0.1606
  124MOL0     C17034   8.041   1.867   4.811 -0.1964  0.8514  0.7999
  124MOL0     C17035   8.079   1.837   4.665  0.4933  0.4373 -0.2468
  124MOL0     C17036   8.217   1.898   4.617  0.2239 -1.0751 -0.5261
  124MOL0     C17037   8.207   2.049   4.632  0.1816  0.1281  0.1444
  124MOL0     C17038   8.116   2.110   4.534 -0.3526 -0.7060  0.7296
  124MOL0     C17039   8.050   2.162   4.442 -0.0538 -0.4612 -0.7626
  124MOL0     C17040   8.136   1.715   5.124  0.3551  0.9549  0.1135
  124MOL0     C17041   8.071   1.657   5.228 -0.0098  0.2414 -0.3344
  124MOL0     C17042   8.110   1.698   5.365 -0.1603  0.3483 -0.5040
  124MOL0     H17043   7.516   1.362   5.202 -0.2329  3.2749 -2.6752
  124MOL0     H17044   7.333   1.314   5.339  1.3334 -0.6428  0.6973
  124MOL0     H17045   7.143   1.364   5.469  0.1488  2.9143  0.3955
  124MOL0     H17046   7.100   1.378   5.643  2.7277  0.7149  2.0209
  124MOL0     H17047   7.191   1.155   5.523 -1.3940  2.3791 -0.6927
  124MOL0     H17048   7.345   1.229   5.574 -1.4899  1.7381 -2.8400
  124MOL0     H17049   7.269   1.225   5.798  1.7310 -0.4091 -2.1467
  124MOL0     H17050   7.110   1.140   5.757 -0.1689  0.0408 -1.5167
  124MOL0     H17051   7.228   0.943   5.701 -0.0503  0.3093 -1.1868
  124MOL0     H17052   7.376   1.028   5.679  0.9892  0.3174  0.8669
  124MOL0     H17053   7.418   1.058   5.908  1.0861 -0.5441  0.3488
  124MOL0     H17054   7.403   0.886   5.871 -2.3269 -1.1058  1.2948
  124MOL0     H17055   7.197   1.054   6.009  1.2179  1.4624 -0.1342
  124MOL0     H17056   7.167   0.887   5.945  0.4612  1.4253 -0.7999
  124MOL0     H17057   7.406   0.937   6.130 -1.1527  1.2902  0.4962
  124MOL0     H17058   7.330   0.788   6.069 -0.7602  0.2687 -2.6583
  124MOL0     H17059   7.299   0.877   6.317  1.2337  1.7881 -1.3876
  124MOL0     H17060   7.174   0.987   6.243  0.8490  1.1660  0.3144
  124MOL0     H17061   7.008   0.806   6.069  0.1292  3.1876  1.5962
  124MOL0     H17062   6.885   0.521   6.058 -0.5173 -1.4029 -0.1849
  124MOL0     H17063   6.787   0.641   6.130 -1.9884 -2.1541  2.4607
  124MOL0     H17064   6.874   0.376   6.250  2.6092  1.9465 -3.4199
  124MOL0     H17065   6.786   0.502   6.346 -0.9747 -0.5861  0.1567
  124MOL0     H17066   6.677   0.379   6.082 -2.3876 -4.4933 -0.2307
  124MOL0     H17067   6.657   0.288   6.227 -0.9766  1.6418  2.4125
  124MOL0     H17068   6.539   0.549   6.152 -5.9928  1.7310  1.4274
  124MOL0     H17069   6.471   0.392   6.191 -0.1121  0.7614 -0.7786
  124MOL0     H17070   6.623   0.554   6.585  1.1235 -0.4012 -0.1247
  124MOL0     H17071   6.588   0.457   6.873 -0.6134 -1.0192 -0.4352
  124MOL0     H17072   6.745   0.479   6.779 -1.2068  1.9029  2.3778
  124MOL0     H17073   6.717   0.334   6.862 -0.4385 -0.6398  0.2635
  124MOL0     H17074   6.719  -0.116   6.797  0.6292 -1.4027  1.8620
  124MOL0     H17075   6.762  -0.278   6.973  0.8286  1.2967  0.7474
  124MOL0     H17076   6.684  -0.527   7.077  0.5673 -1.0441  1.1195
  124MOL0     H17077   6.757  -0.383   7.150 -2.4604  3.4417 -0.3623
  124MOL0     H17078   6.752  -0.553   7.337  0.1446 -0.0689 -0.1181
  124MOL0     H17079   6.595  -0.468   7.369  0.0238  1.0484 -0.9139
  124MOL0     H17080   6.617  -0.717   7.208  0.9694 -0.3464  0.7514
  124MOL0     H17081   6.469  -0.634   7.254  0.2864  1.4094 -0.5934
  124MOL0     H17082   6.549  -0.682   7.490 -2.3054 -2.1073  0.1122
  124MOL0     H17083   6.681  -0.789   7.409  1.6132  2.2204 -2.5325
  124MOL0     H17084   6.474  -0.906   7.295  0.1812 -3.0605  0.9893
  124MOL0     H17085   6.518  -0.937   7.463 -0.9848 -2.0500 -1.3759
  124MOL0     H17086   6.308  -0.731   7.396 -0.6596  0.0156 -0.3523
  124MOL0     H17087   6.352  -0.800   7.558 -1.9177  0.2857 -0.2777
  124MOL0     H17088   6.241  -0.971   7.335 -0.6739 -1.3189  0.2006
  124MOL0     H17089   6.138  -0.889   7.466 -0.1827 -1.8222  0.7839
  124MOL0     H17090   6.238  -1.001   7.635  1.8702 -3.6363  0.9334
  124MOL0     H17091   6.351  -1.083   7.523 -0.0084  0.0939  1.7347
  124MOL0     H17092   6.344  -0.269   7.068 -0.5453  1.9928  0.1908
  124MOL0     H17093   6.300  -0.121   6.872 -0.5374 -2.6831 -0.0734
  124MOL0     H17094   6.387   0.119   6.533  0.3761 -0.0706 -0.9850
  124MOL0     H17095   6.383   0.280   6.353 -0.4767 -0.7953  0.7575
  124MOL0     H17096   7.475   1.624   5.613 -1.7160 -1.5655  1.1402
  124MOL0     H17097   7.695   1.621   5.495  1.0718 -0.4456 -1.0207
  124MOL0     H17098   7.836   1.501   5.043 -0.7582  1.5939  0.4257
  124MOL0     H17099   7.926   1.644   4.873 -0.0892 -0.8123  0.7079
  124MOL0     H17100   7.939   1.834   4.831  0.8197 -3.0059  0.4953
  124MOL0     H17101   8.038   1.976   4.818 -1.4858  0.8719  0.1035
  124MOL0     H17102   7.996   1.874   4.604 -0.2298  0.4824  0.7524
  124MOL0     H17103   8.096   1.729   4.662  3.1236  0.7731 -0.1035
  124MOL0     H17104   8.296   1.855   4.679 -0.9364 -0.2212  1.6637
  124MOL0     H17105   8.249   1.867   4.517 -3.5000 -0.4567 -2.0524
  124MOL0     H17106   8.303   2.087   4.596 -0.7515  0.2084 -2.4349
  124MOL0     H17107   8.184   2.083   4.734  1.2802 -1.2692  0.8868
  124MOL0     H17108   8.013   2.187   4.345 -0.5332  1.9768 -0.0235
  124MOL0     H17109   8.223   1.777   5.144 -1.0073  2.1902  2.6187
  124MOL0     H17110   8.149   1.609   5.416  0.0140  0.5956 -0.1992
  124MOL0     H17111   8.191   1.771   5.349  0.3299 -0.5344 -2.2824
  124MOL0     H17112   8.021   1.736   5.417  0.1577 -0.5998  0.7943
  125MOL0     O17113   4.894   2.203   1.452  0.5634 -0.4742 -1.1261
  125MOL0     C17114   4.915   2.264   1.346  0.7442 -0.0033 -0.4522
  125MOL0     O17115   5.037   2.313   1.304  0.4056  0.5602 -0.3187
  125MOL0     C17116   5.148   2.282   1.387  0.0438  0.6728  0.9667
  125MOL0     C17117   5.202   2.152   1.376 -0.0797 -0.2280  0.0685
  125MOL0     C17118   5.308   2.110   1.462 -0.2142 -0.1170 -0.6764
  125MOL0     C17119   5.368   2.206   1.549  0.0626  0.1562 -0.4958
  125MOL0     O17120   5.472   2.185   1.634  0.0155 -0.8053  0.3725
  125MOL0     C17121   5.530   2.057   1.633 -0.0460 -0.3208 -0.4300
  125MOL0     C17122   5.603   2.027   1.761  1.0107  0.0173 -0.0617
  125MOL0     C17123   5.502   2.014   1.873 -0.2421  0.2186  0.0642
  125MOL0     C17124   5.561   1.985   2.007 -0.4245  0.4443  0.4863
  125MOL0     C17125   5.456   1.936   2.103 -0.1872  0.1090  0.8752
  125MOL0     C17126   5.519   1.909   2.246  0.7786  0.3003 -0.1021
  125MOL0     C17127   5.567   2.039   2.317  0.2151 -0.4605  0.8262
  125MOL0     C17128   5.603   1.998   2.458  0.1844 -0.6168  0.7206
  125MOL0     N17129   5.666   2.101   2.534  0.2050 -0.9420  0.0637
  125MOL0     C17130   5.619   2.168   2.646 -0.2695  0.3922  0.0835
  125MOL0     C17131   5.724   2.225   2.699 -0.7782 -0.0150 -0.6005
  125MOL0     C17132   5.710   2.310   2.833  0.1344  0.3321  0.5244
  125MOL0     C17133   5.757   2.447   2.813  0.5114 -0.2534 -0.7406
  125MOL0     C17134   5.661   2.542   2.742 -0.7268  1.0698  0.5973
  125MOL0     C17135   5.710   2.682   2.738  0.0224  0.0830  0.8521
  125MOL0     O17136   5.625   2.764   2.653 -0.2056  0.5443  0.3609
  125MOL0     C17137   5.564   2.873   2.714 -1.1227  0.1251 -0.5073
  125MOL0     C17138   5.571   2.989   2.634 -0.7777 -0.5751  0.6421
  125MOL0     C17139   5.519   3.105   2.688  0.2068 -0.1363  0.0871
  125MOL0     C17140   5.517   3.230   2.603  1.1340 -0.2290  0.6349
  125MOL0     C17141   5.492   3.113   2.827 -0.5137  0.1327  0.3231
  125MOL0     C17142   5.482   3.242   2.903 -0.2466  1.0232 -0.2260
  125MOL0     O17143   5.577   3.330   2.879  0.2564  0.4878 -0.1827
  125MOL0     C17144   5.557   3.449   2.942 -0.5613 -0.0885 -0.3157
  125MOL0     C17145   5.465   3.546   2.893 -0.3916  1.2832 -0.7867
  125MOL0     C17146   5.451   3.668   2.957 -0.5819 -0.1437 -0.1260
  125MOL0     C17147   5.531   3.699   3.064 -0.0481 -1.1227 -0.6695
  125MOL0     O17148   5.523   3.816   3.134  0.4952 -0.0655 -0.3985
  125MOL0     C17149   5.417   3.915   3.115  0.0889  0.2907  1.3936
  125MOL0     C17150   5.447   4.018   3.001  0.3880  0.5225 -0.2106
  125MOL0     C17151   5.326   4.093   2.952  0.6669  0.1792 -0.9550
  125MOL0     C17152   5.348   4.225   2.880  0.2325 -0.3907 -0.1270
  125MOL0     C17153   5.214   4.297   2.847  0.6721 -0.0762  0.4818
  125MOL0     C17154   5.234   4.445   2.798  0.1883  0.6381  0.3833
  125MOL0     C17155   5.302   4.472   2.661 -0.3251  0.0782 -1.5979
  125MOL0     C17156   5.283   4.616   2.601 -0.5184  0.9912  0.6150
  125MOL0    Cl17157   5.350   4.749   2.706 -0.2949 -0.1867 -0.3774
  125MOL0     C17158   5.620   3.602   3.114 -0.2546 -0.6588 -0.2350
  125MOL0     C17159   5.628   3.475   3.056 -0.2606  0.1887  0.3905
  125MOL0     O17160   5.387   3.261   2.974  0.0679 -0.0430 -0.4150
  125MOL0     C17161   5.501   2.997   2.908 -0.1247  0.0420  0.1016
  125MOL0     C17162   5.530   2.873   2.848  0.1874 -0.5149  0.3277
  125MOL0     N17163   5.841   2.210   2.615  0.4878 -0.0219  0.3673
  125MOL0     N17164   5.793   2.139   2.514 -0.0025  0.4081  0.2527
  125MOL0     C17165   5.315   2.334   1.558  0.2814 -0.9078 -0.1216
  125MOL0     C17166   5.205   2.374   1.474 -0.6107 -0.6316 -0.6667
  125MOL0     C17167   4.794   2.302   1.265 -0.9660  0.6504  0.7097
  125MOL0     C17168   4.807   2.409   1.176  0.5500  0.0644 -0.4387
  125MOL0     C17169   4.694   2.433   1.088  0.2698  0.5189 -0.4713
  125MOL0     C17170   4.572   2.379   1.099  0.2657 -1.1412  0.5929
  125MOL0     O17171   4.468   2.404   1.015  0.1897  0.5351 -0.4333
  125MOL0     C17172   4.483   2.524   0.934 -0.4908 -0.7089  0.3733
  125MOL0     C17173   4.345   2.550   0.859 -0.1480 -0.1361 -0.1549
  125MOL0     C17174   4.360   2.662   0.751  0.0303 -0.5947 -0.3663
  125MOL0     C17175   4.221   2.669   0.683 -0.4084  0.2445  0.1789
  125MOL0     C17176   4.235   2.737   0.559  0.2050  0.3846  0.8808
  125MOL0     C17177   4.251   2.801   0.455 -0.4401  0.7642 -0.3240
  125MOL0     C17178   4.561   2.285   1.199 -0.5380 -0.2140 -0.3002
  125MOL0     C17179   4.668   2.241   1.282 -0.0301 -0.9193  0.2993
  125MOL0     C17180   4.623   2.141   1.394 -0.0661  0.6571  0.1669
  125MOL0     H17181   5.156   2.087   1.302 -1.0069  0.2803  0.1907
  125MOL0     H17182   5.334   2.005   1.462  0.9611  0.1511 -2.0385
  125MOL0     H17183   5.593   2.035   1.546  0.0543 -0.9979 -0.1909
  125MOL0     H17184   5.462   1.971   1.630  1.7647 -1.8401  0.1744
  125MOL0     H17185   5.658   1.932   1.752 -1.6619 -1.8619  1.7999
  125MOL0     H17186   5.675   2.106   1.784  0.4741 -0.0067  1.8928
  125MOL0     H17187   5.442   2.106   1.868 -1.4653 -0.5253  0.5574
  125MOL0     H17188   5.432   1.933   1.846 -1.8668  0.8574  2.0850
  125MOL0     H17189   5.638   1.908   2.002  0.3892  1.3033 -3.0108
  125MOL0     H17190   5.599   2.083   2.038  2.1041 -0.0212 -0.9375
  125MOL0     H17191   5.410   1.841   2.073 -1.8794  1.2381 -0.2625
  125MOL0     H17192   5.380   2.013   2.112  0.0631  0.1522  3.2660
  125MOL0     H17193   5.443   1.855   2.303 -0.7553 -0.0482 -2.3428
  125MOL0     H17194   5.612   1.852   2.238 -0.2697 -1.3825 -0.7747
  125MOL0     H17195   5.508   2.131   2.311  0.4936 -0.4077 -2.4770
  125MOL0     H17196   5.658   2.070   2.267  0.2659  0.0987  1.2572
  125MOL0     H17197   5.506   1.982   2.506  0.9263 -5.9329  1.0624
  125MOL0     H17198   5.661   1.905   2.460 -1.8079 -1.9245  2.5085
  125MOL0     H17199   5.520   2.152   2.689 -0.9112  0.3666 -1.3535
  125MOL0     H17200   5.771   2.265   2.912  0.2364 -1.1654 -0.3752
  125MOL0     H17201   5.608   2.310   2.872 -0.0488 -1.7174  0.1664
  125MOL0     H17202   5.790   2.487   2.909  0.0053  0.3664 -0.8154
  125MOL0     H17203   5.850   2.451   2.756  0.5812  0.0580 -0.6032
  125MOL0     H17204   5.647   2.506   2.639 -2.8531 -1.5388  1.6741
  125MOL0     H17205   5.557   2.528   2.771 -0.7033 -1.7854 -0.3336
  125MOL0     H17206   5.722   2.726   2.838 -0.3626  2.8536 -0.2239
  125MOL0     H17207   5.807   2.683   2.688 -1.0827  3.0050 -1.5303
  125MOL0     H17208   5.604   2.989   2.530  2.5650  1.4568  1.5586
  125MOL0     H17209   5.605   3.291   2.628  1.1431  0.3788 -0.7895
  125MOL0     H17210   5.434   3.298   2.621  1.0383 -1.1232  4.3726
  125MOL0     H17211   5.520   3.204   2.497 -1.1823  1.0152  0.2215
  125MOL0     H17212   5.405   3.529   2.804 -1.9061 -5.1129  0.9213
  125MOL0     H17213   5.389   3.744   2.910  1.5700  1.9193  0.1659
  125MOL0     H17214   5.325   3.859   3.097  0.0068  0.8611 -0.1598
  125MOL0     H17215   5.416   3.973   3.207 -0.6113  1.6256  0.5796
  125MOL0     H17216   5.513   4.098   3.037 -0.2553  1.4620 -1.0637
  125MOL0     H17217   5.502   3.991   2.910 -1.1337  0.6649 -1.2184
  125MOL0     H17218   5.268   4.109   3.043  0.9581 -0.1987 -0.6966
  125MOL0     H17219   5.264   4.027   2.890  0.5162  1.6397 -2.4111
  125MOL0     H17220   5.407   4.211   2.789 -1.2727 -1.5553 -0.9599
  125MOL0     H17221   5.404   4.299   2.937 -0.9793  0.4454  0.0013
  125MOL0     H17222   5.163   4.238   2.770 -0.4566 -0.2136  1.3009
  125MOL0     H17223   5.156   4.304   2.939  1.9627 -0.8746  1.3906
  125MOL0     H17224   5.291   4.498   2.874  0.4162  0.8471  0.0700
  125MOL0     H17225   5.135   4.491   2.789  0.0581  0.3508  0.3124
  125MOL0     H17226   5.252   4.406   2.590 -2.5489  1.8138 -1.7516
  125MOL0     H17227   5.411   4.459   2.663 -0.1406  1.1550 -3.1151
  125MOL0     H17228   5.174   4.628   2.594 -0.9146 -2.1659 -0.2546
  125MOL0     H17229   5.326   4.622   2.501 -1.7296 -0.7148 -0.0618
  125MOL0     H17230   5.665   3.632   3.207 -4.0213 -1.7776  2.1823
  125MOL0     H17231   5.700   3.404   3.096  0.2038 -0.5193 -1.5589
  125MOL0     H17232   5.500   2.999   3.016  4.7645  0.0624  0.3513
  125MOL0     H17233   5.526   2.790   2.918 -1.7543 -0.9557 -0.2442
  125MOL0     H17234   5.367   2.418   1.604  0.7544 -0.4304 -1.4957
  125MOL0     H17235   5.157   2.472   1.475 -2.7690 -1.6233 -0.8725
  125MOL0     H17236   4.889   2.476   1.158  0.7917 -0.5839 -1.9746
  125MOL0     H17237   4.718   2.520   1.028 -0.9798 -0.1728 -2.0401
  125MOL0     H17238   4.513   2.611   0.993 -3.6441  0.7104  0.0622
  125MOL0     H17239   4.566   2.513   0.863  1.0822  1.0438  1.8435
  125MOL0     H17240   4.272   2.572   0.937 -1.3262 -1.0978 -0.9463
  125MOL0     H17241   4.309   2.453   0.822 -3.1746  1.0299 -0.5945
  125MOL0     H17242   4.379   2.758   0.799 -0.8538 -0.5991  0.0233
  125MOL0     H17243   4.431   2.645   0.670 -0.9542  1.3845 -1.7347
  125MOL0     H17244   4.163   2.734   0.748 -0.1402 -2.3622  3.2465
  125MOL0     H17245   4.179   2.569   0.674  1.0211 -0.4877  1.1846
  125MOL0     H17246   4.258   2.835   0.353 -0.3205  1.6425 -0.0251
  125MOL0     H17247   4.462   2.242   1.214 -0.5861 -0.4701 -1.2327
  125MOL0     H17248   4.603   2.200   1.484 -0.0027 -0.4700  0.9431
  125MOL0     H17249   4.536   2.078   1.377  0.6560 -0.8310  1.6976
  125MOL0     H17250   4.703   2.068   1.409  0.7870  1.1297 -1.7851
  126MOL0     O17251   2.453   7.352   8.786  0.2544  0.3131  0.6993
  126MOL0     C17252   2.366   7.332   8.702  0.0038 -0.2129 -0.6715
  126MOL0     O17253   2.322   7.433   8.611 -0.6043  0.4428 -0.3923
  126MOL0     C17254   2.379   7.555   8.618 -0.2309 -1.0376  0.9174
  126MOL0     C17255   2.343   7.652   8.717  0.0626  0.0890  1.0475
  126MOL0     C17256   2.422   7.769   8.717  0.2257 -0.6530  0.0136
  126MOL0     C17257   2.520   7.804   8.622 -0.0413  0.6596  0.1587
  126MOL0     O17258   2.586   7.921   8.629  0.3198 -0.4340 -0.1295
  126MOL0     C17259   2.513   8.048   8.643  0.0444 -0.4441  0.7333
  126MOL0     C17260   2.572   8.167   8.561  0.4290  0.1787 -0.3087
  126MOL0     C17261   2.673   8.245   8.654 -0.6024  0.1700  1.1902
  126MOL0     C17262   2.797   8.157   8.682 -0.0825  0.3144  0.6961
  126MOL0     C17263   2.911   8.235   8.747 -0.0402  0.3007  0.0004
  126MOL0     C17264   3.006   8.132   8.803 -0.1546 -0.0056  0.1163
  126MOL0     C17265   3.096   8.068   8.698  0.1902  0.2776  0.1592
  126MOL0     C17266   3.183   7.960   8.753 -0.2727  0.5182  0.0525
  126MOL0     N17267   3.289   8.004   8.839  0.2707 -0.3717 -0.4902
  126MOL0     C17268   3.367   7.924   8.923  1.1021 -0.7305 -0.2270
  126MOL0     C17269   3.454   8.009   8.981 -0.7765 -0.4798  1.2393
  126MOL0     C17270   3.571   7.960   9.056  0.9024  0.2192 -0.5617
  126MOL0     C17271   3.564   7.992   9.200  0.3871  0.0155 -0.4477
  126MOL0     C17272   3.696   8.031   9.265  0.7598 -0.1920  0.1361
  126MOL0     C17273   3.678   8.008   9.416  0.7327  0.4416  0.2602
  126MOL0     O17274   3.793   8.037   9.502  0.0571  0.4836 -0.3988
  126MOL0     C17275   3.892   7.937   9.508  0.4436 -0.3885 -0.8484
  126MOL0     C17276   4.011   7.953   9.437 -0.6037 -0.3022 -0.0001
  126MOL0     C17277   4.119   7.862   9.450  0.3576  0.7535 -0.2158
  126MOL0     C17278   4.241   7.902   9.379  0.7509 -0.0448  0.6720
  126MOL0     C17279   4.104   7.744   9.533  0.8198 -0.5611  0.5902
  126MOL0     C17280   4.217   7.656   9.566  0.4485  0.1653 -0.3465
  126MOL0     O17281   4.214   7.610   9.698 -0.0566 -0.7082  0.4468
  126MOL0     C17282   4.314   7.527   9.731 -0.0689  0.0763  0.4747
  126MOL0     C17283   4.296   7.389   9.729 -0.1780 -0.0440 -0.1076
  126MOL0     C17284   4.387   7.289   9.774  0.4603 -0.5241 -0.2226
  126MOL0     C17285   4.505   7.340   9.833 -0.0981 -0.1091 -0.5569
  126MOL0     O17286   4.592   7.249   9.889 -0.1586  0.2446 -0.7257
  126MOL0     C17287   4.579   7.106   9.872 -0.2820  0.0058 -0.5652
  126MOL0     C17288   4.696   7.038   9.963  0.4550  0.3352  0.5149
  126MOL0     C17289   4.670   7.041  10.109 -0.0174  0.6891 -0.5368
  126MOL0     C17290   4.785   6.967  10.183  0.0897 -0.7487 -1.2299
  126MOL0     C17291   4.759   6.960  10.327  1.1980 -0.0937 -0.1089
  126MOL0     C17292   4.798   7.098  10.382 -0.8795 -0.2229 -0.1723
  126MOL0     C17293   4.818   7.106  10.536 -0.7065 -0.4597  0.1354
  126MOL0     C17294   4.700   7.047  10.614  0.5720 -0.2045 -0.3269
  126MOL0    Cl17295   4.555   7.150  10.556 -0.3817 -0.1161 -0.0456
  126MOL0     C17296   4.530   7.482   9.842  0.1965 -0.2636  0.3199
  126MOL0     C17297   4.433   7.567   9.790  0.1697 -0.2955  0.9127
  126MOL0     O17298   4.303   7.628   9.486 -0.6566  0.1738  0.1409
  126MOL0     C17299   3.982   7.734   9.606 -0.5544 -0.2463  0.5890
  126MOL0     C17300   3.876   7.829   9.591 -0.4150 -0.4691 -0.7461
  126MOL0     N17301   3.430   8.138   8.940 -1.1329  0.6832 -0.7108
  126MOL0     N17302   3.339   8.133   8.852  0.5189 -0.4156  0.1471
  126MOL0     C17303   2.541   7.704   8.525 -0.1492  0.3741  0.0827
  126MOL0     C17304   2.484   7.579   8.525 -0.7896 -0.4945 -0.3354
  126MOL0     C17305   2.309   7.199   8.679  1.4520  0.3748 -0.0511
  126MOL0     C17306   2.223   7.187   8.567 -0.1660  0.9229 -0.3639
  126MOL0     C17307   2.180   7.062   8.532 -0.8077  0.8409 -0.1755
  126MOL0     C17308   2.198   6.952   8.612  0.2962  0.6181  0.2276
  126MOL0     O17309   2.153   6.833   8.563  0.1281  0.1846 -0.0499
  126MOL0     C17310   2.217   6.702   8.592 -0.4495  0.1199  1.2268
  126MOL0     C17311   2.341   6.703   8.505 -0.2986  0.3468  0.2614
  126MOL0     C17312   2.420   6.578   8.535 -0.1232  0.2849  0.6971
  126MOL0     C17313   2.487   6.513   8.410  0.4310  0.3146 -0.5690
  126MOL0     C17314   2.575   6.395   8.432  0.3693  0.4722 -0.6397
  126MOL0     C17315   2.629   6.283   8.452  1.1349  0.9737  0.3277
  126MOL0     C17316   2.274   6.967   8.728  0.0697  0.1965  0.6094
  126MOL0     C17317   2.334   7.086   8.763 -0.2753  0.8880 -0.2406
  126MOL0     C17318   2.399   7.084   8.898 -0.4193  0.3323  0.3874
  126MOL0     H17319   2.266   7.624   8.788  0.4416 -2.3653  0.5882
  126MOL0     H17320   2.402   7.839   8.797  2.8232  0.5989 -0.3139
  126MOL0     H17321   2.492   8.085   8.744  1.2222  0.9253  0.5092
  126MOL0     H17322   2.413   8.023   8.607  0.1835 -0.6293  0.4698
  126MOL0     H17323   2.595   8.147   8.455  0.2075 -2.3211  0.0492
  126MOL0     H17324   2.480   8.224   8.553  0.1898 -0.2776 -0.8582
  126MOL0     H17325   2.713   8.339   8.617  5.8808 -2.0479  1.4167
  126MOL0     H17326   2.610   8.277   8.738 -2.8858  3.1016 -1.3776
  126MOL0     H17327   2.757   8.077   8.746 -2.2365 -0.5442 -1.5803
  126MOL0     H17328   2.835   8.114   8.589 -2.1769 -0.5249  0.1666
  126MOL0     H17329   2.873   8.294   8.831 -1.5956  0.5232 -0.8060
  126MOL0     H17330   2.959   8.299   8.673 -0.1540  2.8426  1.9767
  126MOL0     H17331   3.075   8.190   8.865  2.5427  0.7374 -3.2623
  126MOL0     H17332   2.950   8.057   8.860  1.7067 -0.4301  1.5004
  126MOL0     H17333   3.151   8.145   8.643  1.1964  0.9679  2.0537
  126MOL0     H17334   3.031   8.012   8.630 -1.5605  1.5630  0.6926
  126MOL0     H17335   3.122   7.884   8.802 -0.4312 -0.8989 -2.2008
  126MOL0     H17336   3.229   7.892   8.681  1.0687  0.5403  0.8562
  126MOL0     H17337   3.366   7.816   8.931  1.4493 -0.6596  6.0201
  126MOL0     H17338   3.655   8.018   9.016  1.7278 -1.4372 -1.3566
  126MOL0     H17339   3.595   7.855   9.036 -1.4616 -0.5262  0.2128
  126MOL0     H17340   3.498   8.080   9.201  1.1831  0.6325 -0.8459
  126MOL0     H17341   3.517   7.911   9.256  1.1104  0.5123  0.9236
  126MOL0     H17342   3.773   7.963   9.227  0.7754 -1.9688  3.0284
  126MOL0     H17343   3.714   8.136   9.242 -1.6514 -0.1868 -2.1975
  126MOL0     H17344   3.597   8.071   9.453  0.5450  0.1899  0.2799
  126MOL0     H17345   3.643   7.905   9.434  0.4172 -0.1818 -3.2039
  126MOL0     H17346   4.024   8.045   9.382  0.6020  1.0058  2.3267
  126MOL0     H17347   4.274   7.993   9.430 -1.1685  0.8535  0.4452
  126MOL0     H17348   4.232   7.926   9.272  3.2558  0.9641  0.6319
  126MOL0     H17349   4.324   7.832   9.386 -0.1744 -1.0959  1.3338
  126MOL0     H17350   4.197   7.361   9.695  0.8239 -2.2780 -1.3799
  126MOL0     H17351   4.353   7.186   9.764 -0.2589 -0.1954 -1.4575
  126MOL0     H17352   4.487   7.070   9.918  2.2007 -5.9775  0.6920
  126MOL0     H17353   4.576   7.059   9.774 -1.6904 -0.5000 -0.2920
  126MOL0     H17354   4.705   6.933   9.935 -0.0552  0.6442 -0.9089
  126MOL0     H17355   4.789   7.087   9.935  0.1220  2.0966  2.2566
  126MOL0     H17356   4.566   7.010  10.125 -0.1002  1.8476  1.5961
  126MOL0     H17357   4.661   7.147  10.136 -1.3806  1.0148 -2.1338
  126MOL0     H17358   4.884   7.011  10.167 -0.5583  1.2909  0.0745
  126MOL0     H17359   4.791   6.861  10.155  1.7702 -0.5608 -1.7050
  126MOL0     H17360   4.655   6.927  10.339  1.0020  0.1391 -1.0843
  126MOL0     H17361   4.826   6.891  10.380 -0.8906 -0.7949  1.8096
  126MOL0     H17362   4.733   7.176  10.343  0.4005  0.2004 -1.5724
  126MOL0     H17363   4.900   7.119  10.349 -0.3225 -2.3052  0.0741
  126MOL0     H17364   4.847   7.201  10.582 -0.1672 -0.5523  0.0015
  126MOL0     H17365   4.898   7.036  10.564  2.3874  2.4803 -0.5923
  126MOL0     H17366   4.720   7.065  10.720  1.2955 -0.3265 -0.4404
  126MOL0     H17367   4.686   6.941  10.589  2.3099 -0.4844 -0.2266
  126MOL0     H17368   4.625   7.516   9.883 -1.2044  2.7336  1.3432
  126MOL0     H17369   4.446   7.675   9.792 -0.4492 -0.2229  1.4475
  126MOL0     H17370   3.965   7.651   9.674  1.3090  0.1845  1.6492
  126MOL0     H17371   3.785   7.816   9.649  0.5838  1.3692  1.3798
  126MOL0     H17372   2.608   7.732   8.444 -1.4861 -0.8048 -1.5157
  126MOL0     H17373   2.503   7.507   8.446 -1.8975 -2.4716  1.1040
  126MOL0     H17374   2.219   7.268   8.495  4.0909  1.3539 -0.3389
  126MOL0     H17375   2.153   7.028   8.433 -0.9323 -3.1307  1.0628
  126MOL0     H17376   2.237   6.701   8.700  0.1481  1.5653  1.1576
  126MOL0     H17377   2.146   6.622   8.570 -0.1642 -0.0782  1.0241
  126MOL0     H17378   2.401   6.791   8.528 -0.5893  0.3871  0.8877
  126MOL0     H17379   2.313   6.713   8.400 -0.8851  2.3404  0.5769
  126MOL0     H17380   2.497   6.614   8.604 -0.2464  1.5553  0.1923
  126MOL0     H17381   2.357   6.497   8.574  1.4086 -0.8090  0.9713
  126MOL0     H17382   2.536   6.593   8.353  2.6947  0.5913  1.5772
  126MOL0     H17383   2.397   6.487   8.354 -0.0537  2.7416 -1.0344
  126MOL0     H17384   2.681   6.191   8.468  0.2980 -0.1405 -2.6047
  126MOL0     H17385   2.280   6.886   8.800  0.0198  0.4859  0.9471
  126MOL0     H17386   2.403   7.176   8.957  0.0846 -0.5924  1.8794
  126MOL0     H17387   2.346   7.008   8.957  1.5212  0.7760  2.9122
  126MOL0     H17388   2.505   7.059   8.892  0.1272  2.6637 -0.7156
  127MOL0     O17389   1.437   5.861   6.289  0.1642 -0.2630 -0.4261
  127MOL0     C17390   1.531   5.817   6.344 -1.4722  0.1313  0.0877
  127MOL0     O17391   1.549   5.814   6.476  0.1353 -0.3177  0.3547
  127MOL0     C17392   1.452   5.857   6.561 -1.2503 -0.0197 -0.4712
  127MOL0     C17393   1.447   5.993   6.603  0.4006 -0.0233  0.6569
  127MOL0     C17394   1.332   6.024   6.692 -0.7206  0.6759  0.6858
  127MOL0     C17395   1.238   5.926   6.730  0.4191 -0.3675  0.4406
  127MOL0     O17396   1.147   5.951   6.839 -0.1870  0.9037  0.7155
  127MOL0     C17397   1.053   6.063   6.828 -1.4147  0.0369 -0.0665
  127MOL0     C17398   0.925   6.031   6.746 -0.7128  1.0358  0.2595
  127MOL0     C17399   0.832   5.925   6.803 -0.7922  0.0290 -0.2160
  127MOL0     C17400   0.699   5.905   6.728  0.7316  1.1863 -0.8632
  127MOL0     C17401   0.627   5.769   6.760 -0.3708 -0.4466 -0.5126
  127MOL0     C17402   0.484   5.768   6.716  0.8883  0.6551  0.2089
  127MOL0     C17403   0.478   5.716   6.570 -0.7003 -0.7579 -0.4152
  127MOL0     C17404   0.323   5.712   6.520  0.0410  0.7411 -0.5781
  127MOL0     N17405   0.259   5.846   6.532 -0.5068  0.1331 -0.7002
  127MOL0     C17406   0.313   5.969   6.506  0.2143 -0.5573  0.6919
  127MOL0     C17407   0.207   6.055   6.496  0.5118  0.2770 -0.3670
  127MOL0     C17408   0.228   6.207   6.470  0.1442 -0.3906 -0.2646
  127MOL0     C17409   0.331   6.281   6.559 -0.4784  0.1098  0.2598
  127MOL0     C17410   0.268   6.397   6.625 -0.1063 -0.3213 -0.5781
  127MOL0     C17411   0.367   6.466   6.733  0.4282 -0.8584  1.3011
  127MOL0     O17412   0.468   6.540   6.653  0.2403 -0.3901 -0.0767
  127MOL0     C17413   0.598   6.515   6.671 -1.0631  0.7023  0.6317
  127MOL0     C17414   0.669   6.483   6.792  0.0108  1.1503  0.3023
  127MOL0     C17415   0.807   6.463   6.796  0.5590  0.0896 -0.6637
  127MOL0     C17416   0.863   6.450   6.935 -0.0756  0.8776  0.3661
  127MOL0     C17417   0.885   6.483   6.679 -0.2035 -0.3934 -0.4040
  127MOL0     C17418   1.027   6.474   6.682  0.6261  0.9353 -0.0293
  127MOL0     O17419   1.094   6.510   6.577 -1.4120 -0.4262  0.4096
  127MOL0     C17420   1.217   6.443   6.537 -0.6814  0.2367  0.7205
  127MOL0     C17421   1.225   6.420   6.402 -0.9873  0.4262 -0.4747
  127MOL0     C17422   1.340   6.349   6.350  0.1883  0.0944 -0.1208
  127MOL0     C17423   1.444   6.302   6.443 -0.0134 -0.5506  0.4795
  127MOL0     O17424   1.553   6.233   6.397  0.0599  0.0427 -0.1202
  127MOL0     C17425   1.584   6.241   6.254  0.0349 -0.3022 -0.1695
  127MOL0     C17426   1.734   6.232   6.238 -0.1730  0.4157  0.3398
  127MOL0     C17427   1.775   6.252   6.087 -0.1388 -0.1389 -0.4941
  127MOL0     C17428   1.766   6.116   6.013 -0.3716 -0.0476 -0.1064
  127MOL0     C17429   1.856   6.125   5.891 -0.5088  0.7381  0.6921
  127MOL0     C17430   1.804   6.176   5.759 -0.2850 -0.0477  0.8367
  127MOL0     C17431   1.678   6.111   5.710  0.7793 -0.0951 -0.9354
  127MOL0     C17432   1.700   5.969   5.667 -0.4360 -0.0990  0.2671
  127MOL0    Cl17433   1.542   5.897   5.617 -0.1300  0.0728 -0.0844
  127MOL0     C17434   1.434   6.337   6.582 -0.1455  0.1121  0.1871
  127MOL0     C17435   1.328   6.412   6.617 -0.2118  0.1169 -1.1611
  127MOL0     O17436   1.079   6.423   6.780  0.0086 -0.3323 -0.4337
  127MOL0     C17437   0.815   6.515   6.557 -0.6188 -0.3085 -0.4313
  127MOL0     C17438   0.676   6.528   6.555  0.9392  0.1894 -0.3032
  127MOL0     N17439   0.094   5.986   6.524 -0.2011  0.5187  0.1722
  127MOL0     N17440   0.125   5.858   6.543 -0.0700 -0.1912 -0.5125
  127MOL0     C17441   1.262   5.792   6.695  0.1030  0.8375 -0.3025
  127MOL0     C17442   1.360   5.760   6.602 -0.5701 -0.2753 -0.4246
  127MOL0     C17443   1.655   5.769   6.260 -0.0245  0.2317 -0.0772
  127MOL0     C17444   1.781   5.755   6.330  0.1472  0.3669 -0.0012
  127MOL0     C17445   1.895   5.719   6.264 -0.8169 -0.7323  1.6104
  127MOL0     C17446   1.900   5.696   6.127  0.4022 -0.5145  0.2183
  127MOL0     O17447   2.010   5.668   6.049 -0.0126  0.2557  0.0723
  127MOL0     C17448   2.135   5.629   6.114  0.4257  0.2754 -0.6950
  127MOL0     C17449   2.136   5.471   6.119 -1.1933 -0.0813  0.4692
  127MOL0     C17450   2.272   5.429   6.110 -0.4982  1.2464  0.6313
  127MOL0     C17451   2.312   5.375   5.974 -0.5129 -0.1654  0.4478
  127MOL0     C17452   2.333   5.491   5.878 -0.7979  0.3836 -0.1553
  127MOL0     C17453   2.353   5.581   5.796  0.8598 -0.7228  0.1545
  127MOL0     C17454   1.781   5.730   6.058 -0.0655  0.0371 -0.6956
  127MOL0     C17455   1.659   5.763   6.120 -0.7382 -0.2391  1.1117
  127MOL0     C17456   1.546   5.775   6.023  0.2286 -0.3992 -0.7288
  127MOL0     H17457   1.515   6.070   6.570  0.2924  0.3300  1.2450
  127MOL0     H17458   1.323   6.128   6.721 -0.7160  1.3211 -1.4058
  127MOL0     H17459   1.103   6.155   6.793  0.1395 -0.9027 -0.4003
  127MOL0     H17460   1.024   6.082   6.932  0.3641  0.1633  0.4284
  127MOL0     H17461   0.882   6.128   6.720 -0.1707  0.8713 -1.3759
  127MOL0     H17462   0.973   5.992   6.656  3.7884  0.6543  2.5462
  127MOL0     H17463   0.881   5.827   6.803  0.3012  0.5565  0.3306
  127MOL0     H17464   0.828   5.954   6.908  2.2493  3.6910 -0.8996
  127MOL0     H17465   0.642   5.994   6.757  0.8460 -0.0255  4.0549
  127MOL0     H17466   0.712   5.902   6.620  2.2198 -2.2787 -0.7327
  127MOL0     H17467   0.627   5.750   6.868 -0.9931 -1.4370 -0.6695
  127MOL0     H17468   0.679   5.688   6.708 -0.4881  0.0516 -1.4235
  127MOL0     H17469   0.438   5.689   6.777 -2.4640 -1.3172 -4.2851
  127MOL0     H17470   0.440   5.866   6.736  2.8936  1.2899  1.8680
  127MOL0     H17471   0.520   5.615   6.564 -0.4715 -0.6345 -0.9123
  127MOL0     H17472   0.527   5.785   6.501  0.1620 -0.6769  0.2595
  127MOL0     H17473   0.320   5.685   6.414 -3.6700  1.4453 -0.8058
  127MOL0     H17474   0.268   5.641   6.582 -2.1952  2.8669  0.0750
  127MOL0     H17475   0.415   6.006   6.503  0.3914 -1.1071 -0.6546
  127MOL0     H17476   0.128   6.246   6.490  0.4740 -0.9842  3.0023
  127MOL0     H17477   0.248   6.219   6.363  1.7576 -1.5503 -0.1290
  127MOL0     H17478   0.354   6.208   6.638  0.9615  0.8691  0.5703
  127MOL0     H17479   0.425   6.313   6.512  1.0623 -0.6746  2.6014
  127MOL0     H17480   0.233   6.471   6.552 -0.6880 -0.9523 -0.9532
  127MOL0     H17481   0.181   6.363   6.681 -1.6225  1.6069 -1.6141
  127MOL0     H17482   0.310   6.533   6.798 -0.5847  0.1574 -0.5391
  127MOL0     H17483   0.416   6.386   6.790  0.3482 -1.1578  0.9575
  127MOL0     H17484   0.601   6.463   6.875 -0.9276 -0.8270 -0.8698
  127MOL0     H17485   0.958   6.502   6.948  1.8125 -1.1051 -3.6816
  127MOL0     H17486   0.864   6.345   6.964  1.3608  0.4021 -1.2547
  127MOL0     H17487   0.791   6.494   7.004 -0.7055 -0.1157  0.3597
  127MOL0     H17488   1.143   6.448   6.337 -0.1438 -1.8570 -2.6971
  127MOL0     H17489   1.337   6.330   6.243  0.3254  1.5320 -0.3931
  127MOL0     H17490   1.529   6.156   6.214  0.4922 -0.1111 -1.2299
  127MOL0     H17491   1.550   6.335   6.210 -0.2754  0.7821  2.2303
  127MOL0     H17492   1.784   6.311   6.295  1.7941 -2.1635  2.4621
  127MOL0     H17493   1.760   6.130   6.269 -1.3048 -0.4663 -1.4463
  127MOL0     H17494   1.877   6.293   6.082 -0.2655  0.6957  2.0141
  127MOL0     H17495   1.704   6.322   6.042 -0.9225 -0.0808  0.7874
  127MOL0     H17496   1.668   6.081   5.979  1.2845 -2.0882 -3.3250
  127MOL0     H17497   1.799   6.044   6.089 -0.1085  3.5439  3.5306
  127MOL0     H17498   1.945   6.180   5.923 -1.8797  2.4471  1.7404
  127MOL0     H17499   1.884   6.021   5.872 -2.4605  0.2982  0.0432
  127MOL0     H17500   1.880   6.170   5.681 -0.7682 -1.4505  0.4465
  127MOL0     H17501   1.767   6.279   5.765 -2.7647 -0.6585 -1.6758
  127MOL0     H17502   1.636   6.162   5.623  1.2604 -0.7796 -1.5888
  127MOL0     H17503   1.601   6.115   5.787  0.1732 -1.0502 -1.4708
  127MOL0     H17504   1.743   5.922   5.756  2.8239  1.1315 -0.5161
  127MOL0     H17505   1.772   5.954   5.585 -1.3262 -1.1545 -0.3561
  127MOL0     H17506   1.520   6.324   6.648 -0.8422 -2.3384  0.7156
  127MOL0     H17507   1.321   6.435   6.723 -1.0700  0.1227 -1.2087
  127MOL0     H17508   0.860   6.530   6.459  4.0989  1.3925  1.7339
  127MOL0     H17509   0.635   6.570   6.464  1.6938  2.2309  0.2632
  127MOL0     H17510   1.218   5.715   6.757  1.8771  1.4837  1.8639
  127MOL0     H17511   1.376   5.663   6.556  2.3941 -0.1557  0.1678
  127MOL0     H17512   1.784   5.778   6.436 -0.1273 -2.3577  0.6795
  127MOL0     H17513   1.972   5.696   6.338 -0.7377  1.2376  2.1896
  127MOL0     H17514   2.208   5.667   6.042 -1.5670  3.8473 -1.0191
  127MOL0     H17515   2.156   5.671   6.212  0.7387 -1.3323 -0.0328
  127MOL0     H17516   2.091   5.430   6.028  2.1427 -1.1762 -0.8196
  127MOL0     H17517   2.082   5.417   6.197 -0.4495  0.0638  1.1085
  127MOL0     H17518   2.333   5.516   6.136 -1.5093  2.0693  0.3123
  127MOL0     H17519   2.288   5.348   6.182  0.1793 -0.1519 -1.0018
  127MOL0     H17520   2.237   5.312   5.925 -0.6359  1.7108 -1.9166
  127MOL0     H17521   2.408   5.325   5.988  2.2856  3.5083 -3.4048
  127MOL0     H17522   2.362   5.667   5.732 -6.9275  0.6426 -0.0440
  127MOL0     H17523   1.784   5.723   5.950 -0.2074 -0.5002 -0.6672
  127MOL0     H17524   1.570   5.733   5.925 -0.9091 -1.5977 -0.5247
  127MOL0     H17525   1.458   5.719   6.058 -0.7871  0.4862 -1.7875
  127MOL0     H17526   1.512   5.878   6.009 -2.8409 -0.7833  2.3807
  128MOL0     O17527   9.188   0.091   8.366 -0.0277 -0.7894 -0.7158
  128MOL0     C17528   9.156  -0.025   8.350 -0.0701  0.4541 -0.0919
  128MOL0     O17529   9.148  -0.121   8.453  0.0092  0.5412 -0.1804
  128MOL0     C17530   9.158  -0.098   8.589 -0.7450 -0.0632  0.4139
  128MOL0     C17531   9.097  -0.201   8.671 -0.5691 -0.5615  0.3436
  128MOL0     C17532   9.117  -0.197   8.806 -0.0620 -0.3179  0.0669
  128MOL0     C17533   9.216  -0.108   8.857  0.8344 -0.7430 -0.4789
  128MOL0     O17534   9.238  -0.115   8.991 -0.0996 -0.2088 -0.1219
  128MOL0     C17535   9.359  -0.178   9.036  0.4665 -0.6411  0.4105
  128MOL0     C17536   9.342  -0.192   9.189 -0.4708  0.5366  0.1073
  128MOL0     C17537   9.319  -0.063   9.276 -0.8722 -0.6964 -0.2199
  128MOL0     C17538   9.340  -0.094   9.426 -0.3383  0.0321  0.4459
  128MOL0     C17539   9.360   0.019   9.511  0.0791 -0.1650  1.0852
  128MOL0     C17540   9.231   0.100   9.535 -0.4949 -0.3829 -0.9045
  128MOL0     C17541   9.235   0.186   9.661  0.6227 -0.2366 -0.8056
  128MOL0     C17542   9.123   0.293   9.650  0.0460 -0.3157  0.1341
  128MOL0     N17543   9.051   0.334   9.770  0.1081  0.1141 -0.6837
  128MOL0     C17544   9.096   0.420   9.872  0.3920 -0.8661 -0.7090
  128MOL0     C17545   8.988   0.445   9.952  0.3004  0.8791  0.8252
  128MOL0     C17546   8.966   0.523  10.079  0.0304  0.2413 -0.2396
  128MOL0     C17547   8.905   0.665  10.041 -0.7275  1.2701  0.5412
  128MOL0     C17548   8.884   0.746  10.162  0.1752  1.0316 -0.5066
  128MOL0     C17549   8.872   0.894  10.151 -0.8302  0.0159 -0.1525
  128MOL0     O17550   8.998   0.963  10.118 -0.0511 -0.4955 -0.8900
  128MOL0     C17551   9.001   1.101  10.142 -0.6563  0.9988 -0.6872
  128MOL0     C17552   8.897   1.191  10.154  0.2831 -0.6763 -0.1305
  128MOL0     C17553   8.924   1.331  10.169  0.3630  0.8460  0.2308
  128MOL0     C17554   8.803   1.412  10.194 -0.5408  0.8364 -0.4042
  128MOL0     C17555   9.054   1.381  10.153  0.5192  1.2646  0.0359
  128MOL0     C17556   9.074   1.517  10.147 -0.1035 -1.2583  0.0118
  128MOL0     O17557   9.121   1.577  10.034 -0.3899  0.6114 -0.4107
  128MOL0     C17558   9.160   1.712  10.014  0.4535  0.2147  0.2639
  128MOL0     C17559   9.228   1.728   9.893  0.3881 -0.1991 -0.0618
  128MOL0     C17560   9.290   1.851   9.866  1.2606 -0.2298 -0.1309
  128MOL0     C17561   9.283   1.951   9.952 -0.4115 -0.6163  0.1183
  128MOL0     O17562   9.350   2.063   9.920 -0.5194 -0.4816  0.3087
  128MOL0     C17563   9.429   2.126  10.025  0.1415  0.8152  0.8035
  128MOL0     C17564   9.515   2.231   9.966  0.4941  0.8942 -0.4988
  128MOL0     C17565   9.624   2.185   9.861  0.8167  0.0051 -0.1467
  128MOL0     C17566   9.723   2.093   9.920 -0.9930 -0.5333  0.0651
  128MOL0     C17567   9.817   2.031   9.825 -0.0595  0.3567  0.3007
  128MOL0     C17568   9.752   1.962   9.707 -0.1837  0.2632 -0.2468
  128MOL0     C17569   9.645   1.850   9.754 -0.2957  0.6606  0.2716
  128MOL0     C17570   9.588   1.752   9.658 -0.0594  0.4777  0.0831
  128MOL0    Cl17571   9.469   1.828   9.544 -0.4546  0.3792  0.5011
  128MOL0     C17572   9.214   1.942  10.069 -1.0607  0.0748 -0.0845
  128MOL0     C17573   9.164   1.819  10.103  0.7760  0.1341 -0.3724
  128MOL0     O17574   9.059   1.573  10.260 -0.5967 -0.1001  0.4621
  128MOL0     C17575   9.159   1.291  10.134  0.2664 -0.5135  0.8105
  128MOL0     C17576   9.128   1.160  10.128  0.8128  0.5233  0.2722
  128MOL0     N17577   8.881   0.379   9.893  0.4163 -1.1110  0.4489
  128MOL0     N17578   8.915   0.315   9.798  0.1912 -0.5423 -0.0628
  128MOL0     C17579   9.284  -0.019   8.777 -0.6837 -0.7017  0.1699
  128MOL0     C17580   9.255  -0.012   8.641  0.1333  0.4350 -0.4606
  128MOL0     C17581   9.132  -0.069   8.211 -0.3676  0.0098  0.3096
  128MOL0     C17582   9.135   0.032   8.112 -0.7744  0.5299  0.2886
  128MOL0     C17583   9.131   0.006   7.977  0.4922 -0.5985  0.0585
  128MOL0     C17584   9.095  -0.123   7.931  0.0221  0.0716 -0.6335
  128MOL0     O17585   9.100  -0.141   7.799  0.0063  0.4304  0.2605
  128MOL0     C17586   9.081  -0.282   7.750 -0.5749 -0.8665 -0.0585
  128MOL0     C17587   8.930  -0.314   7.743 -0.2625  0.4592  0.1360
  128MOL0     C17588   8.905  -0.465   7.720 -0.1911 -0.4167 -0.1731
  128MOL0     C17589   8.767  -0.511   7.770  0.4667 -0.8475  0.2361
  128MOL0     C17590   8.773  -0.559   7.910  0.1227  0.6714  0.7280
  128MOL0     C17591   8.786  -0.595   8.025  0.1365 -0.3866  0.2854
  128MOL0     C17592   9.087  -0.227   8.029  0.6275  0.5590  0.0101
  128MOL0     C17593   9.098  -0.200   8.169 -0.3793 -0.1837  0.9182
  128MOL0     C17594   9.058  -0.310   8.260  0.2669 -0.4309 -0.2353
  128MOL0     H17595   9.030  -0.273   8.625 -3.1607 -0.7402  3.9054
  128MOL0     H17596   9.067  -0.268   8.872 -3.2759  1.6801  0.0128
  128MOL0     H17597   9.441  -0.109   9.013 -1.0883  2.4624  3.3563
  128MOL0     H17598   9.371  -0.270   8.978  0.7561  0.2112 -0.9357
  128MOL0     H17599   9.260  -0.261   9.213  0.1175 -1.0795 -2.1889
  128MOL0     H17600   9.432  -0.242   9.225 -2.4702 -1.4405  2.7579
  128MOL0     H17601   9.391   0.012   9.241 -0.8883  0.5344  2.1924
  128MOL0     H17602   9.218  -0.030   9.249 -0.9564 -1.5963 -1.0918
  128MOL0     H17603   9.275  -0.172   9.467 -0.8895  1.3344  2.1641
  128MOL0     H17604   9.441  -0.135   9.428 -0.3728 -0.1080 -0.3270
  128MOL0     H17605   9.436   0.085   9.468 -0.1603 -0.6924 -0.1993
  128MOL0     H17606   9.397  -0.005   9.611 -2.5170 -3.3182  1.4553
  128MOL0     H17607   9.216   0.161   9.446  0.3806 -1.9743 -2.1930
  128MOL0     H17608   9.151   0.029   9.562 -0.3388 -1.2479 -2.5690
  128MOL0     H17609   9.330   0.235   9.685  0.0631  0.1121  0.7797
  128MOL0     H17610   9.216   0.125   9.749  3.9785  1.7623  1.5119
  128MOL0     H17611   9.166   0.379   9.597 -1.8939  0.6198 -0.0163
  128MOL0     H17612   9.046   0.259   9.581  0.2503 -2.3245  0.8379
  128MOL0     H17613   9.199   0.452   9.882  0.3419 -1.0266  0.4056
  128MOL0     H17614   9.057   0.530  10.139  0.3119 -0.0309 -0.6271
  128MOL0     H17615   8.898   0.455  10.131  1.3019 -4.7772 -4.2756
  128MOL0     H17616   8.974   0.712   9.971 -2.0913 -0.6184 -2.2262
  128MOL0     H17617   8.816   0.645   9.982  0.4810 -2.0699 -0.3828
  128MOL0     H17618   8.791   0.712  10.209  0.6442  3.0876  2.1644
  128MOL0     H17619   8.968   0.730  10.230  0.1743 -0.8872 -0.8918
  128MOL0     H17620   8.789   0.916  10.083  0.7213 -1.2033 -2.5717
  128MOL0     H17621   8.839   0.936  10.247  1.6418  1.7733  0.0282
  128MOL0     H17622   8.792   1.163  10.156  0.0617  0.1365 -0.1409
  128MOL0     H17623   8.837   1.494  10.258  1.9243  0.9478 -1.6932
  128MOL0     H17624   8.723   1.350  10.235 -0.8324  0.0943 -2.0090
  128MOL0     H17625   8.760   1.453  10.102 -0.4898  0.6668 -0.5044
  128MOL0     H17626   9.222   1.643   9.826  0.4425  0.9640 -1.6006
  128MOL0     H17627   9.350   1.865   9.777  2.3866 -0.3373  0.5907
  128MOL0     H17628   9.362   2.178  10.094 -2.0426 -0.6975 -0.0830
  128MOL0     H17629   9.491   2.048  10.070 -0.5083 -0.5457 -0.5725
  128MOL0     H17630   9.461   2.314   9.920 -2.9109 -1.3451 -0.9095
  128MOL0     H17631   9.566   2.276  10.051  1.9023 -1.0664 -0.2225
  128MOL0     H17632   9.676   2.276   9.829 -0.5541  0.9907  0.3135
  128MOL0     H17633   9.574   2.130   9.781  2.7399 -2.7513  0.3814
  128MOL0     H17634   9.672   2.011   9.971 -0.2245 -0.9839  0.1238
  128MOL0     H17635   9.788   2.161   9.976 -1.3542  2.9446 -3.3154
  128MOL0     H17636   9.889   2.099   9.779  0.3853 -0.5906 -0.4449
  128MOL0     H17637   9.870   1.966   9.895  0.3387  0.5104  0.1443
  128MOL0     H17638   9.826   1.916   9.642  1.4133  1.0631  0.9339
  128MOL0     H17639   9.696   2.033   9.644  0.2321 -0.6072 -1.6305
  128MOL0     H17640   9.570   1.897   9.818  0.4686  1.5094  0.5591
  128MOL0     H17641   9.706   1.795   9.826 -0.3496  2.5980  1.8858
  128MOL0     H17642   9.531   1.669   9.700  0.9613 -1.2218 -1.7010
  128MOL0     H17643   9.674   1.702   9.611  1.0370  1.5475  0.8962
  128MOL0     H17644   9.211   2.028  10.134 -2.2170  0.7060 -0.9393
  128MOL0     H17645   9.117   1.818  10.200  2.3429 -0.0052  0.4229
  128MOL0     H17646   9.260   1.330  10.124  0.2187 -0.0777  1.9067
  128MOL0     H17647   9.209   1.091  10.105 -0.2388  0.1489 -2.7705
  128MOL0     H17648   9.351   0.059   8.812 -0.7958  0.4017 -1.9300
  128MOL0     H17649   9.297   0.066   8.579 -2.7516  0.9673 -1.9342
  128MOL0     H17650   9.143   0.138   8.132  3.7768  0.5112 -0.4039
  128MOL0     H17651   9.165   0.091   7.920 -2.9608  1.3546  0.6439
  128MOL0     H17652   9.111  -0.301   7.647  1.3003  0.9462  0.0629
  128MOL0     H17653   9.125  -0.360   7.813 -1.3650 -0.6750  0.7554
  128MOL0     H17654   8.883  -0.251   7.667 -2.1737  1.8289  2.3398
  128MOL0     H17655   8.872  -0.294   7.834 -1.4212  1.0001 -0.6870
  128MOL0     H17656   8.910  -0.483   7.612  1.3287 -1.9062  0.0840
  128MOL0     H17657   8.982  -0.524   7.771 -0.2752  0.8925  1.5517
  128MOL0     H17658   8.731  -0.593   7.707 -0.9790  0.3159 -0.5318
  128MOL0     H17659   8.690  -0.434   7.756  2.4530  1.2154  0.2094
  128MOL0     H17660   8.808  -0.621   8.126  4.9219 -0.2913 -0.5165
  128MOL0     H17661   9.068  -0.330   8.003  3.4895  0.1136 -0.6648
  128MOL0     H17662   8.998  -0.278   8.346 -2.4550  1.2894 -2.5823
  128MOL0     H17663   8.988  -0.372   8.203 -0.2039  0.4529 -0.6323
  128MOL0     H17664   9.146  -0.367   8.290 -1.7310 -2.2969  2.5602
  129MOL0     O17665   0.678   7.360  10.769 -0.2651 -0.4571 -0.5632
  129MOL0     C17666   0.794   7.330  10.758  1.1588  0.1736 -0.1246
  129MOL0     O17667   0.844   7.228  10.828  0.0421  0.2217  0.2131
  129MOL0     C17668   0.774   7.141  10.907 -0.2764  0.3095 -0.1388
  129MOL0     C17669   0.662   7.082  10.874  0.1344  0.1319  0.9359
  129MOL0     C17670   0.597   6.979  10.950 -0.1671  0.2268 -0.0876
  129MOL0     C17671   0.665   6.928  11.061  0.3569  0.0140  0.3847
  129MOL0     O17672   0.618   6.828  11.144 -0.5957  0.1203 -0.6662
  129MOL0     C17673   0.479   6.792  11.147  0.7563  0.1090  0.7174
  129MOL0     C17674   0.469   6.656  11.220  0.1194 -0.7362  0.2970
  129MOL0     C17675   0.515   6.659  11.359  0.0063 -0.2851 -1.2285
  129MOL0     C17676   0.455   6.543  11.445 -0.2090  0.4426  0.0162
  129MOL0     C17677   0.478   6.560  11.592 -0.5478  0.0489  0.0162
  129MOL0     C17678   0.399   6.458  11.670  0.0743 -0.1293  0.2121
  129MOL0     C17679   0.441   6.460  11.814 -0.2540 -0.0685 -0.3531
  129MOL0     C17680   0.374   6.344  11.900  0.7947  0.0141  1.2575
  129MOL0     N17681   0.227   6.337  11.877 -0.1757  0.2858 -0.5468
  129MOL0     C17682   0.153   6.247  11.807 -1.1633 -0.9390  0.0874
  129MOL0     C17683   0.028   6.295  11.818 -0.1437 -0.2389  0.7794
  129MOL0     C17684  -0.100   6.231  11.769  0.0794 -0.6230  0.3841
  129MOL0     C17685  -0.181   6.204  11.897 -0.8896  1.5647 -0.1389
  129MOL0     C17686  -0.310   6.127  11.867  0.4683  0.9682  0.6927
  129MOL0     C17687  -0.368   6.076  12.003  0.6204 -0.3750  0.3006
  129MOL0     O17688  -0.453   5.968  11.972 -0.1048 -0.1045 -0.0184
  129MOL0     C17689  -0.541   5.918  12.063  0.4458  0.4269  0.7239
  129MOL0     C17690  -0.584   5.978  12.184 -0.5382  0.5180  0.8208
  129MOL0     C17691  -0.682   5.925  12.264 -0.1708 -0.2975  0.0927
  129MOL0     C17692  -0.734   6.019  12.378 -0.5974  0.6030  0.4522
  129MOL0     C17693  -0.724   5.791  12.244  0.5300 -0.0144 -0.1645
  129MOL0     C17694  -0.798   5.715  12.342  0.1370  0.3704 -0.2465
  129MOL0     O17695  -0.817   5.585  12.301 -0.0619 -0.1466 -0.5881
  129MOL0     C17696  -0.849   5.480  12.393  0.7047 -0.1893  0.8524
  129MOL0     C17697  -0.799   5.473  12.524  0.0124  0.0518 -1.4917
  129MOL0     C17698  -0.843   5.367  12.609  0.2228  0.8572  0.9299
  129MOL0     C17699  -0.935   5.272  12.564  0.5278 -0.3583  0.2976
  129MOL0     O17700  -0.965   5.161  12.643  0.0562  0.3392  0.9358
  129MOL0     C17701  -1.042   5.182  12.765  0.0009  0.0944 -0.6467
  129MOL0     C17702  -1.175   5.105  12.787  0.1244  0.5286 -0.0191
  129MOL0     C17703  -1.156   4.957  12.823  0.2791  0.3526  1.0570
  129MOL0     C17704  -1.284   4.869  12.779  0.2222  0.1894  1.0348
  129MOL0     C17705  -1.412   4.933  12.840 -0.0444 -0.0297  0.1182
  129MOL0     C17706  -1.533   4.840  12.848  0.0361  0.5810 -0.5015
  129MOL0     C17707  -1.640   4.915  12.922 -0.2863 -0.3176 -0.6129
  129MOL0     C17708  -1.774   4.848  12.936  0.1232 -0.3059 -0.8907
  129MOL0    Cl17709  -1.741   4.686  12.998  0.3988 -0.2147 -0.0703
  129MOL0     C17710  -0.985   5.281  12.435  0.3740 -0.1681  0.4061
  129MOL0     C17711  -0.940   5.379  12.345 -0.6542  0.6426  0.4464
  129MOL0     O17712  -0.844   5.759  12.444  0.2101  0.2121  0.9776
  129MOL0     C17713  -0.678   5.735  12.126 -0.3012 -0.1311  0.6053
  129MOL0     C17714  -0.594   5.790  12.039  0.8653 -0.5625 -0.4232
  129MOL0     N17715   0.027   6.411  11.883  0.2552  0.5656 -0.5024
  129MOL0     N17716   0.144   6.431  11.918  0.1413 -1.3857  0.4360
  129MOL0     C17717   0.790   6.982  11.090  0.0434 -1.2140 -0.1489
  129MOL0     C17718   0.840   7.081  11.019 -0.5153 -1.0713 -0.1365
  129MOL0     C17719   0.882   7.375  10.652 -1.0620 -0.2021  0.2913
  129MOL0     C17720   1.014   7.410  10.686  0.0182 -0.4118 -0.2639
  129MOL0     C17721   1.099   7.464  10.593 -0.1424 -0.6778  0.1149
  129MOL0     C17722   1.058   7.485  10.463 -0.0373  0.8863  0.0837
  129MOL0     O17723   1.156   7.546  10.394  0.0215  0.0498  0.1757
  129MOL0     C17724   1.150   7.576  10.261  0.4588  0.3448  0.1977
  129MOL0     C17725   1.081   7.713  10.256  0.8516  0.3523  0.4842
  129MOL0     C17726   1.060   7.786  10.117  0.0233 -0.1129 -0.4274
  129MOL0     C17727   1.195   7.789  10.035 -0.9084 -0.0573  0.6549
  129MOL0     C17728   1.303   7.864  10.093 -0.2289  0.4958 -0.2098
  129MOL0     C17729   1.390   7.926  10.147 -0.3599 -1.3070  0.1487
  129MOL0     C17730   0.923   7.469  10.431  0.0538  0.3830 -0.4932
  129MOL0     C17731   0.833   7.409  10.525 -0.3233  0.4171  0.6834
  129MOL0     C17732   0.699   7.379  10.474  0.0128 -0.9693  0.3397
  129MOL0     H17733   0.607   7.119  10.788 -0.8712  0.4351  1.6863
  129MOL0     H17734   0.499   6.950  10.915 -1.3599  3.4209  0.2272
  129MOL0     H17735   0.444   6.785  11.044  3.1833 -0.5678 -0.1266
  129MOL0     H17736   0.441   6.876  11.206 -0.2095  1.2783 -1.4615
  129MOL0     H17737   0.362   6.633  11.215 -0.8156  2.3714  2.5529
  129MOL0     H17738   0.536   6.590  11.165  4.2933  0.3742  3.5177
  129MOL0     H17739   0.624   6.662  11.353  0.2003  1.4908  1.5003
  129MOL0     H17740   0.477   6.750  11.406  0.0964 -0.7847 -0.1561
  129MOL0     H17741   0.348   6.566  11.441  0.0421  1.9284  0.9463
  129MOL0     H17742   0.491   6.450  11.399  1.7762  1.3115 -0.2774
  129MOL0     H17743   0.432   6.655  11.620 -1.3272 -0.0338 -0.9239
  129MOL0     H17744   0.585   6.557  11.614 -0.5403  7.2534  4.1858
  129MOL0     H17745   0.292   6.475  11.659 -0.0300 -0.2031  1.0550
  129MOL0     H17746   0.421   6.361  11.626 -0.7467  0.6505 -2.0201
  129MOL0     H17747   0.405   6.553  11.860  0.4174 -0.1419  0.3462
  129MOL0     H17748   0.547   6.440  11.830  0.0782  0.2897 -1.9034
  129MOL0     H17749   0.412   6.242  11.900 -0.1108 -0.3459  0.5948
  129MOL0     H17750   0.380   6.379  12.003 -0.0135 -0.6064  1.5251
  129MOL0     H17751   0.177   6.150  11.765 -1.5980 -1.3162  0.6891
  129MOL0     H17752  -0.090   6.132  11.724  1.8347 -0.1008 -0.4904
  129MOL0     H17753  -0.164   6.289  11.701  0.8841 -1.6142 -1.2925
  129MOL0     H17754  -0.119   6.150  11.969 -1.7175  0.0904 -0.4763
  129MOL0     H17755  -0.202   6.295  11.954  2.2906  1.9838  0.5061
  129MOL0     H17756  -0.381   6.168  11.794  0.9334 -0.7473 -0.8080
  129MOL0     H17757  -0.268   6.044  11.810  0.2820  2.9277 -2.5846
  129MOL0     H17758  -0.296   6.051  12.081 -1.6556 -1.6735  2.1233
  129MOL0     H17759  -0.426   6.156  12.049 -1.3750 -1.7157  0.2180
  129MOL0     H17760  -0.546   6.077  12.210 -0.1625  0.4951  0.3738
  129MOL0     H17761  -0.842   6.028  12.371 -0.6716  0.5607  1.4103
  129MOL0     H17762  -0.683   6.116  12.377 -0.5912  0.6662 -3.0551
  129MOL0     H17763  -0.700   5.983  12.475  0.5677  2.1304  0.6640
  129MOL0     H17764  -0.728   5.545  12.563  3.1456 -2.5921 -1.8511
  129MOL0     H17765  -0.819   5.360  12.714  0.4837 -0.9835  0.7809
  129MOL0     H17766  -0.969   5.160  12.844 -1.8172  1.0255  1.4090
  129MOL0     H17767  -1.061   5.290  12.766  2.0556  0.4907 -0.9465
  129MOL0     H17768  -1.237   5.158  12.860 -4.2408  0.7709 -3.4948
  129MOL0     H17769  -1.225   5.119  12.691  1.8380 -1.4444 -1.2773
  129MOL0     H17770  -1.152   4.945  12.932 -0.2515  2.4800  1.3578
  129MOL0     H17771  -1.065   4.915  12.780 -1.9303 -1.7439 -2.0375
  129MOL0     H17772  -1.271   4.763  12.805 -3.3909 -0.3724  0.9517
  129MOL0     H17773  -1.297   4.866  12.670 -1.6065 -1.7524  1.2373
  129MOL0     H17774  -1.394   4.971  12.941  0.2022  2.4594 -0.7985
  129MOL0     H17775  -1.440   5.018  12.778 -0.1393 -0.8567 -0.9861
  129MOL0     H17776  -1.496   4.749  12.894  3.0803  0.2640 -3.2185
  129MOL0     H17777  -1.564   4.802  12.750 -0.7416 -0.0550 -0.0235
  129MOL0     H17778  -1.660   5.014  12.880 -3.3721 -0.3888  0.4503
  129MOL0     H17779  -1.600   4.926  13.023  1.5812  1.3947 -1.4785
  129MOL0     H17780  -1.829   4.849  12.842  0.3420  0.9017 -1.0214
  129MOL0     H17781  -1.837   4.913  12.997  1.4275  1.7657 -1.6592
  129MOL0     H17782  -1.046   5.198  12.400  2.7926 -2.4311  1.2247
  129MOL0     H17783  -0.973   5.380  12.241  1.7593 -0.2059 -0.4025
  129MOL0     H17784  -0.705   5.632  12.106 -2.0913  0.7787 -2.3496
  129MOL0     H17785  -0.540   5.726  11.970  0.1201 -0.2816 -1.2914
  129MOL0     H17786   0.844   6.937  11.173 -2.3495 -0.5187  1.8944
  129MOL0     H17787   0.936   7.122  11.050 -1.4403  0.2976  1.0544
  129MOL0     H17788   1.046   7.373  10.783 -2.1135 -1.3987  0.1311
  129MOL0     H17789   1.200   7.497  10.617  0.4602 -0.8398 -2.0188
  129MOL0     H17790   1.248   7.593  10.215 -0.1779  0.7673 -1.0557
  129MOL0     H17791   1.087   7.505  10.206  1.6993  1.4319 -2.8721
  129MOL0     H17792   1.135   7.780  10.324  1.3205 -0.5820  1.0506
  129MOL0     H17793   0.977   7.707  10.288  0.1774  2.2869 -1.1451
  129MOL0     H17794   0.980   7.731  10.065  0.7644 -0.6310 -1.0524
  129MOL0     H17795   1.030   7.890  10.133  2.5252  1.4046 -4.1860
  129MOL0     H17796   1.163   7.828   9.938  0.7945  0.9680  0.4681
  129MOL0     H17797   1.224   7.684  10.021 -0.0624  0.2290  0.1573
  129MOL0     H17798   1.455   7.964  10.223 -1.2250  3.7120 -1.2569
  129MOL0     H17799   0.888   7.501  10.333 -0.0834  0.1245 -0.5310
  129MOL0     H17800   0.693   7.424  10.375  2.6607  2.2545  1.4653
  129MOL0     H17801   0.682   7.271  10.472 -0.0026 -1.0117  1.7505
  129MOL0     H17802   0.627   7.423  10.545 -1.0741 -0.3715 -1.0821
  130MOL0     O17803   3.806  10.664   0.133  0.0225 -0.2670 -0.5760
  130MOL0     C17804   3.839  10.757   0.062  0.0816 -0.4356 -0.4865
  130MOL0     O17805   3.773  10.801  -0.047  0.2949  0.3498  0.6606
  130MOL0     C17806   3.672  10.724  -0.094  0.0672  0.3664 -0.5276
  130MOL0     C17807   3.695  10.673  -0.217 -0.6063  0.0267 -0.5901
  130MOL0     C17808   3.591  10.610  -0.278 -0.2033  0.1899  0.9214
  130MOL0     C17809   3.456  10.607  -0.228 -0.7567  0.4179 -0.4091
  130MOL0     O17810   3.351  10.563  -0.296  0.0483 -0.0583 -0.1067
  130MOL0     C17811   3.361  10.422  -0.341  0.3114 -0.6085 -0.3326
  130MOL0     C17812   3.223  10.381  -0.377  0.0280 -0.2697 -0.3426
  130MOL0     C17813   3.147  10.464  -0.487 -0.6148 -0.2785 -0.2778
  130MOL0     C17814   2.994  10.478  -0.468 -0.2352 -0.6415  0.0088
  130MOL0     C17815   2.908  10.410  -0.572  0.8784 -0.0647  0.4101
  130MOL0     C17816   2.944  10.265  -0.579  0.2910 -0.7844 -0.0346
  130MOL0     C17817   2.816  10.173  -0.602 -0.3666 -0.6294 -0.9015
  130MOL0     C17818   2.744  10.155  -0.467  0.5057 -0.5106 -0.1934
  130MOL0     N17819   2.800  10.092  -0.358 -0.6511 -0.3502  0.4610
  130MOL0     C17820   2.882   9.981  -0.382 -0.1178 -0.0414 -0.3904
  130MOL0     C17821   2.900   9.945  -0.248 -1.0912  0.3441  0.3403
  130MOL0     C17822   3.000   9.839  -0.190  1.0995 -1.1056 -0.3492
  130MOL0     C17823   3.134   9.906  -0.165 -0.3474 -0.0284 -1.1544
  130MOL0     C17824   3.199   9.972  -0.280 -1.2059 -0.6743 -0.4741
  130MOL0     C17825   3.333  10.041  -0.228 -0.2063  0.0971 -0.2138
  130MOL0     O17826   3.416  10.051  -0.344 -0.2932 -0.2745 -0.4565
  130MOL0     C17827   3.530  10.127  -0.339 -0.0009  0.2190  0.7264
  130MOL0     C17828   3.576  10.150  -0.466 -1.2235 -0.5203  1.1544
  130MOL0     C17829   3.697  10.229  -0.481  0.8205 -0.4124 -0.5373
  130MOL0     C17830   3.742  10.249  -0.620  0.3426  0.1619  0.4860
  130MOL0     C17831   3.756  10.291  -0.376  0.2057 -0.7103 -0.1364
  130MOL0     C17832   3.888  10.370  -0.386  0.8889 -0.1094  0.6066
  130MOL0     O17833   3.963  10.369  -0.272 -0.2883 -0.2765  1.1537
  130MOL0     C17834   4.081  10.441  -0.279 -0.1170  0.8940  1.1187
  130MOL0     C17835   4.088  10.581  -0.311  0.0679  0.2492 -0.5810
  130MOL0     C17836   4.205  10.649  -0.313 -0.1819  0.6523 -0.4971
  130MOL0     C17837   4.327  10.582  -0.287  0.1345  0.1469 -0.6853
  130MOL0     O17838   4.442  10.653  -0.293  0.3239  0.4547 -0.3984
  130MOL0     C17839   4.466  10.722  -0.415 -1.3460 -0.3148  0.4732
  130MOL0     C17840   4.610  10.736  -0.432 -0.6953  1.6022 -0.4075
  130MOL0     C17841   4.646  10.814  -0.555 -0.3320  0.0116 -0.6103
  130MOL0     C17842   4.797  10.843  -0.549  1.1150 -0.3903  0.2311
  130MOL0     C17843   4.829  10.966  -0.645  0.3537  0.6522 -0.7110
  130MOL0     C17844   4.979  10.954  -0.666 -0.6455 -0.7819  0.0357
  130MOL0     C17845   5.068  11.030  -0.564  0.1330 -1.2145 -0.7702
  130MOL0     C17846   5.213  11.019  -0.594 -0.2498  2.0587  0.1614
  130MOL0    Cl17847   5.272  10.852  -0.566  0.3920  0.0940  0.1761
  130MOL0     C17848   4.326  10.445  -0.252 -0.2916 -0.1689 -0.0965
  130MOL0     C17849   4.204  10.375  -0.243  0.6101  0.6222  0.0933
  130MOL0     O17850   3.910  10.448  -0.481 -0.0232  0.3660  0.3989
  130MOL0     C17851   3.695  10.271  -0.243  0.3025  0.4199  0.0909
  130MOL0     C17852   3.595  10.184  -0.227  1.0471  0.0933  0.4736
  130MOL0     N17853   2.830  10.012  -0.162  0.1584 -0.1484  0.1778
  130MOL0     N17854   2.759  10.092  -0.230  0.3935  0.3042 -0.3435
  130MOL0     C17855   3.436  10.673  -0.100 -0.7312 -0.3084 -0.5141
  130MOL0     C17856   3.549  10.733  -0.029 -1.1582 -0.7989  0.3769
  130MOL0     C17857   3.966  10.837   0.096  0.1848  0.3999 -0.7598
  130MOL0     C17858   3.972  10.975   0.125  0.0954  0.1637  0.5847
  130MOL0     C17859   4.088  11.041   0.150  0.1820  0.3206  0.6381
  130MOL0     C17860   4.207  10.973   0.164 -0.9891 -0.4062 -0.5553
  130MOL0     O17861   4.313  11.048   0.192 -0.2288 -0.0125 -0.3941
  130MOL0     C17862   4.429  10.980   0.234  0.2375 -0.0110 -0.4464
  130MOL0     C17863   4.526  11.070   0.303 -1.0155 -0.7688 -0.1924
  130MOL0     C17864   4.561  11.204   0.235 -0.1174 -0.5215 -0.0433
  130MOL0     C17865   4.476  11.333   0.268  0.3593 -1.1963  0.3059
  130MOL0     C17866   4.480  11.369   0.407  0.6679 -0.0423 -0.8294
  130MOL0     C17867   4.491  11.399   0.529  0.2184 -0.1919 -0.0628
  130MOL0     C17868   4.206  10.831   0.155 -0.1008 -0.1051  0.7716
  130MOL0     C17869   4.086  10.768   0.109 -0.0799  0.0025  1.3053
  130MOL0     C17870   4.088  10.621   0.070 -0.7468  0.1264  0.4127
  130MOL0     H17871   3.792  10.691  -0.263 -0.1994  0.7098  0.4719
  130MOL0     H17872   3.603  10.569  -0.378  2.3421  1.6787  0.5381
  130MOL0     H17873   3.409  10.375  -0.255  0.9544  0.0398 -0.3209
  130MOL0     H17874   3.422  10.426  -0.431  1.5437 -0.6404  0.4876
  130MOL0     H17875   3.222  10.275  -0.404 -0.4106 -0.1595 -0.7664
  130MOL0     H17876   3.171  10.392  -0.281 -0.5041  0.6974 -0.7214
  130MOL0     H17877   3.191  10.563  -0.473 -1.6993 -0.2334  4.6885
  130MOL0     H17878   3.181  10.426  -0.584 -0.5649  3.2688 -1.8093
  130MOL0     H17879   2.957  10.423  -0.381 -0.5919 -1.1669 -0.4690
  130MOL0     H17880   2.969  10.585  -0.465 -0.0605 -0.5855  3.8383
  130MOL0     H17881   2.924  10.461  -0.668  0.5194 -2.3683 -0.9651
  130MOL0     H17882   2.801  10.428  -0.560  1.1777  0.5653  2.5082
  130MOL0     H17883   3.025  10.253  -0.651 -0.1956 -0.4703 -0.6489
  130MOL0     H17884   2.980  10.235  -0.480  0.8492  0.2869  0.0992
  130MOL0     H17885   2.835  10.071  -0.637 -1.6979  0.0500 -3.8752
  130MOL0     H17886   2.760  10.224  -0.681 -1.1300 -1.9862 -1.2796
  130MOL0     H17887   2.716  10.249  -0.420  0.4349 -0.3635 -0.5264
  130MOL0     H17888   2.653  10.102  -0.496  0.6094 -1.2706  0.8253
  130MOL0     H17889   2.932   9.941  -0.469  0.2974 -1.3945  0.4351
  130MOL0     H17890   3.013   9.751  -0.254  0.1305 -0.5739 -1.3045
  130MOL0     H17891   2.969   9.796  -0.094  1.8204 -2.4140 -0.6801
  130MOL0     H17892   3.129   9.991  -0.096 -0.7744  1.5183 -2.9965
  130MOL0     H17893   3.197   9.836  -0.110 -2.5707 -0.1762  1.4586
  130MOL0     H17894   3.223   9.897  -0.356 -1.2850 -0.8195 -0.3538
  130MOL0     H17895   3.137  10.050  -0.325 -0.5876 -0.1676 -0.4736
  130MOL0     H17896   3.314  10.137  -0.179  0.4612  0.3544 -0.4552
  130MOL0     H17897   3.397   9.983  -0.161  0.7401 -2.1599 -2.8595
  130MOL0     H17898   3.533  10.098  -0.551  0.6036  0.1339 -0.2398
  130MOL0     H17899   3.846  10.215  -0.622  1.0869  2.2082 -2.3916
  130MOL0     H17900   3.737  10.356  -0.642 -0.4617  0.6165  2.5957
  130MOL0     H17901   3.690  10.185  -0.692  0.7287 -0.0924  0.4313
  130MOL0     H17902   4.008  10.630  -0.365  1.9928  0.8577 -3.1045
  130MOL0     H17903   4.202  10.756  -0.331 -1.1578  0.8602  0.7875
  130MOL0     H17904   4.430  10.656  -0.495 -0.2331  0.5956 -0.8088
  130MOL0     H17905   4.423  10.822  -0.418  1.3307  0.9370 -2.9561
  130MOL0     H17906   4.648  10.782  -0.341  0.3331  2.1571 -1.0933
  130MOL0     H17907   4.650  10.634  -0.436 -1.3009  1.1580  2.7882
  130MOL0     H17908   4.579  10.900  -0.559  0.4786  0.6643 -0.4046
  130MOL0     H17909   4.625  10.752  -0.643 -3.0692  1.8932 -1.4019
  130MOL0     H17910   4.853  10.758  -0.590 -1.4950 -1.1589 -2.0851
  130MOL0     H17911   4.837  10.857  -0.448  1.5976 -1.6091  0.2260
  130MOL0     H17912   4.768  10.972  -0.736 -0.5335  0.6133 -0.1296
  130MOL0     H17913   4.813  11.057  -0.587  4.8444 -0.3986  2.7499
  130MOL0     H17914   5.009  11.011  -0.755  1.8590 -1.5296  0.3043
  130MOL0     H17915   5.019  10.854  -0.685 -0.9578 -0.6095 -1.7192
  130MOL0     H17916   5.051  10.989  -0.464 -1.1678  3.3924  1.1444
  130MOL0     H17917   5.046  11.137  -0.565 -0.0017 -1.2417 -1.4134
  130MOL0     H17918   5.268  11.088  -0.529  3.3107 -2.3368  2.3716
  130MOL0     H17919   5.227  11.049  -0.698 -2.3207 -0.7311 -1.0427
  130MOL0     H17920   4.415  10.389  -0.225 -1.5610 -1.6001  1.3579
  130MOL0     H17921   4.191  10.280  -0.192 -2.9875  2.0733  2.2971
  130MOL0     H17922   3.738  10.317  -0.154  1.5660 -0.8564  0.1726
  130MOL0     H17923   3.539  10.180  -0.135 -0.7840 -1.6567 -0.6225
  130MOL0     H17924   3.339  10.681  -0.051  0.7054 -1.6075  2.8453
  130MOL0     H17925   3.532  10.795   0.059 -0.0334  2.1191 -1.3416
  130MOL0     H17926   3.877  11.027   0.124  1.4357  2.7893  0.1416
  130MOL0     H17927   4.081  11.149   0.163  0.9727  0.9218 -2.8745
  130MOL0     H17928   4.396  10.909   0.310 -3.3457  1.2264 -0.6241
  130MOL0     H17929   4.479  10.928   0.152 -1.7088 -1.4574 -0.7933
  130MOL0     H17930   4.615  11.008   0.289  0.5301  0.8426  1.7968
  130MOL0     H17931   4.500  11.082   0.409 -1.6695  1.4412 -0.5672
  130MOL0     H17932   4.666  11.220   0.262  0.1976 -2.6806  0.1616
  130MOL0     H17933   4.562  11.192   0.126 -0.5943 -2.5105  0.1371
  130MOL0     H17934   4.371  11.321   0.238  0.2423 -0.3540  0.3728
  130MOL0     H17935   4.509  11.421   0.211 -1.8523 -1.4226 -1.4762
  130MOL0     H17936   4.504  11.431   0.630 -1.8651  2.9000 -0.6203
  130MOL0     H17937   4.296  10.773   0.171  1.2175  1.6444  0.0397
  130MOL0     H17938   4.039  10.599  -0.025  3.7797 -2.4784 -1.6477
  130MOL0     H17939   4.189  10.590   0.043 -0.1516  2.4611 -0.2627
  130MOL0     H17940   4.044  10.555   0.146 -0.1831 -3.5926 -2.2370
  131MOL0     O17941   1.570   4.855   6.011 -0.2010  0.5891  0.2766
  131MOL0     C17942   1.561   4.793   5.902 -0.0824 -0.3986  0.2428
  131MOL0     O17943   1.576   4.850   5.778  0.3619  0.3158  0.3530
  131MOL0     C17944   1.655   4.962   5.760 -0.1228 -0.4710 -0.3257
  131MOL0     C17945   1.610   5.045   5.654  0.1219 -0.3101  0.5779
  131MOL0     C17946   1.674   5.158   5.612 -0.2144  0.2841 -0.1576
  131MOL0     C17947   1.784   5.202   5.679 -0.6261  0.1971  0.2062
  131MOL0     O17948   1.826   5.341   5.661  0.5533 -0.0953  0.0138
  131MOL0     C17949   1.910   5.403   5.756 -0.2208 -0.5934 -0.3678
  131MOL0     C17950   1.913   5.551   5.724 -0.3872 -0.9538  0.4526
  131MOL0     C17951   1.991   5.583   5.588 -0.8696  0.5439 -0.9887
  131MOL0     C17952   1.995   5.733   5.553 -0.5549 -0.0588 -0.0049
  131MOL0     C17953   2.040   5.752   5.410  0.0250  0.0570  0.7147
  131MOL0     C17954   2.038   5.901   5.379 -0.0481  0.4712  0.7927
  131MOL0     C17955   1.918   5.946   5.289  0.6166  0.0275  0.1004
  131MOL0     C17956   1.900   6.092   5.253  0.7516 -0.4197  0.9761
  131MOL0     N17957   1.776   6.105   5.179 -0.0549  0.0737 -0.3021
  131MOL0     C17958   1.780   6.137   5.044  1.4365  0.1844 -0.5421
  131MOL0     C17959   1.653   6.177   5.017  0.6614 -0.5869  0.1807
  131MOL0     C17960   1.581   6.221   4.882 -0.7248  0.0234 -0.0005
  131MOL0     C17961   1.465   6.136   4.823 -0.4819  0.4801  0.3743
  131MOL0     C17962   1.379   6.073   4.929  0.0973  0.2261  0.9690
  131MOL0     C17963   1.262   5.994   4.867  0.0586  1.0079 -0.7382
  131MOL0     O17964   1.176   5.945   4.976  0.0014 -0.4923  0.6928
  131MOL0     C17965   1.045   5.911   4.943  0.5142  0.2376 -0.0674
  131MOL0     C17966   1.003   5.888   4.812  0.5572  0.1529  0.0608
  131MOL0     C17967   0.869   5.844   4.786 -1.0856 -0.5345  0.0444
  131MOL0     C17968   0.814   5.820   4.649  0.4840  0.3235  0.4115
  131MOL0     C17969   0.784   5.828   4.896  0.5806  0.2479  0.3442
  131MOL0     C17970   0.650   5.765   4.900  0.5693 -0.4063 -0.1074
  131MOL0     O17971   0.559   5.806   4.995 -0.3235  0.0113 -0.3518
  131MOL0     C17972   0.443   5.739   5.014 -0.1390 -0.5063 -0.1064
  131MOL0     C17973   0.427   5.603   5.059 -0.4081  0.6248  0.1371
  131MOL0     C17974   0.301   5.546   5.075 -0.5174  0.7303  0.3186
  131MOL0     C17975   0.190   5.614   5.032  0.1597  0.2248 -0.0903
  131MOL0     O17976   0.064   5.558   5.033  0.4143 -0.1763 -0.3209
  131MOL0     C17977  -0.012   5.589   5.151  0.7452  0.7991 -1.3255
  131MOL0     C17978  -0.159   5.614   5.120 -0.1258 -0.1019 -0.2570
  131MOL0     C17979  -0.161   5.738   5.016 -0.4334 -0.3777 -0.2159
  131MOL0     C17980  -0.314   5.782   5.007 -0.1405 -0.2483  0.6155
  131MOL0     C17981  -0.351   5.874   4.896 -0.3519 -0.0369  0.0830
  131MOL0     C17982  -0.293   6.019   4.908 -0.4527  1.0228  0.0757
  131MOL0     C17983  -0.333   6.127   4.802  0.0588 -0.1516  0.1008
  131MOL0     C17984  -0.262   6.254   4.830 -0.1199 -0.7787 -0.2722
  131MOL0    Cl17985  -0.329   6.393   4.738  0.1590  0.0566  0.3313
  131MOL0     C17986   0.205   5.749   4.976 -0.4329  0.2654  0.0836
  131MOL0     C17987   0.331   5.809   4.977 -0.2000  0.5194  0.5518
  131MOL0     O17988   0.620   5.674   4.818  0.2350  0.2290  0.4234
  131MOL0     C17989   0.826   5.860   5.023  0.1487  0.1093  0.8987
  131MOL0     C17990   0.957   5.901   5.045 -0.0134  0.0705  0.7375
  131MOL0     N17991   1.575   6.172   5.129  0.1169 -0.4195  0.2523
  131MOL0     N17992   1.650   6.118   5.226 -0.0816 -0.2990 -0.6562
  131MOL0     C17993   1.840   5.111   5.771 -0.1802 -0.3680  0.0946
  131MOL0     C17994   1.779   4.997   5.811  0.2382 -0.6687  0.0851
  131MOL0     C17995   1.533   4.650   5.918 -0.3949  0.9599  0.5891
  131MOL0     C17996   1.441   4.598   5.834 -0.6028  0.2399  0.8290
  131MOL0     C17997   1.406   4.465   5.830  0.1408  0.2601 -0.7284
  131MOL0     C17998   1.456   4.381   5.933  0.3342  0.0532 -0.0644
  131MOL0     O17999   1.415   4.249   5.966  0.2904  0.0572 -0.4149
  131MOL0     C18000   1.309   4.190   5.908  0.0908  0.7605  0.0985
  131MOL0     C18001   1.176   4.232   5.976 -0.0755 -0.0848 -0.4382
  131MOL0     C18002   1.078   4.117   6.001  1.0631 -0.3564  1.0554
  131MOL0     C18003   1.092   4.057   6.140 -0.2253 -0.1087 -0.3102
  131MOL0     C18004   1.000   4.111   6.239  0.9618 -0.7725  1.2126
  131MOL0     C18005   0.909   4.169   6.297 -0.0803  0.2834  0.6277
  131MOL0     C18006   1.549   4.431   6.025  0.3771  0.7494 -0.1723
  131MOL0     C18007   1.586   4.566   6.017  0.4216 -0.0335  0.2767
  131MOL0     C18008   1.696   4.614   6.114 -0.2968 -0.1113 -0.2368
  131MOL0     H18009   1.513   5.016   5.617  0.5386 -1.9799  0.7406
  131MOL0     H18010   1.633   5.213   5.528 -1.0236  2.9385  1.8125
  131MOL0     H18011   2.010   5.359   5.759 -0.8312 -2.0768 -0.5456
  131MOL0     H18012   1.878   5.385   5.859  0.7654  0.0827  0.0654
  131MOL0     H18013   1.808   5.581   5.723 -0.4721 -0.9469  2.9802
  131MOL0     H18014   1.949   5.614   5.806 -2.4728 -0.2497  0.8989
  131MOL0     H18015   2.091   5.540   5.598 -0.3412  1.8856 -0.1769
  131MOL0     H18016   1.940   5.521   5.514 -0.5913 -1.2609  0.2726
  131MOL0     H18017   1.895   5.775   5.573 -2.1804 -2.4452 -2.5047
  131MOL0     H18018   2.062   5.782   5.624 -0.2512 -0.6513  0.1201
  131MOL0     H18019   1.972   5.695   5.346 -2.0739 -0.7043  3.4408
  131MOL0     H18020   2.144   5.724   5.394 -0.5538 -0.5380 -2.7838
  131MOL0     H18021   2.043   5.960   5.471 -1.9916 -1.4767  2.2426
  131MOL0     H18022   2.126   5.920   5.317 -0.4491 -1.1599 -0.3365
  131MOL0     H18023   1.832   5.918   5.351  2.5485 -2.3358  1.8963
  131MOL0     H18024   1.913   5.888   5.196 -0.3476  2.2810 -1.3503
  131MOL0     H18025   1.905   6.160   5.338 -1.5739  0.8466  0.1689
  131MOL0     H18026   1.989   6.110   5.193  0.0758  0.5557  0.2425
  131MOL0     H18027   1.862   6.141   4.972  0.7627  1.8340 -1.2593
  131MOL0     H18028   1.665   6.237   4.814 -1.0040  0.2803 -0.2868
  131MOL0     H18029   1.535   6.317   4.905 -1.0082  0.2915 -1.5836
  131MOL0     H18030   1.403   6.197   4.756 -1.0509 -1.0775 -0.5656
  131MOL0     H18031   1.512   6.052   4.771 -1.2730 -1.2170  2.2508
  131MOL0     H18032   1.438   6.007   4.994  0.1949  0.1454  0.8003
  131MOL0     H18033   1.339   6.153   4.992 -0.0976 -0.1638  1.3435
  131MOL0     H18034   1.207   6.061   4.800 -1.8222  1.1228  0.8202
  131MOL0     H18035   1.308   5.909   4.816  2.2631  0.8609  1.3628
  131MOL0     H18036   1.058   5.893   4.718 -1.4149 -3.1605 -1.4740
  131MOL0     H18037   0.876   5.869   4.574 -0.0254  0.9956  0.4190
  131MOL0     H18038   0.706   5.841   4.644  0.8349  1.9496 -3.2352
  131MOL0     H18039   0.829   5.712   4.637  2.2979  0.4046  1.5322
  131MOL0     H18040   0.518   5.548   5.081 -0.7626  0.3778  1.0195
  131MOL0     H18041   0.299   5.446   5.116  1.4711 -0.4424 -2.2009
  131MOL0     H18042  -0.018   5.493   5.204  1.2417 -0.3885 -3.3132
  131MOL0     H18043   0.032   5.673   5.206  1.1583 -1.7591  2.7255
  131MOL0     H18044  -0.207   5.535   5.062 -0.6565 -2.3089  2.9461
  131MOL0     H18045  -0.217   5.621   5.212 -0.9562 -3.0844 -0.4568
  131MOL0     H18046  -0.136   5.698   4.917 -0.5460  2.9009 -1.6994
  131MOL0     H18047  -0.099   5.826   5.034 -0.4525 -0.4368  0.1602
  131MOL0     H18048  -0.336   5.835   5.100 -0.1143  3.0524 -1.1234
  131MOL0     H18049  -0.384   5.699   4.997 -2.6107  1.8003 -0.0880
  131MOL0     H18050  -0.320   5.835   4.798  1.3926  1.5410 -0.0409
  131MOL0     H18051  -0.460   5.881   4.890 -0.3463  1.3351  1.0779
  131MOL0     H18052  -0.185   6.014   4.925 -0.0662  1.1569 -2.0752
  131MOL0     H18053  -0.326   6.066   5.001  1.5138  0.8569  0.8976
  131MOL0     H18054  -0.441   6.140   4.807 -0.0953 -1.7620  2.2940
  131MOL0     H18055  -0.307   6.091   4.702 -1.1398 -1.5229  0.2538
  131MOL0     H18056  -0.155   6.237   4.816  0.2208 -2.4048  3.2315
  131MOL0     H18057  -0.267   6.280   4.936 -0.3605  1.3021 -0.7522
  131MOL0     H18058   0.114   5.804   4.954 -1.6908 -1.2999  1.1626
  131MOL0     H18059   0.344   5.903   4.923  1.6915 -1.1762 -2.2007
  131MOL0     H18060   0.766   5.846   5.112  1.1424  0.3152  1.6174
  131MOL0     H18061   0.996   5.912   5.146 -0.1073 -0.5885  0.8507
  131MOL0     H18062   1.934   5.134   5.820 -1.6063  0.4902  2.5433
  131MOL0     H18063   1.810   4.939   5.897 -0.0929  1.3500  1.6502
  131MOL0     H18064   1.416   4.655   5.746 -0.1734 -0.2284  0.3882
  131MOL0     H18065   1.340   4.424   5.755  2.1317  0.6120 -2.7900
  131MOL0     H18066   1.292   4.220   5.804 -1.1901 -1.4359 -0.3784
  131MOL0     H18067   1.321   4.081   5.908 -1.5708  0.5491  0.2903
  131MOL0     H18068   1.120   4.299   5.911  1.4746  2.6539  0.8646
  131MOL0     H18069   1.197   4.279   6.072  3.2600 -0.3429 -0.8955
  131MOL0     H18070   0.978   4.151   5.973  2.1513 -0.3449 -3.6657
  131MOL0     H18071   1.087   4.030   5.934  0.0441 -0.6153  1.2425
  131MOL0     H18072   1.199   4.065   6.164  0.0972 -2.5084 -0.7049
  131MOL0     H18073   1.072   3.950   6.137 -0.1764 -0.1012 -2.8682
  131MOL0     H18074   0.823   4.223   6.330 -1.4434 -0.5149 -1.3826
  131MOL0     H18075   1.590   4.371   6.105  0.2293 -0.8666 -1.2565
  131MOL0     H18076   1.654   4.682   6.189  1.2331  2.5837 -1.6530
  131MOL0     H18077   1.739   4.522   6.154  0.1485 -0.4402 -1.4197
  131MOL0     H18078   1.768   4.651   6.040 -2.8600 -3.0902 -4.6864
  132MOL0     O18079   6.709   3.712   4.761 -0.3171  0.0064  1.0725
  132MOL0     C18080   6.785   3.810   4.742  0.5418  0.0865  0.1813
  132MOL0     O18081   6.912   3.806   4.691 -0.5488  0.1948  0.4948
  132MOL0     C18082   6.962   3.681   4.662  0.3058  0.0435 -0.5483
  132MOL0     C18083   6.953   3.623   4.541  0.6502  0.4918  0.4590
  132MOL0     C18084   7.015   3.503   4.504 -0.6377 -0.0993  0.8108
  132MOL0     C18085   7.093   3.428   4.598  0.6305 -0.7768  0.1822
  132MOL0     O18086   7.156   3.301   4.584  0.1679 -0.6301  0.3476
  132MOL0     C18087   7.116   3.221   4.475  0.5005 -0.2642  0.0762
  132MOL0     C18088   7.125   3.075   4.506  0.3001 -0.2078 -0.0620
  132MOL0     C18089   7.075   3.025   4.643  0.0573  0.8878  0.2641
  132MOL0     C18090   7.100   2.877   4.665 -0.4144  0.7975  0.3350
  132MOL0     C18091   7.010   2.821   4.776 -0.2201 -0.7941  0.5690
  132MOL0     C18092   7.040   2.673   4.818  0.7091 -0.3026  0.1937
  132MOL0     C18093   7.061   2.578   4.701 -0.1079 -0.3301  0.0528
  132MOL0     C18094   6.939   2.570   4.608 -0.6181  0.3647  0.7305
  132MOL0     N18095   6.808   2.527   4.657 -1.2004  1.0119 -0.7799
  132MOL0     C18096   6.794   2.419   4.741  0.2933 -0.7049 -0.0245
  132MOL0     C18097   6.661   2.400   4.742  1.0252 -0.1912 -0.0049
  132MOL0     C18098   6.592   2.284   4.816 -0.6281  0.2984  0.5656
  132MOL0     C18099   6.640   2.264   4.958 -0.2641 -0.9608 -0.1167
  132MOL0     C18100   6.582   2.138   5.031  0.1135  0.3797  0.0913
  132MOL0     C18101   6.625   2.005   4.974 -0.3050  0.7885  0.0990
  132MOL0     O18102   6.744   1.961   5.026  0.1986  0.1020 -0.9354
  132MOL0     C18103   6.781   1.830   5.047 -0.2797 -0.2051  0.6960
  132MOL0     C18104   6.884   1.792   5.134  0.3974 -0.1433  0.5917
  132MOL0     C18105   6.912   1.657   5.161 -0.2272 -0.2831  0.7402
  132MOL0     C18106   7.017   1.628   5.260  0.1413 -0.2233 -0.3043
  132MOL0     C18107   6.841   1.559   5.084 -1.0246 -0.6621 -0.5541
  132MOL0     C18108   6.876   1.411   5.097  0.7941  0.5249  0.5782
  132MOL0     O18109   6.889   1.351   5.217  0.5273  0.2478 -0.5461
  132MOL0     C18110   6.972   1.237   5.234 -0.3547  0.1548 -0.4633
  132MOL0     C18111   6.934   1.162   5.342  0.2170  1.0910  0.4041
  132MOL0     C18112   7.006   1.056   5.381  0.1914 -0.4083 -0.6155
  132MOL0     C18113   7.119   1.019   5.322  0.0228 -1.0548  0.5785
  132MOL0     O18114   7.197   0.914   5.361 -0.2563  0.3209 -0.4114
  132MOL0     C18115   7.137   0.791   5.419 -0.1196  0.5465  0.1531
  132MOL0     C18116   7.236   0.672   5.443  0.2767 -0.1972 -0.6329
  132MOL0     C18117   7.329   0.661   5.321  0.4457 -0.0835  0.5297
  132MOL0     C18118   7.428   0.546   5.325 -0.4672  0.2578 -0.3770
  132MOL0     C18119   7.515   0.523   5.200  0.4193 -0.5411  0.7495
  132MOL0     C18120   7.595   0.638   5.158  0.6157 -1.1320  0.8982
  132MOL0     C18121   7.704   0.606   5.059 -0.0246 -1.0917  0.7464
  132MOL0     C18122   7.806   0.723   5.045 -0.1296 -0.5096  0.5866
  132MOL0    Cl18123   7.893   0.703   4.882 -0.3745  0.1581 -0.1678
  132MOL0     C18124   7.168   1.088   5.211  0.7272  0.0851  0.3055
  132MOL0     C18125   7.095   1.200   5.165  0.6823 -0.3166 -0.4979
  132MOL0     O18126   6.896   1.357   4.989  0.6836 -0.0496 -0.5241
  132MOL0     C18127   6.742   1.593   5.003  0.5292 -0.5363 -0.5012
  132MOL0     C18128   6.712   1.729   4.981 -0.2394  0.1234  0.0627
  132MOL0     N18129   6.598   2.513   4.682  0.0298 -0.0310  0.0513
  132MOL0     N18130   6.686   2.589   4.636  0.2195  0.2388 -0.5014
  132MOL0     C18131   7.106   3.494   4.722 -0.2264 -0.3597 -1.0898
  132MOL0     C18132   7.042   3.613   4.756  1.3380 -0.7377  1.7012
  132MOL0     C18133   6.756   3.958   4.768 -0.0890 -0.8458  0.6211
  132MOL0     C18134   6.809   4.068   4.697  0.1482  1.2096 -0.1812
  132MOL0     C18135   6.789   4.200   4.725  0.1228 -0.4311  0.2597
  132MOL0     C18136   6.705   4.234   4.825  0.0765  0.7642 -0.7076
  132MOL0     O18137   6.676   4.362   4.854  0.3868 -0.2333 -0.8321
  132MOL0     C18138   6.699   4.402   4.988  0.0870  0.2914 -0.6976
  132MOL0     C18139   6.558   4.458   5.034 -0.3212  0.7617 -0.0243
  132MOL0     C18140   6.550   4.517   5.180  0.6691 -0.2266 -0.1856
  132MOL0     C18141   6.633   4.645   5.197 -0.4321  0.2196 -0.6634
  132MOL0     C18142   6.607   4.757   5.110 -0.4711  0.2833 -0.0579
  132MOL0     C18143   6.578   4.831   5.022 -0.3728  0.2254 -0.6490
  132MOL0     C18144   6.646   4.139   4.902 -0.3098 -0.2779  0.3263
  132MOL0     C18145   6.658   4.000   4.868  0.5742  0.3114  0.1029
  132MOL0     C18146   6.591   3.899   4.962  0.0390  0.2345 -0.0396
  132MOL0     H18147   6.907   3.678   4.460  4.0515 -2.5391 -4.0334
  132MOL0     H18148   7.008   3.468   4.402  0.9838 -2.7960  1.5218
  132MOL0     H18149   7.185   3.235   4.392  0.8663  1.6939  0.6533
  132MOL0     H18150   7.014   3.250   4.450  0.6454 -0.0493 -0.2642
  132MOL0     H18151   7.072   3.039   4.417 -0.0171  1.2762 -0.5078
  132MOL0     H18152   7.226   3.035   4.498  0.5660  0.8634 -3.2582
  132MOL0     H18153   7.121   3.097   4.711 -2.0877  2.4321  0.1855
  132MOL0     H18154   6.968   3.043   4.647 -0.3020 -0.8324 -0.6639
  132MOL0     H18155   7.087   2.809   4.580 -3.4315 -0.6918  1.8244
  132MOL0     H18156   7.205   2.870   4.695 -0.2125 -0.8610 -0.6222
  132MOL0     H18157   6.906   2.830   4.742 -0.4470  1.7510  1.6699
  132MOL0     H18158   7.017   2.895   4.857 -0.1846  1.5967 -1.4845
  132MOL0     H18159   7.120   2.655   4.891  0.8100  1.4877  0.5569
  132MOL0     H18160   6.946   2.637   4.860 -0.3550 -0.0899 -1.9042
  132MOL0     H18161   7.095   2.483   4.742  2.6146  0.6664  0.2652
  132MOL0     H18162   7.148   2.599   4.639 -0.8326 -0.7916 -1.1768
  132MOL0     H18163   6.931   2.663   4.552  0.9122 -1.6574 -3.2684
  132MOL0     H18164   6.957   2.496   4.529  0.6117 -1.2325  2.4156
  132MOL0     H18165   6.873   2.360   4.787  0.9245  2.2634  3.1471
  132MOL0     H18166   6.630   2.199   4.758  2.7798  2.9617 -1.4924
  132MOL0     H18167   6.484   2.298   4.812 -0.9675 -2.1883 -0.7991
  132MOL0     H18168   6.744   2.230   4.952  0.4484  1.0287  0.2666
  132MOL0     H18169   6.622   2.355   5.015  2.8778 -1.4859  1.9771
  132MOL0     H18170   6.622   2.141   5.133  1.5765  1.0692 -0.4779
  132MOL0     H18171   6.472   2.143   5.036 -0.1020 -1.7447 -1.3103
  132MOL0     H18172   6.546   1.929   4.976 -1.4777  1.8307 -2.2751
  132MOL0     H18173   6.651   2.019   4.869  0.6779  0.7640  0.3318
  132MOL0     H18174   6.937   1.867   5.191 -3.5460  4.1066 -0.7645
  132MOL0     H18175   7.079   1.548   5.220  1.7945 -0.7978  3.0754
  132MOL0     H18176   6.975   1.593   5.355  0.7194  0.1589  0.1014
  132MOL0     H18177   7.089   1.709   5.276  0.0644  1.1195 -5.1328
  132MOL0     H18178   6.851   1.185   5.407  0.6321 -2.1217  2.2855
  132MOL0     H18179   6.974   1.001   5.469 -0.1751 -2.1303 -1.7679
  132MOL0     H18180   7.102   0.821   5.518 -1.2376 -1.2146  0.3413
  132MOL0     H18181   7.042   0.765   5.371 -0.3629  1.7497 -0.0441
  132MOL0     H18182   7.288   0.672   5.539 -0.6451  0.9219 -0.1068
  132MOL0     H18183   7.184   0.577   5.455 -1.9257  1.2119  1.9996
  132MOL0     H18184   7.386   0.754   5.313 -1.2242  0.9306 -0.1141
  132MOL0     H18185   7.268   0.650   5.230 -1.2500  1.1630  1.4641
  132MOL0     H18186   7.361   0.460   5.335 -0.2512 -0.4940 -4.0404
  132MOL0     H18187   7.489   0.547   5.416  0.7857 -2.9765 -1.0263
  132MOL0     H18188   7.573   0.440   5.241  2.2589  0.2653 -0.0875
  132MOL0     H18189   7.454   0.492   5.114  0.5917  1.5784 -0.1873
  132MOL0     H18190   7.633   0.680   5.251  2.4858  0.6367 -0.5592
  132MOL0     H18191   7.525   0.717   5.127  1.9565 -0.1096  0.3829
  132MOL0     H18192   7.654   0.596   4.962  0.7682  0.3580  0.1637
  132MOL0     H18193   7.747   0.511   5.091  0.3372 -0.6755  1.5172
  132MOL0     H18194   7.875   0.713   5.129  0.1522 -3.3829  0.1291
  132MOL0     H18195   7.758   0.821   5.051 -4.0252 -2.2232  1.0128
  132MOL0     H18196   7.257   1.061   5.154  0.3799  0.7310 -0.5518
  132MOL0     H18197   7.138   1.260   5.086  0.8121  1.0784  0.5831
  132MOL0     H18198   6.689   1.515   4.949 -0.1545 -1.1965  1.0542
  132MOL0     H18199   6.642   1.758   4.904 -1.4682 -3.8149 -0.5257
  132MOL0     H18200   7.174   3.452   4.797  0.7805  0.1958 -1.6663
  132MOL0     H18201   7.060   3.660   4.852  1.7912  3.0726 -0.0667
  132MOL0     H18202   6.876   4.048   4.614  0.5690 -0.1711  0.4769
  132MOL0     H18203   6.838   4.268   4.656  4.4136 -1.4259  2.0394
  132MOL0     H18204   6.739   4.323   5.053  1.2455  0.4304 -1.2212
  132MOL0     H18205   6.783   4.473   4.984  0.4708 -0.1963 -1.4197
  132MOL0     H18206   6.483   4.380   5.022  0.5775  0.0138 -0.9826
  132MOL0     H18207   6.540   4.538   4.962  1.7749  0.5531 -0.8605
  132MOL0     H18208   6.444   4.537   5.198  0.9386  1.4993 -0.3391
  132MOL0     H18209   6.597   4.441   5.243  0.8358 -0.7599 -0.9455
  132MOL0     H18210   6.738   4.615   5.192 -0.4631 -0.0386  0.1093
  132MOL0     H18211   6.595   4.683   5.292 -1.7872 -3.5641  0.4948
  132MOL0     H18212   6.548   4.898   4.944  0.0414 -1.0884 -1.9864
  132MOL0     H18213   6.591   4.151   4.995  0.8812 -0.5710  1.0981
  132MOL0     H18214   6.552   3.945   5.053  1.6430  3.8904 -1.0490
  132MOL0     H18215   6.504   3.854   4.913 -0.5479 -0.5637  1.6286
  132MOL0     H18216   6.654   3.818   5.001 -3.2283 -2.7185 -0.3815
  133MOL0     O18217   2.298   7.882   1.842  0.0652 -0.0336  0.4931
  133MOL0     C18218   2.245   7.838   1.942 -0.2823 -0.3794  0.3474
  133MOL0     O18219   2.107   7.853   1.969 -0.0325  0.3161  0.6644
  133MOL0     C18220   2.030   7.925   1.878  0.8346  0.4107  0.6830
  133MOL0     C18221   1.925   7.863   1.816  0.9873 -0.1634 -0.4682
  133MOL0     C18222   1.863   7.931   1.709 -0.6001 -0.0203  0.0228
  133MOL0     C18223   1.902   8.059   1.665 -0.0709  0.1803  0.0198
  133MOL0     O18224   1.829   8.125   1.568 -1.0746  0.2189  0.1897
  133MOL0     C18225   1.838   8.077   1.432 -0.6150  0.1072 -0.5239
  133MOL0     C18226   1.741   8.148   1.348 -0.2116 -0.2926  0.1226
  133MOL0     C18227   1.592   8.136   1.390  0.0122  0.3676  0.2744
  133MOL0     C18228   1.545   8.243   1.498  0.0010  0.3408 -0.3030
  133MOL0     C18229   1.537   8.388   1.428 -0.1255  0.3990 -0.3335
  133MOL0     C18230   1.424   8.406   1.330  0.8414 -0.2715 -1.2746
  133MOL0     C18231   1.283   8.363   1.375  0.2043  0.3054  0.3590
  133MOL0     C18232   1.175   8.387   1.265 -0.1886 -0.3908 -0.3015
  133MOL0     N18233   1.044   8.324   1.295  0.5446 -0.1490 -0.0852
  133MOL0     C18234   0.938   8.392   1.351 -0.5423 -0.8620  0.0214
  133MOL0     C18235   0.832   8.334   1.299 -0.0861 -0.1259  0.2331
  133MOL0     C18236   0.685   8.372   1.298  0.5216 -0.1030  0.2525
  133MOL0     C18237   0.656   8.506   1.215 -0.2868  0.5752 -0.2099
  133MOL0     C18238   0.607   8.630   1.287 -0.0707  0.1309 -0.8739
  133MOL0     C18239   0.491   8.598   1.379 -0.6028  0.3493  0.3957
  133MOL0     O18240   0.393   8.491   1.338  0.1781 -0.4741  0.1457
  133MOL0     C18241   0.312   8.442   1.436  0.0470  0.8576 -1.0901
  133MOL0     C18242   0.222   8.344   1.411  0.3507 -0.1815  0.8524
  133MOL0     C18243   0.137   8.293   1.507 -0.1343 -0.2979  0.0954
  133MOL0     C18244   0.034   8.192   1.457  0.2702  0.0046  0.1120
  133MOL0     C18245   0.142   8.338   1.641  0.0134  0.1860  0.2333
  133MOL0     C18246   0.041   8.315   1.748 -0.2870 -0.2002  0.1261
  133MOL0     O18247   0.058   8.372   1.878 -0.6010  0.4488  1.0334
  133MOL0     C18248  -0.056   8.388   1.957 -0.1220  0.7545  0.2234
  133MOL0     C18249  -0.102   8.289   2.041  0.1356  0.3486  0.4021
  133MOL0     C18250  -0.202   8.310   2.135  0.6700  0.7458 -1.2580
  133MOL0     C18251  -0.274   8.432   2.143 -1.2083  0.0566  0.4591
  133MOL0     O18252  -0.368   8.432   2.243  0.5403  0.1333 -0.5499
  133MOL0     C18253  -0.390   8.553   2.312  0.0944  0.6784 -0.6206
  133MOL0     C18254  -0.471   8.531   2.440  0.9493 -0.0911 -0.3402
  133MOL0     C18255  -0.419   8.424   2.541  0.3441  0.1223  0.1556
  133MOL0     C18256  -0.368   8.475   2.673  0.9755  0.4783  0.5740
  133MOL0     C18257  -0.284   8.363   2.736 -0.3921  0.0684 -0.7793
  133MOL0     C18258  -0.216   8.379   2.877 -0.0318 -0.3959  0.0237
  133MOL0     C18259  -0.320   8.420   2.982 -0.0687 -0.5602  0.1940
  133MOL0     C18260  -0.250   8.437   3.117 -0.0239 -0.3780  0.2667
  133MOL0    Cl18261  -0.360   8.503   3.240  0.1674  0.3359  0.0174
  133MOL0     C18262  -0.245   8.529   2.044 -0.1490  0.4975  0.1864
  133MOL0     C18263  -0.138   8.504   1.953  0.3491 -0.1390 -0.1529
  133MOL0     O18264  -0.062   8.253   1.716  0.1467 -0.2087  0.3235
  133MOL0     C18265   0.239   8.437   1.670 -0.1222  0.0469 -0.2525
  133MOL0     C18266   0.320   8.484   1.565 -0.1877 -0.0608 -0.5431
  133MOL0     N18267   0.877   8.230   1.226 -0.8613  0.1601  0.1514
  133MOL0     N18268   1.011   8.221   1.221  0.0070  0.5606 -0.0751
  133MOL0     C18269   1.991   8.133   1.748 -0.8598 -0.5328 -0.3974
  133MOL0     C18270   2.053   8.059   1.850  0.5168  0.5925  0.2943
  133MOL0     C18271   2.333   7.785   2.046 -0.5580 -0.6896  0.4217
  133MOL0     C18272   2.287   7.791   2.174 -0.4109 -1.2076  0.5632
  133MOL0     C18273   2.368   7.752   2.277 -0.5776 -0.1496  0.8323
  133MOL0     C18274   2.497   7.700   2.254 -0.6231  0.1730  0.9279
  133MOL0     O18275   2.586   7.662   2.345 -0.3008 -0.1979  0.5472
  133MOL0     C18276   2.567   7.694   2.480 -0.3988 -0.4581  0.5585
  133MOL0     C18277   2.702   7.664   2.554  0.0264  0.0899  0.3227
  133MOL0     C18278   2.682   7.669   2.710  0.3248 -0.4909  0.7112
  133MOL0     C18279   2.807   7.635   2.779  0.0795 -0.2852 -0.2416
  133MOL0     C18280   2.821   7.696   2.917  0.5247  0.6982  0.5820
  133MOL0     C18281   2.850   7.727   3.030 -0.8330 -0.9922 -0.4431
  133MOL0     C18282   2.537   7.698   2.121  0.4079  1.0777 -0.3573
  133MOL0     C18283   2.465   7.743   2.016 -0.1627  0.5715  0.4643
  133MOL0     C18284   2.516   7.737   1.877 -0.2202 -0.0782 -0.0854
  133MOL0     H18285   1.879   7.772   1.851 -1.3575  0.3508 -1.9665
  133MOL0     H18286   1.770   7.889   1.673 -0.6671  0.6965 -0.6801
  133MOL0     H18287   1.823   7.970   1.444  1.4596 -0.0197  1.8091
  133MOL0     H18288   1.936   8.090   1.385  0.2509 -1.2839  0.7854
  133MOL0     H18289   1.770   8.253   1.355 -0.4699 -0.1844 -0.3391
  133MOL0     H18290   1.750   8.112   1.245 -1.4278  1.5575 -0.6880
  133MOL0     H18291   1.536   8.152   1.298  0.5424  2.9530  0.3451
  133MOL0     H18292   1.569   8.032   1.417 -1.8268  1.6541  4.4995
  133MOL0     H18293   1.443   8.210   1.518 -0.5005  0.9719 -1.6884
  133MOL0     H18294   1.607   8.238   1.588 -1.4552  4.3382  1.1490
  133MOL0     H18295   1.634   8.415   1.385  0.3686  1.5816  1.3704
  133MOL0     H18296   1.522   8.458   1.511 -2.3470  0.8385 -1.0472
  133MOL0     H18297   1.418   8.513   1.306 -0.0529  0.4158  1.5264
  133MOL0     H18298   1.451   8.352   1.240  1.0363  0.1472 -1.4706
  133MOL0     H18299   1.261   8.411   1.470 -0.4004  1.8180 -0.4992
  133MOL0     H18300   1.286   8.255   1.394  1.6394  0.4032  0.8355
  133MOL0     H18301   1.167   8.496   1.252  0.8178 -0.1685  0.7882
  133MOL0     H18302   1.218   8.348   1.172  2.5035 -1.3454  1.2402
  133MOL0     H18303   0.939   8.477   1.418  1.3336 -2.0734  1.6442
  133MOL0     H18304   0.675   8.376   1.407  5.3387 -2.3004  1.0184
  133MOL0     H18305   0.634   8.285   1.256  2.4129 -0.5170 -1.3211
  133MOL0     H18306   0.744   8.543   1.162 -0.5230  1.4320 -0.0224
  133MOL0     H18307   0.576   8.471   1.149  0.5286 -0.1759 -0.8065
  133MOL0     H18308   0.682   8.693   1.336 -0.5219  0.5771 -0.7536
  133MOL0     H18309   0.571   8.695   1.208  0.3418 -0.6289 -1.7109
  133MOL0     H18310   0.551   8.555   1.460 -3.2658 -4.0347  0.3995
  133MOL0     H18311   0.438   8.690   1.401  1.9920  1.6669  1.6476
  133MOL0     H18312   0.217   8.294   1.315 -1.8248 -0.5280  1.0843
  133MOL0     H18313   0.035   8.182   1.348 -1.4855 -2.2512  0.2248
  133MOL0     H18314  -0.069   8.218   1.483  0.1867  0.6426 -0.7891
  133MOL0     H18315   0.052   8.089   1.487 -1.8421 -1.7081 -3.8070
  133MOL0     H18316  -0.057   8.190   2.039  1.2843  0.6117 -5.7045
  133MOL0     H18317  -0.246   8.247   2.211  0.2478  3.5627  1.0067
  133MOL0     H18318  -0.293   8.590   2.345  0.3375 -1.6201  1.4852
  133MOL0     H18319  -0.433   8.624   2.239 -3.3701 -2.8585 -2.3943
  133MOL0     H18320  -0.490   8.625   2.494 -2.2108 -1.1766  0.6436
  133MOL0     H18321  -0.570   8.495   2.410  2.0523 -1.5593 -2.5153
  133MOL0     H18322  -0.349   8.365   2.481 -2.6707 -1.4225 -2.1301
  133MOL0     H18323  -0.499   8.350   2.553 -0.1068  0.8146  1.6816
  133MOL0     H18324  -0.453   8.507   2.734  0.2908 -1.8260  0.9325
  133MOL0     H18325  -0.300   8.559   2.656  1.8967 -0.3700 -0.0604
  133MOL0     H18326  -0.356   8.282   2.748 -1.6352  1.3319  0.7246
  133MOL0     H18327  -0.209   8.320   2.668 -1.3077 -0.7762 -1.2724
  133MOL0     H18328  -0.144   8.461   2.867  0.4305 -1.0171 -2.4365
  133MOL0     H18329  -0.166   8.285   2.902 -0.0473 -0.1337  1.0760
  133MOL0     H18330  -0.393   8.340   2.993  0.8538 -1.3866  0.5085
  133MOL0     H18331  -0.374   8.508   2.948 -1.1059 -0.6135  1.6280
  133MOL0     H18332  -0.164   8.500   3.092  0.5634 -2.1070 -2.6022
  133MOL0     H18333  -0.209   8.338   3.142  0.5860 -0.1922  0.0254
  133MOL0     H18334  -0.302   8.621   2.054 -2.6741 -0.9866  0.3432
  133MOL0     H18335  -0.093   8.589   1.903  0.8562  0.9051  1.9688
  133MOL0     H18336   0.234   8.484   1.768 -1.7561 -0.3310 -0.1177
  133MOL0     H18337   0.387   8.560   1.603 -1.5500  1.6543 -1.4461
  133MOL0     H18338   2.020   8.237   1.736 -2.1310  0.1329  1.6841
  133MOL0     H18339   2.141   8.104   1.896  0.9334 -1.1310  1.2772
  133MOL0     H18340   2.187   7.825   2.199 -0.3792  0.5213 -1.3638
  133MOL0     H18341   2.318   7.746   2.372 -2.2628  2.8878  0.2436
  133MOL0     H18342   2.555   7.803   2.489  2.4547  0.3098 -2.7371
  133MOL0     H18343   2.495   7.631   2.533 -0.6455  0.7090  1.6588
  133MOL0     H18344   2.776   7.739   2.524 -2.4842  2.0479 -1.5077
  133MOL0     H18345   2.728   7.563   2.523  2.0189  0.7610 -0.3247
  133MOL0     H18346   2.656   7.773   2.730  0.6875 -0.2981  0.1849
  133MOL0     H18347   2.602   7.600   2.740  0.1603 -0.6230 -0.0042
  133MOL0     H18348   2.896   7.670   2.725 -1.9649  1.0663 -2.9567
  133MOL0     H18349   2.818   7.527   2.791 -2.6713 -0.6073 -0.0411
  133MOL0     H18350   2.910   7.740   3.118  1.8820 -0.9364 -2.1843
  133MOL0     H18351   2.637   7.656   2.115 -0.6530 -1.5398 -1.1126
  133MOL0     H18352   2.551   7.835   1.841 -1.7326 -1.3341 -5.9919
  133MOL0     H18353   2.598   7.665   1.880 -0.3067 -0.2175  3.3682
  133MOL0     H18354   2.447   7.696   1.804  2.8881  0.2251 -3.4742
  134MOL0     O18355   5.734   9.827   8.307 -0.0399 -0.2379 -0.5015
  134MOL0     C18356   5.678   9.930   8.345 -0.4077  0.5692 -0.4708
  134MOL0     O18357   5.609  10.023   8.258  0.6475  0.1447 -0.2333
  134MOL0     C18358   5.629  10.012   8.117 -0.6247  0.0773 -0.2133
  134MOL0     C18359   5.707  10.100   8.046  0.8734  0.2735  0.0015
  134MOL0     C18360   5.731  10.084   7.911 -0.3958 -0.3341 -0.3411
  134MOL0     C18361   5.653   9.995   7.840 -0.3280 -0.6400 -0.4233
  134MOL0     O18362   5.657   9.997   7.698 -0.2415 -0.0218  0.4890
  134MOL0     C18363   5.539  10.036   7.627 -0.4353  0.2429 -0.4749
  134MOL0     C18364   5.554  10.016   7.486 -0.3829 -1.2557  0.3601
  134MOL0     C18365   5.679  10.090   7.426 -0.4876  0.1904  0.4983
  134MOL0     C18366   5.676  10.087   7.268 -0.1513  0.0143 -0.3501
  134MOL0     C18367   5.768  10.165   7.183  0.4474 -0.1320 -0.1923
  134MOL0     C18368   5.919  10.136   7.202  0.8888  0.0193  0.9975
  134MOL0     C18369   6.010  10.204   7.104  0.2234 -0.2335  0.7637
  134MOL0     C18370   5.974  10.360   7.085 -0.5886  0.0268 -0.8599
  134MOL0     N18371   6.031  10.409   6.965  0.3144 -0.2228  0.4518
  134MOL0     C18372   5.960  10.475   6.873 -0.2553  0.6561  0.1499
  134MOL0     C18373   6.047  10.514   6.777 -0.9523 -0.3485 -0.2287
  134MOL0     C18374   6.038  10.573   6.643 -0.3090  0.9080 -0.6164
  134MOL0     C18375   5.967  10.495   6.528 -1.6612  0.1468 -0.5575
  134MOL0     C18376   5.902  10.583   6.422  0.3696 -0.3545 -0.5405
  134MOL0     C18377   5.754  10.576   6.454 -0.5239  0.4403  0.1088
  134MOL0     O18378   5.680  10.677   6.388 -0.8865 -0.3677 -0.5612
  134MOL0     C18379   5.644  10.659   6.254 -0.0071 -0.3051  1.0515
  134MOL0     C18380   5.570  10.752   6.195 -0.3445 -0.6459  1.0011
  134MOL0     C18381   5.508  10.743   6.069  0.8250  0.8088 -0.0264
  134MOL0     C18382   5.432  10.852   6.006  0.3275 -0.4899 -0.4628
  134MOL0     C18383   5.532  10.618   5.989 -0.3478 -0.5857  0.4143
  134MOL0     C18384   5.494  10.593   5.845 -0.4966 -0.5626  0.7696
  134MOL0     O18385   5.374  10.647   5.812 -0.3806  0.0139  0.1314
  134MOL0     C18386   5.321  10.643   5.689  0.4818 -0.9490  0.5439
  134MOL0     C18387   5.188  10.696   5.671 -0.8101  0.3597 -0.0460
  134MOL0     C18388   5.125  10.697   5.552 -0.0610  0.1633  0.2209
  134MOL0     C18389   5.172  10.635   5.439 -0.2382 -0.1942  1.0622
  134MOL0     O18390   5.092  10.633   5.329 -0.3240 -0.1951  0.9445
  134MOL0     C18391   5.134  10.546   5.224 -0.3496  0.1290 -0.3623
  134MOL0     C18392   5.050  10.562   5.092 -0.7230  0.1213 -0.1021
  134MOL0     C18393   4.906  10.518   5.104 -0.5159  0.2888 -0.6447
  134MOL0     C18394   4.891  10.370   5.062 -0.1950 -0.4202  1.1715
  134MOL0     C18395   4.758  10.305   5.084  0.5718  0.6850 -0.4831
  134MOL0     C18396   4.761  10.163   5.130  0.1547  0.2359 -0.3487
  134MOL0     C18397   4.874  10.076   5.063 -0.1616  0.5529 -0.2499
  134MOL0     C18398   4.858   9.928   5.085 -0.7316  0.4769 -0.3611
  134MOL0    Cl18399   5.020   9.851   5.111  0.0314 -0.7604  0.2788
  134MOL0     C18400   5.297  10.573   5.457 -0.8719 -0.1750  0.4697
  134MOL0     C18401   5.370  10.579   5.575  0.3535 -1.5487  0.5029
  134MOL0     O18402   5.575  10.532   5.770 -0.0556  0.0158 -0.4405
  134MOL0     C18403   5.618  10.527   6.053  0.4950  0.4611  0.3509
  134MOL0     C18404   5.666  10.545   6.182 -0.1747  0.0428 -0.2069
  134MOL0     N18405   6.173  10.476   6.819 -0.3886  0.5092  0.0591
  134MOL0     N18406   6.159  10.405   6.922 -0.2467  0.1265  0.7258
  134MOL0     C18407   5.572   9.908   7.904  0.7130 -0.0474 -0.6469
  134MOL0     C18408   5.562   9.912   8.042  0.3112 -0.2604  0.0981
  134MOL0     C18409   5.659   9.969   8.489 -0.0650 -0.4746  0.9795
  134MOL0     C18410   5.641  10.108   8.521  0.3935 -0.1997 -0.5640
  134MOL0     C18411   5.637  10.155   8.650 -0.1846 -0.4902 -0.5275
  134MOL0     C18412   5.629  10.069   8.762 -0.4916  0.4735  0.0696
  134MOL0     O18413   5.616  10.097   8.895  0.3779 -0.7000  0.0313
  134MOL0     C18414   5.611  10.237   8.940 -0.3021 -0.1251 -0.0007
  134MOL0     C18415   5.680  10.237   9.076 -0.6764 -0.3161 -0.0221
  134MOL0     C18416   5.667  10.368   9.143 -0.0967  0.7585 -0.3202
  134MOL0     C18417   5.752  10.365   9.272 -0.3698 -0.6356 -1.1077
  134MOL0     C18418   5.765  10.501   9.321  1.0554 -0.0754 -0.6493
  134MOL0     C18419   5.784  10.617   9.354  0.4641 -0.5454 -0.1412
  134MOL0     C18420   5.644   9.931   8.735 -0.9301  0.5307  0.3129
  134MOL0     C18421   5.651   9.886   8.604 -1.0321  1.0306  0.4689
  134MOL0     C18422   5.653   9.737   8.581 -0.3550  0.2206  0.1755
  134MOL0     H18423   5.758  10.183   8.093  3.4525 -1.4748  0.5293
  134MOL0     H18424   5.791  10.159   7.861 -3.1116  1.1211 -1.6306
  134MOL0     H18425   5.529  10.144   7.638  1.8821  0.3093  2.0904
  134MOL0     H18426   5.448   9.991   7.669  0.2220  0.9880  1.8739
  134MOL0     H18427   5.554   9.909   7.463  0.3719 -1.5761  1.7693
  134MOL0     H18428   5.470  10.054   7.427 -0.3425 -1.8954 -0.1208
  134MOL0     H18429   5.670  10.191   7.469  0.8632 -0.8882  3.6426
  134MOL0     H18430   5.769  10.042   7.466 -2.1839 -1.7601  2.1949
  134MOL0     H18431   5.673   9.981   7.241 -0.5819 -0.4906  1.5668
  134MOL0     H18432   5.577  10.124   7.240 -1.7753 -0.8368  3.5591
  134MOL0     H18433   5.729  10.267   7.194 -1.4750 -0.8664  0.3069
  134MOL0     H18434   5.727  10.132   7.088  0.4336 -0.9197  0.0802
  134MOL0     H18435   5.951  10.188   7.293  1.3160  4.0104 -1.2138
  134MOL0     H18436   5.918  10.027   7.203  0.3273  0.0122  0.2661
  134MOL0     H18437   6.019  10.153   7.008  0.0280 -2.0205  1.6671
  134MOL0     H18438   6.116  10.199   7.132  0.2868 -0.3924  0.4988
  134MOL0     H18439   5.867  10.384   7.082 -0.2600  1.5799 -3.0691
  134MOL0     H18440   6.017  10.416   7.168 -1.0429 -1.6671  0.5722
  134MOL0     H18441   5.858  10.511   6.884  0.3809  2.0277  2.1660
  134MOL0     H18442   6.140  10.589   6.606  0.2313 -2.0174 -0.5702
  134MOL0     H18443   5.981  10.666   6.653 -2.6715 -0.5232 -0.0449
  134MOL0     H18444   6.046  10.427   6.494  0.5512  0.9941  2.5109
  134MOL0     H18445   5.893  10.424   6.567  2.0442 -2.8425  1.6874
  134MOL0     H18446   5.939  10.685   6.417 -1.8094  0.4154 -2.1834
  134MOL0     H18447   5.920  10.540   6.323  1.4118 -1.2271 -0.0072
  134MOL0     H18448   5.712  10.480   6.424 -0.9389  1.2105 -1.9792
  134MOL0     H18449   5.736  10.607   6.557  1.1508  2.4578 -0.1292
  134MOL0     H18450   5.542  10.844   6.244 -1.4677  0.8528 -2.1545
  134MOL0     H18451   5.336  10.820   5.964  0.7636  0.8743 -2.6697
  134MOL0     H18452   5.489  10.894   5.923  1.1504 -1.8836 -0.6397
  134MOL0     H18453   5.403  10.922   6.086  2.6146  1.3941 -1.1521
  134MOL0     H18454   5.146  10.750   5.755  2.6476  1.0527  1.4166
  134MOL0     H18455   5.035  10.758   5.541 -0.4623 -0.6342 -1.0574
  134MOL0     H18456   5.240  10.561   5.199 -0.9435  2.5959 -1.7559
  134MOL0     H18457   5.132  10.440   5.250 -0.0392  0.0441 -0.6803
  134MOL0     H18458   5.055  10.671   5.078 -0.9500  0.2654  0.8877
  134MOL0     H18459   5.101  10.506   5.013  1.1819 -1.3698  2.0565
  134MOL0     H18460   4.838  10.581   5.046 -0.9824 -2.5443 -3.4770
  134MOL0     H18461   4.869  10.516   5.207 -2.6791 -0.2901 -1.3702
  134MOL0     H18462   4.978  10.321   5.105  0.8844 -1.3998 -1.8277
  134MOL0     H18463   4.914  10.365   4.955 -0.2015 -1.6176  1.2118
  134MOL0     H18464   4.707  10.362   5.163 -1.4510 -0.1280 -1.1554
  134MOL0     H18465   4.702  10.313   4.991  0.7566  0.0450 -0.6507
  134MOL0     H18466   4.659  10.125   5.131 -0.5311  1.7076 -3.3234
  134MOL0     H18467   4.793  10.167   5.235 -0.5539  2.1582 -0.1866
  134MOL0     H18468   4.972  10.112   5.097  0.4318 -1.4311  0.2920
  134MOL0     H18469   4.862  10.084   4.955 -1.0613  0.3435 -0.1763
  134MOL0     H18470   4.815   9.879   4.998 -0.9804  0.6853 -0.3579
  134MOL0     H18471   4.808   9.904   5.179 -0.8942 -2.6293 -1.1282
  134MOL0     H18472   5.341  10.503   5.386 -0.1638 -0.8074  1.5023
  134MOL0     H18473   5.463  10.524   5.568  0.3701 -1.4607 -0.0257
  134MOL0     H18474   5.645  10.438   5.997  1.8137  1.5302 -0.7780
  134MOL0     H18475   5.722  10.460   6.218 -2.3889 -1.5502 -0.3399
  134MOL0     H18476   5.511   9.828   7.862  0.5401  1.3458 -3.3042
  134MOL0     H18477   5.497   9.849   8.102  3.7781 -4.0975  0.3064
  134MOL0     H18478   5.653  10.184   8.445  0.1383  1.3122  0.8562
  134MOL0     H18479   5.642  10.263   8.662 -1.0497 -0.3529 -1.3711
  134MOL0     H18480   5.675  10.304   8.882 -1.2264  1.2343  0.5097
  134MOL0     H18481   5.511  10.282   8.938 -1.2935 -2.1896 -1.7478
  134MOL0     H18482   5.784  10.210   9.059 -0.4881  1.1128 -1.3235
  134MOL0     H18483   5.624  10.166   9.138  0.2259 -1.2744 -0.2755
  134MOL0     H18484   5.721  10.450   9.095  1.4343  1.1530  1.9186
  134MOL0     H18485   5.565  10.396   9.172 -0.1715 -1.6299  2.2101
  134MOL0     H18486   5.856  10.346   9.241 -0.6373  0.5739 -2.9696
  134MOL0     H18487   5.708  10.299   9.346 -3.2170 -1.6138 -3.4742
  134MOL0     H18488   5.805  10.722   9.366 -1.2915  0.0267 -1.5825
  134MOL0     H18489   5.638   9.858   8.816 -0.2402 -1.8113 -1.6423
  134MOL0     H18490   5.575   9.712   8.508 -0.4869 -3.1920  1.3159
  134MOL0     H18491   5.748   9.697   8.546 -0.3486 -0.9475  1.4281
  134MOL0     H18492   5.636   9.685   8.676 -0.4416  0.1431  0.1172
  135MOL0     O18493   8.972   1.136   9.517 -0.3527 -0.2222  0.5942
  135MOL0     C18494   8.897   1.229   9.482 -1.0818  0.7141 -0.5476
  135MOL0     O18495   8.842   1.242   9.359 -0.4118 -0.5523  0.3891
  135MOL0     C18496   8.848   1.131   9.280  0.1778  0.2105  0.2334
  135MOL0     C18497   8.971   1.084   9.219  0.2443  0.4545 -0.6983
  135MOL0     C18498   8.979   0.974   9.133  0.0570  0.1532  0.4077
  135MOL0     C18499   8.854   0.909   9.101 -0.5528 -0.6604 -0.0878
  135MOL0     O18500   8.863   0.803   9.021  0.2302 -0.2168  0.5834
  135MOL0     C18501   8.815   0.835   8.891 -0.4295 -0.1676 -0.6782
  135MOL0     C18502   8.676   0.768   8.867  0.2910 -0.6530  0.6866
  135MOL0     C18503   8.681   0.610   8.867  0.2857 -0.3857 -0.4161
  135MOL0     C18504   8.552   0.565   8.937 -0.0438  0.4012  0.0457
  135MOL0     C18505   8.556   0.412   8.970 -0.7185 -1.1285 -1.0776
  135MOL0     C18506   8.418   0.364   9.022  0.4749  0.3168  0.3297
  135MOL0     C18507   8.412   0.212   9.024 -0.1520 -0.3431  0.6205
  135MOL0     C18508   8.485   0.155   9.148 -0.2499 -0.0628  0.3859
  135MOL0     N18509   8.457   0.012   9.199 -0.1087  0.5593  0.6861
  135MOL0     C18510   8.368  -0.024   9.296 -0.2107 -0.3974 -0.3537
  135MOL0     C18511   8.403  -0.143   9.352 -0.6175  1.0566  0.3989
  135MOL0     C18512   8.323  -0.241   9.434  0.2770 -0.3356  0.0646
  135MOL0     C18513   8.199  -0.165   9.494  0.3466  0.2121  0.5054
  135MOL0     C18514   8.133  -0.246   9.594 -1.3944 -0.0870 -0.0779
  135MOL0     C18515   8.005  -0.188   9.640 -0.3919  0.0573  0.1339
  135MOL0     O18516   7.909  -0.176   9.531  0.0434 -0.5466 -0.3518
  135MOL0     C18517   7.794  -0.101   9.537  0.5592 -0.8469 -0.1014
  135MOL0     C18518   7.733  -0.067   9.418 -0.1796 -0.5505  0.3627
  135MOL0     C18519   7.611  -0.020   9.405  1.1685 -0.5296 -0.0829
  135MOL0     C18520   7.548  -0.010   9.267 -0.0644 -0.6104  0.1429
  135MOL0     C18521   7.533  -0.001   9.520 -0.1374 -0.0227 -0.0433
  135MOL0     C18522   7.388   0.046   9.522 -0.2597 -0.5985 -0.3083
  135MOL0     O18523   7.309   0.026   9.415 -0.2698  0.4416  0.3229
  135MOL0     C18524   7.174   0.047   9.433 -0.7302  0.0453 -0.5794
  135MOL0     C18525   7.107  -0.012   9.548 -0.5580 -0.5035  0.9609
  135MOL0     C18526   6.972  -0.012   9.563 -0.1882 -1.5898  0.7719
  135MOL0     C18527   6.887   0.021   9.458  0.6538 -0.3162 -0.5075
  135MOL0     O18528   6.763  -0.003   9.458  0.1303  0.3460  0.8948
  135MOL0     C18529   6.713  -0.129   9.503  1.3226  0.4118 -0.2313
  135MOL0     C18530   6.618  -0.103   9.623  0.7948 -0.6082 -0.5164
  135MOL0     C18531   6.506  -0.207   9.641  0.2005  0.5953 -0.5657
  135MOL0     C18532   6.568  -0.346   9.661 -0.7515 -0.0143  1.2799
  135MOL0     C18533   6.472  -0.450   9.729  0.6740 -0.1897  0.7340
  135MOL0     C18534   6.352  -0.490   9.632 -0.0568 -0.3682  0.6271
  135MOL0     C18535   6.392  -0.519   9.485  0.5074  0.1709  0.7724
  135MOL0     C18536   6.289  -0.606   9.410  0.4858  0.4565 -0.6481
  135MOL0    Cl18537   6.307  -0.784   9.461 -0.0732 -0.1396 -0.2905
  135MOL0     C18538   6.951   0.067   9.332 -0.0212 -0.2156  0.3733
  135MOL0     C18539   7.089   0.088   9.327 -0.5931 -0.0375  0.0157
  135MOL0     O18540   7.359   0.115   9.626  0.0745 -0.0370 -0.0384
  135MOL0     C18541   7.595  -0.033   9.645 -0.5132 -0.5441  0.4540
  135MOL0     C18542   7.728  -0.074   9.655  0.4312  0.2580 -0.2095
  135MOL0     N18543   8.512  -0.180   9.276 -0.4825 -0.6813 -0.0409
  135MOL0     N18544   8.545  -0.090   9.189 -0.6557 -0.1623 -0.1294
  135MOL0     C18545   8.733   0.947   9.172  0.6218 -0.1715  0.5912
  135MOL0     C18546   8.733   1.053   9.270 -0.3087  0.1305 -0.5892
  135MOL0     C18547   8.871   1.342   9.581 -0.7162  0.3361  0.4626
  135MOL0     C18548   8.783   1.444   9.536  0.0203  0.1445  0.8655
  135MOL0     C18549   8.755   1.553   9.608  0.0558  0.3751 -0.1423
  135MOL0     C18550   8.821   1.566   9.727 -0.0820  0.2360 -0.2086
  135MOL0     O18551   8.802   1.677   9.803  0.2623 -0.4415  0.5328
  135MOL0     C18552   8.771   1.796   9.742 -0.8682  0.5556 -0.3250
  135MOL0     C18553   8.808   1.896   9.856  0.1699 -0.7813  0.5305
  135MOL0     C18554   8.738   2.030   9.833  0.4409  0.0143 -0.0075
  135MOL0     C18555   8.598   2.041   9.886 -0.0286  0.0154 -0.4400
  135MOL0     C18556   8.509   2.115   9.799  0.3857  0.1446  0.2880
  135MOL0     C18557   8.427   2.179   9.743  1.1391 -0.2082  0.2974
  135MOL0     C18558   8.903   1.468   9.780  0.4434 -0.5166 -0.7052
  135MOL0     C18559   8.927   1.348   9.716 -1.1378  0.0863  0.4266
  135MOL0     C18560   9.006   1.240   9.785  1.0253  0.5649  0.7442
  135MOL0     H18561   9.067   1.135   9.229  0.0918  0.4372  1.1290
  135MOL0     H18562   9.070   0.935   9.086 -2.1933 -2.2020 -2.4711
  135MOL0     H18563   8.881   0.805   8.810 -3.4862  0.0507 -3.4655
  135MOL0     H18564   8.800   0.942   8.870 -2.2266  0.7921  4.0937
  135MOL0     H18565   8.605   0.814   8.936  0.4537 -1.1764  1.2094
  135MOL0     H18566   8.659   0.798   8.763  2.1092  0.4957  0.6637
  135MOL0     H18567   8.672   0.567   8.767 -1.3602  1.8823 -1.3470
  135MOL0     H18568   8.774   0.576   8.913  1.2809 -0.8794 -2.7039
  135MOL0     H18569   8.536   0.612   9.035 -1.2750  0.0754  0.0125
  135MOL0     H18570   8.470   0.590   8.870  1.8407  2.2594 -1.7163
  135MOL0     H18571   8.626   0.398   9.053 -1.2193  0.2647 -0.3834
  135MOL0     H18572   8.584   0.340   8.893  0.6505 -0.8866 -0.8284
  135MOL0     H18573   8.388   0.410   9.116 -0.8273 -1.1776  0.6861
  135MOL0     H18574   8.350   0.393   8.941  3.3798 -0.1213 -2.4917
  135MOL0     H18575   8.457   0.163   8.937 -0.6031 -1.6292  1.0923
  135MOL0     H18576   8.305   0.188   9.026 -0.6923  0.9916 -3.2551
  135MOL0     H18577   8.593   0.149   9.129 -0.4027 -0.2924 -0.4088
  135MOL0     H18578   8.456   0.209   9.239  0.8890  1.7080 -0.2674
  135MOL0     H18579   8.287   0.039   9.330 -0.4012  0.3086 -2.0392
  135MOL0     H18580   8.401  -0.270   9.506  0.3784  0.7600  0.4150
  135MOL0     H18581   8.295  -0.330   9.377 -1.1224 -0.9808  1.6614
  135MOL0     H18582   8.238  -0.072   9.537 -0.1732 -0.1029  1.6887
  135MOL0     H18583   8.128  -0.148   9.412  1.8159  1.5260 -0.5631
  135MOL0     H18584   8.118  -0.347   9.556  0.8134 -1.1179  1.5731
  135MOL0     H18585   8.204  -0.270   9.674  1.5727 -2.8436 -3.2014
  135MOL0     H18586   7.960  -0.258   9.711  0.2534 -0.8338 -0.3054
  135MOL0     H18587   8.038  -0.098   9.692  0.5547 -1.4448  2.2939
  135MOL0     H18588   7.786  -0.081   9.324  0.8783  1.2378  0.6349
  135MOL0     H18589   7.511   0.093   9.267 -2.5601 -1.3345 -3.1028
  135MOL0     H18590   7.462  -0.077   9.254  0.6296 -1.2311 -1.6199
  135MOL0     H18591   7.615  -0.014   9.180 -0.8298  0.7536 -0.5265
  135MOL0     H18592   7.163  -0.041   9.635 -1.7817 -1.1178  1.5694
  135MOL0     H18593   6.928  -0.035   9.659 -1.7906 -1.3296  0.1442
  135MOL0     H18594   6.657  -0.157   9.414 -0.0274  2.6846 -0.1772
  135MOL0     H18595   6.786  -0.209   9.519 -0.5316 -1.1981  0.5960
  135MOL0     H18596   6.673  -0.092   9.716  1.6840  0.6171 -1.1561
  135MOL0     H18597   6.579  -0.004   9.598  2.5962  0.0032 -0.9819
  135MOL0     H18598   6.427  -0.202   9.565 -2.0126 -0.6539  1.5013
  135MOL0     H18599   6.445  -0.182   9.728  0.2013  2.4566 -1.0700
  135MOL0     H18600   6.654  -0.333   9.728 -0.0133 -0.9640  0.5411
  135MOL0     H18601   6.618  -0.376   9.568 -3.3433  3.5612 -1.5334
  135MOL0     H18602   6.531  -0.538   9.756  2.5600  0.9954  0.6354
  135MOL0     H18603   6.435  -0.413   9.825  1.2958  0.3772  0.7577
  135MOL0     H18604   6.274  -0.414   9.631 -0.1226 -0.4239 -0.8048
  135MOL0     H18605   6.304  -0.578   9.676 -0.3653 -0.3007  0.4283
  135MOL0     H18606   6.489  -0.568   9.472  0.3839 -0.2297  1.3200
  135MOL0     H18607   6.397  -0.422   9.435 -1.0027 -1.1926 -2.2817
  135MOL0     H18608   6.313  -0.597   9.303 -0.9528 -0.5679 -1.0962
  135MOL0     H18609   6.185  -0.572   9.420 -0.2361 -0.8567 -2.8719
  135MOL0     H18610   6.897   0.090   9.240  2.3261  1.5804 -0.6919
  135MOL0     H18611   7.138   0.101   9.231  2.3712 -0.4413  1.3581
  135MOL0     H18612   7.531  -0.029   9.733  1.9173 -0.6625  2.3341
  135MOL0     H18613   7.759  -0.100   9.756 -2.6431 -1.0854  0.4917
  135MOL0     H18614   8.648   0.893   9.133  0.4477  0.2077  0.4433
  135MOL0     H18615   8.647   1.089   9.324  0.3543  0.0190  0.5715
  135MOL0     H18616   8.743   1.436   9.435 -2.4226  2.0475  1.5558
  135MOL0     H18617   8.692   1.628   9.562  2.2444  2.6207  0.3483
  135MOL0     H18618   8.824   1.823   9.650 -0.9685 -1.5904 -1.0624
  135MOL0     H18619   8.663   1.812   9.736 -0.6372  2.8852  0.4764
  135MOL0     H18620   8.917   1.904   9.845 -0.1256  1.6165 -1.7059
  135MOL0     H18621   8.791   1.854   9.955  0.7544 -1.7756  0.2218
  135MOL0     H18622   8.793   2.120   9.864  0.2060  0.1968 -0.1157
  135MOL0     H18623   8.723   2.039   9.725 -0.9048  0.6247  0.2069
  135MOL0     H18624   8.609   2.080   9.988  1.8688  0.6765 -0.8420
  135MOL0     H18625   8.555   1.941   9.887 -0.1421  0.0588 -0.7401
  135MOL0     H18626   8.349   2.238   9.698  0.7311  1.6103  3.0817
  135MOL0     H18627   8.952   1.487   9.875 -1.8111  1.9946  0.0503
  135MOL0     H18628   9.112   1.263   9.769  0.8226 -0.0888 -2.1446
  135MOL0     H18629   8.969   1.229   9.887 -0.0168 -0.8678  0.2632
  135MOL0     H18630   8.980   1.140   9.748 -0.4317  0.4583  1.9393
  136MOL0     O18631   8.076   8.335   9.685  0.2774 -0.5237  0.2580
  136MOL0     C18632   7.977   8.309   9.620  0.5366  0.6557 -0.1708
  136MOL0     O18633   7.917   8.389   9.522 -0.1998  0.0979 -0.6036
  136MOL0     C18634   7.990   8.492   9.481 -0.0520  0.0414 -0.5962
  136MOL0     C18635   8.118   8.473   9.417 -0.7715 -0.1509 -0.1709
  136MOL0     C18636   8.200   8.573   9.375  0.2074 -0.5440 -0.0076
  136MOL0     C18637   8.153   8.703   9.381  1.4552  0.0108 -0.1330
  136MOL0     O18638   8.238   8.796   9.331 -0.6055  0.0885 -1.0027
  136MOL0     C18639   8.197   8.930   9.325  0.2071  0.6158 -0.5026
  136MOL0     C18640   8.300   9.012   9.250 -0.5797 -0.2680  0.2197
  136MOL0     C18641   8.440   8.959   9.282 -0.6395 -0.7674  0.1747
  136MOL0     C18642   8.546   9.054   9.232  0.9609 -0.2983 -0.0660
  136MOL0     C18643   8.683   9.001   9.248  0.6884 -0.1128 -1.1619
  136MOL0     C18644   8.786   9.070   9.155 -0.2354 -0.0155 -0.2491
  136MOL0     C18645   8.765   9.043   9.007 -0.0841  0.7702  0.1115
  136MOL0     C18646   8.877   9.095   8.919  0.3136  0.6039 -0.3706
  136MOL0     N18647   8.897   8.994   8.805  0.5238 -0.8225  0.3989
  136MOL0     C18648   8.827   9.002   8.683 -0.5176 -0.4861 -0.3586
  136MOL0     C18649   8.892   8.904   8.607 -0.0834 -0.4134 -0.6560
  136MOL0     C18650   8.876   8.889   8.456 -0.2028  0.7459  0.1327
  136MOL0     C18651   8.998   8.955   8.381  0.3018  0.2943 -0.6296
  136MOL0     C18652   9.021   9.097   8.425 -0.8778 -0.6091 -0.7752
  136MOL0     C18653   8.934   9.209   8.366 -0.4562  0.3123 -0.6294
  136MOL0     O18654   8.798   9.198   8.418  1.0091  0.0928 -0.3729
  136MOL0     C18655   8.703   9.295   8.387 -1.1896 -0.0210 -0.0313
  136MOL0     C18656   8.720   9.400   8.289 -0.6094  0.2846 -0.6788
  136MOL0     C18657   8.613   9.489   8.271  0.8100  0.1163 -0.1181
  136MOL0     C18658   8.624   9.605   8.175 -0.0627  0.7686  0.6745
  136MOL0     C18659   8.492   9.482   8.352  0.4329  0.2371 -0.3502
  136MOL0     C18660   8.381   9.584   8.364  1.3582  0.4948  0.3972
  136MOL0     O18661   8.300   9.586   8.474 -0.2131 -0.0796 -0.2289
  136MOL0     C18662   8.174   9.641   8.462  0.3852 -0.0507  0.1339
  136MOL0     C18663   8.057   9.562   8.468  1.1334  0.4489  0.7506
  136MOL0     C18664   7.926   9.615   8.471  0.7077  0.3551  0.4227
  136MOL0     C18665   7.911   9.753   8.458 -0.4017 -0.0594  0.0931
  136MOL0     O18666   7.793   9.819   8.460  1.5220  0.7263 -0.3289
  136MOL0     C18667   7.700   9.758   8.370  0.5112  0.3389 -0.7721
  136MOL0     C18668   7.584   9.854   8.358  0.0125  0.1902 -0.7060
  136MOL0     C18669   7.500   9.789   8.248  0.8029 -0.0065  0.3907
  136MOL0     C18670   7.526   9.851   8.103 -0.3694 -0.4453 -0.6101
  136MOL0     C18671   7.491   9.755   7.991 -0.0010  0.0871 -0.0654
  136MOL0     C18672   7.525   9.829   7.860 -0.4195 -0.3207  0.4288
  136MOL0     C18673   7.478   9.734   7.740 -0.3531 -1.0345 -0.0674
  136MOL0     C18674   7.541   9.807   7.618  0.7338  0.1330 -0.5495
  136MOL0    Cl18675   7.526   9.696   7.477 -0.4294 -0.4675 -0.5339
  136MOL0     C18676   8.030   9.827   8.453  0.2586 -0.1068  0.1312
  136MOL0     C18677   8.160   9.774   8.454  0.0279 -0.0455 -0.1353
  136MOL0     O18678   8.363   9.660   8.265 -0.5272  0.0526 -0.1497
  136MOL0     C18679   8.480   9.376   8.446  0.1812 -0.1103 -0.1564
  136MOL0     C18680   8.586   9.295   8.464 -0.0748 -0.2534 -0.1474
  136MOL0     N18681   9.005   8.867   8.673  0.9621  0.0618  0.4420
  136MOL0     N18682   8.996   8.904   8.797 -0.0015 -0.0441  0.3880
  136MOL0     C18683   8.010   8.718   9.423  0.7133  0.3404 -0.6207
  136MOL0     C18684   7.932   8.620   9.491 -0.7899 -0.2109  0.3302
  136MOL0     C18685   7.909   8.175   9.647 -0.5494 -0.2554 -0.4366
  136MOL0     C18686   7.779   8.156   9.608  1.0193  0.1968  0.7056
  136MOL0     C18687   7.705   8.047   9.627 -0.3664 -0.3990  0.4915
  136MOL0     C18688   7.769   7.940   9.682 -0.1841  0.4184  1.0096
  136MOL0     O18689   7.689   7.836   9.727 -0.3779 -0.1549 -0.6022
  136MOL0     C18690   7.739   7.705   9.703  0.4140  0.6444  0.4477
  136MOL0     C18691   7.626   7.607   9.722  0.6635 -0.4773  0.8930
  136MOL0     C18692   7.550   7.588   9.582  0.8736 -0.8884 -0.1297
  136MOL0     C18693   7.464   7.464   9.575 -0.3934 -0.0823  0.1669
  136MOL0     C18694   7.538   7.339   9.616  0.4868  0.4793 -0.1064
  136MOL0     C18695   7.575   7.227   9.645 -0.3301 -0.2191 -0.3103
  136MOL0     C18696   7.906   7.948   9.728 -0.9927 -0.3424  0.2888
  136MOL0     C18697   7.977   8.071   9.707 -0.5474  1.0268 -0.5669
  136MOL0     C18698   8.123   8.072   9.753 -0.4099  0.3319  0.0717
  136MOL0     H18699   8.149   8.369   9.409  1.9695  0.6091 -0.1368
  136MOL0     H18700   8.299   8.551   9.337  0.8183  0.5304  0.9140
  136MOL0     H18701   8.181   8.967   9.427  0.6551  1.7695 -0.8472
  136MOL0     H18702   8.103   8.918   9.270 -0.4392 -2.4374  0.9800
  136MOL0     H18703   8.274   9.002   9.144 -1.6834 -2.0864  0.6092
  136MOL0     H18704   8.289   9.117   9.276 -3.3303 -0.1602 -0.9742
  136MOL0     H18705   8.457   8.943   9.389 -0.8239  0.8970  0.4809
  136MOL0     H18706   8.453   8.860   9.236  3.6674 -1.5040  2.4898
  136MOL0     H18707   8.528   9.090   9.130 -3.1138  0.5455  0.7535
  136MOL0     H18708   8.543   9.144   9.295 -0.4167  0.6766 -1.4205
  136MOL0     H18709   8.688   8.893   9.229  0.5115 -0.6641  1.6062
  136MOL0     H18710   8.718   9.005   9.352 -0.8376  1.3121 -0.6750
  136MOL0     H18711   8.788   9.178   9.175 -0.4772 -0.2348  1.0709
  136MOL0     H18712   8.885   9.038   9.188 -1.6186 -4.4512  0.2875
  136MOL0     H18713   8.672   9.077   8.960 -1.0721 -2.3460 -0.4763
  136MOL0     H18714   8.750   8.934   9.008 -0.3779  0.8098  0.6467
  136MOL0     H18715   8.867   9.201   8.893 -1.3127  1.2702  2.5869
  136MOL0     H18716   8.976   9.093   8.966  0.9703  1.5306 -1.6491
  136MOL0     H18717   8.752   9.078   8.662 -0.0306  0.2996  0.6486
  136MOL0     H18718   8.775   8.921   8.431 -0.2656  1.8067  1.5836
  136MOL0     H18719   8.884   8.783   8.433 -3.1280  0.8067 -1.5726
  136MOL0     H18720   9.089   8.897   8.397  0.4508  0.6373 -0.2119
  136MOL0     H18721   8.973   8.952   8.274 -3.8898  1.1914  0.1515
  136MOL0     H18722   9.020   9.111   8.533  3.0703 -0.6925 -0.6025
  136MOL0     H18723   9.123   9.113   8.390 -0.8541  0.2070 -0.3496
  136MOL0     H18724   8.971   9.307   8.398  1.1148  0.0005 -1.3797
  136MOL0     H18725   8.925   9.207   8.257 -3.7326  1.6487 -0.5047
  136MOL0     H18726   8.808   9.407   8.226 -1.5701 -0.9769 -2.2340
  136MOL0     H18727   8.725   9.609   8.133  0.0164  1.3323  0.9072
  136MOL0     H18728   8.583   9.702   8.203 -3.5067 -0.1321 -0.6886
  136MOL0     H18729   8.557   9.584   8.090  0.6562  1.1234  0.0070
  136MOL0     H18730   8.065   9.454   8.466  0.5824  0.3118 -3.6381
  136MOL0     H18731   7.842   9.550   8.496  2.8919 -2.0875  1.9843
  136MOL0     H18732   7.741   9.747   8.269 -0.3700 -0.2229 -1.0796
  136MOL0     H18733   7.665   9.667   8.421  1.4214  1.5921  2.3119
  136MOL0     H18734   7.530   9.856   8.453  1.4380  2.1001  0.1226
  136MOL0     H18735   7.616   9.956   8.331 -0.9511  0.1258 -2.2196
  136MOL0     H18736   7.395   9.813   8.270  0.3958 -0.5094 -0.8951
  136MOL0     H18737   7.508   9.680   8.246  0.8064 -0.0025  0.0837
  136MOL0     H18738   7.633   9.874   8.094 -0.5773  1.9699  1.7432
  136MOL0     H18739   7.473   9.945   8.088 -1.2562 -0.6166  1.1560
  136MOL0     H18740   7.556   9.666   7.988 -0.8061 -0.5537  0.9430
  136MOL0     H18741   7.388   9.721   8.003  0.7749 -2.2296  0.7469
  136MOL0     H18742   7.633   9.827   7.848 -0.1572  3.3140  1.2083
  136MOL0     H18743   7.484   9.931   7.854  1.5151  0.4201 -1.2073
  136MOL0     H18744   7.369   9.732   7.739 -0.7082  3.9996  0.1083
  136MOL0     H18745   7.515   9.633   7.759 -0.9463 -1.5040 -1.2664
  136MOL0     H18746   7.648   9.816   7.637  1.0501 -1.7601 -1.2053
  136MOL0     H18747   7.500   9.908   7.602  0.0735  0.1806  1.2470
  136MOL0     H18748   8.018   9.934   8.446  1.1863  0.0438  0.6483
  136MOL0     H18749   8.242   9.844   8.438 -0.5297  0.8534  0.7755
  136MOL0     H18750   8.398   9.360   8.515  0.1949 -0.9513 -0.3283
  136MOL0     H18751   8.565   9.217   8.537  0.5039 -1.2369 -1.0135
  136MOL0     H18752   7.982   8.822   9.435  3.4147  1.1227 -0.3251
  136MOL0     H18753   7.842   8.643   9.547 -1.4607  0.2840 -0.9007
  136MOL0     H18754   7.730   8.237   9.556  1.5945 -1.7100 -3.2240
  136MOL0     H18755   7.602   8.044   9.592 -0.4632 -2.8274  0.7727
  136MOL0     H18756   7.778   7.689   9.602  1.7873  0.6937  0.9395
  136MOL0     H18757   7.831   7.689   9.760  2.6159  0.3941 -2.8717
  136MOL0     H18758   7.557   7.643   9.799  0.1851  0.9083 -0.1265
  136MOL0     H18759   7.671   7.511   9.748 -1.8791 -2.0964 -0.2702
  136MOL0     H18760   7.484   7.672   9.557  1.0090 -1.0956 -1.2236
  136MOL0     H18761   7.612   7.594   9.492 -1.1388  1.5846 -1.4714
  136MOL0     H18762   7.424   7.453   9.474 -1.5703 -0.4789  0.6521
  136MOL0     H18763   7.380   7.468   9.646  2.1611 -1.5891  3.5343
  136MOL0     H18764   7.610   7.128   9.664 -4.2886 -1.4885  1.5222
  136MOL0     H18765   7.962   7.869   9.777 -0.0465  0.4631  0.5114
  136MOL0     H18766   8.173   7.975   9.755  2.2287  1.5587 -1.1122
  136MOL0     H18767   8.181   8.123   9.676  1.7754  1.9326  2.5920
  136MOL0     H18768   8.128   8.122   9.851  0.5409 -0.0312  0.2151
  137MOL0     O18769   7.893   5.272   8.501 -0.6972 -0.0983  0.4224
  137MOL0     C18770   7.810   5.284   8.592  0.1281  1.1712  0.2236
  137MOL0     O18771   7.685   5.332   8.578 -0.5215  0.0503  0.5806
  137MOL0     C18772   7.632   5.382   8.459  0.3272  0.2181  0.5259
  137MOL0     C18773   7.493   5.365   8.436 -0.4424  0.4254  0.3560
  137MOL0     C18774   7.433   5.408   8.321  1.0531  0.1241  0.4321
  137MOL0     C18775   7.500   5.482   8.222  0.3473  0.1997  0.4122
  137MOL0     O18776   7.453   5.542   8.107  0.5901  0.9779  0.2995
  137MOL0     C18777   7.315   5.572   8.097 -0.1306  0.5080  0.5200
  137MOL0     C18778   7.292   5.620   7.955  0.3539  0.5008 -0.4773
  137MOL0     C18779   7.221   5.752   7.962  0.2475 -0.7864 -0.1909
  137MOL0     C18780   7.219   5.819   7.828 -0.4357 -0.3956  0.2107
  137MOL0     C18781   7.167   5.965   7.836  0.3149 -0.1691  0.3121
  137MOL0     C18782   7.163   6.023   7.689  0.1363 -0.5019 -0.6813
  137MOL0     C18783   7.122   6.171   7.669  1.2470  0.2493 -0.6245
  137MOL0     C18784   7.164   6.218   7.524 -0.1834 -0.1614 -0.1132
  137MOL0     N18785   7.101   6.349   7.491  0.2735 -0.0767 -0.4950
  137MOL0     C18786   6.983   6.360   7.424  0.7580  1.6620  0.2673
  137MOL0     C18787   6.953   6.488   7.418 -0.0138 -0.1717 -0.2891
  137MOL0     C18788   6.818   6.546   7.374 -1.0948  0.5326 -0.9384
  137MOL0     C18789   6.714   6.513   7.479  0.6348 -0.3476  0.3186
  137MOL0     C18790   6.719   6.599   7.606 -0.5407 -0.5868  1.1314
  137MOL0     C18791   6.617   6.551   7.705  0.1520  0.4389  1.3427
  137MOL0     O18792   6.609   6.406   7.716  0.2253  0.3170 -0.0240
  137MOL0     C18793   6.683   6.337   7.807  0.6458 -0.5719  0.0949
  137MOL0     C18794   6.809   6.387   7.856 -0.6775  0.4862 -0.2905
  137MOL0     C18795   6.881   6.318   7.957  1.2836  0.4422 -0.1502
  137MOL0     C18796   7.001   6.380   8.003  0.8185 -0.0660 -0.0516
  137MOL0     C18797   6.830   6.192   8.003  0.7875 -0.1607 -0.5560
  137MOL0     C18798   6.884   6.110   8.115 -0.1908  0.3094 -0.2899
  137MOL0     O18799   7.015   6.089   8.129 -0.0532 -0.1420  0.0336
  137MOL0     C18800   7.074   6.001   8.227 -0.6573 -0.2083 -0.0990
  137MOL0     C18801   7.009   5.902   8.303  0.0215 -0.5927 -0.3844
  137MOL0     C18802   7.076   5.819   8.395 -0.6061 -0.1700 -0.1721
  137MOL0     C18803   7.212   5.825   8.414 -0.5552 -0.5023 -0.1636
  137MOL0     O18804   7.275   5.742   8.507  0.5791 -0.4985 -0.5532
  137MOL0     C18805   7.417   5.720   8.497 -0.0348  0.0843  0.0421
  137MOL0     C18806   7.486   5.780   8.622  0.0566 -1.0501 -0.3961
  137MOL0     C18807   7.416   5.727   8.750 -0.1159  0.1050 -0.4220
  137MOL0     C18808   7.533   5.701   8.850  0.5763 -1.0150 -0.5226
  137MOL0     C18809   7.607   5.583   8.823  0.0220  0.0112  0.4116
  137MOL0     C18810   7.735   5.560   8.890 -0.2880 -0.4547 -0.5447
  137MOL0     C18811   7.724   5.533   9.039 -1.0419 -0.5776 -0.2373
  137MOL0     C18812   7.858   5.481   9.090  0.5899 -0.5139 -0.5758
  137MOL0    Cl18813   7.862   5.477   9.274 -0.2591 -0.2759  0.3564
  137MOL0     C18814   7.283   5.929   8.349 -0.4601  0.2205 -0.1888
  137MOL0     C18815   7.211   6.009   8.258  0.1347  0.2495 -0.3580
  137MOL0     O18816   6.799   6.055   8.190  0.8773 -0.2732 -0.1388
  137MOL0     C18817   6.717   6.141   7.931 -0.2577  0.4127 -0.6645
  137MOL0     C18818   6.649   6.204   7.830  0.0278 -0.7225 -0.4670
  137MOL0     N18819   7.052   6.560   7.485  0.4650 -0.3877  0.6270
  137MOL0     N18820   7.139   6.475   7.541  0.8607  0.2770  0.7370
  137MOL0     C18821   7.630   5.523   8.262  0.0111  1.1474 -0.3720
  137MOL0     C18822   7.694   5.467   8.371  0.1094 -1.0676 -0.2810
  137MOL0     C18823   7.854   5.241   8.721  0.3717  0.0938  0.2419
  137MOL0     C18824   7.752   5.179   8.795  0.6851  0.4218  0.4845
  137MOL0     C18825   7.785   5.120   8.917 -0.8063 -0.5184 -0.1463
  137MOL0     C18826   7.925   5.111   8.955  0.2962 -0.3415 -0.5038
  137MOL0     O18827   7.960   5.049   9.069 -0.2303 -0.4819 -0.0771
  137MOL0     C18828   7.933   4.906   9.066  0.6763  0.3084  0.1546
  137MOL0     C18829   8.054   4.819   9.058 -0.8700  0.4634 -0.0415
  137MOL0     C18830   8.130   4.821   8.921 -0.6915 -0.0177  0.6986
  137MOL0     C18831   8.048   4.780   8.803 -0.5951 -0.1478  0.1190
  137MOL0     C18832   8.143   4.750   8.696  1.0553 -0.1239  0.3535
  137MOL0     C18833   8.219   4.738   8.606  0.5957 -0.4882  0.0154
  137MOL0     C18834   8.024   5.184   8.893 -0.1116 -0.7199  0.0867
  137MOL0     C18835   7.985   5.245   8.773 -0.1455  0.0430  0.3504
  137MOL0     C18836   8.087   5.334   8.711 -0.2419 -0.3650  0.9252
  137MOL0     H18837   7.429   5.315   8.508 -2.4441  2.5911  0.2263
  137MOL0     H18838   7.328   5.387   8.309  0.8062  0.0631  2.3287
  137MOL0     H18839   7.300   5.643   8.179  1.8918 -0.3380  1.6983
  137MOL0     H18840   7.259   5.480   8.115  0.1681 -0.5326 -3.0296
  137MOL0     H18841   7.384   5.631   7.897 -2.2538  2.4599 -4.7600
  137MOL0     H18842   7.232   5.549   7.897  0.0408 -1.0445  1.6534
  137MOL0     H18843   7.119   5.740   7.999 -1.1021  3.7918 -1.7742
  137MOL0     H18844   7.271   5.815   8.037 -0.6530  0.9697 -1.0075
  137MOL0     H18845   7.317   5.819   7.780 -0.0073  1.6531  0.9673
  137MOL0     H18846   7.152   5.773   7.754 -0.2692  0.6617 -0.6208
  137MOL0     H18847   7.237   6.022   7.898 -0.0918  0.6463  0.0410
  137MOL0     H18848   7.064   5.970   7.871  0.2874 -2.5096  0.7268
  137MOL0     H18849   7.257   6.002   7.639  0.6045 -3.1937  1.1413
  137MOL0     H18850   7.095   5.959   7.631 -0.0170  0.4276 -1.5669
  137MOL0     H18851   7.159   6.231   7.753 -0.9794 -1.8012  1.9808
  137MOL0     H18852   7.014   6.184   7.680  1.1523 -1.5035  1.0809
  137MOL0     H18853   7.273   6.227   7.520 -0.0894 -1.3627 -0.7200
  137MOL0     H18854   7.130   6.145   7.450 -0.5412  0.5947 -0.7072
  137MOL0     H18855   6.912   6.282   7.396 -0.1198  1.8642  1.8009
  137MOL0     H18856   6.809   6.498   7.276  2.1069  0.0541 -1.1083
  137MOL0     H18857   6.825   6.655   7.363  0.7298  0.6661  1.0748
  137MOL0     H18858   6.613   6.525   7.440 -0.2697 -1.4039  2.1685
  137MOL0     H18859   6.711   6.406   7.505  0.6883 -0.0403  1.6951
  137MOL0     H18860   6.818   6.590   7.651  0.2368 -1.8632 -0.6861
  137MOL0     H18861   6.717   6.704   7.576 -3.7654 -1.0728 -0.8483
  137MOL0     H18862   6.649   6.589   7.803 -2.0482  1.1566  1.8354
  137MOL0     H18863   6.513   6.575   7.680  0.1305 -2.0739 -1.5305
  137MOL0     H18864   6.844   6.483   7.818 -2.4026  2.4542  2.6421
  137MOL0     H18865   7.066   6.383   7.915 -0.9197  0.8904 -1.3655
  137MOL0     H18866   7.046   6.327   8.088  0.4172  0.3691  0.4431
  137MOL0     H18867   6.976   6.482   8.033  1.3140  0.6159 -1.8557
  137MOL0     H18868   6.901   5.892   8.297 -0.2449  2.1592 -1.8629
  137MOL0     H18869   7.034   5.732   8.445  2.3449 -1.6625 -0.1171
  137MOL0     H18870   7.429   5.611   8.506 -0.7594 -0.0617 -0.6721
  137MOL0     H18871   7.468   5.768   8.413  0.3616  0.7644  0.6567
  137MOL0     H18872   7.594   5.763   8.618  0.0258 -1.4614  0.3965
  137MOL0     H18873   7.455   5.885   8.615 -0.7718 -1.1296  1.5131
  137MOL0     H18874   7.359   5.635   8.737 -0.9559  0.4554  0.6172
  137MOL0     H18875   7.356   5.807   8.796  0.6227  3.2972 -4.4267
  137MOL0     H18876   7.481   5.697   8.946 -2.0776  2.2713 -1.6063
  137MOL0     H18877   7.599   5.789   8.852 -0.1082 -0.4940 -0.0808
  137MOL0     H18878   7.537   5.501   8.843 -0.6002  0.8328  1.7283
  137MOL0     H18879   7.625   5.574   8.715 -1.8634 -3.9798  0.2231
  137MOL0     H18880   7.795   5.651   8.885 -1.7465  0.7128  1.6262
  137MOL0     H18881   7.782   5.470   8.848 -0.8886 -0.4052 -1.3396
  137MOL0     H18882   7.648   5.458   9.061  0.3642 -1.7245  0.8898
  137MOL0     H18883   7.713   5.635   9.078  0.2434 -0.5938  0.2066
  137MOL0     H18884   7.945   5.538   9.054 -0.3993  1.0893 -0.5140
  137MOL0     H18885   7.881   5.382   9.051 -1.6357 -0.0754 -3.3197
  137MOL0     H18886   7.385   5.953   8.378  0.4499 -0.8864 -2.2675
  137MOL0     H18887   7.269   6.076   8.195 -1.5428  1.8021 -0.3482
  137MOL0     H18888   6.678   6.045   7.963 -1.7684  1.3269  0.3406
  137MOL0     H18889   6.557   6.156   7.797  0.0974 -1.8968  0.9251
  137MOL0     H18890   7.690   5.598   8.211  0.5884 -0.0225 -1.4579
  137MOL0     H18891   7.796   5.500   8.391 -0.2346 -1.3642  2.2430
  137MOL0     H18892   7.645   5.182   8.776 -0.5094  3.8427  5.6579
  137MOL0     H18893   7.710   5.086   8.987 -1.6830 -0.4613 -1.0302
  137MOL0     H18894   7.880   4.875   9.156 -1.1875  0.3586 -0.8934
  137MOL0     H18895   7.864   4.880   8.986 -3.5648  1.0989  3.1899
  137MOL0     H18896   8.031   4.714   9.082  0.7529  0.2684  0.8180
  137MOL0     H18897   8.133   4.841   9.129 -0.4368  2.2646 -1.0359
  137MOL0     H18898   8.178   4.916   8.895  1.1793 -1.2745 -0.6679
  137MOL0     H18899   8.219   4.758   8.921  0.6794  1.8074 -0.4457
  137MOL0     H18900   7.996   4.869   8.767 -1.0938 -1.0694 -1.5592
  137MOL0     H18901   7.974   4.702   8.826  0.5878 -0.6074  2.6852
  137MOL0     H18902   8.275   4.726   8.515 -2.6010 -1.6626 -1.9483
  137MOL0     H18903   8.127   5.189   8.925  0.0860  0.1679 -0.6423
  137MOL0     H18904   8.151   5.369   8.793 -1.2583  2.4640  0.6166
  137MOL0     H18905   8.150   5.276   8.642  0.2126  0.6517  0.4571
  137MOL0     H18906   8.044   5.426   8.671 -0.8166 -0.4089  1.4296
  138MOL0     O18907   2.459   8.643   4.152 -0.3251  0.7548  0.5340
  138MOL0     C18908   2.517   8.749   4.120 -0.2848  0.0471 -0.6067
  138MOL0     O18909   2.520   8.800   4.003 -0.2431 -0.1125  0.4549
  138MOL0     C18910   2.466   8.732   3.891  0.6675 -0.5633 -0.0263
  138MOL0     C18911   2.563   8.679   3.799  0.4054 -0.0792 -1.7930
  138MOL0     C18912   2.533   8.599   3.688  0.3341 -0.3835  0.9729
  138MOL0     C18913   2.394   8.600   3.646 -0.0632 -0.5937  0.0010
  138MOL0     O18914   2.369   8.523   3.537  0.5963  0.1944 -0.5124
  138MOL0     C18915   2.235   8.492   3.476 -0.2060  0.0749 -0.1189
  138MOL0     C18916   2.159   8.385   3.550 -0.2287 -0.8221  0.3536
  138MOL0     C18917   2.039   8.327   3.469  0.3753 -0.0326 -0.4538
  138MOL0     C18918   2.073   8.223   3.361 -0.4171  0.1368 -0.4182
  138MOL0     C18919   1.952   8.179   3.274  0.1532 -1.1149 -0.2353
  138MOL0     C18920   1.989   8.052   3.193  0.1215 -1.1981 -0.4050
  138MOL0     C18921   1.886   7.989   3.104 -0.3200  0.1630  0.0210
  138MOL0     C18922   1.947   7.904   2.992 -0.1175  0.8033 -0.0392
  138MOL0     N18923   1.844   7.858   2.896 -0.0391 -0.2083  0.7817
  138MOL0     C18924   1.767   7.749   2.918  0.2673  0.1127 -0.0218
  138MOL0     C18925   1.686   7.758   2.812  0.1482  1.3241 -0.8262
  138MOL0     C18926   1.566   7.662   2.791 -0.7582  0.3870 -0.5553
  138MOL0     C18927   1.523   7.656   2.645  0.0438  0.1227 -0.2588
  138MOL0     C18928   1.623   7.582   2.564  0.8689 -0.0070  0.2729
  138MOL0     C18929   1.597   7.434   2.539 -0.4429  0.3080  0.4487
  138MOL0     O18930   1.615   7.353   2.651  0.0144  0.4728  0.5684
  138MOL0     C18931   1.548   7.233   2.654 -0.3743 -0.7090 -0.4693
  138MOL0     C18932   1.489   7.169   2.545  0.0058  0.0038 -0.2975
  138MOL0     C18933   1.402   7.057   2.569 -0.7155 -0.6538  0.4805
  138MOL0     C18934   1.345   7.004   2.438 -0.0555 -0.1093 -0.4652
  138MOL0     C18935   1.406   6.996   2.701  0.2282  0.5758 -0.3286
  138MOL0     C18936   1.344   6.864   2.726 -0.3886  0.3457  0.2977
  138MOL0     O18937   1.338   6.834   2.864 -0.2210 -0.2445  0.9383
  138MOL0     C18938   1.263   6.744   2.922 -0.0466  1.2849 -0.6902
  138MOL0     C18939   1.290   6.697   3.054  0.7186  0.4350 -0.4139
  138MOL0     C18940   1.216   6.587   3.120 -0.6386 -0.0595 -0.2988
  138MOL0     C18941   1.100   6.544   3.062  0.3913  0.1799  0.3574
  138MOL0     O18942   1.022   6.448   3.135 -0.2557 -0.6801  0.1616
  138MOL0     C18943   0.914   6.369   3.070  0.3676 -0.4543 -1.1908
  138MOL0     C18944   0.975   6.266   2.975  0.3052  0.3185  0.8529
  138MOL0     C18945   0.850   6.203   2.898  0.9461  0.5578 -0.4483
  138MOL0     C18946   0.875   6.059   2.821  0.1905  0.3202 -0.9185
  138MOL0     C18947   0.750   6.005   2.743  0.6680 -0.6849  0.1916
  138MOL0     C18948   0.778   5.861   2.693 -0.3142  1.1990  1.0217
  138MOL0     C18949   0.642   5.786   2.655 -0.4830 -0.6031 -0.0893
  138MOL0     C18950   0.578   5.827   2.526 -0.1108  0.5601 -0.2045
  138MOL0    Cl18951   0.683   5.784   2.394 -0.1222  0.8725 -0.0168
  138MOL0     C18952   1.060   6.599   2.939  0.2017 -0.1208  0.0104
  138MOL0     C18953   1.143   6.692   2.871 -0.6970 -0.6960 -0.7778
  138MOL0     O18954   1.312   6.787   2.636 -0.0524  0.4198  0.5806
  138MOL0     C18955   1.467   7.067   2.806 -0.9035 -0.1465 -0.9316
  138MOL0     C18956   1.529   7.187   2.786 -0.0099 -0.8386 -0.1953
  138MOL0     N18957   1.715   7.866   2.733  0.2218  0.1261  0.2366
  138MOL0     N18958   1.820   7.925   2.786  1.0487  0.6882 -0.4004
  138MOL0     C18959   2.296   8.654   3.728  0.5636  0.2114 -0.2821
  138MOL0     C18960   2.335   8.719   3.847 -0.1725 -0.0586 -0.0909
  138MOL0     C18961   2.608   8.803   4.231  0.4153  0.7492  0.3317
  138MOL0     C18962   2.715   8.886   4.193  0.2026  0.1061  0.4662
  138MOL0     C18963   2.803   8.943   4.283  0.2790 -1.2717  0.3474
  138MOL0     C18964   2.779   8.917   4.423  0.2256  0.9308 -0.4343
  138MOL0     O18965   2.867   8.955   4.523 -0.3170  0.0308  0.3266
  138MOL0     C18966   2.964   9.053   4.491  0.2999  0.0407  1.2834
  138MOL0     C18967   2.987   9.137   4.612  0.8272 -0.0133  0.7416
  138MOL0     C18968   3.123   9.216   4.595 -1.0640 -0.5107  0.4869
  138MOL0     C18969   3.187   9.253   4.728 -0.0535 -0.5136 -0.3968
  138MOL0     C18970   3.098   9.323   4.826 -0.2485  0.6770  1.1609
  138MOL0     C18971   3.038   9.391   4.906 -0.4267 -0.1118 -0.4462
  138MOL0     C18972   2.672   8.837   4.461 -0.1990 -0.0514  0.2610
  138MOL0     C18973   2.573   8.795   4.371 -0.7060  0.2922  0.1749
  138MOL0     C18974   2.452   8.720   4.428 -0.0519  0.8360 -0.7818
  138MOL0     H18975   2.666   8.715   3.805  0.7675 -0.8426 -3.0478
  138MOL0     H18976   2.617   8.562   3.628  0.4347 -1.0114  1.4956
  138MOL0     H18977   2.247   8.450   3.376  1.4546 -2.8973  1.1828
  138MOL0     H18978   2.176   8.584   3.481  2.5502  1.8673  2.0173
  138MOL0     H18979   2.235   8.309   3.573  3.6716  2.1784 -1.4482
  138MOL0     H18980   2.126   8.431   3.643  3.5311 -1.1142  2.0110
  138MOL0     H18981   1.981   8.267   3.539  0.2006 -0.3809 -0.8896
  138MOL0     H18982   1.969   8.405   3.439 -4.4537 -3.6690  0.0832
  138MOL0     H18983   2.153   8.262   3.296  2.3800 -1.5708  1.7551
  138MOL0     H18984   2.106   8.131   3.409  5.1631  1.9898  0.1123
  138MOL0     H18985   1.921   8.256   3.202 -0.2565 -0.9382  0.1284
  138MOL0     H18986   1.859   8.166   3.329  0.3892 -0.5229  0.3252
  138MOL0     H18987   2.086   8.069   3.146 -0.1632 -0.7938 -0.8499
  138MOL0     H18988   2.014   7.977   3.269  2.3084 -0.8221 -0.6919
  138MOL0     H18989   1.819   8.062   3.057 -0.4518  0.2776  0.3868
  138MOL0     H18990   1.835   7.912   3.162  2.8033 -0.4025  2.2544
  138MOL0     H18991   2.015   7.970   2.937  2.5115  2.6195  4.7716
  138MOL0     H18992   1.997   7.817   3.034  1.3122  0.9331 -1.3841
  138MOL0     H18993   1.778   7.674   2.996 -0.8478 -1.2167 -1.0944
  138MOL0     H18994   1.489   7.709   2.853  0.2709  2.9503 -1.0723
  138MOL0     H18995   1.600   7.565   2.827  2.6413  1.7169  0.2055
  138MOL0     H18996   1.424   7.611   2.644 -0.6559  1.5984  0.0426
  138MOL0     H18997   1.512   7.760   2.611  0.0144  0.7297  1.4967
  138MOL0     H18998   1.616   7.643   2.473  0.3600 -0.0053  0.3121
  138MOL0     H18999   1.722   7.581   2.611  0.8830 -1.1473  0.2527
  138MOL0     H19000   1.501   7.405   2.496  1.9866 -7.0621 -1.3340
  138MOL0     H19001   1.676   7.425   2.463 -0.3508 -0.9849  0.6835
  138MOL0     H19002   1.512   7.201   2.443  2.1492 -0.4390 -0.0047
  138MOL0     H19003   1.241   6.971   2.454 -0.2277 -0.6781 -2.4469
  138MOL0     H19004   1.400   6.910   2.427  0.8450  0.1509  1.4376
  138MOL0     H19005   1.358   7.082   2.363  4.5675  0.8396  1.0073
  138MOL0     H19006   1.378   6.737   3.102 -0.2939 -0.3264  2.2566
  138MOL0     H19007   1.240   6.558   3.222 -5.3584  1.2815  1.4634
  138MOL0     H19008   0.849   6.321   3.144 -0.2572  1.0012 -0.7588
  138MOL0     H19009   0.848   6.441   3.021  0.4997 -1.8307 -3.5671
  138MOL0     H19010   1.058   6.317   2.925  0.7620 -2.0311 -0.9872
  138MOL0     H19011   1.020   6.188   3.037  1.0765  0.8545  0.9764
  138MOL0     H19012   0.821   6.274   2.820  2.3270 -1.8541 -3.3454
  138MOL0     H19013   0.766   6.189   2.967  0.8484 -1.0431 -0.8628
  138MOL0     H19014   0.908   5.978   2.887 -1.0903  1.7000  1.5512
  138MOL0     H19015   0.961   6.057   2.753  1.2435  1.4392  0.3045
  138MOL0     H19016   0.667   5.992   2.812  1.8655  0.4844  1.9439
  138MOL0     H19017   0.747   6.084   2.666  0.1498  1.5340  2.3693
  138MOL0     H19018   0.818   5.796   2.772 -1.8094  0.9711  1.6125
  138MOL0     H19019   0.846   5.867   2.607 -1.1060 -0.6427  0.2206
  138MOL0     H19020   0.578   5.802   2.742  0.5260 -1.4876  0.8472
  138MOL0     H19021   0.663   5.679   2.652  0.4360 -0.4165 -1.2199
  138MOL0     H19022   0.540   5.930   2.519  1.4180  1.2983  1.4899
  138MOL0     H19023   0.493   5.758   2.534 -0.3686  0.6554 -1.8669
  138MOL0     H19024   0.960   6.587   2.899 -1.3250  0.9642  3.1882
  138MOL0     H19025   1.109   6.727   2.774 -2.0355 -1.4367 -0.5845
  138MOL0     H19026   1.469   7.031   2.909  0.0516  2.1236 -0.0838
  138MOL0     H19027   1.565   7.230   2.879  0.1745 -0.4974 -0.4202
  138MOL0     H19028   2.195   8.650   3.689  0.7566 -1.8781 -0.6882
  138MOL0     H19029   2.255   8.760   3.907  0.9930  2.4577 -0.1416
  138MOL0     H19030   2.740   8.901   4.088  3.6579 -1.6560  0.9039
  138MOL0     H19031   2.875   9.013   4.242 -1.6060 -0.8776 -2.5134
  138MOL0     H19032   3.058   9.008   4.456 -0.1631  0.4360 -0.5906
  138MOL0     H19033   2.926   9.125   4.419 -0.4998  1.2035  2.8192
  138MOL0     H19034   2.992   9.069   4.698 -0.8224 -3.5071 -1.7211
  138MOL0     H19035   2.900   9.202   4.625  1.2799  0.5187  1.2016
  138MOL0     H19036   3.194   9.177   4.522  1.9814  2.6512  1.4897
  138MOL0     H19037   3.106   9.308   4.537  1.6964 -1.9026 -2.9027
  138MOL0     H19038   3.267   9.327   4.713 -0.6957  0.4655  0.8426
  138MOL0     H19039   3.215   9.158   4.775 -0.4986  0.2017  1.4120
  138MOL0     H19040   2.982   9.468   4.954 -1.6514 -1.6164  0.6262
  138MOL0     H19041   2.652   8.826   4.567 -0.7252  3.9760  0.7293
  138MOL0     H19042   2.454   8.739   4.536 -1.6396 -3.1095  0.1000
  138MOL0     H19043   2.359   8.745   4.376  1.2909  1.1630 -3.1661
  138MOL0     H19044   2.474   8.613   4.419  1.6828  1.1314 -0.4776
  139MOL0     O19045   5.319   8.455   7.867  0.1828  0.1184 -0.1488
  139MOL0     C19046   5.419   8.511   7.912 -0.0707  0.3660 -0.5566
  139MOL0     O19047   5.415   8.636   7.973 -0.8083  0.3091  0.4829
  139MOL0     C19048   5.295   8.692   7.986  0.0372  0.3745  0.2587
  139MOL0     C19049   5.254   8.751   7.863 -0.0041  1.3437  0.3267
  139MOL0     C19050   5.128   8.821   7.866 -0.3039  0.2879  0.2717
  139MOL0     C19051   5.049   8.825   7.976  0.8146  0.9779 -1.4461
  139MOL0     O19052   4.935   8.899   8.003 -0.3702  0.0105  0.7372
  139MOL0     C19053   4.886   8.991   7.901 -0.4381  0.0341  0.1074
  139MOL0     C19054   4.749   9.055   7.940  0.4013  0.1630  0.5928
  139MOL0     C19055   4.757   9.134   8.062  0.0110 -0.4832 -1.0076
  139MOL0     C19056   4.618   9.204   8.091  0.1950  0.0111 -0.2134
  139MOL0     C19057   4.621   9.302   8.218  0.3321  0.6344  0.5708
  139MOL0     C19058   4.480   9.338   8.270 -0.3608  0.0211 -0.3445
  139MOL0     C19059   4.469   9.439   8.384  0.1119 -1.0253  0.3642
  139MOL0     C19060   4.490   9.590   8.354  0.3607 -0.0257  0.7926
  139MOL0     N19061   4.549   9.672   8.458  0.4036 -0.0097 -0.8706
  139MOL0     C19062   4.670   9.678   8.518 -0.0305  0.4967  0.2153
  139MOL0     C19063   4.666   9.786   8.598  0.1886  0.7193 -0.9047
  139MOL0     C19064   4.783   9.813   8.681  0.0979  0.3172 -0.0729
  139MOL0     C19065   4.847   9.944   8.645  0.1757 -0.5966  1.7509
  139MOL0     C19066   4.762  10.063   8.692 -0.6033  0.2124 -0.4808
  139MOL0     C19067   4.764  10.079   8.844  0.0058  0.1572  0.0064
  139MOL0     O19068   4.694  10.188   8.888 -0.3046 -0.3811 -0.1447
  139MOL0     C19069   4.746  10.312   8.875 -1.1049 -0.1396 -0.0589
  139MOL0     C19070   4.671  10.407   8.946 -0.5997  0.7906  0.1323
  139MOL0     C19071   4.704  10.535   8.956 -0.2466  0.2374 -0.4971
  139MOL0     C19072   4.600  10.628   9.022  0.4032 -0.6222  0.2103
  139MOL0     C19073   4.820  10.582   8.895  0.3196 -0.6946  0.3921
  139MOL0     C19074   4.883  10.721   8.909  0.2143 -0.2454  0.0050
  139MOL0     O19075   4.813  10.821   8.976  0.5104  0.2493  0.0385
  139MOL0     C19076   4.870  10.946   8.991  0.2907  0.2261  0.7166
  139MOL0     C19077   4.851  11.047   8.900 -0.0431  0.5487 -0.3342
  139MOL0     C19078   4.910  11.167   8.916  0.1833 -0.8082 -0.8022
  139MOL0     C19079   4.987  11.200   9.035  0.1490 -0.1756 -0.2321
  139MOL0     O19080   5.044  11.321   9.051 -0.5073  0.4253 -0.2013
  139MOL0     C19081   4.952  11.435   9.029 -1.3707 -0.3286 -0.0287
  139MOL0     C19082   5.011  11.568   9.048 -0.1957 -0.1726  0.0350
  139MOL0     C19083   4.915  11.678   8.991 -0.1895 -1.0314 -0.1467
  139MOL0     C19084   4.942  11.810   9.060 -0.2868 -0.5433  0.4279
  139MOL0     C19085   4.895  11.937   8.983  0.2297 -0.1496 -0.2955
  139MOL0     C19086   4.739  11.943   8.970 -0.7116  0.1616  1.0719
  139MOL0     C19087   4.683  12.051   8.878 -0.1932  0.9777 -0.6688
  139MOL0     C19088   4.550  12.103   8.935 -0.2356 -1.0542  0.4768
  139MOL0    Cl19089   4.568  12.181   9.095 -0.7246 -0.4412  0.0646
  139MOL0     C19090   5.005  11.094   9.118 -0.5828 -0.1660  0.7580
  139MOL0     C19091   4.949  10.968   9.101 -0.2222 -0.4471  0.0170
  139MOL0     O19092   4.995  10.740   8.864 -0.1526 -0.0937 -0.4950
  139MOL0     C19093   4.898  10.485   8.822 -0.3781  0.1354  0.2542
  139MOL0     C19094   4.865  10.349   8.824  0.6207  0.0934  0.8232
  139MOL0     N19095   4.545   9.844   8.594 -0.3626 -0.5077 -0.4632
  139MOL0     N19096   4.479   9.780   8.508  0.5401 -0.4247 -0.3665
  139MOL0     C19097   5.086   8.751   8.086  0.0108 -0.8679  0.3598
  139MOL0     C19098   5.209   8.691   8.102 -0.4219  0.6519  0.3226
  139MOL0     C19099   5.549   8.444   7.903  0.4748  0.1023  0.3406
  139MOL0     C19100   5.652   8.485   7.989 -0.9617 -0.6303  0.2546
  139MOL0     C19101   5.786   8.435   7.982  0.4532 -0.2997  0.9751
  139MOL0     C19102   5.812   8.319   7.910 -0.2093 -0.0253  0.8905
  139MOL0     O19103   5.926   8.253   7.884  0.1269 -0.3129 -0.1952
  139MOL0     C19104   6.045   8.303   7.948 -0.0219 -0.1174  0.6102
  139MOL0     C19105   6.170   8.224   7.899 -0.3570  0.9011 -0.0242
  139MOL0     C19106   6.189   8.205   7.752  0.8223  0.2808 -0.5445
  139MOL0     C19107   6.333   8.161   7.711  0.1372 -0.1702 -0.8976
  139MOL0     C19108   6.423   8.273   7.747 -0.8480 -0.5302 -0.9140
  139MOL0     C19109   6.488   8.380   7.765  0.0310  0.9855 -1.0087
  139MOL0     C19110   5.697   8.275   7.836  0.0720  1.6040  0.4592
  139MOL0     C19111   5.569   8.325   7.830 -0.1359  0.0664  0.8848
  139MOL0     C19112   5.477   8.253   7.743  0.4386  0.1572 -1.0108
  139MOL0     H19113   5.315   8.745   7.773 -2.3862  1.0480 -1.3781
  139MOL0     H19114   5.101   8.893   7.790  0.8503  1.7423  1.1886
  139MOL0     H19115   4.882   8.945   7.802  0.2594  1.9401 -0.8636
  139MOL0     H19116   4.964   9.067   7.897  0.6051 -0.8701  2.0812
  139MOL0     H19117   4.721   9.120   7.857 -1.7805 -1.7016 -0.2457
  139MOL0     H19118   4.676   8.974   7.956  1.5731 -0.5929  2.4592
  139MOL0     H19119   4.797   9.073   8.144 -0.6353 -1.0854 -1.1368
  139MOL0     H19120   4.825   9.217   8.041  1.2494 -1.5018 -1.1783
  139MOL0     H19121   4.588   9.245   7.994 -0.8712  0.1915  0.1845
  139MOL0     H19122   4.543   9.132   8.125  1.5459  0.1899  3.5715
  139MOL0     H19123   4.687   9.387   8.197  2.1019 -0.6686  0.5594
  139MOL0     H19124   4.671   9.236   8.290 -3.8139 -3.0731  0.5221
  139MOL0     H19125   4.416   9.377   8.190 -4.9553 -2.0935  1.9345
  139MOL0     H19126   4.429   9.245   8.295 -1.9993  0.8496 -0.4260
  139MOL0     H19127   4.537   9.413   8.465  0.3149  1.6614  1.1541
  139MOL0     H19128   4.366   9.429   8.420 -0.3083 -0.9399 -0.7615
  139MOL0     H19129   4.545   9.609   8.261 -4.7370 -1.8414 -3.0563
  139MOL0     H19130   4.389   9.628   8.333  1.2826  1.0523 -2.2342
  139MOL0     H19131   4.748   9.604   8.502 -0.3161 -0.1201  1.5961
  139MOL0     H19132   4.862   9.739   8.667  1.3519  1.3978  1.1046
  139MOL0     H19133   4.759   9.800   8.787 -1.2650 -2.6207 -0.6392
  139MOL0     H19134   4.951   9.961   8.673 -0.0693  1.5677  1.5451
  139MOL0     H19135   4.839   9.952   8.536 -1.1690  0.2838  1.8846
  139MOL0     H19136   4.812  10.153   8.654  2.2610 -0.9227  0.3063
  139MOL0     H19137   4.659  10.054   8.657 -1.3074 -0.1039  1.5473
  139MOL0     H19138   4.725   9.988   8.890  1.4503 -1.5650 -1.9919
  139MOL0     H19139   4.867  10.098   8.876 -0.5260  3.9518 -0.0290
  139MOL0     H19140   4.580  10.378   8.998 -1.6252 -0.9160 -2.4035
  139MOL0     H19141   4.617  10.691   9.110 -1.9682 -0.6500  0.7411
  139MOL0     H19142   4.516  10.564   9.051  1.7262 -1.4770  2.4537
  139MOL0     H19143   4.569  10.697   8.943 -0.2715  3.0845  3.4320
  139MOL0     H19144   4.788  11.028   8.814 -1.6955 -0.5380  1.0512
  139MOL0     H19145   4.895  11.238   8.835 -0.8598  0.2353  0.2554
  139MOL0     H19146   4.924  11.429   8.923  0.9756  1.8537 -0.8987
  139MOL0     H19147   4.866  11.417   9.094 -1.4646 -1.4352 -0.4391
  139MOL0     H19148   5.025  11.586   9.155 -0.0032 -0.2231  0.0201
  139MOL0     H19149   5.107  11.567   8.995 -0.6271  2.3572 -0.9273
  139MOL0     H19150   4.809  11.651   8.998 -0.0479 -1.9990 -1.6049
  139MOL0     H19151   4.941  11.673   8.885  0.9312 -3.7270  0.1714
  139MOL0     H19152   5.051  11.825   9.065 -0.7058  3.8508  0.1310
  139MOL0     H19153   4.907  11.809   9.163 -1.2003  3.9838  0.3751
  139MOL0     H19154   4.923  12.026   9.041  1.9230  0.8953 -2.5503
  139MOL0     H19155   4.942  11.949   8.885  1.2055  2.3050  0.4002
  139MOL0     H19156   4.701  11.967   9.070 -1.0995 -0.8648  1.1912
  139MOL0     H19157   4.692  11.846   8.951 -0.7817  0.3664  0.1400
  139MOL0     H19158   4.675  12.014   8.775 -0.5989 -2.2644  0.4262
  139MOL0     H19159   4.743  12.142   8.884 -1.9383  2.1864 -0.7560
  139MOL0     H19160   4.478  12.021   8.946 -2.5771  0.7232 -0.6967
  139MOL0     H19161   4.510  12.165   8.854 -1.5854 -1.0073  1.1447
  139MOL0     H19162   5.065  11.113   9.207  2.9817  2.0956 -1.7986
  139MOL0     H19163   4.971  10.903   9.185 -0.9283  1.1348  1.4812
  139MOL0     H19164   4.997  10.503   8.783 -0.9950  1.3915 -0.7959
  139MOL0     H19165   4.923  10.272   8.774 -0.2797  1.2000 -2.1740
  139MOL0     H19166   5.024   8.752   8.175  2.2915 -0.2956  2.0535
  139MOL0     H19167   5.242   8.657   8.200  3.0734  3.6651  0.4160
  139MOL0     H19168   5.637   8.564   8.061  0.1280 -0.4046  0.2534
  139MOL0     H19169   5.865   8.474   8.046 -0.5317  0.7218  1.6134
  139MOL0     H19170   6.059   8.408   7.918  2.6681 -0.4207  0.5490
  139MOL0     H19171   6.038   8.294   8.057 -3.7023 -0.6084  0.4635
  139MOL0     H19172   6.179   8.125   7.945  0.0243  1.4702  1.1781
  139MOL0     H19173   6.254   8.284   7.935  1.1839 -0.9504 -0.3654
  139MOL0     H19174   6.118   8.134   7.708  2.2783 -1.4914 -0.1793
  139MOL0     H19175   6.166   8.302   7.707  0.4434 -1.1205 -3.6801
  139MOL0     H19176   6.324   8.143   7.604 -0.0103 -2.4033 -0.5568
  139MOL0     H19177   6.373   8.069   7.755  1.2947  1.1546  0.9320
  139MOL0     H19178   6.546   8.470   7.773  1.0560  0.3686 -1.3009
  139MOL0     H19179   5.726   8.193   7.771  0.8238  1.6850  0.6820
  139MOL0     H19180   5.418   8.189   7.809  3.5922 -0.7934  1.1158
  139MOL0     H19181   5.412   8.331   7.701  1.0705  2.0224  1.3054
  139MOL0     H19182   5.519   8.200   7.656 -0.9391  1.9196 -2.8487
  140MOL0     O19183  10.921   9.726   5.845 -0.5622  0.0611 -0.0594
  140MOL0     C19184  10.820   9.755   5.911  0.4218  0.7078 -0.1570
  140MOL0     O19185  10.831   9.816   6.040  0.2841 -0.3967  0.3018
  140MOL0     C19186  10.954   9.830   6.098 -0.8398 -0.0831  0.0382
  140MOL0     C19187  11.054   9.920   6.055  0.1864 -0.0893  0.6157
  140MOL0     C19188  11.168   9.940   6.142 -0.2465 -1.4135 -0.4855
  140MOL0     C19189  11.179   9.874   6.271 -0.0445  0.1482 -0.4674
  140MOL0     O19190  11.285   9.875   6.362 -0.1843  0.3860  0.6111
  140MOL0     C19191  11.383   9.981   6.345  0.0901 -0.0176  1.4361
  140MOL0     C19192  11.494   9.984   6.450  0.4776 -0.8972 -0.3506
  140MOL0     C19193  11.430  10.027   6.584 -0.4738 -1.0580 -0.3757
  140MOL0     C19194  11.549  10.067   6.685 -0.4122  1.7104  0.0193
  140MOL0     C19195  11.582  10.215   6.652  0.0764 -0.4330  0.0532
  140MOL0     C19196  11.610  10.300   6.772  0.0867 -0.6790  0.0478
  140MOL0     C19197  11.703  10.239   6.887 -0.0349  0.5189  0.3249
  140MOL0     C19198  11.755  10.356   6.981  1.3729 -0.3496  1.7261
  140MOL0     N19199  11.851  10.326   7.084 -0.4280  0.2889  0.9897
  140MOL0     C19200  11.985  10.286   7.081 -0.8609 -0.1340 -0.4898
  140MOL0     C19201  12.030  10.268   7.212  0.7938 -1.3822  0.0724
  140MOL0     C19202  12.160  10.221   7.257 -0.3415  0.2112 -0.5620
  140MOL0     C19203  12.240  10.151   7.146 -0.0771  0.0540  0.3688
  140MOL0     C19204  12.378  10.096   7.184  1.6484 -0.2593 -0.0477
  140MOL0     C19205  12.458  10.052   7.070  0.2956  0.2179  0.5286
  140MOL0     O19206  12.380   9.951   6.997 -0.8031 -0.4323 -0.4911
  140MOL0     C19207  12.391   9.822   7.021  0.2955  0.9642 -0.2151
  140MOL0     C19208  12.320   9.742   6.928 -0.6719  1.0932 -0.5462
  140MOL0     C19209  12.311   9.603   6.935 -0.5452 -0.6268  0.3112
  140MOL0     C19210  12.224   9.540   6.833  0.5845  0.4999 -0.0280
  140MOL0     C19211  12.392   9.535   7.027  0.0945 -0.4926  0.7281
  140MOL0     C19212  12.381   9.390   7.061  1.4936  0.2753 -0.0479
  140MOL0     O19213  12.438   9.352   7.180  0.0087 -0.3321  0.4784
  140MOL0     C19214  12.469   9.225   7.218  0.5768  0.0182  0.0365
  140MOL0     C19215  12.603   9.216   7.273  0.2983 -0.0220 -0.0720
  140MOL0     C19216  12.649   9.088   7.307 -0.4039 -0.1326 -0.4154
  140MOL0     C19217  12.565   8.976   7.314  0.1485 -0.4413 -0.4576
  140MOL0     O19218  12.606   8.855   7.361  0.1855  0.9948  1.1403
  140MOL0     C19219  12.741   8.822   7.387 -0.7329  0.9734  0.3220
  140MOL0     C19220  12.821   8.820   7.255  0.6380 -0.5374 -0.0601
  140MOL0     C19221  12.964   8.747   7.280 -0.2324 -0.3080 -0.0322
  140MOL0     C19222  12.946   8.601   7.255 -0.0372  0.1133 -0.1279
  140MOL0     C19223  13.087   8.531   7.253 -1.0603  0.9213  0.2508
  140MOL0     C19224  13.089   8.377   7.221 -0.0694  1.0535  0.4888
  140MOL0     C19225  13.234   8.319   7.208  0.5884  0.9322 -0.4599
  140MOL0     C19226  13.231   8.176   7.137 -0.3472  0.1028 -0.4202
  140MOL0    Cl19227  13.127   8.055   7.228 -0.8650 -0.1179 -0.0831
  140MOL0     C19228  12.439   8.982   7.258  0.4382  0.1577  0.4996
  140MOL0     C19229  12.392   9.105   7.200 -0.2295  0.5371 -0.4319
  140MOL0     O19230  12.303   9.318   6.992 -0.5085  0.9595  0.0442
  140MOL0     C19231  12.482   9.619   7.106  0.2878  0.3607  0.1764
  140MOL0     C19232  12.479   9.760   7.112  0.1533  0.4724  0.0537
  140MOL0     N19233  11.917  10.320   7.294  0.6126  0.9712  0.2911
  140MOL0     N19234  11.821  10.347   7.215  0.1647 -0.8027  0.4702
  140MOL0     C19235  11.082   9.789   6.312 -0.9227 -0.2448 -0.3013
  140MOL0     C19236  10.972   9.765   6.221 -0.1746  0.4808  0.4119
  140MOL0     C19237  10.682   9.742   5.844  0.3640 -0.1261 -0.2840
  140MOL0     C19238  10.572   9.815   5.899  0.5444  0.6032  0.2662
  140MOL0     C19239  10.438   9.796   5.863  0.1258  0.4577 -0.1418
  140MOL0     C19240  10.421   9.698   5.771  1.1620 -0.0358  0.0070
  140MOL0     O19241  10.291   9.677   5.722  0.2237 -0.1064  0.4389
  140MOL0     C19242  10.179   9.669   5.810  0.1592 -0.1939 -0.8872
  140MOL0     C19243  10.116   9.532   5.827  0.4775  0.6845 -0.0844
  140MOL0     C19244   9.992   9.541   5.911 -0.4862 -0.9387  0.9975
  140MOL0     C19245   9.877   9.607   5.829 -0.8051 -0.0212  0.2931
  140MOL0     C19246   9.769   9.589   5.920 -0.3820 -0.2744  0.7375
  140MOL0     C19247   9.679   9.554   5.995 -0.9490  0.2993 -0.2491
  140MOL0     C19248  10.523   9.624   5.713  0.2457  0.0146 -0.4158
  140MOL0     C19249  10.651   9.645   5.745 -0.8684 -0.9625 -0.8929
  140MOL0     C19250  10.747   9.570   5.662 -0.3598  0.4272  0.2842
  140MOL0     H19251  11.044   9.979   5.964  1.0937  0.4933  0.8873
  140MOL0     H19252  11.243  10.011   6.110 -0.4868  0.1214  2.0650
  140MOL0     H19253  11.340  10.081   6.352  2.8138  1.2348  1.5965
  140MOL0     H19254  11.429   9.977   6.246  2.1930  0.1492  2.3619
  140MOL0     H19255  11.552   9.891   6.460  1.3451 -0.3675 -0.3854
  140MOL0     H19256  11.561  10.058   6.408  1.3884  0.0504  2.5180
  140MOL0     H19257  11.350  10.102   6.578  1.4338  1.2975  1.7714
  140MOL0     H19258  11.378   9.941   6.626 -2.2307  0.1937  0.1296
  140MOL0     H19259  11.520  10.056   6.790 -2.0437  2.4310 -0.3241
  140MOL0     H19260  11.630   9.994   6.677  0.8291  3.0055  0.4014
  140MOL0     H19261  11.495  10.258   6.601  1.3004 -0.7847 -2.4523
  140MOL0     H19262  11.673  10.212   6.592  2.0321  3.5696  2.4025
  140MOL0     H19263  11.637  10.397   6.727 -1.8087 -0.5411 -0.8976
  140MOL0     H19264  11.517  10.319   6.826  2.7502 -3.3178  6.6282
  140MOL0     H19265  11.789  10.181   6.851 -0.0806 -1.0432  2.5196
  140MOL0     H19266  11.647  10.170   6.950  2.3033  0.2403  2.2259
  140MOL0     H19267  11.787  10.440   6.918 -0.2021  0.8082  2.4033
  140MOL0     H19268  11.669  10.397   7.033  1.0057 -0.1428  0.9744
  140MOL0     H19269  12.043  10.260   6.994 -0.8996 -3.4435  0.3456
  140MOL0     H19270  12.143  10.148   7.336 -2.2971 -1.5957 -2.5258
  140MOL0     H19271  12.212  10.312   7.291  1.4453 -0.7718 -0.5437
  140MOL0     H19272  12.179  10.067   7.110  1.4420 -1.2993  0.8086
  140MOL0     H19273  12.268  10.226   7.073  0.9911 -1.9692 -1.4253
  140MOL0     H19274  12.428  10.178   7.236 -1.1534 -0.6197  3.5951
  140MOL0     H19275  12.364  10.014   7.255 -0.9175  1.4530  1.5766
  140MOL0     H19276  12.464  10.136   7.000 -2.7114  2.1991  2.3935
  140MOL0     H19277  12.562  10.024   7.089  0.2859  0.9337  1.7984
  140MOL0     H19278  12.266   9.798   6.852 -2.2342 -1.5047 -1.4765
  140MOL0     H19279  12.122   9.518   6.864 -0.1512 -0.2730 -2.7654
  140MOL0     H19280  12.280   9.455   6.791  1.2140  0.7554  0.2798
  140MOL0     H19281  12.216   9.602   6.743  1.7983 -3.2795 -3.0547
  140MOL0     H19282  12.669   9.302   7.271  1.0668 -0.5259 -3.3723
  140MOL0     H19283  12.752   9.082   7.343 -0.4725 -0.8256 -0.3208
  140MOL0     H19284  12.774   8.900   7.457  3.6394 -0.5395  0.2706
  140MOL0     H19285  12.739   8.726   7.438  0.4487  0.9064  0.2832
  140MOL0     H19286  12.758   8.777   7.177 -2.0388  2.2080  0.4154
  140MOL0     H19287  12.839   8.922   7.219 -0.8412 -0.1882  0.1291
  140MOL0     H19288  13.009   8.781   7.374 -2.8127  1.5364  0.6419
  140MOL0     H19289  13.031   8.783   7.201 -2.2110 -1.2150 -2.2487
  140MOL0     H19290  12.892   8.586   7.161 -0.5749 -0.4666  0.2629
  140MOL0     H19291  12.880   8.547   7.323 -1.5361 -1.8546 -2.9335
  140MOL0     H19292  13.160   8.571   7.182  0.5059 -3.5440 -1.0046
  140MOL0     H19293  13.131   8.552   7.351  0.9665  0.1877 -0.4387
  140MOL0     H19294  13.021   8.354   7.138  0.9323  1.6752 -0.5367
  140MOL0     H19295  13.044   8.329   7.308  1.0689 -0.6546  0.1737
  140MOL0     H19296  13.283   8.302   7.304 -1.3469  1.3401  0.6524
  140MOL0     H19297  13.298   8.380   7.144  3.6259  1.6545  2.9342
  140MOL0     H19298  13.330   8.131   7.129 -0.6375 -0.4322 -1.0631
  140MOL0     H19299  13.178   8.181   7.042 -3.2457  0.5298  1.1084
  140MOL0     H19300  12.370   8.898   7.257  1.5916 -0.8307  0.4272
  140MOL0     H19301  12.294   9.113   7.155 -0.9605 -1.5829  0.6388
  140MOL0     H19302  12.540   9.577   7.189  0.2490  1.9518  1.0526
  140MOL0     H19303  12.544   9.826   7.168  1.2825  0.0530 -0.7268
  140MOL0     H19304  11.082   9.751   6.414  0.2323  0.6887  0.0714
  140MOL0     H19305  10.892   9.704   6.261  1.9367 -1.2028  2.4187
  140MOL0     H19306  10.592   9.887   5.979  0.4707 -0.8384  1.6241
  140MOL0     H19307  10.356   9.860   5.894 -0.9498 -1.3601  0.9111
  140MOL0     H19308  10.182   9.722   5.906 -2.1466 -0.3197 -0.6835
  140MOL0     H19309  10.101   9.722   5.755  1.3650  3.0942  0.3064
  140MOL0     H19310  10.199   9.480   5.874 -1.7649 -0.6274  2.7599
  140MOL0     H19311  10.085   9.481   5.735  1.3572  0.1394 -0.0891
  140MOL0     H19312   9.958   9.446   5.953 -1.8878 -1.4920 -1.1767
  140MOL0     H19313  10.013   9.597   6.002  0.6874 -0.1256  0.2520
  140MOL0     H19314   9.850   9.549   5.741  0.9622 -4.3700  2.3458
  140MOL0     H19315   9.897   9.713   5.808 -0.3341 -0.6889 -3.1376
  140MOL0     H19316   9.609   9.538   6.074 -0.8202  0.7327 -0.0425
  140MOL0     H19317  10.496   9.563   5.627 -0.5819 -0.8254  0.4236
  140MOL0     H19318  10.705   9.500   5.589  0.1671 -1.7754  1.9730
  140MOL0     H19319  10.803   9.632   5.591 -1.9413 -0.5424 -1.9282
  140MOL0     H19320  10.822   9.516   5.721 -1.2454  1.7526  2.7346
  141MOL0     O19321   4.781   0.175   6.719  0.2113  0.4501  0.3713
  141MOL0     C19322   4.658   0.158   6.738 -0.0948 -0.8137  0.4437
  141MOL0     O19323   4.579   0.239   6.821  0.4894 -0.2891  0.1723
  141MOL0     C19324   4.644   0.352   6.872 -0.1155  0.1560 -0.9003
  141MOL0     C19325   4.604   0.480   6.843 -0.0510 -0.0719  0.0805
  141MOL0     C19326   4.657   0.592   6.904 -0.2745 -0.2205  0.0200
  141MOL0     C19327   4.765   0.580   6.997  0.6281 -0.3818 -0.7202
  141MOL0     O19328   4.812   0.679   7.083 -0.2156 -0.6242  0.9386
  141MOL0     C19329   4.887   0.788   7.014  1.2521  0.1392 -0.5416
  141MOL0     C19330   5.034   0.761   6.991  0.6004 -0.1866 -0.6525
  141MOL0     C19331   5.126   0.710   7.107  0.9255 -0.6128  0.0038
  141MOL0     C19332   5.276   0.688   7.071 -1.1157 -0.0128  0.4151
  141MOL0     C19333   5.366   0.776   7.164 -0.2936  0.5736  0.9864
  141MOL0     C19334   5.349   0.929   7.172  0.6074  0.5773 -0.3149
  141MOL0     C19335   5.385   0.991   7.032 -0.4280 -0.5275 -0.6113
  141MOL0     C19336   5.351   1.140   7.025 -0.1493  0.2396 -0.1816
  141MOL0     N19337   5.210   1.172   6.999 -0.1274 -0.4502  0.3044
  141MOL0     C19338   5.173   1.167   6.868  0.8019  0.5088 -0.8539
  141MOL0     C19339   5.043   1.130   6.873 -0.0847  0.5328  0.5394
  141MOL0     C19340   4.954   1.110   6.758  0.4535 -0.4658  0.2168
  141MOL0     C19341   4.860   1.233   6.754  0.4449 -0.3616  0.2749
  141MOL0     C19342   4.751   1.214   6.651 -0.4416 -0.0091 -0.6612
  141MOL0     C19343   4.651   1.325   6.674 -0.3997  0.5250  0.3792
  141MOL0     O19344   4.711   1.448   6.639  0.4059 -0.1346  0.1344
  141MOL0     C19345   4.664   1.519   6.524  0.4010  1.1455  0.1314
  141MOL0     C19346   4.678   1.657   6.520  0.9028  0.2654  0.8527
  141MOL0     C19347   4.615   1.731   6.424 -0.7206  0.0998  0.7252
  141MOL0     C19348   4.598   1.877   6.445  0.2735  0.3127 -0.1200
  141MOL0     C19349   4.553   1.670   6.312 -0.8224 -0.4662  0.1814
  141MOL0     C19350   4.483   1.744   6.209  0.1955 -0.0043  0.0649
  141MOL0     O19351   4.360   1.684   6.170  0.1777 -0.9350  0.7782
  141MOL0     C19352   4.280   1.750   6.079  1.4675 -1.0232  0.0727
  141MOL0     C19353   4.177   1.842   6.114 -0.3955 -0.2421  0.6899
  141MOL0     C19354   4.103   1.897   6.008  0.2957  1.3346 -0.2704
  141MOL0     C19355   4.142   1.880   5.874  1.1942  0.8576 -0.4679
  141MOL0     O19356   4.056   1.933   5.778 -0.3417 -0.1276  0.4926
  141MOL0     C19357   4.110   1.936   5.639  0.3238 -0.8014 -0.5146
  141MOL0     C19358   4.013   2.019   5.561 -0.3854 -0.5083 -0.0430
  141MOL0     C19359   4.082   2.042   5.410 -0.0910  1.1791  0.6223
  141MOL0     C19360   4.018   2.162   5.360  0.0828 -0.6829 -0.7851
  141MOL0     C19361   4.059   2.197   5.222 -0.9895  0.9231 -0.4739
  141MOL0     C19362   4.003   2.318   5.163  0.3741 -0.5537  0.5798
  141MOL0     C19363   3.853   2.333   5.155 -0.7356 -0.3564 -0.1359
  141MOL0     C19364   3.804   2.408   5.029 -0.0711 -0.3283 -0.2749
  141MOL0    Cl19365   3.624   2.414   5.010  0.0351 -0.1540 -0.0708
  141MOL0     C19366   4.249   1.807   5.843  0.0671  0.7032 -1.2845
  141MOL0     C19367   4.320   1.748   5.950  0.3902 -0.2249  0.7450
  141MOL0     O19368   4.536   1.845   6.167  0.4427  0.1032  0.7065
  141MOL0     C19369   4.557   1.531   6.314  0.7069  0.8202 -0.2807
  141MOL0     C19370   4.604   1.454   6.416 -0.6393  0.6639 -0.7177
  141MOL0     N19371   5.006   1.109   7.007  0.6672 -0.5780  0.0302
  141MOL0     N19372   5.110   1.148   7.083  0.2039  0.3466  0.1541
  141MOL0     C19373   4.813   0.456   7.019 -0.7383  0.6432 -0.5085
  141MOL0     C19374   4.757   0.342   6.961  0.3242 -0.7578  0.0154
  141MOL0     C19375   4.595   0.029   6.683  0.3134  0.0211  0.1819
  141MOL0     C19376   4.695  -0.066   6.634  1.2554  0.0099 -1.3203
  141MOL0     C19377   4.665  -0.192   6.601  0.2459  0.0030  0.0187
  141MOL0     C19378   4.534  -0.243   6.624 -0.3036 -0.2613  0.2276
  141MOL0     O19379   4.509  -0.378   6.593 -0.3415 -0.6359  0.1603
  141MOL0     C19380   4.380  -0.437   6.625  0.1073 -0.3392 -0.9112
  141MOL0     C19381   4.354  -0.480   6.774 -0.1395  0.4853  0.1794
  141MOL0     C19382   4.234  -0.573   6.775 -0.7052 -0.3423 -0.1973
  141MOL0     C19383   4.191  -0.621   6.918  0.0989 -0.4244 -0.1139
  141MOL0     C19384   4.123  -0.507   6.981 -0.1648 -1.3405  0.8986
  141MOL0     C19385   4.062  -0.403   7.018  1.0549  0.1158 -0.8958
  141MOL0     C19386   4.435  -0.153   6.674  0.1364 -0.1159 -0.2446
  141MOL0     C19387   4.463  -0.021   6.701  1.0306  0.3577 -0.0175
  141MOL0     C19388   4.347   0.060   6.755 -0.2267  0.6871  0.6416
  141MOL0     H19389   4.525   0.497   6.771 -1.4207  0.1571  1.5694
  141MOL0     H19390   4.612   0.687   6.874  1.3659 -0.2578 -2.9710
  141MOL0     H19391   4.886   0.876   7.079  3.2595  0.8432 -1.3802
  141MOL0     H19392   4.831   0.820   6.925 -0.8630  0.5561  0.8849
  141MOL0     H19393   5.045   0.693   6.906 -0.3560 -0.0878 -0.8697
  141MOL0     H19394   5.084   0.852   6.957  2.2565 -0.5318  0.7117
  141MOL0     H19395   5.122   0.777   7.193  1.3019 -1.5718  0.8013
  141MOL0     H19396   5.091   0.609   7.132  1.7672 -0.9389 -0.0906
  141MOL0     H19397   5.308   0.585   7.089  0.0967  0.4503  1.0699
  141MOL0     H19398   5.292   0.730   6.972 -0.6552  0.7950  0.8202
  141MOL0     H19399   5.470   0.756   7.136 -1.2242 -2.2716 -0.8849
  141MOL0     H19400   5.351   0.740   7.266 -0.8445  0.7256  0.9621
  141MOL0     H19401   5.245   0.955   7.192 -0.0780 -1.2044 -1.3554
  141MOL0     H19402   5.422   0.966   7.244  0.0226  1.2762 -0.0741
  141MOL0     H19403   5.341   0.928   6.954  2.1844 -2.0295 -1.0036
  141MOL0     H19404   5.494   0.988   7.022 -0.0547 -5.9453  1.7423
  141MOL0     H19405   5.363   1.178   7.127 -2.8532 -0.1409  0.3567
  141MOL0     H19406   5.423   1.190   6.960 -1.1415  2.4707  0.3447
  141MOL0     H19407   5.225   1.178   6.774 -0.6208  2.4088 -1.4860
  141MOL0     H19408   4.895   1.019   6.772 -1.1917 -0.0011 -2.8094
  141MOL0     H19409   5.015   1.110   6.667  1.6310  3.7192  0.7582
  141MOL0     H19410   4.829   1.249   6.857  0.9129  1.1072  0.2003
  141MOL0     H19411   4.909   1.324   6.718 -2.0664  1.5917  1.4703
  141MOL0     H19412   4.780   1.216   6.546  1.3394 -3.2706 -0.3732
  141MOL0     H19413   4.701   1.119   6.671  2.7293 -1.0797  3.6997
  141MOL0     H19414   4.556   1.299   6.626  1.2886  0.1288 -3.1147
  141MOL0     H19415   4.641   1.328   6.782  3.0212 -1.1762  0.8705
  141MOL0     H19416   4.730   1.708   6.601  1.4749 -0.3613  0.8878
  141MOL0     H19417   4.493   1.907   6.441  1.0930  3.6285  0.7674
  141MOL0     H19418   4.655   1.938   6.374  0.5585  2.4304  1.8077
  141MOL0     H19419   4.627   1.908   6.546 -0.0119 -1.0896  0.4253
  141MOL0     H19420   4.152   1.872   6.215  3.2163  4.6454  0.4962
  141MOL0     H19421   4.014   1.956   6.031 -1.9366 -2.2840  1.2112
  141MOL0     H19422   4.206   1.987   5.635  0.2212 -0.7052 -3.2944
  141MOL0     H19423   4.127   1.832   5.606  2.0021 -1.3732  1.8871
  141MOL0     H19424   3.915   1.971   5.557 -1.4805  1.6360 -0.2686
  141MOL0     H19425   3.988   2.115   5.607 -1.2576 -0.8039  0.1194
  141MOL0     H19426   4.059   1.957   5.345  2.0732  0.3727  0.8089
  141MOL0     H19427   4.190   2.049   5.425  0.3551 -1.9248 -0.3857
  141MOL0     H19428   4.037   2.249   5.423  0.0897 -1.5107  0.3981
  141MOL0     H19429   3.910   2.154   5.371  0.2309 -1.2927  0.4388
  141MOL0     H19430   4.168   2.208   5.214 -1.1081  1.8641 -1.0675
  141MOL0     H19431   4.032   2.113   5.158  1.9117  0.4354 -1.1931
  141MOL0     H19432   4.043   2.335   5.063 -1.9759  1.7900 -0.0914
  141MOL0     H19433   4.038   2.406   5.217 -0.8203  0.4268 -0.1912
  141MOL0     H19434   3.825   2.386   5.247 -0.1437 -1.3283  0.6239
  141MOL0     H19435   3.804   2.235   5.154 -2.0173  0.2571 -1.0956
  141MOL0     H19436   3.843   2.379   4.931 -0.5891  0.3858 -0.7050
  141MOL0     H19437   3.834   2.513   5.041 -3.3613  0.5424  1.5988
  141MOL0     H19438   4.294   1.810   5.744 -1.4895 -0.9189 -2.0815
  141MOL0     H19439   4.405   1.682   5.937 -0.8542 -1.7954  0.2818
  141MOL0     H19440   4.512   1.485   6.226  0.9755  0.9554 -0.4902
  141MOL0     H19441   4.581   1.349   6.399 -2.0418  0.8999 -0.3448
  141MOL0     H19442   4.900   0.458   7.083  1.0021  2.4279 -2.7685
  141MOL0     H19443   4.813   0.250   6.980  0.1714 -1.9669 -4.3023
  141MOL0     H19444   4.801  -0.042   6.628  1.9901 -2.6419 -0.2796
  141MOL0     H19445   4.740  -0.259   6.560  2.2390  1.8621  0.4873
  141MOL0     H19446   4.307  -0.366   6.585 -0.5567 -0.3247  0.2943
  141MOL0     H19447   4.357  -0.519   6.557 -0.3039  0.8107 -2.1967
  141MOL0     H19448   4.312  -0.389   6.819  1.5319  0.7598  1.2534
  141MOL0     H19449   4.442  -0.527   6.819 -0.7582  0.2019  1.1173
  141MOL0     H19450   4.158  -0.511   6.726 -0.6580  0.2150  0.4269
  141MOL0     H19451   4.242  -0.662   6.712 -2.5812 -0.4445 -0.3572
  141MOL0     H19452   4.282  -0.660   6.964  2.0360  1.4226 -2.1727
  141MOL0     H19453   4.118  -0.701   6.905 -3.2592  2.4329 -0.3738
  141MOL0     H19454   4.015  -0.312   7.047  2.3569  0.4833  0.1649
  141MOL0     H19455   4.334  -0.185   6.693  0.3812 -0.2865  0.8530
  141MOL0     H19456   4.351   0.164   6.720  0.2996  0.4694  0.0307
  141MOL0     H19457   4.253   0.007   6.738  0.8153 -0.2534 -2.9365
  141MOL0     H19458   4.360   0.074   6.863  0.2465 -0.0972  0.6866
  142MOL0     O19459   8.031   7.458   6.895  0.2288  0.8487  0.1722
  142MOL0     C19460   7.952   7.512   6.821  0.3473 -0.2767 -0.1487
  142MOL0     O19461   7.827   7.472   6.777 -0.0973  0.7276  0.0869
  142MOL0     C19462   7.790   7.340   6.789  0.1422 -0.1775  0.3472
  142MOL0     C19463   7.879   7.234   6.755  0.5456 -0.5698 -0.1022
  142MOL0     C19464   7.836   7.109   6.747 -1.0749 -0.2467 -0.5858
  142MOL0     C19465   7.712   7.068   6.790 -0.0532 -0.0907 -0.4818
  142MOL0     O19466   7.686   6.928   6.785 -0.1434  0.4579  0.1129
  142MOL0     C19467   7.549   6.892   6.799  0.4636 -0.0334 -0.2194
  142MOL0     C19468   7.559   6.740   6.778  0.2557 -0.3970  0.0347
  142MOL0     C19469   7.426   6.669   6.781  0.4526 -0.9029 -1.9659
  142MOL0     C19470   7.417   6.536   6.719  0.9327  0.1452  0.5002
  142MOL0     C19471   7.498   6.432   6.800 -0.2720  0.0639 -0.3961
  142MOL0     C19472   7.492   6.296   6.740  0.4037 -0.3877  0.1906
  142MOL0     C19473   7.544   6.183   6.825 -0.8192  0.2409  0.4522
  142MOL0     C19474   7.698   6.180   6.823  0.0471  0.8420  0.2015
  142MOL0     N19475   7.747   6.072   6.919 -0.6792  0.1705  0.9223
  142MOL0     C19476   7.730   6.064   7.053  0.0008  0.2959  0.6621
  142MOL0     C19477   7.813   5.968   7.094 -0.4616 -0.1794 -0.8826
  142MOL0     C19478   7.825   5.916   7.238 -0.6276 -0.7543  0.2570
  142MOL0     C19479   7.968   5.856   7.271 -0.0509 -0.0130  0.0119
  142MOL0     C19480   8.094   5.943   7.236  0.9244  0.2864  0.0143
  142MOL0     C19481   8.204   5.922   7.340 -0.6087  0.2318 -0.6930
  142MOL0     O19482   8.170   5.992   7.461  0.4757  0.0485 -0.4126
  142MOL0     C19483   8.135   6.126   7.464 -0.9138 -0.4581  0.2541
  142MOL0     C19484   8.068   6.172   7.582 -0.3626  0.4142  0.6573
  142MOL0     C19485   8.038   6.309   7.600  0.3558 -0.9222 -0.7765
  142MOL0     C19486   7.962   6.347   7.729 -0.3225 -0.1267 -0.2766
  142MOL0     C19487   8.065   6.403   7.492  0.2962  0.2129  0.3963
  142MOL0     C19488   8.039   6.549   7.494  0.2410 -0.9923  0.4331
  142MOL0     O19489   8.126   6.622   7.410  0.7713  0.5636 -0.2504
  142MOL0     C19490   8.110   6.760   7.406 -0.3881 -0.3376 -0.7455
  142MOL0     C19491   8.141   6.841   7.516  0.3788 -0.0121 -0.6385
  142MOL0     C19492   8.141   6.980   7.511 -0.7483 -0.0618  0.8071
  142MOL0     C19493   8.128   7.044   7.383  0.1476 -0.0222 -0.8896
  142MOL0     O19494   8.157   7.175   7.381 -0.3847 -0.0466  0.4506
  142MOL0     C19495   8.101   7.255   7.272 -0.2064 -0.1810 -0.5371
  142MOL0     C19496   8.163   7.393   7.270  0.5739 -0.1726  0.1245
  142MOL0     C19497   8.312   7.378   7.220 -0.1411 -0.0315 -0.5359
  142MOL0     C19498   8.367   7.517   7.212  0.5505 -0.1039 -0.7114
  142MOL0     C19499   8.511   7.517   7.172 -0.3411  0.1387 -0.8337
  142MOL0     C19500   8.613   7.454   7.262 -0.0521  0.3119 -0.4717
  142MOL0     C19501   8.613   7.512   7.402 -0.0451  0.3637  0.3272
  142MOL0     C19502   8.729   7.460   7.476 -0.3150  0.7967  0.3260
  142MOL0    Cl19503   8.703   7.466   7.651  0.2491  0.2323 -0.0014
  142MOL0     C19504   8.112   6.961   7.274 -0.0798  0.5423  0.2297
  142MOL0     C19505   8.087   6.818   7.283 -0.1808 -0.7526  0.0455
  142MOL0     O19506   7.949   6.593   7.566 -0.0452 -1.0810 -0.4043
  142MOL0     C19507   8.129   6.351   7.378 -0.1832 -0.3421 -0.1410
  142MOL0     C19508   8.167   6.223   7.369  0.0803 -0.3110 -0.1975
  142MOL0     N19509   7.893   5.932   6.986  0.8326 -0.6414  0.0184
  142MOL0     N19510   7.863   6.012   6.889 -0.0366  0.6946 -0.1041
  142MOL0     C19511   7.625   7.164   6.842  0.8565  0.7111 -0.5639
  142MOL0     C19512   7.665   7.302   6.824  1.2331 -0.2087 -0.8161
  142MOL0     C19513   7.986   7.641   6.771  0.4516 -0.1130 -0.0609
  142MOL0     C19514   7.958   7.752   6.851  0.4625 -0.1561  0.7374
  142MOL0     C19515   7.983   7.877   6.795 -0.0626  0.5137  0.0176
  142MOL0     C19516   8.034   7.894   6.671 -1.4350  0.0233  0.7301
  142MOL0     O19517   8.059   8.024   6.631 -0.2952 -0.4226 -0.0255
  142MOL0     C19518   8.056   8.059   6.492  0.2523 -0.8952 -0.4330
  142MOL0     C19519   8.059   8.210   6.473 -0.2716  0.0275  0.4381
  142MOL0     C19520   8.188   8.270   6.532 -0.5592 -0.4895  0.4202
  142MOL0     C19521   8.139   8.417   6.559  0.3970 -0.1813  0.0444
  142MOL0     C19522   8.248   8.506   6.599  0.5934  1.0680  0.1456
  142MOL0     C19523   8.335   8.583   6.620  0.5975  0.1596 -0.7245
  142MOL0     C19524   8.076   7.790   6.592  0.4212  0.0394  0.2250
  142MOL0     C19525   8.052   7.660   6.646  0.8506 -0.6409  0.0220
  142MOL0     C19526   8.099   7.538   6.571  0.2910 -0.6403  0.7759
  142MOL0     H19527   7.983   7.246   6.726  0.1666 -0.7397 -1.5966
  142MOL0     H19528   7.910   7.042   6.704  0.7859  0.7391  0.9283
  142MOL0     H19529   7.487   6.944   6.725  1.9265  0.0254 -1.4398
  142MOL0     H19530   7.507   6.911   6.898 -1.6489  0.4494 -1.1509
  142MOL0     H19531   7.621   6.714   6.692  3.0295  0.9328  1.4826
  142MOL0     H19532   7.613   6.701   6.865 -1.8303 -1.3761  0.9610
  142MOL0     H19533   7.400   6.659   6.887 -0.9238  1.8388 -1.9491
  142MOL0     H19534   7.357   6.739   6.733  1.8487 -0.4991 -3.4898
  142MOL0     H19535   7.312   6.503   6.721  0.9068  0.2729  1.1948
  142MOL0     H19536   7.449   6.534   6.614 -1.0665  0.2860 -0.1558
  142MOL0     H19537   7.447   6.431   6.897 -2.0242 -0.8320 -1.2937
  142MOL0     H19538   7.599   6.464   6.830 -1.2400  1.0357  2.0849
  142MOL0     H19539   7.384   6.277   6.744  0.4028 -0.1627  3.5979
  142MOL0     H19540   7.542   6.291   6.643  2.9260 -0.2682  1.4096
  142MOL0     H19541   7.510   6.085   6.789 -1.3072  0.5066  0.1847
  142MOL0     H19542   7.510   6.196   6.928 -1.1949 -0.1186  0.3793
  142MOL0     H19543   7.718   6.150   6.720 -1.9016 -2.0693  0.5587
  142MOL0     H19544   7.740   6.278   6.847  2.4600 -0.3889  1.3095
  142MOL0     H19545   7.642   6.094   7.109  0.8772  0.4409  1.9960
  142MOL0     H19546   7.749   5.837   7.247 -2.5276  0.8525 -0.9450
  142MOL0     H19547   7.806   5.992   7.314 -0.4377  2.6955 -2.9066
  142MOL0     H19548   7.975   5.836   7.379 -1.0387  1.0187  0.2941
  142MOL0     H19549   7.982   5.770   7.206  0.2145  1.7298 -2.3508
  142MOL0     H19550   8.115   5.917   7.132  0.2129  1.1268 -0.3598
  142MOL0     H19551   8.066   6.049   7.231 -0.4043  0.1388  2.4163
  142MOL0     H19552   8.226   5.816   7.359 -1.0757  0.4252  1.1115
  142MOL0     H19553   8.295   5.965   7.296 -1.5500  1.5006 -1.4828
  142MOL0     H19554   8.049   6.105   7.665  2.0948 -1.6149 -0.2644
  142MOL0     H19555   8.030   6.376   7.810 -1.4439 -1.0848  1.0563
  142MOL0     H19556   7.904   6.258   7.754 -3.2775  1.6109 -0.5865
  142MOL0     H19557   7.884   6.422   7.717  0.0254  0.2632 -0.1403
  142MOL0     H19558   8.167   6.794   7.610 -0.0827 -0.4158 -0.7085
  142MOL0     H19559   8.152   7.048   7.595 -2.7361  1.1649  0.1309
  142MOL0     H19560   8.107   7.197   7.179 -0.1647 -0.9172 -0.0868
  142MOL0     H19561   7.994   7.274   7.288  0.1306  1.5567 -0.2059
  142MOL0     H19562   8.104   7.446   7.195  1.6833  0.6765 -0.1673
  142MOL0     H19563   8.150   7.443   7.366 -2.5844  0.0503 -0.3314
  142MOL0     H19564   8.307   7.323   7.126  0.1780 -2.0222  0.5469
  142MOL0     H19565   8.368   7.320   7.295 -3.0126 -0.4730  1.4590
  142MOL0     H19566   8.364   7.570   7.308 -2.3742  1.9881 -1.8075
  142MOL0     H19567   8.307   7.580   7.146 -2.9642 -0.7188  1.6254
  142MOL0     H19568   8.514   7.468   7.075  2.8027  0.7345 -1.1403
  142MOL0     H19569   8.524   7.624   7.155 -1.3324  0.5212  0.6031
  142MOL0     H19570   8.708   7.460   7.208  1.4407  2.2688  2.1419
  142MOL0     H19571   8.586   7.348   7.263 -1.4449  0.6063 -2.2889
  142MOL0     H19572   8.522   7.483   7.454 -0.4033 -0.3098 -0.6510
  142MOL0     H19573   8.614   7.622   7.403 -1.1347  0.4103  2.5624
  142MOL0     H19574   8.818   7.512   7.439 -0.3130  0.0614 -0.7472
  142MOL0     H19575   8.739   7.353   7.457 -2.7185  0.3272  1.3706
  142MOL0     H19576   8.097   7.003   7.175 -2.5099  0.4650  0.5003
  142MOL0     H19577   8.071   6.754   7.197  1.2489 -1.0694 -0.0110
  142MOL0     H19578   8.149   6.417   7.295 -0.5817  0.5465  0.4496
  142MOL0     H19579   8.233   6.192   7.289  1.7873  0.7055  0.7649
  142MOL0     H19580   7.526   7.138   6.879  0.2602  2.0649 -1.1350
  142MOL0     H19581   7.614   7.392   6.855  1.7277  0.6056 -2.2525
  142MOL0     H19582   7.929   7.742   6.955  0.1127 -0.0097  0.6537
  142MOL0     H19583   7.978   7.966   6.858 -0.5783  0.5848 -0.1165
  142MOL0     H19584   8.129   8.011   6.427 -0.5271  0.6933 -2.5902
  142MOL0     H19585   7.963   8.021   6.448  1.5281  0.1547 -4.4008
  142MOL0     H19586   7.966   8.247   6.518  0.7492 -0.4971  3.1889
  142MOL0     H19587   8.034   8.238   6.371 -4.2765  0.1409  1.2529
  142MOL0     H19588   8.221   8.208   6.616  1.3320 -0.7163 -0.4456
  142MOL0     H19589   8.268   8.271   6.458 -0.4080  1.7807  0.5549
  142MOL0     H19590   8.055   8.412   6.629  0.6329 -2.1475  0.2291
  142MOL0     H19591   8.093   8.463   6.470 -0.9966 -2.1494 -0.3255
  142MOL0     H19592   8.411   8.653   6.649  2.5315 -1.2547 -2.1011
  142MOL0     H19593   8.132   7.811   6.501  0.7441  0.8987  0.6083
  142MOL0     H19594   8.161   7.569   6.486  2.1431 -1.0506  1.9181
  142MOL0     H19595   8.147   7.463   6.634  2.1705 -1.3958 -1.4119
  142MOL0     H19596   8.014   7.486   6.526  1.5683  1.0842 -4.2187
  143MOL0     O19597   8.267   9.387   7.803 -0.5676 -0.0910 -0.2368
  143MOL0     C19598   8.340   9.485   7.806 -0.2064  0.6966  0.2547
  143MOL0     O19599   8.455   9.500   7.881  0.4109 -1.1902 -0.2497
  143MOL0     C19600   8.468   9.390   7.964  0.0490 -0.2747  0.3482
  143MOL0     C19601   8.388   9.351   8.070  0.7401  0.8729  0.3537
  143MOL0     C19602   8.422   9.242   8.140  0.5431 -0.0422  0.2853
  143MOL0     C19603   8.531   9.163   8.116 -0.5129  0.4081  0.0352
  143MOL0     O19604   8.560   9.051   8.197 -0.3523 -0.1830  0.5030
  143MOL0     C19605   8.659   8.953   8.153  0.5814 -0.2824 -0.8108
  143MOL0     C19606   8.616   8.817   8.225 -0.0903 -1.0584 -0.3786
  143MOL0     C19607   8.506   8.747   8.149  0.1231  0.7284 -0.2394
  143MOL0     C19608   8.457   8.609   8.195  0.4753 -0.3536 -0.1065
  143MOL0     C19609   8.555   8.494   8.199 -0.2491  0.5537 -0.4613
  143MOL0     C19610   8.485   8.358   8.199 -0.3795  0.8248 -0.1959
  143MOL0     C19611   8.553   8.245   8.280  0.6372 -0.6541  0.6257
  143MOL0     C19612   8.707   8.237   8.239  0.2260  0.3533 -0.2578
  143MOL0     N19613   8.766   8.109   8.275 -0.0356  0.0260  0.1859
  143MOL0     C19614   8.882   8.081   8.337 -0.0285  0.5395  0.4257
  143MOL0     C19615   8.913   7.950   8.318 -0.2116 -0.2305  0.2241
  143MOL0     C19616   9.042   7.876   8.345  0.9916 -1.1158  0.3856
  143MOL0     C19617   9.135   7.899   8.228  0.0276  0.8801 -0.0870
  143MOL0     C19618   9.263   7.828   8.249  1.0993 -0.1564  0.0599
  143MOL0     C19619   9.255   7.675   8.301  0.1626 -0.7006  0.2573
  143MOL0     O19620   9.392   7.629   8.313 -0.2404 -0.5208 -0.5305
  143MOL0     C19621   9.416   7.513   8.250  0.5117 -0.6995  0.1047
  143MOL0     C19622   9.423   7.397   8.322  0.4627 -0.1698 -0.2473
  143MOL0     C19623   9.459   7.274   8.264 -0.3761 -0.3954 -0.4013
  143MOL0     C19624   9.478   7.150   8.356  0.6112  0.0517 -0.2601
  143MOL0     C19625   9.475   7.262   8.121  0.2842 -0.1250 -0.2526
  143MOL0     C19626   9.487   7.147   8.037 -0.0607  1.0392 -0.4669
  143MOL0     O19627   9.438   7.148   7.909 -1.0296  0.0273 -0.7082
  143MOL0     C19628   9.434   7.026   7.841 -0.6011 -0.7923  0.0038
  143MOL0     C19629   9.560   6.974   7.797 -0.4418  0.7648 -0.4901
  143MOL0     C19630   9.563   6.843   7.740 -0.3274 -0.8677 -0.8244
  143MOL0     C19631   9.456   6.764   7.726  0.4728 -0.3761 -0.3518
  143MOL0     O19632   9.473   6.631   7.685 -0.4609  0.4080  0.0200
  143MOL0     C19633   9.357   6.549   7.671  0.3202 -0.5253 -0.5438
  143MOL0     C19634   9.388   6.423   7.585 -0.0236 -0.4553  0.0320
  143MOL0     C19635   9.424   6.463   7.442  0.1893 -0.6367 -0.4316
  143MOL0     C19636   9.353   6.377   7.340  0.8139  0.0514 -0.9000
  143MOL0     C19637   9.363   6.416   7.196  0.3958 -0.7086  0.2719
  143MOL0     C19638   9.504   6.452   7.140 -0.0448 -0.6198 -0.7106
  143MOL0     C19639   9.594   6.324   7.139 -0.4991 -0.1237 -0.3119
  143MOL0     C19640   9.665   6.309   7.000  0.1951 -0.5227 -0.0608
  143MOL0    Cl19641   9.777   6.449   6.962 -0.1552 -0.0921  0.1272
  143MOL0     C19642   9.332   6.820   7.767 -0.1597 -0.5843 -0.2318
  143MOL0     C19643   9.317   6.949   7.820 -0.7573 -0.4240 -0.5030
  143MOL0     O19644   9.524   7.040   8.088 -0.1543 -0.6122  0.3081
  143MOL0     C19645   9.468   7.389   8.054  0.3357 -0.1963  0.3466
  143MOL0     C19646   9.450   7.515   8.113 -0.3907  0.4996  1.0270
  143MOL0     N19647   8.810   7.895   8.247  0.8946 -0.3268  0.0105
  143MOL0     N19648   8.727   7.988   8.216  0.4633 -0.0736 -0.6563
  143MOL0     C19649   8.612   9.194   8.008  0.3112 -0.4607  0.6761
  143MOL0     C19650   8.585   9.310   7.932 -0.0834  1.2691 -0.6123
  143MOL0     C19651   8.319   9.594   7.711  0.6711 -0.3616 -0.1374
  143MOL0     C19652   8.218   9.579   7.613  0.5715 -0.4967  0.2134
  143MOL0     C19653   8.189   9.668   7.519  0.0127  0.3818 -0.3913
  143MOL0     C19654   8.258   9.794   7.522 -0.4858  0.2780  0.1466
  143MOL0     O19655   8.210   9.888   7.430 -0.8046 -0.3886  0.0458
  143MOL0     C19656   8.291  10.014   7.408  0.2895 -0.3640 -0.2910
  143MOL0     C19657   8.423   9.987   7.345 -0.1875  0.5232  1.6072
  143MOL0     C19658   8.518  10.102   7.365  0.5887 -0.4718  0.4266
  143MOL0     C19659   8.493  10.217   7.261 -0.0308  0.1336 -0.0118
  143MOL0     C19660   8.589  10.324   7.295 -0.0139  0.9756  0.4623
  143MOL0     C19661   8.671  10.405   7.323 -0.3591  0.8551  0.8725
  143MOL0     C19662   8.358   9.825   7.617 -1.2250  0.0371  1.0961
  143MOL0     C19663   8.391   9.720   7.709  0.6469 -0.1337  0.1878
  143MOL0     C19664   8.496   9.768   7.815 -0.7758  0.9100  0.9298
  143MOL0     H19665   8.297   9.402   8.102 -1.1485 -2.1567  0.1696
  143MOL0     H19666   8.357   9.210   8.222 -2.5702 -2.3511 -2.7984
  143MOL0     H19667   8.759   8.986   8.186  0.2807 -0.4977  0.3688
  143MOL0     H19668   8.663   8.927   8.047 -1.5286 -1.5311 -0.6299
  143MOL0     H19669   8.707   8.756   8.236  0.0127 -0.4659  3.2798
  143MOL0     H19670   8.589   8.850   8.326  0.2033 -2.3449  0.1435
  143MOL0     H19671   8.420   8.815   8.156 -1.0233 -0.7900  1.5760
  143MOL0     H19672   8.525   8.739   8.042 -1.8565 -0.7865 -0.5414
  143MOL0     H19673   8.414   8.625   8.295 -0.1699  2.8031 -0.7766
  143MOL0     H19674   8.382   8.586   8.119 -0.3817 -0.4423  0.7435
  143MOL0     H19675   8.604   8.512   8.295 -2.7186  2.5183  0.5716
  143MOL0     H19676   8.618   8.491   8.110 -0.6052 -0.4449 -0.6856
  143MOL0     H19677   8.381   8.372   8.231 -0.4675  1.7044 -0.8310
  143MOL0     H19678   8.474   8.324   8.096  2.5335 -3.3808  0.6009
  143MOL0     H19679   8.505   8.151   8.252 -2.9370  0.1396  3.3688
  143MOL0     H19680   8.529   8.257   8.386 -2.6129 -0.2098 -0.0631
  143MOL0     H19681   8.714   8.228   8.131  3.0338 -0.7784 -0.0540
  143MOL0     H19682   8.762   8.326   8.270 -0.4187  1.6674 -2.7131
  143MOL0     H19683   8.942   8.160   8.381  0.2835 -0.6028  2.1341
  143MOL0     H19684   9.015   7.771   8.363 -0.5687 -0.4378  2.3438
  143MOL0     H19685   9.091   7.908   8.438  0.1582 -1.2519  0.8851
  143MOL0     H19686   9.088   7.872   8.133  1.3974  1.0848 -0.8354
  143MOL0     H19687   9.159   8.006   8.219 -1.0538  0.9625 -2.7897
  143MOL0     H19688   9.304   7.828   8.147 -2.3596  1.1717 -1.4882
  143MOL0     H19689   9.319   7.892   8.318 -0.9280  1.7035  0.0581
  143MOL0     H19690   9.203   7.668   8.397  0.3922 -2.0239  0.3046
  143MOL0     H19691   9.189   7.624   8.230  0.2607 -1.3490  0.6139
  143MOL0     H19692   9.401   7.404   8.428  0.2555  1.8701 -0.3926
  143MOL0     H19693   9.465   7.166   8.464 -0.7150  1.3456 -0.5773
  143MOL0     H19694   9.569   7.099   8.322  2.1969  2.0151  0.8374
  143MOL0     H19695   9.393   7.083   8.340 -0.6041  1.3365  0.6014
  143MOL0     H19696   9.654   7.020   7.823 -0.0408 -1.8669  3.6487
  143MOL0     H19697   9.661   6.806   7.713 -0.3378 -0.2263 -1.7531
  143MOL0     H19698   9.318   6.520   7.769  0.9956  0.3446 -0.0062
  143MOL0     H19699   9.278   6.603   7.618  1.1697  0.3083 -0.9861
  143MOL0     H19700   9.459   6.354   7.631 -2.0585 -2.0534  0.9005
  143MOL0     H19701   9.294   6.369   7.577  0.1078 -1.1940  2.4955
  143MOL0     H19702   9.531   6.453   7.420 -0.0462  0.3558 -2.1887
  143MOL0     H19703   9.408   6.570   7.432  3.4803  0.6378  4.2139
  143MOL0     H19704   9.249   6.375   7.375  1.0605 -0.9109 -0.1810
  143MOL0     H19705   9.401   6.281   7.359  1.0070  0.6137  1.9261
  143MOL0     H19706   9.311   6.328   7.155 -0.6967 -0.6966  1.5799
  143MOL0     H19707   9.297   6.501   7.176 -2.5495 -3.1797 -1.6101
  143MOL0     H19708   9.548   6.536   7.195  0.1651 -0.4652 -1.1159
  143MOL0     H19709   9.484   6.488   7.039  1.3088 -0.4223 -0.9312
  143MOL0     H19710   9.543   6.231   7.166  1.0610 -0.1652  3.0166
  143MOL0     H19711   9.668   6.327   7.220 -0.2360  2.8761 -0.5507
  143MOL0     H19712   9.591   6.307   6.919  1.4744  2.4292 -1.4549
  143MOL0     H19713   9.725   6.218   6.986 -1.6336 -1.5001 -2.1965
  143MOL0     H19714   9.249   6.753   7.785  1.0198 -2.3837 -1.1180
  143MOL0     H19715   9.217   6.978   7.851 -0.9339 -0.2822 -1.1787
  143MOL0     H19716   9.486   7.394   7.947  0.8485 -2.9189  0.2203
  143MOL0     H19717   9.448   7.605   8.052 -0.1200  0.5719  1.1261
  143MOL0     H19718   8.703   9.136   7.995 -0.7147 -1.9865 -0.0400
  143MOL0     H19719   8.659   9.345   7.860  1.3212  1.2165  0.7519
  143MOL0     H19720   8.148   9.497   7.624 -1.9486  1.4517 -0.3289
  143MOL0     H19721   8.100   9.658   7.457  0.0654  0.9999 -0.5791
  143MOL0     H19722   8.244  10.088   7.342  0.9655  0.0597 -0.3153
  143MOL0     H19723   8.297  10.069   7.503 -1.7949 -1.4252  0.5131
  143MOL0     H19724   8.417   9.970   7.237  1.5948  2.0961  1.2246
  143MOL0     H19725   8.475   9.904   7.394  1.4611  0.5890  0.0523
  143MOL0     H19726   8.510  10.129   7.471 -0.5860  0.6872  0.0672
  143MOL0     H19727   8.616  10.069   7.328 -0.7068 -0.7295 -3.1991
  143MOL0     H19728   8.385  10.234   7.256 -0.2818 -1.4662 -3.6877
  143MOL0     H19729   8.520  10.173   7.164  3.2791 -1.6427  1.5684
  143MOL0     H19730   8.745  10.467   7.370  3.0486 -2.8773  0.9507
  143MOL0     H19731   8.415   9.917   7.608  1.5764 -1.5537  1.4410
  143MOL0     H19732   8.590   9.714   7.796 -0.6835  1.6567 -0.8545
  143MOL0     H19733   8.527   9.872   7.800 -0.0474  0.5881  0.0961
  143MOL0     H19734   8.457   9.753   7.916 -1.2442  0.3073  0.6665
  144MOL0     O19735   3.297   3.616  11.092 -0.2396 -0.7843  0.1511
  144MOL0     C19736   3.397   3.684  11.071 -0.3404 -0.7984 -0.4861
  144MOL0     O19737   3.487   3.661  10.977  0.0912  0.4490 -0.0179
  144MOL0     C19738   3.489   3.544  10.903 -0.4515 -0.5923 -0.5194
  144MOL0     C19739   3.590   3.453  10.930 -0.6271 -0.7746  0.1141
  144MOL0     C19740   3.599   3.336  10.864  0.2378  0.4799 -0.6021
  144MOL0     C19741   3.504   3.306  10.759 -0.8387 -0.3185  0.1955
  144MOL0     O19742   3.526   3.189  10.683  0.7000 -0.2197 -0.6920
  144MOL0     C19743   3.452   3.151  10.568 -0.4981 -0.0708 -0.6128
  144MOL0     C19744   3.532   3.077  10.466  0.1091  0.1597 -0.3042
  144MOL0     C19745   3.611   3.169  10.364 -1.0504  0.6959  0.7149
  144MOL0     C19746   3.658   3.078  10.248 -0.8534  0.9190  0.5954
  144MOL0     C19747   3.756   3.148  10.145  0.7583 -0.5931 -0.1667
  144MOL0     C19748   3.752   3.081  10.003  0.3365  0.8617 -0.5403
  144MOL0     C19749   3.826   3.176   9.909  0.2609  0.4912 -0.8096
  144MOL0     C19750   3.738   3.266   9.830 -0.0633 -0.4799 -0.1447
  144MOL0     N19751   3.718   3.396   9.891 -0.4570 -0.3232 -0.3101
  144MOL0     C19752   3.772   3.519   9.844  0.3711 -0.8580  0.1172
  144MOL0     C19753   3.693   3.615   9.902 -0.0996  0.9357 -0.5651
  144MOL0     C19754   3.705   3.757   9.864  0.0600 -0.3286 -0.8501
  144MOL0     C19755   3.824   3.815   9.939 -0.6836  0.2358 -0.9026
  144MOL0     C19756   3.817   3.968   9.953 -0.1047  0.3402  0.8480
  144MOL0     C19757   3.770   4.016  10.094 -0.0466  1.0019 -0.3367
  144MOL0     O19758   3.641   3.965  10.128  1.1585 -0.1492  0.9602
  144MOL0     C19759   3.528   4.053  10.119  0.3920 -0.7597  0.5882
  144MOL0     C19760   3.430   4.061  10.219 -0.6623  0.5524  0.4490
  144MOL0     C19761   3.330   4.154  10.221 -0.1541  0.7049  0.6753
  144MOL0     C19762   3.257   4.157  10.350  0.4973 -0.1086  0.4468
  144MOL0     C19763   3.307   4.229  10.101 -0.0365  0.5436  0.1085
  144MOL0     C19764   3.200   4.328  10.086 -0.0881  0.1800 -0.4845
  144MOL0     O19765   3.178   4.396  10.199 -0.0751 -0.3228 -0.6556
  144MOL0     C19766   3.104   4.512  10.192 -0.6720  0.3499 -0.5736
  144MOL0     C19767   3.109   4.614  10.088 -0.2030  0.7759  0.1128
  144MOL0     C19768   3.035   4.734  10.097 -0.3303  1.1216 -0.9630
  144MOL0     C19769   2.979   4.768  10.215  0.0215 -0.0830  0.1230
  144MOL0     O19770   2.929   4.897  10.210 -0.0234  0.1196 -0.2017
  144MOL0     C19771   2.859   4.940  10.329 -0.2648 -0.7807  0.1913
  144MOL0     C19772   2.778   5.071  10.310  0.2265  0.1107  0.4549
  144MOL0     C19773   2.864   5.197  10.355  0.0411 -0.4853  0.6096
  144MOL0     C19774   2.914   5.278  10.226  0.4099 -0.9168  0.0811
  144MOL0     C19775   3.066   5.314  10.239 -0.5756  0.6278  0.3096
  144MOL0     C19776   3.158   5.199  10.183 -0.6878  0.1936  0.0759
  144MOL0     C19777   3.182   5.208  10.033  0.2551 -0.3152  0.7469
  144MOL0     C19778   3.259   5.091   9.976 -0.1099  0.0776 -0.8666
  144MOL0    Cl19779   3.282   5.125   9.800  0.4359 -0.3422 -0.0736
  144MOL0     C19780   2.991   4.686  10.321  0.5780 -0.1562  0.3764
  144MOL0     C19781   3.047   4.556  10.311 -1.0188  0.2566 -0.7308
  144MOL0     O19782   3.149   4.338   9.976  0.1229 -0.1079  0.8924
  144MOL0     C19783   3.401   4.216   9.993  0.1263  0.1132 -0.0859
  144MOL0     C19784   3.511   4.133  10.001 -0.5062 -0.6293 -0.2264
  144MOL0     N19785   3.609   3.555   9.993 -0.3553 -0.2377  0.1336
  144MOL0     N19786   3.623   3.422   9.986  0.1987 -0.2486  0.0417
  144MOL0     C19787   3.408   3.410  10.724  1.0890 -0.0162 -0.3781
  144MOL0     C19788   3.398   3.530  10.799  0.1973 -0.4059 -0.4983
  144MOL0     C19789   3.414   3.805  11.157 -0.0420 -0.1887  0.0247
  144MOL0     C19790   3.518   3.896  11.122 -0.2679  0.1795  0.2911
  144MOL0     C19791   3.554   4.007  11.204  0.0367  0.3506 -0.0632
  144MOL0     C19792   3.463   4.039  11.302  0.2879  0.4748  0.6119
  144MOL0     O19793   3.482   4.166  11.349 -0.4692  0.3657 -0.1576
  144MOL0     C19794   3.394   4.255  11.306  0.1274 -0.0403  1.2516
  144MOL0     C19795   3.455   4.390  11.252 -0.4277 -0.5487 -0.1686
  144MOL0     C19796   3.573   4.369  11.156 -0.0522 -0.0155 -0.3801
  144MOL0     C19797   3.634   4.508  11.120 -0.6475  1.0941  0.0312
  144MOL0     C19798   3.762   4.475  11.046 -0.9670 -0.6182  0.8152
  144MOL0     C19799   3.870   4.446  11.000  0.1622 -0.1040 -0.4351
  144MOL0     C19800   3.352   3.970  11.325 -0.3493  0.6930  0.0304
  144MOL0     C19801   3.329   3.847  11.265 -0.3030 -0.4135  0.2900
  144MOL0     C19802   3.220   3.775  11.336  0.6471 -0.8141 -0.3776
  144MOL0     H19803   3.646   3.481  11.018 -1.4955  0.4426  0.3114
  144MOL0     H19804   3.671   3.260  10.890  0.1530  0.4312 -0.5100
  144MOL0     H19805   3.414   3.243  10.523 -0.3447 -0.1987 -1.0006
  144MOL0     H19806   3.373   3.089  10.611 -0.3649  0.1455 -0.0479
  144MOL0     H19807   3.587   3.004  10.527 -1.6225 -0.3181  0.7767
  144MOL0     H19808   3.454   3.029  10.407 -0.7184  0.1513  0.7756
  144MOL0     H19809   3.548   3.245  10.317  0.2102  0.6322 -1.1822
  144MOL0     H19810   3.693   3.212  10.422  1.0465 -3.4100  1.1447
  144MOL0     H19811   3.702   2.986  10.287 -1.2664 -1.1344 -3.3054
  144MOL0     H19812   3.572   3.042  10.191 -0.1485 -0.8901  0.6048
  144MOL0     H19813   3.858   3.154  10.185  0.4615 -2.1930  0.9167
  144MOL0     H19814   3.729   3.254  10.140 -0.0919 -0.8571 -2.0853
  144MOL0     H19815   3.797   2.982  10.012  2.4936  1.8813  0.5838
  144MOL0     H19816   3.649   3.067   9.969 -0.6747  5.0397  0.1912
  144MOL0     H19817   3.874   3.104   9.842 -0.2870 -1.8085  1.1212
  144MOL0     H19818   3.904   3.230   9.962  1.9316 -1.9034 -0.7074
  144MOL0     H19819   3.798   3.292   9.742 -0.1096 -0.8230 -0.2788
  144MOL0     H19820   3.640   3.223   9.807 -0.3042 -1.2915  2.1423
  144MOL0     H19821   3.852   3.520   9.771  1.4323 -2.9957  1.1566
  144MOL0     H19822   3.614   3.811   9.890  0.4431  0.6851 -1.5507
  144MOL0     H19823   3.717   3.778   9.758  3.9125  1.8977 -0.1560
  144MOL0     H19824   3.843   3.780  10.041 -0.1005  0.4692 -0.9264
  144MOL0     H19825   3.916   3.784   9.887  0.9245  0.1176  1.8068
  144MOL0     H19826   3.921   3.996   9.933  0.3868 -2.4598 -1.3746
  144MOL0     H19827   3.752   4.013   9.877 -0.0536 -1.7614 -0.5245
  144MOL0     H19828   3.837   3.984  10.174 -0.2647  1.7669  0.1614
  144MOL0     H19829   3.764   4.125  10.094 -2.2954  0.9188 -0.8967
  144MOL0     H19830   3.443   3.988  10.298  2.4699 -1.4358 -1.6734
  144MOL0     H19831   3.149   4.162  10.335  0.3107 -1.6321  1.0815
  144MOL0     H19832   3.289   4.250  10.399  3.6370 -3.1654  5.0344
  144MOL0     H19833   3.270   4.087  10.433  1.8721  1.9808  2.0951
  144MOL0     H19834   3.164   4.591   9.997  0.0103  5.0005 -1.0532
  144MOL0     H19835   3.041   4.808  10.018 -0.6801  2.1121 -0.0924
  144MOL0     H19836   2.785   4.862  10.346  1.2080 -2.0554  1.0981
  144MOL0     H19837   2.925   4.945  10.417  0.5443  0.6119 -0.4563
  144MOL0     H19838   2.756   5.087  10.205 -1.5447  1.0393  0.9301
  144MOL0     H19839   2.689   5.067  10.373  1.8347  2.8954  3.1990
  144MOL0     H19840   2.950   5.170  10.417  1.2305  2.1445  0.2530
  144MOL0     H19841   2.795   5.259  10.414 -1.2031 -0.6229 -0.6454
  144MOL0     H19842   2.852   5.369  10.222 -2.1305 -2.5916 -1.3267
  144MOL0     H19843   2.898   5.217  10.137 -2.6610 -2.1715  1.3503
  144MOL0     H19844   3.080   5.408  10.186 -0.6763  1.0959  1.0918
  144MOL0     H19845   3.086   5.335  10.345  3.4846 -1.1599  0.0816
  144MOL0     H19846   3.128   5.095  10.197 -2.3323  0.1554 -2.8476
  144MOL0     H19847   3.255   5.208  10.232 -1.1519  1.1808  0.8635
  144MOL0     H19848   3.238   5.301  10.016  1.5326 -1.4307 -1.5693
  144MOL0     H19849   3.084   5.221   9.986 -0.1558  0.4891  1.7883
  144MOL0     H19850   3.188   5.008   9.986 -0.7359  0.5141 -1.5037
  144MOL0     H19851   3.351   5.062  10.027 -0.6483  1.1051  0.7749
  144MOL0     H19852   2.954   4.707  10.421  2.8343  1.0462  1.0351
  144MOL0     H19853   3.034   4.489  10.395 -3.3025  0.1582 -1.0993
  144MOL0     H19854   3.384   4.266   9.898 -1.6714 -2.4827 -1.2628
  144MOL0     H19855   3.571   4.120   9.912 -1.7647  0.5552 -1.2915
  144MOL0     H19856   3.333   3.409  10.646  0.5186  0.7663  0.1486
  144MOL0     H19857   3.326   3.609  10.779  0.8156  0.1914 -0.3937
  144MOL0     H19858   3.592   3.875  11.044  0.3932  0.8607  0.7254
  144MOL0     H19859   3.639   4.070  11.183  0.9088 -0.9611 -0.6077
  144MOL0     H19860   3.328   4.210  11.231 -0.4543  2.3224  0.2627
  144MOL0     H19861   3.339   4.277  11.398  2.0284 -2.8160  3.1946
  144MOL0     H19862   3.486   4.446  11.341 -0.5287 -0.0370 -0.4494
  144MOL0     H19863   3.377   4.440  11.193  0.0018  0.3819  0.0377
  144MOL0     H19864   3.642   4.306  11.213  1.3107  2.6208  1.0780
  144MOL0     H19865   3.534   4.315  11.069 -0.1138  1.8195 -1.5274
  144MOL0     H19866   3.662   4.561  11.212 -2.7460 -0.9276  1.9733
  144MOL0     H19867   3.570   4.578  11.067 -1.1743 -0.4798 -1.5353
  144MOL0     H19868   3.970   4.420  10.974  0.5508 -0.1263  0.9864
  144MOL0     H19869   3.290   3.997  11.411 -1.5439  1.6664 -1.0976
  144MOL0     H19870   3.138   3.755  11.267 -2.2641  0.0127  2.5702
  144MOL0     H19871   3.247   3.675  11.372  0.6247 -0.4457  0.7247
  144MOL0     H19872   3.175   3.821  11.425 -1.7223 -0.9156 -1.4306
  145MOL0     O19873   2.048   2.404   4.656 -0.6371 -0.4016  0.4467
  145MOL0     C19874   2.087   2.497   4.723 -0.2381 -0.0370  0.2434
  145MOL0     O19875   2.083   2.501   4.854  0.1681 -0.3950 -0.2176
  145MOL0     C19876   2.032   2.391   4.922 -0.6084  0.4159 -0.3970
  145MOL0     C19877   1.941   2.411   5.021  0.5936 -0.7760 -0.6518
  145MOL0     C19878   1.885   2.303   5.092  0.6649 -1.1184 -0.0473
  145MOL0     C19879   1.931   2.174   5.067  0.1116 -0.6857 -0.0025
  145MOL0     O19880   1.869   2.070   5.141 -0.6245 -0.9237 -0.5747
  145MOL0     C19881   1.845   1.950   5.070 -0.7412  0.1624 -1.0009
  145MOL0     C19882   1.739   1.860   5.144 -0.7062  0.6755  0.9976
  145MOL0     C19883   1.603   1.932   5.167  0.7065  0.4569  0.1168
  145MOL0     C19884   1.530   1.941   5.032  0.6004 -0.5423  0.4935
  145MOL0     C19885   1.390   1.978   5.057 -0.8274  1.0349 -0.4209
  145MOL0     C19886   1.300   1.968   4.939  0.4134  0.2333 -0.6504
  145MOL0     C19887   1.336   2.068   4.835 -0.5060 -0.4012  0.4885
  145MOL0     C19888   1.219   2.148   4.766  0.3913  0.6727 -0.1743
  145MOL0     N19889   1.152   2.242   4.847  0.6052 -0.3664 -0.2453
  145MOL0     C19890   1.187   2.375   4.875  0.4390  0.6661 -1.0079
  145MOL0     C19891   1.093   2.421   4.964 -0.2963 -0.3718  0.7220
  145MOL0     C19892   1.095   2.554   5.023  0.0958  0.3875 -0.1872
  145MOL0     C19893   1.002   2.640   4.948  0.4743  0.1802 -0.1412
  145MOL0     C19894   1.010   2.783   5.012  0.0337  0.6036 -0.5673
  145MOL0     C19895   0.963   2.808   5.154  1.4444 -0.3817 -0.6967
  145MOL0     O19896   1.050   2.912   5.210  0.1546  0.2720 -0.1926
  145MOL0     C19897   1.007   2.963   5.329 -0.3994 -0.0588 -0.0726
  145MOL0     C19898   0.927   2.896   5.427  0.6587 -0.1454 -0.0791
  145MOL0     C19899   0.886   2.967   5.545 -0.7933  0.1405  0.2470
  145MOL0     C19900   0.797   2.896   5.638 -0.5493 -0.3950 -1.2415
  145MOL0     C19901   0.926   3.100   5.562  0.2996  0.0300 -0.6056
  145MOL0     C19902   0.893   3.182   5.691 -1.1408  1.0209  0.0233
  145MOL0     O19903   0.907   3.317   5.679  0.1533  0.7095  0.1293
  145MOL0     C19904   0.876   3.400   5.788  0.1153  0.4656  0.3063
  145MOL0     C19905   0.758   3.469   5.798  1.3124  0.5072 -1.4240
  145MOL0     C19906   0.749   3.567   5.898  0.8297 -0.5383  0.2806
  145MOL0     C19907   0.856   3.588   5.993  0.0273  1.1419  0.6223
  145MOL0     O19908   0.839   3.683   6.085  0.3332  0.1613  0.2963
  145MOL0     C19909   0.729   3.775   6.078 -0.5189  0.0867  0.4982
  145MOL0     C19910   0.718   3.855   6.212 -0.6563 -0.4504 -0.3424
  145MOL0     C19911   0.596   3.947   6.207  0.2014 -0.4211 -0.2078
  145MOL0     C19912   0.569   4.022   6.341 -0.3300  0.2060  0.4308
  145MOL0     C19913   0.460   4.138   6.325 -0.0558 -0.2452  0.4222
  145MOL0     C19914   0.322   4.076   6.313 -0.3113  0.6460  0.2690
  145MOL0     C19915   0.226   4.173   6.241 -0.2319 -0.8360  0.1566
  145MOL0     C19916   0.086   4.117   6.221  0.2757 -0.1588  0.3716
  145MOL0    Cl19917   0.082   3.975   6.113 -0.0114  0.2087 -0.2813
  145MOL0     C19918   0.958   3.489   5.992 -0.0893 -0.5553  0.3342
  145MOL0     C19919   0.974   3.397   5.884  0.1068 -0.7520 -0.1311
  145MOL0     O19920   0.861   3.122   5.793  0.4306  0.7642 -0.4619
  145MOL0     C19921   0.999   3.163   5.469 -0.0620  0.2358 -0.2548
  145MOL0     C19922   1.038   3.094   5.346  0.3740 -0.2475 -0.4692
  145MOL0     N19923   1.009   2.318   4.989  0.5510 -0.4846 -0.3049
  145MOL0     N19924   1.044   2.209   4.927 -0.9891  0.3351 -0.7413
  145MOL0     C19925   2.038   2.157   4.981 -0.1136  1.2892 -0.3573
  145MOL0     C19926   2.085   2.260   4.897  0.4028  0.8752 -0.7350
  145MOL0     C19927   2.172   2.603   4.652 -0.4060 -0.1171  0.7601
  145MOL0     C19928   2.177   2.600   4.514 -0.2015 -0.2094  0.6793
  145MOL0     C19929   2.224   2.715   4.437  0.0070  0.4708 -0.3365
  145MOL0     C19930   2.294   2.814   4.503  0.5206 -0.2349  0.2356
  145MOL0     O19931   2.353   2.897   4.411  0.2300  0.1017  0.1037
  145MOL0     C19932   2.440   3.008   4.455  0.1445  0.5769 -0.2358
  145MOL0     C19933   2.452   3.126   4.360 -0.1847  0.2948  0.7612
  145MOL0     C19934   2.319   3.201   4.317 -0.3715 -0.8824  0.5525
  145MOL0     C19935   2.235   3.115   4.224  0.6486 -0.5202 -0.3338
  145MOL0     C19936   2.300   3.082   4.098 -0.3026  0.3771 -0.2190
  145MOL0     C19937   2.344   3.077   3.984  0.2896  0.6263 -0.1701
  145MOL0     C19938   2.292   2.814   4.637 -0.6844 -0.1092  0.0206
  145MOL0     C19939   2.233   2.717   4.713  0.5979  0.4865  0.4115
  145MOL0     C19940   2.248   2.738   4.862  0.6091 -0.4440 -0.2313
  145MOL0     H19941   1.902   2.505   5.058  0.3399 -1.2487  0.3198
  145MOL0     H19942   1.828   2.327   5.181  0.9833  1.0546 -0.3699
  145MOL0     H19943   1.935   1.890   5.052 -1.6119 -2.4950  2.6248
  145MOL0     H19944   1.797   1.974   4.974  0.0790 -0.2640 -1.5347
  145MOL0     H19945   1.715   1.778   5.076  1.3592  1.9143 -1.3986
  145MOL0     H19946   1.775   1.821   5.240  0.9530  0.4084  0.2985
  145MOL0     H19947   1.550   1.876   5.245  4.1997 -1.1443  1.5507
  145MOL0     H19948   1.611   2.025   5.223  0.8760 -0.1622  1.1324
  145MOL0     H19949   1.583   2.006   4.961 -0.6855 -0.2198 -0.2000
  145MOL0     H19950   1.533   1.845   4.978 -2.4925 -0.4222 -0.0687
  145MOL0     H19951   1.381   2.081   5.093  1.3497  1.1166  0.0528
  145MOL0     H19952   1.348   1.902   5.123 -0.0100  1.4992  0.6606
  145MOL0     H19953   1.322   1.869   4.897  1.9942 -0.9766  2.6198
  145MOL0     H19954   1.195   1.964   4.967  0.7803 -2.4699  0.7258
  145MOL0     H19955   1.401   2.023   4.760  1.0837  1.9182  0.3731
  145MOL0     H19956   1.410   2.138   4.875  0.6975  0.1980 -2.5616
  145MOL0     H19957   1.270   2.204   4.687 -0.0474  2.1771  0.5586
  145MOL0     H19958   1.151   2.079   4.715  1.6648 -1.5269  0.9375
  145MOL0     H19959   1.267   2.420   4.817  2.1051 -0.6718  0.1619
  145MOL0     H19960   1.193   2.603   5.024 -0.2903  1.1647  0.7194
  145MOL0     H19961   1.066   2.554   5.129  3.2959  3.6961  0.9215
  145MOL0     H19962   1.018   2.626   4.841 -1.4501  0.2648 -0.4587
  145MOL0     H19963   0.906   2.594   4.970  1.6014 -0.9653  2.9942
  145MOL0     H19964   1.114   2.814   5.002  0.1624  0.5360  0.4062
  145MOL0     H19965   0.963   2.850   4.940  2.1341  2.1028 -0.6413
  145MOL0     H19966   0.860   2.841   5.167  1.0186 -1.4436 -1.2064
  145MOL0     H19967   0.976   2.716   5.213  0.5185 -0.8063 -1.1436
  145MOL0     H19968   0.891   2.793   5.424  0.6899 -0.1393 -1.6357
  145MOL0     H19969   0.842   2.890   5.738 -0.2883  1.5001 -1.2057
  145MOL0     H19970   0.773   2.793   5.610 -1.1622 -0.0353 -2.0785
  145MOL0     H19971   0.706   2.953   5.654  0.4325  0.8223  0.2662
  145MOL0     H19972   0.667   3.450   5.741 -1.2363  2.2390  1.7471
  145MOL0     H19973   0.647   3.605   5.898 -0.4962 -3.7335 -1.6251
  145MOL0     H19974   0.759   3.837   5.993  2.0134 -1.4645  0.1569
  145MOL0     H19975   0.635   3.722   6.057  0.7282 -1.2185 -2.2700
  145MOL0     H19976   0.721   3.782   6.294  0.7388 -1.0380 -0.8817
  145MOL0     H19977   0.807   3.918   6.225 -0.1805 -1.3241  0.9134
  145MOL0     H19978   0.509   3.886   6.178  1.2400 -1.6411 -0.8681
  145MOL0     H19979   0.625   4.016   6.128 -2.2959 -1.2291 -1.9556
  145MOL0     H19980   0.656   4.066   6.391 -1.0244 -0.0242  1.8879
  145MOL0     H19981   0.520   3.957   6.413 -2.4320  3.4236  2.1446
  145MOL0     H19982   0.448   4.207   6.409 -0.8364  1.0863 -0.7392
  145MOL0     H19983   0.490   4.200   6.240  1.1841  0.6524  1.4550
  145MOL0     H19984   0.288   4.060   6.416  2.5602  1.2987  1.4215
  145MOL0     H19985   0.309   3.979   6.264 -0.6960  0.7577  0.1427
  145MOL0     H19986   0.256   4.190   6.137 -0.8881  2.5515  0.4281
  145MOL0     H19987   0.214   4.262   6.304 -1.9093 -1.9086  1.4479
  145MOL0     H19988   0.025   4.202   6.190 -0.4326 -0.5315  0.7183
  145MOL0     H19989   0.041   4.079   6.313 -0.8484  0.1867 -0.0148
  145MOL0     H19990   1.039   3.485   6.064 -0.7677 -1.6206  1.0723
  145MOL0     H19991   1.048   3.318   5.876 -0.4177 -1.1495 -1.2724
  145MOL0     H19992   1.031   3.266   5.479 -0.4708  0.3053  0.4389
  145MOL0     H19993   1.079   3.149   5.263  1.3877  2.8018  1.8671
  145MOL0     H19994   2.088   2.061   4.996  1.9795  2.4174  0.3595
  145MOL0     H19995   2.158   2.244   4.818  1.6730 -4.2017  1.0594
  145MOL0     H19996   2.111   2.532   4.462  0.2635 -0.9352  1.0213
  145MOL0     H19997   2.204   2.730   4.331 -2.7600 -0.0512  0.0509
  145MOL0     H19998   2.412   3.035   4.557  1.6608 -0.6887  0.5502
  145MOL0     H19999   2.538   2.962   4.471  0.5102  0.0632 -3.3390
  145MOL0     H20000   2.505   3.097   4.269  1.9999  0.0533  2.0268
  145MOL0     H20001   2.528   3.197   4.395 -0.5484  1.0088  0.1307
  145MOL0     H20002   2.277   3.246   4.407  0.0903  2.5733 -0.7727
  145MOL0     H20003   2.349   3.282   4.248  1.1434 -1.6054  0.3152
  145MOL0     H20004   2.146   3.169   4.189  1.2819  0.9900  0.2912
  145MOL0     H20005   2.208   3.025   4.279  0.4598  0.5766  1.4594
  145MOL0     H20006   2.348   3.076   3.877  2.6898  1.5353 -0.1397
  145MOL0     H20007   2.338   2.892   4.697  1.2300 -2.1090  1.3581
  145MOL0     H20008   2.348   2.762   4.900 -0.3261  1.9125  0.9641
  145MOL0     H20009   2.195   2.823   4.906 -1.6021 -3.1799  2.8262
  145MOL0     H20010   2.218   2.656   4.928  0.5344 -1.8111 -1.9088
  146MOL0     O20011  10.971   9.082   6.747  0.1323 -0.2282  0.3283
  146MOL0     C20012  10.889   9.060   6.832  0.2821 -0.3793  0.4878
  146MOL0     O20013  10.879   9.135   6.941 -0.2799  0.2003 -0.1439
  146MOL0     C20014  10.963   9.240   6.957  0.1672 -1.0606  0.3709
  146MOL0     C20015  10.916   9.366   7.001 -0.3453 -0.5317  0.1211
  146MOL0     C20016  11.004   9.473   7.021 -0.4886 -0.2975  0.3941
  146MOL0     C20017  11.143   9.463   6.998  0.6630 -0.3870 -0.6706
  146MOL0     O20018  11.215   9.577   7.024 -1.1411  0.3932 -0.7144
  146MOL0     C20019  11.349   9.588   6.973 -0.2541  0.0394  0.7217
  146MOL0     C20020  11.410   9.715   7.026  0.5782 -0.2760 -0.5284
  146MOL0     C20021  11.343   9.850   6.984 -0.1071  0.3674  0.5040
  146MOL0     C20022  11.418   9.978   7.027 -0.7155  0.1126  0.2637
  146MOL0     C20023  11.417  10.013   7.172  1.0872  0.5388 -0.8301
  146MOL0     C20024  11.468  10.141   7.217 -0.8417 -0.4068 -0.7429
  146MOL0     C20025  11.435  10.179   7.363  0.4310 -0.0026  0.1175
  146MOL0     C20026  11.505  10.307   7.401  0.2971  0.0804 -0.2890
  146MOL0     N20027  11.471  10.365   7.532  0.2861  0.3502  0.5874
  146MOL0     C20028  11.411  10.483   7.558  0.9690  0.2806  0.3267
  146MOL0     C20029  11.430  10.511   7.687 -0.6164 -0.3860 -0.5396
  146MOL0     C20030  11.366  10.625   7.756  0.9222 -0.4479  0.4031
  146MOL0     C20031  11.289  10.567   7.879 -0.1268 -0.0157 -0.4805
  146MOL0     C20032  11.211  10.679   7.951  0.1479  0.0829 -0.3360
  146MOL0     C20033  11.138  10.636   8.073  0.6071  0.0569  0.4181
  146MOL0     O20034  11.050  10.533   8.034 -0.3590  0.1018  0.0305
  146MOL0     C20035  11.019  10.438   8.133  0.8632 -0.2138  0.4497
  146MOL0     C20036  10.942  10.455   8.253 -0.4462  0.3953  0.5523
  146MOL0     C20037  10.936  10.357   8.353 -0.2472  0.1910 -0.5975
  146MOL0     C20038  10.878  10.411   8.486  0.3773 -0.0544 -0.0480
  146MOL0     C20039  10.986  10.230   8.322 -0.1863 -0.4460 -0.5953
  146MOL0     C20040  10.981  10.118   8.419  0.1605 -0.3097 -0.1776
  146MOL0     O20041  11.037  10.001   8.380 -0.0069 -0.1187  0.6224
  146MOL0     C20042  11.049   9.903   8.484 -0.2168 -0.3345  0.2449
  146MOL0     C20043  10.946   9.816   8.510  0.4112  0.2536 -0.1405
  146MOL0     C20044  10.940   9.736   8.626  0.5908  0.2155  0.3192
  146MOL0     C20045  11.061   9.729   8.698 -0.8104  0.5047  0.1804
  146MOL0     O20046  11.086   9.641   8.798  0.5492 -0.8083  0.2553
  146MOL0     C20047  11.201   9.553   8.778 -1.3206 -0.0929 -0.0865
  146MOL0     C20048  11.169   9.408   8.831 -0.0331  0.4625  0.6924
  146MOL0     C20049  11.191   9.383   8.988 -0.5992 -0.1483 -0.7870
  146MOL0     C20050  11.193   9.234   9.038  0.8303 -0.6706  0.3995
  146MOL0     C20051  11.173   9.197   9.184  1.1330 -0.4234 -0.5302
  146MOL0     C20052  11.262   9.268   9.294  0.0837  0.9365 -0.0373
  146MOL0     C20053  11.213   9.220   9.425  0.5190 -0.3768 -0.8401
  146MOL0     C20054  11.076   9.286   9.458  0.6297  0.0315 -0.7522
  146MOL0    Cl20055  10.943   9.167   9.457 -0.3049 -0.0687  0.3171
  146MOL0     C20056  11.170   9.812   8.656 -0.5951 -0.4588  0.0476
  146MOL0     C20057  11.157   9.901   8.551  0.0946  0.3885 -0.3272
  146MOL0     O20058  10.923  10.126   8.529  0.0800  0.2840  0.4990
  146MOL0     C20059  11.068  10.213   8.208 -0.3853  0.1743 -0.1020
  146MOL0     C20060  11.080  10.321   8.115  0.4172 -0.5042 -0.1872
  146MOL0     N20061  11.509  10.414   7.744 -0.5820  0.7048  0.9419
  146MOL0     N20062  11.516  10.328   7.653  0.2845  0.3598  0.4213
  146MOL0     C20063  11.193   9.338   6.970  0.0867  0.0297  0.9356
  146MOL0     C20064  11.103   9.226   6.944  0.0316  0.7464 -0.7959
  146MOL0     C20065  10.804   8.929   6.831  0.1749 -0.7928  0.4890
  146MOL0     C20066  10.852   8.841   6.726 -0.3176  0.4008 -0.6230
  146MOL0     C20067  10.782   8.720   6.698 -0.4657 -0.4196  0.1234
  146MOL0     C20068  10.672   8.691   6.772  0.3231  0.8618  0.1292
  146MOL0     O20069  10.622   8.562   6.757 -0.0461 -0.0251  0.0693
  146MOL0     C20070  10.607   8.506   6.889  0.4253  0.2124  0.8179
  146MOL0     C20071  10.615   8.355   6.879 -0.0563 -0.1552  0.0427
  146MOL0     C20072  10.533   8.293   6.767  0.6814 -0.2292  0.1877
  146MOL0     C20073  10.379   8.331   6.777 -0.0031  0.4694  0.3631
  146MOL0     C20074  10.323   8.325   6.645 -0.6880  0.2226 -0.9709
  146MOL0     C20075  10.266   8.343   6.534  0.8145 -0.1762 -0.8488
  146MOL0     C20076  10.610   8.788   6.849 -0.3748 -0.1678 -0.1297
  146MOL0     C20077  10.675   8.904   6.876 -1.3718 -0.6045  0.6029
  146MOL0     C20078  10.604   9.007   6.970 -0.1781 -0.6469  0.1900
  146MOL0     H20079  10.810   9.389   7.008 -0.4506 -0.0549 -2.1657
  146MOL0     H20080  10.961   9.571   7.040  2.6776  1.2897 -0.0188
  146MOL0     H20081  11.358   9.591   6.864 -2.8455  0.0397  0.4483
  146MOL0     H20082  11.427   9.515   6.995  1.9616  1.2389 -2.3495
  146MOL0     H20083  11.417   9.701   7.134  1.5390 -1.2122 -0.6854
  146MOL0     H20084  11.513   9.729   6.991  1.3280 -0.9248  1.2568
  146MOL0     H20085  11.327   9.845   6.876 -4.9450  0.3401  0.9939
  146MOL0     H20086  11.245   9.847   7.033  0.1710 -4.0734  1.2142
  146MOL0     H20087  11.526   9.982   7.006 -0.7724  0.6049  0.0475
  146MOL0     H20088  11.373  10.068   6.985  3.6499  3.3747  1.7299
  146MOL0     H20089  11.478   9.939   7.224  0.2248  0.4119  0.0344
  146MOL0     H20090  11.317   9.995   7.215  0.6626  2.6690 -0.7854
  146MOL0     H20091  11.575  10.123   7.202 -0.2213  0.0722  2.3071
  146MOL0     H20092  11.432  10.215   7.145 -0.6095  0.6903  0.2325
  146MOL0     H20093  11.465  10.107   7.439 -2.4235  1.4432  2.8566
  146MOL0     H20094  11.326  10.185   7.372  0.4210 -0.9329  0.7154
  146MOL0     H20095  11.607  10.271   7.412  0.1473 -0.8442 -1.6336
  146MOL0     H20096  11.502  10.383   7.322 -1.2417 -1.0482 -1.3805
  146MOL0     H20097  11.347  10.539   7.491  0.1851 -3.2554 -2.1814
  146MOL0     H20098  11.287  10.657   7.688 -0.7125 -1.2146  1.8587
  146MOL0     H20099  11.427  10.713   7.780 -1.4768  1.0230  1.5198
  146MOL0     H20100  11.209  10.506   7.836 -0.1752 -2.2674  2.4197
  146MOL0     H20101  11.356  10.509   7.943  0.4347 -0.1697 -1.2026
  146MOL0     H20102  11.283  10.757   7.976 -0.6896  0.0261  2.6239
  146MOL0     H20103  11.130  10.725   7.895  0.0825  2.0228  1.2425
  146MOL0     H20104  11.210  10.606   8.150 -1.5596 -0.3274  2.4177
  146MOL0     H20105  11.074  10.716   8.111  0.5751 -0.9285  2.5580
  146MOL0     H20106  10.906  10.552   8.285 -2.6875 -0.4734  0.8666
  146MOL0     H20107  10.854  10.517   8.480 -0.3358 -0.0582  1.9953
  146MOL0     H20108  10.949  10.412   8.569  1.7373  1.7454 -1.1679
  146MOL0     H20109  10.791  10.354   8.519  0.1542  1.8769  3.1228
  146MOL0     H20110  10.864   9.812   8.439 -1.1239  4.7063  1.0289
  146MOL0     H20111  10.862   9.666   8.652 -1.0124  2.0956  0.8639
  146MOL0     H20112  11.232   9.555   8.673 -1.4548  0.1959 -0.1236
  146MOL0     H20113  11.287   9.593   8.833 -1.7227  0.0768  0.4199
  146MOL0     H20114  11.065   9.387   8.805  0.3526 -0.9313  0.2139
  146MOL0     H20115  11.226   9.331   8.778 -0.3649  1.2505 -0.8579
  146MOL0     H20116  11.115   9.436   9.045  1.4986  1.5339  0.6261
  146MOL0     H20117  11.281   9.435   9.022 -1.3006  0.8764 -0.4509
  146MOL0     H20118  11.290   9.199   9.003  1.9058  0.9068  1.6625
  146MOL0     H20119  11.109   9.188   8.983  1.9887 -1.2586 -0.9550
  146MOL0     H20120  11.068   9.198   9.214  1.9157 -0.0516  2.5390
  146MOL0     H20121  11.192   9.090   9.196  1.8307 -0.3021 -0.4963
  146MOL0     H20122  11.251   9.376   9.281 -2.1483  1.0171  1.8748
  146MOL0     H20123  11.370   9.253   9.288  0.0377  0.9501 -1.0721
  146MOL0     H20124  11.289   9.247   9.498  0.2876 -3.5709  0.7678
  146MOL0     H20125  11.197   9.113   9.442 -1.2199  0.0651  0.5499
  146MOL0     H20126  11.050   9.352   9.375 -1.9110  0.8594  0.5979
  146MOL0     H20127  11.079   9.331   9.557 -4.3085  1.5040 -1.0184
  146MOL0     H20128  11.261   9.815   8.715 -1.9028 -1.6623  2.2649
  146MOL0     H20129  11.235   9.975   8.534 -1.0288  1.2258 -2.1122
  146MOL0     H20130  11.116  10.122   8.175  0.8314  1.2411 -1.3891
  146MOL0     H20131  11.145  10.303   8.030  0.9771 -0.2942  0.1870
  146MOL0     H20132  11.302   9.336   6.969  0.1371  0.8016  2.5288
  146MOL0     H20133  11.145   9.127   6.934 -0.2875  0.4611  0.4427
  146MOL0     H20134  10.944   8.862   6.673  0.7734 -3.1640 -0.3941
  146MOL0     H20135  10.827   8.648   6.631 -0.7923 -0.0118 -0.5524
  146MOL0     H20136  10.701   8.522   6.942  0.9888  0.0654 -0.1124
  146MOL0     H20137  10.519   8.545   6.942 -1.2472 -0.4970 -1.2842
  146MOL0     H20138  10.574   8.317   6.973  2.8229 -1.3388  0.9086
  146MOL0     H20139  10.716   8.317   6.867  0.2196  0.0781  1.4883
  146MOL0     H20140  10.559   8.336   6.670 -3.4070  3.4680  0.3924
  146MOL0     H20141  10.543   8.184   6.760 -2.0664 -0.8463  3.0989
  146MOL0     H20142  10.360   8.430   6.819  0.8711 -0.5681  3.4795
  146MOL0     H20143  10.324   8.266   6.846 -0.4824  1.3996  0.8728
  146MOL0     H20144  10.206   8.371   6.450  0.7067  1.6286 -0.2067
  146MOL0     H20145  10.512   8.756   6.885  0.0169  0.3071  1.4646
  146MOL0     H20146  10.673   9.072   7.024 -2.4811 -0.5828  3.3150
  146MOL0     H20147  10.532   9.070   6.917 -1.2170 -0.2174  2.0251
  146MOL0     H20148  10.570   8.955   7.060  3.7957 -0.7918  1.7951
  147MOL0     O20149   4.772   7.641   3.942 -0.5287 -0.1560 -0.4925
  147MOL0     C20150   4.867   7.681   4.012  0.3871  0.2468 -0.0058
  147MOL0     O20151   4.979   7.616   4.036  0.1066  0.5482  0.4119
  147MOL0     C20152   4.997   7.483   3.994  0.6427 -0.1103  0.1947
  147MOL0     C20153   5.108   7.416   4.049 -1.1930  0.7767 -0.9552
  147MOL0     C20154   5.132   7.277   4.034  1.0132 -0.0206  0.7163
  147MOL0     C20155   5.038   7.202   3.961  0.5995  0.0272 -0.1813
  147MOL0     O20156   5.047   7.071   3.975  0.2814  0.6572 -0.8809
  147MOL0     C20157   5.134   7.028   3.871  0.8644 -0.6540 -0.2020
  147MOL0     C20158   5.162   6.878   3.894  0.0968  0.4145 -0.3047
  147MOL0     C20159   5.238   6.844   4.027 -0.2090 -0.3196  0.2735
  147MOL0     C20160   5.234   6.691   4.060 -0.3578  0.0354 -0.2382
  147MOL0     C20161   5.290   6.657   4.198 -0.6913 -0.0776  0.5375
  147MOL0     C20162   5.440   6.698   4.202 -0.1434 -0.8547  0.6509
  147MOL0     C20163   5.523   6.642   4.325 -0.3931  1.2547  0.0803
  147MOL0     C20164   5.605   6.519   4.304 -0.1153 -0.0420  0.1912
  147MOL0     N20165   5.730   6.557   4.236 -0.6227 -1.2137  0.0670
  147MOL0     C20166   5.761   6.532   4.098  0.3636 -0.4644  0.3532
  147MOL0     C20167   5.890   6.571   4.085  0.5885 -0.0797  0.6893
  147MOL0     C20168   5.973   6.558   3.963  0.1537  0.3384 -0.8946
  147MOL0     C20169   6.114   6.569   3.988  0.5355  0.4457  0.0842
  147MOL0     C20170   6.201   6.521   3.867 -1.4108 -1.5387  0.2541
  147MOL0     C20171   6.349   6.497   3.877 -0.2155  0.0874  0.2606
  147MOL0     O20172   6.404   6.449   3.752 -0.1817 -0.0353  0.0344
  147MOL0     C20173   6.467   6.535   3.668 -0.1858 -0.3822 -0.1347
  147MOL0     C20174   6.578   6.607   3.703 -0.2222  0.6950  0.4127
  147MOL0     C20175   6.657   6.678   3.613  0.3254  0.6189  0.6489
  147MOL0     C20176   6.785   6.733   3.674 -0.0728 -0.7358  0.1476
  147MOL0     C20177   6.620   6.684   3.474  0.0478 -1.0687  0.1286
  147MOL0     C20178   6.701   6.752   3.369  0.0586 -0.6060 -0.2417
  147MOL0     O20179   6.714   6.700   3.247  1.2179  0.6345  0.0157
  147MOL0     C20180   6.806   6.763   3.163  0.2506  0.4677 -0.1193
  147MOL0     C20181   6.929   6.696   3.143  0.5097 -0.1638  0.6864
  147MOL0     C20182   7.018   6.764   3.060 -0.1966  1.4325 -0.2243
  147MOL0     C20183   7.008   6.888   3.006 -1.0096  1.0955  0.8161
  147MOL0     O20184   7.119   6.947   2.942  0.6308  0.2562  0.4005
  147MOL0     C20185   7.242   6.874   2.903  0.0260 -0.4182  0.2952
  147MOL0     C20186   7.327   6.986   2.844  0.4814 -0.4311 -0.8242
  147MOL0     C20187   7.474   6.939   2.809 -0.1933  0.4417 -0.2301
  147MOL0     C20188   7.544   7.058   2.741  0.1581  0.0226  0.3512
  147MOL0     C20189   7.686   7.016   2.722 -0.9632  0.1525 -0.1246
  147MOL0     C20190   7.786   7.134   2.711  1.3194 -0.0663 -0.5818
  147MOL0     C20191   7.783   7.218   2.583 -0.1797 -0.9788 -1.1996
  147MOL0     C20192   7.906   7.309   2.561 -0.1947 -0.1210 -0.2574
  147MOL0    Cl20193   7.868   7.483   2.610 -0.3628 -0.0210  0.3506
  147MOL0     C20194   6.888   6.954   3.022 -0.7812 -0.7683  0.3914
  147MOL0     C20195   6.783   6.894   3.105 -0.2395  0.3387 -0.3821
  147MOL0     O20196   6.755   6.857   3.399 -0.4492 -0.0829  0.3597
  147MOL0     C20197   6.504   6.618   3.440 -0.2393  0.5336 -0.3059
  147MOL0     C20198   6.428   6.537   3.531 -0.4397  0.0489  0.0047
  147MOL0     N20199   5.930   6.624   4.202  0.2377 -0.3082 -0.4718
  147MOL0     N20200   5.840   6.612   4.300  0.6419  0.1628  0.3112
  147MOL0     C20201   4.932   7.272   3.898 -0.3938  0.3547  0.4100
  147MOL0     C20202   4.908   7.407   3.909 -0.1068  1.6769  0.6610
  147MOL0     C20203   4.852   7.801   4.109 -0.2471  0.2628  0.0057
  147MOL0     C20204   4.920   7.802   4.234 -0.7373 -0.2506  0.4619
  147MOL0     C20205   4.903   7.915   4.320 -0.0194 -0.6628 -0.3576
  147MOL0     C20206   4.845   8.034   4.284 -0.3225 -0.4806  0.2714
  147MOL0     O20207   4.865   8.151   4.360 -0.3375  0.2538  0.0092
  147MOL0     C20208   4.812   8.142   4.482 -0.0284 -1.1522 -0.1809
  147MOL0     C20209   4.752   8.269   4.527  0.4835  0.0860 -0.3881
  147MOL0     C20210   4.643   8.328   4.433 -0.3234  0.0027  0.4539
  147MOL0     C20211   4.583   8.458   4.475  0.8077 -0.6098 -0.3786
  147MOL0     C20212   4.477   8.501   4.379 -0.1813 -0.4622  0.0365
  147MOL0     C20213   4.387   8.547   4.311 -0.1583  0.1265 -0.3198
  147MOL0     C20214   4.780   8.040   4.157 -0.6311  0.1143 -0.8913
  147MOL0     C20215   4.779   7.923   4.077 -0.5127 -0.1327 -0.2463
  147MOL0     C20216   4.696   7.918   3.957 -0.1027  0.1965  0.8672
  147MOL0     H20217   5.186   7.474   4.098 -0.2349 -0.6104 -0.7684
  147MOL0     H20218   5.218   7.221   4.069 -0.4344 -2.4600  0.6137
  147MOL0     H20219   5.235   7.071   3.875  0.8525 -0.7148  1.5761
  147MOL0     H20220   5.092   7.048   3.772  0.4657  0.3151  0.1498
  147MOL0     H20221   5.061   6.836   3.893  0.4734 -0.6935  1.9149
  147MOL0     H20222   5.215   6.839   3.807  1.4439  1.4691  0.0035
  147MOL0     H20223   5.340   6.883   4.024 -0.5123  0.6012  1.0971
  147MOL0     H20224   5.190   6.898   4.110 -0.1876  0.4206 -0.1843
  147MOL0     H20225   5.133   6.649   4.065 -0.5090  0.5001  0.8733
  147MOL0     H20226   5.282   6.641   3.975  0.0009  0.9119 -0.5581
  147MOL0     H20227   5.279   6.549   4.213 -1.0911 -0.1367 -0.1587
  147MOL0     H20228   5.224   6.707   4.270  0.7751  0.1598  1.7686
  147MOL0     H20229   5.484   6.678   4.104 -2.7818  5.2929 -2.3142
  147MOL0     H20230   5.459   6.805   4.214 -0.0463 -1.0928  3.1092
  147MOL0     H20231   5.459   6.621   4.411  0.6102 -4.8219 -0.2216
  147MOL0     H20232   5.588   6.722   4.362  1.9180 -0.1600 -0.6861
  147MOL0     H20233   5.622   6.483   4.406 -1.6466 -1.8584 -0.1176
  147MOL0     H20234   5.556   6.443   4.242  0.4930 -1.1037  0.9806
  147MOL0     H20235   5.685   6.490   4.034 -2.8232  1.3538  2.6452
  147MOL0     H20236   5.936   6.634   3.893 -0.2097 -0.5861 -1.7373
  147MOL0     H20237   5.970   6.455   3.926  0.8123 -0.8098  2.0183
  147MOL0     H20238   6.147   6.670   4.014 -1.3105  1.5736 -1.7155
  147MOL0     H20239   6.133   6.504   4.075 -1.8704 -0.3857  0.0584
  147MOL0     H20240   6.157   6.448   3.799  0.4004  1.0191 -4.0686
  147MOL0     H20241   6.207   6.609   3.802 -2.2011 -0.3483  1.7108
  147MOL0     H20242   6.407   6.585   3.907  1.4478 -1.4701  1.9189
  147MOL0     H20243   6.366   6.419   3.952  0.1800 -1.8949 -1.7578
  147MOL0     H20244   6.611   6.617   3.806  0.0276 -1.3327  0.5859
  147MOL0     H20245   6.772   6.837   3.704 -2.2257 -0.8882 -0.0743
  147MOL0     H20246   6.866   6.734   3.601  0.5238 -2.9718  0.7021
  147MOL0     H20247   6.835   6.687   3.760  1.3192 -2.6573 -1.5991
  147MOL0     H20248   6.936   6.604   3.200  0.1617 -1.0235 -0.6029
  147MOL0     H20249   7.113   6.712   3.047 -0.0903  1.4710  0.3435
  147MOL0     H20250   7.289   6.823   2.988 -3.8693  1.2420  3.7738
  147MOL0     H20251   7.224   6.795   2.830 -1.0709 -0.7506  0.9003
  147MOL0     H20252   7.287   7.026   2.750  1.5883  1.6041 -0.5126
  147MOL0     H20253   7.327   7.066   2.919 -0.6556  1.0600 -2.3342
  147MOL0     H20254   7.468   6.857   2.737  0.1492 -0.0051  0.2442
  147MOL0     H20255   7.520   6.908   2.903  0.9744  0.8508 -0.6395
  147MOL0     H20256   7.538   7.148   2.804 -0.3333 -1.1291  2.0041
  147MOL0     H20257   7.498   7.075   2.643  0.5963  3.7396  0.6344
  147MOL0     H20258   7.716   6.958   2.810  1.5784  0.0169 -0.9836
  147MOL0     H20259   7.693   6.953   2.633 -2.9461 -0.4752  0.1266
  147MOL0     H20260   7.884   7.094   2.738 -0.2032 -2.1684  2.4121
  147MOL0     H20261   7.763   7.202   2.794  0.6904 -3.3091  2.0891
  147MOL0     H20262   7.692   7.280   2.579  1.4012  1.5714 -0.3497
  147MOL0     H20263   7.781   7.134   2.513  2.9538 -1.8946 -0.3331
  147MOL0     H20264   7.934   7.296   2.456 -1.3309 -2.3120 -0.3577
  147MOL0     H20265   7.991   7.265   2.613 -1.6322 -0.2055  2.2007
  147MOL0     H20266   6.879   7.055   2.983 -1.1326  0.4581  3.4044
  147MOL0     H20267   6.696   6.952   3.134 -0.3939 -0.4577  0.8504
  147MOL0     H20268   6.478   6.609   3.335  0.6941 -2.1948 -0.3838
  147MOL0     H20269   6.358   6.465   3.490  1.0979 -1.0071 -0.8801
  147MOL0     H20270   4.861   7.196   3.865  0.8219 -0.7986  0.3813
  147MOL0     H20271   4.817   7.437   3.858 -1.8598 -1.3919  1.6593
  147MOL0     H20272   4.989   7.726   4.270  1.1910  0.3384 -1.7731
  147MOL0     H20273   4.963   7.899   4.409 -0.6189 -0.8159  0.0249
  147MOL0     H20274   4.723   8.079   4.471 -0.1819 -0.5474 -3.5152
  147MOL0     H20275   4.885   8.109   4.556  0.9822  0.0241 -0.6337
  147MOL0     H20276   4.837   8.339   4.531 -0.5310  1.3358 -0.2370
  147MOL0     H20277   4.712   8.258   4.628  1.6887 -0.1005  0.0858
  147MOL0     H20278   4.677   8.326   4.329  0.7842  4.6496  0.5082
  147MOL0     H20279   4.553   8.267   4.442 -0.7699  0.9147  3.2325
  147MOL0     H20280   4.662   8.533   4.481 -0.6432  0.8862  2.0127
  147MOL0     H20281   4.542   8.454   4.577 -0.2325  0.5070 -0.7278
  147MOL0     H20282   4.314   8.567   4.236 -0.9973 -2.9500 -0.4443
  147MOL0     H20283   4.737   8.134   4.123  0.1288  0.6403 -0.4215
  147MOL0     H20284   4.758   7.895   3.870 -1.1623  4.5889 -1.3317
  147MOL0     H20285   4.621   7.839   3.964 -0.6880  0.4239 -1.8403
  147MOL0     H20286   4.634   8.007   3.943 -1.3473 -0.8261 -0.3497
  148MOL0     O20287   3.656   4.800   6.765 -0.0663  0.6664  0.1375
  148MOL0     C20288   3.562   4.717   6.758 -0.4218 -0.3041  0.8920
  148MOL0     O20289   3.429   4.753   6.781 -0.7813  0.5978  0.4648
  148MOL0     C20290   3.378   4.878   6.760  0.2800  0.4059  0.0671
  148MOL0     C20291   3.254   4.895   6.820 -0.1579  0.3283 -0.5812
  148MOL0     C20292   3.172   5.012   6.802 -0.0757 -0.4255 -0.0485
  148MOL0     C20293   3.244   5.117   6.739 -0.8708  0.7109  0.0154
  148MOL0     O20294   3.176   5.234   6.730 -0.1819 -0.2427 -0.6752
  148MOL0     C20295   3.240   5.348   6.668  1.2435  0.5120 -0.3812
  148MOL0     C20296   3.136   5.462   6.686  0.5847 -1.1216  0.7931
  148MOL0     C20297   3.147   5.577   6.587  1.0197  1.0346  0.2118
  148MOL0     C20298   3.046   5.688   6.609  0.2577 -0.2216  0.1915
  148MOL0     C20299   2.985   5.727   6.474 -0.2855  0.6881 -0.5418
  148MOL0     C20300   2.852   5.677   6.460  0.0566  0.2615  0.4339
  148MOL0     C20301   2.843   5.521   6.427  0.6482  0.0093 -0.6403
  148MOL0     C20302   2.727   5.493   6.320  0.1346 -0.1299  0.5550
  148MOL0     N20303   2.593   5.550   6.365  0.1104 -0.1912 -0.1589
  148MOL0     C20304   2.508   5.501   6.467  0.5645  0.9696 -0.6045
  148MOL0     C20305   2.388   5.548   6.446 -0.3870 -0.2031 -0.1558
  148MOL0     C20306   2.268   5.525   6.533 -0.7440  0.8521  0.7619
  148MOL0     C20307   2.198   5.658   6.557 -0.1614 -0.6328 -0.9141
  148MOL0     C20308   2.073   5.651   6.633  0.9103  0.4237  0.5942
  148MOL0     C20309   2.092   5.666   6.785 -0.2227 -0.3275  0.0865
  148MOL0     O20310   2.185   5.566   6.834  0.1777  0.3679 -0.6763
  148MOL0     C20311   2.147   5.435   6.865  0.0567 -0.1706 -0.8474
  148MOL0     C20312   2.254   5.358   6.900 -0.4551 -0.6140 -0.3467
  148MOL0     C20313   2.229   5.219   6.926 -0.6206  0.0826  0.0829
  148MOL0     C20314   2.357   5.132   6.955  1.0892 -0.6918  0.2336
  148MOL0     C20315   2.097   5.158   6.913  0.1279 -0.0962  0.3251
  148MOL0     C20316   2.064   5.014   6.939  0.6314  0.2897  0.0513
  148MOL0     O20317   2.162   4.925   6.935  0.1120  0.1514 -0.6927
  148MOL0     C20318   2.139   4.795   6.971  0.0068  0.2907 -0.1576
  148MOL0     C20319   2.037   4.709   6.939 -0.1695  0.2988  0.8481
  148MOL0     C20320   2.034   4.570   6.984 -0.1074 -0.5059 -0.2367
  148MOL0     C20321   2.130   4.527   7.067 -0.2072 -0.3265 -0.5452
  148MOL0     O20322   2.152   4.398   7.115 -0.6846  0.0662  0.7555
  148MOL0     C20323   2.087   4.286   7.056 -0.1341 -1.0406 -0.0748
  148MOL0     C20324   2.199   4.164   7.057  0.8750  0.9011  0.6980
  148MOL0     C20325   2.155   4.031   6.996  0.5945 -0.2241 -0.3605
  148MOL0     C20326   2.158   4.033   6.844  0.3258  0.3793  0.1306
  148MOL0     C20327   2.135   3.920   6.745  1.6070  0.2518  0.5293
  148MOL0     C20328   2.199   3.788   6.772 -0.4014 -0.3530 -0.0896
  148MOL0     C20329   2.347   3.771   6.768 -0.5910  1.1056  0.0372
  148MOL0     C20330   2.388   3.625   6.813  0.3824  0.2086  0.2756
  148MOL0    Cl20331   2.342   3.590   6.975 -0.2010 -0.1107  0.0210
  148MOL0     C20332   2.229   4.613   7.109 -0.0962 -0.0594 -0.4194
  148MOL0     C20333   2.238   4.745   7.057  0.5307 -0.4432 -0.8068
  148MOL0     O20334   1.941   4.993   6.947 -0.3455  0.2544  0.1763
  148MOL0     C20335   1.995   5.253   6.875 -1.1741  0.6800  0.2858
  148MOL0     C20336   2.019   5.389   6.853  0.5672  0.2031  0.8690
  148MOL0     N20337   2.398   5.632   6.339  0.2295 -0.0799 -0.3471
  148MOL0     N20338   2.519   5.637   6.290 -0.2987  0.3232  0.4231
  148MOL0     C20339   3.377   5.098   6.685  0.2038 -0.4847 -0.4798
  148MOL0     C20340   3.442   4.978   6.693  0.1609  0.1556 -0.3654
  148MOL0     C20341   3.585   4.573   6.741 -1.1499 -0.1241 -1.0370
  148MOL0     C20342   3.506   4.484   6.817 -0.2599 -0.2736  0.1167
  148MOL0     C20343   3.522   4.338   6.803 -0.1640  0.0877 -0.0424
  148MOL0     C20344   3.606   4.286   6.708  0.2744 -0.3577  0.7353
  148MOL0     O20345   3.579   4.153   6.680  0.4701 -0.7468  0.2135
  148MOL0     C20346   3.697   4.069   6.654  0.6667 -0.4639 -1.1456
  148MOL0     C20347   3.683   3.997   6.523 -0.4449  0.3638 -0.0361
  148MOL0     C20348   3.664   4.091   6.403 -0.4039 -0.1172  0.8841
  148MOL0     C20349   3.658   3.994   6.282  0.9167 -1.4612 -0.8089
  148MOL0     C20350   3.796   3.977   6.239  0.4055 -0.2279 -0.0221
  148MOL0     C20351   3.907   3.958   6.206  0.1720  0.1275  0.2076
  148MOL0     C20352   3.688   4.376   6.640 -0.0314  0.0664  0.8284
  148MOL0     C20353   3.679   4.516   6.651 -0.4855 -0.0241 -0.5209
  148MOL0     C20354   3.765   4.602   6.563  0.2176 -0.0696 -0.3489
  148MOL0     H20355   3.223   4.816   6.888  0.0056 -0.0564 -0.9516
  148MOL0     H20356   3.070   5.027   6.836 -0.7681 -0.8590 -1.8315
  148MOL0     H20357   3.262   5.332   6.562 -1.2023  0.3329 -0.9150
  148MOL0     H20358   3.330   5.363   6.729 -0.6114  2.1041  2.1675
  148MOL0     H20359   3.034   5.422   6.684  0.6760 -1.3466 -0.7696
  148MOL0     H20360   3.154   5.517   6.779  2.7249  2.7292 -1.6508
  148MOL0     H20361   3.247   5.623   6.592  0.2990  2.8128 -0.8205
  148MOL0     H20362   3.142   5.531   6.488 -4.3503 -0.3494  0.8421
  148MOL0     H20363   2.965   5.671   6.680  0.5871 -1.6133  0.2777
  148MOL0     H20364   3.097   5.780   6.640 -0.1260  0.3776 -0.8974
  148MOL0     H20365   3.043   5.707   6.383 -2.4305 -0.9625 -1.6300
  148MOL0     H20366   2.989   5.836   6.478  0.8182  0.6288  2.0441
  148MOL0     H20367   2.796   5.693   6.553 -1.4090 -2.9150  0.2072
  148MOL0     H20368   2.807   5.728   6.374  2.3459 -0.3771 -1.2407
  148MOL0     H20369   2.806   5.471   6.517  0.1725  0.6282 -0.4882
  148MOL0     H20370   2.941   5.486   6.391 -0.0686 -0.4579 -2.2012
  148MOL0     H20371   2.761   5.529   6.223 -1.4317  0.9101  0.3600
  148MOL0     H20372   2.713   5.386   6.303 -1.1840  0.1107  0.0595
  148MOL0     H20373   2.527   5.430   6.547  0.5842 -2.2102 -3.2169
  148MOL0     H20374   2.318   5.480   6.619  1.7851  1.5966 -0.2489
  148MOL0     H20375   2.200   5.449   6.494  0.1050  2.0090 -3.4903
  148MOL0     H20376   2.277   5.722   6.597 -0.9385  0.2460 -0.7563
  148MOL0     H20377   2.161   5.700   6.463  1.0050  0.3192 -0.9820
  148MOL0     H20378   2.010   5.729   6.591 -0.9952 -1.7946 -0.8681
  148MOL0     H20379   2.012   5.565   6.607 -0.7870  1.6623  0.3489
  148MOL0     H20380   2.134   5.762   6.814 -0.0866 -0.7206  1.2273
  148MOL0     H20381   1.991   5.656   6.826 -0.4256 -3.1150 -0.8587
  148MOL0     H20382   2.354   5.401   6.900 -0.9113  0.4623  0.0086
  148MOL0     H20383   2.450   5.189   6.955  1.9173 -1.7019 -4.1133
  148MOL0     H20384   2.358   5.053   6.879 -2.3144 -0.6913  0.0237
  148MOL0     H20385   2.344   5.094   7.057  4.2495  0.6860  1.2623
  148MOL0     H20386   1.966   4.742   6.865 -0.9548 -2.0272  0.4730
  148MOL0     H20387   1.959   4.504   6.941  0.0434  1.0239 -3.0960
  148MOL0     H20388   1.993   4.252   7.101 -0.1205 -0.8255  0.1153
  148MOL0     H20389   2.056   4.316   6.955  0.6119 -0.6776 -0.1975
  148MOL0     H20390   2.293   4.201   7.015  0.1905  1.3955 -0.4420
  148MOL0     H20391   2.231   4.143   7.160 -0.4743  1.8098  1.3262
  148MOL0     H20392   2.054   4.000   7.024  1.0094 -2.1142 -0.8183
  148MOL0     H20393   2.229   3.955   7.023  0.8089  0.0471 -0.1775
  148MOL0     H20394   2.258   4.061   6.808  0.3227 -1.3878 -1.4154
  148MOL0     H20395   2.099   4.122   6.823  0.1874  0.5776  1.3217
  148MOL0     H20396   2.031   3.894   6.766  2.0467 -1.2748  0.9279
  148MOL0     H20397   2.132   3.955   6.642 -1.1044  0.0538  0.4760
  148MOL0     H20398   2.162   3.719   6.696 -0.0451 -2.1189  1.2802
  148MOL0     H20399   2.160   3.753   6.868 -1.3926  1.9201  0.4029
  148MOL0     H20400   2.386   3.851   6.833 -0.6997  1.5516 -0.4442
  148MOL0     H20401   2.370   3.784   6.662 -3.4845  0.2414 -0.7891
  148MOL0     H20402   2.497   3.612   6.815  0.1352 -2.9779 -0.9259
  148MOL0     H20403   2.341   3.548   6.751 -2.6523  1.5508  0.7648
  148MOL0     H20404   2.311   4.583   7.174 -0.4926 -0.0356  0.0982
  148MOL0     H20405   2.330   4.803   7.064 -0.7268  1.4814  0.9385
  148MOL0     H20406   1.893   5.217   6.885 -0.5362 -0.7359  2.3430
  148MOL0     H20407   1.935   5.456   6.839 -0.1206 -0.8060  0.0194
  148MOL0     H20408   3.431   5.179   6.638  1.2793 -1.1309 -0.4006
  148MOL0     H20409   3.542   4.964   6.654 -0.0481  1.6962 -1.5439
  148MOL0     H20410   3.421   4.518   6.876  0.6808  0.1293  1.2937
  148MOL0     H20411   3.439   4.275   6.835 -0.8070  0.3602 -1.1168
  148MOL0     H20412   3.789   4.128   6.660  1.0051 -1.0914  2.6714
  148MOL0     H20413   3.711   4.002   6.740  2.8182  0.6506 -0.5513
  148MOL0     H20414   3.595   3.932   6.530 -1.2352  1.1850 -1.6588
  148MOL0     H20415   3.770   3.930   6.513  0.3927  0.8259  3.0429
  148MOL0     H20416   3.568   4.143   6.412 -1.2451 -1.2737 -0.8124
  148MOL0     H20417   3.750   4.158   6.391 -0.7839  0.0914 -1.2390
  148MOL0     H20418   3.589   4.042   6.213  1.8337 -0.8998 -1.3595
  148MOL0     H20419   3.617   3.894   6.302 -0.6017 -0.6238  0.4848
  148MOL0     H20420   4.012   3.950   6.185  0.4521 -2.0874  2.1080
  148MOL0     H20421   3.759   4.333   6.570  0.3116 -0.3111  1.4055
  148MOL0     H20422   3.837   4.557   6.494 -1.0862 -2.7126 -0.0978
  148MOL0     H20423   3.695   4.672   6.517 -1.2039 -0.5614  0.9766
  148MOL0     H20424   3.822   4.664   6.634  2.5574 -0.7179 -1.5490
  149MOL0     O20425   3.928   4.159   0.442  0.1619  0.1756  0.0419
  149MOL0     C20426   3.890   4.162   0.555  0.2620  0.0660 -0.7041
  149MOL0     O20427   3.851   4.053   0.617  0.2894  0.2024  0.2214
  149MOL0     C20428   3.897   3.930   0.568  0.4245  0.4711 -0.9916
  149MOL0     C20429   4.035   3.902   0.581  0.3584  0.6416  0.8670
  149MOL0     C20430   4.089   3.780   0.521  0.2866  0.7497  1.1420
  149MOL0     C20431   4.014   3.694   0.450  0.0959 -0.8115  0.9554
  149MOL0     O20432   4.077   3.580   0.392  0.2030 -0.0557  0.5338
  149MOL0     C20433   4.030   3.545   0.253  0.6722 -0.9875 -1.0218
  149MOL0     C20434   4.123   3.456   0.174  0.1695 -0.6147 -0.3449
  149MOL0     C20435   4.265   3.508   0.149  0.5557 -0.4376  0.3111
  149MOL0     C20436   4.333   3.443   0.026  0.1756 -0.8553 -0.0630
  149MOL0     C20437   4.428   3.528  -0.052  0.7718  0.2478 -0.5752
  149MOL0     C20438   4.466   3.446  -0.173 -0.5563 -0.2349 -0.4846
  149MOL0     C20439   4.573   3.529  -0.256  0.9501  0.7312 -0.4722
  149MOL0     C20440   4.524   3.662  -0.310 -0.6367  1.3889 -0.2102
  149MOL0     N20441   4.638   3.741  -0.347 -0.5273 -0.6702  0.4350
  149MOL0     C20442   4.708   3.729  -0.462 -0.5447 -0.3095 -0.5130
  149MOL0     C20443   4.824   3.808  -0.445  0.9915  0.0410  0.2051
  149MOL0     C20444   4.932   3.839  -0.548 -0.2654  0.4573 -0.3662
  149MOL0     C20445   4.888   3.828  -0.699 -0.5286 -0.4106 -0.6475
  149MOL0     C20446   4.756   3.897  -0.737  0.0978 -0.5013 -0.4617
  149MOL0     C20447   4.750   4.037  -0.679  0.7743 -0.5245 -0.0661
  149MOL0     O20448   4.623   4.112  -0.720  0.3367  0.0491 -0.1527
  149MOL0     C20449   4.504   4.089  -0.653 -0.0330 -0.3462  0.6385
  149MOL0     C20450   4.375   4.112  -0.710 -0.9865  0.7665  0.8551
  149MOL0     C20451   4.248   4.100  -0.649 -0.3224  0.3267 -0.1181
  149MOL0     C20452   4.128   4.113  -0.734  0.4018 -0.2625 -0.1691
  149MOL0     C20453   4.254   4.055  -0.514  0.4752 -0.4119  0.3882
  149MOL0     C20454   4.137   4.024  -0.426  0.3131  0.4606 -0.1240
  149MOL0     O20455   4.162   4.000  -0.286  0.5216  0.1905  0.0312
  149MOL0     C20456   4.064   3.940  -0.210 -0.4508 -0.8560 -1.2294
  149MOL0     C20457   3.946   4.014  -0.177  0.2478  0.2879  0.3035
  149MOL0     C20458   3.836   3.949  -0.110 -0.4457 -0.4149 -0.0404
  149MOL0     C20459   3.849   3.822  -0.060 -0.5424  0.9808  0.0843
  149MOL0     O20460   3.757   3.760   0.024  0.5792  0.2923 -0.0469
  149MOL0     C20461   3.621   3.777  -0.015  0.0699  0.4609  0.2897
  149MOL0     C20462   3.564   3.646   0.039  0.4897  0.0325 -0.1261
  149MOL0     C20463   3.572   3.652   0.194  1.1482  0.2874 -0.1971
  149MOL0     C20464   3.504   3.528   0.259 -0.6276 -0.2234 -0.5217
  149MOL0     C20465   3.467   3.548   0.407  1.0160  0.6308 -0.7411
  149MOL0     C20466   3.564   3.508   0.517 -1.2523 -0.2699 -0.0497
  149MOL0     C20467   3.509   3.489   0.655  0.5313  0.8864 -0.4519
  149MOL0     C20468   3.574   3.394   0.747  0.5393  0.5546 -0.4657
  149MOL0    Cl20469   3.476   3.379   0.894  0.0115  0.2677  0.1899
  149MOL0     C20470   3.971   3.751  -0.088 -0.0397  0.2575 -0.7276
  149MOL0     C20471   4.073   3.804  -0.167  0.1971  0.2872 -0.3210
  149MOL0     O20472   4.029   4.030  -0.482  0.1468 -0.3047 -1.1250
  149MOL0     C20473   4.377   4.014  -0.457 -0.2422 -0.6205  1.3399
  149MOL0     C20474   4.495   4.024  -0.531 -0.1917 -0.5639  0.0184
  149MOL0     N20475   4.814   3.880  -0.327  0.0747 -0.3698  0.3096
  149MOL0     N20476   4.700   3.844  -0.274  0.0181  0.0024  0.2466
  149MOL0     C20477   3.875   3.722   0.440  0.1854 -0.1616  0.3771
  149MOL0     C20478   3.818   3.838   0.494 -0.2852  0.1244  0.3611
  149MOL0     C20479   3.861   4.288   0.631 -0.8493  1.4968 -0.7409
  149MOL0     C20480   3.827   4.280   0.763 -0.0343 -0.1283 -0.2615
  149MOL0     C20481   3.815   4.388   0.849 -0.6944 -0.2089  0.7723
  149MOL0     C20482   3.845   4.517   0.793  0.3270  0.3950 -0.6315
  149MOL0     O20483   3.839   4.634   0.865  0.6424 -0.4667 -0.3510
  149MOL0     C20484   3.797   4.639   1.005 -0.3727 -0.1456  0.6925
  149MOL0     C20485   3.783   4.785   1.050 -0.2058  0.8304  0.1306
  149MOL0     C20486   3.719   4.795   1.191  0.4531 -0.4284  0.0176
  149MOL0     C20487   3.676   4.930   1.241  0.1344 -0.6990  0.6347
  149MOL0     C20488   3.793   5.029   1.231 -0.1239  0.5119 -0.2030
  149MOL0     C20489   3.868   5.121   1.214 -0.7422 -0.1548 -0.0651
  149MOL0     C20490   3.886   4.531   0.662 -0.1342 -0.5249  0.6272
  149MOL0     C20491   3.888   4.417   0.572 -0.1133  0.0526  0.6084
  149MOL0     C20492   3.936   4.443   0.432  0.3914  0.1477  0.5082
  149MOL0     H20493   4.100   3.972   0.633  0.1208 -1.5139  4.3620
  149MOL0     H20494   4.193   3.747   0.525  0.1428  0.3607  1.7827
  149MOL0     H20495   4.024   3.635   0.191  0.5334 -0.1186  0.2025
  149MOL0     H20496   3.929   3.503   0.254  0.1596 -0.0863 -4.0825
  149MOL0     H20497   4.124   3.357   0.222  3.3304 -1.5707 -2.0722
  149MOL0     H20498   4.079   3.431   0.077  1.0548 -0.7006 -0.7339
  149MOL0     H20499   4.259   3.613   0.117  1.2664 -1.1539 -2.4526
  149MOL0     H20500   4.329   3.493   0.236  0.1195  0.3195  0.7768
  149MOL0     H20501   4.390   3.357   0.063  0.7730  0.0902  1.2861
  149MOL0     H20502   4.256   3.404  -0.041  1.3258 -0.5486 -1.6425
  149MOL0     H20503   4.509   3.549   0.018  1.3529 -0.2983 -1.0719
  149MOL0     H20504   4.388   3.625  -0.084  3.5841  1.3044 -1.1942
  149MOL0     H20505   4.508   3.349  -0.145  2.2928  1.0792  0.0626
  149MOL0     H20506   4.386   3.421  -0.245 -0.2997  1.4722 -1.4197
  149MOL0     H20507   4.603   3.458  -0.334 -0.7706 -1.1808  0.4885
  149MOL0     H20508   4.665   3.538  -0.196  1.3614 -1.4280 -0.6765
  149MOL0     H20509   4.455   3.643  -0.393  3.0499 -0.6248 -3.1097
  149MOL0     H20510   4.472   3.719  -0.233 -0.2766 -0.6467  1.6396
  149MOL0     H20511   4.695   3.669  -0.552 -0.8638 -0.3983 -0.4089
  149MOL0     H20512   5.011   3.765  -0.530 -1.2884 -1.0945 -1.9746
  149MOL0     H20513   4.970   3.940  -0.532  0.5621  0.3744 -1.7382
  149MOL0     H20514   4.971   3.877  -0.750 -0.1075  2.3902  2.3811
  149MOL0     H20515   4.880   3.720  -0.713 -4.1345 -0.0743 -2.1278
  149MOL0     H20516   4.737   3.907  -0.844 -0.2374 -1.8490 -0.5510
  149MOL0     H20517   4.664   3.849  -0.704  0.0977 -0.7509 -0.8234
  149MOL0     H20518   4.767   4.042  -0.571 -2.3846  0.8892  0.4679
  149MOL0     H20519   4.837   4.087  -0.723 -1.2782 -0.8318 -5.1904
  149MOL0     H20520   4.365   4.151  -0.811 -0.7808 -3.1151 -0.8533
  149MOL0     H20521   4.155   4.153  -0.832  1.4761 -2.9377 -1.0371
  149MOL0     H20522   4.050   4.171  -0.683 -0.3824 -0.4513 -1.1290
  149MOL0     H20523   4.078   4.017  -0.749  0.5281 -0.7363  2.1122
  149MOL0     H20524   3.933   4.112  -0.221  3.4669  0.2812 -0.9446
  149MOL0     H20525   3.742   3.999  -0.091  0.0361  1.3975 -2.0198
  149MOL0     H20526   3.585   3.870   0.030  2.7374  1.0482  1.4064
  149MOL0     H20527   3.620   3.783  -0.124 -0.6888  0.4449  0.2902
  149MOL0     H20528   3.462   3.625   0.005  1.0945 -0.3308 -1.8180
  149MOL0     H20529   3.627   3.568  -0.006 -0.3808  0.9350 -3.1797
  149MOL0     H20530   3.520   3.743   0.224  1.2045  0.4844 -0.6881
  149MOL0     H20531   3.670   3.669   0.238  2.2484 -2.5129 -1.3170
  149MOL0     H20532   3.560   3.435   0.244  0.8052  0.4525  0.4085
  149MOL0     H20533   3.408   3.513   0.208  0.5261 -0.3809 -2.7620
  149MOL0     H20534   3.429   3.649   0.425 -4.1935 -1.1775 -0.0643
  149MOL0     H20535   3.370   3.499   0.419 -0.9599  3.5573 -3.1144
  149MOL0     H20536   3.633   3.593   0.513  0.1862 -1.3997 -0.0001
  149MOL0     H20537   3.611   3.413   0.490 -1.2132  0.1663 -1.6001
  149MOL0     H20538   3.413   3.439   0.638  1.7377 -0.7386 -3.3072
  149MOL0     H20539   3.500   3.591   0.692  0.3238  0.9676 -0.7223
  149MOL0     H20540   3.670   3.440   0.775  0.1593  1.6856 -0.9664
  149MOL0     H20541   3.585   3.292   0.710 -1.9967 -0.3692  1.0739
  149MOL0     H20542   3.977   3.645  -0.067  3.7548  0.0290 -2.2047
  149MOL0     H20543   4.157   3.741  -0.194 -0.1832 -0.4540  0.1561
  149MOL0     H20544   4.391   3.972  -0.358  2.2762 -0.8482  0.9376
  149MOL0     H20545   4.585   3.985  -0.484  0.6612 -0.9698 -1.8878
  149MOL0     H20546   3.802   3.660   0.387 -0.7326 -0.2718  1.7092
  149MOL0     H20547   3.712   3.858   0.480 -1.2156 -3.4888  0.9644
  149MOL0     H20548   3.817   4.186   0.816  1.8401 -0.0352  0.3312
  149MOL0     H20549   3.770   4.393   0.948 -0.0039  1.8639  1.0225
  149MOL0     H20550   3.713   4.573   1.028 -0.6297 -1.3654 -3.0421
  149MOL0     H20551   3.888   4.598   1.052 -0.6792  0.0083  1.4292
  149MOL0     H20552   3.722   4.834   0.974 -0.1191 -0.3169 -0.6968
  149MOL0     H20553   3.883   4.830   1.051  1.1953 -2.0525  0.5205
  149MOL0     H20554   3.633   4.728   1.182 -2.0636  2.7305 -1.9654
  149MOL0     H20555   3.791   4.755   1.263 -1.6365  2.5191  4.0997
  149MOL0     H20556   3.639   4.929   1.344 -1.6772 -1.3589  0.0136
  149MOL0     H20557   3.594   4.977   1.186 -0.1821  1.9518  3.1382
  149MOL0     H20558   3.937   5.196   1.182  0.4638 -1.5218 -0.7582
  149MOL0     H20559   3.913   4.633   0.635  1.4686 -1.1281 -0.1636
  149MOL0     H20560   3.866   4.461   0.351  0.8932  1.6780  0.3681
  149MOL0     H20561   3.987   4.540   0.429  1.4259 -0.3709  0.5900
  149MOL0     H20562   4.014   4.373   0.401 -0.4161  0.4899 -2.6106
  150MOL0     O20563   8.076   1.805  10.042  0.1259  0.6257 -0.4437
  150MOL0     C20564   8.032   1.713   9.973  0.1034  1.2285 -0.0115
  150MOL0     O20565   7.940   1.615  10.002  0.9107  0.6263 -0.2258
  150MOL0     C20566   7.876   1.639  10.118  0.9438 -0.6663  0.1655
  150MOL0     C20567   7.733   1.651  10.123 -0.5591 -0.0425 -0.6393
  150MOL0     C20568   7.677   1.690  10.243  0.1431  0.1989  0.0757
  150MOL0     C20569   7.748   1.695  10.359  0.1166  0.6005 -0.6403
  150MOL0     O20570   7.670   1.709  10.476 -0.4037 -0.0050  0.8177
  150MOL0     C20571   7.716   1.800  10.577 -0.3901  0.2672 -0.2877
  150MOL0     C20572   7.708   1.944  10.533  0.1719 -0.3566  0.3805
  150MOL0     C20573   7.568   2.006  10.507 -0.2139 -0.0522 -0.2927
  150MOL0     C20574   7.482   2.005  10.635 -0.5050 -0.1653  0.1667
  150MOL0     C20575   7.528   2.078  10.765  0.7494  0.0167  0.6094
  150MOL0     C20576   7.446   2.043  10.895  0.0056 -0.2306 -0.2836
  150MOL0     C20577   7.488   2.143  11.000 -0.3309 -0.9346  0.5930
  150MOL0     C20578   7.448   2.110  11.144 -0.4729 -0.9163  0.6645
  150MOL0     N20579   7.486   2.223  11.231  0.7240  0.0798  0.1227
  150MOL0     C20580   7.608   2.286  11.248  0.4764  0.5627 -0.4777
  150MOL0     C20581   7.602   2.350  11.358 -0.2193 -0.0247  0.1911
  150MOL0     C20582   7.717   2.434  11.414  0.0628 -0.5548 -0.4154
  150MOL0     C20583   7.670   2.503  11.546  0.1167  0.7298 -0.0256
  150MOL0     C20584   7.639   2.416  11.675  0.0858  0.0446  0.6678
  150MOL0     C20585   7.712   2.277  11.689 -0.4590 -0.1245 -0.1690
  150MOL0     O20586   7.660   2.225  11.810 -0.1811 -0.6642  0.2435
  150MOL0     C20587   7.542   2.155  11.818  1.0030 -0.3222  0.1266
  150MOL0     C20588   7.447   2.136  11.718 -0.9304 -0.4137  0.6280
  150MOL0     C20589   7.326   2.065  11.730 -0.2588 -0.0898 -0.1542
  150MOL0     C20590   7.231   2.065  11.606 -0.2274 -0.1163  0.1589
  150MOL0     C20591   7.295   2.031  11.862  0.1491 -0.3523  0.0787
  150MOL0     C20592   7.178   1.958  11.900  0.2268  0.1536 -0.7733
  150MOL0     O20593   7.067   2.025  11.951  0.4142  0.1265 -0.0900
  150MOL0     C20594   6.932   1.983  11.921 -1.0920 -0.8265  0.4350
  150MOL0     C20595   6.902   1.895  11.812  0.7454 -0.8626  0.5946
  150MOL0     C20596   6.767   1.857  11.795  0.3130 -0.3357 -0.0355
  150MOL0     C20597   6.659   1.906  11.879  0.3423  0.1793  1.2808
  150MOL0     O20598   6.530   1.871  11.861  0.1778  0.4083 -0.3116
  150MOL0     C20599   6.442   1.964  11.796 -0.8934  0.2456  0.7450
  150MOL0     C20600   6.298   1.963  11.844  0.7787  1.3489 -0.3260
  150MOL0     C20601   6.221   1.822  11.840 -0.3076  0.5011  0.4721
  150MOL0     C20602   6.081   1.823  11.908 -0.0925  0.2668  0.1678
  150MOL0     C20603   5.964   1.891  11.825 -0.5031 -0.1449 -1.1324
  150MOL0     C20604   5.838   1.885  11.925 -0.6069 -0.4448 -0.1373
  150MOL0     C20605   5.732   1.980  11.869  0.0549  0.1593 -0.5161
  150MOL0     C20606   5.590   1.946  11.917 -0.3546 -0.3365  0.2099
  150MOL0    Cl20607   5.570   1.995  12.086  0.4213  0.0138  0.0185
  150MOL0     C20608   6.693   1.989  11.980  0.0571  0.1585 -1.0487
  150MOL0     C20609   6.826   2.034  11.996 -0.5042 -0.1340  0.2485
  150MOL0     O20610   7.177   1.835  11.887 -0.2394  0.0742  0.2514
  150MOL0     C20611   7.382   2.064  11.967  0.6116 -0.5909 -0.7509
  150MOL0     C20612   7.504   2.118  11.938  0.5502 -0.5650 -0.7792
  150MOL0     N20613   7.473   2.337  11.407 -0.3239  0.4663 -0.4412
  150MOL0     N20614   7.403   2.266  11.325  0.2220  0.0349  0.2368
  150MOL0     C20615   7.890   1.681  10.355 -0.9144  0.8999 -0.5584
  150MOL0     C20616   7.956   1.648  10.235 -0.3297 -0.3853 -0.7593
  150MOL0     C20617   8.119   1.693   9.847  0.3223 -0.4046  0.6256
  150MOL0     C20618   8.192   1.801   9.810  0.1228  0.5675  0.5891
  150MOL0     C20619   8.299   1.793   9.723 -0.5238  0.4964  0.1449
  150MOL0     C20620   8.324   1.672   9.652 -0.9127 -0.3417 -0.5066
  150MOL0     O20621   8.425   1.662   9.561  0.4897  0.3013 -0.3967
  150MOL0     C20622   8.432   1.768   9.464  0.4701  0.5459 -0.0427
  150MOL0     C20623   8.482   1.706   9.328 -0.1332 -0.4085 -0.7044
  150MOL0     C20624   8.385   1.608   9.281  0.5713 -0.0187 -0.6881
  150MOL0     C20625   8.438   1.468   9.285  0.4680 -0.3172 -0.3551
  150MOL0     C20626   8.550   1.452   9.198  0.2667 -0.4593 -0.3158
  150MOL0     C20627   8.639   1.440   9.119  1.0622  0.3567  0.9278
  150MOL0     C20628   8.236   1.562   9.676  0.1211 -0.6028  0.0021
  150MOL0     C20629   8.136   1.574   9.771 -0.0525 -0.3622  0.0588
  150MOL0     C20630   8.049   1.454   9.798  0.3450  0.7195 -0.1698
  150MOL0     H20631   7.677   1.636  10.032  0.2940 -2.0352 -0.8805
  150MOL0     H20632   7.570   1.709  10.245  0.3046  2.0190 -2.8109
  150MOL0     H20633   7.817   1.774  10.611 -1.5305 -1.1099  2.2490
  150MOL0     H20634   7.654   1.784  10.665 -0.8344  2.4597 -0.1510
  150MOL0     H20635   7.751   2.007  10.611  0.1451  2.1111 -1.4802
  150MOL0     H20636   7.768   1.963  10.443  0.9431  0.7667  1.1081
  150MOL0     H20637   7.587   2.110  10.479  0.0040  0.0812  0.3215
  150MOL0     H20638   7.521   1.955  10.423  2.7923 -0.8650 -1.6288
  150MOL0     H20639   7.382   2.042  10.610 -0.9614  1.0217  3.2343
  150MOL0     H20640   7.470   1.904  10.674 -0.2243  0.1511  1.0989
  150MOL0     H20641   7.531   2.183  10.735 -4.6164  0.3064  0.1153
  150MOL0     H20642   7.631   2.048  10.787  0.4212 -0.1503  1.9980
  150MOL0     H20643   7.338   2.052  10.882  0.1652  1.2691 -0.8260
  150MOL0     H20644   7.478   1.946  10.934  2.8651  0.5926 -0.3638
  150MOL0     H20645   7.438   2.240  10.986 -0.7151 -1.1368  0.5594
  150MOL0     H20646   7.594   2.163  10.984 -0.7871 -0.2615 -1.9876
  150MOL0     H20647   7.342   2.089  11.158 -1.3108  2.0394 -0.4590
  150MOL0     H20648   7.508   2.026  11.181  0.3050 -0.7359 -0.1449
  150MOL0     H20649   7.694   2.273  11.183  1.7213 -2.6043  1.5598
  150MOL0     H20650   7.743   2.514  11.345  1.5028  2.6492  3.4516
  150MOL0     H20651   7.804   2.370  11.429  0.1317  0.0582  2.1457
  150MOL0     H20652   7.752   2.572  11.569 -0.4698  1.5946 -0.4619
  150MOL0     H20653   7.588   2.575  11.539 -0.9715  0.2074  4.3567
  150MOL0     H20654   7.658   2.459  11.773 -0.1483 -0.6705  1.0370
  150MOL0     H20655   7.530   2.413  11.680  0.1620 -1.5897  3.1473
  150MOL0     H20656   7.691   2.206  11.609 -0.5349 -2.2284  1.6269
  150MOL0     H20657   7.817   2.284  11.717 -0.5441  0.2816  0.0664
  150MOL0     H20658   7.460   2.180  11.620  1.3340 -1.4187  0.4251
  150MOL0     H20659   7.146   1.998  11.625  0.5951 -0.5476  2.6715
  150MOL0     H20660   7.292   2.036  11.520  2.8783  0.7657  1.9165
  150MOL0     H20661   7.177   2.157  11.583 -0.6510 -0.6616 -1.1674
  150MOL0     H20662   6.973   1.836  11.755  0.6560  1.9342 -2.7775
  150MOL0     H20663   6.744   1.778  11.724  2.4050 -2.8065  1.8438
  150MOL0     H20664   6.482   2.066  11.800  0.4963 -0.2955  1.4421
  150MOL0     H20665   6.442   1.939  11.690  0.0300  3.1805 -0.0357
  150MOL0     H20666   6.288   2.000  11.947  1.6023  1.3166 -0.2273
  150MOL0     H20667   6.247   2.041  11.787 -0.5047  1.0173  0.3477
  150MOL0     H20668   6.276   1.749  11.900 -0.3352 -0.1690 -0.2922
  150MOL0     H20669   6.226   1.783  11.738  3.1122 -0.5079  0.8995
  150MOL0     H20670   6.090   1.879  12.001  2.9237 -1.6210  1.1934
  150MOL0     H20671   6.056   1.717  11.919  1.6065 -0.6920 -3.4363
  150MOL0     H20672   5.984   1.996  11.800  0.1255  0.6544  2.2423
  150MOL0     H20673   5.941   1.832  11.736 -3.5115 -0.0320 -0.5333
  150MOL0     H20674   5.858   1.925  12.025 -2.3297  0.6434 -0.1829
  150MOL0     H20675   5.795   1.784  11.924 -1.1815 -0.2003 -0.1684
  150MOL0     H20676   5.736   1.973  11.759 -0.2982  0.5112 -0.5521
  150MOL0     H20677   5.751   2.087  11.886  2.6985 -0.0102 -1.7932
  150MOL0     H20678   5.574   1.844  11.881  3.0060 -1.1264  0.6709
  150MOL0     H20679   5.523   2.017  11.867 -0.1575 -1.4846 -1.7848
  150MOL0     H20680   6.623   2.047  12.040  1.5492 -0.2788  1.1987
  150MOL0     H20681   6.844   2.111  12.070  1.5814  0.7277 -1.0566
  150MOL0     H20682   7.354   2.036  12.068  0.2584  1.1708 -0.3198
  150MOL0     H20683   7.569   2.138  12.023 -0.9985  1.8157 -0.0690
  150MOL0     H20684   7.961   1.680  10.437 -0.3227 -1.9225 -0.9946
  150MOL0     H20685   8.061   1.619  10.238 -0.4612 -1.0650 -1.9559
  150MOL0     H20686   8.193   1.896   9.863  3.4421  0.8492  0.1952
  150MOL0     H20687   8.372   1.874   9.732 -2.5158  2.4580 -0.4403
  150MOL0     H20688   8.331   1.809   9.453 -0.1614 -1.0457 -0.4513
  150MOL0     H20689   8.511   1.837   9.493  1.7841 -0.8851 -0.1184
  150MOL0     H20690   8.580   1.658   9.333  0.0150  0.0152  2.6832
  150MOL0     H20691   8.487   1.782   9.249  0.0932 -3.3889 -3.7943
  150MOL0     H20692   8.293   1.616   9.341  2.0103  0.8822  1.5369
  150MOL0     H20693   8.370   1.640   9.177 -0.8377  1.3217 -0.1219
  150MOL0     H20694   8.363   1.398   9.247 -0.4597 -0.5742  1.8199
  150MOL0     H20695   8.466   1.451   9.389 -1.3830  3.3223  0.9379
  150MOL0     H20696   8.721   1.422   9.052  1.3891 -0.8879  1.6196
  150MOL0     H20697   8.240   1.475   9.612 -0.9560 -0.5115 -0.2112
  150MOL0     H20698   8.069   1.428   9.903 -3.5525  2.8764  1.3322
  150MOL0     H20699   7.945   1.470   9.766  0.8399  2.1127 -1.2018
  150MOL0     H20700   8.085   1.368   9.741  0.2214 -1.4427  2.7725
  151MOL0     O20701   7.913   5.819   8.247 -0.5718 -0.0938  0.1892
  151MOL0     C20702   7.831   5.874   8.317 -0.1465  0.0344  0.0911
  151MOL0     O20703   7.699   5.890   8.284 -0.1380  0.2301 -0.4664
  151MOL0     C20704   7.673   5.960   8.167 -0.1271 -0.2045  0.0822
  151MOL0     C20705   7.707   6.092   8.147  0.6739 -0.4907 -0.7803
  151MOL0     C20706   7.697   6.152   8.019  0.5234 -0.5323 -0.8317
  151MOL0     C20707   7.650   6.081   7.913 -0.2991 -0.2441  0.7581
  151MOL0     O20708   7.638   6.155   7.799  0.5799  0.2701  0.2056
  151MOL0     C20709   7.622   6.081   7.678  0.2210 -0.5534 -0.0291
  151MOL0     C20710   7.628   6.171   7.555  0.0765  0.3499  0.2141
  151MOL0     C20711   7.554   6.121   7.426 -0.2913  0.7956  0.6716
  151MOL0     C20712   7.507   5.977   7.415  0.4923  0.1493 -0.7128
  151MOL0     C20713   7.459   5.960   7.269 -0.7714  0.7407  0.2444
  151MOL0     C20714   7.352   5.847   7.243 -0.5464  0.2435 -0.1495
  151MOL0     C20715   7.292   5.863   7.098 -0.3413  0.8347 -0.5392
  151MOL0     C20716   7.198   5.976   7.070 -0.4715  0.3594 -0.2248
  151MOL0     N20717   7.080   5.960   7.153  0.0502 -0.1261  0.4509
  151MOL0     C20718   7.020   5.851   7.220 -0.4537  0.0983 -0.1514
  151MOL0     C20719   6.908   5.892   7.286  0.6564  0.0265  0.1258
  151MOL0     C20720   6.806   5.814   7.358  0.2732 -0.0876  0.2672
  151MOL0     C20721   6.706   5.883   7.456  0.0531  0.4637  0.1324
  151MOL0     C20722   6.597   5.785   7.501 -0.8619  0.6203 -0.3595
  151MOL0     C20723   6.531   5.856   7.624 -0.6937  0.4830 -0.0403
  151MOL0     O20724   6.606   5.874   7.739 -0.4473 -0.2215 -1.0083
  151MOL0     C20725   6.675   5.774   7.798 -0.2014 -0.1986  0.0716
  151MOL0     C20726   6.604   5.664   7.839 -0.1589 -0.2258 -0.1774
  151MOL0     C20727   6.667   5.554   7.896  0.4202 -0.3793 -0.5958
  151MOL0     C20728   6.581   5.440   7.962 -0.0039 -0.5147  0.1219
  151MOL0     C20729   6.808   5.549   7.901 -1.2135 -0.7291  0.2952
  151MOL0     C20730   6.884   5.432   7.952 -0.4661  0.4917 -0.8222
  151MOL0     O20731   6.818   5.314   7.987  0.0795 -0.4470 -0.3053
  151MOL0     C20732   6.867   5.190   8.010 -0.6096  0.3599 -0.7965
  151MOL0     C20733   6.775   5.098   8.048 -0.4847 -0.2690  0.0702
  151MOL0     C20734   6.814   4.970   8.065  0.8642  0.1833  0.8183
  151MOL0     C20735   6.951   4.920   8.051  0.7990  0.2559  0.4580
  151MOL0     O20736   6.982   4.786   8.075 -0.2456 -0.2927  0.1613
  151MOL0     C20737   7.081   4.767   8.175 -0.7089 -0.5011 -1.5419
  151MOL0     C20738   7.029   4.678   8.300  0.2169  0.1688  0.0945
  151MOL0     C20739   7.020   4.540   8.246  0.8715  0.6591  0.0756
  151MOL0     C20740   6.969   4.424   8.341  0.2221  0.7825  0.4634
  151MOL0     C20741   6.963   4.283   8.273  0.0313  0.0120 -1.5823
  151MOL0     C20742   7.099   4.217   8.225 -0.2579  0.5047  0.0360
  151MOL0     C20743   7.080   4.083   8.168 -0.1455 -0.4204  0.7199
  151MOL0     C20744   7.214   4.032   8.132  0.1918 -0.5744  0.3565
  151MOL0    Cl20745   7.185   3.855   8.089  0.0225 -0.1329 -0.0082
  151MOL0     C20746   7.050   5.020   8.035 -0.0287  0.0017  0.2998
  151MOL0     C20747   7.004   5.150   8.019  0.0170 -1.1558 -0.9259
  151MOL0     O20748   7.007   5.451   7.982  0.4201  0.1237  0.0016
  151MOL0     C20749   6.885   5.660   7.851  0.6496 -0.1384 -0.1846
  151MOL0     C20750   6.812   5.775   7.802 -0.3266  0.4065  0.4828
  151MOL0     N20751   6.897   6.030   7.251 -0.2409  0.1364  0.6499
  151MOL0     N20752   7.001   6.072   7.186  0.2548  1.4337  1.3192
  151MOL0     C20753   7.617   5.952   7.931 -0.0778  0.0430 -0.1758
  151MOL0     C20754   7.618   5.888   8.061 -0.2041 -0.2205  0.5734
  151MOL0     C20755   7.873   5.920   8.459  1.0268 -0.4361  0.7256
  151MOL0     C20756   7.783   6.009   8.516 -0.2700  0.8761 -0.5758
  151MOL0     C20757   7.817   6.054   8.643  0.6015 -0.6113  0.3189
  151MOL0     C20758   7.918   6.002   8.720 -0.4135 -0.5349  0.7664
  151MOL0     O20759   7.938   6.062   8.843 -0.1986 -0.7667 -0.2679
  151MOL0     C20760   8.059   6.127   8.860  0.7816 -0.0430 -0.0036
  151MOL0     C20761   8.092   6.222   8.747 -0.5948  0.7618 -0.1654
  151MOL0     C20762   8.232   6.274   8.784 -0.1220 -0.0511 -0.5589
  151MOL0     C20763   8.265   6.375   8.677 -0.5418  0.1183 -0.2411
  151MOL0     C20764   8.402   6.402   8.658 -0.2087 -0.3522  0.7624
  151MOL0     C20765   8.521   6.442   8.655  0.1870  0.8812  0.1323
  151MOL0     C20766   8.013   5.915   8.658  0.8030 -0.7003 -1.1091
  151MOL0     C20767   7.993   5.882   8.525  0.0792  0.1033  0.4711
  151MOL0     C20768   8.078   5.773   8.466 -0.6727  0.4710  0.0266
  151MOL0     H20769   7.748   6.143   8.233  0.3976 -2.4094  0.5652
  151MOL0     H20770   7.724   6.254   7.993 -2.5753  0.3952 -0.7595
  151MOL0     H20771   7.523   6.035   7.674 -0.6505  1.2731 -0.7791
  151MOL0     H20772   7.698   6.005   7.662 -1.9436 -2.9374  0.3510
  151MOL0     H20773   7.569   6.260   7.581  2.0133  2.1263 -1.1734
  151MOL0     H20774   7.728   6.208   7.531 -0.2560  2.2964  1.6069
  151MOL0     H20775   7.467   6.186   7.412 -0.5138  0.6134  1.1805
  151MOL0     H20776   7.625   6.140   7.346 -0.3927  0.6748  0.5526
  151MOL0     H20777   7.599   5.919   7.420  0.7127  0.4259 -1.4630
  151MOL0     H20778   7.431   5.946   7.488  0.5429  1.4322 -0.0779
  151MOL0     H20779   7.544   5.936   7.205 -0.1840 -0.4725  1.4307
  151MOL0     H20780   7.421   6.059   7.241  2.0429  1.5332 -1.1472
  151MOL0     H20781   7.398   5.749   7.256  0.5557  0.9170  1.3623
  151MOL0     H20782   7.277   5.854   7.322  1.3228 -1.3363  1.9016
  151MOL0     H20783   7.239   5.771   7.072  2.3652 -0.6825 -0.9932
  151MOL0     H20784   7.375   5.862   7.027 -0.0358  1.0516 -0.1870
  151MOL0     H20785   7.242   6.075   7.087 -2.1610  1.4837 -2.0637
  151MOL0     H20786   7.173   5.967   6.964  0.9263  3.2134 -0.8784
  151MOL0     H20787   7.048   5.746   7.212 -0.1034  0.1015  0.9140
  151MOL0     H20788   6.854   5.731   7.411 -0.9261 -0.4224  0.8901
  151MOL0     H20789   6.754   5.764   7.276  1.4001  0.6365 -0.9053
  151MOL0     H20790   6.771   5.919   7.537  1.9715 -1.0094 -0.6956
  151MOL0     H20791   6.658   5.964   7.401  0.9181  0.0703 -1.2430
  151MOL0     H20792   6.528   5.768   7.418 -1.5220  0.0409  0.2960
  151MOL0     H20793   6.639   5.686   7.521 -1.4807  1.0626  4.0410
  151MOL0     H20794   6.504   5.957   7.590  2.8249  1.3741 -0.5769
  151MOL0     H20795   6.446   5.792   7.648  0.6955 -1.2155  0.5449
  151MOL0     H20796   6.496   5.676   7.830 -0.1886 -0.4750 -0.1562
  151MOL0     H20797   6.623   5.422   8.061 -1.1908 -1.7894  0.4301
  151MOL0     H20798   6.583   5.346   7.906  2.2363 -1.1384  1.1044
  151MOL0     H20799   6.476   5.467   7.969  0.0811  0.4653 -1.7472
  151MOL0     H20800   6.673   5.131   8.066  0.2630  2.0835  0.3241
  151MOL0     H20801   6.744   4.891   8.086  2.6143 -0.9440  2.8951
  151MOL0     H20802   7.164   4.717   8.125  2.2806  1.8589  0.6839
  151MOL0     H20803   7.115   4.863   8.217 -0.6199  0.1763 -3.1050
  151MOL0     H20804   7.100   4.675   8.382 -1.6888  0.0148  1.8074
  151MOL0     H20805   6.937   4.719   8.343  2.0080  3.5999  1.0701
  151MOL0     H20806   7.117   4.513   8.204  1.5392 -2.3529  3.1544
  151MOL0     H20807   6.949   4.542   8.163  2.7699 -0.7426 -1.6902
  151MOL0     H20808   6.868   4.436   8.382 -1.1228  0.9262 -2.6229
  151MOL0     H20809   7.037   4.407   8.425 -0.2114  2.3800  1.1662
  151MOL0     H20810   6.922   4.208   8.341 -1.7393  0.4133 -2.1482
  151MOL0     H20811   6.883   4.289   8.198 -0.4802 -1.1028 -1.1517
  151MOL0     H20812   7.161   4.211   8.315 -0.8348 -0.3978  0.3890
  151MOL0     H20813   7.140   4.291   8.155  1.3681  0.5482  0.9871
  151MOL0     H20814   7.023   4.104   8.077  1.9729  2.2489 -0.1082
  151MOL0     H20815   7.029   4.008   8.230 -4.3072 -1.3587 -3.3007
  151MOL0     H20816   7.281   4.057   8.215 -0.3841 -0.6773  0.8530
  151MOL0     H20817   7.250   4.084   8.043  0.2427 -2.6264 -0.9029
  151MOL0     H20818   7.153   4.990   8.021 -0.3592 -0.6740 -0.8875
  151MOL0     H20819   7.071   5.221   7.973  1.5388  0.2408  3.0414
  151MOL0     H20820   6.989   5.647   7.821  0.7928  0.9478 -0.1810
  151MOL0     H20821   6.877   5.856   7.772  0.4305 -0.1841  0.4822
  151MOL0     H20822   7.574   5.897   7.848  0.9600 -1.7065  0.3843
  151MOL0     H20823   7.573   5.789   8.062 -0.2752 -0.2750 -1.7464
  151MOL0     H20824   7.683   6.035   8.483  0.4164  2.8492 -1.2679
  151MOL0     H20825   7.757   6.138   8.678  2.4744  1.4661 -1.1570
  151MOL0     H20826   8.049   6.173   8.959 -0.3539 -0.6411  0.1742
  151MOL0     H20827   8.133   6.048   8.855  0.3808 -0.3883 -0.5956
  151MOL0     H20828   8.021   6.305   8.747 -0.6862  0.7002  1.1170
  151MOL0     H20829   8.080   6.168   8.653 -1.2096 -0.1540  0.4286
  151MOL0     H20830   8.234   6.312   8.886 -1.4230 -1.1438 -0.1016
  151MOL0     H20831   8.308   6.195   8.778  0.6700  0.4870  1.6842
  151MOL0     H20832   8.201   6.463   8.686  0.5450  0.9427 -0.3387
  151MOL0     H20833   8.244   6.313   8.589 -0.7079 -1.8554  1.1103
  151MOL0     H20834   8.620   6.482   8.653 -0.2438  2.0939  1.2547
  151MOL0     H20835   8.079   5.872   8.733 -0.9469  1.3444  1.8332
  151MOL0     H20836   8.010   5.689   8.448 -1.0255  0.6817  0.3539
  151MOL0     H20837   8.131   5.801   8.374  3.8852 -0.9185  1.9659
  151MOL0     H20838   8.151   5.742   8.541 -1.7701  0.9038  1.3190
  152MOL0     O20839   6.713   0.454   1.029 -0.1167 -0.3265  0.1922
  152MOL0     C20840   6.621   0.492   0.960 -0.2448 -0.1866 -0.0079
  152MOL0     O20841   6.536   0.410   0.898 -0.2616  0.1248  0.0972
  152MOL0     C20842   6.509   0.287   0.950  0.4312  0.4479  0.4702
  152MOL0     C20843   6.392   0.270   1.019  0.1198  0.8500  0.0317
  152MOL0     C20844   6.359   0.147   1.074  0.4826 -0.6473 -0.0693
  152MOL0     C20845   6.451   0.040   1.060  0.0920 -0.2941 -0.1479
  152MOL0     O20846   6.439  -0.083   1.122 -0.1474 -0.3332 -0.6178
  152MOL0     C20847   6.309  -0.108   1.187  0.2053  0.2901 -0.3619
  152MOL0     C20848   6.205  -0.123   1.075 -0.0100  0.0930 -1.1792
  152MOL0     C20849   6.223  -0.248   0.992 -0.5905 -0.1116 -0.5695
  152MOL0     C20850   6.111  -0.255   0.889  0.7602  0.0366 -0.1083
  152MOL0     C20851   6.122  -0.385   0.809 -0.6146  0.6136  0.8243
  152MOL0     C20852   6.059  -0.385   0.672  0.4628 -0.1602  0.6529
  152MOL0     C20853   5.917  -0.324   0.672 -0.0801  0.2841  0.5533
  152MOL0     C20854   5.820  -0.423   0.754  0.9717  0.7761 -0.2721
  152MOL0     N20855   5.801  -0.555   0.684  0.0547  0.4166 -0.3817
  152MOL0     C20856   5.882  -0.663   0.713 -0.4848 -0.3272  0.2267
  152MOL0     C20857   5.838  -0.769   0.639  0.1270 -0.4053  0.4633
  152MOL0     C20858   5.904  -0.902   0.638 -0.8478  0.7789  0.4405
  152MOL0     C20859   5.876  -0.994   0.513 -0.6225 -0.1250 -0.2440
  152MOL0     C20860   5.732  -1.040   0.503  0.8991 -0.8965  0.4409
  152MOL0     C20861   5.718  -1.150   0.402 -0.5773 -0.1632 -0.0428
  152MOL0     O20862   5.811  -1.255   0.419 -0.3936  0.0416  0.0792
  152MOL0     C20863   5.797  -1.377   0.363 -0.4117  0.3300 -0.0618
  152MOL0     C20864   5.850  -1.477   0.441 -0.7024 -0.3939  0.0230
  152MOL0     C20865   5.861  -1.599   0.393 -0.6781 -0.1792  0.1875
  152MOL0     C20866   5.929  -1.695   0.484 -0.2201  0.1259 -0.7071
  152MOL0     C20867   5.795  -1.635   0.273  0.2052  0.5361 -0.3208
  152MOL0     C20868   5.797  -1.772   0.218 -0.6679 -0.2095  0.2852
  152MOL0     O20869   5.705  -1.803   0.122 -0.4651 -0.3611  0.1296
  152MOL0     C20870   5.737  -1.908   0.038  0.2412  0.1692 -0.1670
  152MOL0     C20871   5.661  -2.025   0.055 -0.6151 -0.7571  0.3394
  152MOL0     C20872   5.678  -2.136  -0.033  0.6919 -0.0219 -0.7249
  152MOL0     C20873   5.764  -2.117  -0.142 -0.2044 -1.0054 -0.6773
  152MOL0     O20874   5.789  -2.213  -0.234  0.7771  0.4214 -0.1776
  152MOL0     C20875   5.669  -2.280  -0.288 -0.7449 -0.2653 -0.2422
  152MOL0     C20876   5.694  -2.387  -0.398 -0.5416 -0.6354 -0.3545
  152MOL0     C20877   5.706  -2.528  -0.338 -0.6075  0.0491 -0.0210
  152MOL0     C20878   5.724  -2.626  -0.456 -0.2395 -0.2122  0.2600
  152MOL0     C20879   5.771  -2.769  -0.420  0.4110  0.1671  0.0627
  152MOL0     C20880   5.898  -2.780  -0.325 -0.5319 -0.3101  0.5260
  152MOL0     C20881   5.958  -2.923  -0.354  0.1762 -0.1683  0.1810
  152MOL0     C20882   6.084  -2.956  -0.286  0.2525 -0.0704  0.7195
  152MOL0    Cl20883   6.092  -3.131  -0.273  0.2285  0.3000  0.4090
  152MOL0     C20884   5.836  -2.003  -0.160 -0.6033 -0.9672  0.1194
  152MOL0     C20885   5.829  -1.902  -0.072  0.2574 -0.4714  0.1497
  152MOL0     O20886   5.889  -1.847   0.258  0.2163  1.1057  0.1950
  152MOL0     C20887   5.730  -1.531   0.193  0.2615 -0.1102 -0.1854
  152MOL0     C20888   5.737  -1.398   0.240  0.9505 -0.0980  0.2582
  152MOL0     N20889   5.721  -0.725   0.583 -0.0127  1.2204  0.5019
  152MOL0     N20890   5.702  -0.598   0.608 -0.2414 -0.1523  0.1881
  152MOL0     C20891   6.562   0.055   0.978 -0.2552  0.6944 -0.0476
  152MOL0     C20892   6.597   0.183   0.922 -0.1894  1.3086 -0.3484
  152MOL0     C20893   6.591   0.633   0.961  0.6489  0.6820 -0.8220
  152MOL0     C20894   6.487   0.675   1.042  0.5135  1.2341 -0.2779
  152MOL0     C20895   6.446   0.807   1.040  0.3533  0.4228 -0.2014
  152MOL0     C20896   6.525   0.904   0.975 -0.1378  0.5863 -0.1031
  152MOL0     O20897   6.492   1.025   0.947  0.4180 -0.0027  0.2783
  152MOL0     C20898   6.431   1.097   1.059 -1.1077 -0.1450 -0.6991
  152MOL0     C20899   6.338   1.214   1.023 -0.3493  0.5110  0.8495
  152MOL0     C20900   6.199   1.153   0.991  0.3694 -0.4370 -0.1777
  152MOL0     C20901   6.186   1.069   0.865 -0.6972  1.2306 -0.1555
  152MOL0     C20902   6.044   1.044   0.835  1.1069 -0.1034  0.3994
  152MOL0     C20903   5.920   1.031   0.825 -0.6953 -0.1374  0.1045
  152MOL0     C20904   6.642   0.859   0.908 -0.0041  0.0329 -0.9793
  152MOL0     C20905   6.676   0.727   0.892  0.0105  0.7941 -0.0141
  152MOL0     C20906   6.787   0.696   0.799  0.7572 -0.3159  0.6708
  152MOL0     H20907   6.325   0.351   1.046 -1.7170 -0.7830  0.6877
  152MOL0     H20908   6.272   0.139   1.140  0.7918 -0.7242  0.3367
  152MOL0     H20909   6.285  -0.024   1.253 -0.6384  0.6902 -1.1567
  152MOL0     H20910   6.307  -0.201   1.244 -0.2505  0.0871 -0.7001
  152MOL0     H20911   6.105  -0.117   1.118  0.4304  2.2540 -0.3312
  152MOL0     H20912   6.212  -0.036   1.008  1.1618  1.0490  0.1102
  152MOL0     H20913   6.319  -0.250   0.941 -0.0390  2.3860  0.2358
  152MOL0     H20914   6.213  -0.332   1.062  0.2553 -1.7505 -2.3067
  152MOL0     H20915   6.016  -0.255   0.943 -1.2467  1.5310 -3.3551
  152MOL0     H20916   6.115  -0.178   0.811 -2.0185  0.0065 -0.3872
  152MOL0     H20917   6.083  -0.470   0.864  1.5474 -0.4783  0.7501
  152MOL0     H20918   6.229  -0.396   0.789 -0.3612  1.3614  1.7109
  152MOL0     H20919   6.129  -0.332   0.606  2.8736 -2.3055  1.3371
  152MOL0     H20920   6.054  -0.486   0.630 -0.1908  0.1938 -0.1629
  152MOL0     H20921   5.885  -0.309   0.569  1.1416 -2.7465 -0.3579
  152MOL0     H20922   5.907  -0.222   0.711  0.4090  1.1613 -1.4751
  152MOL0     H20923   5.838  -0.424   0.862  0.0936  0.1759 -0.1234
  152MOL0     H20924   5.721  -0.377   0.753  0.7641  0.3515 -1.5575
  152MOL0     H20925   5.970  -0.672   0.776 -0.0582  0.0844 -0.2953
  152MOL0     H20926   5.876  -0.955   0.730  1.7364  1.3234  1.6419
  152MOL0     H20927   6.009  -0.879   0.656 -1.1469  1.3449  1.5846
  152MOL0     H20928   5.907  -0.944   0.421 -1.4247 -1.4463 -1.2701
  152MOL0     H20929   5.944  -1.078   0.531  2.2753  1.7888 -1.5357
  152MOL0     H20930   5.712  -1.084   0.601  0.6187  1.1409  1.3460
  152MOL0     H20931   5.674  -0.953   0.472  1.3266  0.1464  2.3807
  152MOL0     H20932   5.624  -1.204   0.414 -0.0212 -0.6295  2.8682
  152MOL0     H20933   5.713  -1.106   0.302 -1.5710  3.7335  1.5515
  152MOL0     H20934   5.893  -1.449   0.537 -2.5513  0.5349  0.6315
  152MOL0     H20935   6.024  -1.728   0.440  1.6177  3.9866 -0.0650
  152MOL0     H20936   5.863  -1.781   0.495 -0.0460  0.0563 -0.2154
  152MOL0     H20937   5.946  -1.657   0.585  0.1075  1.5928 -1.2845
  152MOL0     H20938   5.589  -2.024   0.135  0.5056  1.2107  1.4222
  152MOL0     H20939   5.622  -2.226  -0.013  1.8168 -0.2257  1.9644
  152MOL0     H20940   5.624  -2.344  -0.212 -2.9345  0.8106 -0.5499
  152MOL0     H20941   5.592  -2.212  -0.327  0.4870  2.0371  1.1453
  152MOL0     H20942   5.608  -2.383  -0.466 -0.0428  1.4005 -0.9239
  152MOL0     H20943   5.789  -2.376  -0.452 -0.6254  0.8272 -0.2559
  152MOL0     H20944   5.616  -2.553  -0.282 -2.6476  0.5574 -2.9050
  152MOL0     H20945   5.790  -2.533  -0.267 -2.0204  2.9047  2.0395
  152MOL0     H20946   5.798  -2.591  -0.528 -2.9544  1.7517 -1.8169
  152MOL0     H20947   5.634  -2.630  -0.519  1.8507  0.3455 -3.0104
  152MOL0     H20948   5.693  -2.828  -0.371  0.7921  0.0263  0.5092
  152MOL0     H20949   5.783  -2.825  -0.513  1.0405 -1.2853  0.9943
  152MOL0     H20950   5.861  -2.776  -0.222  1.3741  2.7928  1.2072
  152MOL0     H20951   5.974  -2.704  -0.345  0.3183 -0.8980  1.3819
  152MOL0     H20952   5.964  -2.939  -0.462 -0.9882 -0.5806  0.1608
  152MOL0     H20953   5.875  -2.988  -0.323 -1.9857  1.0014 -2.7663
  152MOL0     H20954   6.083  -2.911  -0.186  1.7424 -0.2313  0.8191
  152MOL0     H20955   6.170  -2.926  -0.347  0.6509 -1.8836  0.3298
  152MOL0     H20956   5.909  -1.997  -0.240 -0.3640 -3.5937  0.0549
  152MOL0     H20957   5.890  -1.813  -0.084 -1.4325  0.6163 -0.6845
  152MOL0     H20958   5.681  -1.558   0.100  0.0529 -2.0562  0.4501
  152MOL0     H20959   5.682  -1.315   0.195  2.3345  1.3751  1.1723
  152MOL0     H20960   6.623  -0.029   0.948 -1.3947 -0.1920  0.0488
  152MOL0     H20961   6.695   0.206   0.882  1.6105  1.1749  3.5019
  152MOL0     H20962   6.440   0.599   1.104 -1.1604  0.9217 -1.8305
  152MOL0     H20963   6.355   0.832   1.095 -1.4171 -1.5612 -2.0188
  152MOL0     H20964   6.370   1.037   1.127 -2.0855  0.1926 -1.2572
  152MOL0     H20965   6.514   1.131   1.121  0.0949  0.9620 -2.8227
  152MOL0     H20966   6.381   1.280   0.947 -2.4893  0.3969 -0.5229
  152MOL0     H20967   6.322   1.276   1.112  2.1595  2.7359 -0.1064
  152MOL0     H20968   6.157   1.112   1.084 -1.9960 -2.3048 -1.9590
  152MOL0     H20969   6.143   1.246   0.975  0.0525 -0.0628  2.6108
  152MOL0     H20970   6.256   0.986   0.876  0.0885  1.9240  0.1504
  152MOL0     H20971   6.231   1.119   0.778  0.5072 -0.0773 -0.3294
  152MOL0     H20972   5.814   1.017   0.818 -1.0599  1.8714  0.8110
  152MOL0     H20973   6.692   0.933   0.847  1.4756  1.1197  1.4053
  152MOL0     H20974   6.750   0.615   0.737 -0.3269  0.1903  0.6157
  152MOL0     H20975   6.814   0.786   0.742  0.1870  0.3418  1.4029
  152MOL0     H20976   6.880   0.667   0.849  0.9461  1.3761  1.4027
  153MOL0     O20977  10.971   1.069   1.244  0.4876 -0.5498 -0.4488
  153MOL0     C20978  10.866   1.028   1.194  0.3094  0.8051 -0.0218
  153MOL0     O20979  10.816   1.067   1.077  0.0677  0.4212  0.3643
  153MOL0     C20980  10.875   1.153   0.981 -0.0657 -0.2711 -0.3434
  153MOL0     C20981  11.015   1.161   0.964 -0.0423  0.4682 -0.3043
  153MOL0     C20982  11.073   1.235   0.871 -0.3454  0.9630 -0.0513
  153MOL0     C20983  10.998   1.320   0.795 -0.1266  0.6369  0.3626
  153MOL0     O20984  11.075   1.418   0.730  0.3735 -0.1142 -0.8347
  153MOL0     C20985  11.001   1.509   0.652  0.2902 -0.2093  0.4046
  153MOL0     C20986  11.083   1.590   0.553 -0.5929  0.5625  0.2754
  153MOL0     C20987  11.123   1.512   0.428  0.8226  0.3011 -0.1315
  153MOL0     C20988  11.237   1.554   0.344  0.3058 -0.2171  0.1273
  153MOL0     C20989  11.238   1.686   0.268  0.6842  0.0235  0.0296
  153MOL0     C20990  11.357   1.711   0.177  0.1385 -0.1453 -0.0281
  153MOL0     C20991  11.342   1.838   0.091  0.3450  0.3656  0.0838
  153MOL0     C20992  11.260   1.796  -0.028 -0.9687 -0.5085  0.1531
  153MOL0     N20993  11.221   1.910  -0.111  0.0470  0.9362  0.1828
  153MOL0     C20994  11.299   2.006  -0.167 -1.0210  0.6238 -0.2586
  153MOL0     C20995  11.228   2.063  -0.271 -0.6323 -0.3057 -0.5954
  153MOL0     C20996  11.277   2.168  -0.366  0.6767 -0.2511 -0.5050
  153MOL0     C20997  11.370   2.104  -0.474  0.3239 -0.4011 -0.8433
  153MOL0     C20998  11.305   1.993  -0.560 -0.2544 -0.5159 -0.9806
  153MOL0     C20999  11.163   2.020  -0.622 -0.0123 -0.4447 -0.0283
  153MOL0     O21000  11.162   2.123  -0.713  0.1541  0.0926 -0.6732
  153MOL0     C21001  11.228   2.122  -0.832 -0.5557 -0.4805 -0.2294
  153MOL0     C21002  11.231   2.250  -0.883 -0.8700  0.0445 -0.0119
  153MOL0     C21003  11.301   2.266  -1.001 -0.1808  0.0856  0.1475
  153MOL0     C21004  11.314   2.416  -1.047 -0.6689  0.3349 -0.0166
  153MOL0     C21005  11.363   2.160  -1.063 -0.4272 -0.5315  0.2905
  153MOL0     C21006  11.422   2.173  -1.198  0.4243 -0.2675  0.6196
  153MOL0     O21007  11.506   2.074  -1.244 -0.3497  0.0702  0.4616
  153MOL0     C21008  11.551   2.068  -1.376  0.5897  0.1945 -0.4393
  153MOL0     C21009  11.685   2.034  -1.392  0.6522 -0.1073  0.1236
  153MOL0     C21010  11.742   2.018  -1.521  0.4439  1.2417  0.0419
  153MOL0     C21011  11.658   2.048  -1.635 -1.4555  0.1852  0.1696
  153MOL0     O21012  11.718   2.032  -1.755 -0.2772 -0.1304 -0.1864
  153MOL0     C21013  11.696   2.130  -1.848 -1.0321 -0.0660 -0.1292
  153MOL0     C21014  11.650   2.068  -1.986  0.5262  0.3222 -0.8241
  153MOL0     C21015  11.631   2.180  -2.084 -0.7245  0.1859 -0.2767
  153MOL0     C21016  11.492   2.179  -2.154  0.1660  0.7108  0.2075
  153MOL0     C21017  11.444   2.311  -2.207  0.6580  1.0624 -0.2312
  153MOL0     C21018  11.295   2.298  -2.246  0.3746 -0.2818 -0.2723
  153MOL0     C21019  11.266   2.211  -2.367  0.8279  0.5606 -0.5389
  153MOL0     C21020  11.115   2.215  -2.395 -0.1289 -0.5310 -0.8361
  153MOL0    Cl21021  11.050   2.387  -2.445 -0.5274 -0.3407  0.0066
  153MOL0     C21022  11.525   2.080  -1.618 -0.3857  0.3774  0.0698
  153MOL0     C21023  11.467   2.084  -1.490 -0.3923  0.4528 -1.0551
  153MOL0     O21024  11.399   2.272  -1.268  0.2767  0.0045  0.3269
  153MOL0     C21025  11.364   2.033  -0.997  0.2978 -0.5260  0.0262
  153MOL0     C21026  11.283   2.020  -0.883 -1.1393 -0.5707  0.1705
  153MOL0     N21027  11.106   1.997  -0.277  0.4501  0.4568  0.4097
  153MOL0     N21028  11.103   1.902  -0.192 -0.6800 -1.0257 -0.1538
  153MOL0     C21029  10.857   1.313   0.805 -1.0238 -0.9516 -0.2731
  153MOL0     C21030  10.793   1.233   0.899 -0.5140 -0.9447  0.8304
  153MOL0     C21031  10.789   0.927   1.276 -0.0233  0.0022  0.9258
  153MOL0     C21032  10.747   0.803   1.219  0.1832  0.3583 -0.6314
  153MOL0     C21033  10.667   0.713   1.293 -0.1783  0.2186  0.8396
  153MOL0     C21034  10.627   0.745   1.417 -0.1918 -0.0395 -0.7169
  153MOL0     O21035  10.542   0.664   1.499  0.5245 -0.5408  0.0811
  153MOL0     C21036  10.482   0.550   1.435  0.4026  0.2444 -0.5737
  153MOL0     C21037  10.325   0.582   1.425  0.0926 -0.7140 -0.7773
  153MOL0     C21038  10.272   0.569   1.281  0.7519 -0.3713  1.0504
  153MOL0     C21039  10.254   0.420   1.232  0.9347  0.4299 -0.3077
  153MOL0     C21040  10.377   0.338   1.212 -0.2440  0.8151 -0.0458
  153MOL0     C21041  10.481   0.278   1.194 -0.0878 -0.0863 -0.4048
  153MOL0     C21042  10.669   0.863   1.475 -0.4373  0.0964 -0.9372
  153MOL0     C21043  10.746   0.962   1.402 -0.0347  0.0766 -0.0499
  153MOL0     C21044  10.765   1.096   1.460 -0.4766 -0.2787 -0.4098
  153MOL0     H21045  11.080   1.100   1.026 -0.9588  0.1632  0.3817
  153MOL0     H21046  11.182   1.234   0.864 -0.2920 -2.1329  0.0997
  153MOL0     H21047  10.958   1.582   0.721 -1.3838 -0.2745 -0.5139
  153MOL0     H21048  10.917   1.467   0.597 -0.6103  0.6089  1.1266
  153MOL0     H21049  11.014   1.668   0.519 -2.1392 -0.2979  1.2958
  153MOL0     H21050  11.178   1.618   0.601  0.6151 -4.9336  1.8137
  153MOL0     H21051  11.153   1.415   0.468 -0.2139  0.4628  1.1054
  153MOL0     H21052  11.039   1.498   0.360  0.8711  0.8698 -0.3123
  153MOL0     H21053  11.326   1.527   0.401 -1.5467 -0.4152  3.1020
  153MOL0     H21054  11.219   1.481   0.264 -2.2857  0.2808  0.1452
  153MOL0     H21055  11.244   1.763   0.345  1.4629 -2.3424  2.4740
  153MOL0     H21056  11.143   1.684   0.213  0.7972  0.9081 -0.2051
  153MOL0     H21057  11.440   1.714   0.248  0.8400  0.5022 -0.8457
  153MOL0     H21058  11.377   1.621   0.120  1.0514 -2.1721  3.2340
  153MOL0     H21059  11.437   1.888   0.070 -1.8099  3.9215 -2.2298
  153MOL0     H21060  11.289   1.911   0.153  1.5482  1.4623 -0.1353
  153MOL0     H21061  11.326   1.733  -0.088  1.6378  1.2661  0.9891
  153MOL0     H21062  11.175   1.737   0.009 -1.4985 -0.1148 -0.4282
  153MOL0     H21063  11.399   2.036  -0.137 -1.1022 -0.6160  1.3903
  153MOL0     H21064  11.321   2.248  -0.306 -1.9213 -0.1286  1.4469
  153MOL0     H21065  11.191   2.220  -0.410  1.6673  1.3671 -0.5962
  153MOL0     H21066  11.390   2.182  -0.548  1.5251 -0.6115 -0.7722
  153MOL0     H21067  11.463   2.073  -0.426  0.5143  0.8056 -0.3997
  153MOL0     H21068  11.375   1.980  -0.643 -1.3255 -0.4803 -1.9158
  153MOL0     H21069  11.307   1.904  -0.495  0.1877 -0.8982 -1.5107
  153MOL0     H21070  11.124   1.935  -0.680 -0.0494 -0.1966 -0.3702
  153MOL0     H21071  11.092   2.047  -0.543  0.1789 -0.5169  0.1680
  153MOL0     H21072  11.188   2.335  -0.831  0.0752 -0.1847  1.1757
  153MOL0     H21073  11.278   2.487  -0.971  0.9053  0.2917  0.8132
  153MOL0     H21074  11.256   2.439  -1.137  1.5415  0.1088 -1.5836
  153MOL0     H21075  11.418   2.442  -1.070 -1.2952  2.7049 -0.4635
  153MOL0     H21076  11.740   2.013  -1.301  1.2990  0.7048 -0.0629
  153MOL0     H21077  11.846   1.995  -1.539 -0.5823 -2.1399 -2.7095
  153MOL0     H21078  11.621   2.201  -1.812 -0.6400 -0.2299  1.0381
  153MOL0     H21079  11.789   2.179  -1.877 -1.7425 -0.5879 -3.9067
  153MOL0     H21080  11.726   1.996  -2.016  0.5149  0.6853 -1.7550
  153MOL0     H21081  11.554   2.019  -1.967  0.0483  2.5547  4.5674
  153MOL0     H21082  11.720   2.180  -2.148 -1.2097 -1.2344 -1.0119
  153MOL0     H21083  11.628   2.281  -2.042  0.7965  0.3343 -0.4605
  153MOL0     H21084  11.426   2.145  -2.074  3.3167 -0.2975  2.5931
  153MOL0     H21085  11.490   2.103  -2.232 -0.2928 -0.9067  1.7336
  153MOL0     H21086  11.457   2.384  -2.127  1.2023 -0.0575  0.7257
  153MOL0     H21087  11.502   2.337  -2.296  2.5399  2.3689  1.3177
  153MOL0     H21088  11.261   2.401  -2.258 -0.7339 -0.7706 -1.6259
  153MOL0     H21089  11.251   2.264  -2.152  2.6738 -0.0022  0.9670
  153MOL0     H21090  11.273   2.105  -2.341 -3.5265  0.4894  1.1487
  153MOL0     H21091  11.320   2.246  -2.456  2.3341 -3.5859 -1.4732
  153MOL0     H21092  11.057   2.198  -2.303 -2.9864  2.3190 -1.9206
  153MOL0     H21093  11.093   2.130  -2.459  1.5347 -2.3289  0.8443
  153MOL0     H21094  11.456   2.100  -1.700 -1.6904 -3.0635  0.1211
  153MOL0     H21095  11.363   2.107  -1.470 -0.2818 -1.8302  3.7357
  153MOL0     H21096  11.413   1.948  -1.043 -1.8070 -1.0991 -1.2768
  153MOL0     H21097  11.277   1.927  -0.827 -0.2729 -0.0591  1.1459
  153MOL0     H21098  10.789   1.382   0.756 -0.3880 -1.9977 -2.7953
  153MOL0     H21099  10.685   1.238   0.913 -0.9014 -0.4725 -1.9371
  153MOL0     H21100  10.784   0.761   1.125  0.9785 -0.0997 -0.1286
  153MOL0     H21101  10.638   0.622   1.242  2.5408  0.0222 -0.4901
  153MOL0     H21102  10.522   0.510   1.342 -0.1974 -1.1063 -0.2736
  153MOL0     H21103  10.497   0.466   1.503 -0.5202 -1.7534 -2.7105
  153MOL0     H21104  10.313   0.685   1.461  0.1507 -1.2072  0.7030
  153MOL0     H21105  10.274   0.512   1.492 -1.1299  0.4141 -0.4876
  153MOL0     H21106  10.178   0.625   1.275  1.9999  1.7661  0.4781
  153MOL0     H21107  10.337   0.616   1.207 -1.3774  1.4532  0.2174
  153MOL0     H21108  10.203   0.436   1.137 -2.0004  1.1245  1.2912
  153MOL0     H21109  10.184   0.367   1.297 -3.4129  4.5409 -1.1044
  153MOL0     H21110  10.570   0.225   1.168  1.3932  1.6639  0.8777
  153MOL0     H21111  10.632   0.886   1.574 -2.0553  1.7188 -1.8464
  153MOL0     H21112  10.711   1.168   1.398  0.6136  0.2114 -0.8115
  153MOL0     H21113  10.719   1.100   1.559  1.6619  1.0616  0.5945
  153MOL0     H21114  10.867   1.130   1.480  0.3013 -1.5077 -1.9887
  154MOL0     O21115   7.374   9.654   0.382 -0.2094 -0.6658 -0.1705
  154MOL0     C21116   7.465   9.593   0.439 -0.2115 -0.0956  0.3081
  154MOL0     O21117   7.458   9.463   0.477  0.1998  0.2082  0.5406
  154MOL0     C21118   7.371   9.379   0.408 -0.4002 -0.4732 -0.3987
  154MOL0     C21119   7.256   9.319   0.466 -0.7394  0.0384 -0.0226
  154MOL0     C21120   7.175   9.225   0.396 -0.8043  0.6156 -0.3064
  154MOL0     C21121   7.217   9.178   0.270  0.0271 -0.6226 -0.4102
  154MOL0     O21122   7.160   9.069   0.210 -0.1936 -0.4973 -0.0464
  154MOL0     C21123   7.018   9.056   0.218  0.3939  0.9284 -0.4050
  154MOL0     C21124   6.967   8.975   0.105  0.3888  0.6280  0.9739
  154MOL0     C21125   7.043   8.838   0.097  0.3439  0.1314 -0.4388
  154MOL0     C21126   6.989   8.752  -0.021 -0.3491 -0.2367 -0.2440
  154MOL0     C21127   7.090   8.648  -0.072 -0.4894 -0.5718 -0.7289
  154MOL0     C21128   7.026   8.549  -0.169 -0.7700  0.1384  0.5837
  154MOL0     C21129   7.106   8.417  -0.197  0.8187  0.2668 -0.1156
  154MOL0     C21130   7.185   8.423  -0.330  0.3739 -0.0301 -0.0720
  154MOL0     N21131   7.284   8.519  -0.315 -0.2063  0.1825 -0.1830
  154MOL0     C21132   7.403   8.493  -0.255  0.2234  0.0278 -1.0579
  154MOL0     C21133   7.491   8.592  -0.296  0.0986 -0.0925  1.5229
  154MOL0     C21134   7.626   8.637  -0.242 -0.8637 -0.0906 -0.4014
  154MOL0     C21135   7.615   8.761  -0.152 -0.0290  0.1406 -0.1036
  154MOL0     C21136   7.754   8.810  -0.097  0.2410  0.6000 -0.7311
  154MOL0     C21137   7.813   8.916  -0.188 -0.3548 -0.5483 -1.0507
  154MOL0     O21138   7.918   8.977  -0.115 -0.0110 -0.5001 -0.0870
  154MOL0     C21139   7.971   9.092  -0.167  0.9106 -0.1341 -0.2413
  154MOL0     C21140   7.941   9.137  -0.304 -1.1080 -0.0608 -1.1987
  154MOL0     C21141   7.982   9.272  -0.341 -0.4292 -0.0849 -1.4524
  154MOL0     C21142   7.944   9.318  -0.483 -0.3819  0.2509 -0.1539
  154MOL0     C21143   8.061   9.349  -0.251  0.2378 -0.1617  0.7300
  154MOL0     C21144   8.109   9.500  -0.283 -0.1359 -0.6878 -0.1560
  154MOL0     O21145   8.103   9.542  -0.407 -0.0472 -0.1597 -0.1586
  154MOL0     C21146   8.093   9.679  -0.435  0.1746 -0.7507 -0.2888
  154MOL0     C21147   8.214   9.751  -0.431 -0.7920 -0.1927  0.0052
  154MOL0     C21148   8.208   9.890  -0.445  0.1770 -0.3041 -0.1428
  154MOL0     C21149   8.088   9.964  -0.483  0.2190  0.4547  0.8549
  154MOL0     O21150   8.075  10.099  -0.500 -0.0645  0.1522 -0.0970
  154MOL0     C21151   8.191  10.177  -0.467  0.2183  0.6888 -0.1935
  154MOL0     C21152   8.181  10.307  -0.537  0.0079  1.1339 -1.0520
  154MOL0     C21153   8.321  10.374  -0.525  0.0048 -0.3637 -0.1942
  154MOL0     C21154   8.313  10.518  -0.579 -0.4621 -0.1132  0.5105
  154MOL0     C21155   8.451  10.587  -0.573  0.3891  0.4558 -0.1129
  154MOL0     C21156   8.433  10.728  -0.625 -0.0455  0.0388 -0.7834
  154MOL0     C21157   8.557  10.810  -0.626  0.8326 -0.8150 -0.2135
  154MOL0     C21158   8.543  10.963  -0.645 -0.1699 -0.5250 -0.2258
  154MOL0    Cl21159   8.464  10.995  -0.795  0.5032 -0.2570  0.6064
  154MOL0     C21160   7.972   9.890  -0.494 -0.3087 -0.0266 -0.0742
  154MOL0     C21161   7.976   9.747  -0.464 -0.0477 -1.0435 -0.3072
  154MOL0     O21162   8.131   9.576  -0.189  0.3682 -0.3095 -0.1724
  154MOL0     C21163   8.079   9.304  -0.122 -0.3988  0.5351 -0.8356
  154MOL0     C21164   8.045   9.172  -0.082  0.4269  0.0674 -0.0055
  154MOL0     N21165   7.422   8.661  -0.398 -0.4989 -0.3532 -0.2895
  154MOL0     N21166   7.294   8.618  -0.405 -0.2347  0.5729 -0.2425
  154MOL0     C21167   7.325   9.236   0.212  0.3269 -0.3043  0.3790
  154MOL0     C21168   7.400   9.343   0.271 -0.1513  0.7939 -0.5043
  154MOL0     C21169   7.591   9.655   0.486 -0.3537 -1.1511 -0.0082
  154MOL0     C21170   7.683   9.592   0.566 -0.3481 -0.0795 -1.1088
  154MOL0     C21171   7.805   9.657   0.605 -0.2018  0.1184  0.2329
  154MOL0     C21172   7.846   9.779   0.561 -0.0059  0.0284 -0.0618
  154MOL0     O21173   7.954   9.835   0.621 -0.6861  0.0436 -0.0873
  154MOL0     C21174   7.962   9.982   0.612 -0.4231 -0.1143  0.6562
  154MOL0     C21175   8.058  10.015   0.494 -0.4275 -0.0456 -0.0043
  154MOL0     C21176   8.056  10.165   0.461 -0.4984 -1.0240 -0.1148
  154MOL0     C21177   8.197  10.221   0.500 -0.9499  0.1422  0.2833
  154MOL0     C21178   8.213  10.349   0.435  0.9198  0.2307  1.0206
  154MOL0     C21179   8.216  10.456   0.380 -0.3609 -0.7899 -0.1054
  154MOL0     C21180   7.756   9.840   0.472  0.3311 -0.8689  0.4672
  154MOL0     C21181   7.641   9.779   0.427 -0.3346  0.2307  0.3385
  154MOL0     C21182   7.570   9.854   0.312  0.2715 -0.0802 -0.0098
  154MOL0     H21183   7.235   9.348   0.568  1.9593 -2.2091  1.3120
  154MOL0     H21184   7.095   9.174   0.449 -1.5916  0.4746 -1.5881
  154MOL0     H21185   6.973   9.155   0.207 -1.7502  0.0249 -0.2097
  154MOL0     H21186   6.985   9.004   0.308  1.0259 -2.2538 -1.8518
  154MOL0     H21187   6.859   8.963   0.116  0.7259 -1.5023  2.5522
  154MOL0     H21188   6.999   9.025   0.013  0.5725  0.2040  0.8016
  154MOL0     H21189   7.151   8.856   0.099  0.6554 -1.5495 -0.7404
  154MOL0     H21190   7.022   8.780   0.187 -0.6662 -0.0419 -0.7759
  154MOL0     H21191   6.889   8.715   0.004 -0.6015  2.6025  3.8801
  154MOL0     H21192   6.959   8.825  -0.096  0.2504  0.4358  0.1544
  154MOL0     H21193   7.122   8.581   0.008 -0.9704 -0.3034 -0.3050
  154MOL0     H21194   7.184   8.692  -0.107  0.1579 -2.3609 -1.3359
  154MOL0     H21195   6.939   8.519  -0.109 -0.6118 -0.2690  0.6117
  154MOL0     H21196   7.000   8.597  -0.264  2.7267  2.6849  0.7317
  154MOL0     H21197   7.047   8.324  -0.197  2.7821 -1.1285  2.8523
  154MOL0     H21198   7.180   8.399  -0.119  4.6505  1.1164 -3.2226
  154MOL0     H21199   7.228   8.325  -0.353 -0.7063 -0.2177 -1.4317
  154MOL0     H21200   7.113   8.456  -0.406 -0.3752 -0.7593  0.3019
  154MOL0     H21201   7.416   8.428  -0.169  0.3601 -0.4596 -1.4425
  154MOL0     H21202   7.696   8.664  -0.322 -0.7684  0.5338 -0.1132
  154MOL0     H21203   7.672   8.557  -0.183 -0.4843  0.4787  0.0930
  154MOL0     H21204   7.561   8.836  -0.210 -3.6705 -0.6412  1.9247
  154MOL0     H21205   7.566   8.730  -0.059  2.1037  2.8003  2.0441
  154MOL0     H21206   7.736   8.863  -0.002 -0.3549 -1.8933  0.6285
  154MOL0     H21207   7.828   8.732  -0.079 -0.6274 -0.3522 -1.2043
  154MOL0     H21208   7.853   8.874  -0.281  1.4293  1.4332 -1.2590
  154MOL0     H21209   7.736   8.991  -0.208 -0.6016 -0.4019  0.3184
  154MOL0     H21210   7.898   9.075  -0.382  0.1640 -0.9511 -1.2276
  154MOL0     H21211   8.022   9.372  -0.537  1.8137 -0.8916  1.6914
  154MOL0     H21212   7.860   9.387  -0.467  0.5480  1.8573 -1.8041
  154MOL0     H21213   7.902   9.237  -0.543  1.0950 -1.3947  0.9286
  154MOL0     H21214   8.312   9.711  -0.407 -1.7408 -2.4078  0.4882
  154MOL0     H21215   8.300   9.946  -0.433 -0.7422  0.9986  1.1808
  154MOL0     H21216   8.184  10.180  -0.358 -2.2536 -1.6572 -0.1804
  154MOL0     H21217   8.276  10.128  -0.514  1.0990 -0.9321  2.8465
  154MOL0     H21218   8.157  10.274  -0.639  0.9215 -0.2843 -0.8374
  154MOL0     H21219   8.100  10.365  -0.492 -0.4433 -0.5305  0.4103
  154MOL0     H21220   8.399  10.320  -0.578  0.2921 -0.1520  0.0084
  154MOL0     H21221   8.360  10.375  -0.423  3.8736  4.0158 -1.3821
  154MOL0     H21222   8.237  10.580  -0.528 -1.2355 -2.1734  1.9944
  154MOL0     H21223   8.285  10.518  -0.684  0.2846  1.6787  0.2739
  154MOL0     H21224   8.462  10.598  -0.464 -0.2998 -0.2703  0.0439
  154MOL0     H21225   8.538  10.528  -0.603  0.5737  0.7551 -0.1724
  154MOL0     H21226   8.355  10.778  -0.567 -0.0247 -1.8343  0.9800
  154MOL0     H21227   8.413  10.722  -0.733 -0.0680  4.8904 -1.2874
  154MOL0     H21228   8.614  10.773  -0.711  2.2213 -0.0047  0.3265
  154MOL0     H21229   8.611  10.784  -0.534 -0.9540  1.9861  1.7912
  154MOL0     H21230   8.645  11.002  -0.638 -0.9229  1.3088  1.6475
  154MOL0     H21231   8.496  11.009  -0.557 -4.7971 -3.5196 -0.7574
  154MOL0     H21232   7.871   9.926  -0.514 -0.0533 -0.4413 -2.3678
  154MOL0     H21233   7.877   9.705  -0.452 -1.7886  2.5309 -0.9464
  154MOL0     H21234   8.136   9.357  -0.045 -1.1912 -0.2754  0.3449
  154MOL0     H21235   8.078   9.142   0.017  0.5415 -1.2185 -0.4140
  154MOL0     H21236   7.355   9.206   0.112  2.4803  0.3160  0.7754
  154MOL0     H21237   7.486   9.375   0.213  0.7724 -0.4235  0.1310
  154MOL0     H21238   7.662   9.493   0.605 -1.8318  1.1745  1.5220
  154MOL0     H21239   7.865   9.597   0.673  0.3099 -2.0712 -2.0172
  154MOL0     H21240   7.867  10.035   0.599 -1.0910 -1.8305 -2.3739
  154MOL0     H21241   8.008  10.022   0.702 -0.4180  1.9991 -0.2417
  154MOL0     H21242   8.027   9.962   0.404 -1.5548 -0.4321  0.6007
  154MOL0     H21243   8.161   9.990   0.524 -1.0854 -1.7960  0.9243
  154MOL0     H21244   8.029  10.188   0.358 -1.2459 -0.8012  0.1289
  154MOL0     H21245   7.985  10.214   0.527  0.4192 -0.4747  0.4981
  154MOL0     H21246   8.276  10.161   0.454  1.1218  3.1973 -0.4058
  154MOL0     H21247   8.223  10.223   0.607  0.2776 -3.2992  0.1707
  154MOL0     H21248   8.237  10.551   0.335  0.3560 -0.8712  0.0430
  154MOL0     H21249   7.781   9.933   0.422 -1.4891 -1.4719 -1.7060
  154MOL0     H21250   7.534   9.787   0.233 -0.4500 -0.5589  0.6951
  154MOL0     H21251   7.478   9.904   0.344  0.4294 -0.2376  0.7162
  154MOL0     H21252   7.636   9.929   0.270  2.4888 -2.1754 -0.4968
  155MOL0     O21253   5.749  10.733   9.858  0.6671  0.6418 -0.8751
  155MOL0     C21254   5.784  10.668   9.761  0.0408  0.4784 -0.2416
  155MOL0     O21255   5.907  10.670   9.714 -0.0831  0.3757  0.0295
  155MOL0     C21256   6.004  10.738   9.788  0.5373 -0.9990  0.4378
  155MOL0     C21257   6.113  10.669   9.856 -0.1082  0.1792 -0.3335
  155MOL0     C21258   6.201  10.746   9.939 -1.0593  0.3517 -0.2688
  155MOL0     C21259   6.195  10.883   9.946  0.2593  0.0258  0.5592
  155MOL0     O21260   6.284  10.980  10.006  0.1994 -0.1713  0.0565
  155MOL0     C21261   6.426  10.937  10.040  0.2699 -0.9800 -0.0663
  155MOL0     C21262   6.432  10.887  10.187 -0.1817 -0.0364  0.4541
  155MOL0     C21263   6.579  10.862  10.220  0.4598 -0.2064 -0.0758
  155MOL0     C21264   6.595  10.801  10.359 -0.4094 -0.1997 -0.0625
  155MOL0     C21265   6.747  10.783  10.397 -0.1333 -1.1284  0.5843
  155MOL0     C21266   6.763  10.720  10.532  0.4666 -0.4395  0.5453
  155MOL0     C21267   6.708  10.571  10.554 -0.5028 -0.4339  0.4481
  155MOL0     C21268   6.777  10.510  10.679  0.4283  0.5286 -0.4867
  155MOL0     N21269   6.880  10.411  10.637  0.5405 -0.9449 -0.7640
  155MOL0     C21270   6.989  10.436  10.562  0.0755 -0.1503  0.3087
  155MOL0     C21271   7.069  10.327  10.563 -0.9643  0.3642  0.3039
  155MOL0     C21272   7.188  10.321  10.475  0.0274 -0.1000  0.3096
  155MOL0     C21273   7.263  10.201  10.511  0.4279 -0.4851 -1.4532
  155MOL0     C21274   7.390  10.182  10.428  0.0730 -0.9897  0.2961
  155MOL0     C21275   7.469  10.064  10.474  0.3848  0.4483  0.1452
  155MOL0     O21276   7.583  10.070  10.385  0.8474 -0.6156 -0.2497
  155MOL0     C21277   7.682   9.985  10.411  0.7412  0.4555  0.1923
  155MOL0     C21278   7.790   9.984  10.317  0.5935 -0.4966 -0.3879
  155MOL0     C21279   7.910   9.906  10.334  0.2324 -0.3782 -0.2542
  155MOL0     C21280   7.999   9.912  10.217  0.9034 -0.3259  0.6183
  155MOL0     C21281   7.924   9.836  10.452 -0.4848 -1.0679 -0.1306
  155MOL0     C21282   8.052   9.764  10.498  1.4473  0.2670  0.8909
  155MOL0     O21283   8.038   9.671  10.592 -0.1964 -0.1150  0.3188
  155MOL0     C21284   8.159   9.622  10.649 -0.0929 -1.1208 -0.5354
  155MOL0     C21285   8.244   9.544  10.566  0.7910  0.4180  0.6422
  155MOL0     C21286   8.366   9.504  10.621 -0.6793  1.0271  0.2769
  155MOL0     C21287   8.400   9.524  10.758 -0.5493  0.5283  0.0079
  155MOL0     O21288   8.521   9.476  10.810  0.2507  0.5405 -0.1536
  155MOL0     C21289   8.617   9.435  10.715  0.6914 -0.5449  0.6403
  155MOL0     C21290   8.744   9.412  10.786  0.5982 -0.1638 -0.1164
  155MOL0     C21291   8.729   9.309  10.902  0.2683 -0.2497  0.4670
  155MOL0     C21292   8.864   9.257  10.953 -0.4791  1.3848  0.5282
  155MOL0     C21293   8.963   9.366  11.006 -0.0053 -0.6836  0.7735
  155MOL0     C21294   8.915   9.469  11.115 -0.7803  0.7247 -0.7329
  155MOL0     C21295   8.879   9.403  11.242 -0.0793  0.0220  0.3411
  155MOL0     C21296   8.795   9.504  11.316  0.1102  0.6787 -0.0647
  155MOL0    Cl21297   8.930   9.620  11.371  0.5455 -0.1138 -0.2284
  155MOL0     C21298   8.308   9.590  10.834  0.4956  0.1300 -0.1860
  155MOL0     C21299   8.191   9.641  10.783  0.3972  0.4414  0.6019
  155MOL0     O21300   8.157   9.806  10.448 -0.2886 -0.7924 -0.1992
  155MOL0     C21301   7.812   9.834  10.547 -0.0119  0.2877  0.6433
  155MOL0     C21302   7.694   9.898  10.521 -0.3405 -0.9589  0.9297
  155MOL0     N21303   7.012  10.226  10.644  0.4713  0.0027  0.1669
  155MOL0     N21304   6.897  10.279  10.686 -0.5530 -0.3814  0.0842
  155MOL0     C21305   6.093  10.942   9.862  0.1221 -0.5661 -0.0221
  155MOL0     C21306   5.997  10.878   9.792 -0.0395 -0.6074  0.1862
  155MOL0     C21307   5.702  10.548   9.723 -0.9485  0.9287  0.7845
  155MOL0     C21308   5.623  10.568   9.614  0.9911  0.0243  0.3254
  155MOL0     C21309   5.539  10.466   9.568 -0.0067 -0.6463 -0.5076
  155MOL0     C21310   5.550  10.333   9.619 -0.2944  0.0759 -0.5337
  155MOL0     O21311   5.478  10.232   9.559  0.5462 -0.0041 -0.1913
  155MOL0     C21312   5.464  10.104   9.624  0.0077 -0.0159  0.5348
  155MOL0     C21313   5.360  10.014   9.552 -0.3408 -0.8391 -0.0659
  155MOL0     C21314   5.424   9.982   9.413  0.4572  0.0439  0.0142
  155MOL0     C21315   5.353   9.875   9.335  0.1286 -0.7321  1.1833
  155MOL0     C21316   5.398   9.871   9.198  0.1023 -0.1921  0.4280
  155MOL0     C21317   5.442   9.841   9.090  0.5598  0.0752  0.4293
  155MOL0     C21318   5.625  10.315   9.738  0.6961 -0.4361  0.1468
  155MOL0     C21319   5.705  10.429   9.793  0.0664  0.6024 -0.5021
  155MOL0     C21320   5.785  10.412   9.917 -0.2338 -0.0732  0.3379
  155MOL0     H21321   6.115  10.562   9.834 -0.7259  0.6843 -3.1593
  155MOL0     H21322   6.280  10.696   9.994 -2.9791  0.7425  3.1941
  155MOL0     H21323   6.493  11.021  10.023 -1.3010  0.3249 -0.0495
  155MOL0     H21324   6.461  10.861   9.969 -1.0669  0.5122 -2.4690
  155MOL0     H21325   6.390  10.959  10.259  1.5225 -1.1791  2.6871
  155MOL0     H21326   6.381  10.792  10.201  2.5491 -1.7419 -0.5342
  155MOL0     H21327   6.622  10.801  10.140 -3.3270 -1.6480 -1.2164
  155MOL0     H21328   6.616  10.964  10.216 -0.0897 -0.0394 -1.4530
  155MOL0     H21329   6.551  10.875  10.427  0.5194  2.1688 -1.8922
  155MOL0     H21330   6.534  10.711  10.371 -0.2544 -0.9257 -3.5855
  155MOL0     H21331   6.790  10.884  10.397  0.5308 -1.3851  2.3815
  155MOL0     H21332   6.795  10.721  10.321  1.1832  3.7234 -3.0936
  155MOL0     H21333   6.871  10.713  10.546  0.8437  2.9192 -0.0542
  155MOL0     H21334   6.712  10.793  10.596  0.0770  0.3867 -0.6807
  155MOL0     H21335   6.717  10.521  10.457 -3.5904  1.3564 -0.9172
  155MOL0     H21336   6.602  10.571  10.581 -0.7064  0.2339 -0.3066
  155MOL0     H21337   6.816  10.586  10.748  1.7315 -0.1325 -0.4648
  155MOL0     H21338   6.699  10.468  10.742 -1.1429  4.6149  0.6159
  155MOL0     H21339   7.009  10.528  10.506 -0.1956  0.0955  0.6182
  155MOL0     H21340   7.246  10.413  10.489 -0.6831  0.2065  1.3551
  155MOL0     H21341   7.150  10.314  10.372 -2.1763 -0.9734  1.1231
  155MOL0     H21342   7.288  10.204  10.617 -3.1610 -3.3167 -0.3530
  155MOL0     H21343   7.200  10.112  10.500  0.2903 -0.4655 -0.8464
  155MOL0     H21344   7.365  10.177  10.322  2.1987 -0.0645 -0.2915
  155MOL0     H21345   7.456  10.269  10.427  1.3404 -1.9121 -1.1153
  155MOL0     H21346   7.497  10.076  10.579 -2.8030 -0.6021  1.2318
  155MOL0     H21347   7.411   9.973  10.456 -1.5501  1.8063 -0.9641
  155MOL0     H21348   7.759  10.036  10.227 -3.8992 -2.1325 -0.0467
  155MOL0     H21349   7.966   9.996  10.156 -0.8170  0.1081  2.0694
  155MOL0     H21350   7.996   9.817  10.162 -2.0248 -0.6894  1.2613
  155MOL0     H21351   8.104   9.929  10.241  0.6038 -1.9552  3.5090
  155MOL0     H21352   8.217   9.526  10.463 -1.5408 -0.7835  1.4049
  155MOL0     H21353   8.436   9.460  10.552 -3.4469 -1.9302 -0.8964
  155MOL0     H21354   8.590   9.340  10.669  0.0962  0.1764 -0.5560
  155MOL0     H21355   8.629   9.517  10.643  1.6760 -0.1874  1.1879
  155MOL0     H21356   8.813   9.380  10.707  0.1449 -1.0431 -0.1631
  155MOL0     H21357   8.782   9.506  10.828  1.3258 -0.3076 -0.4347
  155MOL0     H21358   8.669   9.225  10.866  0.6776 -0.6055  0.6003
  155MOL0     H21359   8.672   9.359  10.981 -1.7161  0.3766 -1.2633
  155MOL0     H21360   8.910   9.190  10.879  1.5219  0.7360  2.2526
  155MOL0     H21361   8.838   9.192  11.037  1.1023 -1.0772 -0.7714
  155MOL0     H21362   9.055   9.317  11.041  2.0799  0.9903 -1.9689
  155MOL0     H21363   8.998   9.417  10.916  0.9413 -0.8900  1.0089
  155MOL0     H21364   8.825   9.518  11.075  0.2028  2.1449 -1.2854
  155MOL0     H21365   8.993   9.545  11.120  0.0732  0.3363 -4.6339
  155MOL0     H21366   8.969   9.369  11.293 -0.0845  0.0533  0.3730
  155MOL0     H21367   8.826   9.312  11.215 -0.5911 -0.5136  2.8455
  155MOL0     H21368   8.750   9.465  11.408 -1.9894  0.9626 -0.9230
  155MOL0     H21369   8.719   9.554  11.255  1.8770 -1.0515 -4.0247
  155MOL0     H21370   8.341   9.621  10.932  1.1170  0.1228 -0.3891
  155MOL0     H21371   8.111   9.678  10.847  0.5066  0.0720  0.9558
  155MOL0     H21372   7.827   9.780  10.640  0.2413 -1.1331 -0.1866
  155MOL0     H21373   7.615   9.892  10.595 -0.9504  2.5447  0.7440
  155MOL0     H21374   6.095  11.050   9.858 -1.5752 -0.4063  1.7752
  155MOL0     H21375   5.918  10.931   9.740  0.5739  1.8562  1.6269
  155MOL0     H21376   5.611  10.669   9.575  2.9155  0.1502 -0.0078
  155MOL0     H21377   5.477  10.493   9.483 -2.0285 -3.3287 -0.0275
  155MOL0     H21378   5.566  10.065   9.625  0.2486  0.6063  0.6007
  155MOL0     H21379   5.426  10.107   9.727 -2.0408  0.2047 -0.1937
  155MOL0     H21380   5.277  10.083   9.538  2.9628  3.6249  0.1265
  155MOL0     H21381   5.334   9.919   9.599 -2.3410 -0.3550 -0.1244
  155MOL0     H21382   5.407  10.075   9.358  1.6438 -0.4384 -1.2363
  155MOL0     H21383   5.531   9.969   9.431  0.3465  0.1443  0.8054
  155MOL0     H21384   5.248   9.902   9.325 -0.3526 -3.0288 -6.1989
  155MOL0     H21385   5.376   9.779   9.382 -1.1771 -2.5291 -1.5777
  155MOL0     H21386   5.482   9.807   8.997 -1.0389  0.7317 -0.5341
  155MOL0     H21387   5.634  10.221   9.792  0.9442  0.2783  1.3801
  155MOL0     H21388   5.857  10.493   9.929 -0.3643  0.0335  0.3977
  155MOL0     H21389   5.721  10.412  10.005 -0.5180  0.2109  0.1329
  155MOL0     H21390   5.832  10.314   9.908  1.9628  0.7210  2.1294
  156MOL0     O21391   5.044  10.520   8.454 -0.4456  0.1809  0.0194
  156MOL0     C21392   5.061  10.614   8.376 -0.5649 -0.1645 -0.0614
  156MOL0     O21393   5.027  10.609   8.243  0.4605  0.4594  0.7434
  156MOL0     C21394   4.955  10.501   8.186  1.3131  0.1487  0.8934
  156MOL0     C21395   5.004  10.449   8.071  0.8585 -0.5115  0.2196
  156MOL0     C21396   4.946  10.330   8.010  0.2243  0.3942  0.1401
  156MOL0     C21397   4.838  10.264   8.065 -0.0803  0.7530 -0.6198
  156MOL0     O21398   4.782  10.155   8.008  0.2719  0.8043 -0.2077
  156MOL0     C21399   4.640  10.137   8.025  0.3868 -0.5188  0.0612
  156MOL0     C21400   4.582  10.030   7.926  0.1455  0.4752  0.0157
  156MOL0     C21401   4.622   9.884   7.966 -0.2485 -0.6334 -0.3134
  156MOL0     C21402   4.621   9.791   7.851 -0.1220  0.3460  0.1650
  156MOL0     C21403   4.646   9.644   7.875 -0.9005 -0.0303 -0.2531
  156MOL0     C21404   4.625   9.544   7.759  0.8914  0.2613  0.3675
  156MOL0     C21405   4.744   9.529   7.660 -0.8792  0.3296 -0.1049
  156MOL0     C21406   4.720   9.611   7.528  0.3704 -0.0080 -0.4214
  156MOL0     N21407   4.818   9.580   7.431 -0.2110 -0.3845 -0.2931
  156MOL0     C21408   4.796   9.529   7.305 -1.1396 -0.0758  0.0551
  156MOL0     C21409   4.911   9.508   7.249 -0.8627 -0.1945  0.5345
  156MOL0     C21410   4.930   9.451   7.115 -0.8144 -0.0673  0.0870
  156MOL0     C21411   4.959   9.305   7.118  0.0882 -0.3618 -0.7639
  156MOL0     C21412   4.836   9.221   7.138 -0.0523  0.9036  0.1055
  156MOL0     C21413   4.887   9.067   7.140  0.6688  0.2435 -0.7638
  156MOL0     O21414   4.791   8.971   7.132  0.4659  0.4344 -0.3677
  156MOL0     C21415   4.705   8.936   7.234  0.0752 -0.2738  1.0038
  156MOL0     C21416   4.706   9.001   7.355  0.3170  0.0873  0.3419
  156MOL0     C21417   4.594   8.986   7.443 -0.0086 -0.0872 -0.5325
  156MOL0     C21418   4.601   9.050   7.578 -0.6902  0.3766  0.6178
  156MOL0     C21419   4.485   8.895   7.409  0.3590  0.5682  0.0537
  156MOL0     C21420   4.366   8.866   7.487  0.7340  0.4405  1.0993
  156MOL0     O21421   4.300   8.749   7.446  0.3444  0.1737  0.6921
  156MOL0     C21422   4.169   8.723   7.477 -0.2035 -0.1891  0.1083
  156MOL0     C21423   4.134   8.598   7.432 -1.0895  0.0364  0.5500
  156MOL0     C21424   4.005   8.550   7.456  0.4982 -0.6945  0.8015
  156MOL0     C21425   3.920   8.624   7.538  0.3406 -0.2600  0.9965
  156MOL0     O21426   3.793   8.578   7.566  0.3860  0.2385  0.6079
  156MOL0     C21427   3.784   8.446   7.605 -1.0799  0.0954 -0.5398
  156MOL0     C21428   3.650   8.410   7.663  0.1160 -0.0809  0.0873
  156MOL0     C21429   3.654   8.303   7.765 -0.2634  0.2597 -0.5759
  156MOL0     C21430   3.671   8.163   7.709  0.4511 -0.1499  0.8846
  156MOL0     C21431   3.717   8.054   7.807 -0.0445 -0.6748 -0.9768
  156MOL0     C21432   3.673   7.912   7.785 -0.5803 -0.0760  0.3950
  156MOL0     C21433   3.729   7.818   7.900 -0.4398 -0.9089  0.7087
  156MOL0     C21434   3.695   7.672   7.870  0.3679  0.2289  0.4368
  156MOL0    Cl21435   3.824   7.619   7.757 -0.0276  0.5154 -0.0885
  156MOL0     C21436   3.947   8.753   7.583 -0.3365 -0.0146 -0.8034
  156MOL0     C21437   4.076   8.797   7.556 -0.1601 -1.1816  0.1119
  156MOL0     O21438   4.322   8.950   7.562  0.0513  0.6320  0.2164
  156MOL0     C21439   4.496   8.834   7.277 -0.2269  0.6198  0.6553
  156MOL0     C21440   4.599   8.862   7.188 -0.3720 -0.9817  0.6764
  156MOL0     N21441   5.009   9.516   7.342  0.6815 -0.2666  0.4969
  156MOL0     N21442   4.950   9.551   7.456 -0.1374 -0.0198 -0.0897
  156MOL0     C21443   4.799  10.309   8.201 -0.6416  0.2768 -0.1669
  156MOL0     C21444   4.845  10.428   8.255  0.4389 -0.2725  0.6587
  156MOL0     C21445   5.116  10.741   8.432 -0.2367 -1.1797  0.7233
  156MOL0     C21446   5.124  10.759   8.573 -0.5640 -0.2581 -0.0350
  156MOL0     C21447   5.176  10.879   8.632  0.0287  0.1752 -0.2098
  156MOL0     C21448   5.243  10.981   8.558  0.1488  0.1089 -0.9206
  156MOL0     O21449   5.299  11.098   8.605 -0.0102  0.0123 -0.2360
  156MOL0     C21450   5.280  11.125   8.741 -0.6015 -1.1403 -0.5458
  156MOL0     C21451   5.395  11.093   8.836 -0.6784 -0.0211  0.1558
  156MOL0     C21452   5.522  11.145   8.760 -0.3221  0.7190 -0.4925
  156MOL0     C21453   5.646  11.145   8.838  0.1447  0.1130 -0.1066
  156MOL0     C21454   5.680  11.004   8.884 -0.0554 -0.5246  0.0831
  156MOL0     C21455   5.725  10.902   8.939 -0.1265  1.2489  0.4700
  156MOL0     C21456   5.244  10.960   8.422 -0.7459  0.6293  0.3143
  156MOL0     C21457   5.192  10.837   8.357  0.7699 -0.6791  0.3386
  156MOL0     C21458   5.218  10.825   8.206 -0.4839  1.0459 -0.3219
  156MOL0     H21459   5.087  10.502   8.026  0.9300  0.7178  1.7166
  156MOL0     H21460   4.962  10.309   7.905 -0.6450  0.0308  0.0683
  156MOL0     H21461   4.588  10.229   7.998 -0.4790 -0.8910  0.4360
  156MOL0     H21462   4.620  10.113   8.130 -1.4293  1.6183  0.2851
  156MOL0     H21463   4.475  10.035   7.901  1.0074 -0.1671 -4.6817
  156MOL0     H21464   4.628  10.064   7.833 -2.5851  0.1459 -1.5673
  156MOL0     H21465   4.727   9.879   7.996 -0.8909  1.9844  2.9635
  156MOL0     H21466   4.560   9.861   8.053  0.6636  1.6396  1.0353
  156MOL0     H21467   4.522   9.794   7.805  0.1294  0.5824 -0.3661
  156MOL0     H21468   4.697   9.830   7.784 -1.1886  0.1922 -1.1827
  156MOL0     H21469   4.582   9.607   7.956 -0.9779 -0.8563 -0.6875
  156MOL0     H21470   4.751   9.631   7.904 -0.5808  0.6407 -1.0633
  156MOL0     H21471   4.607   9.448   7.809 -2.3494  1.5431  1.9194
  156MOL0     H21472   4.539   9.563   7.694 -0.4556  2.3363  2.5641
  156MOL0     H21473   4.755   9.424   7.629  1.3395 -0.1818  2.0514
  156MOL0     H21474   4.838   9.570   7.698 -0.7761 -0.4800  0.5389
  156MOL0     H21475   4.620   9.574   7.501  0.3481 -1.2588  1.2159
  156MOL0     H21476   4.706   9.719   7.536  0.5398 -0.0271  0.1236
  156MOL0     H21477   4.704   9.512   7.250 -1.7768 -1.5174  1.4809
  156MOL0     H21478   5.018   9.491   7.065 -3.2248  1.3607 -3.4738
  156MOL0     H21479   4.854   9.493   7.048  0.1573 -2.2230 -2.5465
  156MOL0     H21480   5.010   9.280   7.025 -0.5332  1.9484 -1.7898
  156MOL0     H21481   5.028   9.277   7.198  0.3916 -2.3940 -1.6821
  156MOL0     H21482   4.772   9.245   7.224 -0.4083  0.5834 -0.0709
  156MOL0     H21483   4.770   9.236   7.052 -1.4994  1.3270  1.2459
  156MOL0     H21484   4.946   9.056   7.048  1.4383 -1.1712 -0.1307
  156MOL0     H21485   4.956   9.049   7.222  0.8190  1.8645 -0.4957
  156MOL0     H21486   4.776   9.081   7.377 -0.1399  0.9666 -1.2585
  156MOL0     H21487   4.705   9.070   7.603 -0.4715  0.7952 -0.5357
  156MOL0     H21488   4.568   8.977   7.652 -0.0757 -0.3153  0.2298
  156MOL0     H21489   4.552   9.148   7.587 -3.2338 -0.9273  2.0601
  156MOL0     H21490   4.201   8.538   7.371 -0.4291 -0.0442  1.3448
  156MOL0     H21491   3.982   8.449   7.424 -2.8939  0.2987 -0.2491
  156MOL0     H21492   3.799   8.390   7.512 -0.0088  4.0139 -2.9953
  156MOL0     H21493   3.855   8.417   7.682 -1.5308  2.2317  0.7560
  156MOL0     H21494   3.604   8.499   7.707 -0.5509  0.1820 -1.1004
  156MOL0     H21495   3.587   8.383   7.578 -0.6503  1.7513  0.0183
  156MOL0     H21496   3.561   8.304   7.824 -0.6146  0.1052 -1.1247
  156MOL0     H21497   3.733   8.345   7.829 -1.3636  1.3747  0.1176
  156MOL0     H21498   3.737   8.152   7.622 -1.0691 -2.4414 -0.0917
  156MOL0     H21499   3.579   8.131   7.660  0.6083 -1.8435  1.6203
  156MOL0     H21500   3.824   8.065   7.824  0.0869  1.0829 -2.6045
  156MOL0     H21501   3.672   8.076   7.905  1.3545 -1.9506 -0.0169
  156MOL0     H21502   3.713   7.874   7.690  1.4435  0.7952  0.8450
  156MOL0     H21503   3.565   7.895   7.778 -0.4599 -0.5796 -0.3083
  156MOL0     H21504   3.694   7.845   8.000  1.5124 -1.1270  1.5029
  156MOL0     H21505   3.838   7.820   7.888 -0.4156 -2.2736  0.4595
  156MOL0     H21506   3.601   7.639   7.823  1.1910  0.3821 -1.4149
  156MOL0     H21507   3.705   7.614   7.962  0.8871 -1.4939 -0.6465
  156MOL0     H21508   3.887   8.804   7.657  1.6281  1.7414 -0.3339
  156MOL0     H21509   4.115   8.888   7.599 -0.8283 -0.3619 -0.9504
  156MOL0     H21510   4.423   8.758   7.251  0.4229 -0.2915  1.4061
  156MOL0     H21511   4.590   8.819   7.089 -0.7292 -1.2183  0.8110
  156MOL0     H21512   4.734  10.244   8.259  1.0654  0.1535  1.7272
  156MOL0     H21513   4.818  10.456   8.357  3.8264  2.7785  0.9594
  156MOL0     H21514   5.079  10.686   8.639 -1.3493  0.2971  0.0605
  156MOL0     H21515   5.168  10.887   8.740 -0.2886  0.6845 -0.2699
  156MOL0     H21516   5.273  11.234   8.747  0.3142 -0.4178 -6.6261
  156MOL0     H21517   5.194  11.072   8.783  0.3022 -2.1636  0.0649
  156MOL0     H21518   5.401  10.990   8.872  0.2934  0.8946  2.8431
  156MOL0     H21519   5.385  11.163   8.919 -2.4404 -0.4716  0.3610
  156MOL0     H21520   5.541  11.086   8.670 -0.6734 -0.7292  0.3533
  156MOL0     H21521   5.500  11.248   8.728  0.0148  0.5712 -1.2259
  156MOL0     H21522   5.632  11.220   8.917  0.4192  2.0064 -1.7887
  156MOL0     H21523   5.736  11.172   8.783  0.5945  1.0011  1.0181
  156MOL0     H21524   5.751  10.806   8.980  0.5658  0.7620 -1.0278
  156MOL0     H21525   5.304  11.032   8.367 -0.0623  0.3878  0.7219
  156MOL0     H21526   5.290  10.901   8.174  0.1773  0.9418  0.8712
  156MOL0     H21527   5.265  10.730   8.176 -0.8520  1.1572 -1.3082
  156MOL0     H21528   5.120  10.833   8.158  0.7308 -1.7631 -3.7029
  157MOL0     O21529   0.076   1.832   5.539 -0.2431 -0.0116  0.4787
  157MOL0     C21530   0.116   1.941   5.519 -0.2648  0.2356 -1.3588
  157MOL0     O21531   0.192   2.017   5.607  0.1611 -0.4272 -0.4143
  157MOL0     C21532   0.235   1.960   5.719 -0.6090  0.2890  0.7520
  157MOL0     C21533   0.205   2.027   5.844  0.6559  0.6469  0.1102
  157MOL0     C21534   0.254   1.966   5.962  1.0337 -0.0005  0.1171
  157MOL0     C21535   0.320   1.845   5.960 -0.9430 -0.3406  0.0651
  157MOL0     O21536   0.375   1.785   6.069 -0.5881 -0.6286 -0.5969
  157MOL0     C21537   0.437   1.879   6.164  0.2755  0.3626 -0.6143
  157MOL0     C21538   0.358   1.909   6.301  0.9520 -0.4224 -0.4900
  157MOL0     C21539   0.345   1.782   6.391  0.5638 -0.4596  0.7790
  157MOL0     C21540   0.473   1.738   6.460 -0.7251  0.5404 -0.7913
  157MOL0     C21541   0.467   1.766   6.613  0.7387 -0.1367 -0.2353
  157MOL0     C21542   0.452   1.625   6.686 -0.8287 -0.9221  0.8315
  157MOL0     C21543   0.458   1.652   6.839  0.3806  1.2240 -0.2706
  157MOL0     C21544   0.329   1.727   6.894 -0.5156 -0.1839  0.0346
  157MOL0     N21545   0.334   1.724   7.036  0.2698  0.2195 -0.2950
  157MOL0     C21546   0.329   1.831   7.139  0.4604 -0.5691  0.6853
  157MOL0     C21547   0.334   1.763   7.266 -0.2111  0.3118 -0.0795
  157MOL0     C21548   0.328   1.831   7.405  0.5234  0.3030 -0.9279
  157MOL0     C21549   0.470   1.855   7.469 -0.7582 -0.6775 -0.9092
  157MOL0     C21550   0.455   1.898   7.617  0.5782 -0.0108 -0.7890
  157MOL0     C21551   0.597   1.932   7.666  0.4390 -0.7153  0.2829
  157MOL0     O21552   0.669   1.810   7.694 -0.7464 -0.1423  0.6288
  157MOL0     C21553   0.755   1.798   7.800 -0.7768 -0.6760  0.4379
  157MOL0     C21554   0.761   1.891   7.913  0.4771 -0.5601  0.7543
  157MOL0     C21555   0.832   1.865   8.032 -0.2903 -0.2057 -0.0079
  157MOL0     C21556   0.797   1.953   8.152 -0.3189 -0.1517 -0.2405
  157MOL0     C21557   0.914   1.750   8.039 -0.9684  1.2149  0.4010
  157MOL0     C21558   1.002   1.716   8.152 -0.3018  0.5291  0.3019
  157MOL0     O21559   1.010   1.799   8.272  0.0043  0.1285  0.7601
  157MOL0     C21560   1.089   1.752   8.369 -0.2064  0.3306 -0.3078
  157MOL0     C21561   1.194   1.829   8.414  0.0162  0.5495  1.0867
  157MOL0     C21562   1.266   1.798   8.529 -0.4493  0.1960  0.4023
  157MOL0     C21563   1.236   1.674   8.593  1.0242  0.4598  0.2383
  157MOL0     O21564   1.335   1.636   8.686  0.7945 -0.4359 -0.5892
  157MOL0     C21565   1.283   1.646   8.823 -1.3535 -0.7131 -0.4654
  157MOL0     C21566   1.252   1.790   8.857  0.5529 -0.2377 -0.2878
  157MOL0     C21567   1.382   1.862   8.888  0.3898 -1.5266 -0.7527
  157MOL0     C21568   1.362   2.011   8.851 -0.8297  0.3035 -1.1576
  157MOL0     C21569   1.485   2.096   8.886 -0.4555 -0.1184 -0.3290
  157MOL0     C21570   1.466   2.245   8.860 -0.3090  0.1152  0.8835
  157MOL0     C21571   1.595   2.313   8.901  0.4278 -0.7150  0.0240
  157MOL0     C21572   1.579   2.467   8.901  0.2692  1.0429 -0.9531
  157MOL0    Cl21573   1.555   2.507   8.726 -0.1349  0.2248 -0.0189
  157MOL0     C21574   1.119   1.595   8.553 -0.4790  0.4275  0.3342
  157MOL0     C21575   1.040   1.648   8.456 -0.3031  1.1067 -0.8907
  157MOL0     O21576   1.064   1.610   8.134 -0.7368 -0.9773 -0.2832
  157MOL0     C21577   0.914   1.659   7.919  0.4258  0.1364  0.3160
  157MOL0     C21578   0.833   1.678   7.809 -0.2579 -0.5201  0.4256
  157MOL0     N21579   0.347   1.628   7.241 -0.3570 -0.1510 -0.4077
  157MOL0     N21580   0.344   1.602   7.115 -0.0667 -0.2638  0.0350
  157MOL0     C21581   0.357   1.780   5.838  1.1772 -0.1836 -0.7637
  157MOL0     C21582   0.318   1.841   5.724 -0.5225 -0.1503  0.2632
  157MOL0     C21583   0.073   2.008   5.396  0.5792  1.5235  0.4019
  157MOL0     C21584  -0.037   1.944   5.328 -0.2999  1.0440 -0.8526
  157MOL0     C21585  -0.073   1.986   5.208 -0.3097 -0.4777 -0.5542
  157MOL0     C21586  -0.009   2.085   5.145 -0.0394 -0.8654  0.1687
  157MOL0     O21587  -0.046   2.144   5.028  0.0042  0.6361 -0.0637
  157MOL0     C21588   0.037   2.148   4.915  0.4580  0.4209  1.0125
  157MOL0     C21589   0.058   2.296   4.877  0.4211 -0.4211  0.2895
  157MOL0     C21590   0.134   2.316   4.753 -0.6962 -0.6058  0.3539
  157MOL0     C21591   0.218   2.434   4.745  0.6775  0.5207  0.0359
  157MOL0     C21592   0.330   2.421   4.646  0.3057  0.1663  0.2338
  157MOL0     C21593   0.418   2.410   4.560  0.3935  0.1067 -0.5975
  157MOL0     C21594   0.106   2.150   5.210  0.0743 -0.2629  0.1023
  157MOL0     C21595   0.154   2.116   5.334  1.1200  0.4395  0.2114
  157MOL0     C21596   0.297   2.165   5.382  1.2323 -0.8692  0.4437
  157MOL0     H21597   0.138   2.111   5.855  0.8544  0.7773  0.3404
  157MOL0     H21598   0.221   1.994   6.061 -0.9418  2.1165 -1.0387
  157MOL0     H21599   0.470   1.977   6.129  3.2562  0.2924  1.6055
  157MOL0     H21600   0.530   1.829   6.195  0.7388 -0.2852 -2.8458
  157MOL0     H21601   0.416   1.986   6.352  2.1451 -1.0560 -0.8414
  157MOL0     H21602   0.253   1.930   6.277  0.1095 -0.5983  2.5996
  157MOL0     H21603   0.269   1.811   6.463  1.3159  4.2402  0.0074
  157MOL0     H21604   0.329   1.696   6.325  1.2223  0.6418 -0.9032
  157MOL0     H21605   0.485   1.630   6.451 -2.8774  0.1351  0.5745
  157MOL0     H21606   0.562   1.781   6.412  0.1413  0.0900  0.3681
  157MOL0     H21607   0.385   1.832   6.645  0.1090 -1.1773  0.3471
  157MOL0     H21608   0.556   1.820   6.648  1.0420  0.4625 -1.8395
  157MOL0     H21609   0.357   1.571   6.677 -0.9498 -0.9191  1.9517
  157MOL0     H21610   0.534   1.560   6.655 -1.9103 -1.0537 -2.0892
  157MOL0     H21611   0.549   1.696   6.881  1.5014  1.0446 -2.3909
  157MOL0     H21612   0.441   1.549   6.871 -1.3372  0.7192 -2.5414
  157MOL0     H21613   0.323   1.828   6.851  1.9522  0.8687  1.8768
  157MOL0     H21614   0.250   1.665   6.851 -0.6207  0.1386 -0.2470
  157MOL0     H21615   0.319   1.937   7.118 -0.4491 -1.1782 -2.5146
  157MOL0     H21616   0.272   1.766   7.473  1.4556 -1.8869 -2.1423
  157MOL0     H21617   0.275   1.926   7.396 -1.7812 -0.5297  2.3681
  157MOL0     H21618   0.526   1.761   7.476  1.7161  0.6640 -1.4438
  157MOL0     H21619   0.533   1.917   7.405 -2.1374  1.5486 -0.2548
  157MOL0     H21620   0.385   1.978   7.644 -1.4046 -1.6790 -0.7727
  157MOL0     H21621   0.432   1.803   7.666  0.1892 -0.7878 -2.4267
  157MOL0     H21622   0.646   1.981   7.581 -0.7807 -3.3663 -2.0973
  157MOL0     H21623   0.588   1.993   7.756 -4.2256 -1.1900  0.3663
  157MOL0     H21624   0.709   1.986   7.900  0.9166 -0.7579 -3.8360
  157MOL0     H21625   0.743   1.901   8.231 -2.5563  2.1667 -0.0907
  157MOL0     H21626   0.731   2.037   8.125  0.6731  0.9718  0.7071
  157MOL0     H21627   0.887   2.001   8.192 -0.9095 -0.7433  1.9011
  157MOL0     H21628   1.222   1.907   8.344  1.2482 -0.9331 -0.1472
  157MOL0     H21629   1.349   1.860   8.562 -0.7847  0.0614  1.5310
  157MOL0     H21630   1.195   1.583   8.839 -0.9250 -0.9592  1.0257
  157MOL0     H21631   1.353   1.595   8.890  0.2661  0.0303 -1.5410
  157MOL0     H21632   1.180   1.840   8.792  1.3913 -0.3682 -1.3355
  157MOL0     H21633   1.204   1.786   8.955 -1.7867 -1.6863 -1.4136
  157MOL0     H21634   1.458   1.830   8.817  1.5485  0.7640 -0.6344
  157MOL0     H21635   1.401   1.848   8.995  1.1221 -1.0603 -0.8197
  157MOL0     H21636   1.273   2.041   8.907 -0.9082 -2.2596  0.2393
  157MOL0     H21637   1.342   2.020   8.744 -1.3012 -1.1227 -1.2151
  157MOL0     H21638   1.507   2.083   8.992 -0.8221 -1.7233 -0.4117
  157MOL0     H21639   1.573   2.062   8.831 -0.9342 -1.0030 -0.5741
  157MOL0     H21640   1.377   2.282   8.912 -0.9404  2.5310 -1.6915
  157MOL0     H21641   1.442   2.255   8.754  1.5497 -4.5086 -0.1790
  157MOL0     H21642   1.675   2.290   8.830 -0.6932  0.7589 -1.8327
  157MOL0     H21643   1.626   2.286   9.002 -2.7028  0.4615  1.4268
  157MOL0     H21644   1.673   2.513   8.933 -0.1143  0.3172  1.3491
  157MOL0     H21645   1.494   2.503   8.959  3.0204  1.9683  2.9383
  157MOL0     H21646   1.109   1.496   8.596  0.2490  0.4132  0.4902
  157MOL0     H21647   0.957   1.588   8.420  0.0104 -0.4903  0.9101
  157MOL0     H21648   0.988   1.580   7.914 -1.9935 -2.1958 -2.6686
  157MOL0     H21649   0.835   1.597   7.737 -0.1921 -0.2383  0.1083
  157MOL0     H21650   0.399   1.680   5.835  3.0018  0.5762 -2.5189
  157MOL0     H21651   0.328   1.782   5.634  0.0421  0.8833 -0.3756
  157MOL0     H21652  -0.081   1.850   5.360  0.1428  0.8514 -0.8061
  157MOL0     H21653  -0.151   1.934   5.153 -1.3331 -0.3664  0.7326
  157MOL0     H21654   0.141   2.114   4.927  1.1366  0.6949 -2.8318
  157MOL0     H21655  -0.006   2.097   4.828  1.1333 -3.0895  2.5642
  157MOL0     H21656   0.106   2.348   4.960 -0.9104  1.9995 -0.3587
  157MOL0     H21657  -0.043   2.335   4.861  0.4555 -1.1678 -2.0258
  157MOL0     H21658   0.195   2.225   4.745  1.5156  0.8120  0.5586
  157MOL0     H21659   0.053   2.318   4.679 -1.2722  2.4577  0.9380
  157MOL0     H21660   0.255   2.474   4.840  3.1223 -0.0889 -0.6069
  157MOL0     H21661   0.149   2.511   4.708 -0.9710  0.2066  2.2197
  157MOL0     H21662   0.485   2.400   4.478 -0.5815  2.8766 -1.8428
  157MOL0     H21663   0.162   2.231   5.164 -1.2356  0.3432 -0.4486
  157MOL0     H21664   0.346   2.073   5.415 -1.5811 -1.7132  2.7799
  157MOL0     H21665   0.350   2.194   5.292 -0.5649 -2.8079 -1.3692
  157MOL0     H21666   0.288   2.238   5.463 -1.0076 -0.2379 -0.2795
  158MOL0     O21667   6.595   8.027   3.612 -0.2023 -0.0932 -0.0182
  158MOL0     C21668   6.640   7.907   3.582 -0.3305 -0.7229  0.7366
  158MOL0     O21669   6.748   7.840   3.654 -0.1469 -0.1105  0.5200
  158MOL0     C21670   6.798   7.901   3.768  1.1253 -0.0465 -0.2591
  158MOL0     C21671   6.708   7.942   3.870 -0.8959 -0.1261 -0.4897
  158MOL0     C21672   6.764   7.994   3.986 -0.0023 -0.4213 -0.7492
  158MOL0     C21673   6.899   7.994   4.014 -1.0650 -0.7130 -0.9356
  158MOL0     O21674   6.957   8.023   4.136 -0.1943  0.6824 -0.1908
  158MOL0     C21675   6.880   7.993   4.252  0.3722  0.5204  0.3298
  158MOL0     C21676   6.975   7.957   4.370  0.2966  0.7468  0.2362
  158MOL0     C21677   7.055   7.832   4.344  0.2683 -0.1656 -0.5810
  158MOL0     C21678   7.108   7.762   4.471 -0.3500 -0.0047 -0.1381
  158MOL0     C21679   7.240   7.683   4.455  1.3910  0.2048  0.0085
  158MOL0     C21680   7.351   7.755   4.371 -0.1815  0.2070  0.0873
  158MOL0     C21681   7.461   7.657   4.342  0.5645 -0.0621 -0.3491
  158MOL0     C21682   7.595   7.728   4.334  0.5011  1.3142 -0.1159
  158MOL0     N21683   7.708   7.639   4.299 -1.1441 -0.0374  0.2706
  158MOL0     C21684   7.740   7.518   4.356  0.0493  0.9831 -0.1391
  158MOL0     C21685   7.857   7.489   4.295  0.0280  0.1851  0.0359
  158MOL0     C21686   7.936   7.374   4.353  0.1554  0.1442  0.0415
  158MOL0     C21687   8.084   7.384   4.305  0.2415 -0.4087  0.2025
  158MOL0     C21688   8.161   7.261   4.342  0.4062  0.3344  0.3421
  158MOL0     C21689   8.162   7.167   4.227  0.2168  0.3565  0.1563
  158MOL0     O21690   8.231   7.045   4.256  0.2582 -0.7856 -0.2309
  158MOL0     C21691   8.358   7.042   4.293  0.1798  0.2507 -0.2226
  158MOL0     C21692   8.381   6.958   4.396  0.3919  0.1280  0.0341
  158MOL0     C21693   8.500   6.956   4.474 -0.4590  0.6934  0.4596
  158MOL0     C21694   8.515   6.866   4.591 -0.8481  0.0838  1.0130
  158MOL0     C21695   8.613   7.031   4.416  0.4460  0.5778 -0.1659
  158MOL0     C21696   8.752   7.039   4.457 -0.5278  0.6777 -0.7764
  158MOL0     O21697   8.852   7.054   4.354  0.6102  0.7681  1.0569
  158MOL0     C21698   8.973   7.094   4.398 -0.8300 -0.6004  0.5883
  158MOL0     C21699   9.016   7.228   4.398 -0.8961  0.5342  0.0300
  158MOL0     C21700   9.139   7.262   4.453 -0.0260 -0.0826  1.2637
  158MOL0     C21701   9.228   7.167   4.500 -0.3822  0.1309 -0.0869
  158MOL0     O21702   9.356   7.206   4.535 -0.2687 -0.3141  0.1599
  158MOL0     C21703   9.444   7.099   4.582  0.3056  0.2621 -0.1029
  158MOL0     C21704   9.587   7.164   4.580  0.9610  0.2447  0.4357
  158MOL0     C21705   9.613   7.245   4.702  0.5912 -1.4190 -0.3338
  158MOL0     C21706   9.633   7.163   4.833  0.2589 -0.2198 -0.3071
  158MOL0     C21707   9.574   7.229   4.953 -0.5268 -0.0665  0.2589
  158MOL0     C21708   9.664   7.350   5.000 -0.0199  0.3909 -1.0992
  158MOL0     C21709   9.628   7.390   5.143  0.1713  0.5467 -0.7906
  158MOL0     C21710   9.686   7.528   5.183 -0.2853 -0.2421  0.9204
  158MOL0    Cl21711   9.858   7.537   5.140  0.4289  0.2287  0.2385
  158MOL0     C21712   9.182   7.038   4.507  0.1510  1.2178 -0.1067
  158MOL0     C21713   9.062   7.001   4.454  0.1787  0.1284 -0.0878
  158MOL0     O21714   8.774   7.034   4.578 -0.1530 -0.1690 -0.1356
  158MOL0     C21715   8.592   7.110   4.303 -0.1730  0.4623  0.2929
  158MOL0     C21716   8.467   7.126   4.245 -0.3052 -0.0731  0.7952
  158MOL0     N21717   7.899   7.596   4.217  0.0472 -0.0058 -0.4928
  158MOL0     N21718   7.806   7.686   4.219  0.3114  1.2464 -0.3031
  158MOL0     C21719   6.986   7.956   3.911  0.4669 -0.2500  0.3567
  158MOL0     C21720   6.934   7.912   3.790  0.8623 -1.0181 -0.2200
  158MOL0     C21721   6.600   7.844   3.451 -0.1691  0.6844 -0.4167
  158MOL0     C21722   6.697   7.752   3.402  0.3757  0.1624  1.0258
  158MOL0     C21723   6.666   7.675   3.290  0.5733 -0.0475 -0.3227
  158MOL0     C21724   6.546   7.694   3.221  0.8013 -0.7173 -0.2474
  158MOL0     O21725   6.500   7.618   3.115  0.5055 -0.0434  0.1948
  158MOL0     C21726   6.589   7.613   3.003  0.8427  0.0662 -0.1365
  158MOL0     C21727   6.533   7.517   2.902  0.4454  0.3595 -0.3798
  158MOL0     C21728   6.586   7.369   2.925 -0.4736  0.5327 -1.3372
  158MOL0     C21729   6.511   7.264   2.850  1.0917  0.1188 -0.0563
  158MOL0     C21730   6.544   7.132   2.911  0.1892 -0.1121 -0.5138
  158MOL0     C21731   6.548   7.016   2.929 -0.0902  0.9423 -1.0194
  158MOL0     C21732   6.452   7.791   3.260 -0.1842 -0.2551 -0.5512
  158MOL0     C21733   6.481   7.869   3.376 -0.5249 -0.5491 -0.1591
  158MOL0     C21734   6.373   7.968   3.420 -0.6133 -0.1393  0.3146
  158MOL0     H21735   6.602   7.936   3.850 -1.6560  2.8191  1.8693
  158MOL0     H21736   6.699   8.026   4.067  1.4640  1.5988 -0.2834
  158MOL0     H21737   6.805   7.916   4.229 -0.7694  1.4757  0.7491
  158MOL0     H21738   6.820   8.078   4.285 -0.1417 -0.5407  2.2746
  158MOL0     H21739   7.041   8.043   4.385  1.3151 -0.3610  2.7292
  158MOL0     H21740   6.911   7.936   4.456 -1.6746  1.7831 -0.8999
  158MOL0     H21741   6.992   7.753   4.302  3.8847 -3.6656 -0.0174
  158MOL0     H21742   7.133   7.848   4.269  1.7103  2.8846  1.3527
  158MOL0     H21743   7.127   7.835   4.550  0.6805 -1.7094  1.2667
  158MOL0     H21744   7.039   7.699   4.528  1.8365 -1.8452  0.6527
  158MOL0     H21745   7.215   7.586   4.410  0.3993 -0.0241  0.9912
  158MOL0     H21746   7.275   7.677   4.559  1.1139  2.6622  0.3110
  158MOL0     H21747   7.326   7.802   4.275 -1.5103  1.9853  1.2150
  158MOL0     H21748   7.374   7.839   4.437 -1.8142  1.9031 -1.3625
  158MOL0     H21749   7.444   7.608   4.246 -0.0554  0.6289 -0.6019
  158MOL0     H21750   7.457   7.571   4.410 -2.9928  1.9887  2.3918
  158MOL0     H21751   7.594   7.807   4.259 -0.4957  0.3255 -1.1901
  158MOL0     H21752   7.602   7.783   4.429 -0.7722 -0.9948  1.4247
  158MOL0     H21753   7.693   7.451   4.428 -0.4774 -0.6978 -1.9458
  158MOL0     H21754   7.890   7.279   4.324 -0.4431 -0.4669  2.7511
  158MOL0     H21755   7.937   7.381   4.462 -1.9588  2.8277 -0.0015
  158MOL0     H21756   8.084   7.403   4.197 -1.4211  1.2247  0.4491
  158MOL0     H21757   8.126   7.471   4.355  1.8988 -1.4712  0.7387
  158MOL0     H21758   8.262   7.290   4.371  0.0105  1.9618  0.2108
  158MOL0     H21759   8.126   7.210   4.433 -0.6608 -0.7809 -0.6591
  158MOL0     H21760   8.059   7.137   4.206  1.1923 -3.8013  0.4238
  158MOL0     H21761   8.215   7.219   4.146  0.3595 -1.0037 -0.6593
  158MOL0     H21762   8.303   6.888   4.425 -0.4502  1.7393  1.9276
  158MOL0     H21763   8.480   6.914   4.683 -1.6664  2.6161 -0.5174
  158MOL0     H21764   8.618   6.833   4.602 -0.7566  0.7713  2.4763
  158MOL0     H21765   8.445   6.783   4.571  0.5637 -1.1162  0.8988
  158MOL0     H21766   8.946   7.307   4.374 -2.3542 -1.3032 -2.1822
  158MOL0     H21767   9.162   7.367   4.443 -1.2181 -0.0062 -1.6727
  158MOL0     H21768   9.422   7.065   4.684 -0.0585 -2.9906 -1.1411
  158MOL0     H21769   9.444   7.016   4.511  0.4396  1.6582 -1.7949
  158MOL0     H21770   9.658   7.083   4.559  1.0340  0.2069  0.8363
  158MOL0     H21771   9.588   7.232   4.494 -0.7545  2.4287  2.0505
  158MOL0     H21772   9.533   7.317   4.715  0.3323 -2.1085  2.8113
  158MOL0     H21773   9.704   7.305   4.710  0.0272 -0.7756  1.9686
  158MOL0     H21774   9.741   7.141   4.832  1.1186  3.1747  1.9864
  158MOL0     H21775   9.571   7.074   4.820 -2.9941  2.0195 -1.2187
  158MOL0     H21776   9.471   7.250   4.924 -0.6282 -1.9508 -0.9003
  158MOL0     H21777   9.579   7.160   5.037  3.2649 -0.9220 -0.4545
  158MOL0     H21778   9.640   7.429   4.929  2.0667  2.0900 -0.0284
  158MOL0     H21779   9.769   7.329   4.976 -0.5543 -2.6709 -1.0750
  158MOL0     H21780   9.667   7.308   5.204  0.0217 -1.4601 -3.2108
  158MOL0     H21781   9.520   7.397   5.158  0.2672 -2.0473  2.4065
  158MOL0     H21782   9.661   7.560   5.285 -1.6294  1.7976  0.0297
  158MOL0     H21783   9.644   7.610   5.124  0.9641 -2.3073 -3.2804
  158MOL0     H21784   9.238   6.958   4.553  0.8000  1.8759  0.2592
  158MOL0     H21785   9.027   6.898   4.458 -0.2198  0.3087  1.8136
  158MOL0     H21786   8.671   7.152   4.243  0.9673 -3.1461 -1.0358
  158MOL0     H21787   8.454   7.196   4.164 -2.0338 -1.5419 -0.2783
  158MOL0     H21788   7.094   7.959   3.928  0.1786  1.6362  2.2940
  158MOL0     H21789   7.005   7.884   3.713  0.1498 -1.1431 -0.8301
  158MOL0     H21790   6.783   7.723   3.461  1.0545 -1.3878 -0.6357
  158MOL0     H21791   6.741   7.605   3.256  2.3852  1.8141 -0.3802
  158MOL0     H21792   6.585   7.716   2.965 -0.6047  0.4913  1.0392
  158MOL0     H21793   6.692   7.585   3.028  0.6617 -0.4794  0.0012
  158MOL0     H21794   6.559   7.553   2.802  1.8187  2.8802  0.7885
  158MOL0     H21795   6.425   7.534   2.895 -0.0691 -1.7729  1.3781
  158MOL0     H21796   6.690   7.355   2.894 -0.3264 -1.2560 -0.1652
  158MOL0     H21797   6.589   7.348   3.033  0.0162 -1.8359 -1.7582
  158MOL0     H21798   6.550   7.254   2.748 -2.6166  0.6990 -1.6999
  158MOL0     H21799   6.403   7.281   2.843  1.4007  2.9216  0.6691
  158MOL0     H21800   6.532   6.910   2.933  0.6298  0.8219 -1.1384
  158MOL0     H21801   6.361   7.811   3.204 -0.2933 -2.1126 -1.0871
  158MOL0     H21802   6.273   7.936   3.387 -1.6613  2.4751  0.7156
  158MOL0     H21803   6.359   7.983   3.527 -3.4002 -1.7133  0.2797
  158MOL0     H21804   6.380   8.060   3.362 -1.6114 -0.4937 -0.4055
  159MOL0     O21805   9.074   3.703   1.716 -0.4051  0.6310  0.1170
  159MOL0     C21806   9.137   3.700   1.822  0.4063 -0.2516  0.3398
  159MOL0     O21807   9.090   3.634   1.936 -0.3353  0.2330  0.2182
  159MOL0     C21808   8.962   3.590   1.932  0.5916 -0.6562  0.1895
  159MOL0     C21809   8.855   3.680   1.966 -0.1137  0.2081  0.7623
  159MOL0     C21810   8.719   3.638   1.961 -0.5016 -0.2122  1.1422
  159MOL0     C21811   8.695   3.521   1.890  0.2146  0.4670  0.4799
  159MOL0     O21812   8.562   3.492   1.864 -0.0248  0.3665 -0.1193
  159MOL0     C21813   8.538   3.393   1.763 -0.5283 -0.3077 -0.0332
  159MOL0     C21814   8.391   3.383   1.732 -1.9001  0.6418  0.0615
  159MOL0     C21815   8.336   3.493   1.635 -0.0527  0.5059 -0.4188
  159MOL0     C21816   8.180   3.502   1.613  0.7835 -0.1555  0.2066
  159MOL0     C21817   8.143   3.520   1.465  0.1007 -1.3500 -1.7937
  159MOL0     C21818   7.985   3.505   1.448 -0.0749 -0.4771  0.4871
  159MOL0     C21819   7.926   3.638   1.493 -0.7835 -0.3225 -1.1165
  159MOL0     C21820   7.776   3.625   1.527  0.3911 -0.2297  0.3385
  159MOL0     N21821   7.760   3.554   1.650 -0.0069 -0.9397  0.6738
  159MOL0     C21822   7.802   3.593   1.775  0.0199  0.3638 -0.8019
  159MOL0     C21823   7.801   3.479   1.855 -0.3279  0.2717 -0.7394
  159MOL0     C21824   7.844   3.471   1.998 -0.0876  0.8399 -0.4807
  159MOL0     C21825   7.990   3.516   1.992  0.0161 -0.8186 -0.4359
  159MOL0     C21826   8.022   3.561   2.133  0.4239  0.5928  0.5273
  159MOL0     C21827   8.170   3.583   2.150  0.2734  0.4338  1.2135
  159MOL0     O21828   8.234   3.456   2.128  1.0723 -0.2266 -0.1052
  159MOL0     C21829   8.376   3.463   2.151  0.0383  0.2038 -1.3355
  159MOL0     C21830   8.436   3.342   2.131 -0.0145 -0.3037 -0.6019
  159MOL0     C21831   8.573   3.320   2.175 -0.3405 -0.0040 -0.3260
  159MOL0     C21832   8.630   3.185   2.124  1.1171  0.1639 -0.1222
  159MOL0     C21833   8.636   3.423   2.249 -0.3550 -0.3589 -0.9124
  159MOL0     C21834   8.757   3.408   2.320 -0.2337  0.0392  0.1463
  159MOL0     O21835   8.773   3.490   2.423  0.0968 -0.1484 -0.2628
  159MOL0     C21836   8.900   3.531   2.446  0.2035  0.3130 -0.9985
  159MOL0     C21837   8.986   3.478   2.540 -0.8422  0.6833 -0.2281
  159MOL0     C21838   9.122   3.527   2.551  0.5436  0.0653  1.0000
  159MOL0     C21839   9.161   3.624   2.464 -0.8819  0.7209  0.4434
  159MOL0     O21840   9.281   3.688   2.484 -0.4217 -0.2760 -0.1356
  159MOL0     C21841   9.397   3.606   2.457  0.4887 -0.1410 -0.6129
  159MOL0     C21842   9.431   3.597   2.309 -0.4211  0.4475 -0.2103
  159MOL0     C21843   9.446   3.736   2.244  0.0999 -0.0531 -0.2734
  159MOL0     C21844   9.552   3.835   2.314 -1.0814 -0.4590 -0.8410
  159MOL0     C21845   9.697   3.777   2.308  0.1718 -0.1771 -0.4037
  159MOL0     C21846   9.797   3.883   2.344 -0.4712 -0.0263 -0.1943
  159MOL0     C21847   9.772   3.957   2.483 -0.1521 -0.0456 -0.2341
  159MOL0     C21848   9.769   4.110   2.475 -0.3637 -0.6784 -0.6512
  159MOL0    Cl21849   9.728   4.185   2.629 -0.0926  0.2637 -0.3497
  159MOL0     C21850   9.083   3.670   2.363  0.2465 -0.3653 -0.2612
  159MOL0     C21851   8.949   3.624   2.356 -0.5582 -0.2956 -0.7677
  159MOL0     O21852   8.841   3.324   2.288 -0.1673 -0.7671 -0.0188
  159MOL0     C21853   8.566   3.550   2.260 -0.0089 -0.4772  0.1966
  159MOL0     C21854   8.439   3.569   2.211 -0.4972 -0.5073  0.3382
  159MOL0     N21855   7.755   3.370   1.779 -0.7016  0.1473  0.6327
  159MOL0     N21856   7.726   3.420   1.657  0.4098  0.4816 -0.5251
  159MOL0     C21857   8.800   3.426   1.864  0.7182  0.2360 -0.0502
  159MOL0     C21858   8.931   3.458   1.887 -1.2932  0.0136 -0.1319
  159MOL0     C21859   9.255   3.780   1.838  1.3172 -0.4538 -0.4828
  159MOL0     C21860   9.272   3.846   1.962 -0.4387  0.5684  0.0209
  159MOL0     C21861   9.378   3.928   1.995  0.3667 -0.2102 -0.8112
  159MOL0     C21862   9.477   3.959   1.899  0.4629  0.7360 -0.3488
  159MOL0     O21863   9.581   4.042   1.913  0.4574 -0.1352  0.8423
  159MOL0     C21864   9.606   4.129   2.029 -0.0193  0.2638 -0.3713
  159MOL0     C21865   9.707   4.238   1.971 -0.1055  0.4735 -0.1615
  159MOL0     C21866   9.746   4.340   2.070 -0.5753  0.4142 -0.9256
  159MOL0     C21867   9.662   4.457   2.065  0.6151  0.0192  0.2926
  159MOL0     C21868   9.693   4.569   1.965 -0.1411  1.6174  0.0322
  159MOL0     C21869   9.717   4.650   1.878 -0.0998  0.0244 -0.2137
  159MOL0     C21870   9.454   3.895   1.775 -0.6605 -0.3869 -0.2186
  159MOL0     C21871   9.356   3.815   1.741 -0.3521  0.6580 -0.1552
  159MOL0     C21872   9.371   3.755   1.601 -0.1335 -0.1152 -0.8649
  159MOL0     H21873   8.883   3.778   2.002 -1.3651  0.2857  1.6041
  159MOL0     H21874   8.641   3.708   1.991 -0.8826  0.8983 -2.0978
  159MOL0     H21875   8.564   3.290   1.787 -1.5208 -0.6055 -0.1668
  159MOL0     H21876   8.586   3.423   1.669  0.2729  1.2684  0.8588
  159MOL0     H21877   8.386   3.282   1.691  2.4099 -0.5271  1.7957
  159MOL0     H21878   8.330   3.381   1.823 -0.3796  3.0009  1.2311
  159MOL0     H21879   8.376   3.592   1.659 -3.3255  1.6662  0.8771
  159MOL0     H21880   8.374   3.464   1.537 -1.8162 -1.0041 -0.7178
  159MOL0     H21881   8.131   3.408   1.641  1.3433 -0.3768  0.4596
  159MOL0     H21882   8.138   3.574   1.684 -0.3776 -0.1765 -0.4439
  159MOL0     H21883   8.185   3.438   1.406  0.5334 -1.1564 -1.7553
  159MOL0     H21884   8.181   3.617   1.430  1.1242  0.6410  3.7992
  159MOL0     H21885   7.967   3.486   1.342  0.4744 -1.2471  0.5200
  159MOL0     H21886   7.943   3.419   1.501  0.9369  1.0902  4.1256
  159MOL0     H21887   7.959   3.706   1.414  1.8707  1.0987  1.0196
  159MOL0     H21888   7.972   3.669   1.587 -1.7745 -0.5353 -0.5422
  159MOL0     H21889   7.728   3.723   1.533  0.8851  0.0870 -0.6985
  159MOL0     H21890   7.723   3.564   1.452 -0.6526  0.3896  0.5462
  159MOL0     H21891   7.842   3.690   1.804  0.1815  0.1474 -0.2906
  159MOL0     H21892   7.839   3.368   2.032  0.0546  0.8641 -0.3820
  159MOL0     H21893   7.785   3.545   2.052  0.0789  0.2787  0.4801
  159MOL0     H21894   8.052   3.430   1.965  1.4565 -0.0317  0.2158
  159MOL0     H21895   8.014   3.601   1.927  1.2745  1.1245  2.3886
  159MOL0     H21896   7.978   3.660   2.143 -1.4490 -0.3545  2.5207
  159MOL0     H21897   7.976   3.493   2.206 -0.4736 -1.5137 -1.8373
  159MOL0     H21898   8.194   3.658   2.074 -5.8366 -0.4522 -2.2600
  159MOL0     H21899   8.175   3.634   2.247 -3.7847 -1.8958  2.9246
  159MOL0     H21900   8.369   3.274   2.081  1.2773 -2.0273 -0.0794
  159MOL0     H21901   8.598   3.174   2.020  1.1445  0.6391 -0.1825
  159MOL0     H21902   8.603   3.101   2.189  3.5175 -0.7369 -0.1953
  159MOL0     H21903   8.739   3.180   2.120  1.3407  1.8484  2.0676
  159MOL0     H21904   8.960   3.387   2.593 -1.3840  0.4642 -0.8546
  159MOL0     H21905   9.183   3.473   2.622  0.9332 -0.2960  0.4029
  159MOL0     H21906   9.486   3.649   2.505 -0.5840 -0.8808  2.1836
  159MOL0     H21907   9.383   3.507   2.502  1.3227  0.2564  0.5821
  159MOL0     H21908   9.515   3.529   2.294 -1.1239 -0.4407 -0.1672
  159MOL0     H21909   9.341   3.549   2.269 -0.0682 -0.9054  0.5783
  159MOL0     H21910   9.351   3.788   2.254  0.0123 -0.0943 -0.8544
  159MOL0     H21911   9.466   3.717   2.138  1.3245  1.1595 -0.2893
  159MOL0     H21912   9.520   3.858   2.416 -1.2422 -0.9033 -0.7883
  159MOL0     H21913   9.544   3.936   2.275 -0.3235  0.0063  0.1750
  159MOL0     H21914   9.708   3.702   2.387  1.7832 -0.6182 -0.9996
  159MOL0     H21915   9.714   3.737   2.208 -0.9734 -0.1857 -0.6045
  159MOL0     H21916   9.782   3.951   2.260  2.0923  0.7868 -0.0788
  159MOL0     H21917   9.894   3.833   2.344 -1.3339 -1.8744  1.5801
  159MOL0     H21918   9.839   3.926   2.565 -1.8337  0.0845  1.2514
  159MOL0     H21919   9.683   3.917   2.533  1.0009 -1.0284  1.1195
  159MOL0     H21920   9.690   4.139   2.405 -0.9700 -1.9978 -0.5448
  159MOL0     H21921   9.868   4.139   2.437  0.3418  0.0590  1.6272
  159MOL0     H21922   9.111   3.751   2.296  2.1982  0.7502  1.7654
  159MOL0     H21923   8.884   3.659   2.276  1.3903  2.3415 -1.3536
  159MOL0     H21924   8.607   3.632   2.318 -0.7676  0.3235 -0.3698
  159MOL0     H21925   8.398   3.667   2.234 -0.7453 -0.3899 -0.5821
  159MOL0     H21926   8.786   3.325   1.828 -2.2151  0.6180 -0.2186
  159MOL0     H21927   9.012   3.386   1.872 -2.8855 -1.6352 -1.2664
  159MOL0     H21928   9.189   3.829   2.029  0.1306  0.9408  0.8329
  159MOL0     H21929   9.386   3.967   2.096  1.3698 -0.5373 -0.7532
  159MOL0     H21930   9.513   4.169   2.071  1.2776  0.8066  2.1900
  159MOL0     H21931   9.653   4.070   2.108 -0.3956 -1.9184 -1.6919
  159MOL0     H21932   9.670   4.285   1.880 -4.3805 -1.0130  0.5789
  159MOL0     H21933   9.795   4.178   1.944 -0.2508  1.5390 -3.4420
  159MOL0     H21934   9.742   4.300   2.171  0.0460 -0.2290 -1.1511
  159MOL0     H21935   9.849   4.374   2.058  0.3249 -0.4378  2.9254
  159MOL0     H21936   9.667   4.504   2.164 -1.8946 -2.2063  1.5965
  159MOL0     H21937   9.559   4.422   2.050 -0.1141  1.1157  2.2911
  159MOL0     H21938   9.722   4.721   1.797  2.2681 -0.1994 -0.3438
  159MOL0     H21939   9.540   3.914   1.711 -0.5407 -5.1682 -1.8786
  159MOL0     H21940   9.431   3.664   1.606 -0.0094 -0.0935 -1.9176
  159MOL0     H21941   9.274   3.721   1.563 -0.9625  0.1774  0.8773
  159MOL0     H21942   9.417   3.826   1.533  0.0312  0.5454 -0.0783
  160MOL0     O21943   7.309   5.314   4.743  0.3344 -0.6782 -0.0389
  160MOL0     C21944   7.192   5.349   4.714 -0.4193 -0.2746 -0.5994
  160MOL0     O21945   7.095   5.265   4.675 -0.6180 -0.5395  0.2384
  160MOL0     C21946   7.126   5.136   4.663 -0.2808  0.9211  0.8798
  160MOL0     C21947   7.224   5.086   4.573  0.4192  0.6990  0.7252
  160MOL0     C21948   7.218   4.953   4.535 -0.3943  0.6726  0.7779
  160MOL0     C21949   7.137   4.859   4.597  0.4955 -0.0735  0.0229
  160MOL0     O21950   7.136   4.726   4.572  0.1378 -0.0464 -0.3812
  160MOL0     C21951   7.198   4.674   4.461 -1.2422 -0.0114 -0.3057
  160MOL0     C21952   7.196   4.520   4.454  0.4671 -0.0022  0.7931
  160MOL0     C21953   7.205   4.463   4.313 -0.4519  0.1295  0.3287
  160MOL0     C21954   7.058   4.466   4.258  0.4748 -0.2170  1.1955
  160MOL0     C21955   7.051   4.438   4.110  0.4578  0.1420 -0.5682
  160MOL0     C21956   6.905   4.454   4.065  0.8637  0.2376 -0.2210
  160MOL0     C21957   6.907   4.420   3.917 -0.9063 -0.3194 -0.2125
  160MOL0     C21958   6.898   4.269   3.879  0.1316  0.3095  1.1669
  160MOL0     N21959   6.871   4.231   3.737 -0.1691  0.1064 -0.0026
  160MOL0     C21960   6.890   4.113   3.675 -0.0899 -0.3162 -0.0813
  160MOL0     C21961   6.862   4.140   3.542 -0.6462  0.8772  0.4304
  160MOL0     C21962   6.883   4.042   3.426 -1.0667  0.3220 -0.4718
  160MOL0     C21963   6.801   3.912   3.427 -0.7610 -0.7247 -0.3803
  160MOL0     C21964   6.655   3.941   3.451  0.2870  0.0956  0.8310
  160MOL0     C21965   6.579   3.815   3.463 -0.3038  0.7816 -0.5890
  160MOL0     O21966   6.593   3.735   3.349  0.2615  0.2753 -0.2179
  160MOL0     C21967   6.521   3.772   3.236 -0.2190  0.4477 -0.4721
  160MOL0     C21968   6.405   3.842   3.238  0.5740  0.1686  0.2979
  160MOL0     C21969   6.341   3.866   3.109  0.6210  0.2583 -0.0746
  160MOL0     C21970   6.220   3.951   3.116 -0.0158  0.1897 -0.6469
  160MOL0     C21971   6.392   3.805   2.991  0.1629 -0.1950 -0.1869
  160MOL0     C21972   6.352   3.836   2.851 -0.6802  0.4515  0.4966
  160MOL0     O21973   6.440   3.790   2.753  0.4364  1.1850  0.4169
  160MOL0     C21974   6.395   3.737   2.631  1.0667  0.7693  0.0402
  160MOL0     C21975   6.260   3.722   2.588 -0.1412 -0.1681  0.5175
  160MOL0     C21976   6.234   3.672   2.460 -0.6103  0.2786  0.4726
  160MOL0     C21977   6.344   3.622   2.374 -0.1924 -0.8850 -0.7713
  160MOL0     O21978   6.319   3.570   2.254  0.1289 -0.1267  0.4481
  160MOL0     C21979   6.183   3.563   2.202 -0.5820  0.3122  0.1588
  160MOL0     C21980   6.178   3.476   2.074 -0.1851 -0.2015 -0.2208
  160MOL0     C21981   6.214   3.534   1.941 -0.1724 -0.1866 -0.4107
  160MOL0     C21982   6.202   3.441   1.818  0.3617 -1.1263 -0.7697
  160MOL0     C21983   6.216   3.509   1.688  0.3490 -1.1283 -0.2186
  160MOL0     C21984   6.240   3.411   1.572 -0.7966 -0.0268  0.0022
  160MOL0     C21985   6.343   3.466   1.467  0.1970 -0.7607 -0.8125
  160MOL0     C21986   6.363   3.356   1.356  0.4839  0.2661  0.3995
  160MOL0    Cl21987   6.247   3.379   1.221  0.3161 -0.1309  0.0410
  160MOL0     C21988   6.475   3.643   2.423  0.7256  0.6471  0.8867
  160MOL0     C21989   6.495   3.695   2.549  0.4458  0.3182  0.0652
  160MOL0     O21990   6.243   3.889   2.840  0.6071  0.0729 -0.3159
  160MOL0     C21991   6.515   3.731   3.004  0.8544  0.1610 -0.0608
  160MOL0     C21992   6.575   3.720   3.117 -0.3321  0.4632  0.0270
  160MOL0     N21993   6.809   4.270   3.528 -0.8317  0.2714  0.7258
  160MOL0     N21994   6.809   4.316   3.652  0.6785 -0.7634  0.2830
  160MOL0     C21995   7.053   4.909   4.701 -0.6339 -0.6024 -0.3702
  160MOL0     C21996   7.046   5.048   4.729  0.8468 -0.1694  0.2030
  160MOL0     C21997   7.156   5.492   4.728  0.0125 -0.6524  0.1025
  160MOL0     C21998   7.025   5.528   4.726 -0.4394  0.5025 -0.3575
  160MOL0     C21999   6.981   5.661   4.729 -0.4172 -0.0017  0.7571
  160MOL0     C22000   7.083   5.758   4.752  0.1507  0.0973 -0.4327
  160MOL0     O22001   7.055   5.892   4.783 -0.6561  0.8978 -0.0106
  160MOL0     C22002   6.924   5.918   4.812  0.6620  0.6842  0.1017
  160MOL0     C22003   6.889   6.069   4.836 -0.8453  0.4784  0.1315
  160MOL0     C22004   6.744   6.087   4.856  0.2674  0.6170 -0.0002
  160MOL0     C22005   6.719   6.229   4.907  0.7107 -0.0903  0.0667
  160MOL0     C22006   6.576   6.245   4.892 -0.1767  0.0396 -0.7055
  160MOL0     C22007   6.459   6.232   4.894 -0.0535 -0.0965  0.9557
  160MOL0     C22008   7.216   5.727   4.742  0.5463  0.2634  0.0161
  160MOL0     C22009   7.258   5.595   4.731  0.8094  0.6106  0.3619
  160MOL0     C22010   7.409   5.576   4.725  0.5548 -0.0746  1.3135
  160MOL0     H22011   7.282   5.163   4.523  0.3345  1.7387  2.1799
  160MOL0     H22012   7.262   4.925   4.440 -0.2179 -1.4117  1.4293
  160MOL0     H22013   7.301   4.712   4.460 -1.4139  0.6570  1.8563
  160MOL0     H22014   7.146   4.705   4.370  0.4398  0.8318 -1.0333
  160MOL0     H22015   7.286   4.484   4.506 -0.2265 -1.7030  0.8708
  160MOL0     H22016   7.111   4.481   4.510  1.2697 -2.7107  0.2686
  160MOL0     H22017   7.266   4.529   4.250  2.5303 -2.0683  0.7076
  160MOL0     H22018   7.246   4.363   4.302 -0.9715  0.0618 -1.3793
  160MOL0     H22019   7.004   4.391   4.318  0.6315 -0.1007  1.4852
  160MOL0     H22020   7.006   4.561   4.274  1.2386  0.4515 -0.1568
  160MOL0     H22021   7.082   4.335   4.092 -1.6775 -0.6212 -0.1920
  160MOL0     H22022   7.116   4.509   4.059 -0.7965  1.6254 -0.1680
  160MOL0     H22023   6.840   4.380   4.112  2.1765 -3.4635 -3.6524
  160MOL0     H22024   6.860   4.553   4.077 -0.4375 -0.1866 -1.3410
  160MOL0     H22025   6.993   4.462   3.863 -1.7195  0.8886 -0.5895
  160MOL0     H22026   6.819   4.472   3.880 -0.3190  1.2691  0.5318
  160MOL0     H22027   6.994   4.220   3.897 -1.0536 -2.3993  0.6764
  160MOL0     H22028   6.831   4.221   3.952  0.5570  0.3081  1.5614
  160MOL0     H22029   6.955   4.029   3.699 -1.1744 -1.6564 -1.5940
  160MOL0     H22030   6.987   4.012   3.442 -0.4522  2.3421 -0.4445
  160MOL0     H22031   6.865   4.093   3.331 -2.7384  1.8624  0.6021
  160MOL0     H22032   6.817   3.868   3.329  3.0476  0.2681 -0.3413
  160MOL0     H22033   6.842   3.852   3.509 -2.2828 -1.5677 -0.1927
  160MOL0     H22034   6.634   4.000   3.541 -1.2732  0.0202  0.5521
  160MOL0     H22035   6.611   3.997   3.368 -0.8642  0.3251  1.5645
  160MOL0     H22036   6.602   3.755   3.551  0.1983 -0.9995 -1.8760
  160MOL0     H22037   6.480   3.862   3.473 -0.1654  1.0075 -0.2603
  160MOL0     H22038   6.364   3.895   3.323 -2.5777 -1.5617  0.0034
  160MOL0     H22039   6.206   3.972   3.222  0.1845  3.2832 -1.1376
  160MOL0     H22040   6.126   3.908   3.078 -0.0775  2.1986 -3.0017
  160MOL0     H22041   6.242   4.047   3.068 -0.8128  1.0431  0.6402
  160MOL0     H22042   6.170   3.752   2.641 -0.9149  0.8326 -1.2662
  160MOL0     H22043   6.130   3.665   2.429  0.2042 -0.2743 -2.5135
  160MOL0     H22044   6.114   3.523   2.276 -1.0030  0.2306 -0.2753
  160MOL0     H22045   6.146   3.663   2.178  3.2372  2.3134  1.6735
  160MOL0     H22046   6.239   3.386   2.080  1.4560  0.9058  0.4095
  160MOL0     H22047   6.074   3.446   2.054 -0.5840  0.0478  1.3072
  160MOL0     H22048   6.320   3.563   1.946 -0.0413 -0.9132  2.5662
  160MOL0     H22049   6.139   3.611   1.923 -0.4540  0.1859  2.0312
  160MOL0     H22050   6.100   3.400   1.821 -0.1731  0.2094 -0.2257
  160MOL0     H22051   6.270   3.358   1.840  2.2282  0.6706  0.6987
  160MOL0     H22052   6.123   3.564   1.672  3.0013  3.4470 -1.6211
  160MOL0     H22053   6.298   3.580   1.698 -1.1455  0.5317  0.9241
  160MOL0     H22054   6.149   3.381   1.520 -0.5219  0.6357 -0.8774
  160MOL0     H22055   6.282   3.314   1.602 -1.8987 -1.8985 -3.9023
  160MOL0     H22056   6.436   3.479   1.525 -1.7148  0.4570  2.2331
  160MOL0     H22057   6.305   3.555   1.416 -0.9980 -0.3634  0.6824
  160MOL0     H22058   6.348   3.261   1.409 -0.4393 -0.0383 -0.3749
  160MOL0     H22059   6.463   3.358   1.312  1.2759 -3.2851  1.6697
  160MOL0     H22060   6.563   3.616   2.366  0.5598 -1.7366  1.6205
  160MOL0     H22061   6.593   3.683   2.594  1.3596 -5.1400 -2.6250
  160MOL0     H22062   6.567   3.677   2.926 -1.6504 -1.0406 -0.9882
  160MOL0     H22063   6.661   3.654   3.120 -1.2701 -0.9377 -1.7816
  160MOL0     H22064   6.999   4.829   4.751  0.2568 -1.8331 -1.3065
  160MOL0     H22065   6.976   5.097   4.795  0.1519 -0.2585 -0.4539
  160MOL0     H22066   6.952   5.449   4.741 -0.9816  1.4442  2.9848
  160MOL0     H22067   6.873   5.667   4.725 -0.3458  1.2350 -2.7033
  160MOL0     H22068   6.862   5.886   4.728  3.0548  1.5897 -2.1413
  160MOL0     H22069   6.907   5.860   4.903  2.0728 -3.8223 -2.2599
  160MOL0     H22070   6.915   6.141   4.758 -2.9151  1.1428 -0.0042
  160MOL0     H22071   6.954   6.097   4.919  0.5209 -1.7975 -0.0814
  160MOL0     H22072   6.700   6.072   4.757  2.6525 -0.0673 -1.0385
  160MOL0     H22073   6.707   6.010   4.925  3.0741 -0.3256  0.5734
  160MOL0     H22074   6.781   6.308   4.863  0.7399 -1.0013 -1.6034
  160MOL0     H22075   6.740   6.245   5.013  2.5697 -0.4664 -0.2006
  160MOL0     H22076   6.352   6.230   4.898 -0.1894  1.1767 -1.0192
  160MOL0     H22077   7.283   5.812   4.751 -1.4593  1.9684 -0.3113
  160MOL0     H22078   7.462   5.668   4.698 -2.0719  1.0160 -0.5266
  160MOL0     H22079   7.456   5.538   4.817  0.9226 -0.3968  0.9994
  160MOL0     H22080   7.432   5.502   4.648  2.2221 -0.0577  1.7367
  161MOL0     O22081   4.242   7.856  11.090  1.0398 -0.0880 -0.2713
  161MOL0     C22082   4.192   7.929  11.004 -0.4753  0.2581 -0.6394
  161MOL0     O22083   4.257   8.018  10.924  0.2652 -0.3951 -0.5380
  161MOL0     C22084   4.369   8.070  10.975  0.4088 -0.1763  0.2863
  161MOL0     C22085   4.490   8.037  10.910 -0.2907  0.2507 -0.0691
  161MOL0     C22086   4.609   8.096  10.943 -0.2769  0.3869 -0.4903
  161MOL0     C22087   4.620   8.191  11.048  0.0861 -0.3316 -0.7344
  161MOL0     O22088   4.736   8.260  11.061  0.2075 -0.3031  0.2485
  161MOL0     C22089   4.745   8.347  11.180 -0.5236  2.2930 -0.4612
  161MOL0     C22090   4.880   8.407  11.215  0.6744  0.2211  0.3675
  161MOL0     C22091   4.974   8.291  11.254  0.7669  0.3868 -0.2401
  161MOL0     C22092   5.107   8.357  11.306 -0.0721  0.4096 -1.2649
  161MOL0     C22093   5.202   8.256  11.380  0.1107 -0.1997  0.2052
  161MOL0     C22094   5.277   8.178  11.269  0.2371 -0.0341 -0.2575
  161MOL0     C22095   5.379   8.073  11.321 -0.0095 -0.5706  0.1442
  161MOL0     C22096   5.458   8.003  11.211 -0.4918 -0.2040  0.4325
  161MOL0     N22097   5.538   7.901  11.269 -0.3421 -0.0967 -1.3273
  161MOL0     C22098   5.674   7.897  11.281 -0.7061  1.0543 -0.5028
  161MOL0     C22099   5.696   7.771  11.327  0.1344 -0.7030  0.1196
  161MOL0     C22100   5.827   7.708  11.374 -0.9613  0.5713 -0.0223
  161MOL0     C22101   5.855   7.710  11.527 -0.8156  0.6425 -0.2338
  161MOL0     C22102   5.900   7.842  11.582  0.2153 -0.9588 -0.2374
  161MOL0     C22103   5.884   7.846  11.735  0.4053 -0.1930  0.0360
  161MOL0     O22104   5.744   7.831  11.779 -0.1893  0.3197 -0.1641
  161MOL0     C22105   5.677   7.951  11.791 -0.3337 -0.0493  0.0267
  161MOL0     C22106   5.680   8.012  11.909 -1.8786 -0.3363  0.2955
  161MOL0     C22107   5.611   8.128  11.935  0.3311 -0.2969 -1.3850
  161MOL0     C22108   5.648   8.197  12.060 -0.4737 -1.4198  0.4562
  161MOL0     C22109   5.523   8.176  11.836  0.2604 -0.5733  0.4006
  161MOL0     C22110   5.444   8.296  11.851 -0.0418 -0.9488 -0.5489
  161MOL0     O22111   5.406   8.373  11.744  0.0741 -0.0227 -0.6778
  161MOL0     C22112   5.328   8.480  11.769  0.4486 -0.1002  0.1131
  161MOL0     C22113   5.375   8.604  11.825 -0.1073 -0.0427  0.0129
  161MOL0     C22114   5.299   8.712  11.855  0.2357  0.4149 -0.0190
  161MOL0     C22115   5.159   8.702  11.839 -0.8227  0.5444 -0.0870
  161MOL0     O22116   5.081   8.802  11.899  0.0900 -0.3742 -0.0463
  161MOL0     C22117   5.126   8.868  12.014  0.0558 -0.3073  0.3649
  161MOL0     C22118   5.031   8.984  12.034  0.2973 -0.4100 -0.7783
  161MOL0     C22119   5.079   9.099  12.120 -0.1139 -0.2608 -0.2298
  161MOL0     C22120   5.213   9.084  12.197  0.4652  0.6196  1.3462
  161MOL0     C22121   5.249   9.209  12.265 -0.4576 -0.0272 -0.0299
  161MOL0     C22122   5.193   9.243  12.407  0.2141  0.8284  1.3670
  161MOL0     C22123   5.205   9.118  12.506  0.3658  0.7126  0.6011
  161MOL0     C22124   5.172   9.160  12.648 -0.0750  0.1753  0.8069
  161MOL0    Cl22125   4.992   9.163  12.674 -0.0260  0.1405 -0.4015
  161MOL0     C22126   5.105   8.581  11.794  0.5648  0.0026 -0.2585
  161MOL0     C22127   5.186   8.472  11.749 -0.2784  0.5031 -0.0449
  161MOL0     O22128   5.404   8.325  11.963  0.3897 -0.1411  0.0591
  161MOL0     C22129   5.511   8.105  11.715 -0.5731  0.1248  1.0488
  161MOL0     C22130   5.589   7.994  11.691 -1.0152 -0.2297  0.1474
  161MOL0     N22131   5.576   7.701  11.337 -0.0593  0.8982  0.4727
  161MOL0     N22132   5.485   7.777  11.301  0.1872 -0.7756 -0.1858
  161MOL0     C22133   4.495   8.226  11.122 -0.5183 -0.2540  1.5245
  161MOL0     C22134   4.378   8.163  11.078 -0.0110 -0.8982 -0.3586
  161MOL0     C22135   4.054   7.902  10.977 -0.3161  0.2695  0.8427
  161MOL0     C22136   4.020   7.882  10.841 -0.0632  0.1104  0.4277
  161MOL0     C22137   3.891   7.840  10.800  0.1743 -0.0634 -0.6919
  161MOL0     C22138   3.794   7.832  10.898  0.9321  0.6164 -0.2369
  161MOL0     O22139   3.669   7.780  10.881  0.4939 -0.5247 -0.5584
  161MOL0     C22140   3.609   7.751  10.749 -0.6099 -0.0876 -0.3837
  161MOL0     C22141   3.539   7.868  10.676  0.0334 -0.3099 -0.4701
  161MOL0     C22142   3.637   7.974  10.627  0.4216 -0.0462 -0.1289
  161MOL0     C22143   3.556   8.097  10.580 -0.6013  0.2575 -0.8679
  161MOL0     C22144   3.518   8.080  10.441 -0.6554  1.1282 -0.6101
  161MOL0     C22145   3.501   8.051  10.327 -0.6000 -0.7829  0.6403
  161MOL0     C22146   3.825   7.843  11.034  0.6215  0.8020  0.3022
  161MOL0     C22147   3.956   7.877  11.075  0.1107 -0.5982  0.5660
  161MOL0     C22148   3.968   7.909  11.220 -0.1809  0.1143 -0.2085
  161MOL0     H22149   4.495   7.956  10.838  3.3979  0.5588 -0.3521
  161MOL0     H22150   4.710   8.082  10.906  1.5001  2.6971  2.8273
  161MOL0     H22151   4.704   8.289  11.262  1.2352  0.5424 -0.7418
  161MOL0     H22152   4.672   8.427  11.164 -2.5872  0.3153 -1.4911
  161MOL0     H22153   4.918   8.469  11.133  1.7926 -0.3114  0.4761
  161MOL0     H22154   4.869   8.474  11.301 -0.9237 -0.7396  0.9691
  161MOL0     H22155   4.920   8.240  11.334 -1.0150  2.7891  0.1854
  161MOL0     H22156   4.986   8.218  11.174 -0.5323 -0.0544 -0.0439
  161MOL0     H22157   5.153   8.407  11.220  0.3114  1.4523 -0.4707
  161MOL0     H22158   5.081   8.441  11.372 -1.9548 -0.5331 -0.7354
  161MOL0     H22159   5.153   8.186  11.449 -0.9912  0.2829 -0.0606
  161MOL0     H22160   5.271   8.317  11.438  1.9778 -2.1069  0.1139
  161MOL0     H22161   5.197   8.127  11.214 -2.0402  1.9177  1.0363
  161MOL0     H22162   5.321   8.248  11.198  1.9691  1.6130  2.2765
  161MOL0     H22163   5.324   7.999  11.380 -2.2463 -0.4237 -1.6686
  161MOL0     H22164   5.438   8.138  11.387 -2.1878  0.7739  0.8537
  161MOL0     H22165   5.390   7.964  11.135 -2.2217  1.9543  0.7681
  161MOL0     H22166   5.518   8.077  11.157  1.5987 -0.3601  2.3812
  161MOL0     H22167   5.748   7.976  11.268 -0.8479  1.3193  0.2114
  161MOL0     H22168   5.912   7.767  11.337  0.1376 -1.4586 -0.9264
  161MOL0     H22169   5.839   7.607  11.333  1.3489  0.7296  0.1024
  161MOL0     H22170   5.759   7.676  11.565  0.0846 -1.1837  0.5539
  161MOL0     H22171   5.935   7.642  11.557  2.1867  3.4670 -1.2015
  161MOL0     H22172   6.001   7.869  11.549 -0.5480  1.3333 -0.8626
  161MOL0     H22173   5.835   7.923  11.546 -0.2413 -1.9900 -1.8633
  161MOL0     H22174   5.940   7.758  11.769 -2.6019 -3.3578 -2.3871
  161MOL0     H22175   5.929   7.937  11.775 -4.7682  2.1842  1.2647
  161MOL0     H22176   5.747   7.970  11.983  1.2928 -1.3880 -2.8825
  161MOL0     H22177   5.584   8.155  12.138 -2.1634  0.9085  0.4438
  161MOL0     H22178   5.641   8.305  12.044 -2.6956 -1.8763 -2.3838
  161MOL0     H22179   5.752   8.170  12.082  0.8755  0.1634 -3.1309
  161MOL0     H22180   5.480   8.603  11.850 -0.1028  4.0607  0.7646
  161MOL0     H22181   5.346   8.804  11.889  2.7788  0.4023 -2.9556
  161MOL0     H22182   5.140   8.801  12.100  0.0112  1.3132  1.6720
  161MOL0     H22183   5.224   8.910  11.988 -0.7015  0.5625 -1.1704
  161MOL0     H22184   5.011   9.020  11.932  3.8467  1.2817 -1.0355
  161MOL0     H22185   4.943   8.935  12.076 -0.2343  1.5544  0.5113
  161MOL0     H22186   5.002   9.093  12.197  0.4943 -2.3080  0.2858
  161MOL0     H22187   5.062   9.194  12.069  0.8529  1.3518  2.2947
  161MOL0     H22188   5.298   9.075  12.129  1.2364  2.6322  1.9635
  161MOL0     H22189   5.205   9.000  12.266  1.6648 -1.1415 -0.5628
  161MOL0     H22190   5.356   9.188  12.273 -0.1487  0.5447 -2.0029
  161MOL0     H22191   5.235   9.297  12.201 -1.3968  2.2307  3.0376
  161MOL0     H22192   5.089   9.276  12.399 -0.8928 -2.7027 -2.1283
  161MOL0     H22193   5.254   9.322  12.452 -0.7167  1.3768  1.6991
  161MOL0     H22194   5.302   9.070  12.524 -1.9689 -4.2993  1.3319
  161MOL0     H22195   5.153   9.025  12.480  1.3682 -0.4103  2.3756
  161MOL0     H22196   5.219   9.252  12.683 -1.9221  1.5061 -0.0313
  161MOL0     H22197   5.220   9.093  12.720  1.2851 -0.3128 -0.4926
  161MOL0     H22198   4.998   8.593  11.778  0.5886 -1.1332 -1.4301
  161MOL0     H22199   5.150   8.378  11.709  0.6131  0.2758 -0.3464
  161MOL0     H22200   5.444   8.137  11.636 -1.4088 -2.5157  0.5947
  161MOL0     H22201   5.583   7.944  11.595  0.2396 -1.5979  0.7445
  161MOL0     H22202   4.490   8.294  11.207  0.3444 -2.4903  3.4564
  161MOL0     H22203   4.292   8.193  11.137 -1.6080 -0.0008 -2.9363
  161MOL0     H22204   4.099   7.880  10.767 -1.6405 -0.1103 -1.3166
  161MOL0     H22205   3.865   7.814  10.698 -0.8131  0.6575 -0.6385
  161MOL0     H22206   3.686   7.708  10.685  2.3472  1.0521  2.1677
  161MOL0     H22207   3.542   7.667  10.769 -0.1051  0.2072  3.2241
  161MOL0     H22208   3.462   7.911  10.741  1.3067  1.1082  0.1619
  161MOL0     H22209   3.494   7.819  10.590  0.1749  2.4249 -2.2461
  161MOL0     H22210   3.695   8.020  10.707  1.2093 -3.3544  1.3782
  161MOL0     H22211   3.704   7.931  10.553 -2.1761 -2.2973 -1.3847
  161MOL0     H22212   3.619   8.184  10.604 -0.3235 -0.9286  3.8781
  161MOL0     H22213   3.465   8.112  10.640 -0.2313  0.5966 -0.3856
  161MOL0     H22214   3.481   8.031  10.223  0.6915  0.7438  0.0469
  161MOL0     H22215   3.742   7.824  11.101 -0.5750  1.3208 -0.9767
  161MOL0     H22216   4.048   7.971  11.263 -2.9037  2.6153  1.6288
  161MOL0     H22217   3.883   7.963  11.262 -0.5205 -1.1568  0.8317
  161MOL0     H22218   3.988   7.813  11.270 -1.5361 -2.3662 -3.9624
  162MOL0     O22219  10.351   0.262   7.042 -0.2045  0.2731 -0.0210
  162MOL0     C22220  10.315   0.144   7.068 -0.8761 -0.9741 -0.1201
  162MOL0     O22221  10.300   0.051   6.976 -0.2121  0.5788  0.7392
  162MOL0     C22222  10.345   0.087   6.849  0.0746 -0.3480  0.8263
  162MOL0     C22223  10.255   0.151   6.755  0.6987  0.2864  0.4485
  162MOL0     C22224  10.291   0.179   6.624 -0.5149 -0.7925  0.4372
  162MOL0     C22225  10.426   0.175   6.597  0.2358  0.7471  0.2536
  162MOL0     O22226  10.469   0.231   6.479  0.0935 -0.2431  0.0533
  162MOL0     C22227  10.542   0.142   6.390  0.2638 -1.1418  0.7519
  162MOL0     C22228  10.458   0.152   6.261 -0.4930  0.9560  1.3932
  162MOL0     C22229  10.486   0.042   6.151 -0.1722  0.9278 -0.5115
  162MOL0     C22230  10.436   0.073   6.010  0.7747 -0.3540 -0.1909
  162MOL0     C22231  10.508  -0.020   5.919 -0.4366 -0.6082  0.1732
  162MOL0     C22232  10.476   0.021   5.773  0.0124  0.3034 -0.8060
  162MOL0     C22233  10.552  -0.078   5.678 -0.0449 -0.0353 -0.2407
  162MOL0     C22234  10.707  -0.058   5.670 -0.3178 -0.2143  0.2066
  162MOL0     N22235  10.770  -0.174   5.610  0.3413  0.2219  0.6721
  162MOL0     C22236  10.807  -0.291   5.676 -0.4161 -0.4182  0.5159
  162MOL0     C22237  10.851  -0.373   5.580 -0.3152 -0.1033 -0.0379
  162MOL0     C22238  10.901  -0.519   5.588  0.6766  0.4100 -0.0540
  162MOL0     C22239  10.898  -0.595   5.729  0.4771 -0.5316 -0.1946
  162MOL0     C22240  10.912  -0.742   5.719  0.6950 -0.1229 -0.3501
  162MOL0     C22241  10.948  -0.825   5.849 -0.4031  0.5060 -0.5183
  162MOL0     O22242  10.852  -0.793   5.951  0.2898  0.2641  0.3441
  162MOL0     C22243  10.848  -0.878   6.067  0.0173  0.0094 -0.8027
  162MOL0     C22244  10.958  -0.952   6.119 -0.4631  0.5934  1.4231
  162MOL0     C22245  10.950  -1.028   6.243 -0.0312 -0.5629  0.3402
  162MOL0     C22246  11.077  -1.088   6.283 -0.2774  0.2559 -0.1141
  162MOL0     C22247  10.832  -1.013   6.318  0.6878  0.1625 -0.0275
  162MOL0     C22248  10.815  -1.082   6.455 -0.3438  0.3722 -0.0283
  162MOL0     O22249  10.682  -1.106   6.487 -0.2005 -1.1789 -0.6362
  162MOL0     C22250  10.666  -1.160   6.614 -0.3760 -0.4358 -0.5108
  162MOL0     C22251  10.579  -1.274   6.610 -0.6241 -0.9490 -0.4632
  162MOL0     C22252  10.538  -1.335   6.725 -0.5697  0.0076 -0.6002
  162MOL0     C22253  10.565  -1.278   6.855  0.5401  0.2616 -0.5982
  162MOL0     O22254  10.510  -1.321   6.972 -0.1366  0.0859 -0.0817
  162MOL0     C22255  10.422  -1.431   6.972  0.1706 -0.2662  0.3531
  162MOL0     C22256  10.366  -1.430   7.114  0.0874  0.5442 -0.3810
  162MOL0     C22257  10.237  -1.520   7.129 -0.5076  1.0385 -0.0910
  162MOL0     C22258  10.124  -1.478   7.035  0.2517  0.5331 -0.3038
  162MOL0     C22259  10.009  -1.567   7.085 -0.5594 -0.4703  0.7108
  162MOL0     C22260   9.932  -1.527   7.214  0.3073  0.0146 -0.1489
  162MOL0     C22261   9.795  -1.609   7.222 -0.1699 -0.0001  0.0050
  162MOL0     C22262   9.701  -1.560   7.327  0.5127 -0.1899 -0.6157
  162MOL0    Cl22263   9.694  -1.388   7.331  0.1423 -0.0589  0.3719
  162MOL0     C22264  10.659  -1.175   6.856  0.0977 -0.7012 -0.7189
  162MOL0     C22265  10.694  -1.108   6.741 -0.1006 -0.1785 -0.2408
  162MOL0     O22266  10.914  -1.107   6.530  0.3152 -0.4751  0.5477
  162MOL0     C22267  10.725  -0.945   6.257 -0.0943  0.8937  0.0543
  162MOL0     C22268  10.730  -0.869   6.136  0.0613 -0.2492 -0.0002
  162MOL0     N22269  10.848  -0.298   5.461  0.3151  0.3085 -0.3065
  162MOL0     N22270  10.793  -0.188   5.481 -0.2115 -0.0057  0.2879
  162MOL0     C22271  10.519   0.121   6.694  0.2692 -0.4689  0.3886
  162MOL0     C22272  10.476   0.076   6.817  0.3159  0.2187 -1.1723
  162MOL0     C22273  10.296   0.103   7.212 -0.4116 -0.4432 -0.4102
  162MOL0     C22274  10.260  -0.031   7.250  0.1607  0.8784  0.6295
  162MOL0     C22275  10.240  -0.076   7.377  0.5995  0.4772  0.5405
  162MOL0     C22276  10.251   0.014   7.484  0.2086  0.2873 -0.4356
  162MOL0     O22277  10.246  -0.037   7.614  1.0167 -0.2812 -0.4082
  162MOL0     C22278  10.140   0.013   7.694 -0.5688  0.4637  0.5418
  162MOL0     C22279  10.130  -0.092   7.803  0.2124  0.4583  0.2385
  162MOL0     C22280  10.028  -0.191   7.763 -0.5612  0.1588  0.2683
  162MOL0     C22281  10.017  -0.301   7.868  0.2202  0.5234  0.1375
  162MOL0     C22282   9.917  -0.400   7.826  0.8834  0.4537 -0.4601
  162MOL0     C22283   9.831  -0.479   7.809 -0.1208 -0.5079  0.0050
  162MOL0     C22284  10.274   0.147   7.456 -0.2125  0.7234 -0.9357
  162MOL0     C22285  10.295   0.194   7.323  0.7432  0.5151 -0.7142
  162MOL0     C22286  10.322   0.340   7.317 -0.0654 -0.0969 -0.6244
  162MOL0     H22287  10.159   0.168   6.803  1.0032  1.5316  0.6602
  162MOL0     H22288  10.213   0.214   6.557  0.4793  4.3592  1.5291
  162MOL0     H22289  10.549   0.035   6.415  0.3083 -2.0687 -2.7152
  162MOL0     H22290  10.641   0.185   6.374 -1.0018  1.3865 -0.8132
  162MOL0     H22291  10.358   0.128   6.298 -0.5878 -1.5602 -0.2347
  162MOL0     H22292  10.447   0.254   6.223  0.8200  1.1209  1.4287
  162MOL0     H22293  10.594   0.028   6.140 -0.4905 -0.9645 -1.4969
  162MOL0     H22294  10.441  -0.052   6.182  1.6482  0.0573 -0.3954
  162MOL0     H22295  10.327   0.070   6.008  0.5577  2.0814  2.3465
  162MOL0     H22296  10.467   0.176   5.990  1.2948 -0.2136  1.2338
  162MOL0     H22297  10.499  -0.125   5.948  2.9394 -0.8283  0.8783
  162MOL0     H22298  10.615   0.000   5.933 -0.8761  0.3646  2.6905
  162MOL0     H22299  10.369   0.005   5.759  0.0781 -2.5368  1.0618
  162MOL0     H22300  10.497   0.126   5.750 -2.4003  1.2603  0.9070
  162MOL0     H22301  10.505  -0.070   5.580  2.0447  0.3640 -1.2734
  162MOL0     H22302  10.535  -0.178   5.720 -2.2476  0.5547  0.4109
  162MOL0     H22303  10.726   0.023   5.599 -0.5395 -1.9114 -1.8703
  162MOL0     H22304  10.761  -0.039   5.763  0.3344 -3.0861  0.4874
  162MOL0     H22305  10.804  -0.324   5.780  1.6062 -0.1314  0.7138
  162MOL0     H22306  11.007  -0.527   5.563  0.1095 -1.2969 -2.2375
  162MOL0     H22307  10.850  -0.585   5.517  1.3283 -0.6210  0.4066
  162MOL0     H22308  10.969  -0.552   5.800  1.6761  1.1992 -2.3344
  162MOL0     H22309  10.802  -0.582   5.780  1.1123 -1.0611  1.1987
  162MOL0     H22310  10.809  -0.771   5.695  0.2723  1.5571 -0.7117
  162MOL0     H22311  10.966  -0.772   5.629 -1.1417 -0.3974 -1.4010
  162MOL0     H22312  10.939  -0.932   5.828 -1.6776  0.0249  2.0000
  162MOL0     H22313  11.050  -0.802   5.883  1.3567 -3.0584 -2.8145
  162MOL0     H22314  11.045  -0.947   6.054 -0.6917 -0.4688  1.0062
  162MOL0     H22315  11.114  -1.141   6.195 -0.4100  1.9291 -1.2191
  162MOL0     H22316  11.061  -1.157   6.367 -0.0424 -0.3135 -0.5289
  162MOL0     H22317  11.137  -1.006   6.321 -3.1445  1.6673  1.7313
  162MOL0     H22318  10.549  -1.313   6.513  3.2527 -1.4742 -1.6024
  162MOL0     H22319  10.486  -1.428   6.704  0.1027 -0.1590 -1.5929
  162MOL0     H22320  10.342  -1.414   6.899 -1.4616 -2.0731  1.5841
  162MOL0     H22321  10.461  -1.529   6.942 -1.4124 -1.9971  3.4003
  162MOL0     H22322  10.432  -1.462   7.195 -2.0916  3.0365  2.6463
  162MOL0     H22323  10.325  -1.333   7.145 -1.7717 -0.9598  2.3001
  162MOL0     H22324  10.189  -1.516   7.227  1.2361  0.4931  0.8163
  162MOL0     H22325  10.261  -1.626   7.120  0.0816  0.8241  2.9492
  162MOL0     H22326  10.146  -1.510   6.933 -0.7086 -0.2060 -0.2973
  162MOL0     H22327  10.086  -1.376   7.033 -0.2181  0.4184  1.2756
  162MOL0     H22328   9.933  -1.551   7.007 -0.2938  1.9041  0.8440
  162MOL0     H22329  10.041  -1.671   7.085 -0.4737 -0.6832 -4.3785
  162MOL0     H22330   9.909  -1.420   7.222  0.1241 -0.0215 -0.1713
  162MOL0     H22331   9.981  -1.545   7.309 -1.5286  2.0018  1.2768
  162MOL0     H22332   9.827  -1.712   7.240  2.1181  0.4006 -1.2709
  162MOL0     H22333   9.741  -1.601   7.127  0.3545  1.0242 -0.2192
  162MOL0     H22334   9.739  -1.593   7.424  1.9827  1.2070 -0.6855
  162MOL0     H22335   9.600  -1.600   7.311  0.9902 -2.0002  0.5702
  162MOL0     H22336  10.681  -1.121   6.948  1.0321  1.5030 -2.1415
  162MOL0     H22337  10.740  -1.010   6.742  1.9313 -0.9641 -3.1549
  162MOL0     H22338  10.631  -0.939   6.310 -0.6354 -0.0142 -0.7729
  162MOL0     H22339  10.650  -0.808   6.097  0.9308  0.3565 -0.8849
  162MOL0     H22340  10.622   0.131   6.663 -0.2764 -0.0919 -1.3997
  162MOL0     H22341  10.545   0.044   6.894 -0.1752 -0.0313 -0.8306
  162MOL0     H22342  10.256  -0.099   7.166  0.2945  1.5952  0.0317
  162MOL0     H22343  10.221  -0.181   7.400 -1.5851 -0.1196 -3.1475
  162MOL0     H22344  10.183   0.099   7.746  0.6052  0.4228 -0.3211
  162MOL0     H22345  10.048   0.046   7.646  0.3030  1.1110 -0.7480
  162MOL0     H22346  10.115  -0.046   7.902  0.9405  0.0505  0.5504
  162MOL0     H22347  10.225  -0.144   7.819 -0.8336 -2.0375 -1.2599
  162MOL0     H22348   9.932  -0.137   7.766  0.3037  1.8580 -1.0148
  162MOL0     H22349  10.043  -0.234   7.664 -1.2202  0.0074  0.2244
  162MOL0     H22350   9.994  -0.258   7.966 -1.8285 -4.0510  1.9288
  162MOL0     H22351  10.117  -0.345   7.875 -0.1697 -0.4323 -0.2195
  162MOL0     H22352   9.755  -0.554   7.796 -1.8168  0.9665  0.9780
  162MOL0     H22353  10.287   0.208   7.545 -1.8548 -2.2155  1.5109
  162MOL0     H22354  10.264   0.383   7.235  0.2767  0.6915 -0.4624
  162MOL0     H22355  10.289   0.382   7.412  2.2492 -2.0534  1.1668
  162MOL0     H22356  10.430   0.357   7.308 -0.3047  0.5569 -3.2002
  163MOL0     O22357   2.731   3.806   1.291 -0.1658 -0.6515 -0.3309
  163MOL0     C22358   2.801   3.876   1.356 -0.3029 -0.0437 -0.4908
  163MOL0     O22359   2.931   3.895   1.341 -0.2482 -0.2905  0.6325
  163MOL0     C22360   2.994   3.811   1.252  0.8103 -0.3226 -0.4550
  163MOL0     C22361   3.079   3.712   1.289  0.4841 -0.3811 -0.1549
  163MOL0     C22362   3.139   3.639   1.190  1.0946 -0.3478  0.5474
  163MOL0     C22363   3.108   3.660   1.054 -0.5697 -0.9349  0.0539
  163MOL0     O22364   3.177   3.595   0.960 -0.0962  0.2364  0.2392
  163MOL0     C22365   3.140   3.575   0.821  0.3123 -0.2701  0.8594
  163MOL0     C22366   3.053   3.446   0.798 -0.1961 -0.2798  0.1844
  163MOL0     C22367   2.900   3.480   0.808 -0.0869  0.0892 -0.0128
  163MOL0     C22368   2.843   3.443   0.948 -0.8495  0.2013  0.5822
  163MOL0     C22369   2.690   3.426   0.939  0.0411 -0.0245  0.3995
  163MOL0     C22370   2.618   3.540   0.880 -0.2564  0.7760  0.1963
  163MOL0     C22371   2.648   3.672   0.931 -0.3788  0.2051 -1.5946
  163MOL0     C22372   2.579   3.789   0.867  0.4602  0.0460 -0.1317
  163MOL0     N22373   2.574   3.800   0.727  0.4704  0.2173  0.1670
  163MOL0     C22374   2.485   3.866   0.645  0.0419 -0.2893 -0.5341
  163MOL0     C22375   2.529   3.851   0.514 -0.2376  0.1296 -0.8480
  163MOL0     C22376   2.465   3.878   0.377  0.2451 -0.6482  0.2308
  163MOL0     C22377   2.539   3.806   0.263  0.3148  0.3089  0.8069
  163MOL0     C22378   2.514   3.876   0.129  0.3549  0.0424 -0.1282
  163MOL0     C22379   2.552   3.798   0.008  0.0074 -0.3518 -0.9391
  163MOL0     O22380   2.691   3.770   0.029 -0.4719  0.0203  0.3694
  163MOL0     C22381   2.744   3.671  -0.052  0.2756 -0.2442  0.4916
  163MOL0     C22382   2.672   3.585  -0.138 -0.0168 -0.1100 -0.2506
  163MOL0     C22383   2.748   3.488  -0.214  0.0492 -1.0386 -0.8080
  163MOL0     C22384   2.665   3.414  -0.320 -0.2571  0.0374 -0.0854
  163MOL0     C22385   2.891   3.476  -0.206 -0.9346  0.4148  0.5052
  163MOL0     C22386   2.973   3.376  -0.282 -0.1228 -0.0473  0.0102
  163MOL0     O22387   3.098   3.358  -0.241  0.2760 -0.0891 -0.3055
  163MOL0     C22388   3.176   3.266  -0.306 -0.1543  0.5700  0.1355
  163MOL0     C22389   3.202   3.148  -0.238 -0.4005  1.0368 -0.4916
  163MOL0     C22390   3.305   3.050  -0.278  0.1327  0.2033 -0.2997
  163MOL0     C22391   3.389   3.078  -0.385  0.4344  0.4439  0.5897
  163MOL0     O22392   3.479   2.985  -0.426  0.0952 -0.1040  0.2026
  163MOL0     C22393   3.579   3.008  -0.536  0.5684  0.0729 -0.1017
  163MOL0     C22394   3.628   2.879  -0.604 -0.7578 -1.1987 -0.2482
  163MOL0     C22395   3.723   2.806  -0.505 -0.0893 -0.5543  0.0061
  163MOL0     C22396   3.759   2.670  -0.565 -1.1078  0.7137 -0.0141
  163MOL0     C22397   3.840   2.579  -0.474 -0.5016 -0.3035 -0.0287
  163MOL0     C22398   3.973   2.641  -0.425 -0.0674  0.3955 -0.0326
  163MOL0     C22399   4.062   2.542  -0.352  0.8531 -0.6363  0.4381
  163MOL0     C22400   4.200   2.602  -0.317  0.3722  0.5180  0.0596
  163MOL0    Cl22401   4.187   2.747  -0.219  0.2616  0.1272 -0.2848
  163MOL0     C22402   3.364   3.200  -0.447  0.4409  0.8401  0.6371
  163MOL0     C22403   3.254   3.286  -0.421  1.5234  0.5991 -0.1660
  163MOL0     O22404   2.929   3.335  -0.391 -0.3853 -0.4241  0.1749
  163MOL0     C22405   2.955   3.569  -0.125  0.1249 -0.0891 -0.4470
  163MOL0     C22406   2.887   3.665  -0.053 -0.5020 -0.9820 -0.3785
  163MOL0     N22407   2.659   3.797   0.529 -0.0348  0.5292  0.3448
  163MOL0     N22408   2.680   3.760   0.650  0.0851 -0.0987 -0.0899
  163MOL0     C22409   3.014   3.756   1.020 -0.3461 -0.6985  0.8970
  163MOL0     C22410   2.965   3.831   1.120  0.0128  0.4016 -0.4688
  163MOL0     C22411   2.735   3.955   1.458 -0.7629 -0.2926  0.4026
  163MOL0     C22412   2.808   4.070   1.492 -0.7715 -1.8559 -0.6571
  163MOL0     C22413   2.768   4.144   1.600 -0.3922 -0.8792  0.5431
  163MOL0     C22414   2.667   4.106   1.685  0.8336  0.6177  0.8817
  163MOL0     O22415   2.647   4.166   1.803 -0.6164 -0.4318 -0.6276
  163MOL0     C22416   2.641   4.074   1.915 -0.0685 -1.1091 -0.2027
  163MOL0     C22417   2.529   4.118   2.007 -0.0158  0.1258 -0.1479
  163MOL0     C22418   2.563   4.248   2.075  0.6272  0.7223  0.4455
  163MOL0     C22419   2.447   4.305   2.160 -0.3860  0.0874  0.6761
  163MOL0     C22420   2.419   4.222   2.277 -0.2982 -0.1076  0.1055
  163MOL0     C22421   2.397   4.145   2.364  0.3243  0.2176 -0.7205
  163MOL0     C22422   2.579   4.006   1.642  0.2651 -0.4397  0.2198
  163MOL0     C22423   2.615   3.926   1.525  0.2872  0.0555 -0.2724
  163MOL0     C22424   2.537   3.796   1.501  0.2403 -0.3597  0.5597
  163MOL0     H22425   3.105   3.681   1.390 -0.0626 -1.2895 -0.2814
  163MOL0     H22426   3.220   3.572   1.215  3.2307  1.3185 -1.5208
  163MOL0     H22427   3.233   3.566   0.764  2.6556  3.1980  3.6393
  163MOL0     H22428   3.077   3.658   0.788 -1.3601 -2.4354 -1.7906
  163MOL0     H22429   3.076   3.403   0.700 -3.7663 -3.3386  0.4187
  163MOL0     H22430   3.083   3.364   0.864  1.0763  1.5623  1.9970
  163MOL0     H22431   2.882   3.586   0.788  2.0978  0.1122 -2.4909
  163MOL0     H22432   2.850   3.433   0.723 -0.6596  0.9364 -0.1524
  163MOL0     H22433   2.874   3.340   0.969  0.5819  0.4028 -0.3944
  163MOL0     H22434   2.886   3.517   1.017  0.7041  0.0197 -0.1389
  163MOL0     H22435   2.667   3.404   1.044  1.9780  3.4886  1.7297
  163MOL0     H22436   2.679   3.339   0.874 -1.1264  1.9197 -2.1492
  163MOL0     H22437   2.637   3.550   0.773  1.2759  0.9619  0.4686
  163MOL0     H22438   2.511   3.515   0.885  0.1436 -2.4617 -3.1773
  163MOL0     H22439   2.757   3.685   0.937  0.0189 -1.9397 -3.1574
  163MOL0     H22440   2.616   3.678   1.035 -0.3917 -0.0655 -1.5833
  163MOL0     H22441   2.475   3.789   0.900  1.0229 -1.5320  1.8272
  163MOL0     H22442   2.618   3.883   0.906  1.8793 -0.9111  0.8375
  163MOL0     H22443   2.387   3.907   0.669 -1.4902 -1.5424 -3.9993
  163MOL0     H22444   2.473   3.986   0.366 -0.7681 -0.2696  2.4938
  163MOL0     H22445   2.361   3.847   0.367  0.4633 -2.0983  1.8832
  163MOL0     H22446   2.645   3.805   0.288  0.1616 -3.0993  1.8153
  163MOL0     H22447   2.518   3.701   0.241  1.2346  0.2978 -0.1024
  163MOL0     H22448   2.407   3.897   0.131  0.5968  1.3074  0.2830
  163MOL0     H22449   2.563   3.973   0.124 -0.3564  0.6330  2.5407
  163MOL0     H22450   2.491   3.708   0.004  1.1413 -1.2548  0.7249
  163MOL0     H22451   2.531   3.850  -0.086 -0.9012  0.8055 -0.1246
  163MOL0     H22452   2.565   3.596  -0.156 -0.2734 -1.8533  0.0408
  163MOL0     H22453   2.710   3.318  -0.349 -0.1784  0.2335 -0.6133
  163MOL0     H22454   2.665   3.479  -0.407  1.4667  1.5378  0.9787
  163MOL0     H22455   2.560   3.401  -0.291  0.1597  0.4633  1.7758
  163MOL0     H22456   3.142   3.123  -0.151  1.0423 -2.4505 -0.3180
  163MOL0     H22457   3.307   2.953  -0.229 -1.4097  1.6450  2.9062
  163MOL0     H22458   3.533   3.065  -0.618 -0.8692 -2.2296 -0.9955
  163MOL0     H22459   3.670   3.057  -0.500  0.1829 -0.6364  1.9510
  163MOL0     H22460   3.552   2.814  -0.650 -0.6760  0.0206 -2.1953
  163MOL0     H22461   3.682   2.915  -0.692  0.3183 -0.1741  0.7975
  163MOL0     H22462   3.669   2.786  -0.412  1.2235  0.8683  1.1219
  163MOL0     H22463   3.812   2.865  -0.483 -0.2572  0.2063 -1.2594
  163MOL0     H22464   3.816   2.680  -0.658 -1.0466 -2.6074 -0.4443
  163MOL0     H22465   3.668   2.618  -0.596  0.0138  0.0428 -2.3586
  163MOL0     H22466   3.781   2.549  -0.387  0.1666 -0.3628  0.4153
  163MOL0     H22467   3.858   2.491  -0.536 -1.8046  1.0720 -2.5459
  163MOL0     H22468   3.960   2.725  -0.356  3.9570  0.2033  1.2284
  163MOL0     H22469   4.022   2.685  -0.512  2.0690  1.0566  1.4245
  163MOL0     H22470   4.084   2.459  -0.421  2.2174 -0.1262  0.2180
  163MOL0     H22471   4.008   2.495  -0.269 -1.9425 -1.5732 -1.7769
  163MOL0     H22472   4.259   2.618  -0.407  0.4517 -1.4311 -0.2863
  163MOL0     H22473   4.252   2.519  -0.268 -1.0195 -0.7515 -0.5211
  163MOL0     H22474   3.437   3.221  -0.525  0.5806  1.1272  0.8413
  163MOL0     H22475   3.235   3.377  -0.476 -0.2143 -0.6433 -1.7619
  163MOL0     H22476   3.063   3.568  -0.113  0.1556 -2.9452 -0.1608
  163MOL0     H22477   2.941   3.739   0.005 -2.7696  0.1807  0.3888
  163MOL0     H22478   2.979   3.780   0.920 -2.3789  2.4010  2.1783
  163MOL0     H22479   2.889   3.901   1.089 -1.8096 -1.1153  0.4043
  163MOL0     H22480   2.903   4.099   1.448 -1.8037 -0.8256 -2.2999
  163MOL0     H22481   2.815   4.236   1.633  1.3006 -1.2119 -0.8243
  163MOL0     H22482   2.635   3.973   1.872  3.2882 -1.1553 -0.8730
  163MOL0     H22483   2.730   4.080   1.979  0.3972  1.3524 -0.9866
  163MOL0     H22484   2.517   4.044   2.087 -3.2938  0.3467 -0.3259
  163MOL0     H22485   2.434   4.128   1.953 -0.0825 -0.6083 -0.1723
  163MOL0     H22486   2.650   4.237   2.141  0.5736  0.3853  0.4577
  163MOL0     H22487   2.588   4.326   2.002  3.6951 -1.0727 -0.5857
  163MOL0     H22488   2.361   4.317   2.094 -0.7113 -1.5485  0.7792
  163MOL0     H22489   2.482   4.406   2.185 -0.8491  0.8441 -1.4635
  163MOL0     H22490   2.390   4.084   2.451 -2.0976  0.9593 -0.3143
  163MOL0     H22491   2.503   3.970   1.711  1.9040 -2.3038  1.1165
  163MOL0     H22492   2.477   3.777   1.590  0.6776  1.5971  1.2959
  163MOL0     H22493   2.478   3.806   1.409  2.4327 -1.3770 -1.0597
  163MOL0     H22494   2.607   3.714   1.479 -0.9383 -0.8566 -1.6856
  164MOL0     O22495   7.487  11.123   4.640  0.2074  0.4741  0.9572
  164MOL0     C22496   7.553  11.027   4.680 -0.7427  0.8192 -0.3748
  164MOL0     O22497   7.562  10.978   4.804  0.2610  0.7057  0.5130
  164MOL0     C22498   7.454  10.972   4.889  0.2908 -0.1061  0.9138
  164MOL0     C22499   7.485  10.937   5.015  0.1529 -0.6243  0.1334
  164MOL0     C22500   7.399  10.941   5.121 -0.4585  1.1527 -0.8250
  164MOL0     C22501   7.266  10.973   5.100 -0.0079  0.3730 -0.3336
  164MOL0     O22502   7.172  10.968   5.210 -0.6062 -0.3039  0.3588
  164MOL0     C22503   7.208  10.939   5.346 -0.1246 -0.0968 -1.0901
  164MOL0     C22504   7.080  10.928   5.430 -0.8150  0.3650 -0.2504
  164MOL0     C22505   7.119  10.935   5.578  0.0668  0.1957  0.0468
  164MOL0     C22506   7.015  10.878   5.679 -0.1067 -0.2418 -1.0854
  164MOL0     C22507   7.047  10.919   5.819 -0.2437  0.3297  0.9463
  164MOL0     C22508   6.945  10.873   5.914 -0.0345  0.4477 -0.3110
  164MOL0     C22509   6.990  10.918   6.047  1.2085 -0.4100  0.7939
  164MOL0     C22510   6.926  10.840   6.165 -1.1809 -0.2729  0.6955
  164MOL0     N22511   6.781  10.811   6.139 -0.1466 -0.3949 -0.3065
  164MOL0     C22512   6.724  10.708   6.067 -0.7416 -0.4266 -0.4968
  164MOL0     C22513   6.597  10.731   6.041  0.6705 -0.1904 -0.5919
  164MOL0     C22514   6.514  10.666   5.947  0.9092 -0.5246 -0.4291
  164MOL0     C22515   6.546  10.700   5.806  0.7776 -0.5687 -0.0183
  164MOL0     C22516   6.479  10.829   5.763 -0.2908  0.0483 -0.0497
  164MOL0     C22517   6.558  10.899   5.641  0.3516  0.6787 -0.8741
  164MOL0     O22518   6.567  10.796   5.542  0.3946 -0.1965  0.4165
  164MOL0     C22519   6.613  10.820   5.417  0.4937 -0.6636 -0.5858
  164MOL0     C22520   6.683  10.945   5.382 -0.5186  0.0127 -0.2032
  164MOL0     C22521   6.733  10.961   5.247  0.4633  0.5041  0.0104
  164MOL0     C22522   6.786  11.098   5.209 -0.8227 -0.3410  0.0018
  164MOL0     C22523   6.708  10.853   5.152  0.7459 -0.3708  0.3798
  164MOL0     C22524   6.764  10.868   5.018 -0.1268  0.0059 -0.8206
  164MOL0     O22525   6.681  10.927   4.927  0.4136 -0.3309  0.0661
  164MOL0     C22526   6.710  10.913   4.796  0.6737  0.3964  0.2365
  164MOL0     C22527   6.698  11.022   4.711  0.0617  0.3671  0.7466
  164MOL0     C22528   6.726  11.018   4.576 -0.2332 -0.1606  1.2765
  164MOL0     C22529   6.754  10.897   4.512  1.0619 -0.5852  0.0634
  164MOL0     O22530   6.783  10.886   4.379 -0.1734  0.5211 -0.3470
  164MOL0     C22531   6.702  10.968   4.289 -0.3855  0.3770  0.0821
  164MOL0     C22532   6.736  10.910   4.155 -0.0438 -0.4500 -0.9724
  164MOL0     C22533   6.878  10.935   4.109 -0.4863  0.6298  0.0729
  164MOL0     C22534   6.892  10.878   3.960  0.4853 -0.5355 -0.0482
  164MOL0     C22535   6.900  10.729   3.939 -0.1121  1.0619  0.3795
  164MOL0     C22536   6.950  10.688   3.798  0.1847 -0.0933  0.1775
  164MOL0     C22537   7.095  10.639   3.780 -0.5067 -0.4787  0.2131
  164MOL0     C22538   7.198  10.739   3.822 -0.7249  0.3852  0.1790
  164MOL0    Cl22539   7.369  10.686   3.776 -0.0700 -0.5227 -0.2484
  164MOL0     C22540   6.773  10.791   4.600  0.5255  0.3342  0.7001
  164MOL0     C22541   6.746  10.792   4.734  0.2827 -0.0370  0.3901
  164MOL0     O22542   6.877  10.813   4.995 -0.2433  0.1969 -0.0591
  164MOL0     C22543   6.644  10.733   5.190  0.0043  0.2600  0.4339
  164MOL0     C22544   6.587  10.719   5.322 -0.1462 -0.1874 -0.4421
  164MOL0     N22545   6.560  10.849   6.105 -0.1673  0.1754 -0.8702
  164MOL0     N22546   6.676  10.897   6.161  0.3691  0.0417 -0.1329
  164MOL0     C22547   7.224  11.009   4.974 -0.1438 -0.7214 -0.8687
  164MOL0     C22548   7.318  11.004   4.861  1.1526  0.1933 -0.0306
  164MOL0     C22549   7.669  10.966   4.596 -0.7727  0.7103 -0.4772
  164MOL0     C22550   7.744  10.854   4.648 -0.0739 -0.1498 -0.6943
  164MOL0     C22551   7.838  10.786   4.573  1.4328 -0.6237 -0.3435
  164MOL0     C22552   7.858  10.818   4.443  0.5474  0.0852 -0.4380
  164MOL0     O22553   7.936  10.738   4.374 -0.1458 -0.4157 -0.3795
  164MOL0     C22554   7.943  10.737   4.240  0.2849 -0.1327  0.5038
  164MOL0     C22555   8.037  10.842   4.186  0.0561 -0.5615 -0.3277
  164MOL0     C22556   8.051  10.834   4.029  0.3356  1.2290 -0.2045
  164MOL0     C22557   8.165  10.914   3.961  1.1559 -0.4486  0.8978
  164MOL0     C22558   8.291  10.854   4.009  0.1509  0.2891 -1.0275
  164MOL0     C22559   8.373  10.766   4.057  0.1368 -0.3818  0.0364
  164MOL0     C22560   7.796  10.937   4.388  0.1162  0.3145 -0.3411
  164MOL0     C22561   7.699  11.003   4.461  0.3086 -0.0211  0.6884
  164MOL0     C22562   7.624  11.105   4.382  0.2251  0.5061 -0.1688
  164MOL0     H22563   7.591  10.923   5.034 -0.1458 -0.8304  1.7384
  164MOL0     H22564   7.441  10.910   5.216 -0.6798  0.1016 -1.0578
  164MOL0     H22565   7.283  11.001   5.396  0.0616 -1.2692  0.1512
  164MOL0     H22566   7.256  10.841   5.354 -0.5549 -0.1731  1.0193
  164MOL0     H22567   7.016  11.009   5.394  0.6262  0.7550 -2.0773
  164MOL0     H22568   7.029  10.832   5.421 -0.8327  0.1609  1.5526
  164MOL0     H22569   7.210  10.874   5.584  0.2093  0.5709  2.4222
  164MOL0     H22570   7.158  11.034   5.603  2.6530 -0.7141 -0.0823
  164MOL0     H22571   6.918  10.925   5.665  0.8271  2.2004  0.0825
  164MOL0     H22572   7.010  10.770   5.666  1.1130 -0.2878 -1.3601
  164MOL0     H22573   7.048  11.029   5.824 -0.7253  0.5791 -2.2006
  164MOL0     H22574   7.146  10.885   5.850 -0.2305 -0.9742 -0.4651
  164MOL0     H22575   6.847  10.915   5.892 -0.6194  0.3606  1.8378
  164MOL0     H22576   6.954  10.764   5.909  4.8253  0.7106 -3.4355
  164MOL0     H22577   6.963  11.024   6.052  5.4878  1.0795 -2.2068
  164MOL0     H22578   7.096  10.906   6.069  1.1684  2.2182  3.0703
  164MOL0     H22579   6.976  10.742   6.173 -0.7141 -0.1085 -0.0613
  164MOL0     H22580   6.932  10.904   6.253  2.6107  2.8438 -1.5024
  164MOL0     H22581   6.789  10.632   6.024  2.6778  1.0940  1.5062
  164MOL0     H22582   6.410  10.694   5.966  1.3816  1.4935 -0.5999
  164MOL0     H22583   6.530  10.561   5.971 -2.0609 -0.4775  2.5310
  164MOL0     H22584   6.654  10.707   5.791  0.7938 -1.9127 -0.7241
  164MOL0     H22585   6.509  10.620   5.740 -0.1157  1.7158 -2.4659
  164MOL0     H22586   6.377  10.830   5.724 -1.0728  0.0128  1.8519
  164MOL0     H22587   6.489  10.896   5.849  2.5289 -1.5148  0.9886
  164MOL0     H22588   6.501  10.988   5.613 -0.0712  1.3897  1.9416
  164MOL0     H22589   6.654  10.941   5.670  0.7077 -0.6313 -0.0249
  164MOL0     H22590   6.715  11.022   5.451  2.4839 -0.9705 -0.3662
  164MOL0     H22591   6.756  11.130   5.109 -2.6293  1.7229  1.1165
  164MOL0     H22592   6.895  11.086   5.208 -0.8553 -0.6495 -0.8665
  164MOL0     H22593   6.771  11.179   5.281  1.8480  1.9902 -1.8153
  164MOL0     H22594   6.683  11.113   4.768 -0.3529 -0.2654  1.6953
  164MOL0     H22595   6.721  11.115   4.528 -2.7558 -0.6321  0.4277
  164MOL0     H22596   6.595  10.961   4.308  0.0783 -2.3947  2.1032
  164MOL0     H22597   6.739  11.071   4.288 -1.2271  0.6894  0.3352
  164MOL0     H22598   6.719  10.802   4.153 -2.0123 -0.1697 -1.5910
  164MOL0     H22599   6.669  10.952   4.079 -3.0996 -0.1034  1.6805
  164MOL0     H22600   6.960  10.890   4.166  1.9072  1.7042 -2.2877
  164MOL0     H22601   6.899  11.042   4.098  2.2547  0.1596  0.1139
  164MOL0     H22602   6.976  10.935   3.920 -1.9084  2.3584 -1.4377
  164MOL0     H22603   6.809  10.929   3.909 -1.1042  1.0408  3.7582
  164MOL0     H22604   6.960  10.678   4.016  1.9242  1.3191 -0.9847
  164MOL0     H22605   6.799  10.687   3.946 -0.0194  0.4105 -1.5864
  164MOL0     H22606   6.932  10.778   3.737  1.0602 -1.0900 -1.6124
  164MOL0     H22607   6.890  10.607   3.756  1.0192 -2.7006  3.5934
  164MOL0     H22608   7.125  10.604   3.681  3.0979  1.6493  0.3679
  164MOL0     H22609   7.106  10.550   3.843 -5.3503 -0.5947  1.3198
  164MOL0     H22610   7.194  10.758   3.929  2.9855  3.4658 -0.0109
  164MOL0     H22611   7.193  10.841   3.782 -0.3470  0.9673  1.5686
  164MOL0     H22612   6.808  10.697   4.560 -1.1012  1.0436 -2.7050
  164MOL0     H22613   6.743  10.701   4.793 -3.5772  0.2653  0.9577
  164MOL0     H22614   6.623  10.654   5.118 -1.3452 -0.6466  1.7678
  164MOL0     H22615   6.515  10.640   5.339  0.0797 -0.4044 -0.4781
  164MOL0     H22616   7.125  11.043   4.946  0.9654  2.8589 -0.9639
  164MOL0     H22617   7.284  11.046   4.767  0.5055 -1.0755 -0.3773
  164MOL0     H22618   7.721  10.817   4.747 -1.1980  0.2480 -0.7914
  164MOL0     H22619   7.886  10.701   4.621  0.8368 -0.1521  1.1336
  164MOL0     H22620   7.986  10.641   4.209  0.5480  0.0757  0.2110
  164MOL0     H22621   7.844  10.743   4.193  0.6822  2.0877 -0.1304
  164MOL0     H22622   8.127  10.827   4.246  0.0985  1.1611  0.0776
  164MOL0     H22623   8.000  10.940   4.218 -0.8340 -1.6971  2.4276
  164MOL0     H22624   8.068  10.728   4.010 -2.6661  0.8671 -1.4307
  164MOL0     H22625   7.959  10.872   3.983  0.3239  3.2110  1.3289
  164MOL0     H22626   8.149  11.021   3.976  0.0281 -0.4896  0.1084
  164MOL0     H22627   8.160  10.899   3.853  0.7564  0.0623  0.8399
  164MOL0     H22628   8.443  10.703   4.106 -2.2282 -3.4650 -0.2263
  164MOL0     H22629   7.806  10.973   4.286  0.2434  2.3066  0.3181
  164MOL0     H22630   7.607  11.192   4.446 -2.8915 -1.7297  2.3731
  164MOL0     H22631   7.665  11.127   4.283  0.4964 -1.9772 -0.6614
  164MOL0     H22632   7.524  11.063   4.366 -0.3553  2.1191 -1.0652
  165MOL0     O22633   1.510   3.717   0.771  0.5550  0.3001 -0.6142
  165MOL0     C22634   1.432   3.815   0.764  0.0635  0.6496 -0.6599
  165MOL0     O22635   1.430   3.907   0.659  0.1217 -0.3240  0.0769
  165MOL0     C22636   1.540   3.910   0.580  0.3859  0.3303 -0.7395
  165MOL0     C22637   1.518   3.903   0.442 -0.4622  0.3113  0.0000
  165MOL0     C22638   1.635   3.919   0.355  0.4291  0.1876 -0.2482
  165MOL0     C22639   1.759   3.944   0.412 -0.1717 -0.2556 -0.0050
  165MOL0     O22640   1.864   3.971   0.334  0.0064 -0.3821 -0.0059
  165MOL0     C22641   1.885   3.907   0.206  0.7350  0.7829  1.1703
  165MOL0     C22642   1.879   3.754   0.228  0.2221  0.4055 -0.4582
  165MOL0     C22643   1.983   3.704   0.336  0.1957 -0.0853  0.6864
  165MOL0     C22644   2.113   3.662   0.279 -0.2919 -0.6099 -0.0009
  165MOL0     C22645   2.214   3.601   0.384 -1.4559 -0.4376  0.0474
  165MOL0     C22646   2.154   3.494   0.453 -0.4657  0.2038 -0.1105
  165MOL0     C22647   2.272   3.416   0.537 -0.0992 -0.5100 -0.3597
  165MOL0     C22648   2.356   3.498   0.632 -0.3439  0.0426  0.4833
  165MOL0     N22649   2.262   3.552   0.728  0.3443  0.1173 -0.5740
  165MOL0     C22650   2.235   3.494   0.854 -0.0910 -0.5435  0.2450
  165MOL0     C22651   2.193   3.600   0.927 -0.0994 -0.1159 -0.8654
  165MOL0     C22652   2.136   3.582   1.067  0.6090 -0.4610 -1.2311
  165MOL0     C22653   2.230   3.598   1.198 -0.2539  0.4795  0.4454
  165MOL0     C22654   2.274   3.462   1.255  0.6331 -0.2151 -0.1154
  165MOL0     C22655   2.398   3.426   1.182 -0.0029  0.7832 -1.2772
  165MOL0     O22656   2.449   3.307   1.249  0.7066  0.2983  0.3805
  165MOL0     C22657   2.537   3.318   1.351 -0.0463 -0.3670 -0.0948
  165MOL0     C22658   2.640   3.409   1.366 -0.0239 -0.8857  0.4530
  165MOL0     C22659   2.731   3.413   1.481 -0.5651  0.8481 -0.2773
  165MOL0     C22660   2.830   3.523   1.483 -0.0555 -0.2812  0.0634
  165MOL0     C22661   2.712   3.319   1.590 -0.7749 -0.3592  0.8452
  165MOL0     C22662   2.788   3.310   1.712 -0.2963  0.4903  0.1406
  165MOL0     O22663   2.761   3.205   1.793 -0.3999 -0.4167 -0.0619
  165MOL0     C22664   2.823   3.208   1.907 -0.5029 -0.0377 -0.3004
  165MOL0     C22665   2.950   3.149   1.906  0.3061  0.2008 -0.6632
  165MOL0     C22666   3.014   3.120   2.024 -0.8288 -0.4911 -1.3934
  165MOL0     C22667   2.949   3.142   2.144 -0.3732 -0.8425  0.0566
  165MOL0     O22668   3.007   3.110   2.265  0.0774 -0.1089  0.2947
  165MOL0     C22669   3.152   3.090   2.272  0.7850  0.2310  0.4548
  165MOL0     C22670   3.184   3.089   2.418 -0.8604  0.1838 -0.1915
  165MOL0     C22671   3.331   3.100   2.439  0.9318 -0.5200 -0.1966
  165MOL0     C22672   3.367   3.240   2.467  0.2905 -0.3987  0.9539
  165MOL0     C22673   3.498   3.273   2.531  0.3439  0.4644  0.0929
  165MOL0     C22674   3.501   3.224   2.681 -0.0089  0.0187 -0.7045
  165MOL0     C22675   3.631   3.283   2.732 -0.2815 -0.7662  0.6646
  165MOL0     C22676   3.679   3.215   2.865 -0.7794  0.1320 -0.3083
  165MOL0    Cl22677   3.835   3.281   2.904 -0.2224 -0.3299 -0.4114
  165MOL0     C22678   2.816   3.193   2.147 -0.1263 -0.6393 -0.5191
  165MOL0     C22679   2.749   3.222   2.027  0.1579  0.1487  0.3821
  165MOL0     O22680   2.867   3.398   1.730 -0.3484  0.3223 -0.5167
  165MOL0     C22681   2.606   3.221   1.563  1.1508 -0.2401 -0.2859
  165MOL0     C22682   2.516   3.227   1.451 -0.7283 -0.3126  0.0413
  165MOL0     N22683   2.187   3.716   0.849  0.3853 -0.2201  1.2932
  165MOL0     N22684   2.224   3.680   0.731 -0.5465 -0.3881  0.6683
  165MOL0     C22685   1.771   3.953   0.551  0.4165 -0.7751  0.0438
  165MOL0     C22686   1.663   3.936   0.639 -0.5501 -0.2314  0.0516
  165MOL0     C22687   1.321   3.848   0.875 -0.0111 -0.3085  0.3357
  165MOL0     C22688   1.229   3.960   0.862  0.3528 -0.1627 -0.3849
  165MOL0     C22689   1.128   3.986   0.957  0.2598 -0.6471  0.7607
  165MOL0     C22690   1.099   3.908   1.064  0.3099  1.1984  0.1078
  165MOL0     O22691   1.002   3.944   1.149 -0.3029 -0.1258  0.3467
  165MOL0     C22692   0.947   3.838   1.225  0.3983 -0.4395 -0.7092
  165MOL0     C22693   0.814   3.888   1.291 -1.7922  0.4786 -1.0733
  165MOL0     C22694   0.709   3.950   1.196 -0.4071  0.1999  0.8978
  165MOL0     C22695   0.584   4.004   1.269 -0.9247  0.1915  0.2719
  165MOL0     C22696   0.468   4.020   1.189  0.7878 -0.2431  0.1403
  165MOL0     C22697   0.383   4.040   1.105  0.3456  1.2154 -0.3875
  165MOL0     C22698   1.195   3.807   1.087  0.5604 -0.5777 -0.1286
  165MOL0     C22699   1.302   3.774   0.997 -0.0018 -0.8900  0.4446
  165MOL0     C22700   1.390   3.657   1.045  0.5250 -0.1510 -0.6956
  165MOL0     H22701   1.415   3.887   0.410 -0.6841  0.2414  0.7232
  165MOL0     H22702   1.619   3.920   0.248 -2.6408 -0.9591  0.1021
  165MOL0     H22703   1.982   3.933   0.163 -0.0645 -0.9161 -1.9520
  165MOL0     H22704   1.807   3.941   0.138  0.0561  2.6984  2.8058
  165MOL0     H22705   1.781   3.710   0.250  0.1189  0.1226 -1.4410
  165MOL0     H22706   1.913   3.714   0.132  0.6021 -1.5913  0.4508
  165MOL0     H22707   2.011   3.790   0.398  1.2978 -1.2634  1.8844
  165MOL0     H22708   1.924   3.634   0.396 -0.7440 -2.3437 -2.5759
  165MOL0     H22709   2.086   3.586   0.205  2.9683 -3.5929  1.6229
  165MOL0     H22710   2.152   3.758   0.243 -1.4425  0.1764  0.8039
  165MOL0     H22711   2.237   3.685   0.451  0.7225 -0.5561 -0.4735
  165MOL0     H22712   2.307   3.563   0.342 -0.2547  2.1338  0.1698
  165MOL0     H22713   2.076   3.525   0.523  1.2849 -1.6754  2.9098
  165MOL0     H22714   2.125   3.415   0.384  0.2212  0.8049 -1.1105
  165MOL0     H22715   2.344   3.379   0.464 -1.1300  2.5460 -3.1825
  165MOL0     H22716   2.219   3.342   0.597 -4.3037  2.5217  0.1429
  165MOL0     H22717   2.433   3.436   0.678 -2.3675 -3.0349  0.0317
  165MOL0     H22718   2.412   3.582   0.589  0.1003 -0.0934  0.7992
  165MOL0     H22719   2.248   3.392   0.888  0.8769 -0.6091 -0.2831
  165MOL0     H22720   2.083   3.487   1.064  2.7366 -1.7694 -0.2769
  165MOL0     H22721   2.057   3.656   1.080  2.0029  0.8531  0.1666
  165MOL0     H22722   2.307   3.675   1.191 -1.2406  1.3878 -4.1433
  165MOL0     H22723   2.160   3.634   1.274 -0.4222  0.5801  0.2445
  165MOL0     H22724   2.311   3.479   1.356  0.8449  0.3634 -0.2816
  165MOL0     H22725   2.196   3.386   1.251  3.1149 -2.8973 -2.2909
  165MOL0     H22726   2.380   3.406   1.076 -3.1045 -0.0538 -0.7085
  165MOL0     H22727   2.473   3.506   1.188  0.1064  0.6324 -0.5233
  165MOL0     H22728   2.657   3.485   1.289 -3.7794  1.8011  1.9629
  165MOL0     H22729   2.855   3.555   1.382  0.9740 -0.4251  0.2634
  165MOL0     H22730   2.924   3.488   1.528  0.9550  1.3093 -0.7441
  165MOL0     H22731   2.788   3.595   1.553 -1.9374  1.4827 -2.7043
  165MOL0     H22732   2.998   3.119   1.813  1.9662  1.6107 -0.3211
  165MOL0     H22733   3.117   3.091   2.011  0.3616  2.8575 -0.3148
  165MOL0     H22734   3.158   2.995   2.219 -1.5142 -0.2767  0.9853
  165MOL0     H22735   3.207   3.171   2.222 -0.0253  1.4118  1.4011
  165MOL0     H22736   3.137   3.176   2.466  1.1165  1.4527 -0.4241
  165MOL0     H22737   3.146   3.003   2.473 -1.5106 -0.7017 -1.9265
  165MOL0     H22738   3.395   3.052   2.364 -1.1784  0.9390 -3.1185
  165MOL0     H22739   3.352   3.043   2.530 -0.4343  0.2689  0.6512
  165MOL0     H22740   3.291   3.294   2.525  1.2166  2.1274 -0.0135
  165MOL0     H22741   3.387   3.296   2.375  2.3967 -0.7281  1.1533
  165MOL0     H22742   3.584   3.223   2.485  1.2643 -0.6384  2.8365
  165MOL0     H22743   3.511   3.382   2.527  2.2559  0.2772  0.4537
  165MOL0     H22744   3.494   3.115   2.687 -3.0539  0.1412 -0.5659
  165MOL0     H22745   3.408   3.254   2.730 -0.4600 -0.2461 -1.3884
  165MOL0     H22746   3.612   3.389   2.750 -1.4098 -1.0520  1.1969
  165MOL0     H22747   3.702   3.259   2.652 -2.1250  0.0810 -1.3233
  165MOL0     H22748   3.674   3.106   2.859  0.2043 -0.0994  1.9316
  165MOL0     H22749   3.613   3.246   2.947 -3.4433  3.1708 -3.3057
  165MOL0     H22750   2.786   3.226   2.246 -4.1893  1.5925 -2.2588
  165MOL0     H22751   2.651   3.266   2.043  1.6112  3.4138  0.9854
  165MOL0     H22752   2.577   3.148   1.638 -1.2145  1.3149  0.4235
  165MOL0     H22753   2.432   3.160   1.437 -2.5202  1.7752  0.2708
  165MOL0     H22754   1.870   3.985   0.581  0.0804 -0.8864  1.3432
  165MOL0     H22755   1.685   3.944   0.745  1.0094 -0.7047 -0.2122
  165MOL0     H22756   1.232   4.017   0.769  0.6596 -1.0314 -0.9235
  165MOL0     H22757   1.064   4.072   0.943  0.8666 -0.3922 -0.7294
  165MOL0     H22758   0.925   3.757   1.155 -1.5214 -0.2961 -0.3346
  165MOL0     H22759   1.013   3.801   1.305 -0.3562 -1.2527 -0.4379
  165MOL0     H22760   0.847   3.957   1.369 -2.3310 -0.2572 -0.1664
  165MOL0     H22761   0.767   3.808   1.350 -1.1763  0.4242 -0.6435
  165MOL0     H22762   0.762   4.028   1.142  1.5722 -0.8835  1.1828
  165MOL0     H22763   0.681   3.864   1.134  2.3986  0.4693 -0.9186
  165MOL0     H22764   0.605   4.097   1.322 -1.7462  2.0699 -2.4475
  165MOL0     H22765   0.556   3.932   1.346 -0.9324  2.1551  2.2039
  165MOL0     H22766   0.326   4.072   1.020 -1.2217  2.1041  0.9141
  165MOL0     H22767   1.174   3.740   1.170  1.6210 -0.0240  0.6053
  165MOL0     H22768   1.339   3.567   1.008 -2.0305 -0.4488  3.0320
  165MOL0     H22769   1.497   3.663   1.022  1.4858 -0.9131  2.8787
  165MOL0     H22770   1.398   3.653   1.154  0.4526 -1.6530 -0.7152
  166MOL0     O22771   4.806   0.364   3.277  0.6456  0.4677 -0.1489
  166MOL0     C22772   4.869   0.355   3.176 -1.0629  0.4752 -0.1289
  166MOL0     O22773   4.943   0.450   3.130  0.7336  0.1584  0.8467
  166MOL0     C22774   4.960   0.571   3.192 -0.7489  1.0160 -0.2527
  166MOL0     C22775   4.954   0.606   3.334  0.7619  0.9104  0.5098
  166MOL0     C22776   4.988   0.731   3.379  0.8776  0.3337  0.8241
  166MOL0     C22777   5.022   0.829   3.288  0.3989 -0.0600 -0.4661
  166MOL0     O22778   5.055   0.950   3.342  0.3543  0.9026  0.0636
  166MOL0     C22779   5.038   1.074   3.261 -1.1637  0.2558 -0.5921
  166MOL0     C22780   5.050   1.193   3.356  0.7144  0.2184  0.2913
  166MOL0     C22781   5.022   1.324   3.281 -0.4214  0.2259 -0.1613
  166MOL0     C22782   5.149   1.384   3.214 -0.2700  0.1041  0.4390
  166MOL0     C22783   5.116   1.513   3.139  0.5640 -0.2882 -0.0356
  166MOL0     C22784   5.233   1.558   3.057 -0.6432 -0.2474 -0.1442
  166MOL0     C22785   5.253   1.704   3.073 -0.1194  0.0729  0.8347
  166MOL0     C22786   5.355   1.720   3.189 -0.1634 -0.6176  0.2030
  166MOL0     N22787   5.314   1.656   3.313  0.8273 -0.3382 -0.4792
  166MOL0     C22788   5.208   1.700   3.395 -1.0883 -0.6787  0.1586
  166MOL0     C22789   5.232   1.630   3.512 -0.0900 -0.3497 -1.2748
  166MOL0     C22790   5.139   1.614   3.642  0.2048  0.1881 -0.5370
  166MOL0     C22791   5.162   1.486   3.700 -0.6006 -0.2991  0.3631
  166MOL0     C22792   5.091   1.471   3.834 -0.1214 -0.5971 -0.3088
  166MOL0     C22793   4.940   1.429   3.818  0.7125 -0.8597 -0.6097
  166MOL0     O22794   4.941   1.304   3.754  0.0261  0.0141 -0.2703
  166MOL0     C22795   4.821   1.247   3.720  1.2695  0.1829  0.3645
  166MOL0     C22796   4.700   1.319   3.723 -0.7382  0.5405  0.3097
  166MOL0     C22797   4.580   1.256   3.663 -0.1618 -0.8176  0.0036
  166MOL0     C22798   4.459   1.337   3.674  0.0531 -0.0840 -0.3950
  166MOL0     C22799   4.579   1.120   3.609 -0.6133  0.5612  1.3823
  166MOL0     C22800   4.465   1.055   3.532  0.2429  0.1754 -0.7290
  166MOL0     O22801   4.466   0.921   3.512 -0.6118 -0.1792 -0.0838
  166MOL0     C22802   4.363   0.872   3.443  0.2770 -0.0794  0.2019
  166MOL0     C22803   4.402   0.816   3.315  0.3470 -0.4739 -0.3099
  166MOL0     C22804   4.304   0.755   3.240  0.0035  0.2508 -0.3599
  166MOL0     C22805   4.171   0.755   3.275  0.5087 -0.6507 -0.0448
  166MOL0     O22806   4.061   0.696   3.210 -0.5802  0.2136 -0.0002
  166MOL0     C22807   4.087   0.617   3.095 -0.1053  0.6132  0.5160
  166MOL0     C22808   3.966   0.526   3.064 -0.4562 -0.4863 -1.3309
  166MOL0     C22809   3.888   0.473   3.198 -0.7960  0.2277 -0.0677
  166MOL0     C22810   3.787   0.374   3.147  0.0549 -0.1047  0.2903
  166MOL0     C22811   3.711   0.335   3.277 -1.0521 -0.0155 -0.2396
  166MOL0     C22812   3.592   0.231   3.263 -0.1410 -0.2070 -0.8704
  166MOL0     C22813   3.538   0.195   3.400  1.0366 -0.4670  0.0173
  166MOL0     C22814   3.429   0.088   3.393 -0.6204  1.3854 -0.3356
  166MOL0    Cl22815   3.265   0.154   3.374  0.2305  0.1891  0.1925
  166MOL0     C22816   4.138   0.806   3.409  0.0570 -0.0243  0.3652
  166MOL0     C22817   4.232   0.870   3.486 -0.7709 -0.0140 -0.5560
  166MOL0     O22818   4.377   1.129   3.504  0.0550  0.0452  0.4134
  166MOL0     C22819   4.703   1.053   3.608 -0.1692  0.6123 -1.2530
  166MOL0     C22820   4.815   1.120   3.661  0.0343  1.0486 -0.0184
  166MOL0     N22821   5.356   1.568   3.511 -0.3805  0.2421 -0.1780
  166MOL0     N22822   5.394   1.582   3.391  0.3376  0.1956 -0.4249
  166MOL0     C22823   5.039   0.801   3.154  0.2776  0.4895  0.1487
  166MOL0     C22824   5.014   0.671   3.107 -0.5186  0.4176  0.9305
  166MOL0     C22825   4.874   0.223   3.097  0.3142 -1.0687 -0.3078
  166MOL0     C22826   4.893   0.232   2.960  0.2825  0.1917  0.2491
  166MOL0     C22827   4.851   0.125   2.876 -0.3147 -0.1440 -0.1988
  166MOL0     C22828   4.803   0.004   2.925  0.5399  0.4133 -0.5405
  166MOL0     O22829   4.776  -0.112   2.852  0.1563  0.1320 -0.2916
  166MOL0     C22830   4.842  -0.114   2.721 -0.4543 -0.1845  0.2460
  166MOL0     C22831   4.800  -0.229   2.638  0.3618  0.2626  0.0482
  166MOL0     C22832   4.904  -0.250   2.517  1.3432 -0.2755 -1.0785
  166MOL0     C22833   4.825  -0.323   2.411  0.4408  0.6991 -0.5989
  166MOL0     C22834   4.890  -0.314   2.285  0.3731 -0.2092 -0.4722
  166MOL0     C22835   4.945  -0.321   2.180  0.4073 -0.3273 -0.1325
  166MOL0     C22836   4.800  -0.010   3.062 -0.1658 -0.1468  0.6138
  166MOL0     C22837   4.833   0.099   3.158  1.1806  0.3249  1.0264
  166MOL0     C22838   4.824   0.069   3.296  0.1491 -0.5403  0.7576
  166MOL0     H22839   4.941   0.527   3.407  2.4550 -1.3655 -1.4720
  166MOL0     H22840   4.985   0.764   3.482 -0.2347 -0.9073  1.2276
  166MOL0     H22841   4.942   1.074   3.210 -0.6592  3.8614 -1.8020
  166MOL0     H22842   5.126   1.093   3.199  2.6896  0.3833  4.2072
  166MOL0     H22843   4.969   1.184   3.428  0.4971 -0.9165 -0.0836
  166MOL0     H22844   5.134   1.209   3.424 -1.6507  1.1951  3.2112
  166MOL0     H22845   4.937   1.315   3.213 -1.2607  4.8767 -0.0805
  166MOL0     H22846   4.992   1.396   3.357 -2.0613  1.5600 -1.9683
  166MOL0     H22847   5.233   1.394   3.283  1.9044 -0.5817 -1.9608
  166MOL0     H22848   5.168   1.309   3.137  2.3356  0.2471  0.8773
  166MOL0     H22849   5.078   1.590   3.207 -1.0552 -0.4955 -0.6533
  166MOL0     H22850   5.022   1.499   3.085  0.2946 -1.4520  0.6963
  166MOL0     H22851   5.316   1.488   3.077 -1.9412 -1.3053  1.7862
  166MOL0     H22852   5.203   1.549   2.952 -1.2549  2.6933 -0.3003
  166MOL0     H22853   5.156   1.745   3.101 -0.7562 -1.6224  1.2575
  166MOL0     H22854   5.300   1.750   2.986  0.7948  1.7920  2.1815
  166MOL0     H22855   5.449   1.672   3.161 -0.5368 -0.0662 -2.2298
  166MOL0     H22856   5.359   1.828   3.200 -0.9908 -0.6426  0.9026
  166MOL0     H22857   5.122   1.754   3.356  0.3180 -2.1939 -6.1647
  166MOL0     H22858   5.032   1.615   3.619  0.0523 -1.6573 -0.0770
  166MOL0     H22859   5.164   1.698   3.707 -0.8031  0.2708 -0.2419
  166MOL0     H22860   5.130   1.405   3.633 -0.0018  2.1269 -3.1410
  166MOL0     H22861   5.267   1.465   3.722 -0.8658 -1.2211  0.7972
  166MOL0     H22862   5.144   1.405   3.904 -0.6533  0.1729  0.8441
  166MOL0     H22863   5.089   1.574   3.871 -0.9388  0.3717 -2.8357
  166MOL0     H22864   4.881   1.418   3.910 -1.0588  0.0524 -1.5885
  166MOL0     H22865   4.907   1.513   3.756 -1.8248 -3.7323 -3.5156
  166MOL0     H22866   4.690   1.421   3.759 -3.2572 -0.1954  1.8593
  166MOL0     H22867   4.440   1.370   3.572 -1.9537  0.6804  0.1857
  166MOL0     H22868   4.469   1.430   3.730 -2.7592 -1.0083  1.8563
  166MOL0     H22869   4.369   1.284   3.707  2.0586 -2.9718  0.9633
  166MOL0     H22870   4.505   0.805   3.282 -0.3183 -0.5037 -2.5808
  166MOL0     H22871   4.338   0.718   3.144  0.1615  2.4250 -1.2168
  166MOL0     H22872   4.108   0.677   3.005  0.6836  2.0847  1.6446
  166MOL0     H22873   4.172   0.554   3.121 -0.4821 -1.3738 -2.5146
  166MOL0     H22874   3.899   0.590   3.005  3.1530  4.5879 -0.6263
  166MOL0     H22875   3.999   0.448   2.995  1.9639  1.3845 -2.4415
  166MOL0     H22876   3.833   0.546   3.258 -0.0986 -1.2214  2.4806
  166MOL0     H22877   3.949   0.424   3.274 -1.8683 -0.5799  0.3085
  166MOL0     H22878   3.834   0.291   3.093  1.3289  1.0995 -0.5199
  166MOL0     H22879   3.724   0.424   3.073  1.2134  0.5239 -0.2958
  166MOL0     H22880   3.783   0.301   3.352  2.0432  2.4282 -1.8839
  166MOL0     H22881   3.671   0.427   3.319  0.5473  0.8701 -0.5672
  166MOL0     H22882   3.631   0.147   3.205 -0.5882 -1.5342  0.6819
  166MOL0     H22883   3.518   0.276   3.196  0.7921  1.2894 -0.9456
  166MOL0     H22884   3.508   0.284   3.456 -0.1242 -0.6700 -0.2572
  166MOL0     H22885   3.616   0.150   3.463  0.2294 -1.5198  0.2928
  166MOL0     H22886   3.430   0.033   3.488 -0.2011  2.4404  0.2957
  166MOL0     H22887   3.445   0.019   3.310 -1.8403 -0.3234  0.7979
  166MOL0     H22888   4.042   0.788   3.457 -1.7532  0.5437 -2.7415
  166MOL0     H22889   4.198   0.916   3.578 -2.9379  0.9420 -1.7764
  166MOL0     H22890   4.712   0.956   3.562 -1.5923 -0.1710  0.0135
  166MOL0     H22891   4.907   1.064   3.652 -0.4766  0.3210 -0.8800
  166MOL0     H22892   5.098   0.868   3.091 -0.9248  2.5575  1.1023
  166MOL0     H22893   5.041   0.651   3.004 -2.8299 -0.0907  0.3610
  166MOL0     H22894   4.911   0.330   2.915 -4.7414  1.9299  1.4229
  166MOL0     H22895   4.876   0.150   2.773  1.2057  1.2323  0.4518
  166MOL0     H22896   4.827  -0.021   2.665  1.4336  2.3348  3.5129
  166MOL0     H22897   4.950  -0.123   2.732  0.0033  0.2727 -2.9624
  166MOL0     H22898   4.698  -0.212   2.603 -0.5389 -1.2752  1.7335
  166MOL0     H22899   4.805  -0.322   2.696  2.7968 -1.1309 -2.1729
  166MOL0     H22900   4.929  -0.146   2.491  2.3623  0.8977  3.6030
  166MOL0     H22901   4.982  -0.317   2.554 -1.2647 -3.1985 -0.5012
  166MOL0     H22902   4.727  -0.277   2.393  0.5875  0.9691 -0.7211
  166MOL0     H22903   4.808  -0.430   2.423 -1.3812  0.8200 -1.6552
  166MOL0     H22904   4.978  -0.345   2.081  1.5428  1.4086 -0.2078
  166MOL0     H22905   4.760  -0.104   3.099  0.9066 -1.1963 -0.8068
  166MOL0     H22906   4.800  -0.037   3.308 -0.4302 -0.3445  1.3878
  166MOL0     H22907   4.920   0.088   3.343  0.3522  0.0912  0.1078
  166MOL0     H22908   4.748   0.119   3.358  0.3155 -1.3362  1.6186
  167MOL0     O22909   7.550   6.007   2.448  0.1267 -0.0919 -0.4271
  167MOL0     C22910   7.557   6.043   2.569 -0.6942 -1.1849  0.5662
  167MOL0     O22911   7.651   6.122   2.621 -0.3459 -0.0105 -0.1965
  167MOL0     C22912   7.756   6.166   2.539  0.3116 -0.2351  0.9872
  167MOL0     C22913   7.891   6.155   2.567  0.2847  0.8519 -0.1782
  167MOL0     C22914   7.989   6.215   2.493 -0.0436 -0.8825  0.6114
  167MOL0     C22915   7.966   6.272   2.374  1.0243 -0.1212  0.7146
  167MOL0     O22916   8.070   6.337   2.308  0.4317 -0.2128 -0.2880
  167MOL0     C22917   8.025   6.418   2.194 -0.5476  0.2516 -0.2452
  167MOL0     C22918   8.142   6.468   2.111  0.2109 -0.7492  0.4026
  167MOL0     C22919   8.097   6.574   2.004  0.8116  1.0135 -0.8195
  167MOL0     C22920   8.196   6.640   1.910  0.1660  0.2886 -0.1039
  167MOL0     C22921   8.120   6.728   1.807 -0.0355 -0.6711 -0.5741
  167MOL0     C22922   8.207   6.801   1.711 -0.6205 -0.1189  0.4313
  167MOL0     C22923   8.269   6.934   1.773 -0.8631 -0.9551  0.5128
  167MOL0     C22924   8.358   7.017   1.675  0.3327  0.5943  0.0698
  167MOL0     N22925   8.411   7.140   1.735  0.0751  0.5533  0.4644
  167MOL0     C22926   8.332   7.246   1.780 -0.3951 -0.2451  0.4386
  167MOL0     C22927   8.395   7.317   1.878  0.6946  0.1668 -0.1032
  167MOL0     C22928   8.338   7.447   1.942 -1.0044 -0.2937  0.3473
  167MOL0     C22929   8.209   7.446   2.010  0.1189  0.9442 -0.4104
  167MOL0     C22930   8.182   7.572   2.092 -0.2779  0.0364 -0.0200
  167MOL0     C22931   8.026   7.582   2.113  0.1228  0.4392  0.7654
  167MOL0     O22932   8.000   7.479   2.220 -0.6678 -0.5504  0.1327
  167MOL0     C22933   7.879   7.421   2.216  0.3439  0.0911  0.2332
  167MOL0     C22934   7.764   7.484   2.253 -0.1501  0.2659 -0.7956
  167MOL0     C22935   7.642   7.421   2.239  0.2870  0.6433 -0.1753
  167MOL0     C22936   7.532   7.494   2.290 -0.3170 -0.3238 -0.1219
  167MOL0     C22937   7.634   7.282   2.188 -0.3136 -0.3659 -0.0423
  167MOL0     C22938   7.507   7.209   2.164  0.2114 -0.2281 -0.2082
  167MOL0     O22939   7.529   7.076   2.134 -0.2619 -0.9032  1.0662
  167MOL0     C22940   7.420   7.004   2.088 -0.3762 -0.3352  0.2405
  167MOL0     C22941   7.368   7.007   1.961 -0.3080 -0.1130  0.3293
  167MOL0     C22942   7.270   6.914   1.920  0.1118 -1.4831 -0.0944
  167MOL0     C22943   7.209   6.826   2.005 -0.5371 -0.5769  0.5953
  167MOL0     O22944   7.104   6.749   1.980 -1.0399  0.8172  0.4451
  167MOL0     C22945   7.061   6.740   1.842 -1.2706 -0.4825 -0.3344
  167MOL0     C22946   6.930   6.825   1.823  0.1053  0.5149  0.4470
  167MOL0     C22947   6.817   6.784   1.918  0.0790  0.6169  1.0483
  167MOL0     C22948   6.708   6.891   1.909  0.1748  0.6229  0.4751
  167MOL0     C22949   6.567   6.822   1.939  0.0970 -0.3033 -0.1769
  167MOL0     C22950   6.560   6.769   2.086 -0.0310 -0.7652  0.1675
  167MOL0     C22951   6.411   6.818   2.142  0.1111  0.7411  1.1230
  167MOL0     C22952   6.388   6.800   2.287  0.2133 -0.6271  0.4186
  167MOL0    Cl22953   6.208   6.815   2.320 -0.0346 -0.2536  0.2832
  167MOL0     C22954   7.264   6.814   2.130 -0.0224  0.6545 -0.7087
  167MOL0     C22955   7.365   6.907   2.177  0.5283 -0.2146 -0.5067
  167MOL0     O22956   7.395   7.254   2.199  0.1565 -0.1469  0.2383
  167MOL0     C22957   7.755   7.217   2.153 -0.4740  0.1929  0.7983
  167MOL0     C22958   7.880   7.286   2.169  1.6916  0.9527 -0.0088
  167MOL0     N22959   8.523   7.254   1.891  0.3269 -0.0048  0.5804
  167MOL0     N22960   8.524   7.162   1.809  0.1452  0.4388  0.0030
  167MOL0     C22961   7.828   6.290   2.334  0.0809  0.3166 -0.6444
  167MOL0     C22962   7.725   6.241   2.421 -0.3795 -0.6009  0.9407
  167MOL0     C22963   7.467   5.966   2.656  0.0120 -0.4076 -0.1218
  167MOL0     C22964   7.366   5.881   2.591  0.4416 -0.7204  0.0492
  167MOL0     C22965   7.281   5.800   2.660  0.2899  0.7924  0.0905
  167MOL0     C22966   7.275   5.810   2.794 -0.5969  0.1332 -0.6394
  167MOL0     O22967   7.185   5.731   2.856  0.4832 -0.5300 -0.1691
  167MOL0     C22968   7.210   5.718   2.994  0.4694 -0.0065  0.6761
  167MOL0     C22969   7.138   5.595   3.047 -0.9450 -0.5590 -0.0054
  167MOL0     C22970   7.163   5.577   3.194 -0.4147  0.2754  0.4446
  167MOL0     C22971   7.058   5.650   3.285  0.4173  0.0964 -0.0139
  167MOL0     C22972   7.059   5.799   3.307  0.3774  0.7993  0.1000
  167MOL0     C22973   7.075   5.923   3.306  1.1012  1.3580  0.8729
  167MOL0     C22974   7.373   5.891   2.867 -0.0728 -0.2756 -0.4634
  167MOL0     C22975   7.471   5.968   2.798  0.6679 -0.0319 -0.1679
  167MOL0     C22976   7.578   6.043   2.882 -0.2591  0.2893 -0.3214
  167MOL0     H22977   7.928   6.109   2.658  0.1114  0.5734 -0.2466
  167MOL0     H22978   8.086   6.194   2.535 -1.6811 -3.4739  3.4825
  167MOL0     H22979   7.970   6.507   2.224 -0.9534  0.2578 -0.9877
  167MOL0     H22980   7.968   6.354   2.126  0.1223 -1.0454  0.3608
  167MOL0     H22981   8.220   6.516   2.171  2.6232 -2.9871 -0.7478
  167MOL0     H22982   8.183   6.380   2.060 -0.7935 -0.9277 -0.1206
  167MOL0     H22983   8.021   6.523   1.944  1.1201  0.4642 -0.7441
  167MOL0     H22984   8.049   6.650   2.067  1.1610 -0.9089  1.9247
  167MOL0     H22985   8.270   6.684   1.978 -0.0352 -0.9978  0.9989
  167MOL0     H22986   8.238   6.562   1.846 -1.8403 -1.6884  0.8616
  167MOL0     H22987   8.063   6.802   1.864 -0.6007 -0.7796 -0.9842
  167MOL0     H22988   8.046   6.663   1.759  0.8340 -1.1620 -1.2675
  167MOL0     H22989   8.277   6.736   1.658  1.5543  1.8588  0.7042
  167MOL0     H22990   8.139   6.823   1.628  2.7820 -1.4094 -3.0242
  167MOL0     H22991   8.316   6.920   1.870  1.5294 -0.4915 -0.4954
  167MOL0     H22992   8.184   7.002   1.786 -0.0216  1.4924 -4.4011
  167MOL0     H22993   8.447   6.956   1.655 -1.7581 -2.4509 -0.7857
  167MOL0     H22994   8.309   7.042   1.581 -0.1884 -0.3405  0.0767
  167MOL0     H22995   8.243   7.285   1.731  0.6625  1.8394  0.0673
  167MOL0     H22996   8.335   7.530   1.870  4.3121  0.3996  0.5429
  167MOL0     H22997   8.419   7.485   2.005 -0.0800  2.6160 -2.3330
  167MOL0     H22998   8.125   7.438   1.941 -3.7876  0.5472  3.9396
  167MOL0     H22999   8.209   7.350   2.062 -0.9794  1.5101  0.6749
  167MOL0     H23000   8.228   7.567   2.191 -3.0838  0.5703  1.4091
  167MOL0     H23001   8.218   7.658   2.035 -1.3254  1.7560  1.8024
  167MOL0     H23002   7.991   7.681   2.144 -0.5857  0.8219 -1.1209
  167MOL0     H23003   7.963   7.562   2.026  0.0706  2.4092  0.2998
  167MOL0     H23004   7.776   7.585   2.292 -0.8776  0.0580 -0.0043
  167MOL0     H23005   7.447   7.508   2.221 -1.4596 -4.7647  0.0985
  167MOL0     H23006   7.564   7.596   2.314  0.8882  0.7612 -5.1764
  167MOL0     H23007   7.486   7.454   2.381 -1.5124  2.7463  0.7697
  167MOL0     H23008   7.421   7.070   1.890  0.6245 -1.2342  0.0023
  167MOL0     H23009   7.234   6.923   1.818 -1.3297  2.5014  0.5882
  167MOL0     H23010   7.140   6.761   1.768 -1.1215  0.6612  0.1310
  167MOL0     H23011   7.035   6.634   1.831 -1.6304 -0.7701  2.5630
  167MOL0     H23012   6.949   6.932   1.834  1.4742  0.5797 -1.8533
  167MOL0     H23013   6.907   6.809   1.717  0.6502  1.5063  0.1681
  167MOL0     H23014   6.857   6.781   2.020 -1.0738 -2.4455  1.4939
  167MOL0     H23015   6.795   6.680   1.891 -1.0159  1.0335  0.2502
  167MOL0     H23016   6.721   6.942   1.813  1.0930 -1.4666 -0.5693
  167MOL0     H23017   6.735   6.971   1.979  1.2005  1.0265 -0.3535
  167MOL0     H23018   6.486   6.893   1.919 -0.3375 -0.2080  1.7494
  167MOL0     H23019   6.558   6.739   1.869  1.6683 -0.6697  0.0084
  167MOL0     H23020   6.637   6.811   2.150 -0.1310 -0.7429  0.2726
  167MOL0     H23021   6.574   6.660   2.092  0.5565 -0.6584  0.8224
  167MOL0     H23022   6.339   6.761   2.083  0.0996  0.9764  0.9074
  167MOL0     H23023   6.384   6.922   2.121  3.3018  1.2696 -0.9913
  167MOL0     H23024   6.444   6.875   2.344  2.2670  0.2755 -2.5597
  167MOL0     H23025   6.416   6.700   2.321 -0.9638 -1.3919 -0.7780
  167MOL0     H23026   7.229   6.744   2.205 -2.0055  1.1144 -1.1567
  167MOL0     H23027   7.410   6.897   2.276  1.3279 -0.3608 -0.8712
  167MOL0     H23028   7.755   7.111   2.133  0.9020  0.1859  0.7336
  167MOL0     H23029   7.969   7.231   2.140  0.6421 -1.4756  1.0555
  167MOL0     H23030   7.789   6.325   2.239 -0.1825 -1.9245 -1.4320
  167MOL0     H23031   7.625   6.269   2.387  1.7734  2.9878 -3.6377
  167MOL0     H23032   7.358   5.887   2.482  0.1081  0.0526  0.1080
  167MOL0     H23033   7.216   5.723   2.618 -1.5733  1.6967  1.1591
  167MOL0     H23034   7.319   5.713   3.009  0.5536  3.7700  2.3168
  167MOL0     H23035   7.187   5.816   3.037  3.8536  1.0452  0.4528
  167MOL0     H23036   7.177   5.499   3.012  0.2773 -0.1349  0.1274
  167MOL0     H23037   7.032   5.599   3.020 -0.4137 -1.6816 -2.5496
  167MOL0     H23038   7.166   5.468   3.207  4.1133  0.1733  0.1086
  167MOL0     H23039   7.261   5.614   3.227 -0.7478 -0.6986  2.6669
  167MOL0     H23040   7.052   5.600   3.382 -0.9969  0.1792 -0.0301
  167MOL0     H23041   6.955   5.640   3.249  1.3727 -1.1674 -2.5889
  167MOL0     H23042   7.101   6.025   3.287  3.1369  0.3748 -2.7145
  167MOL0     H23043   7.352   5.917   2.970  0.3665 -0.3627 -0.3502
  167MOL0     H23044   7.583   6.152   2.873 -1.5174  0.2164 -2.9074
  167MOL0     H23045   7.569   6.031   2.990  2.9655  2.1468  0.3031
  167MOL0     H23046   7.677   6.009   2.850 -1.0620 -0.2523 -2.3806
  168MOL0     O23047   6.709   9.649   3.840 -0.0750  0.8047 -0.1363
  168MOL0     C23048   6.684   9.667   3.959 -0.7890 -0.3705 -0.1267
  168MOL0     O23049   6.561   9.704   4.006 -0.1112  0.6293  0.2184
  168MOL0     C23050   6.465   9.728   3.914  1.0296 -0.3406  0.8285
  168MOL0     C23051   6.454   9.864   3.876  0.5031  0.0971  0.1355
  168MOL0     C23052   6.349   9.901   3.794  0.4861 -0.4767  0.5987
  168MOL0     C23053   6.251   9.798   3.747 -0.6350 -0.4814  0.3760
  168MOL0     O23054   6.146   9.809   3.656 -0.0868  0.4384  0.2562
  168MOL0     C23055   6.116   9.925   3.581  0.3320  0.0443 -0.3266
  168MOL0     C23056   6.020   9.879   3.471 -1.0978 -0.7596  0.0403
  168MOL0     C23057   5.985   9.979   3.358  0.2840  0.3013 -0.4564
  168MOL0     C23058   5.916   9.919   3.235  1.0963  0.3838  0.0483
  168MOL0     C23059   5.777   9.993   3.208  0.0929  0.5435 -0.3420
  168MOL0     C23060   5.797  10.132   3.159 -0.7034 -0.0828  0.2125
  168MOL0     C23061   5.669  10.202   3.142  0.1148 -0.8198  0.1364
  168MOL0     C23062   5.688  10.349   3.134  0.0132  0.2479 -0.2775
  168MOL0     N23063   5.561  10.423   3.143 -0.0740 -0.4235 -0.4238
  168MOL0     C23064   5.463  10.429   3.049 -0.1451  0.6672  0.7145
  168MOL0     C23065   5.356  10.486   3.110 -0.3792  0.3490 -0.4297
  168MOL0     C23066   5.224  10.494   3.051 -0.5361  0.6358 -0.4712
  168MOL0     C23067   5.115  10.436   3.152 -1.1485  0.3252  0.9637
  168MOL0     C23068   5.110  10.288   3.180 -0.1294  0.7231 -1.1319
  168MOL0     C23069   5.074  10.198   3.059  0.7370  0.0757 -0.4573
  168MOL0     O23070   4.938  10.228   3.022 -0.4538 -0.6357 -0.1913
  168MOL0     C23071   4.891  10.159   2.915  0.2580 -0.0020  0.0263
  168MOL0     C23072   4.781  10.215   2.847 -0.0803 -0.2343 -0.0958
  168MOL0     C23073   4.715  10.167   2.738  0.3779  0.9809  0.5682
  168MOL0     C23074   4.593  10.245   2.699  0.1218  0.4463 -0.4192
  168MOL0     C23075   4.775  10.049   2.679  0.9968  0.6377 -1.3067
  168MOL0     C23076   4.720   9.978   2.559  1.0084  0.1851 -0.3955
  168MOL0     O23077   4.792   9.885   2.502 -0.3971 -0.8034  0.3619
  168MOL0     C23078   4.759   9.814   2.391 -0.2669  0.1593 -0.0409
  168MOL0     C23079   4.731   9.677   2.386 -0.6374 -0.2958  0.2292
  168MOL0     C23080   4.734   9.605   2.261 -0.3045  0.3338 -0.8555
  168MOL0     C23081   4.761   9.673   2.142 -0.8134  0.0925  0.1854
  168MOL0     O23082   4.735   9.612   2.024 -1.0298 -0.0583 -0.0216
  168MOL0     C23083   4.741   9.673   1.894 -0.9675 -0.1942  0.7599
  168MOL0     C23084   4.778   9.563   1.804  0.6384  0.1217 -0.2285
  168MOL0     C23085   4.766   9.597   1.649 -0.1977  0.1584  0.6400
  168MOL0     C23086   4.844   9.711   1.605  1.0520 -0.4021 -0.8765
  168MOL0     C23087   4.808   9.751   1.461 -0.6251 -0.2515 -0.5926
  168MOL0     C23088   4.827   9.636   1.358  0.0337 -0.2024  0.2069
  168MOL0     C23089   4.808   9.699   1.218 -0.4468 -0.2035 -0.3517
  168MOL0     C23090   4.812   9.590   1.110 -0.4207 -0.1106 -0.0098
  168MOL0    Cl23091   4.968   9.503   1.120 -0.3441 -0.0405  0.2271
  168MOL0     C23092   4.806   9.808   2.147 -0.2940 -0.4341  0.1478
  168MOL0     C23093   4.799   9.877   2.276 -0.6600 -0.4836 -0.1364
  168MOL0     O23094   4.622  10.026   2.513  0.4375 -0.3077 -0.0792
  168MOL0     C23095   4.878   9.984   2.744 -1.2474  0.8741  0.7331
  168MOL0     C23096   4.942  10.046   2.851  0.0979 -0.2841  0.1535
  168MOL0     N23097   5.393  10.508   3.247  0.3624  0.0963  0.7818
  168MOL0     N23098   5.513  10.476   3.261  0.0973  0.4562 -0.3106
  168MOL0     C23099   6.267   9.666   3.792  0.0333  0.2672  0.2030
  168MOL0     C23100   6.370   9.632   3.876 -0.0222  0.5662  0.8017
  168MOL0     C23101   6.803   9.676   4.056  0.4091  0.1952  0.7654
  168MOL0     C23102   6.775   9.635   4.187  0.3109  0.1481  1.0704
  168MOL0     C23103   6.874   9.642   4.283 -0.1050 -0.1125 -0.8592
  168MOL0     C23104   7.004   9.681   4.252 -0.0560 -0.5865 -0.0944
  168MOL0     O23105   7.100   9.684   4.342 -0.0744 -0.2370  0.1127
  168MOL0     C23106   7.109   9.578   4.433 -0.0452  0.1285 -0.4640
  168MOL0     C23107   7.237   9.589   4.515  1.0175 -0.1723  0.5650
  168MOL0     C23108   7.251   9.711   4.614 -0.0551  0.2349  0.3603
  168MOL0     C23109   7.357   9.677   4.727  0.1642 -0.4680  0.6101
  168MOL0     C23110   7.491   9.647   4.671  0.6548 -0.9664 -0.2621
  168MOL0     C23111   7.607   9.625   4.632 -0.4324  0.2209 -1.3860
  168MOL0     C23112   7.044   9.706   4.122  0.1759 -0.8217  0.6647
  168MOL0     C23113   6.936   9.702   4.022 -0.8286  0.2659 -0.3685
  168MOL0     C23114   6.975   9.742   3.881  0.2335 -0.0686 -0.1962
  168MOL0     H23115   6.533   9.935   3.898 -0.2805  1.0834 -0.1560
  168MOL0     H23116   6.342  10.005   3.762  0.8469 -0.1986  1.4197
  168MOL0     H23117   6.213   9.965   3.551 -0.5183  1.3508 -1.4422
  168MOL0     H23118   6.063  10.001   3.639  1.3109 -0.0145  0.6836
  168MOL0     H23119   6.055   9.785   3.427  2.2361 -0.7191  2.2557
  168MOL0     H23120   5.920   9.861   3.512 -2.2006 -1.0889 -2.5993
  168MOL0     H23121   5.912  10.050   3.397  0.5943  2.2778 -3.2062
  168MOL0     H23122   6.079  10.028   3.331  0.8237  0.8199  2.0903
  168MOL0     H23123   5.962   9.920   3.136 -2.4258 -0.6585 -1.7793
  168MOL0     H23124   5.889   9.814   3.253 -0.0584  0.7979  0.8139
  168MOL0     H23125   5.723   9.996   3.304 -0.0842 -0.6614 -0.3847
  168MOL0     H23126   5.712   9.945   3.135 -1.1155  2.3654 -0.5423
  168MOL0     H23127   5.870  10.183   3.223 -1.0644  0.1926  0.4078
  168MOL0     H23128   5.843  10.137   3.060  0.5888  0.7321  0.8275
  168MOL0     H23129   5.616  10.176   3.233 -0.5690 -2.7415 -0.7706
  168MOL0     H23130   5.610  10.167   3.057 -0.3736  1.3974 -0.5083
  168MOL0     H23131   5.747  10.388   3.217  0.8075  0.5371 -0.9645
  168MOL0     H23132   5.737  10.371   3.039  1.9150  0.2843  0.6804
  168MOL0     H23133   5.469  10.394   2.946  0.0301 -1.8136  1.5108
  168MOL0     H23134   5.225  10.419   2.971 -0.5985 -1.4649  1.4002
  168MOL0     H23135   5.208  10.596   3.013  1.7118  1.5902  0.9244
  168MOL0     H23136   5.115  10.498   3.243  0.8772  3.8557 -1.2163
  168MOL0     H23137   5.014  10.459   3.118 -1.2678  0.7859  1.5914
  168MOL0     H23138   5.197  10.247   3.232 -0.2311 -0.2769 -1.7230
  168MOL0     H23139   5.026  10.287   3.251 -1.3590  0.4750 -2.5370
  168MOL0     H23140   5.144  10.211   2.975 -2.0899  2.0247 -2.6910
  168MOL0     H23141   5.071  10.092   3.087 -2.4115  0.2070 -0.0422
  168MOL0     H23142   4.762  10.315   2.883  0.3923 -0.2372  0.1600
  168MOL0     H23143   4.507  10.177   2.695 -1.7617  2.6957 -0.3293
  168MOL0     H23144   4.595  10.291   2.599  0.0236  1.6002  0.0942
  168MOL0     H23145   4.565  10.327   2.766  1.3332  0.3090  0.2836
  168MOL0     H23146   4.693   9.625   2.473 -1.7665  1.0328  0.5636
  168MOL0     H23147   4.703   9.502   2.275 -0.2168  0.6027  1.9017
  168MOL0     H23148   4.643   9.716   1.873 -1.6266 -2.3054 -0.7551
  168MOL0     H23149   4.821   9.748   1.900 -0.7231 -0.5196  1.8035
  168MOL0     H23150   4.870   9.512   1.834 -1.6972 -3.0297  2.3311
  168MOL0     H23151   4.695   9.493   1.821  0.8229  0.0996  0.6282
  168MOL0     H23152   4.666   9.625   1.614  1.5539  3.9938 -2.0310
  168MOL0     H23153   4.803   9.517   1.585 -1.1441 -1.9199  2.5845
  168MOL0     H23154   4.951   9.686   1.610  1.3956  1.2048  0.2427
  168MOL0     H23155   4.816   9.789   1.676  1.2297 -0.4089 -0.7983
  168MOL0     H23156   4.702   9.780   1.456 -0.4013  1.0197  1.1148
  168MOL0     H23157   4.864   9.842   1.439  0.2466 -0.5668  0.2350
  168MOL0     H23158   4.746   9.563   1.367 -2.1883  1.8976 -1.4530
  168MOL0     H23159   4.926   9.593   1.373  0.7149  1.6079  1.2700
  168MOL0     H23160   4.885   9.775   1.197 -2.1186  2.1099  1.3120
  168MOL0     H23161   4.713   9.752   1.221  0.0338  0.6472  0.6248
  168MOL0     H23162   4.794   9.640   1.015 -2.2689  2.5729  1.6398
  168MOL0     H23163   4.735   9.515   1.129 -0.5880  0.3120  1.0612
  168MOL0     H23164   4.833   9.868   2.061 -1.7962  0.0038 -0.0404
  168MOL0     H23165   4.829   9.981   2.286 -0.1540 -0.2182 -3.3618
  168MOL0     H23166   4.923   9.893   2.704 -0.8344  1.9750 -1.4521
  168MOL0     H23167   5.033   9.998   2.886  2.2253  3.5753  0.4426
  168MOL0     H23168   6.194   9.592   3.760  2.4309 -1.3197 -2.0184
  168MOL0     H23169   6.384   9.531   3.914 -0.3076  0.2598  0.0917
  168MOL0     H23170   6.676   9.610   4.224 -1.2207  4.2544  0.2759
  168MOL0     H23171   6.840   9.616   4.383 -0.1005 -0.3594 -0.9202
  168MOL0     H23172   7.036   9.592   4.514  0.2398  2.5590 -0.5560
  168MOL0     H23173   7.106   9.477   4.391  3.0858  0.2499 -1.1442
  168MOL0     H23174   7.325   9.566   4.455 -0.1865  1.5351 -2.0671
  168MOL0     H23175   7.228   9.504   4.583 -2.9064 -1.2457 -0.9855
  168MOL0     H23176   7.281   9.808   4.572  1.0287 -0.7541 -1.3040
  168MOL0     H23177   7.162   9.730   4.674 -0.9029 -3.5822  0.5803
  168MOL0     H23178   7.319   9.593   4.786 -2.8051  1.8280  2.2325
  168MOL0     H23179   7.359   9.768   4.787  1.0725  1.3629 -2.0153
  168MOL0     H23180   7.704   9.609   4.590  0.3659  0.4547  0.2720
  168MOL0     H23181   7.152   9.718   4.117  0.2376 -0.5273  2.3402
  168MOL0     H23182   6.978   9.653   3.817 -2.6600 -0.6462  0.3151
  168MOL0     H23183   6.905   9.821   3.852 -2.7119 -1.8363  1.6001
  168MOL0     H23184   7.075   9.787   3.877  0.9671 -1.5069  0.9685
  169MOL0     O23185   5.758   0.251   2.503 -0.5537 -0.4879  0.4254
  169MOL0     C23186   5.837   0.341   2.538 -1.0999  0.7388 -0.1166
  169MOL0     O23187   5.853   0.469   2.474  0.4665  0.3398 -0.9198
  169MOL0     C23188   5.740   0.505   2.412  0.7062  0.5751  0.5178
  169MOL0     C23189   5.624   0.527   2.486  0.5637 -0.3670 -0.8426
  169MOL0     C23190   5.506   0.570   2.426 -0.0699 -0.1168  0.2279
  169MOL0     C23191   5.509   0.610   2.287  0.4366 -0.3186  0.5993
  169MOL0     O23192   5.393   0.660   2.234 -0.1636 -0.0052 -0.3255
  169MOL0     C23193   5.370   0.620   2.098  0.0970 -0.6162  0.5831
  169MOL0     C23194   5.228   0.618   2.059  0.0860 -0.4030 -0.8673
  169MOL0     C23195   5.129   0.498   2.073  0.2206  0.7454  0.5376
  169MOL0     C23196   5.158   0.390   1.975  0.2815  0.6759  0.1897
  169MOL0     C23197   5.057   0.275   1.975  0.2289 -0.1060 -0.3205
  169MOL0     C23198   5.065   0.194   2.109  0.4255  0.0450 -0.5523
  169MOL0     C23199   4.935   0.181   2.184  0.2143 -0.1610  0.3222
  169MOL0     C23200   4.938   0.083   2.306  0.1430  0.0647 -0.6447
  169MOL0     N23201   4.793   0.061   2.348 -0.8041  0.5668  0.3563
  169MOL0     C23202   4.690   0.007   2.269  0.3773 -0.1483  0.4304
  169MOL0     C23203   4.579  -0.010   2.341  1.0793 -1.2751 -0.2136
  169MOL0     C23204   4.449  -0.073   2.293  0.3492 -0.3440 -0.1226
  169MOL0     C23205   4.339   0.029   2.257  0.5066  0.3525  0.5448
  169MOL0     C23206   4.233  -0.039   2.161 -0.3762 -0.9790 -0.9309
  169MOL0     C23207   4.140  -0.137   2.240 -0.9903 -0.1009 -0.5653
  169MOL0     O23208   4.057  -0.198   2.147 -0.5637  0.3787 -0.6207
  169MOL0     C23209   3.939  -0.144   2.112 -0.0465  0.1359  1.0144
  169MOL0     C23210   3.895  -0.014   2.122 -0.5967 -0.3077 -0.6022
  169MOL0     C23211   3.767   0.030   2.087  0.1973  0.2832  0.1823
  169MOL0     C23212   3.726   0.174   2.099  0.4940  0.1805 -0.6127
  169MOL0     C23213   3.673  -0.068   2.042  0.2153 -0.5056  0.4418
  169MOL0     C23214   3.523  -0.032   2.019  0.4918  0.2198 -0.8516
  169MOL0     O23215   3.433  -0.136   2.013 -0.7917 -0.2309  0.0924
  169MOL0     C23216   3.300  -0.123   2.040  0.5194 -0.2394 -0.1720
  169MOL0     C23217   3.249  -0.044   2.143  0.3257  0.3406  0.3129
  169MOL0     C23218   3.111  -0.035   2.164  1.0767  0.5729  0.1411
  169MOL0     C23219   3.020  -0.107   2.076 -0.3605  0.1735 -0.0365
  169MOL0     O23220   2.886  -0.110   2.103  0.0173 -0.0632  0.5613
  169MOL0     C23221   2.794  -0.083   2.000  0.7793  0.0296  0.5010
  169MOL0     C23222   2.670  -0.011   2.036  0.5825  0.5353  0.6403
  169MOL0     C23223   2.614   0.048   1.903  0.5252 -0.5816  0.5824
  169MOL0     C23224   2.515  -0.058   1.839  0.0484 -0.0267 -0.1924
  169MOL0     C23225   2.468  -0.036   1.702  0.3307  0.4324  0.5449
  169MOL0     C23226   2.442   0.108   1.666  0.1857 -0.5929 -0.1879
  169MOL0     C23227   2.351   0.107   1.549 -0.1461 -0.7884  0.0776
  169MOL0     C23228   2.299   0.258   1.535 -0.3760 -0.0571  0.1737
  169MOL0    Cl23229   2.198   0.245   1.383 -0.0329 -0.2493 -0.0207
  169MOL0     C23230   3.072  -0.188   1.974 -1.0152 -0.5169  0.0263
  169MOL0     C23231   3.211  -0.194   1.953 -0.7787  0.6590  0.1547
  169MOL0     O23232   3.494   0.083   2.000 -0.5706  0.6959  0.3312
  169MOL0     C23233   3.719  -0.199   2.023 -0.1854  0.4441  0.4519
  169MOL0     C23234   3.849  -0.239   2.055 -0.2389 -0.5437 -0.1084
  169MOL0     N23235   4.602   0.057   2.462 -0.1787 -0.2839 -0.4369
  169MOL0     N23236   4.729   0.093   2.469  0.4095  0.0379  1.0315
  169MOL0     C23237   5.623   0.595   2.214 -1.1390  0.1713 -0.1497
  169MOL0     C23238   5.736   0.537   2.273  0.0602 -0.1703  0.0406
  169MOL0     C23239   5.904   0.344   2.670 -1.0212  0.4761 -0.5023
  169MOL0     C23240   5.930   0.468   2.730  0.2323 -0.6106 -0.4763
  169MOL0     C23241   6.021   0.485   2.836  0.3502 -0.7205 -0.8237
  169MOL0     C23242   6.094   0.368   2.881  0.1146 -0.3353 -0.1484
  169MOL0     O23243   6.178   0.368   2.992 -0.6718  0.0787 -0.4016
  169MOL0     C23244   6.151   0.478   3.085 -0.1132 -0.0915  0.0681
  169MOL0     C23245   6.249   0.454   3.198  0.3805 -0.0004 -1.1489
  169MOL0     C23246   6.242   0.552   3.315  0.6582 -0.1657 -0.3080
  169MOL0     C23247   6.125   0.563   3.418 -0.3893 -0.3779  0.5514
  169MOL0     C23248   6.098   0.440   3.486 -0.5317  0.3282 -0.2187
  169MOL0     C23249   6.088   0.337   3.536 -0.3027  0.5891  0.0289
  169MOL0     C23250   6.077   0.250   2.811 -0.1646  0.5124 -0.7612
  169MOL0     C23251   5.989   0.237   2.709  0.5432  0.1035  0.3738
  169MOL0     C23252   5.994   0.099   2.638 -0.1452 -0.6911  1.0505
  169MOL0     H23253   5.612   0.514   2.593 -3.4058 -0.0057 -1.0821
  169MOL0     H23254   5.419   0.571   2.490 -0.2679  3.8602  0.1697
  169MOL0     H23255   5.414   0.522   2.078  1.5256  0.0281  0.3934
  169MOL0     H23256   5.402   0.702   2.032 -1.8086  1.7076  2.3505
  169MOL0     H23257   5.187   0.701   2.118 -2.7551 -1.4411 -1.2207
  169MOL0     H23258   5.219   0.654   1.957  1.1248 -1.3364 -1.3111
  169MOL0     H23259   5.139   0.462   2.176 -2.2498 -1.5622  0.0853
  169MOL0     H23260   5.028   0.539   2.058 -0.1946  0.1914  1.6586
  169MOL0     H23261   5.165   0.426   1.871 -0.5748 -0.9559 -0.4691
  169MOL0     H23262   5.256   0.347   1.993  0.4171  0.0777 -1.7608
  169MOL0     H23263   5.083   0.207   1.893  1.3453 -1.0203  0.7526
  169MOL0     H23264   4.952   0.304   1.966 -0.6934 -3.1130 -0.1962
  169MOL0     H23265   5.104   0.093   2.097  0.5880  0.1162 -0.6279
  169MOL0     H23266   5.120   0.249   2.186  0.6495 -1.1947  0.2027
  169MOL0     H23267   4.865   0.139   2.110  0.1595  3.0611 -1.6463
  169MOL0     H23268   4.892   0.276   2.219  2.3381  0.8627  0.2992
  169MOL0     H23269   4.980  -0.016   2.284  0.9173 -0.2320  1.7935
  169MOL0     H23270   4.991   0.128   2.390 -0.0199  1.0005 -1.0364
  169MOL0     H23271   4.682  -0.030   2.168 -1.1367 -1.6649  1.0515
  169MOL0     H23272   4.405  -0.149   2.358 -1.5080  0.8904  0.1108
  169MOL0     H23273   4.475  -0.134   2.206 -2.1340 -2.4093  0.4556
  169MOL0     H23274   4.291   0.080   2.341 -2.3007  1.2146 -1.4161
  169MOL0     H23275   4.385   0.107   2.195  1.8044 -1.3634 -0.7316
  169MOL0     H23276   4.180   0.036   2.101 -1.2374  1.2184  2.2947
  169MOL0     H23277   4.283  -0.105   2.090  0.3949 -0.4442 -0.8934
  169MOL0     H23278   4.193  -0.208   2.305  0.6451  0.8606 -0.8124
  169MOL0     H23279   4.078  -0.090   2.318  1.6226 -2.5384  3.3149
  169MOL0     H23280   3.972   0.055   2.157  0.4693 -2.7599  2.2893
  169MOL0     H23281   3.715   0.231   2.006 -2.3350  0.5731 -0.1170
  169MOL0     H23282   3.788   0.235   2.165 -0.8144  0.0149  0.8134
  169MOL0     H23283   3.633   0.182   2.155  0.8202  2.9154 -0.3077
  169MOL0     H23284   3.321   0.008   2.206  2.0176 -0.0398 -1.2010
  169MOL0     H23285   3.061   0.016   2.246 -3.2510 -2.9230  0.0394
  169MOL0     H23286   2.848  -0.018   1.930 -0.5548  1.8160  1.0562
  169MOL0     H23287   2.778  -0.178   1.950 -0.3231  1.0873 -1.2381
  169MOL0     H23288   2.595  -0.086   2.063  0.1165  0.4301 -0.8493
  169MOL0     H23289   2.682   0.061   2.118 -1.2744  1.5221  0.0901
  169MOL0     H23290   2.692   0.078   1.833  0.5998 -0.7341  0.6017
  169MOL0     H23291   2.560   0.143   1.919 -0.8075 -1.4643  1.5990
  169MOL0     H23292   2.430  -0.064   1.909 -1.6480 -0.7843 -2.1994
  169MOL0     H23293   2.562  -0.156   1.850  1.8905  0.6348 -1.7933
  169MOL0     H23294   2.545  -0.078   1.638  0.0006  1.2536 -0.4082
  169MOL0     H23295   2.378  -0.095   1.684  0.2351  0.7309  0.0231
  169MOL0     H23296   2.535   0.160   1.644  0.0561  1.8032  3.8896
  169MOL0     H23297   2.386   0.159   1.745  3.7089  1.9914  0.8933
  169MOL0     H23298   2.259   0.050   1.559 -2.1514  1.5682 -3.0375
  169MOL0     H23299   2.399   0.084   1.453 -3.8749 -2.7677 -1.5197
  169MOL0     H23300   2.379   0.330   1.515 -0.3112 -0.3110 -0.5280
  169MOL0     H23301   2.241   0.297   1.619 -0.8333  1.4930 -0.8154
  169MOL0     H23302   3.013  -0.241   1.900 -0.4085  1.5649 -2.0687
  169MOL0     H23303   3.255  -0.255   1.876 -1.9064 -2.2224  1.6459
  169MOL0     H23304   3.655  -0.274   1.978 -1.2032  2.6597 -2.0832
  169MOL0     H23305   3.886  -0.340   2.045  5.7838  0.9780  2.3166
  169MOL0     H23306   5.638   0.623   2.111  1.6071 -0.3742  0.0030
  169MOL0     H23307   5.831   0.530   2.220  0.3715  0.3620  0.5234
  169MOL0     H23308   5.881   0.561   2.701  1.3051  0.4124  0.8549
  169MOL0     H23309   6.026   0.579   2.890 -0.1488  0.2790 -2.4408
  169MOL0     H23310   6.181   0.566   3.029  0.9228 -2.3182 -3.1846
  169MOL0     H23311   6.050   0.479   3.127  1.2918  2.4704  3.7888
  169MOL0     H23312   6.350   0.443   3.158  2.2099 -2.6737  3.4354
  169MOL0     H23313   6.225   0.353   3.231  0.1204  0.4809  0.1934
  169MOL0     H23314   6.341   0.557   3.361  1.7767  1.5378 -2.6859
  169MOL0     H23315   6.236   0.647   3.260 -1.7195  0.7091  1.2818
  169MOL0     H23316   6.038   0.598   3.363 -1.0389 -0.2409  1.6392
  169MOL0     H23317   6.136   0.649   3.485 -0.0747  0.4557 -0.5514
  169MOL0     H23318   6.084   0.243   3.587  0.7443  1.0139  0.9416
  169MOL0     H23319   6.146   0.168   2.825  2.7257  2.8717 -0.4446
  169MOL0     H23320   6.078   0.034   2.666  0.8548  0.1932  0.2034
  169MOL0     H23321   5.915   0.029   2.665  0.2768 -0.3914  3.2462
  169MOL0     H23322   5.999   0.111   2.529  1.5522  1.4416  1.2941
  170MOL0     O23323   7.002   6.265  10.104  0.5017 -0.3055 -0.0750
  170MOL0     C23324   7.019   6.385  10.140  0.2263  0.4737  0.4942
  170MOL0     O23325   6.940   6.457  10.226  0.2995  0.4794 -0.5222
  170MOL0     C23326   6.869   6.383  10.323 -0.2857  0.2267  0.5515
  170MOL0     C23327   6.882   6.246  10.358 -0.5382  0.2650  0.0945
  170MOL0     C23328   6.804   6.194  10.460  0.2607  0.4399  0.2171
  170MOL0     C23329   6.714   6.267  10.531 -0.5771  0.7263 -0.5741
  170MOL0     O23330   6.637   6.197  10.626  1.0914 -0.3026 -0.8510
  170MOL0     C23331   6.698   6.114  10.717 -0.4679  0.1964 -0.0636
  170MOL0     C23332   6.609   6.076  10.842 -0.7618  0.4019  0.6897
  170MOL0     C23333   6.578   6.191  10.933  0.5511  0.0222 -0.2394
  170MOL0     C23334   6.510   6.151  11.067 -0.0428 -0.4274  0.7141
  170MOL0     C23335   6.467   6.278  11.146 -0.6353 -0.0961 -0.1896
  170MOL0     C23336   6.465   6.244  11.293  0.3051 -0.1494  1.2914
  170MOL0     C23337   6.433   6.362  11.383  0.5096  0.0559 -0.1421
  170MOL0     C23338   6.373   6.329  11.518  0.7113 -0.9037  0.1950
  170MOL0     N23339   6.458   6.237  11.588 -0.8401 -0.0223 -0.1339
  170MOL0     C23340   6.534   6.283  11.691 -0.6947 -0.5110 -0.1944
  170MOL0     C23341   6.608   6.172  11.725 -0.4209 -0.6334  1.5174
  170MOL0     C23342   6.708   6.152  11.836 -0.6570  0.3864  0.5770
  170MOL0     C23343   6.647   6.118  11.969  0.3181  0.6835  0.0253
  170MOL0     C23344   6.575   5.981  11.971 -0.5409 -0.1906  0.4667
  170MOL0     C23345   6.558   5.917  12.108  0.3046  0.3088  0.2871
  170MOL0     O23346   6.690   5.913  12.177 -0.1448  0.2247 -0.3824
  170MOL0     C23347   6.703   5.969  12.303 -0.3461  0.6171 -0.5225
  170MOL0     C23348   6.744   6.098  12.322  0.4252 -0.1464 -0.3950
  170MOL0     C23349   6.762   6.147  12.456  1.0203  0.9809  0.1726
  170MOL0     C23350   6.806   6.291  12.470  1.0963 -0.1289  0.4585
  170MOL0     C23351   6.718   6.068  12.562 -0.1537  1.2579 -0.1524
  170MOL0     C23352   6.701   6.114  12.702  0.2293  0.3167  0.0750
  170MOL0     O23353   6.649   6.024  12.786  0.0887  0.7917 -0.0505
  170MOL0     C23354   6.590   6.062  12.896  0.9214  0.4813 -0.9754
  170MOL0     C23355   6.476   6.152  12.897 -0.1672  0.3564  0.5645
  170MOL0     C23356   6.398   6.182  13.015  0.1574  0.1461  0.8502
  170MOL0     C23357   6.429   6.116  13.140  0.7481  0.0242  0.6176
  170MOL0     O23358   6.361   6.149  13.257 -0.4222  0.5630 -0.2056
  170MOL0     C23359   6.417   6.115  13.382 -0.7215  0.0322 -0.0444
  170MOL0     C23360   6.326   6.167  13.501  0.0095  0.1085 -0.5279
  170MOL0     C23361   6.327   6.328  13.514  0.4171  0.5181 -0.0880
  170MOL0     C23362   6.235   6.378  13.635  0.2557 -0.5050  0.1436
  170MOL0     C23363   6.324   6.419  13.758 -0.0951  0.9001  0.4454
  170MOL0     C23364   6.384   6.309  13.827 -0.4208 -0.9144 -0.0679
  170MOL0     C23365   6.460   6.366  13.948  0.2645 -0.5314  0.1236
  170MOL0     C23366   6.550   6.257  14.003  0.2153 -0.1625 -0.1470
  170MOL0    Cl23367   6.692   6.234  13.909 -0.2451  0.0563  0.3208
  170MOL0     C23368   6.542   6.029  13.139  0.1338  0.1411  1.0691
  170MOL0     C23369   6.622   6.013  13.027  0.0888 -0.6912 -0.3238
  170MOL0     O23370   6.756   6.218  12.736  0.2836  0.6767 -0.2632
  170MOL0     C23371   6.690   5.931  12.540  0.2181 -1.1224 -0.1844
  170MOL0     C23372   6.682   5.888  12.408  0.6090  0.1497 -0.1071
  170MOL0     N23373   6.572   6.070  11.636  0.0185  0.0186  1.0911
  170MOL0     N23374   6.483   6.111  11.554 -0.2968 -0.3985  0.3998
  170MOL0     C23375   6.711   6.407  10.515 -0.3070 -0.3015  0.2119
  170MOL0     C23376   6.789   6.460  10.410  0.1794 -0.6650  0.8092
  170MOL0     C23377   7.109   6.463  10.063 -0.2708  0.4130  0.6533
  170MOL0     C23378   7.094   6.608  10.064  0.0548  0.0530 -0.5975
  170MOL0     C23379   7.189   6.696  10.003 -0.3084 -0.1453 -0.2964
  170MOL0     C23380   7.308   6.644   9.957 -0.1784  0.3567 -0.4054
  170MOL0     O23381   7.400   6.716   9.894 -0.9732  0.0431  0.2255
  170MOL0     C23382   7.374   6.854   9.877  0.7550 -0.4967  0.0365
  170MOL0     C23383   7.275   6.896   9.764  1.0401 -0.0649 -0.1300
  170MOL0     C23384   7.276   7.049   9.760  0.4457  0.5497  0.1764
  170MOL0     C23385   7.207   7.115   9.877  0.2806  0.3906  0.0306
  170MOL0     C23386   7.251   7.254   9.891  0.3751 -0.5352  0.0733
  170MOL0     C23387   7.265   7.371   9.923 -0.2647 -0.7186 -0.2783
  170MOL0     C23388   7.330   6.513   9.951  0.1443 -0.4043 -0.2069
  170MOL0     C23389   7.233   6.419  10.002  0.3355  0.5208 -0.6941
  170MOL0     C23390   7.274   6.276   9.994  0.1222 -0.1913  0.8879
  170MOL0     H23391   6.949   6.182  10.300 -1.8563  1.8975 -3.5067
  170MOL0     H23392   6.804   6.085  10.462  1.6042  0.3746 -1.5613
  170MOL0     H23393   6.791   6.164  10.745 -0.9013  0.4278  1.0225
  170MOL0     H23394   6.719   6.025  10.657 -1.0327  0.4418 -0.6406
  170MOL0     H23395   6.515   6.038  10.801  1.0899  0.7722 -4.8292
  170MOL0     H23396   6.653   5.993  10.898 -0.3962  0.0778 -0.0645
  170MOL0     H23397   6.670   6.242  10.962  1.3680 -0.8442 -1.2340
  170MOL0     H23398   6.520   6.264  10.876  0.2668  0.2526  0.3325
  170MOL0     H23399   6.420   6.093  11.047  1.2269 -3.0177  1.9517
  170MOL0     H23400   6.580   6.089  11.125 -0.1879  1.8891  3.5699
  170MOL0     H23401   6.370   6.307  11.106 -0.7367 -2.8437 -2.2315
  170MOL0     H23402   6.544   6.354  11.135 -2.3290  1.8769  0.9815
  170MOL0     H23403   6.390   6.167  11.316  1.2543 -1.3161  0.5876
  170MOL0     H23404   6.568   6.220  11.321  1.6926  1.0777 -2.1692
  170MOL0     H23405   6.352   6.422  11.343 -0.5247 -1.6295 -0.7014
  170MOL0     H23406   6.528   6.417  11.389  1.9921 -2.3995  0.6754
  170MOL0     H23407   6.348   6.415  11.580  3.1404  0.8569 -1.0650
  170MOL0     H23408   6.280   6.274  11.502  1.8401 -1.8641 -5.2830
  170MOL0     H23409   6.537   6.379  11.741 -0.6672 -1.6893  2.2569
  170MOL0     H23410   6.783   6.232  11.839 -0.7668  0.4800  0.8686
  170MOL0     H23411   6.776   6.071  11.807 -1.2201  0.3407 -0.6952
  170MOL0     H23412   6.728   6.121  12.043 -0.4001  1.5264  0.8051
  170MOL0     H23413   6.582   6.204  11.987 -0.3308  0.5920 -1.6876
  170MOL0     H23414   6.487   5.978  11.906  0.0317 -3.5940 -0.3430
  170MOL0     H23415   6.636   5.909  11.915 -1.4381 -1.6226  1.2741
  170MOL0     H23416   6.478   5.960  12.169  1.1616 -2.4819  3.7351
  170MOL0     H23417   6.532   5.812  12.088  1.2245  0.5558 -2.6876
  170MOL0     H23418   6.772   6.158  12.236  2.1504 -1.5243 -0.8540
  170MOL0     H23419   6.731   6.357  12.515  0.3894  1.3992 -2.6572
  170MOL0     H23420   6.833   6.334  12.373 -1.4906 -0.4187 -0.4786
  170MOL0     H23421   6.899   6.301  12.527  1.2347 -0.5630  0.3156
  170MOL0     H23422   6.458   6.194  12.799  0.7113  0.7748  0.5706
  170MOL0     H23423   6.314   6.251  13.022  0.5391  0.8728 -1.1408
  170MOL0     H23424   6.419   6.006  13.376  0.6170  0.0836 -0.9847
  170MOL0     H23425   6.518   6.155  13.391 -1.5234  2.8906 -2.0547
  170MOL0     H23426   6.225   6.140  13.470 -0.4390  1.0362  0.0696
  170MOL0     H23427   6.351   6.129  13.601 -2.3556  0.2144  0.1635
  170MOL0     H23428   6.291   6.367  13.419 -2.9724 -0.1041  0.8097
  170MOL0     H23429   6.432   6.357  13.525  0.8367 -1.2985  1.3167
  170MOL0     H23430   6.152   6.308  13.652 -1.0948  0.5285 -1.7085
  170MOL0     H23431   6.181   6.469  13.608 -2.3686 -1.5517  1.5264
  170MOL0     H23432   6.401   6.491  13.728  0.2419 -0.1100 -1.2487
  170MOL0     H23433   6.252   6.469  13.823  1.2134  0.4812  2.3386
  170MOL0     H23434   6.456   6.255  13.765 -1.5463 -0.8446 -1.4926
  170MOL0     H23435   6.304   6.237  13.851 -0.6677 -0.0441  1.8848
  170MOL0     H23436   6.386   6.400  14.021 -2.5964 -2.6423 -1.5772
  170MOL0     H23437   6.515   6.452  13.910 -1.5219 -0.2575 -2.0921
  170MOL0     H23438   6.497   6.163  14.021  0.8529 -0.0544  2.9178
  170MOL0     H23439   6.572   6.295  14.103 -0.6985  2.9997 -1.0293
  170MOL0     H23440   6.571   5.974  13.228 -3.8325 -0.3271  2.2749
  170MOL0     H23441   6.699   5.936  13.031  1.3846  0.4739 -1.6187
  170MOL0     H23442   6.668   5.865  12.624 -2.1671 -1.4609 -0.9928
  170MOL0     H23443   6.656   5.784  12.387 -1.6495  0.2243  1.8404
  170MOL0     H23444   6.651   6.476  10.573 -0.3090 -0.2861  0.1912
  170MOL0     H23445   6.787   6.567  10.395 -0.7721 -0.7893 -0.0622
  170MOL0     H23446   6.992   6.638  10.087  0.5772 -0.7034  3.4898
  170MOL0     H23447   7.175   6.802  10.018 -3.0624 -0.6183  1.0557
  170MOL0     H23448   7.358   6.903   9.973 -1.0136  0.5759 -0.7582
  170MOL0     H23449   7.473   6.894   9.850  0.7036 -1.2606 -1.3712
  170MOL0     H23450   7.176   6.859   9.794  0.5355 -0.1503 -1.8121
  170MOL0     H23451   7.305   6.855   9.668 -1.3181 -1.7768 -0.2008
  170MOL0     H23452   7.380   7.083   9.767  0.4634  0.8512 -1.3531
  170MOL0     H23453   7.241   7.083   9.663  0.7445 -3.0131 -1.3538
  170MOL0     H23454   7.226   7.060   9.970  1.8297  1.1891  0.2151
  170MOL0     H23455   7.101   7.114   9.849  0.5229 -0.2182 -0.8821
  170MOL0     H23456   7.267   7.472   9.960  0.9259 -0.8983  0.2046
  170MOL0     H23457   7.425   6.476   9.912  1.9589  1.9253  1.6766
  170MOL0     H23458   7.211   6.216   9.929 -0.6224  1.2828  0.1941
  170MOL0     H23459   7.374   6.272   9.950 -1.1324 -1.0217 -2.0777
  170MOL0     H23460   7.271   6.229  10.093  0.6415 -0.1349  0.9321
  171MOL0     O23461   0.521   9.047   0.215  0.1567  0.3320  0.3905
  171MOL0     C23462   0.435   9.120   0.164  0.1987  0.0170 -0.1457
  171MOL0     O23463   0.448   9.257   0.136 -0.1382 -0.1210 -0.4453
  171MOL0     C23464   0.573   9.295   0.160  0.2954 -0.4217 -0.9303
  171MOL0     C23465   0.587   9.390   0.259  0.7736 -0.6530 -0.2872
  171MOL0     C23466   0.707   9.450   0.295 -0.0809  0.4221 -0.3638
  171MOL0     C23467   0.823   9.417   0.220  0.2126  0.7455 -0.0103
  171MOL0     O23468   0.950   9.462   0.246 -0.5298 -0.1493 -0.3595
  171MOL0     C23469   0.967   9.526   0.371 -0.2114 -0.7812  0.0442
  171MOL0     C23470   1.122   9.526   0.401  0.0317  0.0156 -0.2045
  171MOL0     C23471   1.202   9.605   0.298  0.5200 -1.2752  0.3474
  171MOL0     C23472   1.351   9.643   0.325 -0.2779  0.4514  1.1445
  171MOL0     C23473   1.446   9.535   0.303  0.4826  0.3849 -0.1939
  171MOL0     C23474   1.595   9.585   0.313 -1.4682  0.3139 -0.7142
  171MOL0     C23475   1.695   9.468   0.309  0.0346 -0.0685  0.0147
  171MOL0     C23476   1.832   9.529   0.300  0.6158  0.6279 -0.2316
  171MOL0     N23477   1.938   9.434   0.335  0.4767  1.5005  0.9068
  171MOL0     C23478   2.011   9.411   0.450 -0.2153 -0.1100  0.5190
  171MOL0     C23479   2.098   9.313   0.421 -0.0735 -0.7690  1.3774
  171MOL0     C23480   2.199   9.255   0.506  0.0650  0.4037 -0.1322
  171MOL0     C23481   2.260   9.361   0.591 -0.6870  0.2026  0.1021
  171MOL0     C23482   2.386   9.317   0.670  0.5380  0.0115  0.8435
  171MOL0     C23483   2.456   9.439   0.724 -0.0650  0.1943 -0.0949
  171MOL0     O23484   2.385   9.490   0.835  1.2221  0.3450 -0.2283
  171MOL0     C23485   2.423   9.482   0.968  0.5119  0.2962  0.6667
  171MOL0     C23486   2.321   9.506   1.061  0.3526  0.3373 -1.1535
  171MOL0     C23487   2.352   9.501   1.197 -0.4887  0.1146 -0.1531
  171MOL0     C23488   2.245   9.525   1.288  0.2132  0.5288 -0.7940
  171MOL0     C23489   2.487   9.463   1.240  0.1181  0.4240 -0.5098
  171MOL0     C23490   2.520   9.438   1.378 -0.2064  0.5021  0.9152
  171MOL0     O23491   2.644   9.453   1.418 -0.2216  0.3495 -1.0044
  171MOL0     C23492   2.686   9.378   1.529  0.3017  0.5133 -0.8769
  171MOL0     C23493   2.725   9.453   1.632  1.0108  0.2628  0.2636
  171MOL0     C23494   2.771   9.395   1.749  0.8803 -0.6144 -0.8797
  171MOL0     C23495   2.779   9.249   1.765 -0.1637 -0.2426  0.3233
  171MOL0     O23496   2.841   9.188   1.878  0.3884 -0.1582  0.3240
  171MOL0     C23497   2.757   9.089   1.941  0.1432  0.1464  0.6913
  171MOL0     C23498   2.643   9.149   2.025  0.0952 -0.2036  0.2872
  171MOL0     C23499   2.700   9.185   2.164  0.8648  1.0033  0.2905
  171MOL0     C23500   2.577   9.220   2.249  0.0478 -0.3447  0.3555
  171MOL0     C23501   2.615   9.207   2.405 -0.5170  0.3990 -0.4317
  171MOL0     C23502   2.744   9.277   2.450  0.3474 -0.6072  0.2340
  171MOL0     C23503   2.728   9.432   2.448 -0.3990 -0.5482 -0.0699
  171MOL0     C23504   2.834   9.494   2.530 -0.4325 -0.5669  0.6588
  171MOL0    Cl23505   2.787   9.475   2.707  0.5218  0.5567  0.0900
  171MOL0     C23506   2.728   9.175   1.650  0.0870  0.2111  1.0047
  171MOL0     C23507   2.685   9.238   1.542  0.3189 -0.2546  0.1401
  171MOL0     O23508   2.432   9.386   1.444 -0.2924 -0.3094  0.5826
  171MOL0     C23509   2.580   9.437   1.142 -0.3604  0.3069  0.6312
  171MOL0     C23510   2.550   9.448   1.011  0.0775 -0.6378 -0.0473
  171MOL0     N23511   2.068   9.263   0.294 -0.1151  0.0635  0.4600
  171MOL0     N23512   1.974   9.337   0.245 -0.9138  0.1512 -0.2940
  171MOL0     C23513   0.809   9.326   0.105  0.6622  0.0100 -0.0893
  171MOL0     C23514   0.679   9.270   0.078  0.1876  0.2625 -0.5406
  171MOL0     C23515   0.297   9.054   0.147  0.8866 -0.0008  1.0209
  171MOL0     C23516   0.270   8.920   0.188  0.6507 -1.5332 -1.0680
  171MOL0     C23517   0.146   8.868   0.176 -0.6158  0.2324  0.3983
  171MOL0     C23518   0.044   8.931   0.113  0.2710  0.2806  0.4839
  171MOL0     O23519  -0.079   8.865   0.104 -0.2139  0.4476  1.0226
  171MOL0     C23520  -0.137   8.811   0.224 -0.5684  0.2266 -0.0971
  171MOL0     C23521  -0.118   8.663   0.225  0.0145  0.2052  0.1693
  171MOL0     C23522  -0.165   8.593   0.103 -0.0962 -0.0643  0.7211
  171MOL0     C23523  -0.181   8.436   0.126 -0.3916 -0.5252 -0.8769
  171MOL0     C23524  -0.297   8.395   0.211 -0.4113  0.4441  0.3298
  171MOL0     C23525  -0.390   8.351   0.280 -0.0774 -0.1883  0.3824
  171MOL0     C23526   0.064   9.053   0.061  0.1082  0.4763 -0.0908
  171MOL0     C23527   0.182   9.122   0.085  0.6671  1.3781  1.0695
  171MOL0     C23528   0.175   9.266   0.037 -0.8506 -1.2812 -0.0292
  171MOL0     H23529   0.493   9.420   0.304  1.2192 -1.5563  1.3406
  171MOL0     H23530   0.715   9.527   0.371  1.4888  0.9624 -1.0388
  171MOL0     H23531   0.913   9.475   0.451  0.3510 -0.9821  0.3002
  171MOL0     H23532   0.939   9.631   0.369  2.8988  0.1326 -1.3937
  171MOL0     H23533   1.129   9.590   0.490 -3.0005 -0.7314  0.6767
  171MOL0     H23534   1.160   9.428   0.429  1.7491  1.0124  1.1689
  171MOL0     H23535   1.196   9.551   0.202 -0.1236  0.5791 -0.7105
  171MOL0     H23536   1.134   9.689   0.281 -0.0689 -1.8966 -0.5275
  171MOL0     H23537   1.371   9.728   0.259 -0.5821 -1.4653 -1.5927
  171MOL0     H23538   1.375   9.678   0.426  3.8141  2.3713 -0.2894
  171MOL0     H23539   1.434   9.499   0.201 -0.1436 -0.4060  0.1481
  171MOL0     H23540   1.418   9.449   0.365  1.0004 -1.0341 -1.8242
  171MOL0     H23541   1.607   9.648   0.224 -0.6613  1.5381  0.2227
  171MOL0     H23542   1.621   9.650   0.397 -0.5323  1.8044 -2.0827
  171MOL0     H23543   1.675   9.397   0.228  1.0061  2.0850 -2.2304
  171MOL0     H23544   1.688   9.427   0.410 -0.1040 -0.2376 -0.0623
  171MOL0     H23545   1.849   9.571   0.200 -0.1688  0.5836 -0.3913
  171MOL0     H23546   1.847   9.613   0.369 -0.4774  1.4189 -0.9112
  171MOL0     H23547   2.008   9.480   0.533  2.2124  0.6087  0.1045
  171MOL0     H23548   2.272   9.201   0.444  2.3500 -1.4833  3.8370
  171MOL0     H23549   2.150   9.180   0.568 -2.0731  0.2521 -1.8866
  171MOL0     H23550   2.291   9.432   0.514  1.5361 -1.6291 -0.8190
  171MOL0     H23551   2.187   9.408   0.656 -1.5059 -0.1282 -0.5563
  171MOL0     H23552   2.356   9.247   0.749 -0.4830 -1.1781 -0.5481
  171MOL0     H23553   2.459   9.268   0.605 -0.0537  0.2344  0.0018
  171MOL0     H23554   2.560   9.413   0.742  0.1755  2.2705  2.0024
  171MOL0     H23555   2.453   9.527   0.659 -0.4594  2.0713  2.2967
  171MOL0     H23556   2.219   9.526   1.032 -0.9894 -0.7168  2.2792
  171MOL0     H23557   2.272   9.575   1.381 -2.9291 -0.8814  1.0384
  171MOL0     H23558   2.200   9.428   1.312  2.0108 -0.6317 -1.8686
  171MOL0     H23559   2.178   9.596   1.238  1.4341  4.4995  2.6426
  171MOL0     H23560   2.723   9.557   1.602 -3.3898 -0.4133 -2.6977
  171MOL0     H23561   2.812   9.458   1.828 -3.5263  0.3097  0.9710
  171MOL0     H23562   2.718   9.021   1.864 -0.8408 -2.0665  2.9755
  171MOL0     H23563   2.818   9.026   2.007 -0.3818 -0.1439  0.9067
  171MOL0     H23564   2.595   9.227   1.965 -1.6557 -3.6162 -3.1635
  171MOL0     H23565   2.569   9.069   2.034 -2.2629  1.6104 -1.8184
  171MOL0     H23566   2.780   9.258   2.147  1.6169  0.3549  0.9311
  171MOL0     H23567   2.734   9.090   2.206 -1.1167 -0.0615 -0.4034
  171MOL0     H23568   2.492   9.158   2.219 -2.6958  3.1354  0.3005
  171MOL0     H23569   2.552   9.326   2.238  2.1240  0.2133  0.6258
  171MOL0     H23570   2.528   9.254   2.452 -1.4543 -1.4914 -0.1730
  171MOL0     H23571   2.623   9.106   2.446  2.0132  0.7704  0.1488
  171MOL0     H23572   2.824   9.246   2.383 -1.3279 -1.6250 -1.3983
  171MOL0     H23573   2.774   9.251   2.552 -0.2292  0.6309  0.7519
  171MOL0     H23574   2.641   9.460   2.507 -0.4426 -1.1240  0.1457
  171MOL0     H23575   2.723   9.480   2.349  3.9848  0.8657  0.1908
  171MOL0     H23576   2.844   9.600   2.508 -1.2717 -0.3248  1.4038
  171MOL0     H23577   2.931   9.444   2.520  0.6666  1.8698 -2.5113
  171MOL0     H23578   2.740   9.068   1.655  1.3497  0.2396 -0.6049
  171MOL0     H23579   2.649   9.179   1.458  1.4619 -1.5355  0.5139
  171MOL0     H23580   2.686   9.438   1.167 -0.2759  1.3477  0.2856
  171MOL0     H23581   2.629   9.426   0.939  0.0117  1.9380 -1.0176
  171MOL0     H23582   0.884   9.307   0.029 -0.2678  2.6449 -1.8051
  171MOL0     H23583   0.674   9.191   0.005 -1.5306  2.1420 -2.6013
  171MOL0     H23584   0.354   8.861   0.221  2.0563  0.5477 -0.7367
  171MOL0     H23585   0.129   8.769   0.216 -0.2383  1.0104  2.5784
  171MOL0     H23586  -0.101   8.864   0.313 -2.3882  0.3699  0.5890
  171MOL0     H23587  -0.244   8.825   0.206 -1.3029 -4.8997 -1.1852
  171MOL0     H23588  -0.178   8.619   0.305 -0.1439  0.2525  0.0768
  171MOL0     H23589  -0.014   8.632   0.242 -0.2837 -0.1298  1.5357
  171MOL0     H23590  -0.255   8.634   0.057  0.1237  1.6228  1.7063
  171MOL0     H23591  -0.083   8.608   0.032  0.7189  0.9894  1.8396
  171MOL0     H23592  -0.092   8.405   0.183 -0.3984  1.2560  0.1680
  171MOL0     H23593  -0.175   8.395   0.025 -1.6562  3.5894 -2.8299
  171MOL0     H23594  -0.472   8.306   0.333  1.8519 -1.6357  2.3112
  171MOL0     H23595  -0.028   9.094   0.021 -0.4065 -0.4468  0.0944
  171MOL0     H23596   0.123   9.277  -0.059 -1.4918  1.7113  0.5624
  171MOL0     H23597   0.129   9.321   0.119  3.1643  2.7468 -0.0110
  171MOL0     H23598   0.269   9.323   0.036 -1.6560  0.1287 -2.0527
  172MOL0     O23599  10.813   5.601   4.593 -0.4986  0.5233  0.7722
  172MOL0     C23600  10.763   5.522   4.675  0.7610 -0.5838  0.5484
  172MOL0     O23601  10.620   5.511   4.705  0.5653 -0.3685  0.8923
  172MOL0     C23602  10.541   5.602   4.637 -0.1689 -0.0310 -0.9622
  172MOL0     C23603  10.467   5.696   4.721 -0.0559  0.3869 -0.1917
  172MOL0     C23604  10.394   5.803   4.659 -0.1361  0.7532 -0.2187
  172MOL0     C23605  10.374   5.795   4.521 -0.2869 -0.3682  0.2529
  172MOL0     O23606  10.305   5.884   4.449 -0.0332  0.3792 -0.1372
  172MOL0     C23607  10.167   5.896   4.478 -0.0337 -0.6335 -0.9651
  172MOL0     C23608  10.081   5.946   4.370  0.1677  0.3475  0.3302
  172MOL0     C23609  10.057   6.092   4.389  0.2341 -0.1699  0.6266
  172MOL0     C23610   9.977   6.142   4.268 -1.0589  0.4676 -0.5564
  172MOL0     C23611   9.970   6.292   4.264 -0.6372 -0.5539  0.7139
  172MOL0     C23612   9.866   6.360   4.359 -0.8444  0.1342  0.8560
  172MOL0     C23613   9.893   6.509   4.390 -0.3364  0.2937  0.1115
  172MOL0     C23614   9.924   6.608   4.280  0.0330 -0.0796 -0.2852
  172MOL0     N23615   9.892   6.739   4.326  1.0390 -0.5089 -0.1958
  172MOL0     C23616   9.976   6.799   4.416 -0.8413 -0.1372 -0.2313
  172MOL0     C23617   9.916   6.920   4.448 -0.2197  0.4992  0.0734
  172MOL0     C23618   9.968   7.004   4.574 -0.0429 -0.4891  0.3763
  172MOL0     C23619  10.040   7.139   4.540  1.1968  0.0315  0.5920
  172MOL0     C23620   9.940   7.233   4.471  0.6278 -0.0184 -0.5750
  172MOL0     C23621  10.015   7.350   4.428  0.1369  0.2772 -0.7240
  172MOL0     O23622  10.080   7.413   4.540  0.4638  0.4054 -0.3027
  172MOL0     C23623  10.006   7.508   4.620  0.4542  0.4724  0.2291
  172MOL0     C23624   9.871   7.539   4.613 -0.1527  0.8182  0.0215
  172MOL0     C23625   9.798   7.623   4.704 -1.0097  0.3451 -0.0947
  172MOL0     C23626   9.654   7.622   4.687  0.9588  0.3867 -0.5465
  172MOL0     C23627   9.869   7.697   4.800  0.6076 -0.4069  0.3952
  172MOL0     C23628   9.828   7.811   4.878 -0.5572  0.9040  0.6280
  172MOL0     O23629   9.915   7.852   4.975  0.5605  0.7379  0.4010
  172MOL0     C23630   9.904   7.976   5.037 -0.4017 -0.0474 -0.0564
  172MOL0     C23631   9.863   8.098   4.973 -0.8899  0.1311 -0.0368
  172MOL0     C23632   9.866   8.222   5.039 -0.9842  0.6677 -0.2748
  172MOL0     C23633   9.905   8.230   5.171 -0.0712  0.4746 -0.8219
  172MOL0     O23634   9.914   8.341   5.253 -0.6808 -0.3908 -0.4925
  172MOL0     C23635   9.867   8.461   5.189  0.2175 -0.1857  0.4084
  172MOL0     C23636   9.862   8.566   5.304 -0.6438  0.0988 -0.1791
  172MOL0     C23637   9.848   8.708   5.240  0.4194  0.0495 -1.2170
  172MOL0     C23638   9.708   8.736   5.187 -0.3970 -0.4369  0.0781
  172MOL0     C23639   9.716   8.845   5.084  0.0511  0.4674 -0.3852
  172MOL0     C23640   9.739   8.984   5.147  0.5859 -0.5200  0.4119
  172MOL0     C23641   9.716   9.103   5.046 -1.4293  0.4946 -0.1117
  172MOL0     C23642   9.795   9.231   5.074  0.4190 -0.1472  0.0559
  172MOL0    Cl23643   9.967   9.194   5.045 -0.0809  0.4172 -0.1716
  172MOL0     C23644   9.939   8.114   5.235  0.6006 -0.3585 -0.1752
  172MOL0     C23645   9.944   7.988   5.171 -0.4571 -0.6335  0.7497
  172MOL0     O23646   9.727   7.875   4.837 -0.5222 -0.2569 -0.6108
  172MOL0     C23647  10.010   7.674   4.803  0.1588 -0.2134 -0.4870
  172MOL0     C23648  10.072   7.584   4.718  0.2223 -0.3921  0.9404
  172MOL0     N23649   9.808   6.941   4.359  0.3157  0.7562  0.0352
  172MOL0     N23650   9.801   6.834   4.284  0.0207 -0.7309 -0.9258
  172MOL0     C23651  10.442   5.704   4.442  0.5558  0.4484 -0.6755
  172MOL0     C23652  10.530   5.611   4.500 -0.0388  0.3765 -0.1140
  172MOL0     C23653  10.846   5.423   4.741  0.1354  0.4864  0.5832
  172MOL0     C23654  10.794   5.303   4.781 -0.0788 -0.8944 -0.4708
  172MOL0     C23655  10.874   5.206   4.840  0.6999  1.0056  0.3790
  172MOL0     C23656  11.014   5.207   4.846  0.5485 -0.3361  0.9814
  172MOL0     O23657  11.098   5.107   4.894  1.0583 -0.0299  0.4211
  172MOL0     C23658  11.040   4.981   4.933 -0.6687  0.3770 -0.3934
  172MOL0     C23659  11.145   4.896   5.000 -0.5004 -0.4859 -0.3631
  172MOL0     C23660  11.196   4.955   5.135  0.0494 -0.4077 -0.3153
  172MOL0     C23661  11.306   4.874   5.197  0.0936  0.5203 -0.5451
  172MOL0     C23662  11.263   4.800   5.313  0.0072  0.0171 -0.5548
  172MOL0     C23663  11.248   4.724   5.408 -1.2775 -0.5775 -0.1691
  172MOL0     C23664  11.065   5.339   4.807  0.4788 -0.0071  0.8881
  172MOL0     C23665  10.986   5.442   4.759 -0.2701  0.0830 -0.9919
  172MOL0     C23666  11.057   5.573   4.729  0.3294 -1.4473  0.1126
  172MOL0     H23667  10.464   5.699   4.830  0.6257  1.1719 -0.1846
  172MOL0     H23668  10.326   5.878   4.698  0.2654  1.5667 -1.0433
  172MOL0     H23669  10.160   5.957   4.569  0.7158  0.5918 -1.7042
  172MOL0     H23670  10.121   5.802   4.511 -2.1577 -0.3355 -2.8636
  172MOL0     H23671  10.126   5.922   4.273 -0.5124 -2.8200  0.7166
  172MOL0     H23672   9.978   5.914   4.355  0.1320  1.5709 -3.1388
  172MOL0     H23673   9.999   6.113   4.480  1.2580 -0.4044  1.3516
  172MOL0     H23674  10.150   6.149   4.389  0.7801 -1.0345  0.0465
  172MOL0     H23675  10.029   6.105   4.180 -2.7838 -1.4927 -0.8459
  172MOL0     H23676   9.879   6.092   4.273 -0.6564 -0.3977 -1.1139
  172MOL0     H23677   9.936   6.319   4.164  0.9811  1.6352  0.6860
  172MOL0     H23678  10.065   6.345   4.273 -1.1016  0.6063 -0.7313
  172MOL0     H23679   9.772   6.334   4.309  1.2619 -1.5650 -2.7209
  172MOL0     H23680   9.877   6.294   4.445  1.1129 -0.6008  0.1135
  172MOL0     H23681   9.985   6.502   4.449 -1.8012 -4.6713  2.3376
  172MOL0     H23682   9.814   6.544   4.456 -0.6970 -1.1524  0.4879
  172MOL0     H23683  10.025   6.606   4.240 -0.1851 -3.1340 -0.9483
  172MOL0     H23684   9.865   6.585   4.191  2.6670 -3.0820 -1.4283
  172MOL0     H23685  10.055   6.745   4.467 -1.2381  1.3453  2.1190
  172MOL0     H23686  10.044   6.945   4.624 -0.1843 -1.2524 -0.2882
  172MOL0     H23687   9.878   7.004   4.636  0.1913 -2.1953  0.7523
  172MOL0     H23688  10.058   7.175   4.642  2.5378 -1.1764  0.8167
  172MOL0     H23689  10.138   7.121   4.496  1.0521 -1.9486  0.9953
  172MOL0     H23690   9.896   7.191   4.380  0.3606  2.7461 -1.8206
  172MOL0     H23691   9.858   7.272   4.533  1.4930  0.8823  0.0305
  172MOL0     H23692  10.074   7.304   4.348  0.5282 -0.0716 -0.2375
  172MOL0     H23693   9.945   7.425   4.390 -4.8651 -2.9171  1.1204
  172MOL0     H23694   9.810   7.488   4.538  1.6796 -0.9761 -0.3294
  172MOL0     H23695   9.605   7.673   4.771  1.9240  1.0876 -0.3881
  172MOL0     H23696   9.623   7.518   4.683 -0.2305  0.7392 -1.0026
  172MOL0     H23697   9.618   7.669   4.595 -1.4105 -1.9146 -0.9156
  172MOL0     H23698   9.845   8.090   4.866 -0.2666 -1.6836 -0.0323
  172MOL0     H23699   9.849   8.316   4.987  1.8471  2.2395  1.4110
  172MOL0     H23700   9.936   8.492   5.110  2.9775 -2.7395  1.6390
  172MOL0     H23701   9.764   8.461   5.152  0.3843 -2.4822 -0.2444
  172MOL0     H23702   9.784   8.545   5.377 -0.9658  2.0457  0.0724
  172MOL0     H23703   9.956   8.554   5.359 -1.9646 -2.1232  1.8084
  172MOL0     H23704   9.924   8.720   5.162  0.9152  0.3329 -0.7021
  172MOL0     H23705   9.869   8.783   5.318  1.6676  0.5804 -2.0258
  172MOL0     H23706   9.633   8.765   5.261 -2.1860  2.6600 -2.7301
  172MOL0     H23707   9.660   8.650   5.140 -3.7492  0.3416  1.7312
  172MOL0     H23708   9.799   8.818   5.017 -0.8288 -0.8613 -0.9984
  172MOL0     H23709   9.625   8.843   5.023 -1.3451  2.0852  1.5297
  172MOL0     H23710   9.833   8.996   5.202  0.6944 -1.0450  0.3389
  172MOL0     H23711   9.666   9.005   5.225  0.4928  0.0075  0.1913
  172MOL0     H23712   9.612   9.137   5.041 -1.0849  1.8863  1.2907
  172MOL0     H23713   9.746   9.069   4.946 -2.0403  1.0785 -0.5051
  172MOL0     H23714   9.790   9.271   5.176 -1.0509  0.2229 -0.1299
  172MOL0     H23715   9.764   9.307   5.002  0.6848 -0.4904 -0.4232
  172MOL0     H23716   9.965   8.109   5.340  2.5605 -0.0194 -0.6061
  172MOL0     H23717   9.973   7.897   5.223  3.0855  1.3854  2.7120
  172MOL0     H23718  10.072   7.731   4.871 -0.3769 -0.0044 -0.1572
  172MOL0     H23719  10.177   7.557   4.725 -0.0089 -1.5312  0.1223
  172MOL0     H23720  10.418   5.700   4.336  2.5900  3.6434 -1.3888
  172MOL0     H23721  10.573   5.536   4.435 -0.3482 -2.1168  2.3908
  172MOL0     H23722  10.689   5.277   4.776 -0.0982 -1.8770  2.7127
  172MOL0     H23723  10.832   5.111   4.871  3.2492 -0.3024  0.0620
  172MOL0     H23724  10.953   4.994   4.998 -0.0564  3.9271 -0.0813
  172MOL0     H23725  11.002   4.918   4.852 -3.9865  0.2385  1.1211
  172MOL0     H23726  11.235   4.887   4.939  0.0928 -1.8112  0.6427
  172MOL0     H23727  11.103   4.796   5.015 -0.6725 -0.4020 -0.2807
  172MOL0     H23728  11.216   5.062   5.121  0.3742 -0.7452 -2.9626
  172MOL0     H23729  11.109   4.941   5.199 -0.3502 -0.2193 -0.8123
  172MOL0     H23730  11.389   4.941   5.219  1.0871 -1.1336  0.9015
  172MOL0     H23731  11.335   4.800   5.121 -2.3140 -0.6682 -0.4044
  172MOL0     H23732  11.240   4.671   5.500 -0.8505 -3.9449 -1.9087
  172MOL0     H23733  11.171   5.340   4.832  1.2973 -2.7808 -1.9220
  172MOL0     H23734  10.995   5.652   4.774  4.2698  0.5969  2.5556
  172MOL0     H23735  11.141   5.589   4.797 -1.7543 -0.6902  2.7039
  172MOL0     H23736  11.070   5.597   4.624 -0.9347  1.0368  0.4452
  173MOL0     O23737   3.662  11.084   4.714 -0.4641  0.0793  0.3135
  173MOL0     C23738   3.764  11.090   4.781 -1.2794  0.1930 -0.3565
  173MOL0     O23739   3.885  11.135   4.733  0.1831 -0.7818  0.2955
  173MOL0     C23740   3.902  11.201   4.613  0.0822  1.0821  0.3319
  173MOL0     C23741   3.813  11.291   4.562 -0.5717  0.9023 -0.4044
  173MOL0     C23742   3.844  11.348   4.443 -0.0726  0.2830  0.4505
  173MOL0     C23743   3.944  11.309   4.355  0.5015  0.0568  0.1349
  173MOL0     O23744   3.967  11.375   4.235 -0.6692  0.3165  0.3190
  173MOL0     C23745   3.917  11.284   4.132 -0.4690  0.3913 -0.4284
  173MOL0     C23746   3.948  11.357   4.007 -0.7237 -0.9471  0.3716
  173MOL0     C23747   3.934  11.296   3.873 -0.6322  0.2135  0.6015
  173MOL0     C23748   3.810  11.201   3.885  0.6262  0.5562 -0.3278
  173MOL0     C23749   3.752  11.134   3.764 -0.3902  0.4195  0.9952
  173MOL0     C23750   3.846  11.037   3.685  0.0734 -0.9083  0.7635
  173MOL0     C23751   3.810  10.887   3.710 -0.5690  0.1782 -0.4452
  173MOL0     C23752   3.930  10.808   3.672 -0.4495  0.5487  0.0548
  173MOL0     N23753   4.035  10.814   3.783 -0.2898 -0.2747  0.3250
  173MOL0     C23754   4.135  10.906   3.795 -0.7672  0.0390 -0.5422
  173MOL0     C23755   4.183  10.917   3.926  0.8232  0.9632 -0.3143
  173MOL0     C23756   4.286  11.006   3.968 -0.7517 -0.6985  0.4868
  173MOL0     C23757   4.231  11.075   4.094 -0.1484  0.1921  0.0974
  173MOL0     C23758   4.323  11.181   4.146  1.4519  0.0132 -0.4920
  173MOL0     C23759   4.456  11.137   4.189  0.3063  0.3368  0.2142
  173MOL0     O23760   4.444  11.009   4.257 -0.5876 -1.2550 -0.2118
  173MOL0     C23761   4.524  11.008   4.369 -0.2953 -0.5429  0.4000
  173MOL0     C23762   4.472  11.059   4.489  1.0748 -0.4485  0.6022
  173MOL0     C23763   4.550  11.069   4.601  1.0710 -0.3868 -0.4305
  173MOL0     C23764   4.479  11.129   4.718  0.5898  0.5144 -0.4164
  173MOL0     C23765   4.686  11.036   4.595  0.0755  0.3817  0.5194
  173MOL0     C23766   4.785  11.066   4.709  0.3624 -0.2251  0.0259
  173MOL0     O23767   4.747  11.089   4.841  0.1457  0.3771 -0.2492
  173MOL0     C23768   4.847  11.093   4.926 -0.3205 -0.4538  0.0447
  173MOL0     C23769   4.875  10.977   5.001 -0.2786  0.9050  1.6037
  173MOL0     C23770   4.970  10.978   5.109 -0.0270 -0.5541  0.5115
  173MOL0     C23771   5.023  11.103   5.153  0.7550  1.0431 -0.0996
  173MOL0     O23772   5.101  11.114   5.265  0.0572  0.4200  0.0703
  173MOL0     C23773   5.171  11.005   5.334 -0.2441  0.7478 -0.0925
  173MOL0     C23774   5.273  11.061   5.432  0.9244  0.6719 -0.2018
  173MOL0     C23775   5.209  11.132   5.550  0.1583  0.5506  0.6291
  173MOL0     C23776   5.157  11.038   5.655 -0.0195  0.1879 -0.5373
  173MOL0     C23777   5.107  11.120   5.779 -0.0784 -0.5698  0.1079
  173MOL0     C23778   5.068  11.032   5.900  0.6927 -0.6025  0.1080
  173MOL0     C23779   5.053  11.123   6.034 -0.3329 -0.4023 -0.1948
  173MOL0     C23780   4.934  11.216   6.030 -0.5204 -0.8075  0.7365
  173MOL0    Cl23781   4.799  11.128   6.092  0.2010 -0.4007 -0.1726
  173MOL0     C23782   5.004  11.217   5.081  0.8395  0.2215  0.2818
  173MOL0     C23783   4.919  11.207   4.973  0.3947  0.4472  0.1468
  173MOL0     O23784   4.905  11.071   4.670  0.0093  0.2887  0.6205
  173MOL0     C23785   4.742  10.986   4.470  0.6335 -0.1193  0.0837
  173MOL0     C23786   4.657  10.968   4.364  0.6801  0.7942 -0.5942
  173MOL0     N23787   4.098  10.826   3.999  0.2567 -0.0417 -0.3122
  173MOL0     N23788   4.014  10.774   3.915  0.2966  0.2112 -0.4334
  173MOL0     C23789   4.028  11.214   4.411 -0.5191 -0.2836  0.5526
  173MOL0     C23790   4.012  11.154   4.534 -0.2063 -0.1504  0.2357
  173MOL0     C23791   3.768  11.014   4.910 -0.3493 -0.8161  0.0111
  173MOL0     C23792   3.637  10.973   4.958 -0.4167  0.5494 -0.7370
  173MOL0     C23793   3.625  10.905   5.081  0.0047 -0.5876 -0.6886
  173MOL0     C23794   3.735  10.879   5.161 -0.2575 -0.1392  0.7629
  173MOL0     O23795   3.731  10.812   5.280 -0.1073  0.0940 -0.8191
  173MOL0     C23796   3.699  10.893   5.389  0.0154  0.0440 -0.6592
  173MOL0     C23797   3.747  10.846   5.524  0.6185 -0.0920  0.0906
  173MOL0     C23798   3.900  10.873   5.537 -0.4851 -0.6779 -0.4651
  173MOL0     C23799   3.979  10.761   5.608  0.7813  0.4515  0.1143
  173MOL0     C23800   3.941  10.764   5.753  0.0937 -0.0410  0.1280
  173MOL0     C23801   3.900  10.766   5.870 -0.0760 -0.2324  0.0244
  173MOL0     C23802   3.862  10.916   5.114  0.5052  0.2499 -0.1141
  173MOL0     C23803   3.883  10.985   4.994  0.4928  0.2723  0.3403
  173MOL0     C23804   4.023  11.030   4.964  0.3860  0.9117  0.2806
  173MOL0     H23805   3.729  11.320   4.625 -0.0968 -2.0769  1.8745
  173MOL0     H23806   3.788  11.427   4.395 -0.1661 -1.4961 -2.6907
  173MOL0     H23807   3.811  11.261   4.146 -0.4052  0.1594 -0.3293
  173MOL0     H23808   3.975  11.192   4.141 -0.9413  0.1004 -0.3587
  173MOL0     H23809   3.901  11.456   4.002  2.5729  0.6858 -1.8726
  173MOL0     H23810   4.052  11.386   4.024 -0.2078 -2.6002  0.2033
  173MOL0     H23811   3.913  11.373   3.798 -4.5392 -0.7793  0.4588
  173MOL0     H23812   4.026  11.243   3.848  1.1047  3.1465  0.3231
  173MOL0     H23813   3.836  11.121   3.955 -0.8736 -0.9404 -1.4009
  173MOL0     H23814   3.738  11.258   3.945  0.5412 -1.9956  2.1981
  173MOL0     H23815   3.723  11.195   3.678  0.5743 -1.6471 -0.8895
  173MOL0     H23816   3.667  11.072   3.794 -0.8432  0.5945  0.0955
  173MOL0     H23817   3.828  11.045   3.577 -0.2370 -4.2876  0.4360
  173MOL0     H23818   3.946  11.073   3.711  1.5807 -3.9965 -0.1911
  173MOL0     H23819   3.732  10.858   3.640 -1.9218  1.4394  0.4778
  173MOL0     H23820   3.776  10.861   3.810 -0.2998 -0.6798 -0.5686
  173MOL0     H23821   3.881  10.710   3.671 -2.3814  1.2671  4.1421
  173MOL0     H23822   3.977  10.838   3.578  0.7857 -0.8316  0.1997
  173MOL0     H23823   4.159  10.978   3.717 -0.1517  1.3423  0.8040
  173MOL0     H23824   4.293  11.076   3.884  2.2609  0.3357  1.4702
  173MOL0     H23825   4.379  10.949   3.978 -0.7015 -0.5125  1.1260
  173MOL0     H23826   4.132  11.112   4.066  0.1725  0.0940 -1.2448
  173MOL0     H23827   4.210  10.997   4.168 -3.2809  1.8985  1.1798
  173MOL0     H23828   4.349  11.243   4.059 -0.3362  0.7132 -0.5842
  173MOL0     H23829   4.273  11.240   4.223 -0.4361 -1.9282 -0.1442
  173MOL0     H23830   4.508  11.124   4.093  1.2139 -1.2110  0.8883
  173MOL0     H23831   4.498  11.223   4.242  1.6686  0.5422 -1.1413
  173MOL0     H23832   4.369  11.093   4.493  1.0362 -0.0202 -2.1115
  173MOL0     H23833   4.470  11.056   4.800  0.7429 -0.7628 -1.4943
  173MOL0     H23834   4.384  11.173   4.687 -0.5812  1.0478  3.3153
  173MOL0     H23835   4.535  11.217   4.750 -2.4960  2.9622 -1.3339
  173MOL0     H23836   4.827  10.890   4.958 -0.6242  1.6200  0.4984
  173MOL0     H23837   4.986  10.883   5.158 -1.1476 -1.4941 -0.8475
  173MOL0     H23838   5.102  10.940   5.389  1.1780 -1.3820 -0.6755
  173MOL0     H23839   5.223  10.936   5.266 -1.0682 -3.5565  3.1597
  173MOL0     H23840   5.340  10.982   5.466 -1.0849 -1.0548 -0.0778
  173MOL0     H23841   5.335  11.133   5.377 -2.4825  3.8951 -0.1991
  173MOL0     H23842   5.116  11.178   5.514 -0.4479  0.6085  2.1771
  173MOL0     H23843   5.285  11.198   5.592  2.4126 -0.2992 -1.8196
  173MOL0     H23844   5.240  10.970   5.679 -1.8867 -2.3612 -0.8481
  173MOL0     H23845   5.074  10.975   5.623  0.1243  0.0023 -0.5527
  173MOL0     H23846   5.190  11.188   5.801 -0.8791  0.6019 -0.4074
  173MOL0     H23847   5.023  11.185   5.752  0.0721  0.1371  1.2779
  173MOL0     H23848   5.161  10.975   5.908  0.9118 -0.4571 -1.2022
  173MOL0     H23849   4.975  10.978   5.880 -0.9868  1.8503  0.8335
  173MOL0     H23850   5.144  11.183   6.049 -0.8573  0.3214  0.1763
  173MOL0     H23851   5.045  11.056   6.120  0.2593  1.0314  1.0213
  173MOL0     H23852   4.918  11.253   5.928  1.3523  3.0269  1.6366
  173MOL0     H23853   4.954  11.305   6.091  1.3373  0.7805 -2.0077
  173MOL0     H23854   5.062  11.308   5.091  3.4654 -0.7356 -3.8599
  173MOL0     H23855   4.878  11.300   4.935  0.2744  0.4770  0.3505
  173MOL0     H23856   4.847  10.963   4.456  0.9156  2.0714 -1.9904
  173MOL0     H23857   4.687  10.908   4.279  0.7491 -1.4445  0.9234
  173MOL0     H23858   4.113  11.190   4.348 -0.3120  0.1694  0.6577
  173MOL0     H23859   4.080  11.075   4.565 -2.5640 -0.7793  4.6975
  173MOL0     H23860   3.549  11.011   4.906 -0.3018  0.6165 -0.8852
  173MOL0     H23861   3.529  10.871   5.119 -0.5243  0.0612 -1.4157
  173MOL0     H23862   3.739  10.994   5.375  0.8904 -0.1724  0.1139
  173MOL0     H23863   3.591  10.881   5.389  0.0766 -0.5782 -0.2176
  173MOL0     H23864   3.729  10.738   5.524 -1.4993  0.2091  0.6147
  173MOL0     H23865   3.691  10.899   5.601 -0.1800 -0.4279 -0.2467
  173MOL0     H23866   3.948  10.876   5.439  2.1977  1.3250  0.7907
  173MOL0     H23867   3.909  10.967   5.592 -1.4151 -1.3197  0.8293
  173MOL0     H23868   4.086  10.778   5.593  0.9067 -0.1536  0.2864
  173MOL0     H23869   3.944  10.666   5.568  0.2509  1.4797 -1.9743
  173MOL0     H23870   3.857  10.752   5.967 -0.4052 -1.0638 -0.2333
  173MOL0     H23871   3.952  10.898   5.172  0.2007 -1.1824 -0.0543
  173MOL0     H23872   4.034  11.130   4.921 -1.8364  1.8062  1.6302
  173MOL0     H23873   4.057  11.027   5.068 -3.4190 -3.4857  1.7177
  173MOL0     H23874   4.075  10.953   4.905 -3.2015  0.8768 -3.2780
  174MOL0     O23875   7.079   1.797   1.597 -0.2973 -1.0158  0.2295
  174MOL0     C23876   7.058   1.827   1.480  0.3961 -0.3047  0.5485
  174MOL0     O23877   7.153   1.808   1.384  0.4386 -0.3160  0.2410
  174MOL0     C23878   7.280   1.803   1.399  0.3596 -0.3179 -0.2102
  174MOL0     C23879   7.345   1.717   1.308  0.0745  0.1247 -0.1628
  174MOL0     C23880   7.485   1.696   1.305  0.2636 -0.2791 -0.1860
  174MOL0     C23881   7.563   1.760   1.403 -0.0983 -0.7304  0.2285
  174MOL0     O23882   7.701   1.736   1.401 -0.6541  0.0662  0.7107
  174MOL0     C23883   7.763   1.710   1.531 -0.1073 -1.0327 -0.6313
  174MOL0     C23884   7.895   1.635   1.531 -0.9306 -0.4719  1.5546
  174MOL0     C23885   7.996   1.725   1.463  0.6037 -0.1791 -0.7272
  174MOL0     C23886   8.121   1.651   1.413 -0.3622 -0.7574 -0.0149
  174MOL0     C23887   8.244   1.736   1.369 -0.5281 -1.1057 -0.2037
  174MOL0     C23888   8.322   1.781   1.494  0.1482  0.1513 -0.2514
  174MOL0     C23889   8.452   1.866   1.453  0.2993 -0.4104  0.1569
  174MOL0     C23890   8.536   1.895   1.582  0.3319  0.0656  0.3393
  174MOL0     N23891   8.462   1.935   1.706  0.4393  1.0973  0.2863
  174MOL0     C23892   8.450   2.056   1.753  0.0389  0.7448  0.1592
  174MOL0     C23893   8.372   2.044   1.867  0.2413  0.0765  0.2900
  174MOL0     C23894   8.312   2.166   1.935 -0.4643  0.1629 -0.3376
  174MOL0     C23895   8.160   2.173   1.908 -0.5500  0.3101  0.8704
  174MOL0     C23896   8.111   2.316   1.899  0.5451  0.6181 -0.1389
  174MOL0     C23897   7.967   2.313   1.848  0.7853  0.5052 -0.1461
  174MOL0     O23898   7.917   2.442   1.865 -0.2672 -0.4504 -1.4024
  174MOL0     C23899   7.786   2.463   1.816 -0.2731 -0.0210 -0.3587
  174MOL0     C23900   7.700   2.359   1.764 -0.7395  0.3097  0.5017
  174MOL0     C23901   7.578   2.396   1.703  0.5967  0.3713 -0.2068
  174MOL0     C23902   7.492   2.287   1.648 -0.0902 -0.1928  0.7234
  174MOL0     C23903   7.548   2.534   1.691  0.1576  0.2220 -0.2509
  174MOL0     C23904   7.434   2.585   1.614 -0.5116  0.4645 -0.3135
  174MOL0     O23905   7.459   2.709   1.544  0.6829  0.6963 -0.8968
  174MOL0     C23906   7.342   2.781   1.511 -0.8082  0.4102  0.8011
  174MOL0     C23907   7.283   2.761   1.385  0.1897 -0.5982  0.2568
  174MOL0     C23908   7.155   2.820   1.372 -0.3586  0.1893  0.7321
  174MOL0     C23909   7.107   2.907   1.465 -0.9371 -0.6276  0.1315
  174MOL0     O23910   6.987   2.973   1.454 -0.7926  0.2913  1.1805
  174MOL0     C23911   6.884   2.907   1.375  0.5114  0.5967 -1.3746
  174MOL0     C23912   6.761   2.996   1.374 -0.3587 -0.4244  0.5927
  174MOL0     C23913   6.665   2.957   1.261 -0.4497 -0.9243 -1.2723
  174MOL0     C23914   6.696   3.037   1.125 -0.5629  0.6615  0.4584
  174MOL0     C23915   6.596   3.022   1.015 -0.6897  1.0647 -0.4396
  174MOL0     C23916   6.594   2.878   0.950  0.3450 -0.2184  0.1862
  174MOL0     C23917   6.509   2.781   1.031 -0.5956 -0.1747 -0.4590
  174MOL0     C23918   6.439   2.677   0.938  0.4303  0.4273  0.3296
  174MOL0    Cl23919   6.312   2.751   0.836  0.0504 -0.5367  0.4168
  174MOL0     C23920   7.177   2.931   1.579  0.7036  0.5685  0.1033
  174MOL0     C23921   7.296   2.872   1.598 -0.0093  0.4838  0.2411
  174MOL0     O23922   7.332   2.536   1.637  1.1544  0.3065 -0.6545
  174MOL0     C23923   7.623   2.632   1.759  0.2463  0.1059 -0.0542
  174MOL0     C23924   7.747   2.596   1.815 -0.6942  0.6108  0.6406
  174MOL0     N23925   8.354   1.908   1.889  0.2607  0.3751  0.5968
  174MOL0     N23926   8.406   1.844   1.796 -0.0832  0.0894  0.4340
  174MOL0     C23927   7.498   1.847   1.493 -0.9804 -0.0129 -0.2592
  174MOL0     C23928   7.363   1.863   1.494  0.4241  0.7553  0.0620
  174MOL0     C23929   6.919   1.887   1.449  1.1247 -0.5762 -0.3064
  174MOL0     C23930   6.842   1.945   1.554  0.9205  0.3729  0.0395
  174MOL0     C23931   6.714   2.009   1.513 -0.3388  0.6678  1.1731
  174MOL0     C23932   6.671   2.026   1.380  0.8778  0.9974  0.0369
  174MOL0     O23933   6.556   2.083   1.353  0.2204  0.7290 -0.5790
  174MOL0     C23934   6.435   2.012   1.361 -0.4754  0.0453 -0.0766
  174MOL0     C23935   6.362   2.014   1.498  0.0013 -0.2773  0.3980
  174MOL0     C23936   6.339   2.157   1.559  0.2759  1.1889 -0.0486
  174MOL0     C23937   6.223   2.238   1.494  0.2187  0.8985  0.1809
  174MOL0     C23938   6.095   2.154   1.510 -0.7538 -0.1907  0.5972
  174MOL0     C23939   5.983   2.104   1.508  0.0906 -0.8169 -0.2571
  174MOL0     C23940   6.755   1.975   1.287  0.1801  0.2457 -0.1470
  174MOL0     C23941   6.874   1.907   1.312  0.2043  0.6647  0.9211
  174MOL0     C23942   6.922   1.834   1.189 -0.4916  0.7368 -0.5407
  174MOL0     H23943   7.290   1.665   1.230  1.2684 -0.8315 -0.3925
  174MOL0     H23944   7.534   1.624   1.240  0.2909 -0.7072  0.3018
  174MOL0     H23945   7.680   1.666   1.588 -0.5232  0.8827  0.3302
  174MOL0     H23946   7.778   1.803   1.586 -3.2327  0.3656 -1.8504
  174MOL0     H23947   7.926   1.607   1.633  1.4910 -0.1235  0.9665
  174MOL0     H23948   7.890   1.546   1.468  3.9404 -0.2010  0.4134
  174MOL0     H23949   7.952   1.788   1.385 -1.0708  0.7925  0.9240
  174MOL0     H23950   8.027   1.798   1.537  1.2513 -1.6349  0.4924
  174MOL0     H23951   8.144   1.580   1.493 -0.6356 -0.9479 -0.1044
  174MOL0     H23952   8.084   1.589   1.331 -1.0327 -1.0804  0.5225
  174MOL0     H23953   8.208   1.831   1.329 -0.8907 -0.9920  0.3827
  174MOL0     H23954   8.317   1.702   1.295 -0.2390  1.8791 -1.4469
  174MOL0     H23955   8.249   1.829   1.561 -0.7937  0.3199 -1.3750
  174MOL0     H23956   8.352   1.702   1.563  1.1990  0.0239 -0.8329
  174MOL0     H23957   8.408   1.955   1.406 -1.0314  0.3956  2.7196
  174MOL0     H23958   8.516   1.809   1.385 -0.5242  0.8984 -1.8165
  174MOL0     H23959   8.587   1.800   1.600  0.3637 -0.2133 -1.0834
  174MOL0     H23960   8.614   1.967   1.556  1.8602 -1.6194  0.0648
  174MOL0     H23961   8.486   2.145   1.702 -0.3779 -0.2554 -1.9802
  174MOL0     H23962   8.360   2.255   1.893  2.2595 -0.0935  1.9456
  174MOL0     H23963   8.325   2.161   2.044 -1.5666 -0.7229 -0.2338
  174MOL0     H23964   8.135   2.127   1.812  0.5884  1.8397 -0.2301
  174MOL0     H23965   8.118   2.106   1.983  1.9422 -3.5493 -0.8894
  174MOL0     H23966   8.118   2.363   1.998  1.1023  3.5938 -1.4758
  174MOL0     H23967   8.165   2.376   1.825  0.2086  1.5425  0.3454
  174MOL0     H23968   7.970   2.284   1.743  0.8303 -0.2245  0.0525
  174MOL0     H23969   7.900   2.252   1.909  0.4090  0.3231 -0.7312
  174MOL0     H23970   7.717   2.252   1.756 -1.3827  0.1232  1.4209
  174MOL0     H23971   7.443   2.241   1.734 -0.3689 -0.4541  0.4255
  174MOL0     H23972   7.551   2.206   1.606 -1.5188  0.1686 -2.2024
  174MOL0     H23973   7.422   2.328   1.575  1.7789 -0.2588 -1.1952
  174MOL0     H23974   7.335   2.698   1.312 -1.0709 -1.0811 -0.2476
  174MOL0     H23975   7.099   2.799   1.281 -0.6068 -2.1965  1.3617
  174MOL0     H23976   6.916   2.899   1.271  1.4294 -1.2456 -0.9910
  174MOL0     H23977   6.846   2.814   1.417  0.9847  1.6655  1.7499
  174MOL0     H23978   6.719   3.010   1.474  0.1346  0.2312  0.7126
  174MOL0     H23979   6.795   3.097   1.349 -1.0739  0.0058  1.3089
  174MOL0     H23980   6.563   2.979   1.292 -0.6679 -1.9406 -1.2093
  174MOL0     H23981   6.675   2.850   1.241 -1.2408 -1.0741 -0.9110
  174MOL0     H23982   6.787   2.991   1.085 -2.1030 -2.0017 -0.2200
  174MOL0     H23983   6.718   3.142   1.146 -0.9481  0.1008  4.5954
  174MOL0     H23984   6.501   3.060   1.055 -0.6949  1.2951 -0.6685
  174MOL0     H23985   6.628   3.093   0.939  2.2530  0.5942  0.2660
  174MOL0     H23986   6.695   2.842   0.931  0.7004  1.5051 -1.5731
  174MOL0     H23987   6.552   2.903   0.851  1.7543 -0.5783 -0.5282
  174MOL0     H23988   6.432   2.842   1.080 -1.5302  3.3594 -5.5273
  174MOL0     H23989   6.579   2.741   1.104 -0.2774  2.9165  1.1003
  174MOL0     H23990   6.405   2.586   0.990  1.7875 -0.7973 -0.8169
  174MOL0     H23991   6.518   2.640   0.872  0.5093  1.6166 -0.2494
  174MOL0     H23992   7.161   3.016   1.644  0.3931  0.6269 -0.0500
  174MOL0     H23993   7.353   2.896   1.688 -0.0572  0.0576  0.3884
  174MOL0     H23994   7.582   2.732   1.767 -3.9794 -1.2143 -1.9847
  174MOL0     H23995   7.819   2.660   1.863 -0.0564  1.3898 -1.2736
  174MOL0     H23996   7.557   1.892   1.572  2.6293 -0.6371 -2.3649
  174MOL0     H23997   7.319   1.940   1.556 -0.2536  0.9972 -0.7026
  174MOL0     H23998   6.868   1.939   1.659 -1.6655  0.5256  0.7429
  174MOL0     H23999   6.664   2.071   1.588 -1.7504 -1.5687  2.1720
  174MOL0     H24000   6.369   2.051   1.283 -0.7357 -1.5946 -0.7197
  174MOL0     H24001   6.452   1.907   1.334  1.0815 -0.7458  3.4493
  174MOL0     H24002   6.423   1.953   1.565 -0.5933  1.4130  2.5845
  174MOL0     H24003   6.266   1.961   1.494  1.6921 -3.8762  2.1416
  174MOL0     H24004   6.316   2.144   1.665  1.4395  0.5538  0.1468
  174MOL0     H24005   6.427   2.221   1.549  0.8590  0.8591  2.5061
  174MOL0     H24006   6.237   2.255   1.387 -1.0617  0.3665 -0.0976
  174MOL0     H24007   6.194   2.336   1.533  0.0878  1.5533 -1.4679
  174MOL0     H24008   5.887   2.055   1.505 -1.6036  2.0713  1.9210
  174MOL0     H24009   6.739   1.977   1.179 -0.9700 -1.8289 -0.0754
  174MOL0     H24010   6.957   1.739   1.230  0.2706  1.7349  1.2253
  174MOL0     H24011   6.849   1.815   1.109 -1.6124 -1.3399  0.8681
  174MOL0     H24012   7.000   1.888   1.134 -0.8546  2.6933  0.7955
  175MOL0     O24013   9.549  11.452   4.128  0.3051 -0.1160 -0.1972
  175MOL0     C24014   9.445  11.454   4.191 -0.4119  0.3398  0.3691
  175MOL0     O24015   9.341  11.356   4.191 -0.5158  0.3486  0.2652
  175MOL0     C24016   9.335  11.259   4.090 -0.3936 -0.0620  0.6550
  175MOL0     C24017   9.289  11.131   4.132  0.4959 -0.1829  0.9590
  175MOL0     C24018   9.275  11.031   4.038 -1.3845 -0.2377 -0.3431
  175MOL0     C24019   9.312  11.058   3.904 -0.2335  0.0756 -0.2585
  175MOL0     O24020   9.293  10.957   3.812  0.7884  0.1556 -0.4136
  175MOL0     C24021   9.413  10.904   3.758  0.2892 -0.1089 -0.2523
  175MOL0     C24022   9.474  10.800   3.857 -0.1630 -0.2621 -0.5902
  175MOL0     C24023   9.596  10.726   3.810  0.5703  0.6077 -0.5206
  175MOL0     C24024   9.623  10.613   3.915  1.2369 -0.3267 -0.0895
  175MOL0     C24025   9.744  10.529   3.871 -0.6350  1.4773 -0.6260
  175MOL0     C24026   9.791  10.434   3.979 -1.0311 -0.1481  0.4607
  175MOL0     C24027   9.927  10.380   3.942 -1.2546  0.4823  0.6050
  175MOL0     C24028   9.994  10.296   4.049 -0.2885  0.0075 -0.4666
  175MOL0     N24029  10.108  10.232   3.975 -0.1082 -0.3833  0.0378
  175MOL0     C24030  10.118  10.109   3.930  1.3849 -0.2901 -0.1879
  175MOL0     C24031  10.253  10.083   3.915 -0.1566  0.2688  0.6952
  175MOL0     C24032  10.335   9.963   3.859 -0.5907 -0.7613 -0.4460
  175MOL0     C24033  10.352   9.849   3.970  0.4401 -0.4301  0.8422
  175MOL0     C24034  10.456   9.741   3.904  0.2086  0.7397 -0.3962
  175MOL0     C24035  10.510   9.670   4.033 -0.5410  0.0844 -0.3801
  175MOL0     O24036  10.590   9.549   4.016 -0.3979 -0.7576 -0.3689
  175MOL0     C24037  10.719   9.569   3.991  0.2695  0.2871 -0.9836
  175MOL0     C24038  10.767   9.624   3.876 -0.1617 -0.0905  0.1720
  175MOL0     C24039  10.906   9.641   3.853 -0.3891 -0.0087  0.5885
  175MOL0     C24040  10.947   9.732   3.725  0.0812  0.2726 -0.2401
  175MOL0     C24041  10.998   9.608   3.952 -0.0713  0.2072  0.1229
  175MOL0     C24042  11.140   9.633   3.929  0.2112  0.1621 -0.2695
  175MOL0     O24043  11.201   9.582   3.820 -0.8457  0.3018  0.0081
  175MOL0     C24044  11.334   9.600   3.781  0.3194  0.0611  0.6277
  175MOL0     C24045  11.422   9.696   3.838  0.5623  0.5964  0.4935
  175MOL0     C24046  11.549   9.723   3.785  1.0101 -0.2199 -0.1847
  175MOL0     C24047  11.582   9.670   3.657  0.3316 -0.0573  0.1580
  175MOL0     O24048  11.707   9.698   3.615 -0.2429 -1.1637 -0.0555
  175MOL0     C24049  11.721   9.759   3.486 -0.6273  0.0186  0.9740
  175MOL0     C24050  11.848   9.849   3.478 -0.1846  0.0812 -0.2558
  175MOL0     C24051  11.881   9.904   3.347  1.3670  0.0142 -0.1160
  175MOL0     C24052  11.904   9.803   3.242  0.3348 -0.1159  0.2387
  175MOL0     C24053  11.913   9.868   3.097  1.2386  0.9118  0.4371
  175MOL0     C24054  12.043   9.947   3.071 -0.1641 -0.0556  0.2819
  175MOL0     C24055  12.058   9.980   2.927 -0.4855  0.0699 -1.3088
  175MOL0     C24056  11.986  10.108   2.898  0.5217  0.3010  0.4281
  175MOL0    Cl24057  12.075  10.239   2.959  0.1767 -0.6303 -0.0445
  175MOL0     C24058  11.492   9.579   3.597  1.0801 -0.0336 -0.1929
  175MOL0     C24059  11.365   9.545   3.654  1.0229  0.8223  0.4280
  175MOL0     O24060  11.196   9.665   4.036  0.3572 -0.1042  0.3128
  175MOL0     C24061  10.941   9.551   4.073  0.0878 -0.3794  0.7685
  175MOL0     C24062  10.803   9.519   4.085  0.4167 -0.2541 -0.5384
  175MOL0     N24063  10.321  10.193   3.963 -0.6235  0.9515  0.3388
  175MOL0     N24064  10.237  10.272   4.005 -0.6125 -0.1362  0.1344
  175MOL0     C24065   9.366  11.182   3.861  0.1104  0.2032  0.5173
  175MOL0     C24066   9.369  11.288   3.952 -0.0911  0.4327  0.3138
  175MOL0     C24067   9.426  11.573   4.277 -0.4428 -0.4994 -0.2151
  175MOL0     C24068   9.426  11.559   4.415  0.7486 -0.1985  0.7295
  175MOL0     C24069   9.419  11.674   4.492 -0.4437 -0.3255  0.1333
  175MOL0     C24070   9.418  11.804   4.437  0.0299  0.2927  0.0088
  175MOL0     O24071   9.416  11.918   4.510  0.4096  0.3070  0.8568
  175MOL0     C24072   9.510  11.916   4.615  0.4488  0.2211  0.6208
  175MOL0     C24073   9.531  12.056   4.660  0.6397 -0.5128  0.5702
  175MOL0     C24074   9.668  12.074   4.729  0.2663 -0.7894 -0.2370
  175MOL0     C24075   9.658  12.204   4.823  0.3070  0.5502 -0.5051
  175MOL0     C24076   9.650  12.325   4.743 -0.5255  0.9806  0.0349
  175MOL0     C24077   9.665  12.412   4.661  0.0159 -0.0835  0.1311
  175MOL0     C24078   9.416  11.809   4.300 -0.6374  0.3983 -0.5200
  175MOL0     C24079   9.425  11.697   4.213  0.4195 -0.6079  0.5335
  175MOL0     C24080   9.424  11.719   4.067 -0.4209  0.2781  0.7467
  175MOL0     H24081   9.250  11.118   4.233 -2.6330 -2.4324 -0.3843
  175MOL0     H24082   9.224  10.941   4.070  2.3087 -1.9850  1.1926
  175MOL0     H24083   9.484  10.983   3.733 -0.7771  0.3489 -2.0326
  175MOL0     H24084   9.381  10.862   3.662  1.5706  2.2150 -1.7819
  175MOL0     H24085   9.483  10.838   3.960  0.7874 -1.1014 -0.3420
  175MOL0     H24086   9.395  10.725   3.868  0.5720 -0.7302  2.3869
  175MOL0     H24087   9.585  10.678   3.712  0.8123 -1.7172  0.5211
  175MOL0     H24088   9.684  10.790   3.820  0.9537 -0.1836  1.9423
  175MOL0     H24089   9.633  10.660   4.013  0.2114 -0.2157 -0.0245
  175MOL0     H24090   9.538  10.544   3.917  1.7226 -0.9853  3.0336
  175MOL0     H24091   9.829  10.594   3.847  0.2206  0.3796 -0.6318
  175MOL0     H24092   9.727  10.470   3.780  0.8961 -1.5098  0.8748
  175MOL0     H24093   9.810  10.490   4.071  1.6256  1.0496 -0.7052
  175MOL0     H24094   9.710  10.361   3.983 -1.0512 -0.4333 -2.7574
  175MOL0     H24095   9.999  10.460   3.920 -1.3932  0.2905 -0.5867
  175MOL0     H24096   9.932  10.332   3.844  2.7463 -0.0984  0.9182
  175MOL0     H24097  10.013  10.366   4.132 -1.4147 -0.7399  0.4714
  175MOL0     H24098   9.927  10.223   4.096 -0.4625  1.4992  1.8051
  175MOL0     H24099  10.032  10.051   3.896  1.0170 -0.3857  0.8763
  175MOL0     H24100  10.430  10.002   3.822  0.3099 -0.3491  2.1374
  175MOL0     H24101  10.288   9.918   3.770  0.3182 -0.3361 -1.1514
  175MOL0     H24102  10.392   9.900   4.058 -0.0819  4.3188 -1.3504
  175MOL0     H24103  10.255   9.801   3.984 -0.3655  1.6637  3.1157
  175MOL0     H24104  10.413   9.676   3.827  2.4779 -1.5608  0.1664
  175MOL0     H24105  10.545   9.789   3.862  0.1254 -1.3952 -3.3119
  175MOL0     H24106  10.577   9.740   4.083 -2.6271  1.3130  0.8241
  175MOL0     H24107  10.430   9.622   4.089 -0.6044  1.4156  0.7234
  175MOL0     H24108  10.702   9.655   3.795  1.1222  0.7398 -0.5865
  175MOL0     H24109  11.050   9.763   3.707 -0.9997  3.0122 -2.5025
  175MOL0     H24110  10.890   9.825   3.734  0.6659  0.7447 -1.2023
  175MOL0     H24111  10.905   9.675   3.641 -2.2090  3.6278 -1.5796
  175MOL0     H24112  11.379   9.756   3.917 -3.6912 -1.7531  0.2696
  175MOL0     H24113  11.623   9.790   3.828 -0.2264  0.9576  0.1632
  175MOL0     H24114  11.739   9.673   3.420 -0.8982 -0.7726  1.8952
  175MOL0     H24115  11.635   9.810   3.443 -0.0231  0.4609  0.2555
  175MOL0     H24116  11.833   9.936   3.541  0.4224 -0.7920  1.1441
  175MOL0     H24117  11.940   9.797   3.508  2.3907  3.4453 -1.7399
  175MOL0     H24118  11.973   9.963   3.361  1.0571  0.9240 -1.7314
  175MOL0     H24119  11.798   9.965   3.311  0.1154 -2.4184 -1.5705
  175MOL0     H24120  11.812   9.745   3.231 -0.6923  1.8734 -2.8417
  175MOL0     H24121  11.996   9.745   3.259  1.5778  1.4896 -0.7640
  175MOL0     H24122  11.900   9.786   3.027  1.4642 -0.2908  1.7451
  175MOL0     H24123  11.825   9.930   3.079  1.4914  0.6349 -2.1158
  175MOL0     H24124  12.139   9.898   3.094 -0.7329 -2.8714 -2.4963
  175MOL0     H24125  12.056  10.041   3.125 -0.5431  0.1662 -0.0088
  175MOL0     H24126  12.008   9.899   2.872  0.1942 -4.1640  3.5452
  175MOL0     H24127  12.161  10.012   2.908 -0.1925  0.8669  1.1681
  175MOL0     H24128  11.888  10.099   2.945  0.7496 -0.3327  0.7921
  175MOL0     H24129  11.972  10.120   2.790 -1.8560 -2.0284  0.3819
  175MOL0     H24130  11.522   9.538   3.501  1.9183 -3.6473  1.4528
  175MOL0     H24131  11.295   9.479   3.605  1.9429  0.1478 -0.0227
  175MOL0     H24132  11.013   9.521   4.148  1.3005  0.5468  0.0180
  175MOL0     H24133  10.762   9.462   4.168 -2.2872  1.8326 -0.2903
  175MOL0     H24134   9.399  11.203   3.760 -1.7103 -0.3256 -0.2262
  175MOL0     H24135   9.388  11.390   3.922  0.9904  0.2591  0.3745
  175MOL0     H24136   9.440  11.461   4.458 -0.1182 -0.4939  0.3613
  175MOL0     H24137   9.440  11.658   4.597 -0.2910  0.2277  0.1920
  175MOL0     H24138   9.498  11.852   4.703 -0.1579  0.1348  0.4739
  175MOL0     H24139   9.606  11.877   4.579 -0.5902 -2.2477  0.3602
  175MOL0     H24140   9.442  12.074   4.720 -2.3195  1.7674 -3.8855
  175MOL0     H24141   9.530  12.134   4.583  3.2121  0.4886  1.4466
  175MOL0     H24142   9.676  12.002   4.811  2.9971  1.6313  1.8505
  175MOL0     H24143   9.755  12.078   4.664 -0.8204  0.7212 -1.6593
  175MOL0     H24144   9.742  12.208   4.893 -0.1573 -1.3104  0.1897
  175MOL0     H24145   9.575  12.196   4.893 -2.7224  0.2978 -3.8648
  175MOL0     H24146   9.679  12.478   4.578 -1.2325 -0.1663 -0.1621
  175MOL0     H24147   9.429  11.905   4.251  0.8451  0.9167  0.8229
  175MOL0     H24148   9.529  11.712   4.038 -0.8630  0.5557 -1.0634
  175MOL0     H24149   9.366  11.644   4.013  0.6354  1.3962 -2.1253
  175MOL0     H24150   9.381  11.814   4.034 -4.3335 -1.3672  0.5868
  176MOL0     O24151   6.874   4.231   8.800  0.8322 -0.7057  0.4556
  176MOL0     C24152   6.768   4.174   8.817  0.3854  0.6496  0.7544
  176MOL0     O24153   6.752   4.048   8.864  0.0763  0.1495  0.0162
  176MOL0     C24154   6.859   3.983   8.897  0.2398 -0.6570  0.9809
  176MOL0     C24155   6.929   3.915   8.798 -0.2465 -0.3458  0.0017
  176MOL0     C24156   7.057   3.863   8.826  0.0866 -0.2514  0.0601
  176MOL0     C24157   7.095   3.835   8.960 -0.2730 -0.0097  0.3402
  176MOL0     O24158   7.217   3.767   8.994  0.0325  0.0210  0.1479
  176MOL0     C24159   7.305   3.729   8.888  0.8034  1.4939  0.4784
  176MOL0     C24160   7.390   3.851   8.846  0.5724  0.1679 -0.1548
  176MOL0     C24161   7.503   3.813   8.745 -0.2575  0.4138  0.1955
  176MOL0     C24162   7.539   3.932   8.649  0.0472  0.6948 -0.5729
  176MOL0     C24163   7.635   3.895   8.542 -0.1916 -0.1220 -0.6420
  176MOL0     C24164   7.674   4.014   8.455 -0.2144  0.3150 -0.4665
  176MOL0     C24165   7.727   4.145   8.524  0.1711 -0.0770  0.0168
  176MOL0     C24166   7.813   4.221   8.420  0.7466 -0.2969  0.4697
  176MOL0     N24167   7.959   4.197   8.441 -0.4854 -0.0015  0.8762
  176MOL0     C24168   8.024   4.198   8.562 -0.0491  0.1196 -0.1186
  176MOL0     C24169   8.156   4.198   8.541  0.2204 -0.6790  0.9210
  176MOL0     C24170   8.273   4.223   8.634  0.3309  0.4011 -1.0987
  176MOL0     C24171   8.296   4.371   8.642  0.4395  0.2223  0.1580
  176MOL0     C24172   8.437   4.423   8.691  0.1715 -0.2591 -0.3033
  176MOL0     C24173   8.493   4.345   8.819  0.3080 -0.3350  0.3207
  176MOL0     O24174   8.414   4.335   8.938  0.0476  0.0872  0.3064
  176MOL0     C24175   8.436   4.424   9.039  0.2035 -0.0862  0.0729
  176MOL0     C24176   8.480   4.377   9.159  0.3139 -0.1889 -0.4426
  176MOL0     C24177   8.500   4.465   9.270 -0.3481  0.4114  0.8862
  176MOL0     C24178   8.554   4.407   9.406 -0.3757 -0.3722 -0.2753
  176MOL0     C24179   8.470   4.597   9.246  0.1681 -1.0309  0.8245
  176MOL0     C24180   8.487   4.702   9.356  0.1391  0.0361 -0.0696
  176MOL0     O24181   8.605   4.710   9.431 -0.2433 -0.3382  0.3149
  176MOL0     C24182   8.631   4.822   9.501  0.3052 -0.2893 -0.2286
  176MOL0     C24183   8.536   4.892   9.585 -0.1356 -0.1104 -0.4242
  176MOL0     C24184   8.575   5.012   9.644  0.6482 -0.3962 -0.2388
  176MOL0     C24185   8.694   5.077   9.624 -0.3150 -0.1558  0.6508
  176MOL0     O24186   8.711   5.202   9.685  0.5597  0.3867  0.1021
  176MOL0     C24187   8.813   5.282   9.632  0.8447  0.0246 -0.1560
  176MOL0     C24188   8.834   5.415   9.709  1.0141 -0.5660  0.5825
  176MOL0     C24189   8.963   5.485   9.683 -0.2689  0.0647  0.1480
  176MOL0     C24190   8.965   5.630   9.714  0.2834 -0.6761  1.1461
  176MOL0     C24191   8.890   5.715   9.597  1.2278 -0.8843 -0.4232
  176MOL0     C24192   8.877   5.869   9.616 -0.4718  0.4367  0.6071
  176MOL0     C24193   8.842   5.919   9.751 -0.5536  0.7351 -0.7066
  176MOL0     C24194   8.877   6.066   9.755 -0.0144 -0.4312  0.0202
  176MOL0    Cl24195   8.800   6.136   9.904  0.1307  0.4036  0.3669
  176MOL0     C24196   8.789   5.008   9.538 -0.8624  0.1820  0.6211
  176MOL0     C24197   8.761   4.884   9.480 -0.2451  0.5016 -0.9172
  176MOL0     O24198   8.389   4.780   9.362 -0.4201  0.3122 -0.7067
  176MOL0     C24199   8.419   4.639   9.118 -0.1296 -0.2247 -0.1532
  176MOL0     C24200   8.403   4.554   9.016 -0.0907 -0.0996  0.6405
  176MOL0     N24201   8.174   4.190   8.402  0.5155 -0.2259  0.1866
  176MOL0     N24202   8.056   4.198   8.345  1.0896 -0.6281 -0.9211
  176MOL0     C24203   7.025   3.885   9.064  0.5775 -0.7839  0.5690
  176MOL0     C24204   6.919   3.978   9.027  0.3209 -0.2921 -0.6366
  176MOL0     C24205   6.634   4.249   8.787 -0.9234  0.6694 -0.6202
  176MOL0     C24206   6.524   4.199   8.851  0.1348 -1.5430  0.6728
  176MOL0     C24207   6.403   4.274   8.842 -0.4482  0.8927  1.0218
  176MOL0     C24208   6.399   4.395   8.774 -0.3412 -0.1015  0.3812
  176MOL0     O24209   6.276   4.456   8.760  0.4226  0.2417  0.4973
  176MOL0     C24210   6.274   4.592   8.821  0.4069 -0.2808 -0.2399
  176MOL0     C24211   6.192   4.683   8.737 -0.6087 -0.4311  0.4259
  176MOL0     C24212   6.244   4.733   8.598 -0.4747 -0.4183  0.3072
  176MOL0     C24213   6.235   4.628   8.483  0.2836 -0.0674  0.2253
  176MOL0     C24214   6.282   4.699   8.365  0.2900 -1.2977  0.8253
  176MOL0     C24215   6.300   4.751   8.257 -0.2260 -0.1803  0.9102
  176MOL0     C24216   6.507   4.433   8.695 -0.1370 -0.0207  0.3507
  176MOL0     C24217   6.621   4.354   8.697  0.7417 -0.5922 -0.8423
  176MOL0     C24218   6.731   4.409   8.620 -0.0062 -0.3562 -0.0182
  176MOL0     H24219   6.896   3.932   8.696 -1.9011 -3.3615 -0.0616
  176MOL0     H24220   7.119   3.820   8.748 -0.4132  0.3480 -0.6787
  176MOL0     H24221   7.257   3.683   8.801  2.5288 -4.3505  2.1615
  176MOL0     H24222   7.377   3.654   8.922  0.3595  0.0526 -1.6283
  176MOL0     H24223   7.319   3.918   8.797 -1.6235 -2.0354 -0.2039
  176MOL0     H24224   7.432   3.900   8.934 -0.0866 -3.2413  2.2543
  176MOL0     H24225   7.594   3.781   8.797  0.0432 -0.1052 -0.6369
  176MOL0     H24226   7.486   3.726   8.682  2.8256  1.6003 -2.5915
  176MOL0     H24227   7.455   3.972   8.591 -0.0436  1.9477  0.3933
  176MOL0     H24228   7.570   4.016   8.712  1.2146 -0.3712  0.3181
  176MOL0     H24229   7.593   3.815   8.480 -1.6213 -0.5900  0.8883
  176MOL0     H24230   7.730   3.861   8.585 -1.2044 -0.6722  1.2501
  176MOL0     H24231   7.746   3.963   8.391  0.5129 -1.9461  1.9871
  176MOL0     H24232   7.585   4.047   8.401 -1.4680  2.5034  2.6437
  176MOL0     H24233   7.791   4.119   8.610  2.7886  1.0218 -1.4749
  176MOL0     H24234   7.639   4.202   8.553 -0.1184 -1.5513  2.2881
  176MOL0     H24235   7.782   4.197   8.318  2.2530  0.8461 -0.3058
  176MOL0     H24236   7.790   4.328   8.432 -1.0938 -0.6497  0.2481
  176MOL0     H24237   7.973   4.222   8.655 -0.4897 -0.9956 -0.0613
  176MOL0     H24238   8.363   4.171   8.601 -1.1998 -2.2092 -1.3700
  176MOL0     H24239   8.245   4.185   8.732 -1.2636  0.5005 -1.4807
  176MOL0     H24240   8.277   4.412   8.542  1.7896  0.4401 -0.0206
  176MOL0     H24241   8.214   4.418   8.697 -0.6628  0.3833 -1.5441
  176MOL0     H24242   8.501   4.411   8.603 -0.7403  0.1430 -1.0314
  176MOL0     H24243   8.434   4.531   8.708  1.7712 -0.6482  3.3289
  176MOL0     H24244   8.517   4.244   8.785  3.2842  0.9736 -1.8888
  176MOL0     H24245   8.587   4.391   8.851 -0.0296 -0.4857  1.5508
  176MOL0     H24246   8.505   4.271   9.166 -0.1033 -0.1822  2.2896
  176MOL0     H24247   8.662   4.395   9.419 -0.6460 -1.0566  1.6482
  176MOL0     H24248   8.509   4.308   9.420  1.9903 -1.3438  0.9749
  176MOL0     H24249   8.505   4.468   9.483  1.2850  1.5202 -0.6290
  176MOL0     H24250   8.437   4.850   9.601 -1.2245  3.0982  2.4509
  176MOL0     H24251   8.495   5.056   9.703  2.3315 -0.0359  1.9052
  176MOL0     H24252   8.913   5.236   9.628  0.6150 -0.5234  0.2828
  176MOL0     H24253   8.788   5.308   9.529 -0.3343  1.0516  0.3598
  176MOL0     H24254   8.759   5.489   9.677 -0.3822 -2.0366  0.3230
  176MOL0     H24255   8.813   5.399   9.815 -1.2785  0.4358  0.3554
  176MOL0     H24256   8.990   5.466   9.578 -1.3566 -0.4023 -0.0640
  176MOL0     H24257   9.049   5.447   9.739  1.1300  1.2607 -1.1056
  176MOL0     H24258   9.063   5.678   9.726 -0.3670  0.2813  2.9246
  176MOL0     H24259   8.910   5.649   9.806  3.2037  1.8014  2.5324
  176MOL0     H24260   8.947   5.691   9.507 -1.2594 -3.4036 -1.4679
  176MOL0     H24261   8.787   5.681   9.578 -0.4164 -0.3420  5.4024
  176MOL0     H24262   8.793   5.906   9.556 -1.1704  2.5620  2.7226
  176MOL0     H24263   8.973   5.914   9.590 -0.7396  0.7560  0.1625
  176MOL0     H24264   8.897   5.858   9.823  0.0485 -0.1703 -1.8937
  176MOL0     H24265   8.734   5.910   9.766 -0.3492 -1.0595 -0.0239
  176MOL0     H24266   8.846   6.129   9.671 -0.6427  2.5521  2.3316
  176MOL0     H24267   8.986   6.078   9.761  0.1755 -2.4005  1.8307
  176MOL0     H24268   8.879   5.066   9.521 -2.6221  2.9318 -0.0276
  176MOL0     H24269   8.831   4.820   9.427 -1.8589 -0.4020 -2.0628
  176MOL0     H24270   8.390   4.743   9.103  0.2414  0.4716  3.1639
  176MOL0     H24271   8.356   4.589   8.925 -0.1490 -0.6752  0.4475
  176MOL0     H24272   7.050   3.878   9.170  0.0577  0.3683  0.7803
  176MOL0     H24273   6.862   4.041   9.095  0.4069  2.3862 -2.8890
  176MOL0     H24274   6.520   4.099   8.894  0.1179 -0.7905  2.4978
  176MOL0     H24275   6.308   4.240   8.881  0.5685 -5.6176 -0.9360
  176MOL0     H24276   6.227   4.583   8.919 -0.6989 -0.3062 -0.7605
  176MOL0     H24277   6.370   4.642   8.836 -0.8164  2.6389 -1.3984
  176MOL0     H24278   6.204   4.771   8.801  2.1514 -2.0334  2.3347
  176MOL0     H24279   6.090   4.641   8.738 -1.2855  1.0908 -0.6417
  176MOL0     H24280   6.176   4.814   8.571 -0.4278 -0.3975  0.2513
  176MOL0     H24281   6.344   4.776   8.612 -1.7337  3.5674 -1.5770
  176MOL0     H24282   6.133   4.591   8.471  1.1022 -2.1104 -0.9404
  176MOL0     H24283   6.288   4.534   8.500 -0.4332 -0.1974  2.0866
  176MOL0     H24284   6.311   4.787   8.157  0.6652  0.6587  1.2923
  176MOL0     H24285   6.494   4.516   8.625 -0.7601  1.1284  1.7744
  176MOL0     H24286   6.700   4.467   8.533 -2.4535 -2.3525 -0.5847
  176MOL0     H24287   6.801   4.473   8.676  0.6971 -0.3497 -0.8920
  176MOL0     H24288   6.781   4.319   8.585 -0.5482 -2.3076  3.7178
  177MOL0     O24289   3.966   0.462   0.765  0.0847  0.0202  0.1126
  177MOL0     C24290   4.078   0.440   0.712  0.1960 -0.5297  0.2914
  177MOL0     O24291   4.196   0.447   0.779 -0.1572  1.1352  0.0863
  177MOL0     C24292   4.195   0.469   0.909 -0.3865  0.5437  0.0141
  177MOL0     C24293   4.246   0.378   0.998  0.4278  1.3190  0.5273
  177MOL0     C24294   4.229   0.400   1.134  0.0855  0.3772  0.6281
  177MOL0     C24295   4.160   0.514   1.184 -0.2292 -0.0142  0.4562
  177MOL0     O24296   4.127   0.523   1.313  1.1802 -0.4116  0.2082
  177MOL0     C24297   3.983   0.497   1.340 -0.5406  0.7860 -0.5696
  177MOL0     C24298   3.921   0.621   1.395  0.2570 -0.0069  0.1712
  177MOL0     C24299   3.950   0.609   1.550  0.2403  0.0932  0.5587
  177MOL0     C24300   3.880   0.724   1.629  0.7671 -0.9805  1.0702
  177MOL0     C24301   3.914   0.722   1.777  0.5617 -0.0808 -0.0345
  177MOL0     C24302   3.831   0.807   1.863 -0.4503  0.3779 -0.2938
  177MOL0     C24303   3.831   0.751   2.017  0.2134 -0.2981  1.1546
  177MOL0     C24304   3.743   0.833   2.111  0.2056  0.6313 -1.1423
  177MOL0     N24305   3.603   0.855   2.064  0.4724 -0.1195 -0.6007
  177MOL0     C24306   3.533   0.766   1.981  0.2316 -0.7984 -0.5004
  177MOL0     C24307   3.407   0.809   1.984 -0.7732 -0.2389 -0.2636
  177MOL0     C24308   3.291   0.733   1.917  0.3316 -0.7724 -0.3309
  177MOL0     C24309   3.327   0.616   1.816 -0.6711  0.6676 -0.1695
  177MOL0     C24310   3.375   0.490   1.890 -0.3883 -0.6163  0.4104
  177MOL0     C24311   3.298   0.440   2.008  0.2768 -0.3837 -0.6086
  177MOL0     O24312   3.157   0.447   1.973 -0.5065  0.5287  0.4803
  177MOL0     C24313   3.063   0.407   2.062  0.0798  0.1151  0.2767
  177MOL0     C24314   3.088   0.356   2.190 -0.6848  0.3245 -0.6585
  177MOL0     C24315   2.985   0.310   2.279 -0.2286  0.4015  0.2550
  177MOL0     C24316   3.027   0.262   2.415  0.2795 -0.1628 -0.3501
  177MOL0     C24317   2.847   0.311   2.225  0.6958  0.7629 -1.0165
  177MOL0     C24318   2.721   0.289   2.312 -0.2615  0.1273  0.0869
  177MOL0     O24319   2.602   0.327   2.270 -0.7445 -0.0696  0.2323
  177MOL0     C24320   2.500   0.284   2.340  0.0701 -0.5041  0.8273
  177MOL0     C24321   2.466   0.321   2.468  0.0758 -0.6582 -0.5542
  177MOL0     C24322   2.350   0.268   2.538 -0.4061  0.7752  0.6777
  177MOL0     C24323   2.259   0.196   2.460 -0.1165  0.1047  0.3132
  177MOL0     O24324   2.128   0.154   2.499 -1.1340 -0.0577 -0.6637
  177MOL0     C24325   2.074   0.191   2.620 -0.8795  1.0783 -0.0639
  177MOL0     C24326   1.930   0.138   2.627 -0.1733 -0.0836  0.0172
  177MOL0     C24327   1.842   0.253   2.583 -0.1548  0.3327 -0.6084
  177MOL0     C24328   1.701   0.213   2.546  0.3601 -0.4448  0.4469
  177MOL0     C24329   1.622   0.164   2.663 -1.1093 -0.3982 -0.0578
  177MOL0     C24330   1.486   0.104   2.630 -0.1152 -0.0567 -0.9478
  177MOL0     C24331   1.412   0.096   2.762  0.4367 -0.7840 -0.3574
  177MOL0     C24332   1.267   0.041   2.737 -0.5850  0.2413 -1.0310
  177MOL0    Cl24333   1.194  -0.041   2.873 -0.1214  0.1546 -0.0005
  177MOL0     C24334   2.296   0.153   2.327 -0.0300 -0.5872  0.5907
  177MOL0     C24335   2.422   0.186   2.265  0.6647  0.4115 -0.6700
  177MOL0     O24336   2.750   0.251   2.424  0.4332 -0.6489 -0.4240
  177MOL0     C24337   2.828   0.362   2.094  0.2132 -0.5371  0.1103
  177MOL0     C24338   2.928   0.404   2.015 -0.4759 -0.5857 -0.0690
  177MOL0     N24339   3.410   0.924   2.061 -0.2941  0.5724 -0.9843
  177MOL0     N24340   3.523   0.946   2.118 -0.8109 -0.9822  0.3249
  177MOL0     C24341   4.120   0.614   1.095 -1.1430 -0.1572  0.0484
  177MOL0     C24342   4.141   0.591   0.964 -0.7104 -0.3836  0.3442
  177MOL0     C24343   4.085   0.438   0.565 -0.2841 -0.5451 -0.2395
  177MOL0     C24344   4.199   0.501   0.503  0.6195  0.4088  0.1919
  177MOL0     C24345   4.190   0.535   0.365  0.3091  0.8816 -0.0588
  177MOL0     C24346   4.082   0.500   0.288 -0.0894 -0.5549 -0.1525
  177MOL0     O24347   4.087   0.540   0.154 -0.4517 -1.0024 -0.1831
  177MOL0     C24348   3.979   0.622   0.100 -0.1168 -0.3202  1.3718
  177MOL0     C24349   4.009   0.650  -0.052 -0.4461  0.4567 -0.4421
  177MOL0     C24350   4.031   0.525  -0.136  0.0253  0.1451 -0.1155
  177MOL0     C24351   4.079   0.541  -0.285  0.5562 -0.0553 -0.2999
  177MOL0     C24352   4.153   0.662  -0.312  0.4577 -0.1620  0.0082
  177MOL0     C24353   4.225   0.753  -0.338  0.4281 -0.5528  0.7205
  177MOL0     C24354   3.980   0.428   0.345  0.7947 -0.4104 -0.6291
  177MOL0     C24355   3.980   0.393   0.480 -0.2757 -0.2943 -0.8468
  177MOL0     C24356   3.865   0.325   0.537 -0.7675  1.1580 -1.3224
  177MOL0     H24357   4.295   0.290   0.959 -0.2018  0.3785  1.7603
  177MOL0     H24358   4.271   0.324   1.200  0.0263 -2.1929 -2.1109
  177MOL0     H24359   3.970   0.415   1.411 -2.7243  0.4408 -1.3091
  177MOL0     H24360   3.928   0.476   1.248 -0.3095  2.3841 -1.1133
  177MOL0     H24361   3.967   0.710   1.348  2.5435 -1.8988 -1.4243
  177MOL0     H24362   3.814   0.617   1.377  0.1195  1.6546  0.3959
  177MOL0     H24363   3.901   0.524   1.598 -2.3694  1.0973 -0.1740
  177MOL0     H24364   4.057   0.603   1.573  0.7248  3.0159 -0.5639
  177MOL0     H24365   3.911   0.825   1.602 -1.6398 -0.5954 -0.6514
  177MOL0     H24366   3.771   0.719   1.619  0.7185 -0.8578  1.5168
  177MOL0     H24367   4.017   0.760   1.780 -0.1131  1.9483 -1.0630
  177MOL0     H24368   3.906   0.617   1.808 -0.0406  0.8240  3.2637
  177MOL0     H24369   3.883   0.903   1.863  0.6477 -0.1343  2.0720
  177MOL0     H24370   3.734   0.822   1.816 -0.2693 -1.8076 -1.5199
  177MOL0     H24371   3.932   0.765   2.055 -0.0683 -0.2929  1.9224
  177MOL0     H24372   3.806   0.644   2.019  0.4020 -0.5428 -2.3373
  177MOL0     H24373   3.731   0.790   2.211 -1.8657  1.9937 -0.7391
  177MOL0     H24374   3.784   0.934   2.123  0.4451  0.4189 -0.0385
  177MOL0     H24375   3.574   0.671   1.948 -0.6999 -2.9221  3.6912
  177MOL0     H24376   3.220   0.796   1.864 -1.9166 -3.3983 -0.7055
  177MOL0     H24377   3.230   0.701   2.003  0.4879  2.7445  1.2821
  177MOL0     H24378   3.238   0.596   1.756 -4.2059  5.4155  2.7594
  177MOL0     H24379   3.401   0.661   1.750 -1.2799 -1.8859 -2.7829
  177MOL0     H24380   3.387   0.411   1.815  1.8266  0.6280 -0.6350
  177MOL0     H24381   3.478   0.504   1.923 -0.9125  1.6826  1.2582
  177MOL0     H24382   3.336   0.342   2.037  0.2611 -0.3966 -0.6314
  177MOL0     H24383   3.322   0.510   2.088  3.4646 -2.5355  0.4921
  177MOL0     H24384   3.191   0.360   2.227 -1.2787  1.3002  1.0019
  177MOL0     H24385   3.133   0.244   2.438 -0.4173 -0.0767  3.4891
  177MOL0     H24386   2.984   0.162   2.423 -0.4467  0.2343  0.8918
  177MOL0     H24387   2.973   0.329   2.482  0.6170 -0.8285  0.6104
  177MOL0     H24388   2.542   0.386   2.509  1.1630 -3.6541  2.5461
  177MOL0     H24389   2.321   0.307   2.635 -1.3924  2.6745 -0.3185
  177MOL0     H24390   2.119   0.140   2.706 -2.4989  2.5721  1.7557
  177MOL0     H24391   2.078   0.299   2.633 -0.6225  1.1413 -0.6154
  177MOL0     H24392   1.910   0.045   2.573 -0.7907 -0.5816  1.0617
  177MOL0     H24393   1.906   0.112   2.730 -2.1715 -0.6453 -0.5545
  177MOL0     H24394   1.884   0.284   2.486  0.7124  1.1958  0.0220
  177MOL0     H24395   1.834   0.333   2.657 -1.4307 -0.9196  0.6579
  177MOL0     H24396   1.695   0.130   2.474 -0.4748 -0.8690  0.9858
  177MOL0     H24397   1.659   0.300   2.497  1.5798 -1.3860 -2.5315
  177MOL0     H24398   1.684   0.087   2.711  0.7142  0.4306 -0.9786
  177MOL0     H24399   1.618   0.245   2.736 -0.3113 -0.7607  0.4048
  177MOL0     H24400   1.500  -0.001   2.602 -1.8497  0.7112 -5.6998
  177MOL0     H24401   1.436   0.156   2.548 -1.1772 -4.5488 -3.4894
  177MOL0     H24402   1.411   0.197   2.804  3.7299 -0.2931 -1.1818
  177MOL0     H24403   1.458   0.028   2.835  0.9127  0.8878  0.9795
  177MOL0     H24404   1.274  -0.034   2.657 -1.4750  1.1220 -1.9664
  177MOL0     H24405   1.206   0.115   2.685 -1.6422 -0.9225 -1.4899
  177MOL0     H24406   2.225   0.094   2.270 -0.8898  0.6089  0.4041
  177MOL0     H24407   2.439   0.161   2.161 -0.7303  1.8341 -1.2810
  177MOL0     H24408   2.728   0.364   2.052 -1.0629  0.0322  2.9229
  177MOL0     H24409   2.909   0.425   1.910 -2.1800  1.9210  0.6646
  177MOL0     H24410   4.085   0.711   1.130  2.7827  1.8335 -1.0035
  177MOL0     H24411   4.116   0.667   0.891  1.1496 -0.6789 -0.6576
  177MOL0     H24412   4.288   0.535   0.555  0.9934  1.6148 -1.1573
  177MOL0     H24413   4.275   0.573   0.310 -0.0163 -1.1494 -2.1626
  177MOL0     H24414   3.879   0.577   0.103 -1.1422  1.2210 -2.8042
  177MOL0     H24415   3.977   0.712   0.163 -2.0321  1.7514 -1.4346
  177MOL0     H24416   4.102   0.707  -0.045  0.4046 -0.6235 -2.1860
  177MOL0     H24417   3.933   0.717  -0.095  1.0636  0.6435 -3.0488
  177MOL0     H24418   4.087   0.451  -0.079  0.1578  1.7193  1.8916
  177MOL0     H24419   3.935   0.472  -0.143  0.8995 -1.4874 -0.2110
  177MOL0     H24420   3.997   0.527  -0.357  0.4655  3.0458 -0.9312
  177MOL0     H24421   4.129   0.445  -0.302 -2.3155 -2.1245  1.8125
  177MOL0     H24422   4.295   0.833  -0.352  0.8839 -0.4580  3.1458
  177MOL0     H24423   3.891   0.396   0.291  0.8650 -1.1407 -0.3295
  177MOL0     H24424   3.897   0.248   0.609 -1.8664  0.9197 -1.0660
  177MOL0     H24425   3.815   0.400   0.598  2.4205  0.5036  2.5615
  177MOL0     H24426   3.802   0.283   0.459  0.7246  1.8361 -2.9624
  178MOL0     O24427   1.434   1.853   6.759  0.2913  0.1082 -0.2073
  178MOL0     C24428   1.428   1.728   6.722  0.4430 -0.0864  0.3254
  178MOL0     O24429   1.347   1.683   6.623  0.1421  0.1538 -0.2910
  178MOL0     C24430   1.288   1.765   6.532 -0.3361  0.8931  0.5868
  178MOL0     C24431   1.272   1.704   6.407 -0.0581 -0.1340 -0.9184
  178MOL0     C24432   1.200   1.776   6.311 -0.2588  0.0331  0.1279
  178MOL0     C24433   1.148   1.904   6.333 -0.2078  0.8345 -0.1264
  178MOL0     O24434   1.098   1.955   6.222  0.0376  0.5077  1.3259
  178MOL0     C24435   1.112   2.090   6.204  0.7956  0.7255  0.2202
  178MOL0     C24436   1.109   2.122   6.045  0.2476 -0.6204 -0.4846
  178MOL0     C24437   1.125   2.271   6.011  0.6036 -0.3946 -0.7114
  178MOL0     C24438   0.996   2.354   6.030 -0.8302 -0.1271 -0.7436
  178MOL0     C24439   1.020   2.499   5.982 -0.4215  0.1146 -0.9878
  178MOL0     C24440   0.887   2.567   6.000 -0.5546  0.7003  0.6581
  178MOL0     C24441   0.902   2.714   5.964 -0.0151 -0.0951  0.3996
  178MOL0     C24442   0.792   2.803   6.025  0.6179  0.1672 -0.8168
  178MOL0     N24443   0.647   2.766   5.979  0.4456 -0.5261  0.2464
  178MOL0     C24444   0.533   2.784   6.054 -0.5613 -0.0130  0.1291
  178MOL0     C24445   0.431   2.763   5.971  0.4073  0.1211  0.2598
  178MOL0     C24446   0.293   2.753   6.012  0.2360  0.1859 -0.2167
  178MOL0     C24447   0.258   2.900   6.046 -0.4974 -0.2808  0.1734
  178MOL0     C24448   0.109   2.897   6.086  0.7376  0.6936  0.4211
  178MOL0     C24449   0.055   3.039   6.130 -0.4626  0.3738 -0.3991
  178MOL0     O24450   0.112   3.073   6.261  0.1737  0.4608 -0.1310
  178MOL0     C24451   0.085   3.191   6.318  0.0354  0.5244 -0.2240
  178MOL0     C24452  -0.008   3.279   6.282 -0.6220 -1.0529  0.6354
  178MOL0     C24453  -0.034   3.393   6.367 -0.5419 -0.8556  0.4656
  178MOL0     C24454  -0.141   3.485   6.307  0.4127 -0.8203 -0.0546
  178MOL0     C24455   0.053   3.420   6.476 -0.6456  0.0502  0.7823
  178MOL0     C24456   0.047   3.542   6.549  0.5151  1.0490  0.6715
  178MOL0     O24457   0.130   3.559   6.657 -0.1428  0.6403  0.1120
  178MOL0     C24458   0.179   3.677   6.705  0.9473  0.8086 -0.3598
  178MOL0     C24459   0.204   3.785   6.621 -0.3323  0.1021  0.4374
  178MOL0     C24460   0.246   3.913   6.677 -0.0770  0.6426  0.2422
  178MOL0     C24461   0.257   3.927   6.817 -0.7681 -0.0260 -0.1333
  178MOL0     O24462   0.296   4.043   6.881  0.3044 -0.5457  0.1906
  178MOL0     C24463   0.402   4.120   6.816  0.3456 -0.5607 -0.0250
  178MOL0     C24464   0.361   4.262   6.805  0.8562 -0.0503 -0.2513
  178MOL0     C24465   0.210   4.278   6.758  0.2426 -0.6298 -0.8642
  178MOL0     C24466   0.185   4.426   6.731 -0.1306  0.2408  0.5446
  178MOL0     C24467   0.060   4.467   6.653 -0.3961  0.0578  0.5364
  178MOL0     C24468   0.036   4.619   6.667 -0.6399  0.1938  0.4895
  178MOL0     C24469  -0.089   4.654   6.611 -0.1914  0.0213 -0.0155
  178MOL0     C24470  -0.085   4.709   6.465  0.2427  0.0758 -0.3404
  178MOL0    Cl24471  -0.254   4.746   6.408 -0.0084 -0.0970 -0.4568
  178MOL0     C24472   0.248   3.805   6.895 -0.0936 -0.3473  0.6906
  178MOL0     C24473   0.220   3.681   6.833 -0.2080 -0.2722  0.5672
  178MOL0     O24474  -0.036   3.629   6.519  0.5047 -0.0944  0.7666
  178MOL0     C24475   0.148   3.320   6.504  0.1469 -0.4777 -0.1810
  178MOL0     C24476   0.168   3.208   6.425  0.0490 -0.2307  0.0915
  178MOL0     N24477   0.490   2.717   5.852  0.4075  0.1336 -0.4945
  178MOL0     N24478   0.618   2.716   5.863 -0.5882  0.4718 -0.2672
  178MOL0     C24479   1.171   1.967   6.451 -0.7846  0.1990  0.4657
  178MOL0     C24480   1.253   1.907   6.545  0.2765  1.0041 -0.0940
  178MOL0     C24481   1.502   1.618   6.799 -0.2204 -0.2976  0.3585
  178MOL0     C24482   1.558   1.511   6.728 -0.7995  0.2189  0.4174
  178MOL0     C24483   1.622   1.414   6.805 -0.0937  0.8607  1.0880
  178MOL0     C24484   1.628   1.417   6.941  0.1973 -0.7053 -1.0773
  178MOL0     O24485   1.716   1.331   7.001  0.0706  0.9632 -0.0195
  178MOL0     C24486   1.766   1.342   7.137 -0.5075 -0.8588  0.7911
  178MOL0     C24487   1.894   1.422   7.142  0.2682 -0.3383  1.0542
  178MOL0     C24488   1.997   1.359   7.039 -0.1454 -1.3008 -0.2426
  178MOL0     C24489   2.124   1.446   7.017 -0.3560  0.2538  0.2187
  178MOL0     C24490   2.172   1.438   6.878  0.3885 -0.2637 -0.1669
  178MOL0     C24491   2.199   1.436   6.761 -0.1285  0.7949 -0.9008
  178MOL0     C24492   1.569   1.524   7.008  1.1446  0.4966 -0.0274
  178MOL0     C24493   1.514   1.630   6.934 -0.0963 -0.1913 -0.4026
  178MOL0     C24494   1.428   1.728   7.023 -1.0352 -0.3617  0.2202
  178MOL0     H24495   1.305   1.602   6.385 -1.9611 -0.7762 -0.9464
  178MOL0     H24496   1.183   1.734   6.213  1.3893  1.3122 -0.7520
  178MOL0     H24497   1.204   2.130   6.248 -0.1129 -0.0409  2.9805
  178MOL0     H24498   1.023   2.140   6.242 -0.9878 -0.8129 -1.6657
  178MOL0     H24499   1.195   2.073   5.998 -0.7119 -1.7649 -1.1360
  178MOL0     H24500   1.009   2.091   6.013 -2.2172  0.6700  4.8427
  178MOL0     H24501   1.190   2.311   6.090 -1.3182 -0.8793  1.2043
  178MOL0     H24502   1.174   2.290   5.915  0.3599  0.4365 -0.6717
  178MOL0     H24503   0.919   2.299   5.976  0.9111 -0.4498 -3.0606
  178MOL0     H24504   0.964   2.368   6.134 -0.0202 -1.7598 -0.2300
  178MOL0     H24505   1.062   2.498   5.881 -0.4559  1.7003 -1.0436
  178MOL0     H24506   1.098   2.548   6.041 -2.1902  2.2957 -0.2972
  178MOL0     H24507   0.818   2.520   5.929 -0.1916  0.4962  0.4387
  178MOL0     H24508   0.844   2.557   6.100 -1.0009  1.6363  0.5672
  178MOL0     H24509   0.906   2.719   5.855 -0.8821 -0.8063  0.3260
  178MOL0     H24510   0.999   2.753   5.999  0.0100 -0.6368  0.9596
  178MOL0     H24511   0.789   2.796   6.134 -1.0816 -6.6529 -0.8245
  178MOL0     H24512   0.795   2.905   5.987 -0.5461  0.7032  0.4356
  178MOL0     H24513   0.527   2.820   6.156 -0.5380  3.1975 -0.8872
  178MOL0     H24514   0.287   2.695   6.105 -1.6821  1.2032  0.3448
  178MOL0     H24515   0.226   2.711   5.936  0.5149  1.7669 -1.3826
  178MOL0     H24516   0.322   2.942   6.123  2.8063 -1.9997 -1.4412
  178MOL0     H24517   0.258   2.964   5.957  3.2819  1.2620  1.1190
  178MOL0     H24518   0.051   2.870   5.997  0.3166  1.9695  0.2841
  178MOL0     H24519   0.113   2.821   6.164  0.4390  1.0002  0.7337
  178MOL0     H24520   0.086   3.119   6.062  1.4220  0.6851  0.7403
  178MOL0     H24521  -0.054   3.038   6.124 -0.5757 -2.8068  0.1910
  178MOL0     H24522  -0.076   3.264   6.198 -2.0492 -2.9776  2.0309
  178MOL0     H24523  -0.240   3.489   6.353 -1.6307 -2.5302 -3.9010
  178MOL0     H24524  -0.181   3.458   6.209  0.7674  0.7985 -0.6824
  178MOL0     H24525  -0.092   3.581   6.288  0.5790 -1.0387 -0.7552
  178MOL0     H24526   0.171   3.761   6.521  1.4410 -6.0790  0.9197
  178MOL0     H24527   0.255   3.988   6.600 -0.7100  1.2380  0.7324
  178MOL0     H24528   0.497   4.115   6.870 -0.5313  1.3889  1.8622
  178MOL0     H24529   0.428   4.077   6.719  1.6719 -0.9142  0.4566
  178MOL0     H24530   0.354   4.290   6.910 -2.7836 -2.8001  0.4312
  178MOL0     H24531   0.435   4.314   6.743  2.2406 -1.4015  0.2073
  178MOL0     H24532   0.142   4.241   6.835 -0.7521  0.5855 -1.1196
  178MOL0     H24533   0.200   4.223   6.663  1.8458 -1.5269 -0.5563
  178MOL0     H24534   0.274   4.460   6.677  0.1393 -0.6236  0.4211
  178MOL0     H24535   0.182   4.479   6.827  2.1540  3.0124 -0.7562
  178MOL0     H24536   0.073   4.438   6.549 -0.5715 -1.2743  0.8668
  178MOL0     H24537  -0.028   4.417   6.696 -0.9343  0.5337  0.0078
  178MOL0     H24538   0.124   4.670   6.628 -0.6105 -0.5216 -0.4204
  178MOL0     H24539   0.045   4.650   6.771  0.6540  2.5309 -0.2516
  178MOL0     H24540  -0.115   4.740   6.672  2.6155 -0.7603  2.5351
  178MOL0     H24541  -0.166   4.579   6.630 -0.5725  0.4774  0.2560
  178MOL0     H24542  -0.034   4.626   6.415 -0.2675 -2.8686  3.5406
  178MOL0     H24543  -0.024   4.800   6.462  1.2179 -0.5178  0.6527
  178MOL0     H24544   0.271   3.796   7.001  1.6401 -0.5045  0.3389
  178MOL0     H24545   0.198   3.593   6.891  0.7200 -1.4698 -0.8239
  178MOL0     H24546   0.222   3.338   6.582  1.3132  0.8340 -1.5440
  178MOL0     H24547   0.245   3.137   6.454  1.4198  1.1639 -0.0138
  178MOL0     H24548   1.128   2.064   6.475 -1.4192 -0.1207  0.6304
  178MOL0     H24549   1.245   1.965   6.636 -3.5242  2.7540 -1.3393
  178MOL0     H24550   1.553   1.497   6.621  0.7632  0.2996  0.3135
  178MOL0     H24551   1.659   1.320   6.764 -1.0106  0.0181  2.1229
  178MOL0     H24552   1.683   1.375   7.200 -0.3392 -0.5888  0.8682
  178MOL0     H24553   1.785   1.241   7.177  1.9054 -1.2539 -1.1153
  178MOL0     H24554   1.946   1.438   7.237  2.1224  2.0300 -0.2545
  178MOL0     H24555   1.857   1.520   7.110 -3.5874 -2.8094 -3.4309
  178MOL0     H24556   2.021   1.261   7.079 -0.0538 -1.2126 -0.0826
  178MOL0     H24557   1.949   1.334   6.943  0.9525 -0.7296 -0.9645
  178MOL0     H24558   2.202   1.409   7.085 -1.1104 -2.0037 -0.0538
  178MOL0     H24559   2.105   1.552   7.038 -2.4144 -0.2961  1.4298
  178MOL0     H24560   2.233   1.437   6.660  1.3566 -0.4434 -0.4506
  178MOL0     H24561   1.577   1.537   7.115 -2.4066  3.0815  0.0716
  178MOL0     H24562   1.441   1.834   6.999 -1.4770 -0.7287 -1.8810
  178MOL0     H24563   1.328   1.697   6.990 -0.1616 -4.9206  1.2968
  178MOL0     H24564   1.439   1.713   7.131 -0.5718 -2.9173 -0.1400
  179MOL0     O24565  10.851  11.473  11.306 -0.0666  0.2072  0.3152
  179MOL0     C24566  10.722  11.461  11.299 -0.0018 -0.0743  0.2101
  179MOL0     O24567  10.642  11.491  11.193 -0.4012  0.1780 -0.3652
  179MOL0     C24568  10.693  11.559  11.083  0.2424 -0.0082  0.0466
  179MOL0     C24569  10.628  11.539  10.963  0.4740  0.7827 -0.3092
  179MOL0     C24570  10.664  11.610  10.850 -0.0209 -0.3714 -0.2829
  179MOL0     C24571  10.766  11.715  10.850 -0.2949 -0.2315 -0.1738
  179MOL0     O24572  10.787  11.778  10.725 -0.2837  0.2394 -0.1819
  179MOL0     C24573  10.818  11.916  10.724 -0.2388 -0.6109  0.1381
  179MOL0     C24574  10.796  11.982  10.591 -0.5131  0.1148 -0.6668
  179MOL0     C24575  10.891  11.920  10.481  0.0060  0.2654 -0.0055
  179MOL0     C24576  11.025  11.990  10.489 -0.1151  0.4939  0.5288
  179MOL0     C24577  11.072  11.978  10.347 -0.0473 -0.7851  0.6731
  179MOL0     C24578  11.203  12.054  10.330 -0.2391  1.4675 -1.2094
  179MOL0     C24579  11.198  12.207  10.345 -0.3487  0.3781 -0.1950
  179MOL0     C24580  11.113  12.282  10.226  0.0579  0.8391 -0.5679
  179MOL0     N24581  11.144  12.234  10.088  0.4806 -0.0953 -0.4402
  179MOL0     C24582  11.057  12.159  10.014 -0.0084 -0.9845 -0.0916
  179MOL0     C24583  11.130  12.132   9.907  0.3171  0.9069 -0.1349
  179MOL0     C24584  11.086  12.031   9.809  0.2039 -0.7528  0.1430
  179MOL0     C24585  11.143  11.881   9.846  0.4376  1.0120 -0.8575
  179MOL0     C24586  11.060  11.817   9.961  0.9410 -0.3208  0.4664
  179MOL0     C24587  10.954  11.719   9.917 -0.0924 -0.1354 -0.5982
  179MOL0     O24588  10.879  11.675  10.031 -0.0623 -0.1004 -0.2419
  179MOL0     C24589  10.788  11.757  10.097 -0.6620  0.5875 -0.0204
  179MOL0     C24590  10.722  11.697  10.206  0.5505 -0.9650  0.0314
  179MOL0     C24591  10.628  11.766  10.292  0.4017 -0.5043 -0.1197
  179MOL0     C24592  10.578  11.701  10.410  0.0259 -0.1373 -0.8955
  179MOL0     C24593  10.606  11.906  10.265 -0.0983 -0.7426 -0.2398
  179MOL0     C24594  10.497  12.001  10.330  0.7891  0.1990  0.4870
  179MOL0     O24595  10.460  12.111  10.260  0.5274  0.3916 -0.7754
  179MOL0     C24596  10.382  12.212  10.312  1.0942 -0.6604  0.4322
  179MOL0     C24597  10.301  12.270  10.213  0.4179  0.5542  0.0028
  179MOL0     C24598  10.225  12.383  10.249 -0.1748  0.2415 -0.5811
  179MOL0     C24599  10.232  12.438  10.383 -0.3878  0.1624  0.2432
  179MOL0     O24600  10.152  12.541  10.406  0.0426  1.1348  0.0665
  179MOL0     C24601  10.008  12.511  10.419  0.9544  0.5744 -0.8314
  179MOL0     C24602   9.964  12.460  10.562  0.1780 -0.4080  0.0420
  179MOL0     C24603   9.817  12.491  10.595 -0.3011 -0.0034 -0.5539
  179MOL0     C24604   9.726  12.519  10.472  0.8880  1.0790  0.5738
  179MOL0     C24605   9.573  12.513  10.508 -0.5196 -1.4863 -0.4360
  179MOL0     C24606   9.475  12.555  10.392 -0.4527  0.1699  0.0174
  179MOL0     C24607   9.330  12.525  10.425  0.7498  0.1481 -0.0606
  179MOL0     C24608   9.299  12.379  10.382 -0.7047  0.0616 -0.1699
  179MOL0    Cl24609   9.160  12.320  10.469 -0.5730  0.1136 -0.0769
  179MOL0     C24610  10.309  12.373  10.482 -0.3740 -0.2541  0.1385
  179MOL0     C24611  10.384  12.260  10.443 -0.0302 -0.5422 -0.4941
  179MOL0     O24612  10.436  11.959  10.429 -0.6443 -0.3945 -0.0200
  179MOL0     C24613  10.670  11.963  10.154  0.1047  0.1304 -0.1981
  179MOL0     C24614  10.750  11.891  10.071  0.2984  0.4772  0.1328
  179MOL0     N24615  11.255  12.180   9.913 -0.6281 -0.7355 -0.3286
  179MOL0     N24616  11.264  12.243  10.025  0.4421  0.5859  0.7972
  179MOL0     C24617  10.823  11.749  10.980  0.5874 -0.2812  0.3552
  179MOL0     C24618  10.782  11.668  11.093  0.5167 -1.0412 -0.5675
  179MOL0     C24619  10.640  11.444  11.422 -0.1127  0.2098  0.8809
  179MOL0     C24620  10.525  11.518  11.428  0.4012 -0.6172  0.3734
  179MOL0     C24621  10.445  11.505  11.538 -0.1000 -0.7573 -0.8579
  179MOL0     C24622  10.474  11.420  11.645 -0.0319 -0.9782  0.0597
  179MOL0     O24623  10.384  11.436  11.750 -0.5392  0.1597  0.3067
  179MOL0     C24624  10.416  11.378  11.881 -0.1346 -0.3685  0.1086
  179MOL0     C24625  10.376  11.228  11.892  0.4162 -0.4304  0.2321
  179MOL0     C24626  10.447  11.148  11.998 -0.2669  0.0233 -0.3210
  179MOL0     C24627  10.391  11.005  12.030  0.4697  0.2132 -0.2899
  179MOL0     C24628  10.245  10.987  12.067 -0.7561 -0.1023 -0.0502
  179MOL0     C24629  10.130  10.967  12.098 -0.4608  0.2328  0.0239
  179MOL0     C24630  10.589  11.352  11.638 -0.8999  0.2779 -1.8413
  179MOL0     C24631  10.667  11.348  11.521 -0.0444 -0.4969 -0.7743
  179MOL0     C24632  10.780  11.243  11.501  0.3668  0.2534  0.1224
  179MOL0     H24633  10.560  11.456  10.946  3.1463 -1.4971 -0.6123
  179MOL0     H24634  10.634  11.576  10.751 -0.4361 -0.3140 -0.1770
  179MOL0     H24635  10.915  11.935  10.769 -1.5035  0.0031  2.7751
  179MOL0     H24636  10.746  11.956  10.796 -0.7870 -2.0772  0.4378
  179MOL0     H24637  10.692  11.960  10.566 -0.9475  0.4035  0.8126
  179MOL0     H24638  10.800  12.091  10.599 -0.1568 -0.0138  1.4595
  179MOL0     H24639  10.907  11.813  10.494 -1.6713 -0.3235 -2.2993
  179MOL0     H24640  10.842  11.925  10.383  2.7357  2.5287 -1.4133
  179MOL0     H24641  11.013  12.093  10.526  1.0032 -0.0122  2.4528
  179MOL0     H24642  11.097  11.939  10.553 -1.5253  2.4307  3.9385
  179MOL0     H24643  11.012  12.019  10.266  1.1886 -1.1556 -0.4663
  179MOL0     H24644  11.086  11.874  10.315  1.0008 -0.8445  1.2410
  179MOL0     H24645  11.270  12.008  10.404 -0.5178 -1.0914 -2.4694
  179MOL0     H24646  11.256  12.021  10.240  2.4156  0.8814  0.4357
  179MOL0     H24647  11.302  12.241  10.348 -0.8083  1.8276  1.3014
  179MOL0     H24648  11.154  12.239  10.440 -2.2691 -1.3754 -0.4328
  179MOL0     H24649  11.004  12.274  10.229 -0.4253  3.8172 -3.5123
  179MOL0     H24650  11.141  12.387  10.239  3.2727 -0.0165  0.3165
  179MOL0     H24651  10.963  12.112  10.041 -1.2012 -0.4860 -3.0763
  179MOL0     H24652  11.118  12.067   9.711  1.0618 -1.2124  0.2471
  179MOL0     H24653  10.976  12.025   9.809  0.1080  0.7295  0.1927
  179MOL0     H24654  11.132  11.811   9.763 -0.2085 -0.3449  0.3217
  179MOL0     H24655  11.249  11.883   9.874  1.0719  1.1592 -3.0797
  179MOL0     H24656  11.129  11.765  10.028  3.5021  0.0933 -1.6476
  179MOL0     H24657  11.021  11.900  10.020 -1.3591 -0.8111 -0.2925
  179MOL0     H24658  10.887  11.760   9.841  1.2511  0.8917 -1.2863
  179MOL0     H24659  10.997  11.627   9.878  2.3562  1.3266 -1.6511
  179MOL0     H24660  10.761  11.597  10.221 -0.1793 -1.1180  0.9920
  179MOL0     H24661  10.605  11.767  10.493 -4.1143 -0.0428  0.6207
  179MOL0     H24662  10.605  11.595  10.418 -2.1390 -0.6310  0.8692
  179MOL0     H24663  10.469  11.702  10.420  0.2200  0.8650  4.6575
  179MOL0     H24664  10.311  12.234  10.111 -2.0401  1.4179 -0.5989
  179MOL0     H24665  10.168  12.439  10.175 -1.3152  1.2483  1.0083
  179MOL0     H24666   9.953  12.603  10.396 -0.8038 -0.0139  0.8082
  179MOL0     H24667   9.991  12.431  10.347 -0.5523  0.7897 -0.7441
  179MOL0     H24668   9.990  12.356  10.586  1.7090  0.1259  0.8474
  179MOL0     H24669  10.020  12.522  10.632  2.5069 -1.8184 -0.4593
  179MOL0     H24670   9.813  12.577  10.662  0.1763 -1.0548  0.8739
  179MOL0     H24671   9.772  12.403  10.642 -2.0347  1.5630  0.8445
  179MOL0     H24672   9.746  12.438  10.402  0.1460  1.1978  0.2124
  179MOL0     H24673   9.747  12.614  10.421  2.1685  0.7007  0.3594
  179MOL0     H24674   9.569  12.412  10.550  1.3484 -0.8482  1.4626
  179MOL0     H24675   9.554  12.576  10.596  1.8359 -0.9468 -0.2436
  179MOL0     H24676   9.502  12.512  10.295 -0.0253  3.3489 -1.4206
  179MOL0     H24677   9.485  12.664  10.380  2.0364 -0.0239 -0.0647
  179MOL0     H24678   9.272  12.598  10.368  0.4201  0.5021  0.7188
  179MOL0     H24679   9.299  12.553  10.526 -1.4492  3.8707 -1.5443
  179MOL0     H24680   9.383  12.312  10.403  1.3003  1.5973 -2.7170
  179MOL0     H24681   9.276  12.372  10.276 -0.6796 -0.9884 -0.1130
  179MOL0     H24682  10.319  12.406  10.585  2.6972 -3.1699  0.9797
  179MOL0     H24683  10.440  12.200  10.514  1.7356 -0.5180 -1.7964
  179MOL0     H24684  10.659  12.066  10.122  0.6048 -0.5381 -2.8115
  179MOL0     H24685  10.785  11.926   9.974  2.0974 -2.3557 -0.3566
  179MOL0     H24686  10.894  11.829  10.998 -0.3860  0.4576  0.9866
  179MOL0     H24687  10.833  11.684  11.187  1.7586 -2.0359 -1.0425
  179MOL0     H24688  10.495  11.585  11.348  0.6969 -1.5588 -0.5423
  179MOL0     H24689  10.360  11.571  11.547 -0.4275 -1.1680 -0.9244
  179MOL0     H24690  10.525  11.384  11.890  0.0148 -1.0071 -1.1007
  179MOL0     H24691  10.364  11.437  11.958  0.5423  1.7658 -0.9994
  179MOL0     H24692  10.394  11.182  11.795  1.8102  1.1585 -0.3054
  179MOL0     H24693  10.270  11.224  11.919  0.8630 -0.0076  2.2211
  179MOL0     H24694  10.554  11.149  11.974  0.3462  3.0567  1.9052
  179MOL0     H24695  10.446  11.205  12.091 -1.4286 -0.8837  0.2469
  179MOL0     H24696  10.449  10.970  12.115 -0.2695  1.2463  0.6734
  179MOL0     H24697  10.415  10.941  11.945  1.2510 -0.9259  0.7530
  179MOL0     H24698  10.028  10.972  12.132 -0.6659  0.3095 -0.5873
  179MOL0     H24699  10.632  11.276  11.702 -3.3743 -0.7340 -1.2636
  179MOL0     H24700  10.759  11.178  11.416  0.7636  0.3058 -0.0199
  179MOL0     H24701  10.883  11.280  11.489  1.2604 -2.2125 -0.3731
  179MOL0     H24702  10.792  11.173  11.584 -3.6647 -3.3518 -1.9761
  180MOL0     O24703  10.909  10.600   3.394  0.3577  0.1166 -0.3613
  180MOL0     C24704  10.795  10.565   3.425 -0.2049 -0.1013  0.3235
  180MOL0     O24705  10.726  10.577   3.539  0.2039  0.6644  0.7682
  180MOL0     C24706  10.770  10.647   3.649  0.2224  0.1213 -0.2935
  180MOL0     C24707  10.829  10.770   3.637 -0.8923 -1.1815  0.1581
  180MOL0     C24708  10.839  10.867   3.738 -0.0287 -0.3083 -1.0829
  180MOL0     C24709  10.779  10.846   3.861 -0.0390  0.2658  0.8321
  180MOL0     O24710  10.784  10.946   3.955 -0.8984  0.0783 -0.0611
  180MOL0     C24711  10.768  10.908   4.095  0.5969  0.0683 -0.0818
  180MOL0     C24712  10.773  11.033   4.186 -0.3322  0.5840 -0.0776
  180MOL0     C24713  10.711  11.159   4.140  0.5556 -0.0010 -0.5091
  180MOL0     C24714  10.558  11.149   4.136  0.0896 -0.4895  0.3404
  180MOL0     C24715  10.493  11.286   4.129  0.6369  0.1029  0.1263
  180MOL0     C24716  10.343  11.288   4.097 -0.1001 -0.6617  0.6575
  180MOL0     C24717  10.240  11.200   4.169 -0.8376  0.6022 -0.4711
  180MOL0     C24718  10.219  11.229   4.320  0.3278  0.3826  0.1885
  180MOL0     N24719  10.211  11.372   4.349 -0.2983  0.0629 -0.3561
  180MOL0     C24720  10.304  11.476   4.346 -0.2711 -0.5021  0.9938
  180MOL0     C24721  10.243  11.582   4.397 -0.5197 -0.3274 -0.0022
  180MOL0     C24722  10.313  11.716   4.418 -0.1689  0.5664 -1.0151
  180MOL0     C24723  10.447  11.712   4.475 -1.0567 -1.0418 -0.4417
  180MOL0     C24724  10.488  11.852   4.523 -0.1154  0.5189 -0.9001
  180MOL0     C24725  10.623  11.854   4.601  0.2110  0.0786  0.2117
  180MOL0     O24726  10.656  11.987   4.638 -0.4599 -0.3324 -0.4038
  180MOL0     C24727  10.759  11.995   4.726  0.3256 -0.3192  0.4531
  180MOL0     C24728  10.758  12.109   4.824  0.5133  0.8983  0.1411
  180MOL0     C24729  10.863  12.124   4.917  0.0179 -0.6841  0.0168
  180MOL0     C24730  10.861  12.258   4.992  0.1724 -0.3602  0.4085
  180MOL0     C24731  10.963  12.027   4.926 -0.7489 -0.8393  0.5748
  180MOL0     C24732  11.077  12.056   5.023 -0.3022  0.4068  0.3118
  180MOL0     O24733  11.068  12.130   5.139 -0.4308  0.3303 -0.2165
  180MOL0     C24734  11.159  12.113   5.239  0.1646  0.4367 -0.1768
  180MOL0     C24735  11.183  12.226   5.325 -0.2662  0.9601  0.7716
  180MOL0     C24736  11.288  12.221   5.425 -0.6468 -0.1493 -0.7407
  180MOL0     C24737  11.369  12.107   5.445 -0.4163 -0.3434  0.0806
  180MOL0     O24738  11.468  12.097   5.548 -0.4759 -0.5669  0.2477
  180MOL0     C24739  11.453  12.180   5.664 -0.6241  0.5891 -0.5048
  180MOL0     C24740  11.549  12.302   5.660  1.2049  0.5286 -0.0416
  180MOL0     C24741  11.694  12.261   5.703  1.3520  0.0365  0.3834
  180MOL0     C24742  11.796  12.377   5.690 -0.5308 -1.0696 -0.3680
  180MOL0     C24743  11.939  12.352   5.755 -0.3462  0.2381  0.1458
  180MOL0     C24744  11.937  12.287   5.893 -0.3801 -0.6460 -0.4874
  180MOL0     C24745  12.080  12.298   5.963  0.2249 -0.5878 -0.9109
  180MOL0     C24746  12.101  12.232   6.102 -0.5589 -0.0830  0.3189
  180MOL0    Cl24747  12.069  12.056   6.111  0.5077 -0.2851 -0.4324
  180MOL0     C24748  11.347  12.001   5.366  0.1665  0.6695 -0.1570
  180MOL0     C24749  11.241  12.001   5.273  0.1723 -0.0217  0.2911
  180MOL0     O24750  11.179  12.006   4.986 -0.0537  0.8605 -0.2676
  180MOL0     C24751  10.962  11.917   4.838 -0.0525 -0.1611  0.2513
  180MOL0     C24752  10.870  11.909   4.732  0.5595 -0.1760 -0.3153
  180MOL0     N24753  10.112  11.544   4.422 -0.0702  0.5266 -0.5662
  180MOL0     N24754  10.086  11.424   4.389 -0.9006 -0.0633 -0.2207
  180MOL0     C24755  10.714  10.726   3.878  0.2367  0.0044 -0.1874
  180MOL0     C24756  10.714  10.632   3.773  0.3551  0.9582 -1.1441
  180MOL0     C24757  10.720  10.485   3.327 -1.1299  0.2195 -0.2109
  180MOL0     C24758  10.591  10.431   3.359  0.0169 -0.0867 -0.2662
  180MOL0     C24759  10.524  10.344   3.269 -0.7117 -0.2449  0.7468
  180MOL0     C24760  10.588  10.301   3.151  0.8831 -0.0920  0.7683
  180MOL0     O24761  10.523  10.207   3.078 -0.5348  0.0136 -0.6630
  180MOL0     C24762  10.513  10.230   2.937  0.1105  0.3299 -0.1415
  180MOL0     C24763  10.606  10.143   2.867 -0.2873  0.3337 -1.0534
  180MOL0     C24764  10.635  10.205   2.734 -0.5463  0.3694 -0.2167
  180MOL0     C24765  10.711  10.112   2.650 -0.0674  0.6431 -1.5639
  180MOL0     C24766  10.786  10.179   2.543 -0.6446  0.6018  0.4940
  180MOL0     C24767  10.840  10.243   2.456  0.7343 -1.3687  0.7344
  180MOL0     C24768  10.711  10.364   3.105  0.4645 -0.3133  0.2827
  180MOL0     C24769  10.767  10.463   3.188 -0.3030  0.8783  0.0395
  180MOL0     C24770  10.876  10.548   3.124  0.1885  1.3469 -0.5231
  180MOL0     H24771  10.862  10.796   3.538 -1.0983 -0.2264  0.3313
  180MOL0     H24772  10.874  10.969   3.727 -2.1211  0.7572  1.1871
  180MOL0     H24773  10.847  10.836   4.119 -1.9259 -3.7179 -1.9233
  180MOL0     H24774  10.669  10.863   4.107  0.4220  0.5537  0.3230
  180MOL0     H24775  10.743  11.003   4.287 -0.0550  0.0682 -0.1454
  180MOL0     H24776  10.879  11.063   4.182 -0.0559 -0.4638 -4.0271
  180MOL0     H24777  10.739  11.235   4.212  1.0971  1.6432 -2.3732
  180MOL0     H24778  10.732  11.182   4.035  0.1954  3.8610  0.1319
  180MOL0     H24779  10.528  11.078   4.059  2.8031 -0.6535 -0.6695
  180MOL0     H24780  10.541  11.104   4.234  2.8385 -2.2157  0.1324
  180MOL0     H24781  10.556  11.346   4.062  0.9118 -1.7613 -1.3624
  180MOL0     H24782  10.507  11.337   4.225  0.0311  1.0606 -0.2802
  180MOL0     H24783  10.304  11.390   4.101  2.7678  0.4754  2.8158
  180MOL0     H24784  10.346  11.252   3.993 -1.6962  2.0662 -0.4300
  180MOL0     H24785  10.264  11.094   4.166 -0.2276  0.7600 -1.5496
  180MOL0     H24786  10.143  11.214   4.121 -0.8617 -0.5710 -0.7931
  180MOL0     H24787  10.126  11.178   4.346 -0.2347  1.2880  0.0080
  180MOL0     H24788  10.307  11.191   4.373  0.1140 -5.0998 -2.6845
  180MOL0     H24789  10.401  11.484   4.298  1.9443  0.4362  5.1505
  180MOL0     H24790  10.249  11.788   4.469  2.2403  1.9332  0.2765
  180MOL0     H24791  10.336  11.746   4.315  0.9022  2.6297 -0.2245
  180MOL0     H24792  10.430  11.642   4.558 -2.3787 -1.9071 -1.3994
  180MOL0     H24793  10.524  11.682   4.403  0.6399  2.3896 -0.2381
  180MOL0     H24794  10.502  11.915   4.435 -0.5288  2.8981  0.6321
  180MOL0     H24795  10.414  11.890   4.595  2.0853 -0.8229  2.3063
  180MOL0     H24796  10.590  11.809   4.696 -1.5914  2.5289  0.8400
  180MOL0     H24797  10.695  11.793   4.546  0.1695 -1.9775  2.2762
  180MOL0     H24798  10.690  12.192   4.808  2.0799  2.1337 -0.2760
  180MOL0     H24799  10.856  12.238   5.100  4.3166 -0.3068  0.7590
  180MOL0     H24800  10.780  12.322   4.957  2.4025  1.0464 -2.5629
  180MOL0     H24801  10.956  12.310   4.977  1.6726 -2.1822  2.8619
  180MOL0     H24802  11.125  12.316   5.307 -1.4336 -0.0169 -0.6076
  180MOL0     H24803  11.329  12.304   5.482  1.6368 -1.1504 -0.8167
  180MOL0     H24804  11.347  12.201   5.682 -1.5280 -2.7718 -1.1471
  180MOL0     H24805  11.478  12.137   5.762 -0.2123  1.8144 -0.0574
  180MOL0     H24806  11.549  12.349   5.561  1.5441  0.9122  0.1319
  180MOL0     H24807  11.526  12.389   5.723  3.2109  2.1620 -1.4116
  180MOL0     H24808  11.730  12.175   5.646  0.7451  0.1395 -0.1652
  180MOL0     H24809  11.675  12.229   5.806  2.7516  0.9922  0.9552
  180MOL0     H24810  11.748  12.466   5.734  0.3746  0.2860 -1.9837
  180MOL0     H24811  11.821  12.398   5.585 -0.1387  0.3970 -0.0121
  180MOL0     H24812  11.999  12.287   5.690 -0.5859 -0.2929  0.4494
  180MOL0     H24813  11.987  12.449   5.771 -1.1272  0.6821 -0.1789
  180MOL0     H24814  11.911  12.181   5.891 -1.6470 -0.7951  5.6222
  180MOL0     H24815  11.859  12.337   5.950 -0.5262 -1.0038 -0.3713
  180MOL0     H24816  12.116  12.400   5.976 -1.8683  0.1205 -0.2407
  180MOL0     H24817  12.143  12.238   5.897 -1.2337 -3.2831 -0.0124
  180MOL0     H24818  12.038  12.270   6.182 -0.8126  1.5305 -0.5986
  180MOL0     H24819  12.206  12.250   6.126 -0.0052 -0.9814 -1.2252
  180MOL0     H24820  11.414  11.917   5.384  0.5520  0.7388 -1.1793
  180MOL0     H24821  11.226  11.911   5.214 -1.3092 -0.1093  0.7575
  180MOL0     H24822  11.053  11.859   4.852 -0.7360 -2.0861 -2.5064
  180MOL0     H24823  10.888  11.838   4.652 -1.3401  0.4159 -1.3502
  180MOL0     H24824  10.667  10.693   3.970  2.1583 -2.7717 -0.0689
  180MOL0     H24825  10.653  10.543   3.785 -0.1864  1.3691 -0.7502
  180MOL0     H24826  10.541  10.462   3.450 -1.4423 -0.5671 -0.8781
  180MOL0     H24827  10.429  10.299   3.297 -0.6852 -1.2014 -0.5829
  180MOL0     H24828  10.408  10.216   2.908  0.4222 -1.8035 -0.4054
  180MOL0     H24829  10.533  10.335   2.917  0.6759  0.2576  0.0232
  180MOL0     H24830  10.553  10.049   2.851  0.6005 -0.2039 -0.8780
  180MOL0     H24831  10.694  10.123   2.929 -1.9102 -1.0771  0.9093
  180MOL0     H24832  10.546  10.230   2.675 -0.6327 -2.0412 -1.1846
  180MOL0     H24833  10.680  10.304   2.745 -0.3631  0.7696 -3.5590
  180MOL0     H24834  10.635  10.040   2.617  0.6733 -1.1489  0.3981
  180MOL0     H24835  10.781  10.051   2.708 -1.5929  1.1200  0.9603
  180MOL0     H24836  10.882  10.306   2.380 -0.8834 -1.8625 -0.6150
  180MOL0     H24837  10.762  10.338   3.013  3.7923 -0.5935  2.0533
  180MOL0     H24838  10.882  10.534   3.015  0.2522 -0.7604 -0.2831
  180MOL0     H24839  10.869  10.653   3.154 -0.0024  1.7852 -2.0174
  180MOL0     H24840  10.974  10.517   3.159 -1.7496 -2.4074  2.3244
  181MOL0     O24841   5.080   4.778   4.337 -0.0278 -0.2351 -0.0921
  181MOL0     C24842   5.071   4.894   4.293 -0.1824  0.1680  0.1125
  181MOL0     O24843   4.977   4.932   4.206 -0.8416  0.8351  0.1267
  181MOL0     C24844   4.914   4.836   4.124 -0.2839 -0.2961  0.6402
  181MOL0     C24845   4.774   4.839   4.106  0.9650 -0.7373  0.9691
  181MOL0     C24846   4.705   4.759   4.010  0.2354  0.4318  0.4548
  181MOL0     C24847   4.781   4.664   3.938  0.0032  0.0729 -0.1168
  181MOL0     O24848   4.720   4.581   3.848 -0.2762 -0.3389 -0.8246
  181MOL0     C24849   4.768   4.600   3.714  0.5041  0.3411  0.1887
  181MOL0     C24850   4.668   4.527   3.630 -0.1577  0.2781  0.7380
  181MOL0     C24851   4.705   4.547   3.489 -0.8298  0.2455 -0.2378
  181MOL0     C24852   4.626   4.451   3.396 -0.5310 -0.8467 -1.2505
  181MOL0     C24853   4.624   4.497   3.255  0.0339  0.3170  0.4890
  181MOL0     C24854   4.770   4.511   3.194  0.6836 -0.5466  0.7343
  181MOL0     C24855   4.762   4.563   3.046 -0.4325 -0.1559  0.8830
  181MOL0     C24856   4.891   4.540   2.966  1.3530  0.4761  0.2568
  181MOL0     N24857   4.897   4.578   2.829 -0.2646  0.7227  0.3717
  181MOL0     C24858   4.942   4.696   2.781  0.0404  0.6386 -0.4422
  181MOL0     C24859   4.936   4.686   2.650  0.3295  0.2016  0.7347
  181MOL0     C24860   4.965   4.798   2.548 -0.5544  0.3511  0.4602
  181MOL0     C24861   4.828   4.840   2.482  0.4735 -0.6462 -0.2357
  181MOL0     C24862   4.760   4.952   2.570  0.2860  0.2598  0.5230
  181MOL0     C24863   4.683   4.902   2.692  0.0273  0.0379  0.2290
  181MOL0     O24864   4.764   4.906   2.812  0.0722 -0.3022 -0.3233
  181MOL0     C24865   4.703   4.925   2.933 -0.0679 -1.0442  0.0684
  181MOL0     C24866   4.572   4.885   2.964  0.0751  0.6327  0.5063
  181MOL0     C24867   4.520   4.901   3.094  0.4651 -1.3777  0.3919
  181MOL0     C24868   4.384   4.842   3.117 -0.5577  0.2942 -0.3075
  181MOL0     C24869   4.602   4.953   3.190  0.2442 -0.0017  0.3999
  181MOL0     C24870   4.561   4.947   3.333  0.4129  0.4011 -0.0679
  181MOL0     O24871   4.652   4.896   3.425 -0.3626  0.5600  0.6035
  181MOL0     C24872   4.616   4.904   3.559  0.4054  0.6009  0.2500
  181MOL0     C24873   4.698   4.978   3.642  0.3341 -1.0379 -0.1799
  181MOL0     C24874   4.638   5.019   3.770 -0.1744  0.3497 -0.2733
  181MOL0     C24875   4.514   4.965   3.813  0.4629  1.1708  0.1924
  181MOL0     O24876   4.484   5.009   3.931 -0.1139 -0.6381  0.3980
  181MOL0     C24877   4.360   4.980   3.999 -0.4276 -0.1765  1.1393
  181MOL0     C24878   4.371   5.030   4.143 -0.4762 -0.2369 -0.6263
  181MOL0     C24879   4.361   5.181   4.165  0.6660  0.4271  0.9711
  181MOL0     C24880   4.494   5.240   4.203  0.3321 -0.3062  0.3878
  181MOL0     C24881   4.489   5.390   4.238  0.7509  0.1193  0.0044
  181MOL0     C24882   4.623   5.442   4.306 -0.5611  0.5967  0.6741
  181MOL0     C24883   4.753   5.365   4.266 -0.4061 -0.1149 -0.3280
  181MOL0     C24884   4.874   5.443   4.319  0.1581  0.0353  0.1230
  181MOL0    Cl24885   4.873   5.469   4.503 -0.3794  0.4569  0.1624
  181MOL0     C24886   4.443   4.863   3.730 -0.2456  1.3507  0.7098
  181MOL0     C24887   4.492   4.840   3.597  0.1852 -0.5817  0.3077
  181MOL0     O24888   4.462   5.015   3.365 -0.0847 -0.2661 -0.7707
  181MOL0     C24889   4.721   5.014   3.160  0.4068  0.1877  0.1878
  181MOL0     C24890   4.771   5.001   3.031 -0.0368 -0.0074  0.2815
  181MOL0     N24891   4.866   4.567   2.614 -0.7897  0.0416 -0.5917
  181MOL0     N24892   4.863   4.495   2.725  0.4012  0.0810  0.2875
  181MOL0     C24893   4.924   4.670   3.945  0.4853 -0.2899  0.8427
  181MOL0     C24894   4.989   4.756   4.034  0.0809  0.0582  0.6222
  181MOL0     C24895   5.162   5.004   4.350  0.4163  0.7638 -0.2187
  181MOL0     C24896   5.130   5.140   4.352  0.1359  0.4285  0.0229
  181MOL0     C24897   5.204   5.234   4.414  0.0501  0.4541  0.4267
  181MOL0     C24898   5.315   5.204   4.486 -0.4785 -1.3598 -0.0658
  181MOL0     O24899   5.373   5.308   4.551 -0.3541  0.1731  0.0528
  181MOL0     C24900   5.388   5.295   4.697 -0.5709  0.2191  0.0326
  181MOL0     C24901   5.325   5.410   4.787  0.2564 -0.1797  0.1370
  181MOL0     C24902   5.170   5.430   4.760 -1.1992  0.8343 -0.4715
  181MOL0     C24903   5.080   5.305   4.791  0.0714  0.6778 -0.5782
  181MOL0     C24904   5.053   5.279   4.934 -0.4463  1.1298  0.7835
  181MOL0     C24905   5.037   5.249   5.053  0.5069 -0.3666  0.3923
  181MOL0     C24906   5.354   5.072   4.491 -0.1450 -0.7050  0.0060
  181MOL0     C24907   5.280   4.973   4.421  0.8781 -0.2781 -0.0939
  181MOL0     C24908   5.343   4.836   4.420 -0.6567  0.2349  0.4167
  181MOL0     H24909   4.720   4.917   4.159  1.2129  0.7488 -0.8482
  181MOL0     H24910   4.601   4.771   3.984 -0.5495  0.1903  3.1504
  181MOL0     H24911   4.869   4.562   3.694 -0.5195 -2.5919  0.0512
  181MOL0     H24912   4.771   4.707   3.690  3.0122  0.7077  1.7501
  181MOL0     H24913   4.679   4.420   3.649 -0.8049  0.0731  0.0176
  181MOL0     H24914   4.564   4.555   3.651 -0.2480  0.9229 -0.4965
  181MOL0     H24915   4.690   4.653   3.467  1.3770  0.0849 -3.1733
  181MOL0     H24916   4.810   4.517   3.478 -0.9710 -2.0272  3.0665
  181MOL0     H24917   4.666   4.350   3.405 -1.6527 -1.2708 -0.8893
  181MOL0     H24918   4.521   4.450   3.425 -0.2054 -0.5573  0.0090
  181MOL0     H24919   4.559   4.583   3.238 -2.1323 -0.7653  2.7044
  181MOL0     H24920   4.584   4.406   3.210 -2.0332  0.4804  1.8661
  181MOL0     H24921   4.827   4.592   3.242 -1.0408 -0.2837  2.5006
  181MOL0     H24922   4.830   4.420   3.202 -3.1915 -3.2536  1.7817
  181MOL0     H24923   4.739   4.669   3.055  0.4672 -0.0748  2.7085
  181MOL0     H24924   4.683   4.506   2.996 -1.2246  1.7163 -0.1023
  181MOL0     H24925   4.968   4.596   3.020  0.0077  1.3585  1.3368
  181MOL0     H24926   4.917   4.434   2.976  2.0005  0.5438 -0.6173
  181MOL0     H24927   4.976   4.786   2.830  0.6711 -0.3393  1.0111
  181MOL0     H24928   5.027   4.745   2.475  0.3490  0.0957  1.3993
  181MOL0     H24929   5.019   4.882   2.593  1.8572  0.5182 -2.4286
  181MOL0     H24930   4.845   4.884   2.384 -0.6665  4.0819  1.4085
  181MOL0     H24931   4.762   4.754   2.474 -0.2307  0.0117 -1.8555
  181MOL0     H24932   4.833   5.030   2.591  0.8079  0.6697 -2.3924
  181MOL0     H24933   4.678   4.989   2.508 -2.2577 -1.3680  2.6683
  181MOL0     H24934   4.602   4.975   2.703  0.4146  0.3400  1.1278
  181MOL0     H24935   4.629   4.806   2.691  1.3249 -0.9912  4.6863
  181MOL0     H24936   4.523   4.824   2.889  2.8867 -0.8050 -0.2726
  181MOL0     H24937   4.321   4.910   3.175  0.7649  0.1882  1.3353
  181MOL0     H24938   4.405   4.753   3.177  0.1695  1.8481  1.8992
  181MOL0     H24939   4.333   4.832   3.020  2.1583  0.6570 -1.8687
  181MOL0     H24940   4.798   4.999   3.607  0.3419  0.1815  0.5330
  181MOL0     H24941   4.700   5.080   3.834  0.1675  1.3816 -1.5553
  181MOL0     H24942   4.272   5.020   3.948  0.7381 -0.1120 -0.9271
  181MOL0     H24943   4.347   4.871   4.003 -3.3362 -0.2592 -3.2498
  181MOL0     H24944   4.289   4.977   4.192 -2.5249  0.6801 -2.8799
  181MOL0     H24945   4.459   4.981   4.185 -0.6942 -1.8658 -1.9661
  181MOL0     H24946   4.285   5.192   4.243 -2.6357 -0.5434 -1.8867
  181MOL0     H24947   4.322   5.220   4.071 -0.0991 -2.7537 -0.1830
  181MOL0     H24948   4.563   5.227   4.119 -2.0466 -1.6283 -1.4962
  181MOL0     H24949   4.535   5.190   4.291  1.4591  0.6401  0.4256
  181MOL0     H24950   4.462   5.446   4.147 -1.5301 -0.1088  0.4750
  181MOL0     H24951   4.399   5.410   4.298  0.0196 -1.3294 -0.5563
  181MOL0     H24952   4.609   5.436   4.414  3.2578  0.1527  1.3029
  181MOL0     H24953   4.636   5.550   4.288 -0.1944  0.6875  1.4507
  181MOL0     H24954   4.777   5.363   4.159  2.5011  0.1751  0.2510
  181MOL0     H24955   4.760   5.265   4.308 -0.7589 -2.1632 -4.6293
  181MOL0     H24956   4.871   5.543   4.275 -3.5718  1.6819  3.4370
  181MOL0     H24957   4.961   5.387   4.285 -0.6992 -0.7777 -0.7954
  181MOL0     H24958   4.345   4.820   3.746  0.9797 -1.8031  0.4284
  181MOL0     H24959   4.449   4.778   3.518  1.8051  0.8766 -1.8481
  181MOL0     H24960   4.776   5.054   3.244 -1.3939 -0.8019  1.9390
  181MOL0     H24961   4.876   5.023   3.021  0.2780 -0.0677  2.7683
  181MOL0     H24962   4.980   4.611   3.873  0.1779 -0.1869  0.5132
  181MOL0     H24963   5.096   4.747   4.048  0.1015 -3.8041 -0.7266
  181MOL0     H24964   5.040   5.165   4.297 -0.7991 -2.0240  0.3143
  181MOL0     H24965   5.174   5.338   4.419  2.9940  1.3703  1.9062
  181MOL0     H24966   5.359   5.200   4.743  3.3077  0.2471  3.0869
  181MOL0     H24967   5.496   5.295   4.713 -0.6304  1.2919  0.4403
  181MOL0     H24968   5.374   5.504   4.759  0.7351 -0.2389  0.7398
  181MOL0     H24969   5.349   5.393   4.893  1.5295 -2.4745 -0.4529
  181MOL0     H24970   5.138   5.519   4.815  2.1482  2.9892 -1.7171
  181MOL0     H24971   5.151   5.463   4.658  1.0169  1.1518 -0.8494
  181MOL0     H24972   5.121   5.215   4.744  0.5463  0.2074  0.6999
  181MOL0     H24973   4.984   5.326   4.743 -0.0299 -2.0627 -1.7688
  181MOL0     H24974   5.021   5.218   5.154  3.2428 -1.5110  0.5797
  181MOL0     H24975   5.449   5.059   4.543 -0.9418 -1.6089  1.2894
  181MOL0     H24976   5.271   4.767   4.464 -4.5900  1.8062 -2.9065
  181MOL0     H24977   5.367   4.803   4.319  1.7915 -0.1201  1.0404
  181MOL0     H24978   5.439   4.830   4.473 -1.3431  1.4002  1.8737
  182MOL0     O24979  10.743   0.954  10.744 -0.2512  0.3287 -0.7066
  182MOL0     C24980  10.720   0.836  10.732 -0.5733 -0.9583  0.7030
  182MOL0     O24981  10.721   0.769  10.617 -0.9323 -0.0691 -0.1253
  182MOL0     C24982  10.755   0.835  10.498 -1.1061 -0.4413 -0.4667
  182MOL0     C24983  10.801   0.964  10.474  0.5618 -0.0141  0.4104
  182MOL0     C24984  10.825   1.008  10.343 -0.0396  0.3494 -1.1924
  182MOL0     C24985  10.799   0.927  10.237 -0.3741  0.1195  0.6738
  182MOL0     O24986  10.818   0.968  10.114  0.1251  0.4784 -0.0272
  182MOL0     C24987  10.945   1.007  10.077 -0.8050  0.1276 -0.3080
  182MOL0     C24988  10.940   1.066   9.940  0.2207 -0.0738 -0.0130
  182MOL0     C24989  11.080   1.096   9.886  0.8233  0.1444 -0.1185
  182MOL0     C24990  11.143   0.969   9.834 -0.0936  0.2740  0.2506
  182MOL0     C24991  11.236   0.995   9.711  0.3298  0.9631 -0.6900
  182MOL0     C24992  11.341   1.098   9.749 -0.8483  0.1638 -0.5690
  182MOL0     C24993  11.453   1.064   9.651  0.1194  0.7144  0.1851
  182MOL0     C24994  11.564   0.971   9.717  0.3831 -1.0097 -0.3879
  182MOL0     N24995  11.687   0.956   9.628  0.2802 -0.0152 -0.1816
  182MOL0     C24996  11.744   0.836   9.596  0.1142  0.1101 -0.2186
  182MOL0     C24997  11.834   0.852   9.503 -0.0729  0.1995 -0.8746
  182MOL0     C24998  11.933   0.755   9.435  0.5697  0.6533  0.8563
  182MOL0     C24999  11.859   0.678   9.317  0.3212  0.3415 -0.8221
  182MOL0     C25000  11.809   0.774   9.215 -0.4130  0.2105  0.2583
  182MOL0     C25001  11.922   0.839   9.128  0.0300  0.4972 -0.2610
  182MOL0     O25002  12.007   0.741   9.075  0.2428 -0.7317  0.5349
  182MOL0     C25003  12.119   0.776   9.006 -0.5801  0.4749  0.5946
  182MOL0     C25004  12.143   0.905   8.970  0.4635 -0.6866  0.1175
  182MOL0     C25005  12.261   0.947   8.908  0.3879 -0.0043  0.3475
  182MOL0     C25006  12.257   1.093   8.856 -0.8886  0.9582  0.0654
  182MOL0     C25007  12.366   0.853   8.871  1.0819  0.1555 -0.6046
  182MOL0     C25008  12.496   0.885   8.829 -0.2413  0.1357 -0.8276
  182MOL0     O25009  12.555   0.785   8.761  0.4780 -0.1000 -0.5301
  182MOL0     C25010  12.686   0.781   8.758  0.3605 -0.3205  0.8053
  182MOL0     C25011  12.765   0.791   8.869  0.0702 -0.3224 -0.3720
  182MOL0     C25012  12.907   0.791   8.852 -0.5691 -0.3738 -0.7069
  182MOL0     C25013  12.965   0.782   8.730 -0.1570  0.6042  0.4347
  182MOL0     O25014  13.098   0.787   8.731  0.3913 -0.5264 -0.2818
  182MOL0     C25015  13.166   0.734   8.620 -0.3854  0.0470 -0.3518
  182MOL0     C25016  13.320   0.764   8.625 -0.2763 -0.2293  0.0134
  182MOL0     C25017  13.373   0.743   8.766 -0.2804 -0.4684  0.7452
  182MOL0     C25018  13.530   0.765   8.765  0.8237  0.4478  0.1905
  182MOL0     C25019  13.581   0.759   8.908  1.2732 -0.2190 -0.4030
  182MOL0     C25020  13.529   0.875   8.992 -0.1392  0.3457  0.5833
  182MOL0     C25021  13.610   0.899   9.125 -0.2522  0.6435 -0.0296
  182MOL0     C25022  13.552   1.024   9.196 -0.7917  0.3881  0.2611
  182MOL0    Cl25023  13.578   1.170   9.109 -0.6236 -0.2397 -0.3959
  182MOL0     C25024  12.883   0.752   8.620  0.2030  0.3665  0.4457
  182MOL0     C25025  12.745   0.753   8.637 -1.1412 -0.7703  1.4598
  182MOL0     O25026  12.542   0.988   8.866  1.0208  0.0405  0.7870
  182MOL0     C25027  12.331   0.719   8.898 -0.4962  0.3748  0.6907
  182MOL0     C25028  12.210   0.676   8.960  1.0854  0.1600 -0.4153
  182MOL0     N25029  11.832   0.987   9.476  0.0548  0.8952  0.4200
  182MOL0     N25030  11.752   1.050   9.551  0.2752 -0.3649  0.2357
  182MOL0     C25031  10.760   0.796  10.261  0.6362 -0.4295  0.0640
  182MOL0     C25032  10.732   0.747  10.388  0.4641 -0.1664 -0.6474
  182MOL0     C25033  10.676   0.782  10.855  0.6762  0.7353  0.5559
  182MOL0     C25034  10.542   0.776  10.898  0.4205  0.6240 -0.5638
  182MOL0     C25035  10.500   0.702  11.007  0.3796  0.4764 -0.1088
  182MOL0     C25036  10.597   0.614  11.070  0.5488  0.4160  0.4300
  182MOL0     O25037  10.563   0.532  11.170  0.0441 -0.3034  0.4163
  182MOL0     C25038  10.427   0.491  11.177 -0.2891 -0.3676 -0.2066
  182MOL0     C25039  10.435   0.382  11.286 -0.5900  0.8177 -0.1886
  182MOL0     C25040  10.312   0.296  11.298 -0.8728 -0.0479  0.1551
  182MOL0     C25041  10.180   0.350  11.331 -0.2325 -0.3018  0.7673
  182MOL0     C25042  10.071   0.255  11.337  0.2942 -0.2249  0.0638
  182MOL0     C25043   9.981   0.171  11.351  0.4192 -0.6702 -0.4516
  182MOL0     C25044  10.729   0.623  11.036  0.6370  0.0796 -0.5134
  182MOL0     C25045  10.765   0.697  10.930 -0.6368  0.7080  0.6378
  182MOL0     C25046  10.909   0.694  10.868  0.2500  0.1638 -0.1663
  182MOL0     H25047  10.809   1.046  10.544 -0.1548  0.5395 -0.1526
  182MOL0     H25048  10.860   1.109  10.325 -1.7363  1.7166  2.1983
  182MOL0     H25049  11.009   0.919  10.083 -1.8379 -0.8619 -2.6543
  182MOL0     H25050  10.993   1.082  10.141  2.2889 -2.3752  0.5447
  182MOL0     H25051  10.881   0.996   9.878 -0.6324 -0.0893  0.7948
  182MOL0     H25052  10.871   1.151   9.946 -0.8988 -0.6310 -2.9095
  182MOL0     H25053  11.081   1.177   9.813  1.4419  0.0504 -0.2210
  182MOL0     H25054  11.147   1.120   9.969 -0.0130 -3.3458  1.8097
  182MOL0     H25055  11.201   0.919   9.912  0.5276  1.6659  0.7205
  182MOL0     H25056  11.056   0.911   9.799 -2.4699  3.3871  0.5439
  182MOL0     H25057  11.162   1.019   9.634 -2.5339 -0.0563  1.5652
  182MOL0     H25058  11.274   0.897   9.682  0.1730 -1.2322  5.1318
  182MOL0     H25059  11.294   1.195   9.730 -1.4019 -0.5355 -3.0536
  182MOL0     H25060  11.368   1.079   9.854  0.3655  1.9025 -0.5239
  182MOL0     H25061  11.497   1.162   9.628 -1.9713  1.7594  0.3970
  182MOL0     H25062  11.406   1.015   9.565  0.4111 -0.7915  0.8506
  182MOL0     H25063  11.591   1.015   9.813  0.7193 -1.7900 -0.1196
  182MOL0     H25064  11.526   0.872   9.746  0.0382 -0.9027 -0.4677
  182MOL0     H25065  11.703   0.743   9.635 -1.2931 -0.2707 -2.4045
  182MOL0     H25066  11.981   0.683   9.502 -1.4146 -2.8001 -1.1225
  182MOL0     H25067  12.014   0.805   9.381  2.7894 -3.9925 -0.6336
  182MOL0     H25068  11.932   0.609   9.273  1.7098  0.7956  0.7152
  182MOL0     H25069  11.784   0.619   9.371  1.1062  0.2015  0.1186
  182MOL0     H25070  11.745   0.722   9.143  0.0341 -0.1305  0.1040
  182MOL0     H25071  11.747   0.855   9.255 -1.5801 -1.1553  1.3220
  182MOL0     H25072  11.882   0.902   9.048  0.7230 -0.2442 -1.2273
  182MOL0     H25073  11.978   0.904   9.196  2.8703  0.9139 -2.7359
  182MOL0     H25074  12.071   0.982   8.997 -0.3589 -1.7074  0.9673
  182MOL0     H25075  12.331   1.116   8.779 -1.0230 -2.8084 -1.3846
  182MOL0     H25076  12.264   1.156   8.945 -1.8336 -0.1683  0.9741
  182MOL0     H25077  12.163   1.104   8.801  0.0587  1.8900 -1.4520
  182MOL0     H25078  12.726   0.804   8.970  0.7938  0.5139 -0.1879
  182MOL0     H25079  12.963   0.805   8.945 -0.0127  2.7678 -1.3743
  182MOL0     H25080  13.171   0.625   8.628  1.2846  0.1843  1.2761
  182MOL0     H25081  13.124   0.765   8.524 -0.9386 -1.6568 -0.7066
  182MOL0     H25082  13.373   0.701   8.553  0.7024 -0.3384  0.8144
  182MOL0     H25083  13.332   0.866   8.587 -0.9772 -0.2069 -0.1698
  182MOL0     H25084  13.346   0.641   8.793  0.9147 -0.8937  0.3884
  182MOL0     H25085  13.323   0.807   8.840 -0.9324  0.6292 -0.5970
  182MOL0     H25086  13.536   0.858   8.709  0.7020  2.1609  2.8441
  182MOL0     H25087  13.582   0.689   8.705  2.4107 -0.7635  2.8946
  182MOL0     H25088  13.543   0.672   8.963  0.3733  0.4221 -0.0046
  182MOL0     H25089  13.691   0.757   8.902  1.2290 -0.4727 -1.2642
  182MOL0     H25090  13.426   0.864   9.026  0.7152 -0.0382  3.2948
  182MOL0     H25091  13.531   0.964   8.927  0.0934  1.5400  2.1540
  182MOL0     H25092  13.718   0.911   9.118  0.2366 -0.6385  3.4856
  182MOL0     H25093  13.581   0.811   9.182  1.7308 -1.2450 -1.7639
  182MOL0     H25094  13.616   1.023   9.285 -0.0103  2.3141 -0.2199
  182MOL0     H25095  13.449   1.016   9.233 -0.7785  3.4810  1.2167
  182MOL0     H25096  12.925   0.734   8.521 -0.2848 -1.5771  0.5547
  182MOL0     H25097  12.694   0.751   8.541  2.9161 -0.7603 -0.9107
  182MOL0     H25098  12.393   0.635   8.867 -2.8164 -1.6906  1.3776
  182MOL0     H25099  12.184   0.574   8.984 -0.9943  0.4259 -1.3236
  182MOL0     H25100  10.765   0.728  10.176 -0.2028  0.3290 -0.6167
  182MOL0     H25101  10.696   0.648  10.411  0.8131  0.4864  3.4880
  182MOL0     H25102  10.473   0.845  10.852 -0.6625 -0.2262 -0.2687
  182MOL0     H25103  10.396   0.714  11.037  0.2423  2.1858 -1.1483
  182MOL0     H25104  10.358   0.571  11.205  3.1004  2.2408  1.4233
  182MOL0     H25105  10.387   0.451  11.083 -2.3265 -0.8017  0.7994
  182MOL0     H25106  10.455   0.426  11.384  0.8025  0.0984 -0.1268
  182MOL0     H25107  10.517   0.317  11.253 -1.9981 -0.1626 -1.9927
  182MOL0     H25108  10.295   0.239  11.206 -3.4866 -1.1429  1.1979
  182MOL0     H25109  10.344   0.211  11.360  3.7488 -0.5662 -2.4890
  182MOL0     H25110  10.159   0.428  11.257 -0.5256  0.3716  1.5373
  182MOL0     H25111  10.194   0.401  11.427 -1.2436 -0.9845  1.2947
  182MOL0     H25112   9.904   0.100  11.372  2.1203 -3.4532 -2.8416
  182MOL0     H25113  10.801   0.562  11.090  1.7959  1.9732  0.1531
  182MOL0     H25114  10.959   0.792  10.866 -0.0144  0.3889  2.0926
  182MOL0     H25115  10.968   0.623  10.927 -0.4871 -0.0437  0.3291
  182MOL0     H25116  10.904   0.658  10.765  0.7133 -1.2585  0.2849
  183MOL0     O25117   3.396   6.700   9.080 -0.0018  0.2689  0.3406
  183MOL0     C25118   3.282   6.668   9.046  0.8986 -0.5756  0.3817
  183MOL0     O25119   3.235   6.674   8.922  0.2551  0.2673 -0.2314
  183MOL0     C25120   3.309   6.708   8.808 -0.1630 -0.3050  0.7200
  183MOL0     C25121   3.224   6.693   8.689 -0.0650  0.5905  0.3183
  183MOL0     C25122   3.270   6.738   8.567  0.3557  0.3450  0.3283
  183MOL0     C25123   3.400   6.788   8.553  0.0001  0.6110  0.5162
  183MOL0     O25124   3.453   6.829   8.436  0.5073 -0.4259  0.2458
  183MOL0     C25125   3.422   6.747   8.317 -0.5188 -0.2998  0.3185
  183MOL0     C25126   3.546   6.772   8.230  0.9997  0.4043 -0.3260
  183MOL0     C25127   3.541   6.685   8.101 -0.2352 -0.5101  0.2176
  183MOL0     C25128   3.679   6.684   8.022  0.1836  0.1756 -0.0232
  183MOL0     C25129   3.730   6.824   7.995  0.5134  0.8374 -1.0936
  183MOL0     C25130   3.648   6.911   7.899  0.3220 -0.0168 -0.1548
  183MOL0     C25131   3.628   6.847   7.769  0.6147 -0.6281  0.8795
  183MOL0     C25132   3.561   6.950   7.662 -0.6323  0.7199  0.0040
  183MOL0     N25133   3.558   6.872   7.529  0.6633 -1.0168 -0.2543
  183MOL0     C25134   3.511   6.751   7.487  0.3023 -0.5838 -0.1595
  183MOL0     C25135   3.548   6.734   7.363  0.0343 -0.3265 -0.1491
  183MOL0     C25136   3.525   6.613   7.280  0.8906  0.2783 -0.3358
  183MOL0     C25137   3.615   6.500   7.306 -0.0852  0.5284 -0.1750
  183MOL0     C25138   3.571   6.431   7.435  0.3339 -0.1687  0.7831
  183MOL0     C25139   3.651   6.293   7.463  0.2882 -0.8531  0.0875
  183MOL0     O25140   3.795   6.322   7.460  0.6406  0.9980  0.4726
  183MOL0     C25141   3.864   6.398   7.547  0.5282  0.2177  0.1879
  183MOL0     C25142   3.990   6.421   7.521 -0.4949 -0.1699 -0.6822
  183MOL0     C25143   4.087   6.477   7.611  0.0099  0.2861  0.2794
  183MOL0     C25144   4.238   6.486   7.563 -0.5690  0.6644 -0.2085
  183MOL0     C25145   4.036   6.517   7.745 -0.7299 -0.0016  0.5667
  183MOL0     C25146   4.121   6.584   7.845  0.6311  0.9105  0.0895
  183MOL0     O25147   4.051   6.626   7.963  0.1260 -0.1128 -0.0446
  183MOL0     C25148   4.101   6.738   8.032 -0.2203  0.0066 -0.5893
  183MOL0     C25149   4.192   6.838   7.982 -0.3458  0.1762  0.0433
  183MOL0     C25150   4.235   6.947   8.051  0.2503 -1.0684  0.2349
  183MOL0     C25151   4.184   6.962   8.183  0.2179  0.8767 -0.8479
  183MOL0     O25152   4.215   7.074   8.263 -0.6741 -0.4384 -0.2262
  183MOL0     C25153   4.324   7.156   8.231 -0.2875  0.2755  0.2045
  183MOL0     C25154   4.322   7.288   8.300  0.2988  0.2022 -0.4091
  183MOL0     C25155   4.205   7.362   8.246  0.2601 -0.6054 -0.6477
  183MOL0     C25156   4.174   7.488   8.324 -0.3140 -0.2418 -0.8102
  183MOL0     C25157   4.045   7.556   8.267 -0.0918 -0.2907 -0.2308
  183MOL0     C25158   4.018   7.686   8.333  0.0211  0.6709  0.8537
  183MOL0     C25159   3.889   7.747   8.288  0.6580 -0.0278  0.3826
  183MOL0     C25160   3.774   7.707   8.389 -0.0582  0.0615  0.2458
  183MOL0    Cl25161   3.792   7.801   8.533 -0.3448  0.3890  0.2849
  183MOL0     C25162   4.085   6.878   8.232 -0.0147  0.3375 -0.2291
  183MOL0     C25163   4.041   6.768   8.151  1.3259  0.3135  0.5781
  183MOL0     O25164   4.243   6.596   7.824 -0.3037 -0.2004 -0.5744
  183MOL0     C25165   3.896   6.493   7.766 -1.0085  0.6089  0.4976
  183MOL0     C25166   3.808   6.441   7.672 -0.8402  0.2932 -0.2733
  183MOL0     N25167   3.640   6.838   7.329  0.3095  0.3226  0.1747
  183MOL0     N25168   3.647   6.911   7.432  0.2477  0.0714  0.0959
  183MOL0     C25169   3.492   6.789   8.660 -0.1524  0.0448  0.6340
  183MOL0     C25170   3.443   6.755   8.784 -0.1938 -0.9780  0.3863
  183MOL0     C25171   3.178   6.643   9.156  0.8034  0.2019 -0.3183
  183MOL0     C25172   3.039   6.646   9.120 -0.6571  0.6220 -0.0329
  183MOL0     C25173   2.939   6.634   9.226  0.0875  1.1302  0.7338
  183MOL0     C25174   2.973   6.618   9.363 -0.4237  0.0612 -0.2782
  183MOL0     O25175   2.876   6.612   9.463  0.6865 -0.4667 -0.1776
  183MOL0     C25176   2.778   6.711   9.456 -0.2945  0.6141 -0.0560
  183MOL0     C25177   2.828   6.860   9.445 -0.5491 -1.2073  0.1226
  183MOL0     C25178   2.759   6.952   9.550 -0.9470  0.0082 -1.2053
  183MOL0     C25179   2.825   7.095   9.541 -0.3206 -0.2735  0.4579
  183MOL0     C25180   2.960   7.091   9.593 -0.4093 -0.0322  0.2087
  183MOL0     C25181   3.073   7.083   9.639 -0.1890 -0.4145  0.1506
  183MOL0     C25182   3.102   6.635   9.392 -0.0472  1.0512 -0.6101
  183MOL0     C25183   3.204   6.638   9.301  0.4671  0.4416 -0.4857
  183MOL0     C25184   3.339   6.657   9.369  0.1144 -0.3669  0.7115
  183MOL0     H25185   3.120   6.666   8.704 -0.1362 -0.9469 -2.3361
  183MOL0     H25186   3.205   6.751   8.481  1.5602  0.1654 -0.6309
  183MOL0     H25187   3.331   6.788   8.272  0.3435  2.3395  0.8571
  183MOL0     H25188   3.409   6.639   8.333 -0.2769 -0.1833  1.3606
  183MOL0     H25189   3.555   6.880   8.218  0.5699  0.2145 -2.7807
  183MOL0     H25190   3.624   6.734   8.297  1.3124  0.5368 -0.6152
  183MOL0     H25191   3.495   6.592   8.134 -1.6744 -0.0676 -0.4504
  183MOL0     H25192   3.478   6.726   8.021  0.2077 -1.6655 -0.7586
  183MOL0     H25193   3.749   6.622   8.079 -0.5086  0.6118  1.3625
  183MOL0     H25194   3.656   6.641   7.925 -2.1696  0.9113  0.1500
  183MOL0     H25195   3.834   6.817   7.963  0.5261 -3.0861 -0.6640
  183MOL0     H25196   3.732   6.870   8.094  0.6387  2.9393 -2.0218
  183MOL0     H25197   3.542   6.925   7.924  0.1402 -1.3281 -0.1137
  183MOL0     H25198   3.697   7.006   7.875  0.4379 -0.2452 -0.8483
  183MOL0     H25199   3.552   6.770   7.789  1.9266 -2.4364 -0.7464
  183MOL0     H25200   3.721   6.807   7.727  0.6211  1.4889 -1.3671
  183MOL0     H25201   3.458   6.964   7.697 -0.4285 -2.5810  2.4543
  183MOL0     H25202   3.612   7.046   7.651 -1.3730  0.9869 -1.2396
  183MOL0     H25203   3.456   6.680   7.548  1.5343 -0.4296  1.2046
  183MOL0     H25204   3.540   6.638   7.174  1.5588 -2.0497 -0.8596
  183MOL0     H25205   3.425   6.569   7.287  1.7802 -2.7230 -3.5061
  183MOL0     H25206   3.618   6.425   7.226 -1.1238 -0.1686  0.4135
  183MOL0     H25207   3.720   6.528   7.314  0.3179 -0.7678 -0.7071
  183MOL0     H25208   3.591   6.488   7.526 -0.7146 -0.8888  1.4796
  183MOL0     H25209   3.467   6.401   7.425  0.0262  0.7029  1.2199
  183MOL0     H25210   3.611   6.263   7.561 -4.5296  0.5677 -1.1890
  183MOL0     H25211   3.635   6.219   7.384 -1.7294 -0.5081  0.1460
  183MOL0     H25212   4.020   6.392   7.421  2.5122  2.6876 -0.7887
  183MOL0     H25213   4.268   6.585   7.529  1.5127 -0.2244 -1.1088
  183MOL0     H25214   4.249   6.410   7.486 -0.8417 -0.3556  0.7297
  183MOL0     H25215   4.316   6.461   7.636  2.0405  3.1273 -1.9404
  183MOL0     H25216   4.230   6.838   7.880 -0.0289  0.4007  0.1619
  183MOL0     H25217   4.306   7.016   8.007 -1.8037 -0.1202 -1.8050
  183MOL0     H25218   4.419   7.115   8.265 -0.9562 -0.8837  0.7488
  183MOL0     H25219   4.340   7.172   8.124  0.7365 -0.1102  0.2940
  183MOL0     H25220   4.311   7.264   8.406 -0.1833 -1.3642 -0.7837
  183MOL0     H25221   4.415   7.342   8.278  0.1807  0.8632  0.6551
  183MOL0     H25222   4.117   7.296   8.244 -0.2658  0.0777 -0.3361
  183MOL0     H25223   4.231   7.383   8.141  0.4862 -0.6522 -0.6014
  183MOL0     H25224   4.259   7.556   8.316  0.9327 -1.8184 -1.7056
  183MOL0     H25225   4.156   7.460   8.428  1.8974  0.7193 -0.1102
  183MOL0     H25226   4.060   7.586   8.163  0.9370 -2.4282 -0.7401
  183MOL0     H25227   3.964   7.484   8.282 -0.8338  0.6786  0.6404
  183MOL0     H25228   4.097   7.757   8.306 -1.1326  1.0994 -1.7744
  183MOL0     H25229   4.018   7.671   8.441 -1.1908 -0.6713  0.7075
  183MOL0     H25230   3.863   7.727   8.184 -0.6446  1.3736  0.4115
  183MOL0     H25231   3.888   7.856   8.296 -2.7773  0.0040  1.2976
  183MOL0     H25232   3.785   7.600   8.407 -0.0522 -0.7521 -3.6204
  183MOL0     H25233   3.671   7.717   8.352  0.7288  2.2580 -1.6371
  183MOL0     H25234   4.058   6.888   8.336  0.2986 -0.6335 -0.0463
  183MOL0     H25235   3.975   6.698   8.199  2.2935  1.8773  4.6325
  183MOL0     H25236   3.862   6.516   7.866 -0.1599  3.4441  0.2253
  183MOL0     H25237   3.701   6.432   7.688 -1.2510  2.7091 -1.2859
  183MOL0     H25238   3.597   6.815   8.658  0.9431 -3.8420 -0.0314
  183MOL0     H25239   3.513   6.757   8.867 -2.6931 -1.4352  2.6324
  183MOL0     H25240   3.007   6.653   9.016  1.2213  2.7504 -0.5409
  183MOL0     H25241   2.835   6.618   9.203 -0.1355  2.1654  0.9932
  183MOL0     H25242   2.706   6.696   9.375 -0.8286 -0.6688  0.6310
  183MOL0     H25243   2.703   6.697   9.534 -1.4770  2.7116 -0.7335
  183MOL0     H25244   2.811   6.908   9.348  0.9707 -0.3850  0.2432
  183MOL0     H25245   2.936   6.862   9.461  0.0078  1.7978 -2.9774
  183MOL0     H25246   2.652   6.960   9.526 -1.5622 -0.3512  1.2084
  183MOL0     H25247   2.782   6.918   9.651 -1.1469 -2.4842 -1.9212
  183MOL0     H25248   2.779   7.169   9.607  0.4547  0.5547  0.0823
  183MOL0     H25249   2.829   7.152   9.448  2.3740  3.7253  2.7566
  183MOL0     H25250   3.163   7.060   9.692 -2.3257 -0.9425  3.9065
  183MOL0     H25251   3.128   6.651   9.496  0.1680  1.1523 -0.6800
  183MOL0     H25252   3.418   6.596   9.326  0.9764 -0.4103  2.2644
  183MOL0     H25253   3.382   6.756   9.390  1.7666 -1.2817  1.8720
  183MOL0     H25254   3.329   6.622   9.472  4.4886 -2.6254  0.6170
  184MOL0     O25255   6.855   6.074   9.634 -0.1488 -1.5937  0.2781
  184MOL0     C25256   6.838   6.149   9.539 -0.1841  0.3845  0.5231
  184MOL0     O25257   6.792   6.106   9.421 -0.1790 -0.1958  0.3169
  184MOL0     C25258   6.799   5.976   9.384  0.5046 -0.0142 -0.4129
  184MOL0     C25259   6.691   5.888   9.420  0.5657  0.8108 -0.4401
  184MOL0     C25260   6.695   5.740   9.395  0.7161 -0.4479  0.1409
  184MOL0     C25261   6.799   5.694   9.322 -0.9304  0.5523 -0.0871
  184MOL0     O25262   6.787   5.563   9.280  0.1940 -0.7608  0.0773
  184MOL0     C25263   6.826   5.536   9.147  1.0210 -0.1463  1.0318
  184MOL0     C25264   6.793   5.405   9.083 -0.0023  0.0656  0.7848
  184MOL0     C25265   6.818   5.283   9.164 -0.7853  0.0845 -0.1612
  184MOL0     C25266   6.788   5.158   9.088 -0.2817 -0.5325  0.8218
  184MOL0     C25267   6.790   5.031   9.174 -1.0525  0.0660 -0.7418
  184MOL0     C25268   6.934   4.958   9.170  0.1391 -0.5880 -0.3899
  184MOL0     C25269   6.936   4.841   9.271 -0.7068  0.3086  0.3392
  184MOL0     C25270   7.080   4.781   9.293 -0.5371  0.1618  0.6686
  184MOL0     N25271   7.075   4.643   9.315  0.2261  0.1965 -0.1784
  184MOL0     C25272   7.020   4.548   9.243  0.5945 -0.7815  0.5143
  184MOL0     C25273   7.057   4.439   9.300  0.3102 -0.7765  0.9205
  184MOL0     C25274   7.022   4.308   9.242  0.6159  0.0705  0.4665
  184MOL0     C25275   7.145   4.216   9.225  0.3581 -0.2367 -0.5081
  184MOL0     C25276   7.179   4.160   9.369  0.5782 -0.0910 -0.3141
  184MOL0     C25277   7.275   4.037   9.365 -0.0509 -0.1703 -0.5575
  184MOL0     O25278   7.409   4.094   9.342 -0.1009 -0.0522 -0.4980
  184MOL0     C25279   7.493   3.987   9.321  0.1701 -0.4171 -0.2341
  184MOL0     C25280   7.470   3.875   9.236  0.8717 -0.1210 -0.9047
  184MOL0     C25281   7.579   3.779   9.211  0.3191 -0.0696 -0.0975
  184MOL0     C25282   7.541   3.662   9.141  0.8706  0.6081 -0.0755
  184MOL0     C25283   7.702   3.797   9.277  0.4374 -0.8644 -0.7022
  184MOL0     C25284   7.816   3.703   9.264 -0.3552 -0.8847  0.4683
  184MOL0     O25285   7.819   3.630   9.150 -0.1836  0.7889  0.3160
  184MOL0     C25286   7.903   3.526   9.159  0.1479 -0.6838  0.2738
  184MOL0     C25287   7.851   3.398   9.168  0.1920 -0.1659  0.9156
  184MOL0     C25288   7.933   3.290   9.138 -0.3937  0.5437 -1.2041
  184MOL0     C25289   8.072   3.309   9.107  0.3018 -0.2698  0.0855
  184MOL0     O25290   8.146   3.198   9.086 -0.2089 -1.0526 -0.0768
  184MOL0     C25291   8.281   3.220   9.035 -0.1755  1.0406 -0.4411
  184MOL0     C25292   8.358   3.082   9.014  0.2650 -0.0309 -0.2905
  184MOL0     C25293   8.270   2.966   8.951 -0.4277  0.0653  0.5805
  184MOL0     C25294   8.336   2.831   8.967 -0.7246 -0.0004 -0.2055
  184MOL0     C25295   8.263   2.715   8.898 -0.7160 -0.2876  0.1448
  184MOL0     C25296   8.368   2.603   8.862 -0.3362  0.2406  0.2482
  184MOL0     C25297   8.313   2.462   8.802  0.3210 -0.3339  0.1084
  184MOL0     C25298   8.431   2.365   8.774  0.0606  0.0617  1.2046
  184MOL0    Cl25299   8.362   2.213   8.692  0.1258 -0.1673  0.3568
  184MOL0     C25300   8.116   3.445   9.102  0.5641  0.1768  0.7302
  184MOL0     C25301   8.034   3.551   9.139  0.2941 -0.1350 -0.2363
  184MOL0     O25302   7.896   3.693   9.358 -0.1064  0.3930  0.6504
  184MOL0     C25303   7.720   3.913   9.363  0.0683 -0.1962  0.1521
  184MOL0     C25304   7.618   4.009   9.380 -0.4263  0.3607  0.7546
  184MOL0     N25305   7.114   4.476   9.416 -0.1012 -0.2791  0.3317
  184MOL0     N25306   7.126   4.597   9.426 -0.6384 -0.9810 -0.6067
  184MOL0     C25307   6.904   5.774   9.296  0.1743  0.0455  0.0255
  184MOL0     C25308   6.905   5.915   9.320  0.2466  0.8728  0.3399
  184MOL0     C25309   6.856   6.288   9.547 -0.3305 -0.0726 -0.1070
  184MOL0     C25310   6.781   6.374   9.454  0.0754 -1.0138 -0.2497
  184MOL0     C25311   6.791   6.511   9.462 -0.0441  0.6515 -0.4897
  184MOL0     C25312   6.873   6.577   9.555  0.5950 -0.1163 -0.3839
  184MOL0     O25313   6.867   6.715   9.543 -0.0672  0.3004  0.6904
  184MOL0     C25314   6.940   6.796   9.637  0.3706  0.5399  0.7529
  184MOL0     C25315   6.925   6.948   9.606  0.2088 -0.1024  0.7244
  184MOL0     C25316   6.964   6.992   9.463 -0.7474  0.6942  0.5833
  184MOL0     C25317   7.106   6.979   9.411 -0.0328  0.0295  1.0221
  184MOL0     C25318   7.131   7.041   9.282  1.0278  0.2445  0.6757
  184MOL0     C25319   7.157   7.081   9.171  0.6014  0.5007  0.4949
  184MOL0     C25320   6.944   6.498   9.647 -0.2199 -0.9336 -0.2290
  184MOL0     C25321   6.933   6.358   9.646  0.6287 -0.6619  0.0994
  184MOL0     C25322   7.013   6.284   9.755  0.4684  0.7697 -0.5310
  184MOL0     H25323   6.596   5.909   9.468  1.0590 -2.4090  2.2420
  184MOL0     H25324   6.622   5.662   9.414 -0.4269  1.1638  2.9130
  184MOL0     H25325   6.934   5.553   9.152  0.7837  1.1363  3.7718
  184MOL0     H25326   6.776   5.608   9.083 -1.5463 -2.4568  0.2627
  184MOL0     H25327   6.684   5.406   9.069  0.1995  2.6244 -1.5701
  184MOL0     H25328   6.836   5.412   8.983  0.3012  4.5428  1.0475
  184MOL0     H25329   6.920   5.278   9.202  0.6317 -0.2524 -3.6116
  184MOL0     H25330   6.753   5.282   9.251  0.4096 -1.4814  0.7633
  184MOL0     H25331   6.684   5.163   9.055 -0.4305 -0.8184  1.2416
  184MOL0     H25332   6.855   5.143   9.003 -0.4274 -2.2096  0.9622
  184MOL0     H25333   6.714   4.960   9.138 -1.4975 -0.1114  0.4870
  184MOL0     H25334   6.764   5.052   9.278 -0.5659  0.0899 -0.6269
  184MOL0     H25335   6.929   4.920   9.068 -4.9740 -1.6606 -0.0070
  184MOL0     H25336   7.018   5.026   9.191  0.6405 -1.0355 -0.9086
  184MOL0     H25337   6.872   4.764   9.227 -1.4033  1.2283 -0.2942
  184MOL0     H25338   6.906   4.870   9.372  0.1296  0.9538  0.4145
  184MOL0     H25339   7.152   4.804   9.215  3.2042 -0.6377  3.5907
  184MOL0     H25340   7.124   4.831   9.380 -2.7092 -0.4260  2.2071
  184MOL0     H25341   6.973   4.562   9.146  2.3848 -0.0955 -0.3131
  184MOL0     H25342   6.984   4.328   9.141 -1.1147  2.8888  1.5653
  184MOL0     H25343   6.949   4.250   9.300 -0.8754  0.8896 -0.5061
  184MOL0     H25344   7.134   4.134   9.153  0.0467 -0.2035 -0.5002
  184MOL0     H25345   7.231   4.277   9.195  0.2008  0.3376  0.1744
  184MOL0     H25346   7.213   4.239   9.436 -0.2526 -1.9489  2.4570
  184MOL0     H25347   7.085   4.130   9.416 -0.2066 -1.1589 -2.4456
  184MOL0     H25348   7.275   3.997   9.466  0.4583 -0.5843 -0.7157
  184MOL0     H25349   7.238   3.963   9.293 -0.9211 -0.0943 -0.2037
  184MOL0     H25350   7.376   3.849   9.189  0.9673 -1.0040 -0.6375
  184MOL0     H25351   7.558   3.569   9.196 -1.4179 -1.6886 -2.8761
  184MOL0     H25352   7.601   3.656   9.049 -0.3383  1.6475 -0.9632
  184MOL0     H25353   7.435   3.647   9.119  0.9655 -1.0323  0.4670
  184MOL0     H25354   7.746   3.384   9.188 -1.1862  3.0731 -2.6836
  184MOL0     H25355   7.903   3.186   9.130 -0.7710  0.5702 -0.2547
  184MOL0     H25356   8.264   3.278   8.944  1.7168 -1.3475 -2.4807
  184MOL0     H25357   8.346   3.273   9.104  0.9776 -2.6879  1.6545
  184MOL0     H25358   8.434   3.103   8.938 -0.2487 -2.0874 -1.4601
  184MOL0     H25359   8.398   3.051   9.111 -0.3432 -0.5427 -0.1935
  184MOL0     H25360   8.268   2.982   8.843 -1.6140  0.5429  0.6509
  184MOL0     H25361   8.170   2.964   8.996 -2.0853 -1.2221 -2.8518
  184MOL0     H25362   8.358   2.798   9.069 -1.2266  0.2861 -0.0010
  184MOL0     H25363   8.430   2.845   8.912 -1.1725  2.5034 -0.4261
  184MOL0     H25364   8.194   2.666   8.968 -1.6548  0.2417 -0.3981
  184MOL0     H25365   8.217   2.746   8.804  0.3358 -2.0589 -1.0037
  184MOL0     H25366   8.439   2.582   8.942 -0.9759  0.6369  0.9283
  184MOL0     H25367   8.419   2.641   8.773 -0.7763  1.2462  0.4212
  184MOL0     H25368   8.257   2.485   8.711  0.5296 -0.5945 -0.0840
  184MOL0     H25369   8.253   2.413   8.879 -1.1606  2.4435  0.8542
  184MOL0     H25370   8.486   2.338   8.864 -0.3917  0.8930  1.7466
  184MOL0     H25371   8.500   2.414   8.705  1.1945  0.8063  2.8199
  184MOL0     H25372   8.217   3.460   9.066  0.9417  0.4879  1.8808
  184MOL0     H25373   8.060   3.656   9.149 -1.7621  0.3177  1.0796
  184MOL0     H25374   7.816   3.937   9.410  0.1437 -1.7179  0.8461
  184MOL0     H25375   7.649   4.093   9.441 -1.5525  0.7562  0.7949
  184MOL0     H25376   6.993   5.733   9.248  1.1117  0.4062  1.3752
  184MOL0     H25377   6.993   5.972   9.293  1.2483  1.4384  4.1998
  184MOL0     H25378   6.708   6.330   9.388 -1.4422  0.2157  0.5439
  184MOL0     H25379   6.728   6.578   9.406  0.4297  1.3486 -0.2064
  184MOL0     H25380   6.916   6.780   9.743 -1.5992  1.7869  0.5459
  184MOL0     H25381   7.047   6.773   9.632 -0.1448 -1.9516 -0.5810
  184MOL0     H25382   6.987   7.011   9.670  0.0372  0.1818  0.6098
  184MOL0     H25383   6.821   6.978   9.618  0.0591 -0.0964 -0.4500
  184MOL0     H25384   6.895   6.949   9.390  0.7210  0.9413 -1.0267
  184MOL0     H25385   6.956   7.101   9.455  1.7315  0.8274 -1.3202
  184MOL0     H25386   7.137   6.874   9.417 -0.6500 -0.3816 -1.6181
  184MOL0     H25387   7.165   7.031   9.487  2.5362  0.0984 -0.8901
  184MOL0     H25388   7.184   7.116   9.073 -1.2753  0.8287  0.0564
  184MOL0     H25389   7.010   6.539   9.723 -0.2143 -0.6115 -0.4050
  184MOL0     H25390   6.952   6.224   9.824 -1.2806  3.7953  0.7390
  184MOL0     H25391   7.079   6.218   9.699  0.2013  1.0097 -1.1354
  184MOL0     H25392   7.074   6.353   9.814 -0.7351 -0.9117  3.0120
  185MOL0     O25393   3.859   5.561   9.996 -1.0457  0.9059  0.3317
  185MOL0     C25394   3.792   5.515  10.083 -0.2234 -0.1855 -0.4569
  185MOL0     O25395   3.836   5.477  10.209  0.8448 -0.0400  0.0390
  185MOL0     C25396   3.975   5.448  10.230 -0.8194 -0.1005 -0.5952
  185MOL0     C25397   4.031   5.447  10.359 -0.2672 -0.2063 -0.4689
  185MOL0     C25398   4.169   5.428  10.377 -0.0356 -1.1028  0.0431
  185MOL0     C25399   4.250   5.393  10.279  0.0783 -0.2913 -0.6532
  185MOL0     O25400   4.382   5.387  10.324 -0.1676  0.4968  0.4295
  185MOL0     C25401   4.478   5.338  10.231 -0.0899 -0.2332  0.0383
  185MOL0     C25402   4.621   5.314  10.303  0.3187 -0.1812  0.2031
  185MOL0     C25403   4.613   5.239  10.441 -0.6136 -0.0468 -1.0737
  185MOL0     C25404   4.700   5.303  10.556  0.2159  0.3317  0.7574
  185MOL0     C25405   4.735   5.200  10.664 -0.6476  0.4346  0.1453
  185MOL0     C25406   4.856   5.109  10.610  0.8505 -0.2208 -0.0577
  185MOL0     C25407   4.884   4.992  10.710  1.4582 -0.5004  0.4087
  185MOL0     C25408   5.035   4.967  10.722  0.1245  0.6075  0.1284
  185MOL0     N25409   5.118   5.054  10.802  0.3181 -0.6080 -0.4323
  185MOL0     C25410   5.196   5.012  10.907 -0.1009 -0.1344  0.6735
  185MOL0     C25411   5.251   5.118  10.966  0.5721 -0.5041  0.3215
  185MOL0     C25412   5.348   5.137  11.081 -1.4668  0.1474  0.0063
  185MOL0     C25413   5.294   5.095  11.223  0.2817  0.2442 -0.3437
  185MOL0     C25414   5.167   5.164  11.253  0.0842  0.2428 -0.2485
  185MOL0     C25415   5.132   5.160  11.405 -0.3725  0.6060 -0.3941
  185MOL0     O25416   5.217   5.249  11.476 -0.0729 -0.1460 -0.2360
  185MOL0     C25417   5.212   5.384  11.446  0.8571 -0.1709 -0.3064
  185MOL0     C25418   5.101   5.452  11.412  0.0577  1.4366  0.7335
  185MOL0     C25419   5.110   5.589  11.376 -0.3194 -0.2669 -0.5523
  185MOL0     C25420   4.980   5.645  11.333  0.0752  1.1123 -0.5978
  185MOL0     C25421   5.227   5.660  11.388 -0.1885 -0.4556 -0.8721
  185MOL0     C25422   5.250   5.802  11.361  0.7264 -0.2681  0.2129
  185MOL0     O25423   5.354   5.847  11.437  1.0115  0.2073  0.1686
  185MOL0     C25424   5.385   5.983  11.435  0.2715 -0.1715 -0.1739
  185MOL0     C25425   5.288   6.074  11.480 -0.2986  0.5590  0.3153
  185MOL0     C25426   5.314   6.213  11.461  0.2551 -0.9078  0.0821
  185MOL0     C25427   5.436   6.263  11.426 -0.0284  0.3814  0.7241
  185MOL0     O25428   5.458   6.398  11.403 -0.2221  0.0187  0.2904
  185MOL0     C25429   5.517   6.460  11.515  0.1927 -0.1024  0.9308
  185MOL0     C25430   5.587   6.592  11.476 -0.3692 -0.2357 -0.0962
  185MOL0     C25431   5.488   6.702  11.429 -0.3636  0.6540 -0.3221
  185MOL0     C25432   5.538   6.852  11.447  0.7477  0.6955  0.5035
  185MOL0     C25433   5.627   6.885  11.327  0.5555  0.2187 -0.4633
  185MOL0     C25434   5.699   7.011  11.355 -0.4322  0.1827  0.4217
  185MOL0     C25435   5.799   7.036  11.238 -0.5531 -0.1073  0.2625
  185MOL0     C25436   5.861   7.176  11.231 -0.5588 -0.2771 -0.9994
  185MOL0    Cl25437   5.945   7.221  11.083 -0.6037 -0.4811  0.1652
  185MOL0     C25438   5.538   6.168  11.402 -0.3301  0.6483  0.1140
  185MOL0     C25439   5.520   6.030  11.406  0.9980  0.6493  0.1493
  185MOL0     O25440   5.178   5.868  11.292 -0.2561 -0.2167  0.7748
  185MOL0     C25441   5.342   5.592  11.447  0.0261  0.7405  0.8319
  185MOL0     C25442   5.332   5.450  11.457  0.4604  0.9429 -0.2039
  185MOL0     N25443   5.211   5.234  10.888  0.2049  0.3002  0.2589
  185MOL0     N25444   5.123   5.192  10.797 -1.4398 -0.4905  0.3616
  185MOL0     C25445   4.201   5.384  10.150  0.4698  0.5923 -0.7793
  185MOL0     C25446   4.064   5.414  10.126  0.2469 -1.0027 -0.8304
  185MOL0     C25447   3.649   5.546  10.079  0.0484 -0.0667  0.1039
  185MOL0     C25448   3.591   5.667  10.039 -0.0195 -0.7146  0.8404
  185MOL0     C25449   3.454   5.696  10.041 -0.1241  0.6241 -0.0776
  185MOL0     C25450   3.363   5.607  10.088  0.2908  0.4805  0.1121
  185MOL0     O25451   3.229   5.629  10.088 -0.3538 -0.1508 -0.2383
  185MOL0     C25452   3.178   5.759  10.100  0.3581 -0.2133  0.6520
  185MOL0     C25453   3.062   5.747  10.200  0.0832  0.9190  0.9002
  185MOL0     C25454   2.933   5.729  10.116 -0.0519 -0.6207  1.0036
  185MOL0     C25455   2.823   5.674  10.195  0.4924 -0.5527  0.4136
  185MOL0     C25456   2.774   5.779  10.289 -0.6305 -0.0282  0.3150
  185MOL0     C25457   2.732   5.865  10.353 -0.0570  0.0169 -0.2152
  185MOL0     C25458   3.413   5.479  10.116 -0.0634  0.3254  1.9075
  185MOL0     C25459   3.552   5.452  10.130 -0.5664  0.6127  0.6180
  185MOL0     C25460   3.583   5.301  10.172 -0.3616 -0.1394  0.5130
  185MOL0     H25461   3.970   5.475  10.445 -0.2231  0.9518 -0.8044
  185MOL0     H25462   4.205   5.448  10.477  0.4183  1.5190 -0.5636
  185MOL0     H25463   4.488   5.413  10.152 -2.2650 -3.1713 -3.3759
  185MOL0     H25464   4.446   5.247  10.179 -0.1073 -0.0079 -0.3529
  185MOL0     H25465   4.678   5.252  10.233 -1.8080 -0.7814 -1.0735
  185MOL0     H25466   4.671   5.411  10.310  0.1784 -0.0002 -1.0788
  185MOL0     H25467   4.508   5.216  10.460 -0.1047 -2.0612 -0.4383
  185MOL0     H25468   4.661   5.143  10.424  0.7532  0.5890 -0.9570
  185MOL0     H25469   4.792   5.334  10.507 -0.1131  0.3304  0.1180
  185MOL0     H25470   4.651   5.388  10.604  1.7672  2.4478 -1.1934
  185MOL0     H25471   4.645   5.147  10.696 -1.6157  1.0092 -1.4982
  185MOL0     H25472   4.771   5.254  10.753 -2.6739 -1.0322  1.9544
  185MOL0     H25473   4.851   5.068  10.509  3.0401 -0.5950 -0.0596
  185MOL0     H25474   4.940   5.179  10.604  0.9361 -0.3461 -0.3039
  185MOL0     H25475   4.852   4.900  10.661  5.2340 -1.6405 -0.2640
  185MOL0     H25476   4.833   5.012  10.805 -3.0362 -1.3863 -1.5587
  185MOL0     H25477   5.041   4.863  10.753  4.2857 -0.1135 -2.3421
  185MOL0     H25478   5.067   4.970  10.617 -1.9194 -0.7249 -0.5993
  185MOL0     H25479   5.211   4.910  10.939  1.6826 -0.4107 -0.8257
  185MOL0     H25480   5.376   5.243  11.077 -1.8615  0.2223 -2.3095
  185MOL0     H25481   5.440   5.082  11.060  1.2777  4.3043 -0.2179
  185MOL0     H25482   5.279   4.986  11.223 -0.3681  0.3274  0.4102
  185MOL0     H25483   5.373   5.116  11.296 -0.2029  0.0475  0.2441
  185MOL0     H25484   5.161   5.266  11.216  1.2976  0.8761  1.1732
  185MOL0     H25485   5.096   5.113  11.188  0.7488 -1.3735  0.2222
  185MOL0     H25486   5.030   5.199  11.420  0.7772  3.2065  1.2964
  185MOL0     H25487   5.137   5.054  11.432 -1.1478 -0.2925 -3.3291
  185MOL0     H25488   5.004   5.403  11.416  0.5453 -0.4953 -4.0696
  185MOL0     H25489   4.995   5.701  11.240 -0.9597  0.6197 -1.0937
  185MOL0     H25490   4.926   5.702  11.409 -0.9326 -0.7571  0.1567
  185MOL0     H25491   4.915   5.561  11.305  1.7934  0.2053 -2.0822
  185MOL0     H25492   5.183   6.054  11.500 -0.5749  1.4546 -0.1611
  185MOL0     H25493   5.236   6.288  11.479  0.7522 -0.9215  2.6857
  185MOL0     H25494   5.441   6.474  11.593 -2.1337 -0.4475 -1.1303
  185MOL0     H25495   5.597   6.397  11.553  1.1801  0.4730 -0.1383
  185MOL0     H25496   5.649   6.630  11.557 -1.3476  0.0758  0.5192
  185MOL0     H25497   5.659   6.580  11.395 -1.2658  1.9193 -1.3086
  185MOL0     H25498   5.392   6.674  11.473  1.4358 -0.5631  3.2363
  185MOL0     H25499   5.480   6.682  11.322 -2.6627  1.1441 -0.3049
  185MOL0     H25500   5.584   6.852  11.546  1.7702  0.0322  0.0398
  185MOL0     H25501   5.458   6.927  11.452 -1.9549 -2.0530  1.1966
  185MOL0     H25502   5.698   6.804  11.309 -2.2682 -2.4208 -0.4207
  185MOL0     H25503   5.561   6.915  11.245 -0.9375  0.1292  0.6705
  185MOL0     H25504   5.754   7.000  11.448 -0.9953 -2.4114  0.5274
  185MOL0     H25505   5.635   7.097  11.378 -0.7651 -0.6485  2.9323
  185MOL0     H25506   5.738   7.031  11.147 -0.1758  0.1645 -0.0102
  185MOL0     H25507   5.867   6.951  11.222  2.7071  2.3502 -0.0126
  185MOL0     H25508   5.939   7.184  11.307 -2.5187 -0.7063  1.1730
  185MOL0     H25509   5.788   7.251  11.260  1.7446  1.1910  1.5717
  185MOL0     H25510   5.638   6.200  11.375  1.1041 -2.9137  0.6219
  185MOL0     H25511   5.600   5.959  11.388  0.1186 -0.2781 -0.1873
  185MOL0     H25512   5.430   5.655  11.450 -2.3303  4.3474  4.4781
  185MOL0     H25513   5.409   5.396  11.511 -3.0630 -1.7268  2.6858
  185MOL0     H25514   4.259   5.352  10.064  1.8913  0.2763  0.2737
  185MOL0     H25515   4.027   5.398  10.025 -0.4758 -0.2924 -0.6903
  185MOL0     H25516   3.649   5.758  10.025 -0.9061  0.0205  1.8121
  185MOL0     H25517   3.434   5.798  10.010  1.0258  0.9374  0.1631
  185MOL0     H25518   3.247   5.831  10.143  0.6851 -0.0597 -0.1137
  185MOL0     H25519   3.147   5.798  10.002  4.7881  4.2455  0.6442
  185MOL0     H25520   3.058   5.848  10.244 -0.5012  1.6699 -0.7924
  185MOL0     H25521   3.078   5.671  10.277  0.8834 -1.2322 -1.2991
  185MOL0     H25522   2.893   5.813  10.059 -2.7934 -0.3120  3.1579
  185MOL0     H25523   2.952   5.662  10.031  0.6343  1.0066 -0.1771
  185MOL0     H25524   2.861   5.583  10.242  0.8502  1.2657  3.9833
  185MOL0     H25525   2.738   5.650  10.131 -0.7229 -1.3361  2.2318
  185MOL0     H25526   2.681   5.940  10.410 -0.6031 -1.5340  1.4150
  185MOL0     H25527   3.335   5.409  10.143  1.2904 -1.7922  0.6353
  185MOL0     H25528   3.680   5.276  10.128  0.5569 -0.8560  2.8102
  185MOL0     H25529   3.588   5.297  10.281 -1.2481  0.0609  0.5684
  185MOL0     H25530   3.512   5.226  10.137  1.7753 -1.3703 -1.4396
  186MOL0     O25531   5.401   6.187   9.862  0.4718 -0.5548  0.8911
  186MOL0     C25532   5.472   6.146   9.954 -0.3689  0.1586  0.3285
  186MOL0     O25533   5.523   6.015   9.962  1.5019  0.0972  0.3167
  186MOL0     C25534   5.498   5.928   9.856 -0.0053  0.8103  0.5095
  186MOL0     C25535   5.477   5.954   9.722  0.5584 -0.5953 -0.3839
  186MOL0     C25536   5.445   5.857   9.630 -0.5443  0.2945 -1.0824
  186MOL0     C25537   5.438   5.721   9.676  0.0643 -0.8399  0.3015
  186MOL0     O25538   5.403   5.627   9.588  0.0223 -0.0193 -0.0086
  186MOL0     C25539   5.361   5.497   9.636 -0.1785  0.9728  0.9153
  186MOL0     C25540   5.303   5.413   9.525 -0.2999 -0.4603  0.3563
  186MOL0     C25541   5.388   5.430   9.396  0.8079  0.2877 -0.4510
  186MOL0     C25542   5.474   5.308   9.371 -0.7522  0.8683  0.0103
  186MOL0     C25543   5.542   5.311   9.233  1.1708 -0.0336  0.4839
  186MOL0     C25544   5.651   5.198   9.222  0.4399 -0.3018 -0.7765
  186MOL0     C25545   5.740   5.220   9.096 -0.3423  0.0993  0.2978
  186MOL0     C25546   5.765   5.081   9.029 -1.2805  0.5831  0.6660
  186MOL0     N25547   5.867   5.082   8.917  0.3817 -0.0965 -0.3492
  186MOL0     C25548   5.900   5.185   8.840 -0.4135 -0.0204  0.4440
  186MOL0     C25549   5.992   5.139   8.749  0.1258  0.4486  0.5633
  186MOL0     C25550   6.025   5.215   8.623  0.3731  0.7101 -0.0089
  186MOL0     C25551   6.162   5.257   8.612 -0.1251 -1.1485  0.0208
  186MOL0     C25552   6.189   5.306   8.471  0.7836  0.3090  0.6060
  186MOL0     C25553   6.331   5.344   8.446 -0.1561  0.7450 -0.7263
  186MOL0     O25554   6.405   5.215   8.443 -0.1839 -0.0721 -0.5338
  186MOL0     C25555   6.536   5.224   8.454 -1.2027  0.4352  0.3425
  186MOL0     C25556   6.612   5.309   8.389  0.4651 -0.7630 -0.2794
  186MOL0     C25557   6.758   5.307   8.394 -0.1052 -0.3736  0.1647
  186MOL0     C25558   6.829   5.416   8.312  0.1831  0.3107 -0.2082
  186MOL0     C25559   6.821   5.208   8.471 -0.1965 -0.0579 -0.1717
  186MOL0     C25560   6.972   5.193   8.473  0.6179  0.2894 -0.3691
  186MOL0     O25561   7.026   5.072   8.456 -0.8466 -0.2930 -0.0426
  186MOL0     C25562   7.162   5.057   8.477 -0.3155  0.2133  0.1723
  186MOL0     C25563   7.195   4.992   8.596 -0.6053 -0.2215 -0.2800
  186MOL0     C25564   7.328   4.973   8.620 -0.4469 -0.0680 -0.7453
  186MOL0     C25565   7.426   5.017   8.528 -1.1104 -0.2645  0.4662
  186MOL0     O25566   7.555   4.996   8.566  0.1228 -0.1592 -0.6690
  186MOL0     C25567   7.650   4.952   8.470 -1.0708 -0.1555  0.7299
  186MOL0     C25568   7.755   4.874   8.538 -0.3009 -0.7097 -0.0830
  186MOL0     C25569   7.861   4.823   8.439  0.1175  0.8940 -0.7420
  186MOL0     C25570   7.807   4.720   8.331 -0.6557 -1.0245 -0.2248
  186MOL0     C25571   7.917   4.627   8.296 -0.3292  0.1335  0.3924
  186MOL0     C25572   7.866   4.540   8.181  0.0229 -0.8271  0.1285
  186MOL0     C25573   7.963   4.447   8.110  0.1767 -0.0879 -0.1576
  186MOL0     C25574   7.894   4.331   8.036 -0.1684 -0.4380 -0.2192
  186MOL0    Cl25575   7.804   4.382   7.894  0.2280  0.1080 -0.0634
  186MOL0     C25576   7.384   5.070   8.400  0.4959 -0.5408 -0.1083
  186MOL0     C25577   7.253   5.089   8.379  0.3115 -0.5505 -0.7354
  186MOL0     O25578   7.034   5.300   8.490 -0.0210  0.4424 -0.6249
  186MOL0     C25579   6.741   5.115   8.544  0.0419 -0.2722  0.3468
  186MOL0     C25580   6.601   5.128   8.531  0.0703  0.1804 -0.4380
  186MOL0     N25581   6.013   5.005   8.774  0.7545 -0.6001  0.1587
  186MOL0     N25582   5.937   4.974   8.877  0.3347 -0.1200 -0.4620
  186MOL0     C25583   5.478   5.691   9.804 -0.4601  0.2179 -0.4541
  186MOL0     C25584   5.501   5.793   9.902  0.5152 -0.2440 -0.1338
  186MOL0     C25585   5.501   6.234  10.073 -0.2838  0.4634  0.1466
  186MOL0     C25586   5.523   6.165  10.191 -0.1102 -0.3458 -0.0926
  186MOL0     C25587   5.553   6.230  10.312  0.6275 -0.2330  0.2917
  186MOL0     C25588   5.553   6.369  10.319 -0.0543 -0.0309  1.1844
  186MOL0     O25589   5.560   6.433  10.434 -0.5571 -0.6662  0.0251
  186MOL0     C25590   5.585   6.359  10.555 -0.0470 -0.5000 -0.3419
  186MOL0     C25591   5.620   6.463  10.654 -0.3922  0.0205 -0.0678
  186MOL0     C25592   5.492   6.514  10.723  0.5170  0.3839  0.2623
  186MOL0     C25593   5.537   6.618  10.825 -0.7451 -0.0972 -0.0867
  186MOL0     C25594   5.444   6.698  10.897  0.9060 -0.6803  0.0117
  186MOL0     C25595   5.372   6.774  10.966  0.2415  0.1811  1.1917
  186MOL0     C25596   5.540   6.440  10.196 -0.2120 -0.8479 -0.3110
  186MOL0     C25597   5.503   6.375  10.073  0.7731  0.5319 -0.4620
  186MOL0     C25598   5.487   6.454   9.951 -0.3687 -0.0854  1.2090
  186MOL0     H25599   5.485   6.055   9.684 -1.9921  1.2414  3.2559
  186MOL0     H25600   5.423   5.899   9.532  1.6954  3.6863 -0.3022
  186MOL0     H25601   5.273   5.532   9.691 -2.6957  1.7377 -3.1435
  186MOL0     H25602   5.436   5.442   9.693 -0.2136 -0.4816 -0.3934
  186MOL0     H25603   5.289   5.309   9.554 -1.3489 -0.6293 -0.6887
  186MOL0     H25604   5.205   5.455   9.503  1.2640  2.0280 -2.7587
  186MOL0     H25605   5.310   5.435   9.319 -0.5496 -4.9481  0.2009
  186MOL0     H25606   5.449   5.520   9.382  1.9434 -0.1837  1.1950
  186MOL0     H25607   5.551   5.303   9.449 -0.3707 -0.7279 -0.4293
  186MOL0     H25608   5.415   5.216   9.379  2.1186 -1.1346 -0.1586
  186MOL0     H25609   5.597   5.405   9.227  1.9729 -0.5650 -1.0729
  186MOL0     H25610   5.472   5.311   9.149  0.4523  1.8442  1.0257
  186MOL0     H25611   5.708   5.199   9.315  0.4480 -0.3690 -0.7811
  186MOL0     H25612   5.605   5.099   9.225 -2.2099  0.8494  1.4980
  186MOL0     H25613   5.836   5.265   9.124  1.1771 -0.8356 -2.9598
  186MOL0     H25614   5.690   5.288   9.025  0.0103 -2.2604 -2.3810
  186MOL0     H25615   5.813   5.019   9.105  0.7577 -0.0527 -1.0617
  186MOL0     H25616   5.672   5.032   9.000 -1.4238  1.3693 -0.2798
  186MOL0     H25617   5.854   5.281   8.818 -0.2150 -0.2354 -0.9483
  186MOL0     H25618   5.971   5.310   8.626  1.3435  1.2643  0.4558
  186MOL0     H25619   5.996   5.147   8.542  0.2380  0.3271  0.3627
  186MOL0     H25620   6.182   5.338   8.683  1.9588 -1.2587 -0.3579
  186MOL0     H25621   6.234   5.180   8.641  2.5435  1.6117  1.2528
  186MOL0     H25622   6.166   5.224   8.402 -3.2999  0.0539  2.0067
  186MOL0     H25623   6.121   5.387   8.441 -2.0316 -2.6955 -1.9175
  186MOL0     H25624   6.340   5.407   8.357  2.0975 -3.3000 -3.7116
  186MOL0     H25625   6.366   5.394   8.537  2.1862 -1.9215 -0.0245
  186MOL0     H25626   6.566   5.396   8.344  0.1207  0.1088  1.6345
  186MOL0     H25627   6.905   5.378   8.242  1.9316  3.5537 -0.2468
  186MOL0     H25628   6.892   5.479   8.375 -0.6071  1.3682 -0.4518
  186MOL0     H25629   6.755   5.480   8.264  1.9647  2.4452 -0.2437
  186MOL0     H25630   7.122   4.950   8.664  0.8020 -2.1384  0.1311
  186MOL0     H25631   7.357   4.920   8.710  1.9945 -1.8312 -2.4380
  186MOL0     H25632   7.603   4.886   8.398  2.1037 -1.3418 -0.4381
  186MOL0     H25633   7.700   5.034   8.417 -0.4079 -1.0027  0.0147
  186MOL0     H25634   7.809   4.939   8.608 -0.5215  3.3574 -3.2637
  186MOL0     H25635   7.706   4.790   8.588 -0.7237 -1.0444 -1.0365
  186MOL0     H25636   7.941   4.782   8.501 -2.5535 -0.7463  1.8721
  186MOL0     H25637   7.899   4.902   8.373 -0.4285 -0.1830 -2.4089
  186MOL0     H25638   7.776   4.769   8.239  2.9584 -1.6741 -1.9530
  186MOL0     H25639   7.724   4.663   8.374  0.5697 -1.8095  1.2325
  186MOL0     H25640   8.012   4.676   8.273  0.3687 -0.4706  1.8414
  186MOL0     H25641   7.941   4.562   8.381  0.2782 -0.6400 -0.3482
  186MOL0     H25642   7.817   4.601   8.105 -2.0740 -0.7351  1.4696
  186MOL0     H25643   7.793   4.468   8.219 -0.2897 -0.7922 -0.4016
  186MOL0     H25644   8.022   4.407   8.194 -2.6234  2.3514  3.2908
  186MOL0     H25645   8.024   4.501   8.037 -0.4025  2.7979  1.3531
  186MOL0     H25646   7.840   4.269   8.108  1.8971 -0.2992  1.5624
  186MOL0     H25647   7.979   4.269   8.006  0.3690  0.0453  0.2802
  186MOL0     H25648   7.459   5.092   8.324  2.2932  0.4129  1.8336
  186MOL0     H25649   7.217   5.134   8.287  2.1717  1.5879 -0.4956
  186MOL0     H25650   6.792   5.043   8.608  2.3809 -0.3024 -1.4339
  186MOL0     H25651   6.532   5.057   8.574 -0.8069  0.1491 -1.8178
  186MOL0     H25652   5.484   5.585   9.828 -1.4698 -0.0190 -1.1540
  186MOL0     H25653   5.522   5.779  10.008 -1.4724 -1.6790  0.1458
  186MOL0     H25654   5.533   6.058  10.198 -0.6416 -0.3918 -0.0382
  186MOL0     H25655   5.581   6.169  10.397  2.0239  0.1700  0.1370
  186MOL0     H25656   5.504   6.291  10.582  0.3917 -1.2404 -0.8614
  186MOL0     H25657   5.669   6.290  10.543 -1.7658 -3.0283  1.1175
  186MOL0     H25658   5.678   6.536  10.595  1.1686  0.9665  2.4921
  186MOL0     H25659   5.690   6.428  10.730  0.8175 -0.4818 -1.3704
  186MOL0     H25660   5.412   6.549  10.657 -0.6830 -0.6308  1.1215
  186MOL0     H25661   5.456   6.430  10.783  2.2790 -1.4522 -1.1404
  186MOL0     H25662   5.603   6.686  10.770  0.2405 -1.2002 -0.3014
  186MOL0     H25663   5.584   6.577  10.914 -4.5403 -4.1203  0.4023
  186MOL0     H25664   5.313   6.833  11.033  1.9871  0.8409  2.2081
  186MOL0     H25665   5.561   6.544  10.216  0.2254 -0.7084 -1.4364
  186MOL0     H25666   5.550   6.419   9.869 -1.5669  1.3690 -0.4084
  186MOL0     H25667   5.383   6.451   9.919  0.0123  1.4207 -0.2968
  186MOL0     H25668   5.516   6.557   9.976 -1.5560 -0.0300  2.4985
  187MOL0     O25669   2.058   4.858   8.688  0.9469  0.5287 -0.1416
  187MOL0     C25670   2.038   4.797   8.793  0.1897  0.0389  0.0419
  187MOL0     O25671   2.070   4.670   8.817 -0.2815 -0.2791  0.7592
  187MOL0     C25672   2.161   4.599   8.737 -0.2528 -0.5014  0.7864
  187MOL0     C25673   2.139   4.585   8.594  0.4281 -0.4785  0.3321
  187MOL0     C25674   2.228   4.509   8.511  0.0638  0.0492  0.4389
  187MOL0     C25675   2.322   4.434   8.570 -0.0681 -0.3532 -0.3571
  187MOL0     O25676   2.396   4.374   8.471  0.2780  0.3457 -0.1716
  187MOL0     C25677   2.478   4.272   8.520 -0.0646 -0.1287  0.0910
  187MOL0     C25678   2.417   4.156   8.600 -0.3189 -0.5639 -0.3554
  187MOL0     C25679   2.291   4.105   8.538  0.4336  0.7957 -0.6479
  187MOL0     C25680   2.234   3.990   8.621  0.1402 -0.0050  1.0145
  187MOL0     C25681   2.081   3.977   8.571  0.5689  0.1208 -0.6248
  187MOL0     C25682   1.996   3.853   8.617  0.4540 -0.3866  0.5271
  187MOL0     C25683   2.045   3.722   8.545 -1.0095 -0.7782 -0.0346
  187MOL0     C25684   1.935   3.615   8.553  0.2234 -0.0412  0.0717
  187MOL0     N25685   1.949   3.500   8.463 -1.0743  0.4311  0.7647
  187MOL0     C25686   2.035   3.402   8.494  0.2189 -0.0280  0.5204
  187MOL0     C25687   2.039   3.322   8.385  0.5515 -0.5112 -0.1682
  187MOL0     C25688   2.111   3.189   8.357  1.1647 -0.1075 -0.0206
  187MOL0     C25689   2.110   3.108   8.492 -0.7900 -0.7488  0.0678
  187MOL0     C25690   2.224   3.147   8.588 -0.5712 -0.1005  0.3367
  187MOL0     C25691   2.280   3.033   8.666  0.2690  0.7702  0.0248
  187MOL0     O25692   2.369   3.084   8.769 -0.6842 -0.8887 -0.5717
  187MOL0     C25693   2.459   2.998   8.825 -0.1474 -0.0502 -1.0618
  187MOL0     C25694   2.433   2.859   8.854 -0.2222  0.3834 -1.1198
  187MOL0     C25695   2.522   2.776   8.927 -0.1182 -0.4186 -0.9131
  187MOL0     C25696   2.487   2.643   8.985  0.7033  0.8436 -0.2104
  187MOL0     C25697   2.644   2.837   8.967  0.5319 -1.1820  0.6240
  187MOL0     C25698   2.744   2.776   9.057  0.9696  0.6395  0.1053
  187MOL0     O25699   2.774   2.636   9.041  0.8091  0.3678 -0.2878
  187MOL0     C25700   2.879   2.569   9.105  0.0432 -0.4918  0.8655
  187MOL0     C25701   2.879   2.429   9.085  0.6133  0.1093 -0.7013
  187MOL0     C25702   2.992   2.358   9.136 -0.6069  0.3387  0.0992
  187MOL0     C25703   3.081   2.414   9.224 -1.0341 -0.4920 -0.6227
  187MOL0     O25704   3.177   2.329   9.275 -0.0419  0.1284 -0.1099
  187MOL0     C25705   3.311   2.373   9.316 -0.0022  0.5428 -1.0375
  187MOL0     C25706   3.383   2.450   9.201 -0.5776 -0.1998 -0.6288
  187MOL0     C25707   3.533   2.477   9.250 -0.5849 -0.5444  0.3385
  187MOL0     C25708   3.615   2.504   9.117  0.5562 -1.4802 -0.7135
  187MOL0     C25709   3.752   2.555   9.178 -0.1442  0.3703  0.2765
  187MOL0     C25710   3.762   2.705   9.214 -0.1107 -0.5494  0.0598
  187MOL0     C25711   3.910   2.724   9.272 -0.7254 -0.1710  0.8770
  187MOL0     C25712   3.993   2.800   9.179 -0.0349 -0.4759 -0.2056
  187MOL0    Cl25713   3.943   2.962   9.187  0.3342 -0.5612  0.6550
  187MOL0     C25714   3.086   2.556   9.232  0.3047 -0.1077 -0.3708
  187MOL0     C25715   2.987   2.629   9.166  0.8831 -0.2987 -0.0322
  187MOL0     O25716   2.780   2.846   9.148 -0.7962 -0.6401  0.5107
  187MOL0     C25717   2.674   2.973   8.924  0.1004 -0.1903 -0.2035
  187MOL0     C25718   2.581   3.046   8.858 -0.6674 -0.3805 -0.3804
  187MOL0     N25719   1.966   3.386   8.283 -1.2308 -0.3931 -0.4093
  187MOL0     N25720   1.912   3.484   8.336  0.5364 -0.2730 -0.7379
  187MOL0     C25721   2.353   4.443   8.706  1.0348  0.2020 -0.6274
  187MOL0     C25722   2.263   4.515   8.790  0.4767  1.0132  0.6945
  187MOL0     C25723   1.967   4.873   8.900  0.2697 -0.2305  0.3678
  187MOL0     C25724   1.944   4.799   9.016  0.1043 -0.2758  0.0443
  187MOL0     C25725   1.876   4.854   9.131  0.2180  0.3628  0.0596
  187MOL0     C25726   1.847   4.990   9.130 -0.1852 -0.3049 -1.0183
  187MOL0     O25727   1.796   5.057   9.243 -0.0649 -0.1831  0.2899
  187MOL0     C25728   1.647   5.024   9.246  0.0250  0.3636 -0.7012
  187MOL0     C25729   1.611   5.064   9.395 -0.2519  0.3557  0.2724
  187MOL0     C25730   1.628   5.211   9.419 -0.1722  0.0882  1.2551
  187MOL0     C25731   1.594   5.263   9.561 -0.0073 -0.3777 -0.5085
  187MOL0     C25732   1.453   5.251   9.602  0.5078 -0.1932 -0.2466
  187MOL0     C25733   1.333   5.238   9.617 -0.2830 -0.6833 -1.0140
  187MOL0     C25734   1.866   5.057   9.011  0.3695 -0.4089  0.0628
  187MOL0     C25735   1.917   5.003   8.893  0.3044  0.1927 -0.1272
  187MOL0     C25736   1.941   5.094   8.774 -0.4199 -0.8644  0.0045
  187MOL0     H25737   2.050   4.628   8.549 -1.2573 -1.5448  2.4630
  187MOL0     H25738   2.212   4.521   8.405 -2.0161  6.2856  1.0776
  187MOL0     H25739   2.557   4.320   8.579 -1.1778  1.5707  0.2835
  187MOL0     H25740   2.530   4.226   8.435 -1.9411  0.0434 -1.2054
  187MOL0     H25741   2.499   4.086   8.584  2.4830  2.4820 -0.4786
  187MOL0     H25742   2.410   4.188   8.705 -1.7231 -0.0616 -0.5787
  187MOL0     H25743   2.216   4.184   8.550  1.5066  1.7825 -0.2056
  187MOL0     H25744   2.308   4.065   8.438 -1.3625 -1.0217 -0.2952
  187MOL0     H25745   2.278   3.895   8.588  0.1343  0.0191  0.9373
  187MOL0     H25746   2.236   4.008   8.729  0.9237  0.4702  0.9252
  187MOL0     H25747   2.082   3.982   8.462 -1.5920 -0.3985 -0.7273
  187MOL0     H25748   2.013   4.057   8.602 -0.8038 -0.8477 -1.0083
  187MOL0     H25749   1.997   3.829   8.723 -5.4473  1.6787  1.4265
  187MOL0     H25750   1.892   3.883   8.600 -0.2562 -1.4971  2.6170
  187MOL0     H25751   2.129   3.672   8.594 -0.4414 -0.5848 -0.7947
  187MOL0     H25752   2.072   3.761   8.447 -0.7602  0.9228  0.6715
  187MOL0     H25753   1.927   3.584   8.657  1.8934  4.3471  1.7779
  187MOL0     H25754   1.838   3.656   8.525 -0.0006 -0.2038  0.6037
  187MOL0     H25755   2.095   3.370   8.579  1.5902 -2.8204 -1.3168
  187MOL0     H25756   2.215   3.212   8.331  0.9086  1.7981  0.4568
  187MOL0     H25757   2.062   3.126   8.282 -3.4125  0.7807  1.8627
  187MOL0     H25758   2.016   3.131   8.544  0.2086  2.2453  0.7287
  187MOL0     H25759   2.119   3.002   8.465  2.0461 -0.3761 -0.7797
  187MOL0     H25760   2.305   3.191   8.530  0.4024  1.0223  2.4424
  187MOL0     H25761   2.185   3.221   8.659  0.5129  0.8136  0.0109
  187MOL0     H25762   2.195   2.988   8.718  2.0305 -0.5154  1.9585
  187MOL0     H25763   2.320   2.957   8.598 -3.2524 -2.1435  0.9250
  187MOL0     H25764   2.336   2.825   8.819 -0.6151 -0.2160  0.4856
  187MOL0     H25765   2.378   2.639   8.986  0.6467  2.2217  0.3143
  187MOL0     H25766   2.519   2.631   9.089 -3.3360  2.4674  1.4461
  187MOL0     H25767   2.526   2.560   8.925 -0.2225 -1.7838  2.5339
  187MOL0     H25768   2.788   2.394   9.038 -2.4033  2.9301  2.4635
  187MOL0     H25769   2.987   2.250   9.144 -1.2542  0.2849 -0.9290
  187MOL0     H25770   3.298   2.440   9.401  1.4282  0.5217 -0.7859
  187MOL0     H25771   3.348   2.274   9.343 -0.6541  0.8175  0.9881
  187MOL0     H25772   3.386   2.380   9.117  1.7186  0.4310 -1.1374
  187MOL0     H25773   3.338   2.544   9.167  3.3770  3.1748  2.3449
  187MOL0     H25774   3.579   2.392   9.300 -0.4777 -2.1190 -2.2515
  187MOL0     H25775   3.544   2.567   9.312  2.4601  0.2383 -1.1040
  187MOL0     H25776   3.555   2.577   9.062 -1.7349 -1.9238  1.0656
  187MOL0     H25777   3.632   2.414   9.057 -2.6786 -1.0184 -2.5472
  187MOL0     H25778   3.763   2.496   9.270 -2.8135  0.2518  0.5925
  187MOL0     H25779   3.837   2.529   9.115 -0.0488  1.6317 -0.1494
  187MOL0     H25780   3.694   2.739   9.292 -1.5499 -2.3814 -0.3152
  187MOL0     H25781   3.740   2.753   9.118  1.1397 -3.0522 -1.5846
  187MOL0     H25782   3.956   2.627   9.293  0.5130  0.9747  4.1476
  187MOL0     H25783   3.902   2.765   9.373 -0.5342 -0.7657  1.1377
  187MOL0     H25784   3.981   2.766   9.076 -1.3867 -0.0220 -0.2102
  187MOL0     H25785   4.100   2.797   9.201 -0.1738  1.7896  1.1362
  187MOL0     H25786   3.154   2.604   9.302 -1.6739  0.4890  1.2055
  187MOL0     H25787   2.985   2.736   9.180  1.4311 -0.1139 -1.2070
  187MOL0     H25788   2.778   2.998   8.946  0.0250 -0.0435 -0.0054
  187MOL0     H25789   2.594   3.149   8.825  0.3960  0.3089  1.9845
  187MOL0     H25790   2.446   4.404   8.746  1.0725  0.4545 -0.4710
  187MOL0     H25791   2.280   4.510   8.897 -3.7251  2.2008  1.5968
  187MOL0     H25792   1.968   4.693   9.022 -1.9412 -0.7948 -0.0137
  187MOL0     H25793   1.852   4.809   9.227 -0.0053 -1.0740 -0.6429
  187MOL0     H25794   1.591   5.093   9.182 -0.3333  0.6049 -0.1335
  187MOL0     H25795   1.614   4.922   9.223  0.2807  0.3054 -0.8038
  187MOL0     H25796   1.670   5.000   9.461  0.7080  0.6165 -0.3024
  187MOL0     H25797   1.508   5.032   9.414 -1.3881  1.3847 -3.2893
  187MOL0     H25798   1.732   5.241   9.407 -0.2492 -0.6535 -2.6275
  187MOL0     H25799   1.581   5.280   9.347  0.5226  1.3553  1.9829
  187MOL0     H25800   1.627   5.367   9.563 -3.1240  0.7087  1.2376
  187MOL0     H25801   1.649   5.201   9.632 -4.4227 -3.6543  0.4590
  187MOL0     H25802   1.228   5.223   9.624 -0.3215 -0.8309 -1.8197
  187MOL0     H25803   1.829   5.159   9.005 -1.0348 -0.9852 -2.2699
  187MOL0     H25804   2.044   5.120   8.746 -0.9280  4.5014  1.8778
  187MOL0     H25805   1.890   5.072   8.680 -1.0423  2.7771 -0.6461
  187MOL0     H25806   1.910   5.198   8.791  0.3655  0.1658 -3.8755
  188MOL0     O25807   3.873   4.661  10.301  0.0890 -0.6590 -0.1321
  188MOL0     C25808   3.914   4.554  10.250 -0.8998  0.5712 -0.9778
  188MOL0     O25809   4.022   4.542  10.169 -0.0979 -0.4675 -0.1272
  188MOL0     C25810   4.058   4.666  10.116 -0.3514  0.2810  0.9263
  188MOL0     C25811   4.140   4.755  10.187 -0.3033  0.6513  0.2144
  188MOL0     C25812   4.185   4.872  10.119  0.7043 -0.3074 -0.3125
  188MOL0     C25813   4.159   4.898   9.983  0.2153 -0.4978 -0.0094
  188MOL0     O25814   4.204   5.018   9.945 -0.8924 -0.1104  0.6891
  188MOL0     C25815   4.121   5.085   9.847 -0.6145  0.5848  0.0350
  188MOL0     C25816   4.173   5.221   9.807 -0.0412 -0.9553 -0.1462
  188MOL0     C25817   4.302   5.222   9.740  0.9760 -0.0479 -0.0426
  188MOL0     C25818   4.335   5.355   9.667 -0.2340  0.1809  0.1097
  188MOL0     C25819   4.472   5.343   9.592  0.0820 -0.8239  0.3480
  188MOL0     C25820   4.509   5.463   9.502 -0.6152  0.6473  1.0605
  188MOL0     C25821   4.646   5.444   9.430  0.5075  0.2144  0.4996
  188MOL0     C25822   4.657   5.312   9.346 -0.0699  0.1479 -0.2679
  188MOL0     N25823   4.797   5.320   9.282 -0.6863 -0.2408  0.3253
  188MOL0     C25824   4.897   5.223   9.289 -0.1013 -0.5272 -1.0307
  188MOL0     C25825   4.986   5.275   9.206 -0.0140 -0.5336  0.2394
  188MOL0     C25826   5.131   5.228   9.184  0.1328 -0.4031  0.3993
  188MOL0     C25827   5.142   5.103   9.100 -0.4232 -0.3467  0.1533
  188MOL0     C25828   5.290   5.062   9.098 -0.6513  0.5589  0.1271
  188MOL0     C25829   5.316   4.945   8.998  0.0708 -0.3971 -0.8978
  188MOL0     O25830   5.444   4.881   9.021  0.2185  0.1025 -0.6525
  188MOL0     C25831   5.474   4.776   8.936 -0.9159  0.3598 -0.2163
  188MOL0     C25832   5.609   4.754   8.907 -0.3713  0.1808 -0.3830
  188MOL0     C25833   5.657   4.646   8.824 -0.2532  0.6415 -0.5554
  188MOL0     C25834   5.811   4.642   8.824  1.0252  0.0622  1.2684
  188MOL0     C25835   5.565   4.562   8.757  1.2247 -1.9326  0.2926
  188MOL0     C25836   5.605   4.455   8.667  0.7479  0.4822  0.1727
  188MOL0     O25837   5.717   4.394   8.704 -0.1315 -0.5683  0.5842
  188MOL0     C25838   5.771   4.311   8.614 -1.4883  0.3140 -0.1897
  188MOL0     C25839   5.896   4.347   8.555 -0.7511  0.5587  0.7198
  188MOL0     C25840   5.952   4.249   8.468  0.2914 -0.6022 -0.0183
  188MOL0     C25841   5.898   4.124   8.446  0.0608 -0.0833  0.0641
  188MOL0     O25842   5.968   4.029   8.371 -0.3006 -0.4979 -0.1333
  188MOL0     C25843   5.904   3.922   8.297 -0.5431  1.2196 -0.7532
  188MOL0     C25844   6.022   3.821   8.275  0.4363 -0.1616 -0.7359
  188MOL0     C25845   6.126   3.863   8.166 -0.3705 -0.4880 -0.0583
  188MOL0     C25846   6.239   3.757   8.168  0.2511 -0.9885 -0.7757
  188MOL0     C25847   6.354   3.802   8.069 -0.0552  0.2555 -0.9249
  188MOL0     C25848   6.449   3.675   8.060  0.1023  0.0641 -0.2806
  188MOL0     C25849   6.387   3.569   7.960 -0.8016 -0.3753  0.7171
  188MOL0     C25850   6.489   3.465   7.913 -0.7044  0.3558  0.0118
  188MOL0    Cl25851   6.580   3.402   8.053 -0.2753  0.7798  0.0344
  188MOL0     C25852   5.781   4.086   8.525 -0.3399  0.5450  0.2019
  188MOL0     C25853   5.716   4.181   8.614 -0.2457  0.1745 -0.2190
  188MOL0     O25854   5.523   4.411   8.579  0.0721  0.2717 -0.2296
  188MOL0     C25855   5.433   4.607   8.756 -0.6302 -0.7898 -0.3321
  188MOL0     C25856   5.389   4.703   8.856  0.7517  0.4317  0.5452
  188MOL0     N25857   4.940   5.385   9.135 -0.5518 -0.2295  0.2120
  188MOL0     N25858   4.828   5.420   9.184 -0.3150  1.0643  0.6894
  188MOL0     C25859   4.086   4.799   9.907  0.4687  0.6339  0.0265
  188MOL0     C25860   4.038   4.685   9.975  0.4286  0.0066 -0.3569
  188MOL0     C25861   3.872   4.427  10.302 -0.3834  0.1752 -0.2571
  188MOL0     C25862   3.961   4.376  10.399 -0.6855  0.7504  0.0493
  188MOL0     C25863   3.913   4.282  10.482 -0.4588  0.4042 -0.3861
  188MOL0     C25864   3.792   4.214  10.469 -0.8645  0.0079  0.7692
  188MOL0     O25865   3.745   4.115  10.554  0.3035  0.0677 -0.2659
  188MOL0     C25866   3.713   4.165  10.683 -0.7587  0.4386 -0.8664
  188MOL0     C25867   3.636   4.058  10.747 -0.3241 -0.0561  0.2816
  188MOL0     C25868   3.505   4.017  10.688 -0.3715 -0.1901 -0.2330
  188MOL0     C25869   3.423   3.911  10.764 -0.5636  0.1316 -0.1564
  188MOL0     C25870   3.318   3.871  10.670 -0.3884  1.3652 -0.1471
  188MOL0     C25871   3.224   3.827  10.599 -0.6583  0.0013 -0.4277
  188MOL0     C25872   3.705   4.258  10.366 -0.5561 -0.6642  0.0907
  188MOL0     C25873   3.740   4.365  10.286 -0.4343 -0.6231  0.5409
  188MOL0     C25874   3.646   4.414  10.187 -0.6876 -0.2767 -0.0474
  188MOL0     H25875   4.167   4.733  10.290  1.4569 -1.5846 -0.6394
  188MOL0     H25876   4.265   4.922  10.172  0.7949 -0.7045 -0.0644
  188MOL0     H25877   4.019   5.090   9.885 -0.7791 -0.3752 -0.2472
  188MOL0     H25878   4.124   5.028   9.753  0.3160  2.7607 -1.3252
  188MOL0     H25879   4.103   5.269   9.738 -2.1933 -0.8502  1.9786
  188MOL0     H25880   4.172   5.273   9.903 -0.1492  0.7284 -1.0256
  188MOL0     H25881   4.384   5.193   9.806 -0.1607 -0.1322  1.3787
  188MOL0     H25882   4.296   5.151   9.657  1.2872  1.1287 -1.0961
  188MOL0     H25883   4.251   5.373   9.598 -1.4655 -1.6619  1.0493
  188MOL0     H25884   4.317   5.449   9.721 -0.7379 -0.4346  1.0289
  188MOL0     H25885   4.446   5.253   9.535 -3.2587  0.5416 -0.5427
  188MOL0     H25886   4.549   5.320   9.665 -0.4680  0.0580  1.2307
  188MOL0     H25887   4.424   5.480   9.435 -0.2486 -1.9742 -0.2329
  188MOL0     H25888   4.518   5.553   9.563  0.0388 -0.2953  2.4033
  188MOL0     H25889   4.726   5.449   9.505  2.2827 -3.8353 -0.8707
  188MOL0     H25890   4.652   5.532   9.365  0.2664  0.3026  0.5957
  188MOL0     H25891   4.641   5.220   9.402 -0.1939 -0.3823 -1.1527
  188MOL0     H25892   4.572   5.315   9.276 -1.2328 -1.9737  0.9525
  188MOL0     H25893   4.908   5.144   9.362 -1.0330 -1.0148 -1.3998
  188MOL0     H25894   5.171   5.207   9.283  0.4056 -0.5046  0.2693
  188MOL0     H25895   5.195   5.292   9.123  0.2448 -2.2429 -1.5666
  188MOL0     H25896   5.084   5.025   9.151  2.8585 -2.9442  0.2519
  188MOL0     H25897   5.113   5.125   8.997 -0.6358  0.8188  0.4506
  188MOL0     H25898   5.342   5.154   9.068 -1.8836  1.9462  2.0613
  188MOL0     H25899   5.326   5.032   9.197  1.9216  2.8225  0.0082
  188MOL0     H25900   5.239   4.874   9.032  0.3226 -0.2668 -0.0328
  188MOL0     H25901   5.303   4.967   8.892 -1.9800 -1.9696 -1.0558
  188MOL0     H25902   5.673   4.832   8.945  1.8972 -0.2757 -2.9505
  188MOL0     H25903   5.849   4.667   8.725 -2.6597 -1.1487 -0.6080
  188MOL0     H25904   5.850   4.544   8.855 -1.5098 -0.7349  2.1428
  188MOL0     H25905   5.846   4.712   8.901 -1.1258  1.9510  0.6145
  188MOL0     H25906   5.953   4.438   8.573 -0.0240  0.6954 -1.8844
  188MOL0     H25907   6.048   4.284   8.432 -0.2219  1.7375  0.7397
  188MOL0     H25908   5.826   3.879   8.360  0.3581  4.9258  3.3617
  188MOL0     H25909   5.855   3.954   8.204 -3.5110 -1.7436 -0.4098
  188MOL0     H25910   6.063   3.820   8.376 -3.8950  0.7059  1.2551
  188MOL0     H25911   5.973   3.727   8.249 -2.0121  0.6572  0.6181
  188MOL0     H25912   6.168   3.963   8.181 -1.3166  0.5351 -3.3300
  188MOL0     H25913   6.082   3.864   8.066 -1.0681  1.8075  0.2073
  188MOL0     H25914   6.195   3.665   8.129  2.9313 -2.7399  0.0729
  188MOL0     H25915   6.275   3.745   8.271 -0.3890  3.2724  0.1458
  188MOL0     H25916   6.315   3.823   7.969  1.2505 -0.5660 -1.6272
  188MOL0     H25917   6.408   3.886   8.113  1.4321 -1.7991  1.3967
  188MOL0     H25918   6.492   3.629   8.149 -1.8158  2.7013  2.1788
  188MOL0     H25919   6.538   3.708   8.004  0.8259 -4.1065 -1.9852
  188MOL0     H25920   6.340   3.617   7.874  0.5408 -0.2937 -0.0117
  188MOL0     H25921   6.309   3.511   8.011  0.2126 -2.1706  0.3196
  188MOL0     H25922   6.556   3.498   7.833 -2.9305 -0.4115 -2.3020
  188MOL0     H25923   6.423   3.389   7.871 -2.0843 -0.2896  3.1024
  188MOL0     H25924   5.738   3.986   8.518 -0.7524  0.5272  2.3566
  188MOL0     H25925   5.617   4.164   8.654 -1.0006  2.5184 -0.9553
  188MOL0     H25926   5.364   4.558   8.688  1.3698  0.4982 -3.5376
  188MOL0     H25927   5.283   4.725   8.860  0.8368  0.7785  0.9839
  188MOL0     H25928   4.071   4.809   9.800 -1.2875 -0.0970  0.1801
  188MOL0     H25929   3.976   4.615   9.920  0.3225 -2.1077  2.2488
  188MOL0     H25930   4.058   4.419  10.419  0.5882 -0.1829 -3.4625
  188MOL0     H25931   3.980   4.250  10.562 -2.7965  1.5204  2.1802
  188MOL0     H25932   3.803   4.192  10.741 -2.2834 -0.2891  2.0407
  188MOL0     H25933   3.658   4.259  10.685 -2.0784 -0.2817  1.7527
  188MOL0     H25934   3.618   4.104  10.845 -3.9841  1.5605 -0.9671
  188MOL0     H25935   3.710   3.978  10.760 -1.3735 -1.3472 -1.3493
  188MOL0     H25936   3.450   4.109  10.670  0.3004  0.2165 -0.2229
  188MOL0     H25937   3.530   3.977  10.589 -2.5478 -1.1595 -0.4511
  188MOL0     H25938   3.385   3.955  10.856  1.1702  0.8994  0.2385
  188MOL0     H25939   3.487   3.830  10.801 -2.3063  0.3082  3.6943
  188MOL0     H25940   3.147   3.793  10.533 -0.8880 -2.5600  1.0305
  188MOL0     H25941   3.614   4.199  10.357  0.7305 -2.6926 -0.1819
  188MOL0     H25942   3.683   4.428  10.085 -1.6985  1.2102 -0.2390
  188MOL0     H25943   3.560   4.348  10.171  1.4773 -3.4214  0.3293
  188MOL0     H25944   3.611   4.513  10.218  0.3504  1.1013 -2.9488
  189MOL0     O25945   6.047   3.247   0.050  0.6883  0.7615  0.2767
  189MOL0     C25946   6.014   3.346   0.114 -1.3859  0.0034 -1.1670
  189MOL0     O25947   6.016   3.348   0.259  1.0091  0.6481 -0.2476
  189MOL0     C25948   6.112   3.266   0.321  0.4537  0.0603  0.0617
  189MOL0     C25949   6.248   3.262   0.290  0.6908  0.4862  0.2468
  189MOL0     C25950   6.334   3.170   0.353 -0.7379 -0.2347  1.7586
  189MOL0     C25951   6.285   3.070   0.431  0.5470  0.1798  0.2566
  189MOL0     O25952   6.363   2.984   0.499 -0.8050 -0.7659 -0.1392
  189MOL0     C25953   6.470   3.044   0.564  0.8933 -0.0403 -0.4744
  189MOL0     C25954   6.601   2.982   0.517  0.1163  0.3165  0.3989
  189MOL0     C25955   6.728   3.003   0.612 -0.0053 -0.2905  0.6721
  189MOL0     C25956   6.745   3.159   0.656 -0.4258 -0.2992 -0.7986
  189MOL0     C25957   6.883   3.188   0.714  0.5517 -0.8939  0.2306
  189MOL0     C25958   6.907   3.342   0.748 -0.3852 -1.0715 -0.4349
  189MOL0     C25959   7.020   3.362   0.855  0.0469 -0.9083  0.4887
  189MOL0     C25960   6.970   3.340   0.997 -0.2886 -0.4605  0.5295
  189MOL0     N25961   6.859   3.425   1.039  0.3352 -1.0891  0.4576
  189MOL0     C25962   6.862   3.554   1.078 -0.7985 -0.9561 -0.4123
  189MOL0     C25963   6.741   3.579   1.142  0.4424  0.3212 -0.8106
  189MOL0     C25964   6.699   3.702   1.224  0.2815  0.0873  0.8111
  189MOL0     C25965   6.559   3.744   1.188  0.5116  0.3099 -0.2159
  189MOL0     C25966   6.506   3.859   1.275  0.5514  0.4258  0.2363
  189MOL0     C25967   6.357   3.900   1.271  0.6454 -0.5865  0.0426
  189MOL0     O25968   6.306   3.906   1.141  0.2644  0.1240  0.2490
  189MOL0     C25969   6.188   3.838   1.111  0.5817  0.4639  0.1808
  189MOL0     C25970   6.070   3.815   1.188 -0.5132  0.3930 -0.1922
  189MOL0     C25971   5.963   3.732   1.142 -0.4060 -0.2185 -0.7072
  189MOL0     C25972   5.853   3.692   1.245 -0.1348 -0.3930  0.8174
  189MOL0     C25973   5.974   3.686   1.008  0.6659 -0.1073  0.0939
  189MOL0     C25974   5.861   3.595   0.948  0.1875  0.5178  0.0479
  189MOL0     O25975   5.878   3.582   0.810 -1.3828 -0.6094 -0.6718
  189MOL0     C25976   5.782   3.536   0.727 -0.7856  1.0064 -0.2439
  189MOL0     C25977   5.822   3.452   0.622 -0.5595  0.2097  0.0992
  189MOL0     C25978   5.719   3.427   0.524 -0.2018  1.2793 -0.1912
  189MOL0     C25979   5.590   3.469   0.522  0.9737 -0.3924  0.2468
  189MOL0     O25980   5.499   3.426   0.429 -0.2899  0.1779  0.3469
  189MOL0     C25981   5.355   3.438   0.447 -0.8251 -0.5004 -0.2148
  189MOL0     C25982   5.303   3.355   0.564  0.2128 -0.0867  0.5742
  189MOL0     C25983   5.146   3.358   0.568  0.0791  1.0061 -0.8068
  189MOL0     C25984   5.098   3.484   0.647 -0.0608 -0.1508 -0.6462
  189MOL0     C25985   4.958   3.476   0.722 -0.9117 -0.0156 -0.0287
  189MOL0     C25986   4.886   3.595   0.665  0.8560  0.8246  0.1122
  189MOL0     C25987   4.750   3.607   0.726  0.2462 -0.3467 -0.3148
  189MOL0     C25988   4.678   3.731   0.664  0.7060 -0.0350  0.2960
  189MOL0    Cl25989   4.787   3.870   0.683 -0.0330  0.8028  0.2010
  189MOL0     C25990   5.561   3.560   0.622 -0.0005 -0.1183 -0.1782
  189MOL0     C25991   5.660   3.588   0.722 -0.1148 -0.0247  0.5569
  189MOL0     O25992   5.781   3.538   1.020  0.1706 -0.0324 -0.0636
  189MOL0     C25993   6.086   3.721   0.932  0.1717 -0.7258 -0.3865
  189MOL0     C25994   6.191   3.789   0.985 -0.6326 -0.0349  0.1604
  189MOL0     N25995   6.663   3.465   1.135 -0.6468  0.4794 -0.3896
  189MOL0     N25996   6.735   3.378   1.076 -0.0589 -0.0256  0.7024
  189MOL0     C25997   6.149   3.078   0.466  0.9020  0.4036  0.1626
  189MOL0     C25998   6.070   3.184   0.419 -0.0517  0.2293 -0.3794
  189MOL0     C25999   5.948   3.459   0.055  0.4080  0.5687 -0.5925
  189MOL0     C26000   5.807   3.469   0.074  0.6374  0.0070  0.3505
  189MOL0     C26001   5.734   3.558  -0.009  0.1088  0.0811 -0.6627
  189MOL0     C26002   5.795   3.649  -0.095  1.3670 -0.2604  0.1278
  189MOL0     O26003   5.703   3.743  -0.143  0.1330  0.3993 -0.2259
  189MOL0     C26004   5.746   3.807  -0.265  0.1262  0.6409 -0.2719
  189MOL0     C26005   5.759   3.712  -0.394  1.7728 -0.4645 -0.5377
  189MOL0     C26006   5.629   3.627  -0.391  0.3355 -0.2533  0.4260
  189MOL0     C26007   5.621   3.547  -0.520 -0.4970 -1.4537  1.0515
  189MOL0     C26008   5.480   3.511  -0.559 -0.2158  0.8836 -0.5269
  189MOL0     C26009   5.375   3.499  -0.611  0.0074  0.2081 -0.7220
  189MOL0     C26010   5.932   3.651  -0.110 -0.0607  0.0773 -0.1401
  189MOL0     C26011   6.018   3.551  -0.041  0.9851  0.0470 -0.4395
  189MOL0     C26012   6.166   3.549  -0.050 -0.6342  0.0228 -0.4579
  189MOL0     H26013   6.294   3.340   0.231  2.0547  0.2472  0.9249
  189MOL0     H26014   6.437   3.176   0.319 -1.4578  3.9338 -0.3118
  189MOL0     H26015   6.470   3.018   0.670  1.8043 -0.6706 -0.6148
  189MOL0     H26016   6.484   3.152   0.552  1.3219 -0.1417 -0.9461
  189MOL0     H26017   6.584   2.876   0.497 -0.6982  0.5255 -0.0763
  189MOL0     H26018   6.617   3.024   0.417 -1.1661 -0.2979 -0.0900
  189MOL0     H26019   6.722   2.939   0.700 -1.4492 -2.0041 -0.5998
  189MOL0     H26020   6.818   2.974   0.557 -1.1314 -1.9364 -0.3649
  189MOL0     H26021   6.733   3.223   0.568  0.6086 -0.9481 -1.4322
  189MOL0     H26022   6.664   3.183   0.725 -2.4242 -0.9067 -2.7902
  189MOL0     H26023   6.964   3.158   0.647  1.2198 -0.0076  0.6264
  189MOL0     H26024   6.888   3.124   0.802  0.5343 -0.8639  0.2536
  189MOL0     H26025   6.936   3.401   0.660  1.2924  0.9698  1.3462
  189MOL0     H26026   6.815   3.381   0.791  1.1591  2.1561  0.2850
  189MOL0     H26027   7.067   3.461   0.848 -0.4876 -0.7496 -1.3417
  189MOL0     H26028   7.099   3.286   0.843  0.8677 -0.6470  3.4716
  189MOL0     H26029   6.923   3.242   0.997 -0.9019 -0.2172 -1.3809
  189MOL0     H26030   7.053   3.343   1.068 -0.1181  0.6939  0.3075
  189MOL0     H26031   6.940   3.629   1.078 -1.3910 -0.0758  3.6737
  189MOL0     H26032   6.764   3.788   1.201  0.6232 -0.0156  1.3740
  189MOL0     H26033   6.708   3.660   1.325  0.5271 -2.0030 -0.0265
  189MOL0     H26034   6.553   3.771   1.082  1.1935  0.9083 -0.1066
  189MOL0     H26035   6.500   3.656   1.216 -0.2134  1.0601  0.6978
  189MOL0     H26036   6.520   3.821   1.376 -1.8013  2.8207  1.5895
  189MOL0     H26037   6.556   3.953   1.249 -1.4883  1.5811  0.2213
  189MOL0     H26038   6.297   3.826   1.325  1.1478  0.8539  2.7710
  189MOL0     H26039   6.350   3.997   1.321  0.3719 -0.8298  0.4890
  189MOL0     H26040   6.068   3.862   1.286  2.2229  0.2743 -0.0064
  189MOL0     H26041   5.890   3.735   1.339 -0.3287 -1.0999  1.2229
  189MOL0     H26042   5.851   3.584   1.263  0.2488 -0.1035  2.9805
  189MOL0     H26043   5.753   3.727   1.221 -1.1411 -2.8933  1.0981
  189MOL0     H26044   5.925   3.418   0.621 -1.2314 -2.0691 -1.9594
  189MOL0     H26045   5.745   3.363   0.440  2.5940  1.9261  0.0970
  189MOL0     H26046   5.330   3.543   0.462 -0.2984 -0.4933  0.6619
  189MOL0     H26047   5.307   3.395   0.358  2.3512  1.0872 -2.9306
  189MOL0     H26048   5.338   3.254   0.545 -1.0629 -0.3474 -0.6013
  189MOL0     H26049   5.349   3.390   0.656  0.1752 -1.2179  1.0267
  189MOL0     H26050   5.109   3.265   0.611  0.6866  0.9691 -0.3538
  189MOL0     H26051   5.101   3.350   0.468 -3.9256 -4.0805  0.9682
  189MOL0     H26052   5.105   3.574   0.586 -0.3762  0.6329  0.4380
  189MOL0     H26053   5.166   3.510   0.729 -3.4046  1.0794  1.9492
  189MOL0     H26054   4.916   3.379   0.694 -0.3526  0.2631 -2.0387
  189MOL0     H26055   4.975   3.497   0.828 -2.0494  2.9061 -0.3290
  189MOL0     H26056   4.874   3.590   0.556  1.0351  1.3838  0.0668
  189MOL0     H26057   4.947   3.680   0.696  2.5771 -0.2754 -0.1157
  189MOL0     H26058   4.757   3.631   0.832  1.5179 -1.1664 -0.1996
  189MOL0     H26059   4.704   3.508   0.714  0.4697 -0.4936  0.0317
  189MOL0     H26060   4.586   3.753   0.719  1.4414 -1.5330  2.2312
  189MOL0     H26061   4.660   3.717   0.557  2.0799  1.3802 -0.1613
  189MOL0     H26062   5.462   3.600   0.644 -0.8317 -1.8053 -0.7082
  189MOL0     H26063   5.652   3.669   0.795  3.0386  0.0009  1.0122
  189MOL0     H26064   6.095   3.687   0.829 -0.1073 -3.4843  0.4350
  189MOL0     H26065   6.280   3.815   0.929 -0.3293  0.7466  0.9815
  189MOL0     H26066   6.106   3.002   0.529  2.6287  0.4813  1.5041
  189MOL0     H26067   5.963   3.175   0.436 -0.3874 -0.5536 -2.5223
  189MOL0     H26068   5.750   3.409   0.144 -0.4216 -0.7973 -1.1495
  189MOL0     H26069   5.627   3.573   0.007 -0.0455 -1.5429  0.0707
  189MOL0     H26070   5.672   3.881  -0.297 -1.1621  0.9067  2.9355
  189MOL0     H26071   5.837   3.865  -0.250  0.5619 -0.3058  0.9804
  189MOL0     H26072   5.846   3.646  -0.392  1.8566 -0.3578 -0.6528
  189MOL0     H26073   5.761   3.770  -0.487 -1.7014  1.1728  0.2232
  189MOL0     H26074   5.634   3.550  -0.314  1.8997  1.1636  1.8394
  189MOL0     H26075   5.549   3.698  -0.367  1.1786  1.2976 -1.0803
  189MOL0     H26076   5.681   3.457  -0.501 -0.3585 -1.8462 -0.9721
  189MOL0     H26077   5.660   3.583  -0.616 -3.7060  1.7984  0.7645
  189MOL0     H26078   5.280   3.475  -0.653  0.2008 -3.4545  0.6221
  189MOL0     H26079   5.989   3.729  -0.160 -1.7163  0.5516 -1.3786
  189MOL0     H26080   6.215   3.647  -0.050  2.3993 -1.3664 -0.9521
  189MOL0     H26081   6.212   3.498   0.035  3.0173  0.0771 -2.1748
  189MOL0     H26082   6.203   3.501  -0.142  6.3374  2.5374  0.4137
  190MOL0     O26083   3.269   5.439   2.872 -0.1379 -0.0719 -0.2578
  190MOL0     C26084   3.368   5.406   2.802  0.4112 -0.1070 -0.0996
  190MOL0     O26085   3.494   5.424   2.831  0.4868 -0.2486  0.5170
  190MOL0     C26086   3.513   5.501   2.938 -0.2099 -1.0527 -0.5844
  190MOL0     C26087   3.525   5.433   3.060  0.8553 -0.2847  0.2371
  190MOL0     C26088   3.559   5.507   3.171 -0.0025 -0.4085 -0.4969
  190MOL0     C26089   3.558   5.647   3.171 -1.4537 -0.3090  0.1213
  190MOL0     O26090   3.611   5.732   3.268  0.1367  0.5952 -0.1162
  190MOL0     C26091   3.595   5.696   3.405  0.0396 -0.1466  0.0101
  190MOL0     C26092   3.719   5.616   3.448  0.0102  0.0528 -0.2874
  190MOL0     C26093   3.836   5.706   3.472 -0.4660  0.1560 -0.4520
  190MOL0     C26094   3.970   5.647   3.517 -0.4698  0.2411 -0.4653
  190MOL0     C26095   4.067   5.758   3.541  0.2915 -0.3849  0.3429
  190MOL0     C26096   4.186   5.702   3.623 -0.1525 -0.3864  0.8239
  190MOL0     C26097   4.296   5.813   3.637 -0.1715 -0.2349  1.0173
  190MOL0     C26098   4.266   5.895   3.767 -0.7612  0.4790 -0.5464
  190MOL0     N26099   4.403   5.947   3.827  0.2374  0.5652  0.0584
  190MOL0     C26100   4.518   5.967   3.755 -0.3235 -0.0219 -0.8008
  190MOL0     C26101   4.613   6.006   3.848  0.3905  0.0868  0.1471
  190MOL0     C26102   4.763   6.033   3.799  0.1505  0.2342 -0.4216
  190MOL0     C26103   4.873   6.050   3.908  0.6643  0.2751  0.1375
  190MOL0     C26104   4.960   6.173   3.883  1.1631  0.0458  0.0963
  190MOL0     C26105   5.039   6.152   3.756 -0.4450 -0.8928 -1.0625
  190MOL0     O26106   5.138   6.058   3.771 -0.5380  0.2572  0.9123
  190MOL0     C26107   5.260   6.102   3.818  0.5389  0.8290  0.2040
  190MOL0     C26108   5.349   6.005   3.860 -0.6791  0.3449 -0.2603
  190MOL0     C26109   5.487   6.019   3.899 -0.3538  0.1300  0.0343
  190MOL0     C26110   5.563   5.892   3.947 -0.2249  1.0411 -0.3220
  190MOL0     C26111   5.528   6.148   3.910 -0.2791 -1.0958 -0.2531
  190MOL0     C26112   5.670   6.183   3.938 -0.7600 -0.8481  0.6540
  190MOL0     O26113   5.729   6.113   4.036 -0.9612  0.4672  0.8440
  190MOL0     C26114   5.869   6.131   4.051 -0.3586  0.5387  0.0205
  190MOL0     C26115   5.906   6.156   4.179 -0.1255  0.3215 -0.8005
  190MOL0     C26116   6.042   6.190   4.204  0.1006 -1.1526  0.9644
  190MOL0     C26117   6.143   6.170   4.102 -0.2497 -0.0449 -0.3560
  190MOL0     O26118   6.273   6.185   4.121 -0.8360 -0.0252  0.3824
  190MOL0     C26119   6.322   6.242   4.253  0.0182 -0.1874 -0.9785
  190MOL0     C26120   6.476   6.254   4.280  0.4640  0.1266 -0.9407
  190MOL0     C26121   6.524   6.361   4.378 -0.1714  0.3313 -1.0410
  190MOL0     C26122   6.486   6.335   4.522 -0.1266 -0.0577 -0.4598
  190MOL0     C26123   6.527   6.460   4.612 -0.2162  1.2120 -0.5320
  190MOL0     C26124   6.427   6.574   4.600 -0.9642  0.5938 -1.0887
  190MOL0     C26125   6.440   6.696   4.699 -0.4545 -0.0315  0.2022
  190MOL0     C26126   6.446   6.662   4.847 -0.1158  0.2511  1.0665
  190MOL0    Cl26127   6.306   6.562   4.889  0.3042 -0.0188  0.1310
  190MOL0     C26128   6.097   6.133   3.973 -0.1837 -0.5489  0.2012
  190MOL0     C26129   5.965   6.117   3.937 -0.0300  0.1424 -0.0568
  190MOL0     O26130   5.722   6.274   3.866  0.0780 -0.4111 -0.1215
  190MOL0     C26131   5.447   6.252   3.863  0.2332 -1.1176 -0.3289
  190MOL0     C26132   5.315   6.231   3.816  0.3057 -0.0722  0.9395
  190MOL0     N26133   4.540   6.022   3.967  0.6399 -0.4554 -0.1395
  190MOL0     N26134   4.412   5.989   3.953 -0.9377 -0.1002  0.3637
  190MOL0     C26135   3.548   5.717   3.048  0.0710  0.7123  0.1628
  190MOL0     C26136   3.515   5.645   2.932 -0.0871 -0.4016  0.5428
  190MOL0     C26137   3.339   5.337   2.664  0.5206  0.7615  0.3206
  190MOL0     C26138   3.253   5.227   2.660 -0.0431  0.4748  0.3911
  190MOL0     C26139   3.250   5.156   2.547  0.6886  0.6409  0.8895
  190MOL0     C26140   3.319   5.182   2.427 -0.5789  0.6901 -0.5535
  190MOL0     O26141   3.310   5.111   2.310 -0.6894  0.4495 -0.4236
  190MOL0     C26142   3.396   4.998   2.306  0.5310  0.3692  0.9273
  190MOL0     C26143   3.360   4.882   2.214 -0.0325  0.2438 -0.3111
  190MOL0     C26144   3.213   4.850   2.220 -0.5116 -0.1116 -0.2255
  190MOL0     C26145   3.190   4.707   2.183  0.1197  0.1431  0.4636
  190MOL0     C26146   3.054   4.673   2.229  0.6114 -0.5422  0.1976
  190MOL0     C26147   2.959   4.635   2.283  0.9194 -0.0037 -0.8308
  190MOL0     C26148   3.414   5.286   2.435 -1.2583 -0.4075 -0.5918
  190MOL0     C26149   3.417   5.365   2.548 -0.6776 -0.2959 -0.5474
  190MOL0     C26150   3.522   5.478   2.539 -0.0700  0.6210  0.3832
  190MOL0     H26151   3.532   5.325   3.064  0.4814 -0.2888  1.3007
  190MOL0     H26152   3.585   5.460   3.266  0.8036  0.7907 -0.1009
  190MOL0     H26153   3.514   5.624   3.416 -1.7147  1.5153 -1.3291
  190MOL0     H26154   3.560   5.779   3.467  0.7419 -0.2849  0.5977
  190MOL0     H26155   3.714   5.561   3.542 -0.7443 -0.2598 -0.5065
  190MOL0     H26156   3.754   5.550   3.369  0.0506 -0.7882  0.4130
  190MOL0     H26157   3.855   5.752   3.374  1.4133  0.5875  0.0624
  190MOL0     H26158   3.800   5.777   3.547 -0.6541 -2.6234  2.2707
  190MOL0     H26159   3.931   5.608   3.611 -3.0596  1.1144 -1.1049
  190MOL0     H26160   4.007   5.569   3.449 -0.2834  0.8474 -1.0767
  190MOL0     H26161   4.019   5.833   3.605  0.6321 -1.3646  1.8038
  190MOL0     H26162   4.096   5.800   3.444  0.0304  0.5670  0.6613
  190MOL0     H26163   4.145   5.649   3.709 -1.6534 -1.0544 -0.2409
  190MOL0     H26164   4.228   5.625   3.557 -2.5848 -0.2546 -1.0555
  190MOL0     H26165   4.298   5.882   3.552  0.4034  0.5940  1.6915
  190MOL0     H26166   4.389   5.757   3.652 -0.1935 -0.9594 -1.2207
  190MOL0     H26167   4.218   5.988   3.735  1.3319  1.7625 -0.1315
  190MOL0     H26168   4.202   5.847   3.842 -1.7380  1.4371 -0.7524
  190MOL0     H26169   4.537   5.946   3.651 -0.9589  0.8997 -1.1211
  190MOL0     H26170   4.752   6.122   3.737  0.9771  0.9420  0.4239
  190MOL0     H26171   4.801   5.947   3.743  1.5344  1.1831 -0.9897
  190MOL0     H26172   4.822   6.044   4.005  2.2274 -0.2446  0.9591
  190MOL0     H26173   4.932   5.959   3.895 -0.7151 -0.8493  1.4550
  190MOL0     H26174   4.897   6.263   3.878 -0.4816 -0.9135  1.9614
  190MOL0     H26175   5.023   6.181   3.972  0.5744  0.1057  0.5125
  190MOL0     H26176   4.968   6.102   3.688 -3.0129 -1.7353  1.9845
  190MOL0     H26177   5.061   6.253   3.721  1.3767 -0.1801  1.8369
  190MOL0     H26178   5.307   5.905   3.872  2.7077 -1.0147  1.7073
  190MOL0     H26179   5.505   5.801   3.930  0.0338  1.1416 -1.9380
  190MOL0     H26180   5.575   5.881   4.055  2.2967  0.1390 -0.6213
  190MOL0     H26181   5.660   5.885   3.897  0.8227 -1.0600  1.8369
  190MOL0     H26182   5.823   6.163   4.247  0.3172  1.7665 -0.3730
  190MOL0     H26183   6.073   6.218   4.304  2.3967 -0.8888  0.2244
  190MOL0     H26184   6.273   6.340   4.253  0.9483  0.3056 -2.1447
  190MOL0     H26185   6.283   6.179   4.334  1.5036  0.1432  0.0242
  190MOL0     H26186   6.534   6.161   4.283 -1.2067 -1.0539 -2.7159
  190MOL0     H26187   6.525   6.289   4.188  0.9533 -1.7636 -1.4657
  190MOL0     H26188   6.488   6.461   4.350  2.8424  1.8245 -0.0558
  190MOL0     H26189   6.632   6.348   4.378  0.0806  1.6266  1.5050
  190MOL0     H26190   6.529   6.239   4.553 -1.6756 -0.7080 -0.2239
  190MOL0     H26191   6.378   6.319   4.534 -0.2631  1.5876  0.9107
  190MOL0     H26192   6.515   6.417   4.712 -3.6950 -0.1807 -1.4131
  190MOL0     H26193   6.630   6.493   4.594  0.6053 -0.4775  0.8010
  190MOL0     H26194   6.325   6.535   4.612  0.5543 -3.8836 -0.8930
  190MOL0     H26195   6.442   6.625   4.505 -0.9328 -0.3957 -1.6333
  190MOL0     H26196   6.348   6.755   4.701 -1.2102 -1.1300 -0.8701
  190MOL0     H26197   6.519   6.769   4.678  1.0903 -1.6216  0.2734
  190MOL0     H26198   6.434   6.757   4.900 -1.1405 -0.4190  2.0832
  190MOL0     H26199   6.545   6.621   4.871 -0.6280 -1.5071  0.3864
  190MOL0     H26200   6.174   6.106   3.902  0.2511  0.8674  0.0989
  190MOL0     H26201   5.933   6.094   3.835 -3.1316  0.4101  0.7394
  190MOL0     H26202   5.475   6.356   3.871  0.6720 -1.3543  1.7085
  190MOL0     H26203   5.269   6.314   3.762 -0.7362 -1.8499 -1.0897
  190MOL0     H26204   3.571   5.822   3.036  0.7503  0.8829  2.4153
  190MOL0     H26205   3.506   5.684   2.831 -0.2799 -1.0934  0.2864
  190MOL0     H26206   3.192   5.185   2.739 -0.9059 -1.3990 -1.1817
  190MOL0     H26207   3.185   5.069   2.550 -0.2273  1.2049 -1.0328
  190MOL0     H26208   3.487   5.042   2.265 -0.8395  0.0513 -2.8872
  190MOL0     H26209   3.412   4.960   2.407  0.5648  0.5409  0.9856
  190MOL0     H26210   3.425   4.808   2.263 -2.4550 -1.0745  1.0822
  190MOL0     H26211   3.393   4.897   2.111  0.7136  0.3235 -0.0722
  190MOL0     H26212   3.186   4.869   2.324 -1.7866  0.2916 -0.6177
  190MOL0     H26213   3.160   4.918   2.154  1.7732  1.6250 -0.4112
  190MOL0     H26214   3.261   4.635   2.225 -1.6030 -1.9567 -0.0742
  190MOL0     H26215   3.192   4.694   2.075 -1.4848  0.6285  0.3500
  190MOL0     H26216   2.878   4.613   2.350  0.6121 -1.2550 -1.5633
  190MOL0     H26217   3.476   5.310   2.349  0.3125 -3.2854 -0.3982
  190MOL0     H26218   3.623   5.435   2.540  1.5249  3.9428 -1.2064
  190MOL0     H26219   3.517   5.526   2.441 -2.3841  1.0249  0.6488
  190MOL0     H26220   3.495   5.551   2.616 -2.2513  0.3424 -0.0592
  191MOL0     O26221   0.879   6.642   2.183  0.3922 -0.4916  0.1507
  191MOL0     C26222   0.881   6.762   2.182  0.5746 -0.6836  0.6064
  191MOL0     O26223   0.775   6.839   2.223  0.6568 -0.7577  0.1489
  191MOL0     C26224   0.668   6.798   2.279  0.6219  0.8925 -0.6563
  191MOL0     C26225   0.589   6.685   2.235  0.4489 -0.0140  0.0945
  191MOL0     C26226   0.490   6.636   2.320  0.3204 -0.3839  0.6864
  191MOL0     C26227   0.462   6.704   2.441  0.0151 -0.4460 -0.6466
  191MOL0     O26228   0.363   6.648   2.516  0.5286  0.3810  0.6625
  191MOL0     C26229   0.407   6.618   2.644  0.1998  0.3032  0.5631
  191MOL0     C26230   0.292   6.548   2.705  0.2363 -0.3377 -0.4113
  191MOL0     C26231   0.243   6.419   2.626 -0.4090 -1.4304 -1.0335
  191MOL0     C26232   0.364   6.317   2.618 -0.4893  0.1092  0.6759
  191MOL0     C26233   0.316   6.174   2.651  0.8729  0.1078 -0.1336
  191MOL0     C26234   0.254   6.113   2.518 -0.8737 -0.4568 -0.5034
  191MOL0     C26235   0.219   5.968   2.522  0.2461  1.3438  0.3146
  191MOL0     C26236   0.138   5.904   2.410  0.0066 -0.1606  0.5337
  191MOL0     N26237   0.217   5.886   2.292  0.7623  0.3756  0.5346
  191MOL0     C26238   0.220   5.762   2.227  0.5422  0.3371 -0.3088
  191MOL0     C26239   0.275   5.787   2.108  0.1177  0.5074  0.0028
  191MOL0     C26240   0.293   5.685   2.004  0.5191  0.8641  0.3971
  191MOL0     C26241   0.392   5.578   2.041 -0.0653 -0.6702  1.8559
  191MOL0     C26242   0.397   5.476   1.924 -0.4462 -0.1915 -0.0840
  191MOL0     C26243   0.497   5.520   1.814 -0.1233  0.0941 -0.1134
  191MOL0     O26244   0.502   5.403   1.731 -0.0100  0.0482  0.1627
  191MOL0     C26245   0.532   5.433   1.600  0.0050 -0.1344 -0.2792
  191MOL0     C26246   0.528   5.323   1.512  0.3536  0.2186  0.5825
  191MOL0     C26247   0.576   5.331   1.384 -0.5865 -0.6417  0.2038
  191MOL0     C26248   0.578   5.195   1.308 -0.4507  0.0979  0.2277
  191MOL0     C26249   0.627   5.454   1.321 -0.4822 -0.1573  0.0310
  191MOL0     C26250   0.690   5.461   1.184  0.4637  0.1362 -0.3963
  191MOL0     O26251   0.684   5.351   1.102 -0.3191 -0.1708 -0.0342
  191MOL0     C26252   0.727   5.363   0.973  0.5590  0.0419 -0.2176
  191MOL0     C26253   0.786   5.251   0.920  0.4514 -0.6714  0.7489
  191MOL0     C26254   0.828   5.247   0.784  0.7498 -0.6646 -0.4405
  191MOL0     C26255   0.841   5.361   0.707 -0.0056 -1.3587  0.1415
  191MOL0     O26256   0.894   5.348   0.586  0.4154  0.1867  0.4577
  191MOL0     C26257   0.892   5.463   0.506  0.2978  0.3362  0.2161
  191MOL0     C26258   0.931   5.430   0.361 -0.7444 -0.3437 -0.4569
  191MOL0     C26259   1.072   5.375   0.353 -0.4224  0.1956  0.1706
  191MOL0     C26260   1.186   5.450   0.417  0.6925 -0.0025 -0.1492
  191MOL0     C26261   1.322   5.409   0.363 -0.5708 -0.3557 -0.6691
  191MOL0     C26262   1.364   5.264   0.356 -0.3626  0.2528 -0.6472
  191MOL0     C26263   1.513   5.245   0.305 -0.3484  0.0501  0.8092
  191MOL0     C26264   1.564   5.098   0.301 -0.4542  0.5011 -0.7734
  191MOL0    Cl26265   1.727   5.085   0.252  0.0052  0.0028 -0.4931
  191MOL0     C26266   0.810   5.488   0.771  0.2332 -0.1417  0.1270
  191MOL0     C26267   0.740   5.485   0.897 -0.2298 -0.6201 -0.2822
  191MOL0     O26268   0.748   5.566   1.164  0.2103  0.7624 -0.6564
  191MOL0     C26269   0.619   5.565   1.408 -0.0540 -0.1520  0.0455
  191MOL0     C26270   0.565   5.563   1.541  0.3612 -0.1017  0.4234
  191MOL0     N26271   0.302   5.924   2.106 -0.5740  0.2264  0.0163
  191MOL0     N26272   0.256   5.982   2.205  0.8765  0.2271  0.4610
  191MOL0     C26273   0.534   6.823   2.472 -0.0265  1.1086 -0.6068
  191MOL0     C26274   0.638   6.859   2.397 -0.1454  0.8546 -0.3314
  191MOL0     C26275   1.019   6.813   2.163  0.4381  0.4155  0.9440
  191MOL0     C26276   1.024   6.954   2.150 -0.2068 -0.4765  0.8874
  191MOL0     C26277   1.136   7.018   2.112 -0.8094 -0.5827  0.6737
  191MOL0     C26278   1.248   6.958   2.059 -0.2848  0.3537 -1.0947
  191MOL0     O26279   1.358   7.031   2.032 -0.3252 -0.1266  0.1438
  191MOL0     C26280   1.454   6.985   1.941 -1.1091 -0.2348  0.0642
  191MOL0     C26281   1.549   7.103   1.923  0.3854 -0.6550 -0.7969
  191MOL0     C26282   1.659   7.099   2.023  0.3293 -0.4171  0.0164
  191MOL0     C26283   1.617   7.150   2.167 -0.4091  0.8227 -0.7986
  191MOL0     C26284   1.618   7.299   2.173  0.0020 -0.1303  0.2198
  191MOL0     C26285   1.617   7.423   2.188 -0.3438 -0.6702  0.0813
  191MOL0     C26286   1.244   6.817   2.067 -1.3391  0.0953 -0.7181
  191MOL0     C26287   1.139   6.744   2.126  0.0746 -0.9220 -0.1190
  191MOL0     C26288   1.151   6.592   2.135  0.9222  0.4145  0.3278
  191MOL0     H26289   0.606   6.642   2.137 -3.7088 -1.6424 -0.1118
  191MOL0     H26290   0.422   6.558   2.287 -2.0693  1.8745 -0.0501
  191MOL0     H26291   0.425   6.709   2.702 -1.4813  2.6185 -2.2249
  191MOL0     H26292   0.500   6.562   2.656  0.9978  2.0708  3.8093
  191MOL0     H26293   0.292   6.528   2.813 -2.6687 -3.8834 -0.8476
  191MOL0     H26294   0.202   6.609   2.689  1.0669  0.2221 -3.4457
  191MOL0     H26295   0.157   6.377   2.680 -0.3763 -2.5917 -1.8615
  191MOL0     H26296   0.211   6.434   2.523  2.3930  1.8476 -1.5828
  191MOL0     H26297   0.418   6.320   2.523 -1.3982  1.6359  0.1622
  191MOL0     H26298   0.432   6.345   2.699  0.9793  2.5383 -1.2560
  191MOL0     H26299   0.228   6.169   2.716  0.1275  1.0141 -1.0370
  191MOL0     H26300   0.395   6.108   2.688  1.6598 -0.2735 -2.3389
  191MOL0     H26301   0.166   6.169   2.485 -0.0127 -0.1291 -2.3240
  191MOL0     H26302   0.331   6.124   2.441  0.6446 -2.1804  0.6843
  191MOL0     H26303   0.167   5.942   2.615 -3.0070  0.2362 -1.6621
  191MOL0     H26304   0.305   5.900   2.515 -2.0656 -1.6291 -1.3700
  191MOL0     H26305   0.084   5.816   2.446  0.4057  0.1540  1.9460
  191MOL0     H26306   0.052   5.967   2.385  1.3606  1.6015  0.1300
  191MOL0     H26307   0.179   5.664   2.249  0.2345  0.4458 -0.3957
  191MOL0     H26308   0.338   5.727   1.914  2.1946  0.4484  0.9974
  191MOL0     H26309   0.196   5.639   1.982  0.6516 -0.1480  1.7530
  191MOL0     H26310   0.488   5.631   2.046 -0.9634  1.1922  0.6573
  191MOL0     H26311   0.368   5.527   2.134 -1.0402 -4.2716 -0.1701
  191MOL0     H26312   0.436   5.389   1.977  0.7729  0.3960  0.0243
  191MOL0     H26313   0.295   5.463   1.885 -1.4165 -0.0443  2.2386
  191MOL0     H26314   0.454   5.610   1.769 -0.8203 -0.0861  0.1684
  191MOL0     H26315   0.595   5.538   1.860 -0.5611  1.3606  0.3661
  191MOL0     H26316   0.484   5.235   1.557 -1.0648  1.4436  1.6840
  191MOL0     H26317   0.525   5.220   1.215  1.8297  1.8799 -0.6978
  191MOL0     H26318   0.539   5.104   1.354 -1.9430 -0.4047 -1.8865
  191MOL0     H26319   0.686   5.182   1.295 -0.0010  1.7719  1.7721
  191MOL0     H26320   0.772   5.162   0.981  1.7897 -0.6058  1.1809
  191MOL0     H26321   0.889   5.160   0.762  4.9108  1.8703 -0.0866
  191MOL0     H26322   0.790   5.500   0.507  1.4026  3.7608 -0.2838
  191MOL0     H26323   0.942   5.554   0.541 -0.4139  0.5960  0.5811
  191MOL0     H26324   0.864   5.355   0.317 -1.3207  0.7266 -1.4430
  191MOL0     H26325   0.910   5.522   0.306  1.2818 -0.8816 -2.2482
  191MOL0     H26326   1.102   5.359   0.249  2.7735 -1.2594  1.2056
  191MOL0     H26327   1.075   5.279   0.406  2.9939  1.2419  2.1052
  191MOL0     H26328   1.182   5.421   0.523  1.0187 -1.6303 -0.5481
  191MOL0     H26329   1.174   5.558   0.411  1.1537  0.0634  0.0834
  191MOL0     H26330   1.339   5.447   0.262 -0.6314  0.9069 -0.2188
  191MOL0     H26331   1.389   5.461   0.432 -1.0361  0.0494 -0.5175
  191MOL0     H26332   1.295   5.207   0.293 -1.1812  1.5139 -0.9360
  191MOL0     H26333   1.361   5.224   0.458 -0.2475  0.6872 -0.4687
  191MOL0     H26334   1.570   5.306   0.376 -3.2427  0.1190  3.2240
  191MOL0     H26335   1.524   5.276   0.200 -0.6877 -2.7200 -0.1224
  191MOL0     H26336   1.501   5.025   0.248 -0.8682 -0.7780  1.3170
  191MOL0     H26337   1.557   5.055   0.402 -1.4750 -0.7079 -1.3279
  191MOL0     H26338   0.825   5.586   0.727 -3.6382  1.1768  1.2943
  191MOL0     H26339   0.697   5.581   0.926  1.8306 -0.2024  1.7480
  191MOL0     H26340   0.669   5.657   1.379 -0.3463  0.3514  1.0767
  191MOL0     H26341   0.555   5.651   1.605 -1.1600  0.5467 -0.6467
  191MOL0     H26342   0.522   6.875   2.567  2.4132  0.4129  0.1749
  191MOL0     H26343   0.688   6.947   2.436  1.8637  0.6832 -2.3106
  191MOL0     H26344   0.938   7.018   2.164 -1.0893 -1.9335  2.4668
  191MOL0     H26345   1.130   7.124   2.091 -0.6944 -0.9223 -1.2798
  191MOL0     H26346   1.512   6.904   1.986 -0.4484  1.2764  2.1424
  191MOL0     H26347   1.416   6.950   1.845 -1.2780  0.2700 -0.0556
  191MOL0     H26348   1.493   7.196   1.922 -2.0377 -2.0346 -1.9404
  191MOL0     H26349   1.591   7.100   1.822  2.8124  0.9436  0.0808
  191MOL0     H26350   1.703   7.000   2.034 -1.3597 -1.1124  1.0483
  191MOL0     H26351   1.736   7.166   1.984  0.8045 -2.3766 -2.6628
  191MOL0     H26352   1.683   7.111   2.244  1.5459  3.4999 -0.9939
  191MOL0     H26353   1.520   7.117   2.205  0.5017 -1.4368 -0.2596
  191MOL0     H26354   1.614   7.529   2.203  0.2802 -0.1735 -2.8524
  191MOL0     H26355   1.328   6.759   2.031 -1.7926 -1.7009  0.9265
  191MOL0     H26356   1.129   6.564   2.238  1.1280 -0.1099  0.2355
  191MOL0     H26357   1.076   6.535   2.079 -0.6982  1.3534  1.4798
  191MOL0     H26358   1.251   6.553   2.112  0.9661  0.8920 -0.3280
  192MOL0     O26359  11.049   5.148   4.170  0.5637  0.0296 -1.0936
  192MOL0     C26360  11.051   5.028   4.172  0.1183 -0.4494 -0.6162
  192MOL0     O26361  11.031   4.949   4.066 -0.2917  0.2230  0.7601
  192MOL0     C26362  11.035   4.990   3.930 -0.5904 -1.2487  0.1808
  192MOL0     C26363  10.921   4.969   3.849 -0.7102  0.0118 -0.0565
  192MOL0     C26364  10.921   5.023   3.723  0.3007 -0.8553  0.2295
  192MOL0     C26365  11.029   5.085   3.670 -0.2524  0.1444 -0.2461
  192MOL0     O26366  11.000   5.117   3.538  0.0693 -0.3439  0.2330
  192MOL0     C26367  11.113   5.173   3.472  0.0633 -0.3320  0.2434
  192MOL0     C26368  11.092   5.213   3.326 -0.6653 -0.6347 -0.5207
  192MOL0     C26369  11.224   5.257   3.259  0.4178 -0.3729  0.1707
  192MOL0     C26370  11.210   5.267   3.107 -1.0625 -0.7354  0.1852
  192MOL0     C26371  11.303   5.379   3.056 -0.4199  0.2534  1.1188
  192MOL0     C26372  11.286   5.393   2.912 -1.0906 -0.1170  0.3468
  192MOL0     C26373  11.363   5.516   2.854  0.1077  0.1743  0.4101
  192MOL0     C26374  11.515   5.480   2.824 -0.2814  0.3691 -0.0440
  192MOL0     N26375  11.608   5.591   2.825 -0.2969 -0.3408  0.0831
  192MOL0     C26376  11.642   5.675   2.928  0.6840  0.3492 -0.4130
  192MOL0     C26377  11.738   5.753   2.878  0.3665 -0.5777  0.5727
  192MOL0     C26378  11.833   5.839   2.963  0.2712  0.7035  0.2939
  192MOL0     C26379  11.954   5.760   3.028  0.2578  0.3610 -0.1587
  192MOL0     C26380  12.071   5.855   3.069 -0.2245  1.0633  0.0388
  192MOL0     C26381  12.191   5.768   3.107  0.1792 -0.3158 -0.1472
  192MOL0     O26382  12.309   5.855   3.127  0.2968 -0.2687  0.9225
  192MOL0     C26383  12.424   5.799   3.177 -0.4040  0.3793  0.3061
  192MOL0     C26384  12.528   5.881   3.211 -0.8928 -0.1417  0.2133
  192MOL0     C26385  12.652   5.832   3.242  0.0149  0.2825 -0.4057
  192MOL0     C26386  12.755   5.928   3.299 -0.3605  0.0320 -0.1271
  192MOL0     C26387  12.677   5.693   3.233  1.0961 -0.4079 -0.2092
  192MOL0     C26388  12.806   5.633   3.255 -1.1432 -0.4500  0.0091
  192MOL0     O26389  12.812   5.532   3.345 -0.0303  1.1175  0.2945
  192MOL0     C26390  12.932   5.502   3.396 -0.5932  0.1641 -0.3940
  192MOL0     C26391  13.027   5.435   3.317 -1.2197  0.0002  0.2782
  192MOL0     C26392  13.145   5.391   3.387  0.0711  0.8056  0.7279
  192MOL0     C26393  13.173   5.426   3.520  0.3322  1.3510  0.0606
  192MOL0     O26394  13.280   5.369   3.586 -0.2968  0.4307 -1.0047
  192MOL0     C26395  13.366   5.471   3.648 -0.0208 -0.6912  0.4155
  192MOL0     C26396  13.504   5.412   3.646 -0.5597  1.1087 -0.2810
  192MOL0     C26397  13.612   5.505   3.708  1.3620  0.7806  0.3841
  192MOL0     C26398  13.733   5.416   3.727 -0.0676  0.4662 -0.2581
  192MOL0     C26399  13.844   5.478   3.817  0.5527 -0.8094 -0.4265
  192MOL0     C26400  13.976   5.400   3.816 -0.0697 -0.7666 -1.2191
  192MOL0     C26401  13.963   5.250   3.793  0.7579  0.7058 -0.0830
  192MOL0     C26402  14.089   5.192   3.870 -0.1728  0.2558  0.1823
  192MOL0    Cl26403  14.248   5.225   3.774  0.1588  0.1087 -0.3803
  192MOL0     C26404  13.079   5.497   3.593 -0.8929  0.6878  0.0898
  192MOL0     C26405  12.968   5.550   3.531  1.5641  0.1115  0.4003
  192MOL0     O26406  12.904   5.680   3.194  0.0192  0.3083  0.0194
  192MOL0     C26407  12.564   5.607   3.211 -0.4774  0.4149  0.8699
  192MOL0     C26408  12.435   5.656   3.185  0.9658 -0.8993 -0.4660
  192MOL0     N26409  11.762   5.725   2.742  0.7921  0.1540  0.2959
  192MOL0     N26410  11.674   5.620   2.717 -0.1637 -0.7002  0.0922
  192MOL0     C26411  11.141   5.106   3.746 -0.0354 -0.3863 -0.1197
  192MOL0     C26412  11.143   5.064   3.882 -0.0181 -0.1467 -0.6593
  192MOL0     C26413  11.064   4.965   4.305  0.0848  0.3240 -0.4104
  192MOL0     C26414  11.098   4.824   4.309  0.0572 -0.5515 -0.3402
  192MOL0     C26415  11.127   4.753   4.428 -0.3121 -0.5397 -0.0070
  192MOL0     C26416  11.121   4.821   4.547 -0.5197  0.4315  0.2722
  192MOL0     O26417  11.146   4.770   4.672  0.4044  0.3923 -0.2978
  192MOL0     C26418  11.215   4.644   4.690 -0.4824 -0.0729  0.8297
  192MOL0     C26419  11.111   4.539   4.702  0.9754  0.3012 -0.4596
  192MOL0     C26420  11.032   4.549   4.834 -0.2611 -0.7935  0.3821
  192MOL0     C26421  10.940   4.422   4.860 -0.8560 -0.8329  0.6036
  192MOL0     C26422  10.917   4.396   5.006 -0.3180 -0.0847  1.6930
  192MOL0     C26423  10.908   4.364   5.120 -0.0005 -0.0417  0.9593
  192MOL0     C26424  11.085   4.955   4.545  0.2858 -1.2165  0.5073
  192MOL0     C26425  11.052   5.030   4.428 -0.2770  0.3610  0.5536
  192MOL0     C26426  11.007   5.174   4.454  0.7848 -0.1463 -0.7160
  192MOL0     H26427  10.835   4.923   3.895 -0.0771  1.9264  3.3282
  192MOL0     H26428  10.834   5.001   3.662 -0.7623  1.3905  0.8083
  192MOL0     H26429  11.201   5.109   3.479 -1.3304 -2.2531  0.7031
  192MOL0     H26430  11.138   5.272   3.512 -0.8648  0.2915 -0.6634
  192MOL0     H26431  11.048   5.127   3.274 -1.3854 -0.2302 -0.5946
  192MOL0     H26432  11.020   5.295   3.320  1.4666  1.3075 -0.6698
  192MOL0     H26433  11.268   5.343   3.311  1.6986 -0.9386  0.0720
  192MOL0     H26434  11.301   5.182   3.279 -1.6797 -3.0213 -1.0885
  192MOL0     H26435  11.253   5.176   3.065 -0.1833 -0.6863  0.9406
  192MOL0     H26436  11.109   5.293   3.074 -1.5258 -1.9802  0.5795
  192MOL0     H26437  11.406   5.348   3.075  0.0296 -0.6772 -2.2664
  192MOL0     H26438  11.287   5.480   3.094  1.1052  1.4158 -1.1042
  192MOL0     H26439  11.319   5.308   2.851 -0.4512  0.1181  0.3630
  192MOL0     H26440  11.180   5.403   2.887 -1.0295  1.3743  0.6035
  192MOL0     H26441  11.355   5.606   2.916 -2.7659 -2.1178  3.7552
  192MOL0     H26442  11.314   5.527   2.756  1.2204 -2.9946 -0.6371
  192MOL0     H26443  11.531   5.407   2.904 -3.1038 -0.4888 -0.1601
  192MOL0     H26444  11.530   5.423   2.732 -1.4922  0.9746 -0.6346
  192MOL0     H26445  11.615   5.663   3.033 -2.7230  1.2999 -1.0538
  192MOL0     H26446  11.777   5.883   3.046 -1.3581  0.9515 -0.8866
  192MOL0     H26447  11.880   5.918   2.903  0.0732  0.2631 -0.4552
  192MOL0     H26448  11.907   5.708   3.113 -0.1798 -0.5104 -0.9168
  192MOL0     H26449  11.986   5.678   2.963  3.6453  2.3655 -1.2409
  192MOL0     H26450  12.106   5.914   2.984  1.8567 -1.3086 -0.8835
  192MOL0     H26451  12.039   5.917   3.154  0.3515 -0.3015  1.3003
  192MOL0     H26452  12.164   5.705   3.192 -3.2587 -0.4723 -1.2276
  192MOL0     H26453  12.211   5.704   3.020  2.9964  3.6330 -2.7819
  192MOL0     H26454  12.515   5.988   3.201  1.0422  0.0915 -0.1041
  192MOL0     H26455  12.775   5.910   3.405  2.1665 -0.1467 -0.5614
  192MOL0     H26456  12.725   6.033   3.287 -2.4485 -0.6191 -0.9244
  192MOL0     H26457  12.848   5.914   3.243 -2.4258  0.7213 -4.0756
  192MOL0     H26458  12.991   5.417   3.216  1.2713  2.6688 -1.2161
  192MOL0     H26459  13.185   5.302   3.340 -2.3238 -0.4971  0.9797
  192MOL0     H26460  13.369   5.562   3.587 -2.5879 -1.2644 -0.6709
  192MOL0     H26461  13.336   5.504   3.748 -1.9682 -2.5856  0.5208
  192MOL0     H26462  13.498   5.314   3.695  2.8494  0.8439 -0.1853
  192MOL0     H26463  13.530   5.400   3.540 -2.0526  2.2413 -0.8186
  192MOL0     H26464  13.578   5.565   3.793  2.8708  2.9205 -0.4414
  192MOL0     H26465  13.641   5.582   3.637 -0.5967  1.2193  0.0230
  192MOL0     H26466  13.783   5.373   3.639  0.1176  0.3662 -0.1057
  192MOL0     H26467  13.684   5.334   3.779 -3.4904  3.0810  1.0339
  192MOL0     H26468  13.862   5.582   3.792  1.0740 -1.1358 -1.4306
  192MOL0     H26469  13.795   5.472   3.915 -1.1074 -2.5920 -1.2871
  192MOL0     H26470  14.029   5.426   3.908 -1.8367  1.4774 -0.7279
  192MOL0     H26471  14.025   5.443   3.728  2.5301  3.6288  1.9740
  192MOL0     H26472  13.963   5.230   3.685 -1.9163  0.7439 -0.1483
  192MOL0     H26473  13.872   5.214   3.842  1.3418  0.4887  0.8533
  192MOL0     H26474  14.076   5.083   3.868 -0.7722  0.2965  1.2191
  192MOL0     H26475  14.100   5.225   3.973 -0.3577 -0.3141  0.3927
  192MOL0     H26476  13.098   5.511   3.699  3.3077 -0.9093 -0.2525
  192MOL0     H26477  12.894   5.608   3.585  1.6473 -1.2587  2.0874
  192MOL0     H26478  12.572   5.500   3.225 -0.0061  0.2288 -0.6261
  192MOL0     H26479  12.348   5.591   3.180 -1.0390  1.6525 -0.9251
  192MOL0     H26480  11.227   5.152   3.697 -0.5986  0.2535 -0.5170
  192MOL0     H26481  11.224   5.103   3.943  0.6883  0.9082 -2.1980
  192MOL0     H26482  11.096   4.772   4.214 -3.6844 -0.3632 -0.5253
  192MOL0     H26483  11.151   4.647   4.431 -1.3332 -0.7679  0.5312
  192MOL0     H26484  11.276   4.630   4.600  0.2971  3.0127  0.7541
  192MOL0     H26485  11.276   4.640   4.781  0.3092 -0.4596  0.2901
  192MOL0     H26486  11.155   4.439   4.700 -4.5241 -2.5842  0.5302
  192MOL0     H26487  11.038   4.548   4.621  0.5887 -0.6207 -0.2344
  192MOL0     H26488  11.112   4.567   4.906  0.8991 -0.0310 -1.0425
  192MOL0     H26489  10.959   4.630   4.835 -2.4317 -2.6052  2.8447
  192MOL0     H26490  11.002   4.341   4.819 -1.6006 -0.8233 -0.5759
  192MOL0     H26491  10.848   4.429   4.802 -0.9853 -4.8075  0.0495
  192MOL0     H26492  10.894   4.345   5.224 -2.6070  0.8556  0.8591
  192MOL0     H26493  11.072   5.002   4.642  2.8673 -1.5342  1.0759
  192MOL0     H26494  10.958   5.186   4.551  1.6511 -3.1597  0.2088
  192MOL0     H26495  11.099   5.234   4.452 -0.7604  2.3486 -1.6295
  192MOL0     H26496  10.938   5.213   4.378 -2.9993  2.9411  3.7932
  193MOL0     O26497   7.454   5.246   0.999 -0.9730  0.1514  0.3140
  193MOL0     C26498   7.338   5.279   1.015  0.1786 -0.5532  0.2930
  193MOL0     O26499   7.280   5.307   1.132 -0.2881  0.2131 -0.0016
  193MOL0     C26500   7.351   5.352   1.234 -0.1727  0.2065 -0.1900
  193MOL0     C26501   7.267   5.366   1.353 -0.2094 -0.7046 -0.6769
  193MOL0     C26502   7.329   5.396   1.475  0.5980 -0.8907 -1.0128
  193MOL0     C26503   7.465   5.424   1.488  0.6199 -0.6243 -0.2145
  193MOL0     O26504   7.520   5.479   1.599  0.7501  0.0996 -0.0402
  193MOL0     C26505   7.642   5.555   1.596 -0.4345 -0.0696 -0.0498
  193MOL0     C26506   7.613   5.701   1.553 -0.2221 -0.2061  0.1839
  193MOL0     C26507   7.486   5.757   1.625 -0.0075 -0.8939  0.0553
  193MOL0     C26508   7.443   5.879   1.547  0.3172 -0.8101 -0.3817
  193MOL0     C26509   7.338   5.977   1.618  0.0747 -0.1245  0.0178
  193MOL0     C26510   7.286   6.089   1.534 -0.8091  0.2010 -0.0298
  193MOL0     C26511   7.162   6.154   1.579  0.6313  0.5830 -0.4596
  193MOL0     C26512   7.119   6.268   1.481  0.4967  0.4760  0.4039
  193MOL0     N26513   7.007   6.357   1.529 -0.7284  0.8324  0.1620
  193MOL0     C26514   6.872   6.346   1.488 -0.3578  0.9140  1.1233
  193MOL0     C26515   6.816   6.470   1.498 -0.6581  0.1153 -0.4438
  193MOL0     C26516   6.665   6.502   1.481  0.2513  0.3744 -0.4514
  193MOL0     C26517   6.633   6.655   1.490  1.1807  0.1561 -0.0497
  193MOL0     C26518   6.495   6.699   1.443  0.6412  1.1946  0.1169
  193MOL0     C26519   6.367   6.635   1.511  0.3462  0.4143 -0.5714
  193MOL0     O26520   6.332   6.726   1.622  0.0758 -0.3401  0.2510
  193MOL0     C26521   6.208   6.704   1.679  0.0154 -0.0189 -0.0881
  193MOL0     C26522   6.139   6.809   1.738 -0.6513  0.8636  0.1272
  193MOL0     C26523   6.023   6.799   1.802  0.3525  0.2929 -0.0431
  193MOL0     C26524   5.971   6.932   1.843  0.5414 -0.8445  0.1985
  193MOL0     C26525   5.949   6.676   1.811  0.7015  0.1165  0.0073
  193MOL0     C26526   5.824   6.660   1.894  0.3262 -0.1765 -0.8901
  193MOL0     O26527   5.795   6.755   1.992 -0.5058  0.2308 -0.0089
  193MOL0     C26528   5.698   6.751   2.089 -0.4222  0.7399 -0.8060
  193MOL0     C26529   5.636   6.872   2.114 -0.4945 -0.4166  0.2061
  193MOL0     C26530   5.547   6.887   2.220  0.1115 -0.2212  0.0501
  193MOL0     C26531   5.503   6.774   2.291  0.5774 -0.8987  0.4436
  193MOL0     O26532   5.431   6.771   2.407 -0.5402  0.3241 -0.0253
  193MOL0     C26533   5.332   6.876   2.421 -0.7174  0.1185 -0.8202
  193MOL0     C26534   5.238   6.853   2.546  0.0407  0.8231  0.2366
  193MOL0     C26535   5.159   6.968   2.602  0.0867 -0.7645 -0.3037
  193MOL0     C26536   5.107   6.937   2.740 -0.0930 -0.0465 -1.1435
  193MOL0     C26537   4.982   7.029   2.781 -0.1506 -0.4071 -0.4365
  193MOL0     C26538   4.849   6.951   2.799 -0.2905 -0.6009  0.3236
  193MOL0     C26539   4.723   7.026   2.833 -0.3940  0.0546 -0.1564
  193MOL0     C26540   4.644   7.097   2.722 -0.7201  0.0820  0.2599
  193MOL0    Cl26541   4.553   6.987   2.607 -0.0055 -0.0510 -0.2512
  193MOL0     C26542   5.543   6.650   2.246 -0.0443 -0.2647 -0.8227
  193MOL0     C26543   5.649   6.634   2.161 -0.1664  1.5441  1.1068
  193MOL0     O26544   5.753   6.560   1.877 -0.1575 -0.2144  0.8686
  193MOL0     C26545   6.009   6.573   1.736  0.0291 -0.3849  0.3193
  193MOL0     C26546   6.124   6.590   1.660  0.1972 -0.3637  0.0584
  193MOL0     N26547   6.918   6.550   1.551 -0.0154 -0.5345  0.4603
  193MOL0     N26548   7.025   6.484   1.565 -0.8271 -0.0955  0.7417
  193MOL0     C26549   7.541   5.416   1.367  0.0271 -0.8134 -0.2752
  193MOL0     C26550   7.495   5.376   1.243 -0.1803 -0.5038 -0.4656
  193MOL0     C26551   7.250   5.265   0.899  0.3940  0.2510  0.0209
  193MOL0     C26552   7.124   5.207   0.917  0.6621  0.0159 -0.2244
  193MOL0     C26553   7.031   5.183   0.809  0.7297  0.4292 -0.1361
  193MOL0     C26554   7.062   5.239   0.679 -1.2203  0.2268 -0.0881
  193MOL0     O26555   6.993   5.239   0.568 -0.3123 -0.3829 -0.2622
  193MOL0     C26556   6.894   5.136   0.555  0.1868  0.0541  0.2057
  193MOL0     C26557   6.826   5.134   0.421 -0.3344 -0.7148 -0.4430
  193MOL0     C26558   6.689   5.059   0.439  0.1932  0.4602 -0.0380
  193MOL0     C26559   6.614   5.024   0.307 -0.3713  0.0589 -0.2985
  193MOL0     C26560   6.506   4.934   0.342  1.0217  0.5732 -0.2152
  193MOL0     C26561   6.410   4.867   0.376 -0.3821 -0.1826  0.2516
  193MOL0     C26562   7.183   5.316   0.664  0.0704  0.1943 -0.1774
  193MOL0     C26563   7.275   5.328   0.772  0.7491  0.6026  0.0950
  193MOL0     C26564   7.404   5.412   0.752 -0.1007 -0.1466  0.9034
  193MOL0     H26565   7.160   5.349   1.348 -0.5389 -0.2306  2.6524
  193MOL0     H26566   7.273   5.384   1.567 -0.3655 -0.7978 -1.5737
  193MOL0     H26567   7.724   5.508   1.540  0.5813 -1.7278  2.6343
  193MOL0     H26568   7.687   5.552   1.695 -0.6860  1.9450  0.1615
  193MOL0     H26569   7.694   5.771   1.574  0.1926  0.0008 -1.9641
  193MOL0     H26570   7.603   5.707   1.445 -1.8138  1.9423  0.3756
  193MOL0     H26571   7.399   5.692   1.626 -0.8238 -0.4356 -5.8878
  193MOL0     H26572   7.495   5.793   1.728  1.8300  1.0770 -0.7069
  193MOL0     H26573   7.523   5.951   1.530  0.8889 -1.2639  0.3014
  193MOL0     H26574   7.387   5.842   1.460 -1.4678 -0.1332  0.4248
  193MOL0     H26575   7.387   6.025   1.703  2.7462 -2.0750 -0.2898
  193MOL0     H26576   7.258   5.916   1.660  0.3789  0.0261  0.8478
  193MOL0     H26577   7.369   6.160   1.527 -0.5922 -0.0991 -0.5947
  193MOL0     H26578   7.268   6.032   1.442 -0.8805 -0.0317  0.1303
  193MOL0     H26579   7.185   6.207   1.672  0.5709 -1.4865  0.7999
  193MOL0     H26580   7.079   6.085   1.597  1.2594 -0.7822 -2.4471
  193MOL0     H26581   7.210   6.329   1.472  1.1550 -0.3119  1.4888
  193MOL0     H26582   7.081   6.220   1.390  0.6116 -3.7358  2.3302
  193MOL0     H26583   6.819   6.257   1.456 -1.2886  2.3882 -1.8447
  193MOL0     H26584   6.607   6.445   1.554 -1.0428  0.4683 -1.3689
  193MOL0     H26585   6.628   6.470   1.384  1.0158  1.3135 -1.0796
  193MOL0     H26586   6.634   6.685   1.595 -0.4629 -1.1632  0.3770
  193MOL0     H26587   6.708   6.710   1.433 -0.9629  2.6129 -0.7127
  193MOL0     H26588   6.490   6.807   1.455  4.5336  1.3305  2.0151
  193MOL0     H26589   6.495   6.678   1.335 -1.3411 -0.8219  0.4246
  193MOL0     H26590   6.287   6.604   1.443 -0.8742  0.9867  0.5515
  193MOL0     H26591   6.398   6.543   1.561 -1.5826 -1.0583 -1.9480
  193MOL0     H26592   6.200   6.898   1.753  1.6522 -0.7874  1.0609
  193MOL0     H26593   6.035   7.013   1.807 -1.5635  0.6585 -0.3936
  193MOL0     H26594   5.969   6.934   1.952  0.3235 -0.8490  0.1959
  193MOL0     H26595   5.867   6.948   1.815  1.4520  2.6391 -1.7362
  193MOL0     H26596   5.662   6.963   2.060  1.5353 -1.4331 -0.6147
  193MOL0     H26597   5.525   6.993   2.230  1.8683  0.1856  0.0121
  193MOL0     H26598   5.385   6.970   2.438  2.5302 -1.8578  1.1521
  193MOL0     H26599   5.287   6.883   2.322 -0.1247  2.2182 -0.9879
  193MOL0     H26600   5.170   6.779   2.503  1.4636  0.1149 -0.8403
  193MOL0     H26601   5.308   6.815   2.621 -0.8325  0.1792  0.7499
  193MOL0     H26602   5.087   6.997   2.525  1.8488  2.5302 -0.9318
  193MOL0     H26603   5.232   7.050   2.612  1.7098 -1.9459 -1.8293
  193MOL0     H26604   5.175   6.930   2.826 -3.3797  0.2506  1.7410
  193MOL0     H26605   5.065   6.836   2.747  4.7781 -2.2289  1.5611
  193MOL0     H26606   5.009   7.069   2.879 -0.8612 -1.1606  0.0712
  193MOL0     H26607   4.964   7.109   2.708  0.3657 -0.0190 -0.1469
  193MOL0     H26608   4.862   6.879   2.881  0.0659  0.9693  1.6960
  193MOL0     H26609   4.836   6.906   2.700 -0.2618 -4.3687  1.8580
  193MOL0     H26610   4.744   7.092   2.917  0.8845 -1.7394  0.9893
  193MOL0     H26611   4.659   6.954   2.885  1.3995 -0.4820  1.4015
  193MOL0     H26612   4.711   7.162   2.665  0.5582  1.1114  2.7672
  193MOL0     H26613   4.573   7.173   2.758 -2.3574 -2.0947  1.9617
  193MOL0     H26614   5.505   6.567   2.303  2.1877  0.1201  1.3814
  193MOL0     H26615   5.701   6.539   2.158 -0.7281  1.2425  0.7675
  193MOL0     H26616   5.969   6.472   1.730  1.6211 -1.3093  3.2200
  193MOL0     H26617   6.150   6.503   1.599  0.8124 -0.6714  0.7401
  193MOL0     H26618   7.650   5.424   1.368  0.0329 -0.9019  1.0612
  193MOL0     H26619   7.573   5.373   1.168 -0.7821  0.5764 -1.1711
  193MOL0     H26620   7.090   5.183   1.017  1.5818 -2.2035 -0.3983
  193MOL0     H26621   6.945   5.119   0.829  1.4307 -1.0737 -1.6574
  193MOL0     H26622   6.942   5.039   0.566 -0.3325 -0.5816 -2.4290
  193MOL0     H26623   6.820   5.141   0.635 -1.4444 -0.2354 -1.2355
  193MOL0     H26624   6.885   5.070   0.355 -1.3990 -1.7890 -0.4051
  193MOL0     H26625   6.804   5.235   0.386 -0.7869 -0.4349  0.5993
  193MOL0     H26626   6.700   4.969   0.500 -3.0483  0.6793  1.0893
  193MOL0     H26627   6.634   5.131   0.501  2.9842 -0.0319  3.3047
  193MOL0     H26628   6.677   4.969   0.237  0.7787  0.1094  0.6628
  193MOL0     H26629   6.579   5.114   0.254 -1.2930 -1.5003 -2.4942
  193MOL0     H26630   6.331   4.818   0.428  1.6404 -0.6917  3.0418
  193MOL0     H26631   7.206   5.361   0.568 -2.3188  0.6729 -0.5870
  193MOL0     H26632   7.493   5.367   0.797  1.5528  1.1076 -0.9284
  193MOL0     H26633   7.418   5.431   0.645  2.8377  2.6409  1.6051
  193MOL0     H26634   7.391   5.511   0.796  1.1446  0.0904  0.7788
  194MOL0     O26635   3.761   7.445   6.328 -0.2226  0.4895  0.2154
  194MOL0     C26636   3.695   7.349   6.298  0.2333 -0.4671 -0.5519
  194MOL0     O26637   3.736   7.219   6.314 -0.6281  0.0038 -0.0301
  194MOL0     C26638   3.813   7.187   6.415 -0.0290  0.5548 -0.0434
  194MOL0     C26639   3.804   7.054   6.441 -0.0422 -0.5610 -0.5286
  194MOL0     C26640   3.873   6.982   6.541 -0.5182 -0.6648  0.3446
  194MOL0     C26641   3.971   7.047   6.614  0.8934  0.0274 -0.3030
  194MOL0     O26642   4.057   6.991   6.706 -0.1694  1.0829  0.5607
  194MOL0     C26643   4.077   6.849   6.694  0.4572  0.1311  0.4428
  194MOL0     C26644   4.169   6.812   6.810  0.2630 -0.1255 -0.4066
  194MOL0     C26645   4.313   6.859   6.780  0.1965 -0.9451  0.4944
  194MOL0     C26646   4.405   6.814   6.901 -0.0728 -0.0485 -0.1472
  194MOL0     C26647   4.546   6.848   6.872  0.3690 -0.5823 -0.0178
  194MOL0     C26648   4.574   6.997   6.853  0.2156  0.4744 -0.1912
  194MOL0     C26649   4.723   7.029   6.835 -0.4234  1.2136 -0.3660
  194MOL0     C26650   4.837   6.973   6.929  0.2876  0.2599  0.4743
  194MOL0     N26651   4.936   6.895   6.861  0.3132 -0.5474 -0.0605
  194MOL0     C26652   4.993   6.781   6.906 -0.7357  0.0973 -0.5113
  194MOL0     C26653   5.084   6.747   6.807  0.0979 -0.0218  0.1681
  194MOL0     C26654   5.182   6.634   6.804  0.3373 -0.1560  0.5972
  194MOL0     C26655   5.310   6.651   6.708  0.4087  1.2755 -0.8145
  194MOL0     C26656   5.417   6.754   6.756  0.7516 -0.6832  0.4278
  194MOL0     C26657   5.511   6.804   6.642 -0.8454  0.7725  0.2741
  194MOL0     O26658   5.554   6.688   6.568  1.0983 -1.0605 -0.7616
  194MOL0     C26659   5.679   6.653   6.555  0.9967  0.2622  0.2736
  194MOL0     C26660   5.691   6.517   6.514  0.1799 -0.0810 -0.0940
  194MOL0     C26661   5.813   6.467   6.474  0.7579  0.3266  0.7952
  194MOL0     C26662   5.822   6.323   6.437 -0.1722  0.4371 -0.1358
  194MOL0     C26663   5.925   6.547   6.494 -0.7224  0.0534 -0.2065
  194MOL0     C26664   6.049   6.497   6.437  0.3510  0.3977 -0.5412
  194MOL0     O26665   6.036   6.431   6.312 -0.3059 -0.3730  0.6847
  194MOL0     C26666   6.142   6.366   6.254  0.3329  1.1815 -0.0575
  194MOL0     C26667   6.186   6.393   6.119  0.3596 -0.0372  0.2049
  194MOL0     C26668   6.288   6.309   6.061  0.2260 -0.3022 -0.1701
  194MOL0     C26669   6.355   6.205   6.130  0.8231 -0.7924 -0.0031
  194MOL0     O26670   6.457   6.128   6.087  0.2295  0.6855  0.4438
  194MOL0     C26671   6.527   6.175   5.969  0.2586 -0.3980 -0.6330
  194MOL0     C26672   6.639   6.078   5.933 -0.2493  0.2443  0.3710
  194MOL0     C26673   6.596   5.934   5.904 -0.0273  0.1482 -0.9356
  194MOL0     C26674   6.714   5.840   5.854  0.4121 -0.3364 -0.4103
  194MOL0     C26675   6.641   5.703   5.841  0.2097  0.0793  0.3997
  194MOL0     C26676   6.734   5.583   5.824 -0.3657  0.0764  0.4533
  194MOL0     C26677   6.775   5.500   5.946  0.7643  0.7075 -0.1855
  194MOL0     C26678   6.831   5.372   5.897  0.9185  0.2398  0.3398
  194MOL0    Cl26679   6.999   5.394   5.855  0.0549 -0.1348  0.3055
  194MOL0     C26680   6.295   6.174   6.258 -0.8113 -0.2837  0.5599
  194MOL0     C26681   6.201   6.250   6.321 -0.7526  0.6498 -0.4900
  194MOL0     O26682   6.154   6.523   6.487  0.4128 -0.3883 -0.2180
  194MOL0     C26683   5.910   6.677   6.540  0.9818 -0.8189  0.4668
  194MOL0     C26684   5.792   6.731   6.566  0.6597  0.4867 -0.6670
  194MOL0     N26685   5.070   6.838   6.696  0.4760  0.1620 -0.1999
  194MOL0     N26686   4.981   6.920   6.736 -0.0808 -0.3584  0.4872
  194MOL0     C26687   3.989   7.187   6.588  0.9690 -0.0895  0.2519
  194MOL0     C26688   3.915   7.255   6.484  0.5002 -0.4959  0.0496
  194MOL0     C26689   3.578   7.361   6.210  0.2578 -0.9850  0.0011
  194MOL0     C26690   3.554   7.267   6.111  0.3752  0.6289 -0.2038
  194MOL0     C26691   3.441   7.273   6.026 -0.0454 -0.1346  0.2796
  194MOL0     C26692   3.344   7.375   6.035 -0.7614  0.0685  0.2144
  194MOL0     O26693   3.221   7.377   5.980 -0.1831 -0.3369  0.1302
  194MOL0     C26694   3.174   7.244   5.930  0.3112  0.4330 -0.0993
  194MOL0     C26695   3.225   7.213   5.789 -0.1040  0.0627 -0.1797
  194MOL0     C26696   3.177   7.073   5.736 -0.4026 -0.6620  0.8669
  194MOL0     C26697   3.262   7.001   5.629 -0.6996 -0.6844  0.2196
  194MOL0     C26698   3.304   7.101   5.529 -0.4684  0.7447 -0.0036
  194MOL0     C26699   3.340   7.181   5.443 -0.1584  0.2666  0.0167
  194MOL0     C26700   3.381   7.482   6.112  0.5667  0.1093 -1.1281
  194MOL0     C26701   3.492   7.474   6.199  0.4436 -0.2621 -0.2184
  194MOL0     C26702   3.518   7.602   6.275  0.6758  0.0507  0.1785
  194MOL0     H26703   3.726   7.001   6.387 -0.0447  0.7808 -1.8862
  194MOL0     H26704   3.859   6.874   6.545 -3.6910 -0.3248  2.2061
  194MOL0     H26705   4.116   6.828   6.594 -0.2322  1.3950 -0.1129
  194MOL0     H26706   3.989   6.785   6.708  1.9733 -2.3184 -0.6609
  194MOL0     H26707   4.133   6.865   6.898  1.7522  0.6207 -0.2073
  194MOL0     H26708   4.171   6.707   6.840 -1.2057  0.0940  0.5514
  194MOL0     H26709   4.343   6.814   6.685 -0.8943 -1.6067  0.4488
  194MOL0     H26710   4.316   6.968   6.765  2.4448 -0.9879  0.2398
  194MOL0     H26711   4.372   6.875   6.985 -1.5063  0.7303 -1.2310
  194MOL0     H26712   4.410   6.707   6.926  1.0366  0.1385  0.4906
  194MOL0     H26713   4.575   6.795   6.781  0.3945  0.0232 -0.3656
  194MOL0     H26714   4.608   6.818   6.958  0.2795 -2.4452 -0.5484
  194MOL0     H26715   4.515   7.033   6.768 -1.7838  1.6958  1.5983
  194MOL0     H26716   4.540   7.047   6.944 -0.3905  0.1566 -0.2339
  194MOL0     H26717   4.737   7.137   6.845  0.6113  0.9253  1.9695
  194MOL0     H26718   4.741   6.998   6.732 -2.8249  2.2277 -1.1801
  194MOL0     H26719   4.901   7.052   6.968 -0.4714  1.0787  0.1076
  194MOL0     H26720   4.801   6.919   7.018  1.4120 -0.3715  0.5620
  194MOL0     H26721   4.966   6.723   6.994 -3.1364 -2.6996 -2.8990
  194MOL0     H26722   5.125   6.550   6.763 -2.2102  2.4442 -1.6257
  194MOL0     H26723   5.213   6.613   6.907 -1.0641 -0.9725  0.8795
  194MOL0     H26724   5.365   6.556   6.715  2.4154  2.1735 -2.9770
  194MOL0     H26725   5.281   6.664   6.603 -0.3308 -2.9100 -1.3157
  194MOL0     H26726   5.370   6.849   6.785  2.1664  0.5726 -1.1758
  194MOL0     H26727   5.464   6.730   6.852  1.6182  0.0477  0.2059
  194MOL0     H26728   5.482   6.888   6.578  0.9248  3.2119  2.4621
  194MOL0     H26729   5.595   6.846   6.698 -1.3380  2.8459 -0.4463
  194MOL0     H26730   5.596   6.466   6.504  0.4808 -0.8857  0.9254
  194MOL0     H26731   5.733   6.277   6.482  0.2966 -1.4181 -0.9957
  194MOL0     H26732   5.908   6.267   6.474 -2.2959 -0.7958  3.4702
  194MOL0     H26733   5.814   6.293   6.332  2.1142 -1.9152  0.2491
  194MOL0     H26734   6.143   6.476   6.065 -1.3396 -1.3338 -0.5455
  194MOL0     H26735   6.301   6.341   5.959 -7.0722  0.3174 -1.4399
  194MOL0     H26736   6.461   6.171   5.882 -0.3945  0.0741 -0.1616
  194MOL0     H26737   6.570   6.274   5.986  0.4422 -0.1446 -2.3752
  194MOL0     H26738   6.701   6.112   5.850  1.3818 -4.0185 -0.4100
  194MOL0     H26739   6.708   6.078   6.018  1.8567  2.5859 -1.1913
  194MOL0     H26740   6.523   5.945   5.823 -0.9548  2.4652  0.1363
  194MOL0     H26741   6.545   5.894   5.992 -3.3382  1.2867 -2.1725
  194MOL0     H26742   6.796   5.847   5.925  0.3682  1.2199 -0.4782
  194MOL0     H26743   6.762   5.880   5.764  0.4402 -1.2214 -0.8026
  194MOL0     H26744   6.574   5.684   5.926 -0.0564  0.7566  0.3415
  194MOL0     H26745   6.568   5.711   5.760  0.4295  2.0034  0.3618
  194MOL0     H26746   6.827   5.612   5.775  0.3106 -1.1425  0.9606
  194MOL0     H26747   6.684   5.513   5.757  0.7463  0.4316 -0.8048
  194MOL0     H26748   6.687   5.475   6.006  2.2696 -3.3744  0.7067
  194MOL0     H26749   6.836   5.560   6.015 -0.1104  0.5606  0.7347
  194MOL0     H26750   6.771   5.323   5.820  2.8685  0.4704 -1.4273
  194MOL0     H26751   6.834   5.289   5.968  1.8727 -0.9208 -0.9965
  194MOL0     H26752   6.310   6.073   6.297 -2.8816  0.5204  3.9318
  194MOL0     H26753   6.151   6.212   6.409 -2.8683 -0.9915 -2.3109
  194MOL0     H26754   5.994   6.746   6.539 -0.6384  1.6072 -4.8535
  194MOL0     H26755   5.782   6.833   6.602  1.4897 -0.6653  3.3125
  194MOL0     H26756   4.062   7.242   6.647  2.0601 -0.4788 -0.6908
  194MOL0     H26757   3.946   7.356   6.459  0.7097 -0.4769  0.3766
  194MOL0     H26758   3.612   7.176   6.121 -0.6181 -0.1948 -1.4906
  194MOL0     H26759   3.437   7.194   5.952  0.7142  1.0712 -1.1098
  194MOL0     H26760   3.206   7.167   6.001 -0.3540  0.3550  0.1220
  194MOL0     H26761   3.066   7.228   5.940  0.7034 -3.7839 -0.8539
  194MOL0     H26762   3.333   7.216   5.778 -0.0008 -0.3136  0.6308
  194MOL0     H26763   3.173   7.286   5.726 -0.0273 -0.1521 -0.4929
  194MOL0     H26764   3.155   7.006   5.819 -0.0417  0.1916  1.6688
  194MOL0     H26765   3.091   7.094   5.671  1.2854  1.2341 -0.9203
  194MOL0     H26766   3.196   6.926   5.585  0.9762 -2.3181  0.3320
  194MOL0     H26767   3.351   6.943   5.657  0.1380 -0.6155 -2.1144
  194MOL0     H26768   3.392   7.236   5.367  1.3732 -0.1875  0.6956
  194MOL0     H26769   3.314   7.567   6.106  0.1538  0.5500  4.2668
  194MOL0     H26770   3.535   7.569   6.378 -0.6612 -1.6093 -0.0759
  194MOL0     H26771   3.606   7.657   6.240  0.3807  0.3311 -0.1277
  194MOL0     H26772   3.430   7.665   6.262  1.2045  0.3447 -2.7511
  195MOL0     O26773   7.355   8.636   6.826 -0.4890 -0.3499  0.2881
  195MOL0     C26774   7.277   8.643   6.919 -0.0903 -0.6201  0.2321
  195MOL0     O26775   7.193   8.545   6.961 -0.5125  0.9215  0.3451
  195MOL0     C26776   7.195   8.414   6.928  0.3889  0.2353 -0.2647
  195MOL0     C26777   7.304   8.341   6.877  0.2367  0.4686 -0.0959
  195MOL0     C26778   7.289   8.207   6.842 -0.3950  0.0337 -0.4616
  195MOL0     C26779   7.165   8.138   6.882 -0.1437  1.1649 -0.2047
  195MOL0     O26780   7.163   7.997   6.864  0.3294 -0.0513 -0.0501
  195MOL0     C26781   7.048   7.939   6.798 -1.3605 -0.4230 -0.1905
  195MOL0     C26782   7.087   7.817   6.732  0.3556  0.4851 -0.4471
  195MOL0     C26783   6.960   7.765   6.653 -0.8126 -0.6569 -0.8035
  195MOL0     C26784   6.948   7.608   6.681 -0.4869 -0.3968 -1.0278
  195MOL0     C26785   6.856   7.557   6.569  0.1804  0.3813 -0.6239
  195MOL0     C26786   6.846   7.400   6.603  0.3210 -0.0382 -0.0403
  195MOL0     C26787   6.737   7.336   6.505 -1.4472  0.0704  0.1569
  195MOL0     C26788   6.709   7.194   6.549  0.0747 -0.0551  0.0110
  195MOL0     N26789   6.585   7.141   6.492 -0.2223  0.3221  0.6661
  195MOL0     C26790   6.484   7.083   6.558 -0.3951  0.9123 -0.6634
  195MOL0     C26791   6.382   7.076   6.469  0.4626 -0.4635  0.3095
  195MOL0     C26792   6.246   7.015   6.487 -1.0965  0.3269 -0.5519
  195MOL0     C26793   6.139   7.119   6.537  0.3893 -0.0186  0.7321
  195MOL0     C26794   6.000   7.049   6.558 -0.5121 -0.5988 -0.0664
  195MOL0     C26795   5.892   7.146   6.613  0.9783 -0.8098 -0.2814
  195MOL0     O26796   5.852   7.224   6.498 -0.3155  0.2022 -0.4745
  195MOL0     C26797   5.729   7.184   6.443 -0.2547  1.2030  0.5363
  195MOL0     C26798   5.608   7.163   6.510  0.0489 -0.4023  0.5332
  195MOL0     C26799   5.484   7.121   6.448  0.0214 -1.1567  0.6955
  195MOL0     C26800   5.360   7.123   6.527  0.2705 -0.5763 -1.0637
  195MOL0     C26801   5.494   7.089   6.308  0.4755 -0.1279 -0.0333
  195MOL0     C26802   5.371   7.067   6.223 -0.5497  1.2388  0.2736
  195MOL0     O26803   5.392   7.021   6.090  0.2034  1.0891 -0.6190
  195MOL0     C26804   5.279   7.018   6.009  0.3162 -0.3077  0.1228
  195MOL0     C26805   5.221   7.134   5.980 -0.3050  0.6730  0.4733
  195MOL0     C26806   5.117   7.145   5.888  0.5841  0.1552 -0.0067
  195MOL0     C26807   5.059   7.032   5.837  0.3873  0.0725 -0.4648
  195MOL0     O26808   4.950   7.032   5.756  0.4665  1.1932  0.0956
  195MOL0     C26809   4.848   7.115   5.811  0.5545 -0.2763  0.2748
  195MOL0     C26810   4.724   7.022   5.803 -0.0553 -1.0048  0.1751
  195MOL0     C26811   4.599   7.088   5.860 -0.4213 -0.2044  0.5634
  195MOL0     C26812   4.464   7.009   5.855  0.1956 -0.3693  0.7869
  195MOL0     C26813   4.351   7.066   5.947 -0.0155  0.6936 -0.6302
  195MOL0     C26814   4.246   6.957   5.989  0.4124 -0.0008  0.5407
  195MOL0     C26815   4.106   7.013   6.017  0.5035 -0.2004 -0.2987
  195MOL0     C26816   4.083   7.061   6.161 -0.5290  0.3583 -0.1020
  195MOL0    Cl26817   4.109   6.913   6.250  0.1546 -0.1079  0.1180
  195MOL0     C26818   5.123   6.912   5.866  0.0088  0.1000  1.0835
  195MOL0     C26819   5.232   6.903   5.952  0.0328  0.0228  0.1635
  195MOL0     O26820   5.258   7.090   6.270 -0.5144 -1.0842 -0.6422
  195MOL0     C26821   5.610   7.112   6.241  0.7350 -0.2036  0.2673
  195MOL0     C26822   5.725   7.164   6.305  0.3395  0.4331  1.1032
  195MOL0     N26823   6.430   7.131   6.354  0.4116 -0.3219 -0.2137
  195MOL0     N26824   6.553   7.161   6.371  0.0662 -0.7827  0.7168
  195MOL0     C26825   7.059   8.210   6.933  0.0383 -0.6829 -0.2891
  195MOL0     C26826   7.077   8.347   6.958  0.4349 -0.2614 -0.8621
  195MOL0     C26827   7.262   8.779   6.990  0.7304  0.0774  0.8725
  195MOL0     C26828   7.138   8.809   7.042  0.7515 -0.4294 -0.5252
  195MOL0     C26829   7.120   8.921   7.123 -0.1070 -0.2136  0.5778
  195MOL0     C26830   7.225   9.007   7.147  0.0351  0.4258  1.4580
  195MOL0     O26831   7.199   9.119   7.225  0.2033  0.7644 -0.2214
  195MOL0     C26832   7.297   9.142   7.326  0.3939 -0.9737  0.0629
  195MOL0     C26833   7.320   9.290   7.346 -0.3524  0.1791 -0.2823
  195MOL0     C26834   7.476   9.317   7.388 -0.2496  0.0923 -0.2672
  195MOL0     C26835   7.527   9.244   7.516 -0.1816 -0.1274  0.1466
  195MOL0     C26836   7.432   9.281   7.618  0.7830 -0.1250 -0.1659
  195MOL0     C26837   7.356   9.297   7.713 -0.3151  0.5081 -0.1681
  195MOL0     C26838   7.338   8.997   7.062 -0.5770  0.7310  0.0431
  195MOL0     C26839   7.369   8.872   6.999 -0.4454  0.2533 -0.4391
  195MOL0     C26840   7.516   8.839   6.956  0.3151 -0.0077  0.7247
  195MOL0     H26841   7.393   8.395   6.847  1.6574 -2.3764 -1.3999
  195MOL0     H26842   7.374   8.149   6.808  0.2273  0.0542  0.9664
  195MOL0     H26843   7.025   8.007   6.716  2.4065  0.9586 -0.3193
  195MOL0     H26844   6.964   7.920   6.865 -3.0049  2.9825 -1.0559
  195MOL0     H26845   7.171   7.837   6.664  1.8570  1.2696  1.5501
  195MOL0     H26846   7.115   7.740   6.804 -0.4022  2.5189  2.1758
  195MOL0     H26847   6.872   7.825   6.678 -0.8862 -1.0200 -0.1535
  195MOL0     H26848   6.979   7.784   6.547  5.7004  0.1830  0.1087
  195MOL0     H26849   7.041   7.553   6.672 -0.0301  0.3526 -0.9667
  195MOL0     H26850   6.918   7.582   6.783 -0.8221 -0.1051 -1.0481
  195MOL0     H26851   6.885   7.585   6.467  0.1221  4.4392  0.2991
  195MOL0     H26852   6.761   7.609   6.579  0.5076  0.7553  0.7502
  195MOL0     H26853   6.946   7.358   6.588  0.9832  0.8330  1.6311
  195MOL0     H26854   6.816   7.385   6.707 -1.4227  2.2620 -0.1237
  195MOL0     H26855   6.779   7.332   6.404 -2.1628 -0.7559 -0.1176
  195MOL0     H26856   6.644   7.394   6.504 -1.7347 -0.2656 -2.6546
  195MOL0     H26857   6.792   7.136   6.507 -1.5445 -1.7667 -1.0314
  195MOL0     H26858   6.714   7.189   6.658  0.7802 -3.2981 -0.0562
  195MOL0     H26859   6.488   7.068   6.665 -1.2839  1.7680 -0.4935
  195MOL0     H26860   6.267   6.930   6.552  0.0407 -0.8489 -2.3563
  195MOL0     H26861   6.228   6.969   6.389  1.1317  0.8107 -1.2675
  195MOL0     H26862   6.176   7.161   6.631  2.6789 -2.4868  1.0522
  195MOL0     H26863   6.115   7.193   6.460 -2.1056 -1.9857 -0.5625
  195MOL0     H26864   5.968   7.009   6.461  0.8971 -2.0436  0.0073
  195MOL0     H26865   6.011   6.959   6.620  0.4404 -1.9544 -2.0976
  195MOL0     H26866   5.807   7.088   6.648  0.2042  0.4873  0.0722
  195MOL0     H26867   5.929   7.211   6.693  0.2959 -1.7772  0.8461
  195MOL0     H26868   5.595   7.202   6.611 -2.7262 -1.1236  0.5468
  195MOL0     H26869   5.376   7.124   6.635  1.1334  1.3472 -1.1570
  195MOL0     H26870   5.292   7.040   6.505 -2.9125  1.5057  0.2144
  195MOL0     H26871   5.306   7.218   6.520  2.1890  0.8592  1.6335
  195MOL0     H26872   5.265   7.229   6.009  1.1766 -0.2293  1.3192
  195MOL0     H26873   5.077   7.240   5.855 -1.6382 -0.8221 -0.2682
  195MOL0     H26874   4.858   7.157   5.912  2.4680 -2.0523  0.9008
  195MOL0     H26875   4.847   7.205   5.748 -1.9790  2.4984  3.8388
  195MOL0     H26876   4.707   6.989   5.700  2.3571  1.0230 -0.9532
  195MOL0     H26877   4.748   6.934   5.863 -2.7941 -1.9074  0.0893
  195MOL0     H26878   4.581   7.185   5.813 -1.9274  0.0955  1.6783
  195MOL0     H26879   4.621   7.096   5.966  3.1723 -0.0529 -0.0848
  195MOL0     H26880   4.489   6.905   5.877 -0.1901 -0.9469 -1.2245
  195MOL0     H26881   4.428   7.018   5.752 -2.9823  1.8810  1.9284
  195MOL0     H26882   4.396   7.089   6.044 -1.0734 -3.0089  0.9053
  195MOL0     H26883   4.299   7.151   5.901 -0.2275  1.0980  0.3166
  195MOL0     H26884   4.282   6.892   6.069 -1.5932  1.1188  2.4461
  195MOL0     H26885   4.236   6.886   5.906  0.1603  0.3005  0.3097
  195MOL0     H26886   4.039   6.928   5.999 -2.3402  2.0390 -0.9599
  195MOL0     H26887   4.075   7.093   5.951 -0.2123 -0.2014  0.0329
  195MOL0     H26888   3.985   7.110   6.166  0.8644  3.3637  0.3021
  195MOL0     H26889   4.151   7.144   6.180 -0.7731  0.9385 -1.5575
  195MOL0     H26890   5.084   6.814   5.838  0.4515 -1.3280  4.8522
  195MOL0     H26891   5.262   6.801   5.973 -1.0094 -1.0620 -3.0804
  195MOL0     H26892   5.621   7.089   6.135 -1.2889  1.4914 -0.3895
  195MOL0     H26893   5.805   7.173   6.231  0.5539 -0.9928  1.1297
  195MOL0     H26894   6.969   8.158   6.960  0.6577 -1.6214  0.0004
  195MOL0     H26895   6.989   8.397   6.997 -0.1303 -3.4225  2.4774
  195MOL0     H26896   7.054   8.746   7.015 -1.0834  0.5170  2.5174
  195MOL0     H26897   7.024   8.948   7.165 -1.0916 -2.1168 -0.3520
  195MOL0     H26898   7.265   9.098   7.421 -1.5601 -2.4064 -1.1617
  195MOL0     H26899   7.391   9.090   7.309  1.9314  1.1901  1.4428
  195MOL0     H26900   7.258   9.328   7.427 -1.8471 -1.4206 -0.6225
  195MOL0     H26901   7.294   9.349   7.258  1.2440  1.9269  0.3326
  195MOL0     H26902   7.548   9.283   7.314 -0.8474 -1.9775  0.0496
  195MOL0     H26903   7.475   9.426   7.398  0.0437  0.3504 -2.5029
  195MOL0     H26904   7.624   9.288   7.543  0.0331  0.1868 -1.0798
  195MOL0     H26905   7.540   9.136   7.500  2.9684  0.5846 -3.8051
  195MOL0     H26906   7.279   9.311   7.787  1.5938  0.0340  2.0280
  195MOL0     H26907   7.414   9.073   7.068  0.2264 -0.1504  1.7908
  195MOL0     H26908   7.518   8.824   6.847 -1.1720  1.1390  0.5135
  195MOL0     H26909   7.588   8.915   6.985 -2.7910  4.4468 -1.9886
  195MOL0     H26910   7.544   8.744   7.003  1.3307  0.0674  0.2972
  196MOL0     O26911   7.085   2.104   6.848  1.0565 -0.2147 -0.7221
  196MOL0     C26912   7.034   2.170   6.759  0.2024 -0.7366  0.3044
  196MOL0     O26913   7.106   2.214   6.655  0.4393  0.0971  0.5891
  196MOL0     C26914   7.234   2.250   6.674 -0.4776 -0.2108 -0.2762
  196MOL0     C26915   7.323   2.235   6.562 -0.4604 -0.8151  0.2450
  196MOL0     C26916   7.461   2.289   6.565  0.7301 -0.6884  0.8793
  196MOL0     C26917   7.506   2.348   6.687  0.6404  1.3823  0.8426
  196MOL0     O26918   7.631   2.403   6.699 -0.4206 -0.1802  0.1109
  196MOL0     C26919   7.732   2.390   6.602 -0.0515 -0.4712  0.8120
  196MOL0     C26920   7.848   2.485   6.620  0.0010  0.2196 -0.0912
  196MOL0     C26921   7.971   2.458   6.532 -0.4768 -0.4481 -0.5098
  196MOL0     C26922   8.067   2.582   6.558 -0.0630 -1.1107  0.4896
  196MOL0     C26923   8.204   2.556   6.507  0.0318 -0.6922  0.3323
  196MOL0     C26924   8.312   2.632   6.600  0.7132  0.8734 -0.6856
  196MOL0     C26925   8.281   2.783   6.590 -0.9798 -0.1657 -0.0036
  196MOL0     C26926   8.405   2.858   6.649  0.3921  0.5543  0.6390
  196MOL0     N26927   8.409   3.002   6.617 -0.3482  0.1060  0.1933
  196MOL0     C26928   8.324   3.079   6.538  0.0265 -0.6392  0.6864
  196MOL0     C26929   8.341   3.198   6.577  0.6316 -0.2954  0.9391
  196MOL0     C26930   8.261   3.320   6.540  0.2634  0.0298  0.3238
  196MOL0     C26931   8.346   3.412   6.445 -0.5325 -0.1038  0.4293
  196MOL0     C26932   8.330   3.559   6.463  0.3970  0.6040  0.4093
  196MOL0     C26933   8.193   3.605   6.405 -0.4134  0.1294  0.3325
  196MOL0     O26934   8.196   3.597   6.260 -0.2560 -0.1946  0.4917
  196MOL0     C26935   8.089   3.659   6.200 -0.2256 -0.1921 -0.0502
  196MOL0     C26936   8.037   3.775   6.262  0.8082 -0.4361  1.5366
  196MOL0     C26937   7.948   3.868   6.196  0.0560  0.7590 -0.4282
  196MOL0     C26938   7.909   3.986   6.280  0.0935  0.8364  0.3045
  196MOL0     C26939   7.915   3.836   6.064 -0.3037  0.3254  0.1440
  196MOL0     C26940   7.813   3.913   5.986 -0.0162 -0.4721 -0.6416
  196MOL0     O26941   7.824   3.921   5.855  0.1202 -0.3775 -0.4787
  196MOL0     C26942   7.735   4.005   5.799  0.9242  0.0102  0.7799
  196MOL0     C26943   7.650   3.935   5.711 -0.1804 -0.1064 -0.3400
  196MOL0     C26944   7.552   4.006   5.651  0.3828  0.2988  0.1061
  196MOL0     C26945   7.542   4.142   5.652  0.3142 -0.4040  0.0604
  196MOL0     O26946   7.447   4.201   5.572 -0.3141  0.2087  0.3677
  196MOL0     C26947   7.447   4.343   5.555  0.4754  0.5370  0.1975
  196MOL0     C26948   7.391   4.380   5.421  0.1088 -1.3252  0.6335
  196MOL0     C26949   7.243   4.343   5.411  0.5869 -0.2533  0.7342
  196MOL0     C26950   7.182   4.407   5.275  0.6951  0.2875  1.1213
  196MOL0     C26951   7.027   4.377   5.250  0.0762 -0.6748  0.2701
  196MOL0     C26952   6.989   4.238   5.213  0.3093  0.4193  0.0402
  196MOL0     C26953   7.028   4.198   5.076 -0.0623  0.1303  0.5086
  196MOL0     C26954   7.007   4.045   5.062 -0.6284  0.8774  0.6181
  196MOL0    Cl26955   7.107   3.944   5.172 -0.4348  0.0249 -0.0271
  196MOL0     C26956   7.618   4.209   5.744  0.9658 -0.4177  0.2431
  196MOL0     C26957   7.713   4.145   5.825  0.1375  0.0983  0.2991
  196MOL0     O26958   7.720   3.955   6.048  0.6249  0.4350  0.1726
  196MOL0     C26959   7.972   3.724   5.997  0.5654  0.0519  0.9129
  196MOL0     C26960   8.067   3.635   6.064 -0.3368 -0.0592 -1.1830
  196MOL0     N26961   8.445   3.204   6.661  0.0747  0.0667 -0.0961
  196MOL0     N26962   8.488   3.089   6.682 -0.5062  0.5277 -1.0208
  196MOL0     C26963   7.416   2.347   6.793 -0.5410  0.4095 -0.5539
  196MOL0     C26964   7.282   2.312   6.784  0.4913 -0.0831 -0.5640
  196MOL0     C26965   6.890   2.186   6.740 -0.7528 -0.6880  0.0106
  196MOL0     C26966   6.841   2.241   6.612  0.6912  0.9857  0.5550
  196MOL0     C26967   6.710   2.235   6.575  1.3896  0.1537  0.1900
  196MOL0     C26968   6.614   2.186   6.655 -0.6583 -0.6332 -0.0449
  196MOL0     O26969   6.483   2.188   6.627 -0.6651 -0.6808  0.2991
  196MOL0     C26970   6.429   2.243   6.508 -0.1436  0.0061 -0.3643
  196MOL0     C26971   6.274   2.224   6.520  0.5717 -1.2836 -0.2769
  196MOL0     C26972   6.216   2.344   6.608  0.4399 -0.4764 -0.1647
  196MOL0     C26973   6.067   2.330   6.631 -0.5273  0.2433  0.2123
  196MOL0     C26974   6.036   2.439   6.721 -0.1705 -0.6183 -0.7074
  196MOL0     C26975   5.993   2.531   6.790  0.1807  0.3042 -0.0666
  196MOL0     C26976   6.655   2.157   6.789 -0.4401 -0.0127 -0.4525
  196MOL0     C26977   6.791   2.157   6.835  0.2849 -0.1880 -0.6966
  196MOL0     C26978   6.808   2.116   6.985  0.0433  0.5150  0.1089
  196MOL0     H26979   7.287   2.203   6.465 -1.2134  3.9696 -1.3140
  196MOL0     H26980   7.528   2.290   6.480 -0.5746 -0.9987 -0.1745
  196MOL0     H26981   7.684   2.423   6.510  0.0703  2.1667  1.6137
  196MOL0     H26982   7.757   2.284   6.610 -1.0292 -0.6170  2.3181
  196MOL0     H26983   7.817   2.587   6.596 -2.5628 -0.2357  0.9374
  196MOL0     H26984   7.872   2.476   6.726  6.7095  0.4591 -1.1395
  196MOL0     H26985   8.016   2.364   6.566  0.6150  0.6652  1.2846
  196MOL0     H26986   7.961   2.468   6.424  0.0952  1.9854 -0.3987
  196MOL0     H26987   8.021   2.671   6.514  3.0109 -0.0950 -0.9789
  196MOL0     H26988   8.077   2.598   6.666  2.5374 -0.1686  0.1825
  196MOL0     H26989   8.206   2.592   6.404 -1.0636 -1.7711 -0.0868
  196MOL0     H26990   8.223   2.450   6.494  1.7090 -0.2544 -1.1097
  196MOL0     H26991   8.309   2.610   6.707 -0.9255  0.1975 -0.8342
  196MOL0     H26992   8.412   2.604   6.565  1.0927 -0.4924  1.2971
  196MOL0     H26993   8.188   2.796   6.646 -1.4418  3.5705 -1.3439
  196MOL0     H26994   8.273   2.807   6.483  0.3937  0.9123  0.1115
  196MOL0     H26995   8.404   2.842   6.758 -1.3458  1.4524  0.7953
  196MOL0     H26996   8.498   2.820   6.606 -0.5440  1.3326 -2.2395
  196MOL0     H26997   8.250   3.049   6.464  0.7064  3.9293 -2.2219
  196MOL0     H26998   8.241   3.365   6.638  1.2457 -1.4468  1.2317
  196MOL0     H26999   8.165   3.288   6.497 -0.6630 -1.3897  3.1678
  196MOL0     H27000   8.453   3.395   6.459 -0.2155 -0.6740 -2.1436
  196MOL0     H27001   8.324   3.392   6.340  3.3606  1.2753 -0.8168
  196MOL0     H27002   8.347   3.585   6.568 -1.9326 -0.2974  1.0596
  196MOL0     H27003   8.410   3.605   6.404  0.2684  0.8094  0.3930
  196MOL0     H27004   8.115   3.530   6.423 -1.2485  0.7918 -0.4449
  196MOL0     H27005   8.166   3.697   6.457 -0.9615  0.1598  0.0005
  196MOL0     H27006   8.038   3.801   6.367  1.2566  2.4707  0.9040
  196MOL0     H27007   7.940   3.974   6.384 -2.6676 -1.4055  1.0196
  196MOL0     H27008   7.799   3.988   6.286 -0.0635 -0.3891 -1.3457
  196MOL0     H27009   7.961   4.079   6.259  2.9942 -0.5202  1.0475
  196MOL0     H27010   7.660   3.827   5.706  1.7673  0.0836 -1.1682
  196MOL0     H27011   7.482   3.956   5.585 -0.6785  0.9296  0.7301
  196MOL0     H27012   7.381   4.383   5.633 -1.3531  1.9467 -1.9233
  196MOL0     H27013   7.548   4.385   5.555  1.4994 -1.6474  2.5245
  196MOL0     H27014   7.407   4.487   5.407  1.6363 -1.5151  0.6594
  196MOL0     H27015   7.453   4.333   5.344  2.0077 -3.5404  3.2957
  196MOL0     H27016   7.187   4.392   5.492 -0.2733  0.7459 -0.4249
  196MOL0     H27017   7.229   4.235   5.415  1.1707 -0.3067  2.9681
  196MOL0     H27018   7.240   4.358   5.197  0.3435  2.3221 -0.4943
  196MOL0     H27019   7.193   4.515   5.266 -0.1781  0.2029 -2.5910
  196MOL0     H27020   6.972   4.411   5.338 -0.0789 -1.4659  0.4867
  196MOL0     H27021   6.986   4.451   5.181 -4.4416 -0.6152  2.6435
  196MOL0     H27022   6.880   4.227   5.216  0.0958  0.0237 -3.9268
  196MOL0     H27023   7.011   4.161   5.288 -2.5902 -1.1574 -0.5602
  196MOL0     H27024   7.130   4.219   5.043  0.1809 -1.8871 -0.1663
  196MOL0     H27025   6.966   4.251   5.003 -2.4736 -3.3551 -0.2404
  196MOL0     H27026   7.030   4.021   4.958 -1.2806 -0.9018  0.8504
  196MOL0     H27027   6.905   4.009   5.078 -0.1499 -1.1937 -0.7675
  196MOL0     H27028   7.602   4.316   5.757 -1.7632 -0.5303 -1.3769
  196MOL0     H27029   7.786   4.180   5.897  1.9698 -0.0440 -1.3941
  196MOL0     H27030   7.966   3.703   5.891  0.0920  5.8685 -0.5897
  196MOL0     H27031   8.119   3.553   6.016 -0.4849 -3.4824  3.8073
  196MOL0     H27032   7.451   2.399   6.882 -0.1850  0.7428 -0.8841
  196MOL0     H27033   7.213   2.329   6.866  2.9394  0.2355  1.5522
  196MOL0     H27034   6.913   2.273   6.538  0.9448 -1.4354 -0.3416
  196MOL0     H27035   6.690   2.292   6.485  3.4300  2.6768  1.2145
  196MOL0     H27036   6.445   2.350   6.493 -0.1432 -0.1536 -1.5559
  196MOL0     H27037   6.464   2.188   6.421 -2.9206 -3.3321  0.4044
  196MOL0     H27038   6.253   2.129   6.570  1.8639 -2.0954 -1.2030
  196MOL0     H27039   6.227   2.215   6.421 -3.9043  0.7206  1.4207
  196MOL0     H27040   6.259   2.338   6.708 -1.9630 -1.3883  0.9026
  196MOL0     H27041   6.228   2.441   6.560 -3.3108  0.4827  0.4854
  196MOL0     H27042   6.042   2.235   6.678 -0.5759 -0.4726 -1.1999
  196MOL0     H27043   6.004   2.348   6.543 -2.1419  0.6328  1.4047
  196MOL0     H27044   5.961   2.617   6.846 -1.6061 -2.0892  2.8753
  196MOL0     H27045   6.578   2.129   6.860  3.5208 -3.3249  3.0317
  196MOL0     H27046   6.712   2.129   7.035 -1.8352 -0.3006 -3.0213
  196MOL0     H27047   6.836   2.010   6.989 -0.6663  0.3547  1.0637
  196MOL0     H27048   6.883   2.165   7.048  0.8531 -0.3757 -0.1255
  197MOL0     O27049   2.693   4.688   5.101 -0.2108 -0.2693 -0.2868
  197MOL0     C27050   2.711   4.713   5.219  0.3491 -0.0923  0.6559
  197MOL0     O27051   2.615   4.754   5.306 -0.9632 -0.0076  0.2273
  197MOL0     C27052   2.490   4.762   5.260  0.1920  1.1187 -0.6521
  197MOL0     C27053   2.385   4.678   5.315 -0.2581 -0.3401  1.0294
  197MOL0     C27054   2.254   4.700   5.258 -0.3137 -0.1230 -0.9161
  197MOL0     C27055   2.232   4.796   5.168  0.2112  0.3112  0.3564
  197MOL0     O27056   2.103   4.797   5.118  0.0836 -0.3469  0.7122
  197MOL0     C27057   2.068   4.885   5.008  0.4502 -0.0940 -0.4544
  197MOL0     C27058   1.920   4.899   4.989  0.4175  0.2141  0.2772
  197MOL0     C27059   1.851   5.016   5.055  1.2333  0.2112  0.6164
  197MOL0     C27060   1.853   5.016   5.206  0.3065  0.6759  0.1127
  197MOL0     C27061   1.813   5.155   5.270 -0.6051 -0.7321 -0.9148
  197MOL0     C27062   1.895   5.281   5.230 -1.0481  0.5453  0.0611
  197MOL0     C27063   2.044   5.272   5.248  0.2580  0.9700  0.8555
  197MOL0     C27064   2.089   5.226   5.380 -0.5322  0.1505  0.2461
  197MOL0     N27065   2.231   5.256   5.416  1.0920  0.7494  0.5279
  197MOL0     C27066   2.340   5.200   5.342 -0.2963  0.7356 -0.0382
  197MOL0     C27067   2.437   5.212   5.435 -0.1467  0.0723  0.1733
  197MOL0     C27068   2.572   5.147   5.411 -0.5006 -0.0568 -0.3481
  197MOL0     C27069   2.674   5.227   5.321  0.2161  0.2682  0.1458
  197MOL0     C27070   2.725   5.346   5.402 -0.3857 -0.7120  0.8443
  197MOL0     C27071   2.842   5.322   5.503  0.9014 -0.1094  0.5296
  197MOL0     O27072   2.962   5.279   5.428  0.4690  0.2469 -0.2083
  197MOL0     C27073   3.062   5.213   5.493  0.0031 -0.1812  0.7304
  197MOL0     C27074   3.165   5.152   5.413  0.1454  0.6356  0.5709
  197MOL0     C27075   3.265   5.077   5.467 -0.5456 -0.5980  1.6766
  197MOL0     C27076   3.365   5.015   5.376  0.4318  0.3196 -0.2559
  197MOL0     C27077   3.266   5.066   5.608 -0.3123  0.0100  0.9861
  197MOL0     C27078   3.371   4.999   5.684 -0.3819 -0.8906  1.4598
  197MOL0     O27079   3.357   4.870   5.722  0.2179  0.9081 -0.7260
  197MOL0     C27080   3.443   4.822   5.821  0.2043 -0.0412  0.2371
  197MOL0     C27081   3.585   4.828   5.812  0.7254  0.0592  0.1204
  197MOL0     C27082   3.667   4.755   5.899  0.0215 -0.2463 -0.7774
  197MOL0     C27083   3.610   4.695   6.017 -0.7168  0.3352  1.5831
  197MOL0     O27084   3.692   4.618   6.099 -0.7581  0.1990 -0.0373
  197MOL0     C27085   3.682   4.482   6.046  0.0575 -0.0929 -0.3922
  197MOL0     C27086   3.759   4.381   6.126 -1.0251 -0.3996  0.0191
  197MOL0     C27087   3.909   4.399   6.132  0.1470  1.2046 -0.3600
  197MOL0     C27088   3.993   4.404   5.997 -0.8384  0.2102 -0.4845
  197MOL0     C27089   4.140   4.436   5.998 -0.4503 -0.3269 -0.6965
  197MOL0     C27090   4.162   4.587   6.006 -0.6351  0.2946 -0.8262
  197MOL0     C27091   4.309   4.628   6.014 -0.0101 -0.3388 -0.3228
  197MOL0     C27092   4.343   4.772   5.968  0.6658  0.8421  0.0827
  197MOL0    Cl27093   4.322   4.897   6.099 -0.4594  0.1922 -0.2158
  197MOL0     C27094   3.474   4.695   6.027  0.4775  0.6803  0.6654
  197MOL0     C27095   3.386   4.745   5.924 -0.8296  1.3318 -0.7516
  197MOL0     O27096   3.472   5.069   5.703  0.3011 -0.0444  0.4427
  197MOL0     C27097   3.163   5.123   5.688 -0.6983 -0.3359 -0.2326
  197MOL0     C27098   3.064   5.200   5.632  0.8556  0.3886 -0.6798
  197MOL0     N27099   2.397   5.287   5.540  0.3112 -0.9413 -0.2170
  197MOL0     N27100   2.267   5.299   5.536 -0.6191 -0.1120  0.1988
  197MOL0     C27101   2.335   4.881   5.113  0.5901  0.5002 -1.0014
  197MOL0     C27102   2.459   4.864   5.174 -0.1435 -1.1074  0.2197
  197MOL0     C27103   2.856   4.711   5.264 -0.5022  0.9702  1.2635
  197MOL0     C27104   2.944   4.625   5.188 -0.6759 -0.5215 -0.3727
  197MOL0     C27105   3.084   4.622   5.220 -0.9710 -0.2098 -0.4507
  197MOL0     C27106   3.139   4.702   5.321  0.3780 -0.5700  0.1083
  197MOL0     O27107   3.272   4.695   5.338 -0.0779 -0.2044  0.4882
  197MOL0     C27108   3.310   4.634   5.465 -1.1374  0.3933 -0.4453
  197MOL0     C27109   3.465   4.619   5.468  0.7906 -0.0674 -0.6180
  197MOL0     C27110   3.513   4.541   5.589  0.3662  0.2947 -0.0689
  197MOL0     C27111   3.665   4.495   5.598 -0.2738 -0.4640 -0.9481
  197MOL0     C27112   3.746   4.611   5.603 -0.2190  0.4833 -0.2105
  197MOL0     C27113   3.815   4.715   5.616  0.1052 -0.4425  0.6592
  197MOL0     C27114   3.052   4.781   5.386 -0.2084 -0.2220 -0.0797
  197MOL0     C27115   2.909   4.794   5.363  0.0999 -1.0661  0.0282
  197MOL0     C27116   2.835   4.905   5.430  0.7439  0.0503 -0.9733
  197MOL0     H27117   2.410   4.588   5.369  0.4195 -1.5089 -1.1179
  197MOL0     H27118   2.171   4.634   5.281 -1.1621  1.0350 -0.5109
  197MOL0     H27119   2.099   4.837   4.914 -1.3234 -0.0427 -1.1036
  197MOL0     H27120   2.105   4.988   5.014 -0.6101  0.4779 -2.5423
  197MOL0     H27121   1.895   4.914   4.883 -1.4324  0.3596  0.6964
  197MOL0     H27122   1.870   4.813   5.034  1.7976 -1.4351 -1.2030
  197MOL0     H27123   1.902   5.107   5.023 -0.0479  2.3581  4.0326
  197MOL0     H27124   1.746   5.017   5.024  0.8058 -0.7399  1.9090
  197MOL0     H27125   1.778   4.940   5.229  0.2024 -0.2106 -2.7779
  197MOL0     H27126   1.949   4.973   5.234 -0.5598  0.7909  3.7145
  197MOL0     H27127   1.824   5.139   5.378  0.3683  0.4939 -0.8185
  197MOL0     H27128   1.705   5.170   5.264 -0.3203  1.1080 -2.3083
  197MOL0     H27129   1.871   5.300   5.125  0.6622  0.6649 -0.3362
  197MOL0     H27130   1.864   5.373   5.280 -0.3850  0.1485  1.2440
  197MOL0     H27131   2.082   5.373   5.225 -0.6316  1.2117  0.3950
  197MOL0     H27132   2.100   5.204   5.183 -0.2877  1.0530  0.2931
  197MOL0     H27133   2.029   5.281   5.453 -0.9498 -2.3200  1.8800
  197MOL0     H27134   2.074   5.118   5.391 -1.4194  0.1100 -1.1118
  197MOL0     H27135   2.347   5.148   5.247 -1.0714  3.3318 -1.6113
  197MOL0     H27136   2.561   5.041   5.384  0.5328 -0.3577  0.3321
  197MOL0     H27137   2.615   5.139   5.512 -0.2449  0.2821 -0.4279
  197MOL0     H27138   2.763   5.173   5.288  0.1300  1.4815 -2.2185
  197MOL0     H27139   2.642   5.254   5.220 -1.2714 -0.9508  0.2479
  197MOL0     H27140   2.765   5.407   5.321  1.7089 -3.5066 -0.4379
  197MOL0     H27141   2.645   5.398   5.453  0.7554 -0.3687  2.3511
  197MOL0     H27142   2.869   5.421   5.541  1.6771  1.0889 -2.8532
  197MOL0     H27143   2.817   5.253   5.585  1.4608  1.9931  2.5913
  197MOL0     H27144   3.158   5.153   5.305  4.7820 -2.4360 -0.0360
  197MOL0     H27145   3.420   5.077   5.305 -0.1195 -0.6721 -1.6069
  197MOL0     H27146   3.319   4.936   5.314  1.1967 -1.0196  0.8321
  197MOL0     H27147   3.448   4.976   5.435  1.9220  3.6205  0.0246
  197MOL0     H27148   3.635   4.866   5.724 -1.7844 -0.4043 -1.6035
  197MOL0     H27149   3.775   4.755   5.887 -0.2495 -0.4161 -3.9312
  197MOL0     H27150   3.580   4.443   6.046  0.3375 -0.8547  0.1923
  197MOL0     H27151   3.711   4.483   5.941 -0.0105  0.2717 -0.4112
  197MOL0     H27152   3.722   4.387   6.229 -0.4137 -1.2779  0.2966
  197MOL0     H27153   3.730   4.281   6.094  1.0857 -1.1499  0.2875
  197MOL0     H27154   3.953   4.318   6.190  0.1275  0.5352 -1.2606
  197MOL0     H27155   3.929   4.488   6.192  1.7685 -0.2245  1.3372
  197MOL0     H27156   3.948   4.472   5.924 -2.8740  0.6290  1.0434
  197MOL0     H27157   3.974   4.305   5.955 -3.0806  1.2533 -2.1404
  197MOL0     H27158   4.201   4.373   6.063  0.5489 -2.7861 -3.7786
  197MOL0     H27159   4.179   4.404   5.901  1.9763  0.5562 -0.0845
  197MOL0     H27160   4.107   4.607   6.099  1.7419  1.7282  0.3441
  197MOL0     H27161   4.128   4.630   5.911  0.0430  0.4962 -0.9765
  197MOL0     H27162   4.364   4.569   5.941  1.9679  1.2828 -0.2426
  197MOL0     H27163   4.354   4.604   6.111 -0.8256  0.6971  0.3330
  197MOL0     H27164   4.285   4.809   5.883 -0.4468  0.2073  0.5534
  197MOL0     H27165   4.444   4.759   5.928  0.0542 -2.3753 -0.6577
  197MOL0     H27166   3.435   4.637   6.110 -1.2815 -0.6329 -0.9796
  197MOL0     H27167   3.282   4.721   5.941 -0.4194 -0.9882 -1.1645
  197MOL0     H27168   3.168   5.121   5.797  0.6499 -0.1002 -0.2754
  197MOL0     H27169   2.997   5.250   5.701  0.5341 -0.7815 -0.1214
  197MOL0     H27170   2.321   4.962   5.043  0.1703 -0.0564 -1.5759
  197MOL0     H27171   2.537   4.935   5.147  0.5696 -1.4540  1.3216
  197MOL0     H27172   2.893   4.559   5.118 -2.8937 -0.1162  0.7534
  197MOL0     H27173   3.159   4.560   5.172  1.8874  1.3575  1.7118
  197MOL0     H27174   3.293   4.702   5.550  0.4827 -3.2427  3.1579
  197MOL0     H27175   3.260   4.540   5.493 -0.2443  0.2316  0.6795
  197MOL0     H27176   3.506   4.720   5.469 -0.6404  0.5512  1.7019
  197MOL0     H27177   3.504   4.572   5.377  2.9532  0.9010 -0.2499
  197MOL0     H27178   3.478   4.587   5.682 -2.8706 -2.8263  0.4861
  197MOL0     H27179   3.457   4.447   5.591  0.9734 -0.2703 -3.6547
  197MOL0     H27180   3.692   4.434   5.511  0.1297 -2.7100  0.6628
  197MOL0     H27181   3.681   4.447   5.695 -0.9909 -1.0930 -1.1328
  197MOL0     H27182   3.864   4.810   5.607 -1.3922  0.3679  0.6243
  197MOL0     H27183   3.091   4.846   5.463 -2.3989 -0.3450  1.2387
  197MOL0     H27184   2.896   4.981   5.480  0.9339 -0.0226 -1.0942
  197MOL0     H27185   2.770   4.964   5.364 -0.2011  1.0127  0.7412
  197MOL0     H27186   2.769   4.866   5.508  2.9033 -0.4842  0.6635
  198MOL0     O27187  10.510   9.644   6.435  0.0472 -0.2553 -0.1512
  198MOL0     C27188  10.434   9.643   6.336  0.5001 -0.0622 -0.0367
  198MOL0     O27189  10.323   9.716   6.319  0.2668 -0.7201 -0.5901
  198MOL0     C27190  10.309   9.831   6.403 -0.4413  0.2521 -0.6188
  198MOL0     C27191  10.276   9.946   6.333  0.5029  0.3059 -0.4475
  198MOL0     C27192  10.249  10.059   6.412  0.4128  0.1988 -0.6052
  198MOL0     C27193  10.251  10.061   6.554 -0.2826 -0.2121  0.2064
  198MOL0     O27194  10.226  10.181   6.632  0.0998 -0.3330  0.0054
  198MOL0     C27195  10.186  10.300   6.563 -0.5962  0.0755  0.7137
  198MOL0     C27196  10.131  10.394   6.665 -0.3348 -0.5726  0.5445
  198MOL0     C27197  10.021  10.347   6.760  0.0836 -0.2799  0.4278
  198MOL0     C27198   9.902  10.293   6.705  0.3276  0.2411 -1.1197
  198MOL0     C27199   9.841  10.198   6.805 -0.4421 -0.1731 -0.8088
  198MOL0     C27200   9.701  10.143   6.761  0.1941 -0.8428 -0.0888
  198MOL0     C27201   9.648  10.043   6.860 -0.1544  0.0349 -0.8272
  198MOL0     C27202   9.502  10.004   6.815 -0.2246 -0.0148 -0.2833
  198MOL0     N27203   9.435   9.912   6.895  0.1753  1.0241  0.1326
  198MOL0     C27204   9.436   9.898   7.034 -0.3051  0.0930  0.4186
  198MOL0     C27205   9.378   9.778   7.059  0.9806 -0.1380 -0.9427
  198MOL0     C27206   9.322   9.738   7.193  0.3032 -0.4536  0.0569
  198MOL0     C27207   9.307   9.590   7.225 -1.1609  0.8339  0.1207
  198MOL0     C27208   9.265   9.556   7.381 -0.7243  0.4921  1.1748
  198MOL0     C27209   9.221   9.679   7.469 -1.0213 -0.0702  0.2647
  198MOL0     O27210   9.326   9.763   7.506  0.0862 -0.6477 -0.1268
  198MOL0     C27211   9.310   9.866   7.596 -0.0134  0.0644 -0.1945
  198MOL0     C27212   9.426   9.926   7.634  0.8435  0.8997  0.1907
  198MOL0     C27213   9.425  10.020   7.733  0.8177 -0.1413 -0.0519
  198MOL0     C27214   9.557  10.076   7.771 -0.4684  0.0928  0.6405
  198MOL0     C27215   9.294  10.061   7.784  0.3494  0.3341 -0.8187
  198MOL0     C27216   9.267  10.191   7.864 -0.3302  0.6947  0.9054
  198MOL0     O27217   9.145  10.237   7.878 -0.8595  0.0614  0.2015
  198MOL0     C27218   9.129  10.373   7.904 -0.9280  0.7649  0.3735
  198MOL0     C27219   9.023  10.412   7.984 -0.8565 -0.0458 -0.8167
  198MOL0     C27220   8.986  10.550   8.004 -1.5095 -0.2537 -1.2527
  198MOL0     C27221   9.066  10.648   7.942  0.3863 -0.5791  0.3419
  198MOL0     O27222   9.030  10.777   7.971  0.2515 -0.2082  0.2046
  198MOL0     C27223   9.132  10.881   7.976  0.2420  0.0282  0.0847
  198MOL0     C27224   9.236  10.870   8.089  0.7753 -0.3269  0.2530
  198MOL0     C27225   9.353  10.966   8.072 -1.4556 -1.1844  0.6683
  198MOL0     C27226   9.465  10.948   8.173  0.2494  0.4160  0.0347
  198MOL0     C27227   9.583  11.049   8.153 -0.0765  1.3959  0.8408
  198MOL0     C27228   9.698  10.992   8.246  1.1787  0.0013  1.2066
  198MOL0     C27229   9.817  11.082   8.224 -0.1476  0.5065  0.6632
  198MOL0     C27230   9.946  11.010   8.262 -1.1680 -0.4553  0.0571
  198MOL0    Cl27231   9.937  10.970   8.428  0.0015  0.0857 -0.1141
  198MOL0     C27232   9.173  10.604   7.856  1.1534 -0.5403 -0.2754
  198MOL0     C27233   9.202  10.471   7.841 -0.0768 -0.2562  0.3051
  198MOL0     O27234   9.366  10.246   7.917  0.2204 -0.2782 -0.7856
  198MOL0     C27235   9.188   9.991   7.761  0.4335  0.0471 -1.0809
  198MOL0     C27236   9.193   9.889   7.666  0.5453 -1.0847  0.4265
  198MOL0     N27237   9.342   9.717   6.949  0.3733 -0.0593 -0.1809
  198MOL0     N27238   9.380   9.797   6.846  0.2733  0.7483 -0.4936
  198MOL0     C27239  10.280   9.940   6.618 -0.2538 -0.6213  0.5144
  198MOL0     C27240  10.309   9.825   6.547  0.6455  0.9570  0.3688
  198MOL0     C27241  10.473   9.548   6.223 -0.2365 -0.8926 -0.2514
  198MOL0     C27242  10.602   9.550   6.181  1.1488  0.3664  0.2355
  198MOL0     C27243  10.643   9.484   6.068  0.5065 -0.4030  0.1072
  198MOL0     C27244  10.551   9.401   5.996 -0.6938  1.2823  0.2041
  198MOL0     O27245  10.590   9.332   5.891 -0.7865  0.2326  0.3965
  198MOL0     C27246  10.486   9.289   5.793  0.6490 -0.0149 -0.8054
  198MOL0     C27247  10.538   9.255   5.650 -0.1385 -1.4095  0.1147
  198MOL0     C27248  10.424   9.230   5.548  0.8478  0.3464  0.6026
  198MOL0     C27249  10.473   9.157   5.421 -0.4107 -0.5404  0.2521
  198MOL0     C27250  10.556   9.249   5.333  0.1913 -0.5561  0.5917
  198MOL0     C27251  10.629   9.318   5.268  0.2427 -0.5865 -0.6112
  198MOL0     C27252  10.416   9.398   6.043  0.1856  0.0813  0.3366
  198MOL0     C27253  10.371   9.480   6.147  0.4677 -0.5739 -1.1536
  198MOL0     C27254  10.221   9.478   6.183 -0.0655 -0.0509 -0.3626
  198MOL0     H27255  10.287   9.949   6.225 -1.0491  1.8834 -0.6109
  198MOL0     H27256  10.229  10.148   6.353  2.4229  0.5514 -0.8240
  198MOL0     H27257  10.104  10.280   6.493  1.1806  2.2435 -2.2367
  198MOL0     H27258  10.272  10.340   6.510 -0.0419 -1.5132  0.3651
  198MOL0     H27259  10.215  10.408   6.734  0.3445 -2.5208  0.1848
  198MOL0     H27260  10.103  10.485   6.613 -1.1110 -1.0451  0.1207
  198MOL0     H27261  10.072  10.289   6.838  1.8088  1.5412  0.7387
  198MOL0     H27262   9.997  10.437   6.816  0.6430  1.3993 -1.9042
  198MOL0     H27263   9.843  10.371   6.654  2.7864  2.7725 -0.3433
  198MOL0     H27264   9.929  10.226   6.623 -5.1124 -2.0932 -1.4560
  198MOL0     H27265   9.829  10.250   6.901 -1.2948 -0.6142 -0.6644
  198MOL0     H27266   9.902  10.108   6.812 -1.8362 -1.3957 -3.2532
  198MOL0     H27267   9.633  10.229   6.763 -0.1604 -1.1060 -0.6214
  198MOL0     H27268   9.694  10.099   6.661 -1.0913 -0.3376 -0.2334
  198MOL0     H27269   9.648  10.069   6.966  0.9438 -1.4104 -0.4422
  198MOL0     H27270   9.721   9.962   6.854  1.5736  1.2882  1.4047
  198MOL0     H27271   9.437  10.086   6.785  3.4262  2.5308 -1.9440
  198MOL0     H27272   9.515   9.962   6.714  0.5386  1.8586 -1.0158
  198MOL0     H27273   9.470   9.968   7.110 -0.5212 -0.3105  0.8985
  198MOL0     H27274   9.221   9.780   7.188  0.2627 -0.5861 -0.3063
  198MOL0     H27275   9.388   9.790   7.263  0.9869 -0.1685 -0.7868
  198MOL0     H27276   9.215   9.564   7.171 -1.4452 -0.2978  1.1029
  198MOL0     H27277   9.387   9.523   7.194 -1.6444  1.1971 -2.0343
  198MOL0     H27278   9.177   9.494   7.364  0.0427 -0.3922  0.2577
  198MOL0     H27279   9.338   9.499   7.440  0.4385  0.9165  0.2028
  198MOL0     H27280   9.150   9.735   7.407  0.0243 -1.5767 -2.4969
  198MOL0     H27281   9.167   9.637   7.554 -0.7119  0.5006  0.7531
  198MOL0     H27282   9.519   9.909   7.580  0.7553  0.8024  0.0698
  198MOL0     H27283   9.646  10.017   7.748  1.1110  2.0735  1.3993
  198MOL0     H27284   9.554  10.077   7.880 -1.6877 -0.8081  0.6335
  198MOL0     H27285   9.576  10.174   7.726  1.9980 -0.4345  0.3709
  198MOL0     H27286   8.968  10.330   8.029 -0.0423  1.0679  2.4133
  198MOL0     H27287   8.910  10.583   8.074 -0.5842  5.0796 -2.3503
  198MOL0     H27288   9.173  10.892   7.876  1.0525 -1.4492  0.2189
  198MOL0     H27289   9.069  10.967   8.001 -1.5471 -0.3641 -2.6722
  198MOL0     H27290   9.190  10.883   8.187  2.1312 -0.2556  0.9074
  198MOL0     H27291   9.291  10.775   8.086  0.7066 -0.3664  0.2520
  198MOL0     H27292   9.314  11.064   8.099  0.8273 -0.9884  3.6499
  198MOL0     H27293   9.393  10.973   7.970 -2.8834 -0.3109  0.1293
  198MOL0     H27294   9.493  10.842   8.171  0.0468  0.3384  0.8100
  198MOL0     H27295   9.425  10.960   8.274 -0.2245 -0.2347 -0.0661
  198MOL0     H27296   9.610  11.042   8.048  0.3900 -0.8214  1.0483
  198MOL0     H27297   9.560  11.150   8.187 -0.2944  1.0442  1.7769
  198MOL0     H27298   9.723  10.889   8.217  1.2440 -0.2189  2.0273
  198MOL0     H27299   9.666  10.994   8.350 -3.6825 -0.9071 -0.0131
  198MOL0     H27300   9.802  11.174   8.282  0.6141  1.1587 -0.1396
  198MOL0     H27301   9.827  11.117   8.121 -3.8694  0.7286  0.2385
  198MOL0     H27302  10.034  11.075   8.257 -3.3813  2.8156  0.5900
  198MOL0     H27303   9.972  10.919   8.206  2.4082 -0.8075  1.9572
  198MOL0     H27304   9.227  10.691   7.819 -0.4133  0.6025  0.0256
  198MOL0     H27305   9.283  10.439   7.777 -0.8743 -0.1120 -0.7882
  198MOL0     H27306   9.096  10.024   7.807  0.6990  0.7753 -1.0572
  198MOL0     H27307   9.102   9.839   7.634  0.3792 -0.6511  0.2104
  198MOL0     H27308  10.279   9.945   6.727 -2.3375  1.1791  0.4809
  198MOL0     H27309  10.330   9.728   6.590 -0.7571  0.8236  0.8211
  198MOL0     H27310  10.677   9.605   6.236 -2.7021  4.5544  1.9408
  198MOL0     H27311  10.749   9.472   6.046  1.4616  0.3189  3.6381
  198MOL0     H27312  10.429   9.207   5.837  0.0677  1.9890  2.4639
  198MOL0     H27313  10.413   9.370   5.781  1.0488  0.3862 -0.5550
  198MOL0     H27314  10.604   9.169   5.663 -0.4381 -1.8733 -1.2429
  198MOL0     H27315  10.595   9.338   5.607  0.7095 -0.1182  3.3932
  198MOL0     H27316  10.347   9.165   5.590  0.4515 -1.8386 -3.0448
  198MOL0     H27317  10.376   9.322   5.511  1.2561  1.1005  1.8731
  198MOL0     H27318  10.380   9.122   5.376 -1.0622 -1.7528  2.3937
  198MOL0     H27319  10.523   9.068   5.460  1.6883  0.5778  0.2662
  198MOL0     H27320  10.673   9.384   5.196  2.3914  0.1806  1.2841
  198MOL0     H27321  10.347   9.328   5.996  1.2127 -0.6428 -0.1374
  198MOL0     H27322  10.206   9.402   6.261  2.8837 -1.0864 -0.6450
  198MOL0     H27323  10.168   9.569   6.210 -1.4535 -0.2436 -2.2238
  198MOL0     H27324  10.166   9.443   6.095 -1.2399  0.5833  0.1063
  199MOL0     O27325   6.714  11.338   0.707  0.6594  0.8004  0.2803
  199MOL0     C27326   6.741  11.256   0.620  0.7510 -0.7798  0.2543
  199MOL0     O27327   6.868  11.215   0.597  0.7978 -0.1422 -0.3322
  199MOL0     C27328   6.960  11.230   0.694  0.1108  0.9937 -0.0908
  199MOL0     C27329   6.943  11.165   0.813  0.3608  0.7319  0.5199
  199MOL0     C27330   7.031  11.169   0.923 -0.0507  1.1061  0.2289
  199MOL0     C27331   7.138  11.258   0.913  0.4424  0.4865 -0.8251
  199MOL0     O27332   7.227  11.300   1.007  0.0551 -0.0961 -0.1033
  199MOL0     C27333   7.230  11.240   1.141 -0.0115  0.3358 -0.0628
  199MOL0     C27334   7.275  11.345   1.241  0.6159  0.6043  0.2167
  199MOL0     C27335   7.401  11.424   1.207 -0.0461 -0.1512 -0.1275
  199MOL0     C27336   7.473  11.455   1.341  0.0595  0.6777  0.5116
  199MOL0     C27337   7.612  11.513   1.330 -0.1941  0.5621  0.0573
  199MOL0     C27338   7.607  11.654   1.273 -0.3962 -0.1450  0.4820
  199MOL0     C27339   7.750  11.696   1.248 -0.5425 -0.1084  0.6310
  199MOL0     C27340   7.835  11.748   1.375  0.8398  1.0474  0.4250
  199MOL0     N27341   7.766  11.855   1.439 -0.1467  0.1426  0.3255
  199MOL0     C27342   7.674  11.854   1.545  0.1762 -0.5792 -0.2114
  199MOL0     C27343   7.628  11.980   1.559 -0.2807 -0.8694 -0.3524
  199MOL0     C27344   7.526  12.046   1.653  0.4865  0.2813 -0.3783
  199MOL0     C27345   7.381  12.018   1.635  0.5955  0.9242 -0.6054
  199MOL0     C27346   7.311  12.047   1.779 -0.4518  0.8841  0.4479
  199MOL0     C27347   7.159  12.060   1.770 -0.5642  0.6054 -0.2388
  199MOL0     O27348   7.123  12.123   1.893 -0.3126  0.1261  0.1419
  199MOL0     C27349   6.986  12.167   1.900 -0.0004 -0.3796 -0.3227
  199MOL0     C27350   6.896  12.184   1.801  0.0560 -0.2238  0.0047
  199MOL0     C27351   6.760  12.212   1.826 -0.8064  0.3512 -0.2397
  199MOL0     C27352   6.670  12.226   1.710 -0.3827 -0.8658 -0.8499
  199MOL0     C27353   6.718  12.231   1.964  0.0694  0.0517 -0.0101
  199MOL0     C27354   6.576  12.259   1.999  0.2144 -0.4118  0.3802
  199MOL0     O27355   6.486  12.213   1.903  0.5340  0.3973 -0.6457
  199MOL0     C27356   6.353  12.190   1.933  0.1560 -0.5256 -0.5018
  199MOL0     C27357   6.303  12.058   1.897 -0.3111 -1.6040 -0.3449
  199MOL0     C27358   6.168  12.032   1.914  0.8136 -0.1177 -0.7333
  199MOL0     C27359   6.087  12.130   1.974  0.4303  0.3470 -0.6791
  199MOL0     O27360   5.951  12.119   2.003 -0.6831  0.5709  0.3767
  199MOL0     C27361   5.877  12.066   1.893 -0.0507 -0.2024  0.3636
  199MOL0     C27362   5.785  12.184   1.846 -0.5371  1.0300  0.0583
  199MOL0     C27363   5.852  12.317   1.801 -0.0713 -0.5221  0.4300
  199MOL0     C27364   5.943  12.304   1.678  0.5109 -0.2007 -0.0322
  199MOL0     C27365   6.013  12.438   1.665  0.3860 -0.2353 -0.9607
  199MOL0     C27366   6.135  12.429   1.573 -0.3426  0.3493 -0.3121
  199MOL0     C27367   6.243  12.347   1.626 -1.2435  0.7092 -0.6787
  199MOL0     C27368   6.319  12.252   1.530  0.9617 -0.6278 -0.7807
  199MOL0    Cl27369   6.311  12.311   1.363  0.1949  0.1503  0.0524
  199MOL0     C27370   6.132  12.256   2.008 -0.3317 -0.1480 -0.6116
  199MOL0     C27371   6.270  12.281   1.987  0.1958  0.6315  0.0732
  199MOL0     O27372   6.545  12.318   2.100 -0.5123 -0.0476  0.0293
  199MOL0     C27373   6.819  12.231   2.063  0.1679 -0.5047  0.0469
  199MOL0     C27374   6.944  12.187   2.029  0.6971 -0.8524  0.4244
  199MOL0     N27375   7.686  12.051   1.457 -0.6039 -0.5203  0.1008
  199MOL0     N27376   7.771  11.978   1.393  0.1823 -0.1176  0.1800
  199MOL0     C27377   7.159  11.330   0.794  0.0982  0.5295  0.2869
  199MOL0     C27378   7.074  11.312   0.688  0.3757 -0.1878 -0.1547
  199MOL0     C27379   6.635  11.235   0.522 -0.1249  0.5394 -0.8404
  199MOL0     C27380   6.670  11.191   0.397  0.0037  1.0232 -0.7202
  199MOL0     C27381   6.572  11.181   0.292 -0.2970  0.4921  0.2007
  199MOL0     C27382   6.448  11.237   0.304  0.0211  0.3870 -0.0215
  199MOL0     O27383   6.355  11.232   0.199 -0.5892  0.1077  0.1304
  199MOL0     C27384   6.410  11.236   0.066  0.1607  0.2805  0.4787
  199MOL0     C27385   6.297  11.288  -0.028  0.7509  0.7496 -0.5020
  199MOL0     C27386   6.345  11.304  -0.168  0.7750 -0.8299 -0.5943
  199MOL0     C27387   6.360  11.171  -0.245  0.1065 -0.2628 -0.2140
  199MOL0     C27388   6.228  11.150  -0.298  0.2272  0.4733 -0.5565
  199MOL0     C27389   6.119  11.117  -0.337 -0.2199 -1.2596  0.3449
  199MOL0     C27390   6.420  11.291   0.430  1.0923  0.2891 -0.0498
  199MOL0     C27391   6.502  11.283   0.541 -0.9606 -0.3380  0.1311
  199MOL0     C27392   6.448  11.334   0.675 -0.2249 -1.3324 -0.6001
  199MOL0     H27393   6.867  11.087   0.813 -0.2674  1.2572 -2.2364
  199MOL0     H27394   7.030  11.088   0.996 -0.2354 -0.0639 -1.0222
  199MOL0     H27395   7.300  11.156   1.142  0.3119  0.5897  1.7655
  199MOL0     H27396   7.128  11.204   1.160 -0.0444  0.0851 -0.6926
  199MOL0     H27397   7.197  11.421   1.247  1.5733  2.1522 -3.7297
  199MOL0     H27398   7.277  11.302   1.342  0.3790  0.6109  0.2237
  199MOL0     H27399   7.466  11.362   1.145 -1.6144 -0.7657 -1.2105
  199MOL0     H27400   7.389  11.508   1.138  1.2621 -1.8724 -2.5938
  199MOL0     H27401   7.412  11.522   1.402  1.1413  2.5924 -0.4088
  199MOL0     H27402   7.476  11.362   1.399 -4.0613 -0.2601 -0.4742
  199MOL0     H27403   7.669  11.441   1.272 -2.7603 -2.0702  0.5358
  199MOL0     H27404   7.653  11.505   1.431  1.3257 -1.2791 -0.6525
  199MOL0     H27405   7.556  11.643   1.177 -0.9677 -0.9549  0.8702
  199MOL0     H27406   7.565  11.735   1.334  3.3806  2.8796 -0.5118
  199MOL0     H27407   7.722  11.781   1.185 -3.8006 -0.1134  1.8469
  199MOL0     H27408   7.810  11.626   1.189  0.3623  1.3082 -0.1840
  199MOL0     H27409   7.854  11.662   1.439  3.7848  0.0639 -1.5594
  199MOL0     H27410   7.926  11.783   1.325  0.3131 -0.1598 -1.4702
  199MOL0     H27411   7.645  11.769   1.605 -0.1483 -0.5499 -0.3246
  199MOL0     H27412   7.529  12.154   1.633  0.0455  0.1830 -1.0364
  199MOL0     H27413   7.563  12.013   1.750 -2.6430 -0.1514  0.7933
  199MOL0     H27414   7.351  12.090   1.558 -0.5213  0.5998 -0.4925
  199MOL0     H27415   7.369  11.911   1.617  1.1067  0.7498  0.0600
  199MOL0     H27416   7.334  11.968   1.852 -0.1140 -0.5602 -1.1427
  199MOL0     H27417   7.350  12.142   1.816  0.5083  1.4837 -1.8858
  199MOL0     H27418   7.123  12.108   1.678  1.0138  2.3177 -0.0223
  199MOL0     H27419   7.132  11.955   1.761  1.3948 -0.0127  0.6234
  199MOL0     H27420   6.928  12.181   1.697 -0.4838  1.1493 -0.2245
  199MOL0     H27421   6.596  12.306   1.718 -1.9364 -2.3526  0.4618
  199MOL0     H27422   6.609  12.137   1.693 -1.7151  0.3342 -2.6653
  199MOL0     H27423   6.739  12.241   1.626  1.3635  0.6542  0.7753
  199MOL0     H27424   6.371  11.982   1.860  2.0951 -0.7646  1.9527
  199MOL0     H27425   6.123  11.937   1.884  2.2980 -1.2636  0.5179
  199MOL0     H27426   5.934  12.048   1.801  0.0926  1.5975  0.0616
  199MOL0     H27427   5.827  11.970   1.911 -1.3033  0.6599  1.6496
  199MOL0     H27428   5.730  12.144   1.761  2.1728 -0.9961 -0.8641
  199MOL0     H27429   5.704  12.195   1.919 -2.0892 -4.5902 -0.3211
  199MOL0     H27430   5.913  12.370   1.875  0.7573  0.9514 -1.2389
  199MOL0     H27431   5.772  12.382   1.765  1.6883  1.1612 -0.5980
  199MOL0     H27432   5.890  12.289   1.583 -2.9975  0.5884  1.6702
  199MOL0     H27433   6.023  12.231   1.694  0.8913  0.8038  3.2377
  199MOL0     H27434   5.945  12.511   1.620 -0.8561 -0.0615  1.0697
  199MOL0     H27435   6.048  12.471   1.763 -0.4337  0.2420 -0.8188
  199MOL0     H27436   6.184  12.525   1.555  2.2145 -1.2624 -2.7529
  199MOL0     H27437   6.108  12.393   1.473  3.1310  0.8200 -1.5644
  199MOL0     H27438   6.224  12.292   1.719  0.2669  1.2943  0.0123
  199MOL0     H27439   6.314  12.424   1.657 -1.3638  0.5150  0.1156
  199MOL0     H27440   6.260  12.160   1.536 -1.9332  1.1914  0.8624
  199MOL0     H27441   6.425  12.235   1.551  1.0587  1.6294  0.8835
  199MOL0     H27442   6.071  12.333   2.053 -1.0212  1.7143 -4.3671
  199MOL0     H27443   6.298  12.382   2.015 -2.3894  0.9358  1.9234
  199MOL0     H27444   6.800  12.259   2.166  3.1232  0.3536  0.4594
  199MOL0     H27445   7.024  12.172   2.100  2.1484  1.3302 -0.6433
  199MOL0     H27446   7.251  11.387   0.783  0.8779 -0.7109  0.0774
  199MOL0     H27447   7.092  11.363   0.594 -2.4108  0.7018 -0.3097
  199MOL0     H27448   6.769  11.152   0.374 -0.3395 -0.2552 -0.0938
  199MOL0     H27449   6.602  11.114   0.213  0.1967  1.3002 -0.3158
  199MOL0     H27450   6.497  11.303   0.061 -1.0401  1.8439 -0.3958
  199MOL0     H27451   6.441  11.137   0.031 -1.6545  0.8133 -3.0856
  199MOL0     H27452   6.255  11.384   0.002 -0.6634  0.2637 -0.8247
  199MOL0     H27453   6.215  11.215  -0.030  2.7928 -1.9015  2.3876
  199MOL0     H27454   6.296  11.382  -0.227  1.3833 -0.7116 -0.9574
  199MOL0     H27455   6.446  11.345  -0.153 -0.3632  1.2654  1.9589
  199MOL0     H27456   6.378  11.088  -0.176 -2.6119  0.6874  1.8413
  199MOL0     H27457   6.440  11.163  -0.319  2.4402 -2.8163  2.3502
  199MOL0     H27458   6.022  11.077  -0.360 -0.4704 -1.9010  2.3587
  199MOL0     H27459   6.316  11.315   0.446  0.0808 -3.7734  0.5641
  199MOL0     H27460   6.339  11.342   0.679 -0.0940  0.3089  2.3812
  199MOL0     H27461   6.486  11.274   0.758  0.7718  1.4117  1.0924
  199MOL0     H27462   6.478  11.439   0.688 -4.1107 -0.1577  0.0803
  200MOL0     O27463   8.103   8.319   7.401  0.0102  0.2570 -0.7735
  200MOL0     C27464   8.154   8.215   7.349 -0.2686  0.1909 -0.0669
  200MOL0     O27465   8.292   8.194   7.329  0.0474  0.2667 -0.0828
  200MOL0     C27466   8.372   8.302   7.334  0.7466  0.1988  0.3803
  200MOL0     C27467   8.343   8.429   7.272  0.6168 -0.1119  0.5809
  200MOL0     C27468   8.441   8.528   7.263  1.0984  0.0610 -0.1576
  200MOL0     C27469   8.562   8.509   7.330 -0.2355  0.4833 -0.1730
  200MOL0     O27470   8.668   8.589   7.323 -0.7338 -0.4095 -1.1075
  200MOL0     C27471   8.651   8.707   7.252 -1.0494 -0.0795 -0.1735
  200MOL0     C27472   8.774   8.791   7.272 -0.4923  1.0798 -0.6910
  200MOL0     C27473   8.895   8.735   7.195 -0.3507  0.6669 -0.3787
  200MOL0     C27474   9.014   8.834   7.176 -0.0508 -0.1211 -0.0507
  200MOL0     C27475   9.126   8.763   7.096 -0.2015 -0.4569  0.4399
  200MOL0     C27476   9.236   8.858   7.065 -0.7046  0.7447  0.6345
  200MOL0     C27477   9.362   8.778   7.009 -0.3392  0.5976 -0.8603
  200MOL0     C27478   9.366   8.757   6.857 -0.2846  0.4955 -0.4941
  200MOL0     N27479   9.301   8.622   6.821 -0.3173  0.3521 -0.3745
  200MOL0     C27480   9.344   8.490   6.839  0.1735 -0.2711 -0.1992
  200MOL0     C27481   9.243   8.412   6.819  1.3931 -0.0809 -0.2978
  200MOL0     C27482   9.234   8.258   6.843  0.1685  0.6583  0.5068
  200MOL0     C27483   9.285   8.175   6.726 -0.6324  0.2292  0.4353
  200MOL0     C27484   9.436   8.214   6.718 -0.2042 -0.1929  0.5546
  200MOL0     C27485   9.505   8.104   6.627 -0.4677 -0.7575 -0.4427
  200MOL0     O27486   9.487   7.969   6.664 -0.7012  0.0926  0.0452
  200MOL0     C27487   9.519   7.857   6.582 -0.0689  0.6288 -0.9238
  200MOL0     C27488   9.527   7.739   6.651 -0.2236  0.1118 -0.1690
  200MOL0     C27489   9.556   7.623   6.577  0.6105  0.3864 -0.3917
  200MOL0     C27490   9.580   7.494   6.653 -0.0115  0.1207  0.7953
  200MOL0     C27491   9.588   7.628   6.438  0.5826 -0.1918  0.1580
  200MOL0     C27492   9.637   7.512   6.362 -0.0043  0.4039  0.3934
  200MOL0     O27493   9.742   7.440   6.416  0.4872 -0.2534 -0.2799
  200MOL0     C27494   9.797   7.335   6.345  0.4933  1.8412 -0.3203
  200MOL0     C27495   9.868   7.353   6.222  0.4792  0.1152 -0.1844
  200MOL0     C27496   9.925   7.242   6.158 -0.2682  0.4681  0.2298
  200MOL0     C27497   9.902   7.112   6.203 -0.0388 -0.1474 -0.5789
  200MOL0     O27498   9.932   7.009   6.121 -0.2338  0.6631  0.0655
  200MOL0     C27499   9.884   6.869   6.159 -0.1555  0.1288  0.6637
  200MOL0     C27500   9.914   6.786   6.035  0.5005 -0.0861 -0.1038
  200MOL0     C27501  10.057   6.759   5.989 -0.0126 -0.4557 -0.4033
  200MOL0     C27502  10.073   6.671   5.863  0.2163  0.1334 -1.7088
  200MOL0     C27503  10.216   6.664   5.817  0.7508 -0.7000 -0.8180
  200MOL0     C27504  10.315   6.617   5.929 -0.0717  0.3707 -0.5485
  200MOL0     C27505  10.445   6.562   5.867  0.0754  0.7343  1.6058
  200MOL0     C27506  10.523   6.678   5.807 -0.4327 -0.5236  0.2908
  200MOL0    Cl27507  10.681   6.602   5.747  0.1028 -0.0336  0.0130
  200MOL0     C27508   9.842   7.098   6.333 -0.4664 -0.8193 -0.1713
  200MOL0     C27509   9.788   7.207   6.396 -0.2366  0.1992 -0.5718
  200MOL0     O27510   9.574   7.480   6.260 -0.4249 -0.5735 -0.4684
  200MOL0     C27511   9.566   7.745   6.370  0.6626 -0.5508  0.2833
  200MOL0     C27512   9.527   7.863   6.443  0.3141 -0.5259  0.4150
  200MOL0     N27513   9.131   8.493   6.780 -0.6907  0.8390 -0.2991
  200MOL0     N27514   9.180   8.616   6.767 -0.4074 -0.3890  0.0397
  200MOL0     C27515   8.584   8.387   7.405  0.6637 -1.1062 -0.5153
  200MOL0     C27516   8.493   8.280   7.401  0.3065  0.5222 -0.0258
  200MOL0     C27517   8.070   8.095   7.318  0.0321 -0.3962  0.6149
  200MOL0     C27518   8.138   7.977   7.276  0.2991 -0.6180  0.0506
  200MOL0     C27519   8.068   7.868   7.235 -0.5332 -0.1719 -0.4083
  200MOL0     C27520   7.929   7.848   7.240 -1.0133 -0.1362  0.8439
  200MOL0     O27521   7.876   7.726   7.194 -0.6845 -0.5698  0.3277
  200MOL0     C27522   7.740   7.708   7.205 -0.0819 -0.1298  0.5133
  200MOL0     C27523   7.677   7.578   7.145  0.4493 -0.9702 -0.2434
  200MOL0     C27524   7.545   7.561   7.234 -0.5187  0.6627  0.7536
  200MOL0     C27525   7.472   7.441   7.198  0.3103 -0.2485  0.6310
  200MOL0     C27526   7.396   7.397   7.318  0.3573 -0.0843  0.0587
  200MOL0     C27527   7.313   7.387   7.408 -0.4513  0.7664 -0.2117
  200MOL0     C27528   7.856   7.961   7.287  0.5125  0.1114  0.1435
  200MOL0     C27529   7.927   8.082   7.316 -0.3752  0.0240 -0.4082
  200MOL0     C27530   7.843   8.207   7.355  0.2071  0.7560 -0.0940
  200MOL0     H27531   8.257   8.438   7.207  0.8323  0.6234  0.3879
  200MOL0     H27532   8.431   8.606   7.188 -5.2742  0.2349  0.3869
  200MOL0     H27533   8.568   8.751   7.309  1.7117  1.4241  3.0209
  200MOL0     H27534   8.637   8.695   7.145  2.3857 -1.9653 -0.5524
  200MOL0     H27535   8.757   8.893   7.236 -0.2715  1.0211 -0.9635
  200MOL0     H27536   8.798   8.785   7.379 -0.4694 -1.3765 -0.7855
  200MOL0     H27537   8.917   8.643   7.250 -1.6165  0.3658 -0.3424
  200MOL0     H27538   8.867   8.698   7.096 -0.3587 -1.2197  0.2990
  200MOL0     H27539   8.970   8.914   7.116 -0.2349 -0.3590 -0.2291
  200MOL0     H27540   9.059   8.863   7.272 -0.0338  0.1032 -0.1244
  200MOL0     H27541   9.083   8.733   7.000 -1.6292  0.6146  0.7176
  200MOL0     H27542   9.165   8.694   7.172  3.4081  3.4206  2.5081
  200MOL0     H27543   9.229   8.945   6.998  1.1948  0.2358 -0.3096
  200MOL0     H27544   9.270   8.913   7.153 -0.0330  2.2465 -0.5031
  200MOL0     H27545   9.378   8.683   7.059  3.0618  1.3930 -0.1601
  200MOL0     H27546   9.449   8.842   7.025 -0.1577  0.6435 -1.9132
  200MOL0     H27547   9.299   8.836   6.821 -0.3995  1.5808  1.8746
  200MOL0     H27548   9.465   8.756   6.811 -0.4507 -0.6419 -0.8556
  200MOL0     H27549   9.439   8.450   6.876 -0.9814 -2.7140  0.3557
  200MOL0     H27550   9.127   8.244   6.862  0.0837  0.5592 -0.0224
  200MOL0     H27551   9.300   8.249   6.930  1.1284 -0.4480 -0.3177
  200MOL0     H27552   9.277   8.070   6.755  0.9436  0.1567  0.7436
  200MOL0     H27553   9.240   8.205   6.631 -0.2838 -2.3855 -0.6331
  200MOL0     H27554   9.434   8.312   6.671  0.3971 -1.0844 -1.4555
  200MOL0     H27555   9.484   8.214   6.816  1.2174 -2.5652 -0.0502
  200MOL0     H27556   9.474   8.120   6.523  0.7893 -2.2593 -1.0750
  200MOL0     H27557   9.613   8.121   6.626 -0.2798 -1.5408  1.7962
  200MOL0     H27558   9.514   7.723   6.758 -3.2373 -0.2295 -0.5171
  200MOL0     H27559   9.513   7.481   6.739 -0.7896  3.2790  0.7954
  200MOL0     H27560   9.681   7.490   6.695 -0.0167  0.2013  0.8168
  200MOL0     H27561   9.558   7.406   6.593 -0.2080 -1.5321  3.1254
  200MOL0     H27562   9.875   7.450   6.173  1.0606  0.5143  0.6564
  200MOL0     H27563   9.991   7.259   6.074 -3.0368  1.9354 -1.7937
  200MOL0     H27564   9.937   6.831   6.247  0.4734  1.2439  0.7947
  200MOL0     H27565   9.779   6.878   6.188 -0.0234  0.7674  0.9737
  200MOL0     H27566   9.851   6.700   6.059 -0.2366  1.4630  4.4489
  200MOL0     H27567   9.863   6.842   5.956  1.9710  0.7293 -0.5037
  200MOL0     H27568  10.105   6.707   6.072 -1.8766 -2.1916 -0.3618
  200MOL0     H27569  10.102   6.856   5.962 -0.2816  0.4953  2.2687
  200MOL0     H27570  10.025   6.722   5.779  0.3956  0.6025 -1.5257
  200MOL0     H27571  10.026   6.572   5.865 -5.0705  2.3173 -1.8968
  200MOL0     H27572  10.218   6.597   5.730  2.0848  0.1163 -1.4568
  200MOL0     H27573  10.261   6.755   5.776  0.9949 -0.6567 -0.4573
  200MOL0     H27574  10.275   6.530   5.980  0.0685  0.8404  0.3910
  200MOL0     H27575  10.327   6.686   6.014 -2.1153  0.9496 -0.6772
  200MOL0     H27576  10.431   6.490   5.786  1.3531 -0.2090  2.1920
  200MOL0     H27577  10.514   6.524   5.943 -0.5957 -0.0998  1.8111
  200MOL0     H27578  10.538   6.755   5.883 -0.7529 -2.1807  2.1153
  200MOL0     H27579  10.480   6.730   5.721  0.3318 -0.7025 -0.2122
  200MOL0     H27580   9.840   7.005   6.387 -1.1714 -1.2031 -0.8328
  200MOL0     H27581   9.740   7.205   6.493  1.8946  2.9602  0.7021
  200MOL0     H27582   9.554   7.756   6.262 -1.7246 -0.8932  0.4561
  200MOL0     H27583   9.509   7.955   6.388 -3.1409 -0.8483  0.7824
  200MOL0     H27584   8.677   8.385   7.461  0.3471  1.8658  0.3234
  200MOL0     H27585   8.523   8.186   7.445  0.3486  0.0657 -0.9867
  200MOL0     H27586   8.247   7.980   7.275  0.3417  2.4058  1.9871
  200MOL0     H27587   8.131   7.784   7.207 -1.3792 -1.3386  1.0368
  200MOL0     H27588   7.732   7.699   7.314 -0.0230  0.9604  0.6193
  200MOL0     H27589   7.678   7.792   7.173 -0.8319 -0.7545  0.3230
  200MOL0     H27590   7.754   7.503   7.163  0.3625 -0.4582  2.9623
  200MOL0     H27591   7.645   7.588   7.041 -1.9561  0.3017  0.5469
  200MOL0     H27592   7.579   7.553   7.338  2.4594  0.6202 -0.1339
  200MOL0     H27593   7.480   7.647   7.218 -0.5992  0.5557  0.5071
  200MOL0     H27594   7.534   7.367   7.146 -0.4884  1.8264 -3.7761
  200MOL0     H27595   7.406   7.471   7.116 -1.9364 -0.1563  2.3738
  200MOL0     H27596   7.238   7.377   7.484 -4.1948 -1.4611 -3.7908
  200MOL0     H27597   7.749   7.965   7.305  0.3947 -0.4864 -0.3849
  200MOL0     H27598   7.843   8.210   7.464  0.4190  0.0121 -0.0683
  200MOL0     H27599   7.864   8.303   7.308 -4.0584  1.7499 -0.3940
  200MOL0     H27600   7.738   8.192   7.331 -1.2474  3.4559  3.6717
  201MOL0     O27601   8.540   6.549   3.068  0.0126  0.0596 -0.4864
  201MOL0     C27602   8.523   6.620   3.170 -0.4948 -0.1835 -0.3511
  201MOL0     O27603   8.610   6.716   3.212 -0.3953 -0.4644  0.1308
  201MOL0     C27604   8.724   6.739   3.145 -0.2441 -0.0580  0.5093
  201MOL0     C27605   8.837   6.748   3.218  0.4195 -0.5079 -0.1655
  201MOL0     C27606   8.965   6.773   3.156  0.5430  0.1919 -0.7994
  201MOL0     C27607   8.972   6.782   3.018  0.0840 -0.0422  1.3984
  201MOL0     O27608   9.087   6.781   2.945  0.2524 -0.4392 -0.0530
  201MOL0     C27609   9.212   6.789   3.014  0.1342  0.2307 -0.1713
  201MOL0     C27610   9.333   6.819   2.928  0.1067 -0.0433  0.0784
  201MOL0     C27611   9.457   6.816   3.015 -0.1282  0.2605  0.0212
  201MOL0     C27612   9.592   6.788   2.937 -0.6380  0.0671  0.4820
  201MOL0     C27613   9.715   6.761   3.021 -0.0058  0.5206  0.1838
  201MOL0     C27614   9.697   6.667   3.146  0.3277 -0.0612  0.2165
  201MOL0     C27615   9.661   6.516   3.112 -0.1327  0.9234  0.2404
  201MOL0     C27616   9.681   6.422   3.235 -0.1039  0.4815  0.3312
  201MOL0     N27617   9.823   6.388   3.266 -0.5720  0.2939  0.5813
  201MOL0     C27618   9.853   6.261   3.304  0.4731 -0.1558  0.3203
  201MOL0     C27619   9.993   6.250   3.296 -0.0938 -0.1717 -0.9385
  201MOL0     C27620  10.072   6.117   3.327  0.1468 -0.3103 -0.1615
  201MOL0     C27621  10.054   6.006   3.218 -0.3886 -0.1311  0.1829
  201MOL0     C27622  10.102   6.045   3.073 -0.2442  0.1073 -0.5559
  201MOL0     C27623  10.086   5.909   2.989 -0.1827 -0.0828  0.3618
  201MOL0     O27624   9.944   5.891   2.967  0.0149  0.5540  1.0512
  201MOL0     C27625   9.899   5.810   2.859 -0.2382  0.4919 -0.3818
  201MOL0     C27626   9.971   5.703   2.821  0.0039 -0.0632  0.3773
  201MOL0     C27627   9.928   5.625   2.708  0.2989 -0.2165  0.3184
  201MOL0     C27628  10.040   5.546   2.641 -0.5818 -0.1219  0.5323
  201MOL0     C27629   9.794   5.634   2.651 -0.6854 -0.0429 -0.4071
  201MOL0     C27630   9.737   5.557   2.542 -0.2690  0.7029 -0.3216
  201MOL0     O27631   9.602   5.571   2.527 -0.4657 -0.4831  0.0244
  201MOL0     C27632   9.522   5.478   2.466  0.8969 -0.8361 -0.0662
  201MOL0     C27633   9.426   5.394   2.524 -0.4782 -0.6253  0.1946
  201MOL0     C27634   9.347   5.307   2.451  0.9129 -0.5245  0.4665
  201MOL0     C27635   9.373   5.311   2.310 -0.4878 -0.0845  0.0453
  201MOL0     O27636   9.299   5.234   2.217  0.3645  0.7326  0.6055
  201MOL0     C27637   9.164   5.189   2.248  0.2672 -0.5107 -0.5444
  201MOL0     C27638   9.064   5.312   2.258 -0.4839 -0.0356 -0.0071
  201MOL0     C27639   9.036   5.374   2.118 -0.7226  0.5305  2.0559
  201MOL0     C27640   9.148   5.410   2.019  0.5006  0.0886  0.8388
  201MOL0     C27641   9.110   5.438   1.875  1.1213 -0.3808 -0.5190
  201MOL0     C27642   9.221   5.400   1.777  0.5534  0.5285 -0.2992
  201MOL0     C27643   9.154   5.416   1.642 -0.2292 -0.5135  0.7947
  201MOL0     C27644   9.224   5.338   1.534 -0.5934 -0.1185  0.9896
  201MOL0    Cl27645   9.228   5.168   1.571 -0.0435  0.1160  0.1528
  201MOL0     C27646   9.479   5.376   2.261  0.0306 -0.3981  0.3690
  201MOL0     C27647   9.568   5.451   2.335 -0.1236 -0.8927 -0.8173
  201MOL0     O27648   9.802   5.483   2.472  0.4298  1.0017 -0.3848
  201MOL0     C27649   9.718   5.741   2.698  0.7792 -0.2089 -1.3039
  201MOL0     C27650   9.774   5.831   2.794 -0.8090  0.2643 -0.1626
  201MOL0     N27651  10.041   6.370   3.254 -0.6905 -0.5783 -0.3784
  201MOL0     N27652   9.941   6.456   3.229 -0.2606 -0.3600  0.3988
  201MOL0     C27653   8.854   6.788   2.948 -0.3029  0.0309 -0.6274
  201MOL0     C27654   8.734   6.758   3.009 -0.3816 -0.6816 -0.0079
  201MOL0     C27655   8.395   6.610   3.244  0.6643  0.9650 -0.2316
  201MOL0     C27656   8.358   6.728   3.316  0.4071  0.0299  0.5825
  201MOL0     C27657   8.233   6.738   3.378 -1.4983 -0.6258 -0.0725
  201MOL0     C27658   8.144   6.630   3.385  0.0459 -1.3161  0.2758
  201MOL0     O27659   8.020   6.638   3.449 -0.9903  0.7002  0.3941
  201MOL0     C27660   7.907   6.589   3.379 -0.6628  0.4732 -1.3666
  201MOL0     C27661   7.786   6.594   3.482 -0.1338 -0.3040  0.1483
  201MOL0     C27662   7.751   6.744   3.507 -0.1956 -0.8717  0.1384
  201MOL0     C27663   7.652   6.759   3.617  0.0543 -0.4468 -0.1138
  201MOL0     C27664   7.679   6.709   3.742  0.1950  0.9170  0.0076
  201MOL0     C27665   7.698   6.678   3.858  0.3920  0.0688 -0.2442
  201MOL0     C27666   8.180   6.508   3.315  0.2301  0.4472  0.8493
  201MOL0     C27667   8.308   6.499   3.250 -0.2873 -0.2635 -0.1542
  201MOL0     C27668   8.332   6.367   3.178 -0.2009 -0.2561  0.3134
  201MOL0     H27669   8.819   6.732   3.324 -3.7847 -2.8037 -1.0149
  201MOL0     H27670   9.050   6.760   3.221  1.2562 -2.4946 -2.1333
  201MOL0     H27671   9.230   6.693   3.064 -0.7793  0.3798  0.4522
  201MOL0     H27672   9.208   6.864   3.093 -2.7458 -0.7844  0.7527
  201MOL0     H27673   9.352   6.742   2.853  1.0811  0.0785  0.1877
  201MOL0     H27674   9.303   6.915   2.885 -3.3796 -0.3288  1.4523
  201MOL0     H27675   9.465   6.904   3.079  2.9787 -2.2852  3.6174
  201MOL0     H27676   9.453   6.731   3.084  2.8744 -1.4558 -1.7303
  201MOL0     H27677   9.569   6.696   2.882 -3.2445 -0.4482  2.2081
  201MOL0     H27678   9.620   6.864   2.864 -1.1908 -0.1690  0.0146
  201MOL0     H27679   9.753   6.859   3.051 -2.9640  1.7173  0.3691
  201MOL0     H27680   9.791   6.717   2.955  1.8533 -0.6610  2.9436
  201MOL0     H27681   9.792   6.664   3.200 -0.2567 -3.8344  1.3331
  201MOL0     H27682   9.618   6.708   3.210  0.1121 -0.3414  0.1350
  201MOL0     H27683   9.725   6.482   3.030 -1.5187  3.5826 -2.1457
  201MOL0     H27684   9.555   6.511   3.085  0.6036  2.0186 -3.4575
  201MOL0     H27685   9.629   6.475   3.316 -1.5639  0.8723 -0.8223
  201MOL0     H27686   9.632   6.332   3.195 -1.8307  1.7182 -0.4528
  201MOL0     H27687   9.781   6.189   3.343 -1.3105  1.3434 -0.0620
  201MOL0     H27688  10.023   6.082   3.418 -1.4073  2.8870  0.3600
  201MOL0     H27689  10.173   6.152   3.349  1.2721 -1.8618 -2.4415
  201MOL0     H27690  10.105   5.915   3.250 -0.7483  0.1396  1.5944
  201MOL0     H27691   9.948   5.979   3.214 -0.0537 -1.5780  0.5972
  201MOL0     H27692  10.049   6.124   3.018  0.7793 -1.1626 -3.6182
  201MOL0     H27693  10.208   6.072   3.082  0.3506 -2.3463  0.7138
  201MOL0     H27694  10.144   5.910   2.897 -0.0784 -3.1420  0.3038
  201MOL0     H27695  10.136   5.828   3.043  0.3699  0.0176  0.0041
  201MOL0     H27696  10.065   5.675   2.869 -0.2154 -0.9784  0.2925
  201MOL0     H27697  10.024   5.439   2.660 -3.2136  0.5346  2.4620
  201MOL0     H27698  10.135   5.575   2.687 -0.5404  2.4943 -1.0486
  201MOL0     H27699  10.045   5.565   2.533 -0.5676  0.1877  0.5886
  201MOL0     H27700   9.412   5.411   2.630 -3.9253 -0.4239 -0.1814
  201MOL0     H27701   9.263   5.246   2.483 -0.3429  0.1147 -1.4032
  201MOL0     H27702   9.132   5.113   2.176 -1.6184 -1.7894  1.5342
  201MOL0     H27703   9.160   5.133   2.342  2.1052  0.7476  0.3436
  201MOL0     H27704   8.967   5.278   2.297  0.5046 -2.2977  0.6491
  201MOL0     H27705   9.112   5.393   2.314  1.7043 -1.3185  0.0960
  201MOL0     H27706   8.978   5.462   2.145  1.1958  2.2853  0.7609
  201MOL0     H27707   8.970   5.300   2.072 -0.9436 -0.1272  3.3937
  201MOL0     H27708   9.215   5.323   2.013 -1.0500 -1.1146 -0.0528
  201MOL0     H27709   9.201   5.498   2.054 -2.2027  1.8425  0.7821
  201MOL0     H27710   9.021   5.375   1.862 -1.0960  2.3771  0.3448
  201MOL0     H27711   9.069   5.537   1.854  0.0026 -0.3696  1.4394
  201MOL0     H27712   9.267   5.303   1.795 -1.8543 -0.6584 -0.0677
  201MOL0     H27713   9.299   5.476   1.782  1.1503  0.1426 -2.6457
  201MOL0     H27714   9.149   5.518   1.602  1.0566 -1.4265 -1.9912
  201MOL0     H27715   9.052   5.377   1.642  0.8041 -3.6238  3.6589
  201MOL0     H27716   9.329   5.370   1.539 -0.3134 -0.9625  0.7448
  201MOL0     H27717   9.174   5.356   1.439  0.6710  0.7336  0.4630
  201MOL0     H27718   9.506   5.356   2.158 -0.9271  3.5935 -0.8112
  201MOL0     H27719   9.651   5.504   2.291  1.0821 -1.4182  0.7392
  201MOL0     H27720   9.619   5.766   2.660 -1.9334 -0.9150  4.2979
  201MOL0     H27721   9.723   5.916   2.836 -0.0371 -0.4597  2.3987
  201MOL0     H27722   8.852   6.806   2.841  2.2457  0.7414 -0.6019
  201MOL0     H27723   8.646   6.755   2.945  0.8321  2.5406 -2.1073
  201MOL0     H27724   8.425   6.813   3.325  0.3763  0.5693 -2.8699
  201MOL0     H27725   8.201   6.825   3.434  1.6749  1.5344 -1.3128
  201MOL0     H27726   7.896   6.647   3.286 -5.3790 -1.3045 -2.1527
  201MOL0     H27727   7.919   6.483   3.355  0.8581  0.2493  0.1793
  201MOL0     H27728   7.820   6.533   3.566 -1.0460 -0.0816  0.6956
  201MOL0     H27729   7.699   6.554   3.429  0.2865  0.2710 -1.0253
  201MOL0     H27730   7.837   6.812   3.511 -1.3457  0.6100  0.7823
  201MOL0     H27731   7.691   6.772   3.420 -1.1441 -1.1164  0.6974
  201MOL0     H27732   7.559   6.710   3.584 -0.9104  1.0271  0.3112
  201MOL0     H27733   7.618   6.860   3.637 -1.7047 -1.1351  0.5508
  201MOL0     H27734   7.709   6.665   3.964 -4.1156 -2.5876  0.2031
  201MOL0     H27735   8.117   6.420   3.317  0.3467  0.3496  0.3988
  201MOL0     H27736   8.340   6.376   3.069 -2.4850 -2.8416 -0.1560
  201MOL0     H27737   8.428   6.332   3.217  0.1062  2.1751  1.9603
  201MOL0     H27738   8.262   6.285   3.194  1.5127 -1.7243  0.5948
  202MOL0     O27739   3.851  11.108   0.425 -0.6954  0.2207  0.3663
  202MOL0     C27740   3.880  10.988   0.434  0.1119  0.0098  0.5170
  202MOL0     O27741   3.799  10.889   0.405  0.8919 -0.2626  0.6199
  202MOL0     C27742   3.665  10.901   0.368 -0.6723  0.8606 -0.7479
  202MOL0     C27743   3.612  10.770   0.366 -1.1597 -0.0421 -0.3972
  202MOL0     C27744   3.489  10.748   0.316  0.1319 -0.3341  0.4262
  202MOL0     C27745   3.402  10.853   0.293  0.2639  0.2818  0.1730
  202MOL0     O27746   3.282  10.824   0.241  0.2097 -0.2092 -1.3444
  202MOL0     C27747   3.175  10.920   0.264 -0.5247  0.1074  0.3343
  202MOL0     C27748   3.037  10.853   0.241  0.0877 -1.0196 -0.2042
  202MOL0     C27749   3.033  10.719   0.319  0.4150 -0.5472 -0.0803
  202MOL0     C27750   2.892  10.683   0.355 -0.9581  0.8738 -0.0839
  202MOL0     C27751   2.866  10.537   0.391 -0.1072  0.1244  0.3825
  202MOL0     C27752   2.914  10.481   0.526  0.4971 -0.4620  0.3573
  202MOL0     C27753   2.855  10.338   0.543  0.4932  0.1433  0.1481
  202MOL0     C27754   2.806  10.314   0.693 -0.7524 -0.5403  0.8138
  202MOL0     N27755   2.663  10.334   0.716  0.2094  0.1095 -0.0595
  202MOL0     C27756   2.589  10.433   0.662 -0.4838 -0.4465  0.3646
  202MOL0     C27757   2.458  10.387   0.676  0.3819 -0.3405  0.1232
  202MOL0     C27758   2.331  10.454   0.630 -0.1924  0.3905 -1.2872
  202MOL0     C27759   2.263  10.372   0.528  0.0599  0.3881  0.3805
  202MOL0     C27760   2.335  10.368   0.395  0.2761  0.1231 -0.0784
  202MOL0     C27761   2.333  10.504   0.324 -0.5188 -0.0553  0.3549
  202MOL0     O27762   2.431  10.602   0.379  0.8157  0.5010  0.1059
  202MOL0     C27763   2.420  10.734   0.360  0.0538  0.4891  0.0139
  202MOL0     C27764   2.316  10.809   0.304  0.2037 -0.2103  0.5065
  202MOL0     C27765   2.321  10.957   0.279 -0.7290  0.0494  0.2024
  202MOL0     C27766   2.205  11.023   0.203  0.1576  0.2774 -0.4497
  202MOL0     C27767   2.442  11.024   0.307 -0.2939  0.1249  0.1241
  202MOL0     C27768   2.461  11.169   0.281 -0.4530  0.3662  0.0818
  202MOL0     O27769   2.579  11.206   0.223  0.5520  0.3707 -0.0559
  202MOL0     C27770   2.589  11.323   0.158 -0.4008  0.3275  0.3152
  202MOL0     C27771   2.516  11.345   0.039  0.4478 -0.9902  0.8323
  202MOL0     C27772   2.529  11.457  -0.036  0.0444 -0.2555 -0.2351
  202MOL0     C27773   2.639  11.539  -0.010 -0.4191  0.3046  0.7721
  202MOL0     O27774   2.642  11.651  -0.099 -0.7837 -0.0336 -0.2591
  202MOL0     C27775   2.696  11.771  -0.037 -0.2231 -0.5477  0.1867
  202MOL0     C27776   2.674  11.900  -0.131  0.1085  0.7790  0.2546
  202MOL0     C27777   2.750  12.016  -0.065 -0.3182  0.5934  0.1367
  202MOL0     C27778   2.704  12.158  -0.125  0.1319 -0.8040 -1.3327
  202MOL0     C27779   2.825  12.261  -0.115  0.2429  0.4006 -0.1600
  202MOL0     C27780   2.857  12.331   0.023 -0.6637  0.2981  0.7523
  202MOL0     C27781   2.912  12.225   0.127  0.0725 -0.4046 -1.4733
  202MOL0     C27782   2.981  12.303   0.234  0.0924 -0.7861 -0.8665
  202MOL0    Cl27783   3.092  12.197   0.322 -0.4365 -0.1110  0.2015
  202MOL0     C27784   2.717  11.506   0.095 -0.3709  0.0922 -0.0289
  202MOL0     C27785   2.687  11.412   0.187  0.3425  0.8064  0.9658
  202MOL0     O27786   2.377  11.251   0.303 -0.3304 -0.0581  0.4412
  202MOL0     C27787   2.552  10.941   0.343 -0.4611 -1.0184 -0.7195
  202MOL0     C27788   2.541  10.803   0.383 -0.4465 -0.6476 -0.2109
  202MOL0     N27789   2.461  10.265   0.743 -0.3629 -0.9621  0.3590
  202MOL0     N27790   2.582  10.241   0.761 -0.0439  0.2124 -0.7880
  202MOL0     C27791   3.451  10.977   0.300  0.9897 -0.3734 -0.2412
  202MOL0     C27792   3.581  11.007   0.334 -0.7036  0.3379  0.9713
  202MOL0     C27793   4.013  10.943   0.472 -0.0627  0.0426  0.9474
  202MOL0     C27794   4.031  10.800   0.477 -0.0951 -0.3708  0.6398
  202MOL0     C27795   4.144  10.750   0.524 -0.2761  0.5477 -0.0816
  202MOL0     C27796   4.249  10.821   0.575 -0.1718  0.2766 -0.3457
  202MOL0     O27797   4.354  10.737   0.613 -0.6431  0.0119 -0.8163
  202MOL0     C27798   4.494  10.779   0.607 -0.2516  0.8694  0.0610
  202MOL0     C27799   4.577  10.737   0.727  0.1768  0.0172  0.4581
  202MOL0     C27800   4.725  10.786   0.731  0.4240 -0.3687  0.1232
  202MOL0     C27801   4.813  10.737   0.614 -0.7604 -0.2356  0.6815
  202MOL0     C27802   4.807  10.829   0.503  0.6218  0.5154 -0.1753
  202MOL0     C27803   4.822  10.917   0.425  1.0350  0.6710 -0.5767
  202MOL0     C27804   4.237  10.965   0.567 -0.5200 -0.4743 -0.7720
  202MOL0     C27805   4.122  11.028   0.511 -0.7244  0.1894  0.6092
  202MOL0     C27806   4.127  11.172   0.470 -0.0364  0.6570  0.7007
  202MOL0     H27807   3.682  10.687   0.370  2.6232  2.9274  2.0473
  202MOL0     H27808   3.450  10.650   0.291  0.2407 -0.3861  0.4608
  202MOL0     H27809   3.190  10.999   0.190  6.0378 -1.9264 -1.2183
  202MOL0     H27810   3.195  10.964   0.362  3.0180 -2.1568  0.8089
  202MOL0     H27811   2.966  10.925   0.282  0.0015 -2.0472  1.5421
  202MOL0     H27812   3.032  10.837   0.133 -2.6002 -0.5193 -0.2217
  202MOL0     H27813   3.081  10.641   0.258  3.1934  2.2371 -1.7906
  202MOL0     H27814   3.099  10.721   0.406  1.1193  0.0359 -0.6187
  202MOL0     H27815   2.854  10.744   0.437 -0.2199 -1.0447  1.7813
  202MOL0     H27816   2.823  10.701   0.272 -1.1444  3.0281  0.4722
  202MOL0     H27817   2.910  10.472   0.315  0.5335  1.0355 -0.0457
  202MOL0     H27818   2.757  10.534   0.380 -0.4333  3.6013  1.2616
  202MOL0     H27819   3.023  10.485   0.532  0.6742 -2.9125 -0.3393
  202MOL0     H27820   2.865  10.555   0.590 -0.3788  0.3350 -1.1599
  202MOL0     H27821   2.927  10.260   0.518 -2.6892 -2.2206 -2.3005
  202MOL0     H27822   2.771  10.325   0.474  0.9493 -5.3868  0.2412
  202MOL0     H27823   2.838  10.213   0.722 -0.1173 -0.4446  0.4556
  202MOL0     H27824   2.865  10.383   0.753  3.4874 -1.4534 -1.8871
  202MOL0     H27825   2.639  10.520   0.619  1.4373 -3.1736 -3.4453
  202MOL0     H27826   2.362  10.552   0.593  0.2952  0.2268 -1.3307
  202MOL0     H27827   2.270  10.477   0.717 -0.9983 -1.6227 -1.2596
  202MOL0     H27828   2.271  10.268   0.559  1.5776  0.5830  0.7422
  202MOL0     H27829   2.157  10.396   0.514  0.2521  0.0662 -2.0469
  202MOL0     H27830   2.432  10.318   0.400  1.1522  1.0444 -4.0295
  202MOL0     H27831   2.271  10.293   0.349 -1.2266 -0.0406  2.1376
  202MOL0     H27832   2.365  10.488   0.221 -0.2533  0.1573  0.4030
  202MOL0     H27833   2.230  10.540   0.318 -0.3251  0.3032 -1.8756
  202MOL0     H27834   2.225  10.757   0.276 -0.0973 -0.0343  1.1372
  202MOL0     H27835   2.163  11.105   0.261 -1.4421  0.3205 -1.6071
  202MOL0     H27836   2.122  10.954   0.184 -2.3996  3.5507 -2.2447
  202MOL0     H27837   2.257  11.059   0.113  1.2422 -0.2798 -0.0677
  202MOL0     H27838   2.446  11.277  -0.008  1.2342 -1.6624  0.5975
  202MOL0     H27839   2.470  11.454  -0.127 -1.8673 -0.8819  0.9773
  202MOL0     H27840   2.641  11.797   0.054 -0.6740 -1.1219  0.0852
  202MOL0     H27841   2.800  11.759  -0.008 -0.6374 -0.1980  1.9572
  202MOL0     H27842   2.730  11.894  -0.225 -1.0217  0.8266 -0.4272
  202MOL0     H27843   2.570  11.921  -0.156  0.3702  0.0391 -1.6230
  202MOL0     H27844   2.858  12.004  -0.081 -0.5889 -0.0481 -1.3483
  202MOL0     H27845   2.733  12.011   0.043  0.6302 -1.7788  0.2509
  202MOL0     H27846   2.620  12.202  -0.069  2.5740  0.8980  1.3234
  202MOL0     H27847   2.672  12.169  -0.229 -0.0837  0.5219 -1.1539
  202MOL0     H27848   2.917  12.216  -0.153 -1.3226 -2.3466 -0.9496
  202MOL0     H27849   2.799  12.345  -0.179  2.0973  0.6172 -0.6787
  202MOL0     H27850   2.765  12.368   0.069 -0.9481 -1.2172  1.4634
  202MOL0     H27851   2.926  12.413   0.001  1.2973 -2.1070 -3.1046
  202MOL0     H27852   2.985  12.161   0.075  0.8906 -0.6056 -0.1158
  202MOL0     H27853   2.839  12.151   0.161  0.3905  0.2006  0.6390
  202MOL0     H27854   2.904  12.356   0.290  0.4844  1.9574 -2.7457
  202MOL0     H27855   3.031  12.388   0.186 -1.5074  0.1057 -1.0315
  202MOL0     H27856   2.806  11.565   0.112 -1.4686  1.9730 -0.5557
  202MOL0     H27857   2.751  11.405   0.275  0.7371  3.4550  0.9764
  202MOL0     H27858   2.630  11.013   0.365 -0.6469  0.0671 -3.1990
  202MOL0     H27859   2.628  10.745   0.413  0.1640  1.5312  2.7984
  202MOL0     H27860   3.400  11.072   0.292  0.7747 -0.2971  1.7221
  202MOL0     H27861   3.625  11.105   0.319  1.9392 -1.0729 -1.4464
  202MOL0     H27862   3.968  10.725   0.432  0.4892 -1.0577  0.9527
  202MOL0     H27863   4.169  10.646   0.537 -1.1987  0.6464  3.4166
  202MOL0     H27864   4.537  10.718   0.527 -3.2177 -3.0059  1.1114
  202MOL0     H27865   4.510  10.885   0.588  0.3612  0.8897  0.6583
  202MOL0     H27866   4.577  10.629   0.745 -0.4329  0.3301  2.5644
  202MOL0     H27867   4.521  10.778   0.811  1.0376  0.4092  0.8555
  202MOL0     H27868   4.716  10.895   0.733  0.1217 -0.2814 -2.5640
  202MOL0     H27869   4.785  10.764   0.820  2.5368 -1.5983 -1.5026
  202MOL0     H27870   4.785  10.634   0.592 -0.6256 -0.9605  3.5037
  202MOL0     H27871   4.917  10.743   0.650 -0.5377 -1.1241  0.2194
  202MOL0     H27872   4.829  11.009   0.370 -2.6776 -0.1160 -2.6280
  202MOL0     H27873   4.324  11.022   0.598  1.1245 -2.3002 -1.7694
  202MOL0     H27874   4.228  11.213   0.473 -0.9460  3.4311 -1.5352
  202MOL0     H27875   4.094  11.177   0.365 -1.5128 -0.5043  1.0794
  202MOL0     H27876   4.079  11.236   0.545  0.6980 -0.0574  1.8076
  203MOL0     O27877  11.344   7.040   3.255  0.6245  0.2919  0.4071
  203MOL0     C27878  11.430   7.113   3.303 -0.4595 -0.5232 -0.2495
  203MOL0     O27879  11.474   7.231   3.246 -0.3230  0.3347 -0.8279
  203MOL0     C27880  11.432   7.255   3.111  0.2908  0.5535 -0.3096
  203MOL0     C27881  11.301   7.278   3.074 -0.0522  0.0941  0.7744
  203MOL0     C27882  11.277   7.322   2.950  0.9737 -0.9351  0.5026
  203MOL0     C27883  11.380   7.351   2.848 -0.4152  0.5757 -0.1673
  203MOL0     O27884  11.355   7.416   2.725 -0.0980 -0.1995 -0.1312
  203MOL0     C27885  11.217   7.437   2.689  0.2860 -0.1422 -0.6672
  203MOL0     C27886  11.211   7.512   2.548 -0.6170  0.1084 -0.0057
  203MOL0     C27887  11.219   7.424   2.420  0.7587  0.4498  0.2979
  203MOL0     C27888  11.218   7.531   2.311  0.0592  0.5883  0.4927
  203MOL0     C27889  11.270   7.477   2.176  0.7228  0.3466  0.2515
  203MOL0     C27890  11.163   7.470   2.066 -0.0065 -0.6499  0.3224
  203MOL0     C27891  11.096   7.603   2.025  0.0141 -0.6594 -0.5364
  203MOL0     C27892  10.985   7.574   1.926  0.5396 -0.5718 -0.6595
  203MOL0     N27893  10.920   7.699   1.879 -0.6024  0.3796  1.2076
  203MOL0     C27894  10.878   7.801   1.965 -0.2620 -0.2318 -0.5262
  203MOL0     C27895  10.873   7.907   1.880 -0.7234 -0.1249  0.6110
  203MOL0     C27896  10.824   8.042   1.915 -0.4093 -0.0182  0.0229
  203MOL0     C27897  10.729   8.107   1.809 -0.7024  0.5201 -0.0232
  203MOL0     C27898  10.587   8.038   1.820 -0.0155 -0.0116 -0.4207
  203MOL0     C27899  10.540   7.984   1.687  0.0772  0.3953  0.3677
  203MOL0     O27900  10.520   8.096   1.597 -0.7421 -0.2053 -0.4545
  203MOL0     C27901  10.487   8.073   1.464 -0.2198 -0.9697 -0.7444
  203MOL0     C27902  10.464   8.190   1.393  0.1250  0.4160  1.2064
  203MOL0     C27903  10.451   8.187   1.250  0.2385  0.1862 -0.3698
  203MOL0     C27904  10.476   8.311   1.173  1.5118 -0.2573 -0.0694
  203MOL0     C27905  10.430   8.062   1.182 -0.3035  0.5910 -0.2285
  203MOL0     C27906  10.405   8.047   1.045  0.5689  0.0265  0.4577
  203MOL0     O27907  10.374   7.924   1.012 -0.6601  0.1971  0.5602
  203MOL0     C27908  10.416   7.880   0.888  0.6582  0.1603 -0.1812
  203MOL0     C27909  10.323   7.789   0.828  0.1352 -0.2289 -0.0484
  203MOL0     C27910  10.345   7.743   0.698 -0.5557  0.6829 -0.0970
  203MOL0     C27911  10.462   7.787   0.630  0.1944  0.3171 -0.0028
  203MOL0     O27912  10.495   7.761   0.501 -0.6387  0.1515 -0.1478
  203MOL0     C27913  10.391   7.757   0.404 -0.4623  0.7955 -0.3668
  203MOL0     C27914  10.458   7.717   0.267 -0.3208  0.4102  0.6616
  203MOL0     C27915  10.550   7.823   0.209  0.4191 -0.6733  0.9241
  203MOL0     C27916  10.452   7.941   0.155 -1.2212  0.2100  0.5781
  203MOL0     C27917  10.540   8.055   0.087  0.2360 -0.0016  0.7437
  203MOL0     C27918  10.462   8.130  -0.028 -0.5794  0.2202 -0.1918
  203MOL0     C27919  10.550   8.235  -0.090  0.0826 -0.1570  0.3466
  203MOL0     C27920  10.454   8.328  -0.172  0.3484  1.0109 -0.3554
  203MOL0    Cl27921  10.345   8.228  -0.281 -0.1396 -0.3523  0.3682
  203MOL0     C27922  10.559   7.858   0.698  0.8826  0.5218 -0.7392
  203MOL0     C27923  10.539   7.896   0.830 -1.0510 -0.7059  0.6170
  203MOL0     O27924  10.407   8.139   0.966 -0.1088 -0.4824  0.1916
  203MOL0     C27925  10.440   7.946   1.265  0.9221 -0.6995  0.0272
  203MOL0     C27926  10.472   7.949   1.399  0.0755 -0.3001 -0.9570
  203MOL0     N27927  10.916   7.870   1.755 -0.0450  0.4041  0.7505
  203MOL0     N27928  10.939   7.747   1.749  0.3089  0.4694 -0.2995
  203MOL0     C27929  11.518   7.327   2.890  0.7853 -0.2540  0.6118
  203MOL0     C27930  11.535   7.282   3.024 -0.2630  0.0097  0.1552
  203MOL0     C27931  11.491   7.071   3.426  0.0604 -0.0875 -1.0570
  203MOL0     C27932  11.492   6.937   3.459  0.5444 -0.4687  0.1041
  203MOL0     C27933  11.531   6.887   3.582 -0.0914  0.4062  0.3801
  203MOL0     C27934  11.594   6.976   3.676 -0.4192 -0.5750 -0.1144
  203MOL0     O27935  11.672   6.952   3.787  1.0240  0.0196  0.1407
  203MOL0     C27936  11.639   6.833   3.859  0.3468 -0.2940  0.3595
  203MOL0     C27937  11.519   6.868   3.950 -1.0709 -0.0203 -0.4644
  203MOL0     C27938  11.540   6.804   4.086 -0.5184 -0.0562 -0.6666
  203MOL0     C27939  11.451   6.868   4.196  0.2460  0.5569  0.0448
  203MOL0     C27940  11.308   6.860   4.183 -0.1447 -0.3924  0.1858
  203MOL0     C27941  11.193   6.842   4.172  1.2208 -0.6165 -0.8317
  203MOL0     C27942  11.597   7.109   3.645  1.1560 -0.1382 -0.5007
  203MOL0     C27943  11.546   7.164   3.531  0.9866  0.3330  0.0852
  203MOL0     C27944  11.527   7.314   3.526  0.1206 -0.0895  0.4801
  203MOL0     H27945  11.209   7.271   3.132 -0.3763  0.4477  0.3028
  203MOL0     H27946  11.174   7.354   2.935  1.3365 -0.8310 -2.2346
  203MOL0     H27947  11.175   7.499   2.768 -0.2062 -0.5291 -0.6210
  203MOL0     H27948  11.166   7.340   2.691 -2.8021  1.3641 -1.3461
  203MOL0     H27949  11.115   7.563   2.546 -0.4204  0.4925  0.2094
  203MOL0     H27950  11.292   7.585   2.559 -1.1222  0.2281  4.5875
  203MOL0     H27951  11.315   7.373   2.412  0.2266 -0.6343  0.6373
  203MOL0     H27952  11.134   7.356   2.414  0.2013  1.1202  0.4269
  203MOL0     H27953  11.119   7.575   2.292 -0.0323 -0.1253 -0.7820
  203MOL0     H27954  11.280   7.618   2.332  1.2273 -0.3153  0.8702
  203MOL0     H27955  11.311   7.376   2.191  0.4211 -0.0713 -1.5306
  203MOL0     H27956  11.353   7.530   2.130  1.2490 -1.6268 -1.2002
  203MOL0     H27957  11.206   7.429   1.974 -0.5478 -1.3173  0.3577
  203MOL0     H27958  11.082   7.404   2.098 -0.1515  0.5690  2.6756
  203MOL0     H27959  11.172   7.670   1.986 -0.6450 -0.1640 -1.0036
  203MOL0     H27960  11.043   7.641   2.113 -0.8840  0.8962 -1.7020
  203MOL0     H27961  11.025   7.510   1.846 -1.3585 -5.4672  1.8637
  203MOL0     H27962  10.904   7.517   1.972  0.9097  0.5514  1.4774
  203MOL0     H27963  10.873   7.811   2.073 -1.6320 -0.4620 -0.5500
  203MOL0     H27964  10.907   8.114   1.907 -1.2040  0.7295 -2.3317
  203MOL0     H27965  10.783   8.050   2.016  3.0199  0.0946  1.5489
  203MOL0     H27966  10.716   8.212   1.836 -1.8582  0.2047  0.7633
  203MOL0     H27967  10.771   8.099   1.709  1.6128 -0.0469  0.9237
  203MOL0     H27968  10.590   7.957   1.893 -0.4413  0.7665  0.4761
  203MOL0     H27969  10.501   8.096   1.854 -0.8982 -0.6875 -1.4108
  203MOL0     H27970  10.618   7.915   1.653 -1.0255 -0.1648 -1.0944
  203MOL0     H27971  10.445   7.931   1.697 -0.4627  1.4025  0.6956
  203MOL0     H27972  10.478   8.294   1.421  0.6668  0.5741  0.3916
  203MOL0     H27973  10.496   8.388   1.249 -1.6759  0.8635 -0.2355
  203MOL0     H27974  10.385   8.347   1.125  0.9466  0.3414  1.3695
  203MOL0     H27975  10.562   8.308   1.106  1.3817  0.2047 -0.2573
  203MOL0     H27976  10.242   7.753   0.890 -2.0582 -1.2676 -3.2709
  203MOL0     H27977  10.280   7.669   0.654 -0.7326  0.0545  1.1839
  203MOL0     H27978  10.328   7.673   0.433  1.5117 -0.3759  0.7554
  203MOL0     H27979  10.325   7.844   0.403 -0.8210  0.5460  0.7266
  203MOL0     H27980  10.532   7.642   0.297  2.5444  2.4883 -0.6604
  203MOL0     H27981  10.393   7.660   0.201 -0.7735 -0.2347  1.6472
  203MOL0     H27982  10.613   7.787   0.127  1.3782  1.7513  0.5032
  203MOL0     H27983  10.608   7.863   0.292 -1.3925  2.3581  0.9054
  203MOL0     H27984  10.391   7.986   0.233 -3.0186 -0.2268 -0.5095
  203MOL0     H27985  10.388   7.911   0.071  0.8505  0.1193 -1.0484
  203MOL0     H27986  10.572   8.124   0.166  2.3220 -1.4474  1.2688
  203MOL0     H27987  10.623   8.005   0.034  1.0948 -0.7187  2.6741
  203MOL0     H27988  10.372   8.169   0.021 -1.6817 -1.4090 -0.8081
  203MOL0     H27989  10.431   8.050  -0.096  1.9460 -2.7641  1.8427
  203MOL0     H27990  10.621   8.182  -0.153  0.0484 -0.2170  0.3588
  203MOL0     H27991  10.606   8.296  -0.018  3.3027 -1.1839 -1.1235
  203MOL0     H27992  10.514   8.401  -0.228  0.5529  1.4634  0.4350
  203MOL0     H27993  10.390   8.388  -0.107 -0.6769  1.1256 -1.4239
  203MOL0     H27994  10.653   7.884   0.649  0.0727 -0.0918 -2.7203
  203MOL0     H27995  10.609   7.959   0.885 -0.4106  0.2281 -1.2085
  203MOL0     H27996  10.416   7.849   1.222  1.0090  0.0199 -1.6974
  203MOL0     H27997  10.465   7.860   1.460 -0.3880  0.5587  0.3056
  203MOL0     H27998  11.604   7.352   2.827  0.8048  1.4715  1.2620
  203MOL0     H27999  11.638   7.287   3.060  0.1997  1.6155 -1.2510
  203MOL0     H28000  11.441   6.869   3.392 -2.1813  1.2231  0.3212
  203MOL0     H28001  11.520   6.784   3.612  1.4033  1.0156  3.4639
  203MOL0     H28002  11.612   6.757   3.785 -0.9162 -0.0793  0.5806
  203MOL0     H28003  11.732   6.808   3.910  0.1768  2.1743  2.0127
  203MOL0     H28004  11.428   6.827   3.907 -1.2722 -0.3233  0.2285
  203MOL0     H28005  11.506   6.976   3.957  1.0532  0.1955  1.5332
  203MOL0     H28006  11.532   6.696   4.074  0.0252 -0.1547 -0.1556
  203MOL0     H28007  11.640   6.816   4.127 -0.3526  1.4112 -1.4140
  203MOL0     H28008  11.475   6.973   4.215 -0.8369  0.5512  1.6423
  203MOL0     H28009  11.473   6.815   4.290  3.3364  0.7084 -0.4797
  203MOL0     H28010  11.091   6.810   4.171  1.6248 -2.0639  0.4279
  203MOL0     H28011  11.634   7.176   3.722  1.4034 -0.6695 -0.1483
  203MOL0     H28012  11.585   7.358   3.443  3.7700  0.0056  2.8399
  203MOL0     H28013  11.421   7.341   3.528  0.0356 -0.3956  0.1470
  203MOL0     H28014  11.579   7.351   3.616  1.4843 -4.3645  1.6771
  204MOL0     O28015   0.573   5.463   3.087 -0.4120 -0.0825 -1.3987
  204MOL0     C28016   0.563   5.342   3.105  0.8651 -0.6035 -0.0977
  204MOL0     O28017   0.512   5.288   3.216  0.0197  0.8383  0.1292
  204MOL0     C28018   0.487   5.367   3.324  1.1833 -0.5372  0.5942
  204MOL0     C28019   0.407   5.487   3.321 -0.0156 -0.4816 -0.2839
  204MOL0     C28020   0.354   5.533   3.440 -0.4725  0.0685 -0.4985
  204MOL0     C28021   0.404   5.497   3.565  0.7318 -0.0123  0.1492
  204MOL0     O28022   0.353   5.551   3.676 -0.6956  0.1139 -0.3026
  204MOL0     C28023   0.435   5.675   3.700 -0.4369  0.2988 -0.1595
  204MOL0     C28024   0.475   5.657   3.841 -0.8440 -0.3246  0.0323
  204MOL0     C28025   0.581   5.748   3.895  0.6782 -1.1536  0.2421
  204MOL0     C28026   0.549   5.789   4.045  0.0906  0.4100  0.0053
  204MOL0     C28027   0.661   5.881   4.105  0.1090  0.3891 -0.5872
  204MOL0     C28028   0.798   5.820   4.098 -0.5677 -0.7716 -0.0400
  204MOL0     C28029   0.914   5.908   4.141  0.2311  0.3449  0.4045
  204MOL0     C28030   0.902   6.054   4.095 -0.3417 -0.4415 -0.0377
  204MOL0     N28031   1.023   6.129   4.135  0.7946  0.1315 -0.8872
  204MOL0     C28032   1.039   6.232   4.232 -0.1069  0.5496  0.3024
  204MOL0     C28033   1.160   6.280   4.225 -0.6462 -0.5048 -0.6176
  204MOL0     C28034   1.251   6.381   4.289  1.5028 -0.2687  0.5720
  204MOL0     C28035   1.166   6.498   4.335 -0.4698  0.4099  0.3065
  204MOL0     C28036   1.254   6.607   4.398  0.3508 -0.2090  0.2078
  204MOL0     C28037   1.305   6.588   4.545 -0.0749 -0.2372 -0.0164
  204MOL0     O28038   1.193   6.571   4.625  0.4442 -0.5928 -0.0279
  204MOL0     C28039   1.214   6.537   4.755  0.4332 -0.3257 -0.3179
  204MOL0     C28040   1.102   6.481   4.830 -0.1363  0.7599  0.2463
  204MOL0     C28041   1.124   6.432   4.963 -0.4138 -0.9513 -0.1940
  204MOL0     C28042   0.998   6.374   5.029 -0.0527  0.3247 -0.0355
  204MOL0     C28043   1.241   6.452   5.032 -0.2173  0.5919 -0.1720
  204MOL0     C28044   1.260   6.425   5.178 -0.6353  0.8546 -0.8305
  204MOL0     O28045   1.206   6.320   5.241 -0.3943  0.4376  0.3706
  204MOL0     C28046   1.222   6.296   5.374  0.2516 -0.0904  0.0578
  204MOL0     C28047   1.317   6.198   5.424  0.2306 -0.3145  0.0736
  204MOL0     C28048   1.326   6.187   5.559 -0.3697 -0.3711 -0.1188
  204MOL0     C28049   1.252   6.249   5.652 -0.1961 -1.8293 -1.0320
  204MOL0     O28050   1.242   6.218   5.787 -0.1685  0.5428 -0.3396
  204MOL0     C28051   1.346   6.150   5.856 -0.2502  0.7438  0.6936
  204MOL0     C28052   1.301   6.105   5.999  0.9066  0.3068  0.1692
  204MOL0     C28053   1.170   6.023   6.002 -0.0422 -0.2382  0.6291
  204MOL0     C28054   1.127   5.978   6.140 -0.3170 -0.7663  0.3329
  204MOL0     C28055   1.091   6.098   6.225  0.1448 -0.8709  0.5064
  204MOL0     C28056   1.046   6.049   6.365 -0.7172  0.1193  0.5295
  204MOL0     C28057   0.906   5.980   6.371 -0.4082 -0.3634  0.2779
  204MOL0     C28058   0.793   6.067   6.345  0.7814 -0.1463  0.2668
  204MOL0    Cl28059   0.642   5.967   6.332 -0.1866  0.0455 -0.1755
  204MOL0     C28060   1.155   6.345   5.605 -0.2426 -0.1066  0.2334
  204MOL0     C28061   1.149   6.372   5.463  0.6070 -0.3962 -0.6467
  204MOL0     O28062   1.330   6.504   5.234  0.4818 -0.0813 -0.4260
  204MOL0     C28063   1.349   6.504   4.960 -0.2043  0.6294  0.2016
  204MOL0     C28064   1.338   6.542   4.824  0.7425 -0.2602  0.7927
  204MOL0     N28065   1.228   6.200   4.144  0.8387 -0.3863  0.0252
  204MOL0     N28066   1.148   6.112   4.090  0.1763 -0.2024 -0.6567
  204MOL0     C28067   0.496   5.390   3.558 -0.3553 -0.7295 -0.0316
  204MOL0     C28068   0.533   5.321   3.444 -0.1894 -1.2236  1.2435
  204MOL0     C28069   0.585   5.254   2.980  0.5158 -0.8763 -0.3170
  204MOL0     C28070   0.542   5.117   3.001 -0.4075 -0.9605 -0.4803
  204MOL0     C28071   0.565   5.024   2.902  0.1048  0.1413 -0.6131
  204MOL0     C28072   0.611   5.067   2.782  0.0778 -0.7475  0.2989
  204MOL0     O28073   0.625   4.977   2.679  0.5295 -0.5690 -0.2207
  204MOL0     C28074   0.665   5.006   2.551  0.2364 -0.1796 -0.2925
  204MOL0     C28075   0.681   4.869   2.483  1.1032  0.6858 -0.0283
  204MOL0     C28076   0.555   4.811   2.410 -0.3407 -0.5180  0.3616
  204MOL0     C28077   0.530   4.665   2.453  0.2610  0.3526 -0.1296
  204MOL0     C28078   0.435   4.667   2.562  0.8039  0.2321 -0.1035
  204MOL0     C28079   0.335   4.655   2.634 -0.2105  0.0494 -0.0541
  204MOL0     C28080   0.643   5.199   2.758 -0.1876 -0.4379 -0.6291
  204MOL0     C28081   0.643   5.294   2.862 -0.3448 -0.1141  0.5710
  204MOL0     C28082   0.719   5.427   2.853  0.0735  0.3956  0.8858
  204MOL0     H28083   0.371   5.535   3.230  0.1528  0.2416  0.0213
  204MOL0     H28084   0.284   5.615   3.447 -2.3624 -1.4808 -0.6347
  204MOL0     H28085   0.377   5.766   3.687 -0.0385  0.4129 -1.1930
  204MOL0     H28086   0.517   5.687   3.629 -0.2474  3.3927  0.4817
  204MOL0     H28087   0.380   5.677   3.892 -1.6747 -2.4042 -0.5819
  204MOL0     H28088   0.492   5.551   3.863  4.8834  0.7925  2.7421
  204MOL0     H28089   0.681   5.707   3.880  0.0675 -1.9923 -1.9075
  204MOL0     H28090   0.568   5.847   3.849 -1.8790 -1.7410 -0.4562
  204MOL0     H28091   0.457   5.847   4.053 -2.6046 -3.4728  0.2344
  204MOL0     H28092   0.528   5.697   4.101 -3.9647 -0.2188 -2.1225
  204MOL0     H28093   0.635   5.900   4.210 -2.6757  0.1264 -1.1434
  204MOL0     H28094   0.654   5.982   4.064  0.4159  0.7194  0.1588
  204MOL0     H28095   0.804   5.727   4.155  0.8836 -1.6639 -1.5457
  204MOL0     H28096   0.824   5.799   3.994  0.3189  1.2410 -0.2773
  204MOL0     H28097   0.998   5.852   4.098 -0.8343 -1.8386  1.0236
  204MOL0     H28098   0.914   5.907   4.251 -0.6356 -3.6666  0.5442
  204MOL0     H28099   0.890   6.049   3.986  0.1301  0.2662 -0.1250
  204MOL0     H28100   0.817   6.105   4.142  0.8614  1.2086  0.4261
  204MOL0     H28101   0.955   6.272   4.287 -1.1042 -1.7289  0.5605
  204MOL0     H28102   1.313   6.419   4.207 -1.7619 -1.3065 -2.6560
  204MOL0     H28103   1.306   6.338   4.373  1.5604 -0.2901  0.5234
  204MOL0     H28104   1.128   6.534   4.239  1.0540 -0.0785 -0.5192
  204MOL0     H28105   1.083   6.467   4.398  0.7065 -1.2164  1.1315
  204MOL0     H28106   1.333   6.618   4.324  0.6091 -0.0504  0.5052
  204MOL0     H28107   1.194   6.698   4.387 -1.5910 -1.5127 -0.5413
  204MOL0     H28108   1.368   6.499   4.535  2.2043  1.2392  0.3594
  204MOL0     H28109   1.374   6.666   4.578  2.4832 -2.1539 -0.4763
  204MOL0     H28110   1.001   6.479   4.789 -0.3296 -0.9719  0.7232
  204MOL0     H28111   0.954   6.441   5.103  0.8678  1.1103 -0.1853
  204MOL0     H28112   1.018   6.276   5.073 -0.7822  1.0344  1.9631
  204MOL0     H28113   0.922   6.364   4.951  0.3776  1.0619 -0.5605
  204MOL0     H28114   1.377   6.137   5.357  1.6855 -1.1262  2.0294
  204MOL0     H28115   1.404   6.129   5.607  1.0809  1.4652 -0.1688
  204MOL0     H28116   1.368   6.058   5.801 -0.3796  1.0958  0.0385
  204MOL0     H28117   1.435   6.213   5.861  2.1464 -2.3405  0.0065
  204MOL0     H28118   1.378   6.044   6.047  0.2381  0.7633  1.8756
  204MOL0     H28119   1.291   6.197   6.058  1.9178  1.1772 -0.9595
  204MOL0     H28120   1.178   5.931   5.943  0.9749  0.5032 -0.4236
  204MOL0     H28121   1.093   6.086   5.956  0.7857  0.3962  0.0994
  204MOL0     H28122   1.213   5.925   6.182 -1.4470 -0.5484  3.0803
  204MOL0     H28123   1.054   5.897   6.141  1.6520 -2.6646  2.4287
  204MOL0     H28124   1.187   6.146   6.247  0.2138 -0.7043 -0.1402
  204MOL0     H28125   1.015   6.158   6.175  2.3441  0.7169 -1.1719
  204MOL0     H28126   1.044   6.124   6.445 -0.9202 -1.6463  2.2368
  204MOL0     H28127   1.125   5.982   6.401  1.1233  0.4454 -2.5407
  204MOL0     H28128   0.883   5.929   6.465 -2.2340  0.0063  0.0664
  204MOL0     H28129   0.910   5.902   6.295  0.0316 -0.9279  0.8719
  204MOL0     H28130   0.810   6.112   6.247  0.6031 -1.5227 -0.4201
  204MOL0     H28131   0.779   6.145   6.420 -2.7861  0.6540 -1.0165
  204MOL0     H28132   1.077   6.387   5.668  0.5808  1.6135  0.1728
  204MOL0     H28133   1.075   6.447   5.438  1.2475  1.5630  2.7046
  204MOL0     H28134   1.448   6.526   5.000  0.3403 -0.7086 -0.3629
  204MOL0     H28135   1.433   6.559   4.776 -0.3905 -1.7727 -2.2189
  204MOL0     H28136   0.541   5.362   3.653  0.7005  0.2253 -0.2271
  204MOL0     H28137   0.610   5.245   3.445 -0.3048 -1.3604  0.2835
  204MOL0     H28138   0.489   5.087   3.091  0.7376  1.2650  1.0697
  204MOL0     H28139   0.528   4.923   2.919  1.5392 -0.5052 -1.1344
  204MOL0     H28140   0.583   5.056   2.499 -0.8643 -0.5251  1.0414
  204MOL0     H28141   0.757   5.062   2.531  0.6662 -1.2453 -1.4810
  204MOL0     H28142   0.721   4.797   2.554  1.0181  1.1636  0.5083
  204MOL0     H28143   0.754   4.884   2.402 -0.4756  1.9099 -1.2786
  204MOL0     H28144   0.472   4.881   2.424 -1.2926 -1.4724 -0.3569
  204MOL0     H28145   0.574   4.811   2.302 -1.7476  2.3541  0.0225
  204MOL0     H28146   0.620   4.615   2.491 -1.3938  0.0559  3.8560
  204MOL0     H28147   0.482   4.605   2.376 -0.5616  0.4416  0.3048
  204MOL0     H28148   0.241   4.655   2.686  0.5087 -1.0750  1.3229
  204MOL0     H28149   0.693   5.239   2.670 -0.0305  2.7065  0.7236
  204MOL0     H28150   0.759   5.457   2.950 -0.8756  2.5998  0.6334
  204MOL0     H28151   0.808   5.421   2.788 -1.3150 -1.5473 -0.9924
  204MOL0     H28152   0.661   5.510   2.812  0.2208 -0.5543 -1.4444
  205MOL0     O28153   2.834   6.507   9.754  0.3367  0.2820  0.4945
  205MOL0     C28154   2.869   6.408   9.689 -0.1119  0.2970 -0.4668
  205MOL0     O28155   2.789   6.320   9.616 -0.2136  0.2408 -0.0019
  205MOL0     C28156   2.659   6.347   9.587 -0.4060 -0.3194 -0.4501
  205MOL0     C28157   2.635   6.390   9.452  0.0670  0.3825 -0.6047
  205MOL0     C28158   2.506   6.438   9.411 -0.7339 -1.0783 -0.3842
  205MOL0     C28159   2.408   6.457   9.512  0.3982 -0.0900  0.5159
  205MOL0     O28160   2.287   6.514   9.472  0.6102  0.6778 -0.0389
  205MOL0     C28161   2.189   6.548   9.570 -0.1799 -0.3373  0.2818
  205MOL0     C28162   2.096   6.660   9.520 -0.7389  0.0263 -0.2919
  205MOL0     C28163   2.004   6.714   9.629  0.0888  0.0322  1.0191
  205MOL0     C28164   1.921   6.610   9.696  0.3539  0.1392 -0.7007
  205MOL0     C28165   1.837   6.515   9.610  0.3329 -0.5340  0.1129
  205MOL0     C28166   1.717   6.461   9.690 -0.2461 -0.2568  0.3701
  205MOL0     C28167   1.631   6.371   9.595  0.3515 -0.2199 -0.4284
  205MOL0     C28168   1.700   6.238   9.578  0.7295  0.1012 -0.4611
  205MOL0     N28169   1.623   6.139   9.501  0.3092 -0.3949 -0.0884
  205MOL0     C28170   1.658   6.084   9.382  0.3878 -0.3578  0.2098
  205MOL0     C28171   1.548   6.017   9.350 -0.4693 -0.6720 -0.3899
  205MOL0     C28172   1.525   5.942   9.221 -0.1511 -0.2557  0.2312
  205MOL0     C28173   1.415   6.015   9.143 -0.3467  0.6226  0.0065
  205MOL0     C28174   1.462   6.150   9.077 -0.9568 -0.1428  0.1123
  205MOL0     C28175   1.576   6.131   8.976  0.2938  0.2971  0.2591
  205MOL0     O28176   1.702   6.108   9.037 -0.1187 -0.3697 -0.1875
  205MOL0     C28177   1.812   6.081   8.960  0.6199 -0.1585 -0.1938
  205MOL0     C28178   1.927   6.056   9.023  0.5022 -0.1550 -0.3520
  205MOL0     C28179   2.047   6.009   8.957  0.2123 -0.1463 -0.5345
  205MOL0     C28180   2.162   5.950   9.030 -0.1168  0.1137  0.6477
  205MOL0     C28181   2.040   6.004   8.816  0.8966 -0.0788 -0.2200
  205MOL0     C28182   2.150   5.956   8.735 -0.2116 -0.9518  0.3466
  205MOL0     O28183   2.111   5.892   8.621 -0.0521  0.3319 -0.0340
  205MOL0     C28184   2.204   5.823   8.548 -0.5207  0.2468  0.9715
  205MOL0     C28185   2.296   5.894   8.472  0.6605 -0.9432  0.4842
  205MOL0     C28186   2.369   5.835   8.381  0.1389  0.5153 -0.4728
  205MOL0     C28187   2.387   5.698   8.382  0.1182  0.5805 -0.0032
  205MOL0     O28188   2.492   5.653   8.300  0.1102  0.0409 -0.5888
  205MOL0     C28189   2.507   5.514   8.280  0.9714 -0.0120 -0.7929
  205MOL0     C28190   2.603   5.496   8.163 -0.3715  0.2005 -0.9216
  205MOL0     C28191   2.744   5.537   8.200 -0.0302 -0.0516  0.5070
  205MOL0     C28192   2.828   5.575   8.079  0.1282  0.0739  0.1334
  205MOL0     C28193   2.975   5.582   8.123  0.9913  0.0699 -0.0844
  205MOL0     C28194   3.067   5.599   8.010 -1.2153 -0.2039 -0.2985
  205MOL0     C28195   3.222   5.606   8.050 -0.8174 -0.6719 -0.5152
  205MOL0     C28196   3.302   5.721   8.004 -0.9767  0.0554 -0.4985
  205MOL0    Cl28197   3.244   5.877   8.052 -0.0425  0.4091 -0.0284
  205MOL0     C28198   2.301   5.619   8.463 -0.4638 -1.2864 -1.0720
  205MOL0     C28199   2.202   5.688   8.541 -0.0544  0.7251  0.4736
  205MOL0     O28200   2.263   5.985   8.766  0.6970  0.8192  0.4289
  205MOL0     C28201   1.922   6.047   8.747  0.3590  0.1522 -0.5435
  205MOL0     C28202   1.810   6.078   8.820  0.1570 -0.4912  0.0947
  205MOL0     N28203   1.450   6.032   9.453  0.1624  0.1771  0.3738
  205MOL0     N28204   1.498   6.106   9.541 -0.0295  0.3757  0.1148
  205MOL0     C28205   2.432   6.402   9.646 -0.3027 -0.4141 -0.4186
  205MOL0     C28206   2.557   6.371   9.677 -0.2197  1.1180 -0.8656
  205MOL0     C28207   3.014   6.380   9.689 -0.0526  0.9108 -0.5684
  205MOL0     C28208   3.067   6.354   9.560  0.6467 -0.3630 -0.2893
  205MOL0     C28209   3.205   6.337   9.547  0.1246  1.0888 -0.4800
  205MOL0     C28210   3.287   6.343   9.658  0.0651  0.0727 -0.8632
  205MOL0     O28211   3.420   6.325   9.620  0.6397 -0.0163 -0.5522
  205MOL0     C28212   3.524   6.308   9.723 -0.4396  0.0730 -0.3049
  205MOL0     C28213   3.527   6.161   9.781 -0.6771  0.0270  1.1424
  205MOL0     C28214   3.549   6.048   9.677  0.1997 -0.7041 -0.2057
  205MOL0     C28215   3.693   6.041   9.625 -0.6093 -0.2904  0.5362
  205MOL0     C28216   3.766   5.953   9.706 -0.3960  1.4281 -1.1517
  205MOL0     C28217   3.829   5.866   9.765 -0.0839  0.3158 -0.3358
  205MOL0     C28218   3.242   6.351   9.783 -0.0745  0.2701 -0.2870
  205MOL0     C28219   3.107   6.385   9.798 -0.2764  0.0238  0.2498
  205MOL0     C28220   3.062   6.432   9.932  1.0596  0.4348 -0.2159
  205MOL0     H28221   2.717   6.386   9.380  1.9035 -0.0535  1.3979
  205MOL0     H28222   2.493   6.475   9.310 -2.8083 -2.7739 -0.7993
  205MOL0     H28223   2.245   6.571   9.661  1.2241 -5.7933  1.1470
  205MOL0     H28224   2.122   6.462   9.587 -0.7823 -0.0600 -0.6368
  205MOL0     H28225   2.160   6.745   9.494 -0.3237 -0.5520 -1.2024
  205MOL0     H28226   2.047   6.633   9.426 -1.0841 -0.4315  0.0151
  205MOL0     H28227   2.058   6.772   9.704 -2.3196  1.6152  1.6595
  205MOL0     H28228   1.941   6.782   9.570  4.6678  1.4751 -2.9228
  205MOL0     H28229   1.982   6.546   9.761  4.0751  3.3099 -0.6921
  205MOL0     H28230   1.847   6.674   9.746  0.9994  0.3747 -0.0147
  205MOL0     H28231   1.901   6.427   9.597  0.0906 -0.7106  0.1134
  205MOL0     H28232   1.809   6.547   9.509 -2.2503 -0.0497  0.9160
  205MOL0     H28233   1.748   6.404   9.778 -2.1526 -0.1004  1.1956
  205MOL0     H28234   1.652   6.543   9.724 -1.5382 -2.2883  3.1075
  205MOL0     H28235   1.627   6.415   9.496  0.8814  0.5003 -0.1350
  205MOL0     H28236   1.532   6.357   9.640  0.2606  2.2913  0.2803
  205MOL0     H28237   1.799   6.247   9.534  0.1572  0.3580 -1.7317
  205MOL0     H28238   1.709   6.211   9.684 -1.4003  0.8790 -0.0181
  205MOL0     H28239   1.745   6.101   9.319  0.9626  0.3151  1.1682
  205MOL0     H28240   1.499   5.842   9.258  1.4809 -1.3308 -1.4006
  205MOL0     H28241   1.614   5.920   9.162  0.7577  3.2185  0.0993
  205MOL0     H28242   1.384   5.942   9.067 -2.0678  0.2930  0.9735
  205MOL0     H28243   1.330   6.033   9.210 -1.5175  0.6543 -1.4359
  205MOL0     H28244   1.381   6.180   9.009 -0.4261 -1.6459 -1.2184
  205MOL0     H28245   1.486   6.223   9.155 -0.5137 -0.3061  0.1258
  205MOL0     H28246   1.544   6.056   8.904 -3.2602  0.3957  1.5404
  205MOL0     H28247   1.590   6.219   8.913 -3.5577 -1.2649 -3.2702
  205MOL0     H28248   1.916   6.056   9.131  2.9015  1.3442 -0.0156
  205MOL0     H28249   2.178   5.850   8.988 -1.9553  1.4693 -3.8298
  205MOL0     H28250   2.149   5.950   9.139  0.4136 -0.1216  0.7167
  205MOL0     H28251   2.255   6.003   9.009  2.0740 -3.6886 -0.2889
  205MOL0     H28252   2.277   6.001   8.475 -4.6028 -1.5073 -1.3385
  205MOL0     H28253   2.432   5.888   8.309  1.6133  3.1859  2.5280
  205MOL0     H28254   2.558   5.465   8.365 -1.0070 -0.9246 -0.0681
  205MOL0     H28255   2.414   5.459   8.265  0.2940  0.2268  1.9823
  205MOL0     H28256   2.587   5.391   8.136 -1.4630  0.2329 -0.4857
  205MOL0     H28257   2.565   5.559   8.083  1.9856  1.5091 -1.0863
  205MOL0     H28258   2.798   5.453   8.244  2.7793  1.2299 -0.2715
  205MOL0     H28259   2.736   5.620   8.271  2.4355  1.3463 -0.7026
  205MOL0     H28260   2.804   5.675   8.044 -0.1792  0.0483  0.2680
  205MOL0     H28261   2.820   5.499   8.001  1.2831  0.6434 -0.5532
  205MOL0     H28262   2.996   5.666   8.189  1.6088  1.8137 -2.3574
  205MOL0     H28263   2.995   5.495   8.185 -0.0018  0.1519  0.3708
  205MOL0     H28264   3.023   5.683   7.957 -2.9491 -1.0414 -0.2524
  205MOL0     H28265   3.054   5.519   7.936  1.6918  0.8846 -2.1533
  205MOL0     H28266   3.274   5.514   8.022  2.7388  1.1947 -0.5712
  205MOL0     H28267   3.223   5.606   8.159 -2.2430  1.6281 -0.4320
  205MOL0     H28268   3.317   5.710   7.896 -0.3509  2.2730 -0.6935
  205MOL0     H28269   3.400   5.705   8.049 -2.4224 -3.5684  1.7405
  205MOL0     H28270   2.312   5.512   8.448 -0.8002 -1.0880 -2.8902
  205MOL0     H28271   2.131   5.626   8.595  0.8507  0.1083  0.9974
  205MOL0     H28272   1.905   6.054   8.640 -1.0691  2.3817 -0.2385
  205MOL0     H28273   1.727   6.103   8.756 -2.0377 -0.5769  2.7285
  205MOL0     H28274   2.362   6.390   9.728 -0.4918  0.4690 -0.4462
  205MOL0     H28275   2.589   6.341   9.776 -0.3505  3.2253 -0.1412
  205MOL0     H28276   3.003   6.334   9.475 -1.7377 -0.5046  1.4447
  205MOL0     H28277   3.257   6.313   9.454 -1.4879 -0.3483 -1.0619
  205MOL0     H28278   3.623   6.335   9.686  1.1715 -2.5205  1.7105
  205MOL0     H28279   3.500   6.373   9.807 -1.5295 -1.2647  0.4657
  205MOL0     H28280   3.430   6.140   9.827 -1.8140 -0.6957 -1.3987
  205MOL0     H28281   3.605   6.151   9.857 -0.1562  2.2504  0.9675
  205MOL0     H28282   3.529   5.960   9.738  0.7455 -1.5844 -1.2682
  205MOL0     H28283   3.482   6.064   9.592  1.0117  0.9192 -0.5892
  205MOL0     H28284   3.730   6.143   9.631 -1.5525  0.2102 -1.5087
  205MOL0     H28285   3.702   6.002   9.523  3.0682  0.9499  0.2542
  205MOL0     H28286   3.910   5.804   9.800 -2.7452 -3.6005 -0.4337
  205MOL0     H28287   3.301   6.342   9.874  1.3058 -0.2514 -1.1953
  205MOL0     H28288   2.976   6.375   9.969  1.3833 -0.1255 -0.3216
  205MOL0     H28289   3.138   6.424  10.011 -2.5681 -1.3939  3.4779
  205MOL0     H28290   3.033   6.538   9.928 -0.0521  0.1239 -0.9904
  206MOL0     O28291   8.553  10.856   8.994  0.4395 -0.1302  0.5341
  206MOL0     C28292   8.671  10.837   9.022 -0.6357 -0.2804 -0.6855
  206MOL0     O28293   8.772  10.821   8.938  0.7823 -0.2171  0.5017
  206MOL0     C28294   8.739  10.860   8.814  0.1871 -0.2946  0.3705
  206MOL0     C28295   8.658  10.788   8.732  0.2953 -0.4012  0.1065
  206MOL0     C28296   8.626  10.841   8.601  0.2557  0.7166  0.2905
  206MOL0     C28297   8.685  10.958   8.547 -0.2699 -0.5944 -0.3411
  206MOL0     O28298   8.647  11.002   8.425  0.1704  0.4755 -0.0308
  206MOL0     C28299   8.667  11.138   8.399 -0.7381  0.1775  0.2997
  206MOL0     C28300   8.628  11.168   8.259  0.7274  0.4953 -0.6117
  206MOL0     C28301   8.606  11.322   8.235 -0.4493  0.3934  0.7293
  206MOL0     C28302   8.736  11.395   8.180 -0.5703  0.8992 -0.1510
  206MOL0     C28303   8.696  11.538   8.163  0.5644 -0.0935  0.4459
  206MOL0     C28304   8.812  11.637   8.123  0.2930 -0.2049 -0.4741
  206MOL0     C28305   8.770  11.777   8.088  0.2999 -0.1291  0.1571
  206MOL0     C28306   8.890  11.869   8.084  0.2469 -0.5515  0.1259
  206MOL0     N28307   8.983  11.856   7.975  0.7219  0.7572  0.7281
  206MOL0     C28308   8.940  11.851   7.842  0.2648 -0.0162 -0.5325
  206MOL0     C28309   9.052  11.864   7.765 -0.1583 -0.4725  0.3206
  206MOL0     C28310   9.069  11.849   7.608  1.0174  0.0797 -0.4682
  206MOL0     C28311   9.123  11.713   7.589  0.0386 -0.6437  0.3367
  206MOL0     C28312   9.161  11.685   7.443  1.1437 -0.6284 -0.5133
  206MOL0     C28313   9.215  11.542   7.429 -0.2783  0.2803  0.0926
  206MOL0     O28314   9.095  11.468   7.402 -0.1253  0.6452  0.4536
  206MOL0     C28315   9.098  11.336   7.370  0.4011  0.3601 -0.5397
  206MOL0     C28316   8.980  11.270   7.350 -0.7259 -0.1028  0.1622
  206MOL0     C28317   8.964  11.127   7.328 -0.8117 -0.7659 -0.8208
  206MOL0     C28318   8.824  11.083   7.310 -0.1506  1.0815 -0.4368
  206MOL0     C28319   9.084  11.049   7.321  0.2715  0.1132 -0.2342
  206MOL0     C28320   9.087  10.899   7.294  0.0768 -0.0409  0.0627
  206MOL0     O28321   9.200  10.836   7.329  0.4343  0.6161 -0.4712
  206MOL0     C28322   9.200  10.703   7.371  0.0724 -0.1389  0.0739
  206MOL0     C28323   9.321  10.640   7.368 -0.0050  0.2124  0.0215
  206MOL0     C28324   9.345  10.508   7.400  0.3458  0.4716  0.0528
  206MOL0     C28325   9.235  10.435   7.447  0.7808 -0.3708  0.3646
  206MOL0     O28326   9.259  10.312   7.505  1.1858  0.1025 -0.0343
  206MOL0     C28327   9.268  10.210   7.401 -0.4415 -0.5927 -0.6742
  206MOL0     C28328   9.145  10.177   7.314  0.4805 -0.7573  0.3436
  206MOL0     C28329   9.015  10.125   7.404 -0.1936  0.1198 -0.4170
  206MOL0     C28330   8.898  10.057   7.324  0.0011  0.2407  0.0593
  206MOL0     C28331   8.949   9.941   7.234  0.1746  0.2106 -1.0470
  206MOL0     C28332   8.828   9.860   7.173 -1.1683 -0.7649  0.0994
  206MOL0     C28333   8.884   9.726   7.111  0.6326 -0.7611 -0.0376
  206MOL0     C28334   8.970   9.743   6.988 -0.0494 -0.3638  0.1752
  206MOL0    Cl28335   8.894   9.836   6.861 -0.0877 -0.1697 -0.0681
  206MOL0     C28336   9.106  10.488   7.438 -0.0461  0.1762 -0.2124
  206MOL0     C28337   9.083  10.623   7.397 -0.7892 -0.0137 -1.1443
  206MOL0     O28338   8.988  10.853   7.234  0.7539 -0.4194  0.4108
  206MOL0     C28339   9.208  11.117   7.328  0.0492  0.4366 -0.6368
  206MOL0     C28340   9.209  11.254   7.355 -0.2878 -0.4829 -0.3787
  206MOL0     N28341   9.157  11.891   7.852  0.5921 -0.9169 -0.5732
  206MOL0     N28342   9.119  11.881   7.974  0.2596 -0.0306  0.5253
  206MOL0     C28343   8.771  11.029   8.633  0.3782  0.0982 -0.4138
  206MOL0     C28344   8.805  10.976   8.757 -0.1863  0.6483 -0.4569
  206MOL0     C28345   8.702  10.846   9.168 -0.5837 -0.4562 -0.0557
  206MOL0     C28346   8.793  10.748   9.210 -0.4067 -1.0532  0.5339
  206MOL0     C28347   8.826  10.724   9.341 -0.1131  0.1786 -0.9711
  206MOL0     C28348   8.765  10.797   9.446 -0.1755  0.7077 -0.6274
  206MOL0     O28349   8.775  10.765   9.578  0.6972  0.5541  0.3827
  206MOL0     C28350   8.887  10.692   9.632  0.0862 -0.3309  0.4452
  206MOL0     C28351   8.877  10.681   9.787 -0.6115 -0.1676 -0.2997
  206MOL0     C28352   8.734  10.626   9.822  0.7299 -0.2457 -0.0212
  206MOL0     C28353   8.732  10.544   9.948  0.0737 -0.7097 -1.0042
  206MOL0     C28354   8.604  10.482   9.978  0.3359 -0.1464  0.1540
  206MOL0     C28355   8.507  10.433  10.029  0.4716 -0.0699  0.3133
  206MOL0     C28356   8.670  10.890   9.410 -0.6272 -0.3796 -0.2852
  206MOL0     C28357   8.644  10.922   9.271  0.0856  0.5172 -0.3223
  206MOL0     C28358   8.527  11.016   9.247  0.7790  0.0872  0.0833
  206MOL0     H28359   8.621  10.691   8.764  1.5384 -2.1596 -3.2214
  206MOL0     H28360   8.573  10.775   8.532 -0.4327  1.1283  0.4188
  206MOL0     H28361   8.766  11.183   8.414 -0.0485 -1.0593 -0.3956
  206MOL0     H28362   8.601  11.195   8.465 -0.9539  1.3483 -0.8729
  206MOL0     H28363   8.706  11.141   8.187  3.3969  1.3132  1.7884
  206MOL0     H28364   8.530  11.125   8.237  0.9059 -0.8939  1.1099
  206MOL0     H28365   8.539  11.334   8.149  0.9003  2.2790 -0.1481
  206MOL0     H28366   8.573  11.376   8.324 -0.7919 -0.9691  1.4414
  206MOL0     H28367   8.819  11.382   8.250 -1.0661 -2.5066 -0.0022
  206MOL0     H28368   8.763  11.344   8.086 -1.2868 -0.7004  0.4749
  206MOL0     H28369   8.651  11.587   8.250 -0.3759  0.9772 -0.6037
  206MOL0     H28370   8.625  11.543   8.080 -0.0360 -0.0712  0.9490
  206MOL0     H28371   8.879  11.635   8.209 -1.7569 -0.3696  1.1870
  206MOL0     H28372   8.860  11.594   8.033 -1.9894 -3.4231 -0.3242
  206MOL0     H28373   8.710  11.808   8.174  1.6894  0.9093  0.7926
  206MOL0     H28374   8.720  11.785   7.990  1.8800  1.0454 -0.6057
  206MOL0     H28375   8.865  11.975   8.089  1.1026 -0.3884  1.6221
  206MOL0     H28376   8.951  11.847   8.172 -2.1556 -0.7346  1.8518
  206MOL0     H28377   8.838  11.841   7.805 -0.1863 -1.7838  1.0140
  206MOL0     H28378   9.136  11.921   7.561 -0.7116  2.5759  0.6496
  206MOL0     H28379   8.968  11.857   7.565  0.9457  0.0384 -0.3104
  206MOL0     H28380   9.213  11.709   7.650 -1.0513  0.5163  2.1102
  206MOL0     H28381   9.049  11.638   7.619 -0.5044  0.2417  1.2661
  206MOL0     H28382   9.072  11.712   7.385 -0.6226 -1.1520  1.7623
  206MOL0     H28383   9.243  11.753   7.419 -1.4009  2.5803 -0.8012
  206MOL0     H28384   9.285  11.541   7.346  2.6414  1.1753  2.3550
  206MOL0     H28385   9.264  11.519   7.524  0.6899  3.6543  0.5691
  206MOL0     H28386   8.885  11.319   7.373 -0.0012  1.7661 -0.6086
  206MOL0     H28387   8.821  10.984   7.358 -0.0900  0.6765 -1.2626
  206MOL0     H28388   8.803  11.079   7.203 -1.1913  0.6034 -0.2322
  206MOL0     H28389   8.757  11.152   7.364 -1.5987 -1.6062  1.4462
  206MOL0     H28390   9.400  10.700   7.323 -0.6947  1.4817  0.4502
  206MOL0     H28391   9.445  10.466   7.402 -0.5130 -1.6552  0.8295
  206MOL0     H28392   9.356  10.248   7.348 -0.0953  0.2890  0.4746
  206MOL0     H28393   9.288  10.112   7.445  0.5009 -1.0105 -1.9733
  206MOL0     H28394   9.106  10.249   7.242 -3.2767 -4.5398 -1.8947
  206MOL0     H28395   9.163  10.090   7.250 -3.0693 -1.9287  0.7075
  206MOL0     H28396   8.968  10.203   7.464  1.6813 -0.9882  2.7431
  206MOL0     H28397   9.048  10.046   7.473 -2.1702 -0.3172  0.0894
  206MOL0     H28398   8.841  10.135   7.273  0.0097 -0.2707 -0.7572
  206MOL0     H28399   8.824  10.021   7.395 -1.6677  1.0770 -1.1815
  206MOL0     H28400   9.013   9.968   7.150 -0.9478 -0.1048 -2.0227
  206MOL0     H28401   9.005   9.869   7.295 -2.2463  1.2234  2.7494
  206MOL0     H28402   8.765   9.924   7.111  0.1065  3.4454  2.7147
  206MOL0     H28403   8.764   9.848   7.261 -2.0633  3.6372  0.2610
  206MOL0     H28404   8.794   9.663   7.103 -0.5999  0.5070  2.6760
  206MOL0     H28405   8.933   9.662   7.185 -2.8623 -2.8847  0.7137
  206MOL0     H28406   8.988   9.647   6.938 -1.5386  0.1955 -1.5348
  206MOL0     H28407   9.063   9.800   7.003  0.1143 -0.1451 -1.4668
  206MOL0     H28408   9.017  10.434   7.469 -0.2713 -0.1922 -1.4452
  206MOL0     H28409   8.985  10.670   7.402 -0.5299  0.4228  0.7433
  206MOL0     H28410   9.304  11.068   7.318  1.3080  2.6761 -0.3322
  206MOL0     H28411   9.311  11.291   7.362  1.2078 -4.1541 -0.7670
  206MOL0     H28412   8.793  11.133   8.613  1.2421  0.7694  3.4234
  206MOL0     H28413   8.872  11.041   8.812  2.2101 -0.1519 -2.3009
  206MOL0     H28414   8.842  10.690   9.132 -2.6194  0.7056 -2.3658
  206MOL0     H28415   8.887  10.639   9.369 -0.1796  1.0998  2.4420
  206MOL0     H28416   8.894  10.589   9.594 -0.4296 -1.2131  2.6082
  206MOL0     H28417   8.975  10.747   9.597 -3.6520  4.1838 -3.1734
  206MOL0     H28418   8.890  10.777   9.838  1.4534 -1.9999  2.9898
  206MOL0     H28419   8.965  10.632   9.831  2.3027  2.9618 -2.2004
  206MOL0     H28420   8.667  10.711   9.832 -1.1642 -1.4896 -1.5116
  206MOL0     H28421   8.691  10.561   9.745 -2.9884 -0.0697  1.6943
  206MOL0     H28422   8.749  10.612  10.033 -0.6613 -0.9658 -0.6399
  206MOL0     H28423   8.816  10.474   9.936  4.3405  3.9357 -1.4234
  206MOL0     H28424   8.431  10.391  10.091  0.5780  1.4969  1.5718
  206MOL0     H28425   8.608  10.943   9.481  0.2198 -0.1058  0.2653
  206MOL0     H28426   8.431  10.966   9.261 -1.0309  2.7108 -1.9613
  206MOL0     H28427   8.531  11.114   9.294  0.7555  0.9038 -1.5555
  206MOL0     H28428   8.521  11.040   9.141 -1.7447 -0.1296  0.1077
  207MOL0     O28429   8.417   8.794   5.004  0.1645 -0.6944  0.3575
  207MOL0     C28430   8.302   8.800   5.039  1.2146  0.0927  0.5468
  207MOL0     O28431   8.226   8.910   5.048 -0.2199  0.3756 -0.8149
  207MOL0     C28432   8.264   9.034   5.004 -0.4738  0.3864  0.5561
  207MOL0     C28433   8.245   9.148   5.081  0.5065 -0.8922  1.0689
  207MOL0     C28434   8.304   9.268   5.036 -0.0320  0.5674 -0.0421
  207MOL0     C28435   8.371   9.286   4.916  0.3815  1.0463  0.6061
  207MOL0     O28436   8.446   9.395   4.883 -0.1558  0.6737 -0.2753
  207MOL0     C28437   8.525   9.451   4.996  0.1649  0.9197 -0.4049
  207MOL0     C28438   8.613   9.559   4.948  0.0598  0.8169 -0.9957
  207MOL0     C28439   8.750   9.495   4.901  0.8945 -0.2572  0.0920
  207MOL0     C28440   8.831   9.587   4.812 -0.6189 -0.1963  0.7526
  207MOL0     C28441   8.784   9.593   4.661 -0.3382 -0.7324  0.5490
  207MOL0     C28442   8.829   9.719   4.576  0.5516  0.8514 -1.1027
  207MOL0     C28443   8.811   9.860   4.643 -0.2728 -0.2106  0.4600
  207MOL0     C28444   8.808   9.965   4.538 -0.1098 -0.3957 -0.2606
  207MOL0     N28445   8.940  10.021   4.507  0.1984 -0.2086  0.1759
  207MOL0     C28446   8.985  10.141   4.552  0.0717  0.1015 -0.8580
  207MOL0     C28447   9.106  10.159   4.496  0.3258 -0.4976  0.0081
  207MOL0     C28448   9.185  10.284   4.497  1.0914 -0.5247  0.1738
  207MOL0     C28449   9.288  10.298   4.596 -0.3557  0.6172 -0.0020
  207MOL0     C28450   9.237  10.275   4.751  0.3951 -1.0452 -0.1861
  207MOL0     C28451   9.340  10.341   4.844  0.8479 -0.1458 -0.2053
  207MOL0     O28452   9.462  10.273   4.838 -0.1035  0.0784 -0.1602
  207MOL0     C28453   9.571  10.325   4.900 -0.9864  0.7586 -0.0330
  207MOL0     C28454   9.698  10.285   4.859  0.5297 -0.0852  0.1743
  207MOL0     C28455   9.819  10.337   4.916 -0.7321  0.2270 -0.4930
  207MOL0     C28456   9.942  10.286   4.851  0.5512 -0.6744 -0.3555
  207MOL0     C28457   9.816  10.425   5.023  0.4216 -0.2646  0.2140
  207MOL0     C28458   9.937  10.444   5.095  0.1808  0.6644  0.3571
  207MOL0     O28459   9.928  10.557   5.170  0.4379  0.0588  0.2362
  207MOL0     C28460  10.041  10.621   5.214  0.0415  0.1546 -0.2319
  207MOL0     C28461  10.162  10.621   5.145  1.3875  0.3000 -0.6769
  207MOL0     C28462  10.277  10.693   5.183  0.2307  0.2212  0.3505
  207MOL0     C28463  10.267  10.774   5.295 -0.3194  0.0551  0.2759
  207MOL0     O28464  10.379  10.846   5.334  0.6179 -0.1122 -0.4892
  207MOL0     C28465  10.469  10.887   5.236 -0.3867 -1.0268  0.3126
  207MOL0     C28466  10.528  11.026   5.274 -0.3208  1.5108  0.9133
  207MOL0     C28467  10.643  11.057   5.186 -0.6616 -0.5144 -0.3899
  207MOL0     C28468  10.610  11.077   5.038 -0.0340 -0.2844  0.0854
  207MOL0     C28469  10.738  11.130   4.964  0.9772 -0.6815  0.8157
  207MOL0     C28470  10.713  11.168   4.815  0.4856  0.4353 -0.1336
  207MOL0     C28471  10.616  11.291   4.783 -0.8210  0.3445 -0.7945
  207MOL0     C28472  10.553  11.266   4.645 -0.1490  0.0674  0.2513
  207MOL0    Cl28473  10.676  11.229   4.523  0.2289  0.0588  0.0736
  207MOL0     C28474  10.143  10.773   5.369  0.1080  0.3387 -0.6097
  207MOL0     C28475  10.036  10.703   5.322  1.3464  0.0612 -0.2188
  207MOL0     O28476  10.030  10.363   5.101 -0.0971  0.1343 -0.3142
  207MOL0     C28477   9.685  10.473   5.061  0.3828  0.1054 -0.0317
  207MOL0     C28478   9.565  10.429   4.997  0.5193  0.2511 -1.3185
  207MOL0     N28479   9.139  10.050   4.425 -0.4184  0.3990  0.3770
  207MOL0     N28480   9.044   9.972   4.430  0.7781  0.2629  0.3281
  207MOL0     C28481   8.369   9.172   4.835  0.3508 -0.1835  0.4743
  207MOL0     C28482   8.322   9.048   4.878  0.0112  0.3356 -0.4211
  207MOL0     C28483   8.237   8.665   5.065  0.7087 -0.2910  0.5204
  207MOL0     C28484   8.106   8.670   5.030 -1.3209  0.9829 -0.5147
  207MOL0     C28485   8.029   8.558   5.047 -0.3884  1.2640  0.8170
  207MOL0     C28486   8.087   8.432   5.086  0.8964 -0.4890 -0.2657
  207MOL0     O28487   8.000   8.327   5.094  0.1418  0.3364 -0.3925
  207MOL0     C28488   8.031   8.189   5.125 -0.5289  0.4828 -0.2217
  207MOL0     C28489   8.021   8.171   5.274 -0.0610 -1.1355  0.1825
  207MOL0     C28490   8.026   8.026   5.334 -0.0425 -1.0868  0.2553
  207MOL0     C28491   7.960   7.915   5.247 -0.4694  0.5215 -1.3889
  207MOL0     C28492   8.025   7.856   5.125 -0.3287 -0.9106 -0.7989
  207MOL0     C28493   8.079   7.825   5.020  0.0150 -0.1401 -0.7556
  207MOL0     C28494   8.218   8.428   5.123  0.6289 -0.8930 -1.8867
  207MOL0     C28495   8.296   8.543   5.112  0.7223 -0.6361 -0.1381
  207MOL0     C28496   8.444   8.536   5.147 -0.3931 -0.1680 -0.2051
  207MOL0     H28497   8.187   9.142   5.172  0.4176  0.2144  1.0961
  207MOL0     H28498   8.284   9.364   5.083 -0.5007  1.8112 -2.6051
  207MOL0     H28499   8.588   9.373   5.040 -3.1710 -2.0786 -0.4426
  207MOL0     H28500   8.468   9.491   5.080 -0.2703  2.9122 -1.5934
  207MOL0     H28501   8.569   9.619   4.867 -2.0762  1.7467  0.7421
  207MOL0     H28502   8.637   9.620   5.035  2.7072 -3.2588  1.4852
  207MOL0     H28503   8.799   9.465   4.993  0.8723  0.2305  0.2689
  207MOL0     H28504   8.752   9.408   4.835 -0.2395 -0.7037  0.6184
  207MOL0     H28505   8.829   9.684   4.863  0.4488  0.4111 -0.3163
  207MOL0     H28506   8.935   9.557   4.804  0.1210  2.3252 -0.1391
  207MOL0     H28507   8.675   9.593   4.658 -0.3838  0.5897 -3.1999
  207MOL0     H28508   8.813   9.500   4.611 -2.7954 -1.9577  1.2526
  207MOL0     H28509   8.935   9.701   4.557  0.7946 -1.9372  1.8789
  207MOL0     H28510   8.765   9.708   4.488 -3.3421  3.8329  0.9698
  207MOL0     H28511   8.895   9.875   4.711  0.1787  1.7000 -0.4597
  207MOL0     H28512   8.720   9.863   4.703  1.0677  3.1999  2.5962
  207MOL0     H28513   8.761   9.929   4.446  2.7017 -0.2463 -1.8995
  207MOL0     H28514   8.740  10.040   4.580  0.1577 -0.0816 -0.3797
  207MOL0     H28515   8.923  10.200   4.619 -0.3569 -2.9618  1.6680
  207MOL0     H28516   9.119  10.371   4.508  1.0017 -0.6462  0.6365
  207MOL0     H28517   9.243  10.295   4.405  0.9736  3.2059  0.3940
  207MOL0     H28518   9.357  10.215   4.579 -0.0714  0.4662  1.7137
  207MOL0     H28519   9.339  10.392   4.573  1.3544 -0.6297 -1.6234
  207MOL0     H28520   9.138  10.323   4.748  0.0357 -1.8104 -1.0560
  207MOL0     H28521   9.221  10.172   4.784  0.3990 -0.7843  0.6675
  207MOL0     H28522   9.359  10.443   4.810 -0.3785  0.4950  0.9509
  207MOL0     H28523   9.313  10.342   4.950 -0.2541 -1.3052 -0.4469
  207MOL0     H28524   9.698  10.224   4.769  0.3328 -1.1483  0.8724
  207MOL0     H28525   9.962  10.191   4.902  1.5426 -0.0986  0.3625
  207MOL0     H28526  10.028  10.353   4.858 -1.1242  1.4483  1.3635
  207MOL0     H28527   9.924  10.269   4.745 -0.4063 -3.5035  0.1811
  207MOL0     H28528  10.186  10.548   5.068 -0.1263  1.3795 -2.2534
  207MOL0     H28529  10.358  10.696   5.112  0.3985  2.1938  0.5841
  207MOL0     H28530  10.544  10.808   5.239 -0.3898 -1.0400  0.0269
  207MOL0     H28531  10.425  10.902   5.136  2.8083 -0.7885 -1.1663
  207MOL0     H28532  10.448  11.101   5.271 -0.0770  1.8916  2.8516
  207MOL0     H28533  10.570  11.021   5.375  0.8506 -2.1966  0.4082
  207MOL0     H28534  10.714  10.980   5.217 -0.7752  0.3569  2.3841
  207MOL0     H28535  10.679  11.153   5.224  0.9102 -0.0963 -2.7859
  207MOL0     H28536  10.536  11.157   5.035 -0.5929 -0.7436  1.1611
  207MOL0     H28537  10.569  10.986   4.991 -0.7126 -0.3418  0.7628
  207MOL0     H28538  10.768  11.225   5.010 -1.5258 -0.3352  1.9369
  207MOL0     H28539  10.822  11.061   4.973  0.3354 -2.2585 -3.0954
  207MOL0     H28540  10.685  11.074   4.765  0.3355  1.2987 -1.7602
  207MOL0     H28541  10.809  11.195   4.770  0.2824 -0.1688 -0.9645
  207MOL0     H28542  10.675  11.384   4.787 -2.1728  1.1927  0.9256
  207MOL0     H28543  10.537  11.302   4.858  1.5156  0.4839  1.8224
  207MOL0     H28544  10.497  11.351   4.606  0.9073  0.4205 -0.5203
  207MOL0     H28545  10.481  11.186   4.668 -0.3956  0.6461  1.5968
  207MOL0     H28546  10.135  10.836   5.457  2.8236  2.2664 -1.6076
  207MOL0     H28547   9.939  10.729   5.363  2.4691  2.2241  1.2716
  207MOL0     H28548   9.672  10.539   5.146 -0.3119 -0.6642  0.4750
  207MOL0     H28549   9.482  10.480   5.045 -0.1689 -0.4482 -1.7440
  207MOL0     H28550   8.425   9.159   4.743  1.8638 -0.5006  1.4037
  207MOL0     H28551   8.336   8.966   4.809 -3.3461  0.7517 -1.7608
  207MOL0     H28552   8.058   8.765   5.009 -0.0208  1.4771 -1.3600
  207MOL0     H28553   7.924   8.565   5.021 -0.7225 -1.0208  1.3220
  207MOL0     H28554   7.953   8.126   5.082 -1.2487  0.6275  0.8432
  207MOL0     H28555   8.125   8.164   5.075 -0.2955 -3.0922  1.6738
  207MOL0     H28556   7.924   8.212   5.304  1.3366  2.2732  0.4505
  207MOL0     H28557   8.106   8.228   5.312 -0.8562  0.5221 -0.4359
  207MOL0     H28558   8.129   7.996   5.356 -1.0811 -4.7436  0.8999
  207MOL0     H28559   7.973   8.031   5.430  0.6668 -0.2427  0.6265
  207MOL0     H28560   7.857   7.944   5.223 -0.2458  2.9776  0.2052
  207MOL0     H28561   7.951   7.826   5.310  0.8828  1.1703 -0.2207
  207MOL0     H28562   8.129   7.804   4.928 -0.7639 -1.5361 -0.8807
  207MOL0     H28563   8.264   8.334   5.152 -0.9087 -0.6650  1.8723
  207MOL0     H28564   8.474   8.471   5.229 -2.3709  0.9715  1.5100
  207MOL0     H28565   8.504   8.514   5.058  0.8600 -1.5027  0.9142
  207MOL0     H28566   8.470   8.630   5.197 -0.9773 -0.1595  0.0822
  208MOL0     O28567   2.344   7.003   9.507 -0.8431 -0.0126  0.4191
  208MOL0     C28568   2.296   7.017   9.624 -0.3507 -0.1158  0.7017
  208MOL0     O28569   2.184   7.076   9.657  0.1555 -0.3965 -0.2085
  208MOL0     C28570   2.107   7.142   9.571 -0.9847 -0.3616 -0.2836
  208MOL0     C28571   2.081   7.089   9.446 -0.5164  1.1906  0.3776
  208MOL0     C28572   1.979   7.148   9.364  0.6263  0.3642  0.3166
  208MOL0     C28573   1.901   7.255   9.408  0.4904 -0.2078 -0.7818
  208MOL0     O28574   1.794   7.290   9.323  0.5029  0.1852 -0.5916
  208MOL0     C28575   1.687   7.350   9.382  0.7428  0.7844  0.3495
  208MOL0     C28576   1.589   7.240   9.425 -0.7186 -0.2921  0.1289
  208MOL0     C28577   1.598   7.243   9.577 -1.3540  0.4222  0.6604
  208MOL0     C28578   1.481   7.159   9.621 -0.0154  1.0911  0.6052
  208MOL0     C28579   1.511   7.007   9.620  0.3075 -0.6911  0.0642
  208MOL0     C28580   1.434   6.925   9.512  0.0893 -0.4963 -0.3730
  208MOL0     C28581   1.501   6.801   9.470 -0.1562 -0.9215  0.5894
  208MOL0     C28582   1.493   6.703   9.585 -0.3115  0.2807  0.1804
  208MOL0     N28583   1.364   6.652   9.636  0.3430  0.2702 -0.9082
  208MOL0     C28584   1.323   6.522   9.611  0.8452  0.1359  0.0078
  208MOL0     C28585   1.244   6.496   9.720 -0.3804 -1.0830 -0.7263
  208MOL0     C28586   1.176   6.373   9.767  1.0696 -0.5139 -0.5793
  208MOL0     C28587   1.084   6.306   9.679 -0.5086  0.6166  0.2145
  208MOL0     C28588   0.946   6.366   9.658  0.0512 -0.7327 -0.1952
  208MOL0     C28589   0.889   6.444   9.777 -0.3651 -0.8383  0.4110
  208MOL0     O28590   0.756   6.489   9.749  0.5153 -0.2304 -0.0141
  208MOL0     C28591   0.666   6.504   9.847  0.1850 -0.5788  0.2375
  208MOL0     C28592   0.677   6.504   9.982 -0.7157  0.0448  1.0235
  208MOL0     C28593   0.562   6.537  10.062  0.1477  0.5344  0.3312
  208MOL0     C28594   0.582   6.514  10.214  1.0640  0.6040  0.4283
  208MOL0     C28595   0.443   6.586  10.012  0.1531  0.3954 -0.2028
  208MOL0     C28596   0.329   6.607  10.097  0.2522 -0.1458  1.1174
  208MOL0     O28597   0.207   6.579  10.042  0.2656 -0.4009  0.1169
  208MOL0     C28598   0.100   6.574  10.135  0.0075 -1.0671  0.3057
  208MOL0     C28599  -0.031   6.607  10.077 -0.2617  0.0655  0.2588
  208MOL0     C28600  -0.141   6.621  10.158  0.7935 -0.3036 -0.5920
  208MOL0     C28601  -0.134   6.584  10.295  0.2663 -0.6613 -0.2162
  208MOL0     O28602  -0.245   6.581  10.377  0.0296 -0.7571  0.6541
  208MOL0     C28603  -0.334   6.700  10.374  0.1518 -1.0530  1.2371
  208MOL0     C28604  -0.340   6.756  10.511  0.4689 -0.4237 -0.6238
  208MOL0     C28605  -0.385   6.907  10.515  0.2686  0.2458 -0.2772
  208MOL0     C28606  -0.290   7.007  10.578 -0.3598 -0.1025 -0.7529
  208MOL0     C28607  -0.340   7.153  10.581 -0.0799  0.3147 -1.1171
  208MOL0     C28608  -0.316   7.227  10.457  0.7502 -0.9027 -0.1080
  208MOL0     C28609  -0.372   7.370  10.438 -0.2869  0.2953  0.4391
  208MOL0     C28610  -0.516   7.363  10.445  0.6643 -0.0643  0.3435
  208MOL0    Cl28611  -0.594   7.509  10.397 -0.0274 -0.0080 -0.1969
  208MOL0     C28612  -0.018   6.552  10.350  0.0836  0.4880  0.2042
  208MOL0     C28613   0.100   6.537  10.267 -0.2030 -0.6101 -0.2194
  208MOL0     O28614   0.351   6.680  10.192 -0.1866  0.2054  0.7237
  208MOL0     C28615   0.431   6.602   9.872  1.7063  0.1543  0.6971
  208MOL0     C28616   0.536   6.551   9.791 -0.5139 -0.3107 -0.1026
  208MOL0     N28617   1.229   6.624   9.787  1.1260  0.7557  0.0213
  208MOL0     N28618   1.289   6.718   9.733  0.3048  1.4599  0.7421
  208MOL0     C28619   1.939   7.316   9.527 -0.1466 -0.2612 -0.3086
  208MOL0     C28620   2.036   7.259   9.611 -0.4802  0.4749  0.1434
  208MOL0     C28621   2.357   6.936   9.729  0.7217  0.5601  0.0903
  208MOL0     C28622   2.453   6.831   9.695 -0.0825 -0.5108  0.8676
  208MOL0     C28623   2.542   6.780   9.786  0.7067 -0.2172 -0.4091
  208MOL0     C28624   2.523   6.803   9.926  0.2131 -0.5407  1.1231
  208MOL0     O28625   2.594   6.744  10.025  0.6032  0.1251 -0.0625
  208MOL0     C28626   2.650   6.616   9.992  0.0002  0.5774 -0.3973
  208MOL0     C28627   2.698   6.537  10.110 -0.2446 -0.2337 -0.3567
  208MOL0     C28628   2.763   6.620  10.219  0.8994  0.4531 -0.0981
  208MOL0     C28629   2.913   6.648  10.197 -0.3035 -0.3628 -0.3904
  208MOL0     C28630   2.944   6.729  10.082  0.1319  0.1488  0.4220
  208MOL0     C28631   2.977   6.800   9.991  0.8657 -0.7625  0.1694
  208MOL0     C28632   2.426   6.886   9.971  1.2892 -0.0263  0.1997
  208MOL0     C28633   2.351   6.963   9.876  0.4333  0.0465  0.0929
  208MOL0     C28634   2.263   7.066   9.934  0.0543  0.2743  0.6880
  208MOL0     H28635   2.123   6.994   9.416 -2.6906  0.7855 -1.7568
  208MOL0     H28636   1.948   7.095   9.275 -1.2573  3.4550 -1.0463
  208MOL0     H28637   1.628   7.402   9.307  3.4535  0.1081 -2.4295
  208MOL0     H28638   1.703   7.424   9.462  1.0890  0.6039  0.4552
  208MOL0     H28639   1.488   7.267   9.395 -0.9775  3.5633  3.5718
  208MOL0     H28640   1.629   7.146   9.385  2.2773 -0.7152  3.5841
  208MOL0     H28641   1.690   7.198   9.615 -1.8011  0.3022  1.6467
  208MOL0     H28642   1.596   7.341   9.627  1.7363  0.4002  1.0368
  208MOL0     H28643   1.450   7.184   9.723  0.5809  1.4545  0.7022
  208MOL0     H28644   1.394   7.164   9.555 -1.5926  0.1018  2.5271
  208MOL0     H28645   1.497   6.966   9.720  2.9430  0.1115  0.8268
  208MOL0     H28646   1.614   6.994   9.583  0.4056  1.4838 -0.5840
  208MOL0     H28647   1.331   6.915   9.545  0.0114  1.1743 -0.0047
  208MOL0     H28648   1.431   6.986   9.421 -3.1248  1.0464  0.6221
  208MOL0     H28649   1.608   6.822   9.459 -0.0122 -0.9637  1.7864
  208MOL0     H28650   1.457   6.758   9.379 -0.8709 -1.2403  1.0755
  208MOL0     H28651   1.543   6.617   9.539  2.2350  1.8692 -0.2006
  208MOL0     H28652   1.553   6.740   9.669 -1.8011 -1.8371  2.3441
  208MOL0     H28653   1.354   6.456   9.530  1.1438 -0.5643  0.6782
  208MOL0     H28654   1.129   6.404   9.861 -1.5372  2.0463 -2.5217
  208MOL0     H28655   1.261   6.309   9.791  2.0066  0.9345  0.1388
  208MOL0     H28656   1.135   6.291   9.584 -3.9029  0.3945 -1.7034
  208MOL0     H28657   1.083   6.209   9.730  0.7393 -0.3622 -1.5434
  208MOL0     H28658   0.960   6.430   9.570  0.8780 -1.8391 -0.8915
  208MOL0     H28659   0.873   6.294   9.621 -0.6341 -0.3236  0.3328
  208MOL0     H28660   0.884   6.383   9.867 -0.2658 -1.9006 -0.2935
  208MOL0     H28661   0.958   6.529   9.778  1.6093 -2.3390 -0.9708
  208MOL0     H28662   0.762   6.468  10.039 -1.0786  0.8057  2.0601
  208MOL0     H28663   0.660   6.439  10.224  1.2585  0.6470 -0.6668
  208MOL0     H28664   0.491   6.477  10.263  1.7235 -1.2059  0.3692
  208MOL0     H28665   0.611   6.606  10.264  0.8962 -0.1479  1.9781
  208MOL0     H28666  -0.046   6.614   9.970 -1.8470  1.3592  0.5244
  208MOL0     H28667  -0.238   6.655  10.124  0.7584 -0.0933 -0.2841
  208MOL0     H28668  -0.291   6.779  10.313 -1.2262 -0.5857  0.8294
  208MOL0     H28669  -0.438   6.679  10.348 -0.3725  2.2244  0.2111
  208MOL0     H28670  -0.402   6.699  10.580 -0.6532  0.3106 -1.0011
  208MOL0     H28671  -0.241   6.750  10.557 -0.6205 -0.2234  1.8801
  208MOL0     H28672  -0.483   6.902  10.564  0.5496 -1.0923  0.1855
  208MOL0     H28673  -0.400   6.938  10.411  3.4527  1.3432 -0.5326
  208MOL0     H28674  -0.189   7.001  10.537 -0.5537 -1.5152 -1.0858
  208MOL0     H28675  -0.286   6.962  10.678 -1.8452 -1.0517 -1.0820
  208MOL0     H28676  -0.447   7.151  10.603  0.1918  0.2270  0.2705
  208MOL0     H28677  -0.283   7.191  10.665  2.4190 -1.2386 -1.9892
  208MOL0     H28678  -0.340   7.165  10.370 -2.3888  0.5677 -0.4291
  208MOL0     H28679  -0.208   7.243  10.456  0.6011  0.5247  1.4877
  208MOL0     H28680  -0.336   7.408  10.341  0.2159 -1.2000  0.0045
  208MOL0     H28681  -0.333   7.430  10.521  1.3108 -1.7671  1.2858
  208MOL0     H28682  -0.557   7.339  10.543 -1.8110  3.2891  0.3198
  208MOL0     H28683  -0.565   7.289  10.381 -1.4820  1.2260  0.3932
  208MOL0     H28684  -0.021   6.541  10.457 -1.5342  1.0268  0.2376
  208MOL0     H28685   0.191   6.515  10.322  0.7082  0.4938 -1.2547
  208MOL0     H28686   0.335   6.632   9.829  2.2822 -1.6912 -2.0938
  208MOL0     H28687   0.531   6.556   9.682  0.2174  4.3331 -0.1414
  208MOL0     H28688   1.894   7.407   9.566  1.3467  1.1304 -1.6672
  208MOL0     H28689   2.056   7.312   9.704 -2.6695 -2.3131  2.4169
  208MOL0     H28690   2.467   6.799   9.592 -0.1452  1.5343  0.1809
  208MOL0     H28691   2.637   6.732   9.764  2.5808  2.0948  1.9922
  208MOL0     H28692   2.577   6.541   9.959  0.7696  0.1993 -1.2843
  208MOL0     H28693   2.732   6.623   9.920 -2.2554 -1.5417 -3.4385
  208MOL0     H28694   2.757   6.449  10.082  0.6814  0.4768 -0.6953
  208MOL0     H28695   2.610   6.495  10.159  0.6916 -2.4213 -0.4279
  208MOL0     H28696   2.705   6.712  10.233 -0.0353  0.2066 -1.9717
  208MOL0     H28697   2.743   6.559  10.308 -0.8057 -0.3123 -0.9576
  208MOL0     H28698   2.978   6.560  10.197  1.8569  1.1410 -1.4117
  208MOL0     H28699   2.937   6.712  10.282 -3.4803  0.4087  0.0597
  208MOL0     H28700   3.007   6.872   9.917 -4.3045  0.9603 -0.6783
  208MOL0     H28701   2.413   6.894  10.079  2.7549 -2.2486  0.6183
  208MOL0     H28702   2.245   7.055  10.042 -1.7845  1.2820  0.5296
  208MOL0     H28703   2.310   7.160   9.903  0.1630 -0.4710 -1.5807
  208MOL0     H28704   2.160   7.072   9.898 -0.4685 -1.6645  1.7397
  209MOL0     O28705   4.443  10.200   0.426  0.0511  0.1874 -0.0967
  209MOL0     C28706   4.473  10.309   0.459 -0.9106 -0.1265 -0.0989
  209MOL0     O28707   4.499  10.350   0.589  0.2777  0.1683 -0.5877
  209MOL0     C28708   4.519  10.249   0.683  0.4730 -0.1184 -0.3582
  209MOL0     C28709   4.632  10.249   0.755 -0.5003  0.0569 -0.6794
  209MOL0     C28710   4.650  10.160   0.871  0.1712 -0.2647 -0.5614
  209MOL0     C28711   4.554  10.067   0.900  0.3547 -0.9913 -0.6612
  209MOL0     O28712   4.575   9.966   0.994  0.2937  0.0483  0.2207
  209MOL0     C28713   4.487   9.976   1.105 -0.5354  0.6854  0.0839
  209MOL0     C28714   4.488  10.112   1.172  0.1626  0.1218 -0.3625
  209MOL0     C28715   4.609  10.110   1.263 -0.2149  0.3458 -0.2630
  209MOL0     C28716   4.638  10.250   1.326 -0.1736 -0.2761 -0.1074
  209MOL0     C28717   4.741  10.236   1.439 -0.4789  0.1110  0.3960
  209MOL0     C28718   4.797  10.380   1.477  0.5361 -0.9230  0.7725
  209MOL0     C28719   4.887  10.350   1.595 -0.8655 -0.4807 -0.5054
  209MOL0     C28720   5.013  10.268   1.569 -0.4324  0.4770 -0.0747
  209MOL0     N28721   5.101  10.311   1.462  0.3954 -0.1298 -0.1840
  209MOL0     C28722   5.081  10.283   1.335 -0.5118 -0.6796  0.0631
  209MOL0     C28723   5.197  10.333   1.282 -0.8348  0.4829  0.8012
  209MOL0     C28724   5.243  10.338   1.141 -0.4840  0.1831  0.7141
  209MOL0     C28725   5.132  10.418   1.058  0.0649 -0.3522 -0.7444
  209MOL0     C28726   5.128  10.572   1.075  0.1994 -0.1844 -0.4344
  209MOL0     C28727   5.245  10.653   1.031 -0.1305  0.0755 -0.2768
  209MOL0     O28728   5.199  10.791   1.029  0.0134  0.6532 -0.5590
  209MOL0     C28729   5.195  10.857   1.149  0.2539 -0.0113  0.0527
  209MOL0     C28730   5.241  10.813   1.265 -0.5061  0.8077 -0.2370
  209MOL0     C28731   5.218  10.887   1.380 -0.3531 -0.1018  0.1354
  209MOL0     C28732   5.284  10.839   1.504 -0.7618 -0.9183  0.2884
  209MOL0     C28733   5.126  11.002   1.371 -0.0336  0.5875 -0.1980
  209MOL0     C28734   5.079  11.081   1.494 -0.4160 -0.0301 -0.0322
  209MOL0     O28735   4.993  11.179   1.470 -0.6875  0.6050  0.9055
  209MOL0     C28736   4.942  11.268   1.558  0.0801  0.2648 -0.0860
  209MOL0     C28737   5.004  11.308   1.673  0.0250  0.1696  1.0928
  209MOL0     C28738   4.953  11.415   1.752  0.4812 -0.4809  0.2519
  209MOL0     C28739   4.831  11.477   1.725  0.5009 -0.7535 -0.2927
  209MOL0     O28740   4.771  11.565   1.813  0.9977 -1.0036  0.2714
  209MOL0     C28741   4.629  11.589   1.799 -0.1768 -0.0808  0.8966
  209MOL0     C28742   4.567  11.659   1.916 -0.5242  0.1817 -0.9050
  209MOL0     C28743   4.612  11.804   1.925  0.6713 -0.0029 -0.3402
  209MOL0     C28744   4.556  11.890   2.037  0.8060  0.4412  0.1871
  209MOL0     C28745   4.560  12.053   2.000 -0.5046  0.8909  1.3411
  209MOL0     C28746   4.703  12.121   1.992 -0.4137 -0.4221  0.1834
  209MOL0     C28747   4.700  12.264   1.970 -0.8609 -0.1315  0.4313
  209MOL0     C28748   4.846  12.311   1.956 -1.3663 -0.1544 -0.1813
  209MOL0    Cl28749   4.947  12.229   1.833  0.2395  0.4981 -0.5713
  209MOL0     C28750   4.768  11.441   1.608 -1.0902 -0.0263  1.6475
  209MOL0     C28751   4.827  11.338   1.520  0.1928 -1.8067 -0.9717
  209MOL0     O28752   5.120  11.048   1.607 -0.2328 -0.7053 -0.0537
  209MOL0     C28753   5.087  11.054   1.246  0.0137 -0.1457  0.1715
  209MOL0     C28754   5.131  10.985   1.135  1.0473 -0.8969  0.3030
  209MOL0     N28755   5.276  10.388   1.379 -0.0328 -0.7620  0.6817
  209MOL0     N28756   5.228  10.365   1.489  0.8543  0.0040  0.5080
  209MOL0     C28757   4.451  10.061   0.819  0.5978 -0.1792  0.8291
  209MOL0     C28758   4.433  10.143   0.707 -0.0146 -0.2769  0.1310
  209MOL0     C28759   4.492  10.416   0.368  0.6770 -0.3040 -0.0179
  209MOL0     C28760   4.592  10.515   0.392 -0.4188 -0.1462  0.3129
  209MOL0     C28761   4.624  10.607   0.302 -0.4561  1.0138  0.1268
  209MOL0     C28762   4.569  10.597   0.172  0.2330  0.2100  0.8704
  209MOL0     O28763   4.615  10.680   0.068  0.5494  0.2501  0.4333
  209MOL0     C28764   4.757  10.713   0.061 -0.3139 -0.2957  0.5773
  209MOL0     C28765   4.860  10.604   0.056  0.1892  0.1323  0.4029
  209MOL0     C28766   4.895  10.552  -0.087 -0.7089 -0.2913 -0.3024
  209MOL0     C28767   4.768  10.502  -0.161  0.2683 -0.1664 -0.0012
  209MOL0     C28768   4.790  10.427  -0.288 -0.1546  0.4811  0.3015
  209MOL0     C28769   4.816  10.376  -0.396  0.3609  0.4084  0.0597
  209MOL0     C28770   4.470  10.507   0.145  0.1579  1.4464  0.9037
  209MOL0     C28771   4.430  10.406   0.240  1.0583  0.0279  0.2183
  209MOL0     C28772   4.316  10.308   0.204 -0.5797  0.2803  0.2260
  209MOL0     H28773   4.714  10.319   0.741 -0.6822  0.1508 -1.3082
  209MOL0     H28774   4.741  10.167   0.929  0.3962  0.9847 -1.0366
  209MOL0     H28775   4.509   9.897   1.177  2.4352  0.9525 -0.4137
  209MOL0     H28776   4.387   9.957   1.065 -0.5792  1.2704 -0.0965
  209MOL0     H28777   4.500  10.197   1.104 -1.2819  0.4857 -0.1797
  209MOL0     H28778   4.394  10.133   1.222 -1.7441  4.2486 -4.8854
  209MOL0     H28779   4.598  10.031   1.339 -2.1296  1.3258  0.5325
  209MOL0     H28780   4.698  10.088   1.202 -0.5807 -0.2857 -0.5793
  209MOL0     H28781   4.676  10.318   1.250  0.4991  0.0454  0.5086
  209MOL0     H28782   4.542  10.278   1.370  0.0160 -0.8416  0.6926
  209MOL0     H28783   4.824  10.181   1.392  2.3972  2.4053  2.4052
  209MOL0     H28784   4.705  10.178   1.524  1.2999 -1.3794  0.1980
  209MOL0     H28785   4.853  10.422   1.393  2.4293 -1.1978  1.8317
  209MOL0     H28786   4.715  10.449   1.496 -0.9593 -1.7842 -1.9738
  209MOL0     H28787   4.840  10.302   1.680 -0.1748  0.3940  0.3977
  209MOL0     H28788   4.923  10.446   1.635 -1.6453 -0.7974  0.9882
  209MOL0     H28789   5.072  10.261   1.661  1.4111 -2.5230 -1.3509
  209MOL0     H28790   4.981  10.167   1.541 -0.5626  0.5524 -0.1980
  209MOL0     H28791   5.001  10.236   1.278 -0.8071  0.9418 -0.9548
  209MOL0     H28792   5.262  10.244   1.088  1.1293  1.1857 -0.5614
  209MOL0     H28793   5.335  10.397   1.135 -0.5388  0.1747 -0.5533
  209MOL0     H28794   5.138  10.396   0.951 -2.3858  0.7683 -1.1849
  209MOL0     H28795   5.030  10.388   1.084  0.3235  1.6933  3.4299
  209MOL0     H28796   5.043  10.611   1.019  0.5855  1.3754  0.0162
  209MOL0     H28797   5.105  10.593   1.180 -3.0769 -0.0593 -1.0600
  209MOL0     H28798   5.327  10.635   1.101 -1.0076 -0.8964  0.5276
  209MOL0     H28799   5.278  10.628   0.930  0.3359 -1.8481  0.3096
  209MOL0     H28800   5.284  10.714   1.268 -0.8117  0.3996 -4.1918
  209MOL0     H28801   5.344  10.751   1.480  0.1753  0.4895 -3.0902
  209MOL0     H28802   5.217  10.826   1.590  1.2483 -0.0526  2.0918
  209MOL0     H28803   5.360  10.913   1.531 -0.5249 -0.8824 -0.4514
  209MOL0     H28804   5.096  11.259   1.703  1.1911  2.2685  1.1965
  209MOL0     H28805   5.002  11.446   1.844  2.0352  0.3094 -0.7882
  209MOL0     H28806   4.597  11.645   1.711  0.1377 -0.3033  0.6365
  209MOL0     H28807   4.575  11.494   1.796 -1.2613  0.5099 -2.1299
  209MOL0     H28808   4.458  11.645   1.923 -0.5714  1.1541  1.0172
  209MOL0     H28809   4.594  11.619   2.014 -2.3256  3.0719  0.9494
  209MOL0     H28810   4.562  11.842   1.835  2.4412  0.3407 -1.2090
  209MOL0     H28811   4.721  11.813   1.925  0.6682  0.0288 -0.1826
  209MOL0     H28812   4.616  11.873   2.126 -1.0040  2.2059  1.8589
  209MOL0     H28813   4.452  11.863   2.056  0.3368  1.7464 -0.3648
  209MOL0     H28814   4.507  12.077   1.907  0.9984 -2.0236 -0.3865
  209MOL0     H28815   4.504  12.105   2.078 -0.1394  2.4684  0.6017
  209MOL0     H28816   4.753  12.074   1.907  2.3951 -1.8961  2.4842
  209MOL0     H28817   4.759  12.099   2.084 -1.5442 -0.8848  0.7968
  209MOL0     H28818   4.649  12.316   2.051 -1.7433 -1.9130  1.0541
  209MOL0     H28819   4.647  12.279   1.875 -1.8024  0.8143  1.0819
  209MOL0     H28820   4.912  12.297   2.042  0.4500  1.3720 -1.2258
  209MOL0     H28821   4.849  12.419   1.942 -0.5758  0.4123  3.4702
  209MOL0     H28822   4.686  11.501   1.571  0.4816  2.6178  2.1802
  209MOL0     H28823   4.764  11.310   1.436 -3.3690  1.7514  0.1956
  209MOL0     H28824   5.024  11.141   1.227  3.2582  2.1644 -0.9510
  209MOL0     H28825   5.100  11.025   1.039  2.2013 -3.6085 -1.3171
  209MOL0     H28826   4.381   9.980   0.838 -1.5832  1.2951 -0.3922
  209MOL0     H28827   4.352  10.127   0.636  0.3302  0.3191 -0.4008
  209MOL0     H28828   4.644  10.511   0.487  0.2670 -2.5050 -0.0967
  209MOL0     H28829   4.706  10.676   0.323 -0.6896  1.8090 -1.4216
  209MOL0     H28830   4.782  10.759  -0.035  1.0574 -3.5930 -0.8291
  209MOL0     H28831   4.784  10.782   0.140 -2.0366  1.4253 -0.2536
  209MOL0     H28832   4.833  10.520   0.121  1.8787  0.4013  1.5168
  209MOL0     H28833   4.948  10.651   0.100  1.1099 -0.2508 -0.9500
  209MOL0     H28834   4.940  10.626  -0.152  1.1112  0.0444  1.2404
  209MOL0     H28835   4.976  10.478  -0.091 -2.2757 -2.0376 -1.5166
  209MOL0     H28836   4.710  10.585  -0.203  0.4061 -0.9559 -1.8317
  209MOL0     H28837   4.706  10.450  -0.087  2.1229 -1.3013  0.8290
  209MOL0     H28838   4.857  10.341  -0.488  0.5927  0.6232  0.0803
  209MOL0     H28839   4.419  10.502   0.049  0.3014  0.8496  0.8491
  209MOL0     H28840   4.358  10.209   0.190 -1.9954 -0.1381 -1.3817
  209MOL0     H28841   4.241  10.304   0.285 -0.5904  2.5332  0.4171
  209MOL0     H28842   4.269  10.336   0.110  1.6062  0.9710 -0.7207
  210MOL0     O28843   3.528  10.115   5.364  0.4379  0.3521  0.3291
  210MOL0     C28844   3.485  10.199   5.445 -0.0146  0.1392 -0.6985
  210MOL0     O28845   3.548  10.307   5.492  0.0155  0.1395  1.1031
  210MOL0     C28846   3.662  10.350   5.419 -0.6002  0.4486  0.3858
  210MOL0     C28847   3.787  10.306   5.476  0.6416 -0.1525 -0.6411
  210MOL0     C28848   3.904  10.354   5.415  0.1677 -0.6566  0.4634
  210MOL0     C28849   3.895  10.442   5.305  0.3833 -0.5034  0.1560
  210MOL0     O28850   4.016  10.485   5.255  0.2702  0.2878 -0.4770
  210MOL0     C28851   4.039  10.598   5.172  0.4976  0.1231 -0.2417
  210MOL0     C28852   4.184  10.585   5.103  0.5500 -0.5742 -0.7484
  210MOL0     C28853   4.300  10.601   5.207  1.0306 -0.6631  0.3902
  210MOL0     C28854   4.434  10.591   5.142  0.2687 -0.2916  0.4315
  210MOL0     C28855   4.553  10.633   5.224 -1.1402  0.1324  0.0299
  210MOL0     C28856   4.557  10.780   5.269 -0.0949  0.1758  0.8371
  210MOL0     C28857   4.549  10.881   5.158  0.6166 -0.3610  0.1669
  210MOL0     C28858   4.515  11.028   5.192  0.3338 -0.1706  0.3309
  210MOL0     N28859   4.389  11.033   5.279  0.3343  0.8862  0.4283
  210MOL0     C28860   4.394  11.085   5.403 -0.2608  0.4066  0.0840
  210MOL0     C28861   4.261  11.057   5.449 -0.0320  0.3378  0.1330
  210MOL0     C28862   4.213  11.076   5.596 -0.2832 -0.6390 -0.5052
  210MOL0     C28863   4.331  11.098   5.684  0.0751 -0.0167  1.0212
  210MOL0     C28864   4.287  11.085   5.831  0.4379  0.2706 -0.7788
  210MOL0     C28865   4.266  10.939   5.886 -1.0931 -0.0740 -0.1624
  210MOL0     O28866   4.375  10.839   5.857 -0.2624  0.6295 -0.4817
  210MOL0     C28867   4.334  10.725   5.794  1.4418 -0.5638  0.4651
  210MOL0     C28868   4.221  10.640   5.829 -1.0285 -1.1732 -0.2978
  210MOL0     C28869   4.196  10.512   5.780 -0.7183 -0.5326  1.2406
  210MOL0     C28870   4.071  10.429   5.821 -0.6056  0.6172 -0.3849
  210MOL0     C28871   4.283  10.457   5.680  0.1301  0.6245 -1.8479
  210MOL0     C28872   4.287  10.313   5.624  0.3117  0.0061 -0.0242
  210MOL0     O28873   4.385  10.285   5.522 -0.1618 -0.2871 -0.4366
  210MOL0     C28874   4.470  10.179   5.548 -0.5098 -0.0620  0.3638
  210MOL0     C28875   4.525  10.118   5.432  0.3721  1.0981  0.4318
  210MOL0     C28876   4.588   9.994   5.434  0.6179  0.9195  0.1717
  210MOL0     C28877   4.620   9.938   5.558 -0.5764 -0.0864 -0.1112
  210MOL0     O28878   4.693   9.817   5.552 -0.1324 -0.3837 -0.0186
  210MOL0     C28879   4.691   9.720   5.661 -0.7925  0.0439  0.1215
  210MOL0     C28880   4.803   9.761   5.767  0.3209  0.5406  0.3120
  210MOL0     C28881   4.822   9.665   5.888 -0.0377  0.3131  0.2490
  210MOL0     C28882   4.920   9.552   5.871 -0.0009  0.4183 -0.3443
  210MOL0     C28883   4.913   9.472   6.004  0.5313 -0.1328 -0.4072
  210MOL0     C28884   5.043   9.398   6.008 -1.2094  0.4527  0.3871
  210MOL0     C28885   5.056   9.312   6.139  0.5605  0.7487 -0.4436
  210MOL0     C28886   5.097   9.398   6.262 -0.0390  0.5541 -0.5075
  210MOL0    Cl28887   4.947   9.421   6.353  0.7559 -0.0102  0.6907
  210MOL0     C28888   4.585  10.001   5.670  0.0974  0.0980 -0.3198
  210MOL0     C28889   4.509  10.118   5.667 -0.5492 -0.9733 -0.0062
  210MOL0     O28890   4.219  10.221   5.677  0.5816 -1.3532 -0.4691
  210MOL0     C28891   4.377  10.546   5.633  0.0133  0.5652 -0.2197
  210MOL0     C28892   4.408  10.671   5.694  0.5631 -0.4327  0.0501
  210MOL0     N28893   4.180  11.018   5.345 -0.8310  0.2913  0.8698
  210MOL0     N28894   4.259  11.015   5.246 -0.2427  0.1703  0.0932
  210MOL0     C28895   3.774  10.480   5.252 -0.1425 -0.0755  0.0709
  210MOL0     C28896   3.654  10.423   5.300 -0.3836  0.6665 -0.5790
  210MOL0     C28897   3.359  10.166   5.508  0.7973  0.2301  0.0282
  210MOL0     C28898   3.332  10.222   5.633 -0.0548  0.1757 -0.7504
  210MOL0     C28899   3.210  10.184   5.696  0.3727 -0.3857  0.0738
  210MOL0     C28900   3.116  10.084   5.647 -0.3229 -1.0429  0.7732
  210MOL0     O28901   3.014  10.021   5.704  0.6204 -0.4730 -0.3237
  210MOL0     C28902   3.015  10.024   5.843 -0.2703  0.6031  0.3209
  210MOL0     C28903   2.914   9.924   5.906  0.2562  0.3692 -0.9192
  210MOL0     C28904   2.771   9.935   5.844  0.3718  0.9764 -0.2663
  210MOL0     C28905   2.748   9.842   5.723  0.2930  0.8540  0.8939
  210MOL0     C28906   2.720   9.713   5.785  0.1309  0.5452 -0.1417
  210MOL0     C28907   2.677   9.615   5.847  1.3346 -0.9586 -0.4389
  210MOL0     C28908   3.149  10.031   5.526 -0.3087 -0.5086 -0.3236
  210MOL0     C28909   3.263  10.071   5.457 -0.2769  0.0094 -0.0318
  210MOL0     C28910   3.270  10.010   5.317  0.3805  0.6161 -0.4088
  210MOL0     H28911   3.782  10.233   5.557  1.8474 -0.7610 -1.0912
  210MOL0     H28912   4.004  10.340   5.455  0.3918  1.1254  0.6062
  210MOL0     H28913   4.034  10.691   5.229 -2.5266  1.2061 -2.0269
  210MOL0     H28914   3.963  10.603   5.094 -1.5545  2.6853  1.7087
  210MOL0     H28915   4.182  10.493   5.044 -5.9674 -1.0130 -0.5654
  210MOL0     H28916   4.190  10.664   5.027 -2.4099  1.0412  0.5321
  210MOL0     H28917   4.299  10.704   5.242  0.9073  0.2471 -2.1149
  210MOL0     H28918   4.280  10.535   5.292 -0.6774 -0.9844 -0.2229
  210MOL0     H28919   4.453  10.484   5.125 -0.2073 -0.6265  1.9314
  210MOL0     H28920   4.447  10.639   5.044  3.7043 -0.8261  0.5234
  210MOL0     H28921   4.640  10.604   5.166 -1.6775 -0.8146 -0.3147
  210MOL0     H28922   4.554  10.570   5.314 -0.8826  1.3739  0.9270
  210MOL0     H28923   4.469  10.800   5.331 -2.3194  4.3486 -3.0756
  210MOL0     H28924   4.648  10.795   5.328  0.5401 -0.2280 -0.0201
  210MOL0     H28925   4.484  10.844   5.078 -2.2712 -0.9644  2.6297
  210MOL0     H28926   4.648  10.895   5.113  0.5794  4.7897  1.0461
  210MOL0     H28927   4.601  11.078   5.236  0.7339 -0.9965  0.5135
  210MOL0     H28928   4.487  11.074   5.097  1.8432 -2.5570 -1.3938
  210MOL0     H28929   4.475  11.117   5.468 -0.7525 -1.0040  1.4730
  210MOL0     H28930   4.154  10.988   5.622 -0.7343  0.0100  0.7989
  210MOL0     H28931   4.146  11.163   5.596  0.0469 -0.2744 -3.4317
  210MOL0     H28932   4.418  11.034   5.664  0.9274  1.4063  0.0207
  210MOL0     H28933   4.363  11.202   5.685  2.2090 -0.6117  0.6790
  210MOL0     H28934   4.364  11.119   5.900 -1.0571  0.8737  0.6597
  210MOL0     H28935   4.196  11.141   5.852  2.3432  3.0187  0.8568
  210MOL0     H28936   4.251  10.941   5.994  2.8492 -1.3241  0.5735
  210MOL0     H28937   4.173  10.911   5.836 -0.3137 -2.1072 -0.5345
  210MOL0     H28938   4.167  10.668   5.919 -0.5052 -3.0625  0.6578
  210MOL0     H28939   4.012  10.391   5.737 -2.1399 -1.0500  1.3601
  210MOL0     H28940   4.018  10.497   5.889  0.5439  2.6964 -1.4620
  210MOL0     H28941   4.097  10.337   5.873 -1.1374 -1.6995 -3.8744
  210MOL0     H28942   4.515  10.169   5.336  1.5602  1.3929  0.4405
  210MOL0     H28943   4.640   9.942   5.354 -2.4383 -0.6831 -0.9414
  210MOL0     H28944   4.595   9.699   5.709 -0.6022 -0.6061  0.2146
  210MOL0     H28945   4.716   9.626   5.612 -1.5796 -0.4999  0.7344
  210MOL0     H28946   4.901   9.776   5.722  0.2285  2.1985  0.6112
  210MOL0     H28947   4.782   9.853   5.822  4.8337  2.8214 -1.3100
  210MOL0     H28948   4.719   9.630   5.898  0.1305  0.0743  1.2353
  210MOL0     H28949   4.838   9.723   5.979 -4.1390  3.2168 -0.5620
  210MOL0     H28950   5.021   9.581   5.842 -0.2593  1.9336  0.1602
  210MOL0     H28951   4.886   9.489   5.789 -0.1175  1.0589 -0.8008
  210MOL0     H28952   4.889   9.529   6.094 -1.7946 -1.5245 -0.0793
  210MOL0     H28953   4.831   9.403   5.984  1.1252 -0.0951 -3.4503
  210MOL0     H28954   5.126   9.469   5.999 -0.8015  0.0211  0.6874
  210MOL0     H28955   5.053   9.332   5.921  3.4350  0.7079  0.4959
  210MOL0     H28956   5.112   9.220   6.120 -1.0748  0.0401 -2.2101
  210MOL0     H28957   4.954   9.273   6.148  1.0777 -1.1624 -2.0488
  210MOL0     H28958   5.135   9.490   6.218 -1.0767  1.7394  0.9800
  210MOL0     H28959   5.182   9.348   6.310 -0.7465 -0.7522 -0.5584
  210MOL0     H28960   4.605   9.951   5.764  1.1509  1.9249  0.4855
  210MOL0     H28961   4.465  10.152   5.761 -1.3204 -2.1453  0.0851
  210MOL0     H28962   4.432  10.513   5.545 -0.3640 -1.9068  0.4019
  210MOL0     H28963   4.489  10.735   5.659 -2.8789  4.8703  0.7573
  210MOL0     H28964   3.771  10.550   5.169 -2.5275 -1.2665 -0.9495
  210MOL0     H28965   3.558  10.450   5.258 -0.5249 -0.4486 -1.0082
  210MOL0     H28966   3.389  10.301   5.682 -0.5362  1.1297 -1.6820
  210MOL0     H28967   3.190  10.230   5.793  1.1949  2.6585 -1.0868
  210MOL0     H28968   3.110  10.008   5.894  1.4365  0.3514 -2.6988
  210MOL0     H28969   2.980  10.125   5.865 -1.7257 -0.1716  1.8185
  210MOL0     H28970   2.904   9.958   6.010  1.4278 -0.5209 -0.4982
  210MOL0     H28971   2.953   9.823   5.915  1.5093  0.9664  1.0927
  210MOL0     H28972   2.721   9.898   5.934  2.9661 -0.0673  0.8316
  210MOL0     H28973   2.748  10.040   5.824  3.2842  1.4713 -1.5237
  210MOL0     H28974   2.832   9.835   5.654 -1.5545 -2.5488 -1.3387
  210MOL0     H28975   2.661   9.884   5.671  1.0056  4.0251  2.0568
  210MOL0     H28976   2.639   9.533   5.904  0.3078  0.0985  0.4424
  210MOL0     H28977   3.076   9.962   5.485  0.8799 -1.7028 -0.4844
  210MOL0     H28978   3.174   9.965   5.293  1.6180 -3.6673  1.7597
  210MOL0     H28979   3.311  10.077   5.241 -1.3281  3.4776  1.0186
  210MOL0     H28980   3.332   9.920   5.317 -1.1328 -0.4551 -0.6935
  211MOL0     O28981   8.058  11.377   6.313  0.2893 -0.4961  0.2449
  211MOL0     C28982   8.005  11.361   6.203 -0.7868  0.3589 -0.2324
  211MOL0     O28983   8.021  11.448   6.089 -0.1585  0.5592 -0.0064
  211MOL0     C28984   8.093  11.561   6.113  0.4977 -0.2660 -0.2030
  211MOL0     C28985   8.067  11.641   6.225 -0.3233 -0.9226 -0.7139
  211MOL0     C28986   8.151  11.759   6.232 -0.8215 -0.6346 -0.3647
  211MOL0     C28987   8.264  11.776   6.150 -0.0719 -1.3378  0.1319
  211MOL0     O28988   8.343  11.885   6.194  0.6489 -0.0873  0.6224
  211MOL0     C28989   8.453  11.922   6.099 -0.0777  0.0120  0.2941
  211MOL0     C28990   8.548  12.032   6.142  0.1980 -0.3067 -0.4055
  211MOL0     C28991   8.457  12.152   6.182 -0.1854  0.4389 -0.1842
  211MOL0     C28992   8.535  12.287   6.222 -0.4801  0.4488  0.5164
  211MOL0     C28993   8.499  12.339   6.361  0.9424 -0.7923  0.5692
  211MOL0     C28994   8.514  12.495   6.363  0.0716  0.8525  0.7819
  211MOL0     C28995   8.436  12.563   6.470  0.3577  0.9116  0.1545
  211MOL0     C28996   8.439  12.507   6.613  0.5063  0.3435 -1.5959
  211MOL0     N28997   8.341  12.585   6.699  0.3162  0.7974  0.5691
  211MOL0     C28998   8.215  12.551   6.739  1.2675 -0.1084 -0.3282
  211MOL0     C28999   8.148  12.659   6.781  0.8341 -0.0031  0.3003
  211MOL0     C29000   8.011  12.670   6.832 -0.4845  0.0006  0.0128
  211MOL0     C29001   7.951  12.813   6.824 -0.3503  0.2454 -0.3202
  211MOL0     C29002   7.798  12.805   6.853 -0.4228 -0.0751  0.1754
  211MOL0     C29003   7.788  12.791   6.997  1.3097 -0.2994 -0.7867
  211MOL0     O29004   7.816  12.902   7.080  0.2902  0.4051 -0.1565
  211MOL0     C29005   7.746  12.916   7.198  0.1622  0.3800  0.3299
  211MOL0     C29006   7.747  13.039   7.259  0.9097 -0.2895 -0.1265
  211MOL0     C29007   7.708  13.051   7.394  0.2018 -0.0454  0.0923
  211MOL0     C29008   7.710  13.190   7.458  0.2214  0.4570  0.8915
  211MOL0     C29009   7.672  12.931   7.464  0.4260 -1.0934  0.4462
  211MOL0     C29010   7.627  12.922   7.609  0.0064  0.3800  0.2202
  211MOL0     O29011   7.564  12.802   7.657 -0.2027  0.0103  1.0357
  211MOL0     C29012   7.501  12.805   7.784  0.2503 -0.0881 -0.5422
  211MOL0     C29013   7.405  12.896   7.817 -0.1094 -0.7887 -0.7140
  211MOL0     C29014   7.324  12.880   7.936 -1.0899  0.2229 -0.5248
  211MOL0     C29015   7.358  12.777   8.031 -0.9480  0.2668  0.5499
  211MOL0     O29016   7.299  12.751   8.160  0.7069  0.4714  0.6832
  211MOL0     C29017   7.188  12.828   8.204 -0.2794  0.0396 -0.7340
  211MOL0     C29018   7.057  12.761   8.160 -0.4386  0.3226  0.3080
  211MOL0     C29019   6.936  12.812   8.236  0.2340 -0.2712  0.2350
  211MOL0     C29020   6.911  12.961   8.216 -0.0464 -0.3459 -0.5324
  211MOL0     C29021   6.810  13.019   8.315 -0.2188 -0.1602 -0.2073
  211MOL0     C29022   6.805  13.172   8.335 -0.4053  0.1973  1.4305
  211MOL0     C29023   6.706  13.212   8.431 -0.4401 -0.2598 -0.3743
  211MOL0     C29024   6.668  13.355   8.405 -0.1923 -0.0295  0.3305
  211MOL0    Cl29025   6.548  13.401   8.526 -0.4874  0.2344  0.1847
  211MOL0     C29026   7.470  12.691   7.999 -0.5449 -0.3856 -0.0785
  211MOL0     C29027   7.539  12.712   7.877  0.8478  0.0394  1.3285
  211MOL0     O29028   7.678  13.008   7.676  0.0155  0.3228 -0.5430
  211MOL0     C29029   7.675  12.809   7.395  0.7061  0.2372 -0.1688
  211MOL0     C29030   7.719  12.799   7.268  0.9334  0.0103 -0.6317
  211MOL0     N29031   8.236  12.766   6.766  0.0279 -0.2594  0.5337
  211MOL0     N29032   8.342  12.717   6.710 -0.1512 -0.9144 -0.0871
  211MOL0     C29033   8.285  11.699   6.035  0.9032  0.3835  1.0722
  211MOL0     C29034   8.198  11.586   6.020 -0.1914 -0.0876  0.2797
  211MOL0     C29035   7.908  11.255   6.198 -0.2950 -0.3052 -0.3164
  211MOL0     C29036   7.816  11.256   6.090  0.4913  0.4173  0.2560
  211MOL0     C29037   7.718  11.162   6.094  0.0000  0.3787 -0.3191
  211MOL0     C29038   7.702  11.067   6.192 -0.9533 -1.0050  0.9978
  211MOL0     O29039   7.604  10.979   6.200  0.3365  0.6913  0.4005
  211MOL0     C29040   7.469  10.983   6.144  0.6576  0.5276  0.5166
  211MOL0     C29041   7.413  10.841   6.129  0.6593 -0.1541 -0.0288
  211MOL0     C29042   7.479  10.745   6.020 -0.0833 -0.5858 -0.0966
  211MOL0     C29043   7.433  10.606   6.009  0.7267 -0.1899  0.5098
  211MOL0     C29044   7.296  10.600   5.947 -0.2117 -0.5810 -0.7776
  211MOL0     C29045   7.189  10.594   5.891  0.7888  0.5300 -0.1833
  211MOL0     C29046   7.809  11.047   6.278  0.4657 -0.1249  0.1066
  211MOL0     C29047   7.915  11.134   6.277 -0.3070 -0.0156  0.7190
  211MOL0     C29048   8.015  11.100   6.382  0.1950  0.4551 -0.4910
  211MOL0     H29049   7.991  11.630   6.302  0.3340 -0.7904 -0.0421
  211MOL0     H29050   8.125  11.816   6.321  0.5511  0.6087 -0.7207
  211MOL0     H29051   8.412  11.949   6.001  0.1095  2.1582  0.7420
  211MOL0     H29052   8.518  11.835   6.098 -2.0794 -1.5513  0.6139
  211MOL0     H29053   8.614  11.989   6.218 -0.7063 -2.6475 -0.8282
  211MOL0     H29054   8.616  12.062   6.062  1.2765  0.6431  0.8416
  211MOL0     H29055   8.386  12.177   6.103 -2.1202 -0.1405  1.2962
  211MOL0     H29056   8.408  12.108   6.269  0.8275  0.6357  0.5046
  211MOL0     H29057   8.642  12.278   6.198 -0.9260  1.0337 -1.9793
  211MOL0     H29058   8.515  12.372   6.156  2.9202  1.4169  0.5414
  211MOL0     H29059   8.561  12.303   6.444  2.5358  2.8124  1.1136
  211MOL0     H29060   8.393  12.313   6.373  0.9035 -0.5013  0.8639
  211MOL0     H29061   8.620  12.508   6.387 -0.1266  3.5281  0.5609
  211MOL0     H29062   8.489  12.552   6.273 -2.6229 -0.9883  0.2415
  211MOL0     H29063   8.329  12.542   6.455  0.9105 -1.3261 -1.0492
  211MOL0     H29064   8.470  12.667   6.467 -0.1268  1.1055  0.9483
  211MOL0     H29065   8.419  12.400   6.615  0.5431  0.3405 -1.3258
  211MOL0     H29066   8.540  12.527   6.650  0.1328  0.9509 -0.8807
  211MOL0     H29067   8.181  12.449   6.725  1.2225  0.1038 -1.9460
  211MOL0     H29068   8.009  12.628   6.933  1.6826 -0.9893 -0.3012
  211MOL0     H29069   7.944  12.608   6.772 -1.0770  1.5472 -0.9943
  211MOL0     H29070   7.999  12.873   6.902 -0.0946 -1.8719  1.2655
  211MOL0     H29071   7.985  12.859   6.731  0.2727  1.2039  0.3673
  211MOL0     H29072   7.744  12.899   6.837  0.3723  0.2278 -0.8092
  211MOL0     H29073   7.763  12.726   6.786  3.6487 -0.6021 -1.6019
  211MOL0     H29074   7.679  12.782   7.004  1.3413 -0.0144  0.3652
  211MOL0     H29075   7.834  12.696   7.025  2.8405 -0.0048 -2.2230
  211MOL0     H29076   7.805  13.112   7.203 -0.0095 -2.1726 -3.8185
  211MOL0     H29077   7.609  13.230   7.472 -0.2151 -0.9847  2.2092
  211MOL0     H29078   7.772  13.251   7.392  1.9042 -1.9704  0.1055
  211MOL0     H29079   7.766  13.193   7.552  1.6191 -0.1776  0.1149
  211MOL0     H29080   7.369  12.981   7.759 -2.9254  1.0169  3.2566
  211MOL0     H29081   7.235  12.935   7.965 -1.6555 -2.3464  3.4572
  211MOL0     H29082   7.189  12.834   8.314 -2.5269 -2.1015 -0.5111
  211MOL0     H29083   7.187  12.929   8.162 -5.9850  1.2233  1.4245
  211MOL0     H29084   7.041  12.787   8.056  1.2112 -2.2071 -0.6928
  211MOL0     H29085   7.070  12.652   8.162 -2.9667 -0.0172  1.0331
  211MOL0     H29086   6.955  12.802   8.343 -1.0490  0.4519  0.5470
  211MOL0     H29087   6.845  12.753   8.222 -0.0406  0.6175 -2.3702
  211MOL0     H29088   6.844  12.968   8.129 -1.9019  0.5035  0.8935
  211MOL0     H29089   6.992  13.030   8.188 -1.6569  1.1904 -1.6328
  211MOL0     H29090   6.705  12.991   8.301 -0.4239  0.9429 -0.9618
  211MOL0     H29091   6.837  12.972   8.410 -2.0345 -1.6647 -0.3637
  211MOL0     H29092   6.783  13.208   8.235 -0.8941 -3.6088 -0.0024
  211MOL0     H29093   6.903  13.210   8.363 -1.0094  1.0525  2.4991
  211MOL0     H29094   6.722  13.182   8.535  1.0798 -0.5277 -0.6663
  211MOL0     H29095   6.615  13.160   8.402  0.2064 -0.4523 -2.1309
  211MOL0     H29096   6.615  13.359   8.309  0.5036 -1.6570 -0.1727
  211MOL0     H29097   6.752  13.424   8.402  2.7358 -3.2996 -0.3811
  211MOL0     H29098   7.504  12.617   8.071 -0.0661 -0.8854 -0.8047
  211MOL0     H29099   7.629  12.662   7.843  0.8800  0.9389 -0.0160
  211MOL0     H29100   7.646  12.725   7.457  2.0415  1.3263  2.0973
  211MOL0     H29101   7.751  12.709   7.218 -0.4294  0.3561 -2.2051
  211MOL0     H29102   8.363  11.719   5.962  3.3900 -0.3361  3.3365
  211MOL0     H29103   8.213  11.518   5.937  2.4909  0.5796  0.1272
  211MOL0     H29104   7.806  11.329   6.010 -0.9946 -0.8110 -0.7261
  211MOL0     H29105   7.648  11.185   6.015  0.9227  0.8623 -1.0172
  211MOL0     H29106   7.409  11.043   6.214  1.2206  1.2846  0.3665
  211MOL0     H29107   7.483  11.034   6.048  0.7864 -0.7600 -0.1585
  211MOL0     H29108   7.304  10.836   6.118  0.8763 -1.4047 -2.2462
  211MOL0     H29109   7.433  10.783   6.220  1.9391  1.1909  0.5792
  211MOL0     H29110   7.468  10.789   5.920 -2.1443  1.7433  1.0214
  211MOL0     H29111   7.585  10.752   6.046 -0.2861  0.9983  0.4512
  211MOL0     H29112   7.433  10.545   6.099  0.5165 -1.9226 -0.6256
  211MOL0     H29113   7.511  10.562   5.946 -0.3811  0.5015 -1.4303
  211MOL0     H29114   7.096  10.575   5.842  1.1988 -2.6577  0.0901
  211MOL0     H29115   7.802  10.957   6.339 -2.0543 -0.0966 -0.0369
  211MOL0     H29116   8.115  11.100   6.339  0.2228 -0.9792 -0.4759
  211MOL0     H29117   8.004  11.170   6.465 -3.8873 -2.7583  2.1299
  211MOL0     H29118   7.999  10.998   6.420  0.1775  0.2435 -1.0459
  212MOL0     O29119   6.397   6.931   8.827 -0.9747 -0.0350 -0.1060
  212MOL0     C29120   6.500   6.882   8.771  0.0222 -0.2464  0.1749
  212MOL0     O29121   6.546   6.927   8.656  1.0174  0.8396 -0.1423
  212MOL0     C29122   6.545   7.063   8.630  0.5427  0.5347  0.4284
  212MOL0     C29123   6.542   7.162   8.726 -0.2883 -0.5517 -0.3140
  212MOL0     C29124   6.558   7.300   8.689 -0.1389  1.5440 -0.8451
  212MOL0     C29125   6.600   7.328   8.558 -0.6234  0.6387 -0.1364
  212MOL0     O29126   6.648   7.460   8.536  0.6873  0.3088 -0.3727
  212MOL0     C29127   6.784   7.469   8.479 -0.4850 -0.2450  0.3215
  212MOL0     C29128   6.836   7.594   8.532 -0.1519  0.2484 -0.4727
  212MOL0     C29129   6.834   7.614   8.686 -0.4576  0.1356  0.3708
  212MOL0     C29130   6.894   7.751   8.715 -0.6704 -0.0335 -0.1556
  212MOL0     C29131   6.925   7.758   8.872  0.7295 -0.9221 -0.2663
  212MOL0     C29132   6.800   7.734   8.965 -0.6377  0.5379 -0.8583
  212MOL0     C29133   6.817   7.785   9.105 -0.1192 -0.7029 -0.7169
  212MOL0     C29134   6.701   7.752   9.209  0.2006 -0.2595 -0.1322
  212MOL0     N29135   6.572   7.775   9.153  0.1348 -0.6602  0.3878
  212MOL0     C29136   6.490   7.677   9.100  0.1621  0.6173 -0.7339
  212MOL0     C29137   6.384   7.737   9.057  0.3076 -0.3647  0.6443
  212MOL0     C29138   6.259   7.669   9.011  0.2945 -0.5711 -0.5708
  212MOL0     C29139   6.272   7.621   8.861 -0.0349 -0.3702 -0.6251
  212MOL0     C29140   6.136   7.553   8.809 -0.9840 -0.8992  0.9795
  212MOL0     C29141   6.144   7.531   8.664 -0.0720  0.3637  0.3000
  212MOL0     O29142   6.123   7.648   8.576  0.0902  0.6471 -0.8759
  212MOL0     C29143   6.216   7.747   8.579 -0.4007  0.2277  0.9921
  212MOL0     C29144   6.180   7.877   8.608  0.1390  0.6827  0.4697
  212MOL0     C29145   6.279   7.973   8.625  0.2884 -0.0756  0.2793
  212MOL0     C29146   6.234   8.115   8.644 -0.2572  1.0420 -0.6641
  212MOL0     C29147   6.419   7.935   8.609 -0.1936 -0.1175 -0.3514
  212MOL0     C29148   6.524   8.039   8.626  0.6547 -0.0488 -0.6210
  212MOL0     O29149   6.504   8.136   8.719 -0.2391  0.1874  0.0199
  212MOL0     C29150   6.617   8.190   8.777  0.0913  1.2120  0.2793
  212MOL0     C29151   6.685   8.120   8.872  0.3412  0.8170  0.3730
  212MOL0     C29152   6.802   8.175   8.931 -0.3702 -0.5249 -0.6092
  212MOL0     C29153   6.863   8.295   8.879 -0.2583  0.0735  0.4155
  212MOL0     O29154   6.979   8.340   8.951  0.4793  0.4098 -0.0969
  212MOL0     C29155   7.050   8.448   8.890 -0.1402  0.6145 -0.3375
  212MOL0     C29156   7.194   8.463   8.933  0.0473 -0.9483 -0.8720
  212MOL0     C29157   7.209   8.509   9.076 -0.2528  0.3800 -0.5469
  212MOL0     C29158   7.226   8.658   9.086 -0.0091  0.1274 -0.0150
  212MOL0     C29159   7.245   8.723   9.234 -0.1754 -0.4065 -0.0442
  212MOL0     C29160   7.110   8.733   9.308  0.2597 -0.6788  0.1367
  212MOL0     C29161   7.113   8.798   9.442 -0.0354  0.1684 -0.3697
  212MOL0     C29162   7.181   8.712   9.554  0.7561  0.1381 -0.3961
  212MOL0    Cl29163   7.142   8.786   9.714  0.3647 -0.2813 -0.1193
  212MOL0     C29164   6.793   8.359   8.784 -0.0414 -0.1443  0.5729
  212MOL0     C29165   6.676   8.306   8.721 -0.2690 -0.2822 -0.5954
  212MOL0     O29166   6.622   8.018   8.563 -0.2347 -0.2100  0.0744
  212MOL0     C29167   6.446   7.808   8.566  0.1845  0.5191 -0.9400
  212MOL0     C29168   6.343   7.716   8.543  0.4093  0.5634 -0.0314
  212MOL0     N29169   6.403   7.872   9.075 -0.4262  0.6825 -0.2370
  212MOL0     N29170   6.522   7.897   9.113  0.3176 -0.2387  0.0756
  212MOL0     C29171   6.595   7.229   8.457  1.3060 -0.1269 -0.0369
  212MOL0     C29172   6.566   7.094   8.492  0.2474 -0.2468  0.0679
  212MOL0     C29173   6.570   6.767   8.838 -0.1800  0.9384  0.0206
  212MOL0     C29174   6.553   6.752   8.973 -0.1025  0.0346  0.9475
  212MOL0     C29175   6.595   6.638   9.033  0.2676  0.0028 -1.3328
  212MOL0     C29176   6.673   6.538   8.974 -0.0012 -1.3174  0.2415
  212MOL0     O29177   6.702   6.427   9.049  0.2695  0.3563  1.1111
  212MOL0     C29178   6.786   6.317   8.999 -0.4572 -1.1953 -0.9695
  212MOL0     C29179   6.752   6.187   9.073 -0.5448 -0.5516  0.0464
  212MOL0     C29180   6.844   6.066   9.031 -0.3358  0.0099  0.5384
  212MOL0     C29181   6.760   5.940   9.002  0.8230 -0.1675  1.3206
  212MOL0     C29182   6.688   5.959   8.878  0.0603 -0.0812 -0.7765
  212MOL0     C29183   6.621   5.957   8.779 -0.3512 -0.3176  0.0514
  212MOL0     C29184   6.716   6.566   8.838  1.1998 -0.5921  0.4458
  212MOL0     C29185   6.669   6.685   8.776 -0.0648  1.0120  0.0963
  212MOL0     C29186   6.714   6.703   8.631 -0.1849 -0.8710 -0.0409
  212MOL0     H29187   6.539   7.147   8.833  2.1921 -0.6440 -0.2034
  212MOL0     H29188   6.552   7.377   8.765  0.9746 -0.4006  1.3420
  212MOL0     H29189   6.785   7.473   8.370 -0.1246 -0.6447  0.3073
  212MOL0     H29190   6.839   7.380   8.511  0.2164  0.3847  0.8851
  212MOL0     H29191   6.939   7.593   8.496 -0.1886 -1.3878 -0.6243
  212MOL0     H29192   6.782   7.676   8.485 -1.6816 -1.4230 -1.7680
  212MOL0     H29193   6.730   7.623   8.718 -1.0374 -1.2101 -0.9784
  212MOL0     H29194   6.881   7.532   8.741 -1.1681  0.9185  2.2215
  212MOL0     H29195   6.988   7.763   8.661 -2.9821  2.4966 -4.1203
  212MOL0     H29196   6.821   7.830   8.697  2.2262  3.0127  0.3895
  212MOL0     H29197   6.947   7.862   8.897 -0.1217 -1.0476  1.0821
  212MOL0     H29198   7.010   7.695   8.901  1.3796  0.2487  0.4222
  212MOL0     H29199   6.707   7.769   8.920 -2.3809  1.2664  2.8859
  212MOL0     H29200   6.784   7.626   8.966  0.9413  0.2655 -0.9171
  212MOL0     H29201   6.824   7.893   9.095 -1.5106 -0.3260  1.5196
  212MOL0     H29202   6.914   7.760   9.148  0.2638  2.6722  0.6954
  212MOL0     H29203   6.707   7.644   9.220  1.3014 -0.9179 -4.8700
  212MOL0     H29204   6.711   7.809   9.301  3.5410  1.8868 -1.6145
  212MOL0     H29205   6.497   7.570   9.120  0.3114 -0.8091 -6.5376
  212MOL0     H29206   6.184   7.748   9.014 -0.0925 -0.8301  4.0046
  212MOL0     H29207   6.220   7.584   9.068 -2.4408  0.1059 -1.2794
  212MOL0     H29208   6.294   7.714   8.808 -0.9512  0.0245 -0.3272
  212MOL0     H29209   6.353   7.551   8.842  1.0028  0.2518  1.2648
  212MOL0     H29210   6.139   7.453   8.854  0.5454  0.8043  5.1279
  212MOL0     H29211   6.043   7.608   8.824 -0.7791 -0.7057  1.5557
  212MOL0     H29212   6.236   7.482   8.629 -1.2192  0.0936 -2.6968
  212MOL0     H29213   6.067   7.456   8.644 -1.2477  1.5066  0.4263
  212MOL0     H29214   6.075   7.903   8.616 -0.5945 -1.1244 -2.1540
  212MOL0     H29215   6.241   8.147   8.749 -2.7981 -2.3336  0.7140
  212MOL0     H29216   6.128   8.124   8.619 -0.2423  1.9790 -0.4307
  212MOL0     H29217   6.285   8.185   8.577 -0.4250 -0.5537 -2.5518
  212MOL0     H29218   6.634   8.033   8.912 -1.7438  1.7317 -0.1558
  212MOL0     H29219   6.834   8.128   9.023 -1.6292 -2.3553 -1.0455
  212MOL0     H29220   7.057   8.435   8.781  0.8212 -1.2548 -0.0884
  212MOL0     H29221   6.995   8.541   8.908 -3.9753 -0.9907 -2.5341
  212MOL0     H29222   7.241   8.364   8.927 -0.4469 -1.7898  4.5082
  212MOL0     H29223   7.260   8.529   8.876  1.6313 -0.8090  1.0390
  212MOL0     H29224   7.297   8.460   9.119 -0.7646 -0.0045  0.0886
  212MOL0     H29225   7.121   8.482   9.135 -1.3869  1.3574 -1.7215
  212MOL0     H29226   7.136   8.698   9.038  0.5403 -0.6872 -1.8159
  212MOL0     H29227   7.314   8.688   9.029 -1.0463  3.7403  0.0719
  212MOL0     H29228   7.317   8.669   9.295 -0.7344  2.2488  3.2642
  212MOL0     H29229   7.284   8.825   9.235 -0.3252 -0.3394  1.6357
  212MOL0     H29230   7.053   8.641   9.316 -0.2422 -0.1905  4.1650
  212MOL0     H29231   7.039   8.797   9.254  2.5184  0.7936 -1.2833
  212MOL0     H29232   7.014   8.834   9.469 -0.0442  0.0871 -0.2919
  212MOL0     H29233   7.168   8.892   9.439 -0.5591  0.4677 -0.6872
  212MOL0     H29234   7.289   8.711   9.544  1.1461  2.1049  2.4452
  212MOL0     H29235   7.138   8.611   9.553 -0.3541  0.5459  1.2387
  212MOL0     H29236   6.829   8.458   8.756 -5.4591  1.3523 -2.5347
  212MOL0     H29237   6.625   8.359   8.641  1.4233  0.9242 -0.9448
  212MOL0     H29238   6.547   7.775   8.543 -0.4028 -0.4915 -2.2205
  212MOL0     H29239   6.359   7.613   8.511 -0.8562  0.8500 -1.7284
  212MOL0     H29240   6.623   7.276   8.363  2.9946  2.0079  1.4258
  212MOL0     H29241   6.576   7.014   8.420 -0.5972 -2.1297  1.9476
  212MOL0     H29242   6.500   6.817   9.042 -1.2551 -1.8794  1.9729
  212MOL0     H29243   6.562   6.620   9.135  2.4113 -3.3477 -1.0831
  212MOL0     H29244   6.755   6.309   8.895 -2.9477  1.3439 -0.5323
  212MOL0     H29245   6.889   6.353   9.013 -0.6609 -0.3649 -1.5245
  212MOL0     H29246   6.649   6.172   9.039 -0.4890 -0.8381  0.0006
  212MOL0     H29247   6.757   6.200   9.182  1.8455  0.2193 -0.1044
  212MOL0     H29248   6.896   6.090   8.938 -0.6317  1.5100  0.7495
  212MOL0     H29249   6.925   6.047   9.103 -0.8514 -0.2583  1.0536
  212MOL0     H29250   6.682   5.932   9.078 -0.0285 -0.9222  0.4062
  212MOL0     H29251   6.809   5.842   8.993 -2.0432 -1.5807 -0.1481
  212MOL0     H29252   6.556   5.968   8.694 -0.7218 -0.2423  0.3423
  212MOL0     H29253   6.787   6.505   8.783  2.3814  2.1550 -1.2919
  212MOL0     H29254   6.617   6.721   8.582 -1.2559  1.5244  2.6156
  212MOL0     H29255   6.780   6.790   8.636  0.7026 -1.5986  1.7124
  212MOL0     H29256   6.778   6.626   8.588 -0.1328 -1.5487  1.2008
  213MOL0     O29257   4.799   6.660   5.183 -0.3695  0.3669 -0.8478
  213MOL0     C29258   4.757   6.627   5.078 -0.1675  0.1220  1.2428
  213MOL0     O29259   4.835   6.599   4.965 -0.5070 -1.0500 -0.3631
  213MOL0     C29260   4.963   6.646   4.964 -0.0532 -0.2579 -0.0047
  213MOL0     C29261   4.986   6.779   4.992  0.6593  0.1078 -1.1091
  213MOL0     C29262   5.112   6.833   5.017 -0.1368  0.2626  0.3315
  213MOL0     C29263   5.225   6.750   5.011  0.2391  0.0828 -0.0091
  213MOL0     O29264   5.356   6.783   5.031 -0.4040 -1.3172 -0.7593
  213MOL0     C29265   5.395   6.909   5.094  0.8725  0.4361  1.2043
  213MOL0     C29266   5.521   6.940   5.019  0.0192 -0.4057 -0.1169
  213MOL0     C29267   5.521   6.966   4.870 -0.0039 -0.4600  0.3616
  213MOL0     C29268   5.663   7.003   4.823  0.1538  0.1033  0.4378
  213MOL0     C29269   5.669   6.997   4.666  0.3365  0.6257 -0.4002
  213MOL0     C29270   5.593   7.110   4.595 -0.0548 -0.9883  0.7152
  213MOL0     C29271   5.630   7.122   4.452  0.0523 -0.6548  0.0915
  213MOL0     C29272   5.592   7.001   4.371 -0.0995 -0.4630 -0.2774
  213MOL0     N29273   5.610   7.017   4.228 -0.4740  0.2353  0.0796
  213MOL0     C29274   5.688   6.939   4.146  0.7422  0.3044  0.8180
  213MOL0     C29275   5.675   6.992   4.023  0.3371  0.1350 -0.4662
  213MOL0     C29276   5.710   6.932   3.893  0.6534 -0.2754 -0.0407
  213MOL0     C29277   5.593   6.858   3.831  0.4225  0.5733  0.5663
  213MOL0     C29278   5.661   6.782   3.715 -0.0109 -0.1266  0.7201
  213MOL0     C29279   5.557   6.722   3.612 -0.5258 -0.6763  0.8731
  213MOL0     O29280   5.490   6.610   3.673  0.5912  0.2093 -0.4995
  213MOL0     C29281   5.449   6.526   3.572  1.0450 -0.5790  0.0141
  213MOL0     C29282   5.316   6.509   3.542 -0.0840  0.1752  0.4811
  213MOL0     C29283   5.274   6.417   3.442 -0.2121  0.9926 -0.6671
  213MOL0     C29284   5.133   6.425   3.405  0.1874  0.0882  0.5434
  213MOL0     C29285   5.368   6.340   3.366 -0.0331 -0.4312  0.1317
  213MOL0     C29286   5.335   6.249   3.252 -0.7144  0.0594 -0.5770
  213MOL0     O29287   5.434   6.234   3.161 -0.6582  0.5012  0.0584
  213MOL0     C29288   5.440   6.120   3.070 -0.5298 -0.4829 -0.9473
  213MOL0     C29289   5.367   5.994   3.090  0.2953 -0.2924 -0.0065
  213MOL0     C29290   5.385   5.903   2.985  0.4596 -0.1491 -0.1123
  213MOL0     C29291   5.462   5.929   2.872 -0.2722  0.5229 -0.4960
  213MOL0     O29292   5.470   5.838   2.774 -0.5534  0.4769 -0.3613
  213MOL0     C29293   5.381   5.868   2.660  0.1702  0.3026 -1.1245
  213MOL0     C29294   5.439   5.974   2.557  0.3950  0.2032  0.0959
  213MOL0     C29295   5.582   5.943   2.519  0.0029 -0.7993  0.4118
  213MOL0     C29296   5.601   5.821   2.432  1.3508 -0.1891  0.2916
  213MOL0     C29297   5.745   5.785   2.393  0.6306  0.0078 -0.4768
  213MOL0     C29298   5.797   5.873   2.282  0.5707  0.3599 -0.5392
  213MOL0     C29299   5.948   5.895   2.277 -0.2899  0.4240  0.5504
  213MOL0     C29300   5.980   6.007   2.381  0.1141  0.9897 -0.0297
  213MOL0    Cl29301   6.160   6.007   2.407  0.4118 -0.1917  0.0320
  213MOL0     C29302   5.535   6.042   2.867 -0.6640 -0.1612  0.0251
  213MOL0     C29303   5.527   6.138   2.965  0.7220  0.5540  0.4609
  213MOL0     O29304   5.222   6.192   3.248 -0.5673  0.3339  1.0494
  213MOL0     C29305   5.507   6.344   3.415  0.0044  0.2606 -0.6594
  213MOL0     C29306   5.547   6.445   3.515 -0.1473  0.7309  0.1078
  213MOL0     N29307   5.579   7.093   4.030 -0.7387  0.6534  0.3356
  213MOL0     N29308   5.539   7.107   4.149  0.0227 -0.4714  0.2374
  213MOL0     C29309   5.203   6.613   4.975 -0.1105 -0.2940  0.5305
  213MOL0     C29310   5.067   6.561   4.956 -0.3547 -0.0121  0.8564
  213MOL0     C29311   4.604   6.607   5.064 -0.5597  0.3702 -0.4194
  213MOL0     C29312   4.536   6.603   5.189 -0.0694  0.5334 -1.1229
  213MOL0     C29313   4.391   6.613   5.191 -0.3065 -0.2076 -0.2514
  213MOL0     C29314   4.328   6.605   5.071  0.8883 -1.2494 -0.2542
  213MOL0     O29315   4.196   6.611   5.080  1.0026 -0.5085 -0.3351
  213MOL0     C29316   4.107   6.627   4.972  0.2950  0.9462 -0.5152
  213MOL0     C29317   3.972   6.650   5.043  0.0814 -1.0558  0.1928
  213MOL0     C29318   3.850   6.676   4.948  0.6183  0.2406  0.4780
  213MOL0     C29319   3.824   6.551   4.857  0.5462 -0.3224  0.4582
  213MOL0     C29320   3.683   6.557   4.819  0.4499 -0.4908 -1.4740
  213MOL0     C29321   3.556   6.552   4.823  0.3231  0.3782  0.6100
  213MOL0     C29322   4.390   6.594   4.942  0.5676 -0.3555  0.4446
  213MOL0     C29323   4.531   6.609   4.938  0.4069  0.2971 -0.0326
  213MOL0     C29324   4.597   6.631   4.812 -0.9779  1.2300  0.6611
  213MOL0     H29325   4.889   6.826   5.003  0.8519  0.1348  0.8367
  213MOL0     H29326   5.121   6.936   5.050  0.5203  0.4066 -0.2718
  213MOL0     H29327   5.407   6.894   5.202  2.0614 -1.8775  0.8209
  213MOL0     H29328   5.322   6.988   5.073  1.5889  0.7477 -0.2487
  213MOL0     H29329   5.545   7.041   5.056  2.3983 -1.2651  0.9368
  213MOL0     H29330   5.609   6.884   5.051  0.5410  0.0209 -0.7834
  213MOL0     H29331   5.486   6.883   4.806  0.3894  1.1870 -2.1433
  213MOL0     H29332   5.446   7.041   4.844 -1.1495 -1.4455  0.7405
  213MOL0     H29333   5.672   7.109   4.846 -2.2344  0.8237 -1.4315
  213MOL0     H29334   5.743   6.949   4.873  0.4565 -0.5420 -0.6997
  213MOL0     H29335   5.648   6.893   4.639 -0.2614  0.4507  0.6580
  213MOL0     H29336   5.773   7.018   4.642  0.2058  1.3561 -0.3649
  213MOL0     H29337   5.484   7.104   4.609 -0.4225 -0.2137 -1.3541
  213MOL0     H29338   5.600   7.207   4.646 -0.7514 -2.2086  3.2768
  213MOL0     H29339   5.730   7.145   4.414 -0.8254 -1.5116 -2.9982
  213MOL0     H29340   5.580   7.208   4.407  1.1417 -1.2617 -2.4619
  213MOL0     H29341   5.657   6.918   4.402  0.9819 -0.5401 -2.5531
  213MOL0     H29342   5.490   6.966   4.391  0.7061 -2.8430  0.0205
  213MOL0     H29343   5.748   6.851   4.168 -0.3859 -1.1694 -1.6518
  213MOL0     H29344   5.789   6.860   3.914  0.8541  0.0640  0.3791
  213MOL0     H29345   5.755   7.006   3.826  1.1800 -2.4783 -2.2596
  213MOL0     H29346   5.538   6.796   3.902 -0.2272 -1.2669 -1.4535
  213MOL0     H29347   5.519   6.928   3.792 -0.1001  0.4144  1.2471
  213MOL0     H29348   5.739   6.845   3.670  1.5680 -1.9040  0.8610
  213MOL0     H29349   5.728   6.707   3.758  1.5739  1.3437  0.9318
  213MOL0     H29350   5.475   6.788   3.584  0.4514 -1.1276 -3.8783
  213MOL0     H29351   5.606   6.688   3.520  1.7718 -1.0180  2.1365
  213MOL0     H29352   5.245   6.569   3.597 -1.5354 -0.3341 -0.7715
  213MOL0     H29353   5.088   6.326   3.401  3.6410 -1.6311  1.1462
  213MOL0     H29354   5.127   6.458   3.301 -0.3883 -1.1009  0.1838
  213MOL0     H29355   5.074   6.498   3.462  1.3888  1.3632  0.2029
  213MOL0     H29356   5.292   5.981   3.168 -0.0609  0.7082 -0.1807
  213MOL0     H29357   5.320   5.816   2.979  0.4765 -0.0780 -3.9262
  213MOL0     H29358   5.364   5.768   2.618 -0.5854 -1.1647  2.3552
  213MOL0     H29359   5.280   5.893   2.694  0.2085 -1.2737  0.2833
  213MOL0     H29360   5.371   5.976   2.472 -1.3216  3.0013  1.3951
  213MOL0     H29361   5.443   6.074   2.601  2.2202 -0.1500  0.8351
  213MOL0     H29362   5.644   5.942   2.610  2.2253 -1.9875 -0.9997
  213MOL0     H29363   5.623   6.027   2.462  0.5225  0.6347  2.7445
  213MOL0     H29364   5.542   5.831   2.340 -0.6339 -0.8983  1.4255
  213MOL0     H29365   5.552   5.737   2.482  1.9661  0.8860  2.8167
  213MOL0     H29366   5.805   5.807   2.482 -1.1839  1.6252  0.4225
  213MOL0     H29367   5.760   5.678   2.374 -2.6380 -1.0328  1.9609
  213MOL0     H29368   5.748   5.970   2.285 -0.1535 -0.0172  0.0840
  213MOL0     H29369   5.783   5.826   2.184  2.3103 -2.7778  0.5801
  213MOL0     H29370   5.976   5.933   2.178  1.4805  2.3845  1.7215
  213MOL0     H29371   5.999   5.802   2.304 -0.9996 -0.5340 -1.2111
  213MOL0     H29372   5.930   5.990   2.476 -1.7115  0.4420 -1.0338
  213MOL0     H29373   5.946   6.107   2.351  3.0071  2.0243 -0.1929
  213MOL0     H29374   5.598   6.045   2.779 -0.5581 -0.5897  0.0847
  213MOL0     H29375   5.583   6.229   2.945  1.0592  0.3397  0.4169
  213MOL0     H29376   5.580   6.267   3.394  0.6118 -0.0816  2.2975
  213MOL0     H29377   5.644   6.456   3.562 -0.0444 -0.5465  0.2352
  213MOL0     H29378   5.277   6.535   4.962  0.0706 -0.3351  1.7324
  213MOL0     H29379   5.049   6.456   4.933  3.9643 -0.7396 -0.0080
  213MOL0     H29380   4.577   6.599   5.289  0.1477  0.6345 -1.2089
  213MOL0     H29381   4.335   6.612   5.284  1.5363  0.4573  0.9397
  213MOL0     H29382   4.141   6.705   4.903  2.1665 -0.6949 -1.5569
  213MOL0     H29383   4.111   6.531   4.920  3.3510  0.2795  0.7403
  213MOL0     H29384   3.988   6.745   5.095  1.9414  0.3485 -2.6673
  213MOL0     H29385   3.952   6.561   5.104 -3.7193 -1.0790 -0.8242
  213MOL0     H29386   3.758   6.699   5.002  0.7112  3.8693 -0.6425
  213MOL0     H29387   3.869   6.766   4.889 -1.9422  2.6442  3.0185
  213MOL0     H29388   3.855   6.467   4.920 -1.4600 -1.4905  0.0016
  213MOL0     H29389   3.886   6.546   4.767 -0.8911  0.1507 -0.6087
  213MOL0     H29390   3.450   6.558   4.817  0.2358 -1.6724 -0.9010
  213MOL0     H29391   4.342   6.584   4.845 -0.0746  1.7403  0.5055
  213MOL0     H29392   4.670   6.711   4.824 -0.2693  0.5380  1.0150
  213MOL0     H29393   4.661   6.545   4.792  0.6529  2.5115  0.1433
  213MOL0     H29394   4.537   6.654   4.723  1.2093 -0.4417 -1.3668
  214MOL0     O29395   4.308   3.448   8.197 -0.4963  0.5927  0.1076
  214MOL0     C29396   4.248   3.552   8.171  0.3089  0.5933 -0.0393
  214MOL0     O29397   4.113   3.576   8.207 -0.9746  0.3197  0.2638
  214MOL0     C29398   4.062   3.478   8.290  0.4455  0.0495 -0.5656
  214MOL0     C29399   4.107   3.459   8.419  0.1143 -0.3432 -0.4944
  214MOL0     C29400   4.052   3.355   8.504  0.6015 -0.1041 -0.1188
  214MOL0     C29401   3.956   3.268   8.458  0.2239 -0.4224 -0.3582
  214MOL0     O29402   3.932   3.143   8.520  0.1917 -0.0498 -0.0853
  214MOL0     C29403   4.044   3.083   8.581 -0.1490 -0.4425 -0.2678
  214MOL0     C29404   4.142   3.040   8.477  0.2063 -0.3854 -0.1367
  214MOL0     C29405   4.068   2.961   8.372 -0.0500  1.3765 -0.3530
  214MOL0     C29406   4.151   2.867   8.285 -0.6602 -0.4181  0.8649
  214MOL0     C29407   4.224   2.950   8.187  0.5559  0.4446  0.4181
  214MOL0     C29408   4.311   2.862   8.090  0.3816  0.5084 -0.1977
  214MOL0     C29409   4.439   2.804   8.146  0.5904 -0.1880 -0.1543
  214MOL0     C29410   4.517   2.718   8.047 -0.0287 -0.6331  1.0941
  214MOL0     N29411   4.641   2.658   8.096  0.0050 -0.3679 -0.0101
  214MOL0     C29412   4.762   2.712   8.080 -1.5105  1.2320  0.5781
  214MOL0     C29413   4.853   2.626   8.128 -0.1521  0.0391 -0.3487
  214MOL0     C29414   5.002   2.625   8.104  0.2495  0.7667 -0.8263
  214MOL0     C29415   5.032   2.648   7.959  0.2576  0.1892 -0.4623
  214MOL0     C29416   5.162   2.581   7.911 -0.4808 -0.2173  0.5046
  214MOL0     C29417   5.283   2.640   7.987  0.8686 -0.7134  1.0696
  214MOL0     O29418   5.298   2.783   7.956  0.2214  0.0871  0.0091
  214MOL0     C29419   5.389   2.865   8.005 -0.3269 -0.1482 -0.1905
  214MOL0     C29420   5.434   2.961   7.914 -0.5206  0.3555 -0.0497
  214MOL0     C29421   5.546   3.037   7.949  0.1608 -0.1526  0.3639
  214MOL0     C29422   5.582   3.142   7.849  0.0784 -0.6759  1.0862
  214MOL0     C29423   5.627   3.005   8.058 -0.4786  0.8942 -0.8258
  214MOL0     C29424   5.751   3.072   8.084 -0.4004 -0.2905  0.0153
  214MOL0     O29425   5.788   3.079   8.219  0.5519  0.7958 -0.2833
  214MOL0     C29426   5.889   3.154   8.271 -0.0706 -1.3338 -0.3004
  214MOL0     C29427   5.965   3.246   8.201 -0.0650 -0.1270  0.2669
  214MOL0     C29428   6.068   3.314   8.259 -0.9614 -1.0547 -0.6949
  214MOL0     C29429   6.104   3.311   8.390  0.8084  0.3495 -0.9777
  214MOL0     O29430   6.207   3.387   8.440 -0.2842  0.6458  0.4447
  214MOL0     C29431   6.276   3.324   8.555 -0.4918 -1.1566  0.3660
  214MOL0     C29432   6.404   3.403   8.593  0.3979  0.4468  0.3740
  214MOL0     C29433   6.513   3.394   8.487 -0.6239 -0.1387 -0.0774
  214MOL0     C29434   6.569   3.249   8.484  0.3793  0.5372  0.4377
  214MOL0     C29435   6.687   3.233   8.375  0.0263  0.0788 -0.3807
  214MOL0     C29436   6.761   3.097   8.372  0.3287 -0.8478 -0.7995
  214MOL0     C29437   6.787   3.048   8.513 -0.5829  0.1294 -0.2292
  214MOL0     C29438   6.885   2.928   8.516  0.4837  0.1860  0.0430
  214MOL0    Cl29439   6.819   2.779   8.432 -0.0029 -0.4129  0.2965
  214MOL0     C29440   6.014   3.234   8.470 -0.1674  1.0382  0.1925
  214MOL0     C29441   5.915   3.146   8.408  0.1478 -0.4167 -0.6799
  214MOL0     O29442   5.824   3.098   7.983 -0.3261  0.6668  0.2208
  214MOL0     C29443   5.566   2.911   8.152  0.5531  1.0459  0.2537
  214MOL0     C29444   5.455   2.832   8.122  0.2428  0.4869  0.0005
  214MOL0     N29445   4.779   2.518   8.168  0.5030  0.7123  0.5923
  214MOL0     N29446   4.654   2.528   8.143  0.0751  0.4066 -0.3256
  214MOL0     C29447   3.920   3.278   8.320  0.0037  0.2278  0.9030
  214MOL0     C29448   3.962   3.390   8.241  0.1120  0.2327 -0.8496
  214MOL0     C29449   4.323   3.658   8.083  0.7544  1.2547 -0.3447
  214MOL0     C29450   4.282   3.677   7.955 -0.5592 -0.6614  0.3492
  214MOL0     C29451   4.353   3.759   7.871 -0.3559 -0.6094 -0.6972
  214MOL0     C29452   4.484   3.814   7.901  0.5726 -0.9542  0.3460
  214MOL0     O29453   4.564   3.862   7.795  0.0677  0.3607  0.4039
  214MOL0     C29454   4.692   3.914   7.833 -0.4775  0.0415  0.3133
  214MOL0     C29455   4.811   3.804   7.819  1.5080 -0.1515  0.8384
  214MOL0     C29456   4.937   3.843   7.888  0.0623  0.2050 -0.3048
  214MOL0     C29457   5.009   3.959   7.814 -0.2677 -0.5936  0.2770
  214MOL0     C29458   5.124   4.006   7.886  0.9810 -0.0186 -0.5863
  214MOL0     C29459   5.216   4.031   7.952  0.6109 -1.3751 -0.6525
  214MOL0     C29460   4.530   3.789   8.034 -0.7137  0.3223 -0.8355
  214MOL0     C29461   4.450   3.713   8.126  0.4386 -0.8471  0.2416
  214MOL0     C29462   4.486   3.692   8.274  0.3438 -0.8660  0.8767
  214MOL0     H29463   4.184   3.522   8.463  0.7575 -1.3301 -0.1684
  214MOL0     H29464   4.093   3.352   8.604  3.5044  1.1113 -1.1662
  214MOL0     H29465   4.007   2.992   8.631  0.1329 -0.8195 -0.7421
  214MOL0     H29466   4.093   3.150   8.653  1.7940  0.6561 -2.5022
  214MOL0     H29467   4.187   3.127   8.428 -1.2637  0.7265  0.3874
  214MOL0     H29468   4.214   2.977   8.530  0.1301  0.7649  1.4087
  214MOL0     H29469   3.997   2.907   8.435  1.4121 -2.1335 -1.4604
  214MOL0     H29470   4.008   3.027   8.309 -2.8369  2.7976  3.4506
  214MOL0     H29471   4.228   2.824   8.349 -0.1716  0.2061  0.7078
  214MOL0     H29472   4.103   2.777   8.246  0.2488 -0.5546  0.0053
  214MOL0     H29473   4.288   3.016   8.246  0.7231 -0.8785  1.7849
  214MOL0     H29474   4.159   3.020   8.135 -0.1024  0.0220  0.6620
  214MOL0     H29475   4.253   2.777   8.052  0.2439  1.6040 -2.5905
  214MOL0     H29476   4.334   2.926   8.005  2.4335 -0.3761 -0.3744
  214MOL0     H29477   4.399   2.733   8.219 -2.2088  0.2372 -1.1189
  214MOL0     H29478   4.497   2.884   8.192 -1.1695 -0.6370  3.1201
  214MOL0     H29479   4.453   2.637   8.009  0.0239  0.0594 -0.5893
  214MOL0     H29480   4.532   2.773   7.953 -1.1009 -5.2575 -2.1578
  214MOL0     H29481   4.795   2.796   8.021 -2.0695  1.4900  0.6281
  214MOL0     H29482   5.044   2.531   8.142  2.7072  1.4959 -1.5300
  214MOL0     H29483   5.048   2.706   8.163 -0.1267  2.3535 -2.6168
  214MOL0     H29484   4.959   2.606   7.889  0.1138  0.3381 -0.4010
  214MOL0     H29485   5.037   2.757   7.950  0.6872  0.4766  2.4988
  214MOL0     H29486   5.155   2.473   7.927  0.7132 -0.2717  0.7296
  214MOL0     H29487   5.184   2.584   7.804  0.9635 -1.0177  0.7472
  214MOL0     H29488   5.273   2.627   8.095 -0.1395 -2.2990  0.8250
  214MOL0     H29489   5.375   2.589   7.959  2.3871  1.4043  1.9160
  214MOL0     H29490   5.371   2.972   7.826 -2.6043  0.6034  1.4027
  214MOL0     H29491   5.494   3.186   7.801  1.0378  0.0202 -0.0784
  214MOL0     H29492   5.635   3.099   7.764 -1.4911  2.9902 -2.0320
  214MOL0     H29493   5.638   3.227   7.889  0.7136 -0.6305  0.1138
  214MOL0     H29494   5.946   3.272   8.098 -0.3326  2.7776  0.9529
  214MOL0     H29495   6.127   3.379   8.196 -1.5745  1.5399  1.2592
  214MOL0     H29496   6.211   3.327   8.643 -0.8241 -0.2694  0.1045
  214MOL0     H29497   6.301   3.223   8.522  1.7213  0.3863 -3.3093
  214MOL0     H29498   6.366   3.505   8.607 -0.3297  0.6329 -2.3324
  214MOL0     H29499   6.444   3.364   8.686  3.2551 -0.5264 -1.1462
  214MOL0     H29500   6.597   3.461   8.509 -0.3621  0.5798 -2.8699
  214MOL0     H29501   6.471   3.421   8.389 -0.8919 -2.3188 -0.6141
  214MOL0     H29502   6.484   3.184   8.458  1.7613 -0.7198 -1.2290
  214MOL0     H29503   6.602   3.221   8.584  0.1807 -1.8445 -0.0886
  214MOL0     H29504   6.655   3.235   8.270  1.1309  0.2712 -0.7339
  214MOL0     H29505   6.765   3.309   8.385  0.8889 -0.5442 -1.9832
  214MOL0     H29506   6.854   3.114   8.318  0.4675 -1.8791 -0.9060
  214MOL0     H29507   6.700   3.026   8.316  0.6955 -2.5265  0.8331
  214MOL0     H29508   6.692   3.019   8.559 -0.2281 -2.7568 -1.1031
  214MOL0     H29509   6.849   3.126   8.558  0.0723 -0.1972 -0.5530
  214MOL0     H29510   6.901   2.896   8.620  0.1829 -1.1098 -0.2866
  214MOL0     H29511   6.980   2.960   8.471 -0.9429  2.3426 -1.6204
  214MOL0     H29512   6.039   3.221   8.575 -1.0190 -0.9329  0.2040
  214MOL0     H29513   5.868   3.068   8.468  0.3733  0.3860  0.5782
  214MOL0     H29514   5.611   2.890   8.248  2.8708 -2.4843 -1.4135
  214MOL0     H29515   5.423   2.750   8.185 -0.4143 -0.0250 -0.9716
  214MOL0     H29516   3.856   3.200   8.281 -0.3374  0.6187  0.6693
  214MOL0     H29517   3.926   3.397   8.138  0.3875  0.4535 -0.9299
  214MOL0     H29518   4.187   3.635   7.925 -0.9268  1.7026 -2.1977
  214MOL0     H29519   4.325   3.773   7.767  0.6919  1.4147 -0.7527
  214MOL0     H29520   4.731   3.991   7.765  0.7097  0.4117  1.3785
  214MOL0     H29521   4.692   3.967   7.929  0.1384 -0.2011  0.4497
  214MOL0     H29522   4.832   3.776   7.715 -1.0109  1.1201 -0.1060
  214MOL0     H29523   4.774   3.708   7.857  1.7204 -2.3333 -3.6761
  214MOL0     H29524   4.914   3.877   7.990 -0.8652 -0.8377 -0.1504
  214MOL0     H29525   4.996   3.754   7.908 -1.5694 -0.0055  5.1215
  214MOL0     H29526   4.950   4.050   7.799  0.3482 -0.4352 -1.4565
  214MOL0     H29527   5.039   3.923   7.715 -1.4923 -2.5828  0.5926
  214MOL0     H29528   5.299   4.070   8.006  1.4792  0.8352 -3.3214
  214MOL0     H29529   4.631   3.814   8.065  0.7531 -0.9470 -4.1484
  214MOL0     H29530   4.575   3.746   8.307  1.5394 -3.1214  1.5897
  214MOL0     H29531   4.396   3.723   8.326  0.3767  1.9126 -0.5494
  214MOL0     H29532   4.515   3.594   8.312 -0.8587 -1.7597 -0.4199
  215MOL0     O29533   9.596  11.363   5.060 -0.5492  0.5932 -0.3892
  215MOL0     C29534   9.685  11.381   4.971  0.6701 -0.5468 -0.2468
  215MOL0     O29535   9.766  11.484   4.985 -0.0358 -0.8769  0.3024
  215MOL0     C29536   9.758  11.582   5.074 -0.2315  0.2740 -0.5177
  215MOL0     C29537   9.867  11.593   5.166  0.6360  0.1529 -0.6832
  215MOL0     C29538   9.876  11.706   5.241  0.3323  0.2286  0.4721
  215MOL0     C29539   9.768  11.799   5.253  0.7650  0.0779 -0.0256
  215MOL0     O29540   9.773  11.920   5.331  0.2810 -0.2727  0.3796
  215MOL0     C29541   9.815  11.904   5.467 -0.1938  0.5721  0.0232
  215MOL0     C29542   9.700  11.923   5.565  0.0778 -0.3742 -0.2678
  215MOL0     C29543   9.629  12.063   5.555 -0.3413 -0.2955  0.2332
  215MOL0     C29544   9.624  12.136   5.687 -0.1154  0.2577 -0.3622
  215MOL0     C29545   9.517  12.247   5.683  0.3998 -0.4024  0.0325
  215MOL0     C29546   9.544  12.345   5.803 -0.3583  0.5747 -0.1629
  215MOL0     C29547   9.661  12.441   5.791  0.1239  1.3715 -0.1823
  215MOL0     C29548   9.695  12.518   5.927  0.5281  0.7763 -0.0590
  215MOL0     N29549   9.744  12.652   5.906  0.3616  0.8592  0.8606
  215MOL0     C29550   9.869  12.667   5.845  0.3692  0.0375 -0.5426
  215MOL0     C29551   9.878  12.800   5.836  0.8536  0.6324  0.2438
  215MOL0     C29552   9.991  12.886   5.799 -0.5303  0.7439  0.2472
  215MOL0     C29553  10.006  12.896   5.641 -0.7926  0.5724 -1.0300
  215MOL0     C29554  10.115  13.000   5.615 -1.0674 -0.7905  0.4530
  215MOL0     C29555  10.251  12.973   5.693  0.9730  0.4264  0.8267
  215MOL0     O29556  10.282  13.088   5.782 -0.6144 -0.0612 -0.2169
  215MOL0     C29557  10.377  13.090   5.878 -0.5922  0.6039 -0.8857
  215MOL0     C29558  10.372  13.187   5.980  0.1748 -0.0993 -0.1817
  215MOL0     C29559  10.464  13.206   6.087 -0.3088 -0.0318 -0.3046
  215MOL0     C29560  10.433  13.316   6.188  0.6270 -0.6905  0.7241
  215MOL0     C29561  10.562  13.107   6.098  0.3028 -0.9245  0.2572
  215MOL0     C29562  10.656  13.113   6.217  0.2039  0.2025  0.3325
  215MOL0     O29563  10.763  13.034   6.194 -0.0070  0.1150 -0.1898
  215MOL0     C29564  10.857  13.025   6.298  0.0216 -0.3158  1.2376
  215MOL0     C29565  10.889  12.898   6.338  0.5460  0.0334  0.1015
  215MOL0     C29566  10.978  12.878   6.438  0.1515  0.6610 -0.2591
  215MOL0     C29567  11.048  12.983   6.501 -0.3337  0.1696 -0.0355
  215MOL0     O29568  11.135  12.955   6.603  0.8565  0.6916 -0.1521
  215MOL0     C29569  11.236  13.058   6.617 -0.8077 -0.3305 -0.5210
  215MOL0     C29570  11.350  13.017   6.706 -0.0283 -0.5215 -0.1646
  215MOL0     C29571  11.406  12.876   6.679 -0.2054  0.3949  0.8422
  215MOL0     C29572  11.523  12.866   6.789  0.1889  0.0955 -0.6392
  215MOL0     C29573  11.538  12.725   6.837  0.1796  0.0609  0.2089
  215MOL0     C29574  11.561  12.623   6.718 -0.1729 -0.0189  0.5849
  215MOL0     C29575  11.588  12.488   6.776  0.0576  0.0729 -0.0107
  215MOL0     C29576  11.587  12.371   6.674 -0.5303  0.0752 -0.5633
  215MOL0    Cl29577  11.732  12.400   6.559  0.2702  0.3377  0.2331
  215MOL0     C29578  11.019  13.110   6.455 -0.1912  0.0096 -0.1050
  215MOL0     C29579  10.913  13.139   6.367  0.1061  0.0769  0.3310
  215MOL0     O29580  10.632  13.173   6.320  0.1802 -0.1513 -0.5702
  215MOL0     C29581  10.580  13.015   5.990 -0.2824  0.9486  0.2842
  215MOL0     C29582  10.488  13.009   5.892  0.5896  0.9528 -0.0803
  215MOL0     N29583   9.749  12.854   5.856  0.0261 -0.3527  0.0233
  215MOL0     N29584   9.671  12.766   5.898 -0.3855  0.0938 -0.5096
  215MOL0     C29585   9.660  11.782   5.170  1.0308  1.0219  0.5482
  215MOL0     C29586   9.650  11.678   5.073 -0.2118  0.3222  0.5415
  215MOL0     C29587   9.685  11.307   4.851  0.7456  0.0157 -0.3500
  215MOL0     C29588   9.804  11.312   4.773 -0.1446  0.6550  0.0830
  215MOL0     C29589   9.810  11.256   4.651  0.1891  0.5689  0.6344
  215MOL0     C29590   9.696  11.199   4.593 -0.6379  0.8196  0.4658
  215MOL0     O29591   9.694  11.155   4.461  0.5224 -0.1444  1.4484
  215MOL0     C29592   9.743  11.242   4.357  0.3321 -1.1010  0.4056
  215MOL0     C29593   9.799  11.156   4.245 -0.5099  1.0247  0.1403
  215MOL0     C29594   9.705  11.052   4.189  0.1742  0.5653  0.1012
  215MOL0     C29595   9.781  10.933   4.120 -0.1213  0.1815 -0.0867
  215MOL0     C29596   9.877  10.979   4.014  0.2856 -0.4160  0.3194
  215MOL0     C29597   9.956  11.017   3.929 -0.4978 -0.2661  0.0140
  215MOL0     C29598   9.576  11.200   4.660 -0.1373 -0.7706 -0.4566
  215MOL0     C29599   9.561  11.248   4.792 -0.3238 -1.2505 -0.4481
  215MOL0     C29600   9.425  11.240   4.857 -0.3514 -1.1111 -0.3823
  215MOL0     H29601   9.949  11.523   5.156 -0.2223 -0.7853 -1.4428
  215MOL0     H29602   9.958  11.718   5.312  1.8558 -0.7546 -1.0381
  215MOL0     H29603   9.893  11.978   5.489 -2.2483  3.1571 -0.7547
  215MOL0     H29604   9.847  11.801   5.480  2.8298  1.2548 -1.1609
  215MOL0     H29605   9.635  11.836   5.551 -0.8351  0.6208 -2.7864
  215MOL0     H29606   9.738  11.917   5.668 -1.9154  1.9534  0.7094
  215MOL0     H29607   9.680  12.125   5.480  1.5354 -2.4243 -0.3561
  215MOL0     H29608   9.527  12.056   5.517 -0.1908  0.0373 -0.2431
  215MOL0     H29609   9.598  12.082   5.778  0.8807  0.3544 -0.0078
  215MOL0     H29610   9.723  12.176   5.712 -0.5273  0.4500  1.0050
  215MOL0     H29611   9.415  12.206   5.680  0.1481  0.2220 -0.1674
  215MOL0     H29612   9.527  12.306   5.591 -0.5350 -0.1178  0.1022
  215MOL0     H29613   9.455  12.407   5.812  0.2756  1.3130  1.4660
  215MOL0     H29614   9.545  12.296   5.901 -2.8677 -1.1452 -0.8938
  215MOL0     H29615   9.610  12.516   5.729 -4.3225  0.2555  1.7400
  215MOL0     H29616   9.749  12.390   5.751 -1.1756  0.4217 -1.9941
  215MOL0     H29617   9.613  12.534   5.996  0.6104  2.5078 -0.3174
  215MOL0     H29618   9.774  12.459   5.976  1.4839  0.8623 -1.4284
  215MOL0     H29619   9.947  12.594   5.825 -0.1925 -0.4341 -1.0454
  215MOL0     H29620  10.079  12.845   5.849 -0.1098  0.1839 -0.9155
  215MOL0     H29621   9.973  12.987   5.836  0.8485  1.7858 -1.7451
  215MOL0     H29622  10.033  12.799   5.598 -0.0939  0.6547 -0.7978
  215MOL0     H29623   9.909  12.932   5.605 -2.6730 -0.1676  2.8790
  215MOL0     H29624  10.146  12.997   5.510 -2.8397  1.4848 -0.2271
  215MOL0     H29625  10.086  13.104   5.633  0.8068  0.4215 -2.6043
  215MOL0     H29626  10.253  12.877   5.744  1.2929  1.0515  2.0277
  215MOL0     H29627  10.334  12.976   5.622 -0.6770  1.3209 -1.1768
  215MOL0     H29628  10.290  13.258   5.985 -1.4926 -1.9535  0.0036
  215MOL0     H29629  10.520  13.373   6.222 -0.2028  1.2365 -0.2391
  215MOL0     H29630  10.391  13.266   6.276  1.6536  0.5917  2.0057
  215MOL0     H29631  10.365  13.395   6.153  0.7576 -0.1913  1.5673
  215MOL0     H29632  10.845  12.820   6.276  0.2055  0.1890  0.1431
  215MOL0     H29633  10.993  12.776   6.471 -1.3014  1.1489  2.1735
  215MOL0     H29634  11.276  13.084   6.519 -2.8414 -0.1042 -1.3525
  215MOL0     H29635  11.188  13.141   6.670  4.1351  0.6470  3.1300
  215MOL0     H29636  11.422  13.098   6.722 -0.8543  0.3719 -0.8434
  215MOL0     H29637  11.294  13.013   6.800 -1.0218  1.0076 -0.6575
  215MOL0     H29638  11.439  12.867   6.575 -0.5878 -1.6033  0.8609
  215MOL0     H29639  11.324  12.806   6.693  1.2198 -2.0755 -2.1042
  215MOL0     H29640  11.508  12.926   6.879 -2.0765 -2.5152  0.8675
  215MOL0     H29641  11.619  12.896   6.746  0.1037  1.5027  0.0821
  215MOL0     H29642  11.614  12.719   6.915  0.5394 -0.9626 -0.2020
  215MOL0     H29643  11.449  12.686   6.888  1.6082 -3.9300 -0.0018
  215MOL0     H29644  11.646  12.658   6.658  0.4129  1.9725  2.4502
  215MOL0     H29645  11.481  12.622   6.643  2.9734 -0.7387 -3.0712
  215MOL0     H29646  11.518  12.445   6.850  1.6506 -3.3382 -0.2718
  215MOL0     H29647  11.680  12.491   6.835 -0.7144  0.8365  1.1987
  215MOL0     H29648  11.497  12.354   6.615 -1.3270 -4.0737  1.4660
  215MOL0     H29649  11.604  12.279   6.732  1.2963 -0.0335 -1.2074
  215MOL0     H29650  11.065  13.199   6.497  2.6400 -1.9825  1.3044
  215MOL0     H29651  10.890  13.244   6.351  1.0355  0.6435  2.4252
  215MOL0     H29652  10.667  12.951   5.982 -2.0015 -1.3370 -1.4571
  215MOL0     H29653  10.507  12.933   5.817 -2.2522  0.7362 -0.6907
  215MOL0     H29654   9.572  11.846   5.175 -0.2208 -0.6731  1.0107
  215MOL0     H29655   9.572  11.679   4.998  2.0707  3.1871 -2.0654
  215MOL0     H29656   9.897  11.360   4.806 -1.0130  1.2702  1.7750
  215MOL0     H29657   9.905  11.260   4.598  0.2158  2.1671  0.7447
  215MOL0     H29658   9.662  11.296   4.307  0.3109 -1.0146  0.5335
  215MOL0     H29659   9.809  11.318   4.400 -0.9439  0.0986  0.3084
  215MOL0     H29660   9.879  11.096   4.288 -1.1641 -2.4251 -2.9656
  215MOL0     H29661   9.833  11.228   4.169 -1.7753  2.4809  0.8834
  215MOL0     H29662   9.643  11.012   4.269  3.2303  1.1767  3.0004
  215MOL0     H29663   9.636  11.097   4.118 -2.0270 -1.5300  0.7737
  215MOL0     H29664   9.703  10.870   4.078 -1.6365 -0.0802  2.8838
  215MOL0     H29665   9.841  10.877   4.192 -0.3552  2.1986  1.7867
  215MOL0     H29666  10.005  11.066   3.847 -0.2934 -1.6712 -0.7379
  215MOL0     H29667   9.489  11.149   4.620 -1.2692 -0.2534  1.2285
  215MOL0     H29668   9.427  11.186   4.952 -1.2405  1.3646  1.1391
  215MOL0     H29669   9.398  11.346   4.865  2.6928 -0.1027 -1.9130
  215MOL0     H29670   9.350  11.201   4.787  0.0830  3.2180 -3.6969
  216MOL0     O29671  10.479   5.333   9.323  0.3114  0.2637  0.4272
  216MOL0     C29672  10.354   5.323   9.301 -0.0221  0.3319  0.5315
  216MOL0     O29673  10.283   5.404   9.223 -0.8301 -0.2496 -0.2243
  216MOL0     C29674  10.348   5.488   9.132 -0.0875  0.6238  0.1020
  216MOL0     C29675  10.285   5.608   9.092  0.9368  0.8388  0.2440
  216MOL0     C29676  10.338   5.697   9.000  0.1941 -0.8519  0.1166
  216MOL0     C29677  10.464   5.683   8.942  0.0736  0.9544 -0.2122
  216MOL0     O29678  10.530   5.779   8.875  0.2765  0.1845 -0.8853
  216MOL0     C29679  10.451   5.857   8.784  0.0559  0.5590  0.7032
  216MOL0     C29680  10.553   5.896   8.670  0.3176  0.3720  0.3149
  216MOL0     C29681  10.644   6.002   8.704  0.1431  0.6900 -0.2777
  216MOL0     C29682  10.751   6.039   8.595  0.3006 -0.0945  0.9501
  216MOL0     C29683  10.846   6.155   8.648  0.1115 -0.0739  0.4775
  216MOL0     C29684  10.962   6.202   8.550 -0.2872  0.1983 -0.1455
  216MOL0     C29685  11.028   6.326   8.607  0.8469 -0.0792 -0.8292
  216MOL0     C29686  11.102   6.298   8.743 -0.4128  0.1485  0.7440
  216MOL0     N29687  11.233   6.226   8.735 -0.1147 -0.5679 -0.4356
  216MOL0     C29688  11.239   6.093   8.724 -0.8355 -0.4322  0.1430
  216MOL0     C29689  11.370   6.065   8.718  0.1354  0.1668 -0.9584
  216MOL0     C29690  11.439   5.931   8.710 -0.0300 -0.6036 -0.1849
  216MOL0     C29691  11.587   5.949   8.676  0.0725 -1.0634 -0.6531
  216MOL0     C29692  11.636   5.818   8.654  0.3872 -0.8961 -0.0161
  216MOL0     C29693  11.777   5.810   8.589 -0.4269  0.1257 -0.6575
  216MOL0     O29694  11.869   5.880   8.673 -0.1121 -0.3074 -0.6592
  216MOL0     C29695  11.999   5.842   8.672  0.9073 -0.1392  0.0331
  216MOL0     C29696  12.058   5.743   8.586 -0.5723 -0.3597  0.8150
  216MOL0     C29697  12.189   5.704   8.590 -0.2122  0.0282  1.0249
  216MOL0     C29698  12.236   5.599   8.490 -0.3237  0.0395  0.0983
  216MOL0     C29699  12.270   5.749   8.696  1.0732 -0.2958  0.2728
  216MOL0     C29700  12.411   5.725   8.704 -0.8125  0.5690  0.5313
  216MOL0     O29701  12.498   5.729   8.590 -0.5747 -0.2037  0.9989
  216MOL0     C29702  12.630   5.706   8.627  0.5640 -1.3717  1.2063
  216MOL0     C29703  12.720   5.801   8.682 -0.3559 -0.4536  0.8060
  216MOL0     C29704  12.861   5.783   8.693  0.4477  0.5736  0.4286
  216MOL0     C29705  12.919   5.660   8.650  0.0137  0.9963  0.4649
  216MOL0     O29706  13.052   5.617   8.676  0.0296 -0.6817 -0.5452
  216MOL0     C29707  13.141   5.708   8.743 -0.2833  0.5083  0.0214
  216MOL0     C29708  13.264   5.633   8.791  0.7014 -0.0866  0.0122
  216MOL0     C29709  13.206   5.506   8.867  0.1432  0.0904  0.1578
  216MOL0     C29710  13.310   5.448   8.960  0.0354  0.2021  0.3336
  216MOL0     C29711  13.370   5.546   9.053 -0.6045 -0.2566  0.2806
  216MOL0     C29712  13.268   5.626   9.142 -0.4632  1.0336 -0.5121
  216MOL0     C29713  13.343   5.678   9.271 -0.6697 -0.3026 -0.6301
  216MOL0     C29714  13.464   5.769   9.245 -0.1950  0.1513  0.6731
  216MOL0    Cl29715  13.487   5.874   9.395  0.3426 -0.6269  0.5080
  216MOL0     C29716  12.835   5.563   8.591  0.4484 -0.6294 -0.9235
  216MOL0     C29717  12.695   5.582   8.582 -0.6919  0.1638 -0.2987
  216MOL0     O29718  12.452   5.715   8.818  0.5416  0.5522  0.0560
  216MOL0     C29719  12.212   5.838   8.784  0.0061  0.3221 -0.2280
  216MOL0     C29720  12.081   5.885   8.774 -0.3425  0.1380 -0.5258
  216MOL0     N29721  11.438   6.185   8.733  0.5430  1.1291  1.0384
  216MOL0     N29722  11.357   6.278   8.752 -0.1757 -0.1634  0.7606
  216MOL0     C29723  10.526   5.568   8.987  0.0187  0.4175 -0.2583
  216MOL0     C29724  10.478   5.473   9.073 -0.2155  0.4173  0.1399
  216MOL0     C29725  10.260   5.217   9.370 -0.1549 -0.6059  0.1328
  216MOL0     C29726  10.126   5.241   9.365  0.2974 -0.1788  0.2453
  216MOL0     C29727  10.039   5.137   9.421 -0.4839  0.3668 -0.5883
  216MOL0     C29728  10.094   5.031   9.499 -0.0811  0.9229  1.0354
  216MOL0     O29729  10.028   4.928   9.549  0.8551  0.0174 -1.1285
  216MOL0     C29730   9.904   4.883   9.490 -0.6970  0.9045  0.3357
  216MOL0     C29731   9.920   4.813   9.352  0.0258  0.0639 -0.0554
  216MOL0     C29732   9.944   4.663   9.365  0.3180 -0.2345 -0.2360
  216MOL0     C29733  10.095   4.631   9.399 -0.2237  0.0418 -0.4712
  216MOL0     C29734  10.125   4.485   9.393 -0.6782 -0.4260 -0.6122
  216MOL0     C29735  10.136   4.363   9.394  0.3313 -0.2430  0.1099
  216MOL0     C29736  10.235   5.017   9.510 -0.3218  0.1906 -0.5868
  216MOL0     C29737  10.324   5.111   9.452  0.3346 -1.5995 -0.8064
  216MOL0     C29738  10.471   5.097   9.496  0.5520 -0.7784  0.4091
  216MOL0     H29739  10.184   5.630   9.125  0.8417  1.6205 -0.5308
  216MOL0     H29740  10.279   5.784   8.976  1.1347  0.1913  1.4595
  216MOL0     H29741  10.410   5.939   8.843 -1.6118  0.6611 -0.5124
  216MOL0     H29742  10.366   5.807   8.736 -0.1300  0.4972  1.0959
  216MOL0     H29743  10.623   5.813   8.653  0.6163 -0.1290  3.3152
  216MOL0     H29744  10.508   5.933   8.578  2.7629  0.1652 -1.0461
  216MOL0     H29745  10.580   6.084   8.736 -1.2408 -1.0503  1.6213
  216MOL0     H29746  10.693   5.969   8.796 -3.6127 -4.0597  0.4032
  216MOL0     H29747  10.819   5.955   8.581  1.1684 -0.4833  5.7891
  216MOL0     H29748  10.711   6.082   8.502 -0.7027 -0.6875  1.0967
  216MOL0     H29749  10.890   6.126   8.744 -3.4179 -0.7311  2.0514
  216MOL0     H29750  10.772   6.232   8.671  0.5043 -0.5470  3.8846
  216MOL0     H29751  11.026   6.116   8.529 -0.8163  0.3873 -2.8528
  216MOL0     H29752  10.924   6.213   8.449 -1.9476 -0.8883  0.3323
  216MOL0     H29753  10.964   6.409   8.639  2.4189  1.7362 -2.1335
  216MOL0     H29754  11.093   6.363   8.528 -0.5686  1.7535 -1.2122
  216MOL0     H29755  11.133   6.394   8.786 -0.2228  0.7070 -0.5766
  216MOL0     H29756  11.035   6.247   8.812  0.8411 -0.6834  1.3871
  216MOL0     H29757  11.152   6.027   8.722  0.4083 -2.1222 -1.1157
  216MOL0     H29758  11.390   5.858   8.645  0.4187 -1.4151  0.3740
  216MOL0     H29759  11.439   5.889   8.811  1.3231  1.9556  0.9744
  216MOL0     H29760  11.597   6.006   8.583  2.3473 -1.2038 -0.5423
  216MOL0     H29761  11.637   5.986   8.766  3.4810  2.5747 -3.6155
  216MOL0     H29762  11.639   5.764   8.749  2.1805  0.6059  0.8482
  216MOL0     H29763  11.571   5.769   8.581  3.7121 -4.6450 -0.8591
  216MOL0     H29764  11.795   5.703   8.575 -2.8416 -0.3507 -0.5029
  216MOL0     H29765  11.787   5.864   8.494 -1.0375  3.2361  0.9328
  216MOL0     H29766  12.007   5.710   8.496 -1.1694 -1.0649  1.3979
  216MOL0     H29767  12.240   5.623   8.383  1.1723 -3.0134 -0.6225
  216MOL0     H29768  12.181   5.505   8.500  0.7210 -0.6981 -0.9016
  216MOL0     H29769  12.339   5.564   8.495 -0.1775  0.0109 -1.9986
  216MOL0     H29770  12.685   5.895   8.722  1.6012 -0.3427  2.4653
  216MOL0     H29771  12.914   5.867   8.737 -1.0077  0.9608  1.5324
  216MOL0     H29772  13.171   5.790   8.677  2.6737  0.5131  1.2251
  216MOL0     H29773  13.094   5.756   8.829 -2.2439 -1.5437  0.1960
  216MOL0     H29774  13.315   5.594   8.703 -1.1663 -1.1884 -0.6424
  216MOL0     H29775  13.326   5.703   8.848  2.2974 -0.4616 -1.1856
  216MOL0     H29776  13.178   5.438   8.786 -0.5675  1.3729 -0.7085
  216MOL0     H29777  13.114   5.525   8.923  0.8667 -0.1743  1.4661
  216MOL0     H29778  13.397   5.415   8.902 -0.6749 -0.7141 -0.2372
  216MOL0     H29779  13.275   5.361   9.017 -0.7432  1.3917  1.7218
  216MOL0     H29780  13.436   5.500   9.127  0.8063  2.0927  0.5902
  216MOL0     H29781  13.437   5.613   8.998 -0.9071  0.7422  1.0788
  216MOL0     H29782  13.182   5.570   9.179 -0.9666  1.7887 -0.5169
  216MOL0     H29783  13.232   5.714   9.089  0.2269  0.0482 -2.7475
  216MOL0     H29784  13.381   5.597   9.334  0.3738 -0.4567 -1.4326
  216MOL0     H29785  13.263   5.732   9.324 -1.5868  0.3271 -2.5790
  216MOL0     H29786  13.441   5.825   9.154  0.1502  1.4036  1.3325
  216MOL0     H29787  13.556   5.712   9.227  0.1676  0.7229  0.6701
  216MOL0     H29788  12.891   5.473   8.568  1.3108 -1.3856  3.2189
  216MOL0     H29789  12.635   5.504   8.537 -0.4005  0.0244 -0.4443
  216MOL0     H29790  12.269   5.874   8.869 -1.7477  0.3435  0.9899
  216MOL0     H29791  12.043   5.951   8.852  0.2761  1.0131 -0.9484
  216MOL0     H29792  10.624   5.542   8.948  0.6242  0.9899  0.8067
  216MOL0     H29793  10.523   5.376   9.091 -0.2320  0.3055 -0.3951
  216MOL0     H29794  10.082   5.318   9.302 -1.0604 -1.5880 -0.5798
  216MOL0     H29795   9.931   5.141   9.420 -0.5268  0.0686  0.8578
  216MOL0     H29796   9.851   4.825   9.565 -0.0037  1.2608  1.1162
  216MOL0     H29797   9.823   4.952   9.468 -0.2423  1.2996 -0.1294
  216MOL0     H29798  10.006   4.857   9.299  0.3694 -1.7362 -1.0608
  216MOL0     H29799   9.834   4.829   9.288 -1.4885 -0.1685  1.8312
  216MOL0     H29800   9.873   4.617   9.435 -3.8062  2.5630 -2.1581
  216MOL0     H29801   9.943   4.618   9.266  1.6600  1.3512 -1.0017
  216MOL0     H29802  10.137   4.673   9.491 -0.0112 -1.1939  0.0227
  216MOL0     H29803  10.142   4.682   9.314  2.5454 -0.9846  0.3512
  216MOL0     H29804  10.145   4.257   9.389  2.1329 -0.1052 -0.2959
  216MOL0     H29805  10.257   4.934   9.576 -1.9891  1.1980  1.3448
  216MOL0     H29806  10.500   5.013   9.559  0.4563 -0.0934  1.4104
  216MOL0     H29807  10.533   5.096   9.407 -0.7624  1.6644 -0.6429
  216MOL0     H29808  10.498   5.188   9.551  0.7231  0.1027 -1.0973
  217MOL0     O29809   7.823   6.331  11.138  0.7940  0.3571 -0.3415
  217MOL0     C29810   7.891   6.310  11.239 -1.2378  0.2832 -0.6456
  217MOL0     O29811   7.928   6.403  11.328 -0.2789 -0.1173  0.3996
  217MOL0     C29812   7.908   6.537  11.315  0.2967  0.6585 -0.0609
  217MOL0     C29813   7.958   6.613  11.422 -0.0157 -0.1445 -0.0039
  217MOL0     C29814   7.943   6.754  11.431  0.2241  0.6442  0.3490
  217MOL0     C29815   7.898   6.825  11.320  0.8490  0.0369  0.5820
  217MOL0     O29816   7.881   6.965  11.312  0.1340 -0.8136  0.0122
  217MOL0     C29817   7.968   7.032  11.400 -0.5779 -0.0780  0.6474
  217MOL0     C29818   7.980   7.174  11.345 -0.3281 -0.1790 -0.0844
  217MOL0     C29819   8.075   7.263  11.424  0.2173 -0.0933 -0.9469
  217MOL0     C29820   8.033   7.312  11.566 -0.5668  0.2003 -0.3261
  217MOL0     C29821   8.161   7.357  11.630  0.0174 -0.0393  0.4630
  217MOL0     C29822   8.134   7.437  11.756 -1.0785  0.1874  0.0678
  217MOL0     C29823   8.262   7.487  11.822 -0.2006 -0.4251  0.2595
  217MOL0     C29824   8.238   7.594  11.925  0.0220 -0.0703 -0.2066
  217MOL0     N29825   8.139   7.555  12.024 -0.4033 -1.2232 -0.0088
  217MOL0     C29826   8.031   7.633  12.056 -0.0576  0.2404 -0.1599
  217MOL0     C29827   7.959   7.555  12.146  0.5559  0.6524  0.4947
  217MOL0     C29828   7.833   7.588  12.223 -0.2390  0.0284 -0.5993
  217MOL0     C29829   7.851   7.697  12.332  0.7493 -0.4931  0.6993
  217MOL0     C29830   7.710   7.718  12.396 -0.3418  0.1784 -0.0346
  217MOL0     C29831   7.709   7.833  12.501  0.2392  1.2422  0.5831
  217MOL0     O29832   7.721   7.959  12.436 -0.5210 -0.2863  0.3934
  217MOL0     C29833   7.732   8.068  12.526  0.7316  0.4070 -0.3304
  217MOL0     C29834   7.795   8.077  12.650 -0.6867 -0.4509  0.9726
  217MOL0     C29835   7.840   8.199  12.705 -0.6925 -0.5282 -0.0150
  217MOL0     C29836   7.932   8.196  12.822 -0.1256 -0.7483 -0.1452
  217MOL0     C29837   7.816   8.316  12.637  0.5721  0.3903 -0.4993
  217MOL0     C29838   7.870   8.446  12.673  0.3661 -0.1861  0.3726
  217MOL0     O29839   7.866   8.493  12.804  0.3501  0.2577 -0.6043
  217MOL0     C29840   7.940   8.596  12.857 -0.2410 -0.1353 -0.0029
  217MOL0     C29841   7.970   8.712  12.783  0.3885  0.0068 -0.6642
  217MOL0     C29842   8.060   8.809  12.841 -0.3215 -0.4426  0.2649
  217MOL0     C29843   8.117   8.781  12.970 -0.2173  0.9836 -0.5306
  217MOL0     O29844   8.196   8.868  13.043  0.1854 -0.0357  0.8432
  217MOL0     C29845   8.219   8.998  12.999  0.8127 -0.4767 -0.3947
  217MOL0     C29846   8.301   9.063  13.114 -0.4642  0.1706  0.8274
  217MOL0     C29847   8.320   9.217  13.085  0.2695  0.8961 -0.4801
  217MOL0     C29848   8.410   9.267  12.968 -0.1241 -0.5325 -0.7964
  217MOL0     C29849   8.366   9.406  12.916  0.2043 -0.3265  0.6283
  217MOL0     C29850   8.426   9.435  12.775 -0.7387 -0.2813  0.2083
  217MOL0     C29851   8.561   9.512  12.799 -0.3200 -0.4597  0.2380
  217MOL0     C29852   8.633   9.558  12.669 -0.3613 -0.3236  0.8347
  217MOL0    Cl29853   8.542   9.689  12.599  0.2263 -0.3878 -0.5195
  217MOL0     C29854   8.090   8.663  13.036  0.8127  0.1188  0.8847
  217MOL0     C29855   8.002   8.562  12.975 -0.7799  0.0253 -0.3919
  217MOL0     O29856   7.930   8.507  12.578 -0.7870  0.1186  0.5401
  217MOL0     C29857   7.731   8.305  12.533  0.6022  0.5774  0.2623
  217MOL0     C29858   7.690   8.186  12.474 -0.5826 -1.1293  0.0550
  217MOL0     N29859   8.031   7.436  12.165  0.5736 -0.2066  0.4155
  217MOL0     N29860   8.133   7.433  12.083  0.2806 -0.1649 -0.3402
  217MOL0     C29861   7.834   6.748  11.223 -0.3440 -0.2230  0.3805
  217MOL0     C29862   7.850   6.608  11.212  0.3784  0.2126  0.6132
  217MOL0     C29863   7.911   6.161  11.268  0.4849  0.2944  0.4433
  217MOL0     C29864   7.820   6.073  11.203 -0.3013 -0.1583 -0.9667
  217MOL0     C29865   7.828   5.937  11.229  0.6344  0.8514 -0.2572
  217MOL0     C29866   7.931   5.872  11.291  0.2730  0.2585  1.4741
  217MOL0     O29867   7.921   5.734  11.301  0.4496 -0.7362  0.1272
  217MOL0     C29868   8.009   5.664  11.396 -0.8198 -0.5797  0.7538
  217MOL0     C29869   8.140   5.619  11.321  0.7864  1.0581 -1.2778
  217MOL0     C29870   8.236   5.537  11.420  1.2040 -0.3221  0.3639
  217MOL0     C29871   8.182   5.402  11.460  0.0173 -0.0444  0.4026
  217MOL0     C29872   8.099   5.419  11.580 -0.3257 -0.3615 -0.6781
  217MOL0     C29873   8.022   5.440  11.668 -1.0038  0.7831 -0.0132
  217MOL0     C29874   8.029   5.954  11.340 -1.3593 -1.1063  0.7934
  217MOL0     C29875   8.021   6.096  11.341 -0.2647  0.2694 -0.2954
  217MOL0     C29876   8.139   6.180  11.391 -0.4791 -0.6058  0.6674
  217MOL0     H29877   8.013   6.554  11.494 -2.7426 -1.2816  1.2775
  217MOL0     H29878   7.961   6.798  11.528  0.8530 -1.1370  1.0836
  217MOL0     H29879   8.064   6.982  11.384  0.9366  2.4201  1.5272
  217MOL0     H29880   7.936   7.023  11.504 -0.4910 -0.9414  0.6074
  217MOL0     H29881   8.009   7.183  11.240 -1.3200  2.0467 -0.2365
  217MOL0     H29882   7.879   7.215  11.352 -0.3468 -0.4306  1.4264
  217MOL0     H29883   8.170   7.209  11.426  0.1733 -0.1667  0.5641
  217MOL0     H29884   8.096   7.359  11.376 -0.5066  0.3534 -0.3966
  217MOL0     H29885   7.959   7.393  11.552 -0.2235  0.8938  1.5335
  217MOL0     H29886   7.987   7.234  11.627 -1.3488  1.1289  0.3117
  217MOL0     H29887   8.220   7.422  11.566 -0.1337 -1.3643 -1.0898
  217MOL0     H29888   8.228   7.273  11.653 -0.7962 -0.3631  1.7220
  217MOL0     H29889   8.063   7.519  11.744 -0.0250  1.0235 -0.7293
  217MOL0     H29890   8.100   7.359  11.825  3.4090 -3.4083 -1.2807
  217MOL0     H29891   8.320   7.543  11.748 -0.4972 -1.1513 -0.5587
  217MOL0     H29892   8.330   7.409  11.859 -0.7631 -1.7637 -1.3842
  217MOL0     H29893   8.327   7.619  11.982  1.9310  0.2146 -3.1163
  217MOL0     H29894   8.216   7.689  11.875 -2.6932 -0.3592  0.2957
  217MOL0     H29895   8.012   7.729  12.011  0.8026 -0.5768 -2.3740
  217MOL0     H29896   7.803   7.503  12.285 -0.6585  1.4365  1.2052
  217MOL0     H29897   7.744   7.610  12.163 -0.1098 -0.9817 -1.1798
  217MOL0     H29898   7.914   7.657  12.412  0.3728 -1.5355  0.4919
  217MOL0     H29899   7.890   7.786  12.282  0.1825 -1.5722 -1.7830
  217MOL0     H29900   7.638   7.744  12.318  2.0297 -3.6925 -4.0206
  217MOL0     H29901   7.685   7.624  12.446 -0.7778  1.5649  2.5227
  217MOL0     H29902   7.618   7.828  12.561  1.3536 -0.8527  2.2424
  217MOL0     H29903   7.790   7.818  12.573 -0.4303 -3.6141  0.6469
  217MOL0     H29904   7.836   7.991  12.703  2.8388 -0.3556 -1.2835
  217MOL0     H29905   8.025   8.251  12.810 -1.0486  0.2155 -4.7126
  217MOL0     H29906   7.959   8.091  12.839 -0.2046 -1.0601 -1.7857
  217MOL0     H29907   7.879   8.231  12.911  0.1680  1.9118 -0.9444
  217MOL0     H29908   7.923   8.729  12.686  1.1718  1.2195 -0.8461
  217MOL0     H29909   8.081   8.903  12.793 -1.4985 -0.2086  0.1877
  217MOL0     H29910   8.268   9.005  12.901 -2.2094 -0.4317 -2.0166
  217MOL0     H29911   8.125   9.053  12.990  1.7207  0.7655 -3.2837
  217MOL0     H29912   8.258   9.052  13.213 -0.0025 -0.7618  0.9357
  217MOL0     H29913   8.400   9.015  13.112 -0.9810 -0.9229 -0.7381
  217MOL0     H29914   8.377   9.260  13.168  1.2473 -1.2419  0.0058
  217MOL0     H29915   8.218   9.256  13.075 -2.1333 -4.5701 -0.8450
  217MOL0     H29916   8.413   9.190  12.891 -2.1261  1.1578 -2.7121
  217MOL0     H29917   8.515   9.278  12.999 -0.0560 -2.1004 -0.3969
  217MOL0     H29918   8.258   9.403  12.899  0.3542 -3.3321 -0.3151
  217MOL0     H29919   8.385   9.485  12.989  0.6411 -0.4578  0.6570
  217MOL0     H29920   8.366   9.503  12.714  2.1904  1.1885 -1.2388
  217MOL0     H29921   8.454   9.346  12.718  4.4364  1.0136  0.1806
  217MOL0     H29922   8.632   9.443  12.845 -0.4659 -2.0909 -1.8776
  217MOL0     H29923   8.545   9.591  12.874  0.4555  1.8002 -1.8680
  217MOL0     H29924   8.625   9.481  12.592  0.9616  1.4397 -1.1827
  217MOL0     H29925   8.733   9.590  12.700  0.1417 -1.7925  0.7924
  217MOL0     H29926   8.142   8.640  13.128  0.1352 -0.0002  1.2429
  217MOL0     H29927   7.999   8.461  13.015 -2.2320 -0.0264 -0.5786
  217MOL0     H29928   7.699   8.395  12.480  1.6966  1.5474  1.1807
  217MOL0     H29929   7.652   8.182  12.373  0.5436 -2.1740 -0.3538
  217MOL0     H29930   7.788   6.804  11.142 -3.2256 -0.4391  1.7579
  217MOL0     H29931   7.810   6.554  11.127 -0.0884 -1.5555  1.9030
  217MOL0     H29932   7.739   6.116  11.145 -1.0909 -1.6515 -1.0200
  217MOL0     H29933   7.743   5.879  11.194 -1.7844  4.3445 -0.5613
  217MOL0     H29934   8.041   5.731  11.477  1.2737  1.8425 -1.8180
  217MOL0     H29935   7.950   5.581  11.432 -0.5784 -1.4843 -0.8365
  217MOL0     H29936   8.186   5.707  11.277 -1.9360  4.4302  1.9215
  217MOL0     H29937   8.107   5.550  11.243  0.6076 -1.6221  0.9786
  217MOL0     H29938   8.319   5.519  11.350 -1.3166  0.4016 -3.1070
  217MOL0     H29939   8.268   5.615  11.489 -0.3232  1.8650 -1.2563
  217MOL0     H29940   8.268   5.337  11.477  0.5145 -0.2627 -2.4418
  217MOL0     H29941   8.131   5.351  11.379  0.1646 -0.1561  0.3807
  217MOL0     H29942   7.969   5.436  11.761  0.9101 -2.4441  1.1256
  217MOL0     H29943   8.124   5.917  11.377 -0.8831  0.1211  0.8491
  217MOL0     H29944   8.221   6.112  11.416  0.9565  0.6226 -0.5204
  217MOL0     H29945   8.174   6.250  11.315 -1.8997  1.0038  1.4202
  217MOL0     H29946   8.114   6.242  11.478  3.6593  2.3329  0.0137
  218MOL0     O29947   3.539   0.155  10.787  0.2090  0.3805  0.0864
  218MOL0     C29948   3.525   0.274  10.815  0.2582 -0.2174 -1.1399
  218MOL0     O29949   3.596   0.341  10.906  0.3281 -0.3091 -0.4913
  218MOL0     C29950   3.681   0.261  10.982 -0.6824 -0.3140  0.7084
  218MOL0     C29951   3.629   0.172  11.077 -0.5284 -0.5449 -0.0564
  218MOL0     C29952   3.720   0.114  11.175  0.5104 -0.9039  0.4433
  218MOL0     C29953   3.856   0.145  11.171  0.2960  0.0229  0.1876
  218MOL0     O29954   3.935   0.083  11.265  0.0920 -1.6777  0.2957
  218MOL0     C29955   4.058   0.007  11.216  1.0179 -0.1439 -0.0872
  218MOL0     C29956   4.157   0.032  11.326 -0.0891 -0.0342  0.0416
  218MOL0     C29957   4.246   0.156  11.305  0.5740  0.5633 -0.8866
  218MOL0     C29958   4.352   0.133  11.192 -0.0646 -0.4785 -0.6981
  218MOL0     C29959   4.405   0.273  11.150 -0.2589  0.0934  0.5563
  218MOL0     C29960   4.511   0.275  11.044  0.3851 -0.0869  0.9008
  218MOL0     C29961   4.562   0.405  11.000  0.0374 -0.6105  0.2865
  218MOL0     C29962   4.652   0.395  10.873 -0.2242  0.4105 -0.0031
  218MOL0     N29963   4.706   0.525  10.823 -0.0701  0.1410 -0.2660
  218MOL0     C29964   4.680   0.596  10.708 -0.3368  0.3569  1.1601
  218MOL0     C29965   4.775   0.693  10.696 -0.0718  0.0348  0.0297
  218MOL0     C29966   4.793   0.789  10.589 -1.1631  0.9347 -0.2839
  218MOL0     C29967   4.680   0.889  10.579 -0.2174 -0.4758  0.2012
  218MOL0     C29968   4.626   0.887  10.434  0.0995  0.1418 -0.1730
  218MOL0     C29969   4.543   0.766  10.397 -0.7959 -0.3226 -0.2841
  218MOL0     O29970   4.423   0.780  10.471  0.7513 -0.1020 -0.7852
  218MOL0     C29971   4.365   0.677  10.541  0.0040 -0.5576 -0.5182
  218MOL0     C29972   4.318   0.691  10.680  0.1297  0.5341  0.3915
  218MOL0     C29973   4.268   0.588  10.758 -0.2743 -0.1337 -0.2084
  218MOL0     C29974   4.220   0.623  10.897  0.4168 -0.0100  0.2326
  218MOL0     C29975   4.252   0.462  10.705 -0.1290 -0.4526  0.6956
  218MOL0     C29976   4.192   0.339  10.771  0.3381  0.5110 -0.8714
  218MOL0     O29977   4.216   0.224  10.707  0.1734  0.7629  0.8568
  218MOL0     C29978   4.163   0.108  10.765 -0.0475  0.0783  0.1858
  218MOL0     C29979   4.252   0.021  10.831  0.0580 -0.1236  0.2316
  218MOL0     C29980   4.194  -0.091  10.887 -0.0306  0.0961  0.5452
  218MOL0     C29981   4.060  -0.135  10.858 -0.5842 -0.1949 -0.5573
  218MOL0     O29982   4.033  -0.263  10.896  0.9212 -0.2472  0.3664
  218MOL0     C29983   3.888  -0.307  10.894  0.1412  0.4975 -0.1006
  218MOL0     C29984   3.800  -0.220  10.989 -0.1146 -0.3468 -1.2803
  218MOL0     C29985   3.651  -0.239  10.966  0.5604  0.2464  0.7145
  218MOL0     C29986   3.600  -0.160  10.842  0.6332  0.8726 -0.4390
  218MOL0     C29987   3.458  -0.198  10.800 -1.0943 -0.7046 -1.0662
  218MOL0     C29988   3.459  -0.325  10.720  0.0998  1.0413 -0.1788
  218MOL0     C29989   3.314  -0.370  10.694  0.3442 -0.2144  0.2165
  218MOL0     C29990   3.235  -0.289  10.579 -0.2511 -0.8575 -0.0300
  218MOL0    Cl29991   3.336  -0.298  10.428  0.0358 -0.3565 -0.3394
  218MOL0     C29992   3.976  -0.044  10.787 -0.3153  0.1518 -0.1067
  218MOL0     C29993   4.026   0.082  10.746 -0.5952  0.5302 -0.4397
  218MOL0     O29994   4.133   0.340  10.879 -0.5827  0.1842 -0.5408
  218MOL0     C29995   4.312   0.439  10.572  0.4146  0.1422 -0.2137
  218MOL0     C29996   4.374   0.541  10.501 -0.1537 -0.1465 -0.3459
  218MOL0     N29997   4.868   0.670  10.797  0.4959  0.4735  0.0458
  218MOL0     N29998   4.827   0.575  10.872  0.4683  0.1414 -0.4192
  218MOL0     C29999   3.902   0.231  11.068 -0.6922  0.3258 -0.0708
  218MOL0     C30000   3.815   0.296  10.972  0.8063 -1.0792  0.3775
  218MOL0     C30001   3.450   0.363  10.723  0.6147  1.2579 -0.1387
  218MOL0     C30002   3.488   0.496  10.726  0.1995 -0.1208  0.6324
  218MOL0     C30003   3.426   0.586  10.637  0.2551 -0.7100  0.0095
  218MOL0     C30004   3.328   0.542  10.541 -0.0830 -0.7447  0.1305
  218MOL0     O30005   3.270   0.613  10.439 -0.6229 -0.3950 -0.8442
  218MOL0     C30006   3.334   0.743  10.422 -0.0677  0.1565  0.1090
  218MOL0     C30007   3.462   0.738  10.343  0.0966  0.8368  1.1254
  218MOL0     C30008   3.508   0.875  10.308  0.9945 -0.5216 -1.0384
  218MOL0     C30009   3.639   0.872  10.228 -0.3474 -0.0121  0.2738
  218MOL0     C30010   3.688   1.013  10.214  0.2837 -1.0425  0.2868
  218MOL0     C30011   3.710   1.127  10.190 -1.5715  0.1626  0.3385
  218MOL0     C30012   3.299   0.411  10.538 -0.3605  0.0484  0.8014
  218MOL0     C30013   3.360   0.320  10.621 -0.1792  0.1691  0.8952
  218MOL0     C30014   3.321   0.177  10.587  0.2415 -0.5226 -1.1853
  218MOL0     H30015   3.525   0.146  11.062 -0.3410 -0.6009 -1.3547
  218MOL0     H30016   3.689   0.047  11.255  1.2140  2.1710  3.5502
  218MOL0     H30017   4.091   0.041  11.117 -1.0079  1.7525 -0.1946
  218MOL0     H30018   4.039  -0.100  11.225  1.2879 -0.0473  2.4274
  218MOL0     H30019   4.100   0.049  11.417 -1.2680 -0.4602 -0.5986
  218MOL0     H30020   4.222  -0.056  11.336 -1.1915 -0.7760  0.9110
  218MOL0     H30021   4.177   0.239  11.286 -0.4780  0.1390  0.8924
  218MOL0     H30022   4.306   0.187  11.390  2.5758  0.2039 -2.1119
  218MOL0     H30023   4.434   0.078  11.240  0.3868  2.9211  3.0147
  218MOL0     H30024   4.308   0.081  11.107 -0.9989 -1.5674  0.4144
  218MOL0     H30025   4.434   0.332  11.238 -3.9167  1.2567  1.1583
  218MOL0     H30026   4.318   0.324  11.107 -1.4151 -0.2851  2.3539
  218MOL0     H30027   4.602   0.226  11.080  0.8793 -0.7949 -1.1308
  218MOL0     H30028   4.475   0.217  10.958  2.4322  0.8961 -0.7359
  218MOL0     H30029   4.616   0.443  11.087 -0.2250 -2.2823  1.2269
  218MOL0     H30030   4.476   0.469  10.979  0.6925  0.5759  1.1720
  218MOL0     H30031   4.740   0.333  10.896 -0.0800  1.1530  1.5950
  218MOL0     H30032   4.597   0.346  10.792  2.2916 -1.3751 -0.7600
  218MOL0     H30033   4.600   0.581  10.636 -0.1067  0.7352  0.8178
  218MOL0     H30034   4.800   0.737  10.493  3.6858  0.2322  0.1929
  218MOL0     H30035   4.888   0.842  10.600  1.0517 -3.0143  1.7614
  218MOL0     H30036   4.596   0.879  10.648  1.0629 -1.5416  1.6771
  218MOL0     H30037   4.719   0.991  10.591  1.9480 -1.1126 -0.8891
  218MOL0     H30038   4.574   0.981  10.413  0.9568  0.6631  0.0014
  218MOL0     H30039   4.705   0.880  10.358  0.0885  2.2509 -0.4170
  218MOL0     H30040   4.527   0.773  10.289  1.2367 -0.8780 -0.6599
  218MOL0     H30041   4.596   0.672  10.416 -0.4460  0.1095  0.9672
  218MOL0     H30042   4.334   0.793  10.715  2.5592  0.5421 -0.5740
  218MOL0     H30043   4.237   0.730  10.913  3.1273 -0.2808 -0.3243
  218MOL0     H30044   4.267   0.576  10.984  1.0124 -0.1776 -0.1793
  218MOL0     H30045   4.116   0.592  10.908  0.2595 -0.0507 -1.1790
  218MOL0     H30046   4.355   0.048  10.852  1.2995 -3.1771 -1.1949
  218MOL0     H30047   4.258  -0.156  10.945  1.5067  1.1377  0.0838
  218MOL0     H30048   3.838  -0.329  10.799  1.3447 -1.6066 -0.3202
  218MOL0     H30049   3.877  -0.402  10.947 -1.3066  1.7732  2.0681
  218MOL0     H30050   3.831  -0.236  11.092  0.4605 -1.2723 -1.5900
  218MOL0     H30051   3.822  -0.114  10.972  0.5899 -0.7399 -3.1206
  218MOL0     H30052   3.597  -0.187  11.046 -0.9341  3.0539 -1.9350
  218MOL0     H30053   3.625  -0.345  10.963  2.8482 -0.6083  4.4160
  218MOL0     H30054   3.670  -0.188  10.763 -2.3354 -0.9224 -2.6698
  218MOL0     H30055   3.614  -0.056  10.871  0.5599  0.4105  1.4186
  218MOL0     H30056   3.384  -0.197  10.881 -0.3539  0.3816 -0.3603
  218MOL0     H30057   3.418  -0.117  10.738  1.5279 -0.4522 -2.5735
  218MOL0     H30058   3.510  -0.412  10.763  1.2227  1.9871  0.4678
  218MOL0     H30059   3.518  -0.307  10.630  0.4978 -0.1230 -0.1687
  218MOL0     H30060   3.257  -0.358  10.786  1.5682  2.4777  0.7090
  218MOL0     H30061   3.294  -0.475  10.669 -1.6578 -0.3737  2.1945
  218MOL0     H30062   3.214  -0.185  10.604  0.3896 -0.4695 -1.0518
  218MOL0     H30063   3.138  -0.336  10.564 -1.3603  0.8124  1.5296
  218MOL0     H30064   3.873  -0.071  10.770 -0.0890 -2.0986  1.6274
  218MOL0     H30065   3.971   0.152  10.684 -0.4858  0.8496 -0.1747
  218MOL0     H30066   4.306   0.346  10.517 -0.2485  2.0233 -3.6389
  218MOL0     H30067   4.422   0.528  10.404 -0.2658  1.9087 -0.7094
  218MOL0     H30068   4.009   0.250  11.070  0.3125 -4.1812 -1.2799
  218MOL0     H30069   3.853   0.369  10.901  1.2475 -0.5654  1.1341
  218MOL0     H30070   3.558   0.544  10.793 -0.3549 -0.2807  1.3344
  218MOL0     H30071   3.441   0.692  10.660 -1.0307 -1.0251  2.6827
  218MOL0     H30072   3.259   0.798  10.366  0.9747  0.4647 -1.0338
  218MOL0     H30073   3.352   0.802  10.513  1.8916 -0.1229 -0.0577
  218MOL0     H30074   3.452   0.688  10.247 -1.0695 -0.4466  1.8772
  218MOL0     H30075   3.542   0.692  10.403  0.6961  0.5382  0.1117
  218MOL0     H30076   3.432   0.920  10.242  1.9564  1.1343 -1.0765
  218MOL0     H30077   3.526   0.941  10.393  1.6413  2.0848 -3.0321
  218MOL0     H30078   3.621   0.810  10.139 -0.1753 -2.2483  1.7346
  218MOL0     H30079   3.705   0.828  10.303 -0.6925 -0.1710  0.4873
  218MOL0     H30080   3.725   1.231  10.171  0.5432 -0.2209 -0.3259
  218MOL0     H30081   3.226   0.374  10.467 -0.1965  1.9354 -0.4413
  218MOL0     H30082   3.383   0.140  10.504  1.8710 -0.7032  0.0482
  218MOL0     H30083   3.342   0.116  10.676  1.6733  2.0379  0.3591
  218MOL0     H30084   3.216   0.163  10.562  0.0562 -1.6152  0.1022
  219MOL0     O30085  11.191  10.754   9.917 -0.2854  0.1837  0.1782
  219MOL0     C30086  11.277  10.679   9.879  0.1216 -0.5961 -0.7480
  219MOL0     O30087  11.306  10.563   9.935 -0.7358 -0.1160 -0.1201
  219MOL0     C30088  11.255  10.533  10.059  0.0657  0.6206 -0.6592
  219MOL0     C30089  11.211  10.399  10.077 -0.1625  0.5433  0.2030
  219MOL0     C30090  11.163  10.351  10.206  0.1905 -1.0809 -0.1949
  219MOL0     C30091  11.147  10.448  10.306  0.8434 -0.0679  0.1467
  219MOL0     O30092  11.084  10.431  10.423  0.4469 -0.6769 -0.0326
  219MOL0     C30093  10.989  10.316  10.435 -0.2860 -0.3026 -0.3165
  219MOL0     C30094  10.909  10.332  10.567 -0.0145 -0.1171 -0.1296
  219MOL0     C30095  10.896  10.217  10.661 -0.1690 -0.2423 -0.4248
  219MOL0     C30096  10.796  10.255  10.776 -0.0215 -0.2749  0.5757
  219MOL0     C30097  10.729  10.124  10.827 -0.5594  0.2138  0.3366
  219MOL0     C30098  10.586  10.172  10.877  0.6197 -0.0821 -0.6897
  219MOL0     C30099  10.506  10.047  10.923  0.1806 -0.1516  0.3263
  219MOL0     C30100  10.389  10.091  11.006  0.3757  1.5181 -0.5475
  219MOL0     N30101  10.283   9.996  11.006  0.1108 -0.9199 -0.5435
  219MOL0     C30102  10.266   9.910  11.109 -0.1288 -0.3139 -0.0439
  219MOL0     C30103  10.166   9.823  11.074  0.5986  0.1180  0.4238
  219MOL0     C30104  10.115   9.712  11.159  0.2493 -0.1318 -0.3031
  219MOL0     C30105  10.020   9.772  11.271 -0.0539 -0.0101  0.0256
  219MOL0     C30106  10.096   9.857  11.370  0.0104 -0.6987  0.1996
  219MOL0     C30107  10.012   9.866  11.500  0.3362 -1.3445 -0.5288
  219MOL0     O30108   9.945   9.740  11.537 -1.1953 -0.9640 -0.6008
  219MOL0     C30109  10.005   9.661  11.635 -0.0149  0.3767  0.5341
  219MOL0     C30110  10.120   9.699  11.703  0.9402 -0.4066  0.1083
  219MOL0     C30111  10.157   9.618  11.809  0.8844  0.3255 -0.9994
  219MOL0     C30112  10.261   9.673  11.893 -0.7470  0.3576  0.9541
  219MOL0     C30113  10.096   9.489  11.837 -0.1312 -0.5589 -0.6273
  219MOL0     C30114  10.120   9.400  11.957  0.5105 -0.1719 -0.1867
  219MOL0     O30115  10.037   9.290  11.968  0.1837 -0.3599 -0.7630
  219MOL0     C30116  10.057   9.194  12.065  1.0376 -0.5770 -0.3611
  219MOL0     C30117   9.952   9.126  12.098 -0.1041  0.6212  0.1218
  219MOL0     C30118   9.941   9.041  12.204 -0.7505 -0.2863  0.2469
  219MOL0     C30119  10.058   9.014  12.286 -0.1450 -0.6979  0.7951
  219MOL0     O30120  10.066   8.932  12.394  0.0349 -0.2821 -0.3156
  219MOL0     C30121   9.985   8.956  12.517  0.5832  0.2173 -0.1498
  219MOL0     C30122   9.959   8.825  12.590 -0.1946  0.0754 -0.3760
  219MOL0     C30123   9.916   8.852  12.733 -0.7932  0.0568 -0.7823
  219MOL0     C30124   9.883   8.723  12.819 -0.1007 -1.4475  0.3385
  219MOL0     C30125   9.841   8.775  12.959  0.1929 -0.5038  0.2465
  219MOL0     C30126   9.725   8.689  13.025 -0.1492 -0.5860 -0.0370
  219MOL0     C30127   9.675   8.756  13.154  0.9792 -0.5382  0.1993
  219MOL0     C30128   9.573   8.655  13.218 -0.7089 -0.1095  0.5177
  219MOL0    Cl30129   9.420   8.654  13.128  0.2252 -0.2135 -0.2142
  219MOL0     C30130  10.175   9.077  12.239 -0.2835 -0.3864  0.5563
  219MOL0     C30131  10.175   9.174  12.138 -0.1700 -0.0789 -0.5047
  219MOL0     O30132  10.227   9.418  12.012 -1.2796 -0.9949  0.5883
  219MOL0     C30133   9.987   9.453  11.752 -0.1806  0.2433 -0.2352
  219MOL0     C30134   9.942   9.543  11.659 -1.0056  0.2099 -0.0310
  219MOL0     N30135  10.115   9.869  10.953  0.4994  0.1361 -0.0414
  219MOL0     N30136  10.192   9.959  10.901  0.2117  0.1219 -1.2873
  219MOL0     C30137  11.198  10.582  10.284  0.1716 -0.2384 -0.1116
  219MOL0     C30138  11.261  10.616  10.171 -0.0802  0.2771  0.1309
  219MOL0     C30139  11.340  10.707   9.747  0.2052 -0.2980 -0.4869
  219MOL0     C30140  11.273  10.788   9.645 -0.0057 -0.1188 -0.9003
  219MOL0     C30141  11.331  10.831   9.526 -0.6039 -0.0631 -0.0447
  219MOL0     C30142  11.457  10.776   9.495 -0.2544  0.1767 -0.7240
  219MOL0     O30143  11.513  10.794   9.371 -0.0105 -0.4356  0.3572
  219MOL0     C30144  11.452  10.734   9.252 -0.1620  0.2306  0.0304
  219MOL0     C30145  11.450  10.581   9.254  0.4868  0.6929 -0.1025
  219MOL0     C30146  11.573  10.505   9.296  0.1953 -0.1444  0.1635
  219MOL0     C30147  11.570  10.361   9.259 -0.5831  0.9523  0.1802
  219MOL0     C30148  11.452  10.299   9.315  0.4341  0.5532  0.1167
  219MOL0     C30149  11.368  10.236   9.379 -0.1841 -0.4033 -1.2764
  219MOL0     C30150  11.523  10.694   9.589 -0.3770 -0.6669  1.0662
  219MOL0     C30151  11.471  10.674   9.723 -0.2810  0.5468  1.4212
  219MOL0     C30152  11.567  10.605   9.810 -1.0453  0.0104  0.3355
  219MOL0     H30153  11.225  10.323  10.001 -0.3723 -0.6322  1.3174
  219MOL0     H30154  11.133  10.250  10.234  0.4503 -0.7372  1.4259
  219MOL0     H30155  11.042  10.220  10.433  0.9732  0.4058 -1.2693
  219MOL0     H30156  10.925  10.312  10.346  1.1139  0.3690 -1.3690
  219MOL0     H30157  10.963  10.403  10.631 -2.9782  1.1323  1.1926
  219MOL0     H30158  10.816  10.386  10.545 -0.3641 -0.0269  1.4456
  219MOL0     H30159  10.851  10.126  10.619 -0.8703 -0.7209  1.2612
  219MOL0     H30160  10.986  10.191  10.716 -1.2569 -0.8655  1.1504
  219MOL0     H30161  10.852  10.307  10.855 -0.1111 -1.0985  1.2031
  219MOL0     H30162  10.725  10.331  10.743  0.4162 -0.1242 -0.0475
  219MOL0     H30163  10.793  10.077  10.903 -1.7937 -3.2314 -0.5961
  219MOL0     H30164  10.713  10.037  10.763 -1.5273 -0.4952  1.4999
  219MOL0     H30165  10.601  10.233  10.967  3.2619 -0.0696 -1.0601
  219MOL0     H30166  10.540  10.237  10.802  0.1212  1.4164  0.8707
  219MOL0     H30167  10.582   9.985  10.972  0.2219 -1.0119 -0.7713
  219MOL0     H30168  10.471   9.991  10.835  1.5477  0.3210 -0.5539
  219MOL0     H30169  10.419  10.105  11.110 -2.4359 -0.3459  0.6621
  219MOL0     H30170  10.357  10.189  10.970 -6.5103  0.7732  1.8691
  219MOL0     H30171  10.317   9.910  11.205 -0.4904  0.8125  0.1645
  219MOL0     H30172  10.196   9.653  11.202  1.8439  1.4210 -1.0600
  219MOL0     H30173  10.048   9.643  11.105 -0.4574 -1.5522  2.2244
  219MOL0     H30174   9.952   9.832  11.211 -3.3993 -2.2084  1.3066
  219MOL0     H30175   9.959   9.691  11.311 -1.1800  0.3986 -0.8391
  219MOL0     H30176  10.189   9.807  11.397 -0.2668 -1.7925 -0.7683
  219MOL0     H30177  10.121   9.957  11.335  0.2559 -0.0021  2.2483
  219MOL0     H30178  10.059   9.907  11.590  0.8511 -1.7439 -0.6113
  219MOL0     H30179   9.938   9.944  11.478 -0.3239 -1.6063  0.7077
  219MOL0     H30180  10.180   9.788  11.686 -1.5528  1.0785 -1.4882
  219MOL0     H30181  10.235   9.663  11.999 -0.0142  0.0694  1.1192
  219MOL0     H30182  10.290   9.774  11.865  1.2071 -0.4057 -0.0090
  219MOL0     H30183  10.360   9.625  11.883  0.3923  1.5681  4.7607
  219MOL0     H30184   9.860   9.141  12.043  0.4078  2.8646 -0.2087
  219MOL0     H30185   9.844   8.996  12.226 -0.4321 -1.3591 -0.4461
  219MOL0     H30186  10.041   9.014  12.591 -1.2591  2.0679 -0.1222
  219MOL0     H30187   9.885   9.000  12.509  0.0067 -0.2874  2.8892
  219MOL0     H30188   9.881   8.768  12.539  0.6401 -3.1806  1.6638
  219MOL0     H30189  10.056   8.776  12.587 -0.1575  0.1799 -0.8536
  219MOL0     H30190   9.836   8.927  12.738 -1.7394 -1.0112  2.6113
  219MOL0     H30191  10.000   8.901  12.782 -0.0594 -0.2771 -1.6831
  219MOL0     H30192   9.971   8.658  12.830  2.4193  1.7462  0.3342
  219MOL0     H30193   9.802   8.663  12.775  1.2202 -3.2761  0.2611
  219MOL0     H30194   9.924   8.782  13.030 -0.1600  2.2922  0.4799
  219MOL0     H30195   9.786   8.869  12.955 -0.0540 -0.5887  1.2485
  219MOL0     H30196   9.765   8.589  13.046 -0.1908 -0.3400  1.2775
  219MOL0     H30197   9.649   8.660  12.951  2.2251  0.4677 -3.0718
  219MOL0     H30198   9.614   8.842  13.127  2.0056 -0.0538 -0.6133
  219MOL0     H30199   9.750   8.785  13.228 -0.6892  0.7745  1.4698
  219MOL0     H30200   9.551   8.685  13.321 -1.7904 -0.3491  0.3685
  219MOL0     H30201   9.613   8.553  13.215 -2.5380 -0.8342 -0.1964
  219MOL0     H30202  10.269   9.058  12.289 -0.7139  1.4679  2.1801
  219MOL0     H30203  10.268   9.231  12.133 -1.8813  2.9190 -0.6860
  219MOL0     H30204   9.933   9.359  11.762  0.3178 -0.0281 -0.0865
  219MOL0     H30205   9.860   9.526  11.590 -2.4125  0.5422  1.4982
  219MOL0     H30206  11.190  10.663  10.355 -0.3446 -0.9793  0.7061
  219MOL0     H30207  11.303  10.716  10.163  0.7355  0.2615  3.0500
  219MOL0     H30208  11.172  10.821   9.667  0.1390 -0.7350  0.8705
  219MOL0     H30209  11.274  10.887   9.453 -1.9114  0.0492  1.0186
  219MOL0     H30210  11.349  10.769   9.261 -1.0886 -2.1021 -0.6278
  219MOL0     H30211  11.492  10.778   9.161 -5.3179  2.8466 -1.3626
  219MOL0     H30212  11.432  10.562   9.148  2.3174  1.4495 -0.5898
  219MOL0     H30213  11.369  10.546   9.319  1.4648 -0.2030  0.6705
  219MOL0     H30214  11.659  10.558   9.252 -0.3600 -0.8561 -1.9093
  219MOL0     H30215  11.582  10.497   9.405 -2.4714 -1.9970  0.3337
  219MOL0     H30216  11.661  10.311   9.291  0.5296  1.7478 -1.6019
  219MOL0     H30217  11.553  10.348   9.151  0.0189 -2.4593  0.3897
  219MOL0     H30218  11.300  10.186   9.445 -1.0199  0.6625 -1.3105
  219MOL0     H30219  11.619  10.662   9.550 -0.3178  1.9578 -1.2551
  219MOL0     H30220  11.669  10.613   9.772 -0.6395  0.8839  1.5581
  219MOL0     H30221  11.580  10.664   9.901 -2.0721  4.4528 -2.0984
  219MOL0     H30222  11.546  10.498   9.817 -2.9133  0.3955  1.3742
  220MOL0     O30223   2.264   7.766   9.649 -0.1618 -0.5871  0.2141
  220MOL0     C30224   2.194   7.687   9.580  0.5462 -0.5386  0.0492
  220MOL0     O30225   2.231   7.557   9.558 -0.4011 -0.1305  0.3223
  220MOL0     C30226   2.336   7.495   9.624 -0.0762  0.5136  0.2012
  220MOL0     C30227   2.410   7.407   9.549  0.1369 -0.1379  0.7656
  220MOL0     C30228   2.502   7.315   9.610  0.2259 -0.1438 -0.3875
  220MOL0     C30229   2.544   7.336   9.743  0.0870 -0.0772 -0.7869
  220MOL0     O30230   2.650   7.281   9.802  0.2820  0.1460 -0.5034
  220MOL0     C30231   2.618   7.154   9.858  0.8047  0.2602  0.7315
  220MOL0     C30232   2.752   7.089   9.911 -0.0143  0.4653  0.2223
  220MOL0     C30233   2.796   7.167  10.029 -0.2372 -0.5126  0.7588
  220MOL0     C30234   2.694   7.153  10.144  0.2199  0.3941  0.2625
  220MOL0     C30235   2.769   7.134  10.277  0.1162 -0.4375 -0.5729
  220MOL0     C30236   2.678   7.140  10.399 -0.1779  0.1583  1.0336
  220MOL0     C30237   2.601   7.013  10.428 -0.4550  0.4309 -0.4948
  220MOL0     C30238   2.499   7.028  10.541  0.1155  1.2405  0.0417
  220MOL0     N30239   2.461   6.895  10.591 -0.1389 -0.6201 -0.3904
  220MOL0     C30240   2.543   6.805  10.654 -0.0121 -0.0527  0.1869
  220MOL0     C30241   2.471   6.694  10.679 -0.5844 -0.5378  0.0459
  220MOL0     C30242   2.520   6.570  10.744 -0.2508 -0.1401  0.2431
  220MOL0     C30243   2.620   6.497  10.663 -1.1511 -0.3777 -0.0170
  220MOL0     C30244   2.659   6.362  10.718  1.1984 -0.1257 -0.1254
  220MOL0     C30245   2.756   6.287  10.622 -0.7311  0.4424 -0.0211
  220MOL0     O30246   2.695   6.283  10.492 -0.4988 -0.9519  0.7927
  220MOL0     C30247   2.772   6.235  10.387  0.9500  0.2502  0.8690
  220MOL0     C30248   2.704   6.224  10.263  0.4707 -0.3577  0.0561
  220MOL0     C30249   2.767   6.187  10.146  0.3054 -0.2618  0.2516
  220MOL0     C30250   2.680   6.196  10.030 -0.1618  0.2814  0.8586
  220MOL0     C30251   2.904   6.157  10.144  0.2377 -0.0740 -0.7673
  220MOL0     C30252   2.990   6.118  10.024  0.8040  0.0731  0.4206
  220MOL0     O30253   2.918   6.056   9.922 -0.0282 -0.3371 -0.2933
  220MOL0     C30254   2.965   6.045   9.796  0.5333  0.0311  1.7782
  220MOL0     C30255   3.099   6.007   9.763  0.4960  0.5196  1.0372
  220MOL0     C30256   3.143   5.975   9.635 -0.0519 -0.3863  0.9615
  220MOL0     C30257   3.054   6.002   9.527  0.1264  0.3269  0.4540
  220MOL0     O30258   3.080   5.976   9.398  0.6506 -0.5776  0.5271
  220MOL0     C30259   3.166   5.876   9.358  0.1693 -0.6272  0.3307
  220MOL0     C30260   3.267   5.940   9.263 -0.3101  0.2462 -0.4898
  220MOL0     C30261   3.334   6.068   9.316  1.2767  0.7106 -0.1166
  220MOL0     C30262   3.464   6.096   9.246 -0.4534  0.2089 -0.6354
  220MOL0     C30263   3.510   6.234   9.284  0.1647  0.3827  0.5839
  220MOL0     C30264   3.654   6.260   9.284 -0.8606  0.2774 -0.5934
  220MOL0     C30265   3.719   6.258   9.146 -0.8428  0.5529  0.8345
  220MOL0     C30266   3.864   6.329   9.143  0.9225 -0.4231  0.1506
  220MOL0    Cl30267   3.960   6.272   9.288 -0.5076  0.1839 -0.3136
  220MOL0     C30268   2.918   6.030   9.559  0.0858 -0.3930  0.7650
  220MOL0     C30269   2.875   6.056   9.686  0.4651  0.1359 -0.6990
  220MOL0     O30270   3.108   6.129  10.016 -0.1207  0.2611 -0.2654
  220MOL0     C30271   2.974   6.156  10.272 -0.3031 -0.6892 -0.1506
  220MOL0     C30272   2.903   6.195  10.386 -0.1738  0.6377  0.7419
  220MOL0     N30273   2.346   6.727  10.627 -0.1118  0.6157  0.0333
  220MOL0     N30274   2.335   6.845  10.584  0.1399 -0.2001 -0.0587
  220MOL0     C30275   2.477   7.436   9.813  0.2642 -0.2838 -0.7362
  220MOL0     C30276   2.373   7.512   9.755 -0.0634  0.2901 -1.0264
  220MOL0     C30277   2.065   7.735   9.514  0.3910  0.4725 -0.5025
  220MOL0     C30278   2.005   7.635   9.435  0.6784  0.1183  0.0294
  220MOL0     C30279   1.896   7.653   9.352 -0.5601 -0.1679 -0.2523
  220MOL0     C30280   1.829   7.772   9.361 -1.0180 -0.4805 -0.0150
  220MOL0     O30281   1.706   7.784   9.300 -0.1588 -0.5876  0.5763
  220MOL0     C30282   1.626   7.904   9.325 -0.4733  0.2831  0.9443
  220MOL0     C30283   1.543   7.892   9.451 -0.1209 -0.2913  0.1175
  220MOL0     C30284   1.473   8.024   9.498 -0.0064  0.0661  0.1343
  220MOL0     C30285   1.386   8.007   9.624 -0.4297  1.2334  0.3257
  220MOL0     C30286   1.457   8.007   9.753 -0.3271 -0.7560  0.5409
  220MOL0     C30287   1.525   8.009   9.852  0.2340 -0.0196 -0.3552
  220MOL0     C30288   1.882   7.876   9.443 -0.1286 -0.5585 -0.2502
  220MOL0     C30289   2.000   7.858   9.517 -0.0942  0.5132  0.4430
  220MOL0     C30290   2.055   7.978   9.610  0.8373  0.5336  0.5690
  220MOL0     H30291   2.392   7.400   9.443  0.8109  2.9085  0.3603
  220MOL0     H30292   2.553   7.239   9.552 -3.2903 -1.4010 -2.1280
  220MOL0     H30293   2.588   7.079   9.786  0.4747  0.1874  0.9436
  220MOL0     H30294   2.540   7.151   9.935 -0.5830 -1.7773 -0.6670
  220MOL0     H30295   2.753   6.981   9.928  1.4254  0.1677 -1.4618
  220MOL0     H30296   2.829   7.106   9.835  0.9711 -1.9521  0.6119
  220MOL0     H30297   2.896   7.139  10.063  0.4869  1.2242  0.1764
  220MOL0     H30298   2.799   7.275  10.011  2.0261 -0.0785  3.0738
  220MOL0     H30299   2.634   7.245  10.141  1.4325  1.4863  3.9194
  220MOL0     H30300   2.630   7.066  10.129 -0.6006  0.7707  1.3881
  220MOL0     H30301   2.845   7.213  10.273  0.7450 -1.0827 -3.4396
  220MOL0     H30302   2.823   7.039  10.269  2.6986  0.6679  1.8086
  220MOL0     H30303   2.732   7.171  10.489  1.0942 -1.9222  1.0374
  220MOL0     H30304   2.614   7.227  10.379 -0.4987 -0.3125 -0.0307
  220MOL0     H30305   2.673   6.936  10.454 -2.9689 -1.5705  1.0475
  220MOL0     H30306   2.538   6.991  10.341 -0.8739 -0.2797 -0.0256
  220MOL0     H30307   2.555   7.077  10.622 -0.2012 -0.7189  1.5192
  220MOL0     H30308   2.405   7.080  10.521 -1.1564 -0.7314  0.5754
  220MOL0     H30309   2.646   6.822  10.683  0.2980 -2.0121  0.3437
  220MOL0     H30310   2.434   6.506  10.768 -0.7157  0.3133 -0.1830
  220MOL0     H30311   2.559   6.595  10.843 -1.9295 -3.5264  1.9397
  220MOL0     H30312   2.586   6.499  10.559 -4.2937 -0.9126  0.8820
  220MOL0     H30313   2.713   6.555  10.662 -1.9524  0.9613  0.4972
  220MOL0     H30314   2.710   6.377  10.814  1.9293  3.3564 -0.9224
  220MOL0     H30315   2.577   6.294  10.739  1.8169 -0.9504 -0.3126
  220MOL0     H30316   2.855   6.334  10.623 -0.1561 -0.7384 -0.0245
  220MOL0     H30317   2.770   6.188  10.664 -3.0035  1.2263  2.9526
  220MOL0     H30318   2.596   6.239  10.267  0.2438 -2.0776  1.9640
  220MOL0     H30319   2.592   6.260  10.047  2.4584  3.3340  4.7072
  220MOL0     H30320   2.643   6.099   9.994 -2.2498  0.4451  2.3575
  220MOL0     H30321   2.744   6.247   9.957 -0.4740 -2.1517 -1.2359
  220MOL0     H30322   3.173   5.984   9.838  1.4136  1.4986  0.4530
  220MOL0     H30323   3.240   5.926   9.637 -0.9955 -2.3298  2.8269
  220MOL0     H30324   3.217   5.831   9.444  0.7469 -2.9984 -1.1479
  220MOL0     H30325   3.102   5.801   9.310  1.7253 -1.7821 -0.0485
  220MOL0     H30326   3.347   5.875   9.229 -1.0300  0.5321 -2.9517
  220MOL0     H30327   3.212   5.954   9.169 -3.7001 -1.0614  1.1217
  220MOL0     H30328   3.365   6.050   9.419 -0.1215 -1.1594  0.0189
  220MOL0     H30329   3.261   6.149   9.307 -2.0996 -1.9958  0.5716
  220MOL0     H30330   3.444   6.100   9.138 -0.7226  3.2672 -0.5585
  220MOL0     H30331   3.543   6.028   9.276 -0.8139 -0.9140 -2.1292
  220MOL0     H30332   3.467   6.298   9.207  0.4786 -2.6690 -2.3571
  220MOL0     H30333   3.466   6.249   9.383 -3.0020  0.5701 -0.7529
  220MOL0     H30334   3.705   6.197   9.357  1.6053  1.1631 -1.4424
  220MOL0     H30335   3.670   6.362   9.319 -1.4161 -0.3710  1.6604
  220MOL0     H30336   3.657   6.312   9.074 -0.3392  2.7750  1.9585
  220MOL0     H30337   3.741   6.156   9.114  0.3829  0.7243  1.1038
  220MOL0     H30338   3.862   6.438   9.140  1.8418 -0.4217 -1.8012
  220MOL0     H30339   3.924   6.310   9.054 -0.3516  1.4189 -1.1590
  220MOL0     H30340   2.845   6.005   9.482  3.1698  2.3385 -3.4889
  220MOL0     H30341   2.771   6.079   9.705  0.6729 -0.7220  1.8649
  220MOL0     H30342   3.080   6.136  10.283 -0.4133 -1.7082 -0.7891
  220MOL0     H30343   2.965   6.213  10.473  2.2198  3.5542 -1.3457
  220MOL0     H30344   2.514   7.466   9.910 -0.3580 -1.2011 -0.2022
  220MOL0     H30345   2.317   7.588   9.809  1.0886  0.6688 -0.3413
  220MOL0     H30346   2.039   7.532   9.440 -2.1343 -0.9030  0.1642
  220MOL0     H30347   1.867   7.562   9.300 -0.5650 -1.1742  1.4424
  220MOL0     H30348   1.683   7.998   9.322  1.5543 -0.9304 -1.1355
  220MOL0     H30349   1.553   7.912   9.245  1.6480  2.0780 -0.9601
  220MOL0     H30350   1.599   7.847   9.534  0.1119 -1.8190 -0.8250
  220MOL0     H30351   1.473   7.811   9.432  0.4227 -1.2798  2.0387
  220MOL0     H30352   1.550   8.098   9.522 -0.9699 -0.3116  6.2237
  220MOL0     H30353   1.407   8.072   9.425 -0.0337 -1.0133 -0.5672
  220MOL0     H30354   1.333   7.912   9.611  0.5955  0.9291 -2.0517
  220MOL0     H30355   1.307   8.082   9.636 -1.0897  1.0908 -2.4484
  220MOL0     H30356   1.605   7.988   9.920 -0.1300  1.9300  0.7413
  220MOL0     H30357   1.837   7.974   9.448  3.7713  1.3721  0.9399
  220MOL0     H30358   2.132   8.027   9.550 -1.6623  3.0198 -0.8573
  220MOL0     H30359   1.981   8.056   9.630  2.4824  2.0793  0.8790
  220MOL0     H30360   2.091   7.946   9.708  2.4838  1.7708  0.4018
  221MOL0     O30361   3.445   4.215   2.234  0.7062 -0.7808 -0.6828
  221MOL0     C30362   3.355   4.228   2.151  0.6833  0.1494  1.3617
  221MOL0     O30363   3.379   4.269   2.013  0.1459  0.2774  0.4348
  221MOL0     C30364   3.505   4.323   1.987  0.7694  0.2370 -0.8320
  221MOL0     C30365   3.585   4.263   1.890  0.2332 -0.0558  0.3313
  221MOL0     C30366   3.712   4.306   1.860 -0.7288 -1.1118 -0.1185
  221MOL0     C30367   3.758   4.418   1.927  0.4809 -0.1063  0.1949
  221MOL0     O30368   3.885   4.462   1.923 -0.4891  0.4548  0.1741
  221MOL0     C30369   3.987   4.377   1.866 -0.3956 -0.3415 -0.4126
  221MOL0     C30370   4.035   4.268   1.960  0.4154 -0.1023  0.8529
  221MOL0     C30371   4.078   4.314   2.092 -0.4850  0.4008 -0.2244
  221MOL0     C30372   4.084   4.198   2.195 -0.2501  0.3771 -0.0154
  221MOL0     C30373   4.145   4.236   2.334  0.2204  0.7162  0.5211
  221MOL0     C30374   4.056   4.328   2.419 -0.3360  0.1043 -0.4651
  221MOL0     C30375   4.122   4.353   2.558 -0.1079 -0.1817 -0.2364
  221MOL0     C30376   4.053   4.474   2.627 -0.8000  0.0194  0.6349
  221MOL0     N30377   4.127   4.486   2.760  0.3454  0.3443 -0.2707
  221MOL0     C30378   4.140   4.393   2.859 -0.6075 -0.3708 -0.1668
  221MOL0     C30379   4.230   4.449   2.943 -0.3118 -0.9153  0.5050
  221MOL0     C30380   4.285   4.385   3.060 -1.2353 -0.3815 -0.6712
  221MOL0     C30381   4.252   4.461   3.187 -0.4408  0.4092  0.6496
  221MOL0     C30382   4.102   4.490   3.213  0.0569  0.1368 -0.1612
  221MOL0     C30383   4.072   4.505   3.364  1.0192  0.0158  0.2763
  221MOL0     O30384   4.149   4.610   3.417  0.1211 -0.1128 -0.0090
  221MOL0     C30385   4.101   4.665   3.537 -0.8896 -0.6321  0.9792
  221MOL0     C30386   4.024   4.592   3.631  0.2499  0.6420  0.4668
  221MOL0     C30387   3.983   4.652   3.748  0.4715  0.1954 -0.0847
  221MOL0     C30388   3.916   4.561   3.854 -0.3341 -0.0552 -0.5995
  221MOL0     C30389   4.016   4.789   3.766 -0.7272 -0.0826 -0.3147
  221MOL0     C30390   3.982   4.867   3.891  0.6261 -0.0514 -0.9655
  221MOL0     O30391   3.939   4.992   3.862  0.0902  0.0743  1.2781
  221MOL0     C30392   3.903   5.075   3.969 -1.0777 -0.2910 -0.8352
  221MOL0     C30393   3.993   5.119   4.073  0.2008  1.2336  0.8298
  221MOL0     C30394   3.955   5.205   4.171  0.7337 -0.0432 -0.3084
  221MOL0     C30395   3.826   5.254   4.176 -0.0374 -0.1758  0.4308
  221MOL0     O30396   3.788   5.352   4.271 -0.2436 -0.3991 -1.0940
  221MOL0     C30397   3.881   5.378   4.373 -1.1466 -0.0200 -0.2543
  221MOL0     C30398   4.002   5.468   4.349 -0.7625  0.7749  0.2839
  221MOL0     C30399   3.997   5.595   4.268 -0.1730 -1.0923  0.2197
  221MOL0     C30400   3.908   5.607   4.144 -0.3194  0.2205 -0.3281
  221MOL0     C30401   3.941   5.737   4.065  0.0639 -0.3828 -0.3964
  221MOL0     C30402   3.814   5.779   3.986  0.1115 -0.0945 -0.1390
  221MOL0     C30403   3.802   5.702   3.862  0.9958  0.7602 -0.0618
  221MOL0     C30404   3.659   5.651   3.831  0.4662 -1.0953  0.4429
  221MOL0    Cl30405   3.631   5.485   3.885  0.1010  0.4496  0.1409
  221MOL0     C30406   3.739   5.227   4.068  0.6447 -0.5956 -0.0754
  221MOL0     C30407   3.778   5.126   3.974  0.1117 -0.2445 -0.0295
  221MOL0     O30408   4.008   4.819   4.006 -0.4804  0.4622 -0.4917
  221MOL0     C30409   4.090   4.860   3.677 -0.4977  0.4661 -0.0603
  221MOL0     C30410   4.138   4.803   3.558 -0.4883 -0.2302 -0.1710
  221MOL0     N30411   4.275   4.577   2.902 -0.4928 -0.1762 -0.4431
  221MOL0     N30412   4.219   4.589   2.786  0.4182  0.2433 -0.2436
  221MOL0     C30413   3.680   4.474   2.027  1.1282  0.1088  0.6487
  221MOL0     C30414   3.552   4.440   2.044  0.2179  0.5285 -1.2495
  221MOL0     C30415   3.218   4.193   2.197  0.6950  0.2686 -0.3892
  221MOL0     C30416   3.116   4.206   2.107 -0.2331  0.4219 -0.4313
  221MOL0     C30417   2.979   4.183   2.141  1.0176  0.3706 -1.0204
  221MOL0     C30418   2.945   4.156   2.273  0.2802  0.4992  0.2296
  221MOL0     O30419   2.807   4.146   2.310 -0.7354 -0.0638 -0.5058
  221MOL0     C30420   2.790   4.105   2.440  0.1810 -1.1501 -0.7552
  221MOL0     C30421   2.819   4.231   2.546 -0.2514  0.0714 -0.2377
  221MOL0     C30422   2.696   4.314   2.591  0.0781 -0.5662  0.1256
  221MOL0     C30423   2.654   4.400   2.468 -0.8679 -0.7140  0.7933
  221MOL0     C30424   2.529   4.475   2.485 -0.6044 -0.2206  0.6773
  221MOL0     C30425   2.433   4.546   2.490  0.0519  0.4144 -0.7940
  221MOL0     C30426   3.050   4.124   2.357 -0.0232  0.0547 -1.1696
  221MOL0     C30427   3.182   4.149   2.327 -0.1447 -0.0203 -0.3982
  221MOL0     C30428   3.286   4.121   2.446  0.2485 -0.1888 -0.2962
  221MOL0     H30429   3.557   4.165   1.853 -1.1944 -0.1343  1.5053
  221MOL0     H30430   3.767   4.254   1.782  0.2539 -0.2945  0.0131
  221MOL0     H30431   4.066   4.447   1.837  0.5529 -1.7976 -1.4924
  221MOL0     H30432   3.954   4.339   1.769 -0.2325  0.3188 -0.7322
  221MOL0     H30433   3.952   4.198   1.973 -0.8147  1.4641  1.7236
  221MOL0     H30434   4.110   4.204   1.913  0.3229  0.8501 -0.6553
  221MOL0     H30435   4.173   4.368   2.080  0.2487  0.3162  3.9522
  221MOL0     H30436   4.009   4.389   2.132 -2.3072  0.3663 -3.0180
  221MOL0     H30437   3.980   4.167   2.210 -0.9559  2.3860 -0.3902
  221MOL0     H30438   4.132   4.110   2.153  0.4831  0.8435 -0.1678
  221MOL0     H30439   4.235   4.289   2.301 -1.6970  4.6966  1.0393
  221MOL0     H30440   4.164   4.137   2.377  2.8122 -0.0683 -2.1147
  221MOL0     H30441   4.044   4.425   2.371  0.9780  0.0770 -0.8844
  221MOL0     H30442   3.954   4.288   2.414  0.5703 -2.3729 -0.4894
  221MOL0     H30443   4.226   4.383   2.541 -0.8198  1.3587 -2.1947
  221MOL0     H30444   4.119   4.270   2.629 -1.2246 -0.5959 -0.7552
  221MOL0     H30445   4.072   4.562   2.566  0.0847 -1.2632 -0.9892
  221MOL0     H30446   3.946   4.465   2.650 -0.6909  0.4331  1.3516
  221MOL0     H30447   4.093   4.296   2.864 -3.3498  0.8936  1.1565
  221MOL0     H30448   4.394   4.374   3.054 -1.1589  0.1754 -0.3491
  221MOL0     H30449   4.249   4.282   3.070  0.5679 -0.9131  1.0060
  221MOL0     H30450   4.287   4.390   3.262  3.2908  0.8892 -0.4228
  221MOL0     H30451   4.304   4.558   3.186  0.3018  0.2085  4.4250
  221MOL0     H30452   4.083   4.577   3.149  0.2698 -0.5708 -1.2166
  221MOL0     H30453   4.039   4.409   3.176  0.1006  0.7239 -1.5856
  221MOL0     H30454   3.964   4.504   3.383  1.0411 -2.8633  0.6665
  221MOL0     H30455   4.092   4.406   3.406 -2.9262 -0.4625  1.4276
  221MOL0     H30456   4.009   4.486   3.616 -0.4568  0.7348  0.4749
  221MOL0     H30457   3.937   4.587   3.958 -0.1216  0.4324 -0.7613
  221MOL0     H30458   3.951   4.458   3.849 -0.1529 -0.1463  1.7719
  221MOL0     H30459   3.809   4.556   3.833 -0.2575 -1.4417 -0.7385
  221MOL0     H30460   4.093   5.077   4.074 -0.4599 -0.4340  2.5515
  221MOL0     H30461   4.019   5.219   4.257  0.8416  2.7731 -0.7549
  221MOL0     H30462   3.808   5.422   4.443 -0.5884 -1.3111  1.2083
  221MOL0     H30463   3.931   5.299   4.429  2.1076  2.7595  1.1767
  221MOL0     H30464   4.034   5.498   4.449  2.0214  1.9477 -0.8694
  221MOL0     H30465   4.077   5.405   4.301  0.1601  1.7434  0.4085
  221MOL0     H30466   4.099   5.611   4.234  0.6104 -2.8864  1.5848
  221MOL0     H30467   3.957   5.680   4.323  0.0451 -1.2142  0.5692
  221MOL0     H30468   3.802   5.603   4.169 -0.9972 -0.8736 -3.0538
  221MOL0     H30469   3.931   5.524   4.077 -0.3248 -0.4166  0.4609
  221MOL0     H30470   3.964   5.810   4.142 -2.6028 -1.6202  1.7584
  221MOL0     H30471   4.030   5.710   4.007  1.8126  3.2954  0.3288
  221MOL0     H30472   3.830   5.884   3.959 -0.6864  0.4152  1.2549
  221MOL0     H30473   3.728   5.763   4.052  1.1340 -0.8137  1.0737
  221MOL0     H30474   3.866   5.613   3.869 -1.0208 -0.6671  1.8216
  221MOL0     H30475   3.829   5.763   3.776 -0.5495  0.6325 -0.6601
  221MOL0     H30476   3.628   5.658   3.726  0.1363 -1.1503  0.5349
  221MOL0     H30477   3.587   5.711   3.888  2.1950  2.0948 -0.4644
  221MOL0     H30478   3.646   5.278   4.044  1.1692 -0.1930 -1.3461
  221MOL0     H30479   3.706   5.111   3.894  2.2971  3.0799 -2.8755
  221MOL0     H30480   4.123   4.959   3.707  3.3716 -1.3115  2.3132
  221MOL0     H30481   4.188   4.862   3.482  0.5114  0.4444  0.9575
  221MOL0     H30482   3.725   4.546   2.093 -1.9019  1.3392  1.5555
  221MOL0     H30483   3.491   4.503   2.108  1.3434  0.8148 -0.4342
  221MOL0     H30484   3.137   4.261   2.016  0.0336 -0.2680 -0.7952
  221MOL0     H30485   2.896   4.206   2.075 -0.2295  1.3558  0.7865
  221MOL0     H30486   2.682   4.086   2.433 -1.0648  4.7237 -2.9316
  221MOL0     H30487   2.850   4.016   2.461 -1.9632 -1.7165  4.2126
  221MOL0     H30488   2.890   4.299   2.498  1.2976 -0.4919  1.1575
  221MOL0     H30489   2.871   4.184   2.630  0.6149  2.0028  0.3667
  221MOL0     H30490   2.616   4.251   2.629 -0.8818  1.2269  1.2083
  221MOL0     H30491   2.722   4.385   2.670 -1.6951 -0.3067  0.5268
  221MOL0     H30492   2.649   4.332   2.382  2.2751  1.3881 -1.2451
  221MOL0     H30493   2.737   4.464   2.437  0.3684 -1.7216  1.9100
  221MOL0     H30494   2.349   4.612   2.503 -0.6636 -1.0550  4.8509
  221MOL0     H30495   3.032   4.108   2.463  0.0002  0.5813 -1.0843
  221MOL0     H30496   3.358   4.046   2.413  2.3077  0.3855  2.4832
  221MOL0     H30497   3.332   4.210   2.489 -1.6871  1.6435 -1.8360
  221MOL0     H30498   3.222   4.088   2.528  1.4441 -1.1699  0.2756
  222MOL0     O30499  10.095   0.424   9.477 -0.1197  0.6646 -0.3502
  222MOL0     C30500  10.184   0.367   9.544  0.4139  0.1248  0.3852
  222MOL0     O30501  10.211   0.393   9.673  0.1983 -0.4425  0.9474
  222MOL0     C30502  10.112   0.473   9.732 -0.1092 -0.3424 -0.2663
  222MOL0     C30503   9.984   0.416   9.761  0.2906  1.0411  0.3160
  222MOL0     C30504   9.889   0.482   9.842 -0.1012 -0.7771 -0.8405
  222MOL0     C30505   9.922   0.612   9.896 -0.0771  0.3817 -0.4101
  222MOL0     O30506   9.829   0.676   9.973  0.0238  0.0517  0.2273
  222MOL0     C30507   9.722   0.611  10.050 -0.4623  0.2995  0.0710
  222MOL0     C30508   9.637   0.718  10.121  0.6970  0.0523 -1.0239
  222MOL0     C30509   9.526   0.796  10.047  0.1391 -0.4773 -0.5279
  222MOL0     C30510   9.427   0.708   9.975  0.0523  0.7993 -0.0020
  222MOL0     C30511   9.311   0.778   9.932 -0.4385 -0.6585 -0.0977
  222MOL0     C30512   9.346   0.878   9.815 -0.3003  0.6685  0.4262
  222MOL0     C30513   9.224   0.961   9.775  0.2079 -0.6606  0.6362
  222MOL0     C30514   9.107   0.873   9.716  0.3073  0.3468  0.7469
  222MOL0     N30515   9.154   0.783   9.601 -0.5756  0.1908  0.2639
  222MOL0     C30516   9.127   0.808   9.465 -0.2670  0.8361 -0.4133
  222MOL0     C30517   9.175   0.698   9.397 -1.0212 -0.2138 -0.7033
  222MOL0     C30518   9.183   0.667   9.246  0.3129  0.2810 -0.4255
  222MOL0     C30519   9.051   0.603   9.201  0.0387  0.2173  0.7228
  222MOL0     C30520   9.001   0.471   9.266 -1.6540 -0.5814 -0.6236
  222MOL0     C30521   8.866   0.431   9.209  0.6908 -0.3812  0.0908
  222MOL0     O30522   8.784   0.397   9.317  0.3462  0.2332 -0.9383
  222MOL0     C30523   8.740   0.481   9.424  0.1838 -0.3269  1.4323
  222MOL0     C30524   8.754   0.623   9.434  0.1245  0.3635 -0.3240
  222MOL0     C30525   8.729   0.703   9.540  1.0103  0.5765  0.3212
  222MOL0     C30526   8.738   0.854   9.534  0.0259 -0.4569  0.1874
  222MOL0     C30527   8.677   0.636   9.657 -0.1432 -0.2360  1.4241
  222MOL0     C30528   8.632   0.706   9.783  0.2998  1.4559 -0.5258
  222MOL0     O30529   8.513   0.665   9.840 -0.1526 -0.4468 -0.4711
  222MOL0     C30530   8.448   0.750   9.933  0.3421 -0.2116  0.0453
  222MOL0     C30531   8.501   0.871   9.993  0.3904 -1.2262 -0.7400
  222MOL0     C30532   8.441   0.911  10.116  0.5036  0.4109  0.6245
  222MOL0     C30533   8.316   0.854  10.156  1.0220  0.0605  0.7769
  222MOL0     O30534   8.248   0.900  10.266 -0.3831  0.8905  0.1788
  222MOL0     C30535   8.307   0.953  10.384  0.4916  0.9389 -0.2437
  222MOL0     C30536   8.200   1.010  10.481  0.1685  0.2114  0.2897
  222MOL0     C30537   8.135   0.918  10.574  0.3988  0.4713  0.2349
  222MOL0     C30538   7.996   0.977  10.607  0.1507 -0.1068 -1.3312
  222MOL0     C30539   7.937   0.895  10.729  0.2496 -0.0182  0.3799
  222MOL0     C30540   7.857   0.770  10.689  0.4170 -0.0899 -0.9097
  222MOL0     C30541   7.808   0.687  10.813  0.9326  0.2663  0.6769
  222MOL0     C30542   7.700   0.590  10.764 -1.0020 -1.1018 -0.3398
  222MOL0    Cl30543   7.764   0.428  10.804  0.3666 -0.1670 -0.3463
  222MOL0     C30544   8.262   0.742  10.091 -0.4523 -0.6048 -0.0593
  222MOL0     C30545   8.322   0.691   9.974  0.9791 -1.2508 -0.5136
  222MOL0     O30546   8.710   0.791   9.818  0.7482 -0.4608 -0.0442
  222MOL0     C30547   8.659   0.493   9.649  0.3104 -0.2175  0.6486
  222MOL0     C30548   8.685   0.422   9.536  1.1930 -0.4236 -0.3953
  222MOL0     N30549   9.234   0.612   9.489  0.2536 -0.4686  0.4516
  222MOL0     N30550   9.218   0.652   9.608 -0.3663  0.4197 -0.7012
  222MOL0     C30551  10.048   0.666   9.875 -0.1329 -0.2427  0.1844
  222MOL0     C30552  10.143   0.597   9.798  0.8443  0.2526  0.5734
  222MOL0     C30553  10.290   0.276   9.477 -0.1797 -0.0103  0.3677
  222MOL0     C30554  10.417   0.268   9.533  0.3416 -0.7892  0.2961
  222MOL0     C30555  10.524   0.192   9.478 -0.2776 -1.1121  0.2018
  222MOL0     C30556  10.519   0.137   9.346  0.4612 -1.5231 -0.4015
  222MOL0     O30557  10.630   0.086   9.288 -0.4047 -0.9770  0.4272
  222MOL0     C30558  10.618   0.034   9.155 -0.2764  1.2504 -0.1443
  222MOL0     C30559  10.614  -0.118   9.153 -0.3789  0.7301 -0.1076
  222MOL0     C30560  10.752  -0.186   9.171  0.5977  0.1373 -0.4357
  222MOL0     C30561  10.740  -0.338   9.137  0.9561  0.0041 -0.4050
  222MOL0     C30562  10.765  -0.349   8.993 -0.5618  0.2526 -0.8388
  222MOL0     C30563  10.770  -0.349   8.865  0.9033  1.3647 -0.0146
  222MOL0     C30564  10.385   0.149   9.292  0.2263 -0.3143  0.3207
  222MOL0     C30565  10.280   0.213   9.353  0.1508  0.0996 -0.6414
  222MOL0     C30566  10.145   0.203   9.289 -0.5255  0.1578  0.2392
  222MOL0     H30567   9.962   0.316   9.727  0.9500 -0.0155  2.7586
  222MOL0     H30568   9.804   0.422   9.873  0.8871 -0.7076  2.4341
  222MOL0     H30569   9.757   0.548  10.131 -1.4717  0.3873  0.5963
  222MOL0     H30570   9.663   0.554   9.977 -2.6461 -1.3772  2.9423
  222MOL0     H30571   9.576   0.662  10.193  0.4385  0.4691 -0.9202
  222MOL0     H30572   9.696   0.786  10.183 -1.2343  0.4738  0.4813
  222MOL0     H30573   9.481   0.860  10.123  0.7068  0.3066 -0.8256
  222MOL0     H30574   9.578   0.860   9.974 -0.1841  0.4035 -0.0059
  222MOL0     H30575   9.481   0.651   9.899 -0.7745  1.8019 -1.3715
  222MOL0     H30576   9.385   0.642  10.052  1.8414 -0.0974  0.2406
  222MOL0     H30577   9.265   0.829  10.017  1.4397 -1.4714  1.5035
  222MOL0     H30578   9.247   0.705   9.882 -0.7188  0.6339 -1.7157
  222MOL0     H30579   9.428   0.942   9.852 -0.5211  0.4783  1.2714
  222MOL0     H30580   9.381   0.835   9.721 -4.0136 -2.5619  0.3244
  222MOL0     H30581   9.239   1.026   9.688 -0.1170  1.4875  2.1229
  222MOL0     H30582   9.188   1.022   9.858 -3.1385  0.2649 -1.3039
  222MOL0     H30583   9.057   0.816   9.795 -3.2558  0.7085 -1.0328
  222MOL0     H30584   9.023   0.936   9.683 -1.1253 -2.0734 -0.5944
  222MOL0     H30585   9.065   0.889   9.428 -3.4050 -0.4004  1.6542
  222MOL0     H30586   9.257   0.587   9.237 -1.6715 -2.4301  3.9999
  222MOL0     H30587   9.209   0.749   9.178 -1.8673 -0.1781 -1.9043
  222MOL0     H30588   8.965   0.668   9.223  0.0896  0.1606  1.0835
  222MOL0     H30589   9.055   0.594   9.092 -0.0945 -1.4624  0.8301
  222MOL0     H30590   9.066   0.387   9.241 -1.6357 -0.8812  0.3934
  222MOL0     H30591   9.003   0.477   9.375  0.9759  1.3743 -0.6990
  222MOL0     H30592   8.814   0.502   9.145  0.1342 -1.3392 -0.5521
  222MOL0     H30593   8.890   0.340   9.152 -2.0565 -2.0766  1.4264
  222MOL0     H30594   8.815   0.664   9.354  1.5098 -2.1304 -0.6662
  222MOL0     H30595   8.841   0.883   9.559 -0.3655 -1.6316  3.6743
  222MOL0     H30596   8.666   0.893   9.607  2.8272  1.4843  2.1310
  222MOL0     H30597   8.709   0.884   9.433 -0.0605 -1.4161 -0.0829
  222MOL0     H30598   8.594   0.923   9.973 -0.7247  1.1079 -0.2040
  222MOL0     H30599   8.484   0.995  10.171  2.1079 -0.8267  1.3636
  222MOL0     H30600   8.366   0.878  10.438  0.0488  0.9784  0.2987
  222MOL0     H30601   8.384   1.027  10.361  3.2537 -1.3075  1.1480
  222MOL0     H30602   8.250   1.083  10.545  0.6225  0.4169 -0.2904
  222MOL0     H30603   8.125   1.067  10.425  0.1454  1.1195  1.2162
  222MOL0     H30604   8.190   0.904  10.667 -0.8134  0.0976  0.9133
  222MOL0     H30605   8.126   0.817  10.531 -1.0696  0.6364  0.0780
  222MOL0     H30606   7.930   0.980  10.519 -2.6372 -1.5294  0.5575
  222MOL0     H30607   8.008   1.075  10.653 -1.2993 -0.7629  0.5575
  222MOL0     H30608   8.012   0.849  10.794 -1.7725  0.8019  3.5556
  222MOL0     H30609   7.878   0.967  10.787  0.0834  1.9656 -2.0630
  222MOL0     H30610   7.905   0.700  10.620  0.9720  1.5488 -2.2427
  222MOL0     H30611   7.766   0.811  10.643 -1.0989 -0.9448  1.1750
  222MOL0     H30612   7.772   0.758  10.888  1.9803  2.8427 -1.1124
  222MOL0     H30613   7.897   0.644  10.861  1.1565  0.7004  0.6570
  222MOL0     H30614   7.693   0.598  10.656  1.8614  2.6171 -0.4495
  222MOL0     H30615   7.604   0.614  10.810 -0.1455 -0.4288  1.1957
  222MOL0     H30616   8.189   0.691  10.153  2.5390 -3.0090  1.7589
  222MOL0     H30617   8.304   0.593   9.929  0.8315 -1.8809  0.8684
  222MOL0     H30618   8.622   0.449   9.741 -0.5106  1.6746  1.2980
  222MOL0     H30619   8.682   0.314   9.532 -2.4353 -0.4032 -2.5014
  222MOL0     H30620  10.080   0.757   9.923 -2.8215  1.1759 -0.5331
  222MOL0     H30621  10.240   0.642   9.781  0.6402  0.1648 -1.0453
  222MOL0     H30622  10.427   0.294   9.637 -0.3813 -0.9006  0.3977
  222MOL0     H30623  10.623   0.194   9.523 -0.1188 -2.4645 -0.0667
  222MOL0     H30624  10.533   0.075   9.100  0.0220  1.1085 -0.7187
  222MOL0     H30625  10.710   0.060   9.101 -0.3183 -0.1769 -0.9493
  222MOL0     H30626  10.562  -0.158   9.065  0.3418 -1.8929  0.5873
  222MOL0     H30627  10.550  -0.145   9.237  0.2234  0.8238  0.3914
  222MOL0     H30628  10.829  -0.147   9.104 -0.9917 -0.0809 -2.5080
  222MOL0     H30629  10.785  -0.178   9.275  2.6340 -0.6696 -0.9624
  222MOL0     H30630  10.646  -0.382   9.170  2.0173 -2.5924 -0.5670
  222MOL0     H30631  10.809  -0.402   9.192 -1.7057 -2.2019  0.5975
  222MOL0     H30632  10.784  -0.329   8.761  3.2941  0.8219  0.1311
  222MOL0     H30633  10.366   0.106   9.194  1.3771  0.8066 -0.4126
  222MOL0     H30634  10.157   0.149   9.195  1.7535  0.7157  0.1413
  222MOL0     H30635  10.077   0.153   9.358 -1.5824 -1.5021 -1.8764
  222MOL0     H30636  10.106   0.303   9.270  0.7200  1.0222  1.9251
  223MOL0     O30637   5.549  11.527   9.530 -0.8976  0.2592  0.1610
  223MOL0     C30638   5.472  11.499   9.622  0.7874  0.6868 -0.2011
  223MOL0     O30639   5.476  11.548   9.750  0.5479  0.3112 -0.0700
  223MOL0     C30640   5.578  11.638   9.780  0.1436  1.0907 -0.0814
  223MOL0     C30641   5.642  11.618   9.901 -0.3032 -0.9364 -0.0123
  223MOL0     C30642   5.741  11.713   9.939  0.0373  0.1736  0.0026
  223MOL0     C30643   5.791  11.799   9.848  1.1397 -0.2113 -0.2181
  223MOL0     O30644   5.901  11.863   9.891  0.1506  0.0145 -0.7953
  223MOL0     C30645   5.905  11.999   9.879 -0.4839  0.5349  0.7602
  223MOL0     C30646   5.825  12.077   9.982  0.4810 -0.7092  0.5966
  223MOL0     C30647   5.836  12.228   9.967  0.4665  0.0027 -0.6691
  223MOL0     C30648   5.745  12.285   9.856  0.4115  1.1020 -0.4925
  223MOL0     C30649   5.751  12.439   9.855 -1.0170 -0.2504  0.0384
  223MOL0     C30650   5.878  12.500   9.792 -0.8288  0.4347 -0.0165
  223MOL0     C30651   5.846  12.644   9.764 -1.3776 -0.3732 -0.1502
  223MOL0     C30652   5.971  12.717   9.703  0.0719 -0.1578  0.3351
  223MOL0     N30653   5.965  12.867   9.702  0.6141 -0.3168 -0.5681
  223MOL0     C30654   5.854  12.945   9.677 -0.4580 -0.1245  0.1419
  223MOL0     C30655   5.911  13.062   9.683 -0.4969 -1.1709 -0.1114
  223MOL0     C30656   5.845  13.197   9.645 -0.1332  0.6255  0.9266
  223MOL0     C30657   5.839  13.218   9.499 -0.1118 -0.5616  1.3555
  223MOL0     C30658   5.734  13.330   9.462 -0.8236  0.3608 -0.4976
  223MOL0     C30659   5.731  13.340   9.309 -0.4121  0.3559 -0.2630
  223MOL0     O30660   5.682  13.224   9.251  0.5793 -0.0414 -0.6405
  223MOL0     C30661   5.678  13.208   9.116 -1.3877 -0.0181  0.5589
  223MOL0     C30662   5.596  13.109   9.063 -0.9278 -0.3620  0.4301
  223MOL0     C30663   5.596  13.082   8.927  0.6952  0.2494 -0.1669
  223MOL0     C30664   5.498  12.974   8.887  0.2505  0.5278 -0.3652
  223MOL0     C30665   5.688  13.150   8.840  0.5244 -1.3117  0.3684
  223MOL0     C30666   5.713  13.108   8.696 -0.4100  1.0528 -0.5346
  223MOL0     O30667   5.810  13.167   8.621 -0.1278 -0.6327 -0.0684
  223MOL0     C30668   5.835  13.111   8.497 -0.4220 -0.0478  0.7085
  223MOL0     C30669   5.944  13.027   8.481  0.4629 -0.4328 -0.7598
  223MOL0     C30670   5.977  12.967   8.363 -0.4003  0.0401 -0.2442
  223MOL0     C30671   5.900  12.982   8.249 -0.0807  0.1049 -0.3088
  223MOL0     O30672   5.944  12.902   8.143  0.4857 -0.3523  0.0311
  223MOL0     C30673   5.873  12.922   8.017 -0.1657 -0.4332  0.1594
  223MOL0     C30674   5.926  12.843   7.897  0.7156 -0.5260 -0.4968
  223MOL0     C30675   6.070  12.861   7.862  0.1974 -0.2362 -0.2130
  223MOL0     C30676   6.093  13.005   7.814  1.0422 -0.5401  0.6164
  223MOL0     C30677   6.246  13.006   7.771  0.0656  0.1655 -0.2638
  223MOL0     C30678   6.295  13.141   7.708  0.2037  0.1489  0.0131
  223MOL0     C30679   6.447  13.134   7.679  0.5588 -0.3652 -0.1595
  223MOL0     C30680   6.495  13.274   7.651  0.2815 -0.3507  0.7913
  223MOL0    Cl30681   6.651  13.245   7.547  0.1196  0.4828  0.2419
  223MOL0     C30682   5.800  13.081   8.258 -0.4923  0.4181  0.4450
  223MOL0     C30683   5.769  13.143   8.382  0.9215 -0.0092  0.6210
  223MOL0     O30684   5.636  13.030   8.638 -0.8703  0.2236 -0.4184
  223MOL0     C30685   5.757  13.254   8.892  0.2490  0.0987 -0.1806
  223MOL0     C30686   5.750  13.290   9.029 -0.3785  0.3851 -0.5321
  223MOL0     N30687   6.046  13.064   9.711 -0.0967  0.0003 -0.4751
  223MOL0     N30688   6.075  12.937   9.724  0.0245 -0.1696  0.5745
  223MOL0     C30689   5.718  11.826   9.729  0.2509 -0.6593  0.8575
  223MOL0     C30690   5.612  11.750   9.702 -0.6811  0.9308 -0.6370
  223MOL0     C30691   5.367  11.397   9.602 -0.0608  0.2830  0.2609
  223MOL0     C30692   5.329  11.304   9.706 -0.2875 -0.1179 -0.7151
  223MOL0     C30693   5.222  11.215   9.687 -0.0361  0.4037 -1.2398
  223MOL0     C30694   5.141  11.218   9.575  0.3940  1.4054  0.4481
  223MOL0     O30695   5.027  11.139   9.550  0.0110  0.8851  0.3757
  223MOL0     C30696   4.985  11.046   9.645 -0.6775  0.1742  0.1671
  223MOL0     C30697   4.887  10.941   9.595  0.3033  0.3024  0.0911
  223MOL0     C30698   4.954  10.863   9.483  0.0850  0.1236 -0.5275
  223MOL0     C30699   4.880  10.734   9.467  0.2538  1.0877 -0.1691
  223MOL0     C30700   4.948  10.648   9.379  0.2215  1.3096  0.5889
  223MOL0     C30701   5.000  10.569   9.307 -0.8865  0.1417 -0.4621
  223MOL0     C30702   5.176  11.307   9.467 -0.5044  0.0374  0.6205
  223MOL0     C30703   5.295  11.386   9.478  0.0655 -0.0315 -0.2756
  223MOL0     C30704   5.323  11.478   9.363  0.1336  0.2736 -1.0058
  223MOL0     H30705   5.616  11.533   9.964  0.3725 -2.2009 -1.3702
  223MOL0     H30706   5.800  11.703  10.029 -0.4214  3.5841  0.8309
  223MOL0     H30707   5.866  12.030   9.781 -0.0042  1.3253  0.8127
  223MOL0     H30708   6.012  12.021   9.891 -0.0373 -0.2167 -1.2962
  223MOL0     H30709   5.718  12.052   9.976 -0.2222  0.8371  4.1416
  223MOL0     H30710   5.864  12.071  10.084  4.3125  1.9238 -0.4879
  223MOL0     H30711   5.802  12.274  10.060 -0.7969 -1.6479 -0.2594
  223MOL0     H30712   5.941  12.249   9.945  1.1197 -2.5407 -0.2794
  223MOL0     H30713   5.767  12.244   9.757 -1.2237 -1.5579  0.1448
  223MOL0     H30714   5.644  12.252   9.879  0.9305 -0.1558  0.0398
  223MOL0     H30715   5.755  12.474   9.959 -0.0250 -1.9167  0.6053
  223MOL0     H30716   5.664  12.473   9.799 -0.4744  0.1894 -0.5469
  223MOL0     H30717   5.962  12.488   9.861 -1.8183 -0.9256  0.9934
  223MOL0     H30718   5.904  12.451   9.697 -0.7099  1.9945 -0.8224
  223MOL0     H30719   5.812  12.705   9.848 -3.3679 -0.6049 -0.7265
  223MOL0     H30720   5.762  12.652   9.694 -0.4445  1.3995 -1.1369
  223MOL0     H30721   6.061  12.679   9.752  2.7676  0.1290 -3.9344
  223MOL0     H30722   5.971  12.695   9.596 -2.0218 -1.2895  0.5163
  223MOL0     H30723   5.757  12.915   9.639  1.5533 -3.3742 -3.1142
  223MOL0     H30724   5.905  13.280   9.683 -0.1509  0.4838  1.2693
  223MOL0     H30725   5.744  13.195   9.688  0.3550 -0.1044  2.1132
  223MOL0     H30726   5.939  13.241   9.463 -0.5430  1.3775  1.2994
  223MOL0     H30727   5.807  13.129   9.443  0.4490  0.6965 -1.1207
  223MOL0     H30728   5.641  13.298   9.510 -0.1386 -0.4155  0.3769
  223MOL0     H30729   5.768  13.423   9.509 -1.0948  0.6438 -0.8648
  223MOL0     H30730   5.678  13.435   9.299  0.1683  0.7503  0.3164
  223MOL0     H30731   5.831  13.352   9.265 -0.7371 -0.1397 -1.1733
  223MOL0     H30732   5.540  13.052   9.136 -1.4028  0.7175  0.9325
  223MOL0     H30733   5.444  12.946   8.978 -0.0821 -0.0378 -0.7348
  223MOL0     H30734   5.550  12.889   8.842  0.8133 -0.4133  1.8797
  223MOL0     H30735   5.422  13.011   8.818  0.3259 -0.8450 -1.2103
  223MOL0     H30736   6.005  13.006   8.569  0.3185  0.6542 -0.3791
  223MOL0     H30737   6.061  12.898   8.359  1.7352  2.3375  1.7901
  223MOL0     H30738   5.772  12.891   8.044  0.4431  0.5298  4.2544
  223MOL0     H30739   5.874  13.029   7.994 -1.4936  0.0210  1.9994
  223MOL0     H30740   5.896  12.737   7.900 -0.2067 -0.3951 -3.0971
  223MOL0     H30741   5.875  12.885   7.810  0.9385  0.1958 -0.2845
  223MOL0     H30742   6.101  12.791   7.784 -2.0555 -1.9195  0.3077
  223MOL0     H30743   6.137  12.829   7.943  0.2931  0.6849  0.0897
  223MOL0     H30744   6.066  13.086   7.883  0.8909  0.7167 -0.8482
  223MOL0     H30745   6.031  13.010   7.724 -0.2409  0.8516  1.5318
  223MOL0     H30746   6.300  12.969   7.859  1.9540  1.9889 -0.5762
  223MOL0     H30747   6.252  12.924   7.698 -1.0664 -0.2069  0.0395
  223MOL0     H30748   6.268  13.226   7.771  0.1470  0.7637 -0.8234
  223MOL0     H30749   6.256  13.164   7.609 -1.1062  0.0401  0.4920
  223MOL0     H30750   6.467  13.064   7.598 -0.6027 -0.0797 -0.7119
  223MOL0     H30751   6.493  13.088   7.768 -1.0251 -2.9549 -0.5770
  223MOL0     H30752   6.517  13.336   7.738 -1.3046  0.0967  0.9011
  223MOL0     H30753   6.421  13.330   7.594  1.3418  0.1747 -0.1201
  223MOL0     H30754   5.737  13.101   8.171  0.7417  2.5399 -0.0354
  223MOL0     H30755   5.688  13.214   8.398  0.9944 -0.0595  1.2546
  223MOL0     H30756   5.820  13.315   8.827  3.2487  0.4050  2.7739
  223MOL0     H30757   5.809  13.378   9.051 -0.3380  0.3954 -0.6816
  223MOL0     H30758   5.758  11.903   9.664  4.5200 -2.5075  0.9150
  223MOL0     H30759   5.567  11.767   9.605  1.5364 -1.2166 -2.1618
  223MOL0     H30760   5.400  11.293   9.788  1.7130  2.1157 -2.0149
  223MOL0     H30761   5.197  11.144   9.766  2.4438  2.8479  2.0298
  223MOL0     H30762   5.076  10.998   9.682  0.4335  1.3826 -0.8583
  223MOL0     H30763   4.935  11.095   9.729 -2.8416 -1.4120 -0.1390
  223MOL0     H30764   4.798  10.987   9.550  0.2502 -2.4723 -2.9445
  223MOL0     H30765   4.842  10.876   9.671  1.4618  0.6200  1.0774
  223MOL0     H30766   4.970  10.919   9.390  1.5767  2.9694  1.2990
  223MOL0     H30767   5.057  10.840   9.508  0.1170  1.0932  0.3028
  223MOL0     H30768   4.776  10.751   9.438  0.0326  1.0293  0.5654
  223MOL0     H30769   4.861  10.689   9.565 -1.1453  1.1871 -0.3869
  223MOL0     H30770   5.045  10.524   9.221 -1.0460  1.5396 -1.3218
  223MOL0     H30771   5.112  11.302   9.379 -1.8889  0.0933  1.5872
  223MOL0     H30772   5.403  11.438   9.300  1.4297  1.8639 -0.4445
  223MOL0     H30773   5.240  11.501   9.297  0.6254  5.6762 -0.1613
  223MOL0     H30774   5.344  11.575   9.408  0.6254 -0.9137  1.5253
  224MOL0     O30775   5.949   4.353   5.509 -0.7258 -0.0091  0.0604
  224MOL0     C30776   5.959   4.254   5.431 -0.0000  0.0582  0.5998
  224MOL0     O30777   6.056   4.158   5.423 -0.1174  0.1261  0.6259
  224MOL0     C30778   6.174   4.178   5.487 -0.1375  0.2767 -0.2191
  224MOL0     C30779   6.245   4.309   5.502  1.0211  1.0006 -0.0361
  224MOL0     C30780   6.378   4.316   5.536 -0.0884  0.3372 -0.7190
  224MOL0     C30781   6.448   4.201   5.578  0.5521  0.3123 -0.3110
  224MOL0     O30782   6.579   4.206   5.630 -0.2133  0.5753 -0.5810
  224MOL0     C30783   6.644   4.329   5.619  0.1438  0.1328 -0.1919
  224MOL0     C30784   6.787   4.331   5.678 -1.2651  0.6844  1.0246
  224MOL0     C30785   6.880   4.215   5.631 -0.1525  0.2519 -0.0418
  224MOL0     C30786   7.018   4.224   5.692 -0.4223  0.0937 -0.0232
  224MOL0     C30787   7.053   4.119   5.793 -0.4358  0.3339 -0.1347
  224MOL0     C30788   7.198   4.125   5.834 -0.6127 -0.0888 -0.7058
  224MOL0     C30789   7.247   4.004   5.923  0.5935 -0.0556 -0.9549
  224MOL0     C30790   7.183   4.013   6.071 -0.1736  0.0862  0.1934
  224MOL0     N30791   7.261   4.123   6.134  0.1573 -0.0790  0.0024
  224MOL0     C30792   7.397   4.133   6.159  0.3586  0.9936  0.9630
  224MOL0     C30793   7.416   4.257   6.195 -0.4058  0.4524  0.1529
  224MOL0     C30794   7.549   4.308   6.243 -0.3463  0.0682  0.0748
  224MOL0     C30795   7.635   4.372   6.123  0.3858  0.4461 -0.3126
  224MOL0     C30796   7.666   4.517   6.150  0.8114  1.5004  0.4837
  224MOL0     C30797   7.696   4.596   6.024 -0.5119 -0.1218 -0.3181
  224MOL0     O30798   7.821   4.541   5.972  0.9300 -0.0184  0.1791
  224MOL0     C30799   7.928   4.620   5.993  0.0678 -0.7102  0.6410
  224MOL0     C30800   7.984   4.704   5.899 -0.4219 -0.4592 -0.4541
  224MOL0     C30801   8.099   4.779   5.924  1.1375 -0.5757 -0.3370
  224MOL0     C30802   8.141   4.872   5.826  0.5625  0.2976 -0.2905
  224MOL0     C30803   8.165   4.767   6.049 -0.5302 -0.0397  0.8876
  224MOL0     C30804   8.298   4.821   6.065  0.6282  0.0993  0.4179
  224MOL0     O30805   8.386   4.787   5.971 -0.5641  1.0804  0.3989
  224MOL0     C30806   8.511   4.844   5.987  0.6391  0.8506  0.0928
  224MOL0     C30807   8.515   4.980   5.976 -0.0452  0.6893 -0.3798
  224MOL0     C30808   8.633   5.049   5.971  0.2163 -0.4809 -0.3541
  224MOL0     C30809   8.755   4.990   5.992 -0.5699  1.2563  1.0898
  224MOL0     O30810   8.868   5.067   5.997 -0.8813 -0.6322  0.4513
  224MOL0     C30811   8.997   5.020   5.965 -0.4608  0.0996 -0.0328
  224MOL0     C30812   9.085   5.153   5.971  0.0290 -0.2552  0.1707
  224MOL0     C30813   9.210   5.116   5.897 -0.5602 -0.1490  0.0153
  224MOL0     C30814   9.288   5.246   5.860 -0.1599 -0.0058 -0.4461
  224MOL0     C30815   9.429   5.205   5.830  0.4667 -0.2689 -0.6405
  224MOL0     C30816   9.523   5.319   5.792  0.2826  0.0088 -0.6113
  224MOL0     C30817   9.530   5.341   5.644 -0.2618 -0.0052 -0.2530
  224MOL0     C30818   9.629   5.448   5.598 -0.0169  0.0744 -0.3511
  224MOL0    Cl30819   9.638   5.445   5.418 -0.3327 -0.1930 -0.3365
  224MOL0     C30820   8.753   4.844   6.015 -1.0318  0.7131 -0.3868
  224MOL0     C30821   8.634   4.777   5.993  0.4189  0.4169 -0.2550
  224MOL0     O30822   8.318   4.870   6.174 -0.4878  0.2441 -0.4786
  224MOL0     C30823   8.104   4.685   6.143  0.3243 -0.3216 -0.0150
  224MOL0     C30824   7.998   4.603   6.109 -0.8709  0.7294  1.2245
  224MOL0     N30825   7.301   4.331   6.188 -0.1682 -0.1567  0.7144
  224MOL0     N30826   7.208   4.245   6.145 -0.2054 -0.4002  0.0454
  224MOL0     C30827   6.381   4.072   5.578  0.5183 -0.2570  0.2042
  224MOL0     C30828   6.246   4.062   5.530 -0.1688  0.0239  0.2047
  224MOL0     C30829   5.838   4.214   5.351  1.1379  0.4403 -0.8009
  224MOL0     C30830   5.836   4.108   5.264 -0.1529 -0.0572 -0.0811
  224MOL0     C30831   5.729   4.070   5.190 -0.3460  0.1168  0.8336
  224MOL0     C30832   5.608   4.130   5.206 -0.3797  0.3748  0.1001
  224MOL0     O30833   5.501   4.081   5.139 -0.2047 -0.1234  0.0317
  224MOL0     C30834   5.374   4.158   5.127 -0.1806 -1.1330  1.0695
  224MOL0     C30835   5.392   4.252   5.011 -0.8121 -0.6526 -0.0932
  224MOL0     C30836   5.261   4.329   4.997  0.6480 -0.4222  0.3977
  224MOL0     C30837   5.238   4.402   4.866 -0.1318  0.6262 -0.3686
  224MOL0     C30838   5.345   4.498   4.827 -1.0055  0.0725 -0.7232
  224MOL0     C30839   5.440   4.565   4.779  0.6649 -0.4824 -0.0506
  224MOL0     C30840   5.607   4.237   5.301 -0.3826 -0.8656 -0.1495
  224MOL0     C30841   5.715   4.282   5.375 -0.5572 -0.8365  0.4315
  224MOL0     C30842   5.675   4.399   5.465 -0.2642 -0.7686 -0.2477
  224MOL0     H30843   6.192   4.393   5.457 -1.1791 -0.6301 -0.6758
  224MOL0     H30844   6.423   4.415   5.537 -0.8126  0.6853 -1.4835
  224MOL0     H30845   6.589   4.406   5.674 -1.6835  1.7860 -3.9119
  224MOL0     H30846   6.642   4.348   5.511 -1.6196  3.0437  0.2323
  224MOL0     H30847   6.835   4.425   5.654 -0.7521  0.0886 -0.3787
  224MOL0     H30848   6.782   4.338   5.787  0.8184  1.6832  1.0883
  224MOL0     H30849   6.831   4.119   5.652  2.1008 -1.0212 -0.2812
  224MOL0     H30850   6.903   4.223   5.525  2.0286  1.7676  0.4780
  224MOL0     H30851   7.091   4.225   5.610 -1.6468  4.3381 -1.3163
  224MOL0     H30852   7.030   4.323   5.736 -0.7473  1.0143 -1.9224
  224MOL0     H30853   7.027   4.024   5.746  0.7152 -0.0402 -0.0391
  224MOL0     H30854   6.987   4.124   5.880 -0.0800  2.1467  0.0727
  224MOL0     H30855   7.253   4.116   5.740 -0.1020 -1.3051 -0.3203
  224MOL0     H30856   7.232   4.223   5.869  0.4235  0.1086 -2.1863
  224MOL0     H30857   7.356   4.007   5.927  0.7220  0.0526 -3.4125
  224MOL0     H30858   7.227   3.910   5.872  2.3601  1.2085 -4.3022
  224MOL0     H30859   7.076   4.037   6.066 -0.7433 -2.3321 -0.4790
  224MOL0     H30860   7.195   3.919   6.126 -0.2700 -0.1812 -0.2397
  224MOL0     H30861   7.475   4.058   6.154  0.8713  1.5704 -0.0371
  224MOL0     H30862   7.615   4.225   6.271  0.9574  1.0907  0.1228
  224MOL0     H30863   7.542   4.374   6.329 -1.5426  0.0241  0.0275
  224MOL0     H30864   7.730   4.318   6.129  1.5869  2.4989  0.2254
  224MOL0     H30865   7.585   4.362   6.026 -0.0777  3.3382 -0.4638
  224MOL0     H30866   7.590   4.567   6.211  0.6238 -1.9413  3.3535
  224MOL0     H30867   7.749   4.518   6.222  2.0621 -0.3085 -0.8456
  224MOL0     H30868   7.613   4.588   5.953 -2.2177 -0.7273  1.6374
  224MOL0     H30869   7.690   4.702   6.052  0.7191 -0.7766  2.7203
  224MOL0     H30870   7.932   4.714   5.804 -0.2445  0.5402 -0.4562
  224MOL0     H30871   8.200   4.817   5.752  1.0140 -1.8925  1.5888
  224MOL0     H30872   8.193   4.961   5.862 -1.5918  1.7282 -0.5488
  224MOL0     H30873   8.052   4.900   5.769 -0.5785 -1.6335  0.4147
  224MOL0     H30874   8.428   5.043   5.964  0.6172  2.1061  1.7752
  224MOL0     H30875   8.641   5.154   5.945  0.8814 -0.3924  0.1735
  224MOL0     H30876   9.039   4.941   6.028 -1.7650 -1.8102 -1.4727
  224MOL0     H30877   9.002   4.980   5.864  2.3511 -1.0812  0.4797
  224MOL0     H30878   9.026   5.223   5.912 -0.8787 -0.5410  0.7228
  224MOL0     H30879   9.105   5.185   6.074 -2.3142  0.7572  0.3669
  224MOL0     H30880   9.192   5.073   5.798  2.9265  1.1158 -1.3260
  224MOL0     H30881   9.264   5.040   5.954  0.6801 -2.0348 -3.3437
  224MOL0     H30882   9.300   5.310   5.948  2.4918  1.2681 -1.6128
  224MOL0     H30883   9.241   5.306   5.781  2.0346  1.7599 -0.4906
  224MOL0     H30884   9.464   5.150   5.918  2.8282 -2.1072 -2.5721
  224MOL0     H30885   9.440   5.132   5.749 -0.2665  2.1269 -3.0194
  224MOL0     H30886   9.621   5.276   5.817 -1.5233 -3.9706  0.3897
  224MOL0     H30887   9.493   5.412   5.841  0.8911 -0.3764  0.5409
  224MOL0     H30888   9.431   5.360   5.601 -1.1083 -1.5116  0.9379
  224MOL0     H30889   9.574   5.250   5.602 -2.0592 -0.6453 -0.8350
  224MOL0     H30890   9.728   5.421   5.637 -0.3704 -1.1244 -0.2340
  224MOL0     H30891   9.620   5.552   5.630  1.3289  0.3230 -0.6933
  224MOL0     H30892   8.851   4.800   6.034 -1.3287  1.2068  2.6512
  224MOL0     H30893   8.637   4.669   5.981 -3.0437  0.2699 -0.5628
  224MOL0     H30894   8.156   4.682   6.238 -0.1800  2.4812  0.4363
  224MOL0     H30895   7.970   4.526   6.179  3.0908  1.8950  4.4800
  224MOL0     H30896   6.442   3.983   5.586 -2.0489 -2.0650  1.1903
  224MOL0     H30897   6.208   3.962   5.514  1.1133 -0.6431  1.1165
  224MOL0     H30898   5.930   4.059   5.238 -0.2087 -0.1271 -0.1496
  224MOL0     H30899   5.741   3.990   5.117 -2.8144  1.6361 -1.4561
  224MOL0     H30900   5.291   4.087   5.117  1.1503 -2.4934 -1.1598
  224MOL0     H30901   5.350   4.215   5.217  2.7942 -1.9079  2.4683
  224MOL0     H30902   5.416   4.205   4.915  0.9365 -1.7752  0.8502
  224MOL0     H30903   5.473   4.324   5.027  1.1670 -2.2626 -2.1267
  224MOL0     H30904   5.172   4.265   5.009 -0.8302  0.9377 -2.3699
  224MOL0     H30905   5.264   4.413   5.068  1.9355 -1.1381  1.2233
  224MOL0     H30906   5.137   4.446   4.868 -1.8037 -2.8230  1.9252
  224MOL0     H30907   5.233   4.322   4.791 -0.3688  2.2740 -2.1845
  224MOL0     H30908   5.520   4.610   4.725  1.0882 -1.2528 -0.0761
  224MOL0     H30909   5.512   4.287   5.317  0.5023  1.0351 -0.5854
  224MOL0     H30910   5.568   4.419   5.470  0.2962  2.4634  1.6139
  224MOL0     H30911   5.724   4.385   5.562  1.6185 -4.6017 -1.5633
  224MOL0     H30912   5.731   4.486   5.430 -0.0768  0.9378  3.7711
  225MOL0     O30913   1.905   1.013   9.503 -0.8267 -0.2893 -0.1992
  225MOL0     C30914   1.964   0.921   9.565 -0.4596 -0.5482  0.0541
  225MOL0     O30915   2.064   0.948   9.670  0.4937 -0.0210 -0.0110
  225MOL0     C30916   2.092   1.080   9.699  0.0921 -0.5836 -0.0108
  225MOL0     C30917   2.069   1.139   9.821 -0.0859  0.4884  0.0748
  225MOL0     C30918   2.113   1.273   9.833  0.7280  0.0639 -0.0674
  225MOL0     C30919   2.175   1.344   9.724 -0.1168 -0.0901 -0.9994
  225MOL0     O30920   2.230   1.473   9.734  0.3679 -0.7076 -0.1615
  225MOL0     C30921   2.158   1.562   9.823 -0.8471  0.0265 -0.0447
  225MOL0     C30922   2.276   1.612   9.913 -0.4245 -0.3068  0.5949
  225MOL0     C30923   2.229   1.726  10.005 -0.3926  0.7230  0.3277
  225MOL0     C30924   2.170   1.847   9.934 -0.4360 -0.0090 -0.0521
  225MOL0     C30925   2.149   1.974  10.016 -0.6753 -0.1917 -0.3385
  225MOL0     C30926   2.070   1.949  10.143 -0.0824 -0.0459 -0.6618
  225MOL0     C30927   1.970   2.059  10.186  0.2196  1.0946 -0.8085
  225MOL0     C30928   2.040   2.187  10.235 -0.2247 -0.3716  0.2679
  225MOL0     N30929   2.133   2.167  10.344 -0.5080 -0.0855  1.1538
  225MOL0     C30930   2.103   2.113  10.462 -0.5784  0.0175  0.3217
  225MOL0     C30931   2.208   2.142  10.540  0.9726 -0.3104 -0.4247
  225MOL0     C30932   2.200   2.135  10.689  0.3421  0.7417  0.1360
  225MOL0     C30933   2.301   2.023  10.749  0.1393  0.5381 -0.8919
  225MOL0     C30934   2.334   1.906  10.652 -0.5213  0.9485  0.4881
  225MOL0     C30935   2.401   1.787  10.730  0.1116 -0.1318 -0.3286
  225MOL0     O30936   2.504   1.833  10.809  0.9761  0.1371  0.6453
  225MOL0     C30937   2.623   1.838  10.746 -0.4421  0.5260 -0.2066
  225MOL0     C30938   2.733   1.829  10.822 -0.6246  0.2256 -0.8805
  225MOL0     C30939   2.869   1.825  10.795  1.3888 -0.1919  0.5636
  225MOL0     C30940   2.968   1.820  10.912 -0.2829 -0.6960 -0.5005
  225MOL0     C30941   2.899   1.828  10.654 -0.0351  1.1477 -0.8899
  225MOL0     C30942   3.041   1.823  10.609  0.7020 -0.7223 -0.5219
  225MOL0     O30943   3.066   1.741  10.510  0.3501 -0.0269 -0.6650
  225MOL0     C30944   3.195   1.729  10.461 -0.1841 -0.3573 -0.0473
  225MOL0     C30945   3.304   1.689  10.539 -0.3436 -0.0279  0.8699
  225MOL0     C30946   3.429   1.680  10.488 -0.5469 -0.2182  0.7552
  225MOL0     C30947   3.456   1.685  10.350 -0.7888 -0.0644  0.5043
  225MOL0     O30948   3.572   1.631  10.311  0.9284  0.4745  0.4739
  225MOL0     C30949   3.594   1.572  10.188 -0.2347  0.3446 -0.3546
  225MOL0     C30950   3.748   1.551  10.164 -0.0199  0.4345  0.0009
  225MOL0     C30951   3.766   1.488  10.025 -0.1487 -0.0260  0.3474
  225MOL0     C30952   3.902   1.413  10.017 -0.7282  0.6714  0.7995
  225MOL0     C30953   3.946   1.379   9.870 -0.3890 -0.1397  1.0067
  225MOL0     C30954   3.833   1.311   9.784 -0.1246 -0.8538  0.0238
  225MOL0     C30955   3.820   1.163   9.806  0.7573 -0.6712 -0.1656
  225MOL0     C30956   3.931   1.081   9.739  0.0147 -0.0474  0.1117
  225MOL0    Cl30957   3.983   1.139   9.569 -0.1124 -0.5086  0.3053
  225MOL0     C30958   3.353   1.729  10.270  0.1521  0.0289  0.8081
  225MOL0     C30959   3.224   1.749  10.326 -0.2279 -0.9541 -0.4005
  225MOL0     O30960   3.122   1.895  10.658  0.4865 -0.4506  0.3516
  225MOL0     C30961   2.797   1.839  10.567  0.3295 -0.4329  0.2136
  225MOL0     C30962   2.655   1.839  10.607 -0.6915  0.0466 -1.1662
  225MOL0     N30963   2.308   2.188  10.466  0.5202 -0.2813  0.6614
  225MOL0     N30964   2.266   2.205  10.347 -0.0183 -0.8333 -0.5728
  225MOL0     C30965   2.203   1.275   9.616 -0.3968  0.7544 -0.8662
  225MOL0     C30966   2.153   1.150   9.591  2.4466 -0.9443 -0.0140
  225MOL0     C30967   1.935   0.778   9.558  1.1034 -0.0052  0.3181
  225MOL0     C30968   2.035   0.684   9.574  0.2995  0.3020  0.8865
  225MOL0     C30969   2.003   0.551   9.562  0.2339 -0.2734 -0.4341
  225MOL0     C30970   1.872   0.514   9.536  0.6024  0.6702 -0.4514
  225MOL0     O30971   1.844   0.387   9.528  0.5078  0.9792  0.8699
  225MOL0     C30972   1.927   0.315   9.450 -0.5460 -0.6521 -0.5183
  225MOL0     C30973   1.930   0.361   9.295  0.1311  0.0470 -0.5021
  225MOL0     C30974   1.789   0.364   9.222 -0.7496 -1.1265  0.2535
  225MOL0     C30975   1.772   0.472   9.120  0.0440  0.1539 -0.2473
  225MOL0     C30976   1.641   0.488   9.055 -0.8617  0.2800  0.7277
  225MOL0     C30977   1.527   0.503   9.006 -0.2853  0.5161 -0.6046
  225MOL0     C30978   1.773   0.603   9.511  0.2300  0.4376  0.1473
  225MOL0     C30979   1.803   0.742   9.529  0.8310  0.8174  0.5347
  225MOL0     C30980   1.693   0.839   9.509 -0.1896 -0.0552  0.4700
  225MOL0     H30981   2.022   1.077   9.897 -2.3752 -0.7254 -2.1195
  225MOL0     H30982   2.089   1.313   9.931  3.5309  1.6156  0.0969
  225MOL0     H30983   2.079   1.515   9.882  0.7807 -2.5979  0.2076
  225MOL0     H30984   2.111   1.652   9.782  3.2722  3.2494  1.6916
  225MOL0     H30985   2.302   1.531   9.981 -3.0670 -0.3196  1.7022
  225MOL0     H30986   2.360   1.643   9.850 -1.8892  1.6270 -0.5232
  225MOL0     H30987   2.167   1.666  10.073 -2.1169  0.9937 -0.9459
  225MOL0     H30988   2.315   1.760  10.063  0.8954 -1.1421 -0.4226
  225MOL0     H30989   2.241   1.875   9.855  2.6218 -1.1449  2.0990
  225MOL0     H30990   2.073   1.815   9.896 -1.2122  1.5356  0.5382
  225MOL0     H30991   2.114   2.058   9.956  1.0656  0.3388 -0.6642
  225MOL0     H30992   2.245   2.013  10.052 -1.7738  2.4575 -0.1042
  225MOL0     H30993   2.013   1.856  10.144  0.3270 -0.3071  0.5744
  225MOL0     H30994   2.137   1.938  10.229  1.7280  0.0536 -1.9850
  225MOL0     H30995   1.916   2.004  10.263  1.9336 -1.8160 -1.5314
  225MOL0     H30996   1.900   2.080  10.104  0.9371 -1.8014 -2.3248
  225MOL0     H30997   2.084   2.233  10.146  0.3217  0.2886  0.8685
  225MOL0     H30998   1.972   2.267  10.266  0.9357  0.5683  0.4779
  225MOL0     H30999   2.008   2.078  10.500 -0.9305 -2.1541 -2.2187
  225MOL0     H31000   2.098   2.113  10.723  1.2011 -0.8698  1.9072
  225MOL0     H31001   2.218   2.232  10.737 -2.2118  1.0837  0.5220
  225MOL0     H31002   2.395   2.073  10.774 -1.2337  2.0669  1.6511
  225MOL0     H31003   2.261   1.983  10.843  1.7663 -1.9571 -1.1704
  225MOL0     H31004   2.237   1.877  10.610  0.0185  2.9378 -2.4837
  225MOL0     H31005   2.400   1.942  10.572  1.3402 -0.4094  1.3483
  225MOL0     H31006   2.338   1.725  10.795  1.0117  1.3441  2.0875
  225MOL0     H31007   2.445   1.711  10.666 -2.5168 -1.8774 -0.1984
  225MOL0     H31008   2.703   1.818  10.926  1.2397  2.0073 -0.0756
  225MOL0     H31009   2.950   1.904  10.979  0.4683 -1.5334  0.8035
  225MOL0     H31010   3.068   1.809  10.869  0.4296 -2.9849  1.5137
  225MOL0     H31011   2.951   1.728  10.969 -0.8561 -1.9724 -2.5852
  225MOL0     H31012   3.289   1.652  10.640 -0.7729 -2.2015  0.0532
  225MOL0     H31013   3.506   1.642  10.555  2.7446 -3.3112 -4.1548
  225MOL0     H31014   3.544   1.475  10.191 -0.4240  0.4622  0.6756
  225MOL0     H31015   3.557   1.640  10.110 -0.2330  1.7552  0.8259
  225MOL0     H31016   3.794   1.650  10.155 -1.1461  0.9088 -0.7909
  225MOL0     H31017   3.783   1.482  10.241 -1.0029 -0.0084  0.0733
  225MOL0     H31018   3.765   1.572   9.955 -2.5374  0.1394  0.5063
  225MOL0     H31019   3.678   1.426  10.009 -0.0026 -0.1989  0.1985
  225MOL0     H31020   3.890   1.324  10.080 -2.4751 -0.2105 -0.6727
  225MOL0     H31021   3.978   1.478  10.061  0.3441  0.8498 -1.2046
  225MOL0     H31022   3.970   1.476   9.826  2.8488 -0.3722  2.0507
  225MOL0     H31023   4.039   1.323   9.862  0.5609  1.6672 -3.7089
  225MOL0     H31024   3.849   1.338   9.680 -1.8654 -1.9547 -0.5809
  225MOL0     H31025   3.740   1.359   9.817  1.7230  0.6931  3.5677
  225MOL0     H31026   3.729   1.140   9.749  0.3960 -2.0980  0.9343
  225MOL0     H31027   3.806   1.133   9.910  1.4477  1.7612  0.7027
  225MOL0     H31028   3.913   0.973   9.736 -0.8210  0.0157  1.7890
  225MOL0     H31029   4.017   1.094   9.805 -0.5147 -0.8441  0.9827
  225MOL0     H31030   3.351   1.734  10.161  2.7846 -2.2914  0.5506
  225MOL0     H31031   3.131   1.770  10.273  0.1169  3.5087  0.3198
  225MOL0     H31032   2.828   1.850  10.464  2.7798 -1.1930  0.8139
  225MOL0     H31033   2.574   1.850  10.535 -0.6718  0.7743 -1.0777
  225MOL0     H31034   2.245   1.331   9.533  2.7012 -2.8397 -2.0336
  225MOL0     H31035   2.161   1.101   9.494 -3.2494 -1.2494 -0.6344
  225MOL0     H31036   2.137   0.717   9.593  0.7473  1.0184 -2.2507
  225MOL0     H31037   2.073   0.469   9.570 -2.4015 -2.7930 -1.5548
  225MOL0     H31038   2.030   0.306   9.486 -0.9057 -1.0546  0.4378
  225MOL0     H31039   1.887   0.214   9.437 -0.6206 -0.5514 -1.1042
  225MOL0     H31040   2.007   0.301   9.246  0.4034 -0.0908  0.0806
  225MOL0     H31041   1.970   0.463   9.296  3.1161 -1.0222 -0.8033
  225MOL0     H31042   1.762   0.266   9.180  3.2994 -2.0315 -0.6270
  225MOL0     H31043   1.708   0.384   9.294 -1.2627 -0.2193 -0.5591
  225MOL0     H31044   1.838   0.449   9.035  0.0384  0.6590 -0.3952
  225MOL0     H31045   1.807   0.569   9.158 -2.1032  0.2126  1.7912
  225MOL0     H31046   1.429   0.505   8.964 -1.1390 -1.6126  1.1016
  225MOL0     H31047   1.677   0.562   9.482 -0.2498 -0.7772  3.1447
  225MOL0     H31048   1.690   0.885   9.410  1.3411 -3.7826 -1.5199
  225MOL0     H31049   1.596   0.792   9.523 -0.3408  0.1449  0.1020
  225MOL0     H31050   1.707   0.919   9.582 -0.3188 -1.5493  2.2093
  226MOL0     O31051   6.390   4.394   9.151  0.6427  0.2738  0.7380
  226MOL0     C31052   6.382   4.495   9.213  0.7973 -0.7258  0.2051
  226MOL0     O31053   6.277   4.589   9.200 -0.6057  0.4502  0.0994
  226MOL0     C31054   6.148   4.543   9.229 -0.4570  0.3936 -0.5015
  226MOL0     C31055   6.044   4.582   9.145  0.3606  0.1353 -0.0481
  226MOL0     C31056   5.914   4.525   9.161 -0.1346 -0.1302 -0.2066
  226MOL0     C31057   5.889   4.439   9.270  0.5015  0.1254  0.1950
  226MOL0     O31058   5.773   4.371   9.294 -0.4198 -0.1495 -0.3016
  226MOL0     C31059   5.638   4.430   9.268  0.2124 -0.5424 -0.4786
  226MOL0     C31060   5.579   4.352   9.148 -0.2183  0.2493  0.2935
  226MOL0     C31061   5.567   4.203   9.160 -0.2183  0.8977 -0.1933
  226MOL0     C31062   5.502   4.147   9.029  0.6231  0.0648  0.0899
  226MOL0     C31063   5.492   3.996   9.034 -0.5641  0.0676  0.1393
  226MOL0     C31064   5.388   3.946   9.131 -0.1148  0.0758 -0.2758
  226MOL0     C31065   5.380   3.790   9.111 -0.0443 -0.5222  0.2475
  226MOL0     C31066   5.327   3.728   9.238 -0.1387 -0.5814  0.7130
  226MOL0     N31067   5.193   3.780   9.265  0.1266  0.0608  0.1518
  226MOL0     C31068   5.070   3.746   9.208 -1.2945  0.2026  0.8559
  226MOL0     C31069   4.980   3.819   9.267  1.6200 -0.9878  0.0295
  226MOL0     C31070   4.837   3.820   9.213 -0.8810 -0.7507 -0.6036
  226MOL0     C31071   4.736   3.739   9.306  0.2339  0.5144  0.2006
  226MOL0     C31072   4.606   3.677   9.239  0.8181  0.0604  0.7671
  226MOL0     C31073   4.493   3.628   9.334 -0.1041  0.1971  0.1305
  226MOL0     O31074   4.428   3.516   9.284 -0.3740  0.1607  0.8078
  226MOL0     C31075   4.329   3.451   9.353 -1.1415  0.5721  0.0588
  226MOL0     C31076   4.275   3.494   9.477 -0.6658  0.2937 -0.0259
  226MOL0     C31077   4.191   3.412   9.555  0.6303 -0.5560 -0.9995
  226MOL0     C31078   4.154   3.459   9.691  0.5692 -0.5163  0.2298
  226MOL0     C31079   4.159   3.283   9.500  1.1561 -0.4849  0.3983
  226MOL0     C31080   4.069   3.192   9.570 -1.3005 -0.9314  0.6579
  226MOL0     O31081   4.075   3.063   9.522 -0.3883 -0.0507 -0.3462
  226MOL0     C31082   4.017   2.978   9.613  1.3691  0.5569  1.6062
  226MOL0     C31083   4.089   2.892   9.692 -0.6186 -0.1083 -0.1170
  226MOL0     C31084   4.037   2.798   9.777 -0.2897  0.4072 -0.9923
  226MOL0     C31085   3.895   2.799   9.786  0.2805  0.5528  0.1551
  226MOL0     O31086   3.818   2.706   9.860  0.6100 -0.7527  0.5133
  226MOL0     C31087   3.880   2.615   9.956 -0.0919 -0.2721 -0.1722
  226MOL0     C31088   3.779   2.546  10.039 -0.5802 -0.1024 -0.0701
  226MOL0     C31089   3.738   2.658  10.142  0.8408 -0.6657  0.1916
  226MOL0     C31090   3.628   2.592  10.221  0.0847 -0.1973  0.7083
  226MOL0     C31091   3.676   2.498  10.325 -0.5302  0.4620 -0.1174
  226MOL0     C31092   3.572   2.390  10.367  0.0990  0.8619  0.0656
  226MOL0     C31093   3.630   2.300  10.478  0.1085  0.1696 -0.7703
  226MOL0     C31094   3.539   2.173  10.484  1.0576  0.4914  0.0171
  226MOL0    Cl31095   3.597   2.067  10.612  0.1971  0.0237  0.0481
  226MOL0     C31096   3.813   2.877   9.698 -0.3951 -0.8181 -0.4879
  226MOL0     C31097   3.879   2.967   9.613 -0.2721  0.4541  0.3126
  226MOL0     O31098   3.997   3.236   9.656  0.0515 -0.8764 -0.2666
  226MOL0     C31099   4.209   3.240   9.377  0.6207  0.7575 -0.6152
  226MOL0     C31100   4.295   3.325   9.307  0.4344 -0.5263  0.7431
  226MOL0     N31101   5.043   3.909   9.363 -0.2582 -0.6241  0.4129
  226MOL0     N31102   5.164   3.876   9.355 -0.7385 -0.1380 -0.8556
  226MOL0     C31103   5.997   4.397   9.347  1.0733 -0.4979 -0.2248
  226MOL0     C31104   6.122   4.454   9.335  0.6362 -0.2318 -0.7908
  226MOL0     C31105   6.497   4.538   9.285  0.1830  0.2392 -0.7046
  226MOL0     C31106   6.525   4.672   9.291 -0.4885 -0.2933 -0.4340
  226MOL0     C31107   6.628   4.726   9.377  0.5217  0.1293  0.2284
  226MOL0     C31108   6.704   4.649   9.459 -0.3843  0.1704 -0.1773
  226MOL0     O31109   6.804   4.709   9.536  0.2502  0.4739 -0.2224
  226MOL0     C31110   6.852   4.634   9.649 -0.4065  0.6248  0.1326
  226MOL0     C31111   6.925   4.718   9.748 -1.1534 -0.0350 -0.1504
  226MOL0     C31112   6.826   4.820   9.800  0.6332 -0.3923  0.4421
  226MOL0     C31113   6.879   4.918   9.903  0.3836  0.0765  0.1189
  226MOL0     C31114   6.778   5.030   9.917 -0.5112  0.0381  1.0776
  226MOL0     C31115   6.686   5.097   9.943 -0.1447  0.6830  0.8324
  226MOL0     C31116   6.685   4.512   9.450 -0.8598  1.1429 -1.1467
  226MOL0     C31117   6.581   4.456   9.369 -1.1625  0.1605 -0.3997
  226MOL0     C31118   6.566   4.307   9.372  0.7868 -0.7546 -0.2944
  226MOL0     H31119   6.062   4.653   9.064  0.4623 -0.3010 -0.4153
  226MOL0     H31120   5.827   4.544   9.098 -0.6030 -3.3320 -0.6609
  226MOL0     H31121   5.657   4.534   9.240 -0.2376  0.5830  2.9074
  226MOL0     H31122   5.575   4.437   9.357  0.0534 -0.8521 -0.5660
  226MOL0     H31123   5.476   4.387   9.140 -0.1508  0.5032  0.5041
  226MOL0     H31124   5.625   4.375   9.052 -2.0347  1.7451 -0.2743
  226MOL0     H31125   5.663   4.155   9.179 -0.8932 -0.1321  0.7593
  226MOL0     H31126   5.500   4.173   9.241 -2.6667 -0.5639 -2.5800
  226MOL0     H31127   5.409   4.197   8.999  1.1712  0.8637 -0.3394
  226MOL0     H31128   5.570   4.174   8.948  0.8977 -0.0479  0.2814
  226MOL0     H31129   5.589   3.959   9.068 -0.3728 -0.0600 -0.5187
  226MOL0     H31130   5.467   3.962   8.933 -1.4669  3.5734 -0.9611
  226MOL0     H31131   5.411   3.972   9.234 -4.2681 -0.1752  0.9014
  226MOL0     H31132   5.293   3.992   9.100 -0.0965  0.9019  0.8306
  226MOL0     H31133   5.478   3.746   9.087  0.4784  1.3044 -1.1433
  226MOL0     H31134   5.313   3.764   9.029 -0.6461 -1.6531  1.0646
  226MOL0     H31135   5.330   3.622   9.212  4.6453 -0.2620 -1.0104
  226MOL0     H31136   5.401   3.748   9.316  0.3098  1.9487 -0.2770
  226MOL0     H31137   5.064   3.683   9.120  0.5521  1.3683 -0.1735
  226MOL0     H31138   4.832   3.787   9.109  2.1217  1.8916 -1.7371
  226MOL0     H31139   4.807   3.925   9.218  2.1264  0.1221  1.5301
  226MOL0     H31140   4.789   3.662   9.363  1.2066  0.5855 -0.5731
  226MOL0     H31141   4.699   3.811   9.379 -2.2727 -1.5580  1.1143
  226MOL0     H31142   4.569   3.755   9.171  2.5390  0.8631  0.6787
  226MOL0     H31143   4.649   3.596   9.179  2.1050  1.2516  0.0011
  226MOL0     H31144   4.536   3.612   9.433 -2.8301 -1.7112  1.1188
  226MOL0     H31145   4.415   3.705   9.337 -0.3343 -0.0763  1.3613
  226MOL0     H31146   4.298   3.591   9.520 -0.3541 -0.3498  1.3373
  226MOL0     H31147   4.194   3.554   9.726 -2.5205 -0.8343  5.8527
  226MOL0     H31148   4.176   3.390   9.773 -2.1761  1.6706  3.0848
  226MOL0     H31149   4.048   3.481   9.704  0.8785 -0.4659  3.6633
  226MOL0     H31150   4.196   2.901   9.677  0.0217  0.7854  3.8306
  226MOL0     H31151   4.106   2.740   9.838 -0.0646  1.1255 -0.5498
  226MOL0     H31152   3.915   2.527   9.901 -2.3333 -0.3114 -1.6533
  226MOL0     H31153   3.964   2.662  10.008  2.8682  0.2371 -4.7931
  226MOL0     H31154   3.691   2.508   9.985  0.2035 -1.0968 -0.6710
  226MOL0     H31155   3.817   2.452  10.079 -0.5035 -1.0272 -2.1764
  226MOL0     H31156   3.711   2.756  10.100 -1.4775  0.3667  3.6575
  226MOL0     H31157   3.815   2.675  10.217  0.3412 -3.2071  1.3756
  226MOL0     H31158   3.561   2.538  10.153  1.4656 -1.8821  0.6303
  226MOL0     H31159   3.575   2.667  10.280  0.5132  0.0191  0.8183
  226MOL0     H31160   3.764   2.450  10.280 -1.3230 -1.8055  0.6256
  226MOL0     H31161   3.710   2.555  10.412 -2.3206 -0.3124  1.1502
  226MOL0     H31162   3.557   2.326  10.279 -0.8451 -2.5800  2.4946
  226MOL0     H31163   3.481   2.438  10.403  1.1285  1.7620  1.5432
  226MOL0     H31164   3.635   2.366  10.564  1.8354 -1.1797  0.2398
  226MOL0     H31165   3.728   2.267  10.442 -0.3886 -4.1461  1.1315
  226MOL0     H31166   3.521   2.127  10.387 -0.7255 -0.9104  0.9385
  226MOL0     H31167   3.440   2.205  10.518  0.1385 -1.2780 -0.9044
  226MOL0     H31168   3.706   2.866   9.680 -0.7195  0.8196  0.2591
  226MOL0     H31169   3.818   3.024   9.543 -0.1525  2.1642  1.5429
  226MOL0     H31170   4.204   3.137   9.343  0.3549 -0.1820  1.9934
  226MOL0     H31171   4.356   3.314   9.218  0.0042  1.0706  0.2180
  226MOL0     H31172   5.976   4.325   9.426  0.1178  0.2625  0.2525
  226MOL0     H31173   6.198   4.432   9.409 -0.4410 -0.5878  0.2357
  226MOL0     H31174   6.456   4.737   9.238 -1.7687 -1.6388 -0.5061
  226MOL0     H31175   6.655   4.831   9.386 -0.5330  0.2283  3.4462
  226MOL0     H31176   6.767   4.584   9.696  0.8497 -1.1820  0.6140
  226MOL0     H31177   6.916   4.558   9.603  0.0913  2.0280 -1.5940
  226MOL0     H31178   7.014   4.777   9.724  0.4917 -1.0027  3.0191
  226MOL0     H31179   6.947   4.657   9.836  2.4569 -0.7948 -1.4248
  226MOL0     H31180   6.792   4.882   9.717  2.0888 -1.0904 -0.7123
  226MOL0     H31181   6.738   4.770   9.842  0.1209 -1.0881 -1.3580
  226MOL0     H31182   6.971   4.961   9.861 -0.1999  0.1325 -1.1514
  226MOL0     H31183   6.887   4.873  10.003  2.8529 -1.0299 -0.4870
  226MOL0     H31184   6.605   5.161   9.974  1.0521  2.1296  1.0879
  226MOL0     H31185   6.748   4.442   9.504 -1.7252  1.0573 -0.2183
  226MOL0     H31186   6.615   4.273   9.281  0.4629  1.5116 -1.3865
  226MOL0     H31187   6.625   4.263   9.454 -3.0921 -0.4761  2.9398
  226MOL0     H31188   6.461   4.282   9.386  0.5695  0.2216 -0.0934
  227MOL0     O31189   6.450   9.581   8.934  0.0521  0.4797  0.4406
  227MOL0     C31190   6.447   9.457   8.938  0.6622 -0.8504  0.0166
  227MOL0     O31191   6.444   9.375   8.831 -0.3674 -0.4667 -0.3212
  227MOL0     C31192   6.490   9.418   8.712 -0.2743 -0.3565 -0.7195
  227MOL0     C31193   6.404   9.482   8.619 -0.2414 -0.0341  0.2276
  227MOL0     C31194   6.437   9.515   8.486 -0.3442 -0.1648 -0.2914
  227MOL0     C31195   6.567   9.496   8.444  0.4226  1.1174  0.0989
  227MOL0     O31196   6.585   9.505   8.309 -0.0313 -0.2303 -0.0354
  227MOL0     C31197   6.699   9.444   8.253  0.0302 -0.3450 -0.2562
  227MOL0     C31198   6.695   9.448   8.098  0.0124  0.1363 -0.3631
  227MOL0     C31199   6.778   9.339   8.039 -0.0143  0.1746  0.7490
  227MOL0     C31200   6.750   9.335   7.889 -0.0909 -0.5512 -0.5897
  227MOL0     C31201   6.854   9.255   7.812 -0.1787  0.3222 -0.5023
  227MOL0     C31202   6.798   9.189   7.694 -0.9965  0.7257 -0.4723
  227MOL0     C31203   6.912   9.109   7.623  0.1201 -0.5184 -0.4235
  227MOL0     C31204   6.855   9.057   7.490  0.4923 -0.3136 -0.6383
  227MOL0     N31205   6.845   9.148   7.375  0.3304 -1.2364  0.2623
  227MOL0     C31206   6.841   9.293   7.372  0.8758  0.5430 -0.7606
  227MOL0     C31207   6.814   9.330   7.243  0.2468 -0.3101 -0.5595
  227MOL0     C31208   6.804   9.473   7.208 -0.5611  0.3209  0.3879
  227MOL0     C31209   6.665   9.525   7.218  1.0087 -0.3772 -0.2036
  227MOL0     C31210   6.663   9.668   7.186 -0.9098 -0.1372 -0.1634
  227MOL0     C31211   6.511   9.714   7.157  0.4905  0.4491  0.7233
  227MOL0     O31212   6.445   9.630   7.050 -0.0277 -0.1750  0.0632
  227MOL0     C31213   6.312   9.627   7.043 -0.2501  0.3341 -0.8094
  227MOL0     C31214   6.262   9.525   6.959  0.2390  0.0335 -0.1178
  227MOL0     C31215   6.131   9.522   6.908  0.2309 -0.5502 -0.7138
  227MOL0     C31216   6.094   9.408   6.807  0.5316  0.6769 -0.5170
  227MOL0     C31217   6.044   9.628   6.949  0.0705  0.4552 -0.2844
  227MOL0     C31218   5.897   9.637   6.898 -0.1219 -0.4350 -0.0783
  227MOL0     O31219   5.851   9.578   6.782 -0.3154 -0.3941 -0.4709
  227MOL0     C31220   5.719   9.591   6.749  0.0909  0.0168  0.5743
  227MOL0     C31221   5.619   9.542   6.821 -0.0169 -0.0786 -0.6560
  227MOL0     C31222   5.490   9.535   6.772  0.1399 -0.0256 -1.0188
  227MOL0     C31223   5.457   9.597   6.649 -0.7475  0.2810  0.0195
  227MOL0     O31224   5.333   9.596   6.590 -0.1987  0.7681  0.3623
  227MOL0     C31225   5.238   9.613   6.685  0.2763  0.2768  0.0585
  227MOL0     C31226   5.109   9.659   6.621 -0.1201  0.1614  0.2088
  227MOL0     C31227   4.983   9.645   6.713  0.0856  0.0701 -0.3299
  227MOL0     C31228   4.992   9.727   6.835  0.3937  0.0837  0.2212
  227MOL0     C31229   4.852   9.745   6.896  0.0539  0.2635 -0.3901
  227MOL0     C31230   4.854   9.815   7.024  0.6098 -0.0594  0.1521
  227MOL0     C31231   4.717   9.780   7.102 -0.5781  0.0601  0.0253
  227MOL0     C31232   4.698   9.853   7.231 -0.2713 -0.5248 -0.3981
  227MOL0    Cl31233   4.548   9.807   7.313  0.2457 -0.2270 -0.0552
  227MOL0     C31234   5.558   9.658   6.571 -0.4983  0.0182 -0.4800
  227MOL0     C31235   5.688   9.649   6.626  0.0110 -0.9914  0.2103
  227MOL0     O31236   5.820   9.697   6.974  0.7855  0.5279  0.3284
  227MOL0     C31237   6.098   9.722   7.035 -0.3180 -0.5423 -0.0909
  227MOL0     C31238   6.222   9.717   7.088  0.0672  0.9229 -0.1303
  227MOL0     N31239   6.808   9.216   7.173 -0.4670 -0.2592  0.2698
  227MOL0     N31240   6.821   9.111   7.251  0.2157  0.1706 -0.5053
  227MOL0     C31241   6.657   9.444   8.546 -0.3214  0.0927  0.6638
  227MOL0     C31242   6.622   9.404   8.673 -0.7067 -0.2991 -0.5088
  227MOL0     C31243   6.422   9.396   9.070  0.0423  0.4627  0.5655
  227MOL0     C31244   6.349   9.271   9.066  0.0604 -1.1966  0.0428
  227MOL0     C31245   6.321   9.201   9.181 -0.6758  0.0023  0.7721
  227MOL0     C31246   6.371   9.250   9.297  0.3929  1.0660 -0.1359
  227MOL0     O31247   6.352   9.173   9.409 -0.1586 -0.4475  0.1572
  227MOL0     C31248   6.452   9.068   9.425 -0.3159  0.0233 -0.3251
  227MOL0     C31249   6.390   8.966   9.525 -0.3919 -0.2565  0.3698
  227MOL0     C31250   6.380   9.014   9.672  0.8486  0.1073  0.0884
  227MOL0     C31251   6.318   8.918   9.767 -0.5353 -0.5267  0.1813
  227MOL0     C31252   6.294   8.982   9.888 -0.8242  0.6594 -0.4494
  227MOL0     C31253   6.268   9.034   9.994  0.8364  1.0602 -0.3023
  227MOL0     C31254   6.438   9.374   9.306  0.7856  0.1548 -0.1240
  227MOL0     C31255   6.458   9.461   9.196  0.3031  0.6046  0.2324
  227MOL0     C31256   6.520   9.601   9.213  0.0859  0.2571 -0.5727
  227MOL0     H31257   6.298   9.479   8.642 -0.2013 -0.5065  0.3577
  227MOL0     H31258   6.364   9.561   8.420  0.7274  0.2188 -1.2338
  227MOL0     H31259   6.701   9.341   8.290  5.4206  0.0321  1.3327
  227MOL0     H31260   6.789   9.487   8.296 -0.0749 -1.6711  1.4134
  227MOL0     H31261   6.590   9.429   8.071 -0.3585  1.3850  0.1348
  227MOL0     H31262   6.717   9.546   8.054 -0.5539  1.4061  2.0167
  227MOL0     H31263   6.887   9.338   8.049  0.0293  0.5942  0.3975
  227MOL0     H31264   6.740   9.248   8.086 -0.9748 -1.1336 -2.2706
  227MOL0     H31265   6.655   9.281   7.878  0.4657 -1.7118  0.1249
  227MOL0     H31266   6.745   9.431   7.837 -0.6789 -0.4797 -0.4078
  227MOL0     H31267   6.870   9.177   7.887 -3.0767 -0.6415 -0.7525
  227MOL0     H31268   6.946   9.308   7.788 -0.4558  1.0328 -0.0312
  227MOL0     H31269   6.712   9.124   7.712 -1.8159  1.5387 -1.3822
  227MOL0     H31270   6.768   9.269   7.627  0.1882 -0.3100 -2.3309
  227MOL0     H31271   6.935   9.020   7.683  2.2416  0.2264 -0.0590
  227MOL0     H31272   7.008   9.160   7.624  0.1263 -0.4250 -2.2919
  227MOL0     H31273   6.915   8.970   7.460  1.5810  0.6492 -1.3407
  227MOL0     H31274   6.753   9.025   7.515 -0.7057  2.2029 -1.9136
  227MOL0     H31275   6.855   9.364   7.452  1.5541 -0.6839  0.2358
  227MOL0     H31276   6.849   9.499   7.111 -0.6693  0.7989  0.4603
  227MOL0     H31277   6.867   9.523   7.282  1.1472 -2.9805  1.3662
  227MOL0     H31278   6.598   9.469   7.152  0.8185 -0.9210  0.4442
  227MOL0     H31279   6.620   9.516   7.317  0.1453 -2.3286 -0.7261
  227MOL0     H31280   6.716   9.719   7.267  2.3907 -3.1726 -0.1836
  227MOL0     H31281   6.720   9.693   7.096 -2.2597  3.2339 -0.2354
  227MOL0     H31282   6.458   9.712   7.252 -1.5390 -0.1403 -0.3475
  227MOL0     H31283   6.503   9.815   7.116  0.0373 -0.8165 -2.6741
  227MOL0     H31284   6.333   9.452   6.923  1.7244  0.9357  0.8735
  227MOL0     H31285   6.119   9.434   6.704  2.0479 -2.2822 -0.9767
  227MOL0     H31286   5.991   9.374   6.796 -0.3544  3.7190 -2.9627
  227MOL0     H31287   6.154   9.320   6.831 -0.0648  0.6173  0.8346
  227MOL0     H31288   5.643   9.503   6.919  2.3022  2.4224 -0.1154
  227MOL0     H31289   5.416   9.496   6.840  1.5409 -0.3238  0.3823
  227MOL0     H31290   5.219   9.515   6.730 -1.9204 -0.2704 -1.8465
  227MOL0     H31291   5.258   9.696   6.754 -1.2031  0.3509  0.4313
  227MOL0     H31292   5.125   9.762   6.587  1.4021  0.0883  0.6447
  227MOL0     H31293   5.091   9.600   6.530  0.7446  0.9267 -0.4889
  227MOL0     H31294   4.974   9.542   6.747 -0.8882  0.9869  2.4796
  227MOL0     H31295   4.897   9.682   6.656  2.0584  1.1413 -2.8256
  227MOL0     H31296   5.038   9.823   6.807  1.5345 -0.8900 -1.3811
  227MOL0     H31297   5.061   9.681   6.907  1.8234  2.4268  0.4775
  227MOL0     H31298   4.804   9.806   6.819  1.1560  0.8642 -0.6322
  227MOL0     H31299   4.789   9.656   6.902  3.4303 -2.4045 -1.1362
  227MOL0     H31300   4.866   9.922   7.009  2.1308 -0.1118  0.7971
  227MOL0     H31301   4.940   9.783   7.083  0.6495  0.0709  0.1656
  227MOL0     H31302   4.712   9.671   7.109 -0.5037  0.1073  1.0670
  227MOL0     H31303   4.631   9.812   7.043 -1.0794 -0.9260  0.1955
  227MOL0     H31304   4.675   9.958   7.209 -2.2274 -0.9143 -0.4184
  227MOL0     H31305   4.779   9.847   7.303  0.5821  0.2298 -1.2653
  227MOL0     H31306   5.551   9.711   6.477 -0.1966  2.5378  0.8484
  227MOL0     H31307   5.774   9.692   6.575  0.2885 -0.9582  0.7010
  227MOL0     H31308   6.037   9.805   7.068 -0.0031 -0.7681  1.1320
  227MOL0     H31309   6.267   9.788   7.156 -2.8892  0.7331  2.2514
  227MOL0     H31310   6.763   9.433   8.529 -0.3646 -1.8886  1.3710
  227MOL0     H31311   6.684   9.371   8.756 -0.6775 -0.4853 -0.6045
  227MOL0     H31312   6.303   9.241   8.973  0.7106  3.1346 -1.9268
  227MOL0     H31313   6.280   9.101   9.170 -0.4515  0.0822 -1.2345
  227MOL0     H31314   6.477   9.012   9.335 -0.6955 -2.2805  0.9246
  227MOL0     H31315   6.543   9.118   9.461 -0.8346  2.9926 -2.7282
  227MOL0     H31316   6.446   8.874   9.512 -1.3036 -0.5893 -1.5123
  227MOL0     H31317   6.292   8.931   9.489  0.1207 -0.7745 -0.5641
  227MOL0     H31318   6.479   9.038   9.711  0.0353  2.4901  0.8465
  227MOL0     H31319   6.319   9.105   9.674 -1.8418 -1.5566 -1.0987
  227MOL0     H31320   6.382   8.831   9.786  1.5305  0.4010 -1.9595
  227MOL0     H31321   6.222   8.887   9.726  0.2266 -0.5621 -1.6550
  227MOL0     H31322   6.249   9.060  10.096  1.3515 -2.4141  0.8261
  227MOL0     H31323   6.471   9.411   9.402  2.5125 -0.9887 -0.2473
  227MOL0     H31324   6.613   9.606   9.155  1.5423  3.1856  1.7569
  227MOL0     H31325   6.453   9.671   9.162  0.0769 -0.5463 -1.7004
  227MOL0     H31326   6.546   9.635   9.313  0.6408 -1.3450 -0.1306
  228MOL0     O31327   1.855   8.866   4.107  0.9121 -0.3752 -0.0407
  228MOL0     C31328   1.966   8.826   4.071 -0.0969  0.3510  0.0676
  228MOL0     O31329   2.074   8.782   4.156 -0.8108 -0.4750  0.1279
  228MOL0     C31330   2.063   8.827   4.289  0.4040 -0.6313 -0.4213
  228MOL0     C31331   2.134   8.940   4.338  0.7821  0.5310 -0.0775
  228MOL0     C31332   2.127   8.960   4.480 -0.7820  0.5723  1.5627
  228MOL0     C31333   2.070   8.873   4.565  1.1357 -0.1613  1.1367
  228MOL0     O31334   2.079   8.911   4.693 -0.1297 -0.5934 -0.8235
  228MOL0     C31335   2.210   8.912   4.756 -0.4829  0.3673 -0.1477
  228MOL0     C31336   2.253   8.769   4.774  0.1389 -0.5187 -0.1043
  228MOL0     C31337   2.381   8.775   4.875  0.8682 -0.8813  0.3686
  228MOL0     C31338   2.430   8.636   4.915  0.0796  0.6727  0.3088
  228MOL0     C31339   2.542   8.638   5.012  0.2493 -0.9744  0.9323
  228MOL0     C31340   2.677   8.690   4.956 -0.7838  0.2768 -0.2054
  228MOL0     C31341   2.816   8.648   5.021  0.0960 -0.4311 -0.2900
  228MOL0     C31342   2.845   8.503   5.030  0.3706  1.1517 -0.1169
  228MOL0     N31343   2.984   8.471   5.037 -1.2684  0.1377 -0.5612
  228MOL0     C31344   3.067   8.435   4.931 -0.2905 -0.2830  0.8791
  228MOL0     C31345   3.193   8.418   4.971 -0.5263  0.2039  0.5788
  228MOL0     C31346   3.315   8.375   4.886  0.3324 -0.7439 -0.1330
  228MOL0     C31347   3.348   8.225   4.901  0.3702 -0.2165 -0.1039
  228MOL0     C31348   3.327   8.161   5.029 -0.6322 -1.0193 -0.0486
  228MOL0     C31349   3.393   8.022   5.049 -0.1202  0.4359  0.4851
  228MOL0     O31350   3.363   7.932   4.940 -0.4173 -0.7620  0.1068
  228MOL0     C31351   3.453   7.904   4.845  0.6835  0.3093  0.1774
  228MOL0     C31352   3.408   7.811   4.752 -0.9750 -0.2117  0.1372
  228MOL0     C31353   3.502   7.752   4.653  0.2297 -0.4346  0.7201
  228MOL0     C31354   3.437   7.658   4.558  0.5187  1.1793 -1.1417
  228MOL0     C31355   3.636   7.803   4.649  0.7198  0.2541  0.3920
  228MOL0     C31356   3.734   7.740   4.556 -0.4410  0.7183  0.2177
  228MOL0     O31357   3.837   7.821   4.520  0.0832 -0.0641 -1.0707
  228MOL0     C31358   3.947   7.760   4.468 -0.4307 -0.3226 -0.5823
  228MOL0     C31359   4.045   7.721   4.555 -0.4906  0.8314 -0.0294
  228MOL0     C31360   4.165   7.655   4.502  0.9939  0.7804 -0.3537
  228MOL0     C31361   4.175   7.645   4.359  0.9167 -0.3366  0.3734
  228MOL0     O31362   4.284   7.575   4.309 -0.7094  0.6614  0.5613
  228MOL0     C31363   4.323   7.568   4.166  0.4177 -0.2210 -0.5153
  228MOL0     C31364   4.438   7.480   4.130 -1.1499  0.0315  0.1918
  228MOL0     C31365   4.560   7.501   4.215 -0.9256 -0.8200  0.0968
  228MOL0     C31366   4.650   7.378   4.224  0.1405 -0.2111  0.1180
  228MOL0     C31367   4.773   7.396   4.315  0.4604  0.5034  0.0749
  228MOL0     C31368   4.839   7.269   4.314 -0.0763 -0.1272 -0.0021
  228MOL0     C31369   4.976   7.270   4.383 -1.1469 -0.1687  0.0631
  228MOL0     C31370   5.041   7.129   4.365 -1.0378 -0.6871  0.8294
  228MOL0    Cl31371   5.219   7.144   4.365 -0.0025 -0.1040 -0.1041
  228MOL0     C31372   4.087   7.720   4.278 -0.0609 -0.3482  0.7505
  228MOL0     C31373   3.968   7.763   4.333 -0.0427  0.0177  0.1611
  228MOL0     O31374   3.724   7.620   4.529 -0.0161  0.1922 -0.6943
  228MOL0     C31375   3.673   7.903   4.743 -0.2756  0.0359  0.7463
  228MOL0     C31376   3.583   7.952   4.839  0.7832  0.4097 -0.2430
  228MOL0     N31377   3.188   8.457   5.109  0.2439 -0.3844  0.5884
  228MOL0     N31378   3.071   8.488   5.142 -0.3845  0.0836  0.0588
  228MOL0     C31379   1.999   8.765   4.518 -0.0640 -0.1454 -1.1443
  228MOL0     C31380   1.993   8.744   4.383 -0.5629  0.7810 -0.1669
  228MOL0     C31381   1.965   8.795   3.920 -0.6004 -0.1618 -0.0285
  228MOL0     C31382   1.964   8.906   3.830 -1.0006  0.4186 -0.4784
  228MOL0     C31383   1.958   8.884   3.698  1.4070 -0.4642 -0.1037
  228MOL0     C31384   1.953   8.746   3.640 -0.1314 -0.4245  0.5714
  228MOL0     O31385   1.921   8.705   3.505 -0.8627  0.5390 -0.3863
  228MOL0     C31386   1.905   8.807   3.406 -0.0569  0.5407  1.3436
  228MOL0     C31387   1.761   8.859   3.412  0.0584 -0.9290  0.6909
  228MOL0     C31388   1.735   8.997   3.348  0.5495 -0.2077  0.2165
  228MOL0     C31389   1.708   8.980   3.201 -0.6901 -0.1543 -0.5189
  228MOL0     C31390   1.571   8.923   3.182  0.0939 -0.6969 -0.0692
  228MOL0     C31391   1.458   8.877   3.153 -0.4508  0.0656  0.6934
  228MOL0     C31392   1.952   8.637   3.734 -0.9127 -0.4020  0.5368
  228MOL0     C31393   1.959   8.661   3.876  0.5890 -0.1638  0.5602
  228MOL0     C31394   1.951   8.532   3.966 -0.0948 -0.6260 -0.4255
  228MOL0     H31395   2.173   9.013   4.267  2.9638  0.3728  0.8618
  228MOL0     H31396   2.180   9.050   4.510  0.6682  0.8333 -1.3970
  228MOL0     H31397   2.187   8.945   4.857 -2.0064  1.3547 -0.7816
  228MOL0     H31398   2.281   8.978   4.706 -0.4597  0.1776 -0.3666
  228MOL0     H31399   2.170   8.719   4.824 -1.2425  2.1219  0.4366
  228MOL0     H31400   2.290   8.725   4.681  1.3709  0.1337  0.0466
  228MOL0     H31401   2.470   8.824   4.835  1.4704 -0.3834  2.2536
  228MOL0     H31402   2.346   8.835   4.959  0.3039  1.7035 -1.6080
  228MOL0     H31403   2.346   8.582   4.959 -1.7454  1.2735 -2.2053
  228MOL0     H31404   2.472   8.578   4.832  0.1694  0.5093  0.4673
  228MOL0     H31405   2.558   8.537   5.051  1.1651 -0.2516  2.5436
  228MOL0     H31406   2.506   8.696   5.097  5.5190 -0.2895  3.0417
  228MOL0     H31407   2.697   8.634   4.864 -0.6362 -3.2223  1.7647
  228MOL0     H31408   2.676   8.799   4.948  0.5256  0.2053 -1.7865
  228MOL0     H31409   2.838   8.688   5.121 -0.0240 -0.9906 -0.0342
  228MOL0     H31410   2.886   8.688   4.947  1.4925 -2.9963 -0.4593
  228MOL0     H31411   2.800   8.462   5.120  1.8505 -0.5762 -0.1254
  228MOL0     H31412   2.811   8.446   4.942  0.0511  0.9868  0.1127
  228MOL0     H31413   3.039   8.411   4.829 -2.5402  2.0288  0.8441
  228MOL0     H31414   3.402   8.435   4.911  1.7117 -1.7348 -2.3215
  228MOL0     H31415   3.297   8.401   4.781  2.4249 -3.1713 -1.1816
  228MOL0     H31416   3.296   8.176   4.818  1.1945  0.3473 -0.9683
  228MOL0     H31417   3.452   8.217   4.869  0.5155 -1.8356  0.6972
  228MOL0     H31418   3.381   8.222   5.103 -0.8187 -0.8002 -0.0930
  228MOL0     H31419   3.220   8.157   5.051 -0.5271  0.7827  1.1038
  228MOL0     H31420   3.500   8.040   5.065 -0.0505 -0.8538  1.6732
  228MOL0     H31421   3.341   7.978   5.134 -2.4816  1.7129 -0.2063
  228MOL0     H31422   3.310   7.765   4.761 -0.6331 -0.9782  0.0091
  228MOL0     H31423   3.431   7.556   4.595 -0.0784  1.9656  1.0599
  228MOL0     H31424   3.499   7.662   4.468  0.8103  0.0163 -1.0026
  228MOL0     H31425   3.337   7.696   4.538 -0.3752 -0.9858 -1.0483
  228MOL0     H31426   4.031   7.719   4.663  0.9867 -1.8880  0.2183
  228MOL0     H31427   4.248   7.633   4.568  0.5684 -0.7843 -0.2956
  228MOL0     H31428   4.236   7.537   4.108  2.0303  1.0478 -3.8722
  228MOL0     H31429   4.349   7.669   4.135 -0.0511  0.5755  1.5014
  228MOL0     H31430   4.413   7.374   4.132  1.1976 -0.7723 -3.0218
  228MOL0     H31431   4.474   7.492   4.027 -2.4757 -1.1297 -0.4419
  228MOL0     H31432   4.529   7.537   4.313  3.4611 -1.4236  1.9387
  228MOL0     H31433   4.622   7.583   4.180 -2.4202  0.6915  0.8765
  228MOL0     H31434   4.674   7.362   4.119 -2.9022 -2.8514 -0.3447
  228MOL0     H31435   4.585   7.296   4.254  0.2492 -1.7915 -3.4866
  228MOL0     H31436   4.841   7.475   4.282  0.2449  0.7274  0.1547
  228MOL0     H31437   4.738   7.417   4.417 -0.0236 -0.5495  0.1322
  228MOL0     H31438   4.863   7.231   4.214 -1.4038  2.2460 -1.3001
  228MOL0     H31439   4.786   7.193   4.373 -0.4268  1.2139  1.4996
  228MOL0     H31440   4.970   7.281   4.492 -1.6146  3.4323 -0.2050
  228MOL0     H31441   5.046   7.345   4.347 -0.8772 -0.0718  0.7663
  228MOL0     H31442   5.001   7.080   4.276 -2.5365  0.3851  0.8826
  228MOL0     H31443   5.004   7.059   4.440  0.5150 -1.9488  0.4731
  228MOL0     H31444   4.102   7.746   4.174  2.0870 -0.3837  1.0120
  228MOL0     H31445   3.896   7.809   4.266  0.4395  1.5868  0.6893
  228MOL0     H31446   3.770   7.952   4.741 -1.4990  2.5844  0.9879
  228MOL0     H31447   3.632   8.024   4.903  0.6344 -0.7375  1.2517
  228MOL0     H31448   1.946   8.702   4.589 -1.0842  0.3510 -1.4461
  228MOL0     H31449   1.942   8.662   4.332 -1.0476  1.1934 -0.3607
  228MOL0     H31450   1.965   9.009   3.865 -1.4755  0.6621 -1.1553
  228MOL0     H31451   1.955   8.973   3.635  2.9030  0.8870  1.6272
  228MOL0     H31452   1.978   8.887   3.419  2.9439 -1.5534 -1.1073
  228MOL0     H31453   1.925   8.758   3.310 -1.7782  1.9968  0.1562
  228MOL0     H31454   1.736   8.871   3.517 -4.4258  0.6290 -0.3073
  228MOL0     H31455   1.689   8.789   3.369 -0.9797 -0.5392  1.7476
  228MOL0     H31456   1.650   9.049   3.394 -0.2652 -1.2373 -0.0968
  228MOL0     H31457   1.819   9.064   3.366  1.5999 -1.0750 -1.2068
  228MOL0     H31458   1.780   8.912   3.154 -0.7003 -1.0489  0.7132
  228MOL0     H31459   1.712   9.072   3.143 -2.2384 -0.7248 -1.6091
  228MOL0     H31460   1.369   8.820   3.140  0.0137 -0.4773 -0.2036
  228MOL0     H31461   1.951   8.542   3.683 -1.0297 -0.6815  1.0465
  228MOL0     H31462   2.020   8.543   4.050 -0.6529 -1.0497  0.0970
  228MOL0     H31463   1.846   8.517   3.993 -0.8467  0.9023 -2.2496
  228MOL0     H31464   1.997   8.450   3.911  3.0051  1.0413 -0.5626
  229MOL0     O31465   4.740   6.329  11.040  0.3526  0.4897  0.2742
  229MOL0     C31466   4.761   6.213  10.996 -0.6705 -0.7742  0.4814
  229MOL0     O31467   4.806   6.109  11.067  0.2299 -0.3876  0.1928
  229MOL0     C31468   4.810   6.103  11.203 -0.0714  1.1051 -0.5122
  229MOL0     C31469   4.719   6.177  11.277  0.5470 -0.3013 -0.4689
  229MOL0     C31470   4.714   6.169  11.413 -0.0508  0.5735  0.4358
  229MOL0     C31471   4.803   6.080  11.477 -0.2353 -0.0365 -0.5171
  229MOL0     O31472   4.832   6.091  11.609  0.0245 -0.2796 -0.7070
  229MOL0     C31473   4.741   6.160  11.692  0.0059  0.1480 -0.8384
  229MOL0     C31474   4.789   6.148  11.842  0.2333  0.4211 -0.1988
  229MOL0     C31475   4.680   6.212  11.942 -0.9691 -0.4170  1.2339
  229MOL0     C31476   4.677   6.136  12.072  0.5696  0.3967  0.3863
  229MOL0     C31477   4.591   6.184  12.186 -0.2814 -0.0298  0.2881
  229MOL0     C31478   4.618   6.329  12.229  0.3745 -0.9471 -0.0683
  229MOL0     C31479   4.753   6.376  12.272 -1.0606  0.7718 -1.1337
  229MOL0     C31480   4.766   6.525  12.279 -1.5610  0.1005  0.6173
  229MOL0     N31481   4.755   6.593  12.157 -0.1555  0.1299 -0.6209
  229MOL0     C31482   4.843   6.578  12.051  0.0562  0.2961 -0.4001
  229MOL0     C31483   4.805   6.665  11.959 -0.4506  0.3594 -0.0493
  229MOL0     C31484   4.896   6.698  11.836 -0.7124  0.0289  0.0927
  229MOL0     C31485   4.899   6.591  11.720  0.5809 -1.0039 -0.6296
  229MOL0     C31486   4.761   6.576  11.642  0.4111  0.3782 -0.3387
  229MOL0     C31487   4.716   6.725  11.595 -0.2328  0.2236 -0.3626
  229MOL0     O31488   4.807   6.769  11.504 -0.7093  0.1281 -0.3226
  229MOL0     C31489   4.789   6.758  11.370  0.4006  0.4589 -0.0497
  229MOL0     C31490   4.845   6.851  11.283  0.3126 -0.2582 -0.5625
  229MOL0     C31491   4.811   6.877  11.155 -0.0346  0.1165 -0.3718
  229MOL0     C31492   4.881   6.996  11.089  0.1581  0.5591 -0.3960
  229MOL0     C31493   4.720   6.790  11.089 -1.0760 -0.8401  0.0381
  229MOL0     C31494   4.672   6.806  10.956 -0.1317 -0.1466 -0.2884
  229MOL0     O31495   4.542   6.766  10.927  0.4101 -0.0383 -0.0892
  229MOL0     C31496   4.525   6.728  10.798 -0.1033  0.8219 -0.0137
  229MOL0     C31497   4.451   6.815  10.720 -0.5550 -0.0121  1.8744
  229MOL0     C31498   4.429   6.784  10.581 -0.3644  0.0847 -0.1360
  229MOL0     C31499   4.478   6.665  10.527  0.6106  0.3076  0.8172
  229MOL0     O31500   4.432   6.615  10.406 -0.2825 -0.4939  0.0222
  229MOL0     C31501   4.287   6.640  10.387  0.5956  0.0262 -0.2413
  229MOL0     C31502   4.233   6.564  10.259 -0.2932 -1.3796  0.0924
  229MOL0     C31503   4.282   6.415  10.253  0.2402 -0.8780 -0.2358
  229MOL0     C31504   4.215   6.325  10.153  0.4794  0.1311  0.4315
  229MOL0     C31505   4.187   6.190  10.197 -0.5936  0.1776  0.4732
  229MOL0     C31506   4.063   6.122  10.138  0.1249 -0.0217 -0.1790
  229MOL0     C31507   4.021   5.982  10.211  0.2548 -0.5970  0.5185
  229MOL0     C31508   3.899   5.912  10.154 -0.2444 -0.1668 -0.5543
  229MOL0    Cl31509   3.768   6.037  10.121 -0.2361  0.1201 -0.2182
  229MOL0     C31510   4.554   6.581  10.604 -0.5179  0.8351  0.1646
  229MOL0     C31511   4.574   6.605  10.739 -0.4132  0.0452  0.6222
  229MOL0     O31512   4.758   6.836  10.872  0.2431 -0.0737 -0.6308
  229MOL0     C31513   4.665   6.683  11.169  0.6501 -0.6257 -0.6490
  229MOL0     C31514   4.703   6.673  11.308  0.0177 -0.1622 -0.3607
  229MOL0     N31515   4.693   6.732  12.002 -0.5153 -0.0962 -0.3127
  229MOL0     N31516   4.669   6.686  12.126 -0.0241 -0.8823  0.2413
  229MOL0     C31517   4.882   5.993  11.402 -0.5366 -0.1457  0.4223
  229MOL0     C31518   4.892   6.008  11.262 -0.0391  0.5861  0.0066
  229MOL0     C31519   4.737   6.197  10.852  0.5367 -0.3501  0.6840
  229MOL0     C31520   4.624   6.254  10.789 -0.1193 -0.2456 -1.2739
  229MOL0     C31521   4.590   6.221  10.657 -0.2775 -0.7598 -0.4115
  229MOL0     C31522   4.671   6.142  10.575  0.0840 -0.3565 -0.9794
  229MOL0     O31523   4.658   6.113  10.443  0.1007 -0.4388 -0.6697
  229MOL0     C31524   4.574   6.201  10.361 -0.4238  0.1272  0.2011
  229MOL0     C31525   4.564   6.163  10.220  0.0053  0.1278  0.8968
  229MOL0     C31526   4.697   6.154  10.136  0.1373 -0.9120 -0.4753
  229MOL0     C31527   4.683   6.073  10.012  1.2559 -0.0526  0.4280
  229MOL0     C31528   4.592   6.143   9.911 -0.2194  0.2920 -0.1216
  229MOL0     C31529   4.517   6.187   9.824 -0.2348  0.2483 -0.2805
  229MOL0     C31530   4.781   6.091  10.641 -0.1364  0.4098 -0.0415
  229MOL0     C31531   4.824   6.132  10.769  0.4641  1.0393  0.5976
  229MOL0     C31532   4.967   6.098  10.798 -0.5442 -0.2804 -0.4035
  229MOL0     H31533   4.647   6.244  11.232  2.5271  1.5124 -1.1137
  229MOL0     H31534   4.638   6.229  11.462 -2.4957 -2.1175  0.2247
  229MOL0     H31535   4.640   6.118  11.688  0.4198 -0.9439 -0.0355
  229MOL0     H31536   4.727   6.265  11.662 -1.9597  0.5100  1.1312
  229MOL0     H31537   4.817   6.050  11.884  0.4783 -0.0069 -1.3339
  229MOL0     H31538   4.884   6.201  11.850  1.3087 -1.5571  0.9529
  229MOL0     H31539   4.711   6.313  11.969  0.5322 -1.0126  1.8479
  229MOL0     H31540   4.586   6.205  11.886  0.2402  1.1981 -1.1906
  229MOL0     H31541   4.626   6.040  12.057  3.2624 -0.7161 -3.3182
  229MOL0     H31542   4.780   6.125  12.107  0.7040 -2.7955 -0.6620
  229MOL0     H31543   4.632   6.121  12.266  0.9976  0.1329 -0.2080
  229MOL0     H31544   4.483   6.176  12.172 -0.6369  0.6471  2.4296
  229MOL0     H31545   4.595   6.393  12.143  1.8541 -3.5672 -2.5886
  229MOL0     H31546   4.545   6.364  12.302  1.9016  2.3672  0.0544
  229MOL0     H31547   4.830   6.337  12.205 -1.5702 -1.0624 -0.7266
  229MOL0     H31548   4.783   6.336  12.369 -2.6342  1.8067 -0.1834
  229MOL0     H31549   4.690   6.575  12.339 -2.1248 -0.0722  0.0618
  229MOL0     H31550   4.868   6.554  12.307 -2.0632  2.6081  0.0458
  229MOL0     H31551   4.940   6.531  12.046  0.3131  0.4156  2.1403
  229MOL0     H31552   4.998   6.711  11.872 -1.0405 -2.0109  1.9377
  229MOL0     H31553   4.867   6.802  11.818  1.2863  0.6274  0.0455
  229MOL0     H31554   4.982   6.613  11.651  1.6706  1.6413  1.3341
  229MOL0     H31555   4.915   6.492  11.763  1.9411 -0.6350 -0.2361
  229MOL0     H31556   4.758   6.500  11.564  2.3063  0.9442 -1.0188
  229MOL0     H31557   4.686   6.539  11.713  0.6374  0.6508  0.0487
  229MOL0     H31558   4.617   6.711  11.551 -0.7493  0.5971  0.6626
  229MOL0     H31559   4.697   6.793  11.678  0.8799  1.5965 -1.1747
  229MOL0     H31560   4.920   6.918  11.323  1.4919 -2.5204  1.2580
  229MOL0     H31561   4.973   6.977  11.033  1.3348  1.4150  1.1816
  229MOL0     H31562   4.920   7.071  11.159  3.4316  1.3587 -2.8304
  229MOL0     H31563   4.804   7.048  11.032 -3.8575 -4.1389  0.0887
  229MOL0     H31564   4.421   6.910  10.765 -3.3744 -0.1488  0.4999
  229MOL0     H31565   4.367   6.854  10.527  0.0233 -0.3180 -1.1171
  229MOL0     H31566   4.232   6.603  10.474 -0.4465 -3.2167 -2.1022
  229MOL0     H31567   4.275   6.747  10.371  3.2795  0.1535 -2.0971
  229MOL0     H31568   4.124   6.570  10.260 -0.2356 -0.0336  0.6684
  229MOL0     H31569   4.254   6.625  10.171 -0.5353 -0.2966  0.7651
  229MOL0     H31570   4.241   6.377  10.347  0.8816  1.3339  1.0037
  229MOL0     H31571   4.391   6.406  10.250  0.1279 -3.1808  0.6355
  229MOL0     H31572   4.272   6.322  10.060 -0.6919  1.1334 -0.3413
  229MOL0     H31573   4.125   6.381  10.126  0.5021  0.1959  0.4898
  229MOL0     H31574   4.274   6.123  10.192 -1.5744 -1.2109  1.2009
  229MOL0     H31575   4.160   6.198  10.303  1.1128  6.7052  0.8203
  229MOL0     H31576   4.067   6.113  10.029 -1.4132  3.1045 -0.6048
  229MOL0     H31577   3.983   6.193  10.160 -0.4022 -0.1506 -1.6045
  229MOL0     H31578   4.012   6.011  10.316 -0.3527  2.8362 -0.3415
  229MOL0     H31579   4.104   5.912  10.200 -0.8919 -1.9715  0.4213
  229MOL0     H31580   3.860   5.832  10.218 -1.5492  0.3002 -0.7302
  229MOL0     H31581   3.928   5.871  10.057 -0.1826  1.8436 -1.4315
  229MOL0     H31582   4.573   6.479  10.573 -1.6869  0.0429  1.9067
  229MOL0     H31583   4.632   6.535  10.797  1.1355  0.9547  0.2327
  229MOL0     H31584   4.590   6.610  11.141  2.2465 -1.8373 -2.0228
  229MOL0     H31585   4.646   6.607  11.371 -0.0843 -0.1091 -0.3970
  229MOL0     H31586   4.948   5.924  11.454 -0.6112 -2.3128 -2.1917
  229MOL0     H31587   4.975   5.956  11.215 -0.0959  0.6571 -0.1776
  229MOL0     H31588   4.555   6.310  10.851  0.8774  0.2691 -0.5967
  229MOL0     H31589   4.498   6.269  10.627  0.0853  0.7409  0.7586
  229MOL0     H31590   4.476   6.205  10.410 -0.6245 -0.8962 -0.0821
  229MOL0     H31591   4.614   6.302  10.363  0.4525 -0.0548 -3.0231
  229MOL0     H31592   4.508   6.244  10.172  1.1926  0.7603  0.5319
  229MOL0     H31593   4.504   6.072  10.218  0.4233 -0.2800  3.5693
  229MOL0     H31594   4.750   6.248  10.117 -0.6401  0.0074  1.6108
  229MOL0     H31595   4.777   6.101  10.191  3.0453  0.4898 -3.0593
  229MOL0     H31596   4.649   5.972  10.036 -0.0500 -0.1446 -1.5531
  229MOL0     H31597   4.784   6.065   9.972  1.8394 -1.7689  2.0891
  229MOL0     H31598   4.457   6.230   9.747 -0.2171  0.1465 -0.3516
  229MOL0     H31599   4.845   6.022  10.588  0.0921 -0.1103  0.9054
  229MOL0     H31600   4.968   6.014  10.868 -1.9616 -0.7863 -0.9541
  229MOL0     H31601   5.022   6.078  10.705  1.0367  0.4697  0.3375
  229MOL0     H31602   5.017   6.186  10.838 -1.0038  0.0120 -0.4581
  230MOL0     O31603   3.722   5.953   5.261 -0.0238 -0.1375  1.0188
  230MOL0     C31604   3.723   6.072   5.229  0.5826 -0.0078  0.8514
  230MOL0     O31605   3.840   6.139   5.201  0.7082  0.2364 -0.0096
  230MOL0     C31606   3.883   6.241   5.284  0.4030 -0.3315  0.0116
  230MOL0     C31607   3.816   6.298   5.391  0.6394  0.6600 -0.3731
  230MOL0     C31608   3.873   6.396   5.472  0.7082 -0.1352  0.4569
  230MOL0     C31609   4.004   6.432   5.446  0.4028  0.7841  0.2834
  230MOL0     O31610   4.077   6.532   5.514  0.5845  0.5619 -0.4057
  230MOL0     C31611   4.042   6.553   5.650 -0.5824  0.1838  0.4003
  230MOL0     C31612   4.159   6.632   5.724 -0.3574  0.4780 -0.1618
  230MOL0     C31613   4.280   6.534   5.730 -0.7409 -0.6352 -1.3116
  230MOL0     C31614   4.401   6.582   5.815 -0.2172 -0.6472  0.5844
  230MOL0     C31615   4.535   6.534   5.762 -0.3113  0.0742 -0.0837
  230MOL0     C31616   4.589   6.601   5.638 -0.4249  0.3303  0.0928
  230MOL0     C31617   4.737   6.593   5.640  0.2008  0.2963  0.4357
  230MOL0     C31618   4.800   6.632   5.507  0.6074 -0.3342 -0.7648
  230MOL0     N31619   4.948   6.646   5.523 -0.3023  0.3059  0.0558
  230MOL0     C31620   5.037   6.654   5.424 -1.0140 -0.0775  0.1651
  230MOL0     C31621   5.157   6.675   5.488  0.6246 -0.5377  0.1858
  230MOL0     C31622   5.281   6.677   5.403  0.6665  0.1782  0.4014
  230MOL0     C31623   5.319   6.534   5.361  0.1024 -0.4619  0.2201
  230MOL0     C31624   5.345   6.437   5.483 -0.9106  0.1886  1.3988
  230MOL0     C31625   5.415   6.496   5.600 -1.1691  0.0239 -0.6886
  230MOL0     O31626   5.555   6.527   5.565  0.4289 -0.1916 -0.0673
  230MOL0     C31627   5.586   6.661   5.560  0.3705  0.0530  1.9773
  230MOL0     C31628   5.572   6.747   5.668  0.8023 -0.9102 -1.1798
  230MOL0     C31629   5.631   6.874   5.683 -0.0822  1.0502  0.8025
  230MOL0     C31630   5.609   6.957   5.810 -0.0910 -0.5921 -0.1428
  230MOL0     C31631   5.712   6.917   5.573 -0.3088  0.0187  0.4059
  230MOL0     C31632   5.791   7.043   5.582 -0.1585  0.4880  0.3506
  230MOL0     O31633   5.910   7.043   5.521 -0.7979 -0.2145  0.6308
  230MOL0     C31634   5.995   7.152   5.528 -0.1688 -0.3351  0.9348
  230MOL0     C31635   6.130   7.126   5.568 -0.8117 -0.1707  0.1698
  230MOL0     C31636   6.228   7.223   5.578 -0.8338 -0.3260  0.1264
  230MOL0     C31637   6.186   7.353   5.548 -0.0768 -0.4322 -1.4043
  230MOL0     O31638   6.266   7.462   5.570 -0.7092 -0.3529 -0.3314
  230MOL0     C31639   6.392   7.463   5.646 -0.2756 -0.1992  0.7272
  230MOL0     C31640   6.504   7.493   5.543 -0.2095  0.7051 -0.3036
  230MOL0     C31641   6.643   7.514   5.600 -0.6383 -0.6179 -0.1722
  230MOL0     C31642   6.754   7.563   5.500  0.2518  0.7229 -0.2761
  230MOL0     C31643   6.706   7.671   5.404  0.2564 -0.4269 -0.5239
  230MOL0     C31644   6.828   7.722   5.321 -0.1805 -0.2426  0.1554
  230MOL0     C31645   6.862   7.623   5.211  0.5027  0.4959  0.0433
  230MOL0     C31646   6.965   7.654   5.100  0.0398  0.6368 -1.0801
  230MOL0    Cl31647   7.127   7.701   5.180 -0.0760 -0.0389  0.3465
  230MOL0     C31648   6.059   7.380   5.508  0.6087  0.7682  0.7342
  230MOL0     C31649   5.965   7.283   5.500 -0.2161 -0.7898 -0.8498
  230MOL0     O31650   5.727   7.140   5.618 -0.8403 -0.3108  0.2323
  230MOL0     C31651   5.735   6.830   5.464  0.2141  0.8715  0.1426
  230MOL0     C31652   5.667   6.700   5.452  0.6908 -0.9884 -0.0344
  230MOL0     N31653   5.135   6.659   5.621  0.2970 -0.1647 -0.2344
  230MOL0     N31654   5.011   6.659   5.641  0.2943 -0.2325 -0.8588
  230MOL0     C31655   4.069   6.391   5.326  0.3064 -0.2612 -0.1132
  230MOL0     C31656   4.005   6.296   5.242  0.0537 -0.2266 -0.1854
  230MOL0     C31657   3.593   6.136   5.211  1.2947 -0.4266 -0.4025
  230MOL0     C31658   3.579   6.248   5.126 -0.7598 -0.3409 -0.2126
  230MOL0     C31659   3.464   6.332   5.130 -0.4566 -0.1460 -0.1988
  230MOL0     C31660   3.356   6.284   5.202 -0.8301 -0.1889 -0.2926
  230MOL0     O31661   3.241   6.357   5.212 -0.3625  0.0558  0.1992
  230MOL0     C31662   3.201   6.432   5.095  0.5691  0.1311 -0.6416
  230MOL0     C31663   3.093   6.533   5.135 -0.1552  0.7965  0.4909
  230MOL0     C31664   2.951   6.474   5.144  0.7075 -0.0331  0.2763
  230MOL0     C31665   2.847   6.574   5.191 -0.4533 -0.6366 -0.7124
  230MOL0     C31666   2.819   6.668   5.082 -0.1324  0.1366  0.2137
  230MOL0     C31667   2.787   6.748   5.000  0.5405 -0.5810 -0.8812
  230MOL0     C31668   3.363   6.165   5.272 -0.4133 -0.8278 -0.2703
  230MOL0     C31669   3.482   6.091   5.284  0.4547  1.2529 -0.2217
  230MOL0     C31670   3.469   5.957   5.361  0.6321  0.1647 -0.4631
  230MOL0     H31671   3.718   6.264   5.422  1.1014  0.3690  0.8589
  230MOL0     H31672   3.825   6.442   5.558  0.1547 -0.0542  0.1144
  230MOL0     H31673   4.033   6.453   5.693  1.3229 -0.4884 -0.6491
  230MOL0     H31674   3.950   6.612   5.656 -0.8505 -0.0051 -1.3103
  230MOL0     H31675   4.186   6.720   5.664  1.8646  0.9071  1.3291
  230MOL0     H31676   4.124   6.657   5.824  0.5007 -1.9009  0.8271
  230MOL0     H31677   4.247   6.441   5.778  0.2228  1.0047  2.9996
  230MOL0     H31678   4.319   6.529   5.628 -1.2394  2.7931 -1.8058
  230MOL0     H31679   4.409   6.691   5.814 -0.2830 -0.6454 -0.3190
  230MOL0     H31680   4.386   6.534   5.912 -0.2915 -1.3534  0.2315
  230MOL0     H31681   4.522   6.426   5.744 -0.6576 -0.2900  2.0385
  230MOL0     H31682   4.600   6.550   5.849 -1.9401 -0.4564  1.2773
  230MOL0     H31683   4.541   6.547   5.555 -2.4697  0.7129  0.9721
  230MOL0     H31684   4.559   6.704   5.620  1.2573  0.3560 -3.4525
  230MOL0     H31685   4.767   6.493   5.672 -1.6122 -0.9142 -1.4099
  230MOL0     H31686   4.775   6.661   5.717 -1.7739  0.4081  1.3697
  230MOL0     H31687   4.779   6.554   5.432 -1.0951  0.9461 -1.6836
  230MOL0     H31688   4.758   6.726   5.470  0.0579 -0.2706  0.0012
  230MOL0     H31689   5.009   6.644   5.319  0.8759 -1.9385 -0.2398
  230MOL0     H31690   5.363   6.733   5.450  0.4084  2.1201 -1.2696
  230MOL0     H31691   5.271   6.736   5.311 -1.4652 -1.8257 -0.7546
  230MOL0     H31692   5.251   6.498   5.283 -1.1449  1.5049  0.3414
  230MOL0     H31693   5.415   6.542   5.309 -0.1980  1.0201 -0.1402
  230MOL0     H31694   5.255   6.386   5.520 -0.7748 -1.0314  0.1177
  230MOL0     H31695   5.406   6.351   5.454  0.4602  0.1853  3.9595
  230MOL0     H31696   5.367   6.584   5.645 -1.8084 -0.3368 -0.6554
  230MOL0     H31697   5.410   6.428   5.686  0.9162 -1.4443 -1.6509
  230MOL0     H31698   5.514   6.716   5.755  0.7884  0.8099 -0.5282
  230MOL0     H31699   5.519   7.016   5.788  1.6098  0.9816 -3.7174
  230MOL0     H31700   5.689   7.027   5.836  1.1658 -1.6912 -0.9457
  230MOL0     H31701   5.586   6.893   5.895 -1.7137  0.2061  0.0767
  230MOL0     H31702   6.164   7.026   5.595 -1.0588  0.1790  1.9272
  230MOL0     H31703   6.327   7.208   5.621 -1.1174 -0.2006  0.8297
  230MOL0     H31704   6.390   7.546   5.717  0.8000  0.0248  0.5134
  230MOL0     H31705   6.417   7.371   5.699  0.5467 -0.4366 -0.0304
  230MOL0     H31706   6.506   7.409   5.474  1.3897  0.1662  0.3372
  230MOL0     H31707   6.463   7.583   5.496  1.0496  1.3083 -0.2986
  230MOL0     H31708   6.680   7.422   5.646 -0.9707 -0.9803 -0.6165
  230MOL0     H31709   6.635   7.589   5.679 -2.1985 -0.7352 -0.1843
  230MOL0     H31710   6.778   7.474   5.440 -1.0761  0.1682 -0.0259
  230MOL0     H31711   6.837   7.594   5.564 -2.3598  0.7600  3.4180
  230MOL0     H31712   6.636   7.631   5.330  1.5013 -0.2101 -1.8546
  230MOL0     H31713   6.657   7.756   5.452  0.5212 -0.3439 -0.3962
  230MOL0     H31714   6.911   7.731   5.391 -0.2604  1.1946  0.0884
  230MOL0     H31715   6.813   7.815   5.266  6.4144  0.7649 -0.7106
  230MOL0     H31716   6.776   7.591   5.152  1.9222 -2.3250 -0.6975
  230MOL0     H31717   6.891   7.525   5.249  4.7526  0.9486 -1.4475
  230MOL0     H31718   6.918   7.740   5.051  0.1114  1.6677  0.5529
  230MOL0     H31719   6.984   7.568   5.036 -0.5319 -0.1825 -0.1900
  230MOL0     H31720   6.044   7.482   5.474  1.1606  0.5216 -0.2874
  230MOL0     H31721   5.863   7.312   5.476 -1.2612 -0.3805  3.2773
  230MOL0     H31722   5.801   6.871   5.389 -1.3329 -0.4024 -2.0195
  230MOL0     H31723   5.687   6.624   5.377 -2.0373 -2.5368  0.6552
  230MOL0     H31724   4.168   6.433   5.317  0.5660 -1.2824 -3.7387
  230MOL0     H31725   4.053   6.256   5.153  0.4691  0.2356 -0.1715
  230MOL0     H31726   3.667   6.280   5.071 -1.2731  2.7781  0.5885
  230MOL0     H31727   3.472   6.429   5.081 -1.2238  2.2726  3.9548
  230MOL0     H31728   3.278   6.494   5.048  1.9200 -2.4150 -1.9934
  230MOL0     H31729   3.154   6.372   5.016  1.3546  0.8040 -1.6391
  230MOL0     H31730   3.107   6.616   5.065  3.0270 -1.5321 -2.0024
  230MOL0     H31731   3.111   6.575   5.234  1.4067  0.4783  0.3795
  230MOL0     H31732   2.929   6.443   5.041  0.5398  0.7194  0.0769
  230MOL0     H31733   2.950   6.381   5.201  3.8764  0.0066  0.5806
  230MOL0     H31734   2.890   6.627   5.277 -1.7943 -0.5217 -0.0923
  230MOL0     H31735   2.754   6.530   5.227 -1.1715  1.6737  0.4557
  230MOL0     H31736   2.761   6.819   4.924 -1.0729 -1.8902 -1.5923
  230MOL0     H31737   3.276   6.129   5.326 -1.8174  0.9057 -1.2460
  230MOL0     H31738   3.366   5.923   5.363  1.3987 -2.4653  2.3048
  230MOL0     H31739   3.520   5.866   5.329 -2.3658 -1.1967 -1.7060
  230MOL0     H31740   3.496   5.975   5.466  1.2909 -0.9013 -0.4362
  231MOL0     O31741   5.038   4.025   1.500  0.1246  0.2219 -0.2479
  231MOL0     C31742   4.969   4.113   1.558 -0.4897  0.2299 -0.0134
  231MOL0     O31743   4.874   4.089   1.645 -0.1535  0.2946 -0.4586
  231MOL0     C31744   4.848   3.963   1.693  0.1606 -0.0013  0.7838
  231MOL0     C31745   4.865   3.924   1.825 -1.7630  0.5011 -0.1017
  231MOL0     C31746   4.800   3.813   1.882 -0.3792  0.2046 -0.4801
  231MOL0     C31747   4.720   3.729   1.798 -0.1172 -0.2250  0.2829
  231MOL0     O31748   4.647   3.615   1.834 -0.2169  0.0508  0.3125
  231MOL0     C31749   4.649   3.594   1.970  0.1133 -0.3911 -0.3493
  231MOL0     C31750   4.556   3.490   2.022  0.0459  0.5512 -0.3873
  231MOL0     C31751   4.600   3.444   2.163 -0.4127 -1.7427  0.8183
  231MOL0     C31752   4.556   3.551   2.268 -0.1846  0.3277  0.2456
  231MOL0     C31753   4.522   3.480   2.398 -0.4520  0.9520  0.5784
  231MOL0     C31754   4.503   3.576   2.517 -0.2356 -0.8146 -0.1582
  231MOL0     C31755   4.461   3.503   2.647  0.0874 -0.3159  0.7831
  231MOL0     C31756   4.585   3.488   2.735 -0.2051  0.6687  0.6087
  231MOL0     N31757   4.550   3.369   2.815 -0.0447 -0.3902 -0.8652
  231MOL0     C31758   4.637   3.260   2.825 -0.1271  0.3154 -0.1557
  231MOL0     C31759   4.616   3.213   2.948 -0.0231  0.4148  0.6229
  231MOL0     C31760   4.684   3.094   3.001  0.3900 -0.4716  0.1720
  231MOL0     C31761   4.626   2.968   2.941 -0.0854  0.0965  0.2214
  231MOL0     C31762   4.690   2.836   2.992 -0.0449  0.6537 -0.5364
  231MOL0     C31763   4.662   2.817   3.145 -0.2428  0.9366  0.2540
  231MOL0     O31764   4.724   2.689   3.189  0.1838 -0.1875  0.5739
  231MOL0     C31765   4.750   2.674   3.320  0.0802  0.1317 -1.4948
  231MOL0     C31766   4.863   2.605   3.362  1.3206 -0.5125  0.5398
  231MOL0     C31767   4.898   2.570   3.492 -0.3332 -0.2970  0.3853
  231MOL0     C31768   5.018   2.476   3.518 -0.1151  0.7841 -0.3365
  231MOL0     C31769   4.823   2.641   3.592  0.2720  0.0134  0.3131
  231MOL0     C31770   4.860   2.638   3.744  0.8696  0.5259  0.2286
  231MOL0     O31771   4.766   2.677   3.831 -0.2362 -0.0223 -0.0499
  231MOL0     C31772   4.784   2.632   3.960 -0.9817  0.5929 -0.0224
  231MOL0     C31773   4.771   2.494   3.995 -0.2907 -0.7901  0.3551
  231MOL0     C31774   4.794   2.454   4.128 -0.2357  0.4712  0.1672
  231MOL0     C31775   4.839   2.545   4.225  0.3505  0.5978 -0.1361
  231MOL0     O31776   4.858   2.509   4.357 -0.1872  0.1180  0.2508
  231MOL0     C31777   4.763   2.426   4.425 -0.5705  0.6577  0.3465
  231MOL0     C31778   4.813   2.314   4.519  0.0167 -0.6313  0.3907
  231MOL0     C31779   4.706   2.210   4.555  0.1914  1.0073  0.3682
  231MOL0     C31780   4.566   2.262   4.585 -0.7191 -0.2958  0.7634
  231MOL0     C31781   4.475   2.138   4.592  0.7266 -0.0152  0.2364
  231MOL0     C31782   4.331   2.155   4.639  0.9536  0.3316 -0.5990
  231MOL0     C31783   4.325   2.193   4.792  0.1075 -0.5917  0.3939
  231MOL0     C31784   4.196   2.147   4.857  0.5152 -0.0191 -0.0168
  231MOL0    Cl31785   4.063   2.243   4.789  0.1862  0.0412  0.2773
  231MOL0     C31786   4.847   2.680   4.186  0.9935 -0.1821 -0.4441
  231MOL0     C31787   4.821   2.725   4.055 -0.0517 -0.4407  0.9974
  231MOL0     O31788   4.974   2.603   3.776  0.4213 -0.3541  0.1104
  231MOL0     C31789   4.707   2.717   3.550  0.1032 -0.1853 -0.0401
  231MOL0     C31790   4.671   2.728   3.412 -0.1576  0.1040  1.0139
  231MOL0     N31791   4.521   3.289   3.010 -0.2584  0.1758  0.6398
  231MOL0     N31792   4.477   3.379   2.930  0.2660  0.0748 -0.1512
  231MOL0     C31793   4.702   3.768   1.665 -0.3472 -0.0718 -0.2934
  231MOL0     C31794   4.764   3.884   1.612 -0.3934  0.4426 -0.1970
  231MOL0     C31795   4.997   4.259   1.525  0.2339 -0.3494 -0.8743
  231MOL0     C31796   4.912   4.357   1.575  0.1167  0.3027  0.5220
  231MOL0     C31797   4.922   4.487   1.535  0.9065 -0.6892 -0.2673
  231MOL0     C31798   5.028   4.536   1.462 -0.3437 -0.1060 -0.2377
  231MOL0     O31799   5.020   4.667   1.433  0.1817 -0.7971  0.7382
  231MOL0     C31800   5.127   4.738   1.364  0.8280  0.1988 -0.5546
  231MOL0     C31801   5.253   4.761   1.457 -0.1606 -0.4177 -0.0601
  231MOL0     C31802   5.241   4.901   1.526  0.0272 -1.1211 -0.8312
  231MOL0     C31803   5.333   4.930   1.642  0.3980  0.8739  0.0132
  231MOL0     C31804   5.309   4.831   1.750 -0.3794 -0.3468  0.8041
  231MOL0     C31805   5.309   4.751   1.835  0.7687  0.3961  0.3962
  231MOL0     C31806   5.116   4.444   1.418  0.5307 -0.0760 -0.1591
  231MOL0     C31807   5.112   4.304   1.454 -0.2234 -0.2550  0.2617
  231MOL0     C31808   5.230   4.216   1.415 -0.0704 -0.3842  0.5576
  231MOL0     H31809   4.924   3.995   1.882 -1.7624 -0.5866  1.3184
  231MOL0     H31810   4.822   3.792   1.986  2.3928  2.3124 -0.5378
  231MOL0     H31811   4.616   3.685   2.021  1.3619 -0.9734  1.6675
  231MOL0     H31812   4.750   3.573   2.008 -0.4157 -0.8025  0.8896
  231MOL0     H31813   4.454   3.530   2.019 -0.0929  0.1294 -2.8585
  231MOL0     H31814   4.547   3.398   1.964 -0.5098  1.6860 -2.1790
  231MOL0     H31815   4.563   3.349   2.200 -1.5005 -1.5080  0.3659
  231MOL0     H31816   4.709   3.451   2.168 -0.5907  1.3671  4.5811
  231MOL0     H31817   4.635   3.625   2.284  2.6068 -1.9793 -1.7425
  231MOL0     H31818   4.465   3.604   2.237  0.6548  1.8306  0.2457
  231MOL0     H31819   4.607   3.414   2.415  0.1669  0.3705 -3.7261
  231MOL0     H31820   4.435   3.415   2.380 -0.7934  1.8653 -1.3309
  231MOL0     H31821   4.593   3.632   2.543 -2.0516  2.4147 -0.2558
  231MOL0     H31822   4.421   3.640   2.482  0.0956 -0.2367  0.1238
  231MOL0     H31823   4.414   3.408   2.622 -2.9216  0.7779  1.7960
  231MOL0     H31824   4.384   3.571   2.684 -0.2673 -1.4408  2.1671
  231MOL0     H31825   4.670   3.458   2.673 -2.3309 -2.2890 -1.1276
  231MOL0     H31826   4.596   3.574   2.802 -1.3391 -0.9132  2.9739
  231MOL0     H31827   4.711   3.213   2.761  0.6423  0.3176  0.7089
  231MOL0     H31828   4.674   3.093   3.109  0.0602 -0.4772  0.1430
  231MOL0     H31829   4.791   3.094   2.978  1.3382 -2.1653  3.8611
  231MOL0     H31830   4.518   2.962   2.958 -0.0489  0.1819  0.4822
  231MOL0     H31831   4.626   2.965   2.832 -2.5626  1.7100  0.0840
  231MOL0     H31832   4.648   2.753   2.935 -0.9318  0.3056  0.5812
  231MOL0     H31833   4.796   2.825   2.971  0.5742  0.7853  2.0745
  231MOL0     H31834   4.692   2.908   3.199 -1.8914  3.0857 -2.1839
  231MOL0     H31835   4.555   2.809   3.170 -0.1527  0.9235  0.6532
  231MOL0     H31836   4.934   2.569   3.288 -2.0174 -5.5836 -0.7105
  231MOL0     H31837   5.110   2.531   3.543 -0.7095  2.6300 -2.0172
  231MOL0     H31838   5.048   2.409   3.436 -0.6818 -2.1159  1.6680
  231MOL0     H31839   4.993   2.412   3.603  0.5070  3.3664  1.9278
  231MOL0     H31840   4.749   2.421   3.918 -3.7718  2.0425 -1.6581
  231MOL0     H31841   4.780   2.350   4.154 -0.1076  0.7669  1.4889
  231MOL0     H31842   4.702   2.496   4.482  2.7108  1.7580  2.8363
  231MOL0     H31843   4.696   2.376   4.355 -0.4693  1.8977 -0.6856
  231MOL0     H31844   4.891   2.260   4.464 -1.1092 -1.4211 -0.4794
  231MOL0     H31845   4.860   2.359   4.606 -0.7497  0.1037  0.4330
  231MOL0     H31846   4.743   2.145   4.635  1.6070 -1.6359 -2.2482
  231MOL0     H31847   4.704   2.143   4.469 -2.6102  1.9279 -0.3777
  231MOL0     H31848   4.548   2.337   4.507 -2.6714  0.4326  1.8386
  231MOL0     H31849   4.563   2.319   4.679  1.6189  2.3596 -0.6537
  231MOL0     H31850   4.479   2.102   4.489  0.8836  0.7606 -0.0375
  231MOL0     H31851   4.521   2.068   4.662 -1.1664 -1.2039  0.3530
  231MOL0     H31852   4.274   2.063   4.631 -2.1419  1.4430  4.2071
  231MOL0     H31853   4.279   2.240   4.592 -1.1351 -0.2451  0.5696
  231MOL0     H31854   4.331   2.302   4.789  1.1954 -0.6237 -2.9175
  231MOL0     H31855   4.411   2.149   4.843  0.0865  0.3579  1.2722
  231MOL0     H31856   4.191   2.166   4.964 -5.8428  3.1890 -0.4150
  231MOL0     H31857   4.177   2.041   4.836 -1.5304  0.2827  0.1133
  231MOL0     H31858   4.870   2.744   4.270 -1.1076  1.8747 -1.3210
  231MOL0     H31859   4.848   2.822   4.015  1.7054 -1.8378 -1.4537
  231MOL0     H31860   4.653   2.774   3.625  0.7225  0.0480  0.2282
  231MOL0     H31861   4.586   2.794   3.398 -0.6292 -0.8004 -0.5721
  231MOL0     H31862   4.636   3.708   1.605  0.7508  0.0581 -1.6885
  231MOL0     H31863   4.751   3.918   1.509  1.3006 -1.5606 -1.1533
  231MOL0     H31864   4.840   4.324   1.649  2.0470 -2.7377  1.2091
  231MOL0     H31865   4.836   4.552   1.550  1.1641  1.0484 -4.8733
  231MOL0     H31866   5.163   4.675   1.283  1.8602  0.0366  0.0184
  231MOL0     H31867   5.109   4.840   1.327  0.6434  0.4045  0.0828
  231MOL0     H31868   5.339   4.740   1.394 -0.0182 -2.2630  0.6882
  231MOL0     H31869   5.252   4.676   1.526  2.8477  0.1198  0.7658
  231MOL0     H31870   5.243   4.987   1.458 -1.5370  2.1137  2.8171
  231MOL0     H31871   5.139   4.915   1.564 -0.4443 -0.1715 -2.3806
  231MOL0     H31872   5.322   5.034   1.674  3.2790  1.1497  0.3096
  231MOL0     H31873   5.433   4.913   1.603 -0.3763  0.5573 -1.9801
  231MOL0     H31874   5.319   4.664   1.897  1.7856 -2.3025 -3.2477
  231MOL0     H31875   5.198   4.482   1.357 -1.2740  1.4869 -1.7479
  231MOL0     H31876   5.317   4.279   1.394 -0.6927  0.9142  1.7098
  231MOL0     H31877   5.248   4.139   1.491 -1.7478 -2.6221 -1.1397
  231MOL0     H31878   5.206   4.163   1.322  1.0911  0.1981 -0.0936
  232MOL0     O31879   0.454   9.473   0.630  0.0038  0.8309 -0.5925
  232MOL0     C31880   0.414   9.362   0.603 -0.8097  0.4081  0.1640
  232MOL0     O31881   0.491   9.247   0.640 -0.1977  0.3850  0.0310
  232MOL0     C31882   0.609   9.263   0.707 -0.4237  0.0021  0.0269
  232MOL0     C31883   0.731   9.267   0.635  0.2919  0.0927 -0.4852
  232MOL0     C31884   0.855   9.287   0.702 -0.0369  0.2582  0.9147
  232MOL0     C31885   0.849   9.300   0.835  0.5750 -0.2111 -1.2025
  232MOL0     O31886   0.954   9.319   0.912 -1.4769 -0.5155  0.3056
  232MOL0     C31887   1.082   9.271   0.869  0.1273 -0.1488  0.1388
  232MOL0     C31888   1.182   9.380   0.812  0.3850 -0.2368 -0.7123
  232MOL0     C31889   1.319   9.306   0.799 -0.3255  0.1418  0.2278
  232MOL0     C31890   1.392   9.393   0.700  0.0718  0.7010  0.8165
  232MOL0     C31891   1.399   9.549   0.733  0.5938  1.0995  0.6196
  232MOL0     C31892   1.498   9.574   0.849 -0.8536 -0.4994 -0.1769
  232MOL0     C31893   1.455   9.694   0.945 -0.6420 -0.2957  0.3557
  232MOL0     C31894   1.490   9.822   0.871  0.3367 -0.0487  0.5455
  232MOL0     N31895   1.453   9.948   0.946 -0.7237 -0.3896 -1.0941
  232MOL0     C31896   1.348   9.969   1.034  0.2746  0.0307  0.1519
  232MOL0     C31897   1.349  10.106   1.058  0.5191  0.0824  0.0821
  232MOL0     C31898   1.246  10.171   1.140 -0.5792  0.0740 -0.6929
  232MOL0     C31899   1.256  10.165   1.298  0.3641 -0.5245 -0.1169
  232MOL0     C31900   1.191  10.282   1.374  0.1237  0.2226  0.2169
  232MOL0     C31901   1.221  10.273   1.528  0.0545  0.0834 -0.3154
  232MOL0     O31902   1.142  10.367   1.616 -0.0460  0.0139  0.5097
  232MOL0     C31903   1.214  10.460   1.693 -0.3453 -0.2768  0.3754
  232MOL0     C31904   1.295  10.413   1.803 -0.2171 -0.2277 -0.4244
  232MOL0     C31905   1.382  10.491   1.877 -0.8517 -0.1096 -0.9181
  232MOL0     C31906   1.457  10.417   1.984 -0.4195  1.1080  0.2745
  232MOL0     C31907   1.377  10.632   1.848 -0.6007 -0.2669  0.4157
  232MOL0     C31908   1.477  10.725   1.907  0.3797 -0.7215  0.4582
  232MOL0     O31909   1.515  10.701   2.030 -0.7474 -0.2050  0.2341
  232MOL0     C31910   1.624  10.770   2.079 -0.0873  0.2272 -0.0847
  232MOL0     C31911   1.613  10.838   2.198  0.0644  0.8428 -1.2158
  232MOL0     C31912   1.729  10.896   2.257 -0.2709 -0.4683  0.3421
  232MOL0     C31913   1.850  10.890   2.186 -0.0915  0.9060  1.1883
  232MOL0     O31914   1.966  10.930   2.248 -0.1900  0.1883  0.8852
  232MOL0     C31915   1.964  11.001   2.374  0.7298 -0.1505  0.3605
  232MOL0     C31916   2.102  11.017   2.437  0.3776  0.2164 -0.3077
  232MOL0     C31917   2.099  10.934   2.567  0.7064  0.7200 -0.3885
  232MOL0     C31918   2.235  10.899   2.628  1.1065  0.6527 -0.6621
  232MOL0     C31919   2.304  11.034   2.657 -0.6226 -0.0811 -0.6997
  232MOL0     C31920   2.436  11.011   2.732  0.0913  0.6927  0.4891
  232MOL0     C31921   2.546  10.960   2.648  0.1367  0.3867  0.8230
  232MOL0     C31922   2.659  10.901   2.732 -0.4151 -0.2055 -0.8476
  232MOL0    Cl31923   2.718  11.026   2.848  0.0060  0.5521 -0.2300
  232MOL0     C31924   1.865  10.824   2.063 -0.0518  0.4264 -0.5095
  232MOL0     C31925   1.747  10.767   2.017  0.5527  0.0183  0.0592
  232MOL0     O31926   1.523  10.815   1.836 -0.5787 -0.1070  0.6081
  232MOL0     C31927   1.287  10.685   1.755 -0.9446  0.3613  1.0887
  232MOL0     C31928   1.221  10.601   1.667  0.0001  0.0181 -0.1016
  232MOL0     N31929   1.457  10.166   0.996  0.7203 -0.4434 -0.0332
  232MOL0     N31930   1.518  10.073   0.927  0.5141  0.2201  0.2299
  232MOL0     C31931   0.728   9.308   0.906  0.0846 -0.1460 -0.1920
  232MOL0     C31932   0.607   9.284   0.844 -0.1584 -0.2694 -0.9255
  232MOL0     C31933   0.273   9.349   0.532  0.2810  0.0384  0.0876
  232MOL0     C31934   0.217   9.216   0.521  0.1085 -0.3090  0.1895
  232MOL0     C31935   0.096   9.188   0.456 -0.8944 -0.1405  0.0787
  232MOL0     C31936   0.025   9.287   0.391 -0.2519  0.4991  0.7730
  232MOL0     O31937  -0.096   9.264   0.336  0.6791  0.2942  0.4430
  232MOL0     C31938  -0.208   9.316   0.400  0.0983 -0.2341  0.3409
  232MOL0     C31939  -0.303   9.362   0.305  0.3093  0.4839 -0.4893
  232MOL0     C31940  -0.245   9.451   0.197 -0.6679  0.2761  0.0638
  232MOL0     C31941  -0.364   9.487   0.114  0.1230 -0.4424  1.5292
  232MOL0     C31942  -0.328   9.552  -0.018 -0.3942 -0.1120  1.0904
  232MOL0     C31943  -0.302   9.619  -0.114  0.0951  0.2169  0.5240
  232MOL0     C31944   0.090   9.415   0.390 -0.3134  0.3608  0.6683
  232MOL0     C31945   0.199   9.449   0.475  0.7280  0.1683 -1.1315
  232MOL0     C31946   0.233   9.591   0.472  0.2715  0.5690 -0.0067
  232MOL0     H31947   0.716   9.253   0.529 -1.5200 -0.5235 -0.1864
  232MOL0     H31948   0.945   9.304   0.644 -0.4834  2.2972  0.7321
  232MOL0     H31949   1.061   9.195   0.792 -0.5364  1.7115 -1.5889
  232MOL0     H31950   1.135   9.219   0.949  1.0889  0.2734 -0.2144
  232MOL0     H31951   1.138   9.405   0.715 -1.5323  4.2332  1.0040
  232MOL0     H31952   1.195   9.473   0.868 -0.4259 -0.1701 -0.6233
  232MOL0     H31953   1.377   9.298   0.891  0.5045  2.2010 -0.0573
  232MOL0     H31954   1.310   9.207   0.754  1.0219 -1.4722  3.2501
  232MOL0     H31955   1.488   9.348   0.672 -0.3074  0.8142 -0.7881
  232MOL0     H31956   1.323   9.393   0.615  0.6928 -2.8266  0.1407
  232MOL0     H31957   1.298   9.590   0.743 -0.5379 -1.2026 -0.6082
  232MOL0     H31958   1.444   9.605   0.650 -0.0964  1.1483  0.2706
  232MOL0     H31959   1.497   9.492   0.922 -1.5882  1.4381  2.1217
  232MOL0     H31960   1.603   9.579   0.819 -0.7732 -1.6716 -0.1290
  232MOL0     H31961   1.498   9.692   1.045  1.8199 -1.2989 -0.6471
  232MOL0     H31962   1.346   9.683   0.955 -1.1946  2.8004 -0.9926
  232MOL0     H31963   1.598   9.824   0.859  0.2953 -0.8801 -0.0850
  232MOL0     H31964   1.448   9.825   0.769 -0.0264 -1.8220  0.6143
  232MOL0     H31965   1.279   9.897   1.076  0.5501  0.8827  2.1963
  232MOL0     H31966   1.150  10.140   1.099 -0.6961 -0.2591 -0.1700
  232MOL0     H31967   1.255  10.278   1.116  1.5566  1.1475  3.7919
  232MOL0     H31968   1.203  10.074   1.327 -0.4334 -0.5731 -1.6037
  232MOL0     H31969   1.357  10.159   1.338  0.7386 -2.2994 -1.2148
  232MOL0     H31970   1.227  10.373   1.325 -1.8353  0.4207 -0.9839
  232MOL0     H31971   1.083  10.274   1.360  0.4215 -0.1590 -2.3381
  232MOL0     H31972   1.202  10.172   1.567 -0.0774  0.8467  1.7003
  232MOL0     H31973   1.326  10.300   1.532 -0.0271  0.2917  0.6176
  232MOL0     H31974   1.287  10.306   1.822 -1.5710  0.1560  1.4101
  232MOL0     H31975   1.414  10.318   1.997 -1.7659  1.6320 -0.0258
  232MOL0     H31976   1.446  10.462   2.083 -1.8415  2.5517 -0.4977
  232MOL0     H31977   1.559  10.394   1.953 -1.0191 -1.9436  0.3075
  232MOL0     H31978   1.512  10.846   2.237 -0.3695 -3.9438 -0.7131
  232MOL0     H31979   1.722  10.948   2.352  1.9101 -0.8506  0.7802
  232MOL0     H31980   1.927  11.102   2.352 -0.8913 -0.9036 -0.5915
  232MOL0     H31981   1.900  10.953   2.449  2.3255 -0.9831  1.2444
  232MOL0     H31982   2.184  10.993   2.369  0.4246  1.3351 -0.6698
  232MOL0     H31983   2.120  11.113   2.486 -1.3449 -0.3457  1.5336
  232MOL0     H31984   2.048  10.843   2.534 -1.2375  1.0011  1.6338
  232MOL0     H31985   2.039  10.983   2.643  3.1849  1.2245  1.3826
  232MOL0     H31986   2.291  10.828   2.567 -1.9920 -1.1161 -1.6712
  232MOL0     H31987   2.216  10.846   2.722  0.0843 -0.1199 -1.2845
  232MOL0     H31988   2.320  11.087   2.562  2.4297 -1.4656 -1.0805
  232MOL0     H31989   2.247  11.104   2.718 -0.0038 -1.3384  1.3951
  232MOL0     H31990   2.417  10.958   2.826  2.6192 -0.9015  0.1930
  232MOL0     H31991   2.474  11.106   2.771 -1.0810  1.6688 -0.6446
  232MOL0     H31992   2.582  11.044   2.588 -0.3695 -1.7293 -2.7424
  232MOL0     H31993   2.500  10.881   2.587  3.8215 -1.7143  0.4659
  232MOL0     H31994   2.751  10.870   2.681  0.8537 -0.8903  1.6826
  232MOL0     H31995   2.622  10.818   2.793  0.6954 -0.7796 -0.9395
  232MOL0     H31996   1.961  10.811   2.015  0.4754  4.9074 -1.1091
  232MOL0     H31997   1.753  10.712   1.924 -1.7645 -3.3968  1.7134
  232MOL0     H31998   1.277  10.793   1.748 -1.6116  0.2066 -2.5728
  232MOL0     H31999   1.159  10.640   1.586 -2.1199 -1.0143  0.9247
  232MOL0     H32000   0.735   9.325   1.013 -1.5733 -0.9251  0.0757
  232MOL0     H32001   0.509   9.285   0.891 -0.3834 -0.4262 -1.3822
  232MOL0     H32002   0.267   9.133   0.569 -0.9374  0.3020  2.4934
  232MOL0     H32003   0.062   9.085   0.451 -0.8613 -0.0807 -2.3825
  232MOL0     H32004  -0.263   9.243   0.460  0.7371 -0.3377  0.8153
  232MOL0     H32005  -0.180   9.403   0.461 -0.1420 -0.5506  0.9128
  232MOL0     H32006  -0.382   9.410   0.363  0.7282 -1.2176  1.6085
  232MOL0     H32007  -0.352   9.280   0.252 -0.4772  0.1792  0.6666
  232MOL0     H32008  -0.195   9.535   0.245  1.3234  0.6355 -2.4184
  232MOL0     H32009  -0.184   9.389   0.130 -0.9238  0.1627 -0.0660
  232MOL0     H32010  -0.416   9.566   0.169 -2.0375  1.1171 -2.3245
  232MOL0     H32011  -0.441   9.413   0.093 -1.3306  1.4422 -0.2522
  232MOL0     H32012  -0.278   9.675  -0.202 -1.3156 -0.1376 -0.1223
  232MOL0     H32013   0.053   9.494   0.325  2.0144  3.3966  2.7147
  232MOL0     H32014   0.142   9.641   0.438 -1.2669 -1.7075  0.5488
  232MOL0     H32015   0.262   9.628   0.571 -0.2768 -0.9489  0.7481
  232MOL0     H32016   0.318   9.600   0.404  0.2669 -0.6058 -0.1795
  233MOL0     O32017   4.071  10.327   6.639 -0.7828 -0.2175 -0.5267
  233MOL0     C32018   4.122  10.413   6.704  0.1304  0.0613 -0.1149
  233MOL0     O32019   4.067  10.481   6.812  0.1118  0.0378  1.3096
  233MOL0     C32020   3.941  10.455   6.865  0.2500  0.3986  0.0006
  233MOL0     C32021   3.891  10.545   6.966  0.1638 -0.0751  1.0575
  233MOL0     C32022   3.763  10.541   7.028 -0.0210  0.1890  1.2661
  233MOL0     C32023   3.680  10.432   6.990  0.8299  0.2659  0.5089
  233MOL0     O32024   3.552  10.437   7.047 -0.3179 -0.4394  0.3985
  233MOL0     C32025   3.451  10.498   6.969 -0.3273 -0.0381  0.6838
  233MOL0     C32026   3.316  10.429   6.965  0.5937 -0.9209 -0.1857
  233MOL0     C32027   3.220  10.497   6.875 -0.7348 -0.7157  1.0786
  233MOL0     C32028   3.107  10.573   6.932 -0.4781 -0.1039  0.0710
  233MOL0     C32029   3.044  10.667   6.826 -1.1749  0.3638 -0.2322
  233MOL0     C32030   2.902  10.712   6.872 -0.8032 -0.4532  0.1703
  233MOL0     C32031   2.812  10.763   6.753 -0.2770 -0.5667  0.5182
  233MOL0     C32032   2.664  10.805   6.803 -0.2453  0.7398 -0.1699
  233MOL0     N32033   2.607  10.697   6.878  0.1879 -0.2352 -0.5418
  233MOL0     C32034   2.588  10.567   6.825  0.0139 -0.2467 -0.6500
  233MOL0     C32035   2.561  10.495   6.933 -0.4019  0.7939  0.0262
  233MOL0     C32036   2.528  10.348   6.950 -0.6057 -0.3879 -0.1289
  233MOL0     C32037   2.642  10.274   7.016 -0.6680  0.5039 -0.2960
  233MOL0     C32038   2.781  10.319   6.985  0.0271  0.6659  0.0837
  233MOL0     C32039   2.884  10.247   7.072  0.6905 -0.1662 -0.0199
  233MOL0     O32040   2.856  10.102   7.083  0.3146 -0.7371 -0.5640
  233MOL0     C32041   2.932  10.029   7.174 -1.0070  0.7518 -0.5485
  233MOL0     C32042   3.035  10.094   7.254 -0.5041  0.3525 -0.2061
  233MOL0     C32043   3.118  10.022   7.336  1.0251  0.0443 -0.4099
  233MOL0     C32044   3.215  10.103   7.419  0.2387  1.2257  0.0893
  233MOL0     C32045   3.111   9.880   7.337 -0.2705  0.0986  0.2072
  233MOL0     C32046   3.211   9.806   7.409  0.6140 -0.7745  0.2654
  233MOL0     O32047   3.342   9.840   7.389 -1.0124 -0.6325 -0.1247
  233MOL0     C32048   3.437   9.774   7.466  0.5686 -0.0074 -0.8877
  233MOL0     C32049   3.443   9.797   7.609 -0.0896 -0.5226 -0.2068
  233MOL0     C32050   3.514   9.714   7.688 -0.1998 -0.1579 -0.2799
  233MOL0     C32051   3.579   9.599   7.630  0.3808  0.1510 -0.8983
  233MOL0     O32052   3.643   9.506   7.709  0.1199  0.1488  0.7823
  233MOL0     C32053   3.637   9.506   7.848 -0.2037 -1.0842  0.1588
  233MOL0     C32054   3.693   9.376   7.911  0.3124 -0.6998  0.2790
  233MOL0     C32055   3.630   9.362   8.049  0.6469  0.0129 -0.2795
  233MOL0     C32056   3.577   9.221   8.058 -1.0821  0.6434  0.5265
  233MOL0     C32057   3.527   9.202   8.188  0.5698  0.8232  0.0253
  233MOL0     C32058   3.486   9.054   8.205 -0.5952  0.3953  0.4117
  233MOL0     C32059   3.419   9.032   8.336 -0.0967  0.6346  0.2686
  233MOL0     C32060   3.428   8.880   8.364  0.0571  0.6148  0.5495
  233MOL0    Cl32061   3.344   8.797   8.226  0.0498  0.8421 -0.2223
  233MOL0     C32062   3.571   9.577   7.496  0.5970 -0.3004  0.3197
  233MOL0     C32063   3.500   9.663   7.419 -0.0383 -0.9803 -0.7112
  233MOL0     O32064   3.176   9.704   7.463  0.3731  0.0557 -0.2389
  233MOL0     C32065   3.021   9.818   7.248 -0.0105  0.4398  0.0109
  233MOL0     C32066   2.928   9.896   7.177 -0.3058  0.4425  0.1347
  233MOL0     N32067   2.555  10.579   7.043 -0.3931  0.0045  0.3137
  233MOL0     N32068   2.572  10.695   7.003  0.5691  0.5026  0.4468
  233MOL0     C32069   3.723  10.330   6.898 -0.6193 -0.6110  0.7275
  233MOL0     C32070   3.852  10.342   6.837 -0.4561  0.9972  0.9615
  233MOL0     C32071   4.260  10.443   6.673 -0.3036  0.3904  0.6576
  233MOL0     C32072   4.303  10.566   6.722 -0.3743  0.2580  0.2240
  233MOL0     C32073   4.437  10.599   6.690  0.6423  0.2816  0.5548
  233MOL0     C32074   4.521  10.517   6.616  0.4819 -0.7581 -0.2839
  233MOL0     O32075   4.642  10.563   6.580 -0.2980 -0.4273  0.4984
  233MOL0     C32076   4.752  10.486   6.632 -0.5767  0.1897 -0.4359
  233MOL0     C32077   4.873  10.487   6.535 -0.1162 -0.2428  0.1459
  233MOL0     C32078   4.999  10.469   6.615  0.2100  0.5348  0.2012
  233MOL0     C32079   5.042  10.323   6.649  0.4571  0.0947  0.2710
  233MOL0     C32080   5.085  10.243   6.532 -0.0945 -0.8645 -0.0518
  233MOL0     C32081   5.115  10.177   6.441  0.1219 -0.2880 -0.2470
  233MOL0     C32082   4.475  10.396   6.570 -0.4968 -0.0391 -0.5891
  233MOL0     C32083   4.343  10.359   6.599  0.1394  0.5124  0.5532
  233MOL0     C32084   4.312  10.227   6.535 -0.0307 -0.2737  0.2436
  233MOL0     H32085   3.945  10.637   6.986 -0.4014  0.0155  2.2081
  233MOL0     H32086   3.725  10.605   7.107  0.9768 -1.4000  3.0989
  233MOL0     H32087   3.490  10.500   6.867 -0.4755  0.2483  0.6300
  233MOL0     H32088   3.433  10.600   7.004 -0.2049  0.3908 -0.4642
  233MOL0     H32089   3.333  10.326   6.933 -0.8837 -1.5628  0.9573
  233MOL0     H32090   3.294  10.429   7.072  0.4258 -0.5470 -0.2191
  233MOL0     H32091   3.284  10.568   6.821 -2.0420  0.5993  1.1973
  233MOL0     H32092   3.189  10.427   6.797 -0.1181  1.0006 -0.7807
  233MOL0     H32093   3.041  10.494   6.969  1.6525 -2.2694 -0.5020
  233MOL0     H32094   3.140  10.625   7.022 -0.0317  0.8891 -0.6532
  233MOL0     H32095   3.028  10.607   6.736 -2.2972  1.1928 -0.6056
  233MOL0     H32096   3.107  10.756   6.811 -2.7425  1.3648 -1.1243
  233MOL0     H32097   2.851  10.629   6.922  1.8990 -1.3739  1.6453
  233MOL0     H32098   2.923  10.788   6.948 -1.4575  1.8247 -1.7980
  233MOL0     H32099   2.797  10.683   6.679  0.7220 -0.0703 -0.2423
  233MOL0     H32100   2.855  10.856   6.714  0.4166 -0.0540  2.3955
  233MOL0     H32101   2.674  10.884   6.878  1.2205 -0.9604  1.5557
  233MOL0     H32102   2.587  10.834   6.731 -3.2987  0.7716  2.8658
  233MOL0     H32103   2.593  10.533   6.722  4.6164 -1.4272 -0.2533
  233MOL0     H32104   2.504  10.292   6.859  2.7882 -1.2842 -0.6470
  233MOL0     H32105   2.432  10.339   7.001 -0.0918  2.6581  1.6171
  233MOL0     H32106   2.623  10.289   7.123 -0.1236  5.3770 -0.6740
  233MOL0     H32107   2.627  10.168   6.991 -4.2818  0.2395  2.1663
  233MOL0     H32108   2.795  10.295   6.879 -2.4244 -1.1042  0.0612
  233MOL0     H32109   2.789  10.427   7.000 -0.5643  0.8049 -0.5483
  233MOL0     H32110   2.981  10.249   7.021 -0.7040 -2.6144 -3.1109
  233MOL0     H32111   2.881  10.287   7.174  1.6065  0.4442 -0.2196
  233MOL0     H32112   3.038  10.202   7.254 -2.1745  0.5367  3.2762
  233MOL0     H32113   3.314  10.113   7.373  0.4330 -2.1830 -0.5395
  233MOL0     H32114   3.225  10.050   7.514  2.2877  1.4702  0.0527
  233MOL0     H32115   3.183  10.206   7.436  1.6294  2.2773 -2.9413
  233MOL0     H32116   3.381   9.879   7.641  0.2371 -0.9380  1.5952
  233MOL0     H32117   3.518   9.710   7.797  1.6776 -1.7355 -0.3503
  233MOL0     H32118   3.702   9.591   7.869  0.5937 -0.8648 -2.8476
  233MOL0     H32119   3.536   9.520   7.888  0.7313 -1.2160  2.7902
  233MOL0     H32120   3.649   9.297   7.851 -1.2936  0.7650 -0.5752
  233MOL0     H32121   3.802   9.373   7.910  0.3100 -0.6916 -0.8884
  233MOL0     H32122   3.548   9.432   8.069 -0.5910 -1.2010 -0.9071
  233MOL0     H32123   3.719   9.375   8.112  1.9449  0.8728 -2.2041
  233MOL0     H32124   3.653   9.143   8.045 -1.4584 -0.0608  2.2281
  233MOL0     H32125   3.499   9.194   7.986 -0.3833 -1.2154  0.4148
  233MOL0     H32126   3.594   9.231   8.270 -1.0355  0.1140  1.6606
  233MOL0     H32127   3.441   9.270   8.197  1.8182  2.7682 -1.7371
  233MOL0     H32128   3.573   8.988   8.196 -0.9878 -0.2993  1.4745
  233MOL0     H32129   3.419   9.028   8.123 -0.4511  1.5647 -0.0883
  233MOL0     H32130   3.320   9.079   8.335 -0.7571 -0.7007  0.5713
  233MOL0     H32131   3.484   9.079   8.410  0.5935  0.3455 -0.1439
  233MOL0     H32132   3.372   8.851   8.454 -0.0084 -2.1031 -0.2856
  233MOL0     H32133   3.529   8.844   8.386  0.6646  1.7230 -0.3521
  233MOL0     H32134   3.636   9.500   7.455  1.2994 -0.0842  1.0056
  233MOL0     H32135   3.511   9.633   7.315  2.2451 -3.2405  0.0835
  233MOL0     H32136   3.016   9.710   7.232  2.7351  0.0393  1.3256
  233MOL0     H32137   2.857   9.855   7.106 -0.9913  0.1306  0.9863
  233MOL0     H32138   3.658  10.244   6.888  1.8646 -3.0404  3.5912
  233MOL0     H32139   3.883  10.267   6.765  1.2655  2.1466  0.4258
  233MOL0     H32140   4.261  10.638   6.791  0.7129  1.1717 -0.0277
  233MOL0     H32141   4.473  10.699   6.714  2.7397 -0.2349 -0.2276
  233MOL0     H32142   4.780  10.518   6.732 -0.6151  2.5599 -1.1300
  233MOL0     H32143   4.720  10.383   6.651  0.3093  0.0415  0.3511
  233MOL0     H32144   4.874  10.572   6.466 -1.7157 -0.1006  0.2588
  233MOL0     H32145   4.872  10.400   6.469  2.1637  1.1625 -1.9543
  233MOL0     H32146   5.081  10.503   6.550  1.5695 -1.8646  0.5309
  233MOL0     H32147   5.009  10.523   6.710 -0.6173 -2.0735  1.8590
  233MOL0     H32148   4.960  10.267   6.696 -2.7927  3.5640 -0.7061
  233MOL0     H32149   5.129  10.338   6.714  1.5498  0.6199 -1.2477
  233MOL0     H32150   5.158  10.120   6.360 -0.0501 -0.7692 -0.0018
  233MOL0     H32151   4.539  10.334   6.507  2.3768  1.0842  1.0031
  233MOL0     H32152   4.241  10.224   6.452 -0.4935  1.1886  0.5688
  233MOL0     H32153   4.403  10.182   6.494 -1.4210 -1.1713 -2.0510
  233MOL0     H32154   4.272  10.161   6.613  1.8774  1.1844  2.5695
  234MOL0     O32155   0.761  10.487  10.363  0.1630 -0.2219  0.0342
  234MOL0     C32156   0.840  10.565  10.311 -0.4117  0.2522 -0.0312
  234MOL0     O32157   0.837  10.703  10.328  0.2507 -0.4611 -0.1785
  234MOL0     C32158   0.716  10.754  10.374  0.9643  1.1576 -0.0617
  234MOL0     C32159   0.609  10.772  10.285  0.7576  0.2029 -0.5505
  234MOL0     C32160   0.484  10.806  10.330 -0.3137 -0.7565 -0.4510
  234MOL0     C32161   0.469  10.840  10.467 -0.3616  0.0405  0.7764
  234MOL0     O32162   0.343  10.890  10.505 -0.7749 -0.8939  0.5032
  234MOL0     C32163   0.358  11.020  10.564 -0.6170  0.6905  0.6757
  234MOL0     C32164   0.394  11.129  10.469 -0.3867  0.8801 -0.1487
  234MOL0     C32165   0.360  11.253  10.540  0.1140  0.4485  0.3662
  234MOL0     C32166   0.370  11.376  10.438 -0.5294  0.3359 -0.4751
  234MOL0     C32167   0.398  11.497  10.521 -0.3777 -0.0119 -0.5809
  234MOL0     C32168   0.450  11.618  10.428  0.7382  1.0730 -0.9460
  234MOL0     C32169   0.523  11.734  10.500 -0.0518  0.3683  0.2253
  234MOL0     C32170   0.656  11.698  10.563  0.7091 -0.2567 -0.4477
  234MOL0     N32171   0.733  11.820  10.576  0.2468 -0.1822 -0.1719
  234MOL0     C32172   0.874  11.806  10.581 -0.3456 -0.2100  0.4869
  234MOL0     C32173   0.921  11.896  10.669 -0.1120  0.3334 -0.4822
  234MOL0     C32174   1.064  11.915  10.719  1.4174 -0.0677  0.2277
  234MOL0     C32175   1.163  11.913  10.598 -0.5723 -0.3052  0.1434
  234MOL0     C32176   1.229  11.786  10.582 -0.2652  0.0558  0.3559
  234MOL0     C32177   1.348  11.763  10.670 -0.2702  0.0944  0.0118
  234MOL0     O32178   1.308  11.754  10.809  0.8333  0.2384 -0.1707
  234MOL0     C32179   1.408  11.734  10.902  0.4663  0.0723  0.4321
  234MOL0     C32180   1.538  11.698  10.880 -0.2103 -0.9104 -0.2135
  234MOL0     C32181   1.608  11.660  10.993 -0.5397 -0.1325 -0.1744
  234MOL0     C32182   1.755  11.606  10.969 -0.1690 -0.3268 -0.0762
  234MOL0     C32183   1.555  11.666  11.126  0.4030 -0.0053 -1.0189
  234MOL0     C32184   1.625  11.627  11.248  0.1193  0.3521 -0.3751
  234MOL0     O32185   1.588  11.694  11.363 -0.0135 -0.5614  0.7531
  234MOL0     C32186   1.680  11.695  11.467 -0.0915 -0.2268  0.3724
  234MOL0     C32187   1.621  11.666  11.591 -0.1756 -1.4486 -1.2052
  234MOL0     C32188   1.696  11.675  11.713  0.5177  0.4411  0.1543
  234MOL0     C32189   1.837  11.680  11.709 -0.0487  0.9372 -0.4254
  234MOL0     O32190   1.917  11.656  11.819 -0.4596  0.8177 -0.2183
  234MOL0     C32191   1.862  11.705  11.948  0.0079 -0.0614  0.1485
  234MOL0     C32192   1.968  11.699  12.060  0.7490  0.9813  0.2618
  234MOL0     C32193   1.896  11.697  12.199 -0.5285  0.2784 -0.2385
  234MOL0     C32194   1.954  11.594  12.295  0.0333 -0.6968  0.1640
  234MOL0     C32195   1.900  11.611  12.446 -0.5387  0.3055  0.1972
  234MOL0     C32196   1.974  11.502  12.539  0.5554 -0.5643  0.1275
  234MOL0     C32197   2.105  11.558  12.579  0.4395 -0.0215 -0.1313
  234MOL0     C32198   2.184  11.483  12.686 -0.0798  0.2635  0.4340
  234MOL0    Cl32199   2.347  11.538  12.711 -0.3295  0.0324  0.0726
  234MOL0     C32200   1.893  11.702  11.582  0.3891  0.5014 -0.5299
  234MOL0     C32201   1.819  11.724  11.471  0.0058  0.0230 -0.2907
  234MOL0     O32202   1.718  11.554  11.238 -0.1651 -0.5783  0.1998
  234MOL0     C32203   1.426  11.723  11.142 -0.3434  0.1566 -0.3273
  234MOL0     C32204   1.353  11.754  11.033 -0.2666 -0.0575 -1.0868
  234MOL0     N32205   0.804  11.962  10.715 -0.1370  0.6655 -0.3161
  234MOL0     N32206   0.697  11.922  10.650  0.0234 -0.4598 -0.1628
  234MOL0     C32207   0.579  10.828  10.558  0.6657 -0.0116 -1.0630
  234MOL0     C32208   0.698  10.779  10.507 -0.0156  0.1901  0.4581
  234MOL0     C32209   0.959  10.508  10.254  0.4925 -0.1465  0.4846
  234MOL0     C32210   1.010  10.586  10.154  0.7371 -0.2432  0.0113
  234MOL0     C32211   1.113  10.549  10.078 -0.5461 -0.7649  0.1875
  234MOL0     C32212   1.176  10.425  10.086  0.5829 -0.0628 -0.0759
  234MOL0     O32213   1.266  10.368   9.999  0.2769  0.0310 -0.3826
  234MOL0     C32214   1.257  10.413   9.860 -0.0547  0.0099 -0.1179
  234MOL0     C32215   1.294  10.291   9.775  0.9740 -0.1068 -0.5996
  234MOL0     C32216   1.202  10.160   9.793  0.1253  0.2490 -0.0508
  234MOL0     C32217   1.053  10.185   9.782 -0.1027 -0.8792  0.1384
  234MOL0     C32218   0.972  10.075   9.727 -0.1738 -0.1068 -0.0097
  234MOL0     C32219   0.898   9.991   9.673 -0.5300 -0.0397  0.0123
  234MOL0     C32220   1.123  10.339  10.186  0.2493  0.2077 -0.7167
  234MOL0     C32221   1.011  10.382  10.273 -0.7443 -0.1586 -0.8691
  234MOL0     C32222   0.977  10.291  10.392  0.6945 -0.5742  0.7582
  234MOL0     H32223   0.622  10.750  10.180 -2.6958 -2.6244 -0.5863
  234MOL0     H32224   0.409  10.809  10.251  1.1711  0.0476 -1.9057
  234MOL0     H32225   0.419  11.017  10.654 -0.6528 -4.0307  0.8179
  234MOL0     H32226   0.259  11.036  10.609 -1.0294 -1.4232  0.6470
  234MOL0     H32227   0.502  11.121  10.456 -0.3600 -0.2395  0.6395
  234MOL0     H32228   0.357  11.124  10.366  3.1260  1.6774 -1.5834
  234MOL0     H32229   0.256  11.247  10.574 -0.4661  0.6644 -1.2822
  234MOL0     H32230   0.435  11.271  10.617  0.2111  1.7071  0.0060
  234MOL0     H32231   0.442  11.353  10.359  0.8474 -0.0028  0.8145
  234MOL0     H32232   0.276  11.400  10.389 -0.1185 -1.4920 -2.3142
  234MOL0     H32233   0.482  11.474  10.587 -1.6377  0.2532  1.2115
  234MOL0     H32234   0.309  11.525  10.578  0.0784 -1.1427  0.7470
  234MOL0     H32235   0.510  11.581  10.345 -0.7577  0.3792 -1.7675
  234MOL0     H32236   0.361  11.669  10.389  0.5567  1.4229 -0.0968
  234MOL0     H32237   0.454  11.776  10.575 -1.1788  0.9974 -1.1131
  234MOL0     H32238   0.536  11.817  10.430 -1.7145 -1.3133 -2.2194
  234MOL0     H32239   0.635  11.641  10.654  2.4610 -1.8159 -0.9541
  234MOL0     H32240   0.702  11.627  10.493 -1.4251 -0.0158 -2.1863
  234MOL0     H32241   0.921  11.731  10.519 -4.0681 -2.6075  0.1983
  234MOL0     H32242   1.078  11.836  10.794 -1.2603 -2.6707 -1.7922
  234MOL0     H32243   1.068  12.012  10.768 -0.1409 -0.8205  1.9696
  234MOL0     H32244   1.110  11.943  10.507 -1.2463 -0.9012  0.3290
  234MOL0     H32245   1.233  11.995  10.615 -1.5841  1.5223 -3.4689
  234MOL0     H32246   1.158  11.705  10.602 -0.9885  0.1302 -1.6779
  234MOL0     H32247   1.254  11.780  10.475  0.9530  1.6453  0.5106
  234MOL0     H32248   1.392  11.669  10.634 -1.0274  0.3989 -1.7770
  234MOL0     H32249   1.426  11.838  10.651  0.6076 -0.6099  0.6835
  234MOL0     H32250   1.575  11.696  10.778 -1.4270  1.4623 -0.7632
  234MOL0     H32251   1.795  11.634  10.872 -0.7771  1.0211  0.0444
  234MOL0     H32252   1.769  11.498  10.976  0.3933 -0.3700 -1.5581
  234MOL0     H32253   1.825  11.655  11.036  1.0476 -1.9034 -0.1453
  234MOL0     H32254   1.517  11.645  11.616 -0.4581  0.6469 -0.3861
  234MOL0     H32255   1.639  11.669  11.805  2.8797  1.4435  1.7767
  234MOL0     H32256   1.807  11.800  11.940 -1.8623 -1.2583 -3.2018
  234MOL0     H32257   1.781  11.637  11.974  0.5620  0.0136  2.2984
  234MOL0     H32258   1.995  11.596  12.034  0.0979  1.2294 -1.5160
  234MOL0     H32259   2.049  11.774  12.054 -0.8725  3.0341  2.1460
  234MOL0     H32260   1.792  11.665  12.191 -1.5358  3.6311 -3.2006
  234MOL0     H32261   1.902  11.800  12.234 -1.1777  0.9284 -1.9316
  234MOL0     H32262   2.062  11.605  12.302  0.0835 -1.6134  1.2173
  234MOL0     H32263   1.930  11.491  12.267 -0.7917 -1.0931  2.1333
  234MOL0     H32264   1.922  11.712  12.481 -1.8652  0.2164  1.4157
  234MOL0     H32265   1.790  11.609  12.440 -0.7000 -1.1669  2.3349
  234MOL0     H32266   2.003  11.411  12.485  3.1517  1.4581 -2.2247
  234MOL0     H32267   1.914  11.477  12.627  1.2760  1.4141  1.2449
  234MOL0     H32268   2.091  11.659  12.617  0.1104 -0.2584  0.3845
  234MOL0     H32269   2.169  11.568  12.490  1.0602  0.1763  0.3322
  234MOL0     H32270   2.180  11.379  12.653  0.5934  0.7494 -1.2662
  234MOL0     H32271   2.137  11.492  12.784  0.7476  1.7682  0.7334
  234MOL0     H32272   2.002  11.708  11.575  0.7183  2.9381  3.6639
  234MOL0     H32273   1.877  11.733  11.379 -2.8501  0.5240 -2.1699
  234MOL0     H32274   1.379  11.736  11.239 -0.0373  1.5142 -0.3375
  234MOL0     H32275   1.252  11.790  11.047 -0.6716 -1.5876  0.1409
  234MOL0     H32276   0.565  10.842  10.665  0.9030 -1.0107 -0.8917
  234MOL0     H32277   0.785  10.768  10.571  0.3222  2.2855  0.4324
  234MOL0     H32278   0.977  10.686  10.129  0.5482  0.9529  4.3321
  234MOL0     H32279   1.151  10.612   9.998 -0.2606 -1.6465 -0.3904
  234MOL0     H32280   1.155  10.444   9.836  0.7024  0.5489 -3.0574
  234MOL0     H32281   1.330  10.493   9.851  1.0006 -0.8705  0.3897
  234MOL0     H32282   1.401  10.270   9.786  0.4546 -2.3475  0.6239
  234MOL0     H32283   1.290  10.316   9.669 -2.1194  0.1111 -0.5060
  234MOL0     H32284   1.239  10.087   9.721 -0.7967  0.7952 -1.1211
  234MOL0     H32285   1.217  10.110   9.888  0.7222 -3.2381 -1.8297
  234MOL0     H32286   1.047  10.272   9.716  0.7306  0.7854  2.1520
  234MOL0     H32287   1.016  10.222   9.879 -0.6210  1.2149 -0.7964
  234MOL0     H32288   0.837   9.906   9.652  1.2738 -0.7840 -2.7058
  234MOL0     H32289   1.168  10.241  10.194 -1.7870 -0.7371 -0.2162
  234MOL0     H32290   1.052  10.219  10.425  1.2702 -1.1230 -1.5712
  234MOL0     H32291   0.937  10.341  10.481  0.0608  0.6520 -0.1853
  234MOL0     H32292   0.894  10.232  10.353  0.6808  0.4167 -0.7932
  235MOL0     O32293   0.961   1.867   4.039  0.8549 -0.1409  0.4144
  235MOL0     C32294   0.882   1.770   4.024  0.0953  1.0784  0.2711
  235MOL0     O32295   0.793   1.753   3.927  0.3292 -0.1387 -0.1718
  235MOL0     C32296   0.790   1.838   3.819 -0.0866  0.5826 -0.0303
  235MOL0     C32297   0.666   1.856   3.753  0.2729  0.4785  0.6147
  235MOL0     C32298   0.648   1.919   3.627  0.0775  0.1253 -0.8717
  235MOL0     C32299   0.756   1.979   3.564 -0.0508 -1.0360 -0.2675
  235MOL0     O32300   0.727   2.047   3.448 -0.7341 -0.7966 -0.0967
  235MOL0     C32301   0.827   2.114   3.361  0.2168 -0.0954 -0.3165
  235MOL0     C32302   0.772   2.247   3.302 -0.3491  0.4728  1.2900
  235MOL0     C32303   0.824   2.369   3.376  0.4428  0.0492 -0.3865
  235MOL0     C32304   0.772   2.498   3.310  1.2602  0.0041 -0.6563
  235MOL0     C32305   0.816   2.625   3.374 -0.2718 -0.7261 -0.0525
  235MOL0     C32306   0.735   2.740   3.315 -0.3561 -0.1691 -0.4368
  235MOL0     C32307   0.775   2.880   3.361  0.6253 -0.0574  0.4393
  235MOL0     C32308   0.676   2.989   3.308 -0.2226 -0.3963 -1.6404
  235MOL0     N32309   0.680   3.008   3.162  1.0502  0.6120 -0.2006
  235MOL0     C32310   0.642   3.133   3.103  0.2219  0.4278 -0.7864
  235MOL0     C32311   0.678   3.127   2.972 -0.6402  0.3288 -0.4000
  235MOL0     C32312   0.679   3.232   2.873 -0.4853 -0.7857 -0.4818
  235MOL0     C32313   0.557   3.329   2.888 -0.7266  0.5257  0.0386
  235MOL0     C32314   0.426   3.268   2.829 -0.0388 -0.1867 -0.6266
  235MOL0     C32315   0.433   3.250   2.675  0.0620  0.1165 -0.4119
  235MOL0     O32316   0.458   3.374   2.611 -0.2162  0.3740  0.3734
  235MOL0     C32317   0.406   3.375   2.481  0.1748 -0.7877  0.3646
  235MOL0     C32318   0.266   3.380   2.466  0.1320 -0.5782  0.5467
  235MOL0     C32319   0.205   3.372   2.342 -0.4173  0.0990  1.0044
  235MOL0     C32320   0.054   3.368   2.346  0.1154  0.2534  0.3169
  235MOL0     C32321   0.289   3.359   2.227  0.0456 -0.1601  0.4492
  235MOL0     C32322   0.245   3.346   2.090 -0.0564  0.5142 -1.0916
  235MOL0     O32323   0.340   3.322   1.991 -0.1125  0.7576 -0.9436
  235MOL0     C32324   0.293   3.301   1.865  0.3412  1.2650  0.7106
  235MOL0     C32325   0.229   3.183   1.825  0.6446  0.6886 -0.1637
  235MOL0     C32326   0.185   3.158   1.698 -0.5414  0.0929 -0.4618
  235MOL0     C32327   0.220   3.255   1.598 -0.2378  0.1705 -0.5406
  235MOL0     O32328   0.207   3.220   1.463 -0.1004 -0.4683 -0.8702
  235MOL0     C32329   0.206   3.333   1.365  0.8490  0.2545  0.6265
  235MOL0     C32330   0.173   3.268   1.223 -0.1147  0.4537 -1.1491
  235MOL0     C32331   0.204   3.380   1.118 -0.2606  0.3726  0.8426
  235MOL0     C32332   0.187   3.323   0.982 -0.0657  0.1557  0.1626
  235MOL0     C32333   0.043   3.260   0.959 -0.1247 -0.1919  0.0088
  235MOL0     C32334   0.032   3.204   0.823  0.4418  0.0849  0.7861
  235MOL0     C32335   0.115   3.079   0.797  0.5703  0.3830 -0.0828
  235MOL0     C32336   0.078   3.015   0.670 -0.2788 -0.1344 -0.4863
  235MOL0    Cl32337  -0.089   2.965   0.673  0.2283  0.3236  0.2274
  235MOL0     C32338   0.285   3.373   1.638  0.4211 -0.0988  0.2292
  235MOL0     C32339   0.306   3.400   1.774  0.5967  0.5732 -0.6075
  235MOL0     O32340   0.126   3.334   2.071 -0.1223  0.9300  0.0447
  235MOL0     C32341   0.432   3.363   2.239 -0.1571  0.1295 -0.2689
  235MOL0     C32342   0.485   3.374   2.368 -0.6691  0.5999  1.0175
  235MOL0     N32343   0.721   2.993   2.949  0.7008 -0.2172  0.2035
  235MOL0     N32344   0.722   2.928   3.062 -0.0662  0.5425 -0.2127
  235MOL0     C32345   0.883   1.962   3.622 -0.8293 -0.3136  0.3909
  235MOL0     C32346   0.902   1.899   3.750 -0.1867 -0.2854 -0.2960
  235MOL0     C32347   0.852   1.668   4.137 -1.0947 -0.1632 -0.2197
  235MOL0     C32348   0.733   1.597   4.141  1.6439 -0.2514 -0.4498
  235MOL0     C32349   0.707   1.504   4.253  0.7842 -1.1633  0.1055
  235MOL0     C32350   0.801   1.483   4.353  1.2390 -0.5717  0.7612
  235MOL0     O32351   0.766   1.403   4.455  0.8650 -0.6329  0.0098
  235MOL0     C32352   0.854   1.405   4.572 -0.8593  0.2071  0.6646
  235MOL0     C32353   0.959   1.294   4.550  0.1079 -0.2975 -0.0224
  235MOL0     C32354   1.011   1.230   4.683  0.7571  0.4029  0.2713
  235MOL0     C32355   1.145   1.151   4.658 -0.5480  0.3582  0.3435
  235MOL0     C32356   1.169   1.082   4.782  0.0636  0.5811 -0.0623
  235MOL0     C32357   1.199   1.013   4.877  0.8347 -0.5023  0.5564
  235MOL0     C32358   0.918   1.552   4.342  0.6599 -0.7958  0.5630
  235MOL0     C32359   0.946   1.645   4.244 -0.8426 -0.1117 -0.1005
  235MOL0     C32360   1.094   1.700   4.244 -0.1563 -0.1051 -0.1259
  235MOL0     H32361   0.580   1.811   3.801 -0.3718  2.4265  1.3885
  235MOL0     H32362   0.550   1.940   3.586 -0.5311  2.6464  1.6053
  235MOL0     H32363   0.833   2.044   3.277  0.2042 -0.9859  0.4109
  235MOL0     H32364   0.926   2.125   3.406  0.8344  5.4564 -2.2809
  235MOL0     H32365   0.815   2.238   3.202 -1.2020  0.3364  0.9269
  235MOL0     H32366   0.663   2.236   3.300 -0.1051 -3.0864 -0.3046
  235MOL0     H32367   0.793   2.351   3.479  2.7259 -1.6260  0.0758
  235MOL0     H32368   0.933   2.379   3.373  0.6085 -0.1877  2.5794
  235MOL0     H32369   0.785   2.489   3.202 -1.8907 -2.9341 -0.9505
  235MOL0     H32370   0.664   2.486   3.318  1.2830  0.2498  0.1801
  235MOL0     H32371   0.924   2.635   3.361 -0.1885 -1.8179 -0.3309
  235MOL0     H32372   0.789   2.631   3.480  0.2068  1.6235 -0.0049
  235MOL0     H32373   0.760   2.734   3.208  1.0173 -1.8689 -0.0797
  235MOL0     H32374   0.629   2.721   3.334 -0.0409  1.1794  3.4916
  235MOL0     H32375   0.880   2.911   3.351  1.4245 -2.6384  0.0403
  235MOL0     H32376   0.772   2.890   3.470 -2.1948  4.3654  0.2031
  235MOL0     H32377   0.577   2.958   3.343  0.4258  0.0386  0.7925
  235MOL0     H32378   0.703   3.080   3.361 -4.7500 -0.8888  2.1592
  235MOL0     H32379   0.606   3.214   3.166 -3.2027 -0.4287 -1.4642
  235MOL0     H32380   0.680   3.172   2.781  1.9193  0.9539 -1.6996
  235MOL0     H32381   0.770   3.293   2.876 -1.2954  0.4331  1.4229
  235MOL0     H32382   0.544   3.351   2.994 -2.1244  0.9121 -0.2017
  235MOL0     H32383   0.574   3.428   2.844  0.1051  2.7289  4.7711
  235MOL0     H32384   0.413   3.169   2.875 -1.3313  0.8334  1.3494
  235MOL0     H32385   0.337   3.329   2.839 -1.4835 -2.1032 -1.1974
  235MOL0     H32386   0.515   3.183   2.648  0.1323 -0.6364  1.5093
  235MOL0     H32387   0.341   3.202   2.640  0.6542  0.2020 -2.1925
  235MOL0     H32388   0.212   3.386   2.560 -1.1669  1.4840 -0.2707
  235MOL0     H32389   0.018   3.271   2.309 -1.6712  0.4293  1.4776
  235MOL0     H32390   0.018   3.441   2.273 -0.3594 -0.2132  0.0808
  235MOL0     H32391   0.018   3.385   2.447  0.8227  0.7058  0.4975
  235MOL0     H32392   0.196   3.114   1.901 -3.8287  1.0231 -1.4955
  235MOL0     H32393   0.125   3.070   1.680  1.4943 -1.0829 -1.8852
  235MOL0     H32394   0.136   3.411   1.394 -0.4602 -0.1937 -1.1226
  235MOL0     H32395   0.305   3.377   1.353  1.4915 -0.7892  1.8051
  235MOL0     H32396   0.233   3.179   1.206 -0.3770  0.1727 -0.6305
  235MOL0     H32397   0.069   3.235   1.234  1.3710 -4.5308  0.7609
  235MOL0     H32398   0.305   3.419   1.127  0.4338 -1.3348  0.7563
  235MOL0     H32399   0.121   3.451   1.131 -2.7516 -2.5299  2.2190
  235MOL0     H32400   0.256   3.241   0.962 -0.3174  0.0423 -0.2596
  235MOL0     H32401   0.206   3.396   0.902 -1.7413  0.2138 -0.2403
  235MOL0     H32402   0.034   3.171   1.022  0.0788 -0.1136  0.1501
  235MOL0     H32403  -0.025   3.345   0.968 -0.2219  0.0934 -2.5187
  235MOL0     H32404   0.056   3.274   0.742  1.3559 -1.0579  0.0312
  235MOL0     H32405  -0.073   3.176   0.811  0.8275 -1.3022  0.5101
  235MOL0     H32406   0.108   3.006   0.878 -1.6182 -0.3980 -0.8814
  235MOL0     H32407   0.218   3.113   0.783  1.5253 -1.9599  0.7427
  235MOL0     H32408   0.146   2.931   0.681 -0.8965 -0.6028 -0.1933
  235MOL0     H32409   0.100   3.069   0.577  0.6054 -1.0599 -0.8282
  235MOL0     H32410   0.307   3.445   1.560  1.1086 -0.8476 -0.2821
  235MOL0     H32411   0.347   3.497   1.800  0.9104  0.5200 -0.9110
  235MOL0     H32412   0.493   3.342   2.151 -0.5618  0.6172 -0.6730
  235MOL0     H32413   0.590   3.374   2.399 -0.0090  1.2227 -1.0696
  235MOL0     H32414   0.975   1.995   3.574 -1.8449 -1.5295 -2.6068
  235MOL0     H32415   1.005   1.907   3.784 -0.0900  3.5154 -1.0045
  235MOL0     H32416   0.668   1.603   4.054 -0.6838 -0.2279  1.1701
  235MOL0     H32417   0.611   1.455   4.268  0.2797 -0.1450  0.2627
  235MOL0     H32418   0.902   1.498   4.604 -1.7837  0.7465  0.5083
  235MOL0     H32419   0.794   1.374   4.658 -1.0017 -0.8247  0.2039
  235MOL0     H32420   1.036   1.336   4.485 -0.4042  2.9406  1.2715
  235MOL0     H32421   0.908   1.214   4.496 -1.3089  0.5018  0.0836
  235MOL0     H32422   1.024   1.304   4.763 -3.1226  0.1688  1.3365
  235MOL0     H32423   0.926   1.165   4.705 -0.1892  0.6154 -2.3532
  235MOL0     H32424   1.224   1.221   4.630  1.3470 -1.2618  1.3422
  235MOL0     H32425   1.134   1.071   4.585  1.1979 -1.4301  1.9263
  235MOL0     H32426   1.233   0.960   4.963  0.6681  0.2686  1.1082
  235MOL0     H32427   1.000   1.531   4.410 -0.6733  2.4387  3.4525
  235MOL0     H32428   1.100   1.809   4.237 -1.2382  0.2037  2.5855
  235MOL0     H32429   1.137   1.664   4.338 -0.3258 -0.4280 -0.1682
  235MOL0     H32430   1.148   1.661   4.158 -1.4614 -1.9393 -0.1833
  236MOL0     O32431   8.268   3.249   8.213 -0.5407 -0.0010 -0.7176
  236MOL0     C32432   8.201   3.349   8.208  0.4662 -0.8511 -0.0605
  236MOL0     O32433   8.091   3.381   8.282  0.0535  0.4459 -0.3713
  236MOL0     C32434   8.066   3.286   8.381 -0.2326  0.4258 -0.0107
  236MOL0     C32435   7.969   3.190   8.357 -0.5309 -0.6648  1.8116
  236MOL0     C32436   7.943   3.089   8.458  0.4484  1.0060 -0.1268
  236MOL0     C32437   8.007   3.101   8.582  0.4401  0.3289  1.6405
  236MOL0     O32438   7.982   3.016   8.686  0.3137 -0.1462 -0.3470
  236MOL0     C32439   7.847   2.971   8.689  0.2363  0.6394 -0.8092
  236MOL0     C32440   7.800   2.961   8.838  0.3795  0.6596 -0.2197
  236MOL0     C32441   7.861   2.832   8.897 -0.8340 -1.1246 -0.8281
  236MOL0     C32442   7.832   2.837   9.051 -0.7514 -0.2398  0.2106
  236MOL0     C32443   7.910   2.719   9.110 -0.0824 -0.4660 -0.0685
  236MOL0     C32444   7.881   2.693   9.265  0.5647 -0.0755 -0.4169
  236MOL0     C32445   7.967   2.573   9.321 -0.4516 -0.0305  0.4844
  236MOL0     C32446   7.953   2.426   9.275  0.0796  0.3967  0.4375
  236MOL0     N32447   8.043   2.343   9.357 -1.8789 -0.5392  0.5364
  236MOL0     C32448   8.117   2.238   9.307  0.3963  0.3285 -0.3116
  236MOL0     C32449   8.204   2.214   9.403 -0.0113  0.8128  0.3924
  236MOL0     C32450   8.316   2.108   9.390 -0.2536  0.7738  0.3480
  236MOL0     C32451   8.445   2.171   9.335 -0.6479  0.3029 -0.4545
  236MOL0     C32452   8.455   2.237   9.199  0.1344  0.4941  0.4878
  236MOL0     C32453   8.401   2.140   9.086  0.2652  0.7215 -0.2224
  236MOL0     O32454   8.474   2.019   9.083  0.1437  0.1950 -0.0062
  236MOL0     C32455   8.486   1.949   8.966  0.7901 -0.4367  0.2978
  236MOL0     C32456   8.587   1.852   8.962  0.9177  0.4432  0.1925
  236MOL0     C32457   8.610   1.769   8.850 -0.5218  0.0838 -0.8324
  236MOL0     C32458   8.723   1.661   8.860 -0.3167 -0.1139  0.2901
  236MOL0     C32459   8.522   1.787   8.745 -0.0757  0.1138  0.6695
  236MOL0     C32460   8.525   1.712   8.610  0.4632  0.0209  0.5783
  236MOL0     O32461   8.412   1.705   8.532 -0.7524 -0.1027 -0.9259
  236MOL0     C32462   8.414   1.655   8.403  0.1997 -0.8905 -0.6365
  236MOL0     C32463   8.440   1.526   8.381 -0.6529 -0.9805 -0.1691
  236MOL0     C32464   8.423   1.478   8.248  0.0132  0.2246 -0.5400
  236MOL0     C32465   8.384   1.566   8.149 -0.3122 -0.7215 -0.1111
  236MOL0     O32466   8.399   1.517   8.025 -0.3950 -0.4356  1.1784
  236MOL0     C32467   8.458   1.599   7.917 -0.6015 -0.3512 -0.4521
  236MOL0     C32468   8.434   1.522   7.788 -0.4869 -1.7192  0.0425
  236MOL0     C32469   8.542   1.410   7.780 -0.4229 -0.0363  0.1504
  236MOL0     C32470   8.503   1.317   7.669 -0.1578  0.8859 -0.2691
  236MOL0     C32471   8.619   1.222   7.639 -0.1592 -0.3526 -0.5222
  236MOL0     C32472   8.731   1.303   7.568  1.1431 -0.2880 -0.2143
  236MOL0     C32473   8.857   1.225   7.546  0.7756 -0.7996 -0.4007
  236MOL0     C32474   8.878   1.167   7.407 -0.3195 -0.6351 -0.8163
  236MOL0    Cl32475   8.818   0.995   7.396  0.6647  0.0024  0.1757
  236MOL0     C32476   8.358   1.703   8.178  0.6258  0.5764 -0.0130
  236MOL0     C32477   8.375   1.754   8.308 -0.1234  0.0338  0.3260
  236MOL0     O32478   8.640   1.678   8.579 -0.5778  0.7594 -0.2667
  236MOL0     C32479   8.417   1.883   8.754 -0.6835  0.6469  0.0824
  236MOL0     C32480   8.395   1.958   8.863 -0.6269  0.4580  0.1174
  236MOL0     N32481   8.186   2.291   9.516 -0.1078 -0.1699 -0.3840
  236MOL0     N32482   8.091   2.378   9.482  0.5803  0.5171  0.7737
  236MOL0     C32483   8.110   3.201   8.595  1.0925 -0.3024 -0.6862
  236MOL0     C32484   8.141   3.292   8.492  0.3776 -0.5934 -0.6235
  236MOL0     C32485   8.230   3.439   8.093  0.8242  0.3033  0.1080
  236MOL0     C32486   8.116   3.509   8.040 -0.3680  0.4226  0.3982
  236MOL0     C32487   8.135   3.602   7.937 -0.5921  0.2168  0.0840
  236MOL0     C32488   8.264   3.638   7.888  0.8223 -0.2397  0.4870
  236MOL0     O32489   8.287   3.727   7.796 -0.2036 -0.6305  0.3624
  236MOL0     C32490   8.180   3.802   7.738 -0.5714  0.9059 -0.7713
  236MOL0     C32491   8.230   3.933   7.700  0.1916 -0.6962  1.1674
  236MOL0     C32492   8.117   4.015   7.624  0.0299 -0.2543 -0.6162
  236MOL0     C32493   8.134   4.169   7.651 -0.2575  0.0466  0.5253
  236MOL0     C32494   8.024   4.249   7.591  0.5176  0.2352 -0.0539
  236MOL0     C32495   7.937   4.324   7.562  1.3908 -0.5264  0.1457
  236MOL0     C32496   8.369   3.579   7.943  0.4053 -0.0361 -0.2643
  236MOL0     C32497   8.354   3.472   8.037  0.3761 -0.2435  0.4720
  236MOL0     C32498   8.487   3.416   8.091  0.1064  0.3391 -0.2522
  236MOL0     H32499   7.926   3.202   8.258 -0.4103 -1.5098  1.6433
  236MOL0     H32500   7.860   3.020   8.442  1.8209 -0.3899 -1.6114
  236MOL0     H32501   7.830   2.874   8.643 -2.8268  0.7093 -0.0407
  236MOL0     H32502   7.781   3.044   8.640  1.5097  2.2918 -0.1475
  236MOL0     H32503   7.837   3.040   8.904  3.1199  1.4551 -2.5213
  236MOL0     H32504   7.692   2.946   8.827  1.0039 -3.9387 -2.4748
  236MOL0     H32505   7.827   2.741   8.846 -1.3388  0.0004 -2.5781
  236MOL0     H32506   7.968   2.846   8.880 -0.8845 -0.2555 -0.4960
  236MOL0     H32507   7.866   2.922   9.112 -3.3097 -0.6881  2.4606
  236MOL0     H32508   7.724   2.829   9.068 -0.9064 -0.5786 -0.8897
  236MOL0     H32509   8.016   2.742   9.100 -0.6097  2.4379  0.1822
  236MOL0     H32510   7.891   2.634   9.044 -1.2732  0.0631 -0.4317
  236MOL0     H32511   7.908   2.781   9.324  3.6556 -1.6812  0.7890
  236MOL0     H32512   7.775   2.671   9.285  1.5788 -2.3792  3.2616
  236MOL0     H32513   7.949   2.574   9.429 -1.5560 -0.6847  0.3223
  236MOL0     H32514   8.069   2.598   9.290 -1.6374  1.8559 -2.4334
  236MOL0     H32515   7.849   2.393   9.280 -0.6780  2.5216 -0.2544
  236MOL0     H32516   7.977   2.414   9.169  3.6625  3.1574  0.7459
  236MOL0     H32517   8.101   2.208   9.204  4.1741  2.2864 -1.6475
  236MOL0     H32518   8.276   2.039   9.315 -0.3665  0.8610  0.3275
  236MOL0     H32519   8.337   2.058   9.485  1.5683 -0.4213 -0.6197
  236MOL0     H32520   8.482   2.238   9.413  0.1869  0.6957 -1.1800
  236MOL0     H32521   8.509   2.083   9.324 -1.0290 -0.4954  2.6789
  236MOL0     H32522   8.399   2.330   9.183 -1.5585 -0.4501  0.7285
  236MOL0     H32523   8.558   2.264   9.175  0.7818 -3.4904 -2.2685
  236MOL0     H32524   8.297   2.123   9.115 -0.7831  4.5160 -1.1892
  236MOL0     H32525   8.383   2.191   8.990  3.0757  1.0158 -0.6671
  236MOL0     H32526   8.648   1.840   9.051  0.7250 -2.1574  0.0682
  236MOL0     H32527   8.774   1.645   8.955 -1.9041 -2.5798  0.8449
  236MOL0     H32528   8.790   1.659   8.773  0.9232 -0.5622  1.2270
  236MOL0     H32529   8.667   1.568   8.845 -1.1633  0.2961  0.8687
  236MOL0     H32530   8.456   1.448   8.455  2.9330 -1.1220 -0.9346
  236MOL0     H32531   8.442   1.376   8.216 -1.1471 -0.8907  2.0183
  236MOL0     H32532   8.407   1.695   7.900  2.3044  0.8895 -3.1391
  236MOL0     H32533   8.560   1.633   7.936 -2.2732  6.2292 -0.7437
  236MOL0     H32534   8.329   1.494   7.776 -1.9319  3.3365 -1.5133
  236MOL0     H32535   8.463   1.596   7.713 -2.7802  0.1462  0.8702
  236MOL0     H32536   8.545   1.358   7.877 -0.7428  5.3179  3.4179
  236MOL0     H32537   8.640   1.456   7.769 -0.9696  1.1085 -0.0078
  236MOL0     H32538   8.487   1.378   7.580 -1.7926  0.6983 -0.1395
  236MOL0     H32539   8.410   1.266   7.695 -0.5251  1.3250 -0.7113
  236MOL0     H32540   8.650   1.175   7.732 -3.1078 -1.8711 -0.1959
  236MOL0     H32541   8.582   1.149   7.566  0.6916  1.9514 -3.4549
  236MOL0     H32542   8.752   1.388   7.633 -2.3437  0.0280  0.6957
  236MOL0     H32543   8.690   1.343   7.475 -0.2199 -1.2464 -0.0615
  236MOL0     H32544   8.859   1.150   7.625 -1.2614 -0.2746  0.2098
  236MOL0     H32545   8.933   1.298   7.575  0.4547 -0.6264  0.0065
  236MOL0     H32546   8.987   1.163   7.403 -0.1352 -1.3768  2.4341
  236MOL0     H32547   8.842   1.231   7.326 -1.2194  1.2854  1.0172
  236MOL0     H32548   8.333   1.768   8.095  0.1084  1.9261  1.1669
  236MOL0     H32549   8.344   1.852   8.345 -2.9433 -0.8578  0.5310
  236MOL0     H32550   8.355   1.905   8.667  1.5379  1.8351 -1.2918
  236MOL0     H32551   8.302   2.011   8.880 -1.9050 -1.8756  0.8281
  236MOL0     H32552   8.161   3.191   8.690  0.4247  1.4200 -0.1122
  236MOL0     H32553   8.215   3.371   8.504 -2.0870  1.8971 -0.9968
  236MOL0     H32554   8.014   3.490   8.072  0.1940 -3.0840  0.4930
  236MOL0     H32555   8.046   3.644   7.891 -0.3285 -1.3364 -2.0049
  236MOL0     H32556   8.150   3.744   7.650  1.8912 -0.0564 -1.0653
  236MOL0     H32557   8.098   3.826   7.806  0.7222  0.1064  1.1517
  236MOL0     H32558   8.312   3.935   7.628 -1.8465  0.8972 -1.2556
  236MOL0     H32559   8.259   3.988   7.791 -0.5743  3.0317 -0.6440
  236MOL0     H32560   8.137   4.007   7.517  0.8774 -0.4151 -0.4483
  236MOL0     H32561   8.020   3.980   7.661 -0.1230  0.9547  0.1737
  236MOL0     H32562   8.229   4.207   7.612 -0.1375 -1.5129 -0.8030
  236MOL0     H32563   8.140   4.183   7.760  1.0371  0.2265  0.4431
  236MOL0     H32564   7.857   4.389   7.532  5.5017  3.8660 -2.8335
  236MOL0     H32565   8.467   3.623   7.928  0.0594  0.4263 -1.2179
  236MOL0     H32566   8.564   3.480   8.047  0.7988  0.2279  0.7677
  236MOL0     H32567   8.500   3.428   8.199 -1.2437  1.8335 -0.2227
  236MOL0     H32568   8.502   3.315   8.052 -0.3402  0.1923 -0.0509
  237MOL0     O32569   5.911   0.879   2.479 -0.6842 -0.1679 -0.0562
  237MOL0     C32570   5.976   0.951   2.402  0.4271 -0.6967 -0.8051
  237MOL0     O32571   5.928   1.064   2.346  0.9177  0.4822  0.3309
  237MOL0     C32572   5.806   1.050   2.280 -0.2374  0.0538 -0.4439
  237MOL0     C32573   5.722   1.172   2.286 -0.0816  0.9670  0.6637
  237MOL0     C32574   5.604   1.157   2.216  0.3538 -0.3889 -0.0755
  237MOL0     C32575   5.554   1.045   2.146  0.2313  0.0158 -0.1180
  237MOL0     O32576   5.443   1.044   2.059  1.1048 -0.8064 -1.2871
  237MOL0     C32577   5.323   1.112   2.089  0.0842 -0.6184  0.1857
  237MOL0     C32578   5.226   1.024   2.169 -0.5147  0.8479  0.2724
  237MOL0     C32579   5.096   1.102   2.182  0.4014 -0.3872  0.4461
  237MOL0     C32580   5.019   1.138   2.048  0.6446 -0.5293 -0.0290
  237MOL0     C32581   4.880   1.184   2.065  0.2150 -0.7945 -0.3676
  237MOL0     C32582   4.872   1.324   2.123  0.0551 -0.1962 -0.5698
  237MOL0     C32583   4.737   1.381   2.101  1.3377 -0.3629  0.3028
  237MOL0     C32584   4.726   1.529   2.140 -0.1075 -0.1407 -0.8845
  237MOL0     N32585   4.586   1.579   2.120 -0.2076 -0.4261 -0.4542
  237MOL0     C32586   4.514   1.596   2.008 -0.1422 -0.6093 -0.3694
  237MOL0     C32587   4.380   1.594   2.040 -0.5952 -0.9260  0.4972
  237MOL0     C32588   4.270   1.596   1.929  0.6093  0.0870 -0.1391
  237MOL0     C32589   4.131   1.573   1.998  0.6914  0.3371  0.0594
  237MOL0     C32590   3.999   1.582   1.918 -0.0381 -0.2221 -0.1292
  237MOL0     C32591   3.989   1.722   1.866 -0.7433  0.3038  0.1392
  237MOL0     O32592   3.972   1.819   1.967 -1.2544 -0.2311  0.7893
  237MOL0     C32593   3.867   1.813   2.056  0.0492  0.0689  0.8640
  237MOL0     C32594   3.740   1.774   2.021  1.0248 -0.4453  0.6597
  237MOL0     C32595   3.623   1.789   2.110 -0.7388 -0.4944 -0.0415
  237MOL0     C32596   3.484   1.748   2.067  0.6049  0.1880 -0.0532
  237MOL0     C32597   3.645   1.849   2.239 -1.6321 -0.2762 -0.8792
  237MOL0     C32598   3.541   1.888   2.347 -0.8036  0.4442 -0.0632
  237MOL0     O32599   3.584   1.919   2.482  0.4618 -0.0250  0.5261
  237MOL0     C32600   3.490   1.970   2.571 -0.8711 -0.2890 -0.3120
  237MOL0     C32601   3.441   2.103   2.568 -0.2558 -0.8451  1.1046
  237MOL0     C32602   3.336   2.152   2.653 -0.4526  0.0298  0.6709
  237MOL0     C32603   3.286   2.059   2.745 -1.1766 -0.3700 -0.2870
  237MOL0     O32604   3.173   2.093   2.829 -0.9761  0.2683  0.3096
  237MOL0     C32605   3.140   2.232   2.853 -1.1020 -0.1063  0.2530
  237MOL0     C32606   3.068   2.225   2.979 -0.3366 -0.1661 -0.1545
  237MOL0     C32607   3.167   2.205   3.103 -0.3662  0.8116 -0.3609
  237MOL0     C32608   3.075   2.202   3.222  0.8020  0.0438  0.5658
  237MOL0     C32609   3.139   2.177   3.363  0.3820 -0.2453 -0.4968
  237MOL0     C32610   3.204   2.041   3.381 -1.0485  0.1880 -0.3993
  237MOL0     C32611   3.281   2.038   3.511  0.3649  0.7334 -0.0053
  237MOL0     C32612   3.183   2.030   3.637 -0.5605 -0.6793  0.0826
  237MOL0    Cl32613   3.248   2.100   3.779  0.2273  0.2380 -0.2687
  237MOL0     C32614   3.334   1.928   2.758 -0.3755  0.2662 -0.2239
  237MOL0     C32615   3.429   1.883   2.664 -0.6502  0.4941  0.0205
  237MOL0     O32616   3.425   1.854   2.322 -0.2559 -0.8606  0.0188
  237MOL0     C32617   3.775   1.879   2.272 -0.7049 -1.1847 -0.0355
  237MOL0     C32618   3.883   1.869   2.179  0.3993  0.2929 -0.6548
  237MOL0     N32619   4.375   1.578   2.180  1.4071  0.3745  0.3531
  237MOL0     N32620   4.498   1.577   2.230 -0.2983  0.4181  1.2757
  237MOL0     C32621   5.653   0.936   2.142  0.3359  1.3388  0.1148
  237MOL0     C32622   5.773   0.930   2.215  0.4139  0.4958 -0.2563
  237MOL0     C32623   6.121   0.943   2.404  0.0207  0.4452 -0.0398
  237MOL0     C32624   6.196   1.059   2.412  0.6192  0.7894  0.2871
  237MOL0     C32625   6.335   1.052   2.416 -0.8319 -0.0842  0.2940
  237MOL0     C32626   6.409   0.932   2.429  0.5286  0.2197  0.3137
  237MOL0     O32627   6.545   0.938   2.445 -0.3560  0.6798  0.2037
  237MOL0     C32628   6.610   0.821   2.503 -0.4920  0.0626  1.2534
  237MOL0     C32629   6.714   0.764   2.407 -0.1210 -0.0086 -0.7114
  237MOL0     C32630   6.813   0.661   2.472  0.2010 -0.4637 -0.1911
  237MOL0     C32631   6.954   0.679   2.421 -0.2459  0.3342 -0.9512
  237MOL0     C32632   7.058   0.586   2.472  0.0476  0.7743 -0.6831
  237MOL0     C32633   7.140   0.499   2.503 -0.2852 -0.5622 -0.1246
  237MOL0     C32634   6.329   0.817   2.404 -0.1618  0.5559 -0.8541
  237MOL0     C32635   6.191   0.817   2.392 -0.5452 -0.0096 -0.1927
  237MOL0     C32636   6.124   0.679   2.365 -0.7871  0.9293 -0.8463
  237MOL0     H32637   5.757   1.262   2.334 -2.6336  0.8958  2.9310
  237MOL0     H32638   5.543   1.246   2.204 -0.7140 -0.2170  4.6895
  237MOL0     H32639   5.275   1.138   1.994 -5.0786 -0.5666  2.5218
  237MOL0     H32640   5.346   1.205   2.142 -0.6646  0.2650 -0.9729
  237MOL0     H32641   5.222   0.928   2.116  2.4392 -0.4860  2.1854
  237MOL0     H32642   5.255   1.002   2.272  2.4224 -2.3386 -1.0343
  237MOL0     H32643   5.029   1.040   2.242 -0.8449 -1.4651 -1.9009
  237MOL0     H32644   5.108   1.197   2.233 -0.7726  0.1594 -0.2580
  237MOL0     H32645   5.075   1.219   2.000 -0.1811  0.1414  0.1218
  237MOL0     H32646   5.015   1.051   1.982 -0.9830 -1.7503  1.5781
  237MOL0     H32647   4.825   1.108   2.121  0.3238 -1.2124 -0.8248
  237MOL0     H32648   4.832   1.190   1.967  3.8700  2.5977 -2.2241
  237MOL0     H32649   4.894   1.327   2.230 -1.4491  0.0810 -0.2411
  237MOL0     H32650   4.944   1.387   2.070  0.3500  0.8572  1.0298
  237MOL0     H32651   4.672   1.319   2.163  1.8455 -0.2297  0.9779
  237MOL0     H32652   4.707   1.376   1.996  0.4865  1.0166  0.4606
  237MOL0     H32653   4.766   1.546   2.240  0.1625 -0.3064 -0.9656
  237MOL0     H32654   4.796   1.586   2.078 -0.1868 -0.7686 -1.5621
  237MOL0     H32655   4.555   1.605   1.907  0.6727  0.6982  0.0500
  237MOL0     H32656   4.290   1.517   1.855  1.2021  0.8725 -0.8304
  237MOL0     H32657   4.275   1.695   1.884  1.9312  0.6899  1.2673
  237MOL0     H32658   4.131   1.474   2.044 -1.0199  0.7728  1.1262
  237MOL0     H32659   4.125   1.647   2.078 -3.4202 -0.3271  0.5847
  237MOL0     H32660   3.991   1.535   1.819 -0.6125  2.3527 -1.3781
  237MOL0     H32661   3.907   1.550   1.967 -2.5049  1.0461 -3.5889
  237MOL0     H32662   4.079   1.759   1.814  0.1988 -0.3435  1.2690
  237MOL0     H32663   3.908   1.734   1.793 -0.4524  0.0257 -0.2323
  237MOL0     H32664   3.732   1.731   1.921  3.4467 -0.3059  0.3371
  237MOL0     H32665   3.439   1.843   2.038 -0.9712  0.1468  2.0624
  237MOL0     H32666   3.425   1.706   2.149  1.0190  1.5854  1.0086
  237MOL0     H32667   3.477   1.689   1.975 -0.1316  0.7551 -0.3706
  237MOL0     H32668   3.497   2.161   2.495  0.0503 -3.1184 -0.5726
  237MOL0     H32669   3.294   2.252   2.642  1.2504  0.4935 -4.0968
  237MOL0     H32670   3.227   2.298   2.854 -2.7841  2.2583 -0.2600
  237MOL0     H32671   3.073   2.268   2.774  1.9371  2.4723 -1.3568
  237MOL0     H32672   3.033   2.329   2.988  3.0745  1.1718 -0.7747
  237MOL0     H32673   2.986   2.153   2.969 -0.4012 -0.0840 -0.2221
  237MOL0     H32674   3.241   2.285   3.109 -0.2328  0.9939 -2.9986
  237MOL0     H32675   3.222   2.112   3.086 -0.0740  1.1568 -1.4392
  237MOL0     H32676   3.007   2.119   3.202  1.7014 -0.6035  0.1321
  237MOL0     H32677   3.013   2.291   3.237 -3.6963 -2.1860 -2.5319
  237MOL0     H32678   3.214   2.257   3.369  0.5078 -0.2652 -1.5834
  237MOL0     H32679   3.061   2.183   3.438  1.2439 -6.2214  1.3657
  237MOL0     H32680   3.276   2.020   3.301 -0.1463  1.6619 -0.0247
  237MOL0     H32681   3.126   1.964   3.374 -2.3687  1.4790 -0.3884
  237MOL0     H32682   3.356   2.118   3.513 -1.1075  2.3553 -2.8025
  237MOL0     H32683   3.327   1.939   3.521 -2.9144 -0.7081  2.2720
  237MOL0     H32684   3.158   1.925   3.655  2.1469 -1.1490  1.6657
  237MOL0     H32685   3.092   2.088   3.619  0.6316  1.0291 -0.7379
  237MOL0     H32686   3.295   1.861   2.835  0.0130  0.0964 -0.1697
  237MOL0     H32687   3.473   1.784   2.666  1.8025  1.5402  0.2670
  237MOL0     H32688   3.804   1.913   2.371 -1.6211  0.0728 -0.1746
  237MOL0     H32689   3.986   1.898   2.195  0.6295 -1.2802  1.1191
  237MOL0     H32690   5.622   0.849   2.086 -1.3877  2.9846 -1.6483
  237MOL0     H32691   5.844   0.850   2.198  2.3356  1.9416  0.5583
  237MOL0     H32692   6.142   1.152   2.427 -1.5118 -0.3128 -0.0885
  237MOL0     H32693   6.384   1.147   2.437  0.3405 -0.6224  0.0256
  237MOL0     H32694   6.668   0.865   2.584  1.7066  1.0209 -0.7199
  237MOL0     H32695   6.544   0.744   2.544 -0.2758 -0.4711  0.6218
  237MOL0     H32696   6.769   0.848   2.364  0.6338 -0.0726  0.1010
  237MOL0     H32697   6.653   0.720   2.329  1.6865 -1.3922 -1.4184
  237MOL0     H32698   6.819   0.672   2.580  2.1244 -0.8428 -0.2186
  237MOL0     H32699   6.777   0.562   2.440  1.9851 -0.8564 -1.1696
  237MOL0     H32700   6.982   0.780   2.451  0.1213  0.1395 -0.6183
  237MOL0     H32701   6.948   0.663   2.313 -0.3398  0.0491 -0.9039
  237MOL0     H32702   7.202   0.424   2.549 -0.3525  0.3071  1.4674
  237MOL0     H32703   6.368   0.719   2.377 -2.7538  0.1799 -3.9216
  237MOL0     H32704   6.162   0.642   2.270  2.2429  3.0625 -0.6173
  237MOL0     H32705   6.136   0.603   2.443 -2.1589 -1.0359 -2.4424
  237MOL0     H32706   6.018   0.696   2.343 -1.8868 -4.3187 -0.9132
  238MOL0     O32707  10.051   6.945   2.567 -0.2852 -0.8173 -0.0444
  238MOL0     C32708   9.954   7.008   2.609 -0.8273  0.9400  0.0613
  238MOL0     O32709   9.835   6.954   2.628 -0.4549  0.6516 -0.6212
  238MOL0     C32710   9.828   6.817   2.651 -0.1166 -0.1124 -0.2522
  238MOL0     C32711   9.926   6.748   2.718 -1.0459  0.4605  0.7227
  238MOL0     C32712   9.914   6.611   2.731 -0.5714  0.7965 -0.1806
  238MOL0     C32713   9.797   6.546   2.702  0.0883  0.3839 -0.0773
  238MOL0     O32714   9.807   6.411   2.726  0.4743 -0.3338  0.1271
  238MOL0     C32715   9.697   6.327   2.694 -0.9411 -0.6125 -0.1840
  238MOL0     C32716   9.608   6.299   2.815  0.2882  0.5241  0.2226
  238MOL0     C32717   9.488   6.394   2.826  0.1305  0.5876  0.5992
  238MOL0     C32718   9.384   6.324   2.913  0.7235  0.1810  0.1791
  238MOL0     C32719   9.269   6.415   2.951  0.0290  0.0661 -0.7003
  238MOL0     C32720   9.152   6.341   3.014  0.9822  0.9343 -0.3492
  238MOL0     C32721   9.036   6.434   3.052  0.3517 -0.3035 -0.9631
  238MOL0     C32722   8.923   6.359   3.130 -0.6418 -0.0996 -0.6503
  238MOL0     N32723   8.828   6.278   3.047 -0.9759  0.6343  0.4214
  238MOL0     C32724   8.697   6.283   3.050 -0.2260 -0.4706 -0.2790
  238MOL0     C32725   8.655   6.178   2.970 -0.6820 -1.0905  0.4481
  238MOL0     C32726   8.515   6.138   2.962 -0.6433 -0.1492 -0.2648
  238MOL0     C32727   8.463   6.155   2.814 -0.9328 -0.1650 -0.5486
  238MOL0     C32728   8.319   6.136   2.803 -0.0326 -0.1884  0.4094
  238MOL0     C32729   8.269   6.002   2.855 -0.3323  0.8518 -0.4305
  238MOL0     O32730   8.256   6.007   2.997 -0.0144 -0.2802 -0.2776
  238MOL0     C32731   8.136   6.058   3.055 -0.5972 -0.5870  0.1981
  238MOL0     C32732   8.126   6.067   3.193  0.4539  1.1040 -1.2286
  238MOL0     C32733   8.008   6.112   3.258  0.1562  0.4829 -0.3646
  238MOL0     C32734   8.030   6.131   3.404 -0.1037  0.2540  0.2324
  238MOL0     C32735   7.890   6.138   3.183 -0.4785  0.2793 -0.0517
  238MOL0     C32736   7.756   6.162   3.245  0.4591  0.0619 -1.0435
  238MOL0     O32737   7.636   6.175   3.162  0.5292  0.9378  0.4929
  238MOL0     C32738   7.528   6.256   3.209  1.1022  0.5056 -0.0718
  238MOL0     C32739   7.530   6.366   3.294 -0.1912  0.0325 -0.1401
  238MOL0     C32740   7.419   6.434   3.346 -0.8410  0.7811 -0.3412
  238MOL0     C32741   7.292   6.382   3.315  0.6212  0.2048  0.7170
  238MOL0     O32742   7.177   6.447   3.361 -0.3523  0.1309  0.5432
  238MOL0     C32743   7.051   6.397   3.328  0.2547  0.1865 -0.0963
  238MOL0     C32744   6.948   6.447   3.433 -0.5642  0.0027 -0.7951
  238MOL0     C32745   6.806   6.418   3.395 -0.3623 -0.9041  0.1600
  238MOL0     C32746   6.776   6.268   3.366  0.6591  1.0613 -0.3897
  238MOL0     C32747   6.620   6.248   3.372 -0.1549 -0.4034  0.1338
  238MOL0     C32748   6.592   6.103   3.383  0.0664  1.0025 -0.2452
  238MOL0     C32749   6.618   6.029   3.250 -0.7020 -0.1763  0.3459
  238MOL0     C32750   6.542   5.901   3.250 -0.1883  0.3408  0.8786
  238MOL0    Cl32751   6.527   5.835   3.084 -0.3408  0.0078  0.3254
  238MOL0     C32752   7.289   6.267   3.227  0.3631 -0.1496  0.2777
  238MOL0     C32753   7.401   6.209   3.181 -0.2985 -1.0697  0.0462
  238MOL0     O32754   7.760   6.190   3.363  1.2838  0.4146 -0.4376
  238MOL0     C32755   7.899   6.131   3.042  0.1828  0.5233 -0.0163
  238MOL0     C32756   8.019   6.089   2.985 -0.4069 -0.4204 -0.2184
  238MOL0     N32757   8.765   6.120   2.910  0.1817 -0.3812  0.1949
  238MOL0     N32758   8.877   6.175   2.963  0.2295 -0.6340  0.0845
  238MOL0     C32759   9.698   6.612   2.638 -0.2500 -0.6348 -0.1501
  238MOL0     C32760   9.714   6.752   2.610  0.0628  0.2726 -0.4117
  238MOL0     C32761   9.991   7.155   2.643  0.9574 -0.7623  2.1262
  238MOL0     C32762  10.118   7.203   2.610  0.2479  0.3637 -0.2629
  238MOL0     C32763  10.153   7.341   2.621  0.0700  0.6458  0.1961
  238MOL0     C32764  10.071   7.436   2.672 -0.4470  0.5221 -1.3516
  238MOL0     O32765  10.130   7.562   2.698 -0.1485 -0.7096  0.5778
  238MOL0     C32766  10.048   7.665   2.759 -0.9038  0.1882  0.3720
  238MOL0     C32767   9.966   7.726   2.646 -0.7983  0.5191  0.3297
  238MOL0     C32768   9.891   7.841   2.701  0.7144 -0.1143 -1.2232
  238MOL0     C32769   9.903   7.974   2.622  0.6575 -0.0334 -0.2703
  238MOL0     C32770  10.034   8.020   2.593  0.1946  0.4260  0.6035
  238MOL0     C32771  10.152   8.046   2.592 -0.1786 -0.0365 -0.2909
  238MOL0     C32772   9.933   7.390   2.697 -1.0554 -0.8514 -0.7731
  238MOL0     C32773   9.892   7.254   2.680  0.0268  0.5135 -0.2831
  238MOL0     C32774   9.757   7.201   2.729  0.5287  0.0866  0.3419
  238MOL0     H32775  10.018   6.802   2.739  1.9047 -3.1887 -1.6449
  238MOL0     H32776   9.991   6.548   2.775  1.6137  3.5607  0.2880
  238MOL0     H32777   9.753   6.235   2.677 -1.0023 -0.8025  0.6140
  238MOL0     H32778   9.636   6.350   2.606  0.2324 -0.0744 -0.8831
  238MOL0     H32779   9.578   6.195   2.797 -0.4020  1.1553 -2.8053
  238MOL0     H32780   9.661   6.296   2.910  1.7326  2.5364 -0.4617
  238MOL0     H32781   9.519   6.482   2.882 -0.3943 -0.1032  2.0349
  238MOL0     H32782   9.453   6.413   2.724  0.1601  1.5875  0.7665
  238MOL0     H32783   9.349   6.238   2.854  0.7030  1.8577 -2.4183
  238MOL0     H32784   9.425   6.286   3.007 -1.2661 -1.2478  0.5387
  238MOL0     H32785   9.236   6.459   2.857  0.6838  2.4602  0.1215
  238MOL0     H32786   9.307   6.498   3.012  1.5382 -0.7954 -0.4030
  238MOL0     H32787   9.123   6.272   2.934  4.9711 -0.4632 -0.8107
  238MOL0     H32788   9.189   6.283   3.099 -1.4635  0.0753  0.2137
  238MOL0     H32789   8.982   6.471   2.964  0.5941 -0.3956 -1.1528
  238MOL0     H32790   9.081   6.521   3.101  0.1355 -0.9426  0.4342
  238MOL0     H32791   8.964   6.294   3.208  1.3449  0.1203 -1.4650
  238MOL0     H32792   8.855   6.429   3.180 -0.3712  0.7702 -1.4704
  238MOL0     H32793   8.643   6.351   3.116  1.4230  3.4823 -2.6180
  238MOL0     H32794   8.453   6.196   3.031 -1.3506 -0.1860 -0.8477
  238MOL0     H32795   8.503   6.039   3.005  0.6394  0.5258  1.7806
  238MOL0     H32796   8.483   6.256   2.777 -0.4101  0.2803  0.8757
  238MOL0     H32797   8.525   6.093   2.748 -2.0792 -0.3312 -1.5037
  238MOL0     H32798   8.262   6.222   2.839 -1.3157 -1.2949  1.1132
  238MOL0     H32799   8.292   6.139   2.697  0.4108  0.4265  0.3078
  238MOL0     H32800   8.173   5.990   2.805  1.5642  1.1864 -4.5232
  238MOL0     H32801   8.330   5.917   2.825 -3.4792 -1.2283 -1.4676
  238MOL0     H32802   8.215   6.032   3.246  0.8241 -1.5461 -3.4011
  238MOL0     H32803   8.135   6.107   3.425  0.4104  0.8904 -1.4265
  238MOL0     H32804   7.955   6.081   3.466 -1.2754  2.5264  0.7455
  238MOL0     H32805   8.022   6.239   3.421  0.8552  0.2872  0.5094
  238MOL0     H32806   7.622   6.414   3.325 -0.0490  1.9636 -3.1338
  238MOL0     H32807   7.436   6.504   3.426 -1.2540  1.3243 -0.7209
  238MOL0     H32808   7.020   6.436   3.230  2.3959  2.3396 -0.0301
  238MOL0     H32809   7.049   6.288   3.320  1.1641  0.2146 -0.9445
  238MOL0     H32810   6.983   6.407   3.528  1.1947  0.0654 -1.3747
  238MOL0     H32811   6.955   6.556   3.442 -2.1154 -0.0206  1.6447
  238MOL0     H32812   6.784   6.477   3.305  2.5653 -1.3094 -0.9566
  238MOL0     H32813   6.746   6.459   3.476  0.1620  0.9695 -0.3464
  238MOL0     H32814   6.829   6.202   3.436  2.8154  0.2100 -2.6436
  238MOL0     H32815   6.800   6.236   3.264 -2.7520 -0.7719 -0.7629
  238MOL0     H32816   6.588   6.297   3.465  1.2593 -2.1143  1.5969
  238MOL0     H32817   6.566   6.297   3.291  0.4689  0.5902  0.3012
  238MOL0     H32818   6.486   6.089   3.404 -0.0501  0.8487 -0.9126
  238MOL0     H32819   6.661   6.059   3.457  2.0318  0.3257 -2.3460
  238MOL0     H32820   6.727   6.018   3.246 -0.2599  1.5204  4.0065
  238MOL0     H32821   6.587   6.090   3.164  0.8694  1.4524  0.8626
  238MOL0     H32822   6.452   5.916   3.310  0.3931 -0.7140  2.0583
  238MOL0     H32823   6.600   5.827   3.307  1.2386 -0.0885 -1.0345
  238MOL0     H32824   7.199   6.225   3.182  1.6650 -0.4360 -2.2461
  238MOL0     H32825   7.390   6.124   3.115 -0.5947 -0.7632 -0.2986
  238MOL0     H32826   7.809   6.141   2.982 -0.3072 -3.8733 -0.3346
  238MOL0     H32827   8.017   6.085   2.877  2.3111 -4.1279 -0.3102
  238MOL0     H32828   9.602   6.566   2.617 -0.0334 -0.8459 -0.6904
  238MOL0     H32829   9.639   6.806   2.553  0.6437  0.3130 -1.1443
  238MOL0     H32830  10.184   7.135   2.557 -3.9640 -2.8372 -1.9246
  238MOL0     H32831  10.251   7.377   2.590  1.1910 -3.0833 -1.1476
  238MOL0     H32832   9.996   7.622   2.845  0.6087 -0.7654  0.8464
  238MOL0     H32833  10.112   7.741   2.805 -2.2300  1.1960  0.6232
  238MOL0     H32834   9.896   7.654   2.603 -1.7795  0.3086  2.2116
  238MOL0     H32835  10.039   7.762   2.573  1.7060 -2.2800  1.2295
  238MOL0     H32836   9.784   7.819   2.705  0.3630  1.4082  2.8078
  238MOL0     H32837   9.911   7.857   2.808 -1.1760  0.1572 -0.8789
  238MOL0     H32838   9.855   8.062   2.666  0.5946  0.3422 -1.0647
  238MOL0     H32839   9.847   7.962   2.529  1.6309 -2.0445 -0.6428
  238MOL0     H32840  10.254   8.078   2.601 -0.4690  0.9181 -0.2477
  238MOL0     H32841   9.850   7.455   2.723 -2.6534 -2.4288 -1.7274
  238MOL0     H32842   9.707   7.274   2.794  1.0804  0.5468  0.2545
  238MOL0     H32843   9.693   7.184   2.642 -1.1030 -0.7406  1.6492
  238MOL0     H32844   9.762   7.113   2.794 -2.2553  0.6814  1.5282
  239MOL0     O32845   0.172   6.706   4.584 -0.5595 -0.4334 -0.1597
  239MOL0     C32846   0.114   6.601   4.579 -0.1161 -0.0418 -0.1414
  239MOL0     O32847   0.090   6.535   4.701  0.3567  0.2024  0.2757
  239MOL0     C32848   0.086   6.609   4.821  0.1431  0.1689 -0.5981
  239MOL0     C32849   0.207   6.645   4.888 -0.6607  0.0018  0.2314
  239MOL0     C32850   0.210   6.719   5.003  0.9308 -1.4530 -0.7057
  239MOL0     C32851   0.087   6.779   5.050 -0.0379 -0.2865 -0.1458
  239MOL0     O32852   0.073   6.861   5.156 -0.3441 -0.0158  1.2655
  239MOL0     C32853   0.166   6.973   5.159 -0.1213 -0.3201  0.8353
  239MOL0     C32854   0.094   7.098   5.193 -0.0513 -0.4951  0.0937
  239MOL0     C32855   0.021   7.133   5.059  0.3660  0.8091 -0.2730
  239MOL0     C32856  -0.063   7.258   5.081 -0.6384  1.0659  0.3851
  239MOL0     C32857  -0.158   7.277   4.960 -1.4027  0.5080  0.3654
  239MOL0     C32858  -0.269   7.370   4.980 -0.0143 -0.2837 -0.2138
  239MOL0     C32859  -0.222   7.514   5.012  0.6071  0.6690  0.4143
  239MOL0     C32860  -0.349   7.597   5.023  0.6055  0.1716 -0.0411
  239MOL0     N32861  -0.296   7.731   5.051 -0.3415 -0.5573  0.6529
  239MOL0     C32862  -0.196   7.753   5.141 -0.4575  0.0981  0.4558
  239MOL0     C32863  -0.178   7.886   5.133  0.5186  0.0351 -0.4205
  239MOL0     C32864  -0.076   7.974   5.206  0.4735  0.0711  0.5915
  239MOL0     C32865   0.002   8.069   5.108 -0.2051 -0.0739 -0.4246
  239MOL0     C32866   0.102   8.158   5.191 -0.3738  0.1090 -0.0447
  239MOL0     C32867   0.165   8.271   5.108  0.6353  0.2071 -0.4770
  239MOL0     O32868   0.232   8.366   5.190  0.1140  0.5491 -0.2370
  239MOL0     C32869   0.149   8.439   5.271 -0.3699 -0.4624  0.2739
  239MOL0     C32870   0.014   8.459   5.248 -0.8461 -0.0117  0.1226
  239MOL0     C32871  -0.067   8.537   5.331 -0.0287  0.3981 -0.2291
  239MOL0     C32872  -0.217   8.534   5.302 -0.1315  0.2701  0.3502
  239MOL0     C32873  -0.008   8.612   5.437 -0.1002 -0.1785 -0.3330
  239MOL0     C32874  -0.087   8.690   5.532 -0.0265  0.2814 -0.6600
  239MOL0     O32875  -0.031   8.731   5.649  0.2714 -0.6989 -1.0391
  239MOL0     C32876  -0.115   8.791   5.744 -0.1143  0.2920  0.6553
  239MOL0     C32877  -0.187   8.910   5.717 -0.4318 -0.2429  1.0299
  239MOL0     C32878  -0.275   8.965   5.799  0.6712  0.0423 -1.3839
  239MOL0     C32879  -0.295   8.892   5.919  0.2040  0.4980  0.5775
  239MOL0     O32880  -0.372   8.938   6.028  0.7622 -0.1358 -0.4387
  239MOL0     C32881  -0.474   9.041   5.998  1.2933 -0.5220  1.8415
  239MOL0     C32882  -0.552   9.068   6.127  0.6471 -0.0780  0.3167
  239MOL0     C32883  -0.507   9.189   6.200 -1.2853  0.3557 -0.0675
  239MOL0     C32884  -0.397   9.154   6.304  0.0784  0.3350 -0.3420
  239MOL0     C32885  -0.343   9.284   6.359  0.5609  0.3810 -0.5553
  239MOL0     C32886  -0.440   9.361   6.448  0.5982  0.0374 -0.7635
  239MOL0     C32887  -0.363   9.478   6.516  0.1391 -0.3450 -0.4239
  239MOL0     C32888  -0.470   9.547   6.602 -0.1019  0.0980 -0.5515
  239MOL0    Cl32889  -0.366   9.674   6.679  0.0923  0.4376  0.3407
  239MOL0     C32890  -0.236   8.765   5.944 -0.0182 -0.3825 -0.8391
  239MOL0     C32891  -0.137   8.721   5.857  0.3120 -0.1124  0.6766
  239MOL0     O32892  -0.179   8.745   5.489 -0.0809  0.0304  0.0128
  239MOL0     C32893   0.129   8.596   5.460 -0.0073 -0.0884 -0.1216
  239MOL0     C32894   0.206   8.509   5.374  0.2385 -0.1490 -0.5797
  239MOL0     N32895  -0.273   7.948   5.040 -0.6220  1.1220 -0.4206
  239MOL0     N32896  -0.344   7.850   4.995 -0.3415  1.0826 -0.3121
  239MOL0     C32897  -0.028   6.755   4.988 -0.0360  0.3542 -0.0099
  239MOL0     C32898  -0.036   6.663   4.883 -0.0976  0.4238  0.4114
  239MOL0     C32899   0.090   6.538   4.452  0.8764 -0.1167  0.5171
  239MOL0     C32900  -0.017   6.446   4.447  0.2267  0.3487  0.2202
  239MOL0     C32901  -0.046   6.369   4.336 -0.4880 -0.1852 -1.1794
  239MOL0     C32902   0.027   6.388   4.218  0.5586  0.2223  0.7490
  239MOL0     O32903   0.005   6.321   4.097 -0.8183 -0.2288  0.6138
  239MOL0     C32904  -0.086   6.208   4.080 -0.6748 -0.4210  0.0165
  239MOL0     C32905  -0.076   6.137   3.945 -0.0402  0.2982  0.0980
  239MOL0     C32906  -0.085   6.228   3.821  0.1608 -0.0133 -0.6446
  239MOL0     C32907  -0.229   6.270   3.794 -0.9211 -0.0322 -0.5089
  239MOL0     C32908  -0.228   6.353   3.676 -0.1485  0.5930 -0.0214
  239MOL0     C32909  -0.216   6.427   3.585  0.3613 -0.3422 -0.1501
  239MOL0     C32910   0.127   6.480   4.216 -0.2565  0.4105 -0.2793
  239MOL0     C32911   0.155   6.562   4.327  0.1845 -0.8007 -0.4798
  239MOL0     C32912   0.260   6.670   4.314 -0.0793  0.6673  0.5207
  239MOL0     H32913   0.299   6.598   4.855  2.1027  2.3199  3.8416
  239MOL0     H32914   0.296   6.734   5.067 -1.9974  1.9808  2.8842
  239MOL0     H32915   0.216   6.983   5.062 -1.9161 -0.5450 -0.1479
  239MOL0     H32916   0.256   6.964   5.220  1.2125  0.1473 -0.9498
  239MOL0     H32917   0.013   7.077   5.262 -0.5607 -0.1161 -0.3811
  239MOL0     H32918   0.159   7.185   5.212 -0.4226 -0.0193 -0.7783
  239MOL0     H32919   0.103   7.155   4.990  1.2160 -0.5538  0.2558
  239MOL0     H32920  -0.040   7.054   5.014 -1.2682  0.3431  2.4954
  239MOL0     H32921  -0.143   7.235   5.152 -1.5043  2.2398 -0.1753
  239MOL0     H32922   0.007   7.336   5.113 -1.1485  1.2773  1.0058
  239MOL0     H32923  -0.200   7.180   4.933 -1.3526  0.8769 -1.0823
  239MOL0     H32924  -0.098   7.316   4.877  0.6939 -1.3409  0.9102
  239MOL0     H32925  -0.339   7.365   4.896  1.1855 -2.1196 -1.1722
  239MOL0     H32926  -0.318   7.329   5.069  1.9678  1.8657  2.0479
  239MOL0     H32927  -0.154   7.553   4.936 -0.7883 -2.9017 -3.0068
  239MOL0     H32928  -0.178   7.497   5.111 -2.2330 -2.3798  1.3438
  239MOL0     H32929  -0.403   7.591   4.928  0.4689 -1.9870  0.1313
  239MOL0     H32930  -0.417   7.573   5.106 -1.2046 -2.9823 -2.2663
  239MOL0     H32931  -0.151   7.691   5.219 -2.4694  0.7142  2.2045
  239MOL0     H32932  -0.002   7.916   5.262  4.1800  3.2915 -0.5219
  239MOL0     H32933  -0.133   8.044   5.268  1.4934  1.2272  0.2585
  239MOL0     H32934   0.059   8.019   5.029  0.3857  1.0601 -0.7344
  239MOL0     H32935  -0.071   8.140   5.068 -0.4139 -0.8798 -1.5128
  239MOL0     H32936   0.047   8.187   5.281 -1.1446 -2.0201  0.2303
  239MOL0     H32937   0.181   8.092   5.228  0.5020  1.5986  0.8002
  239MOL0     H32938   0.226   8.222   5.031 -1.4430 -1.1251 -1.3674
  239MOL0     H32939   0.096   8.329   5.047  1.2644  1.3328 -0.1586
  239MOL0     H32940  -0.043   8.421   5.164 -4.1961  4.4971 -0.0573
  239MOL0     H32941  -0.268   8.516   5.397 -1.7019 -0.1815 -0.5449
  239MOL0     H32942  -0.228   8.447   5.237 -0.0184  1.7795 -1.8100
  239MOL0     H32943  -0.254   8.621   5.245 -2.0444 -0.9431 -0.3426
  239MOL0     H32944  -0.170   8.963   5.624 -2.8594 -2.9988 -1.1500
  239MOL0     H32945  -0.314   9.066   5.790 -0.3383 -0.0959  0.6880
  239MOL0     H32946  -0.432   9.134   5.957 -1.6885  0.2574  0.2877
  239MOL0     H32947  -0.554   9.016   5.928 -0.1843  1.8926  2.5290
  239MOL0     H32948  -0.660   9.069   6.107  1.1255  1.2573 -2.8765
  239MOL0     H32949  -0.542   8.986   6.198 -3.2349 -1.3968 -0.3980
  239MOL0     H32950  -0.593   9.236   6.249  1.1730  2.9478  2.1405
  239MOL0     H32951  -0.465   9.263   6.131  0.5849 -0.1157  0.4852
  239MOL0     H32952  -0.312   9.091   6.276 -1.3573 -3.3381  2.5824
  239MOL0     H32953  -0.435   9.085   6.380  0.0231 -0.8859 -1.4294
  239MOL0     H32954  -0.255   9.271   6.423 -0.0797 -0.8466  0.1071
  239MOL0     H32955  -0.316   9.353   6.278 -1.1044 -2.4889 -3.7887
  239MOL0     H32956  -0.468   9.288   6.524 -1.7030  0.4260 -1.1706
  239MOL0     H32957  -0.526   9.399   6.393  0.0984  0.6592  0.3962
  239MOL0     H32958  -0.318   9.540   6.438 -0.3447 -0.8685 -1.1314
  239MOL0     H32959  -0.277   9.437   6.570  2.0421  1.8436 -1.6151
  239MOL0     H32960  -0.525   9.490   6.677 -2.3715  2.3823 -0.3652
  239MOL0     H32961  -0.549   9.602   6.550  0.2392  1.2692  0.1429
  239MOL0     H32962  -0.239   8.723   6.044  1.7468 -0.2907 -0.7006
  239MOL0     H32963  -0.078   8.633   5.883 -1.4010 -0.9577  1.9272
  239MOL0     H32964   0.179   8.639   5.546 -0.5502 -1.3752  0.8516
  239MOL0     H32965   0.310   8.513   5.405 -0.2108 -0.8099  1.0855
  239MOL0     H32966  -0.121   6.792   5.030 -1.8921 -2.3645 -1.4515
  239MOL0     H32967  -0.123   6.636   4.825  2.1718 -1.0277 -2.5855
  239MOL0     H32968  -0.073   6.433   4.539  0.2153 -0.6599  0.0841
  239MOL0     H32969  -0.129   6.299   4.338 -0.5282 -0.1393  0.3956
  239MOL0     H32970  -0.061   6.142   4.164  1.0959 -1.7986 -1.5194
  239MOL0     H32971  -0.190   6.243   4.084 -0.6178 -0.3507  1.6501
  239MOL0     H32972  -0.143   6.050   3.943 -0.6264  0.7354  0.3010
  239MOL0     H32973   0.025   6.098   3.949 -0.6066 -1.1505  4.1670
  239MOL0     H32974  -0.029   6.319   3.842  2.5157 -0.5835 -3.7326
  239MOL0     H32975  -0.042   6.166   3.742  1.4259 -0.5436  0.4261
  239MOL0     H32976  -0.270   6.324   3.880  1.0169 -1.6999  1.6005
  239MOL0     H32977  -0.298   6.186   3.779 -1.3386 -0.0319  1.1501
  239MOL0     H32978  -0.201   6.488   3.498  1.6182  0.6313  0.7326
  239MOL0     H32979   0.173   6.498   4.120  0.9593  2.9036  0.6931
  239MOL0     H32980   0.223   6.772   4.306  0.5541  1.0316  1.9952
  239MOL0     H32981   0.331   6.666   4.397  0.6193 -0.2003 -0.0927
  239MOL0     H32982   0.310   6.646   4.219  0.8888  0.4129  1.0798
  240MOL0     O32983   4.569   5.113  10.933  0.5591 -0.2387  1.0483
  240MOL0     C32984   4.516   5.122  11.047 -0.3567 -0.9539  0.3066
  240MOL0     O32985   4.559   5.044  11.150  0.1122 -0.3663  0.2985
  240MOL0     C32986   4.673   4.969  11.145  0.6762 -0.3094  0.0629
  240MOL0     C32987   4.802   5.023  11.115  0.7319  0.1998 -0.6423
  240MOL0     C32988   4.915   4.936  11.125  0.0697  0.7980 -0.0373
  240MOL0     C32989   4.899   4.796  11.157 -0.8193 -0.0288 -0.2995
  240MOL0     O32990   5.006   4.716  11.141 -0.2284 -0.7027 -0.0838
  240MOL0     C32991   5.033   4.638  11.261  0.6340  0.4073  1.3706
  240MOL0     C32992   5.173   4.671  11.326 -0.2964 -0.7977 -0.7961
  240MOL0     C32993   5.271   4.567  11.291 -0.6587  0.3201 -0.7191
  240MOL0     C32994   5.285   4.559  11.144  0.1164  1.2139  0.4301
  240MOL0     C32995   5.427   4.522  11.098  0.4161 -0.2189  0.1936
  240MOL0     C32996   5.472   4.380  11.128 -0.2976  0.0598 -0.7325
  240MOL0     C32997   5.607   4.346  11.067  0.1440  0.1052  0.4316
  240MOL0     C32998   5.643   4.196  11.083 -0.2146 -0.4085  0.2130
  240MOL0     N32999   5.714   4.186  11.213 -0.4677  0.3176  0.5377
  240MOL0     C33000   5.656   4.145  11.330  0.5415 -0.5700  0.3039
  240MOL0     C33001   5.767   4.143  11.412  0.6027  0.9805 -0.2692
  240MOL0     C33002   5.735   4.130  11.565 -0.0284  0.1008 -1.1648
  240MOL0     C33003   5.851   4.176  11.656 -0.3623 -0.6280 -0.2158
  240MOL0     C33004   5.972   4.088  11.671 -0.7367  0.6658  0.0338
  240MOL0     C33005   6.083   4.141  11.753 -0.3326 -0.7156 -0.9583
  240MOL0     O33006   6.038   4.173  11.888  0.0638  0.4597 -0.6647
  240MOL0     C33007   6.096   4.280  11.960  1.3636 -0.2164  0.1182
  240MOL0     C33008   6.015   4.312  12.072 -0.1471  0.2930 -0.2072
  240MOL0     C33009   6.058   4.412  12.163 -1.2177  0.5541  0.7540
  240MOL0     C33010   5.959   4.448  12.273 -0.5612 -0.4701  0.0858
  240MOL0     C33011   6.193   4.469  12.148 -0.2941 -0.5297  0.1042
  240MOL0     C33012   6.249   4.571  12.239 -0.2349  0.5114 -0.2093
  240MOL0     O33013   6.384   4.609  12.216  0.8275 -0.2061 -0.2199
  240MOL0     C33014   6.420   4.730  12.262 -0.2075 -0.0295 -0.0033
  240MOL0     C33015   6.335   4.839  12.270  0.0413 -0.0945 -0.7308
  240MOL0     C33016   6.380   4.967  12.318 -0.0048 -0.3584  0.1845
  240MOL0     C33017   6.512   4.985  12.352  0.3327  0.2506  1.0625
  240MOL0     O33018   6.569   5.099  12.381 -0.4208 -0.9686 -0.4197
  240MOL0     C33019   6.640   5.114  12.509 -0.3150  0.7385 -0.2065
  240MOL0     C33020   6.690   5.265  12.513 -0.4912  0.6180 -0.5674
  240MOL0     C33021   6.798   5.283  12.625  0.1852  0.0614  0.0637
  240MOL0     C33022   6.831   5.432  12.617 -0.1317 -0.9609  0.4156
  240MOL0     C33023   6.866   5.501  12.753 -0.5993  0.0108  0.2624
  240MOL0     C33024   6.923   5.640  12.743  0.1397  0.3036 -0.2555
  240MOL0     C33025   6.978   5.698  12.870 -0.0376  1.0433 -1.0946
  240MOL0     C33026   7.062   5.830  12.840 -0.2654 -1.0419 -0.5948
  240MOL0    Cl33027   6.966   5.927  12.726  0.0509  0.0539  0.2793
  240MOL0     C33028   6.599   4.876  12.345  0.2772 -0.4240  0.4366
  240MOL0     C33029   6.558   4.748  12.296 -0.1697 -0.8950 -0.2416
  240MOL0     O33030   6.185   4.604  12.330 -0.5446 -0.9612 -0.1850
  240MOL0     C33031   6.269   4.429  12.035  0.6352 -0.4284  0.3751
  240MOL0     C33032   6.222   4.331  11.944 -0.1098  0.4373  0.1512
  240MOL0     N33033   5.883   4.172  11.344 -0.4910  0.3841  0.0661
  240MOL0     N33034   5.848   4.185  11.220 -0.8386  0.3373 -0.7730
  240MOL0     C33035   4.772   4.742  11.190 -0.1039  0.2192 -0.2513
  240MOL0     C33036   4.659   4.829  11.184  0.0373 -0.0674  0.7082
  240MOL0     C33037   4.397   5.213  11.068 -0.0659  1.0698  0.5832
  240MOL0     C33038   4.320   5.203  11.186 -0.5518 -0.2329  0.2983
  240MOL0     C33039   4.213   5.288  11.222 -0.1451  0.0559 -0.1055
  240MOL0     C33040   4.168   5.374  11.129 -0.7304  0.5089  0.4852
  240MOL0     O33041   4.058   5.450  11.158 -0.1100  0.3395  0.6944
  240MOL0     C33042   4.070   5.542  11.264 -0.2272  0.5763  0.0742
  240MOL0     C33043   3.948   5.558  11.340  0.1446 -0.6280  0.2259
  240MOL0     C33044   3.843   5.645  11.267  1.4357 -0.6560  0.5770
  240MOL0     C33045   3.882   5.798  11.271  0.5479 -0.8030 -0.5811
  240MOL0     C33046   3.761   5.880  11.275 -0.1484 -1.3303 -0.5096
  240MOL0     C33047   3.659   5.944  11.303  0.0084 -0.0433 -0.0637
  240MOL0     C33048   4.241   5.389  11.008  0.7765  0.2133  0.7454
  240MOL0     C33049   4.359   5.322  10.979  0.5120  1.3723  0.0007
  240MOL0     C33050   4.445   5.381  10.866  0.0903  1.1414  0.4790
  240MOL0     H33051   4.797   5.124  11.075 -0.7453  0.7709  0.8813
  240MOL0     H33052   5.016   4.958  11.091  0.1814 -0.7759 -0.8102
  240MOL0     H33053   5.016   4.533  11.235 -1.5462  0.7022  1.3937
  240MOL0     H33054   4.952   4.653  11.333 -3.6069  0.9084 -2.9706
  240MOL0     H33055   5.196   4.777  11.314 -3.2964  0.1073  0.5489
  240MOL0     H33056   5.157   4.665  11.434 -1.9359  1.9164 -0.7925
  240MOL0     H33057   5.365   4.601  11.335 -1.8255  3.5171 -0.4119
  240MOL0     H33058   5.250   4.471  11.339 -1.6522  0.3345 -1.1068
  240MOL0     H33059   5.204   4.496  11.106  2.1490 -0.6081 -1.1434
  240MOL0     H33060   5.271   4.655  11.095  2.5405  1.2660 -0.3216
  240MOL0     H33061   5.499   4.592  11.141  1.5657 -1.1171 -0.2365
  240MOL0     H33062   5.429   4.537  10.989 -3.4201 -0.3368 -0.0305
  240MOL0     H33063   5.477   4.384  11.238 -2.1453  0.9226 -0.6442
  240MOL0     H33064   5.389   4.312  11.108 -0.0886 -0.1436 -0.9170
  240MOL0     H33065   5.691   4.406  11.103  0.5248 -0.1021 -0.0967
  240MOL0     H33066   5.596   4.364  10.960 -2.3563  0.4211  0.6746
  240MOL0     H33067   5.554   4.132  11.077 -1.3204  1.1913 -3.6080
  240MOL0     H33068   5.714   4.165  11.006  0.9590 -0.0395  1.1080
  240MOL0     H33069   5.552   4.137  11.358  0.5603 -0.4458  0.4088
  240MOL0     H33070   5.734   4.023  11.587  5.6938  0.1207  0.7139
  240MOL0     H33071   5.648   4.191  11.590  1.0890  0.9469  0.8977
  240MOL0     H33072   5.878   4.275  11.617 -1.5501 -0.9678 -2.0158
  240MOL0     H33073   5.815   4.200  11.757  1.5500  0.5812  0.2230
  240MOL0     H33074   5.942   3.992  11.714 -0.5183  0.0299 -1.1891
  240MOL0     H33075   6.018   4.059  11.576 -0.8380 -0.9264  0.4422
  240MOL0     H33076   6.168   4.072  11.751  0.7365  0.5564 -2.9965
  240MOL0     H33077   6.118   4.229  11.698 -1.5412 -0.9401 -2.1058
  240MOL0     H33078   5.924   4.260  12.102  0.8183 -0.0139  2.4726
  240MOL0     H33079   5.855   4.415  12.258 -0.5015 -1.5025  1.6740
  240MOL0     H33080   5.965   4.552  12.304  1.8640 -0.1409 -1.2568
  240MOL0     H33081   5.986   4.380  12.355  3.5903  1.7236  0.7942
  240MOL0     H33082   6.234   4.825  12.233  0.6349 -0.8993 -2.0960
  240MOL0     H33083   6.311   5.050  12.330  1.2439  1.0994 -2.1626
  240MOL0     H33084   6.564   5.090  12.585 -0.6629  2.2010 -0.0464
  240MOL0     H33085   6.715   5.036  12.515 -4.3479 -3.7701 -1.8194
  240MOL0     H33086   6.740   5.301  12.422 -0.3875 -1.7582 -1.5117
  240MOL0     H33087   6.603   5.324  12.543 -0.8116 -0.1917  0.1223
  240MOL0     H33088   6.888   5.221  12.612 -0.4730 -0.7861 -0.5328
  240MOL0     H33089   6.753   5.267  12.724 -0.6942  0.2439 -0.3050
  240MOL0     H33090   6.751   5.492  12.574  0.8002 -0.4744 -0.6805
  240MOL0     H33091   6.911   5.442  12.543 -1.1872  2.1400 -0.4713
  240MOL0     H33092   6.772   5.515  12.808 -1.0026  0.3519 -0.4876
  240MOL0     H33093   6.930   5.433  12.808  1.2000  0.6465 -0.9561
  240MOL0     H33094   6.844   5.703  12.700 -0.0069  1.1775  1.2491
  240MOL0     H33095   7.013   5.630  12.682 -0.1944 -1.0509 -0.5595
  240MOL0     H33096   7.039   5.625  12.923 -0.0769  2.0238  0.3635
  240MOL0     H33097   6.896   5.725  12.938  0.6402  0.1324  0.1073
  240MOL0     H33098   7.150   5.797  12.784  0.7307 -1.0061  0.8699
  240MOL0     H33099   7.098   5.887  12.927  0.7050 -0.8721 -1.0964
  240MOL0     H33100   6.704   4.898  12.362 -0.2948  1.4606  2.0112
  240MOL0     H33101   6.627   4.669  12.271 -0.9015 -1.6813  0.1927
  240MOL0     H33102   6.371   4.466  12.022  0.1092  0.3864 -1.6915
  240MOL0     H33103   6.273   4.299  11.854 -2.5895 -2.3938 -0.3839
  240MOL0     H33104   4.756   4.638  11.219 -0.8825  0.8097  1.5961
  240MOL0     H33105   4.558   4.794  11.208 -0.5269  0.9937 -0.0590
  240MOL0     H33106   4.351   5.132  11.262  0.7552  0.6700  0.6459
  240MOL0     H33107   4.186   5.284  11.327 -0.1366  1.4415 -0.0309
  240MOL0     H33108   4.144   5.507  11.337 -3.4078 -2.5540  2.1053
  240MOL0     H33109   4.101   5.639  11.223  2.8555  0.3690  1.5925
  240MOL0     H33110   3.963   5.604  11.438 -0.3941 -0.0909  0.0653
  240MOL0     H33111   3.905   5.462  11.372  0.5356 -1.2717 -1.1167
  240MOL0     H33112   3.819   5.616  11.165 -0.6020  1.3668  0.3970
  240MOL0     H33113   3.750   5.632  11.324  2.1172  1.8370  2.3895
  240MOL0     H33114   3.936   5.821  11.178  1.9315 -1.4761  0.0247
  240MOL0     H33115   3.945   5.815  11.358 -1.0998  2.0728  0.1514
  240MOL0     H33116   3.566   5.984  11.340  2.2923  3.7342  2.2899
  240MOL0     H33117   4.209   5.467  10.940  0.8582 -0.8337 -0.5386
  240MOL0     H33118   4.507   5.453  10.921 -0.8240 -0.5431  4.0115
  240MOL0     H33119   4.499   5.311  10.801 -0.1745  2.6569 -1.4658
  240MOL0     H33120   4.377   5.436  10.800 -0.7226 -0.3269  0.0485
  241MOL0     O33121   0.342   2.151   0.825  0.6460  0.0476 -1.1136
  241MOL0     C33122   0.407   2.215   0.744 -0.4959  0.5341 -0.3537
  241MOL0     O33123   0.380   2.339   0.700  0.2400 -0.0808  0.7499
  241MOL0     C33124   0.302   2.428   0.778  0.3243  0.0660  0.6359
  241MOL0     C33125   0.205   2.513   0.707  0.2249  0.4145  0.5706
  241MOL0     C33126   0.141   2.609   0.779 -0.6522 -0.2946  0.2466
  241MOL0     C33127   0.161   2.625   0.919  0.8905 -0.8737  0.7321
  241MOL0     O33128   0.081   2.715   0.986  0.6782  0.1962 -0.7081
  241MOL0     C33129   0.026   2.673   1.115  0.8389  0.0522 -0.1360
  241MOL0     C33130  -0.104   2.748   1.162 -0.4608  0.6034  0.3459
  241MOL0     C33131  -0.200   2.776   1.045  0.4372  0.2866  0.5429
  241MOL0     C33132  -0.249   2.651   0.964 -0.3158 -0.9436 -0.8268
  241MOL0     C33133  -0.353   2.681   0.851  0.0986 -0.2463  0.7351
  241MOL0     C33134  -0.407   2.543   0.795  0.1439  0.5368 -0.3002
  241MOL0     C33135  -0.513   2.575   0.690 -0.0120  0.3353 -0.3340
  241MOL0     C33136  -0.559   2.452   0.603 -1.1502  0.2334 -0.2656
  241MOL0     N33137  -0.640   2.369   0.695  0.1780 -0.0392 -0.5915
  241MOL0     C33138  -0.767   2.406   0.741  0.2011 -0.1708 -0.2759
  241MOL0     C33139  -0.789   2.302   0.827  0.2253 -0.1727  1.0112
  241MOL0     C33140  -0.921   2.300   0.901 -0.9586  0.7961  0.2243
  241MOL0     C33141  -0.944   2.164   0.970  0.1709 -1.1030 -1.1961
  241MOL0     C33142  -0.956   2.037   0.886  0.7611 -0.0257 -0.3282
  241MOL0     C33143  -1.096   1.992   0.838  0.1883  0.6587  0.1600
  241MOL0     O33144  -1.155   2.089   0.742 -0.2220  0.1621 -0.0734
  241MOL0     C33145  -1.277   2.064   0.685  0.3559  0.1665 -0.8409
  241MOL0     C33146  -1.331   2.160   0.601 -0.5065  0.3190  1.2619
  241MOL0     C33147  -1.458   2.134   0.539 -1.0706 -0.7601 -0.3308
  241MOL0     C33148  -1.497   2.218   0.420  0.8265  0.0794  0.7087
  241MOL0     C33149  -1.532   2.022   0.576  0.5004  0.3740 -0.2492
  241MOL0     C33150  -1.676   1.989   0.530 -0.0376 -0.1550 -0.2024
  241MOL0     O33151  -1.728   1.869   0.579 -0.5553 -0.2950 -0.0417
  241MOL0     C33152  -1.824   1.804   0.501  0.2561  0.8413 -0.1049
  241MOL0     C33153  -1.777   1.706   0.411  0.3081 -0.2631  0.1827
  241MOL0     C33154  -1.865   1.615   0.345  0.2058  0.1854  0.7570
  241MOL0     C33155  -2.002   1.612   0.385 -0.1515  0.5185 -0.6798
  241MOL0     O33156  -2.110   1.539   0.337 -0.5339  0.6396  0.4905
  241MOL0     C33157  -2.080   1.420   0.261  0.1195  0.2999  0.2312
  241MOL0     C33158  -2.184   1.408   0.156 -0.0425 -0.7927 -0.4988
  241MOL0     C33159  -2.186   1.269   0.094 -0.1600 -0.8332 -0.5613
  241MOL0     C33160  -2.281   1.265  -0.024  0.6576  0.1447  0.0978
  241MOL0     C33161  -2.426   1.235   0.015  0.1414 -0.1220 -0.8599
  241MOL0     C33162  -2.436   1.093   0.075  0.2586 -0.2994  0.3509
  241MOL0     C33163  -2.587   1.045   0.076 -0.1477 -0.0627  0.4871
  241MOL0     C33164  -2.602   0.934   0.175 -0.8892  0.3167 -0.1519
  241MOL0    Cl33165  -2.568   0.774   0.094 -0.2756 -0.1609 -0.1160
  241MOL0     C33166  -2.052   1.716   0.463  0.2354  0.2499  1.0042
  241MOL0     C33167  -1.961   1.805   0.524 -0.7138  0.3805  0.4513
  241MOL0     O33168  -1.731   2.068   0.456  1.0022  0.7430 -0.0413
  241MOL0     C33169  -1.481   1.941   0.674  0.1330  0.1590  0.0897
  241MOL0     C33170  -1.351   1.949   0.730  0.4230  0.2137  0.2048
  241MOL0     N33171  -0.682   2.217   0.846  0.9375 -0.2954  0.5131
  241MOL0     N33172  -0.597   2.259   0.761  0.0787  0.1158 -0.0597
  241MOL0     C33173   0.251   2.545   0.984 -0.6737 -0.1480  1.0992
  241MOL0     C33174   0.324   2.446   0.914 -0.8188 -0.8225  0.3806
  241MOL0     C33175   0.531   2.149   0.685 -0.7552  0.2694 -0.5310
  241MOL0     C33176   0.516   2.016   0.639 -0.0141  0.8572 -0.5783
  241MOL0     C33177   0.620   1.955   0.574  0.2409 -0.2092  0.0632
  241MOL0     C33178   0.750   2.007   0.569  0.2288 -0.6185 -0.4783
  241MOL0     O33179   0.859   1.952   0.520 -0.6976 -0.0447  0.7875
  241MOL0     C33180   0.873   1.811   0.499 -0.2506 -0.2175 -1.1219
  241MOL0     C33181   1.016   1.765   0.544 -0.7470 -0.3537 -0.6723
  241MOL0     C33182   1.130   1.836   0.461 -0.5467 -0.0382 -0.2588
  241MOL0     C33183   1.136   1.791   0.320  0.0363 -0.4928  0.5476
  241MOL0     C33184   1.272   1.809   0.261  0.6869  0.2986  0.0690
  241MOL0     C33185   1.381   1.835   0.218  0.7091 -0.0787  0.8151
  241MOL0     C33186   0.765   2.134   0.624  0.4467  0.4214  0.8770
  241MOL0     C33187   0.660   2.206   0.684  0.2270 -0.5585 -0.0699
  241MOL0     C33188   0.684   2.343   0.724 -0.1293 -0.3257 -0.3607
  241MOL0     H33189   0.181   2.501   0.602 -5.1862  2.9382  1.1636
  241MOL0     H33190   0.058   2.662   0.733 -0.1958 -1.0598 -1.5634
  241MOL0     H33191   0.108   2.683   1.186  1.1754  0.3512 -0.5623
  241MOL0     H33192   0.003   2.568   1.096  1.2747  0.2446 -1.9845
  241MOL0     H33193  -0.147   2.686   1.242 -0.0083 -0.5262 -0.2596
  241MOL0     H33194  -0.081   2.841   1.214 -0.1128 -1.1689  3.6761
  241MOL0     H33195  -0.294   2.820   1.080 -0.0849  0.2017 -0.6925
  241MOL0     H33196  -0.158   2.846   0.973 -1.6762  0.1274 -0.9173
  241MOL0     H33197  -0.157   2.607   0.924  0.6096 -1.0452  1.3125
  241MOL0     H33198  -0.283   2.577   1.037 -1.6952 -1.0446 -1.5214
  241MOL0     H33199  -0.295   2.729   0.772 -0.9848 -1.2235 -0.7173
  241MOL0     H33200  -0.437   2.744   0.883 -2.3899 -0.9738 -3.5932
  241MOL0     H33201  -0.337   2.480   0.740 -1.0691 -0.0703 -1.1957
  241MOL0     H33202  -0.454   2.488   0.878 -1.5613  3.0036  0.5102
  241MOL0     H33203  -0.469   2.637   0.611  3.5858 -1.4539  0.0695
  241MOL0     H33204  -0.593   2.624   0.746  1.7802 -1.0255  3.7789
  241MOL0     H33205  -0.590   2.478   0.501  3.0555  2.1320 -1.2848
  241MOL0     H33206  -0.473   2.387   0.585 -1.3267 -0.3482  0.8947
  241MOL0     H33207  -0.828   2.491   0.711  1.0932  1.1976  1.5840
  241MOL0     H33208  -1.002   2.314   0.828 -1.1970 -0.3748  0.2452
  241MOL0     H33209  -0.929   2.383   0.971 -1.2732 -2.3981  4.3438
  241MOL0     H33210  -0.856   2.142   1.032 -0.7312 -1.1422  0.0982
  241MOL0     H33211  -1.031   2.168   1.035  2.4195 -2.9551  2.1985
  241MOL0     H33212  -0.885   2.038   0.802  1.3884  4.3910  0.0038
  241MOL0     H33213  -0.931   1.957   0.956 -2.1025 -0.8319 -0.0927
  241MOL0     H33214  -1.088   1.897   0.785 -2.0239  0.0303  0.8700
  241MOL0     H33215  -1.161   1.980   0.925  0.9605  4.8950  1.5551
  241MOL0     H33216  -1.270   2.243   0.569 -1.2443 -0.7669 -3.7081
  241MOL0     H33217  -1.415   2.289   0.406  2.8657 -1.4946  3.5246
  241MOL0     H33218  -1.593   2.268   0.435  1.1161  0.6868  0.5620
  241MOL0     H33219  -1.509   2.161   0.328 -0.0810  0.5880  0.4956
  241MOL0     H33220  -1.670   1.695   0.396  0.3993  1.7194 -1.0519
  241MOL0     H33221  -1.838   1.538   0.274 -3.4909 -2.3853  1.8709
  241MOL0     H33222  -1.985   1.435   0.209 -0.0158 -1.8575 -0.7296
  241MOL0     H33223  -2.071   1.321   0.306 -0.3810 -0.5015 -1.3286
  241MOL0     H33224  -2.279   1.431   0.204  0.6058  0.8691  0.0532
  241MOL0     H33225  -2.166   1.488   0.084 -0.3040 -0.5135 -0.2536
  241MOL0     H33226  -2.213   1.196   0.171 -2.8135  2.0380  1.4783
  241MOL0     H33227  -2.083   1.261   0.056 -0.9120 -0.4288 -2.8139
  241MOL0     H33228  -2.250   1.184  -0.091  0.6659 -0.4871  0.8495
  241MOL0     H33229  -2.279   1.355  -0.085  0.0445 -1.6030 -2.7035
  241MOL0     H33230  -2.456   1.307   0.092  1.0669 -2.8196  2.2484
  241MOL0     H33231  -2.490   1.239  -0.074  1.9010  1.3388 -2.1304
  241MOL0     H33232  -2.411   1.101   0.182  0.7267  1.2737  0.1482
  241MOL0     H33233  -2.380   1.022   0.015 -1.5503  1.2109 -3.4167
  241MOL0     H33234  -2.618   1.019  -0.026  0.7332 -0.3241  0.2799
  241MOL0     H33235  -2.641   1.129   0.120  0.7388  0.8463 -0.1267
  241MOL0     H33236  -2.708   0.934   0.202 -1.3112 -0.4663 -1.7207
  241MOL0     H33237  -2.527   0.940   0.255 -0.7743 -0.5432 -0.1839
  241MOL0     H33238  -2.159   1.707   0.481  0.3459 -2.9841  0.6989
  241MOL0     H33239  -2.004   1.866   0.602 -2.3765  2.9113 -2.2306
  241MOL0     H33240  -1.542   1.866   0.724  0.8475 -1.4881 -1.3945
  241MOL0     H33241  -1.322   1.881   0.809  0.4348 -0.6459 -0.5213
  241MOL0     H33242   0.288   2.560   1.085  4.7520 -2.9262 -0.0700
  241MOL0     H33243   0.403   2.394   0.967  0.3506  0.3429 -0.1538
  241MOL0     H33244   0.422   1.960   0.642  1.0755 -1.3272 -2.9957
  241MOL0     H33245   0.594   1.862   0.524  1.0556 -0.4911  0.1379
  241MOL0     H33246   0.808   1.753   0.566 -2.0447 -2.1136 -4.2663
  241MOL0     H33247   0.843   1.780   0.399 -1.0084 -2.2718 -0.3357
  241MOL0     H33248   1.025   1.657   0.559  0.9622 -0.0226  1.1065
  241MOL0     H33249   1.037   1.802   0.645  0.9997 -0.5086 -0.9418
  241MOL0     H33250   1.111   1.943   0.454 -0.1838 -0.0280 -1.4323
  241MOL0     H33251   1.225   1.818   0.511 -1.6147 -1.5634  1.3254
  241MOL0     H33252   1.071   1.861   0.267  1.8441  2.2383  1.7045
  241MOL0     H33253   1.098   1.689   0.313  0.2823 -0.6269  1.1335
  241MOL0     H33254   1.478   1.873   0.194  0.3636  0.7205  0.6596
  241MOL0     H33255   0.865   2.177   0.623  0.2583  1.1435  3.7686
  241MOL0     H33256   0.760   2.348   0.802 -1.3839 -0.0320  0.8748
  241MOL0     H33257   0.730   2.382   0.632  1.3316 -0.6143  0.2151
  241MOL0     H33258   0.598   2.399   0.761  0.4468 -0.6144  1.4911
  242MOL0     O33259  11.224   2.138   1.177  0.4416  0.8126  0.0305
  242MOL0     C33260  11.256   2.229   1.251 -0.7372 -0.0678  0.0967
  242MOL0     O33261  11.179   2.294   1.341 -0.0089  0.6396  0.1376
  242MOL0     C33262  11.046   2.321   1.321 -0.8313 -0.3163 -0.7044
  242MOL0     C33263  10.964   2.353   1.431  0.4958 -0.6736  0.2341
  242MOL0     C33264  10.821   2.390   1.417 -0.9817 -0.5660  0.1322
  242MOL0     C33265  10.763   2.370   1.287  0.7312 -0.5751 -0.7911
  242MOL0     O33266  10.629   2.397   1.249  0.5524 -0.0799 -0.2397
  242MOL0     C33267  10.530   2.374   1.351  0.2762 -0.2884  0.3286
  242MOL0     C33268  10.395   2.423   1.301 -0.5812 -0.3302 -0.0417
  242MOL0     C33269  10.323   2.316   1.215  0.2033 -0.5238  0.7609
  242MOL0     C33270  10.177   2.357   1.176 -0.4884 -0.1769 -0.8171
  242MOL0     C33271  10.141   2.263   1.062  0.0205  0.6076  0.4382
  242MOL0     C33272  10.009   2.303   0.993  0.3606  0.5001  0.1233
  242MOL0     C33273   9.995   2.205   0.880  0.2716  0.3534 -0.5452
  242MOL0     C33274   9.859   2.234   0.804  0.3569  0.0049  0.3404
  242MOL0     N33275   9.743   2.208   0.886  0.3403 -0.2332 -0.3552
  242MOL0     C33276   9.726   2.082   0.946 -0.3826  0.1055 -0.6299
  242MOL0     C33277   9.612   2.094   1.013 -0.2878 -0.0340  0.0576
  242MOL0     C33278   9.555   1.996   1.118  0.8691  0.3729 -0.6524
  242MOL0     C33279   9.505   1.875   1.045 -0.0000  0.1098 -0.3020
  242MOL0     C33280   9.407   1.792   1.140 -0.4619 -0.2734  0.3402
  242MOL0     C33281   9.363   1.659   1.072  0.1040  0.1105  0.0152
  242MOL0     O33282   9.332   1.679   0.932 -0.7912 -0.4118 -0.2633
  242MOL0     C33283   9.296   1.575   0.852 -0.5391  0.3036 -0.8744
  242MOL0     C33284   9.268   1.448   0.900 -0.0252  0.0591 -0.1926
  242MOL0     C33285   9.225   1.346   0.812 -0.5478 -0.8444  0.0684
  242MOL0     C33286   9.183   1.221   0.874 -0.0593 -0.2279 -0.0807
  242MOL0     C33287   9.222   1.376   0.670  0.9742  0.1978  0.3748
  242MOL0     C33288   9.189   1.270   0.570  0.5511  0.7798  0.3000
  242MOL0     O33289   9.233   1.151   0.607 -0.4393  0.3782  0.1460
  242MOL0     C33290   9.253   1.051   0.515  0.4462  0.1917  0.3606
  242MOL0     C33291   9.160   0.948   0.504 -0.4833 -0.8306  0.0172
  242MOL0     C33292   9.178   0.833   0.419 -0.6754  0.0875  0.5343
  242MOL0     C33293   9.296   0.825   0.343 -0.0043  0.3223 -0.9043
  242MOL0     O33294   9.319   0.734   0.244  0.1632 -0.7439 -0.1813
  242MOL0     C33295   9.236   0.617   0.229 -0.2698 -0.4361  1.2276
  242MOL0     C33296   9.286   0.518   0.330  0.2184 -1.1130 -0.3607
  242MOL0     C33297   9.238   0.369   0.304  0.9897  0.1480  0.8800
  242MOL0     C33298   9.296   0.255   0.388 -0.6921 -1.3345  0.2527
  242MOL0     C33299   9.246   0.121   0.336  0.8839  0.1503 -0.0839
  242MOL0     C33300   9.182   0.042   0.442 -0.5255  0.0123 -0.2291
  242MOL0     C33301   9.062   0.104   0.519  0.3887  0.6492 -0.7620
  242MOL0     C33302   8.936   0.140   0.450  0.5093  0.0706  0.2839
  242MOL0    Cl33303   8.900  -0.015   0.371  0.3464 -0.5221  0.1616
  242MOL0     C33304   9.392   0.924   0.366 -0.0058 -0.1515  0.4496
  242MOL0     C33305   9.374   1.038   0.446  0.1802  0.5438 -0.5944
  242MOL0     O33306   9.128   1.299   0.461 -0.2571  0.3123  0.5591
  242MOL0     C33307   9.256   1.505   0.627 -0.2138  0.5193  0.2055
  242MOL0     C33308   9.277   1.606   0.712 -0.6428  0.3821 -0.7946
  242MOL0     N33309   9.555   2.213   0.987 -0.3467 -0.2320 -0.0940
  242MOL0     N33310   9.631   2.287   0.909  0.5100  0.3577 -0.2931
  242MOL0     C33311  10.850   2.335   1.183 -0.4038  0.8465  0.8186
  242MOL0     C33312  10.986   2.319   1.187  0.2178  0.6262 -0.1859
  242MOL0     C33313  11.390   2.280   1.255  0.3415  0.0467 -1.2053
  242MOL0     C33314  11.449   2.315   1.378 -0.6403 -0.3158 -0.1487
  242MOL0     C33315  11.580   2.343   1.394 -0.4168  0.8689 -0.2806
  242MOL0     C33316  11.672   2.352   1.284  0.3026  0.8757  0.1875
  242MOL0     O33317  11.802   2.396   1.297 -0.4655 -0.5102 -0.3447
  242MOL0     C33318  11.846   2.420   1.430 -0.4767 -0.7172  0.1532
  242MOL0     C33319  11.803   2.562   1.482 -0.1767 -0.2876  0.4077
  242MOL0     C33320  11.873   2.682   1.425  0.6716 -0.7763  0.0289
  242MOL0     C33321  11.811   2.811   1.451  0.2811 -0.1131 -0.1795
  242MOL0     C33322  11.830   2.844   1.595  0.2205  0.3235 -0.4994
  242MOL0     C33323  11.856   2.860   1.716 -0.1205 -0.1984  0.3594
  242MOL0     C33324  11.609   2.334   1.156 -1.3531  0.5081 -0.1187
  242MOL0     C33325  11.472   2.307   1.143 -0.1393 -0.4054 -0.0218
  242MOL0     C33326  11.407   2.306   0.998 -0.7552 -0.3480  0.1995
  242MOL0     H33327  11.016   2.381   1.522  1.7047  6.2913 -2.0048
  242MOL0     H33328  10.760   2.417   1.502 -3.2639 -0.4044 -1.4686
  242MOL0     H33329  10.554   2.433   1.439  0.6568  0.6382 -0.3779
  242MOL0     H33330  10.519   2.270   1.383 -1.5640  0.0341  0.8654
  242MOL0     H33331  10.320   2.462   1.371 -1.9678  0.7564 -2.0250
  242MOL0     H33332  10.411   2.505   1.230 -4.2055  0.2767 -0.3639
  242MOL0     H33333  10.388   2.314   1.127 -0.9807 -0.3853 -0.1494
  242MOL0     H33334  10.315   2.221   1.269 -2.4504  0.7014  2.7477
  242MOL0     H33335  10.100   2.351   1.254 -1.2347  0.4322 -1.4916
  242MOL0     H33336  10.187   2.462   1.147 -0.3796  0.7554  2.2149
  242MOL0     H33337  10.137   2.162   1.102  0.6914  0.1478 -0.6195
  242MOL0     H33338  10.225   2.278   0.993 -0.4171  2.7511  0.2896
  242MOL0     H33339   9.924   2.282   1.059  0.3472 -1.8536 -0.5396
  242MOL0     H33340  10.013   2.406   0.957 -1.2306  0.0134 -1.5839
  242MOL0     H33341  10.002   2.101   0.914 -0.0231  0.9003  1.3241
  242MOL0     H33342  10.083   2.214   0.817 -0.1400  0.9818 -1.0443
  242MOL0     H33343   9.866   2.339   0.772  1.1483 -0.0083  0.4496
  242MOL0     H33344   9.841   2.166   0.720 -0.5396 -1.7055  1.8533
  242MOL0     H33345   9.780   1.989   0.952 -0.8356 -0.1925 -1.1231
  242MOL0     H33346   9.471   2.047   1.165 -1.1544 -2.4961 -0.8735
  242MOL0     H33347   9.634   1.966   1.188  2.3177  1.7275 -1.6428
  242MOL0     H33348   9.446   1.912   0.960  2.2331  0.3979 -1.7940
  242MOL0     H33349   9.579   1.803   1.011 -0.4694  0.1553 -1.4739
  242MOL0     H33350   9.444   1.762   1.238  1.9493  5.2966  1.5422
  242MOL0     H33351   9.323   1.860   1.159  0.1861  0.8953 -0.7540
  242MOL0     H33352   9.439   1.581   1.067 -1.3990 -1.3349 -1.6207
  242MOL0     H33353   9.277   1.619   1.126  0.0942 -0.9177 -0.7538
  242MOL0     H33354   9.258   1.421   1.005 -2.5162 -1.4358 -0.7432
  242MOL0     H33355   9.159   1.223   0.980  0.6406 -1.0370  0.1025
  242MOL0     H33356   9.255   1.141   0.855  0.9326  0.3964  0.9605
  242MOL0     H33357   9.084   1.198   0.832 -1.5653  2.7599  1.4773
  242MOL0     H33358   9.067   0.958   0.559  0.7958 -0.8849  2.3558
  242MOL0     H33359   9.104   0.753   0.417  0.6448 -1.1726 -0.2776
  242MOL0     H33360   9.130   0.637   0.242 -0.6162 -0.0345 -1.7232
  242MOL0     H33361   9.258   0.571   0.133 -0.7216 -0.6018  1.2040
  242MOL0     H33362   9.395   0.513   0.326  0.3018  0.7731 -2.3518
  242MOL0     H33363   9.256   0.548   0.431  2.6521 -3.7721  1.2840
  242MOL0     H33364   9.262   0.344   0.200  1.0118  0.9663  0.6819
  242MOL0     H33365   9.131   0.358   0.320  0.0087  1.7973 -3.2860
  242MOL0     H33366   9.274   0.287   0.490 -1.9004  2.0447 -0.9306
  242MOL0     H33367   9.403   0.275   0.375 -1.0468  1.7611  1.1731
  242MOL0     H33368   9.170   0.124   0.257  1.6171  2.2920 -0.7796
  242MOL0     H33369   9.334   0.065   0.301  0.4650  0.0797 -1.0719
  242MOL0     H33370   9.257   0.023   0.518 -2.9049 -0.4552  2.1565
  242MOL0     H33371   9.155  -0.058   0.406 -0.5311 -0.3676  0.8182
  242MOL0     H33372   9.090   0.193   0.575 -0.6759  0.1196  0.6678
  242MOL0     H33373   9.038   0.030   0.596  1.1936  1.6553  0.4818
  242MOL0     H33374   8.944   0.214   0.370  3.3550  1.0531  1.3540
  242MOL0     H33375   8.854   0.175   0.514 -0.3071  2.9048 -2.0704
  242MOL0     H33376   9.487   0.921   0.314 -0.1767  0.0932  0.1178
  242MOL0     H33377   9.454   1.106   0.474  0.5965 -1.3096  3.5593
  242MOL0     H33378   9.270   1.523   0.521  1.3369 -1.2183  0.0653
  242MOL0     H33379   9.287   1.708   0.678 -3.0145  0.6364 -0.8296
  242MOL0     H33380  10.808   2.321   1.083 -1.3202  1.0541  1.1645
  242MOL0     H33381  11.030   2.291   1.092 -0.5013  1.0307 -0.6480
  242MOL0     H33382  11.393   2.312   1.471 -1.9992 -0.5248 -0.9442
  242MOL0     H33383  11.606   2.372   1.496 -3.2609 -1.7830  1.3854
  242MOL0     H33384  11.813   2.338   1.495 -3.8206 -1.3051 -2.0161
  242MOL0     H33385  11.955   2.418   1.431 -0.4414  0.2865  1.1454
  242MOL0     H33386  11.817   2.567   1.590 -0.4441  1.6266  0.3934
  242MOL0     H33387  11.695   2.571   1.463 -0.1007 -2.2536 -1.2688
  242MOL0     H33388  11.975   2.687   1.464 -0.0657  0.4158  1.9294
  242MOL0     H33389  11.884   2.680   1.316  1.2936  0.5338  0.0457
  242MOL0     H33390  11.713   2.808   1.403 -0.2516  1.3792  0.7560
  242MOL0     H33391  11.852   2.892   1.390  0.0771  0.7836  0.8352
  242MOL0     H33392  11.881   2.888   1.817  2.6648  0.6612 -0.4719
  242MOL0     H33393  11.669   2.348   1.067 -0.2729 -2.6825 -0.0148
  242MOL0     H33394  11.495   2.341   0.943  2.0314 -3.8780  1.9274
  242MOL0     H33395  11.384   2.206   0.958  2.4521 -1.1180 -0.0101
  242MOL0     H33396  11.324   2.376   0.989 -1.0259 -0.8854 -2.4303
  243MOL0     O33397   5.311   0.462   4.793 -0.3806  0.3650  0.3114
  243MOL0     C33398   5.246   0.477   4.688  0.0369 -0.4423 -0.2724
  243MOL0     O33399   5.133   0.541   4.679  0.5744 -0.2131 -0.5576
  243MOL0     C33400   5.094   0.601   4.795  0.8683  0.4735 -0.0603
  243MOL0     C33401   5.064   0.737   4.796  0.2423  0.8933  1.7276
  243MOL0     C33402   5.019   0.797   4.914  0.1057 -0.4994 -0.0326
  243MOL0     C33403   4.990   0.725   5.028  0.1279 -0.5521  0.5168
  243MOL0     O33404   4.920   0.777   5.131  0.2499  0.5179 -0.2154
  243MOL0     C33405   4.839   0.905   5.113 -0.2414 -0.3507 -0.0769
  243MOL0     C33406   4.708   0.873   5.036 -1.1602 -0.1149  0.4883
  243MOL0     C33407   4.603   0.807   5.121  0.1551  0.4562  0.5546
  243MOL0     C33408   4.545   0.894   5.238 -0.8387 -0.3151 -0.9599
  243MOL0     C33409   4.424   0.830   5.301 -0.3007  0.0501 -0.4523
  243MOL0     C33410   4.298   0.850   5.223  0.0668  0.3452 -0.1098
  243MOL0     C33411   4.171   0.838   5.305  0.2862  0.3173 -0.0079
  243MOL0     C33412   4.140   0.697   5.350 -0.4907  0.5636 -0.4251
  243MOL0     N33413   4.134   0.594   5.247  0.2136  1.0692  0.7016
  243MOL0     C33414   4.182   0.460   5.229 -0.3628 -0.0538  0.0639
  243MOL0     C33415   4.178   0.438   5.098 -0.2872  0.0006 -0.3638
  243MOL0     C33416   4.223   0.320   5.014 -0.0500 -1.2548 -0.4548
  243MOL0     C33417   4.360   0.261   5.051 -0.5902 -0.6659  0.3648
  243MOL0     C33418   4.479   0.357   5.030 -0.7444 -0.9881  0.2817
  243MOL0     C33419   4.541   0.417   5.159  0.0259  0.3867  0.3949
  243MOL0     O33420   4.515   0.335   5.275  0.3732 -0.3021  0.3110
  243MOL0     C33421   4.601   0.224   5.304 -0.2719 -0.1261  1.0771
  243MOL0     C33422   4.715   0.179   5.228  0.5900 -0.7629 -0.4910
  243MOL0     C33423   4.781   0.064   5.258 -0.5380  0.0833  0.4070
  243MOL0     C33424   4.895   0.025   5.174  0.2893  0.1386  0.2169
  243MOL0     C33425   4.749  -0.011   5.381 -0.4523 -0.7601  0.6124
  243MOL0     C33426   4.810  -0.148   5.419  1.3713  0.0790  0.0107
  243MOL0     O33427   4.735  -0.222   5.504 -0.2997  0.0054  0.2574
  243MOL0     C33428   4.765  -0.351   5.528 -0.0059 -0.4176  0.0605
  243MOL0     C33429   4.730  -0.393   5.659 -0.4729  0.9141 -0.5429
  243MOL0     C33430   4.742  -0.529   5.697  0.6176  0.4298  0.4454
  243MOL0     C33431   4.794  -0.626   5.604  0.1370 -0.2754 -0.8448
  243MOL0     O33432   4.793  -0.757   5.646  0.9459  0.1781  0.2499
  243MOL0     C33433   4.774  -0.866   5.549 -0.0981 -0.1043 -0.6014
  243MOL0     C33434   4.809  -0.986   5.620  0.1742  0.8453  0.1079
  243MOL0     C33435   4.837  -1.112   5.523  0.8861 -0.3783  0.2702
  243MOL0     C33436   4.847  -1.237   5.619 -0.3628  0.4188 -0.1553
  243MOL0     C33437   4.884  -1.364   5.535  0.3574  0.3124 -0.3324
  243MOL0     C33438   5.022  -1.405   5.528 -0.0106 -0.0282 -0.3827
  243MOL0     C33439   5.027  -1.543   5.454 -1.0236  0.8285  0.0783
  243MOL0     C33440   5.174  -1.606   5.426  0.2711 -0.0552 -0.0874
  243MOL0    Cl33441   5.281  -1.491   5.345  0.0499 -0.0966  0.5077
  243MOL0     C33442   4.809  -0.579   5.475 -0.9675  0.1843  1.1602
  243MOL0     C33443   4.808  -0.447   5.438 -0.7945 -0.2526  0.8810
  243MOL0     O33444   4.927  -0.170   5.380  0.6437 -0.3379 -0.5011
  243MOL0     C33445   4.646   0.040   5.461  0.8188  0.2803 -0.2708
  243MOL0     C33446   4.570   0.154   5.419 -0.1133  0.7296 -0.0208
  243MOL0     N33447   4.116   0.542   5.038  0.6349  0.0127  0.0146
  243MOL0     N33448   4.085   0.634   5.128  0.2333  0.6311 -0.0880
  243MOL0     C33449   5.007   0.589   5.025  0.7783  0.0915  0.5243
  243MOL0     C33450   5.064   0.526   4.909  0.3626  0.8004  0.0567
  243MOL0     C33451   5.262   0.391   4.564 -0.3699 -0.6502  0.1223
  243MOL0     C33452   5.156   0.386   4.470  0.3824  0.1919 -0.2481
  243MOL0     C33453   5.162   0.299   4.362  0.6308 -0.2557 -1.2369
  243MOL0     C33454   5.276   0.238   4.329 -0.5727  0.7600  0.4627
  243MOL0     O33455   5.283   0.173   4.209  1.2145  0.4290 -0.3447
  243MOL0     C33456   5.301   0.027   4.208 -0.6936 -0.4578 -0.1927
  243MOL0     C33457   5.322  -0.035   4.064 -0.2703  0.6414 -0.1423
  243MOL0     C33458   5.468  -0.045   4.021 -0.0061 -0.4179  0.5370
  243MOL0     C33459   5.485  -0.077   3.870  0.0631 -0.3183 -0.3152
  243MOL0     C33460   5.437  -0.207   3.835  0.8596  0.0317 -1.0474
  243MOL0     C33461   5.393  -0.319   3.828  0.1757  0.0557 -0.0346
  243MOL0     C33462   5.384   0.247   4.418 -0.4990 -0.6999  0.9530
  243MOL0     C33463   5.380   0.319   4.541  0.1185 -0.0991 -0.1284
  243MOL0     C33464   5.510   0.325   4.625 -0.6776 -0.2562  0.4794
  243MOL0     H33465   5.067   0.777   4.695  1.4841 -0.5911  1.1333
  243MOL0     H33466   5.009   0.904   4.920  3.4948 -0.1607  2.7615
  243MOL0     H33467   4.896   0.982   5.060 -1.5008  0.1380 -0.7602
  243MOL0     H33468   4.819   0.943   5.214 -0.4170 -0.0092 -0.2351
  243MOL0     H33469   4.659   0.967   5.009  0.1615  0.4255 -0.1143
  243MOL0     H33470   4.733   0.810   4.951  2.4723  1.0129  0.5460
  243MOL0     H33471   4.513   0.793   5.060  1.6036 -0.0330 -1.5761
  243MOL0     H33472   4.638   0.712   5.163 -0.7269 -0.4695 -0.6924
  243MOL0     H33473   4.619   0.902   5.318 -1.6839 -2.7788  0.1979
  243MOL0     H33474   4.522   0.993   5.197 -1.2386  0.2762  0.6388
  243MOL0     H33475   4.407   0.872   5.401 -0.1611  1.6193 -1.0473
  243MOL0     H33476   4.440   0.724   5.319  1.5476  0.7911  3.4660
  243MOL0     H33477   4.293   0.958   5.207 -1.6016 -0.1872 -4.3521
  243MOL0     H33478   4.301   0.795   5.129 -0.7474 -1.1686  0.7075
  243MOL0     H33479   4.085   0.869   5.244  1.0040  0.2554 -1.0781
  243MOL0     H33480   4.182   0.904   5.391  2.0238 -1.4619  1.1967
  243MOL0     H33481   4.222   0.657   5.411 -1.6416 -0.2459  0.6405
  243MOL0     H33482   4.044   0.695   5.402 -1.7091  1.2984 -2.5381
  243MOL0     H33483   4.226   0.395   5.304  1.9257 -2.1233 -2.8570
  243MOL0     H33484   4.232   0.339   4.907 -1.0639 -1.8887 -0.6604
  243MOL0     H33485   4.159   0.236   5.041  2.8569 -2.8374  2.0521
  243MOL0     H33486   4.354   0.221   5.152  0.1808  1.2072  1.2105
  243MOL0     H33487   4.385   0.177   4.986  1.2351  0.3743 -0.3721
  243MOL0     H33488   4.558   0.293   4.990  0.2994 -0.1807  1.0114
  243MOL0     H33489   4.465   0.436   4.955 -2.6037  0.8912  2.4750
  243MOL0     H33490   4.649   0.436   5.156  0.1223 -0.1102 -2.6190
  243MOL0     H33491   4.494   0.515   5.168  2.3968  1.8983 -2.1815
  243MOL0     H33492   4.739   0.234   5.138  0.4939 -2.7367 -1.7765
  243MOL0     H33493   4.878  -0.066   5.116 -0.3979 -0.1902  0.9205
  243MOL0     H33494   4.979  -0.002   5.239 -1.6203 -2.7072  1.7060
  243MOL0     H33495   4.919   0.111   5.110  4.8820 -0.2630  1.0384
  243MOL0     H33496   4.701  -0.304   5.713 -2.3849  0.3850 -0.6291
  243MOL0     H33497   4.720  -0.559   5.799  0.7462 -3.9551 -0.6172
  243MOL0     H33498   4.672  -0.884   5.514 -0.3413 -0.8303  0.4417
  243MOL0     H33499   4.840  -0.859   5.461  2.3302  1.8553  1.2268
  243MOL0     H33500   4.903  -0.968   5.673  2.3305 -0.2152 -3.0775
  243MOL0     H33501   4.732  -1.011   5.694 -0.2290 -1.0693 -0.8915
  243MOL0     H33502   4.929  -1.085   5.471  0.2528  1.5681  0.0985
  243MOL0     H33503   4.757  -1.130   5.451  1.5429 -3.1794  0.1110
  243MOL0     H33504   4.746  -1.242   5.662 -1.6104  2.4221 -2.6228
  243MOL0     H33505   4.918  -1.207   5.697  0.9005  3.5908 -2.3771
  243MOL0     H33506   4.834  -1.441   5.595  1.7908  1.3545  2.4021
  243MOL0     H33507   4.846  -1.366   5.433  0.0929 -1.6585 -0.2336
  243MOL0     H33508   5.059  -1.435   5.626  1.4765 -0.6288 -1.0964
  243MOL0     H33509   5.099  -1.337   5.491  0.1441  0.4030  0.7208
  243MOL0     H33510   4.994  -1.513   5.354  2.3525  0.3016 -1.3498
  243MOL0     H33511   4.962  -1.620   5.496  1.7463 -2.6656 -1.5513
  243MOL0     H33512   5.166  -1.691   5.357  2.2840 -2.2753  2.2379
  243MOL0     H33513   5.217  -1.644   5.519  0.0160  2.6567  1.2410
  243MOL0     H33514   4.846  -0.646   5.398  5.7206  3.5053  0.7528
  243MOL0     H33515   4.831  -0.423   5.335 -0.9317 -0.1179  0.8820
  243MOL0     H33516   4.616  -0.012   5.551  0.7225 -2.5997 -1.8392
  243MOL0     H33517   4.488   0.180   5.486  0.2163 -1.1724  1.2157
  243MOL0     H33518   4.983   0.541   5.119 -0.7574  0.8760  0.5659
  243MOL0     H33519   5.085   0.419   4.913  3.2003  1.2296 -1.0150
  243MOL0     H33520   5.058   0.430   4.484  1.3951  3.0608 -1.3245
  243MOL0     H33521   5.077   0.294   4.294  1.6230  0.8541 -2.6252
  243MOL0     H33522   5.390   0.001   4.265 -1.4000 -2.0964  0.2176
  243MOL0     H33523   5.225  -0.035   4.257 -1.4666 -0.7200 -1.6626
  243MOL0     H33524   5.255   0.009   3.990 -1.4862 -2.2597 -0.9044
  243MOL0     H33525   5.289  -0.139   4.061  2.2127 -0.1932 -2.6318
  243MOL0     H33526   5.525   0.039   4.062  2.5857 -3.5344  4.0594
  243MOL0     H33527   5.516  -0.135   4.061  0.9074 -0.3981 -0.4560
  243MOL0     H33528   5.585  -0.068   3.827  0.3594 -1.2771  0.1412
  243MOL0     H33529   5.436   0.004   3.815  1.1217 -0.1287 -1.0135
  243MOL0     H33530   5.336  -0.410   3.816  1.3094 -0.6986  0.1449
  243MOL0     H33531   5.479   0.198   4.399 -0.2628  0.2297 -0.4180
  243MOL0     H33532   5.553   0.226   4.645 -0.5905  0.0032  1.6398
  243MOL0     H33533   5.585   0.382   4.570 -1.0983 -0.4323 -0.2796
  243MOL0     H33534   5.491   0.368   4.724 -1.9982 -0.8947  0.5309
  244MOL0     O33535   8.412   6.349   8.276 -0.6067 -0.4932  0.1027
  244MOL0     C33536   8.526   6.364   8.326 -0.4745  0.0712  0.7485
  244MOL0     O33537   8.594   6.487   8.334 -0.0198 -0.0637  0.0534
  244MOL0     C33538   8.550   6.601   8.274  0.2712  0.3069  0.3359
  244MOL0     C33539   8.621   6.652   8.170  0.5627 -0.7064 -0.9023
  244MOL0     C33540   8.564   6.763   8.107  0.2978  0.4835  0.2769
  244MOL0     C33541   8.434   6.810   8.127 -0.6886  0.2019 -0.0045
  244MOL0     O33542   8.385   6.926   8.061  0.0722  0.0851 -0.1628
  244MOL0     C33543   8.476   7.024   8.006 -0.7067  0.2253  0.7439
  244MOL0     C33544   8.384   7.137   7.958 -0.3115  0.7500 -0.4820
  244MOL0     C33545   8.451   7.246   7.873  0.7544 -0.4920  0.0523
  244MOL0     C33546   8.369   7.284   7.748 -0.1631  0.0452 -0.2270
  244MOL0     C33547   8.245   7.370   7.775  0.3858  0.2546  0.0021
  244MOL0     C33548   8.193   7.448   7.655  0.5322  0.5717 -0.0533
  244MOL0     C33549   8.114   7.576   7.697 -0.2510 -0.1777  0.0920
  244MOL0     C33550   8.196   7.689   7.756 -0.1683 -0.4355  0.4784
  244MOL0     N33551   8.311   7.730   7.672  0.1080 -0.3519 -0.0113
  244MOL0     C33552   8.429   7.793   7.704  0.0585  0.3558 -0.4399
  244MOL0     C33553   8.480   7.833   7.585 -0.4055  0.1774  0.7416
  244MOL0     C33554   8.618   7.910   7.582 -0.0376 -0.2720 -0.0463
  244MOL0     C33555   8.733   7.837   7.511  0.8096 -0.4645  0.7466
  244MOL0     C33556   8.865   7.903   7.542  0.4940  0.8074 -0.3722
  244MOL0     C33557   8.992   7.822   7.499  0.5577  0.4567 -0.2433
  244MOL0     O33558   9.031   7.849   7.370  0.1410  0.1187  0.3387
  244MOL0     C33559   9.145   7.797   7.311  0.0989 -0.0377  0.3834
  244MOL0     C33560   9.176   7.837   7.180 -0.0879 -0.5718  0.5729
  244MOL0     C33561   9.282   7.779   7.107  0.2606  0.7461 -0.1799
  244MOL0     C33562   9.323   7.842   6.971 -0.8675 -0.4816  0.0029
  244MOL0     C33563   9.350   7.666   7.177 -0.1166 -0.8354 -0.5609
  244MOL0     C33564   9.466   7.601   7.127  0.0051 -0.0324  0.6350
  244MOL0     O33565   9.554   7.544   7.219 -0.7512  0.0262 -0.5764
  244MOL0     C33566   9.677   7.500   7.181 -0.1030  0.1932 -0.1853
  244MOL0     C33567   9.760   7.587   7.111 -0.4357  0.4938  0.2368
  244MOL0     C33568   9.893   7.558   7.093 -0.5481 -0.1731  0.1429
  244MOL0     C33569   9.929   7.424   7.130 -0.0928 -0.1528 -0.7689
  244MOL0     O33570  10.063   7.401   7.123  0.2272  0.0437  0.1770
  244MOL0     C33571  10.124   7.332   7.012 -0.3498  0.1469  0.5887
  244MOL0     C33572  10.039   7.334   6.878  0.8797 -0.1990  0.6740
  244MOL0     C33573  10.121   7.293   6.749  0.7534  0.0679  0.0791
  244MOL0     C33574  10.182   7.156   6.769 -0.5477 -0.7535  0.0685
  244MOL0     C33575  10.246   7.104   6.639 -0.5478 -0.3591  0.3713
  244MOL0     C33576  10.156   7.061   6.522  0.1919  0.2311  0.8672
  244MOL0     C33577  10.225   6.945   6.427  0.3974 -0.4753 -0.6039
  244MOL0     C33578  10.300   7.013   6.320 -0.4925 -0.3585 -0.7678
  244MOL0    Cl33579  10.471   7.044   6.387 -0.4136 -0.2122  0.0925
  244MOL0     C33580   9.847   7.331   7.193 -0.1059 -0.8689 -0.9259
  244MOL0     C33581   9.719   7.371   7.212  0.6609 -0.1916  0.3871
  244MOL0     O33582   9.471   7.595   7.001 -0.1358 -0.0395 -0.7699
  244MOL0     C33583   9.300   7.619   7.299 -0.0962  0.4517  0.6472
  244MOL0     C33584   9.203   7.681   7.365 -0.3943 -0.3736 -0.5850
  244MOL0     N33585   8.401   7.781   7.492  0.2471 -0.0506  0.2927
  244MOL0     N33586   8.297   7.729   7.543  0.3926 -0.0357  0.4622
  244MOL0     C33587   8.360   6.758   8.236  0.5946  0.1712  1.2704
  244MOL0     C33588   8.423   6.658   8.309 -0.3733 -0.1690 -1.0963
  244MOL0     C33589   8.584   6.241   8.399 -0.0158 -0.7787  0.5311
  244MOL0     C33590   8.719   6.251   8.435  0.2282  0.7847  0.9173
  244MOL0     C33591   8.781   6.134   8.496  0.1249 -0.1885  0.2660
  244MOL0     C33592   8.710   6.024   8.523 -0.1533  0.1016  1.0174
  244MOL0     O33593   8.760   5.903   8.573 -0.5377  0.1234  0.5599
  244MOL0     C33594   8.888   5.908   8.646 -0.8789 -0.1288 -0.3703
  244MOL0     C33595   9.000   5.829   8.592 -0.0698  0.6731  0.9228
  244MOL0     C33596   9.099   5.782   8.698  0.9552 -0.2857  0.8774
  244MOL0     C33597   9.176   5.676   8.624  0.1900  0.1334  1.0100
  244MOL0     C33598   9.287   5.646   8.706 -0.8409  0.3416 -0.9813
  244MOL0     C33599   9.385   5.622   8.781 -0.3869 -0.5801 -0.0735
  244MOL0     C33600   8.582   6.017   8.479  0.4003  0.3996  0.9508
  244MOL0     C33601   8.516   6.125   8.420 -1.1315  0.1181 -0.8882
  244MOL0     C33602   8.368   6.091   8.394 -1.0107 -0.1216  0.6603
  244MOL0     H33603   8.714   6.600   8.148  0.6928 -0.0552 -1.9532
  244MOL0     H33604   8.621   6.797   8.021 -1.9654  1.1840 -1.0655
  244MOL0     H33605   8.535   6.999   7.918 -1.9992  1.3208 -0.4958
  244MOL0     H33606   8.545   7.065   8.080  1.2175  4.0312 -2.7394
  244MOL0     H33607   8.300   7.089   7.906 -1.1141  2.1860 -0.5592
  244MOL0     H33608   8.341   7.177   8.050  1.1324  0.1296  0.5107
  244MOL0     H33609   8.467   7.337   7.931  0.1420  0.0958 -0.6818
  244MOL0     H33610   8.555   7.216   7.851  1.5883  0.1087  2.7530
  244MOL0     H33611   8.436   7.344   7.686  2.3815  0.5165  2.7274
  244MOL0     H33612   8.336   7.199   7.688 -1.7575  0.6637 -0.2810
  244MOL0     H33613   8.271   7.441   7.854 -2.4175  2.5227 -0.9430
  244MOL0     H33614   8.171   7.300   7.815 -1.5402  1.1535 -1.8112
  244MOL0     H33615   8.270   7.475   7.583  0.6992 -0.3946 -0.2521
  244MOL0     H33616   8.122   7.383   7.603 -0.4855  0.3681  1.5343
  244MOL0     H33617   8.039   7.543   7.770 -1.0256  2.0934  0.4318
  244MOL0     H33618   8.053   7.612   7.614 -0.3418  1.5953  0.8755
  244MOL0     H33619   8.136   7.778   7.773  0.2919 -0.0505  0.1249
  244MOL0     H33620   8.231   7.645   7.850  0.1765 -0.7383  0.2157
  244MOL0     H33621   8.465   7.810   7.805  2.6870 -1.0778 -1.0537
  244MOL0     H33622   8.657   7.926   7.683  1.9202 -2.5045 -0.3703
  244MOL0     H33623   8.607   8.003   7.525  0.8407 -1.8830 -3.0487
  244MOL0     H33624   8.736   7.732   7.541  1.5825 -0.6902 -0.0753
  244MOL0     H33625   8.724   7.840   7.402  4.2786 -0.2852  0.3774
  244MOL0     H33626   8.874   7.996   7.484  1.6100 -0.8932 -3.1334
  244MOL0     H33627   8.887   7.930   7.646 -0.3062 -0.0223  0.0308
  244MOL0     H33628   9.069   7.847   7.572 -1.8317  4.2740  1.2936
  244MOL0     H33629   8.976   7.714   7.505  0.8640  0.3720 -0.8930
  244MOL0     H33630   9.117   7.914   7.131  3.0922  0.6687 -1.6877
  244MOL0     H33631   9.364   7.778   6.892  0.4606  1.8393 -1.3125
  244MOL0     H33632   9.406   7.913   6.981 -1.0319 -0.4787  1.4259
  244MOL0     H33633   9.239   7.905   6.938 -1.0956  0.3589  2.0702
  244MOL0     H33634   9.720   7.685   7.090  2.5737  2.2063  1.8488
  244MOL0     H33635   9.962   7.636   7.064  3.3611 -3.4279 -0.2602
  244MOL0     H33636  10.227   7.368   6.997 -0.1591 -1.2860 -2.2385
  244MOL0     H33637  10.133   7.229   7.046  1.2810  0.6714  1.9158
  244MOL0     H33638   9.956   7.268   6.905  0.4845  0.5153  1.2211
  244MOL0     H33639   9.995   7.432   6.857 -0.3008 -0.8240  0.1349
  244MOL0     H33640  10.191   7.375   6.730 -0.7549  2.1845  2.9074
  244MOL0     H33641  10.058   7.292   6.659  2.1113 -1.4028 -0.9093
  244MOL0     H33642  10.106   7.083   6.799 -0.6391 -0.1659  1.3305
  244MOL0     H33643  10.260   7.158   6.845  1.6463 -1.8609 -2.0328
  244MOL0     H33644  10.304   7.187   6.598 -0.4537  0.1179  1.4325
  244MOL0     H33645  10.309   7.017   6.659  0.4279  0.0218 -0.8864
  244MOL0     H33646  10.121   7.141   6.457 -1.1245 -1.1092 -0.1456
  244MOL0     H33647  10.071   7.009   6.566 -1.3867  0.4985 -1.6728
  244MOL0     H33648  10.148   6.881   6.385  0.1826 -1.0065  0.5465
  244MOL0     H33649  10.296   6.887   6.487  0.6207  0.6758  0.2929
  244MOL0     H33650  10.252   7.107   6.291 -0.9920 -0.1986  0.5515
  244MOL0     H33651  10.305   6.954   6.228 -0.1062 -0.9671 -0.3670
  244MOL0     H33652   9.867   7.227   7.218 -0.5931 -0.9010 -0.6560
  244MOL0     H33653   9.647   7.298   7.247  0.2653 -0.2075 -0.4228
  244MOL0     H33654   9.352   7.530   7.332 -3.2432 -1.4793  0.7210
  244MOL0     H33655   9.178   7.633   7.459 -2.1823  0.0191 -0.8214
  244MOL0     H33656   8.259   6.798   8.238  1.9896  4.1839  0.2157
  244MOL0     H33657   8.360   6.605   8.381 -0.6663  0.3016 -1.0046
  244MOL0     H33658   8.781   6.340   8.431  4.0102 -1.6714 -2.1414
  244MOL0     H33659   8.887   6.143   8.519 -0.0975  0.0189  1.2757
  244MOL0     H33660   8.917   6.010   8.674 -0.3762 -0.2120 -0.5700
  244MOL0     H33661   8.871   5.876   8.749 -4.0850  0.0422 -0.7672
  244MOL0     H33662   9.062   5.877   8.516  3.2923 -1.9398  1.7578
  244MOL0     H33663   8.951   5.739   8.554  3.1454 -0.3985 -1.0667
  244MOL0     H33664   9.163   5.862   8.734 -1.0300  2.0707 -0.5106
  244MOL0     H33665   9.042   5.738   8.780 -3.0766 -0.1836 -1.5871
  244MOL0     H33666   9.214   5.706   8.526 -0.4749  1.0003  0.9995
  244MOL0     H33667   9.126   5.581   8.606  1.1298  0.3983 -5.0649
  244MOL0     H33668   9.469   5.595   8.841  0.3938  1.3842 -0.2205
  244MOL0     H33669   8.525   5.924   8.470 -0.7653  1.1823 -0.1188
  244MOL0     H33670   8.336   6.004   8.453 -0.2331  0.4835  2.0014
  244MOL0     H33671   8.293   6.170   8.396 -0.5358  0.4132 -1.0886
  244MOL0     H33672   8.368   6.056   8.290 -1.0778 -1.1455  0.9870
  245MOL0     O33673   4.043   9.506   9.669 -0.0108  0.2338  0.2909
  245MOL0     C33674   4.042   9.568   9.778 -0.9075 -0.5235  0.1184
  245MOL0     O33675   3.979   9.528   9.892 -0.2898  0.7538 -0.2251
  245MOL0     C33676   3.919   9.404   9.888  0.0404  0.3320 -0.2572
  245MOL0     C33677   3.800   9.386   9.824  0.0155 -0.7262  0.9792
  245MOL0     C33678   3.728   9.271   9.821  0.6870  0.8830 -0.0763
  245MOL0     C33679   3.780   9.163   9.897  0.5770  1.0687 -0.0710
  245MOL0     O33680   3.727   9.036   9.916  0.2466 -0.1034 -0.7437
  245MOL0     C33681   3.657   8.989   9.807  0.6099 -0.0072  0.2800
  245MOL0     C33682   3.583   8.863   9.852  0.3736  0.8307 -0.9113
  245MOL0     C33683   3.668   8.775   9.944 -0.0380  0.4090  0.3558
  245MOL0     C33684   3.600   8.644   9.948 -0.1477 -0.2296  0.3294
  245MOL0     C33685   3.447   8.626   9.976 -0.0237  0.2459  1.0423
  245MOL0     C33686   3.407   8.680  10.115  0.0694  0.0736  0.0570
  245MOL0     C33687   3.257   8.676  10.135 -1.2372  0.0284 -0.2888
  245MOL0     C33688   3.217   8.715  10.271  0.3753 -0.1219 -1.3151
  245MOL0     N33689   3.075   8.745  10.293  1.0658 -0.4937 -0.0511
  245MOL0     C33690   3.003   8.862  10.255 -0.5645  0.4819 -0.4978
  245MOL0     C33691   2.875   8.832  10.286 -0.1316 -0.1751  0.2716
  245MOL0     C33692   2.764   8.922  10.312 -0.1781 -0.3289  1.6195
  245MOL0     C33693   2.713   9.001  10.183  0.1035  0.7576 -0.6722
  245MOL0     C33694   2.679   8.906  10.068  0.6638 -0.5330 -0.1817
  245MOL0     C33695   2.651   8.986   9.932 -0.0147 -0.1763 -0.9307
  245MOL0     O33696   2.565   9.100   9.961 -0.0566  0.2228 -0.3474
  245MOL0     C33697   2.490   9.161   9.867 -0.7339  0.0876  0.8827
  245MOL0     C33698   2.399   9.256   9.914 -0.2029 -0.8102 -0.7646
  245MOL0     C33699   2.318   9.331   9.821  0.2637 -0.1819  0.5732
  245MOL0     C33700   2.223   9.427   9.886  0.1134  0.4898  0.9463
  245MOL0     C33701   2.346   9.309   9.683 -0.3499  0.6814  0.0837
  245MOL0     C33702   2.272   9.391   9.583 -0.9076 -0.5707 -0.0408
  245MOL0     O33703   2.283   9.340   9.456  0.5865 -0.1479 -0.5205
  245MOL0     C33704   2.222   9.398   9.351 -0.8449 -0.3476 -0.8478
  245MOL0     C33705   2.190   9.537   9.336 -0.8077  0.6034 -0.2229
  245MOL0     C33706   2.120   9.578   9.220  0.2595  0.3082 -0.4435
  245MOL0     C33707   2.091   9.496   9.108  0.0362 -0.7035 -0.6851
  245MOL0     O33708   2.010   9.530   8.999  0.0566 -1.3053  0.0204
  245MOL0     C33709   2.031   9.660   8.934 -0.1890  0.2732  0.8832
  245MOL0     C33710   1.944   9.647   8.807 -0.6431  0.2803  0.1209
  245MOL0     C33711   2.037   9.585   8.693 -0.1777  0.7024  0.0154
  245MOL0     C33712   1.973   9.517   8.578  1.0949  0.2455  0.5577
  245MOL0     C33713   1.919   9.619   8.472  0.2611  0.2284  0.7033
  245MOL0     C33714   1.854   9.551   8.357  0.6157  0.9177  0.3592
  245MOL0     C33715   1.829   9.655   8.252  0.6799 -0.7561 -0.4087
  245MOL0     C33716   1.780   9.582   8.122  0.8238 -0.9720 -0.6480
  245MOL0    Cl33717   1.879   9.448   8.056 -0.0984 -0.1567 -0.0864
  245MOL0     C33718   2.124   9.364   9.127 -0.0101  0.0911  0.1899
  245MOL0     C33719   2.186   9.319   9.239  0.7135  0.1167  0.2558
  245MOL0     O33720   2.204   9.492   9.611  0.0992 -0.6400 -0.3696
  245MOL0     C33721   2.438   9.209   9.645 -0.3240  0.3848  0.2566
  245MOL0     C33722   2.512   9.133   9.735  0.0546 -0.6010 -0.4167
  245MOL0     N33723   2.876   8.706  10.338  0.3992  0.4859  1.2084
  245MOL0     N33724   2.988   8.655  10.335 -0.4854 -1.0944 -0.0536
  245MOL0     C33725   3.898   9.176   9.966  0.1933  0.4205  0.5093
  245MOL0     C33726   3.970   9.296   9.959  0.0923  0.1769  0.2707
  245MOL0     C33727   4.122   9.692   9.797 -0.2755 -0.5607 -0.5267
  245MOL0     C33728   4.163   9.736   9.927  0.7471  0.3820 -0.5542
  245MOL0     C33729   4.217   9.853   9.947 -0.0581 -0.1678 -0.1549
  245MOL0     C33730   4.248   9.938   9.840  0.6368  0.3459 -0.2887
  245MOL0     O33731   4.315  10.054   9.851  0.8705 -0.7976  0.6934
  245MOL0     C33732   4.403  10.077   9.962 -0.1787  0.2709  0.1905
  245MOL0     C33733   4.513  10.171   9.907  0.7879  0.0278 -0.5130
  245MOL0     C33734   4.581  10.117   9.776  0.8061 -0.0793 -0.2075
  245MOL0     C33735   4.732  10.140   9.759 -0.0401 -0.1544 -0.0098
  245MOL0     C33736   4.799  10.026   9.703 -0.6330  0.7956 -0.9621
  245MOL0     C33737   4.851   9.924   9.658  0.5956 -0.0827  0.0154
  245MOL0     C33738   4.212   9.913   9.718  1.0684  0.6908  1.0990
  245MOL0     C33739   4.160   9.782   9.693  0.4545 -0.3083 -0.4719
  245MOL0     C33740   4.152   9.756   9.546 -0.7979 -0.4898 -0.4525
  245MOL0     H33741   3.756   9.464   9.762  0.1298 -2.6933 -1.7021
  245MOL0     H33742   3.633   9.259   9.771  1.1908 -0.2414 -0.8036
  245MOL0     H33743   3.732   8.957   9.733  0.8942  1.3353 -0.0290
  245MOL0     H33744   3.582   9.057   9.766 -1.2022 -2.0135  0.0770
  245MOL0     H33745   3.494   8.888   9.911  1.4762 -2.1146  2.3608
  245MOL0     H33746   3.558   8.810   9.759  0.9498  1.2147 -1.2876
  245MOL0     H33747   3.767   8.773   9.898 -0.7683  0.8798 -1.3351
  245MOL0     H33748   3.679   8.826  10.040  1.2593 -2.3482  1.7676
  245MOL0     H33749   3.613   8.607   9.846 -0.3702  0.5135  0.0216
  245MOL0     H33750   3.652   8.583  10.022  0.7662 -0.3440 -0.3859
  245MOL0     H33751   3.427   8.519   9.969  0.4462  0.1716  0.7888
  245MOL0     H33752   3.395   8.671   9.891  0.9367  2.1012  1.3896
  245MOL0     H33753   3.451   8.617  10.193  1.2742 -1.7124 -1.9454
  245MOL0     H33754   3.449   8.780  10.132  0.0125  0.0305  0.4546
  245MOL0     H33755   3.222   8.574  10.116  1.8775 -1.3438  0.6843
  245MOL0     H33756   3.217   8.746  10.061  2.1690 -1.5435 -4.0127
  245MOL0     H33757   3.244   8.631  10.336  4.5067  0.3971 -2.0717
  245MOL0     H33758   3.283   8.795  10.307  0.8399 -1.5250  1.1433
  245MOL0     H33759   3.041   8.955  10.213 -1.2038  0.8330 -0.3164
  245MOL0     H33760   2.788   8.999  10.386 -1.3638  3.0009 -1.1551
  245MOL0     H33761   2.676   8.867  10.347 -1.9994  0.9487 -0.6050
  245MOL0     H33762   2.634   9.063  10.225 -0.7720  0.1603 -1.4131
  245MOL0     H33763   2.787   9.076  10.154  1.6521 -0.4289  0.0015
  245MOL0     H33764   2.770   8.849  10.046  0.5819 -0.2989 -1.1980
  245MOL0     H33765   2.595   8.842  10.094 -0.9369  1.7460  0.6151
  245MOL0     H33766   2.742   9.018   9.881  0.1017 -0.5721 -0.9731
  245MOL0     H33767   2.606   8.921   9.857 -0.3014 -2.6161  1.2188
  245MOL0     H33768   2.394   9.280  10.019  0.6977 -0.5275 -0.7731
  245MOL0     H33769   2.271   9.524   9.867  0.6971 -0.0619 -0.5801
  245MOL0     H33770   2.211   9.416   9.994 -2.6085  0.2527  0.6915
  245MOL0     H33771   2.120   9.426   9.849  0.4299  0.3524  0.0469
  245MOL0     H33772   2.212   9.602   9.420  0.3327 -1.4184  1.1204
  245MOL0     H33773   2.092   9.683   9.211 -1.7548 -0.0272  1.0807
  245MOL0     H33774   1.996   9.743   8.996 -1.0485  0.7128 -0.1534
  245MOL0     H33775   2.133   9.679   8.898 -2.2133  2.2765 -4.9211
  245MOL0     H33776   1.850   9.593   8.824 -1.5516  2.0576  1.0030
  245MOL0     H33777   1.921   9.750   8.777 -0.2496 -0.0625 -1.3910
  245MOL0     H33778   2.105   9.514   8.741  2.1897  1.2197 -2.2711
  245MOL0     H33779   2.108   9.663   8.661  1.9520 -0.8397  0.7169
  245MOL0     H33780   1.882   9.459   8.596  0.1087  0.3047 -3.4279
  245MOL0     H33781   2.046   9.463   8.517 -0.7558  1.1589 -2.6957
  245MOL0     H33782   1.841   9.676   8.523 -3.7768 -5.4679  1.8338
  245MOL0     H33783   2.007   9.667   8.428 -1.1145  0.2795 -2.2723
  245MOL0     H33784   1.761   9.503   8.389  1.1687 -1.1628 -0.8925
  245MOL0     H33785   1.910   9.467   8.313 -2.1284 -0.8174 -0.0782
  245MOL0     H33786   1.902   9.736   8.242 -0.1819  0.5378  2.7920
  245MOL0     H33787   1.750   9.721   8.288  1.5265  0.3565 -0.5074
  245MOL0     H33788   1.763   9.655   8.043  1.5678 -1.6815 -1.4905
  245MOL0     H33789   1.683   9.545   8.155  1.4718 -0.4254  2.1185
  245MOL0     H33790   2.101   9.297   9.045 -0.7162  0.6840 -0.1143
  245MOL0     H33791   2.232   9.221   9.225  0.4057 -0.0478  0.3763
  245MOL0     H33792   2.445   9.191   9.538  0.1279  1.6522  0.0624
  245MOL0     H33793   2.594   9.075   9.693  1.5959  2.0257 -1.2218
  245MOL0     H33794   3.929   9.084  10.014 -0.9380 -1.2866 -1.8274
  245MOL0     H33795   4.055   9.308  10.026 -1.7558  1.8911  2.4836
  245MOL0     H33796   4.123   9.687  10.015 -4.4003  0.4245 -2.5384
  245MOL0     H33797   4.250   9.893  10.043  2.2986  0.1416 -1.0224
  245MOL0     H33798   4.346  10.133  10.037 -0.7200  1.6938 -1.2440
  245MOL0     H33799   4.439   9.985  10.010 -1.6061 -0.1637  0.4853
  245MOL0     H33800   4.584  10.204   9.982  0.5592 -0.2018 -0.1933
  245MOL0     H33801   4.460  10.260   9.870  1.4242  0.8424  0.5152
  245MOL0     H33802   4.558  10.013   9.754 -1.4614 -0.4994  3.2884
  245MOL0     H33803   4.531  10.164   9.691 -0.4055 -1.5617 -0.3588
  245MOL0     H33804   4.779  10.144   9.858 -2.2608 -1.0737  1.1575
  245MOL0     H33805   4.738  10.232   9.701 -1.2003  0.3880  0.6932
  245MOL0     H33806   4.892   9.835   9.615 -0.0880 -0.9416  1.0837
  245MOL0     H33807   4.225   9.979   9.633 -1.8101 -0.6302 -0.5027
  245MOL0     H33808   4.193   9.829   9.476  0.0642 -0.8539 -0.3336
  245MOL0     H33809   4.208   9.667   9.518 -1.0717  0.3959 -4.2598
  245MOL0     H33810   4.044   9.744   9.530 -1.0962 -1.5165  1.8420
  246MOL0     O33811   5.124   4.538   8.636  0.7029 -0.2739  0.2841
  246MOL0     C33812   5.159   4.610   8.541 -0.1289 -0.2718  0.1668
  246MOL0     O33813   5.149   4.750   8.531 -0.5373 -0.2794  0.3695
  246MOL0     C33814   5.059   4.822   8.601 -0.4848  0.9844 -0.3925
  246MOL0     C33815   5.094   4.957   8.624  0.4715 -0.1748 -0.2350
  246MOL0     C33816   5.031   5.040   8.714 -0.4977  1.0042  0.4461
  246MOL0     C33817   4.937   4.981   8.801 -0.2706  0.1452 -0.0208
  246MOL0     O33818   4.893   5.076   8.891 -0.3163  0.1714 -0.1163
  246MOL0     C33819   4.756   5.106   8.896 -0.1806 -0.5629  0.2888
  246MOL0     C33820   4.692   5.170   8.762 -0.7587  0.0160 -0.5551
  246MOL0     C33821   4.545   5.121   8.740 -0.3333 -0.2376  0.0449
  246MOL0     C33822   4.533   4.974   8.685 -0.3303  0.4037 -0.6590
  246MOL0     C33823   4.392   4.935   8.659  0.6726  0.0983 -0.4502
  246MOL0     C33824   4.289   4.949   8.776 -0.2024 -0.8812  0.0162
  246MOL0     C33825   4.159   4.861   8.757  0.1837 -0.9743  0.3177
  246MOL0     C33826   4.097   4.894   8.619 -0.3737 -0.3616  0.2026
  246MOL0     N33827   3.959   4.836   8.602 -0.1179  0.6789 -0.1182
  246MOL0     C33828   3.879   4.767   8.688  0.4425 -0.1969  0.2232
  246MOL0     C33829   3.781   4.707   8.613 -0.5357  0.2086 -0.5501
  246MOL0     C33830   3.673   4.605   8.660 -0.1626 -1.0018 -0.2616
  246MOL0     C33831   3.548   4.638   8.575  1.2272 -0.6086 -0.2971
  246MOL0     C33832   3.485   4.777   8.584 -0.1804 -0.5736 -0.9610
  246MOL0     C33833   3.370   4.795   8.487  0.5372  0.6899 -0.2723
  246MOL0     O33834   3.336   4.932   8.461 -0.1475  0.6043 -0.6832
  246MOL0     C33835   3.245   4.961   8.361 -0.7132 -0.1102  0.9238
  246MOL0     C33836   3.273   5.051   8.256  0.2219  0.0796  0.4701
  246MOL0     C33837   3.174   5.095   8.172  0.8274  0.2986 -0.2344
  246MOL0     C33838   3.208   5.205   8.077 -0.0373 -0.0521  0.4083
  246MOL0     C33839   3.038   5.058   8.192 -0.9983 -0.0952 -0.2479
  246MOL0     C33840   2.918   5.114   8.119  0.2485  0.8030 -0.2876
  246MOL0     O33841   2.811   5.025   8.128 -0.7579  0.1037 -0.6256
  246MOL0     C33842   2.684   5.063   8.092  0.4354  1.0324 -0.2306
  246MOL0     C33843   2.591   5.056   8.192 -0.6315  0.1827 -0.2820
  246MOL0     C33844   2.462   5.095   8.178 -0.1563 -0.2192  0.1305
  246MOL0     C33845   2.422   5.148   8.046  0.2004 -0.1692 -0.4782
  246MOL0     O33846   2.311   5.221   8.026  0.3144  0.6130  0.2604
  246MOL0     C33847   2.241   5.228   7.897 -0.1789  0.6070 -0.8607
  246MOL0     C33848   2.131   5.324   7.915  0.7141 -0.4280 -0.2882
  246MOL0     C33849   2.058   5.348   7.778  0.0844 -0.3726  0.1247
  246MOL0     C33850   2.135   5.436   7.680 -0.5381 -0.4131  0.0313
  246MOL0     C33851   2.099   5.582   7.673  0.4328  0.0122  0.1052
  246MOL0     C33852   2.211   5.664   7.595  0.3042  0.1952  0.0164
  246MOL0     C33853   2.245   5.618   7.456 -0.4339  0.2125 -0.3794
  246MOL0     C33854   2.158   5.665   7.341 -0.3590 -0.9164 -0.7350
  246MOL0    Cl33855   2.193   5.542   7.212 -0.6039 -0.0696  0.0168
  246MOL0     C33856   2.520   5.150   7.939 -0.3269  0.1188  0.1727
  246MOL0     C33857   2.654   5.105   7.967  0.5148 -0.0483  0.2386
  246MOL0     O33858   2.927   5.212   8.043  0.6765  1.3378  0.1283
  246MOL0     C33859   3.009   4.962   8.292  0.1620  0.3363 -0.3446
  246MOL0     C33860   3.118   4.915   8.373  0.8882  0.1928  0.4939
  246MOL0     N33861   3.817   4.733   8.480 -0.5446 -0.3822  0.0210
  246MOL0     N33862   3.925   4.806   8.474 -0.6234 -0.6344 -0.4289
  246MOL0     C33863   4.918   4.844   8.793  0.3932  0.1315  0.8575
  246MOL0     C33864   4.964   4.764   8.689 -0.4227  0.0957 -0.6180
  246MOL0     C33865   5.240   4.545   8.440 -0.2112 -0.3322  0.1684
  246MOL0     C33866   5.358   4.610   8.398 -0.3989  0.0276  0.1344
  246MOL0     C33867   5.447   4.556   8.303  0.5011 -0.8364  0.5235
  246MOL0     C33868   5.432   4.424   8.259 -0.6812 -0.2699 -0.9711
  246MOL0     O33869   5.515   4.360   8.171 -0.0683 -0.8174  0.3292
  246MOL0     C33870   5.655   4.390   8.171 -0.4974  0.1486  0.1057
  246MOL0     C33871   5.733   4.283   8.106  0.3009  0.1815  0.3635
  246MOL0     C33872   5.872   4.305   8.067  0.2239 -0.4972  0.4627
  246MOL0     C33873   5.944   4.186   8.006 -0.0092 -0.1145 -0.2224
  246MOL0     C33874   6.066   4.236   7.929 -0.1110 -0.5564 -0.7802
  246MOL0     C33875   6.153   4.272   7.840  0.0953  0.2129  0.1518
  246MOL0     C33876   5.315   4.358   8.296 -0.3282  0.3169 -0.3449
  246MOL0     C33877   5.219   4.417   8.382  0.1857 -0.3599 -0.1526
  246MOL0     C33878   5.094   4.330   8.413  0.5355 -0.0175 -0.4012
  246MOL0     H33879   5.181   4.989   8.568  0.8742 -0.0092  0.4779
  246MOL0     H33880   5.035   5.147   8.730 -1.9291  1.2402 -0.6326
  246MOL0     H33881   4.749   5.192   8.964 -2.3590 -0.1535 -0.3684
  246MOL0     H33882   4.700   5.018   8.928 -1.2835 -1.2795 -3.1619
  246MOL0     H33883   4.696   5.278   8.778 -2.3428  0.1355 -0.7831
  246MOL0     H33884   4.763   5.143   8.683  0.4334 -2.0523  1.1022
  246MOL0     H33885   4.491   5.145   8.833 -3.6320 -0.4213 -1.6974
  246MOL0     H33886   4.489   5.187   8.673  1.4069 -0.0869 -1.3353
  246MOL0     H33887   4.583   4.968   8.588 -0.3373 -0.4162 -0.6190
  246MOL0     H33888   4.581   4.904   8.754  0.5839  3.2680  1.8523
  246MOL0     H33889   4.394   4.832   8.623 -0.8650  0.3768 -1.4574
  246MOL0     H33890   4.368   5.008   8.581  0.5076  2.1034  1.3822
  246MOL0     H33891   4.335   4.920   8.871 -0.2130  0.0197  0.3013
  246MOL0     H33892   4.259   5.054   8.780 -1.6685 -1.2998  0.2953
  246MOL0     H33893   4.085   4.886   8.834 -0.8398  1.3692 -1.2911
  246MOL0     H33894   4.181   4.754   8.766 -1.7644 -1.7739 -2.6700
  246MOL0     H33895   4.090   5.003   8.626  2.9970  0.1075 -1.5657
  246MOL0     H33896   4.163   4.859   8.539 -4.0710 -4.4962 -1.4119
  246MOL0     H33897   3.899   4.768   8.795  0.1901  0.4375  0.2652
  246MOL0     H33898   3.660   4.629   8.766 -2.3252  0.2070 -0.7432
  246MOL0     H33899   3.712   4.505   8.641 -0.1964 -1.4119  1.6571
  246MOL0     H33900   3.565   4.618   8.469  2.3742  0.1803 -0.2694
  246MOL0     H33901   3.466   4.565   8.584  0.1767  0.2723 -2.0934
  246MOL0     H33902   3.450   4.812   8.682 -0.6999  0.1890 -1.4059
  246MOL0     H33903   3.560   4.851   8.556  1.1773 -1.4685  0.1907
  246MOL0     H33904   3.395   4.749   8.391 -2.7018  1.9868 -1.8479
  246MOL0     H33905   3.285   4.742   8.531 -0.3429  0.4117 -2.2191
  246MOL0     H33906   3.372   5.088   8.231 -1.1870  2.8792 -1.6205
  246MOL0     H33907   3.151   5.295   8.103 -0.6785  0.9924 -3.8374
  246MOL0     H33908   3.189   5.193   7.970  1.2527 -4.2701  0.4587
  246MOL0     H33909   3.315   5.224   8.076 -0.1454  0.5645  0.0671
  246MOL0     H33910   2.625   5.010   8.284  1.8960 -0.8129 -1.6132
  246MOL0     H33911   2.394   5.085   8.262 -1.4394 -2.9250 -1.0669
  246MOL0     H33912   2.295   5.272   7.812 -0.0764  1.3852 -0.4091
  246MOL0     H33913   2.219   5.124   7.874 -1.2408 -0.3957  3.7696
  246MOL0     H33914   2.081   5.274   7.999  2.6098  1.2921  2.0251
  246MOL0     H33915   2.177   5.416   7.953 -2.2965  1.3739 -0.6519
  246MOL0     H33916   1.969   5.404   7.806  0.2751 -0.1187  0.2276
  246MOL0     H33917   2.037   5.256   7.723  0.0184  0.6117 -1.5465
  246MOL0     H33918   2.151   5.390   7.582 -0.9254 -2.8497  1.0384
  246MOL0     H33919   2.239   5.437   7.714 -0.9523 -2.7199  1.6345
  246MOL0     H33920   2.009   5.590   7.612  0.0932  0.8247  0.6948
  246MOL0     H33921   2.090   5.630   7.771  1.6602 -0.4142  0.4460
  246MOL0     H33922   2.297   5.662   7.662  0.7462  1.7215 -0.4619
  246MOL0     H33923   2.182   5.770   7.592  0.1482  0.1596  0.2326
  246MOL0     H33924   2.264   5.510   7.454  2.7288  0.5988  1.4176
  246MOL0     H33925   2.344   5.660   7.434  0.9471 -2.5481  0.1269
  246MOL0     H33926   2.187   5.764   7.306 -0.1121 -1.0946 -1.0319
  246MOL0     H33927   2.051   5.672   7.366  0.7015  3.4678  4.6705
  246MOL0     H33928   2.495   5.201   7.847  2.5097  0.8548 -0.2860
  246MOL0     H33929   2.732   5.116   7.893  0.5707  1.6699  0.5309
  246MOL0     H33930   2.907   4.934   8.314 -0.1455  0.3456 -1.6491
  246MOL0     H33931   3.094   4.836   8.443 -2.5231  0.2057 -0.4490
  246MOL0     H33932   4.861   4.797   8.872 -0.6026  0.7894  0.5537
  246MOL0     H33933   4.924   4.663   8.681 -0.0158 -0.2093  1.0250
  246MOL0     H33934   5.381   4.712   8.428  0.1704  0.1058 -0.5589
  246MOL0     H33935   5.529   4.623   8.280 -0.4388  0.3285  0.4479
  246MOL0     H33936   5.682   4.486   8.128 -0.2563  0.0149 -0.0396
  246MOL0     H33937   5.685   4.389   8.276  1.5738  0.8369 -0.4503
  246MOL0     H33938   5.682   4.273   8.010 -0.0750  1.7097  0.3715
  246MOL0     H33939   5.730   4.194   8.170  0.8804  1.4273  2.2130
  246MOL0     H33940   5.877   4.383   7.991  2.5405 -1.0926 -0.0805
  246MOL0     H33941   5.923   4.334   8.159 -1.0157 -0.6937  1.2321
  246MOL0     H33942   5.875   4.148   7.931  0.3952  0.2088 -0.7674
  246MOL0     H33943   5.966   4.100   8.071  0.2804 -0.1019 -0.3017
  246MOL0     H33944   6.221   4.320   7.773 -2.4699  1.1093 -2.0069
  246MOL0     H33945   5.299   4.254   8.269  0.8066 -0.2781  1.1420
  246MOL0     H33946   5.082   4.270   8.322  0.8477  0.2961 -0.6495
  246MOL0     H33947   5.124   4.277   8.504  4.2769 -1.2073 -2.1001
  246MOL0     H33948   5.015   4.396   8.448  3.8612  2.0518  4.3334
  247MOL0     O33949   8.465  11.422   0.503 -0.2111  0.7816  0.2423
  247MOL0     C33950   8.497  11.520   0.569  0.3660 -0.6926  0.3727
  247MOL0     O33951   8.534  11.507   0.698 -0.2062 -0.8327  0.1818
  247MOL0     C33952   8.585  11.395   0.752 -0.8925  0.3571  1.1115
  247MOL0     C33953   8.500  11.314   0.830 -0.0017  0.4700 -0.2229
  247MOL0     C33954   8.540  11.200   0.892  0.0420 -0.3458 -0.5151
  247MOL0     C33955   8.673  11.161   0.875 -1.5490  0.1772 -0.0976
  247MOL0     O33956   8.712  11.042   0.937 -1.0283 -0.3587 -0.0118
  247MOL0     C33957   8.800  10.957   0.870 -1.1201  0.5085 -0.3800
  247MOL0     C33958   8.801  10.825   0.952  0.0174  0.6313  0.6615
  247MOL0     C33959   8.867  10.711   0.860  0.3137 -1.1027  0.0399
  247MOL0     C33960   8.980  10.637   0.935  0.4563  0.3129  1.0138
  247MOL0     C33961   8.979  10.490   0.882 -0.1402 -0.4775 -0.1643
  247MOL0     C33962   9.099  10.412   0.950  0.0257 -0.2677 -0.4581
  247MOL0     C33963   9.103  10.270   0.903  0.4651  0.1931  0.2397
  247MOL0     C33964   9.197  10.187   0.987  0.3546  1.5217 -0.2242
  247MOL0     N33965   9.164  10.043   0.985  0.6941  0.0037 -0.0798
  247MOL0     C33966   9.172   9.970   0.872  0.0391  0.6758  0.4277
  247MOL0     C33967   9.141   9.843   0.910 -0.5907 -0.3373 -0.2443
  247MOL0     C33968   9.134   9.730   0.814  0.7319 -1.4401  0.9599
  247MOL0     C33969   9.265   9.664   0.798 -0.4532  0.1730  0.2758
  247MOL0     C33970   9.268   9.569   0.677  1.0099 -0.5610  0.4258
  247MOL0     C33971   9.226   9.622   0.541 -0.9279 -0.4077 -0.0948
  247MOL0     O33972   9.331   9.566   0.457  0.0885  0.1113 -0.2355
  247MOL0     C33973   9.337   9.621   0.333 -0.3931 -0.0353  1.6238
  247MOL0     C33974   9.245   9.702   0.264 -0.6308 -0.8630  0.3702
  247MOL0     C33975   9.265   9.763   0.133  1.0373  0.4541 -0.0222
  247MOL0     C33976   9.143   9.831   0.063  0.2409  0.5521 -0.3389
  247MOL0     C33977   9.389   9.746   0.066 -0.0799  0.0358 -0.3103
  247MOL0     C33978   9.432   9.802  -0.064 -0.8072 -0.8498  0.2741
  247MOL0     O33979   9.570   9.813  -0.090 -0.8798  0.1561  0.0974
  247MOL0     C33980   9.612   9.886  -0.197 -0.0240 -0.2419 -0.4714
  247MOL0     C33981   9.670   9.831  -0.314  0.0918  0.6505 -0.0702
  247MOL0     C33982   9.715   9.898  -0.427  0.9174 -0.7604 -0.5869
  247MOL0     C33983   9.689  10.036  -0.434  0.3097 -0.3304 -0.2435
  247MOL0     O33984   9.727  10.126  -0.532 -0.5996 -0.3618  0.3928
  247MOL0     C33985   9.840  10.091  -0.616 -0.6994 -1.4810 -0.3731
  247MOL0     C33986   9.890  10.205  -0.712 -0.3596 -0.0999  0.1351
  247MOL0     C33987   9.821  10.193  -0.843 -0.5227 -0.2788 -0.4225
  247MOL0     C33988   9.905  10.258  -0.962 -0.2049 -0.2849  1.3860
  247MOL0     C33989   9.820  10.265  -1.091 -0.3481  0.4397  0.0892
  247MOL0     C33990   9.915  10.266  -1.213 -0.7035  0.6607  0.4515
  247MOL0     C33991  10.037  10.369  -1.229  0.1710  0.4174 -0.3543
  247MOL0     C33992  10.115  10.341  -1.356  0.1564 -0.4431  0.5868
  247MOL0    Cl33993  10.049  10.411  -1.508 -0.1029  0.3293  0.1250
  247MOL0     C33994   9.630  10.095  -0.323  1.2275  0.1578 -1.5871
  247MOL0     C33995   9.597  10.024  -0.198  0.0970  0.1724  0.3058
  247MOL0     O33996   9.340   9.836  -0.139 -0.4853  0.5104  0.1265
  247MOL0     C33997   9.485   9.672   0.143 -0.1305 -0.0106  0.4920
  247MOL0     C33998   9.456   9.608   0.268 -0.6627  0.5077 -0.3768
  247MOL0     N33999   9.121   9.841   1.045  0.2919 -1.0677  0.2334
  247MOL0     N34000   9.151   9.955   1.091  0.6827  0.7009 -0.1689
  247MOL0     C34001   8.764  11.236   0.794 -0.0081 -0.0974  0.4210
  247MOL0     C34002   8.720  11.357   0.737  0.2125 -0.3940  0.2345
  247MOL0     C34003   8.520  11.646   0.490 -0.7616 -0.9373 -0.1253
  247MOL0     C34004   8.589  11.754   0.557 -0.6169 -1.1538  1.0297
  247MOL0     C34005   8.634  11.864   0.482 -0.4239  0.2892 -0.6365
  247MOL0     C34006   8.606  11.876   0.347  0.4637  0.9356 -0.9731
  247MOL0     O34007   8.657  11.990   0.287 -0.5451 -0.8327  0.4166
  247MOL0     C34008   8.618  12.019   0.147 -0.4578  0.8246  0.3945
  247MOL0     C34009   8.716  11.946   0.057 -0.1054  0.6249 -1.0854
  247MOL0     C34010   8.842  12.027   0.029 -0.1499  0.4114  0.8546
  247MOL0     C34011   8.968  11.938   0.005 -0.1025 -0.6249 -0.6484
  247MOL0     C34012   8.950  11.861  -0.120 -0.0938  0.3478  0.1083
  247MOL0     C34013   8.934  11.800  -0.220  0.2811  0.4021  0.2705
  247MOL0     C34014   8.533  11.777   0.283  0.1497  0.6668  0.2130
  247MOL0     C34015   8.497  11.662   0.350  0.6397  0.1791 -0.2586
  247MOL0     C34016   8.434  11.561   0.262  0.2882  0.0450 -0.4008
  247MOL0     H34017   8.398  11.350   0.846  0.0878  0.6997 -0.1690
  247MOL0     H34018   8.476  11.154   0.967  2.6874  0.8402  2.7162
  247MOL0     H34019   8.902  10.996   0.867  0.1120 -2.4892 -0.9336
  247MOL0     H34020   8.773  10.937   0.766  1.9602  1.4376 -1.4521
  247MOL0     H34021   8.851  10.845   1.047  1.6824  0.7622 -0.2038
  247MOL0     H34022   8.696  10.798   0.971  0.2552 -2.2181 -1.4680
  247MOL0     H34023   8.796  10.638   0.820  0.7044 -1.8215  0.6353
  247MOL0     H34024   8.905  10.759   0.770  1.6110  1.0929  1.6497
  247MOL0     H34025   9.075  10.688   0.914  1.0288  0.1733  3.0405
  247MOL0     H34026   8.957  10.644   1.042  1.0804  2.6053  1.0641
  247MOL0     H34027   8.989  10.493   0.773  0.7151 -3.4538 -0.2713
  247MOL0     H34028   8.887  10.435   0.903  0.2299 -2.0165 -2.2490
  247MOL0     H34029   9.191  10.466   0.925  0.4526 -0.2497  1.0700
  247MOL0     H34030   9.084  10.397   1.057 -1.0802 -2.3717 -0.8509
  247MOL0     H34031   9.133  10.269   0.798  0.8516 -0.6592  0.3526
  247MOL0     H34032   8.999  10.233   0.901  1.4563 -2.9391 -1.7573
  247MOL0     H34033   9.302  10.210   0.966  2.1698 -1.6299  3.9033
  247MOL0     H34034   9.206  10.226   1.089  0.8386  3.8286 -1.0808
  247MOL0     H34035   9.199   9.997   0.770  1.2717 -1.8413  0.0101
  247MOL0     H34036   9.098   9.772   0.720 -1.4069 -1.0521  1.9053
  247MOL0     H34037   9.058   9.667   0.861 -0.1304 -0.5958  0.7216
  247MOL0     H34038   9.344   9.740   0.795  0.3540 -0.6937 -1.8505
  247MOL0     H34039   9.281   9.601   0.886 -2.7800 -1.0928 -0.1468
  247MOL0     H34040   9.361   9.512   0.672  0.4456 -1.4831  0.1129
  247MOL0     H34041   9.197   9.487   0.694  1.3640 -0.9901 -0.1433
  247MOL0     H34042   9.128   9.590   0.504 -1.1065 -0.6018  0.5288
  247MOL0     H34043   9.228   9.731   0.542 -1.7810 -0.3819 -0.1232
  247MOL0     H34044   9.162   9.739   0.323 -1.4636 -0.5213 -0.9745
  247MOL0     H34045   9.156   9.933   0.026 -2.8065  0.6985 -1.3011
  247MOL0     H34046   9.057   9.834   0.132  0.8419  1.1709  0.3970
  247MOL0     H34047   9.106   9.775  -0.023  2.7742 -0.3193 -0.9377
  247MOL0     H34048   9.681   9.728  -0.284 -0.8403  1.3928  3.1978
  247MOL0     H34049   9.778   9.844  -0.496  1.3813 -1.7140  0.5443
  247MOL0     H34050   9.925  10.074  -0.549 -1.2528 -0.3959  0.6508
  247MOL0     H34051   9.813  10.001  -0.672 -2.5698 -0.0722 -1.8612
  247MOL0     H34052   9.864  10.301  -0.667  0.8324  1.4511 -2.3051
  247MOL0     H34053   9.999  10.201  -0.714 -0.3944 -0.9275 -1.0684
  247MOL0     H34054   9.727  10.246  -0.823  1.2031  1.3466  5.4062
  247MOL0     H34055   9.784  10.094  -0.870 -0.4816  0.4028 -3.3012
  247MOL0     H34056  10.001  10.206  -0.968 -0.4862 -0.6290 -3.1947
  247MOL0     H34057   9.926  10.365  -0.946 -1.4272  0.4397 -1.2979
  247MOL0     H34058   9.762  10.173  -1.085  1.9276 -1.0080  2.6146
  247MOL0     H34059   9.753  10.351  -1.093  1.6636  2.0643 -1.3954
  247MOL0     H34060   9.853  10.294  -1.299  2.1984  0.4859 -1.8651
  247MOL0     H34061   9.957  10.166  -1.228  0.5432  1.0339  1.3317
  247MOL0     H34062  10.109  10.352  -1.149  1.2199 -1.8598 -1.6807
  247MOL0     H34063  10.004  10.473  -1.226  2.1980  1.1484 -1.5757
  247MOL0     H34064  10.119  10.232  -1.370  2.5332 -0.5054  1.2416
  247MOL0     H34065  10.219  10.363  -1.330 -1.0772  1.5278  4.8631
  247MOL0     H34066   9.623  10.203  -0.335  1.5916  0.4044  0.1447
  247MOL0     H34067   9.541  10.062  -0.114  0.8207 -1.9580  1.8492
  247MOL0     H34068   9.584   9.647   0.106  0.3094  0.8561  1.0689
  247MOL0     H34069   9.537   9.556   0.318 -0.4009  1.5009  0.2664
  247MOL0     H34070   8.868  11.211   0.778  0.0511  0.5961 -0.3252
  247MOL0     H34071   8.787  11.409   0.669  0.2640  0.9854  1.2867
  247MOL0     H34072   8.603  11.749   0.665  3.9878  0.1355  0.7112
  247MOL0     H34073   8.680  11.942   0.542  1.5047 -0.8450 -0.5514
  247MOL0     H34074   8.513  11.999   0.122 -0.9078  3.6989 -0.4646
  247MOL0     H34075   8.629  12.127   0.127 -1.4724  0.5216 -2.2868
  247MOL0     H34076   8.671  11.916  -0.038 -0.6827 -0.9819 -0.3482
  247MOL0     H34077   8.735  11.850   0.106  1.5002  1.9052  0.9871
  247MOL0     H34078   8.832  12.076  -0.069 -0.5701 -4.1693 -1.6879
  247MOL0     H34079   8.862  12.096   0.111  1.0803 -1.4264  2.1790
  247MOL0     H34080   8.981  11.866   0.087  0.2855 -0.0492 -0.2020
  247MOL0     H34081   9.058  11.998  -0.003 -0.4593 -0.1816 -1.4800
  247MOL0     H34082   8.921  11.750  -0.313  1.3765  1.1465 -0.3116
  247MOL0     H34083   8.522  11.780   0.175  2.0886  0.0894 -0.0472
  247MOL0     H34084   8.359  11.509   0.322 -0.1354 -0.5030 -1.3749
  247MOL0     H34085   8.375  11.606   0.181  1.4247  1.6623 -0.3869
  247MOL0     H34086   8.511  11.493   0.225  3.3272  2.0962  1.6949
  248MOL0     O34087   4.222   5.952   4.894 -1.0058  0.1527 -0.4314
  248MOL0     C34088   4.175   6.066   4.870  0.3957  0.3853 -0.4591
  248MOL0     O34089   4.239   6.182   4.862 -0.2687  0.0675 -0.2418
  248MOL0     C34090   4.375   6.188   4.896  0.2303 -0.7779  0.4553
  248MOL0     C34091   4.461   6.271   4.832  0.7239  0.5043  0.5993
  248MOL0     C34092   4.600   6.284   4.867  0.3171  0.0902  0.0556
  248MOL0     C34093   4.644   6.245   4.997  0.9264 -0.1450  0.0655
  248MOL0     O34094   4.765   6.293   5.036 -0.3255  0.5068  0.6668
  248MOL0     C34095   4.785   6.284   5.181 -0.1159  0.2701  0.2568
  248MOL0     C34096   4.940   6.291   5.216 -0.3371  0.7483  0.0217
  248MOL0     C34097   5.022   6.167   5.157  0.7874 -0.6772 -0.0044
  248MOL0     C34098   5.163   6.164   5.230  0.3276  0.5180  0.3582
  248MOL0     C34099   5.258   6.066   5.150  0.2729 -0.9661 -0.1164
  248MOL0     C34100   5.316   6.122   5.028  0.5467 -0.0099  0.1638
  248MOL0     C34101   5.420   6.041   4.959  0.6572 -0.4689  0.4573
  248MOL0     C34102   5.392   5.900   4.929  0.0371 -0.2017 -0.0571
  248MOL0     N34103   5.271   5.872   4.840 -0.9885  0.7838  0.0532
  248MOL0     C34104   5.259   5.865   4.706 -0.0705  0.0951 -0.2225
  248MOL0     C34105   5.136   5.817   4.685  0.5927 -0.0594  1.2215
  248MOL0     C34106   5.089   5.765   4.560 -0.6585 -0.1494  0.6229
  248MOL0     C34107   4.945   5.814   4.526 -0.3062 -0.2794 -0.4426
  248MOL0     C34108   4.923   5.959   4.477  0.2595  0.1512 -0.1608
  248MOL0     C34109   4.989   5.990   4.338 -0.3315  0.9371  0.6460
  248MOL0     O34110   5.021   5.886   4.248  0.5812  0.4329  0.3266
  248MOL0     C34111   4.920   5.837   4.169  0.3527  0.1937 -0.7891
  248MOL0     C34112   4.966   5.759   4.065 -0.3575  0.3498 -0.1418
  248MOL0     C34113   4.881   5.692   3.982  0.1807  0.8084 -0.6792
  248MOL0     C34114   4.938   5.577   3.895 -0.9154  0.9516 -0.6436
  248MOL0     C34115   4.745   5.723   3.984 -0.2228  0.2406 -0.7234
  248MOL0     C34116   4.634   5.664   3.896  0.2923  0.0007 -0.1310
  248MOL0     O34117   4.507   5.639   3.949  0.6368  0.8356  0.3759
  248MOL0     C34118   4.433   5.535   3.899  1.0356  1.1401  0.0938
  248MOL0     C34119   4.293   5.527   3.911  0.0246 -0.3971  0.6040
  248MOL0     C34120   4.216   5.416   3.867 -0.1261  0.0370 -0.2411
  248MOL0     C34121   4.274   5.303   3.804 -0.0813  0.2065  0.7842
  248MOL0     O34122   4.207   5.208   3.729 -0.3984 -0.4975  1.3161
  248MOL0     C34123   4.197   5.231   3.584 -0.7152  1.4196 -0.2846
  248MOL0     C34124   4.060   5.264   3.535  0.7586 -0.8991 -0.5621
  248MOL0     C34125   3.948   5.191   3.602  0.2811 -0.7855 -1.6112
  248MOL0     C34126   3.820   5.232   3.543 -0.2385  0.4779  1.0081
  248MOL0     C34127   3.687   5.194   3.613 -0.5660 -0.6369  1.0781
  248MOL0     C34128   3.565   5.262   3.540  0.2022  0.3260  0.2207
  248MOL0     C34129   3.435   5.214   3.598  0.3225  1.2891  0.6935
  248MOL0     C34130   3.406   5.251   3.743  0.4355  0.0688  0.3379
  248MOL0    Cl34131   3.250   5.166   3.802  0.0846 -0.3238  0.3091
  248MOL0     C34132   4.406   5.313   3.787  0.2832  0.3331 -0.3484
  248MOL0     C34133   4.490   5.419   3.842 -0.4727  0.2198 -0.3478
  248MOL0     O34134   4.663   5.658   3.779  0.6765 -0.2223  0.1092
  248MOL0     C34135   4.695   5.802   4.090  0.5732  0.1633 -0.4594
  248MOL0     C34136   4.778   5.867   4.176  1.0871  0.7911 -0.6260
  248MOL0     N34137   5.069   5.806   4.809  0.9741  0.1130 -0.1692
  248MOL0     N34138   5.154   5.826   4.894 -0.1266 -0.1970  0.6128
  248MOL0     C34139   4.550   6.158   5.065  0.2749 -0.0265 -0.8030
  248MOL0     C34140   4.425   6.120   5.008  0.2271 -0.0967 -0.7010
  248MOL0     C34141   4.028   6.070   4.851 -0.0122  0.2118  0.8193
  248MOL0     C34142   3.977   6.163   4.759 -0.3156 -0.5982 -0.0799
  248MOL0     C34143   3.840   6.190   4.742 -0.3233  0.9264  0.3693
  248MOL0     C34144   3.750   6.096   4.789  0.1386  0.7340  0.3055
  248MOL0     O34145   3.614   6.121   4.756 -0.0349  0.1737 -0.4316
  248MOL0     C34146   3.512   6.018   4.793  0.1226  0.2331  0.7241
  248MOL0     C34147   3.379   6.033   4.720  0.8280 -0.8629  0.3022
  248MOL0     C34148   3.281   5.920   4.759  0.4787 -0.1186  0.3846
  248MOL0     C34149   3.128   5.942   4.744 -0.6673 -0.4324 -0.4433
  248MOL0     C34150   3.088   6.071   4.797 -0.2578  0.7862  0.1088
  248MOL0     C34151   3.054   6.182   4.840 -0.3589  0.3454  0.0912
  248MOL0     C34152   3.801   6.003   4.882  0.6865 -0.4728 -0.3097
  248MOL0     C34153   3.937   5.991   4.917  0.8108  0.5631  0.0327
  248MOL0     C34154   3.969   5.873   5.010 -0.7778 -0.2792  0.1039
  248MOL0     H34155   4.427   6.336   4.752  3.0445  1.5998  0.4021
  248MOL0     H34156   4.667   6.336   4.799 -1.6221  0.3756 -1.7641
  248MOL0     H34157   4.748   6.188   5.217  1.9081  0.4129  3.0341
  248MOL0     H34158   4.730   6.355   5.243  0.1933 -1.2587  2.3957
  248MOL0     H34159   4.981   6.388   5.185 -1.1258  0.6911 -1.3091
  248MOL0     H34160   4.941   6.290   5.325  1.5099  1.3833  0.0444
  248MOL0     H34161   4.966   6.077   5.182  0.7589 -0.5176  0.5276
  248MOL0     H34162   5.034   6.160   5.049  1.5362 -0.9949  0.0896
  248MOL0     H34163   5.208   6.263   5.244 -3.4775  2.0207  3.9508
  248MOL0     H34164   5.143   6.112   5.324  0.0460 -2.0955 -1.0568
  248MOL0     H34165   5.194   5.983   5.121  1.0094 -1.2966 -0.8147
  248MOL0     H34166   5.335   6.033   5.221 -2.0612 -1.5080  2.3641
  248MOL0     H34167   5.236   6.137   4.954  0.5878  0.0468  0.1308
  248MOL0     H34168   5.360   6.220   5.044  0.3547  0.0778  0.1624
  248MOL0     H34169   5.502   6.034   5.031  1.3398 -0.3122 -0.2931
  248MOL0     H34170   5.463   6.097   4.875  0.4740  2.5362  2.2240
  248MOL0     H34171   5.480   5.855   4.882 -1.1496 -2.0985 -0.5748
  248MOL0     H34172   5.376   5.865   5.031  0.0384 -0.5890 -0.1885
  248MOL0     H34173   5.342   5.874   4.636 -0.8703  0.8775 -1.0979
  248MOL0     H34174   5.083   5.657   4.575 -1.8209 -0.4503 -1.6128
  248MOL0     H34175   5.159   5.793   4.480 -1.6734 -0.6856 -0.4784
  248MOL0     H34176   4.895   5.747   4.455 -2.3150 -0.4004  0.9987
  248MOL0     H34177   4.881   5.817   4.615 -1.9087 -0.3501 -1.5533
  248MOL0     H34178   4.814   5.960   4.467  0.3765  0.2999 -1.6793
  248MOL0     H34179   4.949   6.032   4.554 -3.2411  0.9381  0.4758
  248MOL0     H34180   4.933   6.068   4.285  1.0618  1.5637  0.0347
  248MOL0     H34181   5.087   6.030   4.365  0.1639 -0.3439  0.7906
  248MOL0     H34182   5.072   5.736   4.074  0.2997  2.8938 -0.7429
  248MOL0     H34183   4.929   5.488   3.959 -0.6192  0.0263 -1.8582
  248MOL0     H34184   5.042   5.595   3.867  0.4025 -2.2185  1.6176
  248MOL0     H34185   4.872   5.579   3.808 -2.9362  0.1208  0.7886
  248MOL0     H34186   4.245   5.613   3.957 -2.2589 -1.3483  0.1120
  248MOL0     H34187   4.109   5.423   3.851 -0.2410 -2.7161 -1.1647
  248MOL0     H34188   4.282   5.289   3.548 -1.0739  0.1204 -3.5210
  248MOL0     H34189   4.215   5.131   3.543 -0.4823  1.1197  0.5135
  248MOL0     H34190   4.051   5.372   3.548  1.0970 -0.7955 -1.1677
  248MOL0     H34191   4.049   5.250   3.427  0.9973 -0.4974 -0.6443
  248MOL0     H34192   3.933   5.226   3.705 -0.7756  1.3496 -2.4448
  248MOL0     H34193   3.967   5.083   3.595  2.4541 -0.5621 -0.2335
  248MOL0     H34194   3.819   5.200   3.439 -1.0813  1.8519  0.5634
  248MOL0     H34195   3.823   5.341   3.557  4.7898  0.5295  1.4564
  248MOL0     H34196   3.677   5.085   3.618 -3.3074 -0.3885  2.8901
  248MOL0     H34197   3.692   5.231   3.715 -0.2594  0.7626  0.5811
  248MOL0     H34198   3.582   5.236   3.435  2.2184  1.4831  0.2129
  248MOL0     H34199   3.569   5.371   3.540 -3.4693  0.6345 -1.7564
  248MOL0     H34200   3.433   5.105   3.582  0.7693  1.3786  0.0038
  248MOL0     H34201   3.353   5.251   3.537 -0.4519  1.9752  2.0939
  248MOL0     H34202   3.410   5.358   3.761  1.4092 -0.0690  1.0241
  248MOL0     H34203   3.483   5.199   3.802  1.6363  1.0673 -0.3237
  248MOL0     H34204   4.452   5.239   3.722  0.6681  1.2989 -1.2216
  248MOL0     H34205   4.597   5.410   3.825  0.2896  1.4049  2.9870
  248MOL0     H34206   4.588   5.816   4.088  0.7551  1.5119 -1.3619
  248MOL0     H34207   4.738   5.937   4.248 -0.2130  0.0133 -0.5656
  248MOL0     H34208   4.582   6.106   5.155  1.1973  0.0308 -1.0847
  248MOL0     H34209   4.365   6.055   5.071 -1.5104  1.9579 -0.1120
  248MOL0     H34210   4.046   6.228   4.705 -2.0797 -0.2481 -2.0171
  248MOL0     H34211   3.800   6.263   4.673 -5.3645  0.9342  2.8594
  248MOL0     H34212   3.544   5.915   4.775  0.6772  0.6127 -0.6047
  248MOL0     H34213   3.484   6.024   4.898  1.6734 -0.6014  1.2178
  248MOL0     H34214   3.383   6.034   4.611  0.9525  1.4896  0.2625
  248MOL0     H34215   3.347   6.133   4.751  1.6230  0.0026 -1.5391
  248MOL0     H34216   3.293   5.829   4.699 -3.9812  1.1458 -3.0141
  248MOL0     H34217   3.305   5.900   4.864 -1.6828 -0.1289  0.9308
  248MOL0     H34218   3.072   5.860   4.791  3.2817 -2.1757  1.6961
  248MOL0     H34219   3.110   5.951   4.636  2.0275  0.2770 -0.8968
  248MOL0     H34220   3.019   6.280   4.868  0.5796  1.1526 -1.4037
  248MOL0     H34221   3.726   5.940   4.929  2.2349 -1.6593  0.6777
  248MOL0     H34222   4.067   5.873   5.059 -0.6984  0.2249 -0.0484
  248MOL0     H34223   3.894   5.872   5.089 -1.1144  2.6771 -0.0472
  248MOL0     H34224   3.967   5.775   4.962 -0.6228 -1.4943  2.4303
  249MOL0     O34225  10.534   2.293   8.086  0.1108  0.7060  0.3669
  249MOL0     C34226  10.532   2.262   8.203  0.3340 -0.3835  0.5818
  249MOL0     O34227  10.477   2.333   8.299  0.3570 -0.3893 -0.8159
  249MOL0     C34228  10.433   2.458   8.276  0.6204 -0.5008  0.5877
  249MOL0     C34229  10.467   2.561   8.356 -0.5412  0.0828 -0.5051
  249MOL0     C34230  10.409   2.689   8.343  0.2931 -0.4550  0.1776
  249MOL0     C34231  10.312   2.719   8.246 -0.1261 -0.1575 -0.4929
  249MOL0     O34232  10.252   2.838   8.210 -0.0012 -0.2452 -0.2357
  249MOL0     C34233  10.249   2.940   8.308 -0.5064 -0.2502  0.4128
  249MOL0     C34234  10.179   3.061   8.252 -0.1114 -0.4791 -0.3269
  249MOL0     C34235  10.249   3.139   8.142 -0.2529 -0.3328 -0.4452
  249MOL0     C34236  10.310   3.271   8.187  0.3853 -0.0940 -1.0090
  249MOL0     C34237  10.391   3.334   8.080 -0.8815  0.0499 -0.2913
  249MOL0     C34238  10.538   3.274   8.076  0.3618 -1.0896 -0.4722
  249MOL0     C34239  10.632   3.368   7.999  0.0079 -0.7245  0.0496
  249MOL0     C34240  10.585   3.400   7.860 -0.3662  0.0419 -0.3075
  249MOL0     N34241  10.562   3.545   7.831  0.2486  0.8120 -0.9473
  249MOL0     C34242  10.501   3.633   7.911 -0.4192  0.5935 -0.2009
  249MOL0     C34243  10.508   3.756   7.847 -0.0336  0.4244 -0.5570
  249MOL0     C34244  10.449   3.884   7.903 -0.0323  0.6415  0.1229
  249MOL0     C34245  10.560   3.941   8.007 -0.2961 -0.0598 -0.6226
  249MOL0     C34246  10.496   4.056   8.088  0.1026 -0.0296 -0.3083
  249MOL0     C34247  10.599   4.148   8.154 -0.5770  0.5109 -0.7943
  249MOL0     O34248  10.693   4.069   8.233 -0.2646  0.5352 -0.4481
  249MOL0     C34249  10.805   4.127   8.293  0.6777 -1.3311  0.6530
  249MOL0     C34250  10.863   4.255   8.273 -0.4548  0.0924 -0.1590
  249MOL0     C34251  10.956   4.315   8.367 -0.3920 -0.7010  0.2839
  249MOL0     C34252  11.012   4.445   8.330  0.4661 -0.5871  0.0328
  249MOL0     C34253  11.002   4.235   8.474 -0.3691  0.0543 -1.3527
  249MOL0     C34254  11.088   4.283   8.596  0.6084  0.3642  0.7673
  249MOL0     O34255  11.109   4.194   8.691 -0.8733 -0.2006 -0.0801
  249MOL0     C34256  11.224   4.190   8.774  0.3515  0.4734  0.3958
  249MOL0     C34257  11.224   4.098   8.886 -0.6443 -0.0432  0.1344
  249MOL0     C34258  11.346   4.093   8.969  0.0873 -0.6329  0.5500
  249MOL0     C34259  11.455   4.165   8.932 -0.5347  0.3661  0.0837
  249MOL0     O34260  11.562   4.174   9.017  0.5989 -0.7100  0.0516
  249MOL0     C34261  11.560   4.119   9.152 -0.9763 -0.1185  0.1761
  249MOL0     C34262  11.676   4.170   9.233 -1.1370 -0.3452 -0.9795
  249MOL0     C34263  11.776   4.064   9.290  0.7737  0.4638 -0.0289
  249MOL0     C34264  11.898   4.141   9.341 -0.2922  0.3677  0.2491
  249MOL0     C34265  12.000   4.039   9.382  0.9872 -0.1217  0.0693
  249MOL0     C34266  12.104   4.086   9.494  0.5268 -0.6734 -0.6735
  249MOL0     C34267  12.027   4.153   9.611  0.7481 -0.1594 -0.2834
  249MOL0     C34268  11.912   4.052   9.677 -0.0098 -0.0845  0.9714
  249MOL0    Cl34269  11.960   3.886   9.704  0.4286  0.1017  0.5890
  249MOL0     C34270  11.454   4.248   8.821 -0.4246  0.5772 -0.4021
  249MOL0     C34271  11.347   4.252   8.733 -0.8359  0.3901 -0.5606
  249MOL0     O34272  11.134   4.397   8.592 -0.2313 -0.6722  0.8611
  249MOL0     C34273  10.953   4.102   8.484 -0.3378  0.1032  0.2960
  249MOL0     C34274  10.857   4.051   8.393  0.3527  0.9643 -0.5927
  249MOL0     N34275  10.577   3.733   7.730  0.3266 -0.0527 -0.0929
  249MOL0     N34276  10.614   3.605   7.724 -0.6930  0.0662  0.0428
  249MOL0     C34277  10.262   2.610   8.171 -0.6885  1.2487  0.1723
  249MOL0     C34278  10.335   2.488   8.184  0.8741  0.1006 -1.0505
  249MOL0     C34279  10.596   2.138   8.255 -0.2865  0.4810  0.5448
  249MOL0     C34280  10.577   2.098   8.386 -0.1109 -0.3571  0.8012
  249MOL0     C34281  10.628   1.984   8.436  0.1493  0.7591 -0.3129
  249MOL0     C34282  10.683   1.888   8.354  1.0520 -0.7729 -0.5215
  249MOL0     O34283  10.713   1.765   8.408  0.6973 -0.3828  0.4563
  249MOL0     C34284  10.840   1.699   8.369 -0.6765  0.0244 -0.0124
  249MOL0     C34285  10.972   1.765   8.413  0.8064  0.1224  0.7110
  249MOL0     C34286  10.998   1.735   8.562  0.5078 -0.2833 -0.2780
  249MOL0     C34287  11.133   1.788   8.628 -0.1406  0.0701 -0.2214
  249MOL0     C34288  11.254   1.733   8.569  0.1688  0.2360  0.4217
  249MOL0     C34289  11.354   1.684   8.514  0.1259 -0.2812 -0.1756
  249MOL0     C34290  10.696   1.925   8.218 -0.2904  0.2317  0.4260
  249MOL0     C34291  10.665   2.047   8.163 -1.3181 -0.2814 -0.6772
  249MOL0     C34292  10.710   2.070   8.022 -0.0274 -0.0191 -0.0988
  249MOL0     H34293  10.536   2.547   8.438 -1.0179 -0.2973 -0.1656
  249MOL0     H34294  10.428   2.772   8.410 -2.6929  1.7618 -1.4752
  249MOL0     H34295  10.346   2.986   8.328 -1.9097  2.4618  1.5395
  249MOL0     H34296  10.204   2.894   8.396 -0.8827 -4.0774 -1.5399
  249MOL0     H34297  10.080   3.031   8.216 -0.5587 -0.0315  0.4831
  249MOL0     H34298  10.160   3.132   8.334 -1.3533  1.5947 -2.2925
  249MOL0     H34299  10.334   3.080   8.107  1.8031  0.3268  2.9283
  249MOL0     H34300  10.176   3.162   8.065 -2.2416 -1.9651  0.8675
  249MOL0     H34301  10.229   3.340   8.213  2.9232  2.3246  1.1284
  249MOL0     H34302  10.366   3.259   8.280  0.9067 -2.6411 -1.5785
  249MOL0     H34303  10.396   3.442   8.094  0.9547 -0.1974  1.5379
  249MOL0     H34304  10.338   3.322   7.985  0.5484 -0.3192 -1.0782
  249MOL0     H34305  10.574   3.261   8.178  2.7911  0.8057 -1.0064
  249MOL0     H34306  10.539   3.172   8.036 -1.1522 -0.6201 -1.8122
  249MOL0     H34307  10.727   3.316   7.986 -0.2310 -1.2785  0.4683
  249MOL0     H34308  10.665   3.456   8.056 -0.9023  1.2662 -2.3210
  249MOL0     H34309  10.664   3.359   7.797 -1.6003 -0.0382 -1.8538
  249MOL0     H34310  10.498   3.336   7.845  0.6254 -1.5855  0.6425
  249MOL0     H34311  10.454   3.619   8.008 -2.4562  3.3053 -0.6702
  249MOL0     H34312  10.354   3.856   7.948 -0.5897  0.6512 -1.0138
  249MOL0     H34313  10.424   3.961   7.829 -2.2394  0.9755  1.1402
  249MOL0     H34314  10.596   3.867   8.079  1.2217 -0.4704 -1.7625
  249MOL0     H34315  10.646   3.978   7.949  3.3575 -2.6344  2.5824
  249MOL0     H34316  10.437   4.121   8.022 -0.6522  0.5257  0.8688
  249MOL0     H34317  10.439   4.010   8.170 -0.1306  0.3740 -0.2389
  249MOL0     H34318  10.654   4.192   8.070 -4.5878 -0.0655 -4.0579
  249MOL0     H34319  10.565   4.232   8.215  2.4022 -0.0806  1.9581
  249MOL0     H34320  10.823   4.299   8.182 -2.2389  1.2108  1.1024
  249MOL0     H34321  10.949   4.514   8.387 -4.2952 -3.3206 -1.3166
  249MOL0     H34322  10.989   4.472   8.226 -2.0931  3.6431  1.4145
  249MOL0     H34323  11.119   4.455   8.347  0.2429  0.6553  0.9104
  249MOL0     H34324  11.135   4.038   8.904 -1.0956  0.7269  0.5011
  249MOL0     H34325  11.331   4.031   9.057  1.4995 -1.5698  0.1597
  249MOL0     H34326  11.474   4.158   9.206 -0.2678  0.9762  0.5665
  249MOL0     H34327  11.558   4.010   9.140 -2.1548 -0.1974  0.9272
  249MOL0     H34328  11.735   4.226   9.160 -1.0763 -1.4509 -1.7969
  249MOL0     H34329  11.645   4.238   9.314  0.4309  0.0227 -0.6627
  249MOL0     H34330  11.821   4.008   9.207  3.0139  0.2791  1.2242
  249MOL0     H34331  11.733   4.006   9.373  0.3840  2.9260  1.5833
  249MOL0     H34332  11.849   4.211   9.409 -2.1865 -0.1488 -0.5047
  249MOL0     H34333  11.938   4.195   9.254 -0.2772  0.6295  0.4174
  249MOL0     H34334  11.945   3.956   9.428 -2.4723  1.3644 -1.0522
  249MOL0     H34335  12.043   3.996   9.291  1.0802  1.1009 -0.4906
  249MOL0     H34336  12.191   4.135   9.449  1.1046 -1.0128  0.0643
  249MOL0     H34337  12.145   3.993   9.536 -0.7719 -0.9890 -0.0608
  249MOL0     H34338  11.981   4.246   9.576 -0.6934 -1.4922 -2.1515
  249MOL0     H34339  12.100   4.172   9.691 -0.3289 -3.4171  1.6794
  249MOL0     H34340  11.826   4.050   9.609 -0.5879  3.4410  1.4063
  249MOL0     H34341  11.876   4.109   9.762  2.3438  2.1788  0.5890
  249MOL0     H34342  11.544   4.308   8.811  0.7105 -0.7722  1.0568
  249MOL0     H34343  11.361   4.308   8.641 -0.6324  0.3972 -0.5252
  249MOL0     H34344  11.004   4.042   8.558 -0.6338 -1.5215 -0.7542
  249MOL0     H34345  10.827   3.947   8.396  1.7945  0.5178 -0.7576
  249MOL0     H34346  10.182   2.640   8.104 -0.8508  1.9950  0.6788
  249MOL0     H34347  10.300   2.403   8.127  1.8428 -1.6868  0.8642
  249MOL0     H34348  10.511   2.145   8.459 -1.7225  3.0622 -2.5044
  249MOL0     H34349  10.600   1.951   8.535 -1.2994  2.6658 -0.0247
  249MOL0     H34350  10.847   1.594   8.399  1.9581 -0.0625 -0.7340
  249MOL0     H34351  10.839   1.701   8.260 -3.2943  1.1795 -0.0449
  249MOL0     H34352  10.952   1.869   8.386 -1.5394  0.0300  1.8243
  249MOL0     H34353  11.055   1.726   8.353  0.3006  0.5646 -0.2930
  249MOL0     H34354  10.913   1.769   8.623  1.9610 -1.1444  2.3690
  249MOL0     H34355  10.984   1.629   8.582 -2.1599 -0.1571 -1.0591
  249MOL0     H34356  11.122   1.750   8.730  0.1553 -2.7464 -1.1487
  249MOL0     H34357  11.131   1.897   8.616  0.1169  0.0343 -0.5943
  249MOL0     H34358  11.440   1.658   8.455 -0.6467 -2.2447 -0.5042
  249MOL0     H34359  10.738   1.849   8.154 -3.1612 -0.7700 -0.4253
  249MOL0     H34360  10.632   2.097   7.949  1.1538 -2.4215 -2.4094
  249MOL0     H34361  10.774   2.158   8.027  1.5444 -1.1450  0.7125
  249MOL0     H34362  10.767   1.985   7.984  2.6684  1.4105  0.5028
  250MOL0     O34363   1.284   9.619   7.102 -0.4291  0.1042 -0.1973
  250MOL0     C34364   1.390   9.559   7.112 -0.4933  0.4259  0.0438
  250MOL0     O34365   1.435   9.464   7.023 -0.0060  0.6563  0.5599
  250MOL0     C34366   1.347   9.415   6.923 -0.8462 -0.2393  0.1496
  250MOL0     C34367   1.405   9.403   6.794 -0.1351 -0.0014 -0.4119
  250MOL0     C34368   1.315   9.386   6.680  0.2805 -0.2436 -0.7695
  250MOL0     C34369   1.179   9.384   6.703  0.4289  0.9177  0.6886
  250MOL0     O34370   1.091   9.388   6.599  0.8862  0.3075 -0.0742
  250MOL0     C34371   1.126   9.387   6.460 -0.2703 -0.6306  0.1461
  250MOL0     C34372   1.120   9.243   6.407  0.1272 -0.1344 -0.8115
  250MOL0     C34373   1.114   9.247   6.243 -0.4059 -0.0096 -0.3778
  250MOL0     C34374   0.968   9.275   6.202  0.7607 -0.3713  0.7275
  250MOL0     C34375   0.963   9.365   6.081 -0.0993  1.0946  0.7748
  250MOL0     C34376   0.819   9.366   6.024 -0.1011  0.1478  0.5704
  250MOL0     C34377   0.714   9.442   6.111 -0.5628  0.1519 -0.0039
  250MOL0     C34378   0.563   9.403   6.062 -0.1521  0.5279 -0.7997
  250MOL0     N34379   0.540   9.395   5.916 -1.2690  0.0429  0.0450
  250MOL0     C34380   0.491   9.493   5.840 -0.9116 -0.1955  0.6220
  250MOL0     C34381   0.484   9.439   5.717 -0.1072 -0.5749  0.2047
  250MOL0     C34382   0.451   9.529   5.599  0.5022  0.7624 -0.3734
  250MOL0     C34383   0.330   9.467   5.538  0.4465  0.2764  0.2525
  250MOL0     C34384   0.266   9.560   5.427  0.2146  0.2568 -0.2428
  250MOL0     C34385   0.172   9.477   5.347 -1.0279  0.3494 -0.8649
  250MOL0     O34386   0.122   9.555   5.241  0.3964 -0.3971 -0.3835
  250MOL0     C34387  -0.000   9.596   5.243  0.4772 -0.2762 -0.2588
  250MOL0     C34388  -0.046   9.638   5.123  0.4507 -0.6057  0.1832
  250MOL0     C34389  -0.176   9.699   5.101 -0.3512  0.7596 -0.3192
  250MOL0     C34390  -0.216   9.763   4.977 -0.5343 -0.2448  0.5263
  250MOL0     C34391  -0.253   9.702   5.218 -0.0526  0.4253 -0.0165
  250MOL0     C34392  -0.395   9.759   5.217 -0.3207 -0.1554  0.3323
  250MOL0     O34393  -0.478   9.706   5.106  0.3293 -0.8647 -0.1683
  250MOL0     C34394  -0.604   9.751   5.075 -1.1721 -0.3421  0.5501
  250MOL0     C34395  -0.673   9.656   5.004 -0.7698 -0.7202 -0.3442
  250MOL0     C34396  -0.806   9.691   4.981  0.8548  1.2513 -0.7619
  250MOL0     C34397  -0.870   9.806   5.026  0.2961  0.0554 -0.2155
  250MOL0     O34398  -0.997   9.826   4.981  0.6806  0.0394 -0.5372
  250MOL0     C34399  -0.998   9.922   4.878 -0.0722  0.2690  1.0640
  250MOL0     C34400  -1.147   9.903   4.840 -0.0825  0.9190  0.0589
  250MOL0     C34401  -1.194  10.011   4.741 -0.0419 -0.2636 -0.5118
  250MOL0     C34402  -1.098  10.023   4.619 -0.3031 -0.6094 -0.2658
  250MOL0     C34403  -1.139  10.134   4.515  0.4698  0.5038  0.3383
  250MOL0     C34404  -1.277  10.108   4.448  1.0915  0.8217  0.6627
  250MOL0     C34405  -1.320  10.226   4.343  0.4872 -0.4802 -0.1151
  250MOL0     C34406  -1.384  10.355   4.412 -0.7402 -0.7411  0.7835
  250MOL0    Cl34407  -1.539  10.288   4.485  0.2037 -0.3466  0.3884
  250MOL0     C34408  -0.798   9.911   5.095  0.1058 -0.3241 -0.5250
  250MOL0     C34409  -0.663   9.875   5.128 -1.0193 -0.3738  0.3562
  250MOL0     O34410  -0.438   9.813   5.315  0.6816 -0.0154 -0.2700
  250MOL0     C34411  -0.214   9.653   5.341 -0.2079 -0.1588 -0.8771
  250MOL0     C34412  -0.087   9.599   5.353 -0.3469  0.5535 -0.3013
  250MOL0     N34413   0.518   9.309   5.719  0.0223 -0.2920 -0.5162
  250MOL0     N34414   0.559   9.288   5.840 -0.2419 -0.4111  0.3096
  250MOL0     C34415   1.128   9.389   6.826  0.6613  0.1353 -0.4346
  250MOL0     C34416   1.210   9.403   6.938  0.1898 -0.1631  0.0698
  250MOL0     C34417   1.475   9.590   7.234 -0.1801 -0.8490 -0.4509
  250MOL0     C34418   1.622   9.577   7.220 -0.1377  0.3284 -0.1879
  250MOL0     C34419   1.709   9.597   7.331 -1.0609 -1.0203  1.6201
  250MOL0     C34420   1.655   9.666   7.438 -1.4404 -0.3592  0.4876
  250MOL0     O34421   1.750   9.722   7.518 -0.8326 -0.3587 -0.1094
  250MOL0     C34422   1.790   9.656   7.644 -0.5741 -0.1309 -0.4456
  250MOL0     C34423   1.914   9.708   7.729  0.3578 -0.5060  0.1017
  250MOL0     C34424   2.058   9.668   7.674 -0.2339 -0.2735  0.5625
  250MOL0     C34425   2.181   9.736   7.738  0.8919 -0.4764 -1.0060
  250MOL0     C34426   2.298   9.749   7.651 -0.0617  0.2198 -0.0439
  250MOL0     C34427   2.396   9.752   7.570  1.1509  0.6086  0.6684
  250MOL0     C34428   1.524   9.699   7.444 -0.1612  0.5215  0.0017
  250MOL0     C34429   1.426   9.647   7.354 -0.5757  1.1813 -0.7570
  250MOL0     C34430   1.281   9.650   7.385  0.2889 -1.1602  0.0995
  250MOL0     H34431   1.514   9.407   6.786 -0.0956 -2.3530 -2.0457
  250MOL0     H34432   1.365   9.388   6.583 -1.4740  5.2678 -1.9155
  250MOL0     H34433   1.214   9.444   6.428 -0.7990  1.1179  1.5967
  250MOL0     H34434   1.048   9.441   6.404 -0.6433  0.0233  1.2597
  250MOL0     H34435   1.209   9.186   6.434 -0.8477 -0.8541  1.0720
  250MOL0     H34436   1.035   9.198   6.459  0.3706  0.7524  0.3982
  250MOL0     H34437   1.170   9.338   6.220 -0.7719  1.9310  4.8525
  250MOL0     H34438   1.167   9.166   6.193  3.1287  2.7675 -1.5876
  250MOL0     H34439   0.901   9.189   6.188 -0.3964  0.4229  1.2267
  250MOL0     H34440   0.918   9.321   6.287  1.2320 -2.6074  2.2915
  250MOL0     H34441   1.029   9.318   6.008 -4.1941 -3.6066 -0.4797
  250MOL0     H34442   1.006   9.465   6.095 -1.9570  2.1328 -0.4076
  250MOL0     H34443   0.819   9.407   5.923  0.9015 -0.4100  0.3275
  250MOL0     H34444   0.789   9.261   6.022  0.5623 -0.0351 -0.8311
  250MOL0     H34445   0.723   9.551   6.114  2.9056 -0.0257  2.4654
  250MOL0     H34446   0.719   9.407   6.215 -4.3887 -1.2268 -0.1399
  250MOL0     H34447   0.527   9.305   6.094  0.8615  0.0125 -1.1811
  250MOL0     H34448   0.491   9.474   6.104 -0.0620 -0.1645  0.5885
  250MOL0     H34449   0.478   9.600   5.857  0.9645  0.4878 -1.8028
  250MOL0     H34450   0.535   9.542   5.529  1.8275 -0.0983  0.9991
  250MOL0     H34451   0.408   9.626   5.628  1.0185  1.0125 -0.4312
  250MOL0     H34452   0.355   9.370   5.493 -1.2080 -1.4164  2.6583
  250MOL0     H34453   0.258   9.450   5.620 -0.0683 -1.0716 -0.4425
  250MOL0     H34454   0.208   9.640   5.475  0.0144 -1.0122  1.7463
  250MOL0     H34455   0.342   9.599   5.358  2.6877 -1.9100  1.0801
  250MOL0     H34456   0.232   9.402   5.295 -0.4278  1.2226 -1.4740
  250MOL0     H34457   0.094   9.422   5.401  0.8496 -0.5057  1.1422
  250MOL0     H34458   0.003   9.623   5.028 -1.0595  2.9704 -1.3531
  250MOL0     H34459  -0.260   9.863   4.988 -1.0389 -0.3483 -0.4150
  250MOL0     H34460  -0.283   9.697   4.922 -1.7390  0.3990  1.1669
  250MOL0     H34461  -0.127   9.782   4.917 -0.2232  1.3807  1.4428
  250MOL0     H34462  -0.630   9.560   4.977  2.6114  1.1962 -2.3805
  250MOL0     H34463  -0.855   9.621   4.914  3.0686 -0.6740 -0.4896
  250MOL0     H34464  -0.979  10.021   4.920  0.2177  0.1221  1.2812
  250MOL0     H34465  -0.937   9.897   4.792 -0.8504 -1.0333  0.8714
  250MOL0     H34466  -1.161   9.803   4.799 -1.8037  0.9994  0.3788
  250MOL0     H34467  -1.210   9.905   4.930  0.1136  0.5464  0.2049
  250MOL0     H34468  -1.185  10.108   4.792  1.0164 -0.1502 -0.8837
  250MOL0     H34469  -1.293   9.977   4.710 -0.4231  1.7414 -1.6975
  250MOL0     H34470  -1.089   9.925   4.572 -0.9066 -0.3942 -0.8433
  250MOL0     H34471  -0.993  10.042   4.645  0.2511  1.7749 -3.5311
  250MOL0     H34472  -1.118  10.231   4.559  1.9833  0.0777  0.6100
  250MOL0     H34473  -1.063  10.136   4.437  2.5717  4.0084  2.2103
  250MOL0     H34474  -1.364  10.101   4.514  0.4563  1.7444 -0.0375
  250MOL0     H34475  -1.263  10.010   4.402  1.0711  1.4291 -0.6951
  250MOL0     H34476  -1.392  10.190   4.268 -1.2048  1.7834  0.3187
  250MOL0     H34477  -1.233  10.269   4.293  0.8029 -0.0751  0.7792
  250MOL0     H34478  -1.408  10.430   4.336 -0.5368 -2.0804 -0.6561
  250MOL0     H34479  -1.323  10.402   4.489  0.6986  0.7422 -1.1737
  250MOL0     H34480  -0.848  10.002   5.125  4.2464  1.4544  1.8931
  250MOL0     H34481  -0.630   9.949   5.201 -3.3443 -1.5100  2.7271
  250MOL0     H34482  -0.294   9.653   5.414 -1.3610  0.4404 -2.0991
  250MOL0     H34483  -0.055   9.564   5.450  1.5504  1.7235 -0.4518
  250MOL0     H34484   1.023   9.382   6.849  0.6924 -1.3681 -0.6502
  250MOL0     H34485   1.159   9.408   7.034 -2.9779  0.5649 -1.5248
  250MOL0     H34486   1.670   9.546   7.127  1.5213  5.7635 -1.4759
  250MOL0     H34487   1.817   9.593   7.320 -1.3968 -2.2469 -3.4544
  250MOL0     H34488   1.705   9.683   7.708 -1.0291  0.3268 -1.2328
  250MOL0     H34489   1.797   9.548   7.633  0.3433 -0.1883  0.5561
  250MOL0     H34490   1.900   9.672   7.831  1.1599 -2.2458 -0.3647
  250MOL0     H34491   1.906   9.817   7.731  2.2691 -0.3072 -1.0190
  250MOL0     H34492   2.069   9.559   7.675  0.0182 -0.2664  2.5674
  250MOL0     H34493   2.067   9.693   7.568  1.4521 -1.0564  0.4961
  250MOL0     H34494   2.200   9.681   7.831 -2.8221 -2.5069 -1.2789
  250MOL0     H34495   2.153   9.839   7.762 -2.5704 -1.5571  0.2605
  250MOL0     H34496   2.469   9.761   7.492 -0.4956  2.0088 -0.7971
  250MOL0     H34497   1.495   9.758   7.530  2.1759 -0.0942  1.2832
  250MOL0     H34498   1.214   9.696   7.312  0.8038 -1.0482 -0.3073
  250MOL0     H34499   1.248   9.546   7.389 -0.4599 -1.0475 -2.0206
  250MOL0     H34500   1.264   9.697   7.482 -1.2595  1.9951 -1.5433
  251MOL0     O34501   2.522   2.805   3.825  0.5506 -0.6478 -0.5266
  251MOL0     C34502   2.457   2.703   3.813 -0.6765  0.5047 -0.0561
  251MOL0     O34503   2.395   2.665   3.695  0.6575  0.3361  0.2732
  251MOL0     C34504   2.403   2.751   3.590 -0.1389  0.2790  0.3894
  251MOL0     C34505   2.489   2.713   3.492  0.5152 -0.9169 -0.3755
  251MOL0     C34506   2.512   2.793   3.379  0.0409  0.4170  0.7259
  251MOL0     C34507   2.444   2.916   3.358  0.3362  0.9359  0.4388
  251MOL0     O34508   2.474   2.979   3.243  0.0698  0.6643 -0.3514
  251MOL0     C34509   2.455   3.124   3.228 -0.5153  0.0724 -0.3310
  251MOL0     C34510   2.470   3.157   3.081 -0.1886 -0.1187  1.1080
  251MOL0     C34511   2.460   3.295   3.034  0.9315 -0.1257  0.2213
  251MOL0     C34512   2.542   3.316   2.912  0.5838  0.1680  0.2989
  251MOL0     C34513   2.519   3.462   2.858 -0.8311  0.3983  0.2222
  251MOL0     C34514   2.570   3.479   2.698 -1.2248  0.4291  0.3413
  251MOL0     C34515   2.723   3.476   2.693 -0.8801 -0.1840  0.2529
  251MOL0     C34516   2.775   3.475   2.553  0.1119 -0.6242  0.3812
  251MOL0     N34517   2.906   3.521   2.521 -0.1395 -0.0899  0.3797
  251MOL0     C34518   2.956   3.646   2.530 -0.3199 -0.7131 -0.6504
  251MOL0     C34519   3.091   3.624   2.534 -0.6038  0.2821  0.9205
  251MOL0     C34520   3.201   3.725   2.551 -0.7987  0.0912 -0.4909
  251MOL0     C34521   3.335   3.661   2.594  0.0288  0.3675 -0.3323
  251MOL0     C34522   3.439   3.775   2.620  0.5892 -0.5240 -0.6032
  251MOL0     C34523   3.440   3.814   2.775  0.5417 -0.5374  0.2274
  251MOL0     O34524   3.510   3.711   2.838 -0.0810  0.2911  0.0876
  251MOL0     C34525   3.498   3.698   2.972  0.5397  0.1528 -0.5417
  251MOL0     C34526   3.454   3.571   3.016  0.0747  0.0660 -1.0956
  251MOL0     C34527   3.440   3.548   3.155  0.1063 -0.6537 -1.3577
  251MOL0     C34528   3.376   3.423   3.187  0.3564  0.1226 -0.0949
  251MOL0     C34529   3.486   3.642   3.249  0.7186 -0.0678  0.1212
  251MOL0     C34530   3.456   3.637   3.400 -0.6510  0.0360  0.0149
  251MOL0     O34531   3.343   3.590   3.429  0.6457 -0.4882  0.2836
  251MOL0     C34532   3.305   3.552   3.552 -0.5843  1.0360 -0.8821
  251MOL0     C34533   3.382   3.465   3.635  0.7288  0.2482  0.8024
  251MOL0     C34534   3.337   3.422   3.768  1.6710  0.4830 -0.3565
  251MOL0     C34535   3.204   3.456   3.810  0.0255 -0.4566  0.2552
  251MOL0     O34536   3.139   3.387   3.913  0.3901 -0.5646 -1.3591
  251MOL0     C34537   3.204   3.382   4.038  0.7101  0.3571  0.6474
  251MOL0     C34538   3.104   3.354   4.149  0.0870 -0.3824 -0.1666
  251MOL0     C34539   2.967   3.289   4.117 -0.4863  0.0422 -0.0451
  251MOL0     C34540   2.862   3.388   4.062  1.2253  0.8569 -0.0228
  251MOL0     C34541   2.743   3.315   4.004  0.0701 -0.6561 -0.0540
  251MOL0     C34542   2.767   3.251   3.857 -0.1843 -0.9671  0.6381
  251MOL0     C34543   2.639   3.185   3.809  0.4115  0.5941  0.3037
  251MOL0     C34544   2.658   3.078   3.705  0.5389  0.2447 -0.3760
  251MOL0    Cl34545   2.700   3.148   3.552 -0.0092 -0.3888 -0.3062
  251MOL0     C34546   3.129   3.536   3.730  0.0756 -0.0178  0.3192
  251MOL0     C34547   3.175   3.586   3.602  0.3097  0.0119  0.8248
  251MOL0     O34548   3.544   3.670   3.482  0.5797  0.8094  0.5879
  251MOL0     C34549   3.547   3.758   3.194 -0.1082  0.0799 -0.2324
  251MOL0     C34550   3.558   3.790   3.060 -0.5157  0.0618 -0.1988
  251MOL0     N34551   3.123   3.495   2.488 -0.2250  0.2057 -0.5112
  251MOL0     N34552   3.003   3.439   2.479 -0.3794 -0.1979  0.4982
  251MOL0     C34553   2.360   2.955   3.464  0.5144 -0.0824 -1.1383
  251MOL0     C34554   2.343   2.877   3.587 -0.5762 -0.4004  0.1720
  251MOL0     C34555   2.423   2.614   3.929 -0.4721 -0.9159  1.1070
  251MOL0     C34556   2.346   2.500   3.908 -0.2959  0.3422  0.2106
  251MOL0     C34557   2.303   2.422   4.012 -0.0547  0.0469  0.8110
  251MOL0     C34558   2.340   2.443   4.148 -0.0875  0.8143 -0.2854
  251MOL0     O34559   2.309   2.352   4.244 -0.9842 -0.0076  0.5927
  251MOL0     C34560   2.404   2.335   4.342 -0.6990  0.0757  0.1716
  251MOL0     C34561   2.370   2.232   4.444  0.0788 -0.5717 -0.0704
  251MOL0     C34562   2.337   2.096   4.382 -0.0883 -1.0030  0.1043
  251MOL0     C34563   2.327   1.992   4.491 -0.4848 -0.3695 -0.4106
  251MOL0     C34564   2.313   1.854   4.446  0.6568 -0.1066  0.3182
  251MOL0     C34565   2.307   1.734   4.416  1.1385 -0.2906  0.4405
  251MOL0     C34566   2.426   2.546   4.169 -0.2479  0.0794 -0.8408
  251MOL0     C34567   2.454   2.640   4.068  0.0938  0.0694  0.4368
  251MOL0     C34568   2.503   2.777   4.121  0.0839 -0.1847  0.0662
  251MOL0     H34569   2.535   2.616   3.508 -0.2400 -0.8476  2.8328
  251MOL0     H34570   2.551   2.740   3.293 -2.5471  1.2740 -1.1145
  251MOL0     H34571   2.533   3.176   3.284 -0.6592 -0.2428  0.1654
  251MOL0     H34572   2.359   3.152   3.273  0.1959 -1.3985  2.3170
  251MOL0     H34573   2.566   3.122   3.043 -1.5704 -1.4677 -1.4113
  251MOL0     H34574   2.396   3.108   3.017 -2.0719  0.1420  2.9787
  251MOL0     H34575   2.354   3.319   3.023  1.7296  4.2516  0.1990
  251MOL0     H34576   2.498   3.360   3.113 -2.4393 -0.1843  2.0587
  251MOL0     H34577   2.649   3.303   2.930  1.0771  1.0638 -1.6933
  251MOL0     H34578   2.515   3.248   2.830  1.0682  1.4828 -0.9923
  251MOL0     H34579   2.579   3.537   2.910  0.7535  0.1257 -1.1119
  251MOL0     H34580   2.413   3.487   2.863 -0.2640  2.9153  1.8420
  251MOL0     H34581   2.515   3.401   2.644 -1.3979  1.4799 -1.0316
  251MOL0     H34582   2.543   3.571   2.647  3.1530  0.8270 -1.6558
  251MOL0     H34583   2.753   3.375   2.722 -0.9364 -1.6322 -4.0413
  251MOL0     H34584   2.773   3.560   2.743  1.8323  1.0437 -3.9380
  251MOL0     H34585   2.754   3.377   2.509  0.4019  0.6848 -2.9888
  251MOL0     H34586   2.705   3.547   2.509  0.2895 -0.1296  0.8964
  251MOL0     H34587   2.897   3.731   2.561  1.8126 -0.1706  2.3606
  251MOL0     H34588   3.172   3.795   2.630 -0.9271  1.2919 -1.5665
  251MOL0     H34589   3.216   3.776   2.455 -0.9025  1.9459  0.4271
  251MOL0     H34590   3.325   3.600   2.684 -1.4074  1.2088  0.1028
  251MOL0     H34591   3.373   3.585   2.525 -2.6940 -3.1260  1.6892
  251MOL0     H34592   3.539   3.733   2.604 -0.0790 -2.1758 -0.6499
  251MOL0     H34593   3.418   3.864   2.559 -0.1960 -0.4957 -0.3098
  251MOL0     H34594   3.492   3.907   2.797 -0.2443 -0.2830  1.0850
  251MOL0     H34595   3.336   3.830   2.807  0.8086  0.5215  0.6086
  251MOL0     H34596   3.427   3.490   2.950  2.4822 -0.5995 -1.3593
  251MOL0     H34597   3.327   3.409   3.284  2.7901 -1.8570  0.9684
  251MOL0     H34598   3.457   3.350   3.183  1.7104  1.5554 -4.4896
  251MOL0     H34599   3.302   3.393   3.112 -0.0821 -1.3649  0.8926
  251MOL0     H34600   3.480   3.427   3.606  0.2003  0.0845 -0.8710
  251MOL0     H34601   3.395   3.362   3.837 -1.9233 -2.0748  0.7241
  251MOL0     H34602   3.285   3.308   4.043  0.5725 -0.1115 -2.3661
  251MOL0     H34603   3.248   3.479   4.060  2.0695 -0.1318  0.1680
  251MOL0     H34604   3.139   3.290   4.231 -1.9594  0.2996  1.3430
  251MOL0     H34605   3.085   3.450   4.199  0.8493 -0.2908 -0.0351
  251MOL0     H34606   2.927   3.253   4.212  1.3118 -0.0704  0.6896
  251MOL0     H34607   2.982   3.204   4.049 -1.0252  0.3539 -0.5758
  251MOL0     H34608   2.896   3.461   3.988 -1.4109  3.0780  0.7820
  251MOL0     H34609   2.832   3.457   4.141  2.1676  1.6478 -0.3359
  251MOL0     H34610   2.716   3.241   4.079  1.2892 -3.4635 -2.1868
  251MOL0     H34611   2.662   3.387   3.988  0.9457  0.4794  0.5244
  251MOL0     H34612   2.848   3.177   3.863  0.5200 -0.2967 -0.4851
  251MOL0     H34613   2.807   3.326   3.789  0.1416  0.3862  2.2527
  251MOL0     H34614   2.578   3.262   3.761  0.7003 -1.3603 -3.6301
  251MOL0     H34615   2.591   3.142   3.898  2.3001 -1.9087  0.2214
  251MOL0     H34616   2.571   3.017   3.683 -1.6700  2.4079  1.6551
  251MOL0     H34617   2.741   3.015   3.738  1.6913  0.6368 -2.3550
  251MOL0     H34618   3.030   3.554   3.772  0.2645 -0.6410  1.0382
  251MOL0     H34619   3.100   3.650   3.557  0.8603  1.6839  2.1871
  251MOL0     H34620   3.619   3.812   3.254  1.8967 -0.1802 -2.3005
  251MOL0     H34621   3.602   3.883   3.027 -0.7753 -0.5076 -2.2731
  251MOL0     H34622   2.306   3.048   3.450 -0.4717 -0.0284  2.1112
  251MOL0     H34623   2.287   2.921   3.669  0.8490 -1.2493  1.6896
  251MOL0     H34624   2.310   2.463   3.812  3.8039 -1.3113 -0.9107
  251MOL0     H34625   2.230   2.342   4.009 -0.2842  0.2573  0.7082
  251MOL0     H34626   2.493   2.311   4.283  1.0680  1.7219  1.9889
  251MOL0     H34627   2.432   2.425   4.399 -2.1750  0.4457  0.3431
  251MOL0     H34628   2.283   2.260   4.504  0.4640 -0.9915  0.7050
  251MOL0     H34629   2.459   2.225   4.507 -0.6101 -3.6159  0.7106
  251MOL0     H34630   2.236   2.118   4.346 -0.5758 -0.2313  1.8577
  251MOL0     H34631   2.403   2.050   4.307 -0.8125 -0.6362 -0.7783
  251MOL0     H34632   2.236   2.018   4.545  0.2478  2.0658 -0.2390
  251MOL0     H34633   2.414   1.998   4.557 -0.8631  1.0219 -0.0009
  251MOL0     H34634   2.300   1.627   4.404 -1.7960 -0.0520 -0.8382
  251MOL0     H34635   2.457   2.572   4.270  1.7037 -4.2494 -0.1161
  251MOL0     H34636   2.476   2.861   4.057  0.4878 -2.1211 -2.8268
  251MOL0     H34637   2.472   2.804   4.222 -3.5049  0.9471 -1.1872
  251MOL0     H34638   2.612   2.785   4.117  0.0044  2.8986  1.2889
  252MOL0     O34639   5.684   0.344  10.399 -0.3523 -0.5622  0.1241
  252MOL0     C34640   5.734   0.230  10.367  0.9857 -0.2332  0.1902
  252MOL0     O34641   5.859   0.208  10.339  0.0921 -0.3201  0.1098
  252MOL0     C34642   5.948   0.318  10.326 -0.0170 -0.5558  0.6312
  252MOL0     C34643   6.032   0.315  10.213 -0.6278  0.7373 -0.3220
  252MOL0     C34644   6.121   0.418  10.190 -0.1904  0.0635  0.2308
  252MOL0     C34645   6.156   0.514  10.293 -0.2947  0.1912  0.6056
  252MOL0     O34646   6.243   0.616  10.274  0.3823  0.7841  0.2349
  252MOL0     C34647   6.359   0.579  10.199 -0.0146  0.4725 -0.5075
  252MOL0     C34648   6.466   0.679  10.219 -1.0264  0.1774  0.2711
  252MOL0     C34649   6.546   0.641  10.342 -0.3588  0.1216  0.5102
  252MOL0     C34650   6.647   0.743  10.402  0.8386  0.1610  0.2168
  252MOL0     C34651   6.742   0.680  10.512 -0.0919 -0.6726  0.7823
  252MOL0     C34652   6.819   0.795  10.591 -1.0481  0.8134  0.4294
  252MOL0     C34653   6.727   0.902  10.662  0.7174  0.1939  0.5205
  252MOL0     C34654   6.617   0.851  10.759  0.3408  0.0510 -0.4164
  252MOL0     N34655   6.663   0.868  10.897 -0.0588  0.8132  0.1272
  252MOL0     C34656   6.602   0.801  11.002  0.9027 -0.1167 -0.3582
  252MOL0     C34657   6.657   0.862  11.107 -0.4520 -0.0233 -1.0035
  252MOL0     C34658   6.632   0.816  11.247  0.9346  0.3599  0.4813
  252MOL0     C34659   6.481   0.837  11.277 -0.6183 -0.0758  0.3618
  252MOL0     C34660   6.467   0.982  11.315 -0.4932 -0.1922  0.3454
  252MOL0     C34661   6.342   0.991  11.398 -0.0298 -0.3404  0.0815
  252MOL0     O34662   6.315   1.116  11.452  0.7310 -1.2295 -0.2800
  252MOL0     C34663   6.203   1.126  11.538  0.1554  0.6732  0.5498
  252MOL0     C34664   6.207   1.248  11.607  0.7291 -0.7228  0.3931
  252MOL0     C34665   6.107   1.281  11.698  0.6047  0.1975  0.5714
  252MOL0     C34666   6.120   1.413  11.776 -0.2622  0.4143 -0.0416
  252MOL0     C34667   6.002   1.182  11.726  0.8117  0.6129  0.0316
  252MOL0     C34668   5.888   1.206  11.811 -1.5594 -0.3476 -1.0469
  252MOL0     O34669   5.908   1.286  11.924 -0.4838 -0.4956 -0.4057
  252MOL0     C34670   5.794   1.320  11.989  0.3822  0.3064 -0.0707
  252MOL0     C34671   5.779   1.291  12.123  0.0546  0.2671  0.8105
  252MOL0     C34672   5.673   1.344  12.197 -0.7513  1.0582 -0.0225
  252MOL0     C34673   5.570   1.417  12.138 -1.2294  0.3166  0.2768
  252MOL0     O34674   5.452   1.463  12.184 -1.0899  0.5441  0.6437
  252MOL0     C34675   5.416   1.441  12.323  0.3108 -0.3171  0.2159
  252MOL0     C34676   5.278   1.503  12.352  0.9392 -0.6659 -0.1245
  252MOL0     C34677   5.212   1.484  12.489  0.3036 -0.1852  0.7837
  252MOL0     C34678   5.181   1.338  12.521 -0.3457  0.0041 -0.4984
  252MOL0     C34679   5.092   1.322  12.650  0.2448 -0.1796 -0.0493
  252MOL0     C34680   4.940   1.368  12.626 -0.9661  1.4969  0.0768
  252MOL0     C34681   4.864   1.363  12.758 -0.1221 -1.0200 -0.3218
  252MOL0     C34682   4.717   1.378  12.738 -0.2746 -0.0399 -0.3612
  252MOL0    Cl34683   4.655   1.540  12.685 -0.3507 -0.2851 -0.3523
  252MOL0     C34684   5.593   1.450  12.003  1.0106 -1.4878 -0.2261
  252MOL0     C34685   5.699   1.399  11.929 -0.3849  0.1685 -0.3904
  252MOL0     O34686   5.780   1.166  11.764 -0.7536 -0.3770  1.4771
  252MOL0     C34687   6.006   1.062  11.661  0.5974  0.0855  0.7753
  252MOL0     C34688   6.103   1.030  11.569  1.2546 -0.7738 -0.0025
  252MOL0     N34689   6.723   0.976  11.077 -0.4158 -0.4386  0.4956
  252MOL0     N34690   6.723   0.981  10.948  0.3634  0.2643  0.3329
  252MOL0     C34691   6.069   0.514  10.404 -0.4726  0.0769  0.0043
  252MOL0     C34692   5.960   0.419  10.422 -0.4552  0.0421  0.2441
  252MOL0     C34693   5.650   0.101  10.339  0.2401  0.3305  0.5486
  252MOL0     C34694   5.703  -0.030  10.357  0.2709 -0.2020 -0.4426
  252MOL0     C34695   5.608  -0.139  10.358  0.2750 -0.1494 -0.0977
  252MOL0     C34696   5.467  -0.119  10.335  0.4719  1.0149  0.7821
  252MOL0     O34697   5.388  -0.228  10.360 -0.6014 -0.1778 -0.4656
  252MOL0     C34698   5.314  -0.226  10.482 -0.9653  1.2929 -0.3859
  252MOL0     C34699   5.391  -0.322  10.582 -0.1255 -0.2778 -0.0167
  252MOL0     C34700   5.355  -0.471  10.551 -0.7492  0.1787  0.1508
  252MOL0     C34701   5.437  -0.577  10.634  0.0001  0.2462  1.0518
  252MOL0     C34702   5.571  -0.583  10.558 -0.3625 -0.1743 -1.1207
  252MOL0     C34703   5.689  -0.593  10.523  0.1797  0.6199  0.5551
  252MOL0     C34704   5.425   0.003  10.289  0.6987 -0.4207 -0.1076
  252MOL0     C34705   5.514   0.115  10.299 -0.3501  1.0313 -0.1449
  252MOL0     C34706   5.446   0.246  10.273 -0.7011  0.4302  0.2890
  252MOL0     H34707   6.022   0.227  10.151 -0.2666 -0.2434  0.9794
  252MOL0     H34708   6.171   0.406  10.095  0.0400 -2.5572  0.6044
  252MOL0     H34709   6.333   0.590  10.094  0.6424  0.7996 -0.6378
  252MOL0     H34710   6.396   0.481  10.229 -2.6029 -0.5481 -0.3891
  252MOL0     H34711   6.525   0.679  10.127  0.5309  2.7320  1.1349
  252MOL0     H34712   6.419   0.778  10.217 -1.8848 -0.1957  1.3128
  252MOL0     H34713   6.463   0.625  10.411 -1.0061  1.3044  0.0396
  252MOL0     H34714   6.593   0.543  10.338  0.7223  0.6212  0.6434
  252MOL0     H34715   6.706   0.779  10.317 -2.4246  1.2251 -1.7582
  252MOL0     H34716   6.584   0.825  10.436  0.6149  0.4070 -0.7694
  252MOL0     H34717   6.815   0.615  10.463 -2.6735 -1.9633 -1.6054
  252MOL0     H34718   6.694   0.618  10.588 -0.1667 -0.1670  1.1545
  252MOL0     H34719   6.881   0.756  10.673  0.4634  0.1662 -0.9726
  252MOL0     H34720   6.888   0.846  10.523  0.6810 -0.9430  0.7760
  252MOL0     H34721   6.666   0.950  10.584 -0.9554 -2.4172  0.0876
  252MOL0     H34722   6.798   0.974  10.703  1.1473  0.7956 -1.1873
  252MOL0     H34723   6.526   0.911  10.754  1.0163  1.0035 -3.7426
  252MOL0     H34724   6.597   0.746  10.734  1.3309  0.0683 -1.3338
  252MOL0     H34725   6.551   0.706  10.993 -1.5282  1.1156 -0.3249
  252MOL0     H34726   6.699   0.868  11.317 -0.4557  0.4035  1.8456
  252MOL0     H34727   6.639   0.708  11.261  0.5218  0.2680 -0.0136
  252MOL0     H34728   6.412   0.824  11.192 -1.5054  1.4580  0.8071
  252MOL0     H34729   6.448   0.763  11.350  1.9932  0.0926  1.8030
  252MOL0     H34730   6.552   1.016  11.376  0.7415  1.2599 -2.0518
  252MOL0     H34731   6.469   1.039  11.222  2.0338  2.8528  2.0619
  252MOL0     H34732   6.257   0.964  11.335 -1.8923 -0.1564  2.3785
  252MOL0     H34733   6.349   0.913  11.474  0.2306  1.4264  1.9560
  252MOL0     H34734   6.284   1.320  11.581 -1.1446  0.9888 -0.6888
  252MOL0     H34735   6.022   1.458  11.796  0.1592  0.1845  2.9122
  252MOL0     H34736   6.184   1.481  11.719 -1.2228  0.8290 -0.6551
  252MOL0     H34737   6.168   1.386  11.870  0.6604  0.5040 -0.4739
  252MOL0     H34738   5.858   1.245  12.181  1.0567  1.4238  0.3970
  252MOL0     H34739   5.663   1.325  12.303 -3.3889 -1.8239 -0.6619
  252MOL0     H34740   5.408   1.332  12.334 -0.4819 -0.1552  1.3714
  252MOL0     H34741   5.491   1.488  12.387 -1.7339 -0.1683  2.6497
  252MOL0     H34742   5.298   1.611  12.346 -1.5573 -0.1710 -0.5738
  252MOL0     H34743   5.207   1.488  12.271  1.7860  0.8787 -1.2176
  252MOL0     H34744   5.121   1.543  12.482  0.0615 -0.7699 -1.8703
  252MOL0     H34745   5.282   1.540  12.552  2.6078 -0.2650 -1.5260
  252MOL0     H34746   5.278   1.292  12.542  0.0930  1.4566  0.8325
  252MOL0     H34747   5.137   1.289  12.434 -1.1418  3.3728 -2.1569
  252MOL0     H34748   5.115   1.221  12.684  2.6841  0.5666  0.7289
  252MOL0     H34749   5.132   1.384  12.731 -0.0696  1.4642 -1.1024
  252MOL0     H34750   4.886   1.316  12.547  0.6125  1.7073 -1.1720
  252MOL0     H34751   4.932   1.471  12.590 -5.3130  1.9904  1.7659
  252MOL0     H34752   4.916   1.426  12.830 -2.9996  1.1860  0.0370
  252MOL0     H34753   4.862   1.259  12.792 -2.7303 -1.0776 -0.4093
  252MOL0     H34754   4.665   1.349  12.830 -0.1061  2.1895  0.5053
  252MOL0     H34755   4.707   1.304  12.659  2.6233 -1.2223  0.2697
  252MOL0     H34756   5.515   1.505  11.951  4.4702  2.2335 -2.0252
  252MOL0     H34757   5.715   1.426  11.826  0.5046  0.0528 -0.2865
  252MOL0     H34758   5.920   0.998  11.675  0.7640  0.4104  3.8936
  252MOL0     H34759   6.084   0.932  11.527 -1.8932  0.0815 -0.8122
  252MOL0     H34760   6.087   0.597  10.472 -0.0896 -1.5253  1.9433
  252MOL0     H34761   5.897   0.434  10.509  0.0978  1.3521  0.4249
  252MOL0     H34762   5.806  -0.034  10.393 -0.3753  3.3901  2.4339
  252MOL0     H34763   5.651  -0.235  10.386 -2.9013 -2.1026 -1.3103
  252MOL0     H34764   5.311  -0.123  10.520 -2.4786  0.2797  2.4702
  252MOL0     H34765   5.210  -0.256  10.466 -1.0988  1.9403 -0.7842
  252MOL0     H34766   5.355  -0.287  10.679  1.0330  2.8959 -0.6039
  252MOL0     H34767   5.499  -0.306  10.568  0.1267 -1.7508  0.0696
  252MOL0     H34768   5.249  -0.480  10.578 -1.2821 -0.9168 -2.0585
  252MOL0     H34769   5.357  -0.490  10.443 -0.7566 -2.7073  0.5874
  252MOL0     H34770   5.396  -0.678  10.626  1.3272 -0.2745  0.5080
  252MOL0     H34771   5.445  -0.553  10.740  2.2728 -0.0309  0.9907
  252MOL0     H34772   5.791  -0.604  10.492  0.2673  1.5781  0.4659
  252MOL0     H34773   5.318   0.018  10.275  0.1448  3.2981  5.0562
  252MOL0     H34774   5.353   0.242  10.216  1.3325  0.4999 -3.3362
  252MOL0     H34775   5.432   0.312  10.359 -1.8701 -1.2961  1.4877
  252MOL0     H34776   5.514   0.301  10.207 -0.3040  1.5724  1.5876
  253MOL0     O34777   4.350   4.193   7.565 -0.8277 -0.6972 -0.4967
  253MOL0     C34778   4.463   4.169   7.613  0.1884  0.2832  0.0210
  253MOL0     O34779   4.569   4.138   7.537 -0.2311 -0.4284 -0.9151
  253MOL0     C34780   4.568   4.112   7.406 -0.3148  0.2142  0.6754
  253MOL0     C34781   4.555   3.984   7.347  0.1736  0.5195  0.6633
  253MOL0     C34782   4.550   3.973   7.206 -0.0713  0.1317 -0.3980
  253MOL0     C34783   4.584   4.083   7.129  0.4511  0.4257  0.3815
  253MOL0     O34784   4.578   4.049   6.996  0.8197  0.1730 -0.1035
  253MOL0     C34785   4.627   4.140   6.902 -1.1858  0.4190 -0.0061
  253MOL0     C34786   4.596   4.084   6.764 -0.2601  0.5491 -0.7395
  253MOL0     C34787   4.689   4.148   6.652  1.0128  0.1156 -0.8325
  253MOL0     C34788   4.835   4.112   6.641 -0.0296  1.0577  0.5317
  253MOL0     C34789   4.909   4.213   6.544 -0.2712 -0.1546  0.7060
  253MOL0     C34790   5.056   4.183   6.549 -0.5986  0.5379 -1.2164
  253MOL0     C34791   5.102   4.046   6.516  0.1942  0.5846  0.0777
  253MOL0     C34792   5.180   4.050   6.391 -1.1291 -0.0205 -0.6715
  253MOL0     N34793   5.280   3.941   6.386 -0.8028  0.2466  0.1787
  253MOL0     C34794   5.394   3.930   6.465 -0.1966  0.4799  0.1834
  253MOL0     C34795   5.451   3.813   6.420  1.0785 -0.9455  0.9797
  253MOL0     C34796   5.579   3.747   6.460  1.1413  0.7053 -0.4173
  253MOL0     C34797   5.696   3.832   6.434  0.9937 -0.0104 -0.2230
  253MOL0     C34798   5.792   3.854   6.552  1.2512  0.6443  0.5229
  253MOL0     C34799   5.729   3.947   6.658  0.3008 -0.3863 -0.8674
  253MOL0     O34800   5.734   4.076   6.605  0.0996 -0.0296 -1.0787
  253MOL0     C34801   5.644   4.168   6.675  0.1895  0.2298  0.1605
  253MOL0     C34802   5.605   4.276   6.595 -0.2680  0.8184  0.4189
  253MOL0     C34803   5.495   4.357   6.624 -1.5124 -1.0526  0.7419
  253MOL0     C34804   5.445   4.454   6.529  0.1645  0.1396  0.3270
  253MOL0     C34805   5.437   4.344   6.754  1.3725 -0.2677 -0.7582
  253MOL0     C34806   5.346   4.442   6.817  0.1306  0.2345 -0.4455
  253MOL0     O34807   5.342   4.564   6.774  0.6201 -0.6287 -0.5304
  253MOL0     C34808   5.257   4.659   6.834  0.4050  0.3894  0.2962
  253MOL0     C34809   5.304   4.774   6.904 -0.3059 -1.4474  0.2713
  253MOL0     C34810   5.215   4.882   6.927  1.0369  0.6079 -0.5527
  253MOL0     C34811   5.080   4.867   6.906  0.4919 -0.2523  0.2378
  253MOL0     O34812   4.987   4.966   6.909  0.2336  0.1010 -0.4400
  253MOL0     C34813   4.948   5.007   7.044 -0.3503  0.8827 -0.1383
  253MOL0     C34814   4.936   5.158   7.057 -0.1487 -0.3045 -0.6838
  253MOL0     C34815   4.951   5.199   7.202 -0.4068 -0.3808 -0.4903
  253MOL0     C34816   4.831   5.177   7.299 -0.7182 -0.5701  0.6799
  253MOL0     C34817   4.842   5.277   7.415  0.5339  0.5287 -1.2169
  253MOL0     C34818   4.817   5.423   7.382  0.2696  0.5016  0.2216
  253MOL0     C34819   4.919   5.519   7.432 -0.0590  0.4194  0.1538
  253MOL0     C34820   4.844   5.660   7.429 -0.5624 -1.2060 -0.6455
  253MOL0    Cl34821   4.958   5.799   7.438  0.2049  0.3314 -0.3878
  253MOL0     C34822   5.027   4.750   6.857  0.3411 -0.6341 -0.6546
  253MOL0     C34823   5.116   4.647   6.825 -0.4680  0.3275 -0.0576
  253MOL0     O34824   5.272   4.396   6.897  1.0501  1.0166  0.3371
  253MOL0     C34825   5.474   4.242   6.837 -0.1505  0.1298  0.3132
  253MOL0     C34826   5.581   4.154   6.797 -0.9301 -0.5451  0.7860
  253MOL0     N34827   5.385   3.760   6.314  1.2218  0.0920  0.6038
  253MOL0     N34828   5.284   3.835   6.297  0.4641 -0.6658  0.1709
  253MOL0     C34829   4.611   4.209   7.185 -0.8220  0.3732 -0.4246
  253MOL0     C34830   4.616   4.214   7.324 -0.0568  1.0649  0.5316
  253MOL0     C34831   4.481   4.177   7.764 -0.2852  0.3747 -0.3038
  253MOL0     C34832   4.598   4.224   7.812 -0.1124 -0.6118  0.0519
  253MOL0     C34833   4.630   4.239   7.941 -0.3011  0.2133 -0.0679
  253MOL0     C34834   4.537   4.211   8.042  0.1284  0.0425 -0.3713
  253MOL0     O34835   4.573   4.226   8.177 -0.0332  0.8262 -0.1941
  253MOL0     C34836   4.484   4.171   8.279  0.9041 -0.9040  0.3480
  253MOL0     C34837   4.535   4.199   8.414  0.4291  0.3901 -1.5416
  253MOL0     C34838   4.430   4.166   8.528 -0.2077  0.0851 -0.1489
  253MOL0     C34839   4.400   4.027   8.544 -0.2564  0.2242  0.4035
  253MOL0     C34840   4.324   3.998   8.663  0.0362 -0.7067  0.6223
  253MOL0     C34841   4.260   3.952   8.759 -1.0607  0.6362  0.8312
  253MOL0     C34842   4.420   4.160   7.994 -0.1465  0.0432  0.4688
  253MOL0     C34843   4.385   4.147   7.862 -0.2670  0.7110  0.9459
  253MOL0     C34844   4.260   4.077   7.819 -0.4226 -0.2612  0.1046
  253MOL0     H34845   4.530   3.899   7.409 -0.1347 -0.2052 -0.4415
  253MOL0     H34846   4.539   3.876   7.158 -0.9672 -0.1045  0.2464
  253MOL0     H34847   4.734   4.145   6.920 -1.0490  0.6309 -0.8541
  253MOL0     H34848   4.576   4.237   6.894 -2.9200 -0.5570 -1.9276
  253MOL0     H34849   4.616   3.977   6.763  3.2233  1.0518  0.9854
  253MOL0     H34850   4.491   4.096   6.737 -0.4654  0.8784  0.1815
  253MOL0     H34851   4.640   4.144   6.554 -0.6776  0.4379 -0.0320
  253MOL0     H34852   4.701   4.255   6.668  3.2567  0.0186 -1.5738
  253MOL0     H34853   4.880   4.119   6.740 -0.4339  1.3967  0.6976
  253MOL0     H34854   4.834   4.006   6.613  1.9316  1.0932  0.1915
  253MOL0     H34855   4.888   4.308   6.593  1.5977  0.4580  0.4082
  253MOL0     H34856   4.866   4.209   6.444  0.3343  1.1768  0.3797
  253MOL0     H34857   5.105   4.256   6.484  0.2772  0.5055 -0.6009
  253MOL0     H34858   5.086   4.197   6.653  0.1277  0.0585 -1.3604
  253MOL0     H34859   5.031   3.963   6.512  0.8571  0.0514 -2.0126
  253MOL0     H34860   5.181   4.026   6.589  0.9895  2.9846 -0.0210
  253MOL0     H34861   5.106   4.040   6.311  0.9152  0.1065 -2.6834
  253MOL0     H34862   5.239   4.142   6.390 -0.2533 -0.4939  1.7221
  253MOL0     H34863   5.418   3.995   6.549  1.1015 -0.1844  0.3463
  253MOL0     H34864   5.592   3.659   6.396  0.2969 -0.7611  1.3445
  253MOL0     H34865   5.579   3.694   6.555  0.2586  1.5151  0.0511
  253MOL0     H34866   5.747   3.783   6.350  2.0422  0.1604  0.2956
  253MOL0     H34867   5.667   3.936   6.417  3.5582  1.2706  2.3942
  253MOL0     H34868   5.820   3.760   6.600  2.3032  1.0668  0.7622
  253MOL0     H34869   5.888   3.894   6.518  0.5399  0.6913 -1.5766
  253MOL0     H34870   5.626   3.928   6.689  0.4665 -1.1724 -0.7655
  253MOL0     H34871   5.793   3.956   6.746 -0.2429 -1.7343 -0.3118
  253MOL0     H34872   5.659   4.295   6.502 -1.2242  3.4767  0.2939
  253MOL0     H34873   5.450   4.556   6.570 -0.4683  0.0536  0.6313
  253MOL0     H34874   5.346   4.423   6.497 -0.1441  0.8288  0.5879
  253MOL0     H34875   5.512   4.451   6.442  0.4288  0.7878  0.5007
  253MOL0     H34876   5.408   4.799   6.923 -0.7965  1.3722 -0.3159
  253MOL0     H34877   5.246   4.978   6.964 -2.3248  1.4405  0.4534
  253MOL0     H34878   4.848   4.969   7.063 -1.0412  1.1360 -2.9101
  253MOL0     H34879   5.023   4.967   7.114  0.2758  1.8301 -0.2450
  253MOL0     H34880   5.006   5.207   6.988 -1.3342 -2.9561 -4.0695
  253MOL0     H34881   4.845   5.205   7.017  1.5200  2.4619 -1.5116
  253MOL0     H34882   4.968   5.307   7.202 -2.5312  0.0614  2.3428
  253MOL0     H34883   5.039   5.155   7.250  0.4276  2.5410  0.8420
  253MOL0     H34884   4.829   5.076   7.342  0.0213 -0.5715  0.7142
  253MOL0     H34885   4.744   5.203   7.238  1.4786  4.1952 -0.9201
  253MOL0     H34886   4.760   5.248   7.480 -1.1458  2.7545 -2.1953
  253MOL0     H34887   4.941   5.271   7.461 -0.6519  3.5515  2.2388
  253MOL0     H34888   4.726   5.454   7.434  0.4666  0.8904  0.3350
  253MOL0     H34889   4.799   5.429   7.274  0.9683  0.0956  0.0697
  253MOL0     H34890   5.005   5.507   7.365  1.2495  1.2024  1.6084
  253MOL0     H34891   4.950   5.506   7.536 -0.4838  5.0278  1.0765
  253MOL0     H34892   4.784   5.674   7.520  0.6389 -0.9216  0.1313
  253MOL0     H34893   4.767   5.667   7.352 -0.7174  0.3739 -0.3761
  253MOL0     H34894   4.919   4.745   6.846  0.0909  3.0578 -0.9003
  253MOL0     H34895   5.080   4.552   6.785 -0.3746 -1.0449  2.8423
  253MOL0     H34896   5.437   4.232   6.939  1.7925  1.4812  1.2069
  253MOL0     H34897   5.614   4.072   6.860 -3.2334 -0.3168  2.4027
  253MOL0     H34898   4.642   4.294   7.125 -1.1547 -0.5924 -1.9986
  253MOL0     H34899   4.641   4.309   7.372  1.4665  0.6629  0.5875
  253MOL0     H34900   4.664   4.259   7.732 -0.1830 -1.3999 -0.3614
  253MOL0     H34901   4.725   4.285   7.967 -1.2906  1.6518  1.1903
  253MOL0     H34902   4.387   4.222   8.271  0.9066 -0.3889  2.6356
  253MOL0     H34903   4.471   4.062   8.273  0.0579 -0.7228 -3.2408
  253MOL0     H34904   4.570   4.303   8.421  2.1310  0.0446 -3.8357
  253MOL0     H34905   4.618   4.128   8.418 -0.2731 -0.4463 -1.7217
  253MOL0     H34906   4.460   4.200   8.627  2.2696 -1.7509 -0.1938
  253MOL0     H34907   4.337   4.218   8.501 -0.9873  0.1224  2.3494
  253MOL0     H34908   4.487   3.961   8.550  0.1144  0.8088  2.0667
  253MOL0     H34909   4.343   4.004   8.454  2.1428  2.5178 -1.8867
  253MOL0     H34910   4.235   3.889   8.841  1.1484 -2.1239 -0.4184
  253MOL0     H34911   4.346   4.128   8.067 -1.1145  1.6528  0.2407
  253MOL0     H34912   4.200   4.035   7.901 -0.4887  2.8845  1.8166
  253MOL0     H34913   4.211   4.154   7.760  2.0805  1.7752  0.4942
  253MOL0     H34914   4.275   3.998   7.744  0.2747  1.5937 -1.8057
  254MOL0     O34915   9.924   5.557   9.271  0.3849 -0.3640  0.6851
  254MOL0     C34916   9.880   5.674   9.303 -1.0563  0.4714  0.8267
  254MOL0     O34917   9.848   5.774   9.215 -0.6377  0.3694 -0.4236
  254MOL0     C34918   9.880   5.741   9.087 -0.0355  1.1325  0.0186
  254MOL0     C34919   9.808   5.642   9.023 -0.1972 -0.2032  0.1243
  254MOL0     C34920   9.839   5.601   8.891  0.5247 -0.3828  0.3367
  254MOL0     C34921   9.947   5.659   8.820  0.0691  0.4674  0.4505
  254MOL0     O34922   9.976   5.621   8.687  0.5152  0.6912  0.2208
  254MOL0     C34923  10.029   5.481   8.677 -0.7222 -0.2546 -0.5971
  254MOL0     C34924  10.179   5.499   8.704  0.2244  0.6349 -0.5939
  254MOL0     C34925  10.262   5.488   8.577 -0.0416  0.4397  0.0268
  254MOL0     C34926  10.403   5.459   8.587  0.0241  0.1997 -0.4298
  254MOL0     C34927  10.450   5.332   8.670  1.0354 -0.4907 -0.9879
  254MOL0     C34928  10.606   5.317   8.685  0.7902  0.1742 -0.4619
  254MOL0     C34929  10.661   5.268   8.547 -0.4772 -0.5271 -0.3204
  254MOL0     C34930  10.606   5.141   8.502  0.0682 -0.5715  0.5267
  254MOL0     N34931  10.626   5.023   8.583  0.0884  0.4002 -0.5086
  254MOL0     C34932  10.741   4.983   8.659  0.2534 -0.2357  0.0117
  254MOL0     C34933  10.691   4.870   8.717  0.3982 -0.0180 -0.2381
  254MOL0     C34934  10.780   4.783   8.811  0.4072 -0.3663 -0.1621
  254MOL0     C34935  10.880   4.708   8.721 -1.0040  0.6545 -1.1847
  254MOL0     C34936  10.935   4.582   8.793  0.5774 -1.0291  0.4227
  254MOL0     C34937  11.049   4.616   8.885  0.4361  0.1768  0.2009
  254MOL0     O34938  11.086   4.502   8.971  0.1417  0.0170 -0.6919
  254MOL0     C34939  11.178   4.523   9.070  0.0897 -0.8841 -0.2207
  254MOL0     C34940  11.259   4.641   9.076  0.0193 -0.4717  0.4963
  254MOL0     C34941  11.358   4.662   9.171 -0.6268  0.3036  0.9335
  254MOL0     C34942  11.441   4.783   9.152  1.3149  0.5404 -0.5932
  254MOL0     C34943  11.387   4.561   9.269 -0.0186  0.0362 -0.2433
  254MOL0     C34944  11.491   4.579   9.386 -0.2393  0.0859 -0.0268
  254MOL0     O34945  11.515   4.468   9.463  0.1591 -0.2830 -0.6934
  254MOL0     C34946  11.641   4.457   9.527  0.8951 -0.8833  0.1121
  254MOL0     C34947  11.629   4.421   9.663  0.5992  0.5957  0.4254
  254MOL0     C34948  11.732   4.440   9.752  0.1390  0.6394  0.1511
  254MOL0     C34949  11.864   4.466   9.717 -0.0402  0.4652  0.3447
  254MOL0     O34950  11.965   4.460   9.807 -1.0810  0.1075  0.3462
  254MOL0     C34951  12.068   4.558   9.786 -0.0317 -0.7720 -0.7802
  254MOL0     C34952  12.145   4.580   9.915 -0.5727 -0.4694 -0.6865
  254MOL0     C34953  12.268   4.488   9.933  0.0421  0.3352 -0.4283
  254MOL0     C34954  12.373   4.556  10.027  0.2510  0.1539  0.1130
  254MOL0     C34955  12.508   4.483  10.042  0.3927  0.6656  0.3468
  254MOL0     C34956  12.501   4.354  10.119 -0.0171  1.0015  0.1238
  254MOL0     C34957  12.467   4.347  10.274 -1.0682  0.5321 -0.0066
  254MOL0     C34958  12.579   4.402  10.364  0.0343 -0.2549  0.1022
  254MOL0    Cl34959  12.736   4.343  10.331 -0.4583 -0.0999 -0.3321
  254MOL0     C34960  11.879   4.494   9.575 -0.4708  0.2590  0.2813
  254MOL0     C34961  11.770   4.486   9.483 -0.8078  0.1477 -0.6103
  254MOL0     O34962  11.553   4.689   9.401  0.1417  0.3473 -0.8089
  254MOL0     C34963  11.306   4.447   9.267 -1.3887  0.8529  0.8128
  254MOL0     C34964  11.204   4.423   9.166 -0.0358  0.0738 -0.0902
  254MOL0     N34965  10.557   4.846   8.691 -0.1950 -0.0191 -0.2530
  254MOL0     N34966  10.522   4.944   8.622 -0.7851 -0.5264  0.2288
  254MOL0     C34967  10.008   5.766   8.884  0.4831 -0.3804 -0.0027
  254MOL0     C34968   9.976   5.800   9.012 -0.7973  0.1590 -0.1846
  254MOL0     C34969   9.858   5.690   9.459 -0.1942 -0.8765  0.3546
  254MOL0     C34970   9.824   5.828   9.490 -0.7108 -0.0950  0.4282
  254MOL0     C34971   9.795   5.864   9.614  0.2701 -0.6640 -0.2465
  254MOL0     C34972   9.807   5.778   9.722  0.1399 -0.0087 -0.3508
  254MOL0     O34973   9.792   5.811   9.857  0.0735  0.1732  1.2792
  254MOL0     C34974   9.794   5.952   9.897 -0.3027 -0.4681 -0.9450
  254MOL0     C34975   9.718   5.978  10.026  0.1229 -0.3538  0.7429
  254MOL0     C34976   9.774   5.892  10.139 -0.4096  0.3973 -0.6666
  254MOL0     C34977   9.706   5.925  10.273  0.1789 -0.1851 -0.6598
  254MOL0     C34978   9.561   5.922  10.283 -0.0553 -0.5859 -0.8357
  254MOL0     C34979   9.439   5.913  10.267 -0.0414 -0.5735 -0.3826
  254MOL0     C34980   9.851   5.647   9.707 -0.4357 -0.3598  0.4019
  254MOL0     C34981   9.884   5.610   9.575 -0.5079 -0.1057 -0.0891
  254MOL0     C34982   9.956   5.487   9.552 -0.3800  0.6712  0.1818
  254MOL0     H34983   9.728   5.599   9.083  0.4581  0.5483  1.5836
  254MOL0     H34984   9.781   5.521   8.846  4.8306 -3.2358 -0.7725
  254MOL0     H34985  10.016   5.437   8.577  0.1326 -0.7005 -0.5215
  254MOL0     H34986   9.983   5.405   8.740 -2.4269 -0.7277 -2.3226
  254MOL0     H34987  10.219   5.590   8.750  1.7311 -0.0818 -0.4259
  254MOL0     H34988  10.200   5.428   8.785 -0.6204  1.4911  0.3989
  254MOL0     H34989  10.222   5.409   8.513 -3.0391  0.7339  1.3811
  254MOL0     H34990  10.249   5.584   8.526  1.0077 -0.2389 -1.6189
  254MOL0     H34991  10.444   5.453   8.486 -1.8987 -2.2304 -1.1649
  254MOL0     H34992  10.445   5.547   8.636  2.9293 -1.0924 -0.4191
  254MOL0     H34993  10.392   5.241   8.649  1.1219 -0.3431 -1.8989
  254MOL0     H34994  10.404   5.354   8.767 -0.6051 -1.5673 -1.4614
  254MOL0     H34995  10.651   5.414   8.710  2.4791  0.0123 -2.5252
  254MOL0     H34996  10.629   5.234   8.752  0.8169  1.0652  0.6516
  254MOL0     H34997  10.767   5.252   8.569 -0.2118  2.5961  1.0976
  254MOL0     H34998  10.653   5.344   8.469  3.1134 -1.8283 -2.2027
  254MOL0     H34999  10.501   5.143   8.471  0.4353  0.2393 -0.7533
  254MOL0     H35000  10.642   5.129   8.400 -1.1404 -2.8421  0.3016
  254MOL0     H35001  10.839   5.023   8.678 -0.2073 -0.5844  4.0380
  254MOL0     H35002  10.714   4.707   8.854 -1.1662 -0.4222 -2.4765
  254MOL0     H35003  10.830   4.847   8.884 -0.9803  0.9990 -0.3552
  254MOL0     H35004  10.828   4.662   8.637 -0.2419  0.1447 -1.3867
  254MOL0     H35005  10.955   4.778   8.683  1.2549 -2.4162 -2.8248
  254MOL0     H35006  10.852   4.535   8.847 -0.8321  1.0760  0.2177
  254MOL0     H35007  10.972   4.499   8.732  2.8694  0.9290 -0.9981
  254MOL0     H35008  11.135   4.640   8.822  0.5154 -1.9762 -0.6022
  254MOL0     H35009  11.029   4.695   8.958  1.5362  0.0154  0.6894
  254MOL0     H35010  11.243   4.711   8.995 -0.4035 -1.8768 -0.6771
  254MOL0     H35011  11.404   4.853   9.228  1.4091  0.6247 -0.6247
  254MOL0     H35012  11.435   4.826   9.052 -2.1296 -0.4269 -0.9479
  254MOL0     H35013  11.546   4.758   9.169  0.5975 -1.1112  1.9361
  254MOL0     H35014  11.537   4.390   9.710  0.3496  0.6272 -0.0456
  254MOL0     H35015  11.701   4.417   9.854 -1.3584  3.2452  0.3721
  254MOL0     H35016  12.136   4.523   9.708 -1.2289 -0.5703 -1.9730
  254MOL0     H35017  12.035   4.653   9.741  3.3675 -0.1773 -2.2859
  254MOL0     H35018  12.172   4.686   9.914  1.7189 -1.0112 -1.6001
  254MOL0     H35019  12.078   4.568  10.001 -0.6784 -1.6489 -0.9098
  254MOL0     H35020  12.321   4.467   9.840  2.5800  0.8639  0.8107
  254MOL0     H35021  12.236   4.394   9.978 -1.2578 -0.0021 -1.9688
  254MOL0     H35022  12.323   4.583  10.120 -1.4716 -1.5156 -0.2690
  254MOL0     H35023  12.388   4.656   9.984 -1.7702  0.1635 -0.7052
  254MOL0     H35024  12.554   4.478   9.943 -0.7171 -2.3676 -0.1140
  254MOL0     H35025  12.574   4.551  10.096  1.9274 -0.3941 -0.1146
  254MOL0     H35026  12.583   4.289  10.090 -0.7463  0.6523 -1.2711
  254MOL0     H35027  12.414   4.309  10.069  1.4989 -1.5107 -0.3917
  254MOL0     H35028  12.455   4.245  10.310  2.5304  0.8321  2.5861
  254MOL0     H35029  12.372   4.400  10.287 -0.3119  2.2146 -0.9445
  254MOL0     H35030  12.559   4.385  10.470 -3.6157 -2.2085 -0.7085
  254MOL0     H35031  12.592   4.509  10.352  3.1683 -0.2615  2.2554
  254MOL0     H35032  11.975   4.509   9.528 -1.0957 -1.2768 -1.6740
  254MOL0     H35033  11.782   4.532   9.386 -3.2688 -0.9203 -1.4901
  254MOL0     H35034  11.311   4.368   9.342  1.7791  0.4445  0.2862
  254MOL0     H35035  11.140   4.336   9.170 -1.5871  1.0843 -1.4705
  254MOL0     H35036  10.090   5.810   8.829  3.5044 -1.9759  2.8710
  254MOL0     H35037  10.029   5.879   9.064 -0.9954  0.5407 -0.5593
  254MOL0     H35038   9.812   5.903   9.412 -0.1524 -0.8915 -0.4512
  254MOL0     H35039   9.765   5.968   9.624 -2.0811 -1.4332  1.9656
  254MOL0     H35040   9.900   5.975   9.895 -0.1171 -0.7233  2.0851
  254MOL0     H35041   9.744   6.010   9.818 -0.3147  1.9551  0.7185
  254MOL0     H35042   9.612   5.954  10.016 -0.5765  1.3902  2.9709
  254MOL0     H35043   9.734   6.086  10.034  2.7074 -0.6342  0.1069
  254MOL0     H35044   9.756   5.789  10.108  4.3290 -0.5296 -1.0554
  254MOL0     H35045   9.883   5.895  10.143 -0.4267  1.4365 -0.6541
  254MOL0     H35046   9.736   6.027  10.298  1.5775 -0.9171  0.8486
  254MOL0     H35047   9.750   5.870  10.357  0.4803 -1.3409 -1.5373
  254MOL0     H35048   9.335   5.911  10.238 -0.6970  3.1633  1.1231
  254MOL0     H35049   9.870   5.591   9.798 -0.2195 -2.1171 -0.6906
  254MOL0     H35050   9.964   5.421   9.639  1.9882  0.1426 -0.3567
  254MOL0     H35051   9.890   5.427   9.489 -1.0134  1.0646  0.4629
  254MOL0     H35052  10.050   5.501   9.497 -0.9441 -1.2454 -1.3622
  255MOL0     O35053   6.407   6.801   4.330  0.1540 -0.2367  0.8180
  255MOL0     C35054   6.443   6.796   4.208 -0.3447  0.5045 -0.7130
  255MOL0     O35055   6.571   6.751   4.168  0.3575 -0.7315 -0.2990
  255MOL0     C35056   6.668   6.702   4.263  0.5668 -0.7101 -0.8010
  255MOL0     C35057   6.706   6.772   4.376 -0.3682  0.3137  0.8707
  255MOL0     C35058   6.808   6.716   4.448 -0.5115 -0.4703  0.3876
  255MOL0     C35059   6.888   6.606   4.410  0.2968  0.9456 -0.2124
  255MOL0     O35060   6.991   6.557   4.486  0.2501  0.0844 -0.1369
  255MOL0     C35061   7.061   6.646   4.576 -0.1282  0.3863 -0.2544
  255MOL0     C35062   7.204   6.579   4.616  1.5402 -0.2553  0.5466
  255MOL0     C35063   7.175   6.463   4.719 -0.6181  0.5590 -0.0348
  255MOL0     C35064   7.304   6.423   4.783 -0.3398 -0.1199  0.3364
  255MOL0     C35065   7.289   6.302   4.867 -0.4258  0.2399  0.1014
  255MOL0     C35066   7.417   6.267   4.953  0.8686 -0.8758 -0.3859
  255MOL0     C35067   7.404   6.158   5.057 -0.1866 -0.7094  0.3347
  255MOL0     C35068   7.344   6.027   5.005 -0.3028 -0.4915  0.4995
  255MOL0     N35069   7.368   5.905   5.079  0.2134 -0.5263 -0.7245
  255MOL0     C35070   7.276   5.807   5.113 -0.0940  0.7170 -0.1290
  255MOL0     C35071   7.346   5.714   5.179  0.1733  0.2106 -0.3828
  255MOL0     C35072   7.295   5.582   5.230  1.4732  0.5662 -0.4827
  255MOL0     C35073   7.244   5.500   5.106  0.5402  0.8992  0.6048
  255MOL0     C35074   7.181   5.363   5.155  1.5855 -0.5800 -0.0380
  255MOL0     C35075   7.188   5.248   5.054  0.0214 -0.3106 -0.4233
  255MOL0     O35076   7.123   5.140   5.127 -0.4009 -0.1115  0.6969
  255MOL0     C35077   7.123   5.014   5.066  0.1298  0.1638 -0.2394
  255MOL0     C35078   7.231   4.963   4.995 -0.1921 -1.6130 -0.9950
  255MOL0     C35079   7.236   4.830   4.963 -0.1852 -0.3610 -0.4288
  255MOL0     C35080   7.375   4.778   4.913  0.2998  0.1063 -0.3721
  255MOL0     C35081   7.121   4.748   4.980  0.1867  0.5638 -0.2488
  255MOL0     C35082   7.118   4.604   4.937 -0.0373  0.7624 -0.6928
  255MOL0     O35083   7.245   4.547   4.903  0.0313  0.0741  0.2501
  255MOL0     C35084   7.246   4.434   4.819  0.6063  0.7939 -0.0953
  255MOL0     C35085   7.384   4.379   4.796  0.0788  0.3374 -0.1351
  255MOL0     C35086   7.410   4.282   4.696  0.0040 -0.3991 -0.8929
  255MOL0     C35087   7.305   4.214   4.641  0.3019 -0.0391  0.9716
  255MOL0     O35088   7.336   4.111   4.557 -0.4047 -0.3718  0.2417
  255MOL0     C35089   7.231   4.057   4.473 -0.1276 -1.1833 -0.6201
  255MOL0     C35090   7.282   3.943   4.382 -0.1804 -0.8837 -0.7101
  255MOL0     C35091   7.316   3.810   4.463  0.2075 -0.1094 -0.9688
  255MOL0     C35092   7.331   3.682   4.375  0.4748  0.3250  0.2736
  255MOL0     C35093   7.407   3.564   4.439 -0.1780 -0.4055 -0.8886
  255MOL0     C35094   7.432   3.457   4.329  0.3885  0.3368  0.0951
  255MOL0     C35095   7.507   3.340   4.401  0.2130  0.3295 -0.5919
  255MOL0     C35096   7.466   3.201   4.349 -0.6802 -0.7020 -0.5863
  255MOL0    Cl35097   7.551   3.164   4.196 -0.2823  0.0388 -0.1524
  255MOL0     C35098   7.170   4.257   4.668  0.3558 -0.8180 -0.8466
  255MOL0     C35099   7.138   4.368   4.754  0.3053  0.1830 -0.7154
  255MOL0     O35100   7.011   4.551   4.931 -0.2364 -0.2112  0.5063
  255MOL0     C35101   7.003   4.808   5.039 -0.1312  0.0068 -0.0293
  255MOL0     C35102   7.004   4.940   5.081  0.1822 -1.2458 -0.0670
  255MOL0     N35103   7.480   5.744   5.158 -0.1338 -0.1865  0.4486
  255MOL0     N35104   7.494   5.858   5.107 -0.0158 -0.0550  0.4399
  255MOL0     C35105   6.841   6.536   4.300  0.6202 -0.4825  0.3321
  255MOL0     C35106   6.728   6.582   4.229 -0.5211 -0.2905 -0.3219
  255MOL0     C35107   6.368   6.862   4.099  0.5656  0.4111 -0.1154
  255MOL0     C35108   6.424   6.890   3.970  0.5363  0.3420  0.2061
  255MOL0     C35109   6.357   6.959   3.876 -0.0386 -0.6229  0.4455
  255MOL0     C35110   6.229   6.996   3.895 -0.0276  0.3010  0.1580
  255MOL0     O35111   6.149   7.053   3.798  0.0679 -0.0953 -0.1678
  255MOL0     C35112   6.181   7.054   3.659  0.1348  0.4170 -0.1014
  255MOL0     C35113   6.205   6.910   3.596  0.0415 -0.3410  0.9925
  255MOL0     C35114   6.086   6.825   3.644 -0.8839  0.4455  0.3898
  255MOL0     C35115   6.072   6.699   3.549 -0.6630  0.0759  0.4551
  255MOL0     C35116   5.993   6.588   3.603 -0.5325 -0.5140  0.0232
  255MOL0     C35117   5.924   6.502   3.650 -0.8391  0.4398  0.4642
  255MOL0     C35118   6.166   6.971   4.014 -0.2060  1.0570 -0.0534
  255MOL0     C35119   6.228   6.902   4.120  1.0536  0.7624 -0.0909
  255MOL0     C35120   6.146   6.877   4.245  0.3799  0.2045 -0.0764
  255MOL0     H35121   6.643   6.858   4.399 -2.5244 -0.7524 -0.6956
  255MOL0     H35122   6.833   6.763   4.542  0.5711  3.1968 -1.5627
  255MOL0     H35123   7.013   6.681   4.667  2.2011  1.5292  0.6238
  255MOL0     H35124   7.079   6.732   4.511 -4.1462  0.9061 -0.9395
  255MOL0     H35125   7.242   6.532   4.525 -3.3079  3.1839 -3.8764
  255MOL0     H35126   7.272   6.652   4.660  0.4749 -0.3414  2.4604
  255MOL0     H35127   7.105   6.504   4.793 -0.9679  1.6909 -0.9687
  255MOL0     H35128   7.123   6.379   4.673 -0.3855 -0.5200  1.5607
  255MOL0     H35129   7.389   6.420   4.713  1.4585  0.9397  2.3566
  255MOL0     H35130   7.334   6.502   4.852  0.4002 -0.1534  0.0669
  255MOL0     H35131   7.260   6.215   4.807  3.2299 -1.0477 -0.0465
  255MOL0     H35132   7.209   6.328   4.937 -0.6379  0.2283 -0.1323
  255MOL0     H35133   7.498   6.248   4.882  0.9404 -3.3542  0.2880
  255MOL0     H35134   7.454   6.356   5.005 -1.2584  1.1380 -2.0526
  255MOL0     H35135   7.346   6.200   5.140  3.4524  0.2150  2.6492
  255MOL0     H35136   7.499   6.146   5.111 -1.3932  1.4731  3.2134
  255MOL0     H35137   7.235   6.036   5.008 -0.1587  1.2845  1.6964
  255MOL0     H35138   7.374   6.011   4.901 -0.5228 -0.3876  0.4187
  255MOL0     H35139   7.176   5.806   5.071 -0.1170  0.3410 -0.0762
  255MOL0     H35140   7.216   5.593   5.305  1.0754 -2.2311 -0.3620
  255MOL0     H35141   7.379   5.530   5.277  0.5227  3.0326  4.6556
  255MOL0     H35142   7.165   5.551   5.049 -1.2616 -1.2967  0.9954
  255MOL0     H35143   7.330   5.482   5.041 -0.0531  1.9312 -0.5065
  255MOL0     H35144   7.230   5.336   5.249  0.9629  0.2274  0.5374
  255MOL0     H35145   7.080   5.382   5.192  1.1911 -0.2257 -1.2482
  255MOL0     H35146   7.138   5.279   4.961 -1.0525  0.0863  0.2681
  255MOL0     H35147   7.292   5.227   5.029  0.0446  0.4575 -0.9943
  255MOL0     H35148   7.322   5.018   4.973 -0.2788 -0.4418  1.2527
  255MOL0     H35149   7.362   4.739   4.812 -3.1568 -0.0495  0.0223
  255MOL0     H35150   7.419   4.705   4.982  3.0497  3.1493  1.3919
  255MOL0     H35151   7.450   4.857   4.911  1.1894 -0.4742  3.0584
  255MOL0     H35152   7.455   4.440   4.852  5.8405 -1.6236 -4.2715
  255MOL0     H35153   7.511   4.244   4.680  0.5410  1.2541 -1.6525
  255MOL0     H35154   7.137   4.038   4.526 -0.4730  0.6264 -0.5250
  255MOL0     H35155   7.195   4.141   4.413  1.5169  0.4756  0.6349
  255MOL0     H35156   7.213   3.926   4.299  1.0296 -0.7763 -1.7888
  255MOL0     H35157   7.369   3.981   4.328  1.0082  0.2656  1.8533
  255MOL0     H35158   7.236   3.788   4.534 -1.2939  0.9232 -2.2544
  255MOL0     H35159   7.407   3.813   4.523  0.1721  1.7344 -0.9454
  255MOL0     H35160   7.385   3.699   4.281  0.0980  0.7561  0.1352
  255MOL0     H35161   7.230   3.645   4.351  0.4937  0.8812 -0.7235
  255MOL0     H35162   7.510   3.582   4.473  1.6925 -5.1340 -3.1346
  255MOL0     H35163   7.345   3.518   4.516 -1.1366 -2.2863 -2.6794
  255MOL0     H35164   7.503   3.486   4.251  0.4774  0.1934  0.1224
  255MOL0     H35165   7.341   3.422   4.280  0.9899 -1.8923  0.4969
  255MOL0     H35166   7.472   3.347   4.504  1.3492 -2.6960  0.1031
  255MOL0     H35167   7.614   3.352   4.423 -0.4055  3.8849  1.2334
  255MOL0     H35168   7.358   3.192   4.330 -0.8883 -0.7451  0.5446
  255MOL0     H35169   7.496   3.131   4.428 -1.0697 -1.2607 -0.9245
  255MOL0     H35170   7.089   4.202   4.622 -0.5653  0.8573 -1.3480
  255MOL0     H35171   7.033   4.390   4.771  0.4657 -0.6160  1.7292
  255MOL0     H35172   6.919   4.749   5.075 -0.1874  0.4966  0.6687
  255MOL0     H35173   6.924   4.977   5.144 -1.0651 -0.6943 -1.8961
  255MOL0     H35174   6.884   6.440   4.271 -0.9661 -0.8523 -0.8802
  255MOL0     H35175   6.685   6.524   4.148  0.5422 -1.9781  0.2772
  255MOL0     H35176   6.525   6.860   3.944 -0.1235 -0.7411 -1.2612
  255MOL0     H35177   6.408   6.971   3.781 -0.4055  0.8336  0.4064
  255MOL0     H35178   6.097   7.108   3.616 -2.1849 -1.1841  2.0618
  255MOL0     H35179   6.275   7.105   3.640 -0.5104  1.0329 -1.7871
  255MOL0     H35180   6.300   6.869   3.631  0.5068 -0.6480 -0.5310
  255MOL0     H35181   6.207   6.919   3.487  1.6079  0.3628  1.0668
  255MOL0     H35182   6.097   6.807   3.751 -2.2696  0.1305  0.4915
  255MOL0     H35183   5.989   6.874   3.631 -1.2535 -0.4571 -0.4055
  255MOL0     H35184   6.172   6.662   3.523 -0.3832  2.1925 -1.9165
  255MOL0     H35185   6.017   6.727   3.459 -0.0654 -0.1851  0.0005
  255MOL0     H35186   5.874   6.422   3.701 -0.1371 -1.2154 -1.2955
  255MOL0     H35187   6.058   6.981   4.020 -0.3801 -1.0685  3.2938
  255MOL0     H35188   6.185   6.948   4.317 -3.4745  3.3559 -0.7310
  255MOL0     H35189   6.043   6.913   4.231  0.0407 -0.4546  0.6162
  255MOL0     H35190   6.149   6.771   4.274 -1.3242  0.3657  0.8172
  256MOL0     O35191   0.439   9.130   9.555 -0.0001  0.4472 -0.4285
  256MOL0     C35192   0.390   9.163   9.446  0.1599 -0.4866  0.1377
  256MOL0     O35193   0.265   9.196   9.422 -0.3619  0.3826 -0.0703
  256MOL0     C35194   0.183   9.189   9.530  0.2967  0.8975  0.8899
  256MOL0     C35195   0.097   9.078   9.554 -0.7826  0.0940  0.8536
  256MOL0     C35196   0.014   9.070   9.667  0.0826 -0.0428 -0.7632
  256MOL0     C35197   0.025   9.161   9.770  0.0948  0.4688 -0.4342
  256MOL0     O35198  -0.055   9.163   9.884  0.3048  0.1787 -0.5383
  256MOL0     C35199  -0.052   9.034   9.948 -0.2406  0.2972  0.3799
  256MOL0     C35200  -0.150   9.007  10.064 -0.7133  0.5124 -0.0787
  256MOL0     C35201  -0.090   9.065  10.198  0.5706  0.2664  0.2438
  256MOL0     C35202   0.046   9.013  10.240  0.1630 -0.1164 -0.1226
  256MOL0     C35203   0.051   8.981  10.391 -0.4709 -0.6617  1.0026
  256MOL0     C35204  -0.016   8.856  10.432  0.5446  2.0458  0.0788
  256MOL0     C35205   0.030   8.724  10.371  1.3383 -0.4164  0.1517
  256MOL0     C35206   0.187   8.710  10.381 -0.3408 -0.4401  0.2617
  256MOL0     N35207   0.244   8.584  10.322 -0.3011  0.1789 -0.3316
  256MOL0     C35208   0.378   8.551  10.333  0.0090  0.8562 -0.9964
  256MOL0     C35209   0.381   8.423  10.292  1.0670  0.4741 -0.5421
  256MOL0     C35210   0.510   8.340  10.290  0.4358  0.2702 -0.5255
  256MOL0     C35211   0.527   8.288  10.154 -0.7397 -1.1987  0.5208
  256MOL0     C35212   0.666   8.226  10.151  0.0706  0.0783 -0.6994
  256MOL0     C35213   0.778   8.320  10.133 -0.6957  0.1167 -0.1923
  256MOL0     O35214   0.887   8.275  10.218 -0.2737  0.3412 -0.2977
  256MOL0     C35215   0.901   8.344  10.332 -0.3516  0.2395 -0.1750
  256MOL0     C35216   0.884   8.269  10.449 -0.8347  0.3082  0.1004
  256MOL0     C35217   0.900   8.332  10.573  0.5507 -0.5147  0.4056
  256MOL0     C35218   0.861   8.258  10.689 -0.7967 -1.4486  0.5881
  256MOL0     C35219   0.935   8.467  10.584  0.6320 -0.3726  0.2149
  256MOL0     C35220   0.953   8.538  10.710 -0.9286 -0.6590 -0.1106
  256MOL0     O35221   0.864   8.634  10.752  0.0616  0.4260 -0.5430
  256MOL0     C35222   0.894   8.725  10.853 -0.3673 -0.2002 -0.5951
  256MOL0     C35223   0.788   8.805  10.892 -0.1973  0.0030  0.0143
  256MOL0     C35224   0.797   8.881  11.013  0.3687  1.0198  0.1045
  256MOL0     C35225   0.918   8.896  11.083  0.0059 -0.5339  0.2022
  256MOL0     O35226   0.923   8.970  11.203  0.1102 -0.4520  0.3675
  256MOL0     C35227   0.818   8.947  11.299 -0.0110 -0.4725  1.5836
  256MOL0     C35228   0.878   8.943  11.437 -0.5862  1.0334  0.3828
  256MOL0     C35229   0.769   8.881  11.536  0.6315  0.5501 -1.0671
  256MOL0     C35230   0.841   8.810  11.649 -0.2448  0.3054 -1.4145
  256MOL0     C35231   0.760   8.733  11.758 -0.4432 -0.1565 -0.0629
  256MOL0     C35232   0.853   8.695  11.883  0.2618 -1.4202  0.0014
  256MOL0     C35233   0.947   8.572  11.866 -0.7067 -0.4354 -0.7824
  256MOL0     C35234   0.876   8.434  11.866 -0.8318  0.0512 -0.7517
  256MOL0    Cl35235   0.991   8.302  11.843  0.1791 -0.2690  0.6307
  256MOL0     C35236   1.027   8.843  11.022 -0.4039 -0.1321 -0.2004
  256MOL0     C35237   1.018   8.752  10.918  0.3623 -0.5216 -0.6352
  256MOL0     O35238   1.051   8.494  10.778 -0.3225  0.8835  0.2300
  256MOL0     C35239   0.958   8.542  10.464 -0.2391 -0.7013 -0.1651
  256MOL0     C35240   0.940   8.475  10.344 -0.5208 -0.3288  0.3433
  256MOL0     N35241   0.248   8.381  10.264 -0.1698  0.6675 -0.0475
  256MOL0     N35242   0.170   8.477  10.286 -1.5740  0.2559 -0.7131
  256MOL0     C35243   0.103   9.273   9.747 -0.1453 -0.1058  0.2072
  256MOL0     C35244   0.195   9.279   9.634  0.7140 -0.1560 -0.2710
  256MOL0     C35245   0.468   9.133   9.325  0.2499 -0.6134 -1.0145
  256MOL0     C35246   0.399   9.147   9.200  0.7582  1.0836  0.4868
  256MOL0     C35247   0.456   9.119   9.082 -0.5359 -0.8327 -0.4629
  256MOL0     C35248   0.590   9.091   9.072 -0.8072  0.3755  0.6449
  256MOL0     O35249   0.638   9.059   8.946 -0.7273  0.1916  0.3738
  256MOL0     C35250   0.725   8.938   8.935  1.3466  0.1372 -1.2272
  256MOL0     C35251   0.795   8.927   8.795  0.1858 -0.5216  0.5845
  256MOL0     C35252   0.868   9.054   8.749 -0.2100 -0.5879 -0.1528
  256MOL0     C35253   1.009   9.079   8.808 -0.5563  0.6343 -0.2182
  256MOL0     C35254   1.094   8.965   8.778  0.2084  0.6863 -0.6264
  256MOL0     C35255   1.170   8.869   8.780 -0.6467  0.0149  0.2577
  256MOL0     C35256   0.665   9.089   9.192  0.3759 -0.3331  0.0629
  256MOL0     C35257   0.609   9.110   9.318 -0.0071 -0.6814 -0.0599
  256MOL0     C35258   0.694   9.107   9.441  0.7113  0.0755  0.5511
  256MOL0     H35259   0.099   8.990   9.491  3.6158 -0.6990  1.7456
  256MOL0     H35260  -0.064   8.997   9.685  0.8117 -1.0129 -1.4543
  256MOL0     H35261   0.049   9.018   9.988 -1.5954  0.6347  4.5059
  256MOL0     H35262  -0.070   8.949   9.882 -0.0126 -0.3306  1.1074
  256MOL0     H35263  -0.252   9.042  10.044 -0.0205  1.7228 -1.7242
  256MOL0     H35264  -0.167   8.900  10.071  0.0791  0.4661  1.7083
  256MOL0     H35265  -0.078   9.174  10.192  3.6754  0.4005  4.2479
  256MOL0     H35266  -0.176   9.056  10.265 -0.8703 -1.4279 -1.6954
  256MOL0     H35267   0.074   8.923  10.185 -0.5901 -0.6194  0.2994
  256MOL0     H35268   0.117   9.090  10.209 -2.3932  2.9072  1.0153
  256MOL0     H35269  -0.011   9.056  10.442 -0.0220 -0.0852  0.7089
  256MOL0     H35270   0.152   8.979  10.432 -1.2150  1.3956  3.1858
  256MOL0     H35271   0.004   8.847  10.539  1.0424 -3.2755 -0.1741
  256MOL0     H35272  -0.125   8.865  10.428  0.0898 -1.5552  0.9391
  256MOL0     H35273  -0.017   8.722  10.272 -1.2361 -0.2151  1.2831
  256MOL0     H35274  -0.019   8.640  10.421 -1.6037  1.0973  0.0308
  256MOL0     H35275   0.237   8.787  10.321 -0.1224 -0.6124  0.2229
  256MOL0     H35276   0.220   8.723  10.485 -1.4604 -0.8497  0.6856
  256MOL0     H35277   0.470   8.596  10.368  2.0363 -2.6412 -1.3492
  256MOL0     H35278   0.510   8.267  10.372 -3.4949 -0.2121 -0.7817
  256MOL0     H35279   0.585   8.419  10.300  0.7903  0.0042 -1.0622
  256MOL0     H35280   0.450   8.214  10.127  0.0930 -1.4138 -1.4360
  256MOL0     H35281   0.520   8.367  10.079 -2.1843 -0.7913  1.0547
  256MOL0     H35282   0.684   8.164  10.240 -1.6159 -0.3209 -0.6068
  256MOL0     H35283   0.679   8.150  10.074 -1.1317  2.0550 -2.9881
  256MOL0     H35284   0.802   8.320  10.027 -1.6770 -2.8635 -0.5120
  256MOL0     H35285   0.745   8.418  10.168  3.2295  0.5504  3.1340
  256MOL0     H35286   0.862   8.163  10.441 -1.0486  0.2041  1.6280
  256MOL0     H35287   0.944   8.220  10.750  1.0227 -2.3181 -2.2420
  256MOL0     H35288   0.808   8.177  10.638  2.7910 -1.4723 -3.6312
  256MOL0     H35289   0.788   8.313  10.750 -0.0076  1.8039 -1.1421
  256MOL0     H35290   0.695   8.796  10.836  0.3592  0.4564 -1.0141
  256MOL0     H35291   0.710   8.938  11.043 -1.0270 -0.6501 -0.5587
  256MOL0     H35292   0.742   9.026  11.291  2.4787  1.9425  0.0285
  256MOL0     H35293   0.767   8.855  11.273 -1.1251  0.4441  0.4270
  256MOL0     H35294   0.962   8.874  11.428 -0.5540  1.2103 -0.8384
  256MOL0     H35295   0.918   9.041  11.464  2.2047  0.2603 -0.5568
  256MOL0     H35296   0.713   8.808  11.477 -1.0274 -1.6777  2.9215
  256MOL0     H35297   0.696   8.954  11.574 -1.7733 -2.7952  1.3646
  256MOL0     H35298   0.881   8.893  11.708 -1.2305  1.2996 -2.0969
  256MOL0     H35299   0.923   8.748  11.611  1.0499 -0.0191  1.6156
  256MOL0     H35300   0.673   8.795  11.782 -0.8975  0.2883 -2.5527
  256MOL0     H35301   0.718   8.637  11.728 -1.1869 -0.0556  0.6197
  256MOL0     H35302   0.788   8.663  11.965 -2.3451 -2.3621 -2.2913
  256MOL0     H35303   0.914   8.783  11.905  1.9614 -2.5010 -0.1959
  256MOL0     H35304   1.021   8.566  11.946  0.1872  2.1141 -1.3322
  256MOL0     H35305   0.988   8.564  11.765 -2.5447  3.7485 -2.0793
  256MOL0     H35306   0.789   8.431  11.800 -2.3660  0.5075  1.1332
  256MOL0     H35307   0.831   8.420  11.965  1.4673  0.5671  0.4242
  256MOL0     H35308   1.119   8.878  11.067 -1.7227  4.0195 -0.3237
  256MOL0     H35309   1.115   8.709  10.894  1.3613  1.0769  0.3204
  256MOL0     H35310   0.991   8.645  10.459 -4.2956  0.7456 -0.4759
  256MOL0     H35311   0.951   8.520  10.246 -1.8023 -0.3291  0.1805
  256MOL0     H35312   0.092   9.373   9.787 -0.5009  1.1788 -2.8200
  256MOL0     H35313   0.264   9.363   9.630  2.7938 -1.7511  0.1533
  256MOL0     H35314   0.295   9.177   9.196  0.9470  1.6847 -0.1181
  256MOL0     H35315   0.402   9.129   8.988 -0.5869 -3.2605 -0.7641
  256MOL0     H35316   0.790   8.915   9.020 -3.1414 -0.0081  2.5658
  256MOL0     H35317   0.653   8.857   8.949  1.6499 -0.2305 -1.7711
  256MOL0     H35318   0.712   8.903   8.727 -1.0228 -1.2502  2.2614
  256MOL0     H35319   0.860   8.841   8.778  0.9696  0.6265 -3.1082
  256MOL0     H35320   0.884   9.049   8.641 -2.5417  0.6044 -0.6225
  256MOL0     H35321   0.813   9.144   8.778 -2.9761 -2.2254  0.0129
  256MOL0     H35322   1.011   9.101   8.915 -0.7414 -0.6950  0.0746
  256MOL0     H35323   1.061   9.165   8.764 -1.8753  1.8171  0.4596
  256MOL0     H35324   1.242   8.791   8.793  0.4444  1.1010  0.9788
  256MOL0     H35325   0.774   9.088   9.196  0.4011 -1.7421 -0.4490
  256MOL0     H35326   0.653   9.187   9.504  0.8877  1.0562 -0.5624
  256MOL0     H35327   0.681   9.019   9.504 -3.9164 -0.8663 -1.3268
  256MOL0     H35328   0.798   9.140   9.438  0.7498  0.0979  1.7376
  257MOL0     O35329   8.608   3.816   5.864  0.3716  0.5480  0.6016
  257MOL0     C35330   8.564   3.716   5.914  1.0181  0.0480  0.8073
  257MOL0     O35331   8.433   3.709   5.959 -0.6014 -0.2939  0.0981
  257MOL0     C35332   8.366   3.824   5.982 -0.6904 -0.6884  0.7780
  257MOL0     C35333   8.346   3.869   6.112  0.1234  0.3805  0.4414
  257MOL0     C35334   8.288   3.994   6.139 -0.0156  0.1331  0.4739
  257MOL0     C35335   8.245   4.073   6.038  0.6305  0.8977  0.4895
  257MOL0     O35336   8.174   4.188   6.062  0.0353 -0.1236 -0.2162
  257MOL0     C35337   8.094   4.247   5.957  0.0363  0.2795  0.2524
  257MOL0     C35338   8.180   4.337   5.862  0.0485  0.7617  0.7087
  257MOL0     C35339   8.103   4.366   5.729  0.4040 -0.5870 -0.2209
  257MOL0     C35340   8.106   4.253   5.628  0.3258  0.1039  0.0944
  257MOL0     C35341   8.049   4.299   5.490  0.5136 -0.7214 -0.6829
  257MOL0     C35342   7.901   4.309   5.481 -0.1579 -0.6522 -0.1677
  257MOL0     C35343   7.867   4.380   5.341 -1.0923  0.8341 -0.6214
  257MOL0     C35344   7.726   4.433   5.335  0.4499  0.6261  0.4021
  257MOL0     N35345   7.706   4.502   5.211 -0.3392  0.1734 -0.4227
  257MOL0     C35346   7.721   4.438   5.093  0.7342 -0.7768 -0.7325
  257MOL0     C35347   7.753   4.532   5.000 -0.1144 -0.0285 -0.1029
  257MOL0     C35348   7.786   4.489   4.859 -0.1000 -0.1577  0.8194
  257MOL0     C35349   7.746   4.595   4.753 -0.6863  0.3512 -1.5514
  257MOL0     C35350   7.738   4.550   4.613 -0.0973  0.4847 -0.4407
  257MOL0     C35351   7.710   4.669   4.517  0.7299 -0.0433 -0.6037
  257MOL0     O35352   7.647   4.634   4.393 -0.3128  0.0534  0.1367
  257MOL0     C35353   7.606   4.741   4.314  0.0426  0.5126  0.2769
  257MOL0     C35354   7.509   4.716   4.219  0.4612 -0.6346  0.3871
  257MOL0     C35355   7.444   4.817   4.150  0.1447 -0.7841  0.1878
  257MOL0     C35356   7.344   4.774   4.051 -0.7373  1.0271 -0.5438
  257MOL0     C35357   7.479   4.955   4.173 -0.3485 -0.1402 -0.7737
  257MOL0     C35358   7.406   5.075   4.112 -0.1486  0.1509  0.2625
  257MOL0     O35359   7.273   5.065   4.081 -0.1149  0.7370  0.3093
  257MOL0     C35360   7.206   5.159   4.006 -0.0813  0.7099 -0.2373
  257MOL0     C35361   7.066   5.143   3.992  0.2341 -1.0154  0.0907
  257MOL0     C35362   6.991   5.237   3.922  0.7790 -0.3569 -0.2542
  257MOL0     C35363   7.044   5.347   3.862  0.4715 -0.0738 -0.2618
  257MOL0     O35364   6.961   5.424   3.788  0.4329  0.8100 -1.0358
  257MOL0     C35365   7.010   5.542   3.719 -0.4509 -0.1804  0.2891
  257MOL0     C35366   6.896   5.649   3.690 -0.2390 -0.0603 -0.1772
  257MOL0     C35367   6.805   5.620   3.569 -0.2227  1.0007 -0.7782
  257MOL0     C35368   6.735   5.486   3.581  0.6271  0.7737 -0.2011
  257MOL0     C35369   6.631   5.467   3.466 -0.1607 -0.2294 -0.9685
  257MOL0     C35370   6.693   5.425   3.337  0.4666  0.1860  0.1929
  257MOL0     C35371   6.588   5.389   3.240 -0.8429  0.2038  0.9564
  257MOL0     C35372   6.658   5.338   3.119 -0.7812  0.3191  0.8273
  257MOL0    Cl35373   6.723   5.190   3.167  0.5872  0.0987 -0.1692
  257MOL0     C35374   7.183   5.365   3.877 -0.0996  0.4903 -0.3212
  257MOL0     C35375   7.269   5.267   3.945 -0.4517 -0.8454  1.1539
  257MOL0     O35376   7.473   5.182   4.118 -0.3933  0.2357 -0.1332
  257MOL0     C35377   7.588   4.989   4.266 -0.1377  0.6105 -0.3402
  257MOL0     C35378   7.638   4.877   4.334 -1.1447 -0.1071  0.5485
  257MOL0     N35379   7.748   4.652   5.058 -0.4242 -0.3917 -0.9353
  257MOL0     N35380   7.742   4.631   5.183 -0.4766 -0.2615 -0.1056
  257MOL0     C35381   8.258   4.020   5.906  0.2911  0.5239 -0.3490
  257MOL0     C35382   8.320   3.899   5.872 -1.2539  0.2713  0.0562
  257MOL0     C35383   8.647   3.593   5.907  0.0598 -0.8811 -0.1098
  257MOL0     C35384   8.741   3.586   5.800 -0.1513  0.4189  0.7014
  257MOL0     C35385   8.833   3.484   5.786  0.6667  0.4955 -0.4201
  257MOL0     C35386   8.823   3.383   5.880  0.5177  0.6420 -0.3006
  257MOL0     O35387   8.913   3.285   5.859  0.6353 -0.4918  0.2499
  257MOL0     C35388   8.874   3.154   5.886  0.2000  0.3851  0.5383
  257MOL0     C35389   8.917   3.077   5.762 -0.2807  0.7650 -0.4644
  257MOL0     C35390   8.846   2.939   5.755  0.1645  0.7687 -0.2786
  257MOL0     C35391   8.841   2.873   5.612  0.0461 -0.2584  0.3260
  257MOL0     C35392   8.752   2.758   5.588  0.8622 -0.1286 -0.8695
  257MOL0     C35393   8.702   2.656   5.560  0.4223 -0.2753 -0.4753
  257MOL0     C35394   8.727   3.382   5.983  0.1509  0.2826  0.5112
  257MOL0     C35395   8.637   3.485   5.998  0.1162  0.5612  0.2425
  257MOL0     C35396   8.556   3.493   6.120 -0.4808 -0.4741  0.4389
  257MOL0     H35397   8.370   3.802   6.193  0.5840 -2.3733 -1.8062
  257MOL0     H35398   8.269   4.027   6.240 -4.4854  0.8405 -0.4180
  257MOL0     H35399   8.008   4.304   5.992 -2.8973 -1.1486 -3.8365
  257MOL0     H35400   8.038   4.165   5.911 -0.7909  0.3552  1.0880
  257MOL0     H35401   8.213   4.432   5.904  2.6648  1.7637 -3.1421
  257MOL0     H35402   8.268   4.278   5.837  0.0805  1.2280 -0.3280
  257MOL0     H35403   7.997   4.385   5.747  0.2170 -3.0850  1.9292
  257MOL0     H35404   8.145   4.452   5.675 -1.2216 -0.1478 -0.8588
  257MOL0     H35405   8.210   4.217   5.629  0.3672  0.1348 -1.1032
  257MOL0     H35406   8.045   4.166   5.655 -1.0388  1.7054  2.4222
  257MOL0     H35407   8.080   4.221   5.421 -0.1660 -1.2364 -0.4183
  257MOL0     H35408   8.104   4.387   5.457  0.9316 -1.2503 -1.4075
  257MOL0     H35409   7.856   4.209   5.489 -5.1505  1.2484 -0.7607
  257MOL0     H35410   7.868   4.373   5.564 -1.4724  0.0127 -1.1685
  257MOL0     H35411   7.886   4.309   5.260  1.5338  1.1294 -0.3526
  257MOL0     H35412   7.929   4.468   5.324 -1.2452  1.2561  0.9138
  257MOL0     H35413   7.657   4.348   5.345  1.2795 -0.2788 -1.1091
  257MOL0     H35414   7.714   4.502   5.418 -1.8032 -0.3791  0.9988
  257MOL0     H35415   7.720   4.331   5.081  1.1180 -0.8008 -0.5620
  257MOL0     H35416   7.736   4.396   4.832  0.5495  0.0593 -1.2786
  257MOL0     H35417   7.892   4.462   4.857 -0.0369  0.1466 -1.0592
  257MOL0     H35418   7.653   4.648   4.778 -2.0086 -1.6223 -2.0097
  257MOL0     H35419   7.828   4.666   4.755 -1.2486  0.9981  0.2770
  257MOL0     H35420   7.820   4.486   4.580 -0.5739 -1.0799  1.2315
  257MOL0     H35421   7.645   4.492   4.611 -0.6574  1.3089  0.5146
  257MOL0     H35422   7.660   4.747   4.575  2.4804 -0.3334  1.4034
  257MOL0     H35423   7.800   4.710   4.471  1.4764 -3.8626 -3.0238
  257MOL0     H35424   7.468   4.617   4.204  1.1553 -0.6999 -1.3310
  257MOL0     H35425   7.318   4.850   3.977  2.1509 -0.3338 -3.2013
  257MOL0     H35426   7.263   4.723   4.104 -0.1256  3.4198  3.1102
  257MOL0     H35427   7.384   4.692   3.991 -0.9172  0.6706 -0.1819
  257MOL0     H35428   7.022   5.056   4.038 -1.2265 -0.2792  0.1510
  257MOL0     H35429   6.889   5.213   3.893  0.5676  1.4593 -1.1524
  257MOL0     H35430   7.083   5.596   3.780 -0.7597  0.8750 -0.2584
  257MOL0     H35431   7.062   5.515   3.627 -0.8653 -2.4564  0.6588
  257MOL0     H35432   6.827   5.659   3.774 -1.0392  3.7621 -1.0987
  257MOL0     H35433   6.945   5.746   3.683 -0.1256  0.3524  3.9682
  257MOL0     H35434   6.847   5.638   3.470  0.1506 -0.1034 -0.8316
  257MOL0     H35435   6.726   5.694   3.582  0.4873  1.9506 -1.7769
  257MOL0     H35436   6.691   5.478   3.681  2.7752  3.4043  1.0862
  257MOL0     H35437   6.799   5.398   3.570 -0.9430 -0.2830 -1.3022
  257MOL0     H35438   6.564   5.387   3.498  1.1814 -1.6059 -1.4390
  257MOL0     H35439   6.576   5.561   3.465  0.9073  0.6749  3.3919
  257MOL0     H35440   6.748   5.334   3.363 -2.5648 -1.9761 -0.5359
  257MOL0     H35441   6.764   5.504   3.309  0.5204 -0.2593 -0.9784
  257MOL0     H35442   6.531   5.477   3.210 -0.6099 -0.0871 -0.4037
  257MOL0     H35443   6.511   5.317   3.270 -1.0727  1.1156  2.7520
  257MOL0     H35444   6.736   5.408   3.089 -1.2751 -0.2772 -2.2653
  257MOL0     H35445   6.590   5.326   3.033  3.8396  1.3194 -3.4400
  257MOL0     H35446   7.228   5.448   3.824 -2.3570  0.2882 -2.7488
  257MOL0     H35447   7.375   5.288   3.939 -0.5447 -0.6655 -0.2896
  257MOL0     H35448   7.616   5.094   4.273  0.5363  0.7773 -3.7331
  257MOL0     H35449   7.702   4.899   4.418 -1.4988  2.3308  0.2746
  257MOL0     H35450   8.224   4.073   5.818  0.2974  1.9458  0.4601
  257MOL0     H35451   8.336   3.863   5.771  2.2949  0.8685  0.2782
  257MOL0     H35452   8.746   3.668   5.729 -1.3933  3.0281  3.3862
  257MOL0     H35453   8.895   3.471   5.698  2.1187 -2.6057  0.9125
  257MOL0     H35454   8.917   3.132   5.984 -1.1782  0.7301  1.2415
  257MOL0     H35455   8.765   3.146   5.891  0.1051  0.8471 -0.4567
  257MOL0     H35456   9.025   3.058   5.765 -0.8123 -3.3060  3.6840
  257MOL0     H35457   8.892   3.137   5.674 -3.1860  1.0914  0.4943
  257MOL0     H35458   8.883   2.866   5.828  0.7078 -1.1172 -2.3264
  257MOL0     H35459   8.743   2.948   5.791  0.2265  0.7931 -0.1059
  257MOL0     H35460   8.939   2.850   5.569  0.0418  2.7139 -1.5264
  257MOL0     H35461   8.781   2.945   5.557 -1.0250 -1.2305  0.1676
  257MOL0     H35462   8.679   2.552   5.556  1.2487 -0.5181  0.6586
  257MOL0     H35463   8.731   3.301   6.055 -0.5158 -0.9255 -0.7603
  257MOL0     H35464   8.609   3.453   6.208 -0.4804  1.2789  1.2796
  257MOL0     H35465   8.530   3.598   6.137 -1.8931 -0.7635  0.2124
  257MOL0     H35466   8.462   3.440   6.103 -0.8962  0.9199 -2.0912
  258MOL0     O35467   2.212   3.601   5.730  0.5780 -0.4141  0.1194
  258MOL0     C35468   2.111   3.539   5.687  0.0833 -0.0882  0.5482
  258MOL0     O35469   1.987   3.588   5.668  0.0738  0.3462 -0.8681
  258MOL0     C35470   1.963   3.707   5.737 -0.5493  0.1812  0.3302
  258MOL0     C35471   1.903   3.805   5.675  0.4133  0.0303  0.6951
  258MOL0     C35472   1.874   3.921   5.738  0.2951 -0.1791 -1.1998
  258MOL0     C35473   1.913   3.941   5.876  0.1359 -0.5380  1.4004
  258MOL0     O35474   1.897   4.066   5.945  0.4600  0.3184  0.2024
  258MOL0     C35475   1.818   4.169   5.886 -0.6678 -0.9349 -0.1654
  258MOL0     C35476   1.836   4.291   5.979  0.1142 -0.3066 -1.1556
  258MOL0     C35477   1.986   4.330   5.977 -0.2291  0.1915  0.9013
  258MOL0     C35478   2.016   4.449   6.049  0.3226 -0.6297  0.0336
  258MOL0     C35479   2.160   4.503   6.034 -0.5111  0.0131 -0.6106
  258MOL0     C35480   2.196   4.625   6.124 -0.3768 -0.0171 -0.4779
  258MOL0     C35481   2.088   4.739   6.120  0.3892  0.1806 -0.4498
  258MOL0     C35482   2.146   4.871   6.167  0.3057  0.0027  0.1245
  258MOL0     N35483   2.062   4.986   6.139  0.0244  0.6986  0.4337
  258MOL0     C35484   1.939   5.003   6.196 -0.1762 -0.4135  0.5074
  258MOL0     C35485   1.883   5.109   6.141  0.6318  0.1161 -0.1930
  258MOL0     C35486   1.737   5.160   6.158 -0.8213  0.1040 -0.8298
  258MOL0     C35487   1.735   5.322   6.155 -0.2589  1.2502 -1.1176
  258MOL0     C35488   1.789   5.387   6.288 -0.3649  1.0466 -0.5892
  258MOL0     C35489   1.678   5.430   6.382 -0.2745 -0.6925 -0.7536
  258MOL0     O35490   1.730   5.511   6.491  0.2092 -0.0278 -0.4484
  258MOL0     C35491   1.659   5.523   6.603 -0.1686 -0.1408  0.7111
  258MOL0     C35492   1.687   5.641   6.676  0.0551  1.6097 -0.0430
  258MOL0     C35493   1.614   5.681   6.790 -0.3896  0.3792 -0.0195
  258MOL0     C35494   1.658   5.813   6.850  0.1682  0.2837  0.3676
  258MOL0     C35495   1.526   5.582   6.844  0.0799  1.0149  0.1173
  258MOL0     C35496   1.438   5.617   6.959 -0.3908 -0.1667  0.6342
  258MOL0     O35497   1.437   5.739   7.031 -0.7456  0.5008  0.3500
  258MOL0     C35498   1.366   5.743   7.152  0.7722  0.9726 -1.2109
  258MOL0     C35499   1.375   5.649   7.251  0.7420  0.2547 -0.0762
  258MOL0     C35500   1.302   5.654   7.368 -0.2370 -0.3857  1.0185
  258MOL0     C35501   1.201   5.749   7.379 -0.4128 -0.5328 -0.0922
  258MOL0     O35502   1.135   5.744   7.496  0.1075 -0.0996 -0.0309
  258MOL0     C35503   1.004   5.688   7.479 -0.4714  0.2865 -0.2042
  258MOL0     C35504   0.912   5.764   7.568 -0.3673  0.4774  0.4644
  258MOL0     C35505   0.753   5.735   7.547 -0.1643  0.2011 -0.1678
  258MOL0     C35506   0.691   5.788   7.418  0.6529  0.6949 -0.3814
  258MOL0     C35507   0.549   5.775   7.414  0.5303 -0.1124  0.1315
  258MOL0     C35508   0.480   5.843   7.292 -0.8610  0.1200  0.0887
  258MOL0     C35509   0.494   5.994   7.277  0.3219 -0.4698 -0.5498
  258MOL0     C35510   0.578   6.018   7.156 -0.2311 -1.1097 -0.6062
  258MOL0    Cl35511   0.490   5.985   7.003  0.1116  0.0283  0.0430
  258MOL0     C35512   1.177   5.833   7.275  0.7710 -1.0120  0.7560
  258MOL0     C35513   1.258   5.836   7.163  0.3081 -0.0156 -1.2020
  258MOL0     O35514   1.367   5.521   6.985  0.5471  0.2752 -0.3388
  258MOL0     C35515   1.518   5.457   6.778 -0.1893  0.3435 -0.4005
  258MOL0     C35516   1.580   5.424   6.661 -0.8484  0.5350  0.6766
  258MOL0     N35517   1.976   5.163   6.052  0.2972 -0.2385 -0.5395
  258MOL0     N35518   2.079   5.083   6.049  0.6615  0.3288  0.8045
  258MOL0     C35519   1.984   3.844   5.941  0.1610 -0.7114  0.4846
  258MOL0     C35520   2.006   3.729   5.869  0.8610 -0.2551 -0.9292
  258MOL0     C35521   2.127   3.396   5.657  0.1743  0.4356 -0.4201
  258MOL0     C35522   2.118   3.358   5.525  0.3802  0.1826  0.3072
  258MOL0     C35523   2.123   3.228   5.488 -0.5070 -0.1359  0.0437
  258MOL0     C35524   2.145   3.134   5.585 -0.1173  0.2090  0.0828
  258MOL0     O35525   2.181   3.000   5.550 -0.1650 -0.0755 -0.4341
  258MOL0     C35526   2.212   2.906   5.652 -0.7088  0.2997  0.0098
  258MOL0     C35527   2.353   2.902   5.715  0.5164 -0.4302 -0.5945
  258MOL0     C35528   2.468   2.882   5.621 -0.0117 -0.7866  0.5494
  258MOL0     C35529   2.601   2.943   5.660 -0.0523 -0.4353 -0.4120
  258MOL0     C35530   2.706   2.961   5.555  0.6819 -0.2831 -0.5942
  258MOL0     C35531   2.782   2.959   5.464 -0.2635  0.1755  0.0468
  258MOL0     C35532   2.159   3.175   5.722 -0.2856 -0.4922 -0.6583
  258MOL0     C35533   2.154   3.312   5.763  0.4611  0.2681 -0.3098
  258MOL0     C35534   2.166   3.339   5.911 -0.1997 -0.6618  0.7996
  258MOL0     H35535   1.882   3.775   5.573  3.5824 -0.2465  0.0053
  258MOL0     H35536   1.798   3.991   5.705 -1.1810 -0.6161  1.0174
  258MOL0     H35537   1.710   4.148   5.880 -1.6366  2.2694  2.7567
  258MOL0     H35538   1.851   4.188   5.783  0.3395 -0.9744  0.1428
  258MOL0     H35539   1.784   4.375   5.933  0.3629 -0.2941 -1.4147
  258MOL0     H35540   1.789   4.252   6.070 -1.0991 -2.3431 -2.5787
  258MOL0     H35541   2.040   4.244   6.019 -1.2697 -1.7015 -1.3931
  258MOL0     H35542   2.028   4.345   5.877 -0.3705 -1.6722  0.5215
  258MOL0     H35543   1.941   4.523   6.021  1.4927  0.1066 -1.2203
  258MOL0     H35544   2.000   4.429   6.156  2.4782 -2.6925  0.0455
  258MOL0     H35545   2.168   4.538   5.930 -1.1890 -0.8590 -0.9719
  258MOL0     H35546   2.238   4.427   6.047 -2.5800 -2.0710  0.2896
  258MOL0     H35547   2.207   4.589   6.227  1.7289  3.8737  0.8780
  258MOL0     H35548   2.296   4.658   6.095  0.6362  0.9778  3.4825
  258MOL0     H35549   2.000   4.723   6.183 -0.5568  0.3075 -1.6846
  258MOL0     H35550   2.049   4.752   6.018  0.3938 -0.4593 -0.5384
  258MOL0     H35551   2.155   4.876   6.276 -1.5440  1.5414  0.2603
  258MOL0     H35552   2.245   4.878   6.120 -0.8663  0.5762 -2.4420
  258MOL0     H35553   1.895   4.952   6.282 -1.8554 -1.3765 -0.8735
  258MOL0     H35554   1.704   5.124   6.256 -1.1331  2.0431 -0.1923
  258MOL0     H35555   1.664   5.125   6.084 -0.5980 -1.6440 -0.2640
  258MOL0     H35556   1.789   5.370   6.072 -0.9098  1.0367 -1.6791
  258MOL0     H35557   1.626   5.323   6.139 -0.7633 -0.1244  1.7444
  258MOL0     H35558   1.849   5.308   6.333 -2.2990 -0.4924 -0.5644
  258MOL0     H35559   1.858   5.470   6.270  0.4841  0.1707 -1.5483
  258MOL0     H35560   1.620   5.498   6.318  1.8716  0.5780 -1.4342
  258MOL0     H35561   1.627   5.339   6.417  3.0025 -2.4991 -0.3127
  258MOL0     H35562   1.738   5.724   6.629  2.0198 -0.2020 -1.2933
  258MOL0     H35563   1.691   5.826   6.953 -0.4353 -0.4757  0.6697
  258MOL0     H35564   1.565   5.868   6.839 -0.0850 -0.3867 -1.2231
  258MOL0     H35565   1.729   5.867   6.787 -0.4233  0.6470  0.0020
  258MOL0     H35566   1.455   5.577   7.238 -1.0497 -2.0053  0.7270
  258MOL0     H35567   1.320   5.597   7.458  3.1948  1.1794  1.4426
  258MOL0     H35568   0.972   5.684   7.375  2.0798  0.9964 -1.0883
  258MOL0     H35569   1.012   5.586   7.520  3.2319 -0.1393 -1.6050
  258MOL0     H35570   0.944   5.747   7.671  0.7840 -0.9135 -0.0838
  258MOL0     H35571   0.931   5.871   7.556  0.9720  0.1837 -0.2745
  258MOL0     H35572   0.700   5.793   7.623  1.6490 -0.3249  1.5943
  258MOL0     H35573   0.730   5.628   7.554 -0.6348  0.3425  0.6116
  258MOL0     H35574   0.736   5.728   7.338  2.6353 -1.2909  2.0445
  258MOL0     H35575   0.714   5.895   7.413 -0.6428  1.0291  0.4665
  258MOL0     H35576   0.518   5.672   7.428 -3.0937  0.9390  0.7486
  258MOL0     H35577   0.508   5.830   7.499 -2.7690 -1.3442 -0.5356
  258MOL0     H35578   0.373   5.824   7.303 -0.9352  0.5700  0.1627
  258MOL0     H35579   0.520   5.797   7.201  0.9882  2.0553 -0.1589
  258MOL0     H35580   0.546   6.027   7.367  3.6595 -2.1898 -1.6749
  258MOL0     H35581   0.401   6.052   7.271 -1.0670 -2.5012  0.2556
  258MOL0     H35582   0.665   5.953   7.172 -0.3956 -0.7628  2.2340
  258MOL0     H35583   0.611   6.122   7.147  3.4817 -2.0580  0.2430
  258MOL0     H35584   1.099   5.908   7.274  2.2789  0.6692 -2.1506
  258MOL0     H35585   1.240   5.902   7.078 -1.8323  2.3286  0.8855
  258MOL0     H35586   1.449   5.380   6.811 -1.7697  0.5981 -2.9032
  258MOL0     H35587   1.570   5.321   6.628  0.1209 -0.2439  2.6780
  258MOL0     H35588   2.010   3.863   6.044 -0.7729  1.6382  0.3393
  258MOL0     H35589   2.054   3.649   5.924  0.0986  0.3965  0.7427
  258MOL0     H35590   2.092   3.436   5.455 -2.2920 -1.0440 -0.1864
  258MOL0     H35591   2.121   3.208   5.381  0.7284 -1.2082  0.2024
  258MOL0     H35592   2.140   2.908   5.734  2.3750 -2.6523  3.1598
  258MOL0     H35593   2.193   2.812   5.599  2.5584 -0.6144  0.2137
  258MOL0     H35594   2.345   2.819   5.785 -2.0123 -0.5721 -0.9637
  258MOL0     H35595   2.366   2.988   5.781  1.5097 -1.7370  0.9969
  258MOL0     H35596   2.475   2.774   5.607 -0.9762 -0.6577 -1.2556
  258MOL0     H35597   2.442   2.931   5.527 -2.6650 -2.8784  0.0762
  258MOL0     H35598   2.643   2.877   5.737 -0.7118 -3.1037 -2.2011
  258MOL0     H35599   2.592   3.045   5.697 -0.2513 -1.1188  1.5676
  258MOL0     H35600   2.843   2.950   5.376 -0.3676  0.4126 -0.0492
  258MOL0     H35601   2.167   3.102   5.802  0.3053 -0.8763 -1.0610
  258MOL0     H35602   2.262   3.321   5.959  0.4592 -0.3050 -0.3518
  258MOL0     H35603   2.135   3.441   5.937 -0.0034 -0.6586  1.0209
  258MOL0     H35604   2.094   3.271   5.959  0.7205 -0.9826  1.7563
  259MOL0     O35605   2.963   6.878  10.500  0.5249 -0.0003  0.7021
  259MOL0     C35606   3.012   6.975  10.544 -1.1317 -0.4182  0.3536
  259MOL0     O35607   3.034   6.997  10.674 -0.0006 -0.9781  0.3576
  259MOL0     C35608   2.992   6.894  10.758  0.0633  1.1248 -0.6156
  259MOL0     C35609   2.865   6.896  10.816  0.4544 -0.8050  0.1689
  259MOL0     C35610   2.815   6.794  10.893  0.1345 -0.2940  0.8821
  259MOL0     C35611   2.886   6.678  10.919  0.0927  0.0920 -0.1997
  259MOL0     O35612   2.819   6.580  10.977  0.5412  0.4921 -0.3140
  259MOL0     C35613   2.871   6.536  11.105  0.5718  0.9736  0.8757
  259MOL0     C35614   2.772   6.546  11.225 -1.0721 -0.6872  0.6311
  259MOL0     C35615   2.685   6.419  11.204  0.8798 -0.5856  0.2832
  259MOL0     C35616   2.610   6.391  11.340 -0.5739 -0.4804  0.3737
  259MOL0     C35617   2.489   6.296  11.316 -0.1977 -0.3617  0.0768
  259MOL0     C35618   2.396   6.321  11.428  0.2394 -0.0413 -0.0586
  259MOL0     C35619   2.280   6.223  11.434  0.7704  0.3967  0.2835
  259MOL0     C35620   2.323   6.082  11.395 -0.5020  0.7922  0.8751
  259MOL0     N35621   2.214   5.982  11.401 -0.9617 -0.4833  0.2795
  259MOL0     C35622   2.201   5.885  11.309 -1.2603 -0.7783 -0.3982
  259MOL0     C35623   2.097   5.818  11.350 -0.0928  0.0429 -0.7172
  259MOL0     C35624   2.033   5.699  11.279  0.4495 -0.0128 -0.0163
  259MOL0     C35625   1.879   5.716  11.280  0.5095  0.1672  0.0960
  259MOL0     C35626   1.815   5.581  11.214 -0.0248 -0.5221 -0.5741
  259MOL0     C35627   1.675   5.603  11.156 -0.7384  0.0133  0.0667
  259MOL0     O35628   1.579   5.567  11.253 -0.3247  0.3370  0.0643
  259MOL0     C35629   1.444   5.573  11.208 -0.4582  0.3494 -0.1040
  259MOL0     C35630   1.349   5.607  11.307  0.2053 -0.0824 -0.2652
  259MOL0     C35631   1.219   5.623  11.278 -0.0039 -0.6632 -0.8419
  259MOL0     C35632   1.132   5.633  11.400  0.7387  0.0760 -0.3012
  259MOL0     C35633   1.179   5.617  11.139  0.1646 -0.2064 -0.0908
  259MOL0     C35634   1.040   5.637  11.095 -0.4869  0.1696 -0.3798
  259MOL0     O35635   0.961   5.711  11.180  0.4296  0.1750 -0.0670
  259MOL0     C35636   0.828   5.730  11.164 -0.1406  0.4264  0.5670
  259MOL0     C35637   0.766   5.754  11.040  0.2614 -0.5033  1.0275
  259MOL0     C35638   0.626   5.760  11.042  0.9163 -0.3472 -0.1508
  259MOL0     C35639   0.550   5.764  11.158  0.4600  0.4734  0.0737
  259MOL0     O35640   0.409   5.762  11.166  0.7003  0.1657 -0.7223
  259MOL0     C35641   0.320   5.817  11.056  0.2737 -0.4033 -0.0799
  259MOL0     C35642   0.191   5.867  11.128 -0.1874  1.4842 -0.3755
  259MOL0     C35643   0.098   5.942  11.037  0.1144  0.2790 -0.2669
  259MOL0     C35644   0.030   5.848  10.940 -0.7236 -0.1005  0.5848
  259MOL0     C35645  -0.102   5.913  10.886  0.1473  0.3725 -0.5521
  259MOL0     C35646  -0.173   5.805  10.804 -0.0977 -0.0433  0.6044
  259MOL0     C35647  -0.308   5.857  10.744  0.2578 -0.0332 -0.2306
  259MOL0     C35648  -0.290   5.933  10.611 -0.1442  0.0942 -0.0701
  259MOL0    Cl35649  -0.452   5.949  10.548  0.1856 -0.0442 -0.1488
  259MOL0     C35650   0.617   5.746  11.279  0.4238  0.4438  0.8081
  259MOL0     C35651   0.752   5.731  11.286  0.2891 -0.7118  0.1699
  259MOL0     O35652   0.993   5.575  11.000  0.0571  0.4211  0.7326
  259MOL0     C35653   1.270   5.578  11.045 -0.2263  0.3691  0.9642
  259MOL0     C35654   1.402   5.558  11.073 -0.5551 -0.6001  0.8879
  259MOL0     N35655   2.042   5.879  11.463 -0.4776  0.3044  0.0055
  259MOL0     N35656   2.112   5.984  11.497 -1.3240  0.4356 -0.1859
  259MOL0     C35657   3.018   6.673  10.866 -0.2108  0.4462  0.4763
  259MOL0     C35658   3.065   6.777  10.779  0.4515 -0.3384  0.0045
  259MOL0     C35659   3.070   7.068  10.443  0.3424  0.2362 -0.3792
  259MOL0     C35660   3.110   7.015  10.314 -0.3012 -0.8728  0.0009
  259MOL0     C35661   3.153   7.097  10.209  0.7280 -0.3407  0.3518
  259MOL0     C35662   3.164   7.241  10.237  0.3060  0.1990 -0.5192
  259MOL0     O35663   3.201   7.334  10.141 -0.4323 -0.1254 -0.2481
  259MOL0     C35664   3.238   7.293  10.008  0.3540 -0.2761  0.1550
  259MOL0     C35665   3.288   7.411   9.926 -0.0724  0.1629  0.5648
  259MOL0     C35666   3.426   7.469   9.963 -0.1166  0.2457  0.1441
  259MOL0     C35667   3.450   7.609   9.904  0.2530 -1.0166 -0.2288
  259MOL0     C35668   3.483   7.611   9.765 -0.5018 -0.0748  0.6939
  259MOL0     C35669   3.515   7.627   9.648  0.0554  0.1516 -0.4758
  259MOL0     C35670   3.136   7.293  10.356  0.3157  0.3722  0.4527
  259MOL0     C35671   3.076   7.207  10.453  0.2761 -0.0139 -0.6638
  259MOL0     C35672   3.071   7.267  10.600  0.6457  0.7383 -0.0358
  259MOL0     H35673   2.800   6.983  10.806  0.5052 -1.0067 -2.9158
  259MOL0     H35674   2.712   6.797  10.927 -0.3735 -1.2799 -0.5117
  259MOL0     H35675   2.974   6.566  11.125  0.4657  3.4420 -1.5864
  259MOL0     H35676   2.885   6.428  11.094 -1.5723  0.5334  1.8175
  259MOL0     H35677   2.829   6.549  11.319  2.0727  0.0058 -1.1555
  259MOL0     H35678   2.715   6.637  11.205 -0.2653 -0.5006 -1.0028
  259MOL0     H35679   2.614   6.433  11.122  1.0529  0.8285  0.3460
  259MOL0     H35680   2.742   6.329  11.179  0.7915  0.2490 -3.5238
  259MOL0     H35681   2.686   6.352  11.408  1.8193 -0.4040 -2.0579
  259MOL0     H35682   2.582   6.489  11.378  0.2653 -0.6090  1.3592
  259MOL0     H35683   2.536   6.198  11.302  3.0745  1.0862  0.0147
  259MOL0     H35684   2.437   6.328  11.225 -1.1428  0.4917  0.8880
  259MOL0     H35685   2.443   6.314  11.527 -3.0923  4.7598  2.2968
  259MOL0     H35686   2.359   6.424  11.427 -1.1688 -0.5134  0.6862
  259MOL0     H35687   2.195   6.250  11.371  1.8019  1.4898 -0.6810
  259MOL0     H35688   2.233   6.223  11.533 -1.9133  1.7619 -0.8948
  259MOL0     H35689   2.358   6.080  11.291  0.1678  2.3034  1.0298
  259MOL0     H35690   2.403   6.059  11.466 -2.0328 -0.4048  2.2632
  259MOL0     H35691   2.260   5.867  11.220  0.2944  0.2169  0.4007
  259MOL0     H35692   2.057   5.606  11.330  1.8506 -0.8067 -2.0196
  259MOL0     H35693   2.076   5.690  11.179 -0.3495  1.7545 -0.5690
  259MOL0     H35694   1.848   5.738  11.383  0.2728  0.1553  0.0284
  259MOL0     H35695   1.835   5.803  11.229  1.6958  0.7221 -0.0113
  259MOL0     H35696   1.885   5.564  11.132  1.8342  4.1159 -0.3034
  259MOL0     H35697   1.815   5.507  11.295 -1.6686 -0.1409 -0.1992
  259MOL0     H35698   1.656   5.702  11.115  0.8576  0.5347  0.4855
  259MOL0     H35699   1.671   5.526  11.078  1.4189 -0.3580  0.2544
  259MOL0     H35700   1.400   5.622  11.402  1.3249  0.9690 -1.0060
  259MOL0     H35701   1.088   5.733  11.406 -0.5745 -0.3618 -1.8405
  259MOL0     H35702   1.193   5.609  11.488  2.1070  1.9352 -0.6684
  259MOL0     H35703   1.053   5.559  11.384 -0.7981  1.6827 -0.5470
  259MOL0     H35704   0.818   5.763  10.945  0.6006  1.2165  1.3346
  259MOL0     H35705   0.577   5.789  10.949 -3.4673  0.7428  2.2424
  259MOL0     H35706   0.376   5.903  11.020  0.4431  0.0233  1.1326
  259MOL0     H35707   0.301   5.736  10.985 -0.8723 -2.2818  2.1975
  259MOL0     H35708   0.143   5.777  11.170 -0.1247  0.9543 -1.3984
  259MOL0     H35709   0.217   5.938  11.207 -1.4665  3.1602 -1.4059
  259MOL0     H35710   0.159   6.008  10.975  0.9936 -0.4619 -0.2050
  259MOL0     H35711   0.026   6.005  11.090  0.4677 -0.9030  1.7054
  259MOL0     H35712   0.001   5.759  10.996  0.6012 -1.3064 -0.5547
  259MOL0     H35713   0.111   5.826  10.870 -0.7066  2.1424 -0.1691
  259MOL0     H35714  -0.168   5.958  10.960 -0.7361  1.4786 -1.9700
  259MOL0     H35715  -0.082   5.996  10.818 -2.8193  0.4560 -1.4603
  259MOL0     H35716  -0.204   5.734  10.882  1.5006 -0.8098  0.5815
  259MOL0     H35717  -0.106   5.766  10.727  0.3340  2.3266 -0.2837
  259MOL0     H35718  -0.363   5.906  10.825  0.7328  2.1826 -1.1744
  259MOL0     H35719  -0.367   5.769  10.716  0.7865 -0.2395 -0.7052
  259MOL0     H35720  -0.227   5.860  10.558 -0.8180 -1.0288  0.6257
  259MOL0     H35721  -0.246   6.029  10.637  0.7233 -0.7816  1.8866
  259MOL0     H35722   0.565   5.736  11.373  0.0110  1.6650  0.7235
  259MOL0     H35723   0.801   5.710  11.380  2.1051 -1.1031 -0.8061
  259MOL0     H35724   1.249   5.562  10.940 -2.0211  1.1980  1.1692
  259MOL0     H35725   1.472   5.532  10.995 -1.1385  0.5906 -0.0685
  259MOL0     H35726   3.091   6.594  10.874  0.9519  1.6255  2.2485
  259MOL0     H35727   3.157   6.758  10.724  1.3711 -1.7680  1.9122
  259MOL0     H35728   3.118   6.909  10.291  0.1571 -0.4002 -2.2703
  259MOL0     H35729   3.167   7.057  10.109  4.0097 -0.3438  0.7104
  259MOL0     H35730   3.313   7.214  10.009 -0.5694 -1.1605  0.5867
  259MOL0     H35731   3.142   7.256   9.973 -0.2103  1.4688 -0.2665
  259MOL0     H35732   3.218   7.495   9.932  1.0535  1.0520  2.4511
  259MOL0     H35733   3.299   7.374   9.824 -2.1878 -0.8375  0.6611
  259MOL0     H35734   3.409   7.492  10.068  2.1036 -1.5218  0.9724
  259MOL0     H35735   3.510   7.399   9.958 -1.7609 -2.0417  2.0283
  259MOL0     H35736   3.540   7.653   9.948 -1.0213 -0.5019  2.0145
  259MOL0     H35737   3.369   7.681   9.915  1.2120  0.2370 -1.0856
  259MOL0     H35738   3.539   7.652   9.547 -1.0935 -3.9319 -1.9471
  259MOL0     H35739   3.155   7.399  10.369  0.3441  0.5985 -1.3067
  259MOL0     H35740   2.974   7.251  10.646 -0.0462  1.1083 -1.3205
  259MOL0     H35741   3.137   7.220  10.674 -1.2941  1.5177  2.3317
  259MOL0     H35742   3.089   7.375  10.605  0.0111  0.7938  1.8651
  260MOL0     O35743   4.572   0.315   8.627  0.8640  0.4380 -0.2838
  260MOL0     C35744   4.549   0.196   8.611  0.1637  0.7678  0.1727
  260MOL0     O35745   4.436   0.131   8.648 -0.5832  0.0865  1.2924
  260MOL0     C35746   4.352   0.215   8.710  1.3665 -1.6419  0.1574
  260MOL0     C35747   4.348   0.211   8.848  0.3240 -0.0430 -0.1240
  260MOL0     C35748   4.299   0.308   8.927  0.2793 -0.1188 -0.2723
  260MOL0     C35749   4.221   0.416   8.867  0.5869  0.1583 -0.0380
  260MOL0     O35750   4.170   0.503   8.958  0.6097  0.1766  0.2306
  260MOL0     C35751   4.042   0.561   8.940  0.9436 -1.0759  0.9637
  260MOL0     C35752   3.929   0.459   8.948  1.1183 -0.0583  0.1550
  260MOL0     C35753   3.890   0.416   9.095 -0.3566  0.3107  0.5653
  260MOL0     C35754   3.744   0.368   9.116 -0.1575  0.0064 -0.3656
  260MOL0     C35755   3.721   0.242   9.037  0.3884  0.1521 -0.7134
  260MOL0     C35756   3.580   0.187   9.044  0.8487 -0.2444  0.7669
  260MOL0     C35757   3.563   0.047   8.984 -0.7751  0.5074 -0.2738
  260MOL0     C35758   3.626  -0.056   9.078 -0.3359  0.7427  0.2391
  260MOL0     N35759   3.537  -0.167   9.095 -0.7614 -0.0999 -0.1788
  260MOL0     C35760   3.426  -0.172   9.171  0.6400  0.2057  0.6550
  260MOL0     C35761   3.363  -0.287   9.128 -0.4967 -0.4063  1.0365
  260MOL0     C35762   3.239  -0.340   9.178 -0.2203 -0.5867  0.3157
  260MOL0     C35763   3.129  -0.261   9.111  0.0456  0.2570 -0.3873
  260MOL0     C35764   2.980  -0.292   9.160  0.8119 -0.8466 -1.6003
  260MOL0     C35765   2.950  -0.439   9.149  0.4757 -0.3077 -0.2827
  260MOL0     O35766   2.811  -0.447   9.192 -0.2808  0.6260  0.0675
  260MOL0     C35767   2.734  -0.551   9.143  0.3575 -0.1896 -0.3352
  260MOL0     C35768   2.782  -0.679   9.110  0.3307  0.3695  0.2426
  260MOL0     C35769   2.686  -0.783   9.102 -0.1269  0.6968 -0.5596
  260MOL0     C35770   2.748  -0.924   9.091  0.4138 -0.1375 -0.7135
  260MOL0     C35771   2.542  -0.757   9.093 -0.1062 -0.0319  0.1960
  260MOL0     C35772   2.443  -0.857   9.059 -0.3738  0.2836  0.2146
  260MOL0     O35773   2.481  -0.940   8.968  0.4090 -0.2142  0.0053
  260MOL0     C35774   2.391  -1.038   8.939 -0.7017 -0.4939  0.5778
  260MOL0     C35775   2.401  -1.158   9.013 -0.1481 -0.5962  0.3962
  260MOL0     C35776   2.309  -1.260   8.981  0.1144  0.1278  0.4604
  260MOL0     C35777   2.209  -1.241   8.875  0.3943  0.9180  0.1610
  260MOL0     O35778   2.129  -1.347   8.833 -0.6205  0.0677  0.2756
  260MOL0     C35779   1.997  -1.323   8.794  0.5095  0.4532  0.2261
  260MOL0     C35780   1.935  -1.458   8.774  0.7316  0.1119 -0.0156
  260MOL0     C35781   1.802  -1.453   8.695 -0.4672  1.2710 -0.5621
  260MOL0     C35782   1.750  -1.593   8.649 -0.3325 -0.2058  0.8080
  260MOL0     C35783   1.612  -1.579   8.594 -0.2358  1.0536 -0.6188
  260MOL0     C35784   1.563  -1.717   8.561  0.3105 -0.0996 -0.3160
  260MOL0     C35785   1.407  -1.715   8.546  0.2104 -0.1759  0.0255
  260MOL0     C35786   1.352  -1.631   8.422 -0.0528  1.1742 -0.2159
  260MOL0    Cl35787   1.179  -1.643   8.411 -0.0019 -0.0255 -0.3597
  260MOL0     C35788   2.212  -1.120   8.801 -1.3591 -0.5782  0.1925
  260MOL0     C35789   2.301  -1.022   8.841  0.3131  0.4110  0.5661
  260MOL0     O35790   2.339  -0.864   9.128  0.8477 -0.5045  0.8764
  260MOL0     C35791   2.507  -0.622   9.113  0.3157  0.5332 -0.6341
  260MOL0     C35792   2.598  -0.526   9.141 -0.3472 -0.4879 -0.4665
  260MOL0     N35793   3.449  -0.354   9.050 -0.2098 -0.4579  0.9664
  260MOL0     N35794   3.548  -0.276   9.017 -0.0464 -0.0288 -1.8412
  260MOL0     C35795   4.204   0.413   8.720  0.4077  0.5294 -0.1924
  260MOL0     C35796   4.275   0.312   8.647  0.2063 -0.0435  0.6853
  260MOL0     C35797   4.648   0.121   8.524 -0.6592  0.3284 -0.7802
  260MOL0     C35798   4.607   0.009   8.456  0.3168  0.0254 -0.2286
  260MOL0     C35799   4.688  -0.054   8.354  0.4623  0.7658 -1.1011
  260MOL0     C35800   4.809  -0.007   8.322  0.2439 -0.5279  0.9901
  260MOL0     O35801   4.888  -0.054   8.221  0.6372  0.6166 -0.4619
  260MOL0     C35802   4.970   0.043   8.152 -0.4513  0.1177 -0.1049
  260MOL0     C35803   4.977   0.026   7.998 -0.1476 -0.5918  0.5853
  260MOL0     C35804   4.850   0.095   7.947  0.1520 -0.2907 -0.2479
  260MOL0     C35805   4.827   0.069   7.800  0.2975  0.1034  0.7008
  260MOL0     C35806   4.701   0.138   7.754 -0.1341  0.1957 -0.4071
  260MOL0     C35807   4.595   0.184   7.720  0.8546  0.1641 -0.1647
  260MOL0     C35808   4.855   0.099   8.408  0.5852 -0.7908 -1.2610
  260MOL0     C35809   4.785   0.160   8.510 -0.0135  1.1684  0.9766
  260MOL0     C35810   4.849   0.281   8.586 -0.4766 -0.4331  0.3592
  260MOL0     H35811   4.393   0.126   8.898  1.2131  1.5540  1.9382
  260MOL0     H35812   4.304   0.286   9.033 -0.3754  1.5825  0.1383
  260MOL0     H35813   4.031   0.627   8.853  0.7818 -0.1577  1.6674
  260MOL0     H35814   4.035   0.634   9.022 -4.0324  2.2977 -1.8711
  260MOL0     H35815   3.840   0.513   8.914 -0.3992 -1.0673  2.2396
  260MOL0     H35816   3.946   0.372   8.883 -1.8552 -1.9866  1.6843
  260MOL0     H35817   3.962   0.340   9.129  0.4814  2.0228  2.9410
  260MOL0     H35818   3.905   0.501   9.162 -2.7125  2.0932 -1.0202
  260MOL0     H35819   3.720   0.355   9.222  2.0432  2.5143  0.5437
  260MOL0     H35820   3.686   0.452   9.077  3.9720  2.1578 -2.5771
  260MOL0     H35821   3.793   0.167   9.074 -0.4430  0.4207  1.5849
  260MOL0     H35822   3.742   0.268   8.933 -0.0761  1.7540 -0.4250
  260MOL0     H35823   3.546   0.184   9.148 -1.1965 -0.9737  0.1321
  260MOL0     H35824   3.508   0.249   8.989  1.6421 -0.7183 -0.8679
  260MOL0     H35825   3.598   0.041   8.880 -0.3969 -1.5331 -0.0559
  260MOL0     H35826   3.454   0.043   8.983 -0.7463 -1.5254 -2.2072
  260MOL0     H35827   3.710  -0.100   9.023 -1.0935  2.8387 -2.8524
  260MOL0     H35828   3.657  -0.013   9.174 -1.1395  3.8957 -0.8195
  260MOL0     H35829   3.396  -0.105   9.251  2.1199  1.5555  0.1243
  260MOL0     H35830   3.230  -0.326   9.286  0.7807  2.5005  0.0783
  260MOL0     H35831   3.241  -0.447   9.152 -1.2542 -0.2824 -1.1517
  260MOL0     H35832   3.149  -0.156   9.135  2.3747 -0.5255  1.5032
  260MOL0     H35833   3.137  -0.280   9.003  1.6464 -3.8608  0.2742
  260MOL0     H35834   2.973  -0.259   9.264 -0.2697 -1.9381 -1.2959
  260MOL0     H35835   2.923  -0.226   9.094  0.0875 -1.4887 -1.6306
  260MOL0     H35836   2.979  -0.484   9.054  2.4482 -1.9249  1.0042
  260MOL0     H35837   2.998  -0.498   9.227 -3.8038  0.2769  3.1586
  260MOL0     H35838   2.888  -0.696   9.125  0.5600  2.3011  1.1523
  260MOL0     H35839   2.848  -0.932   9.136 -0.1902 -2.3161  0.3551
  260MOL0     H35840   2.742  -0.956   8.987  0.6296  2.7875 -1.7154
  260MOL0     H35841   2.682  -0.992   9.144 -1.5545  1.8610 -0.4333
  260MOL0     H35842   2.473  -1.169   9.093  0.2967  1.8439  0.4248
  260MOL0     H35843   2.296  -1.349   9.042 -2.8438  1.2586  1.6660
  260MOL0     H35844   1.939  -1.264   8.866  0.0889  3.4510 -2.3454
  260MOL0     H35845   2.000  -1.267   8.700 -1.3651  0.0905 -0.0986
  260MOL0     H35846   2.002  -1.526   8.722 -1.8903 -0.6432 -2.6702
  260MOL0     H35847   1.915  -1.515   8.866 -0.1765 -0.2986 -0.4475
  260MOL0     H35848   1.822  -1.404   8.599 -0.8337 -1.8466 -2.3908
  260MOL0     H35849   1.738  -1.400   8.766 -0.1055 -0.1500  0.8773
  260MOL0     H35850   1.746  -1.668   8.728 -3.2636 -0.3504  0.6289
  260MOL0     H35851   1.802  -1.631   8.562  0.9554  0.5018  1.2345
  260MOL0     H35852   1.564  -1.547   8.687  2.2162  0.6406  0.8815
  260MOL0     H35853   1.589  -1.509   8.513  0.2568  0.4176 -1.3185
  260MOL0     H35854   1.588  -1.789   8.640 -1.1592  0.8645  1.1013
  260MOL0     H35855   1.617  -1.757   8.475  1.9041 -0.5369  0.8367
  260MOL0     H35856   1.369  -1.652   8.626  1.6402  0.0760  0.5309
  260MOL0     H35857   1.376  -1.819   8.559  1.4900 -0.7691 -1.3148
  260MOL0     H35858   1.396  -1.680   8.335  1.0799 -3.6578  2.6823
  260MOL0     H35859   1.385  -1.526   8.428 -1.3105  1.6000 -0.4431
  260MOL0     H35860   2.158  -1.106   8.708  0.0562 -0.2365 -0.6056
  260MOL0     H35861   2.305  -0.934   8.778 -1.2365  0.7923  0.9583
  260MOL0     H35862   2.399  -0.616   9.113 -0.2699 -5.0458  1.2443
  260MOL0     H35863   2.567  -0.424   9.162  0.8974  0.3028 -2.2557
  260MOL0     H35864   4.156   0.489   8.660  2.3382  1.6707 -0.3737
  260MOL0     H35865   4.282   0.323   8.539 -1.5610  3.2081  0.7912
  260MOL0     H35866   4.507  -0.034   8.464  0.7070 -0.7708  0.5657
  260MOL0     H35867   4.648  -0.150   8.321  2.3059  0.0822 -1.4407
  260MOL0     H35868   4.945   0.149   8.168  1.1525  0.5065 -0.0108
  260MOL0     H35869   5.067   0.020   8.198 -2.2248 -1.4177  3.2291
  260MOL0     H35870   4.985  -0.075   7.957  4.8734  0.5780 -2.1379
  260MOL0     H35871   5.059   0.079   7.950  1.1154 -1.8452  1.2840
  260MOL0     H35872   4.769   0.062   8.013 -1.1235  4.5684  1.0458
  260MOL0     H35873   4.834   0.203   7.956 -2.2539 -0.4542 -1.8116
  260MOL0     H35874   4.813  -0.037   7.777  1.6830  0.4690 -2.1789
  260MOL0     H35875   4.915   0.091   7.739  0.9454 -2.0533  0.7688
  260MOL0     H35876   4.498   0.215   7.687  0.0911 -0.8999  1.0395
  260MOL0     H35877   4.959   0.124   8.386  0.9396 -2.5033 -1.7278
  260MOL0     H35878   4.857   0.261   8.693  1.2199  0.0837  0.3455
  260MOL0     H35879   4.948   0.292   8.542  0.2231 -1.4041  1.6539
  260MOL0     H35880   4.794   0.373   8.564 -2.0740 -0.3269  3.9930
  261MOL0     O35881   9.665   7.746   3.797 -0.3420  0.0309 -0.4594
  261MOL0     C35882   9.592   7.837   3.842  0.6404 -0.3455 -1.0207
  261MOL0     O35883   9.636   7.966   3.853 -0.3708  0.0329  0.7135
  261MOL0     C35884   9.771   7.995   3.857 -0.2465 -0.6237 -0.7701
  261MOL0     C35885   9.825   8.048   3.967 -0.4764  0.4862 -0.9308
  261MOL0     C35886   9.964   8.083   3.987  0.2566  0.2289 -0.0173
  261MOL0     C35887  10.054   8.065   3.879 -0.5118 -0.8277 -0.3996
  261MOL0     O35888  10.190   8.099   3.877 -0.8597 -0.3145 -0.0507
  261MOL0     C35889  10.257   8.139   3.996 -0.4672 -0.4466 -0.1865
  261MOL0     C35890  10.290   8.283   3.996 -0.0540  0.7420  0.9924
  261MOL0     C35891  10.357   8.338   3.860 -0.3528  0.6986  0.3049
  261MOL0     C35892  10.471   8.246   3.821 -0.5772  0.1812 -0.0790
  261MOL0     C35893  10.577   8.319   3.735 -0.0700 -0.5266  0.8032
  261MOL0     C35894  10.691   8.232   3.667  0.4605 -0.6855  0.1695
  261MOL0     C35895  10.798   8.336   3.611 -0.9890 -0.4912  0.8765
  261MOL0     C35896  10.753   8.416   3.498 -0.3518  0.6744  0.4043
  261MOL0     N35897  10.737   8.325   3.380  0.1561 -0.3981 -0.0798
  261MOL0     C35898  10.636   8.327   3.284  0.2805  0.9021  0.0906
  261MOL0     C35899  10.669   8.242   3.182 -0.4105 -0.6394  0.3139
  261MOL0     C35900  10.596   8.203   3.049 -0.5858 -0.8366 -0.7233
  261MOL0     C35901  10.494   8.083   3.054 -0.0124  0.0867 -0.1110
  261MOL0     C35902  10.514   7.976   2.945 -0.8512 -0.3678  0.1553
  261MOL0     C35903  10.408   7.970   2.838 -0.3070  0.6439 -0.0478
  261MOL0     O35904  10.402   7.846   2.772  0.0500  0.2910 -1.0935
  261MOL0     C35905  10.462   7.836   2.649  0.5521 -0.8183 -0.3902
  261MOL0     C35906  10.419   7.719   2.588  0.0114  1.1748  0.8098
  261MOL0     C35907  10.455   7.694   2.454 -0.5316 -0.3301 -0.2027
  261MOL0     C35908  10.387   7.588   2.384 -0.1426  0.1057  1.2854
  261MOL0     C35909  10.546   7.786   2.387  0.2656  0.0282  1.1176
  261MOL0     C35910  10.592   7.768   2.244 -0.3254 -0.2062  0.2395
  261MOL0     O35911  10.504   7.708   2.158 -0.1652 -0.5300  0.3731
  261MOL0     C35912  10.537   7.657   2.036  0.3088  0.3317 -1.1276
  261MOL0     C35913  10.629   7.557   2.002 -0.0055 -0.7092 -0.5961
  261MOL0     C35914  10.639   7.504   1.875  0.6540 -0.8783  0.0658
  261MOL0     C35915  10.543   7.552   1.779 -0.0465 -0.9225 -0.4563
  261MOL0     O35916  10.525   7.505   1.652  0.3778  0.1530 -0.2597
  261MOL0     C35917  10.556   7.370   1.635 -0.4803 -0.0611 -0.1395
  261MOL0     C35918  10.443   7.288   1.563  0.2803  0.2965  0.1641
  261MOL0     C35919  10.306   7.326   1.623  0.2310 -0.2260  0.2847
  261MOL0     C35920  10.284   7.271   1.763 -0.0745  0.4340 -0.3411
  261MOL0     C35921  10.173   7.350   1.832 -0.8456  0.7557 -0.6716
  261MOL0     C35922  10.153   7.310   1.978 -0.1662 -0.4114  0.3740
  261MOL0     C35923  10.031   7.385   2.043  0.0335  0.0652  0.7549
  261MOL0     C35924  10.062   7.411   2.195  0.4230  0.0033 -0.1885
  261MOL0    Cl35925   9.916   7.472   2.275  0.1833  0.1229  0.1314
  261MOL0     C35926  10.449   7.653   1.808  0.0922 -0.2452 -0.3113
  261MOL0     C35927  10.450   7.702   1.939  0.3564 -0.2941  0.0456
  261MOL0     O35928  10.711   7.782   2.224 -0.2363  0.1098  0.1722
  261MOL0     C35929  10.605   7.888   2.465  0.2460  0.1625  0.5909
  261MOL0     C35930  10.560   7.917   2.599  0.3006  0.3407 -0.0778
  261MOL0     N35931  10.797   8.206   3.208  0.0565 -0.4256  0.2013
  261MOL0     N35932  10.833   8.250   3.328 -0.0661 -0.1308  0.8781
  261MOL0     C35933   9.997   8.003   3.760 -0.6641 -0.1767 -0.0921
  261MOL0     C35934   9.860   7.964   3.755 -0.1970  0.8836  0.1778
  261MOL0     C35935   9.455   7.802   3.887  0.4679 -0.0983  0.3868
  261MOL0     C35936   9.373   7.726   3.811  0.4409 -0.2599 -0.6570
  261MOL0     C35937   9.236   7.692   3.838 -0.0922  0.6736 -0.2548
  261MOL0     C35938   9.182   7.742   3.962 -0.0250  0.2127 -0.0059
  261MOL0     O35939   9.059   7.725   4.017  0.4179 -0.6514 -0.4326
  261MOL0     C35940   8.956   7.738   3.922 -0.0016  0.2229 -0.0811
  261MOL0     C35941   8.930   7.883   3.883  0.4631 -0.2220 -0.7494
  261MOL0     C35942   8.830   7.934   3.981  0.3080 -0.8621 -1.9942
  261MOL0     C35943   8.682   7.905   3.953 -0.1646 -1.2076  0.3282
  261MOL0     C35944   8.591   7.968   4.048  0.2315  0.3865  0.4793
  261MOL0     C35945   8.531   8.026   4.136  0.4719 -0.6013  0.4406
  261MOL0     C35946   9.269   7.813   4.043 -0.4648  0.7133 -0.6361
  261MOL0     C35947   9.400   7.838   4.011  0.3930 -0.0683 -0.3543
  261MOL0     C35948   9.483   7.924   4.102  0.9332 -0.1635 -0.0190
  261MOL0     H35949   9.773   8.064   4.061  1.7367  1.8142  0.1689
  261MOL0     H35950  10.000   8.121   4.082  3.6052 -0.5983 -0.8271
  261MOL0     H35951  10.351   8.083   3.997  1.1374  1.9211 -3.1292
  261MOL0     H35952  10.209   8.098   4.086 -0.4596  0.0337  0.0367
  261MOL0     H35953  10.209   8.349   4.026 -0.8470  0.7578 -0.9816
  261MOL0     H35954  10.376   8.289   4.063  0.5546 -1.8399  0.5741
  261MOL0     H35955  10.275   8.338   3.788 -1.8536  1.3064  1.9482
  261MOL0     H35956  10.397   8.438   3.879  0.4649 -0.1017  3.5861
  261MOL0     H35957  10.534   8.214   3.905  0.9111  1.6519 -0.5774
  261MOL0     H35958  10.442   8.157   3.764  0.7881  0.2251 -0.8799
  261MOL0     H35959  10.612   8.407   3.790 -1.4427  0.4596  0.1587
  261MOL0     H35960  10.519   8.370   3.658 -0.2816  1.2148  2.0433
  261MOL0     H35961  10.745   8.176   3.743  0.1507 -1.2333 -0.0046
  261MOL0     H35962  10.643   8.173   3.587  0.5963  0.4454 -0.7716
  261MOL0     H35963  10.890   8.278   3.599  0.3415  1.7209 -0.2078
  261MOL0     H35964  10.825   8.419   3.677  1.9856 -1.2876  0.8167
  261MOL0     H35965  10.656   8.465   3.513 -1.1331  0.2116 -2.4941
  261MOL0     H35966  10.832   8.489   3.478  1.2415 -0.9090  0.6798
  261MOL0     H35967  10.541   8.378   3.296 -1.5298 -1.3962 -3.0509
  261MOL0     H35968  10.681   8.184   2.983 -0.4552 -0.0020 -0.8152
  261MOL0     H35969  10.545   8.293   3.013  1.4140 -0.2804 -2.3612
  261MOL0     H35970  10.508   8.030   3.148 -1.4677  0.3624  0.2725
  261MOL0     H35971  10.394   8.125   3.066  0.5948  1.1231  1.8597
  261MOL0     H35972  10.614   7.992   2.904 -0.2888  3.2302  2.5430
  261MOL0     H35973  10.518   7.873   2.982 -0.4112 -0.7264 -0.8472
  261MOL0     H35974  10.311   7.976   2.888 -0.6695 -0.2329 -0.6257
  261MOL0     H35975  10.399   8.053   2.768 -1.4129 -1.2681 -2.3046
  261MOL0     H35976  10.354   7.643   2.630 -2.3449  2.7779  0.2810
  261MOL0     H35977  10.321   7.627   2.306  1.5431 -0.4826 -0.4946
  261MOL0     H35978  10.324   7.523   2.446 -1.5825 -2.2106 -2.2993
  261MOL0     H35979  10.466   7.531   2.335 -0.5276  0.2605  0.4680
  261MOL0     H35980  10.690   7.514   2.081 -1.5828 -3.2424 -0.6547
  261MOL0     H35981  10.705   7.421   1.851  0.6618 -1.0253  0.5858
  261MOL0     H35982  10.640   7.367   1.566 -1.0603 -1.4340 -0.8404
  261MOL0     H35983  10.588   7.316   1.725  1.1673  2.0656  0.6222
  261MOL0     H35984  10.451   7.310   1.456  0.2053 -0.6038 -0.0303
  261MOL0     H35985  10.460   7.182   1.584 -1.1837  0.5456  3.2873
  261MOL0     H35986  10.229   7.296   1.551  3.1186 -0.5109 -2.9355
  261MOL0     H35987  10.305   7.435   1.634 -0.7565  0.0415 -1.9130
  261MOL0     H35988  10.384   7.273   1.808 -0.7796  1.8248  1.2931
  261MOL0     H35989  10.259   7.165   1.768  3.8504 -0.5800  2.6773
  261MOL0     H35990  10.201   7.456   1.827 -1.7069  0.9560 -1.7491
  261MOL0     H35991  10.076   7.350   1.782 -1.5196 -0.0792  0.5873
  261MOL0     H35992  10.243   7.326   2.038  0.1662 -1.7098  0.2623
  261MOL0     H35993  10.135   7.203   1.989 -1.5108 -0.3556 -0.9447
  261MOL0     H35994   9.938   7.328   2.030 -0.1529  0.3228  0.9555
  261MOL0     H35995  10.012   7.483   1.998 -4.3240 -0.8239  0.1837
  261MOL0     H35996  10.133   7.494   2.204 -1.2647  1.5567 -0.5035
  261MOL0     H35997  10.104   7.327   2.250  3.3116  2.6783  2.1056
  261MOL0     H35998  10.379   7.686   1.731  1.4934 -0.4105 -1.7048
  261MOL0     H35999  10.384   7.778   1.976  0.6087  0.5541 -1.1773
  261MOL0     H36000  10.680   7.949   2.416 -0.6763 -2.1198 -4.3336
  261MOL0     H36001  10.603   8.004   2.648  0.4694  0.4504 -0.4169
  261MOL0     H36002  10.059   7.982   3.674 -0.2765  1.5342 -0.2648
  261MOL0     H36003   9.828   7.914   3.664  1.1656 -0.0958  0.2119
  261MOL0     H36004   9.399   7.698   3.709 -0.5330  0.2720 -1.0619
  261MOL0     H36005   9.179   7.637   3.764  0.1286  1.2883 -0.8827
  261MOL0     H36006   8.986   7.690   3.829 -0.0910 -0.0096  0.0102
  261MOL0     H36007   8.870   7.680   3.959 -0.4585  2.0180  1.9023
  261MOL0     H36008   8.887   7.894   3.783 -0.4681  1.1381 -0.2280
  261MOL0     H36009   9.022   7.942   3.884  0.7047 -0.5324  1.5472
  261MOL0     H36010   8.848   7.899   4.083 -1.2538  3.3453 -0.0638
  261MOL0     H36011   8.856   8.040   3.980  2.2103 -1.2549 -4.5460
  261MOL0     H36012   8.663   7.799   3.935  3.5506 -1.6316 -2.4058
  261MOL0     H36013   8.659   7.949   3.855  1.6389 -1.3475 -0.1939
  261MOL0     H36014   8.466   8.079   4.202  0.1200 -0.8959  0.3382
  261MOL0     H36015   9.228   7.851   4.136 -0.4720  1.4753 -0.9399
  261MOL0     H36016   9.498   8.027   4.067  2.7721 -0.5547 -0.5056
  261MOL0     H36017   9.435   7.934   4.199  2.5762 -0.1931  0.8222
  261MOL0     H36018   9.580   7.879   4.126  0.9893  0.1784  0.3850
  262MOL0     O36019   1.735   0.115   6.905  1.3198 -0.3381 -0.8331
  262MOL0     C36020   1.770   0.175   7.009  0.0464 -0.2017  0.6764
  262MOL0     O36021   1.778   0.113   7.130  0.1693 -1.0384 -0.7146
  262MOL0     C36022   1.735  -0.016   7.146  0.4249  1.1782 -0.0919
  262MOL0     C36023   1.835  -0.107   7.161 -0.6442  1.0753 -0.4217
  262MOL0     C36024   1.800  -0.244   7.132 -0.6627 -0.1951  0.3541
  262MOL0     C36025   1.666  -0.278   7.105 -0.1546  0.5190 -0.3361
  262MOL0     O36026   1.616  -0.400   7.081  0.0485  0.1591  1.4615
  262MOL0     C36027   1.709  -0.504   7.043  0.1761  0.0134 -0.2627
  262MOL0     C36028   1.630  -0.631   6.993 -0.2778 -0.3874 -0.1887
  262MOL0     C36029   1.567  -0.707   7.110 -0.5764 -0.3666 -0.5871
  262MOL0     C36030   1.495  -0.822   7.060  0.3768  0.3656  0.6352
  262MOL0     C36031   1.440  -0.892   7.184 -0.3994  0.1746 -1.0532
  262MOL0     C36032   1.354  -1.020   7.137 -0.7432  0.0146 -0.5894
  262MOL0     C36033   1.348  -1.119   7.252 -0.5488 -0.5098  0.5861
  262MOL0     C36034   1.469  -1.199   7.269 -0.1487 -0.2670 -0.8289
  262MOL0     N36035   1.455  -1.317   7.347  0.6761 -0.1958 -0.4716
  262MOL0     C36036   1.428  -1.325   7.491 -0.6569  0.2879  0.3843
  262MOL0     C36037   1.387  -1.457   7.507 -0.2596 -0.2215 -0.9456
  262MOL0     C36038   1.355  -1.526   7.639 -0.0644 -0.2097  0.3939
  262MOL0     C36039   1.470  -1.548   7.745  0.4555  1.0513 -0.6607
  262MOL0     C36040   1.408  -1.618   7.873 -0.2876  0.3415 -0.2813
  262MOL0     C36041   1.470  -1.574   8.006 -0.0904 -1.1525 -1.1199
  262MOL0     O36042   1.601  -1.607   8.023  0.0034 -0.2480  0.1877
  262MOL0     C36043   1.680  -1.522   8.102 -1.1454  0.5324 -0.5446
  262MOL0     C36044   1.636  -1.417   8.183 -0.7517 -0.0165  0.5107
  262MOL0     C36045   1.723  -1.333   8.248  0.3157  0.5118  0.9787
  262MOL0     C36046   1.667  -1.216   8.310  0.0995 -0.8161  0.0084
  262MOL0     C36047   1.864  -1.367   8.246 -0.1325 -0.8999  0.6850
  262MOL0     C36048   1.965  -1.278   8.310  0.2528  0.6601 -0.0472
  262MOL0     O36049   2.066  -1.235   8.230 -0.0358  0.1001 -0.2002
  262MOL0     C36050   2.178  -1.176   8.281  0.6947 -0.2848 -1.2912
  262MOL0     C36051   2.179  -1.081   8.389  0.2361 -0.1868  0.4764
  262MOL0     C36052   2.297  -1.045   8.442  0.0425  0.5884  0.5844
  262MOL0     C36053   2.421  -1.088   8.392 -0.1166  0.6876  0.5919
  262MOL0     O36054   2.541  -1.054   8.444  0.6051 -0.4552  0.2939
  262MOL0     C36055   2.547  -1.007   8.577  1.5246  0.4245  0.9863
  262MOL0     C36056   2.687  -1.024   8.625  0.4343 -0.1834 -0.2312
  262MOL0     C36057   2.708  -1.150   8.709  0.4751 -0.2402 -0.4622
  262MOL0     C36058   2.650  -1.277   8.633 -0.4611  0.0650  0.1363
  262MOL0     C36059   2.697  -1.412   8.704 -0.9059 -0.5205 -1.0296
  262MOL0     C36060   2.682  -1.533   8.615 -0.0030  0.3483  0.7683
  262MOL0     C36061   2.711  -1.658   8.691 -0.0049  0.2324  0.0248
  262MOL0     C36062   2.672  -1.774   8.600 -0.1366  0.9563  0.4105
  262MOL0    Cl36063   2.682  -1.915   8.712 -0.3983  0.4607 -0.2249
  262MOL0     C36064   2.415  -1.161   8.270  0.3414 -1.1324 -0.2334
  262MOL0     C36065   2.303  -1.211   8.226  0.8429 -0.0549 -0.3530
  262MOL0     O36066   1.944  -1.233   8.427  0.6149  0.9459 -0.3889
  262MOL0     C36067   1.911  -1.467   8.159 -0.0214 -0.7267  0.2223
  262MOL0     C36068   1.811  -1.542   8.081 -1.0486  0.1207  0.2383
  262MOL0     N36069   1.372  -1.515   7.381 -0.7109  0.3707 -0.2020
  262MOL0     N36070   1.418  -1.433   7.289 -0.1621  0.2566  0.2237
  262MOL0     C36071   1.563  -0.180   7.103 -0.3825  0.6389 -1.0157
  262MOL0     C36072   1.603  -0.048   7.126  0.4412  0.3046 -0.5429
  262MOL0     C36073   1.827   0.315   6.995  0.1194 -0.3869 -0.5673
  262MOL0     C36074   1.868   0.380   7.110  1.0660  0.1900  1.0862
  262MOL0     C36075   1.909   0.512   7.121  0.0599 -0.8276  0.2937
  262MOL0     C36076   1.923   0.589   6.998 -0.2899  0.5238  0.3973
  262MOL0     O36077   1.972   0.716   7.001  0.5521 -0.4114  0.1689
  262MOL0     C36078   1.983   0.793   7.125 -0.1252  0.7700  0.3709
  262MOL0     C36079   2.106   0.884   7.118 -0.3328 -0.2398 -0.0423
  262MOL0     C36080   2.231   0.800   7.124  0.2298  0.5671 -0.4094
  262MOL0     C36081   2.362   0.878   7.119 -1.3011 -0.4407 -0.0880
  262MOL0     C36082   2.364   0.984   7.022  0.1547  0.2694 -0.1164
  262MOL0     C36083   2.384   1.073   6.935 -0.5764 -0.3095 -0.8503
  262MOL0     C36084   1.874   0.536   6.882 -0.0728 -0.4920 -0.2519
  262MOL0     C36085   1.829   0.399   6.877 -0.1778  0.6067  0.0407
  262MOL0     C36086   1.765   0.347   6.747 -0.0704  1.2303 -0.1556
  262MOL0     H36087   1.939  -0.076   7.161  0.5633 -2.5444  0.4416
  262MOL0     H36088   1.882  -0.314   7.134 -1.7666 -1.5246  0.5998
  262MOL0     H36089   1.780  -0.536   7.120 -0.0187 -5.0219 -1.7684
  262MOL0     H36090   1.764  -0.465   6.957  1.4279 -0.4316  0.3137
  262MOL0     H36091   1.555  -0.609   6.916  1.4481 -1.4967 -2.2952
  262MOL0     H36092   1.708  -0.689   6.943  0.2913  0.8083 -0.7380
  262MOL0     H36093   1.654  -0.731   7.172 -1.1211  0.3844  0.5091
  262MOL0     H36094   1.494  -0.647   7.166  3.4739  4.0960  0.5958
  262MOL0     H36095   1.412  -0.783   7.001  0.9716  1.2429  0.3619
  262MOL0     H36096   1.556  -0.895   7.006 -1.2302  0.9175 -2.1116
  262MOL0     H36097   1.373  -0.824   7.237 -1.8794 -0.6548 -1.8055
  262MOL0     H36098   1.522  -0.923   7.250 -1.2792 -0.6164 -0.3047
  262MOL0     H36099   1.251  -0.985   7.131 -0.8985  0.3549  2.4835
  262MOL0     H36100   1.392  -1.067   7.046 -2.1779 -3.0484  0.2790
  262MOL0     H36101   1.271  -1.191   7.223  0.5939 -1.8057  0.6780
  262MOL0     H36102   1.310  -1.073   7.344  2.7876  1.6718  1.0256
  262MOL0     H36103   1.515  -1.215   7.171  0.3846 -2.4134 -0.2749
  262MOL0     H36104   1.543  -1.133   7.317 -0.3772  0.0680 -0.9376
  262MOL0     H36105   1.441  -1.251   7.570  1.1626  0.5201 -0.0919
  262MOL0     H36106   1.320  -1.627   7.619 -1.3491  0.1145  0.9542
  262MOL0     H36107   1.268  -1.486   7.691 -0.3515 -0.9442  0.4908
  262MOL0     H36108   1.555  -1.603   7.703  0.6336  0.5973  0.2682
  262MOL0     H36109   1.518  -1.452   7.765  2.0719  0.4843 -1.6473
  262MOL0     H36110   1.302  -1.592   7.876 -1.0511 -2.0450 -2.8583
  262MOL0     H36111   1.418  -1.726   7.870  4.3686  0.4020  2.8160
  262MOL0     H36112   1.453  -1.466   8.007 -0.5552 -1.2239 -0.0900
  262MOL0     H36113   1.412  -1.615   8.088  0.3916  1.5067  0.6722
  262MOL0     H36114   1.529  -1.403   8.197 -0.8926 -0.5950  0.0621
  262MOL0     H36115   1.561  -1.197   8.292  0.5629  0.2513 -1.8114
  262MOL0     H36116   1.722  -1.127   8.277 -0.5900 -0.0071  0.9512
  262MOL0     H36117   1.681  -1.214   8.419  1.5988  2.4011 -0.1354
  262MOL0     H36118   2.088  -1.041   8.432  3.2735  5.4311  2.7680
  262MOL0     H36119   2.302  -0.976   8.526  0.0722  1.0995  0.1622
  262MOL0     H36120   2.531  -0.899   8.585 -1.2880  0.0514  1.5035
  262MOL0     H36121   2.483  -1.054   8.652  2.8876  1.5763  2.9929
  262MOL0     H36122   2.754  -1.032   8.539  1.3858  2.4899  0.1554
  262MOL0     H36123   2.715  -0.935   8.683  1.6848 -0.0318 -1.0391
  262MOL0     H36124   2.644  -1.134   8.796  1.7687  0.8612  0.3132
  262MOL0     H36125   2.809  -1.163   8.749 -0.8342 -2.5968  2.5056
  262MOL0     H36126   2.692  -1.282   8.532 -0.9141  1.6247 -0.1543
  262MOL0     H36127   2.541  -1.290   8.625 -0.3465 -0.9297  0.0585
  262MOL0     H36128   2.805  -1.409   8.722 -0.9841  3.1442 -0.5183
  262MOL0     H36129   2.639  -1.418   8.796  1.4645 -1.7253  0.4754
  262MOL0     H36130   2.750  -1.528   8.530  1.2326 -0.5266  1.6656
  262MOL0     H36131   2.584  -1.533   8.567  1.1124  1.0185 -1.6772
  262MOL0     H36132   2.666  -1.674   8.790 -1.7835  0.3928 -0.7224
  262MOL0     H36133   2.816  -1.663   8.720 -0.3643  0.9670  1.5802
  262MOL0     H36134   2.751  -1.779   8.524 -0.2733  1.0907  0.2575
  262MOL0     H36135   2.571  -1.772   8.558 -0.2647  2.0756  0.7382
  262MOL0     H36136   2.518  -1.173   8.239  0.7413  0.3871  0.4329
  262MOL0     H36137   2.311  -1.285   8.147  3.6230  2.2655 -2.4714
  262MOL0     H36138   2.016  -1.493   8.150  0.0897  0.0392 -0.7971
  262MOL0     H36139   1.835  -1.622   8.012  1.5268 -1.9999  3.2838
  262MOL0     H36140   1.456  -0.202   7.101 -0.9462  2.5525  1.5568
  262MOL0     H36141   1.530   0.032   7.117 -0.8051 -0.6569  0.6585
  262MOL0     H36142   1.860   0.312   7.195 -3.1930  1.6688  2.1627
  262MOL0     H36143   1.933   0.536   7.224 -0.4051 -2.0464  0.6983
  262MOL0     H36144   1.899   0.863   7.125 -1.5412 -0.7600  2.9781
  262MOL0     H36145   1.974   0.738   7.220  0.9271 -2.2147 -1.1258
  262MOL0     H36146   2.107   0.958   7.199 -1.2310  1.2014 -1.2766
  262MOL0     H36147   2.098   0.942   7.025 -0.9073  0.7172  0.5805
  262MOL0     H36148   2.237   0.740   7.216  0.1464  1.4866  0.2112
  262MOL0     H36149   2.222   0.731   7.039 -0.5440 -0.3778  0.4151
  262MOL0     H36150   2.435   0.800   7.094 -1.8156 -0.0787 -3.1321
  262MOL0     H36151   2.380   0.924   7.217 -1.8548 -0.1363 -0.1256
  262MOL0     H36152   2.411   1.138   6.853  0.9973  1.8497  1.2358
  262MOL0     H36153   1.897   0.584   6.787 -2.2358 -1.0235 -1.0928
  262MOL0     H36154   1.826   0.270   6.699 -0.0118  1.2884 -0.1752
  262MOL0     H36155   1.660   0.318   6.758 -0.0375  1.3058  0.3957
  262MOL0     H36156   1.759   0.427   6.673 -0.8958  0.2242 -1.2228
  263MOL0     O36157   8.205   0.896   6.161 -0.1803 -0.0311  0.1824
  263MOL0     C36158   8.102   0.960   6.146  0.1464  0.4223  0.7485
  263MOL0     O36159   8.087   1.089   6.182  0.1112 -0.3633  0.4761
  263MOL0     C36160   8.192   1.175   6.200 -0.1709  0.6830 -0.0666
  263MOL0     C36161   8.220   1.243   6.311  0.0778 -0.3506 -0.7013
  263MOL0     C36162   8.337   1.317   6.325 -0.9630  0.1725 -0.4973
  263MOL0     C36163   8.425   1.350   6.215 -0.0747 -0.1400 -0.8678
  263MOL0     O36164   8.529   1.445   6.214  0.0242  0.3363  0.5835
  263MOL0     C36165   8.618   1.442   6.108 -0.7928  0.4870 -0.0487
  263MOL0     C36166   8.719   1.324   6.118 -0.3854 -0.0576 -0.5329
  263MOL0     C36167   8.784   1.303   6.253  0.2522  0.0411 -0.6621
  263MOL0     C36168   8.856   1.431   6.310  0.8137 -0.3435  0.9589
  263MOL0     C36169   8.986   1.396   6.399  1.1691  0.0121 -0.4769
  263MOL0     C36170   8.929   1.308   6.513 -0.3137  0.3091  0.1037
  263MOL0     C36171   9.044   1.211   6.576 -0.3035 -0.4807  0.7099
  263MOL0     C36172   9.020   1.198   6.731 -0.8691 -0.2334 -0.8223
  263MOL0     N36173   8.909   1.109   6.763 -0.1360  0.9941  0.0035
  263MOL0     C36174   8.919   0.994   6.836 -1.0173 -1.1043  0.2499
  263MOL0     C36175   8.798   0.971   6.891 -0.2051 -0.1812 -0.6912
  263MOL0     C36176   8.759   0.856   6.978  1.1698  0.6651 -0.6397
  263MOL0     C36177   8.625   0.797   6.933 -0.0772  0.0520  0.2129
  263MOL0     C36178   8.507   0.884   6.999  0.4513  0.3440  1.0048
  263MOL0     C36179   8.366   0.826   7.014  0.3449 -1.0353  0.1063
  263MOL0     O36180   8.376   0.703   7.083 -0.2959  1.1713  0.1875
  263MOL0     C36181   8.428   0.699   7.213  0.4337  0.0350 -0.3569
  263MOL0     C36182   8.481   0.569   7.250  0.2401 -0.2006 -1.2219
  263MOL0     C36183   8.551   0.547   7.369 -0.7003 -0.2616  0.3894
  263MOL0     C36184   8.585   0.407   7.393 -0.0348  0.5387  0.0528
  263MOL0     C36185   8.578   0.657   7.459 -0.1444  0.1856 -0.0544
  263MOL0     C36186   8.660   0.648   7.586 -0.1395 -1.4676  1.0631
  263MOL0     O36187   8.727   0.759   7.614 -0.3072 -0.2606  0.8976
  263MOL0     C36188   8.817   0.762   7.716 -0.1067 -0.1139 -0.1066
  263MOL0     C36189   8.830   0.881   7.790 -0.5989  0.9159  0.2668
  263MOL0     C36190   8.926   0.895   7.894  0.1233 -0.9653  0.6039
  263MOL0     C36191   9.009   0.793   7.933  0.0388  0.4904  0.4118
  263MOL0     O36192   9.084   0.824   8.044  0.3548 -0.0038  0.1303
  263MOL0     C36193   9.183   0.728   8.080 -0.7512 -0.3424  0.4860
  263MOL0     C36194   9.307   0.733   7.993  0.2412 -1.4953  0.9847
  263MOL0     C36195   9.379   0.867   8.035 -0.9227 -0.0332 -0.0366
  263MOL0     C36196   9.516   0.878   7.957  0.3992  0.5015 -0.9922
  263MOL0     C36197   9.590   1.006   7.982 -0.5103 -0.1386 -0.1248
  263MOL0     C36198   9.621   1.036   8.133 -0.3419 -0.1500 -0.4670
  263MOL0     C36199   9.716   1.167   8.146 -0.7623 -0.0805  0.3273
  263MOL0     C36200   9.871   1.128   8.127  0.0074 -0.3355 -0.2050
  263MOL0    Cl36201   9.945   1.083   8.282  0.2109  0.0249 -0.4461
  263MOL0     C36202   9.009   0.671   7.855  0.0200 -0.6454  0.2968
  263MOL0     C36203   8.909   0.662   7.752 -0.1857  0.4469 -0.3250
  263MOL0     O36204   8.677   0.546   7.642  0.2837 -0.6886  0.4080
  263MOL0     C36205   8.519   0.780   7.425  0.0235  1.0461 -0.3650
  263MOL0     C36206   8.447   0.802   7.309  0.2340 -0.1796 -0.2538
  263MOL0     N36207   8.711   1.061   6.830  0.2534  0.2007 -0.3103
  263MOL0     N36208   8.780   1.153   6.768 -0.0944 -0.2598 -0.6188
  263MOL0     C36209   8.378   1.284   6.096  0.5065  0.0809  0.0023
  263MOL0     C36210   8.272   1.193   6.090 -0.0728  0.6078 -0.1974
  263MOL0     C36211   7.981   0.904   6.071  0.9884 -0.1004 -0.1264
  263MOL0     C36212   7.846   0.955   6.104 -0.1263  0.0883  0.6099
  263MOL0     C36213   7.736   0.900   6.041  0.3035 -0.0810 -0.7686
  263MOL0     C36214   7.753   0.813   5.938  0.6445 -0.8270  0.1724
  263MOL0     O36215   7.637   0.782   5.869 -0.7336 -0.4712 -0.0307
  263MOL0     C36216   7.632   0.663   5.791 -0.1990  0.1023 -0.3966
  263MOL0     C36217   7.488   0.615   5.764  0.0304  0.7017  0.4531
  263MOL0     C36218   7.440   0.550   5.897  0.4968 -0.1547  0.7558
  263MOL0     C36219   7.290   0.490   5.896  0.1738  0.3996  0.7946
  263MOL0     C36220   7.257   0.407   5.780 -1.1716  0.2226 -0.6767
  263MOL0     C36221   7.265   0.351   5.666  0.1340  0.3614 -0.3717
  263MOL0     C36222   7.877   0.756   5.906  0.4789 -0.4982 -0.4534
  263MOL0     C36223   7.992   0.800   5.969  0.5345 -0.8520 -0.1691
  263MOL0     C36224   8.123   0.765   5.899 -0.3701  0.7970  0.5459
  263MOL0     H36225   8.149   1.222   6.391  1.3686 -0.2655  0.4930
  263MOL0     H36226   8.349   1.360   6.424 -1.6016  1.8873 -1.1421
  263MOL0     H36227   8.687   1.526   6.124 -0.1048 -0.3773  1.7691
  263MOL0     H36228   8.559   1.457   6.017 -2.1082  1.0829  0.8800
  263MOL0     H36229   8.661   1.235   6.092 -0.6239  0.1311 -0.6461
  263MOL0     H36230   8.786   1.327   6.031  0.0096 -0.4308 -0.2499
  263MOL0     H36231   8.711   1.262   6.324 -0.1091  3.2654  1.0453
  263MOL0     H36232   8.862   1.229   6.235  2.6343  2.5189 -1.1752
  263MOL0     H36233   8.886   1.484   6.219 -0.1976 -0.4525  0.5409
  263MOL0     H36234   8.774   1.485   6.359 -0.9948 -1.0887 -1.0853
  263MOL0     H36235   9.040   1.483   6.437  1.8304  1.5557 -4.4375
  263MOL0     H36236   9.048   1.333   6.334 -0.7265  0.9868 -3.4569
  263MOL0     H36237   8.881   1.368   6.591 -1.3486 -2.8557  2.0784
  263MOL0     H36238   8.845   1.245   6.484 -0.8958  0.8968  0.4619
  263MOL0     H36239   9.145   1.248   6.559 -0.5876 -0.6150 -1.5850
  263MOL0     H36240   9.034   1.111   6.533 -1.0365  0.3703 -1.2004
  263MOL0     H36241   9.117   1.152   6.753 -0.6356  0.7154  0.1784
  263MOL0     H36242   9.007   1.284   6.797  2.7498  1.6651 -2.3276
  263MOL0     H36243   9.011   0.942   6.863 -2.2186 -4.5591 -1.7245
  263MOL0     H36244   8.753   0.875   7.086 -1.9125  0.1497 -0.6110
  263MOL0     H36245   8.835   0.783   6.952  0.1762 -0.4125 -0.5941
  263MOL0     H36246   8.611   0.806   6.825 -1.6281  0.6495  0.4294
  263MOL0     H36247   8.627   0.690   6.953  1.0222  0.4210  2.4291
  263MOL0     H36248   8.536   0.929   7.094 -1.3190  0.7873  1.3685
  263MOL0     H36249   8.489   0.964   6.927 -0.1686 -0.0157  0.7522
  263MOL0     H36250   8.300   0.894   7.069  3.0974  1.1852  0.8888
  263MOL0     H36251   8.333   0.794   6.914  1.2543 -1.7299  0.0184
  263MOL0     H36252   8.463   0.489   7.178 -2.2263 -0.9408  0.1162
  263MOL0     H36253   8.691   0.387   7.411 -0.8409 -1.0671  3.8719
  263MOL0     H36254   8.558   0.348   7.305 -0.2111  0.2534  0.2989
  263MOL0     H36255   8.526   0.376   7.479 -1.3450 -1.1101 -1.3744
  263MOL0     H36256   8.772   0.964   7.751  0.8174  2.1662  0.6901
  263MOL0     H36257   8.947   0.991   7.940  1.5891 -0.5493 -0.8418
  263MOL0     H36258   9.207   0.750   8.185  1.4970 -1.4622  0.2602
  263MOL0     H36259   9.145   0.626   8.089 -0.2577 -0.5720 -0.0338
  263MOL0     H36260   9.363   0.640   8.010 -2.4412 -3.2737  0.7672
  263MOL0     H36261   9.286   0.728   7.886 -1.4570 -2.9580  1.3472
  263MOL0     H36262   9.391   0.867   8.144 -2.0725  0.5201  0.1070
  263MOL0     H36263   9.321   0.955   8.005 -0.6504  0.8186  1.7880
  263MOL0     H36264   9.488   0.864   7.852 -0.4562  1.7134 -0.9417
  263MOL0     H36265   9.586   0.797   7.978  2.8958  1.8477 -3.4368
  263MOL0     H36266   9.687   1.004   7.933  0.8839 -0.6338  2.4545
  263MOL0     H36267   9.539   1.094   7.941 -2.4675 -1.1773 -0.0702
  263MOL0     H36268   9.661   0.946   8.183  1.2037  0.8692  0.2146
  263MOL0     H36269   9.527   1.062   8.182 -0.3920  1.2672 -1.2714
  263MOL0     H36270   9.694   1.216   8.241 -0.7065  0.3586  0.1154
  263MOL0     H36271   9.703   1.241   8.067  2.9778  0.8684  0.4367
  263MOL0     H36272   9.916   1.210   8.071  1.1001 -1.5311 -1.1481
  263MOL0     H36273   9.872   1.041   8.061  0.1413 -0.9710  0.6186
  263MOL0     H36274   9.071   0.584   7.875 -0.8428 -1.0042  1.6195
  263MOL0     H36275   8.921   0.568   7.699  0.3414  0.3413 -0.0334
  263MOL0     H36276   8.530   0.863   7.494  0.2802  0.3213  0.4878
  263MOL0     H36277   8.401   0.900   7.304 -1.7726 -1.1373 -1.9344
  263MOL0     H36278   8.415   1.317   5.999  0.1405  3.5703  0.9325
  263MOL0     H36279   8.244   1.157   5.992  0.9599  1.0110 -0.6517
  263MOL0     H36280   7.825   1.038   6.170 -3.6194 -2.1263  2.6603
  263MOL0     H36281   7.635   0.925   6.072  0.2027 -3.5015  2.4427
  263MOL0     H36282   7.668   0.693   5.693 -0.2652 -0.3283 -0.5557
  263MOL0     H36283   7.700   0.588   5.832  0.5916  0.1177 -1.6354
  263MOL0     H36284   7.502   0.532   5.694 -3.8643 -0.2962  0.6652
  263MOL0     H36285   7.407   0.677   5.727 -3.0036 -2.1528  1.7633
  263MOL0     H36286   7.515   0.474   5.921 -0.7374 -2.2765 -1.6606
  263MOL0     H36287   7.437   0.629   5.973 -2.8228 -0.7224  1.3474
  263MOL0     H36288   7.210   0.562   5.917  0.3264  0.2157  2.0546
  263MOL0     H36289   7.300   0.416   5.976  1.7405  2.4256  2.6106
  263MOL0     H36290   7.269   0.305   5.569 -1.1048  1.1283 -0.8019
  263MOL0     H36291   7.880   0.679   5.830 -5.2104 -1.2908 -0.3185
  263MOL0     H36292   8.187   0.697   5.956 -0.2883 -1.6382 -2.1979
  263MOL0     H36293   8.102   0.717   5.803 -3.6792  0.8597  1.1183
  263MOL0     H36294   8.182   0.855   5.881 -1.8901  1.5313 -0.9945
  264MOL0     O36295   3.110  10.479   4.266 -0.5253 -0.3449  0.0895
  264MOL0     C36296   3.206  10.560   4.285 -0.1373 -0.0545 -0.5951
  264MOL0     O36297   3.334  10.525   4.297 -0.4333 -0.4558 -0.1420
  264MOL0     C36298   3.365  10.387   4.291  0.1187  0.1520  0.2286
  264MOL0     C36299   3.345  10.306   4.182 -0.5900 -0.6440 -0.2723
  264MOL0     C36300   3.380  10.168   4.170  0.2867 -0.0724 -0.7040
  264MOL0     C36301   3.427  10.104   4.285 -0.9570  0.5596  0.2933
  264MOL0     O36302   3.453   9.972   4.275  1.0314  0.5194 -0.1825
  264MOL0     C36303   3.347   9.888   4.336 -0.8404  0.5122 -0.4557
  264MOL0     C36304   3.382   9.735   4.338  0.7724 -0.3363 -0.0423
  264MOL0     C36305   3.280   9.662   4.426  0.7517 -0.7945 -0.0371
  264MOL0     C36306   3.286   9.511   4.437 -0.5126 -0.3036  0.5151
  264MOL0     C36307   3.415   9.451   4.451 -1.0691  0.0058 -0.4999
  264MOL0     C36308   3.488   9.500   4.585 -0.4992  1.0783 -0.2763
  264MOL0     C36309   3.634   9.466   4.585  0.6832 -0.0541 -0.3784
  264MOL0     C36310   3.708   9.602   4.563  0.4739 -0.3108  0.5812
  264MOL0     N36311   3.839   9.576   4.503 -0.1294 -0.3479 -0.6153
  264MOL0     C36312   3.876   9.500   4.395 -0.2763 -0.0240  0.2646
  264MOL0     C36313   4.016   9.499   4.400  0.5600  0.6181  0.3764
  264MOL0     C36314   4.111   9.428   4.306  0.0563 -0.9124 -0.5557
  264MOL0     C36315   4.146   9.298   4.375  0.1680 -0.0911 -0.0124
  264MOL0     C36316   4.237   9.285   4.497  0.0628 -0.4266 -0.7283
  264MOL0     C36317   4.267   9.138   4.535  0.1019  0.6569 -0.3906
  264MOL0     O36318   4.159   9.092   4.616  0.1757  0.2193  0.0822
  264MOL0     C36319   4.151   8.957   4.644 -0.3173 -0.3249  0.1269
  264MOL0     C36320   4.118   8.930   4.774 -0.2461 -0.0273  0.1569
  264MOL0     C36321   4.106   8.800   4.816 -0.3545 -0.5335 -0.1036
  264MOL0     C36322   4.074   8.790   4.965  0.2662  0.0797 -0.3177
  264MOL0     C36323   4.131   8.689   4.730  0.1351 -0.7579  0.0824
  264MOL0     C36324   4.110   8.549   4.760 -0.8113 -0.3442  1.0621
  264MOL0     O36325   4.108   8.461   4.652 -0.6584 -0.0612 -0.2307
  264MOL0     C36326   4.126   8.330   4.684 -0.3095  0.0498  0.1314
  264MOL0     C36327   4.014   8.244   4.685  0.2713 -0.5778  0.7689
  264MOL0     C36328   4.037   8.109   4.713  0.6282  0.0302  0.5420
  264MOL0     C36329   4.168   8.056   4.743  0.3222 -0.0227  0.0692
  264MOL0     O36330   4.168   7.921   4.779  0.5253 -0.0226 -0.2468
  264MOL0     C36331   4.245   7.897   4.899  0.7487  0.5192 -1.0518
  264MOL0     C36332   4.242   7.752   4.949 -0.1759 -0.4952  0.5915
  264MOL0     C36333   4.106   7.696   4.983 -0.2621 -0.2778  0.1805
  264MOL0     C36334   4.027   7.760   5.098  0.2848 -0.1447 -0.3434
  264MOL0     C36335   3.893   7.687   5.112  0.0051  0.1800  0.1096
  264MOL0     C36336   3.811   7.762   5.213 -0.4020  0.0421 -0.4929
  264MOL0     C36337   3.669   7.702   5.224 -0.1867 -0.0584  0.1593
  264MOL0     C36338   3.595   7.759   5.339  0.4020 -0.3081 -0.5127
  264MOL0    Cl36339   3.566   7.936   5.340 -0.2808  0.3913  0.1164
  264MOL0     C36340   4.284   8.138   4.736  0.1143 -0.6287 -0.2479
  264MOL0     C36341   4.254   8.276   4.712  0.1251 -0.3098  0.0780
  264MOL0     O36342   4.119   8.521   4.878 -0.2045 -0.7584  0.0208
  264MOL0     C36343   4.160   8.719   4.598  0.2251  0.2395  0.1838
  264MOL0     C36344   4.166   8.854   4.552 -0.3590 -0.4019  0.2440
  264MOL0     N36345   4.057   9.570   4.511  0.2325 -0.7074  0.4450
  264MOL0     N36346   3.955   9.622   4.560 -0.2781 -0.3160 -0.5707
  264MOL0     C36347   3.435  10.175   4.400 -0.0342  0.1258  0.6535
  264MOL0     C36348   3.411  10.320   4.406 -0.4840  0.2352 -0.5716
  264MOL0     C36349   3.168  10.689   4.333 -0.1346 -0.4762 -0.1217
  264MOL0     C36350   3.256  10.799   4.314  0.2279  0.2757  0.4106
  264MOL0     C36351   3.215  10.932   4.348 -0.8304  0.2601 -0.8317
  264MOL0     C36352   3.091  10.961   4.393  0.3248  0.1419 -0.0372
  264MOL0     O36353   3.043  11.088   4.439 -0.8863 -0.0919  0.2173
  264MOL0     C36354   3.127  11.201   4.400  0.5024  0.1629  0.0094
  264MOL0     C36355   3.073  11.334   4.457 -0.5763 -0.6066 -0.4352
  264MOL0     C36356   3.048  11.326   4.609  0.1507  0.1627  0.0845
  264MOL0     C36357   3.164  11.263   4.687  0.4165 -0.4148 -1.1599
  264MOL0     C36358   3.290  11.346   4.685  0.4543 -0.4003 -0.7009
  264MOL0     C36359   3.397  11.404   4.690  0.5050 -1.1435 -0.3030
  264MOL0     C36360   3.007  10.853   4.421 -0.0644 -0.7885 -0.0005
  264MOL0     C36361   3.043  10.720   4.397  0.0301 -0.6650 -0.0526
  264MOL0     C36362   2.939  10.613   4.435  0.8267 -0.6848 -0.7223
  264MOL0     H36363   3.311  10.355   4.091  0.6666  1.0995  0.1459
  264MOL0     H36364   3.373  10.112   4.077  2.0453 -1.6909  0.0711
  264MOL0     H36365   3.250   9.908   4.290 -0.5859  0.3997 -1.0575
  264MOL0     H36366   3.335   9.929   4.436 -0.0973 -0.0765 -0.1149
  264MOL0     H36367   3.384   9.704   4.234 -0.6606  0.3969 -0.3202
  264MOL0     H36368   3.483   9.715   4.373  2.2669  1.1073 -3.1151
  264MOL0     H36369   3.281   9.701   4.528 -1.6762  0.4961 -0.4209
  264MOL0     H36370   3.176   9.683   4.397 -0.7246  0.6690  5.2558
  264MOL0     H36371   3.226   9.482   4.523  1.6382  3.0512  3.4389
  264MOL0     H36372   3.243   9.486   4.340 -0.0348  2.8937 -0.6399
  264MOL0     H36373   3.481   9.470   4.366  1.1570 -1.8745  0.6609
  264MOL0     H36374   3.415   9.342   4.454 -0.2444 -0.0234  2.3898
  264MOL0     H36375   3.467   9.608   4.592 -0.3970  1.0921 -0.1744
  264MOL0     H36376   3.443   9.448   4.670  2.5382 -1.0726  0.1587
  264MOL0     H36377   3.652   9.398   4.501 -1.8076 -1.0438 -0.1981
  264MOL0     H36378   3.675   9.423   4.677  3.1504  0.1949 -1.2900
  264MOL0     H36379   3.643   9.651   4.491 -0.3820 -2.1677  0.0271
  264MOL0     H36380   3.697   9.675   4.644  0.3680  0.4926 -0.1495
  264MOL0     H36381   3.816   9.461   4.313 -2.3411 -4.1908  3.3860
  264MOL0     H36382   4.201   9.487   4.288 -0.7934  0.5844 -0.1600
  264MOL0     H36383   4.064   9.413   4.209  2.9172 -0.3221 -2.1467
  264MOL0     H36384   4.056   9.239   4.394  1.2059 -1.3502  1.2747
  264MOL0     H36385   4.193   9.244   4.292  1.9814  2.2973 -0.6427
  264MOL0     H36386   4.332   9.336   4.475 -0.2565  0.8651  0.6890
  264MOL0     H36387   4.195   9.340   4.581  1.6678  1.0133 -0.8096
  264MOL0     H36388   4.286   9.070   4.451  1.2108  0.6418 -0.1415
  264MOL0     H36389   4.362   9.139   4.587  0.2252 -1.8560 -0.4208
  264MOL0     H36390   4.113   9.015   4.842  1.1193  1.5251 -1.5796
  264MOL0     H36391   3.998   8.713   4.981 -0.3042  0.2388 -1.9873
  264MOL0     H36392   4.018   8.879   4.993 -2.0729 -1.7787  1.3092
  264MOL0     H36393   4.164   8.773   5.025 -0.1331 -1.9876 -0.2207
  264MOL0     H36394   3.913   8.280   4.666  0.7592 -0.3702 -1.8352
  264MOL0     H36395   3.957   8.036   4.712 -1.4760  2.2288 -0.9404
  264MOL0     H36396   4.350   7.913   4.875  1.1031 -1.5396 -1.0385
  264MOL0     H36397   4.202   7.955   4.981 -2.1085 -3.0534  0.2842
  264MOL0     H36398   4.284   7.693   4.867 -0.6932 -0.1269  0.0505
  264MOL0     H36399   4.310   7.738   5.034  0.6647  1.4203  0.2703
  264MOL0     H36400   4.129   7.597   5.023 -0.9151 -0.1804  0.8221
  264MOL0     H36401   4.043   7.701   4.894  1.8512  0.3561 -1.3581
  264MOL0     H36402   3.992   7.860   5.071 -1.7097 -0.1260  1.9507
  264MOL0     H36403   4.074   7.761   5.197  0.0559 -0.2952 -0.2335
  264MOL0     H36404   3.846   7.671   5.015  2.3293  3.9589 -1.8903
  264MOL0     H36405   3.926   7.593   5.156  0.5752  1.3820  2.4539
  264MOL0     H36406   3.808   7.870   5.199  1.3306  0.3133  0.8074
  264MOL0     H36407   3.864   7.744   5.307  0.1601  1.0078 -0.6092
  264MOL0     H36408   3.670   7.594   5.245 -0.6275 -0.0113  0.4286
  264MOL0     H36409   3.601   7.724   5.141 -1.9006  1.4570  1.8560
  264MOL0     H36410   3.653   7.744   5.430  1.0390 -0.9828 -1.0199
  264MOL0     H36411   3.498   7.711   5.357  0.5432 -0.3879  0.0632
  264MOL0     H36412   4.386   8.108   4.756  2.2839  3.2313 -3.9227
  264MOL0     H36413   4.343   8.337   4.714  0.4463 -0.7817  0.7980
  264MOL0     H36414   4.191   8.652   4.519  1.6867  1.0420  0.0210
  264MOL0     H36415   4.196   8.882   4.451 -0.1622  2.4566  0.9937
  264MOL0     H36416   3.465  10.124   4.492 -1.5580  0.6438  1.4767
  264MOL0     H36417   3.411  10.373   4.501  0.7537 -1.1450  0.2310
  264MOL0     H36418   3.352  10.784   4.266 -0.1596  0.9505 -0.6060
  264MOL0     H36419   3.295  11.005   4.344 -1.8480  1.5414  0.6828
  264MOL0     H36420   3.231  11.187   4.430  0.2987  0.6944  1.0149
  264MOL0     H36421   3.129  11.232   4.295 -2.0394 -0.2553 -0.2426
  264MOL0     H36422   2.972  11.344   4.417 -1.0250  0.3666  0.8624
  264MOL0     H36423   3.132  11.419   4.421 -2.5445 -0.1433 -2.8621
  264MOL0     H36424   3.017  11.427   4.639  0.6123  0.8217 -1.5636
  264MOL0     H36425   2.969  11.252   4.625  0.5595 -0.5667 -1.1292
  264MOL0     H36426   3.188  11.161   4.655 -0.1845 -1.0213  0.2590
  264MOL0     H36427   3.119  11.257   4.786 -0.3121 -3.5417 -1.5808
  264MOL0     H36428   3.490  11.455   4.692  3.0374 -5.1634 -1.7934
  264MOL0     H36429   2.913  10.869   4.473  0.1818  1.0791 -0.0774
  264MOL0     H36430   2.864  10.641   4.509  0.9991 -0.6757 -0.5515
  264MOL0     H36431   2.886  10.573   4.347  1.2577 -1.9212 -0.4330
  264MOL0     H36432   2.992  10.536   4.491  0.2500  1.0127  2.3658
  265MOL0     O36433   3.957   1.212   2.607 -0.8402 -0.3569  1.2722
  265MOL0     C36434   3.971   1.331   2.560  0.1648 -0.4629 -0.0050
  265MOL0     O36435   3.875   1.406   2.494  0.3522 -0.5200 -0.5209
  265MOL0     C36436   3.757   1.359   2.450 -1.2585  0.2812  0.9570
  265MOL0     C36437   3.662   1.453   2.437  0.2869 -0.7866  0.3906
  265MOL0     C36438   3.547   1.422   2.377  0.9648 -0.1010  0.6623
  265MOL0     C36439   3.534   1.294   2.317 -0.0849  0.7137  0.4540
  265MOL0     O36440   3.431   1.263   2.225  0.9635  0.8226  0.0527
  265MOL0     C36441   3.333   1.358   2.174  0.3248 -0.6927 -0.6014
  265MOL0     C36442   3.221   1.379   2.276 -0.4584 -0.3161  0.1801
  265MOL0     C36443   3.131   1.254   2.288  0.8205 -0.3374 -0.0916
  265MOL0     C36444   3.004   1.265   2.208 -0.1186  0.3843 -0.2662
  265MOL0     C36445   2.927   1.136   2.218 -0.5126 -0.3594 -1.0741
  265MOL0     C36446   2.799   1.149   2.136  0.0322  0.3327  0.4364
  265MOL0     C36447   2.721   1.021   2.126  0.7750 -0.0157 -0.6892
  265MOL0     C36448   2.599   1.037   2.040  0.1145  0.0921 -0.5720
  265MOL0     N36449   2.518   0.911   2.025  0.2465  0.1322  0.0315
  265MOL0     C36450   2.545   0.786   2.072  0.0099  0.5178  0.4669
  265MOL0     C36451   2.426   0.714   2.046 -0.6020  0.6237  0.9674
  265MOL0     C36452   2.402   0.577   2.081  0.2472  0.1580 -0.5091
  265MOL0     C36453   2.483   0.484   1.989  0.4140  0.4298  0.1094
  265MOL0     C36454   2.401   0.436   1.864 -0.5457 -0.4731  0.5492
  265MOL0     C36455   2.386   0.544   1.755  0.7092 -0.4443 -0.2563
  265MOL0     O36456   2.499   0.542   1.667 -0.4902 -0.1241 -0.1290
  265MOL0     C36457   2.589   0.650   1.681 -0.1348  0.3759 -1.5406
  265MOL0     C36458   2.715   0.618   1.722  0.1055 -0.0786 -0.4404
  265MOL0     C36459   2.818   0.714   1.744 -0.2006 -0.2863 -1.1392
  265MOL0     C36460   2.957   0.666   1.768 -0.2599 -0.2628  0.7844
  265MOL0     C36461   2.784   0.854   1.719 -0.6095  0.0991 -1.2036
  265MOL0     C36462   2.872   0.967   1.745 -0.2012  0.5555 -0.0276
  265MOL0     O36463   2.821   1.089   1.712 -0.7023  0.0073  0.0370
  265MOL0     C36464   2.902   1.195   1.666 -0.0394 -0.0533  0.6410
  265MOL0     C36465   2.977   1.272   1.751  0.4277  0.0550  0.7492
  265MOL0     C36466   3.057   1.382   1.718 -0.5307 -0.6655  0.2874
  265MOL0     C36467   3.073   1.392   1.574 -0.4186 -0.3348  0.2306
  265MOL0     O36468   3.165   1.495   1.526  0.0142 -0.7376 -0.1755
  265MOL0     C36469   3.197   1.494   1.389  1.0488  0.0490  0.1256
  265MOL0     C36470   3.254   1.624   1.333 -0.5234  0.7369  0.3688
  265MOL0     C36471   3.376   1.671   1.415 -0.6329  0.4178 -0.2912
  265MOL0     C36472   3.495   1.568   1.392  0.3760 -0.5020 -0.5909
  265MOL0     C36473   3.610   1.594   1.486 -0.8219  0.1000  0.2523
  265MOL0     C36474   3.720   1.497   1.445  0.3618  0.3214 -0.2712
  265MOL0     C36475   3.817   1.490   1.557  0.1060  0.9073  0.6336
  265MOL0     C36476   3.926   1.385   1.519  0.1397 -0.1831 -0.5532
  265MOL0    Cl36477   4.060   1.377   1.637 -0.0054  0.1757  0.0275
  265MOL0     C36478   2.997   1.313   1.480  0.3669 -0.5937 -0.4808
  265MOL0     C36479   2.913   1.212   1.527  0.4611  0.3642 -1.0523
  265MOL0     O36480   2.976   0.945   1.807 -0.4754  0.6173 -0.4988
  265MOL0     C36481   2.658   0.883   1.669 -1.0942  0.2335  0.0658
  265MOL0     C36482   2.561   0.782   1.654 -0.5138  0.7108  0.7989
  265MOL0     N36483   2.340   0.798   1.981 -0.6017 -0.4300 -1.3131
  265MOL0     N36484   2.390   0.918   1.972  0.0223 -0.4385 -1.2139
  265MOL0     C36485   3.633   1.196   2.332  0.1473 -0.0486 -0.0332
  265MOL0     C36486   3.747   1.226   2.402  0.7751 -0.0748  0.2341
  265MOL0     C36487   4.104   1.392   2.585  0.5088  0.1295 -0.3736
  265MOL0     C36488   4.205   1.313   2.646  0.1814  0.4150  0.3440
  265MOL0     C36489   4.338   1.347   2.641  0.4649  0.0586  0.1051
  265MOL0     C36490   4.378   1.469   2.579  0.1128  0.4689  0.0662
  265MOL0     O36491   4.506   1.507   2.583 -0.3110  0.2306 -0.5053
  265MOL0     C36492   4.519   1.586   2.696 -0.5770  0.2018 -0.3611
  265MOL0     C36493   4.670   1.613   2.717  0.3543 -0.8611 -0.4520
  265MOL0     C36494   4.731   1.535   2.826 -0.1872 -0.9521 -0.3810
  265MOL0     C36495   4.739   1.387   2.785  1.0782 -0.5835  0.0625
  265MOL0     C36496   4.826   1.307   2.875 -0.6722  0.5355  0.3856
  265MOL0     C36497   4.908   1.247   2.944  0.5568  0.5194  0.0683
  265MOL0     C36498   4.270   1.549   2.526 -0.6610  0.5334 -0.4843
  265MOL0     C36499   4.138   1.525   2.537  0.6850 -0.5548 -0.2679
  265MOL0     C36500   4.060   1.634   2.465 -0.2110 -0.2698  0.2330
  265MOL0     H36501   3.682   1.554   2.471 -0.4332  1.8508 -5.6956
  265MOL0     H36502   3.463   1.490   2.367  0.5754 -0.8199 -1.7217
  265MOL0     H36503   3.291   1.335   2.076 -2.1237  5.1880 -1.3736
  265MOL0     H36504   3.377   1.455   2.146 -1.5978  0.5044  0.3015
  265MOL0     H36505   3.265   1.393   2.375 -0.6847 -2.6207  0.6586
  265MOL0     H36506   3.162   1.468   2.249  1.3164  0.4922 -1.2412
  265MOL0     H36507   3.192   1.170   2.254  2.2916  1.2882 -1.6748
  265MOL0     H36508   3.108   1.232   2.392 -1.1493  1.0447 -0.1720
  265MOL0     H36509   2.946   1.352   2.241 -1.3163  0.3745 -2.1548
  265MOL0     H36510   3.022   1.275   2.100  1.5461 -1.0653 -0.1571
  265MOL0     H36511   2.888   1.126   2.320 -0.9311 -2.5467 -1.3994
  265MOL0     H36512   2.991   1.049   2.204  0.0418 -0.0168 -0.7281
  265MOL0     H36513   2.731   1.228   2.168  0.0696 -0.1879  1.8476
  265MOL0     H36514   2.830   1.176   2.034  2.6673 -0.1359  1.0484
  265MOL0     H36515   2.695   1.002   2.230  1.7866  2.3481  0.0822
  265MOL0     H36516   2.797   0.953   2.086  2.0232  1.1702 -0.4554
  265MOL0     H36517   2.535   1.114   2.084  4.0177  2.8142  0.9070
  265MOL0     H36518   2.635   1.077   1.945 -2.4199  2.7788 -0.5230
  265MOL0     H36519   2.635   0.751   2.120  1.3869 -0.1204 -2.3553
  265MOL0     H36520   2.293   0.565   2.076  0.0202 -0.2201  2.8220
  265MOL0     H36521   2.434   0.561   2.184 -2.7961 -1.3932  0.3367
  265MOL0     H36522   2.571   0.534   1.948  0.6090 -0.5377 -0.6878
  265MOL0     H36523   2.520   0.396   2.043  4.1132  0.2847 -2.3265
  265MOL0     H36524   2.441   0.341   1.829 -1.2560 -1.7976  3.0917
  265MOL0     H36525   2.300   0.405   1.891 -2.4375  2.3572 -2.4294
  265MOL0     H36526   2.302   0.522   1.687  0.5909 -0.6737 -0.0359
  265MOL0     H36527   2.353   0.640   1.797  0.3229 -0.9137  0.5313
  265MOL0     H36528   2.737   0.512   1.720  1.6607  0.1531  1.5648
  265MOL0     H36529   2.955   0.558   1.753  0.4881 -0.1694 -0.1136
  265MOL0     H36530   2.981   0.696   1.870  0.4451 -0.3460  0.6460
  265MOL0     H36531   3.024   0.714   1.696 -3.8681  4.8268  0.2735
  265MOL0     H36532   2.967   1.239   1.854 -0.7339  0.7891  0.8846
  265MOL0     H36533   3.110   1.434   1.798  0.0512  1.4272 -1.3709
  265MOL0     H36534   3.253   1.401   1.374 -2.0848 -1.7623 -1.5086
  265MOL0     H36535   3.112   1.491   1.319  0.0327  0.2852  1.3219
  265MOL0     H36536   3.293   1.614   1.231 -1.2173  2.2069 -0.0617
  265MOL0     H36537   3.168   1.690   1.321 -3.4992 -2.6003  1.7367
  265MOL0     H36538   3.355   1.669   1.523 -0.3731  1.9777 -0.1887
  265MOL0     H36539   3.405   1.773   1.389 -0.2975 -0.5213 -4.1452
  265MOL0     H36540   3.528   1.584   1.289 -1.6102  1.1967 -1.0257
  265MOL0     H36541   3.460   1.466   1.410 -0.6557 -0.0644 -0.0447
  265MOL0     H36542   3.648   1.696   1.487 -0.7633  0.1058 -0.8945
  265MOL0     H36543   3.583   1.576   1.591  0.1070 -1.4833  0.2575
  265MOL0     H36544   3.767   1.530   1.352 -1.1324 -0.0540 -1.1794
  265MOL0     H36545   3.672   1.400   1.432  0.0937  0.1679  1.5507
  265MOL0     H36546   3.770   1.456   1.649 -0.0040 -0.6165  0.0486
  265MOL0     H36547   3.864   1.588   1.558  2.4349 -0.0612 -1.6139
  265MOL0     H36548   3.959   1.397   1.415 -1.5450  2.6437 -0.8576
  265MOL0     H36549   3.879   1.286   1.530 -0.3473  0.2651  1.9800
  265MOL0     H36550   3.007   1.336   1.374  0.9241  0.3303 -0.2369
  265MOL0     H36551   2.851   1.148   1.465  0.5906 -2.7928  1.7934
  265MOL0     H36552   2.630   0.977   1.623 -0.8453  0.8401  1.1224
  265MOL0     H36553   2.465   0.812   1.615 -0.6736  0.2801  0.8657
  265MOL0     H36554   3.617   1.095   2.297  0.2818 -0.7529  1.8127
  265MOL0     H36555   3.820   1.149   2.425  2.6140  1.9830  1.5956
  265MOL0     H36556   4.177   1.220   2.694  0.1268 -0.1083 -0.6694
  265MOL0     H36557   4.413   1.280   2.682  1.3016 -0.8604 -2.6776
  265MOL0     H36558   4.460   1.678   2.694 -4.2070 -1.7590  3.2099
  265MOL0     H36559   4.488   1.535   2.788  0.2825 -0.5759 -0.4823
  265MOL0     H36560   4.675   1.717   2.753  0.3647 -1.3766  1.1196
  265MOL0     H36561   4.721   1.612   2.620 -2.6298  2.4956 -2.3163
  265MOL0     H36562   4.835   1.567   2.834 -1.0290  1.7806  0.8904
  265MOL0     H36563   4.681   1.542   2.923 -2.8692  0.3890 -1.7428
  265MOL0     H36564   4.776   1.379   2.682 -1.0811 -2.5647 -0.6512
  265MOL0     H36565   4.641   1.341   2.798  1.1270 -1.1328 -1.2900
  265MOL0     H36566   4.996   1.206   2.989 -0.0771 -1.6305 -0.5594
  265MOL0     H36567   4.300   1.645   2.485  0.0398 -0.1543 -1.6531
  265MOL0     H36568   3.972   1.585   2.422 -0.4790 -1.6021  2.1647
  265MOL0     H36569   4.038   1.721   2.528 -0.6254 -0.6931  0.6803
  265MOL0     H36570   4.119   1.673   2.381  3.3644 -1.9638  1.7618
  266MOL0     O36571   2.113   1.658   7.297 -0.7582  0.2388  0.0859
  266MOL0     C36572   2.150   1.678   7.417  0.0703 -0.2349 -0.3516
  266MOL0     O36573   2.068   1.682   7.523 -0.1494  0.5688 -0.2470
  266MOL0     C36574   1.933   1.645   7.495 -0.7647  0.4214  0.0495
  266MOL0     C36575   1.908   1.508   7.505  0.1559 -0.1544 -0.2977
  266MOL0     C36576   1.782   1.461   7.487  0.0869 -0.7256 -0.5670
  266MOL0     C36577   1.673   1.547   7.468  0.1590 -1.1432 -0.0014
  266MOL0     O36578   1.545   1.508   7.445  0.2971 -0.6072 -0.0075
  266MOL0     C36579   1.489   1.410   7.537 -0.3815 -0.2221  0.0020
  266MOL0     C36580   1.338   1.390   7.504  0.3577 -0.2366  0.0695
  266MOL0     C36581   1.301   1.327   7.377  0.2484 -0.4006 -0.0281
  266MOL0     C36582   1.157   1.373   7.358  0.2617  0.1478  0.3452
  266MOL0     C36583   1.098   1.318   7.226 -0.4581  0.0447  0.1134
  266MOL0     C36584   1.075   1.161   7.229 -0.4777 -0.6265  0.2279
  266MOL0     C36585   0.997   1.083   7.338 -0.1588  0.0897  0.1617
  266MOL0     C36586   0.997   0.926   7.324  0.1509  0.0380 -0.1180
  266MOL0     N36587   1.005   0.882   7.177  0.7022 -0.1623  0.2905
  266MOL0     C36588   0.893   0.868   7.100 -0.5996 -0.5193  0.1043
  266MOL0     C36589   0.931   0.783   7.004  0.1223  0.6262  0.0062
  266MOL0     C36590   0.843   0.730   6.898  0.1954  0.1195  0.0718
  266MOL0     C36591   0.778   0.820   6.790  0.6488  0.2776  0.0622
  266MOL0     C36592   0.883   0.866   6.691  0.2943  0.6424  0.0612
  266MOL0     C36593   0.815   0.969   6.595 -0.4908 -0.6929 -0.7801
  266MOL0     O36594   0.808   1.076   6.684  0.4942 -0.3578  0.1995
  266MOL0     C36595   0.698   1.146   6.644  0.5476 -0.6168  0.4823
  266MOL0     C36596   0.597   1.172   6.736  0.3087 -0.5125 -0.6733
  266MOL0     C36597   0.475   1.230   6.700 -0.8487 -0.8403 -0.4403
  266MOL0     C36598   0.361   1.211   6.803  0.1156 -0.2848 -0.4960
  266MOL0     C36599   0.458   1.276   6.565  0.4592  0.4551 -0.4124
  266MOL0     C36600   0.339   1.335   6.511  0.7407 -0.1053 -0.7900
  266MOL0     O36601   0.339   1.358   6.375  0.1952 -0.1601  0.3484
  266MOL0     C36602   0.229   1.393   6.305 -0.7625  0.7702 -0.1721
  266MOL0     C36603   0.096   1.409   6.352  0.1884  0.4671 -0.0084
  266MOL0     C36604  -0.002   1.463   6.269  0.6126  0.3560  0.3464
  266MOL0     C36605   0.021   1.482   6.132  1.6495  0.4913  0.3496
  266MOL0     O36606  -0.092   1.522   6.061 -0.1231  0.0383 -0.7853
  266MOL0     C36607  -0.103   1.471   5.928  0.4829  0.0566  0.0310
  266MOL0     C36608  -0.097   1.585   5.822 -0.1085 -0.2342  0.2643
  266MOL0     C36609  -0.175   1.540   5.701  0.6402  0.0700  0.4373
  266MOL0     C36610  -0.326   1.552   5.707  0.1121 -0.0011  0.0176
  266MOL0     C36611  -0.397   1.500   5.578 -0.3135  0.3358  0.1426
  266MOL0     C36612  -0.395   1.342   5.575 -0.9515 -0.1463 -0.4650
  266MOL0     C36613  -0.460   1.299   5.438 -0.2174 -0.2044  0.2854
  266MOL0     C36614  -0.499   1.155   5.430 -0.2897  0.7658 -0.0453
  266MOL0    Cl36615  -0.350   1.063   5.494 -0.1384  0.1836  0.5591
  266MOL0     C36616   0.153   1.464   6.084 -0.9120  0.5196 -0.6379
  266MOL0     C36617   0.256   1.412   6.165  0.2496  0.0950 -0.7030
  266MOL0     O36618   0.257   1.376   6.594  0.2086 -1.0613 -0.0456
  266MOL0     C36619   0.580   1.279   6.483  0.4158  1.3539 -0.3257
  266MOL0     C36620   0.695   1.210   6.522  0.1943 -0.3490  0.2067
  266MOL0     N36621   1.064   0.755   7.010  0.9175  0.1627 -0.4306
  266MOL0     N36622   1.114   0.823   7.114 -0.0281 -0.4787 -0.4601
  266MOL0     C36623   1.699   1.685   7.472  0.0070  0.4813 -0.8995
  266MOL0     C36624   1.828   1.734   7.486 -0.3275  0.6853 -0.9989
  266MOL0     C36625   2.289   1.720   7.434 -0.3196 -0.4321 -0.1774
  266MOL0     C36626   2.320   1.794   7.552 -0.7728  0.1947  0.0846
  266MOL0     C36627   2.451   1.831   7.590  0.1545  0.2622  0.3486
  266MOL0     C36628   2.555   1.810   7.496 -0.5186  0.2283  0.7934
  266MOL0     O36629   2.682   1.848   7.525  0.1173 -0.3983  1.8307
  266MOL0     C36630   2.767   1.747   7.571 -0.1941  0.3055  0.2600
  266MOL0     C36631   2.743   1.716   7.721 -0.0432  0.0661 -0.7117
  266MOL0     C36632   2.769   1.846   7.796  0.9181 -0.2646  0.1166
  266MOL0     C36633   2.751   1.834   7.950 -0.0292  1.2675  0.4126
  266MOL0     C36634   2.821   1.946   7.997 -0.6675  0.2048 -1.0169
  266MOL0     C36635   2.888   2.045   8.016  0.3493  0.7087 -1.4492
  266MOL0     C36636   2.528   1.737   7.374 -0.6068  0.7581 -0.0069
  266MOL0     C36637   2.396   1.695   7.346 -0.5676 -0.3322  0.6208
  266MOL0     C36638   2.367   1.644   7.206 -0.6238 -0.2458 -0.0783
  266MOL0     H36639   1.975   1.429   7.536 -2.0390 -1.2678  2.0000
  266MOL0     H36640   1.753   1.356   7.489  0.2125 -0.7555 -0.0356
  266MOL0     H36641   1.499   1.449   7.638 -4.7207  1.4514 -0.0344
  266MOL0     H36642   1.555   1.323   7.523  0.8442  0.6377  0.2249
  266MOL0     H36643   1.294   1.329   7.583  0.6856 -1.9726 -1.0508
  266MOL0     H36644   1.304   1.494   7.508  1.4821  0.3860 -3.3722
  266MOL0     H36645   1.368   1.359   7.296  2.1686 -2.0446  0.8274
  266MOL0     H36646   1.305   1.218   7.382 -1.8190 -0.5543 -0.6963
  266MOL0     H36647   1.105   1.339   7.448  1.5592 -1.0964  0.6767
  266MOL0     H36648   1.157   1.482   7.361  1.9484  0.3465 -2.6994
  266MOL0     H36649   1.173   1.339   7.148 -0.3075 -2.1815 -0.4241
  266MOL0     H36650   1.005   1.371   7.206 -0.9340 -0.5281  0.7594
  266MOL0     H36651   1.053   1.123   7.129  0.6351  0.4722 -0.4686
  266MOL0     H36652   1.179   1.127   7.236  0.1480  1.2750  0.8440
  266MOL0     H36653   0.895   1.122   7.343 -0.4017  0.0274 -2.8491
  266MOL0     H36654   1.048   1.108   7.432  1.2474  1.2504 -0.8623
  266MOL0     H36655   1.078   0.874   7.376  0.7406  1.3659  0.3495
  266MOL0     H36656   0.899   0.899   7.365 -0.1010 -0.7368 -1.1900
  266MOL0     H36657   0.792   0.893   7.128 -0.2318  1.3231 -0.1101
  266MOL0     H36658   0.764   0.676   6.953  0.7928 -1.2809 -0.4035
  266MOL0     H36659   0.900   0.650   6.851 -0.3972  0.3464 -1.0634
  266MOL0     H36660   0.709   0.763   6.727  1.7451 -2.3858  1.1309
  266MOL0     H36661   0.714   0.901   6.827 -1.4598 -0.6954 -1.2840
  266MOL0     H36662   0.962   0.921   6.743  0.4250  2.9147 -2.3390
  266MOL0     H36663   0.947   0.792   6.644  1.3612  0.6958  1.3744
  266MOL0     H36664   0.898   0.978   6.524  1.2653 -1.7935  1.0251
  266MOL0     H36665   0.721   0.935   6.552 -2.7629  1.1076  2.3437
  266MOL0     H36666   0.599   1.118   6.830  1.9502  0.3737 -0.1536
  266MOL0     H36667   0.305   1.300   6.832  0.3876 -1.0546  2.8782
  266MOL0     H36668   0.415   1.179   6.893 -1.3348 -2.0596 -0.2055
  266MOL0     H36669   0.289   1.137   6.770 -1.7181  0.9221  0.6057
  266MOL0     H36670   0.068   1.399   6.456  0.7238 -0.4115  0.0630
  266MOL0     H36671  -0.092   1.480   6.327  1.2262  0.9463  1.1411
  266MOL0     H36672  -0.028   1.392   5.915 -0.2970 -1.1494  2.3189
  266MOL0     H36673  -0.197   1.417   5.912 -0.2000  1.6827 -1.8375
  266MOL0     H36674  -0.153   1.675   5.851 -3.1343 -1.6956 -0.5838
  266MOL0     H36675   0.005   1.613   5.796  0.2006 -0.4275  1.2104
  266MOL0     H36676  -0.146   1.448   5.650  0.1781 -0.1038  0.4862
  266MOL0     H36677  -0.144   1.610   5.622  0.6145 -1.7260 -1.2417
  266MOL0     H36678  -0.350   1.658   5.714 -0.4310 -0.0527 -0.9337
  266MOL0     H36679  -0.367   1.499   5.794 -2.7317  1.8766 -0.0753
  266MOL0     H36680  -0.504   1.524   5.582  0.1732  2.5495  1.2331
  266MOL0     H36681  -0.346   1.549   5.495 -2.1028  2.3146  0.1323
  266MOL0     H36682  -0.445   1.299   5.662 -0.3434  1.3711  0.6951
  266MOL0     H36683  -0.289   1.312   5.575 -1.2121 -1.1948 -2.1564
  266MOL0     H36684  -0.393   1.320   5.354 -1.2326 -1.7786 -0.9648
  266MOL0     H36685  -0.546   1.364   5.421  0.4485  1.9684  3.9151
  266MOL0     H36686  -0.522   1.127   5.326  0.8767  3.4213 -1.1045
  266MOL0     H36687  -0.592   1.122   5.476  0.4531  0.5281  1.3216
  266MOL0     H36688   0.189   1.491   5.985  1.5748  1.0751  0.3454
  266MOL0     H36689   0.360   1.412   6.135  1.0240 -0.0521  1.7266
  266MOL0     H36690   0.568   1.328   6.387 -1.4456  1.2358 -0.1867
  266MOL0     H36691   0.784   1.200   6.460 -0.6743  0.2053 -1.1494
  266MOL0     H36692   1.621   1.758   7.453  0.1958  0.8270 -0.3597
  266MOL0     H36693   1.840   1.842   7.494  0.0818  0.4976  2.5203
  266MOL0     H36694   2.240   1.808   7.624 -0.2344 -0.4144  0.8252
  266MOL0     H36695   2.458   1.866   7.693  0.9142 -1.5112  0.9248
  266MOL0     H36696   2.768   1.657   7.509  2.4840  1.0673 -0.9714
  266MOL0     H36697   2.873   1.775   7.566  1.4323 -3.8805  4.1441
  266MOL0     H36698   2.826   1.647   7.737  1.7336  2.2154 -0.1862
  266MOL0     H36699   2.650   1.659   7.735  1.0443 -2.0200 -1.5237
  266MOL0     H36700   2.871   1.874   7.771  2.0252 -2.9171  1.1975
  266MOL0     H36701   2.707   1.928   7.760  1.6962  1.3950  2.3378
  266MOL0     H36702   2.792   1.739   7.984  0.4727  0.1008 -3.0620
  266MOL0     H36703   2.647   1.837   7.981  0.8749  0.3522  3.9116
  266MOL0     H36704   2.950   2.131   8.032 -1.5625  2.2315 -1.8486
  266MOL0     H36705   2.602   1.702   7.303  1.9774 -1.3391  3.4016
  266MOL0     H36706   2.460   1.627   7.151 -1.1844 -1.9502 -0.5509
  266MOL0     H36707   2.303   1.555   7.207 -0.8306 -0.1728 -2.2840
  266MOL0     H36708   2.310   1.723   7.157 -1.7885 -0.4414  0.9215
  267MOL0     O36709   6.480  11.386  10.603 -0.2786 -0.0650  0.4607
  267MOL0     C36710   6.576  11.335  10.545  0.0117  0.6774 -0.3554
  267MOL0     O36711   6.588  11.346  10.404 -0.2556 -1.0524  0.2210
  267MOL0     C36712   6.470  11.348  10.334 -0.1025 -0.6452  0.1078
  267MOL0     C36713   6.425  11.231  10.278  0.0284  0.3517 -0.8045
  267MOL0     C36714   6.307  11.236  10.202  0.1038 -0.9346 -0.1223
  267MOL0     C36715   6.234  11.352  10.172  0.1645 -0.1036  0.4533
  267MOL0     O36716   6.124  11.366  10.092  0.1130 -0.1877 -0.2622
  267MOL0     C36717   6.067  11.245  10.036 -1.0705  0.2139  0.6663
  267MOL0     C36718   5.930  11.248   9.974 -0.0865 -0.3864  0.5513
  267MOL0     C36719   5.826  11.316  10.064  0.1640  0.2912  0.0017
  267MOL0     C36720   5.682  11.249  10.035 -0.2068 -0.4375 -0.1632
  267MOL0     C36721   5.657  11.105  10.086  0.3475  0.2519  0.2176
  267MOL0     C36722   5.515  11.080  10.141 -1.0622  0.4824  0.3690
  267MOL0     C36723   5.402  11.066  10.031 -0.3976  0.3880 -0.9258
  267MOL0     C36724   5.432  10.974   9.905 -0.3461  0.5442 -0.2044
  267MOL0     N36725   5.337  10.874   9.866  0.0425 -0.1591 -0.0011
  267MOL0     C36726   5.360  10.765   9.789  0.9842  0.0722  0.6098
  267MOL0     C36727   5.243  10.693   9.791  0.7010  0.2058  0.6293
  267MOL0     C36728   5.219  10.569   9.716 -0.2980  0.6128  0.5723
  267MOL0     C36729   5.161  10.455   9.792  1.0377 -0.3670 -0.4585
  267MOL0     C36730   5.267  10.383   9.871 -0.5295  0.6845  0.6464
  267MOL0     C36731   5.295  10.435  10.012 -1.0618  0.7901  0.1514
  267MOL0     O36732   5.419  10.384  10.053 -0.3169  0.0403  0.1509
  267MOL0     C36733   5.400  10.264  10.116 -0.6475 -0.9388  0.4498
  267MOL0     C36734   5.323  10.261  10.229  0.6642  0.6207 -0.3736
  267MOL0     C36735   5.298  10.130  10.282 -0.0625  0.0286  0.0831
  267MOL0     C36736   5.212  10.119  10.404  0.0548  0.2323  0.7443
  267MOL0     C36737   5.359  10.007  10.224  0.7378  0.0755  0.4963
  267MOL0     C36738   5.329   9.867  10.280  0.1125  0.2258  0.3821
  267MOL0     O36739   5.366   9.770  10.196  0.1642 -0.3453 -1.0364
  267MOL0     C36740   5.313   9.649  10.208 -0.4961 -0.5990  0.1032
  267MOL0     C36741   5.175   9.635  10.214  0.9546 -0.7456 -0.2378
  267MOL0     C36742   5.126   9.507  10.231  0.4728  0.4052 -0.0619
  267MOL0     C36743   5.211   9.394  10.244  0.8108 -0.3981 -0.1768
  267MOL0     O36744   5.178   9.270  10.287  0.2664  0.2872  0.1874
  267MOL0     C36745   5.053   9.236  10.345 -0.5628 -0.0756  0.1049
  267MOL0     C36746   5.049   9.294  10.489 -0.2483 -0.2161 -0.2218
  267MOL0     C36747   4.928   9.220  10.562 -1.3795  0.5721 -0.3521
  267MOL0     C36748   4.967   9.222  10.709 -0.3456 -0.2673 -0.4806
  267MOL0     C36749   4.856   9.180  10.803 -0.2731 -0.4676  0.0613
  267MOL0     C36750   4.743   9.280  10.825 -0.4672  0.2966  0.3290
  267MOL0     C36751   4.639   9.228  10.930  0.4180  0.1652  0.3702
  267MOL0     C36752   4.519   9.327  10.948  0.2800 -0.0591 -0.0147
  267MOL0    Cl36753   4.395   9.278  10.841 -0.1623  0.1397 -0.3610
  267MOL0     C36754   5.350   9.408  10.219  0.3610  0.5732  1.1671
  267MOL0     C36755   5.402   9.540  10.202  1.2406 -0.1235  1.1754
  267MOL0     O36756   5.318   9.849  10.406  0.0045 -0.4162  0.2509
  267MOL0     C36757   5.434  10.023  10.107  0.2772  0.6490 -0.0555
  267MOL0     C36758   5.452  10.149  10.062  0.2161  0.4999  0.2527
  267MOL0     N36759   5.149  10.761   9.866 -0.4549 -0.5839  0.2340
  267MOL0     N36760   5.212  10.864   9.921 -0.4335 -0.4353  0.7183
  267MOL0     C36761   6.292  11.470  10.232 -0.0130 -0.0351  0.5879
  267MOL0     C36762   6.400  11.467  10.320 -0.7069 -0.1973  0.3564
  267MOL0     C36763   6.686  11.268  10.617 -0.6574 -0.3026 -0.0286
  267MOL0     C36764   6.809  11.249  10.552  0.2962 -0.6276  0.6512
  267MOL0     C36765   6.915  11.173  10.606  0.3239  0.4415 -0.3975
  267MOL0     C36766   6.894  11.115  10.733 -0.8474  0.0107  0.4514
  267MOL0     O36767   6.982  11.023  10.796  0.0718 -0.2915 -0.1045
  267MOL0     C36768   7.079  10.949  10.723 -0.4513 -0.0858 -0.4536
  267MOL0     C36769   7.090  10.813  10.785  0.6432  0.4257  0.6069
  267MOL0     C36770   7.210  10.733  10.733  0.8056  0.2057  0.3321
  267MOL0     C36771   7.221  10.605  10.819  1.1169  0.5354 -0.2954
  267MOL0     C36772   7.325  10.510  10.777 -0.5847 -0.1119 -0.3327
  267MOL0     C36773   7.410  10.429  10.745 -0.0474  1.4886 -0.1066
  267MOL0     C36774   6.780  11.146  10.806 -0.2241  0.6202 -0.6662
  267MOL0     C36775   6.676  11.220  10.750  0.0217 -0.1169 -0.0251
  267MOL0     C36776   6.562  11.252  10.842  0.7497  0.2211  0.1076
  267MOL0     H36777   6.488  11.143  10.284 -0.0749  0.3541  0.5965
  267MOL0     H36778   6.277  11.141  10.160  3.8031 -2.6373  0.6610
  267MOL0     H36779   6.053  11.166  10.111 -2.2964  0.0596  0.3016
  267MOL0     H36780   6.142  11.214   9.963 -1.1994 -1.5727  1.2417
  267MOL0     H36781   5.935  11.302   9.879  0.1607  0.1140  0.8451
  267MOL0     H36782   5.910  11.143   9.949  0.7535 -0.9235  1.9922
  267MOL0     H36783   5.859  11.306  10.168  3.4856 -0.3581 -0.9975
  267MOL0     H36784   5.831  11.424  10.046 -1.6658 -0.1161 -3.9738
  267MOL0     H36785   5.607  11.307  10.090 -2.0896 -1.9627 -1.0102
  267MOL0     H36786   5.664  11.252   9.928 -0.2024 -1.8455 -0.2184
  267MOL0     H36787   5.720  11.090  10.174  2.6301  0.7647 -1.2519
  267MOL0     H36788   5.675  11.036  10.003  1.8272  2.3999 -1.3404
  267MOL0     H36789   5.519  10.991  10.205 -1.3518 -1.0734 -1.6623
  267MOL0     H36790   5.495  11.167  10.203 -1.2414 -0.5844  1.8496
  267MOL0     H36791   5.379  11.171  10.007 -0.7694  0.6898  0.6366
  267MOL0     H36792   5.321  11.018  10.087  0.2728  0.5207  0.2022
  267MOL0     H36793   5.452  11.043   9.823  2.4383 -1.0938 -1.0492
  267MOL0     H36794   5.520  10.915   9.932  0.1031  0.7085 -1.2814
  267MOL0     H36795   5.451  10.734   9.739  0.2149 -0.9002 -0.2255
  267MOL0     H36796   5.309  10.543   9.659  0.2860  2.7911  0.4134
  267MOL0     H36797   5.143  10.589   9.641 -0.6443 -1.1371  0.4211
  267MOL0     H36798   5.093  10.495   9.868 -0.3184 -0.6419 -1.4957
  267MOL0     H36799   5.110  10.393   9.718  1.1403  0.0551 -0.8861
  267MOL0     H36800   5.236  10.279   9.887 -4.0652  1.4135 -0.4163
  267MOL0     H36801   5.361  10.373   9.817 -0.7768  0.2780  0.2806
  267MOL0     H36802   5.312  10.543  10.014  1.1328  0.4927 -0.1637
  267MOL0     H36803   5.208  10.420  10.076  0.1631  1.6333  2.0996
  267MOL0     H36804   5.270  10.349  10.266  2.9535  2.2109 -0.6482
  267MOL0     H36805   5.155  10.026  10.402  1.5370 -0.7307 -1.7094
  267MOL0     H36806   5.138  10.200  10.406 -0.3772 -0.0715 -0.9039
  267MOL0     H36807   5.273  10.116  10.495 -1.1345 -3.0388  1.5594
  267MOL0     H36808   5.118   9.727  10.206  1.0738 -0.6004  0.4737
  267MOL0     H36809   5.020   9.494  10.214  0.0148  3.4913 -0.0531
  267MOL0     H36810   4.969   9.272  10.287 -0.5757  0.1418  0.2586
  267MOL0     H36811   5.031   9.129  10.347  1.7821 -0.6424 -0.4203
  267MOL0     H36812   5.145   9.295  10.540  0.2213  0.7972 -1.0909
  267MOL0     H36813   5.017   9.398  10.489 -2.5226 -0.8583  0.2013
  267MOL0     H36814   4.918   9.114  10.536 -0.1199  0.3128  0.1108
  267MOL0     H36815   4.838   9.281  10.550 -2.3549 -0.8585 -0.5894
  267MOL0     H36816   5.014   9.315  10.741 -2.5517  0.3855  1.0951
  267MOL0     H36817   5.038   9.140  10.722  2.9494  2.2980 -1.0457
  267MOL0     H36818   4.819   9.083  10.767  0.0849 -1.6032  2.4762
  267MOL0     H36819   4.902   9.159  10.900  0.6249 -0.1163 -0.2871
  267MOL0     H36820   4.701   9.300  10.726 -2.1500 -0.8535  0.7723
  267MOL0     H36821   4.781   9.376  10.861  0.1381 -0.0475  0.6306
  267MOL0     H36822   4.684   9.222  11.030 -1.1747  1.1468  1.1888
  267MOL0     H36823   4.599   9.131  10.897 -0.8657  0.7068  0.2805
  267MOL0     H36824   4.545   9.428  10.916 -0.1379 -0.2346 -0.9659
  267MOL0     H36825   4.481   9.331  11.050  0.5150  2.1866  0.0316
  267MOL0     H36826   5.429   9.337  10.240  1.4157  2.3686  3.8503
  267MOL0     H36827   5.508   9.560  10.191  1.2407 -0.9157 -0.6861
  267MOL0     H36828   5.472   9.943  10.044 -1.6778 -1.4665  1.2669
  267MOL0     H36829   5.526  10.156   9.983 -1.5998  0.1518 -1.5750
  267MOL0     H36830   6.226  11.554  10.216 -1.9880 -1.8900 -1.7714
  267MOL0     H36831   6.427  11.558  10.373 -2.0113  0.8253 -0.6665
  267MOL0     H36832   6.828  11.279  10.449  2.2052 -1.1048  0.8281
  267MOL0     H36833   7.003  11.157  10.545 -0.6037  1.3953 -2.0888
  267MOL0     H36834   7.049  10.934  10.619 -3.4674 -1.3533  0.4881
  267MOL0     H36835   7.174  11.004  10.723 -1.5815  2.0115  1.1504
  267MOL0     H36836   6.995  10.765  10.758  0.0721  1.3422  0.9329
  267MOL0     H36837   7.104  10.828  10.892  0.3586  4.0324  0.2712
  267MOL0     H36838   7.176  10.693  10.636 -0.8965 -3.2199  2.1612
  267MOL0     H36839   7.302  10.791  10.728  2.3303 -2.0934 -0.0959
  267MOL0     H36840   7.125  10.554  10.817  1.2574  0.1870  0.8377
  267MOL0     H36841   7.240  10.624  10.926 -1.1659 -0.0751  0.2770
  267MOL0     H36842   7.482  10.354  10.718 -0.6106  0.9653 -0.1816
  267MOL0     H36843   6.762  11.101  10.903 -0.2143  1.0371 -0.4723
  267MOL0     H36844   6.576  11.218  10.945 -1.3593 -0.2652  0.2887
  267MOL0     H36845   6.526  11.355  10.853 -1.3563 -0.3388 -1.0458
  267MOL0     H36846   6.482  11.188  10.806  1.0050  0.0651 -0.1816
  268MOL0     O36847   0.753   7.110   2.613  0.1867 -0.1932  0.4411
  268MOL0     C36848   0.719   7.086   2.730  0.2580  0.0439  0.1863
  268MOL0     O36849   0.696   6.953   2.782  0.1445  0.4019 -0.4032
  268MOL0     C36850   0.747   6.845   2.729 -0.9529  0.4929  0.6652
  268MOL0     C36851   0.841   6.815   2.625 -0.8508 -0.3077 -0.0290
  268MOL0     C36852   0.864   6.685   2.584  0.4458 -0.5880 -0.1144
  268MOL0     C36853   0.802   6.575   2.647 -0.0753 -0.2277  0.4453
  268MOL0     O36854   0.814   6.445   2.610 -0.4055  0.0040  0.9020
  268MOL0     C36855   0.780   6.422   2.471 -0.1533  0.7826  0.2465
  268MOL0     C36856   0.694   6.298   2.439  0.2495 -0.0039 -1.1869
  268MOL0     C36857   0.623   6.301   2.297 -0.1730  0.5040  0.6137
  268MOL0     C36858   0.601   6.158   2.234  0.5904 -0.3688  0.4466
  268MOL0     C36859   0.710   6.090   2.152 -0.7628  1.2051 -0.4175
  268MOL0     C36860   0.630   6.013   2.043  0.0401 -0.1559 -0.2037
  268MOL0     C36861   0.723   5.937   1.950  0.6866 -0.1759 -0.8026
  268MOL0     C36862   0.788   5.816   2.023 -0.3909 -0.6101  0.9483
  268MOL0     N36863   0.865   5.737   1.930 -0.4513  0.1099  0.6803
  268MOL0     C36864   0.869   5.756   1.795 -0.0910  0.6752  0.5581
  268MOL0     C36865   0.968   5.675   1.748  0.7220  0.1831  0.1816
  268MOL0     C36866   1.011   5.646   1.605  1.4543 -0.1744 -0.1777
  268MOL0     C36867   1.084   5.519   1.578 -0.4669 -0.3278  0.0573
  268MOL0     C36868   1.049   5.456   1.440  0.2144 -0.4062  0.1879
  268MOL0     C36869   1.092   5.535   1.322  0.0825  1.3102 -0.2425
  268MOL0     O36870   1.068   5.461   1.208  0.3448  0.7392 -0.8014
  268MOL0     C36871   1.156   5.366   1.164  0.0032 -0.3576  0.7757
  268MOL0     C36872   1.135   5.321   1.030  0.1132 -0.1060  1.0170
  268MOL0     C36873   1.212   5.224   0.960 -0.4013 -0.6209 -0.2837
  268MOL0     C36874   1.203   5.209   0.802  0.1732 -0.7841  0.5408
  268MOL0     C36875   1.322   5.172   1.038 -0.1715  0.9225 -0.6051
  268MOL0     C36876   1.404   5.072   0.980  0.1573 -0.4206 -0.0168
  268MOL0     O36877   1.344   4.955   0.965  1.0323  0.2968 -0.3263
  268MOL0     C36878   1.421   4.854   0.918  0.6573 -0.5032  0.2888
  268MOL0     C36879   1.481   4.773   1.011 -0.5388 -0.6977  0.0842
  268MOL0     C36880   1.555   4.666   0.959  1.1538 -0.2358  0.0543
  268MOL0     C36881   1.575   4.645   0.822 -0.8670 -0.0531 -0.2762
  268MOL0     O36882   1.661   4.554   0.754 -0.8358  0.2160 -0.5002
  268MOL0     C36883   1.741   4.467   0.827  0.1875  0.9240 -0.8788
  268MOL0     C36884   1.810   4.362   0.737 -0.0978 -0.3459  0.1242
  268MOL0     C36885   1.866   4.417   0.611  0.4422 -0.3549 -1.0637
  268MOL0     C36886   1.893   4.310   0.512  0.6500 -0.5231  0.2600
  268MOL0     C36887   1.976   4.371   0.399 -0.3938 -0.8035  1.3945
  268MOL0     C36888   2.012   4.260   0.295 -0.1884  0.2776  0.7978
  268MOL0     C36889   2.085   4.318   0.172  0.2275  0.3943 -0.6467
  268MOL0     C36890   2.121   4.214   0.073 -0.0508  0.6544  0.3840
  268MOL0    Cl36891   2.258   4.108   0.130 -0.3282  0.1941 -0.0879
  268MOL0     C36892   1.519   4.739   0.726  0.6881  0.6725  0.4580
  268MOL0     C36893   1.446   4.846   0.779  0.5092 -0.0083 -0.2717
  268MOL0     O36894   1.521   5.098   0.972 -1.0210  0.4598  0.1572
  268MOL0     C36895   1.345   5.223   1.167  0.6620  0.3917  0.0847
  268MOL0     C36896   1.269   5.329   1.230 -0.2486  0.1337 -0.3627
  268MOL0     N36897   1.030   5.611   1.856 -0.0829 -0.5626  0.2570
  268MOL0     N36898   0.966   5.649   1.963  0.1267 -0.5169  0.3544
  268MOL0     C36899   0.720   6.598   2.759 -1.4600 -0.4193  0.1070
  268MOL0     C36900   0.693   6.730   2.790 -0.1333  0.2267 -0.5272
  268MOL0     C36901   0.722   7.205   2.824 -0.6336  0.5698  0.1805
  268MOL0     C36902   0.742   7.175   2.961 -0.7039  0.5650  0.0625
  268MOL0     C36903   0.775   7.278   3.044 -0.3928  0.0139 -0.7668
  268MOL0     C36904   0.772   7.413   3.005 -0.3460 -0.2291 -0.9290
  268MOL0     O36905   0.791   7.512   3.100 -0.0659 -0.7470 -0.1112
  268MOL0     C36906   0.852   7.488   3.230 -0.0452 -0.2843  0.7804
  268MOL0     C36907   0.908   7.624   3.271  0.3242  0.3678 -0.3726
  268MOL0     C36908   1.015   7.662   3.172  1.0825 -0.8246  0.1179
  268MOL0     C36909   1.129   7.732   3.233  0.4617  0.0618  0.2255
  268MOL0     C36910   1.098   7.875   3.252  0.8481  0.2013  0.6476
  268MOL0     C36911   1.076   7.992   3.283 -0.3987 -0.4403 -0.1289
  268MOL0     C36912   0.729   7.449   2.882  0.6997  0.4991  0.9300
  268MOL0     C36913   0.715   7.345   2.792  0.6112  0.2832 -0.6268
  268MOL0     C36914   0.659   7.387   2.658  0.1987  0.8267  0.3536
  268MOL0     H36915   0.887   6.895   2.568  1.3940 -0.2650  1.6961
  268MOL0     H36916   0.941   6.664   2.511  1.9362 -1.0761  1.5204
  268MOL0     H36917   0.872   6.414   2.412  2.4417 -0.0946  4.0444
  268MOL0     H36918   0.716   6.504   2.436 -4.2620 -1.3006  2.1518
  268MOL0     H36919   0.750   6.205   2.452  1.5748  0.8437 -0.5984
  268MOL0     H36920   0.624   6.299   2.524  3.0511 -1.8656  1.3494
  268MOL0     H36921   0.521   6.339   2.312 -1.4724 -2.5379  0.2729
  268MOL0     H36922   0.675   6.365   2.225  0.3664 -0.3498  0.2333
  268MOL0     H36923   0.570   6.093   2.317  1.3749  0.8565  1.7340
  268MOL0     H36924   0.514   6.172   2.169 -0.5558  3.5515  2.5139
  268MOL0     H36925   0.766   6.022   2.216  1.0272  3.9984  1.1901
  268MOL0     H36926   0.782   6.156   2.103  2.5359 -1.5309  0.4111
  268MOL0     H36927   0.550   5.945   2.071 -0.3497  0.8732  1.2790
  268MOL0     H36928   0.578   6.089   1.984 -1.7301 -1.6277 -0.5949
  268MOL0     H36929   0.801   6.001   1.908 -0.8066 -0.9274 -5.1429
  268MOL0     H36930   0.661   5.911   1.864  0.5048  1.8786 -1.3551
  268MOL0     H36931   0.853   5.855   2.103  1.2818  1.6271 -1.3497
  268MOL0     H36932   0.712   5.753   2.070 -1.1070 -1.5923 -1.3916
  268MOL0     H36933   0.803   5.819   1.736 -0.4843 -1.3468 -1.3191
  268MOL0     H36934   1.083   5.721   1.572 -0.1319  0.8993 -1.3552
  268MOL0     H36935   0.920   5.651   1.544  2.5413 -0.1162 -1.8785
  268MOL0     H36936   1.188   5.551   1.586 -0.8959  1.6071 -1.2688
  268MOL0     H36937   1.066   5.448   1.659 -0.2657 -1.6866 -1.0406
  268MOL0     H36938   1.103   5.361   1.442 -0.6576 -0.9145  0.0885
  268MOL0     H36939   0.941   5.441   1.435  0.0349 -0.0920  2.2570
  268MOL0     H36940   1.042   5.632   1.318  1.9514  2.4353  1.5757
  268MOL0     H36941   1.198   5.560   1.327  0.5313 -0.1379 -1.6217
  268MOL0     H36942   1.051   5.357   0.971 -0.6330 -2.3905  0.6013
  268MOL0     H36943   1.107   5.243   0.762  1.5278  1.1695 -1.2859
  268MOL0     H36944   1.201   5.104   0.770 -0.9457 -0.1616 -1.6354
  268MOL0     H36945   1.287   5.267   0.762 -0.9963 -0.0392 -0.9363
  268MOL0     H36946   1.470   4.782   1.119 -1.0019  2.0487 -0.1159
  268MOL0     H36947   1.584   4.596   1.037 -0.9949 -3.3490 -1.7386
  268MOL0     H36948   1.812   4.514   0.896  0.9102 -2.6969  1.1120
  268MOL0     H36949   1.680   4.409   0.897  2.6973 -1.3248 -0.3706
  268MOL0     H36950   1.892   4.316   0.793 -0.3699  0.8000  1.5123
  268MOL0     H36951   1.731   4.293   0.706  0.7932 -1.3739  0.0777
  268MOL0     H36952   1.953   4.478   0.636  0.0197 -0.4887  0.9248
  268MOL0     H36953   1.795   4.485   0.562  0.6319  0.2251 -0.5521
  268MOL0     H36954   1.798   4.278   0.468  1.6915 -0.5001 -2.1695
  268MOL0     H36955   1.925   4.213   0.552 -0.9789 -2.4004 -2.6135
  268MOL0     H36956   1.920   4.443   0.339  3.0586  0.7825 -0.1981
  268MOL0     H36957   2.066   4.420   0.436  0.0779  2.4133 -3.1749
  268MOL0     H36958   1.915   4.231   0.254  0.5647  1.4776 -2.0719
  268MOL0     H36959   2.060   4.169   0.331  0.8592  0.0599 -1.0396
  268MOL0     H36960   2.175   4.374   0.202  1.8420 -1.0685 -2.4810
  268MOL0     H36961   2.011   4.390   0.135 -1.8070 -2.2191 -1.9318
  268MOL0     H36962   2.151   4.259  -0.022  1.5048 -1.8817 -0.4262
  268MOL0     H36963   2.037   4.144   0.061  0.4887 -0.9332  4.2474
  268MOL0     H36964   1.539   4.732   0.619 -2.4531  1.0857 -0.2470
  268MOL0     H36965   1.415   4.920   0.706 -0.6636 -0.2231 -0.0180
  268MOL0     H36966   1.426   5.177   1.224  1.3903  0.3910 -0.9055
  268MOL0     H36967   1.285   5.354   1.335 -2.0534  0.1994 -0.0730
  268MOL0     H36968   0.674   6.518   2.817 -0.0661 -1.6923 -0.4832
  268MOL0     H36969   0.637   6.732   2.884  0.9877 -4.1876  0.4577
  268MOL0     H36970   0.752   7.077   3.005 -0.5993  0.8579  0.7161
  268MOL0     H36971   0.805   7.242   3.142 -5.5279 -0.4856  0.8847
  268MOL0     H36972   0.790   7.452   3.312 -1.9146  1.9265  0.4291
  268MOL0     H36973   0.925   7.407   3.223  0.0003 -0.1504 -0.6769
  268MOL0     H36974   0.954   7.613   3.370  2.3346  0.8990 -1.1827
  268MOL0     H36975   0.826   7.695   3.287  0.0768  0.0942 -0.4320
  268MOL0     H36976   1.060   7.571   3.132  1.1066 -1.3526  1.3006
  268MOL0     H36977   0.972   7.712   3.085  2.4008 -1.5194 -0.9725
  268MOL0     H36978   1.221   7.727   3.173  0.6799 -0.3682  0.5886
  268MOL0     H36979   1.162   7.699   3.333  2.4421 -1.2598 -0.7947
  268MOL0     H36980   1.076   8.091   3.323  0.0006 -0.2562 -0.5729
  268MOL0     H36981   0.717   7.554   2.857  1.1337 -0.2318 -3.0037
  268MOL0     H36982   0.579   7.318   2.629  2.4193 -2.5269  1.5670
  268MOL0     H36983   0.617   7.488   2.658 -5.2247 -1.1003 -0.7843
  268MOL0     H36984   0.744   7.386   2.590  0.0864  0.1379  0.2216
  269MOL0     O36985   6.159   5.228   1.919  0.2896 -0.1120 -0.0921
  269MOL0     C36986   6.195   5.217   1.806 -0.0571  0.0184  0.5048
  269MOL0     O36987   6.319   5.225   1.755  0.7540 -0.2676  0.2441
  269MOL0     C36988   6.418   5.210   1.848  0.9209  0.8860  0.1361
  269MOL0     C36989   6.496   5.096   1.848 -0.5303  0.0028 -0.3751
  269MOL0     C36990   6.610   5.087   1.931 -0.0323  1.2831 -0.9758
  269MOL0     C36991   6.636   5.191   2.029 -0.3082 -0.2851  0.6341
  269MOL0     O36992   6.741   5.202   2.114 -0.2657  0.2338 -0.4393
  269MOL0     C36993   6.789   5.072   2.150 -0.0365  0.2562 -0.1897
  269MOL0     C36994   6.696   4.989   2.244  0.2619  0.0524  0.3072
  269MOL0     C36995   6.770   4.867   2.309 -0.0902  1.2788 -0.3715
  269MOL0     C36996   6.667   4.769   2.376 -0.0203 -0.2478 -0.7397
  269MOL0     C36997   6.746   4.641   2.388  0.4226  0.6324  0.2560
  269MOL0     C36998   6.670   4.533   2.456 -0.6793  0.3600 -0.4833
  269MOL0     C36999   6.755   4.400   2.453 -0.3328  0.7957 -0.5377
  269MOL0     C37000   6.721   4.300   2.560  0.4217  0.4827 -0.0068
  269MOL0     N37001   6.802   4.175   2.563 -0.1982  0.1380 -0.3185
  269MOL0     C37002   6.931   4.154   2.579 -0.5332 -0.0812 -0.5448
  269MOL0     C37003   6.940   4.017   2.565  0.3989  0.3629  0.9477
  269MOL0     C37004   7.063   3.933   2.554 -0.3323 -0.0290  0.2431
  269MOL0     C37005   7.135   3.924   2.683  0.1949 -0.1551  0.2018
  269MOL0     C37006   7.271   3.869   2.653 -1.3327 -0.7109  0.2594
  269MOL0     C37007   7.349   3.854   2.794  0.3502  0.2503  0.1123
  269MOL0     O37008   7.495   3.858   2.764  0.1677  1.4962  0.0680
  269MOL0     C37009   7.566   3.745   2.749 -0.0366 -0.6389 -0.4896
  269MOL0     C37010   7.523   3.616   2.704  0.2520 -0.2062 -0.3289
  269MOL0     C37011   7.616   3.517   2.675  0.3016 -0.4968  0.0779
  269MOL0     C37012   7.556   3.397   2.612 -0.2385 -0.8540 -0.0145
  269MOL0     C37013   7.754   3.544   2.692 -1.2479  0.1392 -0.0434
  269MOL0     C37014   7.861   3.441   2.681  0.0025  0.0341 -0.6626
  269MOL0     O37015   7.985   3.492   2.661  0.0952  0.2416  0.3230
  269MOL0     C37016   8.090   3.404   2.628  0.4053 -0.6264 -0.4837
  269MOL0     C37017   8.142   3.378   2.495 -0.1581  0.2739  0.5092
  269MOL0     C37018   8.244   3.286   2.479 -0.4910 -0.0700 -0.0873
  269MOL0     C37019   8.312   3.227   2.588  0.4281  0.4565  0.0246
  269MOL0     O37020   8.415   3.145   2.574 -0.1849  0.8730  0.1021
  269MOL0     C37021   8.531   3.207   2.509 -0.0807 -0.3943  0.3869
  269MOL0     C37022   8.651   3.137   2.573  1.0050 -0.3233 -0.5219
  269MOL0     C37023   8.649   3.140   2.724 -0.2999 -0.2018  0.4388
  269MOL0     C37024   8.664   3.283   2.787 -0.8974 -0.4266  0.8740
  269MOL0     C37025   8.784   3.303   2.889  0.4366  0.1016  0.2175
  269MOL0     C37026   8.819   3.447   2.899 -0.7982  0.4359 -1.5222
  269MOL0     C37027   8.923   3.460   3.014  1.0843  0.7672  0.8905
  269MOL0     C37028   8.945   3.603   3.045 -0.7442  0.7587  0.1553
  269MOL0    Cl37029   9.023   3.696   2.910  0.0894 -0.0630 -0.1086
  269MOL0     C37030   8.274   3.250   2.719  0.1638  0.2467 -0.5849
  269MOL0     C37031   8.167   3.344   2.742  0.2699 -0.3398 -0.2684
  269MOL0     O37032   7.838   3.323   2.676 -0.0755 -0.1688  0.1766
  269MOL0     C37033   7.789   3.673   2.744  0.3129 -0.4335  0.8583
  269MOL0     C37034   7.696   3.777   2.768 -1.4438  0.1840 -0.6857
  269MOL0     N37035   6.814   3.958   2.543 -0.4291  0.2683  0.4174
  269MOL0     N37036   6.741   4.060   2.544  0.9821  0.6137 -0.1479
  269MOL0     C37037   6.542   5.298   2.032  0.7084 -0.6593  0.2217
  269MOL0     C37038   6.450   5.313   1.935  0.0829  0.3396 -0.5068
  269MOL0     C37039   6.092   5.166   1.710  1.0591 -0.3382  0.0223
  269MOL0     C37040   6.011   5.045   1.741 -0.4005 -0.1865 -0.4925
  269MOL0     C37041   5.914   5.006   1.649 -0.7887 -0.6024 -0.2981
  269MOL0     C37042   5.890   5.072   1.536  0.4005 -0.0088  1.3635
  269MOL0     O37043   5.792   5.039   1.449 -0.1935 -0.2047 -0.2335
  269MOL0     C37044   5.723   4.917   1.460 -0.6670  0.0621  0.4284
  269MOL0     C37045   5.619   4.892   1.348 -0.0593 -0.1636  0.5314
  269MOL0     C37046   5.668   4.885   1.202 -0.0709  0.5739  1.1794
  269MOL0     C37047   5.780   4.784   1.174  0.4474  0.2890 -0.1500
  269MOL0     C37048   5.868   4.802   1.059 -1.2415 -0.0283 -1.2003
  269MOL0     C37049   5.920   4.799   0.948  0.5265 -0.0378 -0.3639
  269MOL0     C37050   5.973   5.182   1.503 -0.1072 -0.3310 -0.0344
  269MOL0     C37051   6.066   5.233   1.591  0.6009  0.4369  0.2000
  269MOL0     C37052   6.136   5.360   1.547 -0.7217  0.0693 -0.0097
  269MOL0     H37053   6.473   5.010   1.786  0.0025 -0.9184  0.6736
  269MOL0     H37054   6.659   4.991   1.927 -0.7430  0.7367  1.6494
  269MOL0     H37055   6.884   5.087   2.204 -0.3923 -0.7384  0.7295
  269MOL0     H37056   6.819   5.009   2.066 -2.3189 -1.8606  0.4890
  269MOL0     H37057   6.646   5.053   2.317 -2.1924  0.5710 -1.7007
  269MOL0     H37058   6.620   4.935   2.187  1.6102 -1.1081 -0.4749
  269MOL0     H37059   6.819   4.814   2.227  1.3367  1.2357  0.4758
  269MOL0     H37060   6.843   4.896   2.384 -1.0405  2.7121  0.0454
  269MOL0     H37061   6.630   4.806   2.472  0.2031  2.4898 -1.6388
  269MOL0     H37062   6.580   4.760   2.310 -0.5382 -3.0740  0.1775
  269MOL0     H37063   6.845   4.651   2.434  0.6989 -1.5888  0.2494
  269MOL0     H37064   6.759   4.614   2.283  2.3597 -0.2949  0.6814
  269MOL0     H37065   6.659   4.555   2.562 -1.7897 -2.0891 -0.0104
  269MOL0     H37066   6.567   4.523   2.420 -0.6707  0.8492 -0.6603
  269MOL0     H37067   6.863   4.418   2.461  0.1118 -1.3950 -0.8959
  269MOL0     H37068   6.732   4.352   2.357 -1.3882  0.3604 -0.0821
  269MOL0     H37069   6.734   4.336   2.663  3.9817 -0.5142  0.0060
  269MOL0     H37070   6.616   4.275   2.542  0.7569  0.1115 -1.5295
  269MOL0     H37071   7.011   4.225   2.596 -1.1281  0.1266  1.6465
  269MOL0     H37072   7.122   3.977   2.474  0.5211 -1.1362  0.2361
  269MOL0     H37073   7.031   3.831   2.534 -1.1127  0.6558 -2.3200
  269MOL0     H37074   7.136   4.026   2.724 -0.3669 -1.0931  2.6656
  269MOL0     H37075   7.084   3.849   2.743  0.9543 -0.8475 -0.0026
  269MOL0     H37076   7.266   3.765   2.619  3.6992 -1.2665  0.3952
  269MOL0     H37077   7.324   3.920   2.572 -1.0842 -2.0492 -0.4606
  269MOL0     H37078   7.316   3.935   2.860 -3.3916  0.7490 -2.0527
  269MOL0     H37079   7.318   3.760   2.839  0.9471 -0.4479 -0.8945
  269MOL0     H37080   7.417   3.593   2.703 -0.0465  1.1073 -0.8884
  269MOL0     H37081   7.465   3.422   2.556  0.7987 -0.1443 -1.4618
  269MOL0     H37082   7.534   3.317   2.682  2.9497 -0.9880  0.9901
  269MOL0     H37083   7.629   3.372   2.534 -0.0235 -2.4720  0.6645
  269MOL0     H37084   8.087   3.434   2.420 -1.1816 -0.2797  0.8150
  269MOL0     H37085   8.279   3.251   2.382 -0.7487  1.6048 -0.8128
  269MOL0     H37086   8.530   3.182   2.403 -0.2390  1.1534 -0.0088
  269MOL0     H37087   8.544   3.313   2.532  0.6068 -0.0408 -1.5187
  269MOL0     H37088   8.656   3.030   2.549 -1.1338 -1.0185  1.7143
  269MOL0     H37089   8.747   3.167   2.529  0.5400 -0.7128 -1.8538
  269MOL0     H37090   8.743   3.091   2.753  0.7213  2.0626  1.2181
  269MOL0     H37091   8.576   3.082   2.781  1.8544 -1.8854  1.6365
  269MOL0     H37092   8.566   3.317   2.823  0.1002  0.1552  3.2497
  269MOL0     H37093   8.697   3.346   2.704 -0.5270  0.5802  1.7678
  269MOL0     H37094   8.744   3.275   2.987  0.4523 -1.5501 -0.2165
  269MOL0     H37095   8.872   3.249   2.853  1.6951  1.8923  0.4911
  269MOL0     H37096   8.732   3.512   2.915  1.2842  3.8420 -2.7657
  269MOL0     H37097   8.879   3.476   2.812 -1.3557  1.2596 -1.6502
  269MOL0     H37098   9.023   3.430   2.980  2.6234  4.7000  1.4232
  269MOL0     H37099   8.897   3.407   3.106  0.8454  2.4444  1.8264
  269MOL0     H37100   9.011   3.609   3.132 -2.7776 -0.5975  1.9031
  269MOL0     H37101   8.849   3.639   3.083 -0.5302 -0.5718  2.1220
  269MOL0     H37102   8.330   3.199   2.796 -0.2962 -0.7885 -0.9209
  269MOL0     H37103   8.132   3.346   2.845  0.7912 -2.0469 -0.0375
  269MOL0     H37104   7.895   3.680   2.765  1.8074  0.8931 -5.1572
  269MOL0     H37105   7.729   3.862   2.827  0.4365 -2.7915  2.9705
  269MOL0     H37106   6.560   5.379   2.102  2.2164  0.2765 -1.1921
  269MOL0     H37107   6.382   5.397   1.926 -1.1054 -0.2742  1.9262
  269MOL0     H37108   6.054   4.981   1.818  1.2821  1.0224 -0.3591
  269MOL0     H37109   5.869   4.914   1.685  0.6543 -1.1945  0.0602
  269MOL0     H37110   5.788   4.830   1.469 -1.8514 -1.1408 -1.8786
  269MOL0     H37111   5.673   4.916   1.558  1.0678 -0.3884  1.3493
  269MOL0     H37112   5.544   4.972   1.355 -0.0098  0.1283 -1.7077
  269MOL0     H37113   5.564   4.800   1.368 -0.7594 -0.5521 -2.6542
  269MOL0     H37114   5.577   4.861   1.147  0.0916 -0.7843  1.4788
  269MOL0     H37115   5.693   4.988   1.173 -1.4946  0.8100  0.6905
  269MOL0     H37116   5.728   4.688   1.175 -0.0270  0.5426  0.5270
  269MOL0     H37117   5.853   4.778   1.255  0.6158 -1.3871 -0.3849
  269MOL0     H37118   5.968   4.804   0.852  1.0301  0.2791 -0.0986
  269MOL0     H37119   5.974   5.229   1.405  1.4362  0.0531  0.1381
  269MOL0     H37120   6.240   5.329   1.536 -0.5419 -0.5931  2.9577
  269MOL0     H37121   6.104   5.405   1.452  1.2998 -2.0187 -1.8142
  269MOL0     H37122   6.125   5.434   1.627  1.9399  0.9020 -0.3357
  270MOL0     O37123  10.236   2.802   3.619  0.0230  0.1566 -0.1340
  270MOL0     C37124  10.288   2.802   3.502 -0.7953  0.3874 -0.1056
  270MOL0     O37125  10.415   2.856   3.469 -0.2964 -0.0747  0.1719
  270MOL0     C37126  10.489   2.908   3.570  0.6213  0.0880  0.7088
  270MOL0     C37127  10.618   2.858   3.565  0.1905  0.1440 -0.7668
  270MOL0     C37128  10.712   2.907   3.650  0.2193 -0.5601 -0.4662
  270MOL0     C37129  10.686   3.010   3.738  0.4971  0.1646 -0.6107
  270MOL0     O37130  10.788   3.060   3.817  0.3038 -0.1105 -0.2950
  270MOL0     C37131  10.750   3.059   3.957  0.3427 -0.2430 -0.5614
  270MOL0     C37132  10.872   3.123   4.026  0.0039  0.8928 -0.1521
  270MOL0     C37133  10.934   3.249   3.959 -0.3271 -0.8574 -0.7351
  270MOL0     C37134  11.023   3.315   4.047  0.0855 -0.5659 -0.2831
  270MOL0     C37135  10.954   3.393   4.169  0.3842 -0.0575  0.1768
  270MOL0     C37136  11.072   3.456   4.243 -0.2442 -1.0991 -0.7146
  270MOL0     C37137  11.188   3.381   4.302 -0.3099  0.5820 -0.3305
  270MOL0     C37138  11.260   3.443   4.429  0.4222  0.1902  0.3953
  270MOL0     N37139  11.307   3.581   4.403 -0.3894  0.1240  1.1508
  270MOL0     C37140  11.243   3.701   4.436  0.2843 -0.3836  0.2141
  270MOL0     C37141  11.308   3.811   4.382 -0.6180  0.1349  0.2536
  270MOL0     C37142  11.261   3.957   4.389 -0.1284 -0.0654  0.1678
  270MOL0     C37143  11.106   3.957   4.363  0.4050  1.1546 -0.6699
  270MOL0     C37144  11.054   4.095   4.339  0.0561 -0.1776 -0.1919
  270MOL0     C37145  10.910   4.093   4.273 -0.5161 -0.4665 -0.4405
  270MOL0     O37146  10.933   4.031   4.141  0.0867 -0.5809 -1.0992
  270MOL0     C37147  10.826   4.034   4.057  0.9621  0.0125 -0.7813
  270MOL0     C37148  10.828   3.980   3.933  0.4676 -0.5100 -0.6888
  270MOL0     C37149  10.725   3.994   3.838  0.1105  0.0125  0.6222
  270MOL0     C37150  10.738   3.905   3.716 -0.5010 -0.6831  0.2008
  270MOL0     C37151  10.618   4.079   3.863 -0.2895 -0.1761 -0.6150
  270MOL0     C37152  10.511   4.116   3.773 -0.6928 -0.2277  0.0545
  270MOL0     O37153  10.393   4.119   3.825 -0.4461 -0.1140 -0.4215
  270MOL0     C37154  10.285   4.163   3.761 -0.8948  0.3213  0.3062
  270MOL0     C37155  10.218   4.077   3.678  0.5316  0.7159 -0.3712
  270MOL0     C37156  10.095   4.108   3.615 -0.3623 -0.5713  0.0399
  270MOL0     C37157  10.040   4.227   3.649 -0.5260 -0.3980 -0.5181
  270MOL0     O37158   9.924   4.264   3.587  0.0484  0.3279  0.4336
  270MOL0     C37159   9.822   4.329   3.659  0.6345  0.1998 -0.3523
  270MOL0     C37160   9.746   4.241   3.750 -0.2666 -0.0827  0.1355
  270MOL0     C37161   9.634   4.313   3.824 -0.1706 -0.4453  0.5959
  270MOL0     C37162   9.539   4.217   3.898  0.4093 -0.7924  0.2944
  270MOL0     C37163   9.427   4.179   3.800  0.0361  0.9919 -0.5282
  270MOL0     C37164   9.335   4.071   3.865  0.3583  0.5378  0.2156
  270MOL0     C37165   9.213   4.035   3.771 -0.0310  0.0218  0.0497
  270MOL0     C37166   9.111   3.944   3.844  0.5922  0.2539 -0.1933
  270MOL0    Cl37167   8.957   3.932   3.755  0.1241  0.0486  0.0431
  270MOL0     C37168  10.088   4.300   3.760 -1.0843  0.2699 -0.0488
  270MOL0     C37169  10.217   4.272   3.810 -0.8046 -1.0251 -0.1534
  270MOL0     O37170  10.541   4.140   3.655  0.2774 -0.4417  0.6772
  270MOL0     C37171  10.608   4.129   3.995  0.0812 -0.1397  0.5044
  270MOL0     C37172  10.707   4.101   4.087 -0.1093  0.0362  0.2190
  270MOL0     N37173  11.419   3.748   4.310  0.2835  0.5639  0.1771
  270MOL0     N37174  11.419   3.620   4.334 -0.8895  0.5922 -0.2283
  270MOL0     C37175  10.550   3.058   3.736  0.5491  1.0865 -0.2263
  270MOL0     C37176  10.451   3.010   3.650  0.8396 -0.1070  0.9623
  270MOL0     C37177  10.212   2.733   3.391  0.7120  0.4336  0.4421
  270MOL0     C37178  10.289   2.658   3.299  1.1363 -0.2637  1.3393
  270MOL0     C37179  10.225   2.606   3.186  0.4237 -0.3736  0.0146
  270MOL0     C37180  10.085   2.619   3.168  0.2367  1.1822 -1.5417
  270MOL0     O37181  10.016   2.572   3.060 -0.4360  0.1129 -0.3160
  270MOL0     C37182  10.067   2.467   2.981  0.0837 -0.4370  0.7957
  270MOL0     C37183   9.967   2.440   2.863 -0.3008 -0.6702 -0.3418
  270MOL0     C37184  10.005   2.337   2.768 -0.0845  0.7127  0.1737
  270MOL0     C37185   9.889   2.277   2.679 -0.6103 -0.8102 -0.6322
  270MOL0     C37186   9.918   2.171   2.582 -0.8650  1.1523 -0.5964
  270MOL0     C37187   9.931   2.073   2.512  0.4548 -0.4437  0.8146
  270MOL0     C37188  10.007   2.681   3.262 -0.4083 -0.3956 -0.6887
  270MOL0     C37189  10.072   2.741   3.365 -0.5418 -0.3270  0.1179
  270MOL0     C37190   9.985   2.832   3.449 -0.7390 -0.5995  0.2422
  270MOL0     H37191  10.638   2.784   3.489 -2.2904  1.0502 -2.4538
  270MOL0     H37192  10.811   2.864   3.656  0.4145 -0.0714 -0.1768
  270MOL0     H37193  10.724   2.960   3.995 -1.8036  1.6026  3.4506
  270MOL0     H37194  10.666   3.126   3.978  0.3147 -0.5362  0.3148
  270MOL0     H37195  10.843   3.129   4.132 -2.6555  2.1047 -0.8701
  270MOL0     H37196  10.950   3.047   4.021 -0.6680  0.2760 -2.2504
  270MOL0     H37197  10.985   3.228   3.864 -2.8228  0.3456 -2.4519
  270MOL0     H37198  10.849   3.316   3.941 -0.0183 -0.3468 -0.3044
  270MOL0     H37199  11.094   3.239   4.080  1.1692  0.0437 -1.1287
  270MOL0     H37200  11.080   3.392   3.993  0.1131  0.7159  1.4740
  270MOL0     H37201  10.904   3.314   4.226  0.6021 -1.5972 -1.6668
  270MOL0     H37202  10.882   3.465   4.128  1.4854  1.0650  0.1872
  270MOL0     H37203  11.118   3.547   4.203  1.9782  1.0239  5.4524
  270MOL0     H37204  11.018   3.504   4.326  1.5595  2.3403 -1.3227
  270MOL0     H37205  11.267   3.378   4.227  0.5705  2.9543  0.4175
  270MOL0     H37206  11.158   3.279   4.328  1.2256 -0.4536 -2.3772
  270MOL0     H37207  11.198   3.455   4.518  1.1174  3.9808  0.5231
  270MOL0     H37208  11.342   3.372   4.445 -0.1298 -1.8088 -4.1340
  270MOL0     H37209  11.154   3.698   4.499 -0.1059 -0.2638 -0.3260
  270MOL0     H37210  11.309   4.014   4.309  1.3548 -1.8470 -0.2806
  270MOL0     H37211  11.289   3.995   4.487  0.8726 -1.7009  0.5638
  270MOL0     H37212  11.084   3.885   4.283  1.5741 -2.0380  1.6969
  270MOL0     H37213  11.072   3.915   4.458  1.0436 -2.2167 -1.7893
  270MOL0     H37214  11.054   4.147   4.435  1.9831 -1.0362  0.3278
  270MOL0     H37215  11.120   4.160   4.281 -0.5690  1.3866  0.7962
  270MOL0     H37216  10.840   4.029   4.327 -1.2426  0.3359 -0.4096
  270MOL0     H37217  10.875   4.196   4.272 -0.5884 -0.4908 -1.8821
  270MOL0     H37218  10.916   3.924   3.904  0.6248  0.8471 -3.1894
  270MOL0     H37219  10.840   3.900   3.677 -0.5267  2.3680 -0.4886
  270MOL0     H37220  10.678   3.949   3.636 -2.3645  4.0084  3.7144
  270MOL0     H37221  10.701   3.803   3.730  4.2189 -3.1292 -2.4751
  270MOL0     H37222  10.258   3.977   3.667  0.5173  0.6761 -0.0644
  270MOL0     H37223  10.055   4.028   3.554  1.5339 -0.8311 -0.9561
  270MOL0     H37224   9.857   4.415   3.717  1.4026 -0.2303 -0.1725
  270MOL0     H37225   9.747   4.347   3.580  0.0069 -1.9794 -0.3140
  270MOL0     H37226   9.710   4.155   3.692 -0.5582 -2.2521  3.2975
  270MOL0     H37227   9.810   4.201   3.829 -2.0504 -1.7960  0.8033
  270MOL0     H37228   9.580   4.377   3.754 -0.6277 -1.6774 -0.2096
  270MOL0     H37229   9.664   4.385   3.901 -1.7459 -0.3964  1.2022
  270MOL0     H37230   9.490   4.265   3.983  2.9600 -1.0899  2.0385
  270MOL0     H37231   9.596   4.134   3.940  2.5875 -0.0512 -1.0365
  270MOL0     H37232   9.359   4.261   3.780 -0.2639  0.2755 -2.7135
  270MOL0     H37233   9.458   4.139   3.703 -0.8217 -0.8426 -0.0909
  270MOL0     H37234   9.291   4.108   3.958  1.8344 -0.3549  1.2950
  270MOL0     H37235   9.381   3.974   3.886  0.4647 -0.4689 -3.7610
  270MOL0     H37236   9.258   3.985   3.685  0.0091 -0.6365  0.4460
  270MOL0     H37237   9.172   4.130   3.734  2.5297  1.1646 -0.0318
  270MOL0     H37238   9.092   3.976   3.947  0.2840 -3.8182  1.1860
  270MOL0     H37239   9.147   3.842   3.858  3.6549  1.4476  1.4807
  270MOL0     H37240  10.032   4.384   3.801 -1.5233 -0.1068  0.1273
  270MOL0     H37241  10.260   4.330   3.891 -1.9775  0.7836 -0.7586
  270MOL0     H37242  10.527   4.197   4.017  0.7512  0.3335  1.5867
  270MOL0     H37243  10.686   4.141   4.186  1.9080 -2.6036  1.8473
  270MOL0     H37244  10.535   3.140   3.806 -0.5645 -0.3499  1.2693
  270MOL0     H37245  10.349   3.046   3.639  1.2101  0.4934 -0.9278
  270MOL0     H37246  10.395   2.647   3.317  1.4232 -2.2302 -1.1497
  270MOL0     H37247  10.284   2.536   3.128  2.7642 -0.4493  2.3259
  270MOL0     H37248  10.163   2.500   2.941  2.4662 -0.1062  5.9362
  270MOL0     H37249  10.098   2.378   3.037 -0.5796 -0.0100  1.8876
  270MOL0     H37250   9.941   2.534   2.813 -1.0488 -0.0503  1.1534
  270MOL0     H37251   9.877   2.413   2.918  0.4558 -0.4633  1.0339
  270MOL0     H37252  10.083   2.371   2.699  0.1250  1.3229  0.7090
  270MOL0     H37253  10.053   2.257   2.824 -1.1975 -0.7135 -0.8387
  270MOL0     H37254   9.850   2.364   2.625 -2.4987 -2.3032 -1.7594
  270MOL0     H37255   9.810   2.244   2.747 -0.1449 -1.0114 -0.1730
  270MOL0     H37256   9.927   2.003   2.431  0.6012  0.6551 -0.1701
  270MOL0     H37257   9.900   2.684   3.248 -0.9002 -0.5210  2.3475
  270MOL0     H37258   9.944   2.785   3.539  0.5983  1.5644  2.0979
  270MOL0     H37259  10.047   2.919   3.472  0.3681 -0.9550 -1.2636
  270MOL0     H37260   9.907   2.870   3.383 -1.1674  0.4541  1.3174
  271MOL0     O37261   1.612   3.236   3.118 -0.0747 -0.5855 -0.4283
  271MOL0     C37262   1.508   3.299   3.151  0.1793  0.1900  0.3154
  271MOL0     O37263   1.417   3.345   3.065 -0.4480  0.1500  0.6646
  271MOL0     C37264   1.467   3.355   2.934 -0.2349  0.4336  0.4365
  271MOL0     C37265   1.476   3.244   2.851 -0.1098 -0.6927  0.1693
  271MOL0     C37266   1.531   3.263   2.723  0.2729 -0.4119 -0.1039
  271MOL0     C37267   1.560   3.395   2.675 -0.6705  0.3568  0.6874
  271MOL0     O37268   1.613   3.393   2.545  0.0055  0.1519  0.6827
  271MOL0     C37269   1.650   3.519   2.482  0.3484  0.8889  0.6863
  271MOL0     C37270   1.736   3.479   2.356  0.5900 -0.2411 -0.3407
  271MOL0     C37271   1.786   3.586   2.265  0.1956 -0.6759  0.5257
  271MOL0     C37272   1.839   3.524   2.138  0.1533  0.1860 -0.4101
  271MOL0     C37273   1.879   3.635   2.035 -0.3081  1.2429  0.6471
  271MOL0     C37274   1.898   3.574   1.896 -0.1910 -0.6471 -0.1088
  271MOL0     C37275   1.901   3.681   1.790  0.9083 -0.3465 -0.8618
  271MOL0     C37276   2.033   3.753   1.772  0.0948 -0.0618 -0.0593
  271MOL0     N37277   2.058   3.813   1.642  0.3560  0.9022  0.3582
  271MOL0     C37278   1.973   3.894   1.563 -0.0612  0.4908 -0.4997
  271MOL0     C37279   2.044   3.914   1.454  0.0694  0.1642  0.1165
  271MOL0     C37280   2.007   4.001   1.339  0.5595  0.0044  0.3757
  271MOL0     C37281   1.932   3.919   1.232  0.5042 -0.1542  0.5498
  271MOL0     C37282   1.897   4.004   1.104  0.0745 -0.9658  0.1218
  271MOL0     C37283   2.016   3.998   1.007  0.1550  0.5457 -0.0655
  271MOL0     O37284   2.001   4.110   0.919  0.3362  0.8300 -0.4705
  271MOL0     C37285   2.112   4.182   0.881  0.6191  0.0551  0.6593
  271MOL0     C37286   2.196   4.150   0.778  0.3991 -0.4136  0.3363
  271MOL0     C37287   2.283   4.248   0.718  0.0377  0.1274  0.4291
  271MOL0     C37288   2.366   4.221   0.591  0.6400 -0.6678 -0.2061
  271MOL0     C37289   2.286   4.376   0.776 -0.6352  0.3702  0.4412
  271MOL0     C37290   2.365   4.494   0.728 -0.3432  0.7626  0.2489
  271MOL0     O37291   2.457   4.551   0.823  0.6207  0.1398  0.0023
  271MOL0     C37292   2.542   4.659   0.793 -0.0289 -0.1547  0.0552
  271MOL0     C37293   2.649   4.663   0.876  1.1760  0.3512 -0.0372
  271MOL0     C37294   2.761   4.747   0.860 -0.2429 -0.0101  0.4315
  271MOL0     C37295   2.750   4.849   0.769 -0.4009 -0.2964 -0.3372
  271MOL0     O37296   2.862   4.924   0.749 -0.3323  0.2719 -0.1194
  271MOL0     C37297   2.888   4.999   0.638  0.1354 -0.3278 -0.3187
  271MOL0     C37298   3.030   5.051   0.638  1.2430  0.0771 -0.8839
  271MOL0     C37299   3.134   4.950   0.621  0.1871  0.4908 -0.1974
  271MOL0     C37300   3.271   4.988   0.554  0.6119 -0.0540  0.0592
  271MOL0     C37301   3.381   4.900   0.604 -0.8459  0.4752 -0.4576
  271MOL0     C37302   3.376   4.749   0.564  0.5349 -0.3860 -0.1555
  271MOL0     C37303   3.468   4.657   0.635  0.3099  0.0863 -0.8920
  271MOL0     C37304   3.457   4.504   0.595 -0.1012 -0.1435  0.0894
  271MOL0    Cl37305   3.548   4.482   0.435 -0.6481  0.0078 -0.0249
  271MOL0     C37306   2.634   4.856   0.686 -0.1715  0.0675  0.0693
  271MOL0     C37307   2.535   4.758   0.693 -0.0594 -0.3914  0.6592
  271MOL0     O37308   2.336   4.543   0.618 -0.0044 -0.8984 -0.1316
  271MOL0     C37309   2.209   4.396   0.884 -0.0714  0.3319  0.0284
  271MOL0     C37310   2.115   4.304   0.941  0.1377 -0.0812  0.5578
  271MOL0     N37311   2.157   3.831   1.452 -0.9017 -0.1841 -0.9327
  271MOL0     N37312   2.173   3.782   1.580 -0.2661  0.7907  0.8273
  271MOL0     C37313   1.536   3.502   2.748  0.3897 -0.3258 -1.0869
  271MOL0     C37314   1.505   3.482   2.880 -0.7677  0.4537 -0.8632
  271MOL0     C37315   1.476   3.327   3.301  0.3795  1.1553  0.9169
  271MOL0     C37316   1.545   3.243   3.387  0.2633  0.4363  0.3127
  271MOL0     C37317   1.533   3.268   3.518 -0.4923 -0.6851  0.5061
  271MOL0     C37318   1.446   3.361   3.577  0.5928  0.1097  0.4653
  271MOL0     O37319   1.432   3.383   3.706 -0.6875  0.9179 -0.5578
  271MOL0     C37320   1.499   3.295   3.809  0.4234  0.4850  0.5362
  271MOL0     C37321   1.433   3.152   3.805 -0.4123  0.3365 -0.2833
  271MOL0     C37322   1.544   3.049   3.842  0.4552 -0.3684 -0.7270
  271MOL0     C37323   1.556   3.019   3.993  0.3358  0.4259  0.3605
  271MOL0     C37324   1.618   2.888   4.011 -0.6463 -0.0634 -0.2423
  271MOL0     C37325   1.663   2.772   4.017  0.3968 -0.3701 -0.1031
  271MOL0     C37326   1.366   3.439   3.493  0.6095  0.0568  0.4897
  271MOL0     C37327   1.385   3.423   3.352  0.6732  0.1565  0.2752
  271MOL0     C37328   1.314   3.532   3.277  0.7963 -0.1058  0.3632
  271MOL0     H37329   1.451   3.141   2.874 -0.5060 -0.6631 -0.1250
  271MOL0     H37330   1.536   3.176   2.659 -1.0648  1.5702 -3.1111
  271MOL0     H37331   1.700   3.585   2.553  0.8753 -0.6832  1.8450
  271MOL0     H37332   1.562   3.579   2.456  1.5957  3.2089  1.5256
  271MOL0     H37333   1.819   3.422   2.397 -2.8188 -3.9551  2.1837
  271MOL0     H37334   1.676   3.410   2.295 -0.3901  1.9197 -1.9758
  271MOL0     H37335   1.712   3.663   2.242  2.4208  1.4035 -0.1113
  271MOL0     H37336   1.861   3.651   2.309  0.7707 -1.3032  0.4868
  271MOL0     H37337   1.926   3.467   2.169  0.4935  1.2436  0.6436
  271MOL0     H37338   1.759   3.465   2.091  1.9193 -0.9812 -2.0901
  271MOL0     H37339   1.969   3.691   2.063  0.5611 -0.4190  1.3159
  271MOL0     H37340   1.792   3.700   2.024 -0.1916  1.1111 -1.3190
  271MOL0     H37341   1.991   3.518   1.887  1.4542  2.2450 -3.8781
  271MOL0     H37342   1.814   3.505   1.879 -0.5470 -0.1462 -0.3992
  271MOL0     H37343   1.824   3.754   1.816 -0.4687 -1.1620 -2.4378
  271MOL0     H37344   1.874   3.632   1.696  1.3099 -2.1288 -0.0926
  271MOL0     H37345   2.055   3.815   1.859  0.5027 -1.0405  0.5554
  271MOL0     H37346   2.116   3.683   1.784  1.5898  1.8764  1.5139
  271MOL0     H37347   1.869   3.925   1.571 -1.3847 -0.5612 -7.4018
  271MOL0     H37348   2.103   4.031   1.295  0.6283 -1.0707 -0.2378
  271MOL0     H37349   1.949   4.087   1.372  1.7299 -0.4242  3.9218
  271MOL0     H37350   1.968   3.819   1.203  0.9388 -0.4947  2.1978
  271MOL0     H37351   1.837   3.889   1.276  1.4218 -3.2927  0.6645
  271MOL0     H37352   1.808   3.971   1.050  0.7257  2.1170 -3.1366
  271MOL0     H37353   1.869   4.105   1.135 -0.7052 -1.5107  1.2823
  271MOL0     H37354   2.101   4.001   1.076  0.9446  1.6555 -1.0429
  271MOL0     H37355   2.013   3.902   0.954 -1.0846 -0.4998  1.8016
  271MOL0     H37356   2.196   4.053   0.729 -0.7634 -0.4410  0.3606
  271MOL0     H37357   2.303   4.202   0.504  3.3694 -0.8575 -2.2597
  271MOL0     H37358   2.424   4.129   0.600 -0.0128 -1.2595 -1.7224
  271MOL0     H37359   2.434   4.305   0.569  2.2981 -0.9468  3.1619
  271MOL0     H37360   2.656   4.590   0.956  0.4338  1.4018  1.0293
  271MOL0     H37361   2.845   4.715   0.920  1.1494 -0.6433 -1.7608
  271MOL0     H37362   2.855   4.950   0.546 -0.7522 -1.2921  0.4860
  271MOL0     H37363   2.819   5.085   0.634 -3.2205 -2.7547  0.5453
  271MOL0     H37364   3.038   5.101   0.542 -0.7948 -4.1119 -3.5082
  271MOL0     H37365   3.041   5.117   0.725  0.1984 -0.3812 -0.3944
  271MOL0     H37366   3.086   4.882   0.550  1.2551  0.3092 -0.7648
  271MOL0     H37367   3.149   4.916   0.724 -0.0069  3.7642  1.0273
  271MOL0     H37368   3.298   5.091   0.579  4.3061 -0.6269 -0.8761
  271MOL0     H37369   3.262   4.997   0.445  2.4632 -0.7967 -0.1944
  271MOL0     H37370   3.471   4.942   0.560 -0.4692  0.2096  0.0453
  271MOL0     H37371   3.384   4.896   0.714  0.4992 -1.5532 -0.5168
  271MOL0     H37372   3.388   4.736   0.456 -1.8960 -1.6123 -0.3544
  271MOL0     H37373   3.276   4.717   0.596  0.3457  0.9969  0.7194
  271MOL0     H37374   3.454   4.677   0.742  2.7807  0.0988 -0.5052
  271MOL0     H37375   3.571   4.689   0.616  0.3472 -0.2361 -1.2476
  271MOL0     H37376   3.353   4.477   0.573  0.1295 -0.9528 -0.0556
  271MOL0     H37377   3.483   4.428   0.670  0.9300 -0.8738 -0.9731
  271MOL0     H37378   2.638   4.931   0.608  1.1878 -1.5514 -1.5036
  271MOL0     H37379   2.457   4.757   0.619 -1.5727 -0.3710  2.1928
  271MOL0     H37380   2.224   4.493   0.932  1.9253  0.7531 -1.3329
  271MOL0     H37381   2.052   4.326   1.026 -0.7383  3.6077 -0.8786
  271MOL0     H37382   1.550   3.600   2.704 -2.1465  1.1305  1.0806
  271MOL0     H37383   1.496   3.570   2.942  3.2040  1.6118 -1.6826
  271MOL0     H37384   1.620   3.171   3.356  0.9281  1.2023  0.0718
  271MOL0     H37385   1.600   3.207   3.579  2.4022  3.0706  1.4615
  271MOL0     H37386   1.605   3.305   3.783 -0.5319  2.3895 -3.3585
  271MOL0     H37387   1.476   3.332   3.910 -2.6657  0.4273 -0.0585
  271MOL0     H37388   1.389   3.127   3.709 -0.7106 -1.2563  0.2392
  271MOL0     H37389   1.355   3.149   3.882  1.5349 -1.1467  1.7533
  271MOL0     H37390   1.520   2.958   3.786  0.5096  0.3932 -2.0314
  271MOL0     H37391   1.638   3.092   3.806  0.4185 -2.5860 -3.8812
  271MOL0     H37392   1.452   2.996   4.014 -0.6192  0.6428 -3.4850
  271MOL0     H37393   1.593   3.099   4.059 -1.8790  0.1420  2.0720
  271MOL0     H37394   1.696   2.670   4.026 -3.2494 -1.8408 -1.6796
  271MOL0     H37395   1.308   3.514   3.547  1.5675  1.5360 -0.4509
  271MOL0     H37396   1.378   3.620   3.262  2.1573 -1.4520 -2.6789
  271MOL0     H37397   1.277   3.496   3.181 -0.2981  2.5328 -0.2736
  271MOL0     H37398   1.224   3.562   3.331 -0.9183 -1.2384 -1.7257
  272MOL0     O37399   6.159   5.049   9.877  0.0211  0.0378  0.2416
  272MOL0     C37400   6.155   5.059  10.005 -0.1890  0.0211  1.2756
  272MOL0     O37401   6.054   5.037  10.087  0.2485  0.5569 -0.3097
  272MOL0     C37402   5.949   4.993  10.025  0.4002  0.7034 -0.0671
  272MOL0     C37403   5.859   5.082   9.973 -0.5462  0.1664 -0.4669
  272MOL0     C37404   5.747   5.038   9.910 -0.0009 -0.1969  0.0601
  272MOL0     C37405   5.732   4.901   9.883  0.3718  0.0668 -0.1637
  272MOL0     O37406   5.619   4.862   9.815 -0.5414  0.4714  0.5072
  272MOL0     C37407   5.565   4.726   9.839 -0.4492  0.7723 -0.1510
  272MOL0     C37408   5.438   4.701   9.758 -0.8513 -0.2335  0.6402
  272MOL0     C37409   5.394   4.556   9.759 -0.2317  0.1003  0.0252
  272MOL0     C37410   5.312   4.544   9.626  0.5095  0.7581  0.2254
  272MOL0     C37411   5.281   4.401   9.594  0.2088 -0.5279 -0.6312
  272MOL0     C37412   5.217   4.395   9.453 -0.1764  0.6353 -0.5027
  272MOL0     C37413   5.185   4.249   9.429  0.8622 -0.4971 -0.2027
  272MOL0     C37414   5.061   4.205   9.510 -0.5664  0.2539 -0.0287
  272MOL0     N37415   4.942   4.262   9.450  1.1583 -0.8162  0.5825
  272MOL0     C37416   4.882   4.219   9.337  0.0910 -0.3050  0.9386
  272MOL0     C37417   4.776   4.299   9.317 -0.6462 -0.4843  0.1598
  272MOL0     C37418   4.680   4.303   9.190  0.2930 -0.1047 -0.8864
  272MOL0     C37419   4.551   4.224   9.242 -0.8701 -0.2123  0.7773
  272MOL0     C37420   4.438   4.223   9.134  0.3805  0.2516  0.2460
  272MOL0     C37421   4.334   4.116   9.163  0.7596  0.5168  0.1757
  272MOL0     O37422   4.326   4.077   9.308  0.9858 -0.3226  0.0580
  272MOL0     C37423   4.225   3.992   9.336 -0.2341 -0.7915  1.0316
  272MOL0     C37424   4.213   3.973   9.476  0.7845  0.4012  0.5786
  272MOL0     C37425   4.114   3.886   9.530  0.0544 -0.2680  0.1301
  272MOL0     C37426   4.090   3.901   9.679  0.2558 -0.7690  0.3078
  272MOL0     C37427   4.025   3.817   9.437 -0.1866 -0.1830  0.3818
  272MOL0     C37428   3.919   3.705   9.473  0.8666 -0.5826 -0.0925
  272MOL0     O37429   3.862   3.638   9.369 -0.0424 -0.1771 -0.0250
  272MOL0     C37430   3.781   3.533   9.394 -0.5916  0.0728 -0.5752
  272MOL0     C37431   3.666   3.534   9.459  1.0020 -0.9028 -0.5734
  272MOL0     C37432   3.588   3.424   9.500  0.0212 -0.0705  0.0952
  272MOL0     C37433   3.638   3.297   9.466  0.6630 -0.1228 -0.0701
  272MOL0     O37434   3.568   3.184   9.503  0.1610 -0.3148 -0.3809
  272MOL0     C37435   3.452   3.173   9.423  0.8597  0.6815  0.0733
  272MOL0     C37436   3.392   3.040   9.472  0.4153 -0.4223 -0.4308
  272MOL0     C37437   3.267   2.981   9.407 -0.3061  0.0510  0.2044
  272MOL0     C37438   3.148   3.076   9.400  0.4809  0.8132 -0.0584
  272MOL0     C37439   3.026   2.984   9.372  0.0374  0.3315 -1.4658
  272MOL0     C37440   2.991   2.879   9.483  0.2497 -0.3255  0.1341
  272MOL0     C37441   2.979   2.931   9.633  0.5123  0.0665  0.3697
  272MOL0     C37442   2.847   3.017   9.644  0.3023  0.0979  0.1351
  272MOL0    Cl37443   2.721   2.900   9.681  0.0371  0.1727  0.0443
  272MOL0     C37444   3.760   3.284   9.399  0.2325 -0.1275 -0.0467
  272MOL0     C37445   3.824   3.405   9.363  0.4293  0.0135  1.5005
  272MOL0     O37446   3.905   3.670   9.589 -0.4656 -0.0137 -0.6996
  272MOL0     C37447   4.044   3.841   9.295 -0.1352  1.1584  0.0280
  272MOL0     C37448   4.144   3.921   9.248 -0.4951 -0.2945 -0.3224
  272MOL0     N37449   4.772   4.388   9.426  0.6146 -0.2620  0.5775
  272MOL0     N37450   4.872   4.367   9.506  0.2309 -1.0384  0.0511
  272MOL0     C37451   5.835   4.810   9.914 -0.9057  0.2015 -0.5067
  272MOL0     C37452   5.941   4.859   9.988 -0.3021  1.6466  0.3592
  272MOL0     C37453   6.270   5.123  10.065 -0.8436 -0.1919  0.3573
  272MOL0     C37454   6.283   5.259  10.040  0.5134 -0.4231  0.0772
  272MOL0     C37455   6.398   5.328  10.089  0.3967 -0.0451 -0.2066
  272MOL0     C37456   6.497   5.265  10.171 -0.3630 -0.2185  0.4009
  272MOL0     O37457   6.615   5.307  10.222 -0.6805 -0.8128  0.2578
  272MOL0     C37458   6.638   5.453  10.217 -0.3357 -0.1458  0.5519
  272MOL0     C37459   6.703   5.489  10.079  0.3786 -0.2673 -0.2064
  272MOL0     C37460   6.690   5.645  10.066 -0.0617  0.5112  0.1863
  272MOL0     C37461   6.754   5.722  10.186 -0.2012  0.0142  0.5689
  272MOL0     C37462   6.765   5.865  10.145  0.9014  0.2772  0.0959
  272MOL0     C37463   6.773   5.985  10.115  0.1538  0.3049  1.0925
  272MOL0     C37464   6.463   5.135  10.200  0.1037  0.3042  0.1023
  272MOL0     C37465   6.356   5.067  10.154 -0.3553 -0.4267 -0.2075
  272MOL0     C37466   6.335   4.917  10.193  1.1535  1.1940  0.6514
  272MOL0     H37467   5.884   5.187   9.979 -0.7011  0.1753  0.0569
  272MOL0     H37468   5.674   5.106   9.868 -1.8164 -1.0540  1.6947
  272MOL0     H37469   5.556   4.721   9.948 -0.6014  3.6430  0.0463
  272MOL0     H37470   5.641   4.651   9.815  0.0102 -0.5693  4.4448
  272MOL0     H37471   5.356   4.764   9.794 -2.5029 -0.2106 -2.7590
  272MOL0     H37472   5.461   4.736   9.657 -1.8108 -1.8965 -0.1821
  272MOL0     H37473   5.476   4.484   9.755 -1.7417 -1.6322 -1.9821
  272MOL0     H37474   5.326   4.555   9.844 -0.7895  0.9508 -0.4010
  272MOL0     H37475   5.216   4.597   9.632  0.6055  0.9984 -0.3454
  272MOL0     H37476   5.387   4.568   9.551 -1.0302 -0.8668 -1.9828
  272MOL0     H37477   5.210   4.357   9.666 -1.7619  0.2111 -2.0301
  272MOL0     H37478   5.378   4.351   9.589  0.7417  0.3054  0.8217
  272MOL0     H37479   5.128   4.458   9.445 -1.6081 -1.3877 -1.2162
  272MOL0     H37480   5.302   4.433   9.394  0.4629  4.0644  2.2726
  272MOL0     H37481   5.264   4.181   9.463  0.7812  0.5110  2.2405
  272MOL0     H37482   5.160   4.249   9.323 -0.8075  2.5929  0.0545
  272MOL0     H37483   5.056   4.096   9.503  0.5343  0.1371  0.7145
  272MOL0     H37484   5.068   4.235   9.615 -1.0850 -0.0418  0.0901
  272MOL0     H37485   4.910   4.138   9.270  0.1480 -0.1004  0.7132
  272MOL0     H37486   4.708   4.242   9.103  0.8347 -0.6250 -0.3574
  272MOL0     H37487   4.656   4.405   9.160 -1.6615 -0.3007 -0.1104
  272MOL0     H37488   4.583   4.119   9.249  0.0525  0.1261  1.9613
  272MOL0     H37489   4.523   4.249   9.344  1.1282 -1.0694  1.5931
  272MOL0     H37490   4.380   4.316   9.126  2.2530  1.5207  0.8156
  272MOL0     H37491   4.481   4.204   9.036  2.7992 -0.4991  1.3793
  272MOL0     H37492   4.237   4.159   9.136 -0.4955 -1.8574  0.6276
  272MOL0     H37493   4.352   4.027   9.103 -0.1026 -1.4620  2.6775
  272MOL0     H37494   4.275   4.042   9.531 -0.9601  1.7181  0.9786
  272MOL0     H37495   4.142   3.983   9.729 -0.2420 -0.0620 -0.3148
  272MOL0     H37496   4.114   3.806   9.727 -1.6864 -1.0949  0.7339
  272MOL0     H37497   3.983   3.927   9.684 -0.3560 -2.6857 -1.4584
  272MOL0     H37498   3.643   3.634   9.494  2.0015 -0.2938 -1.5986
  272MOL0     H37499   3.495   3.413   9.554 -0.0646  0.1643 -0.0063
  272MOL0     H37500   3.378   3.251   9.443 -2.9920 -2.4594 -0.6984
  272MOL0     H37501   3.452   3.166   9.314  0.4079 -1.4355  0.1789
  272MOL0     H37502   3.469   2.963   9.477  2.9817  2.0518  0.9209
  272MOL0     H37503   3.364   3.048   9.578 -0.0794 -2.5438 -0.3473
  272MOL0     H37504   3.247   2.895   9.471 -0.9304  0.8905  1.1639
  272MOL0     H37505   3.296   2.965   9.303  0.7367 -0.0650  0.5017
  272MOL0     H37506   3.169   3.148   9.320  1.8263  0.0341 -0.4367
  272MOL0     H37507   3.136   3.123   9.498 -1.2182 -0.0550  0.1967
  272MOL0     H37508   2.951   3.057   9.339  0.0566  1.7610  1.3298
  272MOL0     H37509   3.058   2.924   9.287 -0.7214  0.5349 -1.9039
  272MOL0     H37510   3.071   2.804   9.481  1.7297  1.1361  1.3896
  272MOL0     H37511   2.890   2.841   9.466  0.1362 -0.4068  0.9582
  272MOL0     H37512   3.069   2.992   9.649  0.1512  0.5323  0.6601
  272MOL0     H37513   2.976   2.845   9.701 -2.3658  0.9825  1.5424
  272MOL0     H37514   2.822   3.064   9.549 -0.8351 -4.1293 -1.9153
  272MOL0     H37515   2.852   3.087   9.728 -1.9214 -1.0442  1.3322
  272MOL0     H37516   3.802   3.185   9.384 -0.2804  0.1129 -4.4802
  272MOL0     H37517   3.920   3.413   9.314 -0.3898 -0.2576 -0.2440
  272MOL0     H37518   3.975   3.795   9.224  2.5374 -1.6980 -0.9705
  272MOL0     H37519   4.148   3.933   9.140 -1.8379  0.2597 -0.3291
  272MOL0     H37520   5.835   4.703   9.894 -2.6396 -0.0774  0.8045
  272MOL0     H37521   6.023   4.791  10.011 -0.9352  0.5646 -0.4796
  272MOL0     H37522   6.209   5.309   9.978  0.0614 -2.1062 -0.7953
  272MOL0     H37523   6.411   5.431  10.057 -1.8933  1.2888  2.6578
  272MOL0     H37524   6.543   5.505  10.235 -0.5440 -0.5205  0.5472
  272MOL0     H37525   6.705   5.487  10.296 -0.3370  0.6294  0.2290
  272MOL0     H37526   6.636   5.449  10.003 -2.6926  2.5009  0.7985
  272MOL0     H37527   6.806   5.452  10.071  1.4514  2.6081 -0.7098
  272MOL0     H37528   6.736   5.675   9.972  0.1792 -0.7881 -0.1334
  272MOL0     H37529   6.583   5.668  10.075  0.3358  2.1145  1.1997
  272MOL0     H37530   6.854   5.681  10.205 -0.4394 -1.6063 -1.2741
  272MOL0     H37531   6.698   5.696  10.276  3.1494 -1.8220  2.3397
  272MOL0     H37532   6.775   6.092  10.104 -1.1705  0.4283  1.9151
  272MOL0     H37533   6.539   5.088  10.262  0.0271 -1.6150 -1.1903
  272MOL0     H37534   6.246   4.876  10.145  0.2120  3.6838  0.1233
  272MOL0     H37535   6.424   4.867  10.155  1.8851  2.8712  0.0646
  272MOL0     H37536   6.332   4.898  10.301 -0.4740 -0.8923  0.3114
  273MOL0     O37537   3.694   9.254  11.390 -0.3246  0.1827  0.1358
  273MOL0     C37538   3.738   9.261  11.506  0.0775 -0.6016  0.2951
  273MOL0     O37539   3.726   9.166  11.607 -0.3025 -0.1254 -0.3044
  273MOL0     C37540   3.653   9.056  11.583 -0.1582  0.4639 -1.2879
  273MOL0     C37541   3.689   8.973  11.475 -0.7700  0.2921 -0.4322
  273MOL0     C37542   3.634   8.845  11.453  0.0525  1.4123  0.9399
  273MOL0     C37543   3.538   8.791  11.542 -0.1959  0.4565  0.2928
  273MOL0     O37544   3.479   8.673  11.517  0.8591 -0.1570 -0.6633
  273MOL0     C37545   3.531   8.578  11.432  0.3340  0.4490  0.8874
  273MOL0     C37546   3.437   8.459  11.420  1.1049 -0.3436  0.1485
  273MOL0     C37547   3.412   8.375  11.545 -0.1698 -0.6893  1.5142
  273MOL0     C37548   3.327   8.251  11.524 -0.6328 -0.4103  1.0330
  273MOL0     C37549   3.284   8.179  11.648 -0.0881  0.8298 -0.5895
  273MOL0     C37550   3.254   8.035  11.611 -0.5328 -0.2746  0.2370
  273MOL0     C37551   3.200   7.957  11.734  0.3591  0.4840 -0.1242
  273MOL0     C37552   3.310   7.906  11.830  0.5129 -0.3551  0.1259
  273MOL0     N37553   3.264   7.806  11.920  0.2818 -0.2709 -0.5013
  273MOL0     C37554   3.319   7.684  11.932  0.2359 -0.2366  0.9065
  273MOL0     C37555   3.270   7.622  12.037  0.2870  0.0601 -0.7341
  273MOL0     C37556   3.304   7.488  12.096 -0.0803 -0.4376  0.3097
  273MOL0     C37557   3.322   7.376  11.992 -0.4549 -0.4391  1.2906
  273MOL0     C37558   3.429   7.271  12.039  0.7654 -1.1584 -0.5629
  273MOL0     C37559   3.458   7.171  11.932  0.6207 -0.4270 -0.6178
  273MOL0     O37560   3.503   7.231  11.816 -0.8462  0.0322  0.0259
  273MOL0     C37561   3.526   7.151  11.715  1.4168  1.1674  1.0690
  273MOL0     C37562   3.532   7.009  11.717  0.0261 -0.4699 -0.7755
  273MOL0     C37563   3.529   6.937  11.602 -1.0253  1.2476 -0.7259
  273MOL0     C37564   3.522   6.787  11.616  0.2690 -0.9422  0.7267
  273MOL0     C37565   3.528   7.000  11.475  0.2150 -0.4813 -0.2463
  273MOL0     C37566   3.508   6.934  11.339  0.3191 -0.4663  0.3884
  273MOL0     O37567   3.432   7.004  11.243 -0.0312 -0.2553 -0.1916
  273MOL0     C37568   3.444   6.962  11.113  0.1709 -0.4876  0.6982
  273MOL0     C37569   3.332   6.988  11.030 -0.7258 -0.9565 -0.6954
  273MOL0     C37570   3.338   6.958  10.896  0.7236 -0.8786  0.1212
  273MOL0     C37571   3.437   6.876  10.847 -0.6030 -0.3887 -0.6466
  273MOL0     O37572   3.422   6.836  10.719  0.2396 -0.0506 -0.4746
  273MOL0     C37573   3.541   6.806  10.650 -1.5722  0.9448  0.1025
  273MOL0     C37574   3.504   6.792  10.500 -1.3851 -0.7780 -0.2389
  273MOL0     C37575   3.474   6.946  10.448 -0.3453  0.8419 -0.3077
  273MOL0     C37576   3.600   7.022  10.407  0.7080  0.4849  0.8018
  273MOL0     C37577   3.583   7.105  10.283 -0.1763  0.6221  0.1011
  273MOL0     C37578   3.719   7.171  10.232 -0.1104 -0.4924 -0.1753
  273MOL0     C37579   3.682   7.306  10.161 -0.5547 -0.7375  0.0719
  273MOL0     C37580   3.781   7.358  10.055  0.5778  0.4195 -0.5986
  273MOL0    Cl37581   3.842   7.230   9.947 -0.1187  0.0861  0.2757
  273MOL0     C37582   3.546   6.853  10.925 -0.6146 -0.8840 -0.1577
  273MOL0     C37583   3.554   6.898  11.050 -0.0058  0.5489 -0.1076
  273MOL0     O37584   3.556   6.823  11.329 -0.1513  0.5698  0.7364
  273MOL0     C37585   3.522   7.139  11.470  0.3880 -0.0065  1.2560
  273MOL0     C37586   3.517   7.210  11.586  0.3757 -0.0516 -0.1115
  273MOL0     N37587   3.185   7.709  12.103  0.6526  0.0453  0.9244
  273MOL0     N37588   3.189   7.824  12.036 -0.1632  0.0507  0.0753
  273MOL0     C37589   3.518   8.865  11.657  0.4798  0.5976 -0.9748
  273MOL0     C37590   3.571   8.993  11.683  1.1525 -0.2681  0.4191
  273MOL0     C37591   3.798   9.389  11.557 -0.7387  1.0344  0.2484
  273MOL0     C37592   3.798   9.418  11.692 -0.1826  0.1163 -0.0068
  273MOL0     C37593   3.853   9.538  11.735 -0.0221  0.0216  0.2015
  273MOL0     C37594   3.907   9.630  11.648 -0.6702  0.7268  0.1649
  273MOL0     O37595   3.978   9.741  11.689  0.5123  0.1558  0.1748
  273MOL0     C37596   4.007   9.759  11.829 -0.2866 -0.1589 -0.7830
  273MOL0     C37597   4.092   9.891  11.844 -0.0365  0.9723 -0.5117
  273MOL0     C37598   4.022  10.015  11.788  0.6050  0.1583 -0.8099
  273MOL0     C37599   4.082  10.056  11.650  0.2659  0.9935  0.4949
  273MOL0     C37600   4.004  10.173  11.623 -0.1986 -0.7989 -0.8058
  273MOL0     C37601   3.937  10.276  11.602 -0.4374  0.9994  0.0903
  273MOL0     C37602   3.915   9.598  11.510 -0.1634  0.5536 -0.0998
  273MOL0     C37603   3.856   9.483  11.466 -0.8936  0.7439  0.0757
  273MOL0     C37604   3.866   9.462  11.312 -0.0920 -0.4607  0.5906
  273MOL0     H37605   3.750   9.020  11.399 -1.8148  1.3166 -0.6697
  273MOL0     H37606   3.665   8.779  11.373 -1.6475  0.5365  0.9531
  273MOL0     H37607   3.629   8.542  11.464 -0.2668 -2.1895  0.0215
  273MOL0     H37608   3.550   8.627  11.337  1.0471 -0.7062  0.4114
  273MOL0     H37609   3.346   8.506  11.382  1.9420  1.5690  0.3983
  273MOL0     H37610   3.487   8.393  11.348  0.9238  1.5102 -1.7604
  273MOL0     H37611   3.510   8.337  11.577  1.1577  0.6473 -0.6600
  273MOL0     H37612   3.372   8.438  11.624 -0.3055 -0.1347  1.0155
  273MOL0     H37613   3.234   8.289  11.481 -0.7972  0.3700  2.0432
  273MOL0     H37614   3.376   8.177  11.459 -2.0296  0.4681 -1.1290
  273MOL0     H37615   3.205   8.235  11.699  0.5782  0.9083  0.3871
  273MOL0     H37616   3.367   8.170  11.719 -2.7798 -3.7293  2.4514
  273MOL0     H37617   3.183   8.036  11.527  0.6429 -1.8946 -0.8424
  273MOL0     H37618   3.344   7.987  11.573  0.1749  0.5050  0.8960
  273MOL0     H37619   3.133   7.873  11.713 -0.6965  0.1740  3.7012
  273MOL0     H37620   3.137   8.027  11.790  1.0971 -0.1847  1.6396
  273MOL0     H37621   3.406   7.878  11.785  0.3476  1.9841 -1.9118
  273MOL0     H37622   3.332   7.990  11.896 -1.1593  1.2819 -1.2907
  273MOL0     H37623   3.393   7.641  11.865  1.4947  2.1377  0.6664
  273MOL0     H37624   3.240   7.455  12.178  2.0608  0.6113  2.5084
  273MOL0     H37625   3.395   7.509  12.153 -0.6203  0.2678  0.9258
  273MOL0     H37626   3.227   7.328  11.968  0.5499 -0.9824 -2.0080
  273MOL0     H37627   3.361   7.416  11.898  1.9861  0.2009  2.4878
  273MOL0     H37628   3.520   7.324  12.070 -0.5651  0.3654  0.8978
  273MOL0     H37629   3.393   7.226  12.132 -0.8430  2.4193  0.7239
  273MOL0     H37630   3.535   7.110  11.981  2.1241  1.1921 -0.8766
  273MOL0     H37631   3.367   7.115  11.904  0.4264 -0.1071 -0.6260
  273MOL0     H37632   3.557   6.951  11.806  0.7760 -1.3631 -1.5449
  273MOL0     H37633   3.622   6.752  11.591  0.3481 -1.4476  1.6997
  273MOL0     H37634   3.452   6.750  11.541  0.5048  1.7405 -0.9754
  273MOL0     H37635   3.482   6.752  11.712 -2.9537  3.4061  1.2914
  273MOL0     H37636   3.238   7.034  11.062  0.6029  0.1618  1.8960
  273MOL0     H37637   3.255   6.981  10.830  0.4877 -1.7061  0.1228
  273MOL0     H37638   3.608   6.892  10.665 -0.6165  0.4063 -0.8997
  273MOL0     H37639   3.574   6.709  10.689  0.9413  0.9410 -1.7718
  273MOL0     H37640   3.588   6.761  10.437  0.2612  1.7801  0.5273
  273MOL0     H37641   3.413   6.731  10.493 -4.3629  2.5296  4.0925
  273MOL0     H37642   3.435   7.006  10.531  0.4674 -0.2581  0.8930
  273MOL0     H37643   3.406   6.939  10.362 -0.1306  0.3628 -0.4394
  273MOL0     H37644   3.686   6.954  10.401  0.7199  0.3903  1.9046
  273MOL0     H37645   3.617   7.083  10.496  2.0507 -0.6549  1.3731
  273MOL0     H37646   3.526   7.056  10.203 -1.0396 -0.0027  1.0604
  273MOL0     H37647   3.514   7.185  10.314 -0.0316  0.9928 -0.5327
  273MOL0     H37648   3.781   7.105  10.170  1.2929 -1.3249  1.9960
  273MOL0     H37649   3.792   7.197  10.309  0.0604 -1.2817 -0.0604
  273MOL0     H37650   3.669   7.383  10.237 -0.8078 -1.2400  0.5488
  273MOL0     H37651   3.587   7.297  10.107  0.9867 -0.7997 -2.8025
  273MOL0     H37652   3.874   7.388  10.103 -0.0740 -1.3919  2.0327
  273MOL0     H37653   3.733   7.437   9.996  0.8158 -1.9861 -4.4055
  273MOL0     H37654   3.634   6.804  10.883 -0.8229 -1.2513 -0.1728
  273MOL0     H37655   3.637   6.866  11.113  1.6543  2.0649 -1.4245
  273MOL0     H37656   3.512   7.192  11.376  2.1235  2.0408  2.1622
  273MOL0     H37657   3.491   7.316  11.582  1.9367  0.3249 -1.1795
  273MOL0     H37658   3.453   8.828  11.737 -0.9440  1.9484 -1.4547
  273MOL0     H37659   3.543   9.044  11.774 -1.0706 -2.7275  1.2263
  273MOL0     H37660   3.740   9.354  11.758 -2.1426 -0.3660 -2.0957
  273MOL0     H37661   3.846   9.549  11.843 -1.6277  0.4252  0.0788
  273MOL0     H37662   3.913   9.764  11.884  0.9126 -0.3420  1.4143
  273MOL0     H37663   4.063   9.683  11.885 -1.3304 -0.0405  0.4658
  273MOL0     H37664   4.186   9.887  11.788 -0.9314  1.1410 -2.0717
  273MOL0     H37665   4.117   9.902  11.950  0.8612  2.5128 -0.8444
  273MOL0     H37666   3.914  10.000  11.782  0.2079  0.5777  2.9988
  273MOL0     H37667   4.039  10.089  11.866 -2.0467 -2.4591  2.5778
  273MOL0     H37668   4.062   9.980  11.574  0.3551 -0.8559  2.2307
  273MOL0     H37669   4.190  10.071  11.645  1.1463 -3.4439  1.3621
  273MOL0     H37670   3.877  10.365  11.611  0.9063  1.9716 -0.1826
  273MOL0     H37671   3.963   9.664  11.439  0.3528  1.2970  0.9307
  273MOL0     H37672   3.769   9.475  11.264 -0.7791 -0.0004  2.0204
  273MOL0     H37673   3.935   9.533  11.266 -0.2109 -1.4431 -1.1766
  273MOL0     H37674   3.893   9.359  11.289 -2.4856 -1.7587  2.9319
  274MOL0     O37675   8.170  11.382   3.321 -0.0405 -0.5413  0.5668
  274MOL0     C37676   8.052  11.372   3.331  0.5274 -0.5162 -0.1227
  274MOL0     O37677   7.981  11.431   3.435  0.1730  0.1279  0.1016
  274MOL0     C37678   8.049  11.493   3.529 -0.4502  0.0225  0.4309
  274MOL0     C37679   8.063  11.444   3.659  0.5415  0.2216 -0.7271
  274MOL0     C37680   8.139  11.514   3.753  0.1042  0.2902  0.2733
  274MOL0     C37681   8.216  11.625   3.720 -0.0492 -0.7560  0.3967
  274MOL0     O37682   8.293  11.677   3.813  0.1331  0.0143  0.4700
  274MOL0     C37683   8.232  11.788   3.885  1.3320  0.2665 -0.7212
  274MOL0     C37684   8.335  11.834   3.986 -0.8122  0.1761 -1.1729
  274MOL0     C37685   8.345  11.755   4.116 -0.1702  0.0492 -0.0144
  274MOL0     C37686   8.214  11.737   4.207  0.9510 -0.4294  0.1111
  274MOL0     C37687   8.241  11.642   4.325 -0.2143  0.4200 -0.0676
  274MOL0     C37688   8.316  11.710   4.437  0.2214  0.3654  0.6797
  274MOL0     C37689   8.307  11.627   4.559  0.7674  0.5226 -0.0875
  274MOL0     C37690   8.376  11.696   4.675 -0.4535  0.1103 -1.4212
  274MOL0     N37691   8.292  11.794   4.730  0.2612 -0.0902 -0.4968
  274MOL0     C37692   8.176  11.765   4.808  0.2222 -0.3892  0.0138
  274MOL0     C37693   8.119  11.891   4.827 -0.5348 -0.6359 -0.6094
  274MOL0     C37694   7.994  11.935   4.887  0.6183  0.8991 -0.7136
  274MOL0     C37695   7.916  11.829   4.962 -0.0592  0.6145 -0.3661
  274MOL0     C37696   7.984  11.791   5.101 -0.3541  0.1481  0.3042
  274MOL0     C37697   7.895  11.700   5.181  0.4219 -0.4066  0.0083
  274MOL0     O37698   7.960  11.656   5.298  0.1138  1.0454 -0.4988
  274MOL0     C37699   7.880  11.585   5.391  0.6273 -0.6020  1.2721
  274MOL0     C37700   7.930  11.566   5.521  0.0809 -0.0946  0.3529
  274MOL0     C37701   7.859  11.507   5.624  0.6287  0.2924  0.2187
  274MOL0     C37702   7.925  11.512   5.760  0.2752  1.1277  0.7292
  274MOL0     C37703   7.736  11.444   5.592  0.0532 -0.0838 -0.5954
  274MOL0     C37704   7.642  11.405   5.702  0.9011 -0.5952  0.2236
  274MOL0     O37705   7.516  11.450   5.697  0.4051  1.2895 -0.0337
  274MOL0     C37706   7.406  11.409   5.777 -0.7898  0.5322  1.1843
  274MOL0     C37707   7.376  11.273   5.803  0.5570  0.5818 -0.4467
  274MOL0     C37708   7.282  11.241   5.895  0.5294 -0.5115 -0.2275
  274MOL0     C37709   7.200  11.340   5.954 -0.6370 -0.7606 -0.2204
  274MOL0     O37710   7.104  11.298   6.044  0.2175  0.5872 -0.3835
  274MOL0     C37711   7.023  11.394   6.114  0.0575  0.5215 -0.6724
  274MOL0     C37712   6.898  11.449   6.044 -0.2761 -0.3934 -0.3911
  274MOL0     C37713   6.800  11.539   6.131  0.0302 -0.6779  0.6437
  274MOL0     C37714   6.707  11.439   6.208 -0.1147  0.0525 -0.1362
  274MOL0     C37715   6.747  11.390   6.352  0.6768 -0.8701  0.1619
  274MOL0     C37716   6.630  11.340   6.442  0.2742 -0.1834  0.1126
  274MOL0     C37717   6.547  11.237   6.360  0.6397 -0.5752  0.5787
  274MOL0     C37718   6.475  11.133   6.445  0.5430 -0.2699  0.1751
  274MOL0    Cl37719   6.363  11.203   6.559  0.4083 -0.5458 -0.0013
  274MOL0     C37720   7.225  11.474   5.921  0.5156 -0.2031 -0.1347
  274MOL0     C37721   7.316  11.506   5.819  0.2920  0.4261  0.8754
  274MOL0     O37722   7.695  11.326   5.785  0.5057  0.4415  0.3166
  274MOL0     C37723   7.692  11.449   5.460  0.6802  0.3422 -0.6596
  274MOL0     C37724   7.766  11.514   5.360  0.7574  0.1394 -0.4334
  274MOL0     N37725   8.201  11.983   4.760 -0.0121 -0.1400  0.2276
  274MOL0     N37726   8.306  11.929   4.709 -0.1282  0.6759  0.7726
  274MOL0     C37727   8.183  11.687   3.598  0.3490  0.4096  0.6581
  274MOL0     C37728   8.107  11.615   3.500  0.0883  1.0578  0.1214
  274MOL0     C37729   7.976  11.289   3.229  0.5550  0.1717  0.0879
  274MOL0     C37730   7.834  11.285   3.228  0.1332  1.2180 -0.8314
  274MOL0     C37731   7.752  11.217   3.129 -0.5037  0.1956  0.6188
  274MOL0     C37732   7.825  11.154   3.028 -0.8103  0.5480 -0.6465
  274MOL0     O37733   7.758  11.090   2.928 -0.1128  0.7348 -0.4295
  274MOL0     C37734   7.731  11.162   2.806  0.5571  0.3995 -0.0228
  274MOL0     C37735   7.640  11.288   2.835  0.0493 -0.1042 -0.0602
  274MOL0     C37736   7.585  11.354   2.705 -0.0112  0.4565  0.2454
  274MOL0     C37737   7.698  11.386   2.602 -0.4793 -0.0920  0.5201
  274MOL0     C37738   7.786  11.475   2.666  0.1597  0.4001  0.0052
  274MOL0     C37739   7.866  11.550   2.712  0.4747  0.4759 -0.5837
  274MOL0     C37740   7.964  11.143   3.025 -0.4910  0.1557  0.0242
  274MOL0     C37741   8.038  11.204   3.131  0.0197  0.0547 -0.0045
  274MOL0     C37742   8.193  11.174   3.129 -0.3727  0.2464 -1.3390
  274MOL0     H37743   8.017  11.358   3.706  1.9941  1.0388  2.4608
  274MOL0     H37744   8.140  11.474   3.854  0.3577  0.1484  0.2165
  274MOL0     H37745   8.141  11.759   3.937  1.1412  0.9040 -0.6972
  274MOL0     H37746   8.210  11.871   3.818 -0.3944 -0.2531 -0.8522
  274MOL0     H37747   8.429  11.802   3.940 -1.4083 -1.4067 -1.3639
  274MOL0     H37748   8.341  11.939   4.014  1.7157 -0.7035  2.3668
  274MOL0     H37749   8.385  11.656   4.092 -1.6218 -0.5247 -0.1785
  274MOL0     H37750   8.424  11.791   4.182  0.0557 -0.7543  0.1623
  274MOL0     H37751   8.177  11.831   4.248  2.5184  1.4484 -2.5113
  274MOL0     H37752   8.134  11.689   4.151  2.3222 -3.1582  0.3047
  274MOL0     H37753   8.291  11.553   4.285 -0.5725  0.1503  0.0820
  274MOL0     H37754   8.140  11.619   4.360 -1.2778  2.3876 -1.6021
  274MOL0     H37755   8.421  11.723   4.410  0.3910 -1.8931 -0.0335
  274MOL0     H37756   8.274  11.811   4.440  2.5376  1.4708 -1.0123
  274MOL0     H37757   8.372  11.539   4.555  2.8920  2.0515 -2.4979
  274MOL0     H37758   8.207  11.588   4.582  0.5597  1.6325  1.0249
  274MOL0     H37759   8.398  11.632   4.760  0.3549  3.3552  1.0123
  274MOL0     H37760   8.471  11.743   4.650  0.3871  0.0868  1.3722
  274MOL0     H37761   8.138  11.668   4.838  2.1768 -1.5562 -1.0801
  274MOL0     H37762   7.941  11.967   4.797  0.8515  0.7348 -0.9089
  274MOL0     H37763   8.012  12.023   4.949 -2.8505  2.6230 -1.9054
  274MOL0     H37764   7.816  11.870   4.978 -0.6124  0.7467 -3.5425
  274MOL0     H37765   7.906  11.742   4.896  0.6378  0.8356 -0.7708
  274MOL0     H37766   8.081  11.742   5.083  0.8108  1.7285  1.9011
  274MOL0     H37767   8.005  11.874   5.169  1.7039 -2.0933  2.6087
  274MOL0     H37768   7.806  11.748   5.221 -0.9071 -0.5867 -2.5879
  274MOL0     H37769   7.883  11.608   5.122  3.3961 -1.6508  1.1052
  274MOL0     H37770   8.019  11.624   5.542 -0.0077  1.5475 -3.0669
  274MOL0     H37771   7.865  11.575   5.827 -0.8743 -2.0748  2.9172
  274MOL0     H37772   8.020  11.563   5.741  0.3680  0.5240 -0.5167
  274MOL0     H37773   7.929  11.414   5.808 -2.4693  0.7910  0.4251
  274MOL0     H37774   7.438  11.190   5.773 -1.9828 -0.8539 -2.1200
  274MOL0     H37775   7.269  11.137   5.926 -1.6919 -0.0189  0.7363
  274MOL0     H37776   6.984  11.333   6.196 -0.5470 -0.7291 -1.8527
  274MOL0     H37777   7.080  11.475   6.161  1.0256  0.1532 -1.2050
  274MOL0     H37778   6.937  11.516   5.966  0.3815 -2.4297 -1.9033
  274MOL0     H37779   6.845  11.375   5.984  0.9075 -0.6309 -1.1883
  274MOL0     H37780   6.742  11.608   6.068  3.4767  2.4392  0.5787
  274MOL0     H37781   6.847  11.616   6.192 -1.8860  0.6827  0.5227
  274MOL0     H37782   6.689  11.355   6.140 -1.1787  1.7698 -2.0601
  274MOL0     H37783   6.606  11.478   6.219 -0.0964  0.0658  0.0031
  274MOL0     H37784   6.817  11.307   6.343  2.7390  0.8203 -0.3295
  274MOL0     H37785   6.797  11.478   6.392 -1.4926  0.2286  0.6468
  274MOL0     H37786   6.563  11.424   6.459 -0.1592 -0.6507  0.8091
  274MOL0     H37787   6.671  11.303   6.537  2.0176 -0.5562 -0.7437
  274MOL0     H37788   6.611  11.173   6.298  0.8707  1.5665 -1.5414
  274MOL0     H37789   6.479  11.294   6.296  3.3753 -1.2662 -3.2971
  274MOL0     H37790   6.557  11.071   6.485  3.9204  2.4928 -1.8639
  274MOL0     H37791   6.419  11.066   6.380  0.8333 -0.6683  0.3309
  274MOL0     H37792   7.181  11.557   5.976  0.4574 -2.6494  3.9301
  274MOL0     H37793   7.343  11.608   5.792  1.1702  0.4004  1.5954
  274MOL0     H37794   7.598  11.407   5.423  1.8931 -0.0034 -3.6351
  274MOL0     H37795   7.720  11.525   5.262  4.5762  0.5447 -2.3896
  274MOL0     H37796   8.233  11.781   3.579  0.3560  0.6354  1.7556
  274MOL0     H37797   8.091  11.647   3.397 -0.8918 -1.4874 -0.6023
  274MOL0     H37798   7.776  11.319   3.313 -0.3381  0.5661 -0.8736
  274MOL0     H37799   7.643  11.218   3.131 -0.5996 -1.1202 -1.4524
  274MOL0     H37800   7.828  11.172   2.756  1.1902 -2.7595  0.3920
  274MOL0     H37801   7.681  11.095   2.735 -2.4674  0.2568  2.0773
  274MOL0     H37802   7.694  11.361   2.896  1.1137  0.5454 -1.7081
  274MOL0     H37803   7.553  11.251   2.891 -0.2692 -1.1762 -1.2186
  274MOL0     H37804   7.518  11.278   2.662 -1.7099  1.2664  1.3614
  274MOL0     H37805   7.529  11.447   2.718  2.4564  2.9111 -4.1704
  274MOL0     H37806   7.676  11.421   2.501  1.9578 -0.4797 -0.2214
  274MOL0     H37807   7.754  11.298   2.568 -1.4680 -0.0018 -1.5164
  274MOL0     H37808   7.923  11.615   2.775 -2.5815  0.4217  2.4774
  274MOL0     H37809   8.019  11.077   2.958 -0.2599  0.3400  0.0296
  274MOL0     H37810   8.223  11.111   3.045  1.7118 -2.5243  1.2711
  274MOL0     H37811   8.240  11.273   3.127 -1.4963  0.8733  0.6493
  274MOL0     H37812   8.211  11.122   3.224 -2.0651 -2.3995 -2.3616
  275MOL0     O37813   5.891   5.417   3.094  0.5548  0.0159 -0.2381
  275MOL0     C37814   5.979   5.495   3.110  0.6790  0.2931 -0.0666
  275MOL0     O37815   6.109   5.455   3.144 -0.6560  0.2506 -0.7479
  275MOL0     C37816   6.122   5.316   3.156  0.5219 -0.2443  0.5711
  275MOL0     C37817   6.219   5.252   3.074 -0.2377 -0.2540 -0.2227
  275MOL0     C37818   6.230   5.117   3.090  0.4571  0.2675 -0.9559
  275MOL0     C37819   6.143   5.033   3.168  1.2314 -0.1114 -0.0173
  275MOL0     O37820   6.153   4.900   3.165  0.3843  0.3514 -0.3246
  275MOL0     C37821   6.121   4.818   3.278 -0.1326  0.1452 -1.0048
  275MOL0     C37822   5.983   4.752   3.265 -0.2306 -0.0099 -0.2000
  275MOL0     C37823   5.987   4.651   3.151 -0.2900  0.3315  0.0949
  275MOL0     C37824   6.029   4.514   3.190  0.0860  0.0438  0.4132
  275MOL0     C37825   6.049   4.419   3.065  0.1284 -0.8263 -0.5051
  275MOL0     C37826   6.169   4.456   2.985  0.6041  0.5701  1.1291
  275MOL0     C37827   6.194   4.370   2.854  0.4843 -0.2534  1.4931
  275MOL0     C37828   6.310   4.433   2.771 -0.4708 -0.0267  0.1809
  275MOL0     N37829   6.347   4.367   2.644 -0.2483 -0.1635 -0.7546
  275MOL0     C37830   6.374   4.231   2.633  0.1516 -0.2287 -0.7079
  275MOL0     C37831   6.388   4.215   2.501  0.1845 -0.3016 -0.4497
  275MOL0     C37832   6.379   4.089   2.424 -0.5826  0.3520  0.7009
  275MOL0     C37833   6.242   4.027   2.407 -0.3179  0.8529 -0.5534
  275MOL0     C37834   6.133   4.111   2.359 -0.0554 -0.9088  0.2134
  275MOL0     C37835   6.157   4.153   2.214  0.9870  0.2163  0.0849
  275MOL0     O37836   6.042   4.225   2.165 -0.3033  0.2358  0.7271
  275MOL0     C37837   6.049   4.314   2.059 -0.6065  0.3737  0.1961
  275MOL0     C37838   5.931   4.379   2.036 -1.3789  0.5969 -0.3650
  275MOL0     C37839   5.916   4.479   1.947 -0.0917 -0.9478  0.5049
  275MOL0     C37840   5.775   4.533   1.936 -0.0915 -0.7716  0.6109
  275MOL0     C37841   6.021   4.515   1.859 -0.6350 -0.0799  0.3379
  275MOL0     C37842   6.016   4.610   1.745 -0.0474 -0.1648 -0.7014
  275MOL0     O37843   6.131   4.665   1.715  0.2789 -0.8720 -0.3711
  275MOL0     C37844   6.145   4.751   1.604 -0.5175  0.4949  0.0360
  275MOL0     C37845   6.235   4.860   1.603  1.2757 -0.0822 -0.8495
  275MOL0     C37846   6.268   4.929   1.490 -0.7480 -0.2210  0.3804
  275MOL0     C37847   6.201   4.912   1.368 -0.3951 -0.3455 -0.3160
  275MOL0     O37848   6.238   4.977   1.258 -0.6889 -0.2036  0.1451
  275MOL0     C37849   6.154   4.962   1.140  1.2991  0.3246  0.2120
  275MOL0     C37850   6.194   5.069   1.040  0.8496  0.4950  0.0733
  275MOL0     C37851   6.140   5.216   1.062 -0.1136  0.2550  0.3275
  275MOL0     C37852   5.993   5.230   1.022  0.7136 -0.7723  0.6662
  275MOL0     C37853   5.928   5.370   1.054 -0.3304 -1.0151  0.2930
  275MOL0     C37854   5.887   5.394   1.190  0.7069 -0.1303 -0.1931
  275MOL0     C37855   5.767   5.303   1.231  0.2768 -0.9901 -0.3718
  275MOL0     C37856   5.696   5.345   1.369  0.3834  0.2356 -0.0150
  275MOL0    Cl37857   5.649   5.524   1.375  0.1897 -0.0456  0.0705
  275MOL0     C37858   6.100   4.817   1.371  0.6617  0.0158 -0.0179
  275MOL0     C37859   6.078   4.730   1.479 -0.5447  0.6373  0.3526
  275MOL0     O37860   5.913   4.629   1.685  0.1435 -0.5648 -0.7503
  275MOL0     C37861   6.149   4.446   1.880  0.4086  0.5509 -0.6147
  275MOL0     C37862   6.159   4.345   1.979  0.1807  0.5512 -0.4145
  275MOL0     N37863   6.387   4.340   2.445  0.1475  0.3806  0.5341
  275MOL0     N37864   6.361   4.431   2.529 -0.6013  0.3925  0.5809
  275MOL0     C37865   6.054   5.102   3.245  0.3610 -0.5581 -0.7377
  275MOL0     C37866   6.046   5.242   3.242  0.4293 -0.3372 -0.2007
  275MOL0     C37867   5.943   5.642   3.089 -0.1102  0.2819 -0.5470
  275MOL0     C37868   5.823   5.665   3.023 -0.5626  0.0806 -0.1277
  275MOL0     C37869   5.799   5.799   2.974  0.0335  0.9101  0.1923
  275MOL0     C37870   5.884   5.910   2.997  0.0760  0.0351 -0.1044
  275MOL0     O37871   5.868   6.031   2.929 -0.3205 -0.1642  0.1065
  275MOL0     C37872   5.922   6.039   2.799 -0.0461  0.9342 -0.5216
  275MOL0     C37873   5.908   6.183   2.750  0.4948  0.3009  0.0797
  275MOL0     C37874   5.996   6.276   2.838  0.4367  0.5997  0.0286
  275MOL0     C37875   5.970   6.423   2.800  0.0307  0.1461  0.3551
  275MOL0     C37876   5.995   6.449   2.662 -0.2451  0.0936  0.1678
  275MOL0     C37877   6.012   6.473   2.549  0.2839 -0.2274  0.3548
  275MOL0     C37878   6.001   5.881   3.074 -0.2455  0.5809  0.0172
  275MOL0     C37879   6.032   5.753   3.121  0.4421  0.2548 -0.5551
  275MOL0     C37880   6.155   5.740   3.208  0.2698  0.0481  0.2282
  275MOL0     H37881   6.275   5.311   3.002 -0.6755  4.1131  2.5884
  275MOL0     H37882   6.287   5.060   3.017 -2.7610 -2.0968 -1.8701
  275MOL0     H37883   6.135   4.889   3.359  3.1605  3.0294 -3.7816
  275MOL0     H37884   6.185   4.730   3.271 -4.9160 -4.0106  0.9248
  275MOL0     H37885   5.970   4.706   3.364  3.8362  0.0138  0.5383
  275MOL0     H37886   5.904   4.826   3.254  1.8649  2.5330  0.7287
  275MOL0     H37887   5.890   4.646   3.102 -0.2559  0.4457  0.0163
  275MOL0     H37888   6.064   4.688   3.082  1.0029 -5.5165 -2.2231
  275MOL0     H37889   6.121   4.523   3.247 -0.4377  2.8281  0.9856
  275MOL0     H37890   5.946   4.475   3.251 -1.5075  0.7343 -1.2108
  275MOL0     H37891   5.963   4.413   2.998  0.3185 -2.4675 -0.6260
  275MOL0     H37892   6.067   4.320   3.108  1.4563  1.2237  4.2978
  275MOL0     H37893   6.161   4.559   2.949  0.5530  0.1805 -0.0162
  275MOL0     H37894   6.256   4.451   3.051  2.7270 -1.5735 -1.5651
  275MOL0     H37895   6.101   4.370   2.797  0.8583  0.2060  0.8763
  275MOL0     H37896   6.220   4.265   2.872 -0.3515 -0.9421 -0.9360
  275MOL0     H37897   6.305   4.540   2.750  2.1340  0.0516 -0.2770
  275MOL0     H37898   6.394   4.429   2.840 -0.0065  1.5071 -0.2694
  275MOL0     H37899   6.369   4.158   2.713  0.4563 -0.4878 -0.9234
  275MOL0     H37900   6.453   4.019   2.463 -1.4686 -0.4793  0.9489
  275MOL0     H37901   6.429   4.124   2.334  1.2552 -2.0393  0.7182
  275MOL0     H37902   6.259   3.938   2.345  0.1783 -0.7281  1.6849
  275MOL0     H37903   6.208   3.983   2.502 -0.2988 -1.9446 -1.7528
  275MOL0     H37904   6.032   4.071   2.366 -0.1674 -1.0191 -1.5798
  275MOL0     H37905   6.134   4.207   2.412 -0.7651  0.2863 -1.8403
  275MOL0     H37906   6.245   4.217   2.203 -0.4883  2.0934 -1.6329
  275MOL0     H37907   6.170   4.070   2.144 -2.4509  0.8691 -1.5272
  275MOL0     H37908   5.847   4.360   2.101  0.0576 -2.6935  0.7426
  275MOL0     H37909   5.758   4.629   1.886 -0.2001  0.3197  2.6480
  275MOL0     H37910   5.723   4.538   2.033 -3.4745  1.7211 -1.0944
  275MOL0     H37911   5.720   4.467   1.868 -0.3571  2.3348 -2.4567
  275MOL0     H37912   6.279   4.893   1.696  1.4155 -0.1733 -0.8837
  275MOL0     H37913   6.345   5.004   1.501 -2.0588  1.4303 -1.0149
  275MOL0     H37914   6.166   4.867   1.086  1.2617  1.4649 -1.8907
  275MOL0     H37915   6.048   4.970   1.168  0.9940 -2.9385  0.4247
  275MOL0     H37916   6.303   5.069   1.046  1.0243 -2.2436 -1.2961
  275MOL0     H37917   6.160   5.034   0.942 -1.6064 -2.5285  1.8465
  275MOL0     H37918   6.210   5.277   1.004  2.2822 -2.3065  0.3382
  275MOL0     H37919   6.154   5.251   1.165  1.9853  2.8993 -0.7374
  275MOL0     H37920   5.939   5.142   1.058  0.7952 -1.3312 -0.5128
  275MOL0     H37921   6.002   5.220   0.913  0.8423  0.6478  0.5307
  275MOL0     H37922   6.004   5.448   1.036 -1.4016  1.1679  4.0127
  275MOL0     H37923   5.846   5.390   0.985  1.2200 -2.0718 -1.9567
  275MOL0     H37924   5.856   5.498   1.202 -2.6902 -1.1687  1.1611
  275MOL0     H37925   5.971   5.375   1.259 -0.7069 -3.6266  0.7876
  275MOL0     H37926   5.789   5.196   1.234 -1.1885 -1.3212 -0.5097
  275MOL0     H37927   5.699   5.315   1.146  2.1896  1.4022 -1.6975
  275MOL0     H37928   5.769   5.327   1.448  1.3985  3.2001 -0.1630
  275MOL0     H37929   5.610   5.281   1.390  0.9721 -0.1400  1.4185
  275MOL0     H37930   6.064   4.779   1.275  2.4054 -0.8269 -0.3853
  275MOL0     H37931   6.018   4.641   1.464  0.7574 -0.4351  1.3128
  275MOL0     H37932   6.241   4.469   1.828  0.7185 -0.1652 -0.3975
  275MOL0     H37933   6.252   4.292   1.997 -0.8181 -1.0122  0.3401
  275MOL0     H37934   5.977   5.056   3.305  0.6371 -2.1290 -1.5230
  275MOL0     H37935   5.967   5.287   3.301  0.2957  1.4872 -1.6944
  275MOL0     H37936   5.745   5.591   3.009 -1.4635  1.1227 -0.8358
  275MOL0     H37937   5.711   5.814   2.913 -0.5535  0.6537  0.9710
  275MOL0     H37938   6.024   6.000   2.793  0.7414  1.6185  4.3342
  275MOL0     H37939   5.862   5.973   2.734  0.7118 -2.1412  1.7013
  275MOL0     H37940   5.801   6.206   2.757  0.1760 -0.4816 -1.7027
  275MOL0     H37941   5.929   6.176   2.643  0.7997 -0.1837  0.1679
  275MOL0     H37942   5.973   6.254   2.943 -3.9632 -3.7838 -1.5000
  275MOL0     H37943   6.098   6.242   2.819 -0.1398 -2.5428  1.9131
  275MOL0     H37944   6.045   6.471   2.864  0.2343 -2.0206  1.8417
  275MOL0     H37945   5.873   6.460   2.835  0.7356  0.9251  1.5671
  275MOL0     H37946   6.014   6.512   2.449 -2.0009  0.3794  0.4833
  275MOL0     H37947   6.068   5.959   3.106 -0.6363 -0.0373  2.5435
  275MOL0     H37948   6.128   5.654   3.270 -0.8028  0.6353  0.6111
  275MOL0     H37949   6.246   5.738   3.148  0.9862  2.5778  1.1146
  275MOL0     H37950   6.173   5.816   3.285  2.4189  0.8742 -1.0012
  276MOL0     O37951   9.119   0.604   4.623  0.5078  0.7678 -0.5831
  276MOL0     C37952   9.100   0.723   4.647  0.2882 -0.5260  0.2308
  276MOL0     O37953   8.998   0.766   4.725 -0.5592 -0.4570  0.4125
  276MOL0     C37954   8.916   0.669   4.780 -0.0272  0.3297  0.7570
  276MOL0     C37955   8.776   0.677   4.772 -0.1581  0.0602  0.9127
  276MOL0     C37956   8.691   0.582   4.834 -0.6689  0.2670  0.6029
  276MOL0     C37957   8.748   0.478   4.913 -0.3986 -0.4950 -0.3247
  276MOL0     O37958   8.686   0.379   4.983  0.3148  0.2521  0.0136
  276MOL0     C37959   8.549   0.336   4.951 -0.2915 -0.6327 -0.1806
  276MOL0     C37960   8.445   0.380   5.057  0.4215  0.7610  0.3058
  276MOL0     C37961   8.425   0.285   5.167  0.0385  0.1143  0.7792
  276MOL0     C37962   8.555   0.240   5.245  0.3262 -0.1932  0.1528
  276MOL0     C37963   8.519   0.161   5.378 -1.2883 -0.4545 -0.1649
  276MOL0     C37964   8.421   0.048   5.362 -0.2205  0.1497 -0.6135
  276MOL0     C37965   8.385  -0.025   5.493 -0.1362  0.1961 -0.3415
  276MOL0     C37966   8.288  -0.139   5.455 -0.1483  0.5026 -0.3628
  276MOL0     N37967   8.250  -0.217   5.573 -0.0576  0.4737  0.7257
  276MOL0     C37968   8.191  -0.349   5.572 -0.0487  0.2073 -0.2101
  276MOL0     C37969   8.150  -0.369   5.694  0.3887 -0.2890 -0.4873
  276MOL0     C37970   8.108  -0.495   5.772 -0.5362  0.5718 -0.7101
  276MOL0     C37971   7.980  -0.474   5.845 -0.2845  0.0678 -0.5884
  276MOL0     C37972   7.937  -0.597   5.922  0.6485  0.8828 -0.1966
  276MOL0     C37973   8.021  -0.650   6.032  0.3260 -0.7057  0.3251
  276MOL0     O37974   7.946  -0.723   6.126  0.8015 -0.3061 -0.3552
  276MOL0     C37975   7.908  -0.853   6.101  0.7390  0.1067  0.0551
  276MOL0     C37976   7.821  -0.905   6.199 -0.5370  0.6127 -0.7997
  276MOL0     C37977   7.754  -1.035   6.190 -0.2372 -0.4596  0.3798
  276MOL0     C37978   7.670  -1.078   6.301 -0.3541 -0.8120  0.5000
  276MOL0     C37979   7.780  -1.115   6.077  0.2292  0.3747  1.0389
  276MOL0     C37980   7.736  -1.256   6.057  0.4050  0.7972 -1.6061
  276MOL0     O37981   7.678  -1.283   5.944  0.4112  0.0693 -0.4964
  276MOL0     C37982   7.618  -1.405   5.924  0.3010  0.7436 -0.0789
  276MOL0     C37983   7.483  -1.428   5.932 -0.5797 -0.2226 -0.0729
  276MOL0     C37984   7.423  -1.555   5.911  1.4258 -0.3136  0.0763
  276MOL0     C37985   7.492  -1.654   5.844 -0.8495 -0.2179 -0.3934
  276MOL0     O37986   7.448  -1.775   5.798 -0.2663 -0.6754 -0.5745
  276MOL0     C37987   7.304  -1.803   5.823  0.1194 -0.5140 -0.9595
  276MOL0     C37988   7.262  -1.952   5.785 -0.0034  0.0594 -0.2172
  276MOL0     C37989   7.310  -2.017   5.651  0.4729  0.0872 -0.4549
  276MOL0     C37990   7.264  -2.162   5.645  0.7665 -0.2505  0.1055
  276MOL0     C37991   7.296  -2.212   5.508 -0.4872  0.2690  0.0701
  276MOL0     C37992   7.307  -2.362   5.494  0.1971 -0.5572 -0.6101
  276MOL0     C37993   7.394  -2.407   5.372  0.4995  0.7641  0.6616
  276MOL0     C37994   7.355  -2.347   5.239 -0.5818 -0.3856  0.1867
  276MOL0    Cl37995   7.192  -2.373   5.208 -0.0015  0.1161 -0.1687
  276MOL0     C37996   7.628  -1.628   5.827 -0.9508  0.5579 -0.2164
  276MOL0     C37997   7.694  -1.511   5.872 -0.3246  1.5144 -0.2165
  276MOL0     O37998   7.776  -1.340   6.139 -0.3126 -0.4921  0.4287
  276MOL0     C37999   7.866  -1.066   5.979 -0.6242 -0.0709  0.3704
  276MOL0     C38000   7.920  -0.936   5.993 -0.3206  0.0593  0.7716
  276MOL0     N38001   8.168  -0.250   5.765 -0.0266  0.4908  0.2390
  276MOL0     N38002   8.216  -0.164   5.698 -0.3371 -0.2264 -0.1866
  276MOL0     C38003   8.893   0.475   4.913 -0.7434  0.6279  0.0256
  276MOL0     C38004   8.973   0.568   4.854 -0.0265 -0.6681  0.9285
  276MOL0     C38005   9.194   0.822   4.581  1.3200  0.1860 -0.9303
  276MOL0     C38006   9.301   0.774   4.508  0.2152 -0.4419  0.0298
  276MOL0     C38007   9.402   0.856   4.451 -0.1487  0.7115 -0.7663
  276MOL0     C38008   9.383   0.989   4.456  0.3139  0.6192  0.2025
  276MOL0     O38009   9.481   1.060   4.393 -0.0042  0.4380 -0.2747
  276MOL0     C38010   9.445   1.184   4.336  0.8273 -0.5017 -0.3636
  276MOL0     C38011   9.553   1.230   4.241  0.9623  0.4899 -0.9694
  276MOL0     C38012   9.690   1.244   4.312 -0.6923  0.9817 -0.3500
  276MOL0     C38013   9.777   1.118   4.321 -0.0551  0.6200  0.1066
  276MOL0     C38014   9.915   1.158   4.334 -0.6017  0.4921  0.3825
  276MOL0     C38015  10.035   1.184   4.357  0.2545 -0.5199 -0.2744
  276MOL0     C38016   9.277   1.039   4.522  0.8370 -0.3610 -1.3567
  276MOL0     C38017   9.174   0.959   4.580 -0.1189  0.4290  0.5700
  276MOL0     C38018   9.050   1.036   4.644  0.1843 -0.5039 -0.0991
  276MOL0     H38019   8.746   0.767   4.719  3.3152  0.8777  0.1022
  276MOL0     H38020   8.583   0.592   4.839 -0.5361  1.2597  3.6164
  276MOL0     H38021   8.532   0.229   4.934 -3.1223  0.0267 -2.4274
  276MOL0     H38022   8.517   0.384   4.858 -0.2209  2.6953  1.3622
  276MOL0     H38023   8.470   0.481   5.088 -0.7576  1.5643 -1.2119
  276MOL0     H38024   8.352   0.382   4.999 -0.9125  1.1824  2.3681
  276MOL0     H38025   8.357   0.326   5.242  0.4354  2.6627 -0.1599
  276MOL0     H38026   8.377   0.196   5.123 -1.6288  1.8144 -1.0396
  276MOL0     H38027   8.619   0.172   5.189  0.8259 -1.7916  2.5429
  276MOL0     H38028   8.618   0.323   5.281  1.5271 -1.4514  1.0451
  276MOL0     H38029   8.468   0.230   5.445  1.7481  0.3793  1.4945
  276MOL0     H38030   8.612   0.129   5.427 -2.7270 -1.1563  2.3281
  276MOL0     H38031   8.325   0.087   5.326 -0.4474  0.4029  0.2302
  276MOL0     H38032   8.444  -0.028   5.287 -4.0594 -1.7062 -0.1840
  276MOL0     H38033   8.334   0.036   5.568  0.3158  2.6643 -1.9159
  276MOL0     H38034   8.469  -0.076   5.541 -1.8145 -2.6637 -0.2055
  276MOL0     H38035   8.206  -0.093   5.400 -0.7085 -2.7058 -2.4647
  276MOL0     H38036   8.344  -0.195   5.379 -0.5896 -0.5226  0.0549
  276MOL0     H38037   8.200  -0.425   5.495 -0.3737  0.0420 -0.0874
  276MOL0     H38038   8.185  -0.509   5.847  1.3788  0.2855 -2.6300
  276MOL0     H38039   8.105  -0.587   5.713  2.8383 -0.6942  0.8787
  276MOL0     H38040   7.998  -0.397   5.921  1.8193 -1.3863  0.4904
  276MOL0     H38041   7.906  -0.424   5.783 -2.8142  1.8279  3.4169
  276MOL0     H38042   7.841  -0.576   5.969  1.8937 -0.4953  3.2323
  276MOL0     H38043   7.904  -0.671   5.848 -3.9878  3.1199 -0.7423
  276MOL0     H38044   8.088  -0.721   5.982 -0.9723 -0.6446 -1.6001
  276MOL0     H38045   8.079  -0.568   6.076  1.1458 -0.5012 -1.0809
  276MOL0     H38046   7.797  -0.851   6.290  1.8361 -0.2973  0.4481
  276MOL0     H38047   7.586  -1.007   6.304  1.5545  1.5424  1.5804
  276MOL0     H38048   7.719  -1.063   6.398  1.3148 -2.7271  0.0134
  276MOL0     H38049   7.622  -1.176   6.293 -0.6720 -0.4882 -2.9603
  276MOL0     H38050   7.430  -1.337   5.958 -1.9110 -1.0366  0.1619
  276MOL0     H38051   7.315  -1.564   5.921  1.2421  1.3709 -0.1411
  276MOL0     H38052   7.289  -1.798   5.931  3.3934 -1.2620 -0.3565
  276MOL0     H38053   7.237  -1.727   5.781 -0.8778  0.5147  2.2009
  276MOL0     H38054   7.293  -2.025   5.861  1.5918  0.6468 -0.2586
  276MOL0     H38055   7.154  -1.966   5.795 -0.2322 -0.1549 -2.4305
  276MOL0     H38056   7.419  -2.001   5.645  0.0519  3.4285 -1.0928
  276MOL0     H38057   7.266  -1.961   5.568  1.6436  2.4138  0.3920
  276MOL0     H38058   7.156  -2.168   5.662  0.4371  1.3065 -1.2029
  276MOL0     H38059   7.308  -2.229   5.719 -1.3699 -1.7757  0.1080
  276MOL0     H38060   7.235  -2.157   5.436  0.5985  0.7789 -0.4880
  276MOL0     H38061   7.398  -2.179   5.485 -0.0382  1.0366  2.8031
  276MOL0     H38062   7.206  -2.404   5.499 -0.3104  0.5780 -1.1148
  276MOL0     H38063   7.361  -2.400   5.582 -0.6411  0.6444  0.4593
  276MOL0     H38064   7.376  -2.514   5.365 -2.6389  1.2094  0.5761
  276MOL0     H38065   7.499  -2.386   5.395  0.7969  0.4774 -0.3997
  276MOL0     H38066   7.422  -2.386   5.162 -1.9742 -1.6530 -0.4205
  276MOL0     H38067   7.366  -2.238   5.247  0.0325 -0.5233  1.6650
  276MOL0     H38068   7.685  -1.712   5.789  1.5259  2.5341 -1.1991
  276MOL0     H38069   7.802  -1.513   5.862 -0.1008 -4.4575  0.1689
  276MOL0     H38070   7.903  -1.128   5.898 -2.7804  0.0808 -0.8147
  276MOL0     H38071   7.993  -0.900   5.922 -1.5999  1.1994 -0.0136
  276MOL0     H38072   8.942   0.392   4.964 -0.5226 -1.0689 -2.7482
  276MOL0     H38073   9.081   0.558   4.860 -0.0342 -0.8462  0.8122
  276MOL0     H38074   9.315   0.670   4.482  0.0776 -0.0756 -1.6030
  276MOL0     H38075   9.486   0.818   4.394 -1.1033 -1.2737 -0.9639
  276MOL0     H38076   9.351   1.172   4.281 -0.9807  2.4673  1.7594
  276MOL0     H38077   9.421   1.254   4.417 -0.4052 -0.9013 -0.3552
  276MOL0     H38078   9.525   1.326   4.196  3.8920  1.3100 -1.2731
  276MOL0     H38079   9.558   1.158   4.159 -0.8481 -2.6728  1.4318
  276MOL0     H38080   9.744   1.317   4.252  1.0578 -2.5758 -3.5278
  276MOL0     H38081   9.691   1.285   4.414 -1.2211  0.9767 -0.3414
  276MOL0     H38082   9.770   1.059   4.229 -3.0737  0.6046  0.2445
  276MOL0     H38083   9.756   1.065   4.415  2.4360 -0.1232  0.3197
  276MOL0     H38084  10.134   1.217   4.381 -0.4034  1.3081  0.0220
  276MOL0     H38085   9.276   1.146   4.538  4.9828 -0.4451  0.8975
  276MOL0     H38086   8.954   1.015   4.595  1.2974 -2.0273 -1.7305
  276MOL0     H38087   9.034   1.008   4.748  0.3472 -1.2361 -0.2661
  276MOL0     H38088   9.069   1.144   4.637 -0.2771 -0.4505 -0.6748
  277MOL0     O38089  11.147   1.962  10.002  0.0706 -0.2435 -0.0766
  277MOL0     C38090  11.204   1.874   9.938  0.1347  0.2590  0.3480
  277MOL0     O38091  11.250   1.767   9.987 -0.7858  0.1491  0.2882
  277MOL0     C38092  11.238   1.746  10.122  0.2351  0.3127  0.1916
  277MOL0     C38093  11.359   1.738  10.199  0.1729 -0.2335  0.4912
  277MOL0     C38094  11.360   1.726  10.339 -1.0453 -0.4138 -0.2247
  277MOL0     C38095  11.246   1.691  10.408  0.3702 -0.7024 -0.2173
  277MOL0     O38096  11.244   1.674  10.546 -0.4297  0.2941  0.8025
  277MOL0     C38097  11.358   1.600  10.603 -0.7137 -0.0644  1.0052
  277MOL0     C38098  11.329   1.541  10.735  0.0441  0.6613 -0.4389
  277MOL0     C38099  11.257   1.638  10.836 -0.1632  0.2429 -0.4674
  277MOL0     C38100  11.228   1.556  10.969  0.1613  0.5659 -0.7732
  277MOL0     C38101  11.141   1.630  11.071  0.3239  0.4883  0.1694
  277MOL0     C38102  11.126   1.566  11.207 -0.2209  0.2512 -0.0985
  277MOL0     C38103  11.058   1.437  11.189  0.2820 -0.1486  0.6279
  277MOL0     C38104  11.012   1.369  11.317  0.2455 -0.0788 -0.2723
  277MOL0     N38105  10.964   1.459  11.422  0.3886  0.2773  0.3797
  277MOL0     C38106  10.851   1.534  11.409  0.6483 -0.2263 -0.5904
  277MOL0     C38107  10.846   1.613  11.523 -1.0732 -1.0182  0.2735
  277MOL0     C38108  10.750   1.728  11.552  0.3218  0.8744 -0.4247
  277MOL0     C38109  10.794   1.857  11.498  0.3000 -0.2893  0.2532
  277MOL0     C38110  10.679   1.958  11.508  0.2655 -0.7134 -0.1167
  277MOL0     C38111  10.701   2.079  11.426 -0.4139  0.5351 -0.0164
  277MOL0     O38112  10.807   2.149  11.491  1.0463 -0.0286  0.4972
  277MOL0     C38113  10.832   2.265  11.421  1.1799 -1.0322 -0.1943
  277MOL0     C38114  10.805   2.389  11.474  0.6795  0.4405 -0.3762
  277MOL0     C38115  10.841   2.508  11.416  0.3660 -0.3614 -0.1930
  277MOL0     C38116  10.798   2.639  11.480 -0.1913 -0.1756 -0.8630
  277MOL0     C38117  10.904   2.504  11.291  0.1951 -0.1361  0.1566
  277MOL0     C38118  10.985   2.609  11.234  0.2407  0.6233 -0.6303
  277MOL0     O38119  11.040   2.577  11.104 -0.6501 -0.5278 -0.1273
  277MOL0     C38120  11.139   2.656  11.041  0.1973  0.1676 -0.1427
  277MOL0     C38121  11.169   2.795  11.057  0.6124 -0.7596 -0.0688
  277MOL0     C38122  11.277   2.856  10.993  1.0981 -0.4798 -0.9599
  277MOL0     C38123  11.364   2.779  10.916  0.2934 -0.4376  0.7043
  277MOL0     O38124  11.473   2.841  10.852  0.0354  0.5351 -0.1195
  277MOL0     C38125  11.529   2.963  10.913  0.1933  0.4210 -0.2236
  277MOL0     C38126  11.659   2.997  10.842 -0.5261 -0.5044 -0.8532
  277MOL0     C38127  11.647   3.028  10.695 -0.9968  1.1845 -0.1718
  277MOL0     C38128  11.584   3.167  10.664 -0.5499  1.0002  0.6003
  277MOL0     C38129  11.614   3.216  10.530 -0.7208 -0.2626  0.2450
  277MOL0     C38130  11.551   3.142  10.416  0.5229  0.5239  0.3765
  277MOL0     C38131  11.580   3.211  10.291  0.5324 -0.3502 -1.0340
  277MOL0     C38132  11.514   3.160  10.173  0.0921 -0.0393  0.4904
  277MOL0    Cl38133  11.632   3.156  10.046 -0.6407  0.7735  0.1708
  277MOL0     C38134  11.326   2.647  10.879  0.0515 -0.4435 -0.0469
  277MOL0     C38135  11.221   2.589  10.955 -0.9909 -0.1489 -0.3320
  277MOL0     O38136  11.012   2.707  11.301  0.5763  0.2338 -1.2165
  277MOL0     C38137  10.909   2.380  11.217 -0.4954 -0.7305 -0.7666
  277MOL0     C38138  10.877   2.263  11.290 -0.3420 -0.0690 -0.2684
  277MOL0     N38139  10.953   1.577  11.602 -0.3450  0.3476  0.0534
  277MOL0     N38140  11.028   1.492  11.531  0.1715  0.4780  0.0069
  277MOL0     C38141  11.129   1.693  10.328  0.0617  0.5366  0.7409
  277MOL0     C38142  11.127   1.713  10.186  0.1057  0.3928 -0.4107
  277MOL0     C38143  11.229   1.895   9.790  0.0236 -0.1162 -0.6161
  277MOL0     C38144  11.334   1.824   9.731  0.2047 -1.0410  0.6711
  277MOL0     C38145  11.358   1.828   9.598 -0.5232  0.0117  0.1237
  277MOL0     C38146  11.278   1.899   9.501  0.2555 -0.7631 -0.3004
  277MOL0     O38147  11.297   1.906   9.367 -0.2513 -0.2343  0.9890
  277MOL0     C38148  11.391   1.817   9.302  0.0379 -0.7042 -0.3180
  277MOL0     C38149  11.350   1.666   9.297  0.3246 -0.2527 -0.2171
  277MOL0     C38150  11.211   1.647   9.237 -0.3461 -0.1180 -0.3060
  277MOL0     C38151  11.213   1.665   9.090  0.2366  0.8040  0.3043
  277MOL0     C38152  11.094   1.596   9.047 -0.8006  0.1983  0.1749
  277MOL0     C38153  11.010   1.523   9.008 -0.1497 -0.9381 -0.3494
  277MOL0     C38154  11.166   1.963   9.561  0.1313  0.8126  0.4079
  277MOL0     C38155  11.140   1.957   9.700  0.7942 -0.7496  0.4270
  277MOL0     C38156  11.011   2.020   9.742 -0.2251 -0.2601  0.7782
  277MOL0     H38157  11.454   1.757  10.152  0.2397  0.7761  1.0068
  277MOL0     H38158  11.454   1.736  10.391 -0.9740 -1.9422 -0.0291
  277MOL0     H38159  11.444   1.667  10.609 -0.3695  0.3789 -4.1189
  277MOL0     H38160  11.385   1.515  10.539  3.4473  1.1564  0.8772
  277MOL0     H38161  11.271   1.449  10.723  1.8608 -0.7910  1.1880
  277MOL0     H38162  11.426   1.516  10.779  0.6643  0.2564 -1.9761
  277MOL0     H38163  11.333   1.711  10.864  1.3016 -1.1753 -0.6222
  277MOL0     H38164  11.166   1.680  10.792  0.4417  1.5966 -0.4646
  277MOL0     H38165  11.178   1.463  10.943  2.3127 -0.5448 -1.1398
  277MOL0     H38166  11.329   1.528  11.002  0.2650  1.2499 -0.4986
  277MOL0     H38167  11.040   1.644  11.034  0.0805 -1.4265  0.0136
  277MOL0     H38168  11.181   1.730  11.092 -1.6398  1.7956 -1.9141
  277MOL0     H38169  11.228   1.545  11.242  0.0694 -2.1584 -2.1220
  277MOL0     H38170  11.085   1.641  11.275 -2.2234  0.9194 -1.9132
  277MOL0     H38171  11.127   1.372  11.133  0.5823  1.3632 -0.8093
  277MOL0     H38172  10.966   1.458  11.134  0.1212 -3.3649 -0.5409
  277MOL0     H38173  10.938   1.292  11.298  0.0736 -0.3240  1.2757
  277MOL0     H38174  11.101   1.310  11.342 -0.6277 -2.3213 -2.1981
  277MOL0     H38175  10.789   1.537  11.320  2.2999  0.5081 -1.7742
  277MOL0     H38176  10.745   1.742  11.660  1.7531  0.9271 -0.3407
  277MOL0     H38177  10.654   1.696  11.512  0.7997 -1.7502  0.3492
  277MOL0     H38178  10.881   1.900  11.548  0.4423 -1.3140  0.9187
  277MOL0     H38179  10.814   1.851  11.391 -0.1884 -0.3036  0.1614
  277MOL0     H38180  10.583   1.918  11.475  0.9350 -1.6769 -0.9736
  277MOL0     H38181  10.661   1.979  11.614 -1.9355  0.8637 -0.7199
  277MOL0     H38182  10.729   2.043  11.326 -1.8868 -0.2221 -0.1930
  277MOL0     H38183  10.607   2.135  11.429 -1.4712 -1.1827  2.5548
  277MOL0     H38184  10.766   2.397  11.575 -0.2902 -0.8714 -0.6210
  277MOL0     H38185  10.708   2.641  11.543 -1.5553 -3.6331 -2.4486
  277MOL0     H38186  10.784   2.716  11.404  1.2623 -0.7064 -1.6975
  277MOL0     H38187  10.881   2.668  11.545 -0.3601  0.0947 -0.7630
  277MOL0     H38188  11.100   2.847  11.122  1.0564 -2.2886  1.7214
  277MOL0     H38189  11.286   2.962  11.018  0.3145 -0.7675  0.6672
  277MOL0     H38190  11.458   3.045  10.922  0.2573  0.5570 -0.9039
  277MOL0     H38191  11.557   2.930  11.013 -1.5304 -2.1095 -0.4945
  277MOL0     H38192  11.717   3.069  10.900  0.4561 -4.0248  3.0614
  277MOL0     H38193  11.726   2.910  10.841 -1.6853 -1.4633  0.5438
  277MOL0     H38194  11.575   2.962  10.646  1.0974 -0.5353 -1.0775
  277MOL0     H38195  11.744   3.005  10.650 -0.7987  0.3935  0.6413
  277MOL0     H38196  11.619   3.248  10.729 -0.7792  2.7177 -1.3358
  277MOL0     H38197  11.478   3.141  10.677 -0.6944  2.0323  1.7358
  277MOL0     H38198  11.578   3.319  10.520  0.5174  0.1553 -0.1523
  277MOL0     H38199  11.720   3.216  10.502 -0.8603 -1.6001 -0.3270
  277MOL0     H38200  11.443   3.138  10.432  0.2680 -2.7127 -1.2707
  277MOL0     H38201  11.596   3.042  10.417 -1.0997 -0.3130 -2.0593
  277MOL0     H38202  11.687   3.225  10.276  0.4077  1.9818 -0.1258
  277MOL0     H38203  11.542   3.312  10.305  0.4460 -0.5231  0.0745
  277MOL0     H38204  11.418   3.208  10.147  0.0990  0.1607  0.8160
  277MOL0     H38205  11.482   3.060  10.203 -2.0901  0.1939 -0.7972
  277MOL0     H38206  11.377   2.597  10.797  2.1174 -0.1735  1.0225
  277MOL0     H38207  11.190   2.487  10.935 -3.5313  0.6269 -0.6916
  277MOL0     H38208  10.955   2.366  11.119 -2.0591 -0.5561 -1.5523
  277MOL0     H38209  10.884   2.166  11.240 -0.0849 -0.0925 -0.1881
  277MOL0     H38210  11.036   1.671  10.381 -0.9912 -0.1096 -1.2903
  277MOL0     H38211  11.039   1.697  10.126 -0.1992 -0.5505  0.2734
  277MOL0     H38212  11.378   1.747   9.793  0.7739 -1.3799 -0.1363
  277MOL0     H38213  11.447   1.779   9.559  1.1711  1.8457  1.4619
  277MOL0     H38214  11.406   1.858   9.202  1.1848  1.0275  0.5253
  277MOL0     H38215  11.493   1.824   9.342  0.0457 -2.9123  0.1960
  277MOL0     H38216  11.358   1.635   9.402  0.4768  2.9397  0.7978
  277MOL0     H38217  11.423   1.608   9.239  0.3857  1.9659 -2.5260
  277MOL0     H38218  11.179   1.544   9.259 -0.1892 -0.0687  0.1716
  277MOL0     H38219  11.150   1.718   9.294  1.0391  1.9105 -1.2422
  277MOL0     H38220  11.302   1.612   9.054  0.8211  0.1068  2.6020
  277MOL0     H38221  11.223   1.772   9.068 -1.3894  0.3656 -3.0595
  277MOL0     H38222  10.944   1.441   8.988 -0.4890 -0.8523  0.4078
  277MOL0     H38223  11.102   2.026   9.500 -0.7110 -0.7661 -0.4249
  277MOL0     H38224  10.965   2.084   9.666 -1.7440  3.4792  4.4377
  277MOL0     H38225  10.938   1.942   9.769  0.8892 -1.1135  1.3851
  277MOL0     H38226  11.022   2.092   9.823  0.5971 -0.1337  0.5615
  278MOL0     O38227   1.614   6.000   8.553  0.1579 -0.6496  0.3501
  278MOL0     C38228   1.510   5.992   8.498  0.2422 -0.1130 -0.3437
  278MOL0     O38229   1.400   6.067   8.518  0.2004 -1.1409 -0.2569
  278MOL0     C38230   1.408   6.181   8.601  0.1828 -0.1014 -0.7614
  278MOL0     C38231   1.501   6.282   8.576  0.0402 -0.2963 -0.2743
  278MOL0     C38232   1.500   6.406   8.644  0.4503  0.0459  0.7617
  278MOL0     C38233   1.390   6.426   8.726 -0.7665 -0.4973 -1.1512
  278MOL0     O38234   1.397   6.553   8.781 -1.1555 -0.4892 -0.2216
  278MOL0     C38235   1.310   6.587   8.886  0.6776 -0.0311 -0.7388
  278MOL0     C38236   1.326   6.529   9.022  0.3350  0.0314 -0.6873
  278MOL0     C38237   1.244   6.595   9.134 -0.3979  0.1812 -0.4220
  278MOL0     C38238   1.102   6.555   9.149  0.4109  1.0083  0.5257
  278MOL0     C38239   1.032   6.580   9.286  0.4503  0.4017 -0.4098
  278MOL0     C38240   0.880   6.545   9.291  0.4230  1.0453  0.1149
  278MOL0     C38241   0.844   6.394   9.240  0.2414 -1.0164 -0.5201
  278MOL0     C38242   0.692   6.361   9.247 -0.7192 -0.4156  0.1846
  278MOL0     N38243   0.656   6.249   9.156  0.2153  0.0826  0.0670
  278MOL0     C38244   0.537   6.181   9.191 -1.3667 -0.1945  0.2534
  278MOL0     C38245   0.541   6.069   9.123  0.3760  0.1919  0.0008
  278MOL0     C38246   0.435   5.965   9.129  0.7729 -0.5686  0.2647
  278MOL0     C38247   0.302   6.038   9.090 -0.6000  0.4068 -0.2591
  278MOL0     C38248   0.185   5.943   9.062 -0.9327  0.1363 -0.0115
  278MOL0     C38249   0.043   5.994   9.088 -0.3612  0.3878 -0.3007
  278MOL0     O38250   0.034   6.031   9.230  0.1382 -0.2657  0.1875
  278MOL0     C38251  -0.094   6.059   9.277  0.2141  0.5382 -0.9327
  278MOL0     C38252  -0.105   6.073   9.413 -0.4783  0.4338  0.4015
  278MOL0     C38253  -0.229   6.093   9.485  1.0350  0.0230  0.6570
  278MOL0     C38254  -0.227   6.113   9.639 -1.3713 -0.1525 -0.2833
  278MOL0     C38255  -0.344   6.121   9.405 -0.3072  0.4542 -0.3615
  278MOL0     C38256  -0.488   6.142   9.456  0.1885 -0.3476 -0.5244
  278MOL0     O38257  -0.592   6.164   9.371 -0.1006 -0.8452 -0.7091
  278MOL0     C38258  -0.721   6.171   9.419  0.5612  0.0221 -0.2675
  278MOL0     C38259  -0.771   6.069   9.505 -0.9870  0.8722 -0.0188
  278MOL0     C38260  -0.900   6.066   9.564 -0.5055  0.7155  0.3814
  278MOL0     C38261  -0.982   6.182   9.539 -0.1999  1.1280 -0.8774
  278MOL0     O38262  -1.106   6.192   9.591 -0.3561 -0.0070 -0.5280
  278MOL0     C38263  -1.132   6.115   9.708 -0.6275 -0.0569  0.4724
  278MOL0     C38264  -1.254   6.169   9.790  0.2826 -0.1659  0.5218
  278MOL0     C38265  -1.382   6.202   9.713  0.7491 -0.2272 -0.1837
  278MOL0     C38266  -1.483   6.284   9.798 -0.6703 -0.0160  0.8796
  278MOL0     C38267  -1.590   6.350   9.711  0.6577  0.1892  0.2080
  278MOL0     C38268  -1.541   6.478   9.638 -0.1921  0.5508 -0.0446
  278MOL0     C38269  -1.565   6.611   9.717  0.3609  0.5172 -0.0257
  278MOL0     C38270  -1.550   6.724   9.615 -0.3541  0.2287  0.0755
  278MOL0    Cl38271  -1.549   6.894   9.690  0.4403 -0.3202 -0.2134
  278MOL0     C38272  -0.939   6.277   9.452  0.1281  0.1968  0.0468
  278MOL0     C38273  -0.811   6.275   9.399  0.1835 -0.4230  1.0700
  278MOL0     O38274  -0.505   6.134   9.576  0.2106  0.0541 -0.7368
  278MOL0     C38275  -0.329   6.120   9.260 -0.0041  0.7003 -0.4384
  278MOL0     C38276  -0.206   6.086   9.203 -0.1928  0.4044 -0.3398
  278MOL0     N38277   0.660   6.067   9.052  0.1160  0.1731 -0.1863
  278MOL0     N38278   0.726   6.166   9.077  0.1201 -1.0627 -0.1709
  278MOL0     C38279   1.291   6.331   8.747  0.8901 -0.5965  0.1435
  278MOL0     C38280   1.303   6.210   8.675 -0.1183 -0.8451 -0.1491
  278MOL0     C38281   1.479   5.883   8.400  0.0008 -0.2702 -0.3664
  278MOL0     C38282   1.343   5.852   8.371 -0.1000 -0.0912  0.5819
  278MOL0     C38283   1.303   5.752   8.280 -0.3528  0.1797 -0.1533
  278MOL0     C38284   1.397   5.670   8.210  0.2301  0.4134 -0.2803
  278MOL0     O38285   1.340   5.562   8.135  0.2564 -0.3718 -0.1571
  278MOL0     C38286   1.427   5.456   8.072  0.2598 -0.1398  0.3913
  278MOL0     C38287   1.421   5.338   8.162  0.3113  0.2286  0.4642
  278MOL0     C38288   1.532   5.340   8.263  0.4621 -0.1959 -0.4436
  278MOL0     C38289   1.550   5.219   8.354 -0.1770  1.3680 -0.6529
  278MOL0     C38290   1.568   5.091   8.278  0.0469  0.6055 -0.2275
  278MOL0     C38291   1.584   4.990   8.207 -0.2810  0.2299  0.2727
  278MOL0     C38292   1.534   5.702   8.233  0.5487 -0.0535 -0.4273
  278MOL0     C38293   1.578   5.802   8.320  0.6662 -1.1363  0.1576
  278MOL0     C38294   1.726   5.810   8.334 -0.3537  0.6430 -0.2904
  278MOL0     H38295   1.578   6.270   8.500  0.3088 -1.5871  0.1802
  278MOL0     H38296   1.562   6.492   8.625  0.1209  0.6974  2.4350
  278MOL0     H38297   1.209   6.563   8.851  1.0130  0.3110 -1.9940
  278MOL0     H38298   1.330   6.694   8.893  2.2328 -0.3296 -0.3205
  278MOL0     H38299   1.316   6.420   9.015 -1.1615  0.1879 -1.3524
  278MOL0     H38300   1.432   6.549   9.040  0.2118  2.1514 -2.0978
  278MOL0     H38301   1.292   6.562   9.227  1.1644 -0.1565 -1.3164
  278MOL0     H38302   1.255   6.704   9.127  4.0021 -0.0928 -0.2766
  278MOL0     H38303   1.056   6.605   9.063  3.5996  0.7897 -1.5066
  278MOL0     H38304   1.095   6.448   9.131  0.1397  0.6473  2.5735
  278MOL0     H38305   1.040   6.683   9.322  0.4845  1.6065 -3.5446
  278MOL0     H38306   1.073   6.507   9.356  1.4496 -0.2900 -1.6640
  278MOL0     H38307   0.851   6.564   9.395 -0.5083 -0.7513  0.2220
  278MOL0     H38308   0.819   6.605   9.224 -2.9890 -2.8455 -0.6349
  278MOL0     H38309   0.909   6.319   9.286  1.5498 -0.3124 -1.1693
  278MOL0     H38310   0.873   6.389   9.135  1.5058 -2.2441 -0.1403
  278MOL0     H38311   0.661   6.345   9.351  0.9199 -2.2187  0.4466
  278MOL0     H38312   0.637   6.447   9.209  2.1021  1.9966  1.1768
  278MOL0     H38313   0.459   6.223   9.255 -2.4321  2.2083 -2.3771
  278MOL0     H38314   0.424   5.905   9.220  2.0582 -0.2252  0.6684
  278MOL0     H38315   0.455   5.882   9.061 -1.2407 -0.4694 -0.5045
  278MOL0     H38316   0.276   6.097   9.179  1.4283  1.4223 -0.2818
  278MOL0     H38317   0.308   6.119   9.016 -1.4152  1.8183  1.1414
  278MOL0     H38318   0.191   5.903   8.960  2.8969 -0.7692  0.4014
  278MOL0     H38319   0.203   5.855   9.126 -0.9267  0.6190  0.6587
  278MOL0     H38320   0.037   6.070   9.010 -1.4527 -1.2076 -1.8421
  278MOL0     H38321  -0.031   5.916   9.069  0.7113 -0.4733 -1.0997
  278MOL0     H38322  -0.013   6.077   9.470  0.9117 -2.3676 -1.4369
  278MOL0     H38323  -0.302   6.047   9.683 -0.9987 -1.4225 -1.4723
  278MOL0     H38324  -0.245   6.219   9.659  0.5469 -0.1701  1.8956
  278MOL0     H38325  -0.122   6.098   9.665 -0.7301  1.4864 -1.7465
  278MOL0     H38326  -0.699   5.989   9.512 -0.6045  1.2775  0.8459
  278MOL0     H38327  -0.917   5.972   9.616 -1.0947  0.1824 -0.7655
  278MOL0     H38328  -1.134   6.012   9.670 -2.4231  0.2460 -0.3429
  278MOL0     H38329  -1.042   6.113   9.771 -0.4363  0.9523  0.2416
  278MOL0     H38330  -1.279   6.109   9.878 -0.3179  1.3641  1.4352
  278MOL0     H38331  -1.213   6.267   9.818 -1.5058  1.3066 -1.6406
  278MOL0     H38332  -1.438   6.110   9.692 -2.6749  1.3077  1.4199
  278MOL0     H38333  -1.362   6.253   9.618 -3.1110 -0.3963 -1.2822
  278MOL0     H38334  -1.432   6.369   9.844  0.0417  1.6582 -2.6309
  278MOL0     H38335  -1.541   6.226   9.870 -1.0048 -0.2679  0.4104
  278MOL0     H38336  -1.630   6.276   9.641  2.5462  2.2444 -3.3962
  278MOL0     H38337  -1.674   6.375   9.776  0.7847  0.1261  0.3985
  278MOL0     H38338  -1.608   6.483   9.552  0.8647 -1.4471 -1.0658
  278MOL0     H38339  -1.440   6.472   9.596 -0.9330  3.7648 -2.7138
  278MOL0     H38340  -1.495   6.631   9.800  4.3813 -1.6917 -2.5336
  278MOL0     H38341  -1.670   6.632   9.735  0.6164  1.4647  0.4273
  278MOL0     H38342  -1.608   6.706   9.524  0.9125 -1.2263 -0.4841
  278MOL0     H38343  -1.449   6.722   9.572 -0.8684  1.6671 -1.3009
  278MOL0     H38344  -1.009   6.357   9.431 -0.0269  0.5503  1.7099
  278MOL0     H38345  -0.789   6.364   9.341  2.7414 -1.4194  0.3758
  278MOL0     H38346  -0.411   6.146   9.194 -1.2993  2.3119  1.7037
  278MOL0     H38347  -0.191   6.091   9.096  1.2834  1.8329 -0.1077
  278MOL0     H38348   1.203   6.352   8.807  0.7520 -1.9978  0.4865
  278MOL0     H38349   1.231   6.129   8.682 -0.1881 -1.1275 -3.0093
  278MOL0     H38350   1.262   5.903   8.421  0.7705  1.4211  0.5348
  278MOL0     H38351   1.197   5.742   8.261 -0.5964  2.6896 -0.4168
  278MOL0     H38352   1.380   5.427   7.977  2.0027  3.7807 -1.9294
  278MOL0     H38353   1.530   5.488   8.056 -0.4055  1.6834 -0.4881
  278MOL0     H38354   1.425   5.250   8.097 -2.7057  0.1794  0.2179
  278MOL0     H38355   1.320   5.334   8.205 -0.4989  1.6580 -1.1599
  278MOL0     H38356   1.626   5.365   8.212 -0.0675  0.0671 -1.3174
  278MOL0     H38357   1.518   5.417   8.339  0.2157 -3.2692  2.8665
  278MOL0     H38358   1.456   5.218   8.408  0.3679 -1.0219  0.3912
  278MOL0     H38359   1.626   5.230   8.432 -0.6744  1.4787 -0.1790
  278MOL0     H38360   1.607   4.900   8.152  2.9082  0.3254  1.2537
  278MOL0     H38361   1.611   5.634   8.196 -0.6253  0.6557 -4.7656
  278MOL0     H38362   1.771   5.711   8.328  0.2336  0.4067  4.2709
  278MOL0     H38363   1.779   5.855   8.250  0.4646  1.5200  0.6822
  278MOL0     H38364   1.763   5.864   8.422  1.2723 -1.0157  0.0852
  279MOL0     O38365  11.210   3.445   9.538 -0.2788  0.7159 -0.9497
  279MOL0     C38366  11.140   3.379   9.606 -0.2875  0.2172  0.0796
  279MOL0     O38367  11.166   3.342   9.740  0.8872  0.6025  0.4602
  279MOL0     C38368  11.255   3.396   9.828 -0.3352 -0.0275 -0.1286
  279MOL0     C38369  11.241   3.364   9.965  0.5939 -0.8075  0.4432
  279MOL0     C38370  11.321   3.422  10.062  0.0962  0.8278 -1.1550
  279MOL0     C38371  11.421   3.517  10.028 -0.3757  0.5131  0.0595
  279MOL0     O38372  11.504   3.569  10.132  0.0858 -0.4706 -0.0939
  279MOL0     C38373  11.614   3.665  10.104  0.3655  0.5746  0.0397
  279MOL0     C38374  11.666   3.706  10.236 -0.6358 -0.0834  1.1780
  279MOL0     C38375  11.773   3.623  10.295  0.0607  0.1545  0.6518
  279MOL0     C38376  11.916   3.651  10.236 -0.5495 -0.2672  0.1519
  279MOL0     C38377  12.032   3.592  10.313 -0.4232  0.2693 -0.3546
  279MOL0     C38378  12.019   3.447  10.338  0.1067 -0.0077 -0.1580
  279MOL0     C38379  12.132   3.400  10.408  1.5921  0.1808  1.1487
  279MOL0     C38380  12.123   3.245  10.432 -0.1710 -0.4140 -0.8967
  279MOL0     N38381  12.244   3.208  10.508  0.4757  0.3867  0.3808
  279MOL0     C38382  12.237   3.169  10.638 -0.0130  0.0749 -0.7703
  279MOL0     C38383  12.366   3.148  10.665 -0.2556 -0.3245 -0.1623
  279MOL0     C38384  12.414   3.124  10.807  0.8143  0.5122  0.5187
  279MOL0     C38385  12.340   3.006  10.889  0.9576  0.0842  0.8197
  279MOL0     C38386  12.407   2.990  11.017 -0.2913 -0.0566  0.8998
  279MOL0     C38387  12.544   2.922  11.005 -0.8229 -0.6062 -0.2019
  279MOL0     O38388  12.573   2.843  11.120  0.8595 -0.4522  0.1655
  279MOL0     C38389  12.518   2.715  11.123  0.1369  0.4623  0.5005
  279MOL0     C38390  12.552   2.648  11.238  0.5048 -0.1675  1.0725
  279MOL0     C38391  12.487   2.532  11.276  0.1462 -0.0867  0.3897
  279MOL0     C38392  12.543   2.454  11.400 -0.1890  0.9354 -0.1001
  279MOL0     C38393  12.375   2.489  11.198  0.9401 -0.0798  0.5475
  279MOL0     C38394  12.285   2.369  11.230  0.0509 -0.7262 -0.0731
  279MOL0     O38395  12.177   2.348  11.143 -0.0545 -0.2968  0.1943
  279MOL0     C38396  12.098   2.244  11.172 -0.0309 -0.7223 -0.8156
  279MOL0     C38397  12.006   2.238  11.281 -1.0017 -0.0874  0.0360
  279MOL0     C38398  11.945   2.119  11.314  0.1307 -0.9817 -0.2062
  279MOL0     C38399  11.971   2.001  11.241  0.4975 -0.3368 -0.3076
  279MOL0     O38400  11.916   1.887  11.273 -0.3013 -0.0398  0.4709
  279MOL0     C38401  11.801   1.861  11.193 -1.0836 -0.3187 -0.6074
  279MOL0     C38402  11.747   1.712  11.190 -0.0434 -0.1471 -0.2395
  279MOL0     C38403  11.727   1.656  11.327  0.0662  0.5966  0.2484
  279MOL0     C38404  11.624   1.545  11.314  0.8333  0.6512  0.5134
  279MOL0     C38405  11.556   1.498  11.450 -0.1311 -0.8556  0.3696
  279MOL0     C38406  11.444   1.392  11.424 -0.1970 -0.8771  0.2049
  279MOL0     C38407  11.395   1.326  11.562  0.2512 -0.4777 -0.1014
  279MOL0     C38408  11.323   1.197  11.529  0.7682  0.4282 -0.3057
  279MOL0    Cl38409  11.187   1.165  11.643  0.5834  0.1612 -0.0433
  279MOL0     C38410  12.062   2.005  11.133 -0.3977  0.7032 -0.4853
  279MOL0     C38411  12.123   2.126  11.097  0.5677 -0.5851 -0.4290
  279MOL0     O38412  12.319   2.299  11.328  0.4504  0.4121 -0.2605
  279MOL0     C38413  12.343   2.563  11.077 -0.1133  0.7528 -0.6155
  279MOL0     C38414  12.409   2.670  11.046 -0.5728 -0.2071  0.0802
  279MOL0     N38415  12.441   3.147  10.552  0.3829 -0.0188  0.3677
  279MOL0     N38416  12.365   3.195  10.465  0.2622 -0.2166  0.4845
  279MOL0     C38417  11.439   3.545   9.895 -0.6616  0.2077  0.3751
  279MOL0     C38418  11.361   3.481   9.789 -0.5366  0.2696  0.1681
  279MOL0     C38419  11.004   3.343   9.542  0.2725 -0.3915 -0.6442
  279MOL0     C38420  10.896   3.333   9.631  0.0838 -0.1279  0.6894
  279MOL0     C38421  10.767   3.311   9.592 -0.9393 -0.0382  0.1158
  279MOL0     C38422  10.732   3.304   9.455  0.0135 -0.4664 -0.6189
  279MOL0     O38423  10.602   3.297   9.418  0.2981 -0.2772  0.0361
  279MOL0     C38424  10.561   3.215   9.305  0.5085 -0.2811  0.1280
  279MOL0     C38425  10.407   3.209   9.310  0.7191  0.1992 -0.2538
  279MOL0     C38426  10.362   3.113   9.424  0.6812 -1.0933 -0.4366
  279MOL0     C38427  10.213   3.119   9.446 -0.3086  0.2489 -0.0271
  279MOL0     C38428  10.138   3.117   9.322  0.7676 -0.7587 -0.0145
  279MOL0     C38429  10.080   3.100   9.221  1.2621  0.1136  1.2980
  279MOL0     C38430  10.839   3.315   9.359 -0.4511 -0.4739  0.7933
  279MOL0     C38431  10.981   3.326   9.404 -0.6453  0.2958  0.4205
  279MOL0     C38432  11.089   3.329   9.291 -0.6886  0.3325 -0.4465
  279MOL0     H38433  11.165   3.298  10.005  1.3075 -1.6419  0.4396
  279MOL0     H38434  11.304   3.398  10.166 -3.5641 -3.4035 -2.4077
  279MOL0     H38435  11.585   3.760  10.058 -3.0641  0.6729  2.0070
  279MOL0     H38436  11.689   3.629  10.034 -0.4926 -1.1470 -0.0385
  279MOL0     H38437  11.700   3.807  10.214  0.9566 -1.4122 -3.6514
  279MOL0     H38438  11.581   3.713  10.304 -1.2814 -1.9747  0.6307
  279MOL0     H38439  11.774   3.633  10.404 -3.6561  0.2472  0.7893
  279MOL0     H38440  11.751   3.518  10.271 -0.1685 -0.3548  2.8690
  279MOL0     H38441  11.928   3.626  10.130 -0.3669  1.5355 -0.2823
  279MOL0     H38442  11.942   3.757  10.239  0.8428 -0.5997  0.3077
  279MOL0     H38443  12.045   3.657  10.400  0.4400  3.1070 -2.4597
  279MOL0     H38444  12.124   3.604  10.256 -0.4142  2.0275 -0.0291
  279MOL0     H38445  11.932   3.432  10.403  0.8483 -1.1352  0.6126
  279MOL0     H38446  12.007   3.387  10.247 -4.2946  2.8149 -1.7595
  279MOL0     H38447  12.146   3.451  10.504  0.1677 -1.0283  2.0390
  279MOL0     H38448  12.225   3.418  10.353  0.2794 -0.6548 -1.4819
  279MOL0     H38449  12.035   3.223  10.493 -0.2264  1.7608 -0.1257
  279MOL0     H38450  12.126   3.201  10.332  0.7146  1.9400 -1.9478
  279MOL0     H38451  12.149   3.175  10.701  0.6579  2.4279  0.0593
  279MOL0     H38452  12.386   3.209  10.869 -2.1072  0.2699 -0.3202
  279MOL0     H38453  12.523   3.119  10.799  1.0488  4.5416 -0.9444
  279MOL0     H38454  12.233   3.027  10.906  1.0125  0.3503  0.8386
  279MOL0     H38455  12.348   2.913  10.831 -2.3154  0.5581 -0.6445
  279MOL0     H38456  12.426   3.084  11.069  3.6105 -0.1122 -0.0944
  279MOL0     H38457  12.336   2.940  11.085 -1.0173  0.7945  0.7890
  279MOL0     H38458  12.551   2.858  10.917 -0.6560  0.4435 -0.9784
  279MOL0     H38459  12.619   3.002  11.010 -0.0511 -1.2199 -1.4729
  279MOL0     H38460  12.639   2.675  11.298 -0.9695 -0.3371  3.3934
  279MOL0     H38461  12.632   2.504  11.441  2.8890 -2.8297 -1.6210
  279MOL0     H38462  12.575   2.353  11.372  2.6288  0.8469  2.7965
  279MOL0     H38463  12.468   2.439  11.478  3.6489 -0.7881  3.6667
  279MOL0     H38464  11.978   2.323  11.343  0.1016  0.1042  0.2889
  279MOL0     H38465  11.894   2.111  11.410  2.2347  1.4469  1.2564
  279MOL0     H38466  11.720   1.925  11.229  0.1542  1.0872 -0.2208
  279MOL0     H38467  11.825   1.876  11.088 -0.1885 -0.1502 -0.3883
  279MOL0     H38468  11.655   1.706  11.131 -0.8324 -2.8201  1.0974
  279MOL0     H38469  11.824   1.652  11.141  2.0732  0.4496  2.1325
  279MOL0     H38470  11.705   1.729  11.405 -1.1512 -2.5388  3.1365
  279MOL0     H38471  11.818   1.605  11.360  0.1908  1.2393  0.9328
  279MOL0     H38472  11.661   1.458  11.258 -2.4766  0.8195 -2.3274
  279MOL0     H38473  11.540   1.581  11.253  1.1176 -2.3349 -1.9178
  279MOL0     H38474  11.631   1.445  11.511  0.0871 -2.2952 -1.0807
  279MOL0     H38475  11.500   1.576  11.501 -3.3447 -2.4513 -0.4557
  279MOL0     H38476  11.471   1.317  11.349 -2.5892 -0.2505 -1.4106
  279MOL0     H38477  11.357   1.448  11.386 -0.9846 -1.1997  1.4757
  279MOL0     H38478  11.331   1.398  11.614  2.8957  0.9713  1.3014
  279MOL0     H38479  11.466   1.312  11.643  1.6660  3.5071 -0.4499
  279MOL0     H38480  11.395   1.115  11.533  3.0799  2.2027 -2.4885
  279MOL0     H38481  11.290   1.199  11.424 -0.0268 -2.2090 -0.1989
  279MOL0     H38482  12.086   1.906  11.095  0.2060  0.0776  1.3956
  279MOL0     H38483  12.193   2.125  11.013  1.1605 -0.0362  0.0489
  279MOL0     H38484  12.273   2.511  11.012  1.2952  0.2286 -1.7651
  279MOL0     H38485  12.385   2.723  10.954  2.5738 -0.5639 -1.0665
  279MOL0     H38486  11.515   3.621   9.881 -1.3457  1.0203  1.0011
  279MOL0     H38487  11.382   3.506   9.685  2.5704 -0.1171  0.5878
  279MOL0     H38488  10.909   3.329   9.738  1.7784 -2.8374  0.4748
  279MOL0     H38489  10.701   3.287   9.675 -0.2606 -3.4607 -0.1899
  279MOL0     H38490  10.591   3.267   9.214 -0.3454 -3.5816 -2.2065
  279MOL0     H38491  10.604   3.114   9.309 -0.2297 -0.5871  0.5200
  279MOL0     H38492  10.358   3.173   9.219 -1.1845  2.7313 -0.3288
  279MOL0     H38493  10.354   3.303   9.329  2.3881  1.1640 -0.2330
  279MOL0     H38494  10.411   3.017   9.404  2.3375 -0.9613  2.5086
  279MOL0     H38495  10.416   3.137   9.516  1.5631 -0.4793 -1.0933
  279MOL0     H38496  10.176   3.209   9.495 -3.9511 -1.5470  0.8931
  279MOL0     H38497  10.195   3.030   9.507 -0.7681 -1.0892 -1.9955
  279MOL0     H38498  10.021   3.079   9.135 -0.2866  1.2184  2.0603
  279MOL0     H38499  10.821   3.316   9.252 -0.0803 -3.7710  0.5923
  279MOL0     H38500  11.063   3.266   9.206  0.2664  0.6048 -0.9511
  279MOL0     H38501  11.099   3.431   9.254  1.6160  0.4651  0.3902
  279MOL0     H38502  11.189   3.300   9.326 -1.2552 -0.4422  0.5859
  280MOL0     O38503   1.106   5.257   8.542 -0.8222  0.7348  0.8345
  280MOL0     C38504   1.017   5.202   8.485 -0.5500  1.1560  0.3424
  280MOL0     O38505   0.897   5.167   8.540 -0.2424  0.1729 -0.6142
  280MOL0     C38506   0.855   5.210   8.665 -0.1656 -0.2074 -0.3482
  280MOL0     C38507   0.800   5.110   8.744 -0.2593  0.9727  0.5478
  280MOL0     C38508   0.782   5.137   8.881 -0.3222  0.1961  0.1536
  280MOL0     C38509   0.799   5.260   8.945  0.3604  0.8818  0.4298
  280MOL0     O38510   0.776   5.295   9.081  0.2176 -0.2248  0.1511
  280MOL0     C38511   0.822   5.423   9.129 -0.2916  0.0043 -0.6768
  280MOL0     C38512   0.789   5.424   9.276 -0.1265  0.5578  0.8112
  280MOL0     C38513   0.637   5.421   9.325 -0.6702  0.3321 -0.4859
  280MOL0     C38514   0.555   5.546   9.290  1.1474 -0.5451 -0.2199
  280MOL0     C38515   0.415   5.509   9.277 -0.6513 -0.1356 -0.8506
  280MOL0     C38516   0.346   5.479   9.413 -0.5735  0.4109 -0.1526
  280MOL0     C38517   0.209   5.423   9.396 -0.7136  0.8063 -0.6760
  280MOL0     C38518   0.102   5.522   9.377  0.1920 -0.3607  0.2929
  280MOL0     N38519   0.064   5.593   9.503  0.8314  1.0982 -0.1125
  280MOL0     C38520  -0.011   5.549   9.613  0.0463 -0.5561  0.9562
  280MOL0     C38521  -0.024   5.663   9.689  0.7910  1.2155  0.2529
  280MOL0     C38522  -0.113   5.670   9.809 -0.2891  0.0271 -0.4247
  280MOL0     C38523  -0.201   5.800   9.817  0.5109  0.5455 -0.1032
  280MOL0     C38524  -0.320   5.778   9.909  0.1465 -0.5927  0.2242
  280MOL0     C38525  -0.436   5.867   9.883  0.1050 -0.4743  0.0672
  280MOL0     O38526  -0.543   5.861   9.980 -0.8070 -0.2153 -0.5071
  280MOL0     C38527  -0.638   5.962   9.972 -0.4534 -0.5127 -0.1234
  280MOL0     C38528  -0.736   5.948  10.064 -0.4777 -0.2155  0.1026
  280MOL0     C38529  -0.830   6.051  10.085 -0.3024  0.3210  1.3033
  280MOL0     C38530  -0.927   6.043  10.198  0.0473 -0.2052  0.4846
  280MOL0     C38531  -0.837   6.157   9.979 -0.8841 -0.3095  0.8657
  280MOL0     C38532  -0.936   6.257   9.969 -0.8699 -0.5295  1.5407
  280MOL0     O38533  -0.911   6.369   9.891 -0.1014 -0.2687 -0.0298
  280MOL0     C38534  -1.005   6.474   9.921  0.3528  0.0024  0.7057
  280MOL0     C38535  -1.089   6.523   9.819 -0.4100  0.6569  0.7398
  280MOL0     C38536  -1.182   6.611   9.847 -0.0569 -0.7198 -0.0473
  280MOL0     C38537  -1.203   6.669   9.973 -0.5246 -0.5505 -0.3696
  280MOL0     O38538  -1.308   6.755   9.982  1.2751  0.9849 -0.0265
  280MOL0     C38539  -1.297   6.863  10.081 -0.0387  0.6381  0.9560
  280MOL0     C38540  -1.402   6.971  10.040  0.2617 -0.7010 -0.3017
  280MOL0     C38541  -1.406   7.075  10.160  0.3350 -0.8240  0.7046
  280MOL0     C38542  -1.508   7.189  10.118 -0.1866  0.9717 -1.1111
  280MOL0     C38543  -1.511   7.299  10.226  0.0727 -0.7609  0.8819
  280MOL0     C38544  -1.592   7.418  10.175 -0.6830 -0.0598 -0.1431
  280MOL0     C38545  -1.745   7.391  10.176  0.6979  0.0204  0.3022
  280MOL0     C38546  -1.830   7.530  10.183  0.8689  0.4616 -0.2782
  280MOL0    Cl38547  -1.824   7.594  10.010  0.0243 -0.2885 -0.3330
  280MOL0     C38548  -1.123   6.625  10.075  0.3314 -0.6983  0.2707
  280MOL0     C38549  -1.020   6.532  10.051  0.6928  0.8139  0.5538
  280MOL0     O38550  -1.039   6.231  10.026  0.6179  0.0524 -0.3694
  280MOL0     C38551  -0.728   6.168   9.889  0.2615 -0.0836  0.5907
  280MOL0     C38552  -0.644   6.067   9.878 -0.0530 -0.1936 -0.5312
  280MOL0     N38553   0.043   5.766   9.621 -0.5499 -0.0917  0.7467
  280MOL0     N38554   0.113   5.719   9.520  0.3272  0.3732 -0.1032
  280MOL0     C38555   0.831   5.362   8.856 -0.8900  0.5985 -0.5994
  280MOL0     C38556   0.867   5.340   8.723  0.9230  0.2166 -0.3179
  280MOL0     C38557   1.040   5.153   8.351 -0.4599  0.3673 -0.0867
  280MOL0     C38558   1.167   5.110   8.299  0.8327 -0.9136 -0.3226
  280MOL0     C38559   1.191   5.084   8.167 -0.0850 -0.2207  0.0470
  280MOL0     C38560   1.092   5.085   8.067  0.1483  0.4767 -0.2482
  280MOL0     O38561   1.136   5.039   7.945 -0.0394  0.1874 -0.0819
  280MOL0     C38562   1.035   4.990   7.847 -0.8260 -0.3813 -0.7027
  280MOL0     C38563   1.081   4.902   7.737 -0.5971 -0.9817  0.3701
  280MOL0     C38564   1.110   4.759   7.784  0.7027 -0.4955  0.1785
  280MOL0     C38565   1.231   4.707   7.693 -0.1284 -1.0797 -0.1800
  280MOL0     C38566   1.210   4.710   7.546 -0.9117 -0.5130  0.1815
  280MOL0     C38567   1.206   4.721   7.428  0.1303 -0.7993  0.6405
  280MOL0     C38568   0.963   5.119   8.107  0.9410 -0.3549  0.6027
  280MOL0     C38569   0.940   5.159   8.242  0.4624 -0.2817 -0.6808
  280MOL0     C38570   0.799   5.209   8.270 -0.0186 -0.3854 -0.2994
  280MOL0     H38571   0.768   5.011   8.713 -0.3512  0.6957  1.4750
  280MOL0     H38572   0.760   5.050   8.942  2.6819  0.9991  2.6287
  280MOL0     H38573   0.769   5.510   9.088 -0.0104  1.6806  2.1819
  280MOL0     H38574   0.930   5.438   9.119 -0.1834  1.7520  1.9597
  280MOL0     H38575   0.846   5.345   9.326  0.7388  0.3586 -0.4505
  280MOL0     H38576   0.820   5.525   9.303  0.3880 -0.0199  2.5389
  280MOL0     H38577   0.596   5.328   9.286  3.2085 -0.7963 -2.3925
  280MOL0     H38578   0.636   5.417   9.434 -0.7839 -0.5780 -0.5132
  280MOL0     H38579   0.576   5.625   9.362  0.7026 -2.0674  1.6677
  280MOL0     H38580   0.576   5.591   9.192  0.8369 -0.2634 -0.1563
  280MOL0     H38581   0.402   5.426   9.207 -0.6318  0.2922 -1.3674
  280MOL0     H38582   0.364   5.602   9.251 -2.6372 -0.3512  1.8142
  280MOL0     H38583   0.397   5.402   9.470 -0.2397  0.5865 -0.2120
  280MOL0     H38584   0.335   5.570   9.474  0.2427 -0.3761  1.2121
  280MOL0     H38585   0.189   5.369   9.489  1.4761  2.4012  0.8019
  280MOL0     H38586   0.204   5.354   9.311  1.6543  0.1484 -0.3385
  280MOL0     H38587   0.138   5.591   9.301  0.2005 -0.9800 -0.2798
  280MOL0     H38588   0.008   5.483   9.335  0.3878  1.1834 -1.6938
  280MOL0     H38589  -0.052   5.454   9.645 -0.4271  0.0569  2.2206
  280MOL0     H38590  -0.065   5.663   9.906 -0.3057  2.3177 -0.2056
  280MOL0     H38591  -0.175   5.580   9.801  0.8159 -0.9318  1.2509
  280MOL0     H38592  -0.130   5.874   9.854  0.8058 -0.5430  1.5832
  280MOL0     H38593  -0.233   5.835   9.718 -1.3778 -0.2007  0.2028
  280MOL0     H38594  -0.354   5.675   9.896  0.6896 -0.9745  1.6183
  280MOL0     H38595  -0.301   5.796  10.016 -0.0289  0.7890  0.0399
  280MOL0     H38596  -0.396   5.969   9.891 -1.5460  0.4227 -1.9622
  280MOL0     H38597  -0.464   5.844   9.780 -1.3845  0.1219  0.3054
  280MOL0     H38598  -0.724   5.869  10.136  0.8001  0.4732  0.6833
  280MOL0     H38599  -0.928   6.135  10.258  0.4960  0.2257 -0.1578
  280MOL0     H38600  -0.907   5.957  10.263  1.4385  2.3151  3.6865
  280MOL0     H38601  -1.027   6.026  10.157 -0.7812  1.6054  1.6375
  280MOL0     H38602  -1.083   6.469   9.725  3.5018 -1.4591  1.9463
  280MOL0     H38603  -1.243   6.633   9.760  2.8148 -2.6534 -2.7701
  280MOL0     H38604  -1.321   6.827  10.181 -1.1837  1.3939  0.9690
  280MOL0     H38605  -1.201   6.915  10.076  0.2263  0.2401  1.7741
  280MOL0     H38606  -1.381   7.023   9.946  4.0691 -1.4643 -0.0364
  280MOL0     H38607  -1.499   6.923  10.030 -1.0982  1.8144 -0.1352
  280MOL0     H38608  -1.312   7.130  10.175 -0.9675  1.2045  1.9499
  280MOL0     H38609  -1.431   7.030  10.257 -0.2411 -0.0773  0.9073
  280MOL0     H38610  -1.606   7.141  10.110  1.6750 -3.1337 -2.4867
  280MOL0     H38611  -1.464   7.232  10.027 -1.2255  0.3599 -1.9259
  280MOL0     H38612  -1.561   7.261  10.316  0.8218  0.0439  1.6616
  280MOL0     H38613  -1.413   7.334  10.258  1.2743 -2.5000 -0.6968
  280MOL0     H38614  -1.569   7.455  10.075  1.1903 -1.4764 -0.2760
  280MOL0     H38615  -1.584   7.503  10.243 -1.3053 -0.5083  0.5120
  280MOL0     H38616  -1.774   7.333  10.264 -1.5316  0.9592  0.2489
  280MOL0     H38617  -1.772   7.333  10.087 -1.3900  2.3065 -0.6677
  280MOL0     H38618  -1.798   7.611  10.250 -1.1720  0.9136  0.2227
  280MOL0     H38619  -1.929   7.500  10.220  1.2205 -1.5450 -0.8262
  280MOL0     H38620  -1.146   6.637  10.180 -3.2789 -0.4411 -0.4320
  280MOL0     H38621  -0.961   6.484  10.129  1.7816  2.0611  0.5142
  280MOL0     H38622  -0.719   6.255   9.825 -0.8246 -1.1733 -1.1290
  280MOL0     H38623  -0.559   6.089   9.813  0.1357 -2.8051 -1.3243
  280MOL0     H38624   0.835   5.468   8.877 -3.3275  0.9879 -1.8148
  280MOL0     H38625   0.898   5.417   8.653 -0.0429 -1.0333 -2.2290
  280MOL0     H38626   1.255   5.104   8.363  1.8720 -0.3850 -1.6679
  280MOL0     H38627   1.287   5.044   8.135 -0.4115  0.9921 -2.7202
  280MOL0     H38628   0.954   4.932   7.893 -0.8355 -0.8727 -1.3242
  280MOL0     H38629   1.012   5.085   7.799  4.1940  1.1322 -0.6628
  280MOL0     H38630   1.165   4.952   7.688  0.9895 -1.1021  2.8284
  280MOL0     H38631   1.007   4.882   7.659 -0.1320 -1.4970  0.0498
  280MOL0     H38632   1.143   4.751   7.888  4.6097 -0.1131 -0.8793
  280MOL0     H38633   1.021   4.696   7.776  0.7532 -0.9302  2.2971
  280MOL0     H38634   1.263   4.606   7.722 -1.1547 -2.3186 -2.9370
  280MOL0     H38635   1.318   4.772   7.702 -0.4548 -0.6662  0.0353
  280MOL0     H38636   1.208   4.748   7.324 -0.5778  1.7473  1.2011
  280MOL0     H38637   0.896   5.146   8.026  0.6428  1.9800  1.5567
  280MOL0     H38638   0.758   5.144   8.348  2.4773 -2.6213 -0.6896
  280MOL0     H38639   0.806   5.314   8.300 -3.0344 -0.5734  1.4395
  280MOL0     H38640   0.736   5.213   8.180 -0.5501 -0.1157  0.0811
  281MOL0     O38641   2.246   9.156   6.925 -0.5557  0.6346 -0.1298
  281MOL0     C38642   2.345   9.096   6.939 -0.2247 -0.1107 -0.9687
  281MOL0     O38643   2.448   9.099   6.859  0.2956 -0.4077  0.3519
  281MOL0     C38644   2.430   9.168   6.739 -0.8805 -0.4265  0.3986
  281MOL0     C38645   2.402   9.115   6.619 -0.3928  0.3779  0.9278
  281MOL0     C38646   2.412   9.196   6.502  0.6654 -0.2161 -0.9050
  281MOL0     C38647   2.424   9.337   6.509 -0.0216 -0.0037  0.2946
  281MOL0     O38648   2.419   9.424   6.398  0.7136 -0.2364 -0.2585
  281MOL0     C38649   2.444   9.374   6.269 -0.3069  0.1596  0.9844
  281MOL0     C38650   2.450   9.475   6.154  0.8002  0.0284 -0.3746
  281MOL0     C38651   2.321   9.556   6.158  0.7635  0.5811 -0.4790
  281MOL0     C38652   2.348   9.678   6.075 -0.7240 -0.7748  0.0049
  281MOL0     C38653   2.230   9.758   6.024  0.2439 -0.0124 -0.9108
  281MOL0     C38654   2.278   9.873   5.951  0.5164  0.6956 -0.8448
  281MOL0     C38655   2.165   9.958   5.895 -0.3767 -0.0569 -0.0527
  281MOL0     C38656   2.208  10.095   5.846  0.4734 -0.6662  1.5030
  281MOL0     N38657   2.251  10.189   5.953 -0.8409  0.5083  0.0310
  281MOL0     C38658   2.186  10.195   6.070 -0.1159 -0.2262 -0.5736
  281MOL0     C38659   2.267  10.262   6.152 -0.4629 -0.2491 -0.0419
  281MOL0     C38660   2.241  10.302   6.294  0.5554 -0.3087  0.1770
  281MOL0     C38661   2.341  10.237   6.385 -0.9292  0.7433  0.9558
  281MOL0     C38662   2.442  10.346   6.423 -0.1098 -0.3973 -0.6341
  281MOL0     C38663   2.571  10.284   6.459 -0.8624  0.2626  0.2620
  281MOL0     O38664   2.566  10.183   6.565  0.4970 -0.0738  0.0093
  281MOL0     C38665   2.684  10.128   6.619  0.5753 -0.4967  0.2483
  281MOL0     C38666   2.810  10.182   6.587  0.6187 -0.0675  0.8076
  281MOL0     C38667   2.924  10.135   6.642 -0.6362 -0.8284  0.5559
  281MOL0     C38668   3.050  10.188   6.592  0.1397 -0.0731  0.3398
  281MOL0     C38669   2.915  10.033   6.738 -0.2513 -0.8620  0.6133
  281MOL0     C38670   3.033   9.966   6.808 -0.7012  0.2479 -0.6353
  281MOL0     O38671   3.157  10.026   6.787 -0.0274 -0.4502 -0.6959
  281MOL0     C38672   3.276   9.977   6.843  0.3489 -0.7442  0.3238
  281MOL0     C38673   3.397  10.013   6.783  0.1834  0.3312  0.2183
  281MOL0     C38674   3.523   9.981   6.835 -0.1211 -0.9691  0.1605
  281MOL0     C38675   3.525   9.914   6.960 -0.3988 -0.7005 -0.6913
  281MOL0     O38676   3.632   9.884   7.027  0.4318 -1.0716  0.4581
  281MOL0     C38677   3.657   9.973   7.138 -0.4180  0.7460 -0.2811
  281MOL0     C38678   3.778   9.916   7.215  0.3819  0.4931 -0.0197
  281MOL0     C38679   3.909   9.972   7.157 -0.5427  0.5081 -0.0143
  281MOL0     C38680   4.016   9.954   7.255  0.5806 -0.1441 -0.3370
  281MOL0     C38681   4.155   9.939   7.192 -0.5155  0.7239  0.6627
  281MOL0     C38682   4.202  10.067   7.129 -0.0220  0.8119  0.1660
  281MOL0     C38683   4.301  10.039   7.012 -0.1513 -0.5620 -0.1865
  281MOL0     C38684   4.297  10.166   6.919 -0.4262  0.4374  0.7963
  281MOL0    Cl38685   4.344  10.327   6.982 -0.6341  0.7281 -0.2452
  281MOL0     C38686   3.404   9.882   7.020  0.1769 -0.9776  0.5910
  281MOL0     C38687   3.286   9.920   6.964  0.1715 -0.1724 -0.1047
  281MOL0     O38688   3.017   9.854   6.853 -0.9311 -0.0323  0.2768
  281MOL0     C38689   2.784   9.992   6.786 -0.4538  0.4596  0.3031
  281MOL0     C38690   2.669  10.038   6.719 -0.6666 -0.6487 -0.0411
  281MOL0     N38691   2.380  10.296   6.079 -0.1740  0.1705 -0.1067
  281MOL0     N38692   2.372  10.248   5.959  0.0328 -0.5846 -0.6139
  281MOL0     C38693   2.455   9.386   6.636  0.9296  0.5592 -0.1705
  281MOL0     C38694   2.457   9.310   6.750 -0.1757 -0.2865  0.4698
  281MOL0     C38695   2.358   9.045   7.079 -0.0949  0.1781  0.9864
  281MOL0     C38696   2.487   9.040   7.127 -0.6525  0.5784  0.3116
  281MOL0     C38697   2.515   8.999   7.254 -0.3524 -0.5463 -0.2797
  281MOL0     C38698   2.419   8.972   7.355 -0.8259 -0.5923  0.5542
  281MOL0     O38699   2.468   8.943   7.483  1.1300 -0.3428 -0.2517
  281MOL0     C38700   2.382   8.935   7.599 -0.6027  0.1968  0.8687
  281MOL0     C38701   2.358   9.066   7.659 -0.1203 -1.0267 -0.5183
  281MOL0     C38702   2.301   9.059   7.803 -0.2100 -0.3322  0.4897
  281MOL0     C38703   2.352   9.167   7.898 -0.8808  0.2977 -0.4572
  281MOL0     C38704   2.345   9.290   7.831  0.3942 -0.1839  0.2547
  281MOL0     C38705   2.341   9.390   7.773 -0.3455  0.1389  0.0075
  281MOL0     C38706   2.288   8.983   7.304 -0.1427  0.2663 -0.0995
  281MOL0     C38707   2.257   9.014   7.173  0.1560  0.5410  0.1618
  281MOL0     C38708   2.109   9.001   7.134  0.0196 -0.1456 -1.2059
  281MOL0     H38709   2.368   9.012   6.604  0.5960 -0.0065  1.2684
  281MOL0     H38710   2.382   9.135   6.417  1.5805 -3.9522  1.2362
  281MOL0     H38711   2.370   9.299   6.237  0.8012  0.0222 -1.3863
  281MOL0     H38712   2.535   9.314   6.257 -1.3380 -0.8123 -3.7908
  281MOL0     H38713   2.534   9.539   6.182  1.0245 -0.2177 -0.4730
  281MOL0     H38714   2.470   9.430   6.056  2.1301  0.5486 -0.3713
  281MOL0     H38715   2.241   9.491   6.119  1.9637 -1.0576 -0.3421
  281MOL0     H38716   2.278   9.585   6.254 -3.8143 -1.1077 -1.7368
  281MOL0     H38717   2.411   9.749   6.130 -1.2476  0.5548 -1.0583
  281MOL0     H38718   2.385   9.637   5.981 -1.5249 -0.5487 -0.4156
  281MOL0     H38719   2.168   9.798   6.105  0.8871  2.4976 -1.5460
  281MOL0     H38720   2.162   9.704   5.957 -0.6146  2.1571 -1.8948
  281MOL0     H38721   2.347   9.937   6.007  0.5509  0.8722 -1.0838
  281MOL0     H38722   2.344   9.844   5.868 -0.8023  2.4455 -2.6002
  281MOL0     H38723   2.082   9.967   5.966 -0.3098 -4.6848  0.8859
  281MOL0     H38724   2.133   9.910   5.802  3.6875 -2.0916 -0.6017
  281MOL0     H38725   2.280  10.092   5.764  0.0035 -1.7099  1.1060
  281MOL0     H38726   2.118  10.140   5.804 -2.3852 -3.0275  4.4830
  281MOL0     H38727   2.086  10.155   6.088 -0.3882  2.0262  4.8352
  281MOL0     H38728   2.137  10.274   6.319  0.3354 -0.0009 -0.3895
  281MOL0     H38729   2.238  10.411   6.298  1.5955 -0.2823  0.5083
  281MOL0     H38730   2.283  10.199   6.470 -2.0913  1.0767  0.3393
  281MOL0     H38731   2.394  10.155   6.337 -0.9538  0.3831  1.5312
  281MOL0     H38732   2.455  10.416   6.340 -1.6564 -0.5572 -1.0309
  281MOL0     H38733   2.407  10.409   6.505  3.5244  1.8970 -0.6235
  281MOL0     H38734   2.612  10.245   6.366 -3.2498 -4.7196  0.9542
  281MOL0     H38735   2.638  10.365   6.490  0.7151 -1.0588  0.4545
  281MOL0     H38736   2.821  10.248   6.501  2.0891  0.9100  1.6972
  281MOL0     H38737   3.039  10.264   6.514  1.6981  0.5501  0.6990
  281MOL0     H38738   3.104  10.108   6.540 -0.7813 -0.0436 -0.7092
  281MOL0     H38739   3.115  10.229   6.669  0.7515 -1.5147  0.6175
  281MOL0     H38740   3.396  10.062   6.687  2.0628  0.5256  0.2688
  281MOL0     H38741   3.613  10.016   6.785  0.4585 -1.8667  0.5493
  281MOL0     H38742   3.678  10.075   7.103  2.3496 -0.3073 -1.9971
  281MOL0     H38743   3.578   9.973   7.214  1.3235 -0.8930  1.6163
  281MOL0     H38744   3.767   9.947   7.319  1.1116 -0.3879  0.3266
  281MOL0     H38745   3.771   9.808   7.196 -0.0636  0.7745 -1.5956
  281MOL0     H38746   3.906  10.073   7.114  1.9640 -0.1850 -2.0417
  281MOL0     H38747   3.924   9.909   7.069  1.6981  2.3711 -1.0692
  281MOL0     H38748   3.987   9.865   7.312 -2.2394  1.4785  0.9825
  281MOL0     H38749   4.013  10.027   7.336  1.4583  0.4826 -0.8483
  281MOL0     H38750   4.230   9.904   7.264 -0.0696  1.3296  0.4983
  281MOL0     H38751   4.144   9.860   7.117  1.9102  2.3308 -1.5332
  281MOL0     H38752   4.244  10.125   7.212  1.7324 -1.4932  0.9982
  281MOL0     H38753   4.118  10.127   7.093 -1.1511 -0.4813  0.5416
  281MOL0     H38754   4.262   9.959   6.949 -0.0265 -0.1374 -0.8112
  281MOL0     H38755   4.399  10.016   7.055 -1.0323 -2.4265  0.9585
  281MOL0     H38756   4.198  10.183   6.876  1.4180  3.3030 -2.9132
  281MOL0     H38757   4.365  10.135   6.838  0.9618  1.7727  1.4068
  281MOL0     H38758   3.392   9.833   7.116 -2.1970  0.0921  0.9026
  281MOL0     H38759   3.191   9.906   7.015 -0.4624  0.8319 -0.9704
  281MOL0     H38760   2.766   9.922   6.867 -1.1277 -1.1239 -1.1621
  281MOL0     H38761   2.569  10.025   6.761  0.0841  0.6427  2.3314
  281MOL0     H38762   2.475   9.493   6.646  0.5908  0.5659  0.4675
  281MOL0     H38763   2.477   9.350   6.849 -3.6868 -0.4417  1.3984
  281MOL0     H38764   2.570   9.054   7.058 -0.4915 -1.4181  0.0378
  281MOL0     H38765   2.617   9.006   7.291 -0.5792  2.2442 -0.0133
  281MOL0     H38766   2.287   8.883   7.585 -0.0921 -0.0814 -2.5616
  281MOL0     H38767   2.440   8.869   7.664  4.5681  1.4432 -1.9312
  281MOL0     H38768   2.294   9.129   7.595 -1.6839 -1.5850  0.4375
  281MOL0     H38769   2.452   9.119   7.677 -1.7125  0.7403  3.8494
  281MOL0     H38770   2.192   9.064   7.795 -0.4267 -2.6940  1.2504
  281MOL0     H38771   2.332   8.959   7.836 -0.6760 -0.7459 -0.3151
  281MOL0     H38772   2.454   9.131   7.919 -1.3673 -1.5555 -1.0602
  281MOL0     H38773   2.293   9.157   7.989 -3.4208 -3.5392 -2.2378
  281MOL0     H38774   2.366   9.486   7.732 -0.2071  0.6984  1.3277
  281MOL0     H38775   2.215   8.939   7.372  0.7954  0.1080  0.8337
  281MOL0     H38776   2.042   8.989   7.220 -0.2976  0.1354 -1.4082
  281MOL0     H38777   2.086   9.096   7.084  2.4211  0.0810 -2.0154
  281MOL0     H38778   2.084   8.927   7.058 -2.4897 -0.9368  0.2490
  282MOL0     O38779  11.311   1.545   1.933 -0.2814 -0.0281  0.2633
  282MOL0     C38780  11.347   1.477   1.836  0.1854 -0.2836  0.0448
  282MOL0     O38781  11.333   1.340   1.823  0.3916 -0.2738 -0.3765
  282MOL0     C38782  11.314   1.257   1.934  0.1293 -0.1211  0.1528
  282MOL0     C38783  11.330   1.293   2.067 -0.9236  0.0658  0.7498
  282MOL0     C38784  11.313   1.207   2.176 -0.7052 -0.3807  0.4409
  282MOL0     C38785  11.279   1.073   2.153  0.4397  0.3626 -0.9789
  282MOL0     O38786  11.293   0.993   2.262  0.2997 -0.3709  0.2132
  282MOL0     C38787  11.203   0.882   2.266 -0.1787  0.3909 -0.3053
  282MOL0     C38788  11.151   0.863   2.408  0.2163  0.1023 -1.0155
  282MOL0     C38789  11.077   0.980   2.477  0.2268  0.7599 -0.0571
  282MOL0     C38790  10.940   1.017   2.413 -0.1039 -0.3687  0.0634
  282MOL0     C38791  10.864   1.123   2.500 -0.1308 -0.5657  0.3795
  282MOL0     C38792  10.748   1.171   2.417  1.1455 -0.9464 -0.8683
  282MOL0     C38793  10.675   1.286   2.486 -0.4008 -0.1197  0.3378
  282MOL0     C38794  10.571   1.347   2.389  0.0177 -0.6015  0.2307
  282MOL0     N38795  10.466   1.428   2.448 -0.1174 -0.4046  0.4177
  282MOL0     C38796  10.474   1.548   2.517 -0.3470  0.2838  0.2745
  282MOL0     C38797  10.349   1.597   2.531 -0.4742  0.3925  0.0207
  282MOL0     C38798  10.306   1.733   2.563 -0.1684 -0.5787 -0.1176
  282MOL0     C38799  10.189   1.732   2.663  0.6934 -0.4668  0.3357
  282MOL0     C38800  10.127   1.877   2.684 -0.5261  0.8137 -0.5589
  282MOL0     C38801  10.185   1.944   2.808 -0.4158 -0.1805  0.2783
  282MOL0     O38802  10.107   1.887   2.917  0.1966  0.2214 -0.4822
  282MOL0     C38803  10.032   1.980   2.991 -0.1091  0.6687  1.4952
  282MOL0     C38804   9.904   1.993   2.952 -0.2228  0.1016 -0.0592
  282MOL0     C38805   9.825   2.086   3.027  0.0508  0.7336  0.1291
  282MOL0     C38806   9.681   2.122   2.982 -0.0662 -0.8965  0.3825
  282MOL0     C38807   9.874   2.137   3.155 -0.6096 -0.7408  0.2765
  282MOL0     C38808   9.805   2.244   3.236  0.5717 -0.3083  0.2443
  282MOL0     O38809   9.671   2.244   3.241  0.1474 -0.2900  0.6137
  282MOL0     C38810   9.619   2.367   3.275  1.3088  0.0657 -0.0300
  282MOL0     C38811   9.492   2.355   3.340 -0.3927 -0.1491 -0.2617
  282MOL0     C38812   9.426   2.471   3.376 -0.2871  0.0613  0.0283
  282MOL0     C38813   9.483   2.598   3.358  1.1367  0.4516  0.0662
  282MOL0     O38814   9.415   2.713   3.356  0.3202  0.2131  0.1582
  282MOL0     C38815   9.315   2.738   3.458  0.6157  0.8020 -0.1504
  282MOL0     C38816   9.354   2.876   3.504 -0.4761  0.2472 -0.3107
  282MOL0     C38817   9.290   2.908   3.636  0.4919 -0.0631  0.5785
  282MOL0     C38818   9.343   3.050   3.675  0.8577 -0.4218 -0.2847
  282MOL0     C38819   9.269   3.109   3.793 -0.6197  0.4659 -1.2864
  282MOL0     C38820   9.348   3.219   3.874 -1.0196 -0.3177  0.3730
  282MOL0     C38821   9.345   3.338   3.781 -0.1545  0.6999 -0.6375
  282MOL0     C38822   9.402   3.458   3.858  0.3036  0.8255  1.0799
  282MOL0    Cl38823   9.267   3.501   3.971  0.0625 -0.2803 -0.2289
  282MOL0     C38824   9.602   2.611   3.295 -0.2595  1.0894 -1.4720
  282MOL0     C38825   9.673   2.490   3.255 -0.1805  0.2931 -0.1347
  282MOL0     O38826   9.876   2.303   3.316 -0.1642  0.2351 -0.2904
  282MOL0     C38827  10.001   2.108   3.187 -0.3826 -0.2229 -0.6002
  282MOL0     C38828  10.085   2.036   3.104  0.8698 -0.1027 -0.0803
  282MOL0     N38829  10.265   1.499   2.482 -0.9511 -0.2400  0.8133
  282MOL0     N38830  10.334   1.404   2.423 -0.6808 -0.5782 -0.0614
  282MOL0     C38831  11.251   1.033   2.026  0.8840 -0.2010 -0.2757
  282MOL0     C38832  11.272   1.124   1.914  0.4277  0.3464 -0.1999
  282MOL0     C38833  11.394   1.550   1.719 -0.1890 -0.4739  0.2038
  282MOL0     C38834  11.309   1.660   1.674  0.1399 -0.4373 -0.1537
  282MOL0     C38835  11.356   1.739   1.567 -0.5740  0.7512 -0.2793
  282MOL0     C38836  11.466   1.701   1.490 -0.4236 -0.9219 -0.4266
  282MOL0     O38837  11.515   1.755   1.381 -0.1700 -0.8132  0.1275
  282MOL0     C38838  11.443   1.853   1.298 -0.4473 -0.3523  0.3004
  282MOL0     C38839  11.532   1.922   1.193  0.1690  0.7207  0.3429
  282MOL0     C38840  11.535   1.851   1.057  0.9460 -0.1954  0.6804
  282MOL0     C38841  11.660   1.882   0.974  0.3272  0.1338  0.7641
  282MOL0     C38842  11.772   1.818   1.030  0.2583  0.6462 -0.7474
  282MOL0     C38843  11.875   1.764   1.065 -0.7158  0.1713  0.0200
  282MOL0     C38844  11.528   1.583   1.524 -0.4745  0.5795 -0.5852
  282MOL0     C38845  11.501   1.509   1.642  0.0239  0.3656 -0.0605
  282MOL0     C38846  11.576   1.383   1.673 -0.6762  0.5942  0.3625
  282MOL0     H38847  11.349   1.395   2.096  0.2298  0.1071 -0.1063
  282MOL0     H38848  11.326   1.247   2.275 -0.9896  2.7467 -0.6709
  282MOL0     H38849  11.274   0.800   2.249  0.3339  0.7859 -0.1030
  282MOL0     H38850  11.122   0.905   2.197  1.2943  3.7468 -1.1313
  282MOL0     H38851  11.082   0.780   2.391  0.2130  0.1133 -1.0559
  282MOL0     H38852  11.232   0.828   2.472 -0.0669 -0.6774 -1.0817
  282MOL0     H38853  11.048   0.943   2.577 -0.0905 -2.0959 -1.0973
  282MOL0     H38854  11.143   1.066   2.490  2.6814 -0.8460 -1.2570
  282MOL0     H38855  10.965   1.053   2.313 -1.7726  3.1282  0.7305
  282MOL0     H38856  10.873   0.932   2.398 -1.3194  0.6608 -0.4664
  282MOL0     H38857  10.929   1.208   2.524 -2.1262  1.6444 -1.5030
  282MOL0     H38858  10.819   1.071   2.584  2.9558 -3.6971  0.3160
  282MOL0     H38859  10.770   1.203   2.314 -1.5821  0.2619 -1.1791
  282MOL0     H38860  10.679   1.086   2.410 -1.2673  0.6235  1.6254
  282MOL0     H38861  10.754   1.356   2.514  1.9074 -2.4689  0.0303
  282MOL0     H38862  10.622   1.263   2.580  2.3215  0.6266  2.1791
  282MOL0     H38863  10.633   1.401   2.317  3.9633 -5.2527 -0.4022
  282MOL0     H38864  10.507   1.271   2.344  0.9311 -1.1336 -0.2037
  282MOL0     H38865  10.565   1.603   2.542 -0.9776  0.4568  2.4331
  282MOL0     H38866  10.258   1.773   2.474 -0.6420 -0.0049  0.3934
  282MOL0     H38867  10.388   1.792   2.605  1.7805 -1.9175 -1.7832
  282MOL0     H38868  10.117   1.665   2.615  0.1359  2.0762 -2.7420
  282MOL0     H38869  10.217   1.679   2.754 -1.0553 -1.4462  0.3619
  282MOL0     H38870  10.143   1.948   2.602  1.6934  5.5009  3.3911
  282MOL0     H38871  10.019   1.871   2.701 -0.2429 -1.2425  0.8702
  282MOL0     H38872  10.290   1.913   2.807 -0.7936 -1.6172 -1.6148
  282MOL0     H38873  10.171   2.053   2.807 -1.2664 -0.1931  2.8043
  282MOL0     H38874   9.860   1.955   2.861  0.2189  3.3024 -1.7687
  282MOL0     H38875   9.662   2.090   2.879  4.6058 -0.5632 -0.7894
  282MOL0     H38876   9.672   2.231   2.982 -2.2925 -1.0211 -0.8613
  282MOL0     H38877   9.603   2.081   3.048 -0.1461  0.5408  1.2462
  282MOL0     H38878   9.445   2.258   3.347 -0.8247 -0.1754 -2.5393
  282MOL0     H38879   9.320   2.467   3.399 -0.5011 -4.2411 -1.0252
  282MOL0     H38880   9.211   2.737   3.425  0.2413 -0.8503  0.9987
  282MOL0     H38881   9.325   2.671   3.543 -1.7918  1.9504  1.1510
  282MOL0     H38882   9.461   2.883   3.523 -0.1965  2.5065 -2.2539
  282MOL0     H38883   9.325   2.960   3.440 -2.9742 -1.7824 -2.0485
  282MOL0     H38884   9.323   2.839   3.715  1.2674 -1.3467 -0.8295
  282MOL0     H38885   9.183   2.897   3.619  0.3498  2.5960 -0.7396
  282MOL0     H38886   9.321   3.115   3.590 -0.0464 -1.8562 -1.1808
  282MOL0     H38887   9.452   3.044   3.685  0.8575 -0.2391 -0.1584
  282MOL0     H38888   9.169   3.133   3.756 -0.7283 -0.9408 -1.9568
  282MOL0     H38889   9.261   3.023   3.859  1.5217  1.5530  0.4988
  282MOL0     H38890   9.451   3.185   3.874 -2.0931 -3.9792  0.8564
  282MOL0     H38891   9.300   3.234   3.971  4.3177  0.0221  3.2975
  282MOL0     H38892   9.247   3.360   3.738  0.5320  2.1885 -1.5370
  282MOL0     H38893   9.414   3.323   3.697  2.6886  1.1268  1.4390
  282MOL0     H38894   9.435   3.540   3.794  6.5601 -0.4016  2.0227
  282MOL0     H38895   9.489   3.432   3.920  0.3985  0.4441  0.7905
  282MOL0     H38896   9.633   2.715   3.287 -2.5442  2.2214  2.1489
  282MOL0     H38897   9.775   2.498   3.221  0.3904  0.3106  1.4967
  282MOL0     H38898  10.044   2.157   3.274 -1.1153 -2.4036  1.0885
  282MOL0     H38899  10.187   2.030   3.138  0.9138  1.8083  0.1860
  282MOL0     H38900  11.220   0.935   1.992 -2.0412  0.0928  1.1969
  282MOL0     H38901  11.249   1.089   1.814  1.1978  2.8142 -1.3281
  282MOL0     H38902  11.218   1.687   1.726  0.9149 -2.9022  2.7939
  282MOL0     H38903  11.306   1.833   1.547  0.9200  1.8234  0.7694
  282MOL0     H38904  11.372   1.804   1.230 -0.6169  3.2738 -2.4959
  282MOL0     H38905  11.387   1.924   1.358 -0.3239  0.8045 -0.8985
  282MOL0     H38906  11.632   1.942   1.231  0.2869  1.0907 -0.1577
  282MOL0     H38907  11.500   2.024   1.168 -0.6792  1.1322  2.8468
  282MOL0     H38908  11.531   1.741   1.058 -0.4649 -0.1590  1.5059
  282MOL0     H38909  11.460   1.893   0.991  0.7829  1.2260  1.7301
  282MOL0     H38910  11.672   1.991   0.979 -0.2560  0.1740  1.5690
  282MOL0     H38911  11.638   1.845   0.874  1.2354 -1.1163  1.0098
  282MOL0     H38912  11.972   1.731   1.098 -0.4707  0.4822 -0.3787
  282MOL0     H38913  11.612   1.544   1.465  1.1201  2.6232  0.2248
  282MOL0     H38914  11.672   1.393   1.620 -1.1922  1.8184 -0.3815
  282MOL0     H38915  11.585   1.376   1.782 -1.3180  1.5906  0.4938
  282MOL0     H38916  11.533   1.288   1.642  1.2074  0.4738 -2.2219
  283MOL0     O38917   2.293   6.382   1.052  0.4935 -0.0304 -0.0648
  283MOL0     C38918   2.177   6.348   1.046  0.7074 -0.6915  1.0928
  283MOL0     O38919   2.125   6.228   1.094  0.0839 -0.1909 -0.0229
  283MOL0     C38920   2.188   6.147   1.181 -0.0470  0.5174 -0.6317
  283MOL0     C38921   2.158   6.015   1.162 -0.2216  0.4023  0.9687
  283MOL0     C38922   2.214   5.914   1.240  0.8161  0.3063  0.2849
  283MOL0     C38923   2.305   5.953   1.324  0.5705 -0.6448 -0.9936
  283MOL0     O38924   2.352   5.846   1.402 -0.4325 -0.0816 -0.3037
  283MOL0     C38925   2.348   5.867   1.550 -0.1377  0.4470 -0.2140
  283MOL0     C38926   2.341   5.750   1.634 -0.5920  1.0276 -0.0842
  283MOL0     C38927   2.359   5.778   1.781 -1.0639 -1.4870  0.5170
  283MOL0     C38928   2.369   5.648   1.858 -0.0617  0.5833  0.3666
  283MOL0     C38929   2.349   5.671   2.006  0.3224  0.0341  0.9016
  283MOL0     C38930   2.376   5.565   2.113  0.3068 -0.0812  0.3227
  283MOL0     C38931   2.374   5.616   2.254 -0.4275 -0.3027  0.1025
  283MOL0     C38932   2.492   5.709   2.288  0.0020 -0.0929  0.4314
  283MOL0     N38933   2.621   5.646   2.261  0.8467 -0.1304 -0.1623
  283MOL0     C38934   2.683   5.553   2.341  0.1890 -0.0095 -1.6626
  283MOL0     C38935   2.796   5.524   2.278  0.2378 -0.0937 -0.1975
  283MOL0     C38936   2.902   5.435   2.325 -0.9862  0.6105 -0.5431
  283MOL0     C38937   2.872   5.289   2.336  0.1988  0.5888 -0.1177
  283MOL0     C38938   2.934   5.194   2.230  0.5036 -0.1460 -0.3367
  283MOL0     C38939   2.884   5.230   2.096  0.1368 -0.0266 -0.2429
  283MOL0     O38940   2.934   5.136   1.999  0.2933 -0.2234  0.5385
  283MOL0     C38941   3.070   5.142   1.964  0.7222  0.3889  0.4867
  283MOL0     C38942   3.153   5.250   1.979  0.6968 -0.0990  0.1435
  283MOL0     C38943   3.288   5.247   1.947 -0.0836  0.0205 -0.5668
  283MOL0     C38944   3.357   5.389   1.968 -0.3684  0.4509  0.1811
  283MOL0     C38945   3.347   5.123   1.900  0.0112  0.1015 -0.0414
  283MOL0     C38946   3.485   5.108   1.868 -0.6485  0.1230 -0.0128
  283MOL0     O38947   3.518   4.986   1.810  0.2646 -0.4816  0.3914
  283MOL0     C38948   3.648   4.965   1.771  0.5223  0.3658 -0.2494
  283MOL0     C38949   3.707   5.014   1.650 -0.0881  0.4294  0.6193
  283MOL0     C38950   3.835   4.974   1.605 -0.3413  0.8741  0.4228
  283MOL0     C38951   3.905   4.874   1.678 -0.0183  0.9268  0.8166
  283MOL0     O38952   4.028   4.818   1.651  0.4940 -0.1527 -0.1654
  283MOL0     C38953   4.094   4.862   1.531 -0.6084  0.5553 -0.1761
  283MOL0     C38954   4.192   4.746   1.484  0.3425  0.0466  0.4364
  283MOL0     C38955   4.104   4.626   1.442 -0.2901  1.4024  0.8723
  283MOL0     C38956   4.196   4.500   1.446  0.1229 -0.3816 -0.3212
  283MOL0     C38957   4.144   4.375   1.387  0.8761 -0.6294  0.8927
  283MOL0     C38958   4.162   4.387   1.229 -0.4344  0.0444  0.4608
  283MOL0     C38959   4.110   4.244   1.171 -0.1571 -0.0834 -0.8618
  283MOL0     C38960   4.105   4.245   1.016  0.1402 -0.2527 -0.2867
  283MOL0    Cl38961   4.142   4.080   0.945 -0.5512  0.0172 -0.0668
  283MOL0     C38962   3.835   4.821   1.794 -1.1564 -0.7113 -1.3217
  283MOL0     C38963   3.715   4.865   1.840 -0.8145  0.2747  0.3701
  283MOL0     O38964   3.567   5.193   1.892  0.0236 -0.7369  0.0736
  283MOL0     C38965   3.256   5.018   1.879 -0.0351  0.0928  0.1529
  283MOL0     C38966   3.118   5.027   1.910 -0.7818  0.6217  0.7299
  283MOL0     N38967   2.802   5.590   2.163 -0.2310 -0.2163  0.5969
  283MOL0     N38968   2.694   5.666   2.154 -0.6322  0.2150 -0.0087
  283MOL0     C38969   2.340   6.080   1.360 -0.1390 -0.9629 -0.3037
  283MOL0     C38970   2.278   6.183   1.286  0.2115  0.4442  0.3648
  283MOL0     C38971   2.079   6.439   0.992 -0.5625  0.8150  0.2949
  283MOL0     C38972   1.948   6.414   1.022  0.8209 -0.2251  0.7000
  283MOL0     C38973   1.845   6.509   0.979  0.6147 -0.3249 -0.6783
  283MOL0     C38974   1.881   6.617   0.901 -0.2475  0.2253  0.2873
  283MOL0     O38975   1.787   6.705   0.850  0.5586 -0.6474 -0.0883
  283MOL0     C38976   1.681   6.627   0.785 -0.1959 -1.3944  0.0164
  283MOL0     C38977   1.601   6.724   0.696  0.0198 -0.1992  0.7194
  283MOL0     C38978   1.474   6.657   0.635 -0.3753  0.3157 -0.6885
  283MOL0     C38979   1.352   6.737   0.584 -0.0877  0.2241 -1.1076
  283MOL0     C38980   1.301   6.842   0.668 -0.4211  0.1772  1.4203
  283MOL0     C38981   1.248   6.911   0.748 -0.2096  0.0747 -0.8492
  283MOL0     C38982   2.008   6.639   0.866 -0.1287  0.4848 -0.0625
  283MOL0     C38983   2.114   6.562   0.913  0.6422  0.5323  0.2874
  283MOL0     C38984   2.256   6.572   0.858 -0.1900 -0.2364 -0.0325
  283MOL0     H38985   2.088   5.994   1.082 -0.7635  1.9133  1.0106
  283MOL0     H38986   2.189   5.808   1.241  0.8520  0.2961  0.1966
  283MOL0     H38987   2.275   5.944   1.576  0.4029  0.9263 -0.0899
  283MOL0     H38988   2.447   5.905   1.576 -0.3407  0.7716  0.0866
  283MOL0     H38989   2.242   5.711   1.608  0.5721 -2.5500  0.3036
  283MOL0     H38990   2.414   5.673   1.609  0.5056  1.3306  2.0376
  283MOL0     H38991   2.458   5.823   1.793 -1.6260 -0.3854  1.1485
  283MOL0     H38992   2.276   5.840   1.816 -1.1665 -1.2227 -0.1704
  283MOL0     H38993   2.298   5.572   1.825 -1.8597  1.1173  2.6714
  283MOL0     H38994   2.468   5.602   1.855 -0.3866 -0.1738  0.8358
  283MOL0     H38995   2.245   5.702   2.021  0.0325 -0.6416  0.3457
  283MOL0     H38996   2.414   5.756   2.026 -0.7454  0.4289  3.0854
  283MOL0     H38997   2.306   5.481   2.105  0.9121 -0.4606 -1.2564
  283MOL0     H38998   2.468   5.511   2.090  0.6027 -1.5544  4.1575
  283MOL0     H38999   2.371   5.533   2.325 -1.6358 -0.4361 -0.0850
  283MOL0     H39000   2.279   5.670   2.258  0.1739  0.7568  0.3894
  283MOL0     H39001   2.496   5.800   2.227  1.8039 -1.1224 -1.1261
  283MOL0     H39002   2.486   5.729   2.395 -2.7480 -2.0264  0.7380
  283MOL0     H39003   2.646   5.500   2.427  0.7502  2.9638  0.5835
  283MOL0     H39004   2.939   5.470   2.422  1.2927 -0.6558 -0.8972
  283MOL0     H39005   2.986   5.449   2.255  0.3244 -0.0912  0.8379
  283MOL0     H39006   2.898   5.262   2.438  0.9267  0.6561 -0.2850
  283MOL0     H39007   2.764   5.272   2.328 -0.0122  1.8607 -0.0649
  283MOL0     H39008   3.043   5.205   2.230  0.4875  0.0267 -0.6750
  283MOL0     H39009   2.897   5.094   2.254 -1.9528  0.8069  0.0692
  283MOL0     H39010   2.775   5.225   2.101  0.1794 -1.1762 -0.0184
  283MOL0     H39011   2.907   5.335   2.075 -0.0517  0.5478  2.1201
  283MOL0     H39012   3.118   5.347   2.013  2.0256  0.7175 -0.7056
  283MOL0     H39013   3.381   5.429   1.869 -0.1869  2.5590  1.0180
  283MOL0     H39014   3.453   5.373   2.019 -0.8283  1.9651  1.5947
  283MOL0     H39015   3.294   5.471   2.003  1.0226  1.2030  1.0133
  283MOL0     H39016   3.648   5.081   1.589  0.6660 -2.3151 -3.5242
  283MOL0     H39017   3.873   5.013   1.511  0.2130  1.5176  0.9100
  283MOL0     H39018   4.037   4.892   1.442 -2.0756  1.1078  0.9161
  283MOL0     H39019   4.153   4.947   1.564 -1.1894  0.1132  2.1223
  283MOL0     H39020   4.243   4.785   1.395  0.0274  0.0125  0.2383
  283MOL0     H39021   4.260   4.722   1.566 -0.0491  3.2649  1.8642
  283MOL0     H39022   4.061   4.636   1.342 -0.3822 -0.3778  0.6992
  283MOL0     H39023   4.024   4.613   1.516 -0.8240 -2.3867 -0.1452
  283MOL0     H39024   4.214   4.481   1.553  1.1074 -1.9870 -0.7326
  283MOL0     H39025   4.297   4.523   1.411  2.1651 -2.3449  3.5290
  283MOL0     H39026   4.193   4.287   1.430 -0.1289 -0.1390  3.1651
  283MOL0     H39027   4.036   4.368   1.401  0.8070 -2.2938 -0.2055
  283MOL0     H39028   4.268   4.410   1.220  0.1528  1.7788  6.8915
  283MOL0     H39029   4.105   4.474   1.196  0.5042  0.5148  0.0761
  283MOL0     H39030   4.017   4.225   1.225  1.5217  0.4210  2.4366
  283MOL0     H39031   4.176   4.160   1.194 -2.4742 -2.7597 -3.2755
  283MOL0     H39032   4.187   4.311   0.986  0.6719 -0.7731  0.0241
  283MOL0     H39033   4.007   4.280   0.982 -0.8733 -2.7178 -0.0742
  283MOL0     H39034   3.895   4.748   1.847  2.5612  3.2733  0.5495
  283MOL0     H39035   3.663   4.811   1.918 -0.1506 -1.4535 -0.3326
  283MOL0     H39036   3.283   4.920   1.842 -3.6420 -0.8481 -0.3548
  283MOL0     H39037   3.044   4.949   1.900 -0.7283  0.8628 -3.7556
  283MOL0     H39038   2.423   6.101   1.428  0.1741 -2.1203 -0.3105
  283MOL0     H39039   2.293   6.290   1.290 -2.9503  1.1854 -2.7759
  283MOL0     H39040   1.928   6.338   1.097 -0.2615  0.5801  1.2607
  283MOL0     H39041   1.741   6.497   1.009  1.2702  1.7688  3.2048
  283MOL0     H39042   1.714   6.546   0.719  0.8185 -1.9138  1.1332
  283MOL0     H39043   1.610   6.577   0.852 -4.8913  3.2936 -0.7160
  283MOL0     H39044   1.672   6.770   0.626 -2.2432  3.2563  0.4675
  283MOL0     H39045   1.560   6.805   0.757  0.7445 -0.2043  1.2355
  283MOL0     H39046   1.494   6.582   0.558 -1.5305 -4.1012  2.8269
  283MOL0     H39047   1.430   6.589   0.709 -1.9816  1.2912 -0.7134
  283MOL0     H39048   1.271   6.668   0.562 -0.1139  0.2213 -1.0020
  283MOL0     H39049   1.374   6.782   0.486  0.0950  1.7416 -0.3964
  283MOL0     H39050   1.199   6.965   0.826  0.3607  1.2581 -1.2841
  283MOL0     H39051   2.039   6.721   0.802 -1.7391 -0.3621 -2.0773
  283MOL0     H39052   2.297   6.477   0.822  3.5802  0.9636  0.6701
  283MOL0     H39053   2.247   6.642   0.775 -0.0945  0.6317  0.6788
  283MOL0     H39054   2.335   6.616   0.920  1.2280 -1.4114 -0.9474
  284MOL0     O39055   2.951   5.372   0.509  0.2837  0.6094  0.4399
  284MOL0     C39056   2.995   5.454   0.588  0.0356  0.2756 -0.0539
  284MOL0     O39057   2.922   5.514   0.691  0.9665 -0.7160  0.0298
  284MOL0     C39058   2.807   5.460   0.731  0.7733  0.0883  0.1337
  284MOL0     C39059   2.804   5.321   0.766  0.8994 -0.1676  0.6066
  284MOL0     C39060   2.681   5.261   0.803 -0.0295  0.2486  1.0655
  284MOL0     C39061   2.563   5.336   0.810 -0.4497  0.9601 -0.3061
  284MOL0     O39062   2.443   5.266   0.827 -0.2924 -0.4013 -0.3385
  284MOL0     C39063   2.407   5.177   0.721 -0.0547 -0.1505 -0.1479
  284MOL0     C39064   2.261   5.141   0.736  0.5620 -0.0495 -0.1093
  284MOL0     C39065   2.214   5.094   0.876  0.5804  0.7922 -0.4589
  284MOL0     C39066   2.194   4.937   0.875 -0.7171  0.2430 -0.1220
  284MOL0     C39067   2.168   4.892   1.017  0.3765  0.7292  0.7439
  284MOL0     C39068   2.084   4.766   1.005  0.4526 -0.5108  0.1352
  284MOL0     C39069   2.027   4.700   1.135 -0.0201  0.9517  1.2881
  284MOL0     C39070   1.889   4.761   1.170  0.4920 -0.3879  0.6994
  284MOL0     N39071   1.887   4.910   1.204 -0.6321 -0.1580 -0.0676
  284MOL0     C39072   1.824   4.998   1.117  0.2933 -0.2656 -0.4147
  284MOL0     C39073   1.838   5.121   1.184 -0.3065  0.3360 -0.0540
  284MOL0     C39074   1.781   5.251   1.140 -0.7117  0.2582 -0.3109
  284MOL0     C39075   1.872   5.368   1.152 -0.3074  0.3912  1.1108
  284MOL0     C39076   1.985   5.352   1.049  1.2793 -0.2196  0.1653
  284MOL0     C39077   2.066   5.488   1.021  0.9966 -0.2614 -0.2354
  284MOL0     O39078   1.978   5.596   0.970  0.9370  0.1392 -0.7478
  284MOL0     C39079   2.036   5.718   0.925  0.2781  0.2717  0.0411
  284MOL0     C39080   2.168   5.745   0.924 -0.5831 -0.0907  0.1050
  284MOL0     C39081   2.214   5.860   0.863 -0.0248  0.4993  0.6308
  284MOL0     C39082   2.364   5.862   0.857 -0.7087 -0.3770 -0.0573
  284MOL0     C39083   2.133   5.959   0.805 -0.3192  0.2261  0.4910
  284MOL0     C39084   2.184   6.079   0.722  0.6212 -0.2251  0.3371
  284MOL0     O39085   2.094   6.134   0.630  0.3039  0.6390 -0.5650
  284MOL0     C39086   2.156   6.193   0.521  0.0144  0.1227 -0.4085
  284MOL0     C39087   2.120   6.321   0.500 -0.6882  1.6731 -0.3372
  284MOL0     C39088   2.178   6.402   0.405  0.0422  0.6360  0.4938
  284MOL0     C39089   2.278   6.337   0.315 -0.2061 -0.3022  0.1147
  284MOL0     O39090   2.347   6.405   0.214 -0.6619  0.3443 -0.1085
  284MOL0     C39091   2.398   6.541   0.254 -1.1090  0.9563 -0.1714
  284MOL0     C39092   2.504   6.604   0.163 -0.4377 -0.2447  0.0226
  284MOL0     C39093   2.457   6.684   0.054  0.2474  0.3309  0.6624
  284MOL0     C39094   2.571   6.757  -0.024  0.2552  0.3531  0.0633
  284MOL0     C39095   2.596   6.900   0.023  0.0587  0.0191 -0.1146
  284MOL0     C39096   2.727   6.952  -0.037 -0.2101  0.7599 -0.6285
  284MOL0     C39097   2.754   7.097   0.005  0.3428  0.2462 -0.2413
  284MOL0     C39098   2.658   7.214  -0.041  1.0135  0.1072 -0.0986
  284MOL0    Cl39099   2.670   7.378   0.050 -0.1480 -0.1898  0.3169
  284MOL0     C39100   2.298   6.197   0.327 -0.6171  0.3961 -0.5554
  284MOL0     C39101   2.239   6.130   0.430 -0.7825  1.3531  0.1638
  284MOL0     O39102   2.292   6.123   0.742 -1.0570  0.1809  0.9207
  284MOL0     C39103   1.995   5.932   0.804 -0.4611  0.4269 -0.7220
  284MOL0     C39104   1.945   5.814   0.870 -0.4424  0.3692  1.2904
  284MOL0     N39105   1.918   5.105   1.294  0.6062  0.4062 -0.7521
  284MOL0     N39106   1.939   4.979   1.305  0.2140 -0.1117 -0.0907
  284MOL0     C39107   2.576   5.473   0.800 -0.1041 -0.5513 -0.1966
  284MOL0     C39108   2.695   5.537   0.752  0.3686 -0.0555  0.5248
  284MOL0     C39109   3.144   5.485   0.587  1.0436  0.1199  0.2387
  284MOL0     C39110   3.215   5.466   0.706  0.4163  0.4722  0.1314
  284MOL0     C39111   3.348   5.498   0.704  1.0896  0.3426 -1.1571
  284MOL0     C39112   3.412   5.556   0.596  0.4669 -0.1221 -0.4828
  284MOL0     O39113   3.549   5.581   0.592 -0.4199  1.1459 -0.1380
  284MOL0     C39114   3.607   5.707   0.571 -0.8103  0.0085  0.1216
  284MOL0     C39115   3.600   5.766   0.437  0.0317  0.3518 -0.3492
  284MOL0     C39116   3.662   5.909   0.447 -0.1213  1.0739  0.2828
  284MOL0     C39117   3.630   5.998   0.323  0.6758 -0.0950 -0.0098
  284MOL0     C39118   3.715   5.968   0.202 -0.3195  0.9934 -0.0926
  284MOL0     C39119   3.773   5.958   0.094 -0.7899  0.8812 -0.2331
  284MOL0     C39120   3.342   5.569   0.484 -0.8808  0.2816 -0.1649
  284MOL0     C39121   3.211   5.533   0.477  0.4738  0.9274  0.1677
  284MOL0     C39122   3.149   5.545   0.343  0.0140 -0.1116  0.5567
  284MOL0     H39123   2.897   5.267   0.752  2.3706  1.7393  2.4175
  284MOL0     H39124   2.678   5.153   0.816 -1.5317  0.2327  0.7246
  284MOL0     H39125   2.465   5.084   0.712  0.1778  0.1868 -3.4321
  284MOL0     H39126   2.424   5.233   0.628  1.0437 -0.6546 -0.2753
  284MOL0     H39127   2.210   5.234   0.710  1.3969  0.6872  0.8240
  284MOL0     H39128   2.257   5.068   0.655  0.5727 -0.0749 -0.0872
  284MOL0     H39129   2.281   5.109   0.962 -1.6938  0.3949  1.4979
  284MOL0     H39130   2.114   5.132   0.899 -0.8003 -1.0472 -2.9049
  284MOL0     H39131   2.113   4.933   0.801 -0.0935 -0.4735 -0.7824
  284MOL0     H39132   2.271   4.881   0.821  0.7423  1.5307  0.5755
  284MOL0     H39133   2.123   4.970   1.079  3.4776  1.4901  2.2444
  284MOL0     H39134   2.264   4.881   1.067  0.1051  2.0418  1.6081
  284MOL0     H39135   2.017   4.765   0.918 -0.2016  1.1423  0.5915
  284MOL0     H39136   2.160   4.694   0.975  1.9464  0.9498  0.2700
  284MOL0     H39137   2.094   4.705   1.221 -0.1660  0.1932  1.4539
  284MOL0     H39138   2.018   4.595   1.108 -1.3910  1.6672 -1.3528
  284MOL0     H39139   1.814   4.738   1.095  0.4972  2.7494 -0.4004
  284MOL0     H39140   1.868   4.714   1.267 -0.0379  0.9583  1.2612
  284MOL0     H39141   1.767   4.972   1.028  0.7036  1.8361 -1.3597
  284MOL0     H39142   1.701   5.272   1.211 -0.7601 -1.7539  0.2897
  284MOL0     H39143   1.742   5.229   1.040  0.2532 -3.0782 -0.0777
  284MOL0     H39144   1.823   5.458   1.116 -0.7499  0.2534  1.3659
  284MOL0     H39145   1.921   5.384   1.249  0.2667 -0.4095  0.9685
  284MOL0     H39146   2.050   5.269   1.077  1.8870  0.2543  0.1865
  284MOL0     H39147   1.949   5.328   0.949  1.7464 -0.4085  0.0440
  284MOL0     H39148   2.102   5.523   1.119 -3.5845  0.9393  1.2858
  284MOL0     H39149   2.150   5.461   0.956  1.3034 -2.0380  0.8035
  284MOL0     H39150   2.239   5.673   0.964  0.9812  0.8778 -0.7939
  284MOL0     H39151   2.398   5.942   0.923 -0.6221 -2.3598  2.4450
  284MOL0     H39152   2.393   5.876   0.753  0.5766 -4.5299 -0.4330
  284MOL0     H39153   2.412   5.767   0.882  1.1010  0.4493 -0.2430
  284MOL0     H39154   2.038   6.360   0.559 -3.4061 -2.9976 -0.5465
  284MOL0     H39155   2.146   6.504   0.391  1.4796  1.1681  0.9649
  284MOL0     H39156   2.309   6.602   0.275 -2.0937 -0.1648 -0.9475
  284MOL0     H39157   2.448   6.529   0.351 -0.7252 -0.4789 -0.5232
  284MOL0     H39158   2.577   6.658   0.225  1.4411  0.9064 -2.9469
  284MOL0     H39159   2.572   6.526   0.127  0.0987 -1.5880  3.5191
  284MOL0     H39160   2.385   6.756   0.094  0.2726 -0.5354  2.3530
  284MOL0     H39161   2.416   6.614  -0.020  0.6030 -1.5331  2.1461
  284MOL0     H39162   2.537   6.753  -0.127 -0.0538 -1.8195  0.2154
  284MOL0     H39163   2.663   6.698  -0.028  1.9101  2.8246 -1.2086
  284MOL0     H39164   2.504   6.954   0.001  1.0846  2.1928  0.6536
  284MOL0     H39165   2.597   6.889   0.132 -1.5884  1.8618  0.1320
  284MOL0     H39166   2.724   6.958  -0.146  4.2844  2.3229 -0.8761
  284MOL0     H39167   2.812   6.890  -0.006  1.1744  2.1809 -1.4608
  284MOL0     H39168   2.857   7.107  -0.029  0.2356  0.1314 -0.5990
  284MOL0     H39169   2.760   7.085   0.114 -0.9383  0.4043 -0.1358
  284MOL0     H39170   2.553   7.190  -0.021  0.1698  3.3350 -0.0697
  284MOL0     H39171   2.673   7.239  -0.147  0.3904  2.0861  0.2476
  284MOL0     H39172   2.360   6.128   0.270 -0.1266 -2.3715  3.0023
  284MOL0     H39173   2.262   6.024   0.442  2.0825  1.8457 -0.2134
  284MOL0     H39174   1.932   6.002   0.751 -1.9761 -0.4063 -0.0701
  284MOL0     H39175   1.840   5.790   0.881 -0.0493 -1.8608  0.7073
  284MOL0     H39176   2.496   5.547   0.799  0.4098  0.0341 -1.9921
  284MOL0     H39177   2.696   5.645   0.749 -0.3060 -0.0578 -0.3046
  284MOL0     H39178   3.181   5.428   0.801 -0.3054  1.9934  0.5135
  284MOL0     H39179   3.408   5.474   0.792 -1.0716 -1.3348 -0.0266
  284MOL0     H39180   3.552   5.775   0.637  1.9712  0.0532  2.6807
  284MOL0     H39181   3.708   5.690   0.611 -0.6033 -2.7551 -1.3507
  284MOL0     H39182   3.497   5.767   0.399 -2.0469 -1.6089  4.3744
  284MOL0     H39183   3.657   5.699   0.373  1.7600  1.2895  0.1681
  284MOL0     H39184   3.611   5.951   0.534  1.7264  0.2670  1.8112
  284MOL0     H39185   3.770   5.906   0.463 -0.4299  0.3329  2.6655
  284MOL0     H39186   3.644   6.102   0.352 -3.5067  0.7437 -0.2689
  284MOL0     H39187   3.523   5.984   0.300  0.8062 -1.5451  0.1461
  284MOL0     H39188   3.822   5.945  -0.000 -0.6194 -0.9496  0.0741
  284MOL0     H39189   3.391   5.610   0.396  1.4278 -0.8241  0.5083
  284MOL0     H39190   3.100   5.451   0.316 -1.7024  0.5231  1.3672
  284MOL0     H39191   3.082   5.631   0.338  1.6562  1.4918  3.3824
  284MOL0     H39192   3.224   5.564   0.265  3.6488 -3.0344  3.0122
  285MOL0     O39193   0.439   5.914   8.149  0.4643 -0.2501  0.1191
  285MOL0     C39194   0.333   5.900   8.091  1.0810  0.3812 -0.0796
  285MOL0     O39195   0.220   5.834   8.133 -0.5673  0.6317  0.3919
  285MOL0     C39196   0.225   5.728   8.218  0.1467  0.4422 -0.4275
  285MOL0     C39197   0.111   5.689   8.287 -0.5035 -0.1271  0.1631
  285MOL0     C39198   0.110   5.579   8.367  0.1078  0.6232  1.1244
  285MOL0     C39199   0.229   5.503   8.378  0.8586  0.1356 -1.2056
  285MOL0     O39200   0.208   5.396   8.462  0.4104 -0.2194 -0.0212
  285MOL0     C39201   0.299   5.381   8.567  0.2235  0.5878 -0.3603
  285MOL0     C39202   0.261   5.253   8.637 -0.8352 -0.1314 -0.0525
  285MOL0     C39203   0.351   5.224   8.761 -0.3001  0.2819 -0.3019
  285MOL0     C39204   0.312   5.082   8.817 -0.0751 -0.0837  0.8912
  285MOL0     C39205   0.417   5.027   8.917 -0.4714  0.6280 -0.4962
  285MOL0     C39206   0.439   5.091   9.050  0.1924 -0.4043  0.7326
  285MOL0     C39207   0.314   5.125   9.129  0.5453 -0.7669  0.7308
  285MOL0     C39208   0.223   5.003   9.154  0.6073 -0.0026 -0.1127
  285MOL0     N39209   0.095   5.055   9.201  0.3298  0.0431  0.0913
  285MOL0     C39210   0.044   5.048   9.335  0.7889 -0.5187  0.5638
  285MOL0     C39211  -0.075   5.108   9.320  0.4047  0.2511  0.0157
  285MOL0     C39212  -0.156   5.168   9.428  0.5947 -0.1063  0.0479
  285MOL0     C39213  -0.228   5.062   9.512 -0.1113 -0.0935 -0.1587
  285MOL0     C39214  -0.354   5.011   9.448  0.0400 -0.4320  0.2199
  285MOL0     C39215  -0.383   4.875   9.504  0.3341  0.2142 -0.4960
  285MOL0     O39216  -0.425   4.884   9.642  0.4873 -0.2225  0.4558
  285MOL0     C39217  -0.354   4.816   9.735  0.0954  0.0384  0.6171
  285MOL0     C39218  -0.312   4.881   9.850  0.0997 -0.4591 -0.6103
  285MOL0     C39219  -0.245   4.802   9.945 -0.5186  0.5526  0.0979
  285MOL0     C39220  -0.216   4.881  10.073  0.2445  0.0884 -0.7114
  285MOL0     C39221  -0.205   4.670   9.924 -0.2727  0.3452  0.4496
  285MOL0     C39222  -0.115   4.588  10.018  1.0226 -0.0730 -0.8878
  285MOL0     O39223  -0.032   4.660  10.098 -0.1000  0.1095  0.0092
  285MOL0     C39224   0.075   4.609  10.163  0.6592 -1.2719 -0.3729
  285MOL0     C39225   0.196   4.657  10.115 -0.9086  0.7134  0.7024
  285MOL0     C39226   0.310   4.624  10.177  0.8708 -1.6950  0.3285
  285MOL0     C39227   0.310   4.554  10.293 -0.1324  0.2751 -0.0980
  285MOL0     O39228   0.437   4.509  10.337  0.8306 -0.4367  0.6021
  285MOL0     C39229   0.439   4.430  10.463  0.0003  0.1744 -0.0921
  285MOL0     C39230   0.576   4.422  10.526  0.4712  0.3075  0.3071
  285MOL0     C39231   0.622   4.277  10.535  0.0346  0.0407  0.2953
  285MOL0     C39232   0.760   4.274  10.611  0.0019  0.2350 -0.2557
  285MOL0     C39233   0.803   4.132  10.636  0.5360  0.1041 -0.1693
  285MOL0     C39234   0.919   4.122  10.739  0.1958  0.0442 -1.0939
  285MOL0     C39235   0.960   3.978  10.765 -0.5733  0.2157  0.5814
  285MOL0     C39236   1.005   3.938  10.907  0.6525 -0.2902  0.6714
  285MOL0    Cl39237   0.857   3.960  11.022 -0.2854 -0.2353 -0.3524
  285MOL0     C39238   0.191   4.500  10.338 -0.1210  0.1172  0.5376
  285MOL0     C39239   0.069   4.523  10.280  0.0936 -1.2035  0.6546
  285MOL0     O39240  -0.110   4.463  10.008  0.0191 -0.2924 -0.3047
  285MOL0     C39241  -0.267   4.608   9.807  0.5932  0.3011 -0.4709
  285MOL0     C39242  -0.340   4.679   9.714 -0.7981  0.8511  0.5008
  285MOL0     N39243  -0.103   5.137   9.188  0.5779  1.0521 -0.0655
  285MOL0     N39244   0.002   5.114   9.119 -0.4878 -0.4093  0.0298
  285MOL0     C39245   0.344   5.531   8.312 -0.3357  0.2741  0.7990
  285MOL0     C39246   0.349   5.650   8.240  0.9852  0.1829 -0.4291
  285MOL0     C39247   0.321   5.972   7.966 -0.0678  0.5422  0.1102
  285MOL0     C39248   0.235   6.076   7.958 -1.0840 -0.9938  1.2832
  285MOL0     C39249   0.234   6.157   7.847 -0.4762 -1.3984 -0.0154
  285MOL0     C39250   0.326   6.138   7.738 -0.2317 -0.0780  0.2360
  285MOL0     O39251   0.341   6.217   7.624 -0.9372  0.1726 -0.1990
  285MOL0     C39252   0.308   6.356   7.624 -0.4427 -0.1877  0.7495
  285MOL0     C39253   0.391   6.420   7.515  0.2006 -0.3488 -0.0820
  285MOL0     C39254   0.321   6.375   7.392 -0.7387 -0.3424  0.3828
  285MOL0     C39255   0.339   6.471   7.271  0.5579 -0.4235 -0.7816
  285MOL0     C39256   0.270   6.596   7.280 -0.3204 -0.7535  0.5429
  285MOL0     C39257   0.214   6.697   7.306  0.1919 -0.2273  0.3347
  285MOL0     C39258   0.407   6.025   7.750 -0.5783  0.5616  0.4081
  285MOL0     C39259   0.415   5.941   7.863 -0.1011 -1.1594  0.1467
  285MOL0     C39260   0.516   5.836   7.863 -0.4469  0.0302  0.3970
  285MOL0     H39261   0.017   5.743   8.281 -1.6590 -1.8146  1.8568
  285MOL0     H39262   0.024   5.538   8.420  2.1731 -0.8070  3.6033
  285MOL0     H39263   0.281   5.469   8.630 -2.2747 -0.7705  0.9882
  285MOL0     H39264   0.398   5.371   8.522  0.7162  3.5431 -0.1162
  285MOL0     H39265   0.156   5.260   8.665 -1.8229 -1.1296 -3.0467
  285MOL0     H39266   0.264   5.165   8.572  1.7235 -0.9689  1.0540
  285MOL0     H39267   0.458   5.215   8.738 -0.6010 -1.1129 -1.2730
  285MOL0     H39268   0.349   5.298   8.842  0.4617 -0.6686  0.6133
  285MOL0     H39269   0.213   5.080   8.864 -0.4032 -1.6124  0.1976
  285MOL0     H39270   0.314   5.004   8.740  1.7092  0.4873  0.3165
  285MOL0     H39271   0.516   5.019   8.871  0.7062 -1.1141  2.0795
  285MOL0     H39272   0.382   4.925   8.938 -0.7061  0.9879  0.9800
  285MOL0     H39273   0.506   5.022   9.103  3.5357  1.7433 -0.3666
  285MOL0     H39274   0.499   5.180   9.031 -0.6609  0.0603  0.1663
  285MOL0     H39275   0.261   5.209   9.084 -0.4574 -1.4618  0.5723
  285MOL0     H39276   0.340   5.157   9.230 -1.2230 -1.7859  1.5505
  285MOL0     H39277   0.203   4.946   9.063  0.1352 -1.1953  0.7036
  285MOL0     H39278   0.275   4.933   9.221  1.6620 -1.4432 -2.3429
  285MOL0     H39279   0.098   5.027   9.427  2.6873 -2.0848 -0.8180
  285MOL0     H39280  -0.225   5.239   9.382 -1.4042 -1.6095  0.5731
  285MOL0     H39281  -0.088   5.227   9.491 -0.5932  1.5275 -0.1367
  285MOL0     H39282  -0.152   4.987   9.533  2.6376  1.9507 -2.0156
  285MOL0     H39283  -0.257   5.112   9.605 -3.3433 -0.9227 -0.6013
  285MOL0     H39284  -0.440   5.075   9.464 -0.7706 -1.1712 -1.0077
  285MOL0     H39285  -0.335   4.989   9.342  0.2129  0.5742  0.0371
  285MOL0     H39286  -0.451   4.818   9.440  1.4744 -0.2746 -1.3094
  285MOL0     H39287  -0.288   4.822   9.495  0.3834 -1.0943  4.7080
  285MOL0     H39288  -0.321   4.988   9.868 -0.0555 -0.5943  0.1640
  285MOL0     H39289  -0.115   4.921  10.081  1.0274 -2.0397  1.2981
  285MOL0     H39290  -0.230   4.822  10.164  2.2665  1.9541  0.8981
  285MOL0     H39291  -0.285   4.965  10.085  0.8033  0.5624 -0.7933
  285MOL0     H39292   0.187   4.704  10.018  0.9526 -1.6349 -0.7280
  285MOL0     H39293   0.402   4.661  10.134  0.3062 -2.7429 -1.9533
  285MOL0     H39294   0.372   4.465  10.542 -0.4223 -3.4563  1.3639
  285MOL0     H39295   0.407   4.327  10.443  1.0391 -0.4178  1.1645
  285MOL0     H39296   0.637   4.495  10.472 -3.0087  2.5693 -0.9122
  285MOL0     H39297   0.570   4.461  10.627  3.3088  0.3539  0.5238
  285MOL0     H39298   0.626   4.239  10.433 -0.8158 -1.8408  0.9180
  285MOL0     H39299   0.546   4.222  10.591  1.7853 -1.9185  0.8320
  285MOL0     H39300   0.754   4.328  10.707 -1.6323  0.5100 -0.4801
  285MOL0     H39301   0.842   4.323  10.559  2.1474 -1.3190  1.4664
  285MOL0     H39302   0.715   4.080  10.674  1.9199  0.3887  3.9216
  285MOL0     H39303   0.848   4.096  10.544  0.5115  3.2157 -1.5395
  285MOL0     H39304   0.896   4.167  10.836  2.3630 -0.1842 -0.4170
  285MOL0     H39305   1.004   4.184  10.708  1.3599  0.0249  1.6845
  285MOL0     H39306   1.048   3.958  10.704 -2.3628 -2.1923 -1.4204
  285MOL0     H39307   0.891   3.901  10.730 -0.3918 -0.7727  2.3122
  285MOL0     H39308   1.077   4.013  10.940  1.3943 -0.9161  0.4948
  285MOL0     H39309   1.055   3.842  10.924 -0.7788 -0.6459  3.3432
  285MOL0     H39310   0.191   4.444  10.430 -0.5036  0.6960  0.8981
  285MOL0     H39311  -0.022   4.484  10.324 -0.5503 -0.1704  0.2822
  285MOL0     H39312  -0.251   4.503   9.787  1.1284  0.3927 -0.5326
  285MOL0     H39313  -0.377   4.626   9.626  0.2596  0.4589  0.2810
  285MOL0     H39314   0.432   5.467   8.314  2.4232  3.7963  2.0154
  285MOL0     H39315   0.443   5.668   8.188 -0.2852 -0.4648 -3.1798
  285MOL0     H39316   0.173   6.099   8.044  0.3210  0.6119  1.9232
  285MOL0     H39317   0.180   6.251   7.840  1.3897 -0.1878  0.9494
  285MOL0     H39318   0.203   6.387   7.623 -0.6921 -1.0366  0.4165
  285MOL0     H39319   0.350   6.404   7.713  0.6156  1.1027 -0.4046
  285MOL0     H39320   0.499   6.407   7.509  0.3663  1.4282 -2.0675
  285MOL0     H39321   0.382   6.529   7.521  4.1016  0.1280 -0.4380
  285MOL0     H39322   0.375   6.285   7.360 -2.2689 -1.2671  0.3284
  285MOL0     H39323   0.216   6.357   7.415 -0.2940 -1.7622  1.4326
  285MOL0     H39324   0.306   6.413   7.185 -0.6248 -1.8291  0.5685
  285MOL0     H39325   0.442   6.509   7.264 -0.1757  1.3734 -3.5778
  285MOL0     H39326   0.166   6.786   7.340  1.1583  0.1748  0.6885
  285MOL0     H39327   0.478   6.020   7.668  0.6678 -0.3765  1.5014
  285MOL0     H39328   0.617   5.861   7.895 -0.9913  0.6283  1.7203
  285MOL0     H39329   0.491   5.754   7.930  0.7765  0.3685  1.3042
  285MOL0     H39330   0.516   5.796   7.762 -0.0511 -0.8170  0.7256
  286MOL0     O39331   1.926  11.365   2.821 -0.3337  0.0549  0.9805
  286MOL0     C39332   2.015  11.328   2.741 -0.6300 -0.6872 -0.3793
  286MOL0     O39333   1.994  11.288   2.616  0.0913 -0.5583 -0.3054
  286MOL0     C39334   1.866  11.288   2.569  0.7018 -0.3062 -0.5684
  286MOL0     C39335   1.780  11.186   2.620 -0.2515 -0.7071  0.2060
  286MOL0     C39336   1.651  11.175   2.564 -0.4713 -1.1684 -0.4910
  286MOL0     C39337   1.619  11.227   2.438  1.0809 -0.2685  0.4894
  286MOL0     O39338   1.503  11.181   2.386  0.0984 -0.0177  0.3332
  286MOL0     C39339   1.495  11.169   2.251 -0.4321 -0.1406 -1.0127
  286MOL0     C39340   1.366  11.107   2.212 -0.6799 -0.3826 -0.6413
  286MOL0     C39341   1.351  11.089   2.063 -0.2345  0.1738  1.8535
  286MOL0     C39342   1.222  11.029   2.018  0.5739 -0.1360  0.4227
  286MOL0     C39343   1.180  10.894   2.063 -0.1646 -0.4873  0.1830
  286MOL0     C39344   1.044  10.851   1.996  0.0774 -0.2780 -0.6421
  286MOL0     C39345   1.027  10.699   2.029  0.1640 -0.1686 -0.3997
  286MOL0     C39346   0.888  10.668   1.979  0.4102  0.3907  0.6391
  286MOL0     N39347   0.850  10.522   1.994  0.4056 -0.8933 -0.0691
  286MOL0     C39348   0.888  10.428   1.904 -0.9175 -0.2341  0.3808
  286MOL0     C39349   0.841  10.311   1.955  0.1200 -0.5611  0.5445
  286MOL0     C39350   0.837  10.177   1.894 -0.4844 -0.1454  1.1745
  286MOL0     C39351   0.940  10.156   1.781 -0.2068  0.0605  0.5527
  286MOL0     C39352   0.952  10.007   1.741 -0.1860 -0.5150  0.0779
  286MOL0     C39353   0.837   9.967   1.653 -0.7698 -0.4560 -0.4067
  286MOL0     O39354   0.831   9.821   1.620 -0.7412  0.5316  1.1339
  286MOL0     C39355   0.939   9.768   1.556  0.1896  0.1064  0.4295
  286MOL0     C39356   0.977   9.640   1.587  0.8055  0.2908  0.0723
  286MOL0     C39357   1.086   9.576   1.525 -0.7141 -0.9341 -0.1537
  286MOL0     C39358   1.122   9.441   1.568 -0.3452  0.2713  0.5164
  286MOL0     C39359   1.152   9.643   1.415  0.2100  0.0319  0.1152
  286MOL0     C39360   1.241   9.583   1.313  0.1121  0.3795 -0.5229
  286MOL0     O39361   1.244   9.443   1.299  0.4626  0.4771 -0.1757
  286MOL0     C39362   1.346   9.369   1.244 -0.9179 -0.7853 -0.1261
  286MOL0     C39363   1.483   9.414   1.249 -0.1778 -0.5874 -0.2384
  286MOL0     C39364   1.588   9.338   1.205  0.9400  0.1194 -0.4427
  286MOL0     C39365   1.556   9.218   1.132  0.9450 -0.0950  0.4756
  286MOL0     O39366   1.648   9.129   1.071  0.2517  0.3221 -0.0139
  286MOL0     C39367   1.792   9.175   1.067  1.0352 -0.7751 -0.7196
  286MOL0     C39368   1.820   9.295   0.968  0.1437  0.0620 -0.7590
  286MOL0     C39369   1.773   9.262   0.821  0.0091 -0.0357  0.2207
  286MOL0     C39370   1.875   9.187   0.734  0.3532 -0.3325 -0.2222
  286MOL0     C39371   1.829   9.179   0.592  0.2089  1.0022 -0.9418
  286MOL0     C39372   1.703   9.092   0.569 -0.8016 -0.2302  1.0826
  286MOL0     C39373   1.703   8.946   0.623  0.2347 -0.2495 -0.2829
  286MOL0     C39374   1.602   8.850   0.567  0.2332 -0.1736 -0.4061
  286MOL0    Cl39375   1.439   8.931   0.551  0.1820 -0.1868  0.6758
  286MOL0     C39376   1.423   9.170   1.131 -0.8133 -0.5538  0.0508
  286MOL0     C39377   1.320   9.250   1.180 -0.2786 -0.5726 -0.3503
  286MOL0     O39378   1.302   9.654   1.234  0.2153  0.4342 -0.1765
  286MOL0     C39379   1.112   9.772   1.383  0.3067  0.0983 -0.3691
  286MOL0     C39380   1.006   9.835   1.452  0.7230  0.2763 -1.2196
  286MOL0     N39381   0.775  10.330   2.070  0.1441  0.6183 -0.3016
  286MOL0     N39382   0.773  10.459   2.089 -0.0298  0.1577  0.4493
  286MOL0     C39383   1.710  11.312   2.382 -0.3246  0.3761 -1.7341
  286MOL0     C39384   1.824  11.350   2.454  0.7367  0.7917 -0.5695
  286MOL0     C39385   2.155  11.338   2.786 -0.7745  1.1755 -1.2617
  286MOL0     C39386   2.247  11.390   2.699  0.5477  0.4417 -0.3925
  286MOL0     C39387   2.374  11.430   2.735  0.5087  0.4504  0.2372
  286MOL0     C39388   2.427  11.392   2.860 -0.0362  0.0539 -0.2971
  286MOL0     O39389   2.561  11.408   2.882  0.1192 -0.7577  0.7181
  286MOL0     C39390   2.625  11.330   2.986  0.3619 -0.1852 -0.0748
  286MOL0     C39391   2.635  11.386   3.125 -0.9651  0.1261 -0.3742
  286MOL0     C39392   2.685  11.286   3.240  0.4691  0.0082  0.6577
  286MOL0     C39393   2.698  11.347   3.384 -0.0080 -0.9084  0.2084
  286MOL0     C39394   2.794  11.452   3.397 -1.3530 -0.4699  0.4281
  286MOL0     C39395   2.884  11.529   3.409  0.8380 -0.0605  0.1951
  286MOL0     C39396   2.335  11.331   2.947  0.8366 -0.0874  0.6363
  286MOL0     C39397   2.199  11.301   2.913  0.1349 -0.4347 -0.9234
  286MOL0     C39398   2.109  11.218   3.004 -0.8229 -0.8807  0.5037
  286MOL0     H39399   1.813  11.110   2.691  0.6447 -0.3461  0.1864
  286MOL0     H39400   1.590  11.094   2.605 -0.0438 -1.7803 -1.0387
  286MOL0     H39401   1.579  11.116   2.205 -1.1473 -0.3698 -2.1020
  286MOL0     H39402   1.490  11.271   2.214 -0.3217  0.1904 -0.1363
  286MOL0     H39403   1.345  11.017   2.270  2.4589 -1.5199 -1.0660
  286MOL0     H39404   1.291  11.176   2.252  2.1732  2.7672 -0.2354
  286MOL0     H39405   1.367  11.185   2.013 -3.7803 -0.4108 -0.8240
  286MOL0     H39406   1.432  11.023   2.030  2.1178  2.0585  3.5564
  286MOL0     H39407   1.144  11.102   2.040 -1.0379 -1.0480 -1.9120
  286MOL0     H39408   1.227  11.023   1.909  1.6446  0.4018  0.4201
  286MOL0     H39409   1.167  10.887   2.172  1.3353 -1.3031  0.3403
  286MOL0     H39410   1.271  10.837   2.046  2.4362  2.6849  2.1001
  286MOL0     H39411   0.956  10.909   2.025  1.6428  0.5213  3.0730
  286MOL0     H39412   1.041  10.866   1.887 -0.5339 -4.1374 -1.3285
  286MOL0     H39413   1.028  10.675   2.136 -0.6519  1.6653  0.0673
  286MOL0     H39414   1.101  10.635   1.981  0.6666 -1.0545  1.4812
  286MOL0     H39415   0.808  10.716   2.035 -1.1512 -1.9643  0.5928
  286MOL0     H39416   0.880  10.691   1.872 -2.8153 -0.3828  0.6068
  286MOL0     H39417   0.942  10.447   1.812  0.2865 -0.9262  0.9090
  286MOL0     H39418   0.738  10.144   1.861  0.4605 -2.2581  0.2577
  286MOL0     H39419   0.864  10.103   1.970 -1.4728 -1.3897  0.3519
  286MOL0     H39420   0.916  10.218   1.694  1.0746  0.7605  0.6779
  286MOL0     H39421   1.038  10.191   1.815  0.8083  0.0938 -2.1641
  286MOL0     H39422   1.047   9.987   1.691  1.9947  4.4130  1.5767
  286MOL0     H39423   0.931   9.940   1.825 -4.4991 -2.0079 -1.9328
  286MOL0     H39424   0.742   9.990   1.703  0.2215  1.7616  0.5372
  286MOL0     H39425   0.846  10.025   1.561  1.0144 -3.3960 -2.2670
  286MOL0     H39426   0.925   9.604   1.675 -1.8970  2.0639 -0.6686
  286MOL0     H39427   1.230   9.440   1.582 -0.0084  2.7050 -1.2650
  286MOL0     H39428   1.089   9.361   1.502  2.0760 -1.0478  0.7986
  286MOL0     H39429   1.074   9.428   1.665  1.0757  0.6980  1.3017
  286MOL0     H39430   1.514   9.505   1.299  1.2140  0.1501 -2.2605
  286MOL0     H39431   1.688   9.376   1.218  0.9997  0.6826 -2.1988
  286MOL0     H39432   1.814   9.206   1.169 -0.1365 -1.6115 -0.1934
  286MOL0     H39433   1.858   9.088   1.052 -0.0845 -2.3295  2.4023
  286MOL0     H39434   1.768   9.388   0.992  0.8107  0.5087 -1.0134
  286MOL0     H39435   1.923   9.332   0.977 -0.6913  1.9569  2.2666
  286MOL0     H39436   1.765   9.364   0.783 -1.8252  1.1739  3.4607
  286MOL0     H39437   1.676   9.214   0.811 -1.1083  2.3469 -1.1496
  286MOL0     H39438   1.900   9.089   0.775  0.3365  0.0841  0.8158
  286MOL0     H39439   1.971   9.238   0.735 -0.2984  1.0277 -1.7381
  286MOL0     H39440   1.793   9.276   0.555 -3.4656 -0.8162 -2.7074
  286MOL0     H39441   1.909   9.132   0.535  1.1478  0.3711  0.8240
  286MOL0     H39442   1.688   9.080   0.461  0.5538 -0.5156  0.9121
  286MOL0     H39443   1.617   9.144   0.613 -0.8687 -1.0058  1.8923
  286MOL0     H39444   1.692   8.958   0.731 -1.6006 -0.6884 -0.3896
  286MOL0     H39445   1.800   8.900   0.604  0.1526 -0.9856  0.9806
  286MOL0     H39446   1.589   8.761   0.629  1.4201  0.5013  0.8715
  286MOL0     H39447   1.618   8.829   0.461 -0.9064  3.0935 -1.3382
  286MOL0     H39448   1.389   9.077   1.086 -1.2769  0.6580 -2.2206
  286MOL0     H39449   1.227   9.196   1.192  0.9821 -2.4416  1.9216
  286MOL0     H39450   1.146   9.825   1.295 -0.7532 -2.2155 -2.3035
  286MOL0     H39451   0.972   9.931   1.414 -1.7890 -0.4371 -0.9642
  286MOL0     H39452   1.693  11.361   2.287  0.1096  2.8554 -0.6163
  286MOL0     H39453   1.892  11.431   2.433  2.3504 -0.1074  0.8756
  286MOL0     H39454   2.210  11.419   2.601 -0.5365  0.7207  0.0776
  286MOL0     H39455   2.424  11.478   2.651  1.2771 -1.3822 -0.3897
  286MOL0     H39456   2.582  11.230   2.993 -0.1663  0.1358  2.7506
  286MOL0     H39457   2.731  11.321   2.961  1.1760  1.5506  2.3283
  286MOL0     H39458   2.550  11.435   3.173  0.1192 -0.2607  2.0987
  286MOL0     H39459   2.705  11.470   3.125  0.2744 -0.8636  0.2907
  286MOL0     H39460   2.615  11.203   3.255  0.4469 -0.0515  0.2313
  286MOL0     H39461   2.776  11.231   3.213  0.4149 -1.2294  2.7319
  286MOL0     H39462   2.723  11.278   3.465  2.6086 -0.8503 -0.4748
  286MOL0     H39463   2.597  11.388   3.400  0.2685  0.4453 -1.1717
  286MOL0     H39464   2.975  11.587   3.411  0.6648  0.1935  0.7065
  286MOL0     H39465   2.367  11.285   3.040 -1.0467 -0.4022  1.1740
  286MOL0     H39466   2.053  11.280   3.074 -0.0982 -1.3065  1.4895
  286MOL0     H39467   2.051  11.142   2.951 -2.6514  0.0009  1.1398
  286MOL0     H39468   2.156  11.161   3.085 -0.1392 -1.7759 -0.4959
  287MOL0     O39469   3.992   3.066   6.780  0.2731  0.8558 -0.1230
  287MOL0     C39470   4.061   3.029   6.872 -0.3294  0.1358  0.5889
  287MOL0     O39471   4.194   3.058   6.886 -0.2537  0.0867 -0.4469
  287MOL0     C39472   4.260   3.160   6.821  0.0074  0.4897  0.2655
  287MOL0     C39473   4.371   3.137   6.734  0.9910  1.0862 -0.0116
  287MOL0     C39474   4.429   3.244   6.671  0.2839 -0.3706  1.1894
  287MOL0     C39475   4.386   3.375   6.677  0.4236  0.0451 -0.2952
  287MOL0     O39476   4.455   3.489   6.631  0.5955  0.7546  0.0974
  287MOL0     C39477   4.586   3.460   6.585  0.6755 -0.1589  0.1003
  287MOL0     C39478   4.627   3.586   6.533 -0.3477 -0.8559  0.8976
  287MOL0     C39479   4.560   3.621   6.402 -1.2800 -0.4116 -0.0650
  287MOL0     C39480   4.639   3.718   6.317 -0.5693  0.4879  0.3679
  287MOL0     C39481   4.682   3.848   6.379  1.3755 -0.0203  1.0107
  287MOL0     C39482   4.707   3.953   6.264 -0.2269  0.0807 -0.5076
  287MOL0     C39483   4.848   3.938   6.204 -0.2581  0.3249 -0.1296
  287MOL0     C39484   4.894   4.047   6.102 -0.0096  0.0429 -0.3962
  287MOL0     N39485   4.991   3.996   6.005 -0.4936 -0.1217  0.0590
  287MOL0     C39486   5.118   3.961   6.043  0.1203  0.1248 -0.0235
  287MOL0     C39487   5.177   3.965   5.917 -0.0515 -0.5460  0.2831
  287MOL0     C39488   5.321   3.925   5.909 -0.3260  0.7507 -1.0325
  287MOL0     C39489   5.336   3.780   5.856  0.7500 -0.6199  0.4905
  287MOL0     C39490   5.282   3.668   5.944  0.0339 -0.2975  0.7145
  287MOL0     C39491   5.319   3.528   5.896 -0.2645 -0.6595  0.0622
  287MOL0     O39492   5.284   3.430   5.999 -0.6784 -0.1268  1.2682
  287MOL0     C39493   5.162   3.438   6.062  0.6220 -0.3944 -0.5169
  287MOL0     C39494   5.163   3.482   6.191  0.2313 -0.6736 -0.4389
  287MOL0     C39495   5.051   3.445   6.281 -0.6796 -0.8822 -0.6907
  287MOL0     C39496   5.067   3.492   6.428  0.3520  0.5602 -0.5182
  287MOL0     C39497   4.937   3.380   6.226 -0.0563 -0.3326  0.5383
  287MOL0     C39498   4.820   3.327   6.300 -0.2201  0.3515  0.7594
  287MOL0     O39499   4.703   3.317   6.231 -0.2903 -0.0004 -0.1606
  287MOL0     C39500   4.599   3.228   6.273  0.1038 -0.3745 -0.0861
  287MOL0     C39501   4.471   3.272   6.279  0.0947 -0.0104 -0.4275
  287MOL0     C39502   4.362   3.186   6.314 -0.1351 -0.0761  1.0139
  287MOL0     C39503   4.386   3.053   6.348 -0.1114 -0.0494  0.4795
  287MOL0     O39504   4.276   2.975   6.374 -0.3792  1.2168  0.4701
  287MOL0     C39505   4.292   2.833   6.326  0.6957 -0.2727  0.0258
  287MOL0     C39506   4.151   2.761   6.304  0.7512  0.4588  0.8170
  287MOL0     C39507   4.056   2.770   6.421  0.3357 -0.1341 -1.0246
  287MOL0     C39508   4.099   2.683   6.543  0.0134  0.3993 -0.2248
  287MOL0     C39509   3.992   2.696   6.658 -0.7820  0.2267  0.1771
  287MOL0     C39510   4.044   2.618   6.784 -0.1355 -0.5402 -0.3351
  287MOL0     C39511   4.132   2.498   6.755 -0.7682 -0.4414 -0.5971
  287MOL0     C39512   4.178   2.432   6.883 -0.1659  0.1663  0.5337
  287MOL0    Cl39513   4.253   2.550   7.014 -0.1920  0.2550  0.1769
  287MOL0     C39514   4.516   3.012   6.347 -0.0707  0.1221 -0.3026
  287MOL0     C39515   4.621   3.102   6.322  0.7279  0.5064  0.6099
  287MOL0     O39516   4.838   3.293   6.412 -0.3577  0.3195 -0.5833
  287MOL0     C39517   4.947   3.349   6.092 -0.1835 -0.4968 -0.4249
  287MOL0     C39518   5.056   3.376   6.015 -0.2001 -0.4792  0.1312
  287MOL0     N39519   5.086   4.003   5.820 -0.2024  0.0215  0.1609
  287MOL0     N39520   4.971   4.009   5.875 -0.5094 -1.6389  0.2828
  287MOL0     C39521   4.265   3.397   6.749  0.2939 -0.6636  0.4725
  287MOL0     C39522   4.206   3.290   6.818 -0.3418  0.9333  0.5603
  287MOL0     C39523   3.994   2.940   6.972 -0.0952  0.5072 -0.0414
  287MOL0     C39524   4.075   2.888   7.074 -0.3475 -0.4408 -0.6408
  287MOL0     C39525   4.027   2.809   7.178 -0.0707 -0.2714 -0.7478
  287MOL0     C39526   3.887   2.789   7.192  0.1779 -0.3313  0.2782
  287MOL0     O39527   3.849   2.713   7.300  0.0205 -0.3929  0.4880
  287MOL0     C39528   3.719   2.651   7.316  0.4081 -0.4983  0.2064
  287MOL0     C39529   3.704   2.523   7.224 -0.2177 -0.1920  0.4019
  287MOL0     C39530   3.808   2.417   7.253  0.0623  0.1514  0.1858
  287MOL0     C39531   3.762   2.312   7.354  0.7055 -1.0426  0.3544
  287MOL0     C39532   3.671   2.213   7.289 -0.0752  0.0635  0.3780
  287MOL0     C39533   3.606   2.134   7.222  0.1703 -0.0749 -0.9014
  287MOL0     C39534   3.805   2.854   7.093 -0.0839  0.1764 -1.0230
  287MOL0     C39535   3.859   2.921   6.982  0.9179 -0.5561  0.7322
  287MOL0     C39536   3.750   2.959   6.881  0.0480 -0.1295  0.0290
  287MOL0     H39537   4.404   3.034   6.730 -3.0107 -0.5389  2.5440
  287MOL0     H39538   4.518   3.214   6.616  0.9301  3.1044  0.1244
  287MOL0     H39539   4.603   3.391   6.502 -2.4148  1.6663 -2.2673
  287MOL0     H39540   4.644   3.424   6.671 -0.2480 -3.3284 -0.4641
  287MOL0     H39541   4.598   3.663   6.605  1.0532 -1.4785  2.1645
  287MOL0     H39542   4.735   3.587   6.516 -0.1685  2.0373  1.6195
  287MOL0     H39543   4.528   3.530   6.349 -2.9976  0.4986 -0.6742
  287MOL0     H39544   4.464   3.668   6.426  0.2845  2.7157  0.5031
  287MOL0     H39545   4.729   3.675   6.271 -1.1518 -1.1296  0.6736
  287MOL0     H39546   4.576   3.750   6.234 -2.0944  0.6589  1.5580
  287MOL0     H39547   4.767   3.837   6.448  4.2222  0.6098 -2.1020
  287MOL0     H39548   4.596   3.886   6.435 -1.6470  0.6825 -3.5649
  287MOL0     H39549   4.628   3.941   6.190 -2.0229  0.0878  1.3299
  287MOL0     H39550   4.698   4.050   6.313  0.5841 -0.8572  1.5985
  287MOL0     H39551   4.841   3.845   6.146  0.1997  1.3329 -1.8643
  287MOL0     H39552   4.927   3.920   6.278 -1.7403 -1.6608  1.0808
  287MOL0     H39553   4.806   4.090   6.054 -0.1455  0.8601  0.5475
  287MOL0     H39554   4.933   4.124   6.170 -0.7652 -2.2631  2.9168
  287MOL0     H39555   5.158   3.922   6.136 -0.9527  1.3725  1.0093
  287MOL0     H39556   5.359   3.933   6.011 -2.8939 -3.5919  0.5267
  287MOL0     H39557   5.372   3.992   5.839 -1.8021  4.3850  1.1431
  287MOL0     H39558   5.277   3.772   5.764  2.5439  0.7891 -0.8698
  287MOL0     H39559   5.442   3.773   5.829  1.1422  3.0139  0.5815
  287MOL0     H39560   5.314   3.679   6.048 -0.9622  1.7452  0.8573
  287MOL0     H39561   5.173   3.668   5.947 -0.2363 -2.4402 -2.9972
  287MOL0     H39562   5.251   3.506   5.814 -1.9865  0.2960  1.1619
  287MOL0     H39563   5.426   3.535   5.872 -0.7750  4.0298 -1.9605
  287MOL0     H39564   5.247   3.532   6.237 -1.1990  1.8182 -0.3745
  287MOL0     H39565   5.169   3.518   6.459 -0.0769 -1.6728  3.4507
  287MOL0     H39566   5.026   3.420   6.499  0.4770 -0.1259 -1.1228
  287MOL0     H39567   5.021   3.590   6.445  1.1952  0.7246  0.9499
  287MOL0     H39568   4.445   3.371   6.242  0.3824  0.3225  0.2349
  287MOL0     H39569   4.259   3.219   6.319 -0.6070 -1.4767  0.8671
  287MOL0     H39570   4.343   2.830   6.230  1.2942 -0.2402  0.3360
  287MOL0     H39571   4.349   2.772   6.398  0.3631 -0.9416 -0.2644
  287MOL0     H39572   4.104   2.802   6.214 -0.2668 -2.3268 -0.0146
  287MOL0     H39573   4.170   2.654   6.289 -3.0400 -0.0575 -2.0089
  287MOL0     H39574   3.953   2.742   6.394 -0.2305  2.0384 -1.3683
  287MOL0     H39575   4.057   2.873   6.457  0.0091 -0.6025  0.3947
  287MOL0     H39576   4.195   2.722   6.579 -0.9140  3.6828 -0.9886
  287MOL0     H39577   4.085   2.581   6.506  0.9895  1.0975 -2.7083
  287MOL0     H39578   3.980   2.803   6.676  2.3510  0.8347 -0.7423
  287MOL0     H39579   3.903   2.641   6.624  0.6751 -2.1184 -0.0753
  287MOL0     H39580   3.951   2.576   6.824 -1.1933 -0.5922 -2.6778
  287MOL0     H39581   4.095   2.678   6.860  1.3686 -3.5049  1.1700
  287MOL0     H39582   4.214   2.539   6.695  1.2995 -0.6943  1.9376
  287MOL0     H39583   4.086   2.413   6.704  1.9936 -2.4199  0.0104
  287MOL0     H39584   4.242   2.351   6.847 -2.1222 -0.6653 -1.2442
  287MOL0     H39585   4.096   2.376   6.927  1.9691 -0.4985  4.1123
  287MOL0     H39586   4.537   2.907   6.364  0.6002  0.4851  1.3584
  287MOL0     H39587   4.720   3.063   6.301  0.5235  0.2611  0.0558
  287MOL0     H39588   4.857   3.319   6.040  1.4783  0.7389 -4.4131
  287MOL0     H39589   5.061   3.349   5.909 -0.4597  1.6421 -0.4618
  287MOL0     H39590   4.219   3.494   6.765 -2.5316 -1.4204 -2.0702
  287MOL0     H39591   4.130   3.319   6.890 -0.8575 -1.4943  1.1016
  287MOL0     H39592   4.180   2.918   7.079  0.7878 -3.9717 -0.4754
  287MOL0     H39593   4.092   2.777   7.259  0.0268  0.5640 -0.4905
  287MOL0     H39594   3.702   2.622   7.420 -0.5499 -1.9918 -0.3292
  287MOL0     H39595   3.638   2.722   7.295  0.2908 -0.6063  0.2910
  287MOL0     H39596   3.721   2.565   7.124  2.8450 -0.4526  0.7182
  287MOL0     H39597   3.604   2.478   7.227 -0.4596  0.3652  0.8586
  287MOL0     H39598   3.842   2.375   7.158 -1.7841  0.3471 -0.5959
  287MOL0     H39599   3.894   2.466   7.300  0.3182  1.6035 -1.6693
  287MOL0     H39600   3.711   2.354   7.441 -1.3985 -1.6026 -0.5299
  287MOL0     H39601   3.857   2.269   7.385  0.3342 -0.9333  1.7071
  287MOL0     H39602   3.552   2.048   7.190 -0.0349 -0.0065 -0.7383
  287MOL0     H39603   3.698   2.849   7.107 -0.7288  3.1107 -3.7177
  287MOL0     H39604   3.770   3.063   6.852 -1.6840  0.1009 -0.4559
  287MOL0     H39605   3.775   2.901   6.791  0.1713 -3.5640  2.0965
  287MOL0     H39606   3.645   2.949   6.908 -0.1353  1.6188  0.0465
  288MOL0     O39607   1.891   9.709  11.511 -0.0632 -0.1547 -0.1147
  288MOL0     C39608   1.888   9.651  11.404 -0.2491 -0.6271 -0.3105
  288MOL0     O39609   1.907   9.711  11.274 -0.2191  0.1180 -0.3480
  288MOL0     C39610   1.936   9.842  11.288  0.0661  0.8439  0.3150
  288MOL0     C39611   1.844   9.945  11.265  0.9275  0.3660 -1.0524
  288MOL0     C39612   1.874  10.079  11.300 -0.0015 -0.7009  0.2328
  288MOL0     C39613   1.997  10.119  11.351  0.0859  0.0353  0.9389
  288MOL0     O39614   2.029  10.253  11.354 -0.3225 -0.1734  0.0170
  288MOL0     C39615   2.125  10.283  11.464 -0.0951 -0.1455 -0.1832
  288MOL0     C39616   2.260  10.313  11.400  0.5275  0.7146 -0.6926
  288MOL0     C39617   2.371  10.332  11.503  0.1463 -1.1145  0.0647
  288MOL0     C39618   2.417  10.199  11.537  0.0473 -0.2583 -0.4897
  288MOL0     C39619   2.537  10.218  11.630  0.0929  0.4904 -0.0757
  288MOL0     C39620   2.596  10.084  11.692 -0.4149  0.4838  0.2946
  288MOL0     C39621   2.717  10.104  11.786  0.6333  0.9965 -0.5737
  288MOL0     C39622   2.757   9.973  11.858  0.8969 -0.4327 -0.5512
  288MOL0     N39623   2.641   9.916  11.941 -0.1823  0.1552 -0.2445
  288MOL0     C39624   2.586   9.967  12.052  0.4939 -0.6544 -0.1629
  288MOL0     C39625   2.522   9.863  12.107  1.1480  0.8448  0.6930
  288MOL0     C39626   2.450   9.857  12.232  0.5546 -0.6389 -0.3703
  288MOL0     C39627   2.542   9.857  12.345 -0.3274 -0.2522 -0.5520
  288MOL0     C39628   2.459   9.931  12.460  0.1315  0.6681 -0.2466
  288MOL0     C39629   2.503   9.887  12.593 -0.6882 -0.5269 -0.0518
  288MOL0     O39630   2.394   9.916  12.676 -0.6930 -0.3253  0.0222
  288MOL0     C39631   2.380   9.857  12.800  0.4287 -0.2226 -0.0447
  288MOL0     C39632   2.259   9.885  12.864 -0.7890 -0.4006 -0.8735
  288MOL0     C39633   2.238   9.855  13.003  0.1061 -0.9449 -0.3518
  288MOL0     C39634   2.097   9.895  13.059 -0.9696  0.0383  0.3224
  288MOL0     C39635   2.344   9.791  13.077  0.9003  0.7722  0.5168
  288MOL0     C39636   2.323   9.749  13.218 -0.0263 -0.0628 -0.2438
  288MOL0     O39637   2.443   9.729  13.285 -0.5010 -0.0632 -0.5276
  288MOL0     C39638   2.456   9.720  13.418 -0.0865  0.4617 -0.4421
  288MOL0     C39639   2.542   9.627  13.463  0.0413 -0.1683  0.6219
  288MOL0     C39640   2.580   9.619  13.592 -0.6740  0.0978  0.7996
  288MOL0     C39641   2.514   9.711  13.681 -0.1670 -0.0600 -0.8811
  288MOL0     O39642   2.549   9.698  13.810  0.2915  0.0707  0.0822
  288MOL0     C39643   2.494   9.787  13.917 -0.2341 -0.2648  0.5291
  288MOL0     C39644   2.548   9.764  14.058 -0.2257 -0.1432 -0.3927
  288MOL0     C39645   2.483   9.850  14.168 -0.2407  0.5152 -0.4142
  288MOL0     C39646   2.492   9.779  14.305  0.2864 -0.3270  0.1709
  288MOL0     C39647   2.624   9.791  14.383 -0.7955 -0.1847  0.9067
  288MOL0     C39648   2.604   9.747  14.527 -0.2045 -0.6063 -0.0441
  288MOL0     C39649   2.733   9.750  14.611 -0.0118  0.2183 -0.1690
  288MOL0     C39650   2.708   9.685  14.745  0.7887  0.5880 -0.1211
  288MOL0    Cl39651   2.696   9.512  14.717  0.0067  0.0838  0.0203
  288MOL0     C39652   2.422   9.808  13.633  0.1262 -0.2144 -0.1301
  288MOL0     C39653   2.413   9.819  13.498 -0.6353  0.2802  0.3326
  288MOL0     O39654   2.210   9.731  13.266 -0.4070 -0.1163  0.2522
  288MOL0     C39655   2.458   9.758  13.008 -0.8135  0.0116 -0.4889
  288MOL0     C39656   2.478   9.796  12.875 -0.7084 -0.0373 -0.0976
  288MOL0     N39657   2.517   9.756  12.013  0.0774  0.4272 -1.2879
  288MOL0     N39658   2.606   9.784  11.924 -0.3291  0.0782 -0.0087
  288MOL0     C39659   2.096  10.010  11.368 -0.5167 -0.1101 -0.3568
  288MOL0     C39660   2.059   9.872  11.342 -0.0047  0.1803  0.4904
  288MOL0     C39661   1.866   9.507  11.415  0.5275  0.4972  0.2641
  288MOL0     C39662   1.962   9.408  11.443 -0.6991 -0.5199  0.4184
  288MOL0     C39663   1.915   9.278  11.466  0.2414  0.1954  0.7456
  288MOL0     C39664   1.780   9.243  11.455 -0.4724 -0.9716  1.0924
  288MOL0     O39665   1.748   9.111  11.495  0.1849  0.1340  0.4621
  288MOL0     C39666   1.691   9.108  11.626 -0.0565 -0.0359 -0.7623
  288MOL0     C39667   1.649   8.967  11.671  0.1200 -0.4613  1.0932
  288MOL0     C39668   1.757   8.859  11.676 -0.9893 -0.1521 -0.0353
  288MOL0     C39669   1.711   8.721  11.643  0.3155 -0.7647  1.0760
  288MOL0     C39670   1.587   8.685  11.713 -0.1576  1.0607  0.1644
  288MOL0     C39671   1.483   8.652  11.765  1.2752 -0.1430  0.1450
  288MOL0     C39672   1.682   9.341  11.417  0.0486 -0.2387  0.4492
  288MOL0     C39673   1.729   9.473  11.404 -0.5906  0.3593 -1.0845
  288MOL0     C39674   1.628   9.578  11.356 -0.1282  0.1244  0.4539
  288MOL0     H39675   1.749   9.926  11.217 -0.8614  0.4106  2.1831
  288MOL0     H39676   1.807  10.152  11.256 -0.7294 -2.6162 -1.9891
  288MOL0     H39677   2.131  10.204  11.540  0.3264  0.6724  0.6470
  288MOL0     H39678   2.085  10.370  11.516  0.3255  0.7916 -1.3911
  288MOL0     H39679   2.277  10.232  11.328 -2.2571 -1.5961  1.0437
  288MOL0     H39680   2.238  10.406  11.345 -3.4842  0.0879 -0.3992
  288MOL0     H39681   2.450  10.384  11.447  0.1406 -1.0928  0.0770
  288MOL0     H39682   2.339  10.400  11.582  5.0973  2.1813 -0.3630
  288MOL0     H39683   2.334  10.150  11.587 -1.9870  3.7277  0.4469
  288MOL0     H39684   2.446  10.148  11.444  1.0604 -1.6897  0.5742
  288MOL0     H39685   2.491  10.268  11.716  0.6790  0.0851  0.4858
  288MOL0     H39686   2.609  10.277  11.574  2.5938 -3.0897 -0.9996
  288MOL0     H39687   2.516  10.046  11.756 -0.3106 -2.7820 -1.2791
  288MOL0     H39688   2.619  10.009  11.616 -0.5204  1.2606 -0.5056
  288MOL0     H39689   2.686  10.179  11.859 -2.6137 -3.4515  3.1613
  288MOL0     H39690   2.801  10.138  11.725  1.4590 -0.6626 -0.4009
  288MOL0     H39691   2.803   9.904  11.787  0.8609  1.0737 -2.0858
  288MOL0     H39692   2.838  10.002  11.925  2.0047 -2.7273 -0.7946
  288MOL0     H39693   2.607  10.059  12.106 -5.5446  0.7576  0.5187
  288MOL0     H39694   2.374   9.779  12.231 -0.4374  0.3107 -0.4388
  288MOL0     H39695   2.391   9.949  12.233 -0.8377 -1.5002 -0.4317
  288MOL0     H39696   2.548   9.754  12.382 -3.3455  0.0552  1.1282
  288MOL0     H39697   2.640   9.903  12.333 -0.3240 -0.2408 -0.4842
  288MOL0     H39698   2.468  10.039  12.443  1.0989  0.4620 -1.1824
  288MOL0     H39699   2.350   9.918  12.455  0.2320 -1.3056  1.4637
  288MOL0     H39700   2.547   9.787  12.590  1.0567  0.1225  1.5551
  288MOL0     H39701   2.597   9.934  12.623 -1.8255  0.0258  2.9983
  288MOL0     H39702   2.191   9.941  12.800 -0.3163 -0.4731 -1.4467
  288MOL0     H39703   2.108   9.953  13.152  0.4906  1.6044 -0.7575
  288MOL0     H39704   2.045   9.801  13.079 -1.7312  0.4422  0.2642
  288MOL0     H39705   2.045   9.954  12.984  1.7329  3.8676  1.1301
  288MOL0     H39706   2.590   9.564  13.389  1.5099  2.3741 -0.7039
  288MOL0     H39707   2.652   9.546  13.626 -1.5882 -1.2017  0.0415
  288MOL0     H39708   2.514   9.885  13.873  0.9456 -2.0078 -3.3065
  288MOL0     H39709   2.385   9.781  13.925 -0.0455 -3.2175  2.4280
  288MOL0     H39710   2.542   9.657  14.084 -1.4784 -0.1601 -0.6860
  288MOL0     H39711   2.654   9.791  14.057 -0.3805  0.8035 -3.6330
  288MOL0     H39712   2.376   9.862  14.147 -0.6944  2.1671  2.3299
  288MOL0     H39713   2.522   9.952  14.165 -2.1203  1.2692 -2.9946
  288MOL0     H39714   2.450   9.678  14.301  1.2096 -0.6824 -1.4200
  288MOL0     H39715   2.423   9.840  14.364 -0.8434  0.4098 -1.8330
  288MOL0     H39716   2.707   9.736  14.339 -0.6766 -1.4107  2.5638
  288MOL0     H39717   2.645   9.898  14.386 -2.2982  0.1125  2.4891
  288MOL0     H39718   2.545   9.656  14.521 -0.9415 -0.1775  0.4815
  288MOL0     H39719   2.539   9.823  14.573  1.6648  0.1004  1.5961
  288MOL0     H39720   2.760   9.855  14.626  1.2942 -0.0902 -0.2609
  288MOL0     H39721   2.818   9.702  14.562 -0.6546  0.3815 -1.4831
  288MOL0     H39722   2.618   9.720  14.796  0.0482 -2.2819  0.7569
  288MOL0     H39723   2.786   9.709  14.817  1.0255 -1.9068  0.5664
  288MOL0     H39724   2.378   9.883  13.698  0.1372  1.1919 -1.6640
  288MOL0     H39725   2.352   9.897  13.453 -0.5016 -0.5319 -1.3205
  288MOL0     H39726   2.539   9.709  13.062 -1.1011  1.3301  1.2297
  288MOL0     H39727   2.583   9.781  12.849 -0.2111 -0.2064  1.8827
  288MOL0     H39728   2.201  10.026  11.390  0.0820  0.9014 -3.3950
  288MOL0     H39729   2.132   9.792  11.341 -2.6756 -2.4543 -0.6294
  288MOL0     H39730   2.065   9.436  11.463 -1.3442  1.0426  1.8534
  288MOL0     H39731   1.980   9.196  11.494 -1.6850 -2.3743 -1.7075
  288MOL0     H39732   1.763   9.148  11.698 -0.4295 -0.1280 -0.3368
  288MOL0     H39733   1.609   9.179  11.640  2.0016  2.0381  1.9588
  288MOL0     H39734   1.567   8.940  11.604 -1.4959  0.0728  2.7800
  288MOL0     H39735   1.595   8.977  11.765 -0.5326  3.3433  0.4711
  288MOL0     H39736   1.841   8.877  11.609 -1.2909  2.0115  0.0921
  288MOL0     H39737   1.803   8.859  11.776 -0.2891  1.2265 -0.3374
  288MOL0     H39738   1.793   8.653  11.667  2.4064  1.0221 -0.6210
  288MOL0     H39739   1.689   8.714  11.536  1.6536  0.5672  0.6957
  288MOL0     H39740   1.394   8.607  11.805  0.2465 -0.2818 -2.1081
  288MOL0     H39741   1.577   9.315  11.407 -0.3134  1.0963  0.5868
  288MOL0     H39742   1.664   9.647  11.279 -1.0530 -1.4480 -1.4812
  288MOL0     H39743   1.542   9.530  11.308  1.6160 -2.8903  0.0617
  288MOL0     H39744   1.592   9.631  11.445  1.4089  0.5325  0.8765
  289MOL0     O39745   2.972  11.225   9.585  0.7420  0.7205  0.4903
  289MOL0     C39746   3.074  11.278   9.628  0.4761 -0.1121 -0.0764
  289MOL0     O39747   3.129  11.398   9.591 -0.1233  0.8438 -0.4257
  289MOL0     C39748   3.084  11.474   9.488 -0.7201 -0.0510 -0.0816
  289MOL0     C39749   2.959  11.469   9.429  0.1088  0.7307 -0.5458
  289MOL0     C39750   2.927  11.548   9.319 -0.7171 -0.0315 -1.3656
  289MOL0     C39751   3.023  11.642   9.276  0.0640  0.3829 -2.2026
  289MOL0     O39752   2.984  11.739   9.183 -0.7457 -0.1218  0.2569
  289MOL0     C39753   2.876  11.720   9.090 -0.0041 -0.0162  0.1570
  289MOL0     C39754   2.914  11.795   8.958 -0.5031  0.2685  0.2219
  289MOL0     C39755   2.925  11.952   8.998  0.1989 -0.1596  0.5445
  289MOL0     C39756   2.931  12.041   8.875 -0.3021 -0.3248  0.1392
  289MOL0     C39757   2.935  12.186   8.920  0.0943  0.1136  0.2539
  289MOL0     C39758   2.939  12.272   8.795  0.3128 -0.3787  0.7146
  289MOL0     C39759   2.967  12.415   8.839  0.9967  0.0074  0.1665
  289MOL0     C39760   2.943  12.513   8.727 -0.3569  0.5050 -0.3207
  289MOL0     N39761   2.952  12.655   8.773  0.0369  0.1229  0.2485
  289MOL0     C39762   2.852  12.727   8.825 -0.3533 -0.2214  0.1033
  289MOL0     C39763   2.913  12.845   8.864 -0.1446 -0.0236  0.2501
  289MOL0     C39764   2.824  12.953   8.921 -0.9501 -0.0242 -0.3359
  289MOL0     C39765   2.899  13.084   8.951  0.8239 -0.6945 -0.2271
  289MOL0     C39766   2.979  13.084   9.091 -0.2983  0.4567 -0.0731
  289MOL0     C39767   2.878  13.104   9.209 -0.0317 -0.3451 -0.2519
  289MOL0     O39768   2.815  13.237   9.209  0.2713 -0.5438 -1.3179
  289MOL0     C39769   2.848  13.318   9.317 -0.3468 -0.4876 -0.3744
  289MOL0     C39770   2.971  13.333   9.379  0.1548  0.6984 -1.2525
  289MOL0     C39771   2.992  13.429   9.476 -1.0412  0.5996 -0.1445
  289MOL0     C39772   3.138  13.438   9.538 -0.5663  0.5581 -0.4944
  289MOL0     C39773   2.889  13.522   9.510  1.0819 -0.2130  0.4354
  289MOL0     C39774   2.887  13.631   9.604  0.0537  0.5729 -0.1626
  289MOL0     O39775   3.007  13.703   9.626 -0.1554  0.8123 -0.2307
  289MOL0     C39776   3.000  13.823   9.695  0.8535  0.5398 -0.5306
  289MOL0     C39777   2.926  13.846   9.808 -0.6401 -0.9240  0.1357
  289MOL0     C39778   2.914  13.967   9.870 -0.5980 -0.2190 -0.6565
  289MOL0     C39779   2.977  14.081   9.822 -0.7911 -0.6024  0.3097
  289MOL0     O39780   2.979  14.201   9.883 -0.3917 -0.2920 -0.0549
  289MOL0     C39781   2.886  14.226   9.989  0.2169  0.0682  0.2603
  289MOL0     C39782   2.867  14.374  10.006 -0.2757  0.0321 -0.0304
  289MOL0     C39783   2.750  14.404  10.098  0.6181 -1.2746 -0.1077
  289MOL0     C39784   2.695  14.552  10.092 -0.9732  0.7057  0.6950
  289MOL0     C39785   2.796  14.658  10.101  0.4717  0.3259  0.7124
  289MOL0     C39786   2.860  14.674  10.242  0.1277  0.0779  0.6498
  289MOL0     C39787   2.959  14.794  10.258 -0.3208  0.4819  0.1858
  289MOL0     C39788   3.075  14.769  10.362  0.0507  0.8871  0.2539
  289MOL0    Cl39789   3.227  14.723  10.297 -0.2685 -0.7337  0.3389
  289MOL0     C39790   3.045  14.069   9.697  0.3294  0.3130  0.4406
  289MOL0     C39791   3.069  13.940   9.641  0.1542 -0.7046  0.3288
  289MOL0     O39792   2.775  13.668   9.650 -0.4356 -0.5699 -0.5914
  289MOL0     C39793   2.775  13.508   9.437  0.3093  0.1969 -0.0007
  289MOL0     C39794   2.755  13.412   9.347 -0.2625 -0.3187 -0.5827
  289MOL0     N39795   3.049  12.842   8.842 -1.0806 -0.2625  0.0297
  289MOL0     N39796   3.064  12.729   8.770 -0.1954  0.6096 -0.1689
  289MOL0     C39797   3.148  11.652   9.340 -0.5712  0.4008 -0.2048
  289MOL0     C39798   3.180  11.564   9.446 -0.9415 -0.3484  0.6306
  289MOL0     C39799   3.139  11.217   9.748 -0.6509 -0.2062  0.8070
  289MOL0     C39800   3.256  11.285   9.807  0.1257  0.2197 -0.0921
  289MOL0     C39801   3.324  11.225   9.916  0.2179  0.5530  0.3762
  289MOL0     C39802   3.289  11.098   9.966  0.0270  0.0944  0.8051
  289MOL0     O39803   3.340  11.040  10.079  0.3958 -0.2980  0.4970
  289MOL0     C39804   3.472  11.083  10.123 -0.8461  0.0378  0.4767
  289MOL0     C39805   3.550  10.966  10.192 -0.4339 -0.1551  0.2027
  289MOL0     C39806   3.477  10.904  10.305  0.6912  1.1937  0.1581
  289MOL0     C39807   3.347  10.824  10.271 -0.3096  0.6996 -0.6677
  289MOL0     C39808   3.368  10.717  10.176  0.0435  0.3636  0.4904
  289MOL0     C39809   3.405  10.623  10.114 -0.0311 -0.1369  1.3983
  289MOL0     C39810   3.175  11.036   9.911 -0.4579 -0.2023 -0.2171
  289MOL0     C39811   3.102  11.093   9.810 -0.4587 -0.6543 -0.6426
  289MOL0     C39812   2.993  11.007   9.750  0.1251 -0.1341  0.4144
  289MOL0     H39813   2.885  11.402   9.471  2.3617 -1.1629  0.6026
  289MOL0     H39814   2.837  11.535   9.261 -0.3183  0.8112 -2.1915
  289MOL0     H39815   2.785  11.767   9.127 -2.0899 -0.9281 -3.3203
  289MOL0     H39816   2.857  11.615   9.065 -0.0311  0.3132 -1.2883
  289MOL0     H39817   2.999  11.755   8.901 -1.9211  0.6740 -2.3315
  289MOL0     H39818   2.825  11.777   8.898 -0.2826 -0.0886 -0.0052
  289MOL0     H39819   2.837  11.981   9.057  1.0231 -1.8991  2.7666
  289MOL0     H39820   3.018  11.979   9.048  1.1289 -0.3126 -1.0437
  289MOL0     H39821   3.021  12.025   8.814 -0.4498  0.9857 -0.4728
  289MOL0     H39822   2.849  12.028   8.805 -0.5034 -2.6185  0.7389
  289MOL0     H39823   3.031  12.201   8.970  1.5278  1.4064 -2.6365
  289MOL0     H39824   2.845  12.188   8.983  0.7647  1.8257  1.2219
  289MOL0     H39825   3.008  12.239   8.716 -0.9275  0.1472 -0.6268
  289MOL0     H39826   2.838  12.260   8.756  0.4525  0.5996  0.0298
  289MOL0     H39827   3.064  12.426   8.886  1.2044 -0.8876 -0.0304
  289MOL0     H39828   2.899  12.437   8.921  1.6971 -1.3473  1.1500
  289MOL0     H39829   3.029  12.480   8.668  1.8437 -0.0814  2.9535
  289MOL0     H39830   2.837  12.513   8.699 -0.5221 -1.1755  0.1690
  289MOL0     H39831   2.748  12.697   8.828  0.3678 -2.9384  2.6397
  289MOL0     H39832   2.773  12.927   9.014 -0.8937 -0.2487 -0.3692
  289MOL0     H39833   2.751  12.982   8.845 -2.4139  1.7314  1.6103
  289MOL0     H39834   2.973  13.101   8.872 -1.0006  0.0869 -1.8157
  289MOL0     H39835   2.837  13.173   8.944  0.2409 -1.1888 -1.6345
  289MOL0     H39836   3.024  12.986   9.108 -0.7576  0.2967  0.2414
  289MOL0     H39837   3.058  13.158   9.103  0.8188 -0.9062  1.4567
  289MOL0     H39838   2.796  13.034   9.227 -2.6873  3.4164  4.5463
  289MOL0     H39839   2.932  13.075   9.300 -1.1970 -2.4546 -0.1585
  289MOL0     H39840   3.059  13.276   9.350  1.8102  1.5723  1.6188
  289MOL0     H39841   3.133  13.506   9.624 -4.3161 -1.7070  1.3690
  289MOL0     H39842   3.213  13.470   9.465  0.2588 -0.1301  0.0292
  289MOL0     H39843   3.158  13.342   9.585 -0.5603  1.3661  1.2402
  289MOL0     H39844   2.887  13.772   9.877 -1.9600  2.7059  3.6775
  289MOL0     H39845   2.848  13.982   9.955  1.2800  2.3778  0.4675
  289MOL0     H39846   2.793  14.183   9.951  2.1853 -5.7536  1.1367
  289MOL0     H39847   2.904  14.173  10.083 -1.8680  0.6852  1.0879
  289MOL0     H39848   2.963  14.411  10.041  0.5789 -2.8549  0.9474
  289MOL0     H39849   2.856  14.416   9.906  0.0591  0.7777  0.2361
  289MOL0     H39850   2.778  14.390  10.203  0.5766  2.4103  0.5203
  289MOL0     H39851   2.662  14.342  10.078 -1.0521  0.8582  0.3216
  289MOL0     H39852   2.620  14.560  10.172 -0.5452 -0.5411  1.2507
  289MOL0     H39853   2.646  14.587  10.001  1.5699 -1.9992 -1.9330
  289MOL0     H39854   2.875  14.648  10.026 -1.0510  0.1167 -0.8984
  289MOL0     H39855   2.754  14.753  10.069  1.7244  1.2094  1.5814
  289MOL0     H39856   2.909  14.578  10.264 -0.2130 -0.2964 -0.1734
  289MOL0     H39857   2.785  14.695  10.319 -1.1819 -0.0358 -0.5502
  289MOL0     H39858   2.906  14.876  10.308 -1.3263 -1.5925  2.7683
  289MOL0     H39859   2.990  14.834  10.161 -1.5443  0.8512 -0.0812
  289MOL0     H39860   3.049  14.689  10.432  3.4795  0.8067  1.6470
  289MOL0     H39861   3.090  14.863  10.416  0.2011  2.1513 -1.8787
  289MOL0     H39862   3.101  14.153   9.655  0.6479 -0.6813 -1.2351
  289MOL0     H39863   3.129  13.928   9.552  2.0051  0.2384  1.3733
  289MOL0     H39864   2.690  13.576   9.446  1.8452  2.1379  0.6287
  289MOL0     H39865   2.662  13.423   9.292 -0.0846  0.0544 -0.8149
  289MOL0     H39866   3.196  11.747   9.315 -0.4474  0.4350  0.1541
  289MOL0     H39867   3.261  11.594   9.512 -1.4152  0.3083  0.9242
  289MOL0     H39868   3.286  11.382   9.771 -0.8914  0.9234  0.8770
  289MOL0     H39869   3.398  11.283   9.970  1.3283 -1.3671  0.9965
  289MOL0     H39870   3.525  11.131  10.040 -0.4928  1.2473  1.3833
  289MOL0     H39871   3.467  11.165  10.195 -0.8582  1.2528 -0.8616
  289MOL0     H39872   3.631  11.026  10.234 -1.1929  1.4731 -0.5821
  289MOL0     H39873   3.574  10.886  10.121 -1.0576 -1.0438  0.9769
  289MOL0     H39874   3.540  10.830  10.357  2.3842  2.1269 -0.4632
  289MOL0     H39875   3.438  10.979  10.374 -0.7384 -0.7464  1.5698
  289MOL0     H39876   3.262  10.887  10.243 -0.2968  2.3661  2.5621
  289MOL0     H39877   3.316  10.772  10.363  2.0586 -1.3162 -0.9140
  289MOL0     H39878   3.424  10.530  10.064 -2.7052 -0.9016  1.6206
  289MOL0     H39879   3.152  10.942   9.959  0.5672 -0.1543  0.3974
  289MOL0     H39880   3.004  10.903   9.783 -0.4650 -0.4117 -0.2454
  289MOL0     H39881   2.891  11.040   9.770 -0.2590 -0.8436 -0.3057
  289MOL0     H39882   3.003  10.996   9.642  3.1939  5.0346 -0.1692
  290MOL0     O39883   3.878   5.725   6.822  0.2355 -0.0091 -1.1566
  290MOL0     C39884   3.761   5.706   6.801  0.4487  0.1253 -1.0908
  290MOL0     O39885   3.684   5.598   6.845 -1.0212  0.8121  0.1823
  290MOL0     C39886   3.759   5.492   6.882  0.1978  0.0053 -0.7375
  290MOL0     C39887   3.757   5.380   6.793 -0.7187  0.3037  0.7714
  290MOL0     C39888   3.837   5.271   6.822  0.2195  0.2628  0.0969
  290MOL0     C39889   3.908   5.263   6.945 -0.3280 -0.4598  0.3110
  290MOL0     O39890   3.975   5.149   6.997 -0.4898 -0.6829  0.2528
  290MOL0     C39891   3.932   5.025   6.945 -0.0292  0.0778  0.6855
  290MOL0     C39892   3.997   4.921   7.041  0.0866 -0.4721 -0.3121
  290MOL0     C39893   3.953   4.780   7.006  0.7764 -0.6137 -0.8847
  290MOL0     C39894   3.862   4.727   7.123  0.2450  0.9246  0.1917
  290MOL0     C39895   3.809   4.582   7.092  0.6479 -0.2994  0.3814
  290MOL0     C39896   3.728   4.538   7.212 -0.0433 -0.5564  0.9036
  290MOL0     C39897   3.678   4.392   7.211  0.5464 -0.0989  0.1290
  290MOL0     C39898   3.598   4.376   7.340 -0.4456  0.0196  0.3765
  290MOL0     N39899   3.576   4.228   7.370  0.2427 -0.4473 -0.9050
  290MOL0     C39900   3.555   4.174   7.492  0.1340  0.2817 -0.3574
  290MOL0     C39901   3.510   4.049   7.464  0.1268 -0.2270  0.3133
  290MOL0     C39902   3.475   3.960   7.580  0.2373  0.6590 -0.2623
  290MOL0     C39903   3.332   4.006   7.626  0.5134 -0.2314 -0.5441
  290MOL0     C39904   3.260   3.920   7.727 -0.0761  0.8981  0.1429
  290MOL0     C39905   3.306   3.926   7.874  0.7071 -0.6294  0.4670
  290MOL0     O39906   3.284   4.051   7.928  0.0395 -0.2176 -0.3378
  290MOL0     C39907   3.195   4.048   8.032 -0.4754  0.2678  0.4755
  290MOL0     C39908   3.069   3.975   8.049  0.3675  0.1754  1.0387
  290MOL0     C39909   2.984   3.994   8.162 -0.0561 -0.3911 -0.0301
  290MOL0     C39910   2.870   3.897   8.170  0.1282  0.5574  0.3717
  290MOL0     C39911   3.021   4.079   8.272 -0.5357  0.0664  0.2406
  290MOL0     C39912   2.947   4.099   8.398 -0.0648 -0.1841 -0.2740
  290MOL0     O39913   3.013   4.140   8.506 -0.5047  0.3158 -0.5949
  290MOL0     C39914   2.941   4.146   8.626 -0.3385 -0.1019  0.5561
  290MOL0     C39915   2.847   4.255   8.651 -0.1747 -0.8491  0.1318
  290MOL0     C39916   2.773   4.251   8.769  0.0489  0.0110 -0.1760
  290MOL0     C39917   2.788   4.157   8.876 -0.1619  0.2033 -0.0653
  290MOL0     O39918   2.717   4.155   8.993  0.7626  0.0103  0.0701
  290MOL0     C39919   2.753   4.066   9.100 -0.6139 -0.2533 -0.7015
  290MOL0     C39920   2.891   4.096   9.172 -0.3405  0.6049  0.5201
  290MOL0     C39921   2.897   4.228   9.236  0.2190 -0.2646 -0.0444
  290MOL0     C39922   3.037   4.247   9.298 -0.4923  0.5439 -0.5880
  290MOL0     C39923   3.049   4.389   9.324 -0.3443 -0.5361 -0.0809
  290MOL0     C39924   3.186   4.437   9.379 -1.4771  0.3291 -0.2544
  290MOL0     C39925   3.301   4.406   9.278 -1.1440 -1.0356  0.1978
  290MOL0     C39926   3.424   4.495   9.325 -0.3704 -0.1146  0.3632
  290MOL0    Cl39927   3.574   4.455   9.236  0.3479 -0.2314 -0.0078
  290MOL0     C39928   2.888   4.055   8.848 -0.2860 -0.3627 -0.0778
  290MOL0     C39929   2.948   4.048   8.722  1.2253  0.0487 -0.4625
  290MOL0     O39930   2.820   4.100   8.390 -0.3279 -0.0622 -0.7594
  290MOL0     C39931   3.144   4.155   8.252 -0.4873  0.3740 -0.5598
  290MOL0     C39932   3.223   4.139   8.135  0.9427  0.2426  0.1059
  290MOL0     N39933   3.485   4.042   7.331  0.6660 -0.7741  0.4535
  290MOL0     N39934   3.527   4.153   7.272 -0.0506 -0.2046  0.7318
  290MOL0     C39935   3.923   5.375   7.022 -0.1820 -0.7154 -1.6700
  290MOL0     C39936   3.843   5.490   6.995  0.5520 -0.5519 -0.0584
  290MOL0     C39937   3.675   5.824   6.745  0.3316 -0.5511  0.3010
  290MOL0     C39938   3.536   5.816   6.758  0.2186  1.0141 -0.2846
  290MOL0     C39939   3.449   5.921   6.725  0.1143  0.1514  0.1943
  290MOL0     C39940   3.504   6.033   6.665 -0.1863  0.2729 -1.0420
  290MOL0     O39941   3.433   6.144   6.648  0.1496 -0.7442 -0.4615
  290MOL0     C39942   3.371   6.202   6.769  1.3173  0.3687  0.1001
  290MOL0     C39943   3.483   6.257   6.856 -0.5210 -0.5962  0.1375
  290MOL0     C39944   3.442   6.389   6.925  0.4073 -0.3491  0.1946
  290MOL0     C39945   3.313   6.379   7.003 -0.1780  0.5112  0.2179
  290MOL0     C39946   3.315   6.276   7.109 -0.0341  0.3657  0.2131
  290MOL0     C39947   3.318   6.185   7.193 -0.0025 -0.4516 -0.1757
  290MOL0     C39948   3.639   6.039   6.641 -0.5631  0.2568  0.4685
  290MOL0     C39949   3.727   5.943   6.685  0.4776  0.2561 -1.4395
  290MOL0     C39950   3.865   5.969   6.658 -0.5370  0.0663 -0.8393
  290MOL0     H39951   3.711   5.376   6.695 -0.3050 -4.0723  0.5459
  290MOL0     H39952   3.826   5.182   6.761  4.2607 -0.4786  0.1743
  290MOL0     H39953   3.966   5.012   6.841  1.6436  0.2528  1.1874
  290MOL0     H39954   3.824   5.018   6.957 -0.1258  1.7006  0.9519
  290MOL0     H39955   4.105   4.934   7.030 -0.1591  0.5000 -1.9203
  290MOL0     H39956   3.963   4.958   7.138 -0.8496  0.3030 -0.9203
  290MOL0     H39957   3.891   4.772   6.916 -2.0443  1.4616  0.6843
  290MOL0     H39958   4.037   4.712   6.990  0.2474 -0.8697 -2.9164
  290MOL0     H39959   3.927   4.720   7.211  1.7775 -0.0609 -0.9585
  290MOL0     H39960   3.780   4.797   7.138 -0.7396 -0.4156  1.2832
  290MOL0     H39961   3.887   4.508   7.071 -1.5497 -1.5186 -5.4278
  290MOL0     H39962   3.750   4.582   6.999 -0.7857  2.5036  1.1756
  290MOL0     H39963   3.795   4.563   7.295  0.5518 -0.0091  0.2730
  290MOL0     H39964   3.646   4.609   7.225 -0.9032 -1.6708  1.8131
  290MOL0     H39965   3.771   4.335   7.212 -0.1103 -1.2358  1.8452
  290MOL0     H39966   3.624   4.383   7.117 -1.5120  1.9092  1.0101
  290MOL0     H39967   3.656   4.420   7.422  3.5537  0.0246 -2.2133
  290MOL0     H39968   3.502   4.430   7.343  1.0536  2.9706  4.2483
  290MOL0     H39969   3.586   4.213   7.589  3.5017 -0.7066 -0.9060
  290MOL0     H39970   3.548   3.960   7.661  1.3079 -1.8360 -1.1315
  290MOL0     H39971   3.467   3.856   7.548  1.1612  0.6991 -0.6593
  290MOL0     H39972   3.342   4.106   7.669  1.6067 -0.8869  0.8537
  290MOL0     H39973   3.276   4.018   7.533  0.6206 -3.1390 -1.0772
  290MOL0     H39974   3.154   3.946   7.725  0.4419  3.2325  0.3142
  290MOL0     H39975   3.270   3.814   7.702 -4.3116 -0.0483  1.6254
  290MOL0     H39976   3.259   3.842   7.925  0.6136  0.9172  3.1303
  290MOL0     H39977   3.415   3.915   7.875  1.1023  1.7349 -2.5578
  290MOL0     H39978   3.039   3.916   7.962  1.7814 -0.6344  1.0552
  290MOL0     H39979   2.778   3.951   8.145 -0.0299  0.1142  0.0063
  290MOL0     H39980   2.864   3.848   8.268 -3.4818 -1.8287 -0.8681
  290MOL0     H39981   2.886   3.830   8.086  1.5954  3.8660 -2.2235
  290MOL0     H39982   2.841   4.334   8.577  0.2062  0.8040  1.7946
  290MOL0     H39983   2.713   4.341   8.786 -1.0205 -0.7346  0.0861
  290MOL0     H39984   2.677   4.079   9.178 -0.1577  3.2462 -0.6853
  290MOL0     H39985   2.752   3.961   9.067 -1.0796 -0.1308 -1.0824
  290MOL0     H39986   2.904   4.025   9.255 -1.7838  1.3721  1.4491
  290MOL0     H39987   2.968   4.095   9.095 -0.6058 -0.8862  0.2310
  290MOL0     H39988   2.816   4.251   9.306  0.8265  1.9277 -0.0051
  290MOL0     H39989   2.874   4.305   9.163 -0.8784  1.9765  2.4976
  290MOL0     H39990   3.118   4.208   9.236 -0.8059 -0.7374 -0.2175
  290MOL0     H39991   3.043   4.197   9.395 -0.8469  1.8077  0.1148
  290MOL0     H39992   3.029   4.451   9.236 -1.2606  0.8570  1.0553
  290MOL0     H39993   2.967   4.421   9.389 -0.6451  1.7213 -1.4412
  290MOL0     H39994   3.195   4.390   9.477 -0.5786 -0.0030 -0.4889
  290MOL0     H39995   3.171   4.546   9.389  0.9107  0.8457 -1.6764
  290MOL0     H39996   3.274   4.415   9.172  4.7110  1.2300 -1.5067
  290MOL0     H39997   3.332   4.302   9.295  2.3218 -0.5458 -2.1051
  290MOL0     H39998   3.443   4.495   9.433 -0.4846 -0.2691  0.3847
  290MOL0     H39999   3.399   4.601   9.313 -2.3190 -0.7140 -1.5721
  290MOL0     H40000   2.894   3.961   8.901 -0.4440 -0.5483 -0.3848
  290MOL0     H40001   3.013   3.961   8.710 -3.3555 -4.0995  1.4141
  290MOL0     H40002   3.188   4.206   8.337 -0.0497  1.5279 -1.4624
  290MOL0     H40003   3.312   4.200   8.122  2.1753 -1.4957  0.0493
  290MOL0     H40004   3.980   5.382   7.114  0.8163 -0.5013 -2.2938
  290MOL0     H40005   3.847   5.575   7.063  0.3785 -0.1370 -0.5595
  290MOL0     H40006   3.488   5.737   6.815  1.4186  0.1353 -0.4497
  290MOL0     H40007   3.342   5.915   6.746  0.3516  0.7650  1.7286
  290MOL0     H40008   3.304   6.279   6.730 -1.1868 -1.9340 -0.4149
  290MOL0     H40009   3.316   6.125   6.823 -1.0026  0.5151 -1.8813
  290MOL0     H40010   3.575   6.273   6.799 -0.4560 -1.0187  0.1194
  290MOL0     H40011   3.508   6.192   6.941 -0.1805 -1.7833 -0.8409
  290MOL0     H40012   3.520   6.409   7.000  1.1935 -1.8640 -0.1614
  290MOL0     H40013   3.446   6.467   6.849  1.9867 -2.2055 -1.7429
  290MOL0     H40014   3.230   6.363   6.934  2.0299  0.8843 -2.6930
  290MOL0     H40015   3.297   6.472   7.059  0.0010  1.0445 -0.6099
  290MOL0     H40016   3.317   6.108   7.268  1.0235  0.3767  0.7323
  290MOL0     H40017   3.669   6.133   6.594 -0.2841  1.1430  2.3217
  290MOL0     H40018   3.923   5.971   6.752 -3.6623 -0.0152  1.2400
  290MOL0     H40019   3.909   5.885   6.603 -3.9082 -0.1296 -3.5303
  290MOL0     H40020   3.882   6.068   6.614  1.7819  0.8766  1.6100
  291MOL0     O40021   3.390   0.236   2.395  0.4632 -0.0149 -0.7599
  291MOL0     C40022   3.510   0.225   2.403 -0.2490 -0.4894 -0.0415
  291MOL0     O40023   3.609   0.323   2.408  0.4109  0.1712 -0.1711
  291MOL0     C40024   3.559   0.450   2.432  0.4566  0.1893  0.1163
  291MOL0     C40025   3.530   0.540   2.331  0.3855 -0.1587  0.2044
  291MOL0     C40026   3.481   0.670   2.359 -0.1025  0.0695  0.0231
  291MOL0     C40027   3.464   0.710   2.494  0.3898  1.0629  0.3186
  291MOL0     O40028   3.433   0.836   2.534 -0.4066  0.8974  0.4468
  291MOL0     C40029   3.395   0.934   2.439 -0.5971 -0.5551 -0.0354
  291MOL0     C40030   3.317   1.046   2.518 -0.8424 -0.1809  0.1206
  291MOL0     C40031   3.410   1.127   2.624  0.7572 -0.4805  1.1803
  291MOL0     C40032   3.346   1.258   2.676  0.8631  0.1975 -0.3207
  291MOL0     C40033   3.424   1.311   2.797  0.5247  0.3197 -0.6606
  291MOL0     C40034   3.564   1.359   2.786  0.3363 -0.9196 -0.8855
  291MOL0     C40035   3.610   1.403   2.922 -0.7091 -1.5362 -0.2077
  291MOL0     C40036   3.760   1.439   2.919  0.5984  0.0858  0.0964
  291MOL0     N40037   3.797   1.575   2.861 -0.2688 -0.8934 -0.2312
  291MOL0     C40038   3.747   1.703   2.908 -0.2888 -0.4418 -0.0034
  291MOL0     C40039   3.790   1.783   2.805  0.8013  0.3432 -0.0742
  291MOL0     C40040   3.754   1.932   2.804 -0.0625 -0.2005 -0.4587
  291MOL0     C40041   3.668   1.963   2.918  0.2568  0.2052  0.3211
  291MOL0     C40042   3.626   2.108   2.920  0.1020  0.3302  0.8318
  291MOL0     C40043   3.534   2.157   3.027  1.3114 -0.5167  0.4436
  291MOL0     O40044   3.577   2.102   3.152  1.0924 -0.0085 -0.2119
  291MOL0     C40045   3.651   2.182   3.221  0.8509 -1.0083  0.0103
  291MOL0     C40046   3.788   2.207   3.194  0.4390  0.8423  1.0839
  291MOL0     C40047   3.868   2.301   3.272  0.5912  0.3255 -0.7518
  291MOL0     C40048   4.009   2.313   3.218 -0.7932 -0.6056 -0.2737
  291MOL0     C40049   3.804   2.377   3.376  0.1173  0.2682 -0.0965
  291MOL0     C40050   3.875   2.498   3.433 -0.4913  0.7248  0.2513
  291MOL0     O40051   3.805   2.558   3.525  0.0458  0.3566  0.1516
  291MOL0     C40052   3.860   2.633   3.625  0.1297 -0.3790  0.5043
  291MOL0     C40053   3.883   2.575   3.750  0.3966  0.6444 -0.2594
  291MOL0     C40054   3.922   2.666   3.855 -0.0329 -0.1247  0.8578
  291MOL0     C40055   3.933   2.804   3.850 -1.2098  0.4265  0.1307
  291MOL0     O40056   3.948   2.883   3.964  0.5708  0.2429  0.3639
  291MOL0     C40057   3.945   2.822   4.090  0.6320 -0.4432 -0.3854
  291MOL0     C40058   3.903   2.933   4.194 -0.8875 -0.3369 -1.3988
  291MOL0     C40059   3.937   2.896   4.340  0.0789 -0.4214  0.9230
  291MOL0     C40060   3.903   2.999   4.432  0.5039 -1.2288 -0.5171
  291MOL0     C40061   3.945   2.944   4.571 -0.4566 -1.3075 -0.8780
  291MOL0     C40062   3.883   3.030   4.686 -0.1815 -1.0399 -0.5374
  291MOL0     C40063   3.842   2.954   4.810 -0.0567 -0.1676 -0.2100
  291MOL0     C40064   3.944   2.858   4.865 -0.2987  0.0195  0.2798
  291MOL0    Cl40065   3.861   2.767   4.992 -0.3122  0.3430  0.1689
  291MOL0     C40066   3.918   2.854   3.714 -0.3735  0.2192 -0.0775
  291MOL0     C40067   3.884   2.768   3.607  0.6690  0.4587  0.9647
  291MOL0     O40068   4.002   2.505   3.433  0.9439 -0.2042 -0.3622
  291MOL0     C40069   3.665   2.356   3.397  0.6787 -0.3291 -0.1521
  291MOL0     C40070   3.599   2.261   3.323  0.1119  0.1946 -0.5538
  291MOL0     N40071   3.862   1.715   2.704 -0.6451 -0.3649  0.3572
  291MOL0     N40072   3.861   1.595   2.742  0.0421  0.6604  1.0530
  291MOL0     C40073   3.478   0.613   2.590 -0.8621 -0.5669 -0.2454
  291MOL0     C40074   3.540   0.494   2.562 -0.0304 -0.0872 -0.0471
  291MOL0     C40075   3.579   0.093   2.426 -0.3181  0.1679  0.7315
  291MOL0     C40076   3.716   0.080   2.414 -0.4262  0.0198 -0.7665
  291MOL0     C40077   3.782  -0.041   2.427 -0.0025 -0.1830 -0.1819
  291MOL0     C40078   3.714  -0.164   2.436  0.8903 -0.1494 -0.3213
  291MOL0     O40079   3.783  -0.287   2.443 -0.9491 -0.1940  0.6196
  291MOL0     C40080   3.719  -0.408   2.441 -0.4512 -0.0813  0.0461
  291MOL0     C40081   3.831  -0.505   2.424  0.6272 -0.5832  0.0175
  291MOL0     C40082   3.923  -0.503   2.550 -0.2906 -0.0845 -0.0950
  291MOL0     C40083   4.066  -0.545   2.513  0.6336  0.1189 -0.5318
  291MOL0     C40084   4.136  -0.543   2.642  0.1684  0.7280  0.3509
  291MOL0     C40085   4.202  -0.539   2.738 -0.0662  0.2572  0.6530
  291MOL0     C40086   3.577  -0.147   2.454 -0.4583 -0.0002 -0.1318
  291MOL0     C40087   3.507  -0.024   2.468 -0.4385 -0.3297  0.0672
  291MOL0     C40088   3.353  -0.033   2.498 -0.6760  0.1378  0.9254
  291MOL0     H40089   3.577   0.506   2.239  0.8972  0.7943  0.0904
  291MOL0     H40090   3.465   0.733   2.273  1.3337 -0.4991 -0.6915
  291MOL0     H40091   3.333   0.866   2.379 -0.2506 -1.5162  0.6718
  291MOL0     H40092   3.485   0.962   2.384 -1.0193 -1.6237 -1.3301
  291MOL0     H40093   3.280   1.118   2.445  1.3736 -0.5648 -1.4915
  291MOL0     H40094   3.243   1.002   2.585  2.4054 -3.4083  1.9892
  291MOL0     H40095   3.425   1.065   2.713 -2.5311 -2.7982  0.2937
  291MOL0     H40096   3.504   1.152   2.573 -0.4080  1.0983 -0.2806
  291MOL0     H40097   3.353   1.337   2.601  2.0327 -1.4594 -2.0720
  291MOL0     H40098   3.245   1.237   2.713  1.3276 -1.1889  0.2340
  291MOL0     H40099   3.424   1.233   2.874 -1.3359  2.6215  1.8948
  291MOL0     H40100   3.360   1.391   2.835  0.1504 -0.6254  0.8162
  291MOL0     H40101   3.629   1.278   2.752 -0.0060 -1.1649 -0.9609
  291MOL0     H40102   3.559   1.428   2.702 -1.3508 -1.3886 -1.2202
  291MOL0     H40103   3.588   1.335   3.005 -1.1442 -1.9281 -0.6388
  291MOL0     H40104   3.563   1.496   2.955  0.1275 -0.3587 -2.1492
  291MOL0     H40105   3.805   1.434   3.019  0.5262 -3.2607  0.0588
  291MOL0     H40106   3.811   1.361   2.861 -0.9766  0.2889 -1.6589
  291MOL0     H40107   3.675   1.730   2.985 -1.6095 -2.3226 -0.5204
  291MOL0     H40108   3.713   1.958   2.706  0.4932 -1.3620 -1.0272
  291MOL0     H40109   3.854   1.977   2.806 -0.8222  1.5502  0.1640
  291MOL0     H40110   3.573   1.908   2.910  0.0561  0.6567 -0.5407
  291MOL0     H40111   3.713   1.930   3.012 -1.5729 -1.2746  0.7476
  291MOL0     H40112   3.720   2.162   2.908  2.2803 -3.3367  0.0686
  291MOL0     H40113   3.581   2.120   2.821  2.2937  1.2310 -0.1090
  291MOL0     H40114   3.545   2.265   3.041 -0.4073 -0.4035  1.2950
  291MOL0     H40115   3.432   2.127   2.998  1.3170  0.9734 -1.2601
  291MOL0     H40116   3.836   2.151   3.115 -4.2910 -1.5149 -0.5114
  291MOL0     H40117   4.014   2.411   3.171 -1.6576 -0.4168  0.0061
  291MOL0     H40118   4.030   2.227   3.154  0.5287 -1.3610  1.1049
  291MOL0     H40119   4.085   2.306   3.297  1.3906  1.1374 -2.1047
  291MOL0     H40120   3.867   2.469   3.763  1.6870  0.5891  1.1757
  291MOL0     H40121   3.923   2.613   3.949  1.6449  0.7687  1.3887
  291MOL0     H40122   3.871   2.741   4.097  0.3553 -0.4245 -2.5444
  291MOL0     H40123   4.047   2.794   4.117  0.3205 -1.6915 -0.4486
  291MOL0     H40124   3.963   3.020   4.168  0.9599 -0.5058  1.8851
  291MOL0     H40125   3.800   2.970   4.184 -0.4683  3.4699  4.3091
  291MOL0     H40126   4.045   2.880   4.347  0.5924  2.5579  1.0955
  291MOL0     H40127   3.887   2.801   4.359  0.1690 -0.4261  1.1348
  291MOL0     H40128   3.795   3.010   4.438  0.4568 -1.9140 -0.0567
  291MOL0     H40129   3.946   3.096   4.405 -5.5792  2.0434 -0.0592
  291MOL0     H40130   3.888   2.850   4.577 -1.8397 -0.4496  0.1142
  291MOL0     H40131   4.053   2.931   4.575 -0.3645 -1.2106 -2.3718
  291MOL0     H40132   3.793   3.083   4.652  0.4956  0.3505 -0.2330
  291MOL0     H40133   3.949   3.116   4.703  1.3676 -2.0157 -1.4024
  291MOL0     H40134   3.751   2.896   4.789 -0.4602 -0.3313  1.7744
  291MOL0     H40135   3.814   3.029   4.884  0.5894 -0.9296  0.8299
  291MOL0     H40136   4.030   2.919   4.895  0.9697 -1.1638 -0.7765
  291MOL0     H40137   3.984   2.782   4.797 -0.5985 -1.6011  1.8248
  291MOL0     H40138   3.926   2.962   3.710 -1.6472  0.2897 -1.5569
  291MOL0     H40139   3.867   2.821   3.514  0.3708 -0.1632  0.6621
  291MOL0     H40140   3.612   2.414   3.472  1.2929 -1.2976  1.0534
  291MOL0     H40141   3.494   2.236   3.330 -0.3459  1.9077 -0.9720
  291MOL0     H40142   3.451   0.650   2.689 -1.6307  0.0622 -0.6772
  291MOL0     H40143   3.567   0.420   2.637  1.5298  0.7403  0.2639
  291MOL0     H40144   3.782   0.160   2.382 -0.2182  0.2499  0.2088
  291MOL0     H40145   3.890  -0.047   2.421  0.0154  1.2831 -2.3653
  291MOL0     H40146   3.644  -0.423   2.519  0.3453  0.4018  0.9246
  291MOL0     H40147   3.666  -0.419   2.346  0.4701  2.1966 -0.8180
  291MOL0     H40148   3.885  -0.482   2.331 -1.2916  2.1998 -0.5258
  291MOL0     H40149   3.778  -0.601   2.417  0.2699 -0.6055  2.2493
  291MOL0     H40150   3.927  -0.402   2.591  3.8560 -0.8552  1.9446
  291MOL0     H40151   3.879  -0.572   2.624 -0.8864 -0.4573 -0.7807
  291MOL0     H40152   4.109  -0.467   2.449  2.3308 -1.2957 -1.1630
  291MOL0     H40153   4.067  -0.635   2.452  0.2101 -0.4958  0.3468
  291MOL0     H40154   4.265  -0.530   2.824 -2.3765  1.0831  2.3586
  291MOL0     H40155   3.521  -0.240   2.466  0.4413 -0.3091  2.3884
  291MOL0     H40156   3.332   0.010   2.597 -0.8322 -0.1778  1.0316
  291MOL0     H40157   3.301   0.011   2.412  1.2655 -2.8001 -1.9990
  291MOL0     H40158   3.320  -0.137   2.499  1.2965 -0.8006 -4.0327
  292MOL0     O40159   6.216   2.623   0.505 -0.2728  0.3213 -0.1550
  292MOL0     C40160   6.275   2.514   0.495 -0.1909 -0.1807  0.1690
  292MOL0     O40161   6.212   2.409   0.448 -0.0023 -0.3450 -0.1492
  292MOL0     C40162   6.075   2.409   0.459  0.4187  1.2247  0.0856
  292MOL0     C40163   5.989   2.480   0.378  1.1565  0.3568  0.5788
  292MOL0     C40164   5.851   2.490   0.402  1.2355  0.5960 -0.2514
  292MOL0     C40165   5.786   2.407   0.492 -0.8895  0.4593 -0.4296
  292MOL0     O40166   5.663   2.395   0.514 -0.0590 -0.8773 -0.2430
  292MOL0     C40167   5.579   2.352   0.406  0.2553  1.0058  0.3751
  292MOL0     C40168   5.447   2.315   0.471 -0.7447 -0.4258 -0.8816
  292MOL0     C40169   5.325   2.364   0.406 -0.6670 -0.5096  0.8242
  292MOL0     C40170   5.301   2.275   0.277  0.0711 -0.4220  0.1492
  292MOL0     C40171   5.202   2.318   0.172  0.2459 -0.2338  0.2066
  292MOL0     C40172   5.062   2.295   0.218 -0.2212  0.5305  0.9313
  292MOL0     C40173   5.019   2.152   0.168 -0.1045  0.4171 -0.0947
  292MOL0     C40174   4.983   2.155   0.016  1.1660 -0.7770 -0.5254
  292MOL0     N40175   4.995   2.030  -0.054 -0.3216 -0.6374  0.0695
  292MOL0     C40176   5.119   1.979  -0.081 -0.4552 -0.1503  0.0599
  292MOL0     C40177   5.090   1.881  -0.162  0.6892  0.7123 -0.6716
  292MOL0     C40178   5.199   1.790  -0.220 -0.8728 -0.3002 -0.1948
  292MOL0     C40179   5.167   1.646  -0.186  0.0860 -1.0090 -0.3840
  292MOL0     C40180   5.224   1.551  -0.280  0.2229 -0.7563 -0.4630
  292MOL0     C40181   5.172   1.415  -0.292 -0.4247 -0.5592 -0.4456
  292MOL0     O40182   5.203   1.337  -0.183 -0.1627 -1.0496 -0.4318
  292MOL0     C40183   5.140   1.216  -0.163  0.0939 -0.8549 -0.1716
  292MOL0     C40184   5.093   1.181  -0.039 -0.7139  0.0765 -0.1001
  292MOL0     C40185   5.043   1.053  -0.003 -0.5143  0.2850  0.1160
  292MOL0     C40186   5.000   1.043   0.138  0.6543 -0.3004 -0.0616
  292MOL0     C40187   5.058   0.953  -0.097  0.2152 -0.0762 -0.0060
  292MOL0     C40188   5.043   0.803  -0.068 -0.8382  0.1601 -0.0345
  292MOL0     O40189   5.064   0.727  -0.176 -0.5424 -0.3226  0.0482
  292MOL0     C40190   5.020   0.595  -0.169 -0.8446 -0.5985  0.8778
  292MOL0     C40191   5.054   0.499  -0.077 -1.1040 -0.1382 -0.0832
  292MOL0     C40192   4.991   0.374  -0.073  0.5731  0.3210  0.3144
  292MOL0     C40193   4.903   0.334  -0.175  0.3004 -0.4530 -0.8483
  292MOL0     O40194   4.851   0.210  -0.183 -0.6423 -0.2213  0.5242
  292MOL0     C40195   4.711   0.210  -0.145 -0.1619  0.8343 -0.9583
  292MOL0     C40196   4.659   0.073  -0.115 -0.0471 -1.2337 -0.1479
  292MOL0     C40197   4.735  -0.004  -0.001  0.1965 -0.4527  0.3480
  292MOL0     C40198   4.778   0.080   0.132 -0.0100  0.4925  0.6207
  292MOL0     C40199   4.817  -0.014   0.253  0.1684  0.6165  0.5811
  292MOL0     C40200   4.938  -0.106   0.226 -0.6821 -0.1373  0.7036
  292MOL0     C40201   4.977  -0.154   0.356 -0.6237 -0.5298 -0.7004
  292MOL0     C40202   5.092  -0.251   0.360 -0.0753  0.7151 -0.6481
  292MOL0    Cl40203   5.049  -0.391   0.249 -0.1920 -0.0954  0.1813
  292MOL0     C40204   4.889   0.429  -0.273 -0.1481 -0.6517  0.3554
  292MOL0     C40205   4.941   0.558  -0.273 -1.2135  0.0081  0.5445
  292MOL0     O40206   5.030   0.760   0.043 -0.1439 -0.5262  0.1656
  292MOL0     C40207   5.097   0.990  -0.225  0.3462  0.2524  0.3805
  292MOL0     C40208   5.139   1.112  -0.265  0.1997 -0.6677 -0.6785
  292MOL0     N40209   4.955   1.862  -0.175 -0.6386 -0.7089  0.6800
  292MOL0     N40210   4.899   1.968  -0.125  0.2827  0.2837  0.7786
  292MOL0     C40211   5.866   2.324   0.575 -1.3705  0.1833  0.1261
  292MOL0     C40212   6.011   2.328   0.557 -0.6726 -0.1507  0.0159
  292MOL0     C40213   6.424   2.516   0.524 -0.4314 -0.0095  0.4067
  292MOL0     C40214   6.497   2.622   0.588  0.6767 -0.2388  0.0149
  292MOL0     C40215   6.635   2.622   0.615 -0.2308  0.3553  0.0956
  292MOL0     C40216   6.719   2.505   0.589  0.0356  0.3400 -0.4821
  292MOL0     O40217   6.847   2.509   0.630 -0.6358 -0.1783  0.4440
  292MOL0     C40218   6.951   2.443   0.555 -0.7848 -0.1878  1.4686
  292MOL0     C40219   6.955   2.504   0.408  0.5527  0.4062  1.6348
  292MOL0     C40220   6.978   2.398   0.303 -0.4228  0.5089 -0.7016
  292MOL0     C40221   7.120   2.342   0.304  0.0644 -0.5068  0.2686
  292MOL0     C40222   7.216   2.452   0.308  0.2499 -0.0967  0.8805
  292MOL0     C40223   7.303   2.541   0.301  0.6863  1.0507  0.0684
  292MOL0     C40224   6.651   2.399   0.526  0.0981  0.4260  0.4451
  292MOL0     C40225   6.510   2.401   0.496  0.7923 -0.0321 -0.1725
  292MOL0     C40226   6.456   2.275   0.445 -0.3563 -0.1821 -0.5953
  292MOL0     H40227   6.036   2.544   0.304  0.4358 -0.3549 -0.5248
  292MOL0     H40228   5.797   2.564   0.344 -0.8120 -0.2852  0.4104
  292MOL0     H40229   5.626   2.265   0.358 -2.6957 -1.5566  1.7288
  292MOL0     H40230   5.551   2.418   0.324 -1.4334  1.2248  1.0828
  292MOL0     H40231   5.433   2.207   0.473 -1.6336 -0.3371 -1.5727
  292MOL0     H40232   5.442   2.342   0.577  0.3628  0.3228 -1.0012
  292MOL0     H40233   5.245   2.364   0.481  0.7567 -0.2706  2.4137
  292MOL0     H40234   5.352   2.465   0.372  1.0377 -1.6263 -1.4154
  292MOL0     H40235   5.393   2.274   0.217 -0.1871 -0.6516 -0.2535
  292MOL0     H40236   5.282   2.173   0.312 -1.3480 -0.4456 -0.6090
  292MOL0     H40237   5.220   2.264   0.079 -0.2460 -1.4422  0.7996
  292MOL0     H40238   5.209   2.427   0.158 -0.3300 -0.3607 -1.2942
  292MOL0     H40239   5.051   2.303   0.326 -0.4311  1.5018  0.8485
  292MOL0     H40240   4.993   2.369   0.176  2.6249  1.0271 -3.6850
  292MOL0     H40241   4.922   2.129   0.212  0.7866 -2.5070  0.5349
  292MOL0     H40242   5.097   2.082   0.198  0.8484  1.2994 -0.4263
  292MOL0     H40243   4.882   2.192  -0.004 -0.5078 -4.7519 -0.2205
  292MOL0     H40244   5.046   2.231  -0.030 -1.8127  2.1543 -0.1515
  292MOL0     H40245   5.214   2.020  -0.051 -0.9558 -0.3973  2.1311
  292MOL0     H40246   5.300   1.817  -0.187 -0.5080 -2.4693  0.6235
  292MOL0     H40247   5.180   1.828  -0.321 -1.1965  1.0990  0.3702
  292MOL0     H40248   5.220   1.614  -0.096  0.2123 -2.4685 -0.9555
  292MOL0     H40249   5.060   1.628  -0.172 -0.1257  0.5648  0.2557
  292MOL0     H40250   5.210   1.596  -0.378  0.7015  2.9615  1.0198
  292MOL0     H40251   5.332   1.545  -0.265 -0.0613 -0.8780  1.9098
  292MOL0     H40252   5.064   1.421  -0.305 -0.7510 -1.1586  1.5892
  292MOL0     H40253   5.211   1.364  -0.381 -1.0575 -1.8545  0.0017
  292MOL0     H40254   5.099   1.252   0.043  1.4775 -1.7223  1.4256
  292MOL0     H40255   5.052   1.115   0.202  2.1233 -1.8034  0.5137
  292MOL0     H40256   5.020   0.942   0.175  0.3466  0.3326  1.9530
  292MOL0     H40257   4.893   1.064   0.143  0.1347 -1.7542 -3.2442
  292MOL0     H40258   5.119   0.523   0.007  0.0911 -2.3397 -0.2921
  292MOL0     H40259   4.998   0.304   0.009 -2.6671 -1.3680 -0.6887
  292MOL0     H40260   4.690   0.271  -0.057 -0.6761  1.1182 -1.2682
  292MOL0     H40261   4.654   0.245  -0.232  2.2994 -1.3411 -3.6426
  292MOL0     H40262   4.551   0.079  -0.097  0.3569 -1.1334  2.6206
  292MOL0     H40263   4.673   0.015  -0.208  3.6304 -2.1136  0.8091
  292MOL0     H40264   4.823  -0.046  -0.051  0.1882 -2.7953  2.1171
  292MOL0     H40265   4.672  -0.089   0.026  1.2576 -0.8747  1.6200
  292MOL0     H40266   4.692   0.142   0.161 -0.6704  1.2715 -2.5724
  292MOL0     H40267   4.859   0.149   0.109 -0.5659  1.4667  1.4845
  292MOL0     H40268   4.847   0.052   0.334  1.7571 -0.9280  1.3161
  292MOL0     H40269   4.728  -0.074   0.272 -1.3949  1.3937 -3.2951
  292MOL0     H40270   5.020  -0.047   0.183 -0.9697  1.1200  1.8158
  292MOL0     H40271   4.907  -0.188   0.161 -2.4312  0.7014  0.4278
  292MOL0     H40272   4.887  -0.197   0.403  0.1571  0.0776  1.4459
  292MOL0     H40273   5.021  -0.067   0.405 -0.7731 -0.1055 -1.3085
  292MOL0     H40274   5.093  -0.286   0.464  0.0449 -0.6337 -1.0872
  292MOL0     H40275   5.190  -0.207   0.340 -0.4261  1.4594 -0.7673
  292MOL0     H40276   4.834   0.395  -0.361  1.0455 -0.4543 -0.5028
  292MOL0     H40277   4.924   0.623  -0.359 -1.8546  0.2436  0.8406
  292MOL0     H40278   5.108   0.911  -0.297 -0.9233 -0.9404  1.4246
  292MOL0     H40279   5.188   1.119  -0.362  2.6097 -0.7047  0.4585
  292MOL0     H40280   5.809   2.251   0.632 -0.9177  0.0709  0.4368
  292MOL0     H40281   6.069   2.284   0.637  0.1390  0.1148 -0.4110
  292MOL0     H40282   6.432   2.706   0.610 -1.4862 -1.7270 -0.3638
  292MOL0     H40283   6.669   2.712   0.667 -3.6649  0.6091  2.2778
  292MOL0     H40284   7.045   2.448   0.610 -1.0889 -3.7657  2.6008
  292MOL0     H40285   6.936   2.335   0.551 -0.8990 -0.2043  2.1579
  292MOL0     H40286   7.030   2.584   0.401 -1.4690  2.2386 -0.8706
  292MOL0     H40287   6.861   2.552   0.380  1.4327  2.1605  1.5137
  292MOL0     H40288   6.911   2.312   0.316  1.5097 -0.8177  1.0428
  292MOL0     H40289   6.962   2.444   0.205  0.7950  0.7189 -0.8163
  292MOL0     H40290   7.148   2.297   0.209 -1.4642  0.0989 -0.5079
  292MOL0     H40291   7.141   2.283   0.394 -2.1509  0.8107  1.7456
  292MOL0     H40292   7.377   2.609   0.263 -0.5787  1.8521 -1.0222
  292MOL0     H40293   6.712   2.311   0.503  0.6695  0.6766  0.9580
  292MOL0     H40294   6.379   2.279   0.367 -2.1800  1.1609  1.1576
  292MOL0     H40295   6.535   2.224   0.389 -0.1604 -0.9795  0.3915
  292MOL0     H40296   6.424   2.219   0.533  2.9600 -2.4301 -0.6464
  293MOL0     O40297   5.305   8.504   2.112  0.2765  0.7307  0.6630
  293MOL0     C40298   5.291   8.470   2.226  0.1675 -0.4515 -0.0261
  293MOL0     O40299   5.195   8.521   2.301  0.0784  0.3603  0.3241
  293MOL0     C40300   5.094   8.590   2.238 -0.5353 -0.2078  0.1682
  293MOL0     C40301   5.107   8.733   2.261  1.0034  0.4870 -0.5960
  293MOL0     C40302   5.010   8.821   2.204 -0.9639 -0.0368  0.1911
  293MOL0     C40303   4.900   8.761   2.145 -0.2492 -0.0172 -0.1374
  293MOL0     O40304   4.798   8.834   2.092  1.2005  0.4665 -0.7259
  293MOL0     C40305   4.748   8.954   2.157 -0.1399 -0.0390  0.0019
  293MOL0     C40306   4.663   9.041   2.063 -0.3478  1.2940 -0.3350
  293MOL0     C40307   4.600   9.164   2.139 -0.1007 -0.0326 -0.9252
  293MOL0     C40308   4.513   9.238   2.043 -0.5988 -0.3513  0.0196
  293MOL0     C40309   4.464   9.373   2.099  0.4664  0.3103  0.4054
  293MOL0     C40310   4.366   9.443   1.998  0.6077  0.1517 -0.0277
  293MOL0     C40311   4.319   9.583   2.054  0.3267  0.2974 -0.3892
  293MOL0     C40312   4.425   9.677   2.117  0.1361 -0.2859  0.2802
  293MOL0     N40313   4.356   9.804   2.156 -0.3959 -0.1924  0.0644
  293MOL0     C40314   4.427   9.909   2.214  0.4645 -0.2841 -0.1504
  293MOL0     C40315   4.348  10.021   2.188  0.1412  0.0482  0.4842
  293MOL0     C40316   4.369  10.166   2.218 -1.1892  0.5640 -0.4698
  293MOL0     C40317   4.510  10.198   2.271 -0.3518  0.2029  0.0195
  293MOL0     C40318   4.584  10.327   2.229  0.1365 -0.1182 -0.1928
  293MOL0     C40319   4.712  10.333   2.308 -0.0286 -0.1033  0.2287
  293MOL0     O40320   4.799  10.435   2.273 -0.4029  0.4872 -0.6225
  293MOL0     C40321   4.912  10.450   2.352 -0.3598 -0.1507  1.2337
  293MOL0     C40322   4.945  10.371   2.465  0.0588 -0.3704  0.3188
  293MOL0     C40323   5.051  10.406   2.546  0.2770  0.4552  0.1165
  293MOL0     C40324   5.068  10.343   2.681  0.5356  0.1413 -0.0882
  293MOL0     C40325   5.142  10.506   2.505  0.8712  1.1573  0.3046
  293MOL0     C40326   5.267  10.527   2.578 -0.7917  0.1522 -0.5497
  293MOL0     O40327   5.374  10.497   2.502  0.1926 -0.2263 -0.0391
  293MOL0     C40328   5.488  10.470   2.567  0.1360 -0.4429 -0.9410
  293MOL0     C40329   5.543  10.341   2.546 -0.6674  0.3860 -0.6672
  293MOL0     C40330   5.655  10.301   2.618 -0.5530  0.3969  0.4350
  293MOL0     C40331   5.714  10.391   2.714 -0.1226 -1.0114 -0.0010
  293MOL0     O40332   5.831  10.350   2.788 -0.0684  0.4327  0.3780
  293MOL0     C40333   5.949  10.425   2.788  0.1050 -0.3579 -0.0725
  293MOL0     C40334   6.054  10.388   2.897 -0.5912 -0.5333 -0.3331
  293MOL0     C40335   6.121  10.244   2.896  0.4928  0.3804  0.4723
  293MOL0     C40336   6.263  10.232   2.959  0.0270 -0.2735 -0.0563
  293MOL0     C40337   6.294  10.078   2.978 -0.3391 -0.5059 -0.2024
  293MOL0     C40338   6.429  10.057   3.046 -0.4968  0.0126  0.3579
  293MOL0     C40339   6.484   9.920   3.024 -0.6940  0.4832 -0.3840
  293MOL0     C40340   6.629   9.893   3.097  1.0602 -0.4259  0.1329
  293MOL0    Cl40341   6.711   9.735   3.042  0.0737 -0.8872  0.1945
  293MOL0     C40342   5.662  10.517   2.725 -0.3052  0.1438  0.0619
  293MOL0     C40343   5.544  10.559   2.660 -0.1044  0.4602  0.2700
  293MOL0     O40344   5.264  10.566   2.697 -0.0821  0.8277  0.1898
  293MOL0     C40345   5.127  10.548   2.375 -0.3507  0.3637  0.3851
  293MOL0     C40346   5.013  10.534   2.295  0.1227 -0.2823  0.0036
  293MOL0     N40347   4.240   9.976   2.115 -0.3143 -0.6992 -0.5394
  293MOL0     N40348   4.245   9.856   2.103  0.2491  0.5935 -0.0382
  293MOL0     C40349   4.896   8.621   2.123  0.3203 -1.3198 -0.1339
  293MOL0     C40350   4.985   8.529   2.171 -0.6061 -0.5494  0.6063
  293MOL0     C40351   5.381   8.377   2.297  1.0775 -0.4062 -0.0422
  293MOL0     C40352   5.335   8.244   2.312  0.0338  0.9156 -0.1613
  293MOL0     C40353   5.418   8.145   2.368 -1.3879 -0.1323 -0.5463
  293MOL0     C40354   5.555   8.171   2.407  0.1406 -1.6542 -0.0504
  293MOL0     O40355   5.657   8.085   2.433 -0.1919  0.4000  0.5338
  293MOL0     C40356   5.625   7.953   2.433 -0.2635 -0.2151 -0.6259
  293MOL0     C40357   5.757   7.882   2.481  0.1136  0.1437 -0.5288
  293MOL0     C40358   5.753   7.738   2.436 -0.0610  1.0414 -0.5876
  293MOL0     C40359   5.833   7.647   2.531  0.1784  0.1898  0.0373
  293MOL0     C40360   5.970   7.685   2.548  0.5993 -0.1858 -1.4073
  293MOL0     C40361   6.084   7.733   2.549  0.7208 -0.0012  0.5452
  293MOL0     C40362   5.587   8.310   2.391  0.2340 -0.6437  0.2318
  293MOL0     C40363   5.507   8.407   2.348 -0.5418 -0.1211 -0.2243
  293MOL0     C40364   5.551   8.554   2.358  0.1068 -0.0110 -0.1050
  293MOL0     H40365   5.183   8.772   2.327 -0.9899  1.1479  1.4239
  293MOL0     H40366   5.030   8.926   2.224 -0.5531 -0.1140  0.1866
  293MOL0     H40367   4.825   9.016   2.203  0.4012 -0.5646 -0.1883
  293MOL0     H40368   4.678   8.927   2.236  0.2365  0.6433  0.5710
  293MOL0     H40369   4.730   9.083   1.987  0.0326  1.9885  0.3761
  293MOL0     H40370   4.587   8.984   2.008 -0.1908  0.8862 -0.1247
  293MOL0     H40371   4.535   9.133   2.221  1.2065  1.8715  0.9174
  293MOL0     H40372   4.677   9.226   2.186 -0.6142 -1.3323  1.8349
  293MOL0     H40373   4.571   9.276   1.959  0.7081  0.5520  1.2671
  293MOL0     H40374   4.436   9.167   2.013  1.5848 -2.4936 -0.8384
  293MOL0     H40375   4.547   9.443   2.112  1.1782 -0.5443  0.5143
  293MOL0     H40376   4.411   9.360   2.193  2.0492 -1.1256  1.1521
  293MOL0     H40377   4.421   9.463   1.905 -2.5089 -0.0406 -2.0508
  293MOL0     H40378   4.279   9.380   1.979  1.0481 -0.9545  1.3912
  293MOL0     H40379   4.245   9.560   2.132 -0.6861  0.9874 -1.1289
  293MOL0     H40380   4.262   9.627   1.972 -2.2266  0.9859  1.6250
  293MOL0     H40381   4.475   9.634   2.204 -0.8125  1.8434  1.9930
  293MOL0     H40382   4.497   9.692   2.036 -1.1284  0.3570 -0.7721
  293MOL0     H40383   4.520   9.912   2.270  0.2774  0.6513  0.1301
  293MOL0     H40384   4.299  10.196   2.297 -1.7773 -2.7719  0.4513
  293MOL0     H40385   4.356  10.218   2.123 -1.5575  3.4567  1.0542
  293MOL0     H40386   4.498  10.195   2.379 -0.5712  0.7602  0.0125
  293MOL0     H40387   4.570  10.115   2.232 -2.4861 -0.8134 -1.3375
  293MOL0     H40388   4.610  10.322   2.123 -0.5654 -2.5410 -0.3134
  293MOL0     H40389   4.530  10.421   2.244 -0.6800 -0.9597  2.8167
  293MOL0     H40390   4.693  10.349   2.414 -0.2742  0.3478  0.1163
  293MOL0     H40391   4.770  10.241   2.290 -0.5507 -0.1195 -1.5701
  293MOL0     H40392   4.876  10.294   2.498 -2.8347  1.0584 -1.8856
  293MOL0     H40393   5.175  10.323   2.694  0.2732 -1.7325 -0.4251
  293MOL0     H40394   5.024  10.243   2.680  0.5375  0.1151 -2.3183
  293MOL0     H40395   5.018  10.389   2.766 -1.9074 -0.1997 -1.2321
  293MOL0     H40396   5.501  10.272   2.475  0.7526  0.8157 -1.9909
  293MOL0     H40397   5.705  10.206   2.604 -4.3206 -1.3810 -4.0460
  293MOL0     H40398   6.010  10.425   2.696  2.8473 -1.5297  1.6132
  293MOL0     H40399   5.924  10.530   2.806  0.0034 -0.0031 -2.0357
  293MOL0     H40400   6.139  10.457   2.892  0.8390 -2.0451  1.6250
  293MOL0     H40401   6.017  10.399   2.999 -1.1697  3.6424 -0.7860
  293MOL0     H40402   6.126  10.197   2.797  2.3437 -0.3473  0.8590
  293MOL0     H40403   6.046  10.181   2.945  0.2980 -0.2291 -0.5643
  293MOL0     H40404   6.274  10.279   3.057  1.9632  0.5643 -0.6272
  293MOL0     H40405   6.333  10.275   2.887  0.0416 -2.4025 -1.3965
  293MOL0     H40406   6.211  10.036   3.035 -1.7543 -3.4781 -4.0669
  293MOL0     H40407   6.290  10.030   2.880 -0.4928  0.6221 -0.7710
  293MOL0     H40408   6.410  10.073   3.152  0.0870  1.0735  0.3069
  293MOL0     H40409   6.511  10.126   3.024  1.1632 -2.3325 -1.3697
  293MOL0     H40410   6.493   9.903   2.916  1.2385 -0.1191 -0.1697
  293MOL0     H40411   6.413   9.850   3.070  2.5312 -3.1315 -0.3563
  293MOL0     H40412   6.623   9.897   3.206 -0.4010  1.1950  0.0421
  293MOL0     H40413   6.694   9.977   3.072  0.4891  1.0233  3.0355
  293MOL0     H40414   5.709  10.590   2.790  1.9697 -1.9011  0.8748
  293MOL0     H40415   5.507  10.660   2.671  4.6056  2.2209  2.6185
  293MOL0     H40416   5.209  10.613   2.345 -0.0166 -0.3139 -0.2171
  293MOL0     H40417   5.012  10.591   2.203  0.1582 -1.9888 -1.1070
  293MOL0     H40418   4.810   8.582   2.069 -0.6486 -1.7959  1.6846
  293MOL0     H40419   4.979   8.421   2.165 -1.1625 -0.4986  0.1520
  293MOL0     H40420   5.231   8.217   2.298  0.0114  1.3215 -0.7917
  293MOL0     H40421   5.379   8.043   2.367  0.3022 -0.9047 -4.3466
  293MOL0     H40422   5.545   7.921   2.501 -0.1692  0.8640  0.0083
  293MOL0     H40423   5.603   7.925   2.330  0.9700  0.4544 -1.0955
  293MOL0     H40424   5.761   7.880   2.590 -1.3538 -0.0400 -0.4667
  293MOL0     H40425   5.844   7.937   2.442 -1.1247  1.1057 -2.0563
  293MOL0     H40426   5.650   7.701   2.438  0.0047  0.7365 -1.9945
  293MOL0     H40427   5.789   7.738   2.333 -0.0083  2.1962 -0.5735
  293MOL0     H40428   5.823   7.545   2.494  0.0116  0.6308 -1.1830
  293MOL0     H40429   5.781   7.647   2.627  0.9046  1.6376  0.4723
  293MOL0     H40430   6.183   7.771   2.536  0.5843  0.0406 -0.4700
  293MOL0     H40431   5.691   8.333   2.412 -0.2462  2.3821 -0.2046
  293MOL0     H40432   5.548   8.602   2.260 -1.7680  0.0877 -0.0274
  293MOL0     H40433   5.482   8.604   2.427  0.7977  1.7215 -0.6179
  293MOL0     H40434   5.652   8.569   2.397 -0.0582  2.0654 -0.3625
  294MOL0     O40435   1.745   0.044   7.952  0.4878  0.0781 -0.6300
  294MOL0     C40436   1.737   0.054   8.074  0.9769 -0.5691 -0.4360
  294MOL0     O40437   1.838   0.105   8.160  0.2638 -0.2290 -0.2826
  294MOL0     C40438   1.959   0.112   8.095 -0.4877  0.2194  1.0089
  294MOL0     C40439   2.004   0.243   8.034 -0.2829  0.2684  0.0641
  294MOL0     C40440   2.117   0.258   7.964  0.3062  0.3055 -0.6804
  294MOL0     C40441   2.196   0.145   7.947  0.1379 -0.5519 -0.7805
  294MOL0     O40442   2.299   0.163   7.864  0.6485  0.3151  0.8691
  294MOL0     C40443   2.334   0.051   7.771 -0.0308  0.1336 -0.0472
  294MOL0     C40444   2.369   0.094   7.632 -0.1613  1.1677  0.9873
  294MOL0     C40445   2.391  -0.014   7.525  0.8633 -0.9952 -0.0295
  294MOL0     C40446   2.409   0.036   7.384  0.1207  0.0069  0.3873
  294MOL0     C40447   2.308  -0.030   7.276  0.2823 -0.9327 -0.3536
  294MOL0     C40448   2.322  -0.186   7.254  0.4108  0.4117 -0.0387
  294MOL0     C40449   2.474  -0.218   7.247 -0.3292 -0.1745 -0.3945
  294MOL0     C40450   2.516  -0.355   7.186  0.7098 -1.4220  0.4022
  294MOL0     N40451   2.652  -0.400   7.218  0.0610  0.8941  0.7037
  294MOL0     C40452   2.755  -0.320   7.243  0.6282  0.9363  0.5993
  294MOL0     C40453   2.856  -0.401   7.289  0.3176 -0.0896  0.3646
  294MOL0     C40454   2.987  -0.358   7.341 -0.2045 -0.3667 -0.0912
  294MOL0     C40455   2.959  -0.296   7.476 -0.3584 -0.6586  0.1550
  294MOL0     C40456   2.929  -0.394   7.579  0.3192  0.0942  0.0023
  294MOL0     C40457   3.049  -0.482   7.610  0.0876 -0.0781  0.0545
  294MOL0     O40458   3.166  -0.409   7.636  0.6923  0.4108  0.4873
  294MOL0     C40459   3.202  -0.369   7.758  0.8982  0.1386  0.1139
  294MOL0     C40460   3.124  -0.380   7.878 -0.4133  0.2213  0.6346
  294MOL0     C40461   3.175  -0.351   8.001  0.3542 -0.9508  0.7369
  294MOL0     C40462   3.088  -0.394   8.112  1.1108  0.0962  0.2738
  294MOL0     C40463   3.305  -0.294   8.016 -0.6479  0.5412 -1.1949
  294MOL0     C40464   3.349  -0.239   8.143  0.6678  0.5007 -0.5022
  294MOL0     O40465   3.455  -0.159   8.135  0.3169 -0.0750  0.0444
  294MOL0     C40466   3.500  -0.098   8.254 -0.0869 -0.0822 -0.5339
  294MOL0     C40467   3.467   0.031   8.279  0.2689  0.2795  0.0224
  294MOL0     C40468   3.519   0.097   8.399  0.2536  0.1165  1.2482
  294MOL0     C40469   3.599   0.027   8.488 -0.1032  0.3859  0.6301
  294MOL0     O40470   3.661   0.082   8.594 -0.0852  0.0561  0.0489
  294MOL0     C40471   3.744   0.196   8.560  0.1240 -0.7879 -0.4814
  294MOL0     C40472   3.868   0.205   8.644  0.8187  0.6080  0.1360
  294MOL0     C40473   3.956   0.085   8.628  0.0096  0.3824 -0.4647
  294MOL0     C40474   3.971   0.054   8.482  0.3369  0.1032  0.9568
  294MOL0     C40475   4.095  -0.044   8.468 -0.6473  0.0407 -0.1987
  294MOL0     C40476   4.101  -0.117   8.327  1.9495 -0.6608  0.1414
  294MOL0     C40477   4.227  -0.203   8.334 -0.4152  0.8010  0.0567
  294MOL0     C40478   4.249  -0.241   8.186  0.3661  0.4383 -0.0111
  294MOL0    Cl40479   4.317  -0.109   8.096 -0.0640 -0.0034  0.0422
  294MOL0     C40480   3.631  -0.107   8.463  0.1543  1.0109  0.2005
  294MOL0     C40481   3.585  -0.168   8.347 -0.2352 -0.3722  0.5306
  294MOL0     O40482   3.294  -0.273   8.248 -0.3838 -0.0427  0.5802
  294MOL0     C40483   3.382  -0.277   7.896 -0.2374  0.0011  0.6917
  294MOL0     C40484   3.332  -0.321   7.774  0.4932 -0.1946 -0.2965
  294MOL0     N40485   2.817  -0.531   7.277  0.2975  0.1201 -1.3102
  294MOL0     N40486   2.694  -0.533   7.223  0.1107  0.5423 -0.5874
  294MOL0     C40487   2.170   0.022   8.015 -0.0098  0.2362  0.0013
  294MOL0     C40488   2.047   0.004   8.076  0.4314 -0.3661 -0.4105
  294MOL0     C40489   1.608   0.008   8.133  0.2462 -0.7508  0.0726
  294MOL0     C40490   1.571   0.075   8.247  0.3715 -0.1359  0.2280
  294MOL0     C40491   1.442   0.055   8.308 -0.2096 -0.1387 -0.6348
  294MOL0     C40492   1.359  -0.038   8.258  0.1653 -0.3870 -0.1636
  294MOL0     O40493   1.232  -0.076   8.307 -0.2055 -0.6565  0.0720
  294MOL0     C40494   1.177   0.003   8.412  0.3060  0.2326  0.8562
  294MOL0     C40495   1.223  -0.017   8.559  0.2068  0.4235 -0.7076
  294MOL0     C40496   1.099  -0.022   8.657  0.5514  0.5234  0.3217
  294MOL0     C40497   1.122  -0.070   8.797 -0.1081 -0.3166  0.5273
  294MOL0     C40498   1.179  -0.203   8.791  0.1236 -0.4073  1.0350
  294MOL0     C40499   1.219  -0.315   8.775  0.2560 -0.5470 -0.8152
  294MOL0     C40500   1.399  -0.109   8.149  1.4567  0.9950  0.6040
  294MOL0     C40501   1.521  -0.091   8.082 -0.7200  0.1528  0.2797
  294MOL0     C40502   1.547  -0.173   7.958 -0.0210  0.5181  0.8814
  294MOL0     H40503   1.952   0.337   8.055  0.7145  0.5765  1.2991
  294MOL0     H40504   2.142   0.343   7.903 -1.4958  1.0272 -0.4544
  294MOL0     H40505   2.246  -0.013   7.762 -0.8092  0.9810  1.1126
  294MOL0     H40506   2.412  -0.016   7.809 -1.4830 -3.3927 -2.7833
  294MOL0     H40507   2.299   0.168   7.593 -1.6668 -0.8212 -0.2858
  294MOL0     H40508   2.468   0.140   7.641 -0.4344  1.8861  0.4377
  294MOL0     H40509   2.468  -0.086   7.556  0.9692 -1.1352 -0.6079
  294MOL0     H40510   2.302  -0.078   7.524 -0.5470  0.8734 -0.3914
  294MOL0     H40511   2.399   0.144   7.368  0.4214 -0.2897 -2.2281
  294MOL0     H40512   2.514   0.027   7.356  0.2182  4.6942 -1.7177
  294MOL0     H40513   2.329   0.015   7.178  0.7960 -1.9741 -0.7384
  294MOL0     H40514   2.208  -0.009   7.315 -0.1901 -1.7972 -1.0474
  294MOL0     H40515   2.277  -0.240   7.337 -0.1643 -1.4966 -1.5109
  294MOL0     H40516   2.271  -0.218   7.162  0.0383  0.9666 -0.0233
  294MOL0     H40517   2.494  -0.225   7.354 -2.6359 -0.9553  0.0378
  294MOL0     H40518   2.523  -0.133   7.198 -0.0633 -1.3286 -2.2381
  294MOL0     H40519   2.441  -0.432   7.207 -0.0689 -2.0740 -3.8228
  294MOL0     H40520   2.508  -0.340   7.078 -0.3051  0.5478  0.7087
  294MOL0     H40521   2.760  -0.213   7.225  3.7552  0.9555  0.9634
  294MOL0     H40522   3.026  -0.278   7.277 -3.3746  1.3366 -0.0834
  294MOL0     H40523   3.059  -0.440   7.342 -0.9919 -1.0682 -0.4034
  294MOL0     H40524   3.051  -0.247   7.509 -0.7512  0.2569 -0.0861
  294MOL0     H40525   2.882  -0.218   7.478 -0.0938 -0.3615 -0.8396
  294MOL0     H40526   2.897  -0.339   7.668 -0.9220  0.6758 -0.7798
  294MOL0     H40527   2.846  -0.459   7.550  1.2202 -2.1847  2.1080
  294MOL0     H40528   3.034  -0.548   7.696 -0.8284 -0.5270 -0.4456
  294MOL0     H40529   3.058  -0.549   7.525 -3.0384 -3.4778  2.1103
  294MOL0     H40530   3.034  -0.441   7.871  1.5764 -2.8815  0.0217
  294MOL0     H40531   3.134  -0.473   8.172 -1.9219 -3.4162 -1.6462
  294MOL0     H40532   2.986  -0.425   8.090  1.6380  0.9009 -4.5781
  294MOL0     H40533   3.074  -0.304   8.172  0.7364  1.2194 -1.3979
  294MOL0     H40534   3.410   0.089   8.206 -0.8349  2.4292  2.4143
  294MOL0     H40535   3.483   0.197   8.425  0.4314  0.5090  0.0403
  294MOL0     H40536   3.768   0.188   8.453  4.0104 -0.9509  0.2687
  294MOL0     H40537   3.681   0.285   8.569 -0.8821 -1.5713  0.4358
  294MOL0     H40538   3.920   0.296   8.615  2.3218 -0.7120 -1.5206
  294MOL0     H40539   3.834   0.204   8.748 -4.2101 -2.0301 -1.2130
  294MOL0     H40540   3.912  -0.002   8.678 -1.7025  1.2930 -0.2971
  294MOL0     H40541   4.052   0.104   8.678  1.2183 -1.7249 -1.8309
  294MOL0     H40542   3.975   0.137   8.411  0.8541 -0.3192  0.4749
  294MOL0     H40543   3.888  -0.009   8.447  0.8976  0.8841 -2.1121
  294MOL0     H40544   4.188   0.008   8.492 -0.6800 -0.8264  2.1009
  294MOL0     H40545   4.090  -0.116   8.550  3.1042 -0.5897 -0.3562
  294MOL0     H40546   4.107  -0.046   8.244  0.6960  1.1674  1.5481
  294MOL0     H40547   4.017  -0.183   8.305  0.2037  1.6816 -0.5540
  294MOL0     H40548   4.208  -0.288   8.400  0.4720  0.0189 -0.6743
  294MOL0     H40549   4.310  -0.143   8.373  1.9938 -0.0328 -3.3311
  294MOL0     H40550   4.147  -0.259   8.151 -1.0687  4.0690  1.8003
  294MOL0     H40551   4.304  -0.335   8.191 -3.7860 -2.3323 -1.0307
  294MOL0     H40552   3.698  -0.168   8.523  1.6713  1.2895 -1.1470
  294MOL0     H40553   3.612  -0.270   8.325 -2.3734 -0.8713 -0.0263
  294MOL0     H40554   3.482  -0.235   7.904 -0.3843 -0.0008  3.7413
  294MOL0     H40555   3.405  -0.314   7.694  2.6323  3.6730  1.6865
  294MOL0     H40556   2.238  -0.062   8.018  0.5409  0.6908  0.7044
  294MOL0     H40557   2.018  -0.091   8.118  5.0036 -1.1255  1.6675
  294MOL0     H40558   1.629   0.155   8.292  1.7672  1.2035 -3.4862
  294MOL0     H40559   1.409   0.106   8.397 -1.2539 -0.2284 -0.9665
  294MOL0     H40560   1.192   0.107   8.381 -1.0574 -0.1121 -1.2142
  294MOL0     H40561   1.070  -0.019   8.415 -0.0471  1.8742  3.4460
  294MOL0     H40562   1.287   0.064   8.594  0.3772 -0.4635  1.1966
  294MOL0     H40563   1.288  -0.105   8.563  0.2998  0.5405  1.8657
  294MOL0     H40564   1.066   0.081   8.677 -2.2728 -0.3509  0.6925
  294MOL0     H40565   1.016  -0.071   8.605 -0.1636  2.2349 -0.2338
  294MOL0     H40566   1.028  -0.075   8.853  0.1303  0.1654  0.9816
  294MOL0     H40567   1.184   0.004   8.850  0.2096 -1.5711  1.9666
  294MOL0     H40568   1.261  -0.413   8.769  0.7948 -0.3444 -0.4153
  294MOL0     H40569   1.333  -0.185   8.108  2.7230 -0.2831  0.8577
  294MOL0     H40570   1.529  -0.279   7.978  1.7581 -0.0945 -0.5416
  294MOL0     H40571   1.500  -0.134   7.868  2.6268  0.2582 -0.7055
  294MOL0     H40572   1.652  -0.165   7.930 -0.1640  0.5625  0.3631
  295MOL0     O40573   5.145   3.620  10.062 -0.5604  0.4925 -0.7015
  295MOL0     C40574   5.096   3.737  10.058 -0.6053  0.6812 -0.7990
  295MOL0     O40575   5.015   3.776   9.961  0.1660 -0.2319  0.1863
  295MOL0     C40576   5.032   3.706   9.842  0.1228  0.6084 -0.0368
  295MOL0     C40577   4.912   3.663   9.780 -0.0808  0.1087  1.1382
  295MOL0     C40578   4.923   3.585   9.666 -0.1134 -0.2589  1.0081
  295MOL0     C40579   5.044   3.549   9.603  0.5412 -0.7814  0.7095
  295MOL0     O40580   5.035   3.465   9.491  0.1858  0.0267  0.1073
  295MOL0     C40581   5.151   3.378   9.480 -0.7342 -0.0263 -0.3288
  295MOL0     C40582   5.117   3.284   9.373  0.8319  0.3100 -0.2899
  295MOL0     C40583   5.231   3.182   9.352 -1.0405  0.6292  0.5093
  295MOL0     C40584   5.168   3.044   9.298  0.3232 -0.5261 -0.1960
  295MOL0     C40585   5.263   2.941   9.237  0.1654  0.5755 -0.1166
  295MOL0     C40586   5.337   2.985   9.105  0.0605 -0.2689 -0.4514
  295MOL0     C40587   5.257   2.985   8.977  0.6843 -0.4384  0.4516
  295MOL0     C40588   5.170   3.116   8.955  0.6534  1.2292  0.0381
  295MOL0     N40589   5.258   3.231   8.940  0.0382 -0.5055 -0.4066
  295MOL0     C40590   5.398   3.230   8.927  0.2807  0.0544  0.4903
  295MOL0     C40591   5.442   3.353   8.947 -0.2671  0.1577  0.4646
  295MOL0     C40592   5.584   3.406   8.935  0.6134  0.2502 -0.7469
  295MOL0     C40593   5.635   3.453   9.067 -0.7174  0.2617 -0.5565
  295MOL0     C40594   5.788   3.466   9.069  0.1907  0.2403 -0.7271
  295MOL0     C40595   5.857   3.519   9.196 -0.8322  1.4806  0.6488
  295MOL0     O40596   5.835   3.664   9.217  0.9106 -0.1842 -0.1169
  295MOL0     C40597   5.744   3.700   9.311  0.1742 -0.8843  0.3882
  295MOL0     C40598   5.674   3.615   9.398 -0.9002  0.1961  0.1495
  295MOL0     C40599   5.602   3.668   9.508 -0.2109 -0.0041 -0.5755
  295MOL0     C40600   5.542   3.568   9.600  0.3734  0.4170 -0.8335
  295MOL0     C40601   5.595   3.807   9.534 -0.6095 -0.0540  0.2999
  295MOL0     C40602   5.523   3.872   9.648  0.4382  0.2784  0.6044
  295MOL0     O40603   5.485   3.992   9.626 -0.8568  0.4931  0.2010
  295MOL0     C40604   5.405   4.058   9.710  1.7246  0.5904  0.5441
  295MOL0     C40605   5.442   4.173   9.779 -0.6801  0.0398  0.0077
  295MOL0     C40606   5.363   4.240   9.870  0.0908 -0.2720  0.2280
  295MOL0     C40607   5.236   4.186   9.887 -0.8480  0.2132 -0.0810
  295MOL0     O40608   5.164   4.230   9.994 -0.5679  0.5245  0.0549
  295MOL0     C40609   5.042   4.292   9.967 -0.9656  0.5677  1.0586
  295MOL0     C40610   4.967   4.321  10.092  0.1527  0.1115  0.4414
  295MOL0     C40611   4.886   4.199  10.159 -0.2592 -0.1517  0.2833
  295MOL0     C40612   4.833   4.244  10.306 -1.1752  0.1465  0.8389
  295MOL0     C40613   4.719   4.159  10.359  0.3886  0.1857 -0.2858
  295MOL0     C40614   4.681   4.198  10.502 -0.4440  0.3361  0.2360
  295MOL0     C40615   4.605   4.324  10.528 -0.6595  1.0869  0.2362
  295MOL0     C40616   4.467   4.311  10.455 -0.5275  0.5166  0.5352
  295MOL0    Cl40617   4.357   4.451  10.488  0.0829 -0.2751  0.0896
  295MOL0     C40618   5.191   4.068   9.824 -0.1339 -0.4902  0.4295
  295MOL0     C40619   5.276   4.013   9.729  0.4093  1.0331 -0.0278
  295MOL0     O40620   5.514   3.812   9.751 -0.6063 -0.5581 -0.4222
  295MOL0     C40621   5.649   3.885   9.435 -0.3424 -0.4002 -0.4041
  295MOL0     C40622   5.725   3.841   9.327 -0.1939  0.2245 -0.6408
  295MOL0     N40623   5.327   3.430   8.960  0.1048 -0.1581  1.1055
  295MOL0     N40624   5.226   3.359   8.958 -0.3347 -1.0518 -0.6721
  295MOL0     C40625   5.162   3.593   9.658 -0.2285 -0.4419 -0.4238
  295MOL0     C40626   5.152   3.663   9.782 -0.2061 -0.3420 -0.5109
  295MOL0     C40627   5.122   3.817  10.183 -1.0877  0.2254 -0.9569
  295MOL0     C40628   5.198   3.932  10.168 -0.6313 -0.0053 -0.3459
  295MOL0     C40629   5.208   4.018  10.269  0.1151 -0.4890  0.5732
  295MOL0     C40630   5.142   3.991  10.390  0.6081 -0.5934 -0.3307
  295MOL0     O40631   5.152   4.068  10.490 -0.2270 -0.3670 -0.1072
  295MOL0     C40632   5.244   4.172  10.485 -0.3539  0.2020 -0.2350
  295MOL0     C40633   5.255   4.255  10.616  0.1978  0.0610  0.1472
  295MOL0     C40634   5.308   4.174  10.731 -0.2891  0.4318  0.5814
  295MOL0     C40635   5.200   4.101  10.818  0.4220 -0.8104  0.0705
  295MOL0     C40636   5.151   4.189  10.930  0.4535 -0.6751  0.7153
  295MOL0     C40637   5.096   4.266  11.002 -0.4780 -0.4401  1.0256
  295MOL0     C40638   5.063   3.880  10.405  0.2780  0.5128  1.0699
  295MOL0     C40639   5.045   3.790  10.298  0.2462 -0.4973 -0.0553
  295MOL0     C40640   4.957   3.664  10.316 -0.3378  0.5636  0.3231
  295MOL0     H40641   4.828   3.695   9.841  1.9847  1.4077  3.4856
  295MOL0     H40642   4.833   3.553   9.613 -0.7017  3.2523 -0.4034
  295MOL0     H40643   5.160   3.313   9.567  4.0980  1.5130  0.6673
  295MOL0     H40644   5.245   3.428   9.452 -1.4210  0.5394 -1.7393
  295MOL0     H40645   5.036   3.228   9.420  3.2945 -2.6054  0.8081
  295MOL0     H40646   5.088   3.343   9.285 -4.0895  1.5345  1.8055
  295MOL0     H40647   5.301   3.215   9.274 -0.4799 -1.8492 -0.1350
  295MOL0     H40648   5.286   3.154   9.442  0.0346 -2.3936 -0.9516
  295MOL0     H40649   5.111   3.002   9.382  1.3594  1.3881  1.5824
  295MOL0     H40650   5.098   3.060   9.216  1.9859 -1.8577 -1.9550
  295MOL0     H40651   5.206   2.848   9.225  1.7361 -0.9021  2.7932
  295MOL0     H40652   5.326   2.894   9.313 -3.4521 -1.6773  1.7546
  295MOL0     H40653   5.404   3.069   9.125 -0.3103  0.0642 -0.6013
  295MOL0     H40654   5.407   2.901   9.096 -1.7448 -1.9514  0.4034
  295MOL0     H40655   5.205   2.890   8.967  0.7362 -0.2099 -3.8528
  295MOL0     H40656   5.326   2.978   8.892 -0.2616 -3.9468 -0.1646
  295MOL0     H40657   5.117   3.108   8.860  1.8697  1.4676 -0.6856
  295MOL0     H40658   5.101   3.135   9.038  0.6047 -0.5654  0.4519
  295MOL0     H40659   5.467   3.150   8.903 -0.4310 -0.4391  0.0847
  295MOL0     H40660   5.596   3.482   8.857  3.3044  2.5335  1.6725
  295MOL0     H40661   5.649   3.326   8.898  0.0871 -0.8788  0.6886
  295MOL0     H40662   5.593   3.551   9.091 -1.1220  0.9085 -3.5152
  295MOL0     H40663   5.610   3.385   9.149  1.9142  0.7535  0.7487
  295MOL0     H40664   5.819   3.362   9.062  1.8426  0.4811  1.9053
  295MOL0     H40665   5.812   3.531   8.984  0.2737  1.4990  0.2329
  295MOL0     H40666   5.838   3.461   9.287  0.8852  0.4866  0.4196
  295MOL0     H40667   5.964   3.516   9.174 -0.7528 -0.4914  1.0611
  295MOL0     H40668   5.686   3.507   9.399 -0.6774  0.1912  2.5467
  295MOL0     H40669   5.527   3.480   9.537  1.9347  0.1180 -0.8265
  295MOL0     H40670   5.447   3.612   9.632  2.1267  4.0060 -0.0489
  295MOL0     H40671   5.603   3.537   9.685 -2.3290 -1.8837  0.4012
  295MOL0     H40672   5.543   4.212   9.772  0.0798 -2.0248 -1.8926
  295MOL0     H40673   5.390   4.329   9.926  1.7386  0.0453 -0.9800
  295MOL0     H40674   5.054   4.386   9.912 -5.8019  0.3383 -0.8465
  295MOL0     H40675   4.980   4.230   9.902  0.3185  1.9013 -1.6426
  295MOL0     H40676   5.038   4.367  10.161 -0.8622  4.3106 -1.0291
  295MOL0     H40677   4.900   4.401  10.061 -2.5231 -2.9603 -2.5467
  295MOL0     H40678   4.948   4.109  10.155  0.0663 -0.0211  1.8138
  295MOL0     H40679   4.796   4.173  10.102  0.5055 -0.3139 -0.8642
  295MOL0     H40680   4.788   4.343  10.291 -4.1390 -1.0804  1.0737
  295MOL0     H40681   4.919   4.235  10.373 -0.1074  1.1744 -0.3454
  295MOL0     H40682   4.641   4.161  10.283  2.2645 -3.7564 -2.6451
  295MOL0     H40683   4.747   4.053  10.358 -1.4571 -0.3534  0.3534
  295MOL0     H40684   4.767   4.187  10.568 -0.9289  1.5681  1.1103
  295MOL0     H40685   4.612   4.119  10.531  2.0128 -1.0663  2.7452
  295MOL0     H40686   4.661   4.405  10.481  1.9280 -1.4377 -1.3902
  295MOL0     H40687   4.585   4.331  10.635  2.0296  0.9025  0.8232
  295MOL0     H40688   4.417   4.217  10.481  1.3397 -1.7125 -3.0735
  295MOL0     H40689   4.479   4.300  10.347 -1.8226  0.5380  0.3714
  295MOL0     H40690   5.089   4.035   9.839 -0.9371  1.5074 -0.2272
  295MOL0     H40691   5.245   3.928   9.669 -1.8481  4.7115 -4.7841
  295MOL0     H40692   5.629   3.990   9.457 -1.5110 -0.8719  0.9688
  295MOL0     H40693   5.787   3.907   9.267  0.0062  2.0280  1.4307
  295MOL0     H40694   5.255   3.577   9.605 -0.4791 -4.2517  0.0121
  295MOL0     H40695   5.248   3.695   9.821 -0.8889  2.4707 -0.9139
  295MOL0     H40696   5.250   3.953  10.075  2.4241 -1.5474  0.8692
  295MOL0     H40697   5.255   4.111  10.240  3.0121 -2.8880 -3.5664
  295MOL0     H40698   5.347   4.142  10.461  0.2841  2.3510 -0.3838
  295MOL0     H40699   5.222   4.244  10.405  1.9787  0.4494 -0.7354
  295MOL0     H40700   5.153   4.286  10.640 -0.0273 -2.6251  3.5535
  295MOL0     H40701   5.320   4.340  10.594 -0.4894  0.7979  0.8527
  295MOL0     H40702   5.370   4.092  10.693 -1.1611 -0.1268  0.3309
  295MOL0     H40703   5.386   4.234  10.779  0.9883  0.2480 -1.1699
  295MOL0     H40704   5.237   4.006  10.858  0.7464 -0.5035  0.5141
  295MOL0     H40705   5.125   4.063  10.749 -1.7253  0.1194  1.7936
  295MOL0     H40706   5.026   4.324  11.058 -0.3111 -0.2394  1.0256
  295MOL0     H40707   4.999   3.861  10.491 -1.0060 -1.6454 -0.2482
  295MOL0     H40708   5.005   3.569  10.294 -0.1915  0.2432  1.8805
  295MOL0     H40709   4.929   3.660  10.422 -0.5219 -1.5890  0.2409
  295MOL0     H40710   4.863   3.677  10.262  0.6369  1.7738 -1.1589
  296MOL0     O40711  10.231   2.047   7.539  0.3002  0.0965  0.5323
  296MOL0     C40712  10.264   2.089   7.648  0.1378 -0.0603  0.1099
  296MOL0     O40713  10.323   2.011   7.751  1.0132  0.0612  0.7341
  296MOL0     C40714  10.361   1.881   7.703  0.1103  0.2907  0.5669
  296MOL0     C40715  10.271   1.783   7.643 -0.0515  0.0793  0.7311
  296MOL0     C40716  10.324   1.655   7.616  1.0070 -0.6080 -0.2465
  296MOL0     C40717  10.452   1.624   7.641 -0.2621 -0.1592  0.7490
  296MOL0     O40718  10.508   1.504   7.611 -0.0828  0.4544  0.4859
  296MOL0     C40719  10.425   1.405   7.544  0.8675  1.6411 -0.0997
  296MOL0     C40720  10.489   1.275   7.487 -0.6274  0.4159 -0.2998
  296MOL0     C40721  10.547   1.173   7.591  0.0085  0.1920 -0.4568
  296MOL0     C40722  10.618   1.051   7.536  0.4177 -0.2660  0.3161
  296MOL0     C40723  10.651   0.943   7.632  0.3800 -0.3055  0.1867
  296MOL0     C40724  10.721   0.974   7.767  0.4926  0.4450  0.6791
  296MOL0     C40725  10.862   1.033   7.747 -0.1067 -0.5917  0.7505
  296MOL0     C40726  10.953   0.940   7.670 -1.0847 -0.2794  0.6079
  296MOL0     N40727  11.085   0.988   7.663  0.1923 -1.2871  0.5012
  296MOL0     C40728  11.134   1.047   7.549  0.2633  0.4264 -0.5503
  296MOL0     C40729  11.244   1.106   7.592  0.5957 -0.0294 -0.3294
  296MOL0     C40730  11.336   1.195   7.515  1.0222  0.9882 -0.0550
  296MOL0     C40731  11.261   1.324   7.483 -1.1694  1.2933 -0.3776
  296MOL0     C40732  11.354   1.418   7.406 -0.0421  0.6710  0.3619
  296MOL0     C40733  11.308   1.565   7.408  0.3557 -0.3410 -0.6105
  296MOL0     O40734  11.402   1.666   7.409 -0.4957 -0.7876 -0.4179
  296MOL0     C40735  11.464   1.702   7.286  0.0744 -0.1420 -0.4720
  296MOL0     C40736  11.527   1.829   7.287 -0.0533  0.4827  0.4902
  296MOL0     C40737  11.539   1.908   7.174  0.7606 -0.5300  0.6807
  296MOL0     C40738  11.566   2.054   7.198 -0.5386  0.1882  0.1295
  296MOL0     C40739  11.508   1.853   7.050  0.2861  0.6801 -0.0266
  296MOL0     C40740  11.547   1.921   6.932 -0.4759  0.3508  0.5656
  296MOL0     O40741  11.677   1.969   6.916  0.1180 -0.3345  0.2503
  296MOL0     C40742  11.713   2.047   6.802  0.8541  0.1079  0.2087
  296MOL0     C40743  11.651   2.029   6.672 -0.3502  0.4673  0.8390
  296MOL0     C40744  11.695   2.108   6.567  0.3195 -1.0375 -0.4046
  296MOL0     C40745  11.787   2.214   6.589 -0.2108  0.0681  0.2760
  296MOL0     O40746  11.825   2.306   6.491  0.1246  0.2795  0.2106
  296MOL0     C40747  11.738   2.338   6.393 -0.7413 -0.0390  0.6682
  296MOL0     C40748  11.774   2.474   6.326 -0.1921  0.1532  0.6194
  296MOL0     C40749  11.792   2.580   6.434  0.1082  0.2943  0.5411
  296MOL0     C40750  11.675   2.610   6.538 -0.1937  0.3276 -0.1930
  296MOL0     C40751  11.656   2.763   6.547  0.0545 -0.0269 -0.3993
  296MOL0     C40752  11.555   2.799   6.662 -0.1446 -0.0414 -0.8967
  296MOL0     C40753  11.517   2.945   6.675  0.3996 -0.7814  0.5249
  296MOL0     C40754  11.425   2.993   6.556 -0.4136 -0.3195 -0.5175
  296MOL0    Cl40755  11.264   2.918   6.575 -0.3085 -0.0033  0.1163
  296MOL0     C40756  11.839   2.240   6.717 -0.1731  0.3238 -0.7626
  296MOL0     C40757  11.804   2.149   6.816 -0.2993  0.0107 -0.0490
  296MOL0     O40758  11.454   1.914   6.852  0.1563 -0.0088  0.1331
  296MOL0     C40759  11.467   1.720   7.043  0.6705  0.1443 -0.5270
  296MOL0     C40760  11.441   1.641   7.160  0.5768  1.0508 -0.3474
  296MOL0     N40761  11.262   1.071   7.726 -0.3440 -0.9869  0.1446
  296MOL0     N40762  11.171   0.988   7.766  0.7399 -0.1784  0.0400
  296MOL0     C40763  10.538   1.716   7.695  0.6388 -0.6556 -0.2160
  296MOL0     C40764  10.492   1.845   7.731 -0.5143  0.2833 -0.7469
  296MOL0     C40765  10.258   2.238   7.660 -0.8287 -0.1452  0.2194
  296MOL0     C40766  10.341   2.305   7.753  0.0595 -1.1042  0.1841
  296MOL0     C40767  10.326   2.439   7.784  0.5620  0.4070  0.3533
  296MOL0     C40768  10.228   2.511   7.729  0.1779 -0.0058  0.3179
  296MOL0     O40769  10.212   2.638   7.781  0.9542  0.0505 -0.5783
  296MOL0     C40770  10.074   2.684   7.815 -0.3951 -0.1539  0.5079
  296MOL0     C40771  10.076   2.822   7.874  0.2678  0.0173 -0.3123
  296MOL0     C40772   9.938   2.869   7.915 -0.5433 -0.4111 -0.2517
  296MOL0     C40773   9.894   2.823   8.051 -0.2704 -0.2650 -0.4354
  296MOL0     C40774   9.750   2.854   8.086  0.0636  0.0066  0.9349
  296MOL0     C40775   9.631   2.853   8.116  0.0185 -0.3605 -0.0285
  296MOL0     C40776  10.138   2.450   7.643 -0.6363 -0.4598 -0.5647
  296MOL0     C40777  10.148   2.312   7.610  0.5023  0.8079  0.1648
  296MOL0     C40778  10.033   2.252   7.526  0.7433 -0.3489  0.4405
  296MOL0     H40779  10.170   1.816   7.622 -0.0714 -0.6745 -0.4591
  296MOL0     H40780  10.243   1.594   7.576 -2.5430 -1.3526  6.5472
  296MOL0     H40781  10.371   1.458   7.465 -0.0562 -0.9210 -1.2920
  296MOL0     H40782  10.354   1.363   7.616 -0.0211 -1.6508 -2.6855
  296MOL0     H40783  10.424   1.220   7.419  0.0781  0.1620 -0.7800
  296MOL0     H40784  10.577   1.312   7.433 -0.3536 -0.4845 -0.4860
  296MOL0     H40785  10.592   1.224   7.677 -3.2478  2.1507  0.2886
  296MOL0     H40786  10.458   1.138   7.643 -1.3557  1.1212 -2.0672
  296MOL0     H40787  10.553   1.018   7.455  2.0747 -1.5313 -0.5588
  296MOL0     H40788  10.705   1.090   7.481  0.6966 -2.3222 -0.7851
  296MOL0     H40789  10.713   0.867   7.585  2.2654  1.2170  0.0893
  296MOL0     H40790  10.568   0.874   7.654  3.1521 -4.4575 -1.1851
  296MOL0     H40791  10.651   1.036   7.823 -0.5364 -0.3297  0.2803
  296MOL0     H40792  10.727   0.879   7.821 -0.2944  1.1575  2.0706
  296MOL0     H40793  10.911   1.052   7.843 -1.2061  2.4783  0.8153
  296MOL0     H40794  10.846   1.128   7.695  1.1652 -2.6741 -3.9726
  296MOL0     H40795  10.964   0.843   7.719 -0.3754  0.3758  1.7694
  296MOL0     H40796  10.914   0.918   7.570 -0.0969 -0.1262  0.1821
  296MOL0     H40797  11.084   1.058   7.453 -1.7807  2.4793  0.6852
  296MOL0     H40798  11.375   1.144   7.426  0.7937 -1.1718  1.0249
  296MOL0     H40799  11.412   1.218   7.590 -0.6123  1.9999  1.3613
  296MOL0     H40800  11.171   1.294   7.430 -3.5626  2.1753  2.8378
  296MOL0     H40801  11.214   1.363   7.574 -0.5688 -0.5271  0.7780
  296MOL0     H40802  11.459   1.407   7.434  0.1306 -2.6635 -1.1125
  296MOL0     H40803  11.357   1.388   7.301  3.9958  3.7429 -0.6557
  296MOL0     H40804  11.235   1.567   7.327 -1.7615 -0.8939  1.1610
  296MOL0     H40805  11.240   1.583   7.492 -2.0761  0.3030 -2.5900
  296MOL0     H40806  11.546   1.873   7.384  2.5239 -2.1399  1.3188
  296MOL0     H40807  11.673   2.063   7.174 -0.6734 -0.0570 -0.5810
  296MOL0     H40808  11.538   2.075   7.302 -4.0985 -1.0863 -0.4570
  296MOL0     H40809  11.524   2.119   7.121  0.1782 -0.8274 -1.1619
  296MOL0     H40810  11.586   1.944   6.656 -1.3043  1.5255 -1.2442
  296MOL0     H40811  11.671   2.084   6.464 -2.8876 -0.1826  0.0329
  296MOL0     H40812  11.739   2.257   6.319  0.8034  0.4840  0.0867
  296MOL0     H40813  11.638   2.356   6.434  0.1920  1.0560  2.5935
  296MOL0     H40814  11.861   2.468   6.259 -0.2543  2.2658  0.2659
  296MOL0     H40815  11.693   2.520   6.269  0.4482 -1.3357 -1.6154
  296MOL0     H40816  11.812   2.677   6.388  1.6911 -0.5846 -0.7207
  296MOL0     H40817  11.881   2.553   6.491 -0.1295 -1.5906  0.0832
  296MOL0     H40818  11.699   2.570   6.637 -2.1103 -1.4092 -0.3533
  296MOL0     H40819  11.590   2.552   6.500  1.8489 -1.3313 -2.5766
  296MOL0     H40820  11.751   2.814   6.568  0.8289 -1.6585  0.2336
  296MOL0     H40821  11.625   2.812   6.455 -0.9177 -1.5264 -0.9046
  296MOL0     H40822  11.591   2.776   6.763 -0.0979  4.1152  0.2302
  296MOL0     H40823  11.470   2.731   6.649  1.1810 -2.2714  1.2602
  296MOL0     H40824  11.611   3.001   6.676  1.4755 -2.5128 -0.0714
  296MOL0     H40825  11.468   2.961   6.771  1.3448 -0.0817  0.9029
  296MOL0     H40826  11.476   2.956   6.467  3.8934  3.2669  0.1305
  296MOL0     H40827  11.422   3.102   6.547 -0.6313 -0.1590  1.1938
  296MOL0     H40828  11.907   2.323   6.736  0.1526 -0.3283  1.2033
  296MOL0     H40829  11.843   2.148   6.918 -2.6941  0.2262  0.9472
  296MOL0     H40830  11.440   1.687   6.943 -0.0131  2.1323 -1.0482
  296MOL0     H40831  11.398   1.541   7.151  2.8288  0.0642 -0.8008
  296MOL0     H40832  10.640   1.685   7.712  0.9936  0.5857  0.0431
  296MOL0     H40833  10.565   1.911   7.776 -0.0963 -1.2678  1.0002
  296MOL0     H40834  10.420   2.239   7.787  0.9555 -0.2524 -0.1911
  296MOL0     H40835  10.385   2.496   7.856  1.2468  0.7933 -0.4945
  296MOL0     H40836  10.023   2.697   7.719  1.4443 -0.2934 -0.5364
  296MOL0     H40837  10.012   2.610   7.867 -1.3801  0.0565 -0.3248
  296MOL0     H40838  10.122   2.888   7.800  1.5086 -0.7481 -0.2572
  296MOL0     H40839  10.140   2.820   7.963  0.3253  0.4909 -0.3373
  296MOL0     H40840   9.929   2.978   7.912 -2.6674 -0.5422 -0.0735
  296MOL0     H40841   9.864   2.830   7.845  1.1799 -1.5072 -1.5672
  296MOL0     H40842   9.957   2.875   8.124 -0.3949  0.1510 -0.6170
  296MOL0     H40843   9.909   2.716   8.063  0.6813  0.0171  1.1588
  296MOL0     H40844   9.525   2.855   8.129  0.0384 -0.2194  0.1042
  296MOL0     H40845  10.048   2.503   7.613  0.0592  0.2759 -1.4042
  296MOL0     H40846   9.989   2.176   7.591 -2.4076  0.8449 -0.1432
  296MOL0     H40847   9.951   2.318   7.498 -0.0484 -1.8258 -0.9017
  296MOL0     H40848  10.076   2.201   7.438 -0.2581 -1.2422  0.4450
  297MOL0     O40849   9.827   2.987   1.235 -0.4245  0.6209 -0.8187
  297MOL0     C40850   9.828   2.868   1.205 -0.1309 -0.3037 -0.4029
  297MOL0     O40851   9.944   2.789   1.195  0.1613 -0.4810  0.0120
  297MOL0     C40852  10.064   2.841   1.238  1.5703 -1.0889  0.1437
  297MOL0     C40853  10.155   2.746   1.266  0.5892 -0.1025 -0.8554
  297MOL0     C40854  10.281   2.780   1.297 -0.3555  0.2140  0.4440
  297MOL0     C40855  10.326   2.919   1.303 -0.0131 -0.2089  0.5763
  297MOL0     O40856  10.458   2.948   1.340  0.1243 -0.0558  0.5133
  297MOL0     C40857  10.487   3.090   1.367  0.1327  0.1644 -0.2823
  297MOL0     C40858  10.622   3.119   1.420 -0.0089 -0.3795 -0.4344
  297MOL0     C40859  10.628   3.269   1.449  0.0063  1.0419 -0.1021
  297MOL0     C40860  10.648   3.356   1.324 -0.6574 -0.9103 -0.9661
  297MOL0     C40861  10.706   3.488   1.364  0.3148 -0.6337 -0.6983
  297MOL0     C40862  10.757   3.582   1.255 -1.2888  0.5160 -0.7924
  297MOL0     C40863  10.798   3.721   1.314 -0.0814  0.6948 -0.7764
  297MOL0     C40864  10.893   3.717   1.431 -0.2410  0.4895 -0.3452
  297MOL0     N40865  10.961   3.842   1.456 -0.1562  0.3003 -0.1131
  297MOL0     C40866  11.011   3.879   1.577  0.4386 -0.0412  0.1987
  297MOL0     C40867  11.103   3.973   1.545  0.1864 -0.2785  0.3546
  297MOL0     C40868  11.215   4.021   1.630 -0.0924 -0.1088 -1.0391
  297MOL0     C40869  11.216   4.172   1.652 -0.2358 -0.7026 -0.7484
  297MOL0     C40870  11.299   4.255   1.558  0.1470 -0.1651  0.0543
  297MOL0     C40871  11.452   4.238   1.552 -0.3244 -0.2216 -0.5745
  297MOL0     O40872  11.502   4.243   1.685 -0.5369 -0.2974 -0.3146
  297MOL0     C40873  11.627   4.207   1.710 -0.7567  0.2903  1.2360
  297MOL0     C40874  11.711   4.136   1.622  0.0574 -0.3909 -0.6635
  297MOL0     C40875  11.842   4.098   1.660 -0.0500  0.1486  0.5497
  297MOL0     C40876  11.934   4.046   1.553 -0.7107  0.2082  0.6820
  297MOL0     C40877  11.884   4.109   1.796 -0.2099 -0.3008 -0.5774
  297MOL0     C40878  12.010   4.052   1.853 -0.3438  0.1441  0.9413
  297MOL0     O40879  12.067   3.936   1.805  0.3262  0.6457  0.5669
  297MOL0     C40880  12.176   3.887   1.871 -0.0602  0.9934 -0.3327
  297MOL0     C40881  12.142   3.759   1.924 -0.4547  0.4919 -0.2006
  297MOL0     C40882  12.223   3.697   2.025  0.9052  0.2455  0.4828
  297MOL0     C40883  12.348   3.748   2.058  0.4731  0.9627  1.2547
  297MOL0     O40884  12.418   3.682   2.156  0.1505 -0.5849 -1.1111
  297MOL0     C40885  12.420   3.541   2.154 -0.3825  0.0925  0.0350
  297MOL0     C40886  12.526   3.498   2.250  0.1892  0.5446 -0.8623
  297MOL0     C40887  12.496   3.535   2.400  0.4103 -0.3523  0.1025
  297MOL0     C40888  12.593   3.480   2.503 -0.5511  0.0121  0.0758
  297MOL0     C40889  12.576   3.529   2.646  0.2677 -0.4259  0.6000
  297MOL0     C40890  12.669   3.490   2.748 -0.6815 -1.2175  0.0145
  297MOL0     C40891  12.633   3.554   2.876 -2.0087  0.0234 -0.0542
  297MOL0     C40892  12.531   3.477   2.964  0.3715  0.4047  0.1739
  297MOL0    Cl40893  12.526   3.537   3.134 -0.2126 -0.1242  0.1146
  297MOL0     C40894  12.386   3.862   1.997  0.0953 -0.2383  0.1945
  297MOL0     C40895  12.297   3.933   1.906 -0.2287  0.7459 -0.2413
  297MOL0     O40896  12.050   4.101   1.958 -0.2667 -0.3428  0.4884
  297MOL0     C40897  11.799   4.187   1.880 -0.8649  0.4438  0.6974
  297MOL0     C40898  11.680   4.236   1.831  0.0730 -0.1453  0.1408
  297MOL0     N40899  11.101   3.994   1.405 -0.1503 -0.3355 -0.0502
  297MOL0     N40900  11.017   3.915   1.352 -0.8593  0.7707  0.2917
  297MOL0     C40901  10.232   3.014   1.275  0.2986 -1.3828  0.5670
  297MOL0     C40902  10.100   2.975   1.232  0.6495  0.0890 -0.7763
  297MOL0     C40903   9.692   2.809   1.162 -0.0510  0.1879 -0.6705
  297MOL0     C40904   9.572   2.881   1.172  0.3972 -0.3308 -0.2772
  297MOL0     C40905   9.451   2.827   1.125 -0.4320  0.2360 -0.0803
  297MOL0     C40906   9.443   2.701   1.073 -0.0890  0.0648  1.1080
  297MOL0     O40907   9.324   2.658   1.023 -0.2273  0.2660  0.3817
  297MOL0     C40908   9.311   2.524   0.995  0.3662 -1.2527 -0.3837
  297MOL0     C40909   9.171   2.501   0.948  0.2217  0.1469  0.3486
  297MOL0     C40910   9.069   2.534   1.058 -0.0250 -0.5997 -0.2144
  297MOL0     C40911   8.926   2.554   1.007 -1.0448  1.0224  0.2966
  297MOL0     C40912   8.885   2.434   0.921 -0.7935 -0.1925  1.0537
  297MOL0     C40913   8.842   2.346   0.855 -0.1167 -0.0469 -0.2691
  297MOL0     C40914   9.558   2.619   1.085 -0.0721 -0.6854 -0.3523
  297MOL0     C40915   9.680   2.668   1.129  0.3431  0.4642  0.6117
  297MOL0     C40916   9.788   2.558   1.143  0.0665  0.2047 -0.1939
  297MOL0     H40917  10.132   2.639   1.265  1.7304 -0.3670 -0.0857
  297MOL0     H40918  10.358   2.709   1.325 -0.9624  0.1096  1.9325
  297MOL0     H40919  10.410   3.115   1.441 -0.1984  1.5176 -1.0602
  297MOL0     H40920  10.471   3.150   1.277 -0.4668  2.1184  1.0804
  297MOL0     H40921  10.648   3.057   1.507  2.5569 -0.8181 -1.4248
  297MOL0     H40922  10.689   3.099   1.336  1.0382 -0.0782  0.3071
  297MOL0     H40923  10.537   3.310   1.493  0.5695  4.1524 -1.5618
  297MOL0     H40924  10.710   3.285   1.520  1.6127 -2.8385 -0.8305
  297MOL0     H40925  10.729   3.314   1.263  1.2918  0.5130  0.5463
  297MOL0     H40926  10.555   3.363   1.267 -0.0044  0.6118 -1.9183
  297MOL0     H40927  10.791   3.463   1.428 -1.1944  0.5212  1.9224
  297MOL0     H40928  10.621   3.537   1.411  1.0430 -1.3265  1.4481
  297MOL0     H40929  10.840   3.534   1.203 -2.4658 -3.2153  0.4563
  297MOL0     H40930  10.675   3.597   1.184 -0.1807 -3.4567 -3.1944
  297MOL0     H40931  10.708   3.765   1.359 -0.1845 -0.5268  0.2773
  297MOL0     H40932  10.840   3.777   1.231  0.5617 -1.2392 -1.8161
  297MOL0     H40933  10.837   3.691   1.521 -0.0378 -1.7580 -0.7987
  297MOL0     H40934  10.967   3.640   1.409  0.6899  1.9817 -2.8146
  297MOL0     H40935  11.002   3.834   1.675 -0.9196  0.4240  0.3091
  297MOL0     H40936  11.308   3.982   1.587  0.0723 -0.2718 -0.5392
  297MOL0     H40937  11.200   3.966   1.724 -2.0312 -2.5605 -2.6480
  297MOL0     H40938  11.117   4.215   1.672  0.3297 -0.2526  1.3335
  297MOL0     H40939  11.251   4.182   1.755  1.3801  0.1974 -1.3385
  297MOL0     H40940  11.251   4.251   1.460  2.4300  0.3890 -1.1486
  297MOL0     H40941  11.292   4.357   1.598 -2.0093 -0.7742  1.4459
  297MOL0     H40942  11.469   4.139   1.510  1.0679 -0.4216  0.3716
  297MOL0     H40943  11.509   4.297   1.479 -1.6673  1.2420 -0.4997
  297MOL0     H40944  11.672   4.121   1.521  1.2234  0.1076 -1.2044
  297MOL0     H40945  11.882   4.060   1.458 -0.8992  0.2660  0.7940
  297MOL0     H40946  11.963   3.941   1.561  0.8825  0.5393 -0.2661
  297MOL0     H40947  12.023   4.108   1.541  0.9909 -1.9545  1.6025
  297MOL0     H40948  12.053   3.703   1.898  0.5382 -2.3498  1.9458
  297MOL0     H40949  12.165   3.614   2.066 -3.3115  1.9825 -1.3860
  297MOL0     H40950  12.327   3.496   2.190  0.8210 -2.9392 -0.2783
  297MOL0     H40951  12.450   3.505   2.055 -0.1682  0.2183  0.0538
  297MOL0     H40952  12.537   3.390   2.232  0.9257  0.0840  1.7799
  297MOL0     H40953  12.621   3.543   2.219  0.3248  1.1629  0.3539
  297MOL0     H40954  12.394   3.503   2.420  0.3705  0.1712  0.7775
  297MOL0     H40955  12.486   3.642   2.417  0.7809 -0.1126 -1.1156
  297MOL0     H40956  12.697   3.499   2.473 -0.6104  0.7610  0.3334
  297MOL0     H40957  12.581   3.373   2.522 -2.0066  0.1424 -0.0198
  297MOL0     H40958  12.564   3.637   2.642  1.4749 -0.2635  1.1352
  297MOL0     H40959  12.479   3.494   2.684 -0.6104  1.6832  0.4125
  297MOL0     H40960  12.765   3.521   2.704 -0.6125 -1.2335  0.1555
  297MOL0     H40961  12.674   3.382   2.761 -3.2221 -1.3670  0.1469
  297MOL0     H40962  12.597   3.655   2.851  0.7157  0.4407 -2.8634
  297MOL0     H40963  12.735   3.554   2.913 -0.7332 -1.3642 -3.1777
  297MOL0     H40964  12.558   3.371   2.963 -2.2853 -0.3523 -1.0412
  297MOL0     H40965  12.435   3.484   2.912 -0.4356 -1.8455  1.2092
  297MOL0     H40966  12.481   3.907   2.027 -0.5621  0.6992  0.9291
  297MOL0     H40967  12.333   4.027   1.865  1.5321  0.3743  0.3436
  297MOL0     H40968  11.834   4.202   1.982 -3.2077  0.2602  1.5983
  297MOL0     H40969  11.621   4.288   1.906 -0.2249 -3.8585  2.7607
  297MOL0     H40970  10.254   3.119   1.294  2.8267 -1.8485  0.5060
  297MOL0     H40971  10.038   3.055   1.193 -1.0232 -0.8279 -0.1320
  297MOL0     H40972   9.569   2.986   1.199  2.4092  0.2481 -2.0058
  297MOL0     H40973   9.364   2.891   1.137 -4.4702 -4.7910  1.5317
  297MOL0     H40974   9.385   2.506   0.917  2.1572  1.7681  0.4327
  297MOL0     H40975   9.314   2.476   1.093 -1.1778  3.3281  2.2429
  297MOL0     H40976   9.157   2.408   0.892  1.1620  1.5310 -2.3759
  297MOL0     H40977   9.153   2.571   0.865 -1.7715 -1.5737 -0.7764
  297MOL0     H40978   9.080   2.456   1.134 -1.5303 -1.1364 -0.5176
  297MOL0     H40979   9.089   2.618   1.125  0.2157 -1.1389  0.4063
  297MOL0     H40980   8.916   2.649   0.953 -1.9069  1.1921  0.7330
  297MOL0     H40981   8.858   2.566   1.093  0.7108  1.0138  1.7456
  297MOL0     H40982   8.812   2.261   0.797 -3.0800  0.3019  0.5634
  297MOL0     H40983   9.560   2.512   1.068  1.0727 -0.4324 -2.0850
  297MOL0     H40984   9.808   2.547   1.250 -2.8139 -0.5810  0.3448
  297MOL0     H40985   9.752   2.464   1.099  2.0191 -0.8269  0.2993
  297MOL0     H40986   9.871   2.593   1.081  2.7238 -3.9948  0.5750
  298MOL0     O40987   2.209   3.026   6.101 -1.0963 -1.0574 -0.6761
  298MOL0     C40988   2.241   2.982   6.211 -0.6472  0.1540 -0.7672
  298MOL0     O40989   2.170   2.879   6.269  0.0133 -0.4522 -0.9341
  298MOL0     C40990   2.108   2.782   6.196 -0.0916  0.3047  0.0162
  298MOL0     C40991   1.981   2.735   6.240  0.7844  0.0736 -0.9975
  298MOL0     C40992   1.912   2.637   6.174 -0.6463  0.2112  0.1493
  298MOL0     C40993   1.970   2.576   6.059 -0.2772  0.4311 -0.3368
  298MOL0     O40994   1.890   2.487   5.996  0.1139 -0.9803  0.3803
  298MOL0     C40995   1.952   2.367   5.967 -0.0155  0.1599  0.9340
  298MOL0     C40996   1.908   2.257   6.070 -0.0561  1.1752 -0.4260
  298MOL0     C40997   1.954   2.284   6.213  1.1343 -0.0561 -0.3898
  298MOL0     C40998   2.114   2.289   6.224 -0.2258 -0.9586 -0.4537
  298MOL0     C40999   2.154   2.264   6.369 -0.0371  0.7940 -0.5306
  298MOL0     C41000   2.304   2.273   6.404  0.1237  0.9477  1.7067
  298MOL0     C41001   2.367   2.136   6.372 -0.4569 -0.8597  0.8102
  298MOL0     C41002   2.516   2.139   6.402 -0.8823  0.1733 -0.4248
  298MOL0     N41003   2.540   2.175   6.546  0.4271  0.3798  0.0543
  298MOL0     C41004   2.499   2.108   6.661  0.0987  0.8566  0.0184
  298MOL0     C41005   2.538   2.180   6.765  0.1585 -0.6225  0.2408
  298MOL0     C41006   2.542   2.142   6.916 -0.1043 -0.3011 -0.0364
  298MOL0     C41007   2.402   2.147   6.971 -0.0125  1.2645  0.2190
  298MOL0     C41008   2.387   2.047   7.089 -0.1426  0.4749 -0.5415
  298MOL0     C41009   2.449   2.100   7.217 -0.0543  0.2056 -0.7945
  298MOL0     O41010   2.401   2.230   7.258 -0.8438  0.7979  0.3024
  298MOL0     C41011   2.293   2.246   7.336  0.2091 -0.2769  0.1285
  298MOL0     C41012   2.228   2.146   7.413  0.3962  0.1229 -0.4190
  298MOL0     C41013   2.130   2.177   7.509 -0.3631 -0.4947  0.2720
  298MOL0     C41014   2.049   2.063   7.562 -0.4065  1.1931 -0.5534
  298MOL0     C41015   2.105   2.311   7.543  0.4933 -0.2299  0.2716
  298MOL0     C41016   2.002   2.349   7.649 -0.1911  1.1107  0.5232
  298MOL0     O41017   1.943   2.470   7.637 -0.0698  0.0186  0.6097
  298MOL0     C41018   1.823   2.490   7.712  0.8153 -0.0776 -0.3804
  298MOL0     C41019   1.703   2.435   7.665  0.0377 -1.0642  0.1524
  298MOL0     C41020   1.594   2.463   7.741  0.1491  0.5262 -0.0795
  298MOL0     C41021   1.593   2.545   7.860 -0.5786 -0.3953  0.0166
  298MOL0     O41022   1.463   2.557   7.909  0.1928 -0.2750 -0.3542
  298MOL0     C41023   1.462   2.610   8.045 -0.1237 -0.1309 -0.4276
  298MOL0     C41024   1.335   2.566   8.104 -0.6466  1.0242 -0.2119
  298MOL0     C41025   1.340   2.409   8.116 -0.4923 -1.3064  0.9876
  298MOL0     C41026   1.413   2.359   8.234  0.4197  0.1695 -0.9676
  298MOL0     C41027   1.434   2.210   8.213  0.7646  0.3950  0.5829
  298MOL0     C41028   1.516   2.141   8.324 -0.1260 -0.0418  0.2410
  298MOL0     C41029   1.525   1.993   8.289  1.1022  0.0799  0.2280
  298MOL0     C41030   1.638   1.916   8.356  0.6272 -0.4236 -0.0639
  298MOL0    Cl41031   1.632   1.980   8.525  0.0390  0.0363  0.3618
  298MOL0     C41032   1.712   2.595   7.906  0.2370 -0.0437  0.6498
  298MOL0     C41033   1.824   2.555   7.836 -0.5733  0.5610 -0.2071
  298MOL0     O41034   1.984   2.272   7.739 -0.4076 -0.2114 -0.2827
  298MOL0     C41035   2.160   2.415   7.465 -0.7572 -0.0423  0.1015
  298MOL0     C41036   2.250   2.378   7.361 -0.9088 -0.6734 -0.7380
  298MOL0     N41037   2.596   2.289   6.712 -0.0445 -0.0457  0.2380
  298MOL0     N41038   2.592   2.291   6.582  0.7060 -0.4799 -0.2213
  298MOL0     C41039   2.087   2.628   6.006 -0.9441  0.7656 -0.1009
  298MOL0     C41040   2.156   2.728   6.079 -0.0374 -0.0070 -0.5730
  298MOL0     C41041   2.346   3.062   6.290 -0.2012 -0.3345  0.9977
  298MOL0     C41042   2.321   3.068   6.429  0.0988 -0.4332  0.0855
  298MOL0     C41043   2.415   3.126   6.510 -0.2306  1.0538 -0.2904
  298MOL0     C41044   2.527   3.185   6.453 -0.2955  0.1880 -0.6947
  298MOL0     O41045   2.612   3.252   6.535  0.7276  0.2578  0.1226
  298MOL0     C41046   2.684   3.165   6.621  0.6895 -0.4988 -0.7123
  298MOL0     C41047   2.807   3.213   6.700  0.3355 -0.1434  0.1327
  298MOL0     C41048   2.785   3.225   6.850  0.4129 -0.5512 -0.7856
  298MOL0     C41049   2.706   3.349   6.898  0.3909  0.7106  0.4991
  298MOL0     C41050   2.788   3.470   6.880 -0.4961 -0.2171 -0.9908
  298MOL0     C41051   2.858   3.562   6.855 -0.2303 -0.5080 -0.3783
  298MOL0     C41052   2.550   3.191   6.316 -1.2583  0.4632 -1.1807
  298MOL0     C41053   2.461   3.128   6.233  0.2433  0.8164  0.9295
  298MOL0     C41054   2.485   3.117   6.086 -0.8844  0.1766  0.4633
  298MOL0     H41055   1.940   2.797   6.319  1.5619 -1.8632  1.0409
  298MOL0     H41056   1.812   2.607   6.204 -0.7246  2.1409  2.0756
  298MOL0     H41057   2.061   2.375   5.968  0.2886 -1.4708 -3.0556
  298MOL0     H41058   1.937   2.319   5.870  2.6799 -0.6798  0.8420
  298MOL0     H41059   1.801   2.242   6.050  0.3802  0.5186 -2.5283
  298MOL0     H41060   1.944   2.159   6.035 -0.7050  1.4828 -2.0552
  298MOL0     H41061   1.917   2.384   6.236  0.7595 -0.7953  2.5703
  298MOL0     H41062   1.909   2.217   6.286  0.3730  2.2015  1.3173
  298MOL0     H41063   2.166   2.213   6.166  1.8417  0.5661 -0.7416
  298MOL0     H41064   2.157   2.385   6.193  0.0297 -0.7728  0.4366
  298MOL0     H41065   2.109   2.169   6.400 -0.1731  1.8109  2.6656
  298MOL0     H41066   2.108   2.344   6.427  0.3786 -1.3153  2.9517
  298MOL0     H41067   2.346   2.353   6.342  0.4707 -1.0676 -0.8129
  298MOL0     H41068   2.323   2.301   6.508 -0.2704 -0.5643  2.2107
  298MOL0     H41069   2.350   2.110   6.268  4.2156  0.6607 -0.5932
  298MOL0     H41070   2.327   2.069   6.449 -3.3870  0.4274  0.5233
  298MOL0     H41071   2.553   2.038   6.385  0.2986  0.2380  1.5901
  298MOL0     H41072   2.575   2.204   6.337  1.6489 -3.1987 -1.8229
  298MOL0     H41073   2.459   2.007   6.664  0.7529  0.5870 -0.0321
  298MOL0     H41074   2.604   2.212   6.972  0.9633 -3.6838  3.5320
  298MOL0     H41075   2.593   2.047   6.934 -0.9080 -0.8555 -0.6014
  298MOL0     H41076   2.370   2.247   7.002 -0.4612  0.6834  1.7231
  298MOL0     H41077   2.335   2.099   6.899 -0.3511  1.4654  0.4023
  298MOL0     H41078   2.279   2.036   7.103  0.1166 -1.0658  0.4427
  298MOL0     H41079   2.425   1.947   7.063 -1.7516 -0.3323  0.0224
  298MOL0     H41080   2.413   2.028   7.291 -0.4748  0.7636 -0.4512
  298MOL0     H41081   2.558   2.087   7.213  0.2960  2.0211  1.0829
  298MOL0     H41082   2.242   2.038   7.404  1.4917  0.3693 -2.0453
  298MOL0     H41083   1.949   2.105   7.579 -0.9101  0.0243 -0.5287
  298MOL0     H41084   2.083   2.044   7.664  3.5813 -2.3096 -2.2674
  298MOL0     H41085   2.036   1.979   7.493 -2.6344  1.3696 -0.4181
  298MOL0     H41086   1.701   2.387   7.567  2.2372 -0.0521 -0.4573
  298MOL0     H41087   1.501   2.419   7.705 -0.8649  2.1872  0.3729
  298MOL0     H41088   1.548   2.574   8.104 -1.1893 -0.3207  1.0642
  298MOL0     H41089   1.470   2.719   8.040  4.8489 -0.2970 -2.6083
  298MOL0     H41090   1.329   2.618   8.200 -0.0900  0.8192 -0.0605
  298MOL0     H41091   1.249   2.599   8.045 -0.2748 -0.1058 -1.4397
  298MOL0     H41092   1.378   2.360   8.026 -0.4538  0.6093 -0.0963
  298MOL0     H41093   1.234   2.383   8.125 -0.4749 -1.1025  1.8262
  298MOL0     H41094   1.353   2.348   8.324  0.5946 -2.9339 -1.1121
  298MOL0     H41095   1.510   2.405   8.255  0.2138  0.4424 -0.6140
  298MOL0     H41096   1.337   2.160   8.202  0.5570  0.3253  2.4261
  298MOL0     H41097   1.502   2.200   8.128  1.6073  1.6413  1.0822
  298MOL0     H41098   1.462   2.140   8.419 -3.7162  0.0356 -1.6623
  298MOL0     H41099   1.616   2.187   8.333  1.2047 -2.7120 -0.0223
  298MOL0     H41100   1.547   1.977   8.183 -0.1808 -1.5742  0.1814
  298MOL0     H41101   1.430   1.944   8.312  0.7655  1.4128  1.8345
  298MOL0     H41102   1.732   1.955   8.318  2.0721 -1.4349  2.2589
  298MOL0     H41103   1.635   1.808   8.343  0.1157 -0.4868  0.5302
  298MOL0     H41104   1.717   2.658   7.994 -0.8964 -1.0372  1.4541
  298MOL0     H41105   1.916   2.602   7.871 -0.5728  2.6199 -2.6921
  298MOL0     H41106   2.120   2.515   7.476 -2.2674  0.2233 -5.0436
  298MOL0     H41107   2.300   2.456   7.304 -2.1887 -0.1548 -1.1810
  298MOL0     H41108   2.129   2.588   5.915  0.7159 -0.9827  1.3412
  298MOL0     H41109   2.247   2.769   6.035 -0.1775 -1.2024 -2.0847
  298MOL0     H41110   2.223   3.035   6.462  1.2513 -2.5227  1.7329
  298MOL0     H41111   2.396   3.149   6.614  2.1123  1.7640  0.0173
  298MOL0     H41112   2.608   3.106   6.674  2.7941 -3.4951 -0.7428
  298MOL0     H41113   2.738   3.095   6.556  1.0033 -1.0632  0.1392
  298MOL0     H41114   2.851   3.301   6.652  1.0414  0.2848  1.5149
  298MOL0     H41115   2.891   3.144   6.684 -1.9893 -2.9618 -0.7790
  298MOL0     H41116   2.724   3.137   6.873  0.1344  0.0079  0.7839
  298MOL0     H41117   2.876   3.218   6.911 -0.4158 -1.3359  0.4098
  298MOL0     H41118   2.672   3.333   7.001 -1.5743 -1.4864 -0.4004
  298MOL0     H41119   2.614   3.359   6.840 -0.9371  0.8627  2.5322
  298MOL0     H41120   2.929   3.641   6.840 -0.0241 -0.6576 -0.1910
  298MOL0     H41121   2.642   3.242   6.291 -0.9447  3.2446  4.2139
  298MOL0     H41122   2.445   3.200   6.028 -0.9077  0.5790  1.0536
  298MOL0     H41123   2.594   3.126   6.076 -0.8898 -1.8644 -4.6897
  298MOL0     H41124   2.466   3.021   6.036 -0.1155  0.2817 -0.0445
  299MOL0     O41125   0.095   1.461  10.642  0.4147  0.2640  0.3407
  299MOL0     C41126   0.216   1.434  10.674 -0.2430 -0.8912  0.7781
  299MOL0     O41127   0.316   1.529  10.677 -0.2358 -0.5849 -0.1247
  299MOL0     C41128   0.276   1.659  10.685  0.3056 -0.5218 -1.1088
  299MOL0     C41129   0.323   1.726  10.799 -0.6870 -0.0240  0.4289
  299MOL0     C41130   0.297   1.869  10.803 -0.4489  0.0305  0.5022
  299MOL0     C41131   0.223   1.935  10.702 -0.2809 -1.1336  0.6301
  299MOL0     O41132   0.193   2.069  10.719 -0.7372 -0.3806 -0.1789
  299MOL0     C41133   0.221   2.147  10.598 -0.5031  0.3346  0.0271
  299MOL0     C41134   0.218   2.294  10.609 -0.6632 -0.2924  0.4119
  299MOL0     C41135   0.276   2.373  10.485  0.9500 -0.9829  0.0168
  299MOL0     C41136   0.220   2.337  10.346 -0.0145 -0.5451  0.3835
  299MOL0     C41137   0.291   2.421  10.235  0.4005 -0.3743 -0.2458
  299MOL0     C41138   0.251   2.390  10.103  0.4819  0.2912  0.1427
  299MOL0     C41139   0.301   2.483   9.988 -0.0321 -1.2396  0.1664
  299MOL0     C41140   0.431   2.548  10.011  0.3292  0.0931 -0.8733
  299MOL0     N41141   0.538   2.446  10.045  0.0766  0.3227 -0.2012
  299MOL0     C41142   0.550   2.322   9.985 -0.3712 -0.2664 -0.3706
  299MOL0     C41143   0.658   2.263  10.053  0.4516 -0.9618 -0.1109
  299MOL0     C41144   0.708   2.125  10.028 -0.0161 -0.7203  1.0523
  299MOL0     C41145   0.698   2.034  10.149 -1.1914 -0.3227  0.3341
  299MOL0     C41146   0.565   2.020  10.211  0.3700  0.4869  0.9276
  299MOL0     C41147   0.566   1.969  10.350  0.6666 -0.5346  0.4988
  299MOL0     O41148   0.623   1.838  10.344  0.1434  0.6061 -0.5230
  299MOL0     C41149   0.628   1.760  10.455 -0.1876 -0.9760 -0.5616
  299MOL0     C41150   0.673   1.633  10.451 -0.7374  0.2792  0.2650
  299MOL0     C41151   0.700   1.550  10.559  0.1315  0.6487 -0.0117
  299MOL0     C41152   0.757   1.411  10.522 -0.3718 -0.0643 -0.5848
  299MOL0     C41153   0.662   1.594  10.685 -0.5495  0.9975  0.4002
  299MOL0     C41154   0.675   1.526  10.816 -0.1865  0.2903 -0.9064
  299MOL0     O41155   0.649   1.598  10.935 -0.2194 -0.1597  0.2389
  299MOL0     C41156   0.595   1.544  11.045 -0.3411  0.1011 -0.3666
  299MOL0     C41157   0.621   1.610  11.163  0.0213 -0.6250 -0.7288
  299MOL0     C41158   0.583   1.567  11.281  0.3198 -0.5310  0.0438
  299MOL0     C41159   0.497   1.452  11.290  0.7668  0.2787 -0.0278
  299MOL0     O41160   0.442   1.397  11.405 -0.0136 -0.2042  0.1325
  299MOL0     C41161   0.541   1.326  11.470 -0.1315  0.8938  0.0408
  299MOL0     C41162   0.488   1.299  11.605  0.1454 -0.3842  0.5293
  299MOL0     C41163   0.564   1.183  11.677  0.0859 -0.5665  0.5062
  299MOL0     C41164   0.497   1.054  11.650  0.2558  0.3601 -0.7683
  299MOL0     C41165   0.588   0.943  11.714 -1.8984  0.4277  0.5786
  299MOL0     C41166   0.541   0.813  11.652  1.0243 -0.2944  0.2604
  299MOL0     C41167   0.638   0.708  11.678 -0.5859 -1.1798 -1.1406
  299MOL0     C41168   0.566   0.572  11.674 -0.3359 -0.0715  0.7748
  299MOL0    Cl41169   0.563   0.517  11.497 -0.2416  0.5032  0.5201
  299MOL0     C41170   0.470   1.379  11.175  0.2183 -0.6449 -0.1028
  299MOL0     C41171   0.510   1.436  11.051  0.2730  0.2557 -0.8972
  299MOL0     O41172   0.697   1.405  10.814 -0.6693  0.0426 -1.1168
  299MOL0     C41173   0.627   1.730  10.692  0.2086 -0.2305 -0.9558
  299MOL0     C41174   0.593   1.805  10.579  0.3808  0.5049  0.2206
  299MOL0     N41175   0.708   2.361  10.143  0.4625  0.5936 -0.3900
  299MOL0     N41176   0.642   2.470  10.128 -0.9627 -0.4921  0.5852
  299MOL0     C41177   0.172   1.865  10.597  0.3076  0.2348 -0.1037
  299MOL0     C41178   0.208   1.726  10.582  0.3473 -0.4150  0.2459
  299MOL0     C41179   0.263   1.302  10.732  0.1838  0.8461 -0.0538
  299MOL0     C41180   0.406   1.283  10.748  0.4032  0.4922  0.0299
  299MOL0     C41181   0.458   1.171  10.783  0.6442 -0.2167 -0.0320
  299MOL0     C41182   0.373   1.066  10.804 -0.6768  1.1644 -0.7584
  299MOL0     O41183   0.422   0.935  10.827  0.0750  0.0952 -0.6987
  299MOL0     C41184   0.552   0.906  10.758  0.2593  0.0984 -0.0995
  299MOL0     C41185   0.579   0.757  10.723  0.8417 -1.1904  0.0613
  299MOL0     C41186   0.529   0.658  10.828 -0.1584 -0.1707 -0.8667
  299MOL0     C41187   0.633   0.654  10.944  0.4757 -0.0251 -0.1816
  299MOL0     C41188   0.592   0.582  11.057  0.8657 -0.6377 -0.4060
  299MOL0     C41189   0.549   0.522  11.151  1.0238 -1.2015  0.0003
  299MOL0     C41190   0.235   1.083  10.811 -0.6321 -0.4650  0.1652
  299MOL0     C41191   0.172   1.200  10.762 -0.4545 -0.5464  0.3783
  299MOL0     C41192   0.021   1.210  10.753 -0.6642  0.1292  0.8090
  299MOL0     H41193   0.379   1.674  10.877  4.0059  0.9661 -1.9208
  299MOL0     H41194   0.328   1.929  10.887 -1.5244  1.3411 -0.0027
  299MOL0     H41195   0.149   2.107  10.526 -0.1710 -0.0657 -0.0878
  299MOL0     H41196   0.320   2.125  10.556 -1.3889 -0.0022 -2.0232
  299MOL0     H41197   0.111   2.316  10.614 -0.9764 -1.7422  0.5452
  299MOL0     H41198   0.254   2.326  10.708  0.0489  0.1033  0.0375
  299MOL0     H41199   0.261   2.479  10.508 -0.7488 -1.0053 -0.8032
  299MOL0     H41200   0.382   2.348  10.488  0.9199 -1.3480 -1.3344
  299MOL0     H41201   0.241   2.231  10.330  1.7078 -0.3950  1.3596
  299MOL0     H41202   0.111   2.351  10.346  0.1830  1.1510 -0.3340
  299MOL0     H41203   0.398   2.402  10.247  0.0249 -0.7058  4.2170
  299MOL0     H41204   0.279   2.528  10.255  0.2820 -0.8078  2.3823
  299MOL0     H41205   0.280   2.287  10.080  0.8189 -0.1099  2.1855
  299MOL0     H41206   0.144   2.412  10.111  0.3683 -0.6061  1.3350
  299MOL0     H41207   0.226   2.562   9.970  0.7630  0.0923  2.3721
  299MOL0     H41208   0.311   2.427   9.894  3.6228 -2.7149  1.2979
  299MOL0     H41209   0.461   2.588   9.913  1.3023 -0.0090 -0.6230
  299MOL0     H41210   0.428   2.629  10.084 -0.7070  0.8088 -1.6718
  299MOL0     H41211   0.506   2.284   9.894 -0.8530  0.1328 -0.3075
  299MOL0     H41212   0.808   2.136   9.984 -1.4928 -0.1209 -2.4693
  299MOL0     H41213   0.650   2.079   9.947  2.1744  0.5839 -1.3758
  299MOL0     H41214   0.723   1.932  10.120  0.7006 -0.8036  3.2401
  299MOL0     H41215   0.778   2.064  10.217 -2.8645 -0.7206  2.5939
  299MOL0     H41216   0.516   2.118  10.216  0.6096  1.0033 -3.0887
  299MOL0     H41217   0.507   1.946  10.154 -1.1497 -0.2248  3.2682
  299MOL0     H41218   0.624   2.038  10.412 -1.5714  0.7035  1.3049
  299MOL0     H41219   0.468   1.979  10.397  0.8096  1.0628  0.4889
  299MOL0     H41220   0.699   1.601  10.351  1.2342 -0.0994  0.8640
  299MOL0     H41221   0.748   1.391  10.415  2.1349 -1.7621 -0.5721
  299MOL0     H41222   0.697   1.344  10.583  0.7091 -1.0176 -0.5303
  299MOL0     H41223   0.860   1.415  10.559 -0.4248  3.3274 -0.4525
  299MOL0     H41224   0.691   1.694  11.159  0.9232 -1.3476 -0.5585
  299MOL0     H41225   0.627   1.614  11.368  2.0376 -1.7274 -0.1339
  299MOL0     H41226   0.552   1.225  11.427 -4.2920  0.7291 -1.0709
  299MOL0     H41227   0.634   1.384  11.474 -0.4076  1.6779 -2.7217
  299MOL0     H41228   0.504   1.394  11.657 -0.9193 -0.4898  1.0778
  299MOL0     H41229   0.382   1.271  11.600  0.0324  0.2358 -1.1382
  299MOL0     H41230   0.570   1.209  11.783 -0.5136 -0.8916  0.6220
  299MOL0     H41231   0.670   1.185  11.651 -0.5726 -0.0963 -2.5636
  299MOL0     H41232   0.468   1.041  11.545 -1.5276 -1.0683 -0.1584
  299MOL0     H41233   0.400   1.041  11.699  1.1313 -1.3810  0.6256
  299MOL0     H41234   0.691   0.958  11.680 -2.8676  0.2203 -2.7896
  299MOL0     H41235   0.572   0.941  11.822 -1.1085  2.0168  0.7503
  299MOL0     H41236   0.517   0.819  11.545  1.7203  0.7214  0.1568
  299MOL0     H41237   0.446   0.790  11.701  0.1631  0.2009 -1.1105
  299MOL0     H41238   0.686   0.718  11.776  4.0889  0.6733 -3.3301
  299MOL0     H41239   0.699   0.724  11.588 -0.3118 -5.5608 -1.9839
  299MOL0     H41240   0.464   0.573  11.713 -0.8877 -1.0796 -0.5520
  299MOL0     H41241   0.620   0.491  11.725 -1.4819 -1.4560 -0.1182
  299MOL0     H41242   0.410   1.290  11.187  1.7339 -1.4956  1.8037
  299MOL0     H41243   0.456   1.395  10.966 -1.3000 -0.9802  0.6288
  299MOL0     H41244   0.619   1.781  10.787  2.7046  1.3015 -1.4790
  299MOL0     H41245   0.558   1.907  10.593 -0.8242  0.3527 -1.3866
  299MOL0     H41246   0.112   1.898  10.513  0.6216  1.5134  0.1523
  299MOL0     H41247   0.184   1.658  10.500  2.4297 -0.3975 -0.4234
  299MOL0     H41248   0.466   1.372  10.734  0.7145  0.4071  0.7547
  299MOL0     H41249   0.566   1.158  10.785  0.6008 -0.7562  2.5576
  299MOL0     H41250   0.565   0.951  10.660  3.9911  1.4008  0.8258
  299MOL0     H41251   0.638   0.948  10.811  0.2348 -0.2105  0.1927
  299MOL0     H41252   0.687   0.755  10.704  0.7108 -1.4982 -0.6951
  299MOL0     H41253   0.550   0.741  10.618 -1.6045  2.7233 -0.0349
  299MOL0     H41254   0.426   0.673  10.860 -0.8545 -3.7089 -1.1311
  299MOL0     H41255   0.523   0.561  10.779  1.1998  0.1177 -1.6773
  299MOL0     H41256   0.628   0.752  10.992 -2.8471  0.1816 -0.7549
  299MOL0     H41257   0.732   0.623  10.910 -0.0851  0.8327 -2.8096
  299MOL0     H41258   0.532   0.459  11.235  1.9199  0.6084  1.6191
  299MOL0     H41259   0.178   1.001  10.852  0.0196 -1.4275 -0.8142
  299MOL0     H41260  -0.020   1.111  10.775 -1.6214  0.0273 -1.2231
  299MOL0     H41261  -0.030   1.269  10.830  1.0894 -0.8978  2.8669
  299MOL0     H41262  -0.007   1.239  10.651  0.1828 -0.1583  0.4859
  300MOL0     O41263   6.696   8.008   6.870 -0.5379  1.0364  0.0753
  300MOL0     C41264   6.594   8.028   6.810  0.5305  0.2114 -0.3704
  300MOL0     O41265   6.486   8.096   6.851  0.1454 -0.4809 -0.1499
  300MOL0     C41266   6.460   8.116   6.984  0.0873 -0.0403 -0.2773
  300MOL0     C41267   6.528   8.074   7.105  0.3884  0.4700 -0.3467
  300MOL0     C41268   6.474   8.119   7.226  0.1922 -0.2451  0.5675
  300MOL0     C41269   6.353   8.195   7.234  1.1156 -1.0304 -0.8646
  300MOL0     O41270   6.302   8.226   7.353  0.0854  0.6549 -0.1390
  300MOL0     C41271   6.239   8.361   7.371 -0.1442 -0.1528  0.3982
  300MOL0     C41272   6.102   8.342   7.425 -0.0770 -0.3307 -1.0080
  300MOL0     C41273   6.041   8.470   7.473  0.5161  0.7515  1.4487
  300MOL0     C41274   5.902   8.450   7.521  0.1675 -0.8438 -1.0887
  300MOL0     C41275   5.843   8.590   7.550  0.3588 -1.2021  0.2186
  300MOL0     C41276   5.698   8.586   7.608 -0.1587  0.2880  0.3775
  300MOL0     C41277   5.614   8.716   7.606 -0.3202 -0.3425 -0.0299
  300MOL0     C41278   5.633   8.814   7.722 -0.0614 -0.5797  0.0800
  300MOL0     N41279   5.515   8.896   7.741  0.5228  0.2930  0.7526
  300MOL0     C41280   5.503   8.984   7.846  0.9980 -0.4038 -0.6628
  300MOL0     C41281   5.395   9.065   7.817  0.4128  0.1715 -1.3970
  300MOL0     C41282   5.332   9.165   7.907  0.5692  0.5393 -0.1765
  300MOL0     C41283   5.276   9.092   8.034 -0.5503 -0.6840  0.2066
  300MOL0     C41284   5.233   9.190   8.142 -0.0657  0.8375 -0.2146
  300MOL0     C41285   5.127   9.300   8.113 -0.4122  0.7484  0.3404
  300MOL0     O41286   5.087   9.396   8.218  0.5702 -1.1043  0.2548
  300MOL0     C41287   5.030   9.358   8.335  0.8160 -0.0985 -0.8100
  300MOL0     C41288   4.982   9.227   8.355 -0.7774 -1.0139 -0.2118
  300MOL0     C41289   4.911   9.194   8.475  0.9462  1.2153  0.9715
  300MOL0     C41290   4.848   9.056   8.485  0.6608  0.9082 -0.2786
  300MOL0     C41291   4.891   9.288   8.574 -0.3207  0.2660 -0.2881
  300MOL0     C41292   4.822   9.260   8.698  0.2389 -0.2197 -0.4749
  300MOL0     O41293   4.740   9.358   8.734  0.1626  0.3930 -0.3464
  300MOL0     C41294   4.690   9.386   8.859  0.6138  0.4473  0.5601
  300MOL0     C41295   4.645   9.286   8.952 -0.9168  0.2299 -0.5918
  300MOL0     C41296   4.594   9.323   9.080  0.2163 -0.2712  0.4926
  300MOL0     C41297   4.604   9.457   9.125  0.1858 -0.3011  0.1742
  300MOL0     O41298   4.581   9.478   9.256  0.0555  0.3857  0.0011
  300MOL0     C41299   4.571   9.608   9.312  0.4828  0.2512 -0.6391
  300MOL0     C41300   4.518   9.597   9.453 -0.4397  0.6091  0.0049
  300MOL0     C41301   4.619   9.582   9.566 -0.4128  0.1405 -0.3745
  300MOL0     C41302   4.595   9.654   9.694 -0.6626  0.1434 -0.3330
  300MOL0     C41303   4.472   9.613   9.775  0.3100  0.3654 -0.7200
  300MOL0     C41304   4.492   9.478   9.846 -0.8221  0.1367  0.4037
  300MOL0     C41305   4.370   9.390   9.847  0.2485  0.7866 -0.8302
  300MOL0     C41306   4.403   9.259   9.916 -0.6325  0.3757  0.3698
  300MOL0    Cl41307   4.483   9.282  10.082  0.5703  0.3480 -0.8808
  300MOL0     C41308   4.664   9.552   9.041 -0.1936  0.4045 -0.7514
  300MOL0     C41309   4.705   9.521   8.909  0.7455  0.7268  0.0206
  300MOL0     O41310   4.844   9.159   8.761 -0.2563  0.7993 -0.1669
  300MOL0     C41311   4.949   9.418   8.555 -0.6101 -0.4069 -0.3875
  300MOL0     C41312   5.019   9.452   8.443 -0.2821  0.0132 -0.0741
  300MOL0     N41313   5.339   9.022   7.696 -0.4671  0.3491  0.5631
  300MOL0     N41314   5.420   8.930   7.649 -0.2404 -0.4689 -0.1598
  300MOL0     C41315   6.289   8.232   7.118 -0.0057 -0.7402  0.5550
  300MOL0     C41316   6.344   8.193   6.996 -0.2896  0.3684 -0.8378
  300MOL0     C41317   6.598   7.962   6.676  0.2974 -0.2729  0.6183
  300MOL0     C41318   6.709   7.981   6.587  0.3012  0.6310 -0.2066
  300MOL0     C41319   6.701   7.932   6.457 -0.8982  0.3147 -0.5744
  300MOL0     C41320   6.591   7.867   6.404 -0.5020  0.8456 -0.1954
  300MOL0     O41321   6.610   7.807   6.286 -0.0605  0.9338  0.2914
  300MOL0     C41322   6.545   7.685   6.268 -0.2833  0.3645 -1.6089
  300MOL0     C41323   6.580   7.622   6.138 -0.8920  0.0978  0.4789
  300MOL0     C41324   6.515   7.486   6.127 -0.0685 -0.2726 -0.7322
  300MOL0     C41325   6.576   7.399   6.016  0.3617 -0.4044  0.4827
  300MOL0     C41326   6.465   7.309   5.972 -0.0615  0.4438 -0.7205
  300MOL0     C41327   6.385   7.234   5.930 -0.2212  0.1912 -0.7123
  300MOL0     C41328   6.486   7.842   6.496 -0.0722  0.6848  0.5237
  300MOL0     C41329   6.482   7.895   6.626  0.6033 -0.0084  0.3933
  300MOL0     C41330   6.360   7.856   6.712 -0.3731  0.1144 -1.0024
  300MOL0     H41331   6.619   8.015   7.095  1.2278  1.7946 -0.9301
  300MOL0     H41332   6.531   8.095   7.315  0.5032 -3.1626 -0.2945
  300MOL0     H41333   6.235   8.409   7.273  0.8803 -6.9072 -3.5988
  300MOL0     H41334   6.296   8.433   7.431  0.2464  2.3412 -2.7001
  300MOL0     H41335   6.039   8.298   7.348 -2.3913 -0.2528  0.7325
  300MOL0     H41336   6.121   8.273   7.508  2.8013  0.7240 -0.6727
  300MOL0     H41337   6.105   8.499   7.557  1.2370  3.0759  0.1908
  300MOL0     H41338   6.049   8.536   7.386  0.4764 -0.1653  0.7249
  300MOL0     H41339   5.849   8.398   7.441 -0.6464 -0.5324 -0.7678
  300MOL0     H41340   5.902   8.391   7.613 -2.2049 -0.0799 -0.5236
  300MOL0     H41341   5.846   8.659   7.465 -1.1852 -2.0865 -0.5916
  300MOL0     H41342   5.913   8.640   7.618 -0.8484  0.4620  0.2871
  300MOL0     H41343   5.648   8.514   7.543  0.1118  0.2051  0.2624
  300MOL0     H41344   5.701   8.547   7.710 -2.7297 -1.9989 -0.3110
  300MOL0     H41345   5.508   8.690   7.597 -0.4320 -1.1082  2.7173
  300MOL0     H41346   5.638   8.775   7.517  1.8113 -0.5623  0.3556
  300MOL0     H41347   5.653   8.749   7.808 -2.4719 -2.2296 -0.4905
  300MOL0     H41348   5.724   8.868   7.696 -0.6714  1.3819  1.7684
  300MOL0     H41349   5.563   8.987   7.937  1.4876  5.1883 -0.8240
  300MOL0     H41350   5.251   9.208   7.847  0.3013  1.4092  0.7757
  300MOL0     H41351   5.396   9.249   7.934 -1.3386  1.2809  2.4100
  300MOL0     H41352   5.192   9.023   8.020 -1.2448  0.1460  0.1906
  300MOL0     H41353   5.361   9.031   8.067  0.1648 -1.2232 -2.4512
  300MOL0     H41354   5.194   9.140   8.232 -1.9935  1.4527 -0.6432
  300MOL0     H41355   5.327   9.239   8.166 -0.8622  2.1117  0.4545
  300MOL0     H41356   5.144   9.355   8.020 -1.7647 -0.5335 -0.7177
  300MOL0     H41357   5.043   9.235   8.086  1.5016 -2.4305  1.5160
  300MOL0     H41358   5.009   9.148   8.286  1.4783 -0.9433  0.5165
  300MOL0     H41359   4.841   9.004   8.389  0.2319  0.7464 -0.1603
  300MOL0     H41360   4.744   9.060   8.518  0.0100 -3.2455 -1.2264
  300MOL0     H41361   4.913   8.997   8.550 -1.2470 -1.1740 -0.1538
  300MOL0     H41362   4.649   9.184   8.915  0.5011  0.4852 -1.2028
  300MOL0     H41363   4.559   9.249   9.151  3.0261 -1.0560  1.2143
  300MOL0     H41364   4.672   9.649   9.306  0.7986 -0.7080 -2.9291
  300MOL0     H41365   4.509   9.657   9.236  0.0036 -2.1778 -1.9164
  300MOL0     H41366   4.463   9.692   9.456  2.2944  2.4841 -2.5179
  300MOL0     H41367   4.449   9.512   9.456  0.6503 -0.2984 -0.0155
  300MOL0     H41368   4.718   9.612   9.530  0.8573 -0.0092  2.6773
  300MOL0     H41369   4.629   9.473   9.572  5.5878  0.3987  0.3871
  300MOL0     H41370   4.584   9.761   9.677  2.2205  1.1847  3.1507
  300MOL0     H41371   4.688   9.657   9.751  2.2845 -0.0515 -4.6587
  300MOL0     H41372   4.456   9.683   9.858  2.7580 -1.8786  1.8620
  300MOL0     H41373   4.393   9.617   9.699 -1.7753 -0.5674  1.2913
  300MOL0     H41374   4.539   9.503   9.942  0.0897  3.5157 -0.7602
  300MOL0     H41375   4.561   9.414   9.791  1.2405  0.8794  1.9810
  300MOL0     H41376   4.333   9.375   9.745 -0.6884 -0.6497 -0.3089
  300MOL0     H41377   4.297   9.435   9.914  0.8579 -1.1883  1.2843
  300MOL0     H41378   4.474   9.196   9.861 -0.4425 -0.5570  1.6223
  300MOL0     H41379   4.312   9.199   9.919  0.1847 -0.9373  0.1018
  300MOL0     H41380   4.668   9.656   9.071 -1.1843 -0.3787  2.4894
  300MOL0     H41381   4.738   9.594   8.836  3.3228  0.8766  1.2311
  300MOL0     H41382   4.933   9.493   8.632 -0.0754  3.1104 -3.4019
  300MOL0     H41383   5.058   9.552   8.425 -0.6083  0.5972  2.2268
  300MOL0     H41384   6.194   8.285   7.110 -0.6233 -2.0470 -1.7594
  300MOL0     H41385   6.290   8.213   6.904 -1.2596 -2.4291 -0.9802
  300MOL0     H41386   6.791   8.039   6.628  0.1494 -1.2669  3.1795
  300MOL0     H41387   6.783   7.927   6.386 -1.0082  0.1630 -0.6910
  300MOL0     H41388   6.578   7.622   6.351  1.6968  1.3200 -1.5990
  300MOL0     H41389   6.436   7.685   6.280 -0.3102 -3.0187 -0.9096
  300MOL0     H41390   6.688   7.608   6.139 -0.8385  0.4977  0.4246
  300MOL0     H41391   6.560   7.683   6.050  4.3697  0.3731 -0.8580
  300MOL0     H41392   6.514   7.427   6.219 -3.1714 -0.6397 -0.8676
  300MOL0     H41393   6.409   7.511   6.112 -0.1458 -0.4285 -0.4521
  300MOL0     H41394   6.662   7.339   6.047 -0.3401 -2.7865 -1.8143
  300MOL0     H41395   6.601   7.456   5.926 -4.1488 -0.1870 -0.8671
  300MOL0     H41396   6.316   7.155   5.905 -0.2013 -1.4823  3.5922
  300MOL0     H41397   6.401   7.786   6.459 -1.6339  3.0312  0.3743
  300MOL0     H41398   6.377   7.834   6.818 -1.0571 -0.9378 -1.0932
  300MOL0     H41399   6.289   7.940   6.710  1.8581  2.1126 -1.5194
  300MOL0     H41400   6.315   7.766   6.671 -2.8651 -0.8228  3.2033
  301MOL0     O41401   8.586   0.757   0.619 -0.7327 -0.6503  0.3871
  301MOL0     C41402   8.512   0.799   0.534  1.2056  0.6379  0.5641
  301MOL0     O41403   8.402   0.741   0.495 -0.7696  0.2769  0.2229
  301MOL0     C41404   8.343   0.629   0.561 -0.5280 -1.6133  0.1797
  301MOL0     C41405   8.290   0.642   0.687  1.5223 -0.2143  0.5160
  301MOL0     C41406   8.238   0.534   0.755 -0.2616  0.2867 -0.9718
  301MOL0     C41407   8.244   0.410   0.695  0.4277  0.8943 -1.1823
  301MOL0     O41408   8.179   0.314   0.763 -0.2975  0.4964 -0.5970
  301MOL0     C41409   8.160   0.179   0.700 -0.4822  0.1841 -0.3567
  301MOL0     C41410   8.073   0.096   0.784 -0.9122 -0.3538  0.8201
  301MOL0     C41411   7.932   0.114   0.772  1.3975 -0.3846  1.0167
  301MOL0     C41412   7.862   0.055   0.893  0.9035  0.1915  0.3531
  301MOL0     C41413   7.719   0.019   0.866 -0.1793 -0.6927 -0.3918
  301MOL0     C41414   7.624   0.137   0.839  0.5210 -0.5031  0.2518
  301MOL0     C41415   7.479   0.096   0.832  0.9603  0.1810 -0.0953
  301MOL0     C41416   7.388   0.209   0.775  0.3229  1.2300  0.6633
  301MOL0     N41417   7.259   0.158   0.720  0.2169  0.3358  0.0094
  301MOL0     C41418   7.138   0.147   0.786 -0.0800 -0.2938  1.2818
  301MOL0     C41419   7.047   0.111   0.690 -0.6853  0.4392 -0.3231
  301MOL0     C41420   6.903   0.080   0.704  0.2983  0.2645 -0.7239
  301MOL0     C41421   6.824   0.150   0.586 -0.1741  0.0914  0.1983
  301MOL0     C41422   6.699   0.073   0.564  0.9833  0.2962 -0.1389
  301MOL0     C41423   6.621   0.155   0.458 -0.1539  0.2644  0.4189
  301MOL0     O41424   6.506   0.077   0.426  0.3595  0.3129  0.2423
  301MOL0     C41425   6.394   0.106   0.500 -0.7655 -0.1284  0.4762
  301MOL0     C41426   6.270   0.051   0.468 -0.1308  0.7649  0.0501
  301MOL0     C41427   6.151   0.077   0.535 -0.3434 -0.9234 -0.1634
  301MOL0     C41428   6.042   0.003   0.473  0.5722  0.3254  0.3466
  301MOL0     C41429   6.157   0.164   0.649  0.4853  0.0066 -0.3279
  301MOL0     C41430   6.036   0.167   0.743 -0.3016  0.1937  0.3994
  301MOL0     O41431   6.025   0.286   0.819 -0.2056  0.0019  0.2291
  301MOL0     C41432   5.912   0.310   0.893  0.9149  0.5544 -0.0555
  301MOL0     C41433   5.894   0.257   1.020  0.9536 -0.0742 -0.6314
  301MOL0     C41434   5.774   0.283   1.087  1.3527 -0.2282 -0.1365
  301MOL0     C41435   5.670   0.373   1.037  0.0455 -0.5695 -0.0651
  301MOL0     O41436   5.555   0.389   1.104 -0.1744 -0.4650 -0.1781
  301MOL0     C41437   5.500   0.268   1.170  1.0751  0.2411 -0.6546
  301MOL0     C41438   5.347   0.263   1.171  0.9960 -0.2570 -0.5306
  301MOL0     C41439   5.280   0.282   1.024  0.2903 -0.2247 -1.5227
  301MOL0     C41440   5.141   0.352   1.049 -0.8289  0.6565  0.1681
  301MOL0     C41441   5.067   0.413   0.929  0.1562 -0.4704  0.6576
  301MOL0     C41442   5.123   0.552   0.870 -0.2004  1.2081  0.2180
  301MOL0     C41443   5.112   0.668   0.970 -0.7460  0.2432 -0.4763
  301MOL0     C41444   5.132   0.804   0.898 -0.5477 -0.8044  0.3543
  301MOL0    Cl41445   5.136   0.962   0.990 -0.1259  0.1114 -0.1278
  301MOL0     C41446   5.686   0.429   0.906  0.8258 -0.4420 -0.0515
  301MOL0     C41447   5.806   0.389   0.840  1.3349  0.5477  0.5837
  301MOL0     O41448   5.965   0.071   0.764 -0.0554 -0.3564  0.1379
  301MOL0     C41449   6.280   0.224   0.686  0.7252 -0.0978 -0.7374
  301MOL0     C41450   6.394   0.192   0.612  0.3644  0.4393 -0.5818
  301MOL0     N41451   7.119   0.085   0.573 -0.2825  0.5430 -0.2696
  301MOL0     N41452   7.242   0.108   0.591 -0.7918 -0.8787 -0.6055
  301MOL0     C41453   8.318   0.391   0.584 -0.5544  0.1042  1.1803
  301MOL0     C41454   8.367   0.498   0.511 -0.0375 -0.1486 -0.6790
  301MOL0     C41455   8.550   0.914   0.448  0.2586 -0.6138 -0.2409
  301MOL0     C41456   8.459   0.948   0.342  0.2656 -0.8049  0.1245
  301MOL0     C41457   8.481   1.060   0.266 -0.1343 -0.2148  0.1783
  301MOL0     C41458   8.608   1.133   0.282 -1.1950 -0.1061  0.5177
  301MOL0     O41459   8.652   1.227   0.182  0.7015  0.0712  0.3969
  301MOL0     C41460   8.671   1.357   0.241 -0.4178 -0.5597 -0.7477
  301MOL0     C41461   8.815   1.407   0.249 -0.9081  0.2513 -0.0684
  301MOL0     C41462   8.837   1.544   0.316 -0.3707  0.1368  1.3897
  301MOL0     C41463   8.983   1.602   0.309 -0.4266  0.3359  0.4552
  301MOL0     C41464   8.996   1.728   0.382  0.2490  0.2437  0.5465
  301MOL0     C41465   9.001   1.822   0.462  0.3932 -0.0989 -0.0284
  301MOL0     C41466   8.690   1.107   0.394  0.3837  0.9095  1.1627
  301MOL0     C41467   8.664   0.995   0.483 -0.0028 -0.0026 -0.4198
  301MOL0     C41468   8.725   0.993   0.625 -0.9654  0.5302 -0.4670
  301MOL0     H41469   8.289   0.736   0.740  2.5508  0.5460 -0.7398
  301MOL0     H41470   8.190   0.550   0.851 -2.5327 -0.6695 -1.8772
  301MOL0     H41471   8.252   0.122   0.688 -2.6478 -3.2421 -2.5167
  301MOL0     H41472   8.118   0.208   0.603 -1.2650  2.2220  0.5248
  301MOL0     H41473   8.089  -0.010   0.760 -0.8168  0.0548 -1.0885
  301MOL0     H41474   8.104   0.114   0.887 -0.1172  1.1580  0.3480
  301MOL0     H41475   7.912   0.220   0.756  0.0994 -0.9352 -1.7489
  301MOL0     H41476   7.894   0.062   0.684 -0.9150  4.3105 -1.1380
  301MOL0     H41477   7.922  -0.025   0.938  0.5309 -0.2601  0.0441
  301MOL0     H41478   7.862   0.141   0.961 -0.2705  0.0556  0.5463
  301MOL0     H41479   7.673  -0.043   0.943 -0.7210  0.8292  0.5536
  301MOL0     H41480   7.724  -0.043   0.776  0.2378  0.3024 -1.0847
  301MOL0     H41481   7.636   0.217   0.911 -0.9601 -0.0542  0.0355
  301MOL0     H41482   7.661   0.182   0.746  1.9120  0.5343  1.2590
  301MOL0     H41483   7.439   0.055   0.925 -1.4804 -0.2981 -1.2836
  301MOL0     H41484   7.475   0.021   0.752 -1.7190  1.8083 -1.6319
  301MOL0     H41485   7.370   0.291   0.844 -4.6916 -0.4961  1.8434
  301MOL0     H41486   7.435   0.260   0.690 -5.2964  3.9883 -1.2633
  301MOL0     H41487   7.110   0.174   0.887 -1.6363  1.8544  0.3512
  301MOL0     H41488   6.874   0.115   0.803 -0.4878 -0.7483 -0.5805
  301MOL0     H41489   6.885  -0.027   0.688 -0.1149  0.4796 -1.7713
  301MOL0     H41490   6.814   0.258   0.594 -0.8057  0.0307  0.3427
  301MOL0     H41491   6.886   0.138   0.497  1.6331  3.0838  0.9234
  301MOL0     H41492   6.725  -0.027   0.529  4.1757  0.8989  0.1634
  301MOL0     H41493   6.640   0.058   0.655 -1.0098  0.4935 -1.3620
  301MOL0     H41494   6.598   0.256   0.495 -2.4141  0.1917 -0.6492
  301MOL0     H41495   6.679   0.161   0.366 -0.7707 -4.5316 -0.5250
  301MOL0     H41496   6.259  -0.012   0.381  1.2850  0.1491  0.2879
  301MOL0     H41497   6.077  -0.099   0.456 -2.7350 -1.1714  1.7425
  301MOL0     H41498   6.021   0.046   0.375  1.4312 -0.3469 -0.1529
  301MOL0     H41499   5.957   0.022   0.540  0.2984  0.7855 -0.1279
  301MOL0     H41500   5.969   0.187   1.057  1.3661  1.4352  1.6240
  301MOL0     H41501   5.759   0.238   1.185 -1.0476  0.2401 -0.2195
  301MOL0     H41502   5.543   0.178   1.126 -0.6032  1.0506 -4.3487
  301MOL0     H41503   5.544   0.272   1.270 -3.1532 -0.8539  1.4872
  301MOL0     H41504   5.316   0.164   1.203  1.8440  0.3182  2.2833
  301MOL0     H41505   5.305   0.339   1.237 -2.3403 -1.3658 -1.1828
  301MOL0     H41506   5.284   0.185   0.974 -1.0385 -1.5291  0.7280
  301MOL0     H41507   5.342   0.358   0.977  1.2032 -0.5462 -0.8605
  301MOL0     H41508   5.146   0.424   1.131 -0.4457  1.2650 -0.3844
  301MOL0     H41509   5.077   0.269   1.081  0.5903 -0.5800 -0.0741
  301MOL0     H41510   5.079   0.331   0.857  1.2805  0.8505 -0.7628
  301MOL0     H41511   4.964   0.428   0.960  0.6258  1.5403  1.4108
  301MOL0     H41512   5.072   0.564   0.774 -1.1539 -1.8916  0.2253
  301MOL0     H41513   5.226   0.542   0.835 -1.2792 -0.1603 -3.0040
  301MOL0     H41514   5.192   0.642   1.040 -0.4778  1.3256 -0.3550
  301MOL0     H41515   5.016   0.657   1.021 -0.5280 -2.8920 -0.5549
  301MOL0     H41516   5.052   0.820   0.824  0.8274 -1.2686 -1.3107
  301MOL0     H41517   5.232   0.804   0.854  0.1931 -2.4459  1.9488
  301MOL0     H41518   5.617   0.503   0.869 -0.1422 -0.2681  1.9323
  301MOL0     H41519   5.823   0.429   0.740 -3.6852  1.3308 -0.2043
  301MOL0     H41520   6.288   0.279   0.779 -1.7983  0.8742 -1.0014
  301MOL0     H41521   6.477   0.242   0.660  1.9051 -1.7350 -0.8219
  301MOL0     H41522   8.354   0.298   0.542  3.3436  2.0763 -0.3331
  301MOL0     H41523   8.417   0.488   0.415  0.0602  2.8296 -1.0534
  301MOL0     H41524   8.361   0.904   0.325  0.2590 -0.0785 -1.9337
  301MOL0     H41525   8.412   1.100   0.192  1.6280  1.9244 -0.4420
  301MOL0     H41526   8.610   1.432   0.189  1.8771  1.2333 -1.0022
  301MOL0     H41527   8.630   1.361   0.343 -1.9458 -0.6780 -1.3285
  301MOL0     H41528   8.843   1.404   0.144  0.4856 -2.1587  0.2963
  301MOL0     H41529   8.876   1.337   0.307 -1.5227  0.2165  0.5596
  301MOL0     H41530   8.786   1.623   0.261  0.9297 -0.0172 -0.0763
  301MOL0     H41531   8.805   1.531   0.420  0.0296 -2.0126  1.2891
  301MOL0     H41532   9.006   1.617   0.203 -0.2531  3.2006  0.8113
  301MOL0     H41533   9.050   1.531   0.357  1.1722  2.5358  1.6742
  301MOL0     H41534   8.991   1.892   0.542 -4.0431  0.8898 -1.2079
  301MOL0     H41535   8.786   1.156   0.397  1.3658 -0.9751  2.2932
  301MOL0     H41536   8.797   1.075   0.631  2.7606 -2.2211 -3.2105
  301MOL0     H41537   8.654   1.015   0.706  1.7938  1.8075  1.7541
  301MOL0     H41538   8.776   0.898   0.645  1.5925  2.0497  0.6447
  302MOL0     O41539  10.588   6.570   9.357  0.3477  0.1761 -0.2316
  302MOL0     C41540  10.575   6.679   9.294 -0.3727 -0.6709 -0.2312
  302MOL0     O41541  10.680   6.740   9.227  0.4940 -0.1868 -0.4956
  302MOL0     C41542  10.785   6.667   9.194  0.5915 -0.3251 -0.5045
  302MOL0     C41543  10.802   6.610   9.071 -0.2752  0.1766 -0.8671
  302MOL0     C41544  10.920   6.549   9.036 -0.0816 -0.2796 -1.0331
  302MOL0     C41545  11.021   6.527   9.129 -0.3450 -0.3992 -0.1192
  302MOL0     O41546  11.130   6.449   9.108 -0.0756 -0.0990  0.3873
  302MOL0     C41547  11.254   6.513   9.143  0.4476  0.4546 -0.6295
  302MOL0     C41548  11.374   6.438   9.085 -0.5791 -0.0340  0.4284
  302MOL0     C41549  11.505   6.518   9.117 -0.2250  0.0626 -0.0477
  302MOL0     C41550  11.624   6.440   9.060 -1.3685  0.5784  0.5000
  302MOL0     C41551  11.750   6.528   9.072 -1.1202 -0.5063  0.9431
  302MOL0     C41552  11.889   6.458   9.045 -0.2477 -1.0996  0.5199
  302MOL0     C41553  11.908   6.406   8.896  0.8449 -0.1654  0.2376
  302MOL0     C41554  12.050   6.367   8.877  0.2821  0.2723 -0.8006
  302MOL0     N41555  12.073   6.351   8.730  0.1075  0.2743  0.9301
  302MOL0     C41556  12.042   6.239   8.656 -1.0330 -0.0082  0.2097
  302MOL0     C41557  12.057   6.288   8.527 -0.5991  0.2345  0.0643
  302MOL0     C41558  12.036   6.200   8.411 -0.6583 -1.1059 -0.0466
  302MOL0     C41559  11.885   6.169   8.387 -0.8250 -0.4936  0.2039
  302MOL0     C41560  11.799   6.280   8.348  0.2033 -0.5801  1.2731
  302MOL0     C41561  11.648   6.250   8.342  0.3555  0.4262  0.0560
  302MOL0     O41562  11.615   6.144   8.251  0.4167  0.3798 -0.0287
  302MOL0     C41563  11.501   6.062   8.277 -0.9726 -0.7219  0.4529
  302MOL0     C41564  11.483   5.962   8.176 -0.1041 -0.6964  0.0551
  302MOL0     C41565  11.373   5.874   8.161  0.5535  0.0153 -0.4463
  302MOL0     C41566  11.355   5.776   8.046  0.3382 -0.6328 -0.1418
  302MOL0     C41567  11.273   5.897   8.264  0.2024  0.0752  0.4161
  302MOL0     C41568  11.151   5.815   8.284  0.3377  0.4137  0.4663
  302MOL0     O41569  11.028   5.883   8.296 -1.1078  0.7041 -0.3744
  302MOL0     C41570  10.920   5.800   8.285 -0.4685 -0.1897 -0.5283
  302MOL0     C41571  10.841   5.811   8.173  0.3725 -0.6444  1.0544
  302MOL0     C41572  10.716   5.743   8.153 -0.3226  0.2374  0.0339
  302MOL0     C41573  10.676   5.642   8.251 -0.2130 -0.3808  0.0574
  302MOL0     O41574  10.565   5.569   8.249  0.5825 -0.1428  0.1708
  302MOL0     C41575  10.501   5.527   8.126  0.2451  0.0044 -0.2189
  302MOL0     C41576  10.470   5.385   8.125 -0.3694  0.1705  0.4678
  302MOL0     C41577  10.354   5.351   8.219  0.1445 -0.3898 -0.5226
  302MOL0     C41578  10.225   5.322   8.134  0.1973 -1.0276  0.6666
  302MOL0     C41579  10.115   5.251   8.213  0.0036 -0.1935 -0.4199
  302MOL0     C41580   9.998   5.187   8.130 -0.4503 -0.6737  0.2162
  302MOL0     C41581  10.024   5.044   8.078  0.2178 -0.4275 -0.3247
  302MOL0     C41582   9.902   4.944   8.072 -0.1956 -0.0644  0.2862
  302MOL0    Cl41583   9.956   4.804   7.964  0.6473 -0.2143 -0.0494
  302MOL0     C41584  10.750   5.637   8.370 -0.1355 -0.1871 -0.3283
  302MOL0     C41585  10.874   5.707   8.385 -0.1877 -0.0809  0.6214
  302MOL0     O41586  11.173   5.694   8.314 -0.1815  0.3839  0.2710
  302MOL0     C41587  11.291   5.991   8.364  0.6958  0.3288  0.4906
  302MOL0     C41588  11.399   6.081   8.366  0.0781  0.0805 -1.0274
  302MOL0     N41589  12.094   6.419   8.530  0.7881 -0.1323  0.2464
  302MOL0     N41590  12.107   6.460   8.653  0.7978 -0.0202 -0.3518
  302MOL0     C41591  11.001   6.588   9.255  0.3246  0.1694 -0.0938
  302MOL0     C41592  10.890   6.658   9.288  0.9556  0.4310  1.6022
  302MOL0     C41593  10.436   6.741   9.272 -0.4385 -0.0540  0.5759
  302MOL0     C41594  10.427   6.876   9.238  0.0169 -0.5297  0.6898
  302MOL0     C41595  10.313   6.946   9.224 -0.0845 -1.0194  0.0975
  302MOL0     C41596  10.190   6.884   9.229  0.3314  0.2529 -0.2551
  302MOL0     O41597  10.075   6.962   9.212 -0.6442 -0.2160  0.0390
  302MOL0     C41598   9.943   6.920   9.241  0.0154  0.7110  0.7923
  302MOL0     C41599   9.831   7.024   9.241  0.7681 -0.9983 -0.1267
  302MOL0     C41600   9.792   7.069   9.094 -0.4012  0.6761  0.4447
  302MOL0     C41601   9.692   7.184   9.089  0.0191 -0.3815 -0.2982
  302MOL0     C41602   9.722   7.308   9.162  0.6297  0.1596 -0.5713
  302MOL0     C41603   9.760   7.410   9.212  0.0231 -0.5613 -0.7029
  302MOL0     C41604  10.195   6.748   9.246  0.1804  0.4140 -0.4446
  302MOL0     C41605  10.308   6.678   9.279 -0.2376  1.9984  0.0079
  302MOL0     C41606  10.294   6.531   9.309  0.2702  0.6838  0.2573
  302MOL0     H41607  10.720   6.611   8.999  1.8144 -1.3921 -3.4810
  302MOL0     H41608  10.928   6.500   8.939 -3.8433 -1.8526 -0.7227
  302MOL0     H41609  11.267   6.526   9.251  1.6188 -0.7243 -0.5976
  302MOL0     H41610  11.255   6.617   9.108  2.9449  0.2862 -1.2834
  302MOL0     H41611  11.384   6.335   9.121  0.2673 -0.3781 -0.7176
  302MOL0     H41612  11.355   6.432   8.977 -1.0257 -0.2624  0.5184
  302MOL0     H41613  11.506   6.622   9.082  1.1214  0.8014  1.9859
  302MOL0     H41614  11.503   6.526   9.227 -2.0020 -1.5307  0.0748
  302MOL0     H41615  11.643   6.353   9.123  2.2176  0.9117  0.1216
  302MOL0     H41616  11.615   6.412   8.954 -2.9730  0.1136  0.7282
  302MOL0     H41617  11.741   6.580   9.168 -4.7435  2.9660 -1.0098
  302MOL0     H41618  11.743   6.607   8.997 -1.3027 -2.0190 -0.6943
  302MOL0     H41619  11.967   6.520   9.089 -1.9081  0.7884  0.9534
  302MOL0     H41620  11.892   6.367   9.106  0.6686 -0.5560  1.3088
  302MOL0     H41621  11.886   6.486   8.825  2.0997 -1.0837 -1.2535
  302MOL0     H41622  11.845   6.321   8.870  1.3933 -0.7378  0.7618
  302MOL0     H41623  12.122   6.440   8.914 -1.3033  1.8288 -0.6727
  302MOL0     H41624  12.070   6.268   8.920 -0.7347  0.9650  1.3599
  302MOL0     H41625  11.998   6.147   8.691 -0.1824  0.1663  1.8327
  302MOL0     H41626  12.085   6.104   8.427 -2.1281 -1.8279  0.2800
  302MOL0     H41627  12.082   6.251   8.325 -0.4236 -1.7556 -0.3183
  302MOL0     H41628  11.891   6.089   8.313  1.4770 -3.2229  3.0564
  302MOL0     H41629  11.844   6.116   8.474 -3.5756 -1.7653 -1.7262
  302MOL0     H41630  11.806   6.367   8.414  0.6506  0.7514 -0.4483
  302MOL0     H41631  11.821   6.315   8.246 -2.7105 -0.6327  0.5454
  302MOL0     H41632  11.626   6.231   8.447 -0.1229 -0.5287 -0.2060
  302MOL0     H41633  11.608   6.343   8.302  0.9330  1.7148  2.2779
  302MOL0     H41634  11.568   5.945   8.111  0.7664 -2.1261  1.4832
  302MOL0     H41635  11.428   5.782   7.965  1.2188  1.5080  0.7271
  302MOL0     H41636  11.261   5.793   7.993  0.4258  0.0448 -0.0986
  302MOL0     H41637  11.350   5.677   8.092 -0.8608 -1.6046 -2.2253
  302MOL0     H41638  10.853   5.889   8.098 -1.3695  0.3432  1.7493
  302MOL0     H41639  10.652   5.760   8.067 -0.3904  1.0993  0.2481
  302MOL0     H41640  10.404   5.577   8.123  0.7948  1.0896 -0.4655
  302MOL0     H41641  10.567   5.557   8.044 -1.2294  1.0523 -1.0538
  302MOL0     H41642  10.462   5.354   8.020  1.7345 -2.2037  0.9192
  302MOL0     H41643  10.557   5.332   8.163 -1.0922 -2.5885 -1.4442
  302MOL0     H41644  10.334   5.428   8.295  2.1117  1.7373 -2.0269
  302MOL0     H41645  10.387   5.262   8.275  2.1875 -0.5143 -1.8272
  302MOL0     H41646  10.249   5.248   8.058  1.6053  0.9519 -0.9190
  302MOL0     H41647  10.198   5.417   8.087 -0.1003 -1.1016  0.6880
  302MOL0     H41648  10.161   5.171   8.271  1.5814  2.0108  1.5932
  302MOL0     H41649  10.082   5.320   8.292  3.0082  0.1275  0.7205
  302MOL0     H41650   9.971   5.258   8.052 -0.9388 -0.3320  0.6916
  302MOL0     H41651   9.908   5.187   8.191 -0.8146  1.2081 -0.2705
  302MOL0     H41652  10.091   4.991   8.146 -1.2991 -2.1328 -0.0909
  302MOL0     H41653  10.072   5.046   7.980  1.6797 -0.1511  0.3747
  302MOL0     H41654   9.827   5.005   8.021  1.4074  1.3193 -0.4999
  302MOL0     H41655   9.875   4.912   8.173 -1.9485  0.3725 -0.0088
  302MOL0     H41656  10.726   5.575   8.455  1.5720  0.1258  0.4115
  302MOL0     H41657  10.927   5.701   8.479 -1.1174 -0.2298  1.1508
  302MOL0     H41658  11.213   6.001   8.440  0.5252 -2.0042  0.6926
  302MOL0     H41659  11.396   6.156   8.444  0.0109 -1.7308  0.8055
  302MOL0     H41660  11.073   6.590   9.336 -2.4312  1.5438  2.4883
  302MOL0     H41661  10.884   6.713   9.382  2.2324  1.7083  0.9676
  302MOL0     H41662  10.517   6.933   9.220  0.8665 -1.3229  2.2330
  302MOL0     H41663  10.312   7.053   9.202  0.4339 -1.3453 -1.6595
  302MOL0     H41664   9.914   6.843   9.169 -1.0708  1.6049  0.2427
  302MOL0     H41665   9.950   6.881   9.343  2.5949 -1.5349 -0.1242
  302MOL0     H41666   9.868   7.102   9.308 -1.6990  0.1778 -0.0287
  302MOL0     H41667   9.742   6.981   9.288  0.0346 -1.0183 -1.4705
  302MOL0     H41668   9.886   7.104   9.050 -0.8145  1.3199  0.0515
  302MOL0     H41669   9.764   6.979   9.039  0.2006 -1.9221  4.0022
  302MOL0     H41670   9.594   7.155   9.126 -1.2490  6.4382  3.3101
  302MOL0     H41671   9.677   7.219   8.986 -0.1518 -0.6142 -0.3541
  302MOL0     H41672   9.794   7.495   9.268 -2.2560  0.6828 -1.1094
  302MOL0     H41673  10.099   6.698   9.253  0.1092  0.7609  1.3002
  302MOL0     H41674  10.359   6.473   9.243  0.7212 -0.4464  1.6543
  302MOL0     H41675  10.315   6.510   9.414  0.3061  0.5906  0.2326
  302MOL0     H41676  10.191   6.498   9.294  0.4798 -2.4758  4.1330
  303MOL0     O41677   1.481  10.661   3.094  0.0985  0.1316  0.3830
  303MOL0     C41678   1.436  10.613   3.202 -0.4206  0.6005  0.3856
  303MOL0     O41679   1.499  10.523   3.272  0.1824  0.2484 -0.2547
  303MOL0     C41680   1.619  10.473   3.227 -0.3455  0.3597 -0.1031
  303MOL0     C41681   1.638  10.419   3.095 -0.6791 -0.7433 -0.2685
  303MOL0     C41682   1.754  10.347   3.057 -0.5241  0.1455  0.1473
  303MOL0     C41683   1.855  10.323   3.150  0.1129  0.3149  0.0293
  303MOL0     O41684   1.961  10.252   3.112  0.0633 -0.1118 -0.3278
  303MOL0     C41685   2.053  10.303   3.014  0.8582  0.1316  0.7568
  303MOL0     C41686   2.164  10.375   3.078  0.6163 -0.3747  0.1029
  303MOL0     C41687   2.282  10.372   2.987  0.3936  0.9248 -0.2116
  303MOL0     C41688   2.397  10.467   3.031  0.4070 -0.7769 -0.4503
  303MOL0     C41689   2.377  10.614   3.065  0.6605 -0.3074  0.6862
  303MOL0     C41690   2.516  10.695   3.067  0.9317 -0.4540  0.8551
  303MOL0     C41691   2.611  10.650   3.174 -0.4195 -0.4360  0.2334
  303MOL0     C41692   2.714  10.546   3.120 -0.2961  1.7866  0.8871
  303MOL0     N41693   2.797  10.594   3.007 -0.8751  0.3764  0.4478
  303MOL0     C41694   2.898  10.684   3.009 -0.1230  0.7919 -0.9727
  303MOL0     C41695   2.922  10.707   2.878  0.1401 -0.4339 -0.2487
  303MOL0     C41696   3.021  10.811   2.824  0.0272 -0.8377 -0.2073
  303MOL0     C41697   3.162  10.753   2.832 -0.8549  0.6064 -0.3444
  303MOL0     C41698   3.224  10.808   2.964  0.7263 -0.7356  0.1718
  303MOL0     C41699   3.374  10.773   2.973 -0.2713 -0.6524  0.5201
  303MOL0     O41700   3.439  10.902   3.017 -0.2299 -0.1905  0.0626
  303MOL0     C41701   3.572  10.894   3.056  0.3452  0.5715 -0.9822
  303MOL0     C41702   3.668  10.851   2.963 -0.0542 -0.6158 -0.0315
  303MOL0     C41703   3.806  10.879   2.995 -0.3028  0.3331 -0.3001
  303MOL0     C41704   3.907  10.843   2.886 -0.2755 -0.6779 -1.3832
  303MOL0     C41705   3.841  10.941   3.121 -0.0140  0.1415 -0.9608
  303MOL0     C41706   3.975  10.989   3.172 -1.0069 -0.5021 -0.0590
  303MOL0     O41707   3.983  11.049   3.294  0.5477 -0.5273  0.6635
  303MOL0     C41708   4.108  11.046   3.354  0.1497 -0.4788 -1.1518
  303MOL0     C41709   4.124  11.148   3.451 -0.9685 -0.3934 -0.5489
  303MOL0     C41710   4.245  11.148   3.532 -0.1618  0.5685  0.1775
  303MOL0     C41711   4.336  11.043   3.522 -0.0261 -0.9600  0.9090
  303MOL0     O41712   4.447  11.052   3.613  0.2033 -0.2175 -0.3321
  303MOL0     C41713   4.551  10.958   3.595 -0.2342 -0.0281 -0.0230
  303MOL0     C41714   4.643  10.978   3.711  0.4896 -0.3698 -0.7376
  303MOL0     C41715   4.744  11.087   3.671 -0.4545  0.0216  0.1534
  303MOL0     C41716   4.819  11.149   3.797 -0.6824 -0.5482  0.7721
  303MOL0     C41717   4.888  11.052   3.891  0.9871 -0.3114  0.8474
  303MOL0     C41718   4.940  11.121   4.010 -0.4635  0.1276 -0.8697
  303MOL0     C41719   4.833  11.168   4.119  0.1548 -0.3526 -0.0338
  303MOL0     C41720   4.885  11.225   4.253 -0.4710  0.2447 -0.0667
  303MOL0    Cl41721   4.943  11.392   4.224  0.0829  0.1165  0.3931
  303MOL0     C41722   4.314  10.934   3.432  0.1315 -0.0729 -0.0735
  303MOL0     C41723   4.204  10.948   3.347 -0.3101  0.5632  0.5076
  303MOL0     O41724   4.072  10.978   3.101  0.9731  0.3996 -0.0411
  303MOL0     C41725   3.731  10.971   3.206 -0.2381 -0.0569  0.6067
  303MOL0     C41726   3.603  10.962   3.174  0.5163  0.4115  0.2090
  303MOL0     N41727   2.849  10.620   2.801  0.2346 -0.4850  0.4296
  303MOL0     N41728   2.778  10.547   2.878  0.0206  0.6508 -0.7142
  303MOL0     C41729   1.840  10.386   3.276 -0.4632 -1.1759  0.0766
  303MOL0     C41730   1.730  10.454   3.312 -0.2003 -0.5063 -1.0093
  303MOL0     C41731   1.294  10.617   3.242 -0.7877 -0.0277 -0.2434
  303MOL0     C41732   1.235  10.508   3.313 -0.7542 -0.0768 -0.1926
  303MOL0     C41733   1.101  10.507   3.348 -0.1282  0.0997 -0.5088
  303MOL0     C41734   1.020  10.621   3.324  0.3804  0.4753 -0.1380
  303MOL0     O41735   0.885  10.639   3.367  0.1941  0.3164 -0.0824
  303MOL0     C41736   0.862  10.639   3.510 -0.6965 -0.1820  0.0651
  303MOL0     C41737   0.718  10.677   3.540  0.5019  0.0884 -0.0778
  303MOL0     C41738   0.674  10.692   3.687 -0.2409 -0.4108 -0.6748
  303MOL0     C41739   0.785  10.783   3.753  0.1117 -0.1165  0.5748
  303MOL0     C41740   0.740  10.854   3.871 -0.0916  1.2046 -0.8436
  303MOL0     C41741   0.688  10.900   3.974 -0.7892 -0.2667  0.9002
  303MOL0     C41742   1.084  10.733   3.265 -0.5219  0.2727  0.7260
  303MOL0     C41743   1.211  10.733   3.220 -0.6459 -0.0481 -0.0035
  303MOL0     C41744   1.272  10.853   3.148 -0.3361  0.5801  0.5444
  303MOL0     H41745   1.552  10.412   3.030 -1.7733  1.3828  0.8162
  303MOL0     H41746   1.748  10.285   2.968 -2.3050 -0.7261  0.8325
  303MOL0     H41747   1.993  10.363   2.946  0.1071 -0.2164  1.0908
  303MOL0     H41748   2.102  10.219   2.965  2.2484 -0.4076  2.9181
  303MOL0     H41749   2.143  10.479   3.104  2.1927 -0.3867  1.5970
  303MOL0     H41750   2.185  10.323   3.172  0.8046 -1.1625 -0.3702
  303MOL0     H41751   2.325  10.271   2.989 -1.1660  0.2207 -0.4297
  303MOL0     H41752   2.247  10.398   2.887  1.0393  2.2591 -0.1161
  303MOL0     H41753   2.438  10.416   3.119 -3.4972 -1.3536  1.2783
  303MOL0     H41754   2.463  10.464   2.944  2.2055 -0.6405  0.8612
  303MOL0     H41755   2.314  10.638   3.152 -0.3284  2.4553 -0.7004
  303MOL0     H41756   2.313  10.652   2.986  1.6702  1.3691  0.6235
  303MOL0     H41757   2.562  10.691   2.968 -1.0796 -0.5246 -0.1329
  303MOL0     H41758   2.490  10.800   3.083 -0.0333 -0.8324  1.9250
  303MOL0     H41759   2.556  10.609   3.260 -2.1593  1.1463 -0.0504
  303MOL0     H41760   2.673  10.736   3.201 -0.2637 -0.7675  0.9642
  303MOL0     H41761   2.776  10.517   3.205 -1.3917 -0.7387  0.8980
  303MOL0     H41762   2.668  10.455   3.081  0.8123  0.5416  2.3865
  303MOL0     H41763   2.929  10.753   3.087 -3.4073  1.2126  0.1335
  303MOL0     H41764   3.008  10.907   2.875 -0.5460 -1.2889  0.5345
  303MOL0     H41765   2.999  10.830   2.719  0.6799  0.3528 -0.1395
  303MOL0     H41766   3.146  10.646   2.850 -2.5393  0.2949 -3.0912
  303MOL0     H41767   3.229  10.766   2.746 -1.5669  0.2279 -0.9651
  303MOL0     H41768   3.210  10.916   2.976  1.2581 -0.8002  1.4857
  303MOL0     H41769   3.184  10.764   3.056  1.9678 -0.6867  0.7532
  303MOL0     H41770   3.401  10.699   3.048 -0.5847 -0.3756  0.9120
  303MOL0     H41771   3.408  10.748   2.872  0.8110  0.4447  0.5831
  303MOL0     H41772   3.641  10.796   2.874  1.2926 -0.4438 -0.5693
  303MOL0     H41773   3.960  10.930   2.847  0.9749  0.5655  2.5487
  303MOL0     H41774   3.865  10.794   2.798 -4.0800 -0.8898  0.3601
  303MOL0     H41775   3.990  10.789   2.933  0.8176  2.1894  0.2244
  303MOL0     H41776   4.037  11.213   3.452  0.0603  1.2757  3.9439
  303MOL0     H41777   4.264  11.232   3.599  2.0408  1.9275 -1.9764
  303MOL0     H41778   4.511  10.859   3.617 -1.8745  0.8374  1.1846
  303MOL0     H41779   4.605  10.965   3.500  0.6391 -0.2921  0.4427
  303MOL0     H41780   4.589  11.010   3.800 -0.0698  0.7399 -1.4593
  303MOL0     H41781   4.689  10.880   3.727  2.7576  0.7449  0.0646
  303MOL0     H41782   4.689  11.162   3.614  0.7404 -0.4158 -1.6551
  303MOL0     H41783   4.825  11.052   3.606 -0.9716 -2.7004  0.8096
  303MOL0     H41784   4.748  11.210   3.854 -0.1099  1.2283 -0.3466
  303MOL0     H41785   4.883  11.231   3.762 -3.9117  1.8111 -0.1124
  303MOL0     H41786   4.821  10.970   3.919  0.9653 -1.0331 -1.1822
  303MOL0     H41787   4.973  11.007   3.838  0.2686 -0.6079 -0.0835
  303MOL0     H41788   4.999  11.209   3.982 -0.0929 -0.0224 -0.5861
  303MOL0     H41789   5.008  11.064   4.074 -2.9814  0.6744  2.6084
  303MOL0     H41790   4.781  11.074   4.141 -2.5093  1.0649  0.0827
  303MOL0     H41791   4.758  11.229   4.067 -0.7712 -1.0179  0.4839
  303MOL0     H41792   4.968  11.163   4.288 -0.0398  0.6787 -0.3066
  303MOL0     H41793   4.808  11.228   4.331 -1.7959  0.0340 -1.3224
  303MOL0     H41794   4.381  10.848   3.427  2.6958  1.6550  1.8599
  303MOL0     H41795   4.175  10.861   3.287 -0.9647  1.0130  0.1618
  303MOL0     H41796   3.754  11.009   3.305  0.4924 -0.0191  0.4301
  303MOL0     H41797   3.530  10.994   3.248  0.2979  1.3975 -0.4169
  303MOL0     H41798   1.927  10.371   3.340  0.9481 -3.5403 -2.1799
  303MOL0     H41799   1.718  10.499   3.410 -1.0197  1.4131 -1.9422
  303MOL0     H41800   1.295  10.422   3.339  3.6973  3.0850  1.2588
  303MOL0     H41801   1.058  10.424   3.404 -2.0532  2.0914  1.1714
  303MOL0     H41802   0.875  10.536   3.545 -0.6405 -0.7894 -1.6447
  303MOL0     H41803   0.938  10.710   3.542  0.7602 -1.4531 -0.4726
  303MOL0     H41804   0.650  10.602   3.498 -0.1363  0.2571  0.6153
  303MOL0     H41805   0.695  10.771   3.490  0.6308  1.4460  2.2764
  303MOL0     H41806   0.576  10.737   3.705 -0.8407 -0.7249 -2.8611
  303MOL0     H41807   0.673  10.593   3.732 -3.7124 -0.1564  0.0225
  303MOL0     H41808   0.819  10.857   3.681  0.7264 -0.4068  0.5546
  303MOL0     H41809   0.874  10.726   3.783  1.4855  1.6608  0.0305
  303MOL0     H41810   0.638  10.949   4.055  1.0704 -2.1702  3.3345
  303MOL0     H41811   1.015  10.817   3.255 -3.3945 -1.7531  2.0037
  303MOL0     H41812   1.276  10.820   3.043 -1.2956  3.2540 -0.4264
  303MOL0     H41813   1.201  10.936   3.151 -1.6675 -0.5094  0.2106
  303MOL0     H41814   1.370  10.882   3.185  0.2280 -2.5010  1.8083
  304MOL0     O41815   9.735   6.051   0.417 -0.2777  0.2992  0.4564
  304MOL0     C41816   9.822   6.051   0.499 -1.4172 -0.4012 -1.1996
  304MOL0     O41817   9.937   5.983   0.494  0.0905  0.0983  0.7550
  304MOL0     C41818   9.983   5.942   0.368 -0.3650  0.6064 -0.0764
  304MOL0     C41819   9.971   6.017   0.250  0.2524 -0.5281 -0.1515
  304MOL0     C41820  10.056   5.993   0.135  0.3374 -0.1363 -0.8515
  304MOL0     C41821  10.145   5.888   0.136 -0.0385  0.4627  0.3149
  304MOL0     O41822  10.231   5.852   0.035 -0.5513 -0.0587 -0.2606
  304MOL0     C41823  10.244   5.949  -0.076  0.3453 -0.3893 -0.2628
  304MOL0     C41824  10.349   5.891  -0.171 -0.4359  0.6978 -0.2782
  304MOL0     C41825  10.364   5.970  -0.299 -0.1412  0.2254 -0.2011
  304MOL0     C41826  10.466   5.894  -0.400 -0.6672  0.2243 -1.4029
  304MOL0     C41827  10.617   5.909  -0.353 -0.0473 -0.0139  0.6552
  304MOL0     C41828  10.714   5.799  -0.406 -0.3767 -0.0596 -0.3650
  304MOL0     C41829  10.737   5.796  -0.557 -0.0316 -0.2779  0.2346
  304MOL0     C41830  10.879   5.754  -0.595 -1.7553 -0.3256  0.4765
  304MOL0     N41831  10.925   5.624  -0.537  0.6533 -0.0175 -0.0242
  304MOL0     C41832  10.868   5.508  -0.575  0.0562 -0.2340  0.4901
  304MOL0     C41833  10.958   5.416  -0.540 -1.1370  0.5079  0.6637
  304MOL0     C41834  10.938   5.274  -0.601  0.0829  0.2044  0.2192
  304MOL0     C41835  10.803   5.211  -0.581  1.1274 -0.2231  0.3871
  304MOL0     C41836  10.795   5.067  -0.638  0.0277 -0.3005  0.0772
  304MOL0     C41837  10.653   5.011  -0.614  0.6322 -0.5253  0.6844
  304MOL0     O41838  10.600   5.012  -0.478  0.5387 -0.1754  0.2298
  304MOL0     C41839  10.635   4.924  -0.382 -0.3139  0.1236 -0.6269
  304MOL0     C41840  10.707   4.808  -0.416  0.8196 -0.5976 -0.3491
  304MOL0     C41841  10.730   4.711  -0.316  0.5677  0.9043  0.6906
  304MOL0     C41842  10.796   4.580  -0.361  1.0911 -0.5118 -0.1456
  304MOL0     C41843  10.693   4.736  -0.178  0.5162  0.0323  0.1267
  304MOL0     C41844  10.723   4.644  -0.065 -1.2291  0.3986 -0.0002
  304MOL0     O41845  10.628   4.627   0.026  0.7976  0.0626 -0.0525
  304MOL0     C41846  10.666   4.546   0.124 -0.2294 -0.4169 -0.0256
  304MOL0     C41847  10.659   4.409   0.120  0.2030 -1.7455  0.3330
  304MOL0     C41848  10.698   4.329   0.225 -0.0544 -0.0009  0.1245
  304MOL0     C41849  10.746   4.380   0.336  0.0271 -1.1616  0.0525
  304MOL0     O41850  10.767   4.286   0.435  0.0955  0.3931 -0.4016
  304MOL0     C41851  10.765   4.341   0.574 -0.6101 -0.2738  0.1895
  304MOL0     C41852  10.814   4.236   0.675 -0.2379 -0.2558  0.4598
  304MOL0     C41853  10.734   4.105   0.662  0.5470  0.2811  0.3491
  304MOL0     C41854  10.802   4.001   0.762  0.8274  0.0103 -0.1276
  304MOL0     C41855  10.746   3.860   0.760  0.0308  0.3811 -0.6183
  304MOL0     C41856  10.834   3.766   0.855 -0.1510  0.4179 -0.0187
  304MOL0     C41857  10.766   3.633   0.857 -0.0605 -0.3090 -0.0783
  304MOL0     C41858  10.771   3.549   0.725  0.2416 -0.1320 -0.0620
  304MOL0    Cl41859  10.712   3.391   0.762 -0.1941  0.3461 -0.0744
  304MOL0     C41860  10.755   4.520   0.352  0.2777  0.3091 -0.1445
  304MOL0     C41861  10.717   4.612   0.244  1.1568  0.3884 -0.4073
  304MOL0     O41862  10.830   4.582  -0.068 -0.8921  0.4396  0.6389
  304MOL0     C41863  10.615   4.853  -0.150 -0.6188  0.2630 -0.2917
  304MOL0     C41864  10.585   4.944  -0.250 -0.0771  0.1355  0.4530
  304MOL0     N41865  11.076   5.467  -0.501 -0.4250 -0.1590  0.0043
  304MOL0     N41866  11.054   5.594  -0.499  0.2254  0.0574 -0.2007
  304MOL0     C41867  10.136   5.802   0.239 -0.5300  0.8637 -0.0032
  304MOL0     C41868  10.063   5.827   0.357 -0.2879 -0.9436  0.0953
  304MOL0     C41869   9.788   6.110   0.626 -0.2252 -0.7069 -0.4885
  304MOL0     C41870   9.763   6.253   0.634 -0.6372  0.2922  0.1990
  304MOL0     C41871   9.728   6.311   0.757  0.6364  0.0116  0.1716
  304MOL0     C41872   9.710   6.234   0.863 -0.3210 -0.4746  0.1678
  304MOL0     O41873   9.644   6.300   0.969 -0.1441 -0.3849 -1.0902
  304MOL0     C41874   9.591   6.222   1.074 -0.9695  1.1673 -1.1902
  304MOL0     C41875   9.471   6.268   1.151 -0.6683 -0.5078  0.3657
  304MOL0     C41876   9.459   6.220   1.303 -0.0042 -0.5401  0.2367
  304MOL0     C41877   9.376   6.097   1.323  0.7337  0.9084 -0.3117
  304MOL0     C41878   9.441   5.984   1.250 -0.4927 -0.3422 -0.1374
  304MOL0     C41879   9.507   5.900   1.179  0.3618  0.2353  0.4992
  304MOL0     C41880   9.738   6.097   0.857  0.3532  0.0480 -0.2881
  304MOL0     C41881   9.781   6.031   0.742  0.7746  0.5127 -0.5742
  304MOL0     C41882   9.806   5.884   0.737  0.7998 -0.1131 -0.2264
  304MOL0     H41883   9.901   6.100   0.241  0.2783 -0.5780 -0.8212
  304MOL0     H41884  10.046   6.055   0.047 -1.1468  0.5367 -0.2417
  304MOL0     H41885  10.276   6.051  -0.055  0.2390 -0.1473 -1.2100
  304MOL0     H41886  10.148   5.949  -0.128  0.5903  3.9977 -1.0566
  304MOL0     H41887  10.440   5.895  -0.111 -0.2215  2.1481 -0.6458
  304MOL0     H41888  10.331   5.788  -0.201  0.0450  0.0452  1.5611
  304MOL0     H41889  10.270   5.965  -0.353  0.6921 -1.6888 -1.5861
  304MOL0     H41890  10.392   6.074  -0.282 -5.0194  1.9671 -1.3824
  304MOL0     H41891  10.425   5.793  -0.411 -2.9266  0.7356  1.0990
  304MOL0     H41892  10.467   5.944  -0.497  0.2409 -0.2884 -1.6695
  304MOL0     H41893  10.628   5.900  -0.245  0.7384  1.1325  0.6821
  304MOL0     H41894  10.653   6.008  -0.382  0.6752  0.1238  1.9684
  304MOL0     H41895  10.808   5.823  -0.356 -1.1856  2.4000  0.1254
  304MOL0     H41896  10.671   5.704  -0.374 -2.8941  0.6281 -1.4298
  304MOL0     H41897  10.714   5.887  -0.612  0.6012 -1.3633 -1.9458
  304MOL0     H41898  10.663   5.730  -0.604 -0.0594 -1.1527  1.4643
  304MOL0     H41899  10.899   5.750  -0.702 -1.5131  0.7302  0.4790
  304MOL0     H41900  10.942   5.836  -0.558 -1.2171 -2.2215  4.3279
  304MOL0     H41901  10.779   5.492  -0.635 -0.4626  0.3946  1.0786
  304MOL0     H41902  11.015   5.207  -0.561 -1.5658 -3.6041 -2.4083
  304MOL0     H41903  10.964   5.285  -0.706  1.2424  1.5800  0.6102
  304MOL0     H41904  10.786   5.212  -0.473 -0.3796 -0.2384  0.1687
  304MOL0     H41905  10.724   5.274  -0.625  0.7318 -1.6240 -0.9932
  304MOL0     H41906  10.813   5.070  -0.745  2.6590 -0.0073  0.4781
  304MOL0     H41907  10.867   4.997  -0.594  2.3113  3.8235  3.6231
  304MOL0     H41908  10.582   5.075  -0.667  1.1925  0.3485  0.9454
  304MOL0     H41909  10.639   4.912  -0.658 -2.6413  1.0079 -2.1733
  304MOL0     H41910  10.746   4.787  -0.515  1.3902 -0.9146 -0.0611
  304MOL0     H41911  10.793   4.553  -0.467  2.2900  3.9085 -1.5134
  304MOL0     H41912  10.734   4.511  -0.303  2.1590  0.9662  2.9240
  304MOL0     H41913  10.896   4.569  -0.320 -0.2668 -0.0425  3.6468
  304MOL0     H41914  10.627   4.374   0.023  1.4232  0.8979 -1.1392
  304MOL0     H41915  10.699   4.221   0.218  4.0791 -0.1553  0.4458
  304MOL0     H41916  10.835   4.424   0.587 -0.7842  0.8837 -4.4246
  304MOL0     H41917  10.662   4.376   0.590 -1.2802 -0.8194 -2.4035
  304MOL0     H41918  10.920   4.224   0.650 -0.4412 -1.4447  0.1226
  304MOL0     H41919  10.805   4.270   0.778  2.0297 -0.6231  0.8214
  304MOL0     H41920  10.742   4.057   0.564  1.9573  0.1811  0.4991
  304MOL0     H41921  10.628   4.121   0.686  1.0942  4.3503  0.7319
  304MOL0     H41922  10.783   4.037   0.863  1.0914 -1.8568  0.6304
  304MOL0     H41923  10.907   3.990   0.733  1.2137  0.9177  0.8463
  304MOL0     H41924  10.645   3.850   0.800 -1.0444 -0.4693 -3.3038
  304MOL0     H41925  10.735   3.828   0.656 -0.8798  2.3142 -1.1586
  304MOL0     H41926  10.826   3.817   0.951 -1.1792 -0.7720  0.5510
  304MOL0     H41927  10.936   3.751   0.821 -0.2021 -3.1256  0.9992
  304MOL0     H41928  10.660   3.637   0.884 -0.6748 -0.0791 -2.3102
  304MOL0     H41929  10.813   3.570   0.933 -1.0456  0.6536  1.3650
  304MOL0     H41930  10.874   3.554   0.688  1.2647 -0.4943  2.5354
  304MOL0     H41931  10.706   3.592   0.648  0.0019 -1.7630 -0.8111
  304MOL0     H41932  10.778   4.559   0.451 -2.9927  1.7769  0.1817
  304MOL0     H41933  10.728   4.719   0.236 -2.6165  0.8282 -1.4710
  304MOL0     H41934  10.588   4.874  -0.047 -0.2155  0.1306 -0.1572
  304MOL0     H41935  10.522   5.030  -0.227  2.0519  2.1382 -0.7282
  304MOL0     H41936  10.199   5.714   0.245  1.4140  1.9200 -2.7765
  304MOL0     H41937  10.071   5.757   0.440  0.4023 -0.1351  0.7195
  304MOL0     H41938   9.766   6.319   0.547 -1.5903  1.4388  0.9996
  304MOL0     H41939   9.708   6.417   0.766  0.1248 -0.2698  3.3337
  304MOL0     H41940   9.541   6.135   1.030  1.8016 -1.0930 -0.2159
  304MOL0     H41941   9.671   6.185   1.140 -1.8035  1.2735 -0.1003
  304MOL0     H41942   9.375   6.270   1.098 -1.5130  2.7483  1.7381
  304MOL0     H41943   9.489   6.376   1.153  0.7949 -0.7327  0.2859
  304MOL0     H41944   9.557   6.219   1.352 -0.0482  1.1816  0.4258
  304MOL0     H41945   9.404   6.303   1.348 -0.1669 -0.4117 -0.1981
  304MOL0     H41946   9.273   6.112   1.290 -0.4683  0.4509  2.9011
  304MOL0     H41947   9.359   6.077   1.429 -0.2656 -1.5712 -0.8815
  304MOL0     H41948   9.542   5.825   1.110 -2.9003 -2.9962  2.0495
  304MOL0     H41949   9.723   6.024   0.936 -1.7788  1.4473  0.6798
  304MOL0     H41950   9.915   5.871   0.737  0.6789 -1.8064 -2.1702
  304MOL0     H41951   9.771   5.825   0.822  0.9834  1.1365  0.7271
  304MOL0     H41952   9.772   5.837   0.643 -0.9092 -1.5501  1.0447
  305MOL0     O41953   4.788   0.337   1.205  0.1068 -0.4690 -0.6326
  305MOL0     C41954   4.750   0.332   1.325  0.1516  0.9684  0.6196
  305MOL0     O41955   4.794   0.234   1.414  0.2192 -0.5514 -0.1759
  305MOL0     C41956   4.894   0.143   1.378 -0.2972  1.1008 -0.5144
  305MOL0     C41957   4.991   0.140   1.481 -0.0009  0.4445  0.4314
  305MOL0     C41958   5.119   0.079   1.444  0.0519 -0.3917 -1.3876
  305MOL0     C41959   5.140   0.014   1.325 -0.0866 -0.0063 -0.1920
  305MOL0     O41960   5.259  -0.056   1.299  0.4744  0.1583 -0.0129
  305MOL0     C41961   5.281  -0.165   1.388 -0.7078  0.3595  0.2995
  305MOL0     C41962   5.429  -0.173   1.443  0.5829  0.8271 -0.2126
  305MOL0     C41963   5.430  -0.067   1.564 -0.7294  0.5963  0.0341
  305MOL0     C41964   5.507  -0.130   1.686  0.7000 -0.0803 -0.0087
  305MOL0     C41965   5.441  -0.240   1.766  0.3777  0.6924 -0.4802
  305MOL0     C41966   5.525  -0.291   1.881  0.2236 -0.1685 -0.2019
  305MOL0     C41967   5.442  -0.345   2.002 -0.7053 -0.5729  0.1709
  305MOL0     C41968   5.542  -0.396   2.110  0.4579 -0.1415 -0.3668
  305MOL0     N41969   5.614  -0.294   2.181 -0.1640  0.1332 -0.7264
  305MOL0     C41970   5.598  -0.272   2.321  0.8276  0.3351 -0.0096
  305MOL0     C41971   5.704  -0.187   2.342  0.3568 -0.0070 -0.9122
  305MOL0     C41972   5.747  -0.138   2.474  0.1019  0.2785 -0.2455
  305MOL0     C41973   5.829  -0.247   2.552  0.6900  0.3131 -0.0718
  305MOL0     C41974   5.965  -0.264   2.478 -0.2741 -1.4344  0.2251
  305MOL0     C41975   6.048  -0.359   2.557 -0.7167  0.2164 -0.2201
  305MOL0     O41976   6.158  -0.411   2.478  0.5090  0.5663 -0.1029
  305MOL0     C41977   6.283  -0.362   2.504  0.9821  0.5048  0.2715
  305MOL0     C41978   6.344  -0.399   2.619 -0.0940  0.1195 -0.3160
  305MOL0     C41979   6.478  -0.359   2.653  0.2646  0.3847  0.4084
  305MOL0     C41980   6.537  -0.409   2.774  0.6230 -0.3218 -0.6827
  305MOL0     C41981   6.543  -0.286   2.554 -1.0368 -0.1135  0.3024
  305MOL0     C41982   6.692  -0.256   2.550  0.2324 -0.6876 -0.7245
  305MOL0     O41983   6.769  -0.291   2.661 -0.2767 -0.2974 -0.4234
  305MOL0     C41984   6.887  -0.226   2.675  0.0868 -0.4578  0.0419
  305MOL0     C41985   7.002  -0.253   2.598  0.3032 -0.1047 -0.3068
  305MOL0     C41986   7.123  -0.168   2.599  0.7646 -0.0977 -0.2635
  305MOL0     C41987   7.123  -0.077   2.701 -0.8845 -0.1247 -0.5469
  305MOL0     O41988   7.237   0.001   2.717 -0.4909  0.3416 -0.0811
  305MOL0     C41989   7.229   0.141   2.770 -0.2503 -0.0171  0.1399
  305MOL0     C41990   7.364   0.206   2.767  0.4330  0.0219  0.2157
  305MOL0     C41991   7.425   0.201   2.624  0.2947 -0.8252  0.0465
  305MOL0     C41992   7.569   0.261   2.629 -0.0681  0.7039 -0.6379
  305MOL0     C41993   7.651   0.284   2.507  0.1170  0.0768 -0.2672
  305MOL0     C41994   7.783   0.363   2.563  0.1727  0.5025  0.2631
  305MOL0     C41995   7.872   0.396   2.447 -0.5282 -0.1951  0.2200
  305MOL0     C41996   8.004   0.319   2.462 -1.2756 -0.5400  0.6025
  305MOL0    Cl41997   7.981   0.141   2.451  0.6165  0.6325 -0.0258
  305MOL0     C41998   7.019  -0.053   2.793 -0.0957  0.4918  0.0529
  305MOL0     C41999   6.900  -0.131   2.778 -0.3077  0.0855 -0.3627
  305MOL0     O42000   6.736  -0.211   2.440  0.0631 -0.7710 -1.2159
  305MOL0     C42001   6.468  -0.231   2.447 -0.2950  0.2537  0.6819
  305MOL0     C42002   6.343  -0.273   2.414 -0.0889  0.0721  0.1737
  305MOL0     N42003   5.778  -0.172   2.230 -0.8002  0.1002 -0.1624
  305MOL0     N42004   5.718  -0.228   2.126 -0.4942 -0.3343  0.4426
  305MOL0     C42005   5.040   0.024   1.229  0.1534 -0.5661  0.4670
  305MOL0     C42006   4.919   0.087   1.248  0.0146 -0.2846 -0.0142
  305MOL0     C42007   4.662   0.438   1.384 -0.1771 -0.8120  0.8752
  305MOL0     C42008   4.642   0.440   1.517  0.0281  0.5645 -0.4770
  305MOL0     C42009   4.562   0.526   1.591 -0.2137 -0.1314  0.4774
  305MOL0     C42010   4.498   0.635   1.529  0.0875 -0.2647  0.0603
  305MOL0     O42011   4.441   0.733   1.598  0.1244  0.4813 -0.5228
  305MOL0     C42012   4.360   0.825   1.531  0.9149  0.2173  0.9765
  305MOL0     C42013   4.231   0.843   1.623  0.0341 -0.7091 -0.2403
  305MOL0     C42014   4.252   0.938   1.751 -0.2010  0.2528  0.5611
  305MOL0     C42015   4.277   1.078   1.715 -0.3210  0.0069 -0.2951
  305MOL0     C42016   4.318   1.157   1.834 -0.2344 -0.9646  0.2536
  305MOL0     C42017   4.353   1.222   1.930 -2.2173  0.4447 -0.8833
  305MOL0     C42018   4.524   0.645   1.386  0.2981  1.1854 -0.3289
  305MOL0     C42019   4.595   0.542   1.310 -0.0092 -0.5030  0.2143
  305MOL0     C42020   4.603   0.561   1.163 -0.3070 -0.1257 -0.0036
  305MOL0     H42021   4.983   0.193   1.575  0.8418 -0.0522  0.8024
  305MOL0     H42022   5.195   0.091   1.521 -1.1131  1.6261 -0.4882
  305MOL0     H42023   5.273  -0.258   1.330  0.1723 -0.5858  1.6110
  305MOL0     H42024   5.205  -0.172   1.466 -2.8663 -2.2532 -1.8322
  305MOL0     H42025   5.448  -0.277   1.470 -2.5987  0.6308  1.7471
  305MOL0     H42026   5.503  -0.145   1.367  0.8938 -0.4959 -0.4162
  305MOL0     H42027   5.483   0.026   1.542  2.5141 -0.7292  1.6290
  305MOL0     H42028   5.328  -0.045   1.598 -2.2243 -4.2436 -0.4802
  305MOL0     H42029   5.601  -0.171   1.649  0.9225 -1.8826  2.3191
  305MOL0     H42030   5.526  -0.051   1.760 -0.6852 -1.2776  1.7081
  305MOL0     H42031   5.416  -0.325   1.703 -1.1456  0.6869  0.0814
  305MOL0     H42032   5.345  -0.203   1.804 -0.1737  0.7890 -1.9343
  305MOL0     H42033   5.583  -0.371   1.836 -2.2656 -1.8258 -0.6564
  305MOL0     H42034   5.598  -0.212   1.904  0.7129 -0.0753 -1.9282
  305MOL0     H42035   5.388  -0.426   1.952 -0.5796  0.4195 -1.6659
  305MOL0     H42036   5.369  -0.274   2.043  0.7385  1.8202 -1.1582
  305MOL0     H42037   5.496  -0.468   2.179  3.6180  1.0014  3.3370
  305MOL0     H42038   5.614  -0.454   2.052  2.4356 -0.1171  1.9035
  305MOL0     H42039   5.542  -0.315   2.403  2.4346 -1.5744  0.1411
  305MOL0     H42040   5.658  -0.101   2.524 -0.4578  3.9665 -3.5003
  305MOL0     H42041   5.812  -0.051   2.460  1.7051 -0.7449  0.4940
  305MOL0     H42042   5.836  -0.231   2.660  2.1607  0.3034 -0.1538
  305MOL0     H42043   5.774  -0.342   2.550 -2.1204  1.8002  0.2138
  305MOL0     H42044   5.964  -0.297   2.374  0.2289  0.5257 -0.4525
  305MOL0     H42045   6.013  -0.166   2.489 -1.3522 -0.9846  1.1482
  305MOL0     H42046   6.077  -0.303   2.646  0.2021  2.6211 -1.9453
  305MOL0     H42047   5.993  -0.445   2.598 -0.4906  0.3803  0.4443
  305MOL0     H42048   6.283  -0.463   2.681 -0.5847  0.9963  0.1341
  305MOL0     H42049   6.601  -0.334   2.822 -1.6034  1.0212  0.3692
  305MOL0     H42050   6.593  -0.499   2.746  2.1228 -0.4778  2.3400
  305MOL0     H42051   6.473  -0.441   2.856  0.3485  0.1249 -0.7173
  305MOL0     H42052   6.995  -0.337   2.529 -0.6697 -1.3098  1.2068
  305MOL0     H42053   7.213  -0.180   2.540  1.0166 -0.6920  0.2229
  305MOL0     H42054   7.161   0.194   2.703 -0.9273 -1.5396 -0.4237
  305MOL0     H42055   7.188   0.146   2.872  0.3312 -0.6540  0.4133
  305MOL0     H42056   7.355   0.309   2.803  0.0997  0.5279 -1.2319
  305MOL0     H42057   7.430   0.148   2.832  3.1305  0.5952 -1.8487
  305MOL0     H42058   7.365   0.259   2.553  2.7900  1.7497 -0.1147
  305MOL0     H42059   7.425   0.100   2.583  0.5683  0.3204 -3.0177
  305MOL0     H42060   7.618   0.198   2.703  0.1293 -2.2716 -3.1192
  305MOL0     H42061   7.563   0.361   2.672  0.9324  0.4150  0.1940
  305MOL0     H42062   7.677   0.182   2.476  2.3314  0.1782  1.0075
  305MOL0     H42063   7.588   0.339   2.437  0.0983 -2.1164 -2.1003
  305MOL0     H42064   7.836   0.299   2.634  2.9783  3.9796  1.6165
  305MOL0     H42065   7.769   0.454   2.623 -0.9682 -0.4259  1.4743
  305MOL0     H42066   7.899   0.502   2.449  2.0000 -0.6249 -2.7066
  305MOL0     H42067   7.826   0.364   2.353 -1.4018 -2.0418  1.2303
  305MOL0     H42068   8.062   0.327   2.554 -4.3649 -0.7380  2.7371
  305MOL0     H42069   8.061   0.360   2.378 -1.6393 -0.5962  0.3245
  305MOL0     H42070   7.030   0.014   2.877  0.4823 -1.1225  1.3145
  305MOL0     H42071   6.822  -0.131   2.854  0.2161 -3.2478  0.3687
  305MOL0     H42072   6.504  -0.155   2.378 -1.0587 -0.2730 -0.3145
  305MOL0     H42073   6.291  -0.235   2.327  2.2380  1.6368 -0.6460
  305MOL0     H42074   5.061  -0.017   1.130  2.3874  0.4447  0.4742
  305MOL0     H42075   4.840   0.098   1.175  2.0571  0.3608 -2.2224
  305MOL0     H42076   4.670   0.344   1.559  0.1173  0.1129 -1.5371
  305MOL0     H42077   4.554   0.514   1.699 -4.2726  0.2859  0.3654
  305MOL0     H42078   4.403   0.923   1.512 -2.3889  1.0803 -4.0216
  305MOL0     H42079   4.320   0.791   1.435 -2.0077  0.7508  1.9019
  305MOL0     H42080   4.191   0.744   1.648  0.3009 -1.1397 -1.4622
  305MOL0     H42081   4.155   0.900   1.569 -0.5832  0.5292  1.8116
  305MOL0     H42082   4.165   0.929   1.816  0.1633  0.6630  1.1160
  305MOL0     H42083   4.345   0.894   1.790  2.0084  4.0122 -0.0417
  305MOL0     H42084   4.190   1.120   1.664  0.6905 -2.0843 -4.0636
  305MOL0     H42085   4.365   1.085   1.650  0.0623  1.5661  0.3509
  305MOL0     H42086   4.366   1.279   2.020 -1.8885 -0.8206 -0.1083
  305MOL0     H42087   4.502   0.731   1.324  1.0898  1.4431 -0.2684
  305MOL0     H42088   4.543   0.646   1.129 -0.5589 -0.7623 -1.2083
  305MOL0     H42089   4.706   0.578   1.130 -0.6139  1.2739 -0.2940
  305MOL0     H42090   4.562   0.474   1.110  1.9353 -0.8420 -0.6576
  306MOL0     O42091   0.426   2.972  10.821  0.4731 -0.3797  0.3015
  306MOL0     C42092   0.456   2.858  10.854  0.5946 -1.1156 -0.7450
  306MOL0     O42093   0.482   2.756  10.769  0.0690 -0.1488  0.6380
  306MOL0     C42094   0.480   2.791  10.638 -0.0585  0.0567  0.1337
  306MOL0     C42095   0.361   2.770  10.562 -0.3279 -0.3458  0.0988
  306MOL0     C42096   0.364   2.800  10.425  0.1324  0.3964  0.1393
  306MOL0     C42097   0.479   2.842  10.365 -0.2722  0.2543 -1.3709
  306MOL0     O42098   0.476   2.844  10.230  0.5763  0.7607  0.0600
  306MOL0     C42099   0.586   2.887  10.143  0.3960 -0.7046 -0.2915
  306MOL0     C42100   0.535   2.921  10.004  0.1743  0.2205 -0.7262
  306MOL0     C42101   0.645   2.952   9.903  0.6837 -0.0699 -0.9225
  306MOL0     C42102   0.752   2.844   9.898  0.4824 -0.0119  0.2170
  306MOL0     C42103   0.849   2.870   9.794  0.4544 -0.2407 -0.4757
  306MOL0     C42104   0.949   2.757   9.775 -0.6965 -0.6144 -0.8203
  306MOL0     C42105   0.895   2.621   9.746 -0.0198  0.5944  0.0962
  306MOL0     C42106   0.992   2.529   9.691  0.3105  0.5304  0.3161
  306MOL0     N42107   0.936   2.387   9.669 -0.2178  0.2183  0.5802
  306MOL0     C42108   1.019   2.279   9.632 -0.8640 -1.0856 -0.3031
  306MOL0     C42109   0.928   2.177   9.600  0.3838 -0.5387 -0.3757
  306MOL0     C42110   0.940   2.037   9.543 -0.0510 -0.4105 -0.6245
  306MOL0     C42111   0.991   1.930   9.638 -0.2089  0.3164  0.6082
  306MOL0     C42112   0.922   1.930   9.768 -0.1864  0.7125 -0.2174
  306MOL0     C42113   0.957   1.805   9.864  0.0533 -0.2966 -0.5113
  306MOL0     O42114   1.099   1.781   9.874  0.5354  0.0743  0.3825
  306MOL0     C42115   1.139   1.658   9.926 -0.7112  0.7385  0.6748
  306MOL0     C42116   1.056   1.557   9.965 -0.5176  0.2829 -0.3612
  306MOL0     C42117   1.108   1.435  10.023 -0.7219 -0.2628 -0.0179
  306MOL0     C42118   1.012   1.322  10.046  0.6736  0.4106 -0.3547
  306MOL0     C42119   1.248   1.423  10.041 -0.2903 -0.7540  0.4396
  306MOL0     C42120   1.304   1.320  10.130  0.0966 -0.3236  0.3755
  306MOL0     O42121   1.262   1.195  10.107  0.0749 -0.1278  0.2211
  306MOL0     C42122   1.309   1.100  10.188  0.6133 -0.1511  0.1601
  306MOL0     C42123   1.428   1.043  10.152  0.5409  0.5385 -0.3929
  306MOL0     C42124   1.462   0.922  10.227  0.8941 -0.4699 -0.2343
  306MOL0     C42125   1.381   0.856  10.324 -0.3532  0.6684  0.1327
  306MOL0     O42126   1.413   0.736  10.395 -0.1245 -0.7117  0.5912
  306MOL0     C42127   1.546   0.720  10.440 -0.5133  0.3690 -0.6396
  306MOL0     C42128   1.559   0.628  10.565  0.1276  0.4179 -0.4640
  306MOL0     C42129   1.708   0.611  10.603 -0.0304 -0.9332  0.6395
  306MOL0     C42130   1.713   0.527  10.726  1.0078 -0.2765 -0.3014
  306MOL0     C42131   1.846   0.507  10.783 -0.5639 -0.3198 -0.2783
  306MOL0     C42132   1.844   0.436  10.922 -0.2475  0.7535 -0.0098
  306MOL0     C42133   1.972   0.454  11.018  0.1354  1.0111  0.7375
  306MOL0     C42134   1.968   0.362  11.139  0.1615 -0.0309  0.0135
  306MOL0    Cl42135   1.821   0.388  11.238 -0.3369  0.2357 -0.1726
  306MOL0     C42136   1.258   0.917  10.342 -0.0382 -0.2969  0.2211
  306MOL0     C42137   1.223   1.036  10.274  0.7495  0.0129  0.8461
  306MOL0     O42138   1.375   1.356  10.222  0.1950  0.4071 -0.3885
  306MOL0     C42139   1.324   1.534  10.006  0.4354 -0.6309 -0.3231
  306MOL0     C42140   1.273   1.647   9.944 -0.3368  0.7222 -0.2387
  306MOL0     N42141   0.807   2.228   9.634 -0.0227  0.9783 -0.8349
  306MOL0     N42142   0.804   2.349   9.668 -0.6180 -0.0609 -0.2393
  306MOL0     C42143   0.591   2.877  10.442  0.2315 -0.2236  0.5908
  306MOL0     C42144   0.593   2.845  10.577 -0.4468 -0.6061  0.3281
  306MOL0     C42145   0.461   2.819  11.004 -0.7247 -0.0437  0.2817
  306MOL0     C42146   0.475   2.922  11.096  0.1340  0.2104 -0.6717
  306MOL0     C42147   0.490   2.902  11.234 -0.4597 -0.9688 -0.1937
  306MOL0     C42148   0.487   2.772  11.274  0.3946 -0.0255  0.7170
  306MOL0     O42149   0.512   2.748  11.400  0.2709  0.2217  0.1389
  306MOL0     C42150   0.646   2.755  11.441  0.7980  0.2943  0.7533
  306MOL0     C42151   0.660   2.842  11.569 -1.0004 -0.0373  0.1323
  306MOL0     C42152   0.743   2.791  11.684  0.6687 -0.5947 -0.0731
  306MOL0     C42153   0.889   2.754  11.650 -0.2180 -0.8709 -0.2014
  306MOL0     C42154   0.959   2.857  11.569  0.6759  0.0502 -0.6833
  306MOL0     C42155   1.006   2.948  11.496  0.1605  0.8578 -0.2690
  306MOL0     C42156   0.480   2.673  11.177  0.7995  0.5430 -1.0458
  306MOL0     C42157   0.458   2.686  11.047  0.1688 -1.2690 -0.1426
  306MOL0     C42158   0.417   2.569  10.970  0.4381  0.8793 -0.8166
  306MOL0     H42159   0.285   2.716  10.617 -1.2566 -3.6209 -3.8923
  306MOL0     H42160   0.280   2.777  10.361  0.7537 -1.8040  0.0270
  306MOL0     H42161   0.655   2.803  10.131  1.5281  0.1278  0.1471
  306MOL0     H42162   0.624   2.980  10.186  1.7464 -0.5980 -1.6621
  306MOL0     H42163   0.480   2.837   9.960 -1.4088  1.2565 -0.8245
  306MOL0     H42164   0.462   3.002  10.016  0.5826  0.3737  1.0272
  306MOL0     H42165   0.602   2.968   9.803 -0.8492  1.8637 -0.0158
  306MOL0     H42166   0.695   3.047   9.925  1.4712 -0.7843  0.4882
  306MOL0     H42167   0.807   2.850   9.992  2.1529 -0.6286 -0.6820
  306MOL0     H42168   0.708   2.746   9.875 -0.8692  0.8567 -1.0980
  306MOL0     H42169   0.901   2.965   9.809  0.7680 -0.7345  1.8556
  306MOL0     H42170   0.794   2.889   9.701 -0.7674  0.0770  0.2944
  306MOL0     H42171   1.023   2.778   9.699  0.2163 -1.3367 -0.1610
  306MOL0     H42172   1.001   2.742   9.871 -1.0033 -0.1736 -0.5809
  306MOL0     H42173   0.813   2.625   9.673 -0.4245 -0.5054  0.4843
  306MOL0     H42174   0.857   2.577   9.838 -1.4878  0.0637 -0.7382
  306MOL0     H42175   1.037   2.572   9.602  1.9183 -0.0359  0.8201
  306MOL0     H42176   1.073   2.530   9.764  2.1619 -0.3952 -1.6322
  306MOL0     H42177   1.124   2.277   9.606 -0.3098 -2.2202  1.8037
  306MOL0     H42178   1.008   2.038   9.458  2.3684 -2.0786  1.1482
  306MOL0     H42179   0.840   2.018   9.503 -0.1051  1.4021 -1.4410
  306MOL0     H42180   0.972   1.833   9.592  0.6094  0.6710 -0.4868
  306MOL0     H42181   1.098   1.941   9.657  0.1089 -0.6205 -0.5656
  306MOL0     H42182   0.960   2.017   9.823  0.4905 -1.2342  2.5983
  306MOL0     H42183   0.814   1.944   9.772 -0.3319  0.0435  4.4648
  306MOL0     H42184   0.913   1.817   9.963  0.8652  1.1387 -0.2924
  306MOL0     H42185   0.907   1.717   9.822  0.3652 -0.5016 -0.4537
  306MOL0     H42186   0.948   1.567   9.957 -0.3224  2.5284 -0.9683
  306MOL0     H42187   0.983   1.297  10.148 -1.5908  3.5261 -0.0949
  306MOL0     H42188   1.048   1.228  10.002  1.2923 -1.3706  3.5487
  306MOL0     H42189   0.915   1.342   9.999  0.3808 -0.0804  0.0236
  306MOL0     H42190   1.489   1.076  10.068  1.4564 -3.5787 -1.5598
  306MOL0     H42191   1.553   0.881  10.185 -0.2807 -0.0924 -3.3440
  306MOL0     H42192   1.609   0.693  10.354 -0.4065 -0.3855 -0.3383
  306MOL0     H42193   1.594   0.813  10.470  2.6916  0.0318 -3.8867
  306MOL0     H42194   1.507   0.684  10.643 -0.0671 -0.0914 -0.2293
  306MOL0     H42195   1.516   0.528  10.556  1.0204  0.0027 -0.1705
  306MOL0     H42196   1.745   0.709  10.635  1.7572 -1.7665  1.2915
  306MOL0     H42197   1.772   0.564  10.528  0.2292 -3.2099  2.1895
  306MOL0     H42198   1.664   0.431  10.707 -2.0356  1.3010 -1.0501
  306MOL0     H42199   1.644   0.576  10.795 -1.0341 -1.6568 -1.2913
  306MOL0     H42200   1.901   0.451  10.707 -1.7232  0.3960 -1.6989
  306MOL0     H42201   1.892   0.603  10.807  0.0267 -1.0748  1.8293
  306MOL0     H42202   1.824   0.329  10.908  2.6260  0.2302 -0.8914
  306MOL0     H42203   1.771   0.479  10.991  2.0686  2.4419  1.5578
  306MOL0     H42204   1.970   0.559  11.046  1.0247  1.3879 -0.4712
  306MOL0     H42205   2.066   0.456  10.961 -0.8588  1.8231 -0.9608
  306MOL0     H42206   2.057   0.392  11.196 -0.3734 -0.3708  1.0422
  306MOL0     H42207   1.986   0.255  11.123 -2.0230 -0.3063 -0.8892
  306MOL0     H42208   1.183   0.870  10.404 -0.7196 -0.5607 -0.7876
  306MOL0     H42209   1.121   1.073  10.265  0.0629 -1.8596  0.6118
  306MOL0     H42210   1.428   1.527  10.034  1.2100  0.8665 -2.5763
  306MOL0     H42211   1.344   1.727   9.927  1.8098 -1.5078 -2.8755
  306MOL0     H42212   0.684   2.911  10.397  0.0447  2.0825  1.8415
  306MOL0     H42213   0.675   2.885  10.636  0.0142  2.6103 -2.1609
  306MOL0     H42214   0.457   3.020  11.054  1.0098  1.4746  1.6621
  306MOL0     H42215   0.506   2.988  11.299 -0.8831  1.5910 -3.2396
  306MOL0     H42216   0.681   2.655  11.465  0.3664  0.2582  1.2503
  306MOL0     H42217   0.710   2.788  11.359 -0.6505 -0.3411 -0.6907
  306MOL0     H42218   0.558   2.839  11.606 -0.4735 -1.6273  1.5592
  306MOL0     H42219   0.680   2.945  11.540  1.2040 -0.6900 -0.9773
  306MOL0     H42220   0.734   2.866  11.764  1.6682  1.1756 -1.5502
  306MOL0     H42221   0.691   2.707  11.731  1.0599 -0.8331 -0.0622
  306MOL0     H42222   0.895   2.655  11.604  1.5822 -1.0409  0.3051
  306MOL0     H42223   0.943   2.733  11.742 -1.3660  0.8384  0.9181
  306MOL0     H42224   1.025   3.011  11.412 -1.0610  1.8454  0.1500
  306MOL0     H42225   0.492   2.573  11.217  1.2530  1.5677  1.6244
  306MOL0     H42226   0.499   2.542  10.903  1.0445  2.0467 -0.5739
  306MOL0     H42227   0.386   2.482  11.029 -0.1425  0.9997 -0.9396
  306MOL0     H42228   0.332   2.583  10.903 -0.1486  2.1072  0.1496
  307MOL0     O42229   1.871   8.153   8.347 -0.1191  0.2242 -0.1604
  307MOL0     C42230   1.974   8.176   8.283  0.5984 -0.3518 -0.0042
  307MOL0     O42231   2.049   8.290   8.281 -0.0799 -0.4985 -0.7190
  307MOL0     C42232   2.001   8.404   8.330 -0.0407  0.0464 -0.3301
  307MOL0     C42233   2.098   8.502   8.370 -0.7985 -0.1486 -0.2088
  307MOL0     C42234   2.066   8.624   8.420 -0.0465  0.2193 -0.1607
  307MOL0     C42235   1.928   8.648   8.439 -0.2351 -0.0680 -0.0283
  307MOL0     O42236   1.901   8.767   8.497  0.7406  0.4253 -0.6264
  307MOL0     C42237   1.797   8.830   8.428 -0.5298  0.1023  0.0254
  307MOL0     C42238   1.812   8.983   8.467 -0.0865  0.5965 -0.5660
  307MOL0     C42239   1.685   9.050   8.408  0.7686 -0.3142 -0.2548
  307MOL0     C42240   1.717   9.175   8.315 -0.6372  0.2473  0.5520
  307MOL0     C42241   1.601   9.228   8.230 -0.2178  1.0398  0.1433
  307MOL0     C42242   1.498   9.299   8.323 -1.0192  0.6917  0.7360
  307MOL0     C42243   1.374   9.361   8.245  1.0856 -0.7365  0.6902
  307MOL0     C42244   1.391   9.477   8.148  0.7867  0.0321 -0.2825
  307MOL0     N42245   1.455   9.440   8.024  0.1749 -0.2459  0.9737
  307MOL0     C42246   1.434   9.328   7.946  0.4928 -0.1564  0.6789
  307MOL0     C42247   1.478   9.351   7.825 -1.4676 -0.4064  0.9412
  307MOL0     C42248   1.495   9.254   7.708  0.1383 -0.1929 -0.7591
  307MOL0     C42249   1.558   9.299   7.577 -0.9451  0.3766  0.1676
  307MOL0     C42250   1.497   9.203   7.468 -0.2411  0.1493 -0.7578
  307MOL0     C42251   1.559   9.234   7.336 -1.1521 -0.4836  0.1515
  307MOL0     O42252   1.487   9.147   7.245 -0.2857  0.0614  0.0964
  307MOL0     C42253   1.531   9.154   7.116  0.9996  0.7943  0.1679
  307MOL0     C42254   1.656   9.174   7.070  0.4308  0.4048 -0.8304
  307MOL0     C42255   1.694   9.166   6.940  0.8367 -0.4240  0.0957
  307MOL0     C42256   1.833   9.223   6.910 -0.9149 -0.2919 -0.0449
  307MOL0     C42257   1.601   9.129   6.839  0.1387 -0.4220 -0.3397
  307MOL0     C42258   1.632   9.137   6.690 -0.6511  0.4106  1.0116
  307MOL0     O42259   1.532   9.142   6.612 -0.3212  0.2980 -0.4892
  307MOL0     C42260   1.544   9.170   6.483 -0.1666  0.1115  0.6321
  307MOL0     C42261   1.505   9.066   6.399 -0.7296 -0.0233  1.2270
  307MOL0     C42262   1.541   9.068   6.261  0.1754 -0.3809  0.1898
  307MOL0     C42263   1.612   9.171   6.203  0.7776  0.7660  0.3877
  307MOL0     O42264   1.646   9.139   6.068  0.1426  1.3369 -0.0052
  307MOL0     C42265   1.636   9.238   5.963 -0.0369  1.3560  0.8368
  307MOL0     C42266   1.504   9.319   5.944 -1.5458  0.5038  0.4177
  307MOL0     C42267   1.534   9.425   5.841 -0.2638  0.2629 -0.3564
  307MOL0     C42268   1.413   9.491   5.777 -0.3420  0.3182  0.5650
  307MOL0     C42269   1.324   9.569   5.869 -0.2139  1.1082 -0.1970
  307MOL0     C42270   1.212   9.640   5.792  0.1178 -0.3540  0.4072
  307MOL0     C42271   1.124   9.736   5.873  0.2341 -0.4300  0.0736
  307MOL0     C42272   1.020   9.802   5.788  1.1478  0.8935  0.9806
  307MOL0    Cl42273   0.897   9.687   5.741 -0.0699  0.2408  0.4698
  307MOL0     C42274   1.636   9.290   6.281  0.4727 -0.3859  0.4073
  307MOL0     C42275   1.614   9.279   6.423 -0.3041 -0.2026  0.4175
  307MOL0     O42276   1.747   9.127   6.644 -0.1841 -0.1080  0.0626
  307MOL0     C42277   1.468   9.102   6.889  0.7238  0.3308  0.5488
  307MOL0     C42278   1.436   9.111   7.021 -0.8565  0.7683 -0.9352
  307MOL0     N42279   1.532   9.480   7.831 -0.4098 -0.9278  0.4867
  307MOL0     N42280   1.520   9.525   7.949  0.1160  0.4647 -0.1899
  307MOL0     C42281   1.832   8.553   8.402  1.0279  0.2335 -0.1308
  307MOL0     C42282   1.866   8.440   8.342  0.4503 -0.4798  0.0425
  307MOL0     C42283   2.049   8.067   8.198 -0.1349 -1.1652  0.2429
  307MOL0     C42284   1.974   8.005   8.101  1.0308  0.2197  0.1651
  307MOL0     C42285   2.035   7.908   8.024 -0.4953  0.7628  0.6691
  307MOL0     C42286   2.168   7.874   8.033 -0.6165  0.1082 -0.1174
  307MOL0     O42287   2.238   7.777   7.962 -0.6937 -0.8551  0.5315
  307MOL0     C42288   2.161   7.659   7.930 -0.0105 -0.7477  0.4257
  307MOL0     C42289   2.187   7.556   8.051  0.2448  0.2694  0.2618
  307MOL0     C42290   2.336   7.532   8.060 -0.3558  0.2871 -0.0997
  307MOL0     C42291   2.382   7.471   8.190 -0.2951  0.3546  0.3857
  307MOL0     C42292   2.359   7.319   8.184  0.2494 -0.1479 -0.3725
  307MOL0     C42293   2.346   7.196   8.196  0.6004  0.1189 -0.9579
  307MOL0     C42294   2.251   7.948   8.119 -0.6524  0.9619 -0.1589
  307MOL0     C42295   2.194   8.040   8.212 -0.1580  0.4660  0.9159
  307MOL0     C42296   2.296   8.102   8.304  0.5893  0.1084  0.8353
  307MOL0     H42297   2.205   8.485   8.377 -0.9548 -0.3184  2.9151
  307MOL0     H42298   2.141   8.695   8.452  0.0443  0.0896 -0.0856
  307MOL0     H42299   1.699   8.788   8.453 -0.9766  1.7914  1.3133
  307MOL0     H42300   1.818   8.816   8.321  1.7186  0.3175  0.3860
  307MOL0     H42301   1.808   8.985   8.576 -1.9800 -0.8391 -0.5510
  307MOL0     H42302   1.906   9.030   8.437 -0.0548  0.5963 -0.4636
  307MOL0     H42303   1.614   8.981   8.360 -0.2555  0.3969  0.2023
  307MOL0     H42304   1.631   9.085   8.496 -0.8053  0.6692 -1.5421
  307MOL0     H42305   1.769   9.254   8.371  2.1491 -0.1072 -1.3193
  307MOL0     H42306   1.784   9.138   8.237 -2.0102  1.5553 -1.3541
  307MOL0     H42307   1.552   9.142   8.184  1.3246 -0.3950  1.0520
  307MOL0     H42308   1.637   9.290   8.147  2.8185 -3.0860 -1.9678
  307MOL0     H42309   1.464   9.221   8.393 -0.1077 -1.5830 -1.2102
  307MOL0     H42310   1.552   9.376   8.378  0.3466  0.0703  0.3270
  307MOL0     H42311   1.295   9.398   8.311 -3.9531  0.1126 -4.8997
  307MOL0     H42312   1.336   9.278   8.185  1.1164 -0.5393  0.3984
  307MOL0     H42313   1.295   9.526   8.127  0.8479 -0.7121 -2.5748
  307MOL0     H42314   1.448   9.555   8.199 -0.0222  1.4955 -1.5120
  307MOL0     H42315   1.380   9.238   7.972  1.0259 -0.9760 -0.9480
  307MOL0     H42316   1.396   9.209   7.697  0.1014 -0.7505  1.3683
  307MOL0     H42317   1.558   9.171   7.742  2.9026  1.7597 -0.8267
  307MOL0     H42318   1.523   9.401   7.558 -1.6800  0.3309  1.2196
  307MOL0     H42319   1.665   9.275   7.578 -1.1023 -0.9980 -3.1684
  307MOL0     H42320   1.513   9.098   7.493  1.0773  0.4179 -0.3820
  307MOL0     H42321   1.391   9.225   7.450  0.0757  0.1613 -2.8030
  307MOL0     H42322   1.554   9.339   7.304  2.5611 -1.1586 -3.4376
  307MOL0     H42323   1.663   9.203   7.347 -1.5586 -2.5426 -1.2111
  307MOL0     H42324   1.732   9.205   7.142 -0.6441  1.2117 -0.0226
  307MOL0     H42325   1.813   9.304   6.840 -1.2056  2.6840  3.2195
  307MOL0     H42326   1.900   9.146   6.870 -0.8338 -0.9713  1.3575
  307MOL0     H42327   1.864   9.280   6.998 -1.6596  0.8397 -0.4956
  307MOL0     H42328   1.478   8.970   6.443  0.1120 -1.2745 -0.8546
  307MOL0     H42329   1.505   8.982   6.206 -1.4227  0.7000 -0.5141
  307MOL0     H42330   1.717   9.304   5.995  2.2399 -0.1648 -1.4275
  307MOL0     H42331   1.669   9.206   5.864 -0.0083  1.9073  0.6621
  307MOL0     H42332   1.422   9.251   5.918 -0.5239 -0.2510 -0.9678
  307MOL0     H42333   1.466   9.378   6.028 -3.3361  2.0880 -1.3793
  307MOL0     H42334   1.598   9.396   5.757  1.2651  0.4710  0.6951
  307MOL0     H42335   1.591   9.505   5.890  1.2280 -0.9418 -0.0325
  307MOL0     H42336   1.351   9.418   5.724 -0.3413  1.1169 -0.5980
  307MOL0     H42337   1.448   9.565   5.703  0.0116  1.5774  1.9510
  307MOL0     H42338   1.287   9.506   5.950 -2.3519 -0.1403 -2.0526
  307MOL0     H42339   1.375   9.652   5.919 -1.8040  2.2308 -0.3645
  307MOL0     H42340   1.141   9.577   5.738 -1.5011  1.5870  0.1533
  307MOL0     H42341   1.258   9.697   5.711 -0.4147 -0.9204 -0.3005
  307MOL0     H42342   1.192   9.805   5.923 -0.7048 -1.4581  2.9610
  307MOL0     H42343   1.087   9.668   5.950  1.3143 -4.2237 -2.4768
  307MOL0     H42344   1.059   9.847   5.696 -0.2135 -1.5906 -0.9130
  307MOL0     H42345   0.979   9.884   5.847  0.5261  2.3454 -1.3417
  307MOL0     H42346   1.679   9.379   6.235 -3.0411  0.4945 -1.5557
  307MOL0     H42347   1.636   9.354   6.497  0.3303 -1.5307  1.6167
  307MOL0     H42348   1.391   9.065   6.822  2.3592 -3.4599  0.5502
  307MOL0     H42349   1.342   9.078   7.064 -1.5737  3.4956 -0.1698
  307MOL0     H42350   1.732   8.565   8.444  1.1003  1.5587 -0.2918
  307MOL0     H42351   1.792   8.373   8.300 -0.4783  1.0571 -0.9231
  307MOL0     H42352   1.869   8.031   8.092  0.6372 -1.0562  0.7904
  307MOL0     H42353   1.968   7.861   7.952  0.9545  1.0314 -0.9216
  307MOL0     H42354   2.055   7.683   7.928 -0.1283 -1.2796 -1.9560
  307MOL0     H42355   2.184   7.621   7.830  2.0756 -0.9013  0.9042
  307MOL0     H42356   2.133   7.461   8.045  1.2309 -0.2333 -1.0893
  307MOL0     H42357   2.160   7.600   8.148  1.6078 -0.5455  1.0503
  307MOL0     H42358   2.370   7.470   7.977  2.7197  0.9699  0.5250
  307MOL0     H42359   2.389   7.627   8.053  2.4415 -1.0282  1.6950
  307MOL0     H42360   2.345   7.512   8.285  0.4257  0.0378  0.8156
  307MOL0     H42361   2.489   7.496   8.189  0.0478 -1.0149  0.8305
  307MOL0     H42362   2.327   7.090   8.202 -1.6687  0.5417  2.4308
  307MOL0     H42363   2.358   7.934   8.106 -0.7522  2.2883 -3.3892
  307MOL0     H42364   2.380   8.033   8.312 -0.7391 -1.8666 -1.3496
  307MOL0     H42365   2.332   8.196   8.261 -0.3946 -0.0771 -0.4605
  307MOL0     H42366   2.252   8.133   8.400  0.4885  4.5412 -0.4075
  308MOL0     O42367   4.106   0.271   2.249 -0.0571  0.5530  0.9618
  308MOL0     C42368   4.020   0.365   2.246  0.7204 -0.3966 -0.3429
  308MOL0     O42369   3.977   0.427   2.127 -0.1857 -0.0520 -0.6634
  308MOL0     C42370   4.048   0.402   2.010  0.6993 -1.1045  0.3038
  308MOL0     C42371   4.032   0.292   1.929  0.1573  0.3413 -0.0780
  308MOL0     C42372   4.097   0.267   1.814 -0.5486 -0.2897  0.3414
  308MOL0     C42373   4.193   0.362   1.771 -0.5528  1.0928 -0.0655
  308MOL0     O42374   4.289   0.349   1.677 -0.0599 -0.2132  0.6287
  308MOL0     C42375   4.260   0.262   1.565 -0.2630  0.6555  1.1759
  308MOL0     C42376   4.389   0.222   1.503 -0.7757 -0.5125  0.0741
  308MOL0     C42377   4.397   0.074   1.452  0.6660 -0.0542 -0.8738
  308MOL0     C42378   4.518   0.036   1.362 -0.3800 -0.8794 -0.3115
  308MOL0     C42379   4.503  -0.098   1.299 -0.4928  0.3700  0.8961
  308MOL0     C42380   4.619  -0.150   1.214 -0.0244  0.3971 -1.0332
  308MOL0     C42381   4.623  -0.078   1.079 -0.3261 -0.2913 -0.3880
  308MOL0     C42382   4.505  -0.113   0.993  0.2982  0.2861  0.5532
  308MOL0     N42383   4.487  -0.259   0.971 -0.3447  1.0867  1.1511
  308MOL0     C42384   4.373  -0.335   0.992 -1.0603  0.5419 -0.5515
  308MOL0     C42385   4.402  -0.459   0.943 -0.4699  0.3927  0.5144
  308MOL0     C42386   4.292  -0.568   0.958  0.0434  1.0716 -0.2213
  308MOL0     C42387   4.175  -0.539   0.869  0.5305  0.9183  0.1220
  308MOL0     C42388   4.054  -0.490   0.941 -0.2627  0.1529 -0.1651
  308MOL0     C42389   3.950  -0.438   0.844 -0.4925  0.0345 -0.4786
  308MOL0     O42390   3.826  -0.414   0.910  0.2113  0.8113 -0.0903
  308MOL0     C42391   3.723  -0.375   0.836 -0.2599  0.2336  0.2776
  308MOL0     C42392   3.601  -0.352   0.904 -0.3333 -0.6723  0.3168
  308MOL0     C42393   3.488  -0.319   0.831 -0.4795  0.4889  0.0153
  308MOL0     C42394   3.369  -0.296   0.918 -0.0963 -0.0099  0.6419
  308MOL0     C42395   3.494  -0.291   0.690  0.1592 -0.1925  0.4914
  308MOL0     C42396   3.375  -0.251   0.609  0.8557 -0.4176  0.3394
  308MOL0     O42397   3.372  -0.278   0.476 -0.9123  0.8367 -0.3855
  308MOL0     C42398   3.255  -0.285   0.407 -0.0605  1.0327  0.5075
  308MOL0     C42399   3.129  -0.330   0.458  0.6037  0.0215 -0.0613
  308MOL0     C42400   3.015  -0.335   0.369  0.3532 -0.4478  0.8531
  308MOL0     C42401   3.023  -0.300   0.233  0.3507 -0.0169  0.4858
  308MOL0     O42402   2.925  -0.354   0.150 -0.0486 -0.1982  0.7244
  308MOL0     C42403   2.936  -0.321   0.010 -0.9641  0.3534  0.0787
  308MOL0     C42404   2.816  -0.391  -0.075  0.9826  0.3023 -0.4455
  308MOL0     C42405   2.868  -0.519  -0.131  0.5478 -0.8861 -0.3883
  308MOL0     C42406   2.864  -0.509  -0.288 -0.5013  0.2478 -0.4710
  308MOL0     C42407   2.948  -0.622  -0.366 -0.2766 -0.8038  0.2744
  308MOL0     C42408   2.953  -0.581  -0.518  0.1151 -0.0307 -0.6560
  308MOL0     C42409   3.009  -0.703  -0.604 -0.4226 -0.1883 -0.6264
  308MOL0     C42410   3.033  -0.656  -0.742 -0.4062 -0.1488  0.6068
  308MOL0    Cl42411   3.130  -0.781  -0.821  0.4266 -0.1869 -0.5091
  308MOL0     C42412   3.144  -0.234   0.200  0.9822 -0.0518 -0.4045
  308MOL0     C42413   3.260  -0.234   0.282  0.5114  0.1291 -0.6176
  308MOL0     O42414   3.277  -0.198   0.666  0.2082  0.0903 -0.1926
  308MOL0     C42415   3.618  -0.312   0.627  0.1934  1.3290 -0.2906
  308MOL0     C42416   3.731  -0.362   0.696 -0.6491 -0.5084 -0.5595
  308MOL0     N42417   4.523  -0.453   0.882 -0.0474  0.2302 -0.2175
  308MOL0     N42418   4.582  -0.336   0.905 -0.8101 -0.9852 -0.1415
  308MOL0     C42419   4.207   0.480   1.838  0.1842  0.8535 -0.7116
  308MOL0     C42420   4.136   0.504   1.958  1.6040  0.1096 -0.0467
  308MOL0     C42421   3.972   0.439   2.364  1.9405  0.7337 -0.1795
  308MOL0     C42422   3.909   0.560   2.355  0.8009  0.3645 -0.1165
  308MOL0     C42423   3.850   0.628   2.455  0.4247  0.1370  0.2345
  308MOL0     C42424   3.883   0.598   2.581 -0.1127 -0.5687 -0.3954
  308MOL0     O42425   3.851   0.678   2.686  0.1157 -0.5167  0.3529
  308MOL0     C42426   3.795   0.808   2.660 -0.8993 -0.6368  0.2038
  308MOL0     C42427   3.741   0.872   2.794  1.1281 -0.6349 -1.0944
  308MOL0     C42428   3.644   0.773   2.863  0.6548 -1.3846 -0.4545
  308MOL0     C42429   3.580   0.812   3.000  0.2622 -0.0677  0.0241
  308MOL0     C42430   3.677   0.824   3.107 -0.9239 -0.2592  0.0329
  308MOL0     C42431   3.766   0.843   3.188  0.2173 -0.1994 -0.2561
  308MOL0     C42432   3.954   0.479   2.603 -0.6449 -0.0169 -1.0752
  308MOL0     C42433   4.002   0.399   2.494 -0.8435  0.1863 -0.6174
  308MOL0     C42434   4.087   0.277   2.532  0.7022 -0.2770 -0.0096
  308MOL0     H42435   3.959   0.220   1.964 -0.2897  0.1805 -1.2807
  308MOL0     H42436   4.071   0.175   1.764  0.4458  0.3330 -1.4050
  308MOL0     H42437   4.195   0.309   1.491  0.7541  1.1547  0.5710
  308MOL0     H42438   4.224   0.163   1.593  1.0438 -0.1578  0.1150
  308MOL0     H42439   4.407   0.304   1.433 -0.1467 -1.8915 -1.4478
  308MOL0     H42440   4.460   0.236   1.585 -1.4303 -1.0683  0.7478
  308MOL0     H42441   4.395   0.001   1.534  0.3408  0.3118 -0.5511
  308MOL0     H42442   4.301   0.060   1.403 -0.6378  0.5944  1.3655
  308MOL0     H42443   4.519   0.110   1.282 -0.0779  0.0249  0.5164
  308MOL0     H42444   4.609   0.065   1.415 -0.5292  3.4618 -2.0554
  308MOL0     H42445   4.416  -0.110   1.234  0.0343 -1.7641  0.4996
  308MOL0     H42446   4.498  -0.178   1.374 -1.8356 -0.0043  0.4530
  308MOL0     H42447   4.711  -0.141   1.272 -1.5939  1.9552  1.4177
  308MOL0     H42448   4.609  -0.258   1.204  0.2071  0.1455  1.0701
  308MOL0     H42449   4.711  -0.117   1.026  0.3848 -0.1855  0.6805
  308MOL0     H42450   4.625   0.029   1.098 -0.0777 -0.1575 -1.1436
  308MOL0     H42451   4.417  -0.053   1.020 -1.3568 -2.3020  1.4601
  308MOL0     H42452   4.516  -0.073   0.892 -1.1104  2.6863  1.2633
  308MOL0     H42453   4.283  -0.300   1.043 -1.0198 -1.1725  0.8081
  308MOL0     H42454   4.269  -0.596   1.061  0.6612 -4.1595 -1.2027
  308MOL0     H42455   4.332  -0.663   0.922  0.7245  0.8602  1.0615
  308MOL0     H42456   4.203  -0.461   0.798  1.6997  1.0521  0.6950
  308MOL0     H42457   4.157  -0.626   0.805  1.3941  0.0085  1.0529
  308MOL0     H42458   4.024  -0.579   0.998 -0.1695  1.0748  1.4011
  308MOL0     H42459   4.075  -0.410   1.013  2.1305 -1.9497  1.7024
  308MOL0     H42460   3.981  -0.343   0.801 -1.6461  1.1926  1.1380
  308MOL0     H42461   3.941  -0.508   0.760  0.0740  1.1003 -1.4449
  308MOL0     H42462   3.597  -0.370   1.011 -3.3616 -0.0186  0.4095
  308MOL0     H42463   3.290  -0.353   0.870  1.9190  1.2647 -4.9025
  308MOL0     H42464   3.329  -0.195   0.932  3.1925  1.8437 -1.9406
  308MOL0     H42465   3.395  -0.340   1.015  2.5422 -0.2536 -0.0818
  308MOL0     H42466   3.110  -0.377   0.554 -2.6801 -2.4415 -1.6960
  308MOL0     H42467   2.919  -0.375   0.400  0.2823 -1.4678 -0.5727
  308MOL0     H42468   2.933  -0.213  -0.008 -0.6648 -0.0452 -2.7938
  308MOL0     H42469   3.035  -0.354  -0.020  0.5274  5.2337 -1.4169
  308MOL0     H42470   2.724  -0.421  -0.024 -0.7733  1.0177 -2.9940
  308MOL0     H42471   2.770  -0.324  -0.148 -1.5983 -1.2395 -0.3564
  308MOL0     H42472   2.795  -0.596  -0.102  1.0339 -1.7474 -1.3827
  308MOL0     H42473   2.963  -0.551  -0.089  1.3411 -1.3169 -2.3718
  308MOL0     H42474   2.906  -0.411  -0.311 -1.5138  0.8220  0.0383
  308MOL0     H42475   2.760  -0.512  -0.321 -0.2743 -1.2480 -1.1575
  308MOL0     H42476   3.051  -0.626  -0.329 -0.5489 -0.4629  1.1009
  308MOL0     H42477   2.896  -0.716  -0.344 -0.3472 -0.8944 -0.2712
  308MOL0     H42478   3.014  -0.493  -0.542 -0.0648 -0.2507 -2.0156
  308MOL0     H42479   2.848  -0.565  -0.541  0.0022 -1.7158 -1.5494
  308MOL0     H42480   2.942  -0.790  -0.610  0.4468 -1.0502  1.1316
  308MOL0     H42481   3.099  -0.741  -0.554 -2.0352 -1.7366  1.2708
  308MOL0     H42482   3.094  -0.565  -0.737 -0.0924 -0.3021 -0.1542
  308MOL0     H42483   2.937  -0.639  -0.791 -0.9672 -1.3332  1.2415
  308MOL0     H42484   3.185  -0.194   0.108  0.8007  0.1435 -0.4006
  308MOL0     H42485   3.357  -0.191   0.258  0.9098  0.9069  1.9745
  308MOL0     H42486   3.630  -0.282   0.523 -1.5901  1.0712 -0.6023
  308MOL0     H42487   3.823  -0.385   0.643  1.3098  0.5827  2.1512
  308MOL0     H42488   4.284   0.549   1.803 -0.1648  1.1726 -0.8541
  308MOL0     H42489   4.146   0.606   1.992  0.6065  0.4781 -0.7901
  308MOL0     H42490   3.900   0.600   2.255  4.9103 -1.9952 -1.7215
  308MOL0     H42491   3.805   0.723   2.428  2.3102  1.5004  1.6997
  308MOL0     H42492   3.868   0.877   2.616 -1.9678  0.2067 -0.2872
  308MOL0     H42493   3.709   0.787   2.596 -0.6439 -1.1825  0.0248
  308MOL0     H42494   3.680   0.957   2.762 -1.7945 -2.2646 -0.1760
  308MOL0     H42495   3.818   0.913   2.861  0.1232 -0.4587 -0.0019
  308MOL0     H42496   3.558   0.764   2.795 -0.4475 -3.7853  1.1108
  308MOL0     H42497   3.687   0.673   2.872 -1.5007 -2.2541  0.9549
  308MOL0     H42498   3.505   0.741   3.036  2.2248 -0.5676  3.6350
  308MOL0     H42499   3.533   0.908   2.979  2.5594  0.6333 -2.5710
  308MOL0     H42500   3.844   0.822   3.259  1.5389  0.8916 -1.3374
  308MOL0     H42501   3.977   0.459   2.707 -1.7534  0.7068 -0.6643
  308MOL0     H42502   4.090   0.274   2.641  0.3197 -0.3978 -0.0017
  308MOL0     H42503   4.028   0.192   2.496  2.5409 -1.9240  0.6829
  308MOL0     H42504   4.186   0.276   2.486 -1.0317 -2.7912 -4.2801
  309MOL0     O42505   2.616   6.659   8.996  0.3432 -0.7877  0.7238
  309MOL0     C42506   2.682   6.761   8.968 -0.2282  0.0061  0.7771
  309MOL0     O42507   2.775   6.772   8.876 -0.6672  0.0386  0.6298
  309MOL0     C42508   2.807   6.670   8.788 -0.3823 -0.0102  0.7811
  309MOL0     C42509   2.849   6.541   8.816  1.3283 -0.3864 -0.1526
  309MOL0     C42510   2.890   6.455   8.715 -0.1706  1.0485 -0.2480
  309MOL0     C42511   2.898   6.486   8.584  0.3664 -0.5255  0.0583
  309MOL0     O42512   2.957   6.406   8.480 -0.3563 -0.1964 -0.1882
  309MOL0     C42513   2.945   6.256   8.508  0.3246 -0.4665 -0.4192
  309MOL0     C42514   3.086   6.214   8.555  0.1448 -0.0994  0.3616
  309MOL0     C42515   3.195   6.206   8.444 -0.2842  0.0440 -0.2954
  309MOL0     C42516   3.252   6.337   8.397 -0.5040 -0.6576  0.8629
  309MOL0     C42517   3.371   6.304   8.309 -0.1535  0.4159 -0.9072
  309MOL0     C42518   3.331   6.255   8.172  0.2323  1.0492 -0.1888
  309MOL0     C42519   3.448   6.193   8.095 -0.0368  0.5523  0.5106
  309MOL0     C42520   3.535   6.288   8.007  0.7070 -0.0549 -0.1885
  309MOL0     N42521   3.472   6.340   7.884  0.1981  1.2766 -0.5830
  309MOL0     C42522   3.405   6.252   7.801  0.6676  0.5495  0.8372
  309MOL0     C42523   3.353   6.347   7.715  0.1725  0.6973 -0.0340
  309MOL0     C42524   3.270   6.311   7.593  0.1477  0.4749 -0.1683
  309MOL0     C42525   3.127   6.288   7.643 -0.2212  0.2099  0.3175
  309MOL0     C42526   3.055   6.179   7.563  1.2014  0.0229  0.5774
  309MOL0     C42527   2.904   6.169   7.602  0.4443  0.2789 -0.9205
  309MOL0     O42528   2.836   6.077   7.510 -0.4441 -0.0149 -0.6097
  309MOL0     C42529   2.699   6.086   7.509 -0.1401 -1.2294  1.0379
  309MOL0     C42530   2.622   6.175   7.582  0.0625 -1.4381  0.2693
  309MOL0     C42531   2.491   6.211   7.543  0.2799  0.1567  0.2736
  309MOL0     C42532   2.432   6.314   7.633 -0.2193  0.2991 -0.7297
  309MOL0     C42533   2.421   6.137   7.439  0.2231 -0.6496 -0.6749
  309MOL0     C42534   2.279   6.164   7.398 -0.0341  0.7014 -0.0853
  309MOL0     O42535   2.215   6.074   7.331  0.3392 -0.0411 -0.3949
  309MOL0     C42536   2.183   6.126   7.207 -1.1079  0.2075 -0.5342
  309MOL0     C42537   2.046   6.154   7.176 -0.0887  0.0089 -1.0985
  309MOL0     C42538   2.011   6.241   7.072  0.0819  0.5207 -0.0867
  309MOL0     C42539   2.106   6.275   6.978 -0.4368 -0.3231  0.7211
  309MOL0     O42540   2.060   6.356   6.881 -0.1791 -0.4757  0.9913
  309MOL0     C42541   2.160   6.447   6.820  0.2510 -0.1751 -0.1474
  309MOL0     C42542   2.102   6.564   6.740  0.0518 -0.1923  0.3845
  309MOL0     C42543   2.010   6.516   6.617 -0.5609  0.1658 -0.0577
  309MOL0     C42544   1.995   6.627   6.511  0.3584 -0.3153  0.1553
  309MOL0     C42545   1.913   6.748   6.552 -0.9787  0.2921  0.4260
  309MOL0     C42546   1.763   6.709   6.571  0.6255 -0.6495  0.1547
  309MOL0     C42547   1.660   6.816   6.585  0.2731  0.1375  0.1839
  309MOL0     C42548   1.517   6.757   6.586  0.1126 -0.0676  0.3144
  309MOL0    Cl42549   1.400   6.887   6.598  0.5975 -0.0988  0.3268
  309MOL0     C42550   2.237   6.234   7.000 -0.6158 -0.1107  1.0137
  309MOL0     C42551   2.274   6.150   7.108 -0.5327 -0.6231  0.2929
  309MOL0     O42552   2.232   6.274   7.421  0.9948 -0.2540  0.1932
  309MOL0     C42553   2.490   6.027   7.378 -0.6153  0.1751 -0.5857
  309MOL0     C42554   2.630   6.009   7.409 -0.0109  0.4492  0.5489
  309MOL0     N42555   3.367   6.471   7.762 -1.4756 -0.2782  0.3581
  309MOL0     N42556   3.437   6.469   7.862 -0.3082  0.6963  0.4017
  309MOL0     C42557   2.854   6.610   8.555  0.0403 -0.1888 -0.2540
  309MOL0     C42558   2.815   6.699   8.650 -0.6464 -0.5307 -0.1933
  309MOL0     C42559   2.658   6.888   9.053  0.2430  0.6650  0.1884
  309MOL0     C42560   2.748   7.000   9.027 -0.1164  0.2117  0.3781
  309MOL0     C42561   2.731   7.121   9.103 -0.2511  0.2624  0.7822
  309MOL0     C42562   2.623   7.131   9.199 -0.6525 -0.0855 -0.7401
  309MOL0     O42563   2.587   7.244   9.267 -0.2080 -0.4798 -0.6679
  309MOL0     C42564   2.656   7.369   9.250  0.3724 -0.1605  0.2311
  309MOL0     C42565   2.613   7.437   9.123 -0.6086 -0.0102 -1.1214
  309MOL0     C42566   2.664   7.582   9.114 -0.1414  0.4310 -0.2852
  309MOL0     C42567   2.631   7.661   8.987 -0.7008 -0.2343  0.1891
  309MOL0     C42568   2.677   7.801   8.982 -0.0140  0.3216 -0.6203
  309MOL0     C42569   2.708   7.918   9.003 -0.3181  0.7643  1.3574
  309MOL0     C42570   2.547   7.021   9.236 -1.0428 -0.2535  0.8089
  309MOL0     C42571   2.568   6.901   9.163 -0.6123 -0.8334 -0.8758
  309MOL0     C42572   2.472   6.790   9.208  0.3785  0.5954 -0.8203
  309MOL0     H42573   2.859   6.508   8.918  4.0222  2.4828  0.6851
  309MOL0     H42574   2.929   6.361   8.752  0.0644  1.1484 -0.2447
  309MOL0     H42575   2.906   6.210   8.417  2.7186  1.4846 -2.5902
  309MOL0     H42576   2.871   6.234   8.586  0.1662  1.2231 -0.0489
  309MOL0     H42577   3.129   6.274   8.635 -1.7949  0.0686  1.3422
  309MOL0     H42578   3.074   6.111   8.588 -2.7361 -0.7606 -2.1986
  309MOL0     H42579   3.278   6.138   8.464  2.3930  3.4642  1.3272
  309MOL0     H42580   3.144   6.160   8.359 -1.5486 -0.5975  0.7618
  309MOL0     H42581   3.172   6.390   8.345 -3.5536 -1.3793  4.3775
  309MOL0     H42582   3.279   6.389   8.489  0.7164 -0.3718  0.3743
  309MOL0     H42583   3.427   6.223   8.356  0.7166  1.1989 -0.5548
  309MOL0     H42584   3.426   6.396   8.287 -1.2768  1.0790 -0.9965
  309MOL0     H42585   3.266   6.168   8.190  1.2105  0.4364  0.4797
  309MOL0     H42586   3.273   6.329   8.116 -0.8100 -1.2056 -2.2978
  309MOL0     H42587   3.402   6.123   8.024 -4.2858  1.7784  1.7737
  309MOL0     H42588   3.516   6.144   8.165  2.3134  1.0395 -1.3015
  309MOL0     H42589   3.580   6.372   8.060  1.8343 -1.0359  0.4618
  309MOL0     H42590   3.611   6.217   7.973 -0.4606 -1.9236  0.8611
  309MOL0     H42591   3.396   6.144   7.798  0.6481  0.5515  0.8190
  309MOL0     H42592   3.315   6.223   7.545  1.1482 -0.0459  1.5980
  309MOL0     H42593   3.272   6.390   7.518  0.7950 -0.7272 -1.4532
  309MOL0     H42594   3.131   6.249   7.745  1.1604 -3.4670 -0.9906
  309MOL0     H42595   3.085   6.389   7.652 -1.7653 -0.1173 -2.1302
  309MOL0     H42596   3.063   6.213   7.459  0.2346 -2.5191 -0.4086
  309MOL0     H42597   3.101   6.082   7.583  4.4162  1.7675  2.4267
  309MOL0     H42598   2.895   6.133   7.705 -1.4355 -2.2269 -1.8829
  309MOL0     H42599   2.852   6.266   7.598 -2.5296 -0.9369  2.5758
  309MOL0     H42600   2.668   6.231   7.663  3.0170  0.6724 -2.6214
  309MOL0     H42601   2.441   6.411   7.584 -4.2318  0.1397 -2.2298
  309MOL0     H42602   2.484   6.325   7.728 -0.7215  0.2689 -0.4438
  309MOL0     H42603   2.336   6.275   7.667  1.4727 -0.9577  3.0981
  309MOL0     H42604   1.967   6.139   7.249  1.4745 -2.9132  0.1640
  309MOL0     H42605   1.906   6.268   7.077  0.5126  2.1887  0.6246
  309MOL0     H42606   2.228   6.489   6.896  0.6841 -1.1570  0.0282
  309MOL0     H42607   2.219   6.389   6.749 -1.2378 -0.9787 -0.7591
  309MOL0     H42608   2.053   6.632   6.811  3.0105  2.4599  0.0877
  309MOL0     H42609   2.183   6.626   6.701  0.8748 -1.3412  0.2131
  309MOL0     H42610   1.921   6.469   6.659  0.6011  0.2297  2.7554
  309MOL0     H42611   2.071   6.436   6.574 -1.7193  0.2013 -1.8205
  309MOL0     H42612   1.955   6.573   6.425 -1.9754  0.8236  0.4276
  309MOL0     H42613   2.098   6.660   6.493  0.3799 -1.2922 -1.7862
  309MOL0     H42614   1.959   6.782   6.645 -1.2652  4.2018 -0.6840
  309MOL0     H42615   1.927   6.824   6.474  0.0635  0.0737  0.3935
  309MOL0     H42616   1.745   6.642   6.655 -1.2024 -1.8902 -1.1533
  309MOL0     H42617   1.741   6.675   6.470  3.5015  1.0533 -1.1446
  309MOL0     H42618   1.683   6.888   6.506 -1.3167 -0.4255 -0.8373
  309MOL0     H42619   1.682   6.878   6.672 -1.4648  0.6530  0.2953
  309MOL0     H42620   1.497   6.684   6.665  0.3010  0.3110  0.7214
  309MOL0     H42621   1.498   6.704   6.493 -3.2835 -0.5394  1.1335
  309MOL0     H42622   2.317   6.256   6.930 -0.4565  0.3524  1.3380
  309MOL0     H42623   2.377   6.113   7.103 -1.2102 -2.5605 -0.5323
  309MOL0     H42624   2.433   5.956   7.317 -1.5802  0.1358  0.3286
  309MOL0     H42625   2.679   5.943   7.339 -2.6652  2.6494 -3.8664
  309MOL0     H42626   2.868   6.657   8.458  0.0904 -0.1619 -0.2342
  309MOL0     H42627   2.788   6.800   8.623 -0.2671 -0.0768  1.0817
  309MOL0     H42628   2.817   7.001   8.944  0.7204 -0.3245  1.0491
  309MOL0     H42629   2.773   7.211   9.059 -1.2280 -0.5002 -1.9497
  309MOL0     H42630   2.620   7.429   9.335 -0.8496 -1.5341  0.7192
  309MOL0     H42631   2.764   7.362   9.263  0.8406  0.3569 -2.7171
  309MOL0     H42632   2.504   7.443   9.121 -0.7016 -0.5151  0.8908
  309MOL0     H42633   2.662   7.388   9.037 -0.7711 -0.1712 -1.1242
  309MOL0     H42634   2.622   7.643   9.194  1.5040  3.5223 -1.6204
  309MOL0     H42635   2.773   7.585   9.121 -0.1768  1.5501 -0.0877
  309MOL0     H42636   2.522   7.656   8.975 -0.5456 -0.8680 -1.1985
  309MOL0     H42637   2.670   7.611   8.898  1.4747  1.5763  0.0446
  309MOL0     H42638   2.732   8.021   9.020 -3.7977  1.6227  1.7968
  309MOL0     H42639   2.464   7.033   9.304  0.4307  0.3128  2.6012
  309MOL0     H42640   2.536   6.703   9.223  1.2235  1.6233  2.3332
  309MOL0     H42641   2.429   6.802   9.308  0.8075 -3.7077  0.0883
  309MOL0     H42642   2.397   6.772   9.131 -1.6007  1.7306  0.7263
  310MOL0     O42643   3.131   8.024   7.363 -0.2703 -0.5946 -1.2067
  310MOL0     C42644   3.080   7.950   7.441 -0.0338  0.1932 -0.0095
  310MOL0     O42645   3.042   7.977   7.566 -0.2292  0.2260  0.2469
  310MOL0     C42646   3.089   8.085   7.636  0.0242  0.6012 -0.9340
  310MOL0     C42647   3.232   8.130   7.647 -0.4639  0.0709 -0.0158
  310MOL0     C42648   3.274   8.234   7.738  1.2981  0.3349 -0.0664
  310MOL0     C42649   3.178   8.304   7.812 -0.5357 -0.9169  0.3113
  310MOL0     O42650   3.203   8.422   7.883  0.0175 -0.9949  0.1011
  310MOL0     C42651   3.324   8.488   7.863 -0.4991 -0.8328  0.4814
  310MOL0     C42652   3.342   8.625   7.947 -0.0731  0.1055  0.2779
  310MOL0     C42653   3.473   8.709   7.909  1.0995 -0.9910  1.0989
  310MOL0     C42654   3.444   8.779   7.773 -0.1406 -0.4293 -0.3053
  310MOL0     C42655   3.564   8.844   7.703 -0.8848  0.6795 -0.2251
  310MOL0     C42656   3.535   8.925   7.574 -0.9167 -0.1284 -0.0136
  310MOL0     C42657   3.672   8.973   7.507  0.2915 -0.1349 -0.0673
  310MOL0     C42658   3.716   8.872   7.389  0.0060  0.4434 -0.4161
  310MOL0     N42659   3.657   8.906   7.257 -0.3001  0.4514 -0.4180
  310MOL0     C42660   3.532   8.959   7.231 -0.0773  0.3163 -0.1518
  310MOL0     C42661   3.489   8.923   7.108  0.7886  0.1439 -0.1145
  310MOL0     C42662   3.355   8.945   7.047 -0.7017 -0.3085 -0.7451
  310MOL0     C42663   3.304   9.091   7.063  0.0604  0.1808 -0.2247
  310MOL0     C42664   3.160   9.085   7.010 -0.4948 -0.0709  0.8071
  310MOL0     C42665   3.127   9.225   6.955 -0.1327 -0.1010 -0.3719
  310MOL0     O42666   3.093   9.314   7.064 -0.4466 -0.1153 -0.1652
  310MOL0     C42667   2.974   9.378   7.048  0.1845  0.5273  0.3008
  310MOL0     C42668   2.868   9.336   7.126 -1.0012 -0.0034 -0.4125
  310MOL0     C42669   2.748   9.402   7.106  0.1685  0.7293 -0.4331
  310MOL0     C42670   2.633   9.342   7.190  0.2274 -0.4780  0.6089
  310MOL0     C42671   2.731   9.499   7.018 -1.4937 -0.5471 -0.0048
  310MOL0     C42672   2.614   9.592   7.017  0.9792  0.0326 -0.6328
  310MOL0     O42673   2.597   9.668   6.902  0.5116 -0.5042 -0.0090
  310MOL0     C42674   2.505   9.770   6.898 -0.4550  0.4527  0.2676
  310MOL0     C42675   2.430   9.788   6.779 -0.0063 -0.0799  0.1109
  310MOL0     C42676   2.334   9.894   6.774 -0.2496 -0.5509 -0.3875
  310MOL0     C42677   2.321   9.985   6.880 -0.2571  0.0457  0.6989
  310MOL0     O42678   2.235  10.095   6.868  0.9769 -0.5515  0.6110
  310MOL0     C42679   2.154  10.151   6.982  0.1574  0.5596  0.7109
  310MOL0     C42680   2.070  10.271   6.947  0.3569 -0.0247 -0.8438
  310MOL0     C42681   1.974  10.262   6.823  0.7300  0.2365  0.2438
  310MOL0     C42682   1.895  10.393   6.806 -0.1774 -0.0374 -0.2443
  310MOL0     C42683   1.805  10.381   6.683 -0.1684 -0.0218  0.0286
  310MOL0     C42684   1.702  10.492   6.662  0.0901  0.1871 -0.5334
  310MOL0     C42685   1.769  10.633   6.659  0.7836  0.2856 -0.3334
  310MOL0     C42686   1.648  10.739   6.641 -0.5074  0.4258 -0.0058
  310MOL0    Cl42687   1.707  10.906   6.651 -0.6087  0.6778 -0.2937
  310MOL0     C42688   2.394   9.966   6.996 -0.0647  0.5820  0.6746
  310MOL0     C42689   2.488   9.863   7.006 -0.2899  0.0488 -0.1842
  310MOL0     O42690   2.529   9.590   7.107 -0.2622  0.9068  0.3592
  310MOL0     C42691   2.838   9.530   6.934 -0.6816  0.9923  0.8483
  310MOL0     C42692   2.961   9.475   6.953  0.6356  0.5689  0.1733
  310MOL0     N42693   3.603   8.859   7.051 -0.5677  0.6813 -1.1424
  310MOL0     N42694   3.699   8.847   7.132 -0.3260 -1.2437  0.1947
  310MOL0     C42695   3.042   8.266   7.804 -1.2844  0.3285  1.0401
  310MOL0     C42696   2.999   8.163   7.717  0.2433 -0.7649  0.0511
  310MOL0     C42697   3.061   7.811   7.396 -0.5630 -0.5916  0.1084
  310MOL0     C42698   3.129   7.768   7.281  0.0757  0.6821  1.3667
  310MOL0     C42699   3.109   7.645   7.217  0.4958  0.2030  0.5721
  310MOL0     C42700   3.021   7.549   7.271 -0.5763  0.7928 -0.3203
  310MOL0     O42701   2.993   7.427   7.212  0.8429 -0.1176  0.5269
  310MOL0     C42702   2.864   7.369   7.240  0.2346 -0.5636  0.4610
  310MOL0     C42703   2.831   7.241   7.155  0.0844  0.2296  0.7048
  310MOL0     C42704   2.951   7.134   7.139  0.5045 -0.1298 -0.7806
  310MOL0     C42705   2.991   7.090   7.274 -0.0798  0.3775  0.0922
  310MOL0     C42706   3.103   6.997   7.255  0.1143  1.1385 -1.0150
  310MOL0     C42707   3.183   6.907   7.239  0.2753 -0.3371 -0.1160
  310MOL0     C42708   2.948   7.595   7.382 -0.5601 -0.7462 -1.0095
  310MOL0     C42709   2.969   7.721   7.444 -0.0509 -0.1061 -0.0469
  310MOL0     C42710   2.876   7.749   7.568 -0.2223  0.3897 -0.3228
  310MOL0     H42711   3.304   8.086   7.578  1.4499  0.6358  1.5305
  310MOL0     H42712   3.380   8.261   7.736  0.9259  1.8555 -0.7574
  310MOL0     H42713   3.330   8.518   7.758  1.6046  1.7740  1.2254
  310MOL0     H42714   3.405   8.416   7.877 -2.4292 -2.7163  2.9601
  310MOL0     H42715   3.256   8.690   7.929 -1.1478 -1.6832 -1.4347
  310MOL0     H42716   3.347   8.609   8.056  1.5037  3.1605  0.7720
  310MOL0     H42717   3.493   8.790   7.979  1.6157  0.1969 -0.3696
  310MOL0     H42718   3.550   8.633   7.896 -2.1180 -4.1328 -1.7757
  310MOL0     H42719   3.398   8.701   7.713  1.9606 -1.0577 -1.1870
  310MOL0     H42720   3.360   8.850   7.777  1.3427  1.6067 -2.4038
  310MOL0     H42721   3.635   8.768   7.669  0.6014  0.8761  2.1910
  310MOL0     H42722   3.611   8.914   7.774 -0.2761  1.0709 -0.9979
  310MOL0     H42723   3.479   8.861   7.506  1.0070 -0.6341 -1.2206
  310MOL0     H42724   3.479   9.015   7.602 -0.5861  0.4636 -1.1928
  310MOL0     H42725   3.746   8.976   7.588 -0.0983  0.9091  0.2607
  310MOL0     H42726   3.667   9.072   7.461  0.9209 -0.4274 -0.7956
  310MOL0     H42727   3.825   8.860   7.380 -0.2387 -0.7552 -2.1811
  310MOL0     H42728   3.678   8.771   7.409  1.9970 -0.1187  0.8430
  310MOL0     H42729   3.463   8.999   7.304 -1.0561 -0.6454 -0.5152
  310MOL0     H42730   3.284   8.896   7.114 -2.4089  1.0428 -1.5017
  310MOL0     H42731   3.343   8.909   6.945  0.4362  2.7396 -2.0664
  310MOL0     H42732   3.326   9.145   7.155  0.1704 -0.2787  0.0166
  310MOL0     H42733   3.362   9.159   6.999  1.8597  2.1377  3.1815
  310MOL0     H42734   3.166   9.032   6.915  0.1422  2.0668 -0.4164
  310MOL0     H42735   3.090   9.031   7.075  0.7730 -0.4471  1.9137
  310MOL0     H42736   3.212   9.246   6.890  2.6263 -1.7259  2.4040
  310MOL0     H42737   3.046   9.215   6.883  0.1339  2.4850 -1.1350
  310MOL0     H42738   2.893   9.252   7.191 -1.0658 -0.1993 -0.6379
  310MOL0     H42739   2.653   9.236   7.210 -0.5794 -0.0213  4.4114
  310MOL0     H42740   2.542   9.353   7.130 -0.9719 -0.0752  2.4495
  310MOL0     H42741   2.616   9.400   7.280  1.8501  0.1136  0.5576
  310MOL0     H42742   2.442   9.714   6.700 -0.6032 -1.3840  1.2064
  310MOL0     H42743   2.270   9.912   6.688 -1.2065 -0.0373  0.4212
  310MOL0     H42744   2.098  10.059   7.003  0.6805 -1.4612 -5.1408
  310MOL0     H42745   2.217  10.178   7.067 -0.1019  1.6616  0.5723
  310MOL0     H42746   1.998  10.289   7.028 -0.3007 -0.6461 -1.2709
  310MOL0     H42747   2.132  10.359   6.928 -0.7576  0.5951 -1.7221
  310MOL0     H42748   1.905  10.177   6.824 -0.1567  0.9382 -0.0448
  310MOL0     H42749   2.033  10.250   6.732 -1.9641  0.5160 -1.6736
  310MOL0     H42750   1.957  10.483   6.798 -1.3767  0.6924 -2.5679
  310MOL0     H42751   1.830  10.404   6.893  0.2117  2.5500 -0.1940
  310MOL0     H42752   1.870  10.389   6.595  2.2571 -0.2702  1.7020
  310MOL0     H42753   1.759  10.282   6.676 -0.8209  0.1779  1.3367
  310MOL0     H42754   1.645  10.502   6.755  0.3005  1.3767 -0.5156
  310MOL0     H42755   1.640  10.480   6.573 -2.0452 -0.4226  0.9468
  310MOL0     H42756   1.840  10.635   6.576 -0.3440 -0.0672 -1.3453
  310MOL0     H42757   1.829  10.654   6.748 -0.7952  0.3615  0.7521
  310MOL0     H42758   1.566  10.729   6.713  0.4169  1.3683  1.2140
  310MOL0     H42759   1.607  10.719   6.541  2.0649 -1.0810 -0.8429
  310MOL0     H42760   2.380  10.037   7.077 -1.7793 -1.0787  1.9139
  310MOL0     H42761   2.538   9.847   7.101  1.4699  0.4028 -1.0102
  310MOL0     H42762   2.826   9.611   6.863  0.6888 -0.4018 -1.0625
  310MOL0     H42763   3.041   9.503   6.885 -1.6341 -1.3709 -3.6706
  310MOL0     H42764   2.964   8.313   7.863 -3.5564 -4.2337  2.0926
  310MOL0     H42765   2.893   8.141   7.708 -0.6290  2.5929  0.5767
  310MOL0     H42766   3.207   7.823   7.230  0.1208 -0.4217  0.1783
  310MOL0     H42767   3.162   7.626   7.124 -1.6287  0.0487 -0.6759
  310MOL0     H42768   2.863   7.326   7.341  1.5555 -0.9824  0.3226
  310MOL0     H42769   2.785   7.441   7.218 -1.0934 -1.6063  1.6278
  310MOL0     H42770   2.809   7.278   7.054  0.2756 -0.4928  0.3941
  310MOL0     H42771   2.741   7.192   7.190 -1.1884  0.9483 -1.3509
  310MOL0     H42772   2.919   7.053   7.072 -1.2930 -2.2704  2.4044
  310MOL0     H42773   3.033   7.191   7.095 -0.8793  2.5670 -0.0809
  310MOL0     H42774   2.906   7.044   7.326  1.5480 -0.8951  1.7854
  310MOL0     H42775   3.016   7.171   7.343  1.3804  0.7235 -0.7936
  310MOL0     H42776   3.249   6.824   7.230  0.6419  0.0255 -0.9246
  310MOL0     H42777   2.874   7.541   7.441 -0.2408  1.6918  1.8509
  310MOL0     H42778   2.794   7.810   7.529 -0.2642 -1.0869 -2.7090
  310MOL0     H42779   2.835   7.658   7.613  0.8622 -0.2818 -0.6304
  310MOL0     H42780   2.919   7.808   7.650 -2.2070 -0.8453  1.7389
  311MOL0     O42781  10.317   6.330   7.233  0.2215 -0.3316  0.1851
  311MOL0     C42782  10.297   6.219   7.281  0.9734 -0.4867 -0.5165
  311MOL0     O42783  10.334   6.181   7.407  0.7711 -0.0272  0.3730
  311MOL0     C42784  10.364   6.288   7.483 -0.0652 -0.2810 -0.5143
  311MOL0     C42785  10.270   6.382   7.542 -0.3031  0.4985  0.4398
  311MOL0     C42786  10.319   6.482   7.623 -0.4883 -0.9463  0.5802
  311MOL0     C42787  10.457   6.494   7.656 -0.0395  0.1304  0.2724
  311MOL0     O42788  10.511   6.584   7.745  0.6481  0.5281 -0.4997
  311MOL0     C42789  10.413   6.657   7.821 -0.2490 -0.2432 -0.1288
  311MOL0     C42790  10.498   6.748   7.913 -0.1856  0.7179 -0.3102
  311MOL0     C42791  10.416   6.858   7.982 -0.2367 -0.5661  0.1971
  311MOL0     C42792  10.501   6.991   8.028 -0.4383  0.7359 -0.4793
  311MOL0     C42793  10.589   7.063   7.922 -0.1406  0.2869  0.1616
  311MOL0     C42794  10.516   7.165   7.830  0.4486  1.0114 -0.4921
  311MOL0     C42795  10.616   7.258   7.760  0.4382  0.0408 -0.4993
  311MOL0     C42796  10.541   7.348   7.665  0.5875  0.0474 -0.0130
  311MOL0     N42797  10.623   7.453   7.600 -0.0606 -0.0382  0.5293
  311MOL0     C42798  10.682   7.428   7.481  0.0678  0.6570 -0.2365
  311MOL0     C42799  10.711   7.545   7.431 -0.5049  0.1273  0.0028
  311MOL0     C42800  10.801   7.569   7.317 -0.7587  1.2209 -0.0203
  311MOL0     C42801  10.950   7.582   7.381 -0.4819  0.7293 -0.4634
  311MOL0     C42802  11.039   7.662   7.290  1.1386 -0.5296  0.1002
  311MOL0     C42803  11.072   7.601   7.160 -0.2084 -0.4925  0.2440
  311MOL0     O42804  11.208   7.551   7.166  0.6599  0.1190  0.1687
  311MOL0     C42805  11.261   7.467   7.066  0.2128 -0.8500 -0.2140
  311MOL0     C42806  11.197   7.352   7.005  0.1612 -0.0984  0.0226
  311MOL0     C42807  11.255   7.285   6.901 -0.1057 -0.5447  1.1689
  311MOL0     C42808  11.183   7.162   6.862 -1.0312  0.5899 -0.8073
  311MOL0     C42809  11.383   7.320   6.857 -0.1091 -0.2238  0.0659
  311MOL0     C42810  11.461   7.246   6.762 -0.2940 -0.1356 -0.3371
  311MOL0     O42811  11.595   7.270   6.772  0.0191  0.0706 -0.6201
  311MOL0     C42812  11.685   7.224   6.674  0.3610  0.1198 -0.0458
  311MOL0     C42813  11.821   7.219   6.714 -0.4607  0.0629  1.3666
  311MOL0     C42814  11.918   7.163   6.628 -0.6009  0.4737  0.3931
  311MOL0     C42815  11.881   7.114   6.500 -1.5785 -0.3065  0.3834
  311MOL0     O42816  11.983   7.056   6.419  0.9695 -0.1269 -0.4449
  311MOL0     C42817  11.948   7.063   6.284 -1.0061 -0.3965  0.4952
  311MOL0     C42818  12.064   7.000   6.207  0.4023  0.5196  0.2679
  311MOL0     C42819  12.092   6.849   6.234  0.7489  0.0936  0.3270
  311MOL0     C42820  12.003   6.755   6.144  0.9563 -0.3448 -0.2170
  311MOL0     C42821  12.028   6.606   6.192  0.8859 -0.1185 -0.3149
  311MOL0     C42822  12.010   6.514   6.076 -0.4080  1.3357  0.5565
  311MOL0     C42823  11.990   6.371   6.098  0.3346  0.7742  0.5832
  311MOL0     C42824  12.095   6.323   6.197  0.7528 -0.8210  0.0761
  311MOL0    Cl42825  12.265   6.359   6.147  0.1399  0.4802  0.3910
  311MOL0     C42826  11.747   7.127   6.469 -0.5037 -0.5605  0.5399
  311MOL0     C42827  11.655   7.186   6.547  0.1361 -0.2706  0.3374
  311MOL0     O42828  11.402   7.178   6.680  0.6609  0.2606  0.2616
  311MOL0     C42829  11.440   7.428   6.915  0.2243 -0.6126 -0.4040
  311MOL0     C42830  11.388   7.500   7.023  0.4716 -0.2895  0.7981
  311MOL0     N42831  10.666   7.642   7.518 -0.1405  0.4580  0.3524
  311MOL0     N42832  10.613   7.587   7.622 -0.4268  1.0815 -0.2731
  311MOL0     C42833  10.542   6.401   7.599  0.6624 -0.7943  0.2638
  311MOL0     C42834  10.501   6.302   7.521  0.7759 -0.0693 -0.3659
  311MOL0     C42835  10.242   6.123   7.179 -0.1208  0.0021 -0.3904
  311MOL0     C42836  10.321   6.011   7.159  0.7986  0.2772  0.3497
  311MOL0     C42837  10.284   5.919   7.061  0.2695 -0.0807 -1.1050
  311MOL0     C42838  10.157   5.927   7.003  1.0528 -0.5092  0.1956
  311MOL0     O42839  10.122   5.830   6.914 -0.1254 -0.4130  0.0217
  311MOL0     C42840   9.988   5.809   6.896  1.0541 -0.3208 -0.9535
  311MOL0     C42841   9.958   5.662   6.874  0.3350 -1.1648  0.9011
  311MOL0     C42842   9.976   5.573   6.997  0.6214  0.2396 -0.2418
  311MOL0     C42843   9.957   5.432   6.942  0.6273 -0.5977 -0.4083
  311MOL0     C42844   9.942   5.324   7.047  0.0443  0.0054 -0.3914
  311MOL0     C42845   9.926   5.231   7.125  0.4804 -0.0222  0.0705
  311MOL0     C42846  10.085   6.046   7.007  0.3085  0.9044 -1.1436
  311MOL0     C42847  10.130   6.147   7.089  0.0758  0.7141  0.7679
  311MOL0     C42848  10.058   6.281   7.097 -0.3040  0.9932 -0.6485
  311MOL0     H42849  10.167   6.366   7.511 -1.2219  4.7979  0.7241
  311MOL0     H42850  10.256   6.561   7.664  2.0225  1.1479  0.7009
  311MOL0     H42851  10.352   6.586   7.877  0.4263  1.5354  3.0915
  311MOL0     H42852  10.354   6.722   7.755  2.4212  1.7499 -0.7213
  311MOL0     H42853  10.549   6.679   7.980 -4.4972 -1.2210  1.3514
  311MOL0     H42854  10.567   6.804   7.850  0.3017  1.2197  0.6512
  311MOL0     H42855  10.336   6.884   7.913  1.3761 -1.2140 -2.0713
  311MOL0     H42856  10.362   6.819   8.068 -0.3214  0.2047  0.4957
  311MOL0     H42857  10.448   7.073   8.077 -1.1752  0.0879 -0.1874
  311MOL0     H42858  10.563   6.945   8.106 -4.2058 -2.4665  0.9442
  311MOL0     H42859  10.657   6.995   7.869 -1.0672  0.0425 -0.7644
  311MOL0     H42860  10.653   7.125   7.985  0.4683  1.9594 -1.9735
  311MOL0     H42861  10.453   7.119   7.753  0.8920  2.8672 -2.0129
  311MOL0     H42862  10.434   7.199   7.894 -0.6670  0.1755 -1.4184
  311MOL0     H42863  10.682   7.190   7.705  0.2174 -0.0601 -0.6414
  311MOL0     H42864  10.678   7.307   7.836 -0.6042 -1.8384  1.6845
  311MOL0     H42865  10.486   7.293   7.588  0.6828  2.1762 -1.7036
  311MOL0     H42866  10.470   7.404   7.727 -1.2448 -3.9307  1.8279
  311MOL0     H42867  10.708   7.334   7.435 -2.5876 -0.2615 -0.0272
  311MOL0     H42868  10.770   7.654   7.255 -2.4399 -2.1879 -4.4552
  311MOL0     H42869  10.803   7.482   7.250 -0.6782  0.8948  0.4019
  311MOL0     H42870  10.941   7.620   7.482 -4.4044  2.3477 -1.2453
  311MOL0     H42871  10.992   7.481   7.385  1.3400  1.0430 -4.9150
  311MOL0     H42872  10.983   7.755   7.276  1.0453 -0.4680  0.8275
  311MOL0     H42873  11.136   7.682   7.336  1.1335  1.8760 -0.8364
  311MOL0     H42874  11.000   7.527   7.122  2.3242 -1.7331 -2.5492
  311MOL0     H42875  11.064   7.681   7.086  0.3965 -1.2584 -0.6681
  311MOL0     H42876  11.093   7.332   7.031  0.5811 -0.4831  1.5263
  311MOL0     H42877  11.258   7.084   6.845 -0.6278  1.2423 -2.1872
  311MOL0     H42878  11.125   7.180   6.771  1.0061 -2.0810 -2.7935
  311MOL0     H42879  11.110   7.119   6.931 -0.5599  0.7880 -0.1759
  311MOL0     H42880  11.851   7.258   6.810 -1.1490 -0.4376  1.7944
  311MOL0     H42881  12.020   7.143   6.660 -0.2764  1.7804  0.2196
  311MOL0     H42882  11.856   7.015   6.251 -0.9235 -0.5157  0.4374
  311MOL0     H42883  11.931   7.165   6.248 -2.4930 -1.7152 -2.8898
  311MOL0     H42884  12.041   7.006   6.100  2.5407 -0.3581 -0.2956
  311MOL0     H42885  12.158   7.056   6.216  0.3176  0.9857 -1.4187
  311MOL0     H42886  12.062   6.821   6.336 -3.4352 -3.3191 -1.4963
  311MOL0     H42887  12.197   6.829   6.215  0.3897 -1.4076 -0.2318
  311MOL0     H42888  12.029   6.779   6.040  0.3270  3.4137  0.3386
  311MOL0     H42889  11.897   6.777   6.159  0.8282  0.2013 -1.6912
  311MOL0     H42890  12.128   6.602   6.236  1.3772  0.8076 -1.3199
  311MOL0     H42891  11.955   6.583   6.270  0.1185 -2.2371 -1.5539
  311MOL0     H42892  12.105   6.523   6.023 -0.7524 -0.3297 -0.3876
  311MOL0     H42893  11.923   6.549   6.020 -1.2224  0.4972  1.2610
  311MOL0     H42894  12.008   6.306   6.012  1.5237  1.0149  0.6388
  311MOL0     H42895  11.887   6.349   6.129  0.5402  1.1840  1.5981
  311MOL0     H42896  12.093   6.216   6.220  1.0778 -1.1091 -1.1472
  311MOL0     H42897  12.081   6.373   6.293  0.3426  1.7108 -1.2197
  311MOL0     H42898  11.713   7.108   6.368  2.8432  1.1106 -1.0890
  311MOL0     H42899  11.553   7.200   6.515 -1.4707  0.2005  4.9418
  311MOL0     H42900  11.535   7.463   6.876 -1.2243  1.8421 -2.0663
  311MOL0     H42901  11.441   7.583   7.070 -0.7172  0.0913  1.5165
  311MOL0     H42902  10.646   6.406   7.630  1.1818 -1.3423 -1.3476
  311MOL0     H42903  10.578   6.235   7.484  1.8662  2.3606 -2.8232
  311MOL0     H42904  10.416   6.008   7.211  1.7009  2.1647 -1.0497
  311MOL0     H42905  10.345   5.831   7.044  3.5717  1.4142  1.7292
  311MOL0     H42906   9.937   5.846   6.984  3.4961 -0.1607  0.4867
  311MOL0     H42907   9.953   5.866   6.809 -1.4016 -0.7921 -0.3355
  311MOL0     H42908  10.023   5.636   6.790  0.8199  0.6939  0.6539
  311MOL0     H42909   9.856   5.663   6.834  1.0445  2.3018 -1.2913
  311MOL0     H42910  10.075   5.592   7.040  2.1623 -3.7013 -1.5372
  311MOL0     H42911   9.893   5.597   7.064 -0.3946  2.0355 -2.0509
  311MOL0     H42912  10.048   5.423   6.882  0.3483  1.5040 -1.2182
  311MOL0     H42913   9.870   5.421   6.877 -0.2067 -3.4066  1.0127
  311MOL0     H42914   9.910   5.136   7.171  0.3448  0.9404  2.1210
  311MOL0     H42915   9.998   6.046   6.941 -0.2550 -3.6216 -0.7566
  311MOL0     H42916  10.065   6.301   7.204  1.3589 -0.0632 -0.5238
  311MOL0     H42917  10.109   6.365   7.049 -0.3690  1.6144  0.3435
  311MOL0     H42918   9.958   6.281   7.052  0.7923 -0.0577 -3.3075
  312MOL0     O42919  10.186   9.115   5.818  0.2209  0.1234 -0.1236
  312MOL0     C42920  10.142   9.084   5.932 -0.0410  0.4888 -0.0012
  312MOL0     O42921  10.213   9.025   6.037  0.0750  0.7174 -0.3729
  312MOL0     C42922  10.341   8.987   6.010  0.2266 -0.5120 -0.4124
  312MOL0     C42923  10.437   9.061   6.082 -1.1671  0.1241  0.4446
  312MOL0     C42924  10.574   9.039   6.046 -1.0291 -0.1991 -0.6433
  312MOL0     C42925  10.610   8.949   5.942 -0.2142  0.9125  0.4648
  312MOL0     O42926  10.744   8.915   5.918 -0.1973  0.3423 -0.1047
  312MOL0     C42927  10.769   8.773   5.925  0.8268 -0.6544 -0.8242
  312MOL0     C42928  10.915   8.735   5.891  0.1732 -0.5245 -0.4056
  312MOL0     C42929  10.915   8.594   5.851  0.0672  0.2245 -0.0195
  312MOL0     C42930  10.983   8.567   5.717 -0.7697  0.1345 -0.1115
  312MOL0     C42931  10.959   8.418   5.674 -0.2954  1.1124 -0.0459
  312MOL0     C42932  11.004   8.381   5.536  0.4037 -0.9060  0.1754
  312MOL0     C42933  11.049   8.239   5.523  0.9557  0.2317 -0.0848
  312MOL0     C42934  11.074   8.195   5.381  1.0695  0.1472  0.8703
  312MOL0     N42935  11.077   8.053   5.378 -0.0942  0.7682  0.4390
  312MOL0     C42936  10.981   7.958   5.370  0.3225  0.3747 -0.2249
  312MOL0     C42937  11.061   7.842   5.378  0.0881  0.1445  0.4033
  312MOL0     C42938  10.997   7.705   5.384 -0.2316 -0.1439  0.9105
  312MOL0     C42939  10.996   7.660   5.528 -0.0157  0.3110 -0.5269
  312MOL0     C42940  10.914   7.748   5.624  0.1563 -0.3616 -0.4886
  312MOL0     C42941  10.992   7.861   5.689  0.2133  0.3999  0.3947
  312MOL0     O42942  10.917   7.917   5.794  0.1820  0.6581  0.5141
  312MOL0     C42943  10.951   8.034   5.857  0.5584  0.7024  0.3022
  312MOL0     C42944  10.862   8.088   5.952 -0.3241 -0.5230  0.7001
  312MOL0     C42945  10.887   8.203   6.028  0.5860 -0.5963  0.4449
  312MOL0     C42946  10.775   8.257   6.114  0.6290  0.0070 -1.3373
  312MOL0     C42947  11.017   8.245   6.019 -0.4293 -0.7002  0.4835
  312MOL0     C42948  11.084   8.344   6.111 -0.5163 -1.1152  0.9339
  312MOL0     O42949  11.002   8.444   6.178  0.1896  0.0664  0.5621
  312MOL0     C42950  11.060   8.512   6.281  0.1872  0.8256  0.1592
  312MOL0     C42951  11.097   8.456   6.406  1.2006  0.9182 -0.1498
  312MOL0     C42952  11.153   8.537   6.503  0.6330 -0.4449  0.4316
  312MOL0     C42953  11.165   8.677   6.475 -0.4634  0.1320 -0.0612
  312MOL0     O42954  11.209   8.755   6.585  0.6642 -0.8811  0.1122
  312MOL0     C42955  11.236   8.897   6.566  0.0668  0.4253 -0.0179
  312MOL0     C42956  11.344   8.925   6.673  1.5831  0.3353  0.4862
  312MOL0     C42957  11.369   9.071   6.673  1.0139  0.0623  0.3072
  312MOL0     C42958  11.480   9.123   6.751  0.5329 -0.4311 -0.6503
  312MOL0     C42959  11.525   9.275   6.722 -0.0020 -0.6508 -0.9987
  312MOL0     C42960  11.622   9.260   6.609 -0.1978 -0.3497  0.1410
  312MOL0     C42961  11.642   9.399   6.527  0.8787  0.3636 -0.5069
  312MOL0     C42962  11.709   9.502   6.618 -1.0699 -0.4387 -0.1488
  312MOL0    Cl42963  11.709   9.656   6.534 -0.4075  0.2063  0.5026
  312MOL0     C42964  11.141   8.725   6.348 -0.6788 -0.3560  0.0191
  312MOL0     C42965  11.087   8.642   6.258  0.0978 -0.1341 -0.5601
  312MOL0     O42966  11.206   8.357   6.117  0.0487  0.2846  0.5588
  312MOL0     C42967  11.101   8.191   5.922  1.0121  0.6385 -0.3350
  312MOL0     C42968  11.074   8.088   5.839 -0.3983  0.3333 -0.1662
  312MOL0     N42969  11.194   7.878   5.395  0.1052  0.8353 -0.3550
  312MOL0     N42970  11.195   8.000   5.387 -0.8872 -0.3217  0.9292
  312MOL0     C42971  10.504   8.895   5.865 -0.1584  1.1185  0.7216
  312MOL0     C42972  10.372   8.907   5.903 -0.2835 -1.4324  0.4718
  312MOL0     C42973  10.006   9.128   5.962  0.2767 -1.4706  0.3899
  312MOL0     C42974   9.959   9.113   6.093 -0.6500  0.2462 -0.9317
  312MOL0     C42975   9.824   9.133   6.128 -0.6327  0.7801  0.6698
  312MOL0     C42976   9.737   9.191   6.037 -0.0871 -0.4547 -0.3954
  312MOL0     O42977   9.613   9.245   6.078 -0.5837 -0.4377  0.4908
  312MOL0     C42978   9.555   9.191   6.198 -0.7624 -0.5714  0.4352
  312MOL0     C42979   9.402   9.206   6.174 -0.0423  0.2189  0.0354
  312MOL0     C42980   9.309   9.159   6.287  0.1923  0.0583 -0.2761
  312MOL0     C42981   9.173   9.160   6.238 -0.4058 -0.0294  1.3598
  312MOL0     C42982   9.083   9.084   6.328 -0.0610 -0.7918 -0.1727
  312MOL0     C42983   9.010   9.015   6.391 -0.1348  0.1275 -0.4558
  312MOL0     C42984   9.782   9.215   5.911 -0.1470  0.1412  0.2241
  312MOL0     C42985   9.914   9.182   5.868 -0.3787 -0.2832 -0.4218
  312MOL0     C42986   9.934   9.204   5.729 -0.4298  0.0048  0.3031
  312MOL0     H42987  10.409   9.132   6.159  0.3600  0.1625  1.0168
  312MOL0     H42988  10.651   9.088   6.106  1.8266 -1.2787 -3.1361
  312MOL0     H42989  10.693   8.725   5.861 -1.6590  1.7726  0.1102
  312MOL0     H42990  10.744   8.744   6.027  2.6322  1.7503  0.3811
  312MOL0     H42991  10.953   8.802   5.812  1.2073 -1.8911 -1.1157
  312MOL0     H42992  10.975   8.756   5.980  1.4906 -0.9652 -1.1551
  312MOL0     H42993  10.979   8.539   5.921  0.7505  0.3815 -0.5173
  312MOL0     H42994  10.819   8.541   5.855 -0.4230  1.0012 -1.1142
  312MOL0     H42995  10.947   8.632   5.636 -1.3371 -2.5929 -2.2097
  312MOL0     H42996  11.092   8.569   5.727 -0.7537 -0.8437 -0.0108
  312MOL0     H42997  10.851   8.402   5.685 -0.2715 -2.2923 -2.9148
  312MOL0     H42998  11.013   8.357   5.747 -3.1208  0.5250  1.7331
  312MOL0     H42999  10.914   8.397   5.476  0.5929 -1.8945 -0.3966
  312MOL0     H43000  11.093   8.438   5.506 -1.6823  1.6553 -1.6455
  312MOL0     H43001  10.971   8.177   5.569 -1.3738  1.8542 -1.6301
  312MOL0     H43002  11.148   8.229   5.567  0.3529 -0.3902  1.1829
  312MOL0     H43003  10.994   8.234   5.316  0.4414 -0.3734  1.3208
  312MOL0     H43004  11.165   8.241   5.340  1.1226 -0.7416 -0.0485
  312MOL0     H43005  10.873   7.966   5.371  0.3477  0.9159  1.3084
  312MOL0     H43006  11.049   7.637   5.316 -1.0812 -0.7919  0.8971
  312MOL0     H43007  10.900   7.711   5.333  0.5241 -1.8466 -0.8693
  312MOL0     H43008  10.958   7.557   5.526  1.2545 -0.1606 -0.9724
  312MOL0     H43009  11.095   7.646   5.571 -0.6656 -1.9034  0.3915
  312MOL0     H43010  10.824   7.786   5.575 -0.4946 -2.2016 -0.8058
  312MOL0     H43011  10.872   7.676   5.695  1.0906  0.1983  0.6693
  312MOL0     H43012  11.093   7.832   5.719  0.0296  0.2459  0.8727
  312MOL0     H43013  11.016   7.938   5.615  0.7526 -0.1779 -0.0439
  312MOL0     H43014  10.764   8.042   5.947 -0.5835  0.1092 -0.1709
  312MOL0     H43015  10.768   8.194   6.203  2.8281  2.7175  0.9483
  312MOL0     H43016  10.674   8.255   6.072  0.8328  5.2031 -2.7809
  312MOL0     H43017  10.790   8.361   6.144 -1.2487  0.1847 -0.9342
  312MOL0     H43018  11.090   8.348   6.416  1.6424  0.8271 -0.7694
  312MOL0     H43019  11.194   8.497   6.595 -2.6388  1.4114  2.9195
  312MOL0     H43020  11.278   8.926   6.470 -1.5542  1.7462 -0.3722
  312MOL0     H43021  11.148   8.960   6.576 -0.1965 -0.0968  1.1800
  312MOL0     H43022  11.309   8.900   6.774  1.9204  2.5920  1.2331
  312MOL0     H43023  11.430   8.863   6.648 -0.5079 -2.0154 -1.3706
  312MOL0     H43024  11.276   9.118   6.706  1.7643  0.5586  1.8075
  312MOL0     H43025  11.384   9.109   6.572  0.2396  1.8516  0.8188
  312MOL0     H43026  11.563   9.056   6.726 -1.5457 -2.4828 -2.5755
  312MOL0     H43027  11.462   9.121   6.859 -2.7238  0.2949 -1.0603
  312MOL0     H43028  11.446   9.347   6.698 -0.3441 -1.1114 -1.2606
  312MOL0     H43029  11.566   9.313   6.816 -1.7649 -0.0282 -0.4455
  312MOL0     H43030  11.584   9.188   6.536 -2.7489  1.8793 -0.9022
  312MOL0     H43031  11.720   9.233   6.650 -0.2924 -2.4676 -0.9069
  312MOL0     H43032  11.545   9.446   6.508 -0.9941 -3.0136  0.0005
  312MOL0     H43033  11.707   9.383   6.440 -0.9981 -0.8763 -1.7428
  312MOL0     H43034  11.811   9.480   6.649 -1.5253 -1.1598  0.9244
  312MOL0     H43035  11.654   9.523   6.710  3.1840  1.0678  2.3428
  312MOL0     H43036  11.151   8.829   6.316 -2.2875  0.5531  2.1824
  312MOL0     H43037  11.072   8.684   6.159 -1.9233 -0.8842 -0.6170
  312MOL0     H43038  11.203   8.228   5.915  1.2021 -0.2529 -3.6100
  312MOL0     H43039  11.158   8.051   5.782  0.1165 -2.1205  1.9594
  312MOL0     H43040  10.531   8.821   5.790  0.0486  4.0715 -2.3933
  312MOL0     H43041  10.303   8.875   5.826  1.3315 -0.5774 -1.4331
  312MOL0     H43042  10.022   9.091   6.178 -0.1428  0.4636 -1.2513
  312MOL0     H43043   9.799   9.111   6.231 -2.1897  1.4081  0.4514
  312MOL0     H43044   9.590   9.089   6.218  1.7726 -0.0617 -1.0390
  312MOL0     H43045   9.588   9.241   6.288 -0.0459  2.3290 -1.3253
  312MOL0     H43046   9.375   9.138   6.092 -1.8091  3.1984 -2.0861
  312MOL0     H43047   9.375   9.309   6.150  1.6197  0.2731 -1.8767
  312MOL0     H43048   9.335   9.057   6.316 -0.7472 -0.7099 -1.9638
  312MOL0     H43049   9.313   9.234   6.366 -0.5828 -0.3740  0.1831
  312MOL0     H43050   9.174   9.118   6.137  1.5478  2.0682  0.4110
  312MOL0     H43051   9.152   9.265   6.217  1.3297 -0.2190 -2.0157
  312MOL0     H43052   8.946   8.962   6.459 -0.7183  2.0071  0.5394
  312MOL0     H43053   9.704   9.262   5.852 -3.9120 -0.3769  4.3031
  312MOL0     H43054  10.024   9.264   5.712  1.3089 -2.3277  0.7133
  312MOL0     H43055   9.947   9.113   5.669  2.2482  0.6434 -0.2292
  312MOL0     H43056   9.845   9.252   5.686 -0.6108 -0.6342 -0.0591
  313MOL0     O43057   6.224   5.881   4.909  0.2383 -0.0042 -0.0496
  313MOL0     C43058   6.263   5.949   5.004 -0.2398 -0.9917  0.2007
  313MOL0     O43059   6.394   5.951   5.043  0.0536  0.5430 -0.7991
  313MOL0     C43060   6.482   5.850   4.990  0.4721 -1.3879 -0.7381
  313MOL0     C43061   6.549   5.766   5.073 -0.6916 -0.0125 -0.2857
  313MOL0     C43062   6.618   5.657   5.019  0.9020 -0.0886  0.2040
  313MOL0     C43063   6.631   5.638   4.883 -0.3053 -0.0781  0.9252
  313MOL0     O43064   6.699   5.534   4.814  0.6123 -0.2178 -1.1929
  313MOL0     C43065   6.606   5.434   4.756 -0.0227 -0.4884 -1.4026
  313MOL0     C43066   6.674   5.297   4.762 -0.7628  0.7629  0.7846
  313MOL0     C43067   6.587   5.183   4.713 -1.0388  0.2396 -0.3162
  313MOL0     C43068   6.664   5.053   4.703  0.8192 -0.9474 -0.8994
  313MOL0     C43069   6.580   4.940   4.645  0.6785 -0.2714 -1.1326
  313MOL0     C43070   6.660   4.825   4.609 -0.4342 -0.2203  0.8145
  313MOL0     C43071   6.696   4.720   4.723 -0.0853 -0.2883 -0.4009
  313MOL0     C43072   6.794   4.615   4.664  0.7160 -0.1646  0.5064
  313MOL0     N43073   6.735   4.552   4.544  1.0688 -0.3382  0.3880
  313MOL0     C43074   6.625   4.475   4.532 -0.3837  0.0778  0.2126
  313MOL0     C43075   6.619   4.437   4.402 -0.3485 -0.0340 -0.3913
  313MOL0     C43076   6.519   4.348   4.342  0.6397  0.0339 -0.0462
  313MOL0     C43077   6.535   4.208   4.406  0.4084  0.7758  0.3565
  313MOL0     C43078   6.673   4.146   4.387  0.0137 -0.1822 -0.8872
  313MOL0     C43079   6.715   4.130   4.237  0.4658 -0.6704  1.0639
  313MOL0     O43080   6.854   4.091   4.255 -0.2040 -0.2691 -0.2263
  313MOL0     C43081   6.914   4.043   4.149 -1.3237  0.1199  0.1829
  313MOL0     C43082   7.043   4.067   4.128 -0.4074  0.0198  0.3903
  313MOL0     C43083   7.115   4.035   4.007  0.5247 -0.1084 -0.6524
  313MOL0     C43084   7.260   4.098   4.001  0.0439 -0.6883  0.2344
  313MOL0     C43085   7.062   3.944   3.921 -1.1155  0.0706 -0.6658
  313MOL0     C43086   7.144   3.876   3.812  0.2205 -0.1814 -0.3338
  313MOL0     O43087   7.085   3.833   3.699  0.0285 -0.0242  0.1438
  313MOL0     C43088   7.147   3.789   3.591 -0.7011 -0.2951 -0.0425
  313MOL0     C43089   7.122   3.657   3.543  0.1749  0.7054 -0.4808
  313MOL0     C43090   7.200   3.618   3.426  0.2965  0.1194  0.0710
  313MOL0     C43091   7.294   3.713   3.361 -0.0832  0.4212 -0.1107
  313MOL0     O43092   7.371   3.648   3.268 -0.0981  0.4918  0.7062
  313MOL0     C43093   7.438   3.739   3.178  0.6594  0.0724  0.5866
  313MOL0     C43094   7.501   3.659   3.068 -0.0165  0.1553 -0.0451
  313MOL0     C43095   7.573   3.534   3.121 -0.0194  0.8645  0.4200
  313MOL0     C43096   7.653   3.470   3.000 -0.5935 -0.1903 -0.8473
  313MOL0     C43097   7.734   3.342   3.030 -0.3615  0.0004  0.4177
  313MOL0     C43098   7.661   3.231   3.103 -0.2186  0.2876  0.1069
  313MOL0     C43099   7.759   3.106   3.113 -0.2488  0.0555 -0.2726
  313MOL0     C43100   7.676   2.983   3.142  0.4195 -0.5951  1.0937
  313MOL0    Cl43101   7.733   2.836   3.068  0.1709  0.7264  0.2357
  313MOL0     C43102   7.311   3.842   3.400 -0.1128  0.1823 -0.3580
  313MOL0     C43103   7.229   3.876   3.506  0.1058 -0.0773 -1.0214
  313MOL0     O43104   7.256   3.859   3.845 -1.0314  0.0959 -0.3253
  313MOL0     C43105   6.921   3.910   3.951 -1.2065  0.5044  0.9702
  313MOL0     C43106   6.855   3.956   4.055  0.0997 -0.0979 -0.3151
  313MOL0     N43107   6.731   4.490   4.334 -0.5636 -0.2361  0.8213
  313MOL0     N43108   6.795   4.564   4.423 -0.1714 -0.3003 -0.5661
  313MOL0     C43109   6.571   5.730   4.797 -0.6441 -1.1600  0.4797
  313MOL0     C43110   6.498   5.835   4.852 -0.0240  0.4932 -0.3981
  313MOL0     C43111   6.171   6.044   5.074 -0.5145  0.3222 -0.6743
  313MOL0     C43112   6.232   6.145   5.141  0.4067 -0.1102 -0.9866
  313MOL0     C43113   6.158   6.238   5.200  0.8811  0.6564 -0.3635
  313MOL0     C43114   6.025   6.228   5.197 -0.1329 -0.7214  0.3915
  313MOL0     O43115   5.952   6.337   5.239 -0.7626 -0.1179 -0.0134
  313MOL0     C43116   5.853   6.320   5.333 -0.1626  0.0123 -0.8357
  313MOL0     C43117   5.909   6.330   5.478 -0.0765 -1.1389 -0.2024
  313MOL0     C43118   5.949   6.479   5.514  0.0519  0.8125  0.2479
  313MOL0     C43119   5.945   6.511   5.665 -0.1582  1.4251 -0.4669
  313MOL0     C43120   6.059   6.600   5.699  0.6675  0.2614  0.7766
  313MOL0     C43121   6.146   6.678   5.714  0.6682 -1.1378 -0.9662
  313MOL0     C43122   5.956   6.128   5.130  0.6092  0.6360 -0.6048
  313MOL0     C43123   6.033   6.031   5.074 -0.2391 -0.4734 -0.2133
  313MOL0     C43124   5.966   5.918   5.017 -0.4666 -0.0174  0.9323
  313MOL0     H43125   6.548   5.790   5.179 -1.8576 -1.6349  0.1260
  313MOL0     H43126   6.670   5.581   5.076  1.7205 -0.2137 -0.6964
  313MOL0     H43127   6.574   5.461   4.654  0.5076  0.4634 -1.3369
  313MOL0     H43128   6.507   5.434   4.803 -1.2064  3.0295 -3.5154
  313MOL0     H43129   6.768   5.296   4.706 -0.6057 -0.0114  1.0442
  313MOL0     H43130   6.703   5.279   4.866  1.3404  0.8211  0.2564
  313MOL0     H43131   6.501   5.173   4.779 -2.1495 -0.1292 -1.7556
  313MOL0     H43132   6.541   5.208   4.617  1.5209  1.4157 -1.3312
  313MOL0     H43133   6.746   5.069   4.632 -0.6179 -0.1983 -2.4702
  313MOL0     H43134   6.704   5.015   4.798  2.9214 -1.6520 -2.0004
  313MOL0     H43135   6.526   4.979   4.558 -0.2397  1.5295  0.1862
  313MOL0     H43136   6.501   4.907   4.713  1.0675 -2.4894 -1.6648
  313MOL0     H43137   6.614   4.773   4.525  1.1320 -0.7501  0.2538
  313MOL0     H43138   6.752   4.859   4.560 -0.7373 -0.1501  0.2840
  313MOL0     H43139   6.601   4.681   4.760 -1.2603  2.0746 -0.7274
  313MOL0     H43140   6.744   4.761   4.812 -0.8358 -2.8783  1.3242
  313MOL0     H43141   6.895   4.651   4.644  0.9376 -0.3610  1.2423
  313MOL0     H43142   6.820   4.536   4.736  0.2675 -0.3136  0.5095
  313MOL0     H43143   6.559   4.441   4.611  0.1255 -0.4343  0.4209
  313MOL0     H43144   6.523   4.347   4.232 -3.8907  0.5887 -0.4062
  313MOL0     H43145   6.420   4.391   4.361 -0.2484 -1.0802 -1.8203
  313MOL0     H43146   6.513   4.196   4.513 -0.3292 -1.3779  0.0321
  313MOL0     H43147   6.460   4.149   4.353 -3.2322  3.1060  2.5097
  313MOL0     H43148   6.759   4.190   4.438  1.8233 -2.3995 -1.8471
  313MOL0     H43149   6.668   4.048   4.436 -2.1993  0.1417 -0.3403
  313MOL0     H43150   6.640   4.060   4.199 -0.4048  1.3017 -1.1331
  313MOL0     H43151   6.709   4.215   4.168  3.2113 -1.1009  0.1844
  313MOL0     H43152   7.087   4.131   4.204  1.1319  2.9269 -2.6954
  313MOL0     H43153   7.271   4.152   3.906 -1.9627 -3.7636 -1.9456
  313MOL0     H43154   7.331   4.015   3.998 -0.4094 -1.0639 -1.5038
  313MOL0     H43155   7.286   4.164   4.084  0.4548  0.8125 -1.0343
  313MOL0     H43156   7.053   3.588   3.590 -1.6766  3.6789  1.5554
  313MOL0     H43157   7.201   3.515   3.391 -0.7099  0.7389 -1.9859
  313MOL0     H43158   7.365   3.813   3.141  1.7818  0.0952 -1.7540
  313MOL0     H43159   7.516   3.796   3.229 -0.7442  2.2858  0.4373
  313MOL0     H43160   7.421   3.636   2.997 -0.8988 -1.4025  1.4154
  313MOL0     H43161   7.581   3.715   3.018 -0.8933  1.2494 -0.2497
  313MOL0     H43162   7.505   3.462   3.167 -1.6870  1.5288 -0.9053
  313MOL0     H43163   7.639   3.581   3.194  0.7499 -0.3997  0.5659
  313MOL0     H43164   7.712   3.552   2.957  1.1487 -1.1128 -0.2905
  313MOL0     H43165   7.577   3.429   2.933 -0.5260 -0.6385 -0.6506
  313MOL0     H43166   7.762   3.297   2.934 -1.0653  1.0220 -0.2979
  313MOL0     H43167   7.825   3.372   3.083  1.0695 -1.2933 -1.1624
  313MOL0     H43168   7.577   3.208   3.037 -0.8514  0.4446  0.8429
  313MOL0     H43169   7.615   3.267   3.196 -0.2301  1.9085 -0.5033
  313MOL0     H43170   7.829   3.128   3.194 -0.2771 -2.3730  0.4732
  313MOL0     H43171   7.801   3.083   3.014 -1.4504  1.5382 -1.1822
  313MOL0     H43172   7.569   3.003   3.126  0.1037 -0.7332  2.7957
  313MOL0     H43173   7.690   2.967   3.250  1.8315 -1.9073  0.7488
  313MOL0     H43174   7.376   3.916   3.356 -1.7926  6.2127  5.5978
  313MOL0     H43175   7.229   3.981   3.533 -2.2547  0.0554 -1.2906
  313MOL0     H43176   6.872   3.835   3.888  2.4705 -1.8557  0.6053
  313MOL0     H43177   6.752   3.921   4.052 -1.2883  3.5489  0.1066
  313MOL0     H43178   6.576   5.705   4.692 -0.7212 -0.2401  0.2547
  313MOL0     H43179   6.455   5.910   4.786  1.1867  0.6837 -1.0037
  313MOL0     H43180   6.340   6.153   5.153  0.2657 -0.6214  0.9169
  313MOL0     H43181   6.210   6.314   5.257 -0.5301  1.1967  0.2548
  313MOL0     H43182   5.779   6.397   5.315  0.0904  0.0528 -1.7957
  313MOL0     H43183   5.812   6.218   5.327 -3.9306  1.2379  1.0582
  313MOL0     H43184   5.992   6.259   5.484 -0.0510 -1.1036 -0.1400
  313MOL0     H43185   5.829   6.307   5.549  1.5424 -1.4553  1.5956
  313MOL0     H43186   6.053   6.467   5.483 -1.3449 -1.4807 -4.4302
  313MOL0     H43187   5.900   6.559   5.458  0.9007  0.2871 -1.3126
  313MOL0     H43188   5.963   6.420   5.724 -1.4369  0.6446 -1.2247
  313MOL0     H43189   5.849   6.548   5.701 -0.1208  1.0058  0.0826
  313MOL0     H43190   6.222   6.754   5.719 -0.3574 -0.1384  0.0769
  313MOL0     H43191   5.848   6.131   5.132  0.5095 -0.6266 -2.1235
  313MOL0     H43192   5.968   5.921   4.907  0.7866  1.6824  0.9581
  313MOL0     H43193   6.015   5.825   5.049  0.7365  0.0890 -0.4663
  313MOL0     H43194   5.861   5.929   5.046 -0.3553  1.4865  0.8209
  314MOL0     O43195  10.780   4.333   5.509  0.3091  0.4831  0.0890
  314MOL0     C43196  10.703   4.236   5.541  0.3009 -0.0280  0.1931
  314MOL0     O43197  10.663   4.214   5.668 -0.0131  0.4060 -0.3302
  314MOL0     C43198  10.731   4.291   5.763  1.0713 -0.4395 -0.4229
  314MOL0     C43199  10.669   4.407   5.799  0.4422 -0.7269  0.6656
  314MOL0     C43200  10.710   4.479   5.910  1.0038  0.8807 -0.9978
  314MOL0     C43201  10.816   4.436   5.996 -0.4846 -0.6209  0.2190
  314MOL0     O43202  10.866   4.506   6.100  0.5294 -0.2763  0.0971
  314MOL0     C43203  10.854   4.650   6.095  0.3160  0.1168  0.2690
  314MOL0     C43204  10.946   4.719   6.195  0.5033 -0.0105  0.5805
  314MOL0     C43205  10.895   4.858   6.221  0.2412 -0.3903 -0.9769
  314MOL0     C43206  10.940   4.952   6.119  0.5389  0.5737 -0.0678
  314MOL0     C43207  10.911   5.088   6.178  0.4797  0.2778  0.3517
  314MOL0     C43208  10.875   5.188   6.082  0.5377 -0.8063  0.4510
  314MOL0     C43209  10.854   5.327   6.160  0.5425 -0.0675 -0.2631
  314MOL0     C43210  10.826   5.443   6.067 -0.1358 -0.2114  0.8783
  314MOL0     N43211  10.953   5.479   5.990  0.3259 -0.2262 -0.4679
  314MOL0     C43212  11.076   5.513   6.039 -0.0603 -0.0764 -1.2630
  314MOL0     C43213  11.159   5.529   5.936 -0.4124 -0.5654  0.1659
  314MOL0     C43214  11.312   5.544   5.947  0.3055  0.6540  0.3405
  314MOL0     C43215  11.370   5.427   6.026 -0.9767  0.4468  0.6311
  314MOL0     C43216  11.313   5.285   5.984  0.4343 -1.3208  0.2729
  314MOL0     C43217  11.381   5.177   6.062 -0.0689 -0.1184  1.0037
  314MOL0     O43218  11.528   5.182   6.042 -0.1812  0.0533  0.2792
  314MOL0     C43219  11.617   5.126   6.129  0.4196 -0.1448 -0.9946
  314MOL0     C43220  11.735   5.076   6.083 -0.3591 -0.3057 -0.2839
  314MOL0     C43221  11.830   5.020   6.163 -0.4283  0.0020  0.2500
  314MOL0     C43222  11.946   4.951   6.085 -0.0722  0.1468 -0.4976
  314MOL0     C43223  11.804   4.998   6.298  0.9326  1.0504 -0.5332
  314MOL0     C43224  11.899   4.933   6.388 -0.0837  0.1846 -0.8676
  314MOL0     O43225  12.032   4.944   6.358  1.3076  0.1912  0.3638
  314MOL0     C43226  12.121   4.857   6.411 -0.1041  1.0347 -0.0495
  314MOL0     C43227  12.232   4.909   6.478 -0.4751 -0.5131 -0.5682
  314MOL0     C43228  12.327   4.823   6.534  0.1256 -0.1668 -1.2468
  314MOL0     C43229  12.307   4.683   6.533 -0.0945  0.7096 -1.1029
  314MOL0     O43230  12.394   4.589   6.595  1.0846 -0.0393  0.0395
  314MOL0     C43231  12.510   4.629   6.654  0.0309 -0.1570  0.0707
  314MOL0     C43232  12.594   4.508   6.700 -0.3409 -0.8432 -0.7957
  314MOL0     C43233  12.529   4.426   6.820 -0.5183  0.1744 -0.4509
  314MOL0     C43234  12.484   4.285   6.768 -0.1163 -0.0526 -0.3180
  314MOL0     C43235  12.419   4.191   6.875 -0.1712  0.2948  0.2440
  314MOL0     C43236  12.342   4.076   6.813 -0.9140  0.0460  0.4360
  314MOL0     C43237  12.285   3.983   6.918 -0.3150 -0.0858 -0.1089
  314MOL0     C43238  12.198   3.873   6.864 -0.2621 -0.7286 -0.5072
  314MOL0    Cl43239  12.311   3.759   6.791 -0.2785 -0.0671  0.2003
  314MOL0     C43240  12.200   4.629   6.464 -0.0027 -0.3830 -1.3013
  314MOL0     C43241  12.113   4.713   6.408  0.1884 -0.7664 -0.0279
  314MOL0     O43242  11.852   4.867   6.480 -0.4036  0.4229 -0.4844
  314MOL0     C43243  11.683   5.045   6.345  1.4919  0.9194 -0.5486
  314MOL0     C43244  11.590   5.112   6.261  0.3468 -0.6588 -0.7384
  314MOL0     N43245  11.084   5.503   5.825 -0.0482 -0.6016  0.0983
  314MOL0     N43246  10.961   5.474   5.857  0.1470 -0.2188  0.1248
  314MOL0     C43247  10.878   4.322   5.944 -0.1464  0.7970  0.3717
  314MOL0     C43248  10.838   4.248   5.833 -0.5639  0.9736  0.0931
  314MOL0     C43249  10.636   4.156   5.444  0.5514 -0.3295 -0.2565
  314MOL0     C43250  10.578   4.207   5.323 -0.0609 -0.1262 -0.0787
  314MOL0     C43251  10.520   4.125   5.226 -0.2199 -0.0852  0.5999
  314MOL0     C43252  10.511   3.984   5.241  0.0628 -0.5343  0.0845
  314MOL0     O43253  10.468   3.897   5.145 -0.0045 -0.4016  0.2205
  314MOL0     C43254  10.403   3.950   5.036  0.6509  0.2395 -0.0240
  314MOL0     C43255  10.339   3.838   4.965  0.6636 -0.7301  0.0436
  314MOL0     C43256  10.308   3.888   4.823 -0.2735 -0.2532  0.4975
  314MOL0     C43257  10.417   3.845   4.725 -0.4301 -0.3997 -1.1506
  314MOL0     C43258  10.395   3.710   4.674  0.0485  0.0688  0.3181
  314MOL0     C43259  10.370   3.594   4.629  0.1533 -0.8402  0.4457
  314MOL0     C43260  10.560   3.934   5.358  0.1924  0.6296  0.9886
  314MOL0     C43261  10.624   4.019   5.459  0.6280 -0.2753  0.2925
  314MOL0     C43262  10.687   3.940   5.561 -0.1326 -0.6533 -0.1001
  314MOL0     H43263  10.583   4.442   5.743  1.2629  0.1956 -0.0515
  314MOL0     H43264  10.656   4.570   5.934  0.1196  0.2545 -0.5777
  314MOL0     H43265  10.751   4.675   6.123 -1.0827 -0.2225 -3.8887
  314MOL0     H43266  10.891   4.683   5.997  2.6184  0.5085  1.2143
  314MOL0     H43267  10.957   4.662   6.288 -3.7708  0.9352  1.8718
  314MOL0     H43268  11.051   4.728   6.165 -0.2067  3.5169 -1.3258
  314MOL0     H43269  10.788   4.873   6.236  0.5981  0.7833  0.7386
  314MOL0     H43270  10.939   4.879   6.319  0.1952  1.3360 -1.2988
  314MOL0     H43271  11.047   4.944   6.098  0.9263  0.8913  1.6457
  314MOL0     H43272  10.893   4.928   6.023  1.9431  0.0103 -0.6331
  314MOL0     H43273  11.004   5.129   6.219  0.3065 -0.5137  1.5896
  314MOL0     H43274  10.838   5.081   6.258 -0.5206 -0.9866 -0.6373
  314MOL0     H43275  10.945   5.202   5.999  1.5598  0.1451  1.4378
  314MOL0     H43276  10.774   5.162   6.049 -0.3908  2.6770  0.1737
  314MOL0     H43277  10.941   5.345   6.223  0.0332  0.0589  0.4190
  314MOL0     H43278  10.772   5.315   6.232  0.9136  0.4140  0.2488
  314MOL0     H43279  10.744   5.424   5.997 -0.0353  1.7803  0.1588
  314MOL0     H43280  10.794   5.534   6.118 -0.0467  0.1427  0.3179
  314MOL0     H43281  11.101   5.533   6.143 -1.4202  2.5151 -1.3630
  314MOL0     H43282  11.330   5.645   5.984 -2.3904  2.5614 -2.9333
  314MOL0     H43283  11.356   5.557   5.848  0.2339  2.9589  0.5605
  314MOL0     H43284  11.475   5.431   5.996 -0.9917  2.5391  0.7495
  314MOL0     H43285  11.358   5.434   6.135  1.9850  2.2617  0.9429
  314MOL0     H43286  11.205   5.284   6.005  0.2573 -0.1930 -0.4677
  314MOL0     H43287  11.321   5.285   5.875 -4.0398  3.4650 -0.4874
  314MOL0     H43288  11.336   5.189   6.161 -0.0049  1.3396  0.8817
  314MOL0     H43289  11.356   5.078   6.022 -0.4393 -0.0689  1.1075
  314MOL0     H43290  11.760   5.085   5.978 -0.7313  0.5671 -0.3045
  314MOL0     H43291  11.906   4.924   5.987 -0.2020  2.0834 -1.0208
  314MOL0     H43292  11.984   4.859   6.131 -0.2818  0.4257  0.2511
  314MOL0     H43293  12.032   5.019   6.077  1.4381 -1.5033  0.7362
  314MOL0     H43294  12.253   5.015   6.479  3.0426 -1.0731 -1.3073
  314MOL0     H43295  12.411   4.878   6.575 -1.7948  1.5945  0.5662
  314MOL0     H43296  12.570   4.676   6.575 -0.7190 -1.3591 -1.2532
  314MOL0     H43297  12.498   4.708   6.729 -1.9604  0.8144 -1.1733
  314MOL0     H43298  12.588   4.448   6.608 -1.2611  0.3578 -1.5545
  314MOL0     H43299  12.693   4.548   6.724 -1.7122  2.5512 -0.3093
  314MOL0     H43300  12.446   4.469   6.876  0.9133  1.7776  0.5246
  314MOL0     H43301  12.610   4.428   6.893 -0.6606  2.2811 -0.2925
  314MOL0     H43302  12.562   4.221   6.723 -2.5594 -2.7710 -1.0271
  314MOL0     H43303  12.408   4.293   6.690 -0.7844 -0.0748  0.3185
  314MOL0     H43304  12.500   4.156   6.939  0.0280 -2.7593 -1.4937
  314MOL0     H43305  12.349   4.251   6.935 -0.7353 -0.1872  0.0817
  314MOL0     H43306  12.412   4.018   6.753  1.9107  1.9728  1.6642
  314MOL0     H43307  12.273   4.122   6.740 -0.0589  1.8023  0.6762
  314MOL0     H43308  12.223   4.049   6.979  3.5488  0.6898  3.3832
  314MOL0     H43309  12.361   3.944   6.985  1.2302  3.0326  0.1246
  314MOL0     H43310  12.108   3.904   6.810 -0.2401 -0.2888 -0.2963
  314MOL0     H43311  12.163   3.821   6.954  0.1878  1.3746  0.9566
  314MOL0     H43312  12.184   4.522   6.470  2.5262 -0.7862 -0.6379
  314MOL0     H43313  12.025   4.663   6.368  0.1574 -1.0448  0.3756
  314MOL0     H43314  11.672   5.034   6.453  1.6424 -0.8829 -0.6799
  314MOL0     H43315  11.510   5.172   6.303  2.0047  0.7170  0.5893
  314MOL0     H43316  10.960   4.287   6.006 -0.4586 -0.0325  0.3342
  314MOL0     H43317  10.885   4.153   5.809 -2.2863  0.1354 -0.1380
  314MOL0     H43318  10.582   4.315   5.324  1.7078 -0.1496 -0.2817
  314MOL0     H43319  10.489   4.169   5.132 -1.5922 -1.8258  0.1889
  314MOL0     H43320  10.328   4.022   5.069  0.7765  0.4548 -0.2039
  314MOL0     H43321  10.480   3.993   4.972 -0.0185 -1.8764 -2.4566
  314MOL0     H43322  10.243   3.816   5.012  0.4873 -1.3011 -0.5639
  314MOL0     H43323  10.395   3.745   4.972 -0.8961 -1.6248  1.1958
  314MOL0     H43324  10.219   3.836   4.788  0.1379  1.1601 -3.0136
  314MOL0     H43325  10.281   3.993   4.832 -1.3633 -0.4926  0.1616
  314MOL0     H43326  10.514   3.848   4.775 -0.6255  1.7930 -0.8062
  314MOL0     H43327  10.426   3.929   4.656 -3.7613  3.7896  2.8203
  314MOL0     H43328  10.347   3.493   4.602 -1.8943 -0.2233 -0.2593
  314MOL0     H43329  10.564   3.825   5.357 -0.3333  0.6082  1.0682
  314MOL0     H43330  10.759   3.998   5.619  1.4489  0.7725 -3.2083
  314MOL0     H43331  10.607   3.907   5.628  0.6130  1.1340  1.7754
  314MOL0     H43332  10.740   3.854   5.518  0.0059  0.2334 -1.7768
  315MOL0     O43333   6.536  10.472   4.677  0.0576  0.7049  0.2349
  315MOL0     C43334   6.547  10.510   4.563  0.6265 -0.5200 -0.2520
  315MOL0     O43335   6.466  10.615   4.513  0.2008 -0.3138  0.5131
  315MOL0     C43336   6.394  10.705   4.592  0.4321 -0.6997  0.8232
  315MOL0     C43337   6.285  10.761   4.531 -0.9282  0.2939  0.0557
  315MOL0     C43338   6.209  10.849   4.606  1.0199  0.5111  0.2820
  315MOL0     C43339   6.223  10.869   4.746  0.3812  1.2381 -0.7731
  315MOL0     O43340   6.138  10.943   4.830  0.2417  0.0406 -0.7114
  315MOL0     C43341   6.019  10.999   4.779  0.1401  0.0598  0.8011
  315MOL0     C43342   6.013  11.137   4.834  0.5174  0.5762  0.3603
  315MOL0     C43343   5.885  11.208   4.796 -0.3119 -0.0806 -0.1138
  315MOL0     C43344   5.751  11.136   4.812 -0.1496  0.6565  0.2472
  315MOL0     C43345   5.636  11.226   4.786  0.6067  1.3599  0.7517
  315MOL0     C43346   5.625  11.273   4.636 -0.0856  0.8215 -0.8754
  315MOL0     C43347   5.498  11.352   4.622 -0.2565  0.0994 -0.3385
  315MOL0     C43348   5.456  11.377   4.474 -0.5644 -0.1125 -0.0809
  315MOL0     N43349   5.381  11.263   4.428 -0.4432 -0.3810  0.5221
  315MOL0     C43350   5.415  11.183   4.326  0.0797  0.3024 -0.2161
  315MOL0     C43351   5.309  11.107   4.290  0.0591  0.0308 -0.0314
  315MOL0     C43352   5.314  11.009   4.174  0.1423 -1.1695 -0.5522
  315MOL0     C43353   5.222  10.886   4.191 -0.7430 -0.5122 -0.7229
  315MOL0     C43354   5.212  10.816   4.056  0.1666  0.6161 -0.2988
  315MOL0     C43355   5.174  10.666   4.071 -0.3946 -0.6626 -0.2975
  315MOL0     O43356   5.029  10.671   4.076 -0.5828  0.1002 -0.2729
  315MOL0     C43357   4.952  10.651   3.971 -0.8355 -0.1839  0.4156
  315MOL0     C43358   4.999  10.623   3.841  0.2002  0.1386  0.2309
  315MOL0     C43359   4.919  10.592   3.731 -0.1825  0.4579  0.1443
  315MOL0     C43360   4.979  10.548   3.601  0.4080  0.1067 -0.1027
  315MOL0     C43361   4.777  10.599   3.755  0.3922 -0.0754 -0.0873
  315MOL0     C43362   4.677  10.595   3.651  0.0036  0.1600 -0.0247
  315MOL0     O43363   4.552  10.542   3.683  0.0989 -0.0298  0.3477
  315MOL0     C43364   4.445  10.538   3.596  1.2029 -0.7043 -0.7929
  315MOL0     C43365   4.450  10.489   3.464 -0.8437  0.6927 -1.3833
  315MOL0     C43366   4.333  10.493   3.391 -0.1839  0.1054 -0.3761
  315MOL0     C43367   4.214  10.558   3.448  0.8651 -0.0297  0.0393
  315MOL0     O43368   4.101  10.578   3.368 -0.0532  0.5572 -0.2424
  315MOL0     C43369   4.074  10.491   3.266  0.5881  0.4047  0.9738
  315MOL0     C43370   3.943  10.533   3.210  0.4406 -0.5207 -1.2556
  315MOL0     C43371   3.834  10.519   3.325  0.1912  0.5070  0.9481
  315MOL0     C43372   3.688  10.564   3.270 -0.1459  0.1355 -0.0796
  315MOL0     C43373   3.614  10.612   3.390  0.3199 -0.2232 -0.3375
  315MOL0     C43374   3.489  10.674   3.347  0.5152  0.3512  0.0819
  315MOL0     C43375   3.411  10.749   3.457 -0.4980  0.4829 -0.3238
  315MOL0     C43376   3.273  10.790   3.422  0.1879  0.4120 -1.2172
  315MOL0    Cl43377   3.226  10.928   3.525  0.0576  0.0469  0.7148
  315MOL0     C43378   4.221  10.620   3.570  0.5371 -0.8707  0.0856
  315MOL0     C43379   4.329  10.600   3.650  0.4511  0.5827  0.5594
  315MOL0     O43380   4.705  10.645   3.543  0.5943 -0.8306  0.3153
  315MOL0     C43381   4.732  10.635   3.885  0.8296 -0.8040 -0.2444
  315MOL0     C43382   4.815  10.652   3.986  0.1171 -0.1991 -0.5833
  315MOL0     N43383   5.208  11.144   4.372  0.6296 -0.2454  0.6037
  315MOL0     N43384   5.249  11.243   4.448 -0.1485 -0.2154 -0.7584
  315MOL0     C43385   6.328  10.800   4.804 -0.2679  1.0176  1.2120
  315MOL0     C43386   6.413  10.722   4.730  0.7764  1.0268 -0.0448
  315MOL0     C43387   6.645  10.447   4.471  0.1023 -0.6087 -1.4820
  315MOL0     C43388   6.653  10.504   4.344 -0.0094  0.2183 -0.1458
  315MOL0     C43389   6.759  10.468   4.256 -0.4078  1.1573 -0.0765
  315MOL0     C43390   6.858  10.371   4.285 -0.1608  0.4316  0.0006
  315MOL0     O43391   6.946  10.340   4.190  0.0678 -0.8622 -0.5392
  315MOL0     C43392   7.082  10.396   4.221  0.5480  0.2380  0.1496
  315MOL0     C43393   7.179  10.281   4.241 -0.2004 -0.1790 -0.3261
  315MOL0     C43394   7.186  10.217   4.104 -0.2014  0.0594  1.0333
  315MOL0     C43395   7.302  10.114   4.103  0.3679  1.0060  0.7756
  315MOL0     C43396   7.293  10.011   4.209  0.0014  0.1978  0.2979
  315MOL0     C43397   7.309   9.905   4.266 -0.1240 -0.1212 -0.1348
  315MOL0     C43398   6.851  10.312   4.416  0.2024 -0.4534 -0.0432
  315MOL0     C43399   6.754  10.355   4.510 -1.1084 -0.5990 -0.4044
  315MOL0     C43400   6.785  10.304   4.659 -0.1398  0.2440  0.5477
  315MOL0     H43401   6.272  10.746   4.424 -0.2983  0.6634 -0.0786
  315MOL0     H43402   6.132  10.891   4.542  1.8807 -1.7958 -2.5262
  315MOL0     H43403   5.933  10.941   4.813  0.8474 -1.1069  0.6474
  315MOL0     H43404   6.021  11.002   4.670  1.0631  3.4032  0.8108
  315MOL0     H43405   6.019  11.115   4.941  0.2479 -2.7662 -0.2018
  315MOL0     H43406   6.107  11.187   4.810  0.5122  0.2301 -0.3848
  315MOL0     H43407   5.875  11.285   4.873  0.1856  0.7117 -0.8166
  315MOL0     H43408   5.903  11.258   4.700  1.7914 -1.5934 -0.5813
  315MOL0     H43409   5.762  11.044   4.753  1.7684 -1.4848  3.6024
  315MOL0     H43410   5.748  11.110   4.918  2.9755 -2.8703 -0.2872
  315MOL0     H43411   5.624  11.302   4.863 -2.6850  0.9764  0.7765
  315MOL0     H43412   5.541  11.173   4.802 -1.1581  3.5444 -1.6378
  315MOL0     H43413   5.710  11.338   4.614 -1.4144  2.4661 -1.4061
  315MOL0     H43414   5.627  11.189   4.566 -0.5719  0.0403  0.0239
  315MOL0     H43415   5.510  11.452   4.665  1.1091  1.4420 -3.4967
  315MOL0     H43416   5.420  11.306   4.682 -1.6550 -1.1149 -2.9373
  315MOL0     H43417   5.389  11.463   4.481  0.3629  0.5733  0.4805
  315MOL0     H43418   5.544  11.405   4.416  1.3706 -1.3742  2.0732
  315MOL0     H43419   5.507  11.187   4.268 -0.2847  0.4820 -0.7918
  315MOL0     H43420   5.418  10.983   4.156  0.7902 -0.8255  2.2844
  315MOL0     H43421   5.277  11.066   4.087 -0.8782  1.5260  1.4886
  315MOL0     H43422   5.276  10.827   4.266  0.4066  2.0032  0.5365
  315MOL0     H43423   5.122  10.907   4.230 -0.1741 -0.4963  0.7798
  315MOL0     H43424   5.146  10.869   3.986  2.5147  3.5594 -0.4673
  315MOL0     H43425   5.312  10.815   4.011 -0.2352  3.1842 -1.4414
  315MOL0     H43426   5.203  10.596   3.991  0.8455 -2.0891  1.3410
  315MOL0     H43427   5.225  10.627   4.159  0.4701 -1.3258 -1.0655
  315MOL0     H43428   5.105  10.637   3.820  0.0842  1.3426  0.3672
  315MOL0     H43429   4.913  10.515   3.521  2.2263 -2.1352 -0.8006
  315MOL0     H43430   5.035  10.458   3.631 -3.5217 -2.1687  1.1459
  315MOL0     H43431   5.041  10.628   3.559  0.3233  1.3396  1.9741
  315MOL0     H43432   4.541  10.437   3.436 -0.1903 -2.0994  4.3349
  315MOL0     H43433   4.339  10.444   3.295 -0.1161 -0.2580 -0.1899
  315MOL0     H43434   4.142  10.507   3.181 -2.3019  0.2989 -1.5232
  315MOL0     H43435   4.069  10.386   3.296 -2.1741  0.0439 -0.4892
  315MOL0     H43436   3.945  10.637   3.175  1.6117  0.5869  1.8121
  315MOL0     H43437   3.924  10.464   3.127  1.7520 -0.0573 -1.9855
  315MOL0     H43438   3.865  10.573   3.414 -1.3847  1.5787  0.8957
  315MOL0     H43439   3.822  10.414   3.354  1.4571  0.0614 -0.0629
  315MOL0     H43440   3.626  10.484   3.228 -0.6881  1.1488 -1.2582
  315MOL0     H43441   3.699  10.646   3.199 -3.5099  0.9177  0.1086
  315MOL0     H43442   3.589  10.518   3.441 -2.3478  0.5117 -0.1085
  315MOL0     H43443   3.673  10.681   3.449  0.5192  0.6791 -1.5434
  315MOL0     H43444   3.415  10.602   3.309  0.2029  0.5559  0.2975
  315MOL0     H43445   3.516  10.740   3.264  2.0617 -1.5699 -1.0373
  315MOL0     H43446   3.470  10.839   3.480  0.8586  0.3967 -3.0545
  315MOL0     H43447   3.408  10.693   3.551 -0.1912 -1.4076 -1.3905
  315MOL0     H43448   3.202  10.710   3.448 -1.0903  2.5912  2.8215
  315MOL0     H43449   3.270  10.815   3.316 -1.4558  0.5186 -1.1774
  315MOL0     H43450   4.142  10.680   3.613 -0.0406 -0.4024 -1.5579
  315MOL0     H43451   4.332  10.646   3.748 -1.0896 -1.9311  1.8942
  315MOL0     H43452   4.624  10.646   3.898  1.0565 -0.5685  1.8360
  315MOL0     H43453   4.796  10.688   4.087  1.9229 -1.5777  0.3085
  315MOL0     H43454   6.346  10.795   4.911  0.0117 -2.3287  1.0970
  315MOL0     H43455   6.496  10.675   4.782  1.4493  0.1094 -1.8635
  315MOL0     H43456   6.581  10.574   4.303 -3.7582 -1.2408  3.2521
  315MOL0     H43457   6.758  10.505   4.155  2.8353 -3.4523 -2.1784
  315MOL0     H43458   7.121  10.451   4.136 -2.1548 -0.1577 -1.4854
  315MOL0     H43459   7.078  10.457   4.312  0.0053 -0.9627  0.9563
  315MOL0     H43460   7.130  10.209   4.307 -4.5790  0.7385 -2.1575
  315MOL0     H43461   7.265  10.333   4.282  0.0189 -0.0754 -0.9129
  315MOL0     H43462   7.095  10.164   4.074  1.0458 -0.6577 -1.7890
  315MOL0     H43463   7.192  10.296   4.028  2.1371 -0.7328  0.3161
  315MOL0     H43464   7.395  10.170   4.114  0.6321  0.5979  0.6577
  315MOL0     H43465   7.302  10.069   4.004 -2.7533 -1.1783  1.6055
  315MOL0     H43466   7.328   9.804   4.295  2.2636  0.2337 -0.2489
  315MOL0     H43467   6.940  10.255   4.444  0.5091  0.5515  1.0963
  315MOL0     H43468   6.788  10.382   4.736  1.6246  2.8378 -1.9230
  315MOL0     H43469   6.698  10.246   4.691 -0.2159 -1.4032 -2.2747
  315MOL0     H43470   6.883  10.254   4.655 -0.8319 -1.0695 -1.2788
  316MOL0     O43471   9.141  11.524   3.764  0.8650  0.0096  0.6516
  316MOL0     C43472   9.124  11.620   3.687 -0.8182  0.1877  0.1936
  316MOL0     O43473   9.003  11.674   3.667  0.2697 -0.2141 -0.4321
  316MOL0     C43474   8.892  11.614   3.706 -0.0048 -0.0763 -1.0157
  316MOL0     C43475   8.864  11.481   3.670 -0.1859 -0.0839 -0.5214
  316MOL0     C43476   8.746  11.425   3.706  0.4468  1.0672  0.1364
  316MOL0     C43477   8.659  11.491   3.794 -0.4292 -0.6333  0.4272
  316MOL0     O43478   8.538  11.435   3.842 -0.0874 -0.0234 -0.0940
  316MOL0     C43479   8.545  11.294   3.871 -0.3439 -0.0361  0.3008
  316MOL0     C43480   8.416  11.232   3.903  0.7772  0.3905  0.5394
  316MOL0     C43481   8.323  11.281   4.025 -0.5001  0.0534 -0.2104
  316MOL0     C43482   8.389  11.254   4.166 -0.8308 -0.7793 -1.0991
  316MOL0     C43483   8.298  11.272   4.283 -0.2354  0.3597  0.1683
  316MOL0     C43484   8.203  11.155   4.309 -0.1083 -0.7966 -0.6843
  316MOL0     C43485   8.118  11.179   4.437 -0.0099 -0.5986 -0.1833
  316MOL0     C43486   8.010  11.282   4.418  0.6295 -0.0611  0.8563
  316MOL0     N43487   7.952  11.325   4.546  0.2241  0.0384 -0.6299
  316MOL0     C43488   7.910  11.234   4.643  0.5859 -0.6351 -0.8381
  316MOL0     C43489   7.866  11.309   4.746  0.0540  0.4887 -0.4022
  316MOL0     C43490   7.804  11.270   4.879 -1.0223  0.1710  0.1577
  316MOL0     C43491   7.667  11.322   4.916  0.4476 -0.3432  0.3073
  316MOL0     C43492   7.624  11.283   5.066  0.3337  0.4113  0.8325
  316MOL0     C43493   7.474  11.317   5.096  0.0349 -0.1266 -0.0316
  316MOL0     O43494   7.442  11.326   5.236  0.2763  0.3501  0.1293
  316MOL0     C43495   7.303  11.336   5.271 -0.6523  0.7243  0.7381
  316MOL0     C43496   7.196  11.342   5.182  0.6186  0.2912 -0.2373
  316MOL0     C43497   7.070  11.343   5.230 -0.0819 -0.6926  0.1390
  316MOL0     C43498   6.970  11.369   5.126  0.1800  0.1775  0.2346
  316MOL0     C43499   7.049  11.336   5.374  0.6397 -0.8840  0.2798
  316MOL0     C43500   6.910  11.352   5.436  0.0340  0.4915  0.0281
  316MOL0     O43501   6.900  11.274   5.546  0.3866  0.1757  0.5295
  316MOL0     C43502   6.785  11.255   5.620  0.1029  0.0102  0.0783
  316MOL0     C43503   6.656  11.288   5.575  0.0690  0.0071 -0.0936
  316MOL0     C43504   6.539  11.265   5.657 -0.8500 -0.2993 -0.0913
  316MOL0     C43505   6.561  11.211   5.786 -0.5981 -0.2766  1.2588
  316MOL0     O43506   6.467  11.174   5.869 -0.1738 -0.3384  0.3287
  316MOL0     C43507   6.381  11.278   5.916  0.1311 -0.3532 -0.2318
  316MOL0     C43508   6.332  11.256   6.063  0.5759 -0.0820  1.3632
  316MOL0     C43509   6.207  11.169   6.067  0.9004  0.5086 -0.4430
  316MOL0     C43510   6.178  11.108   6.204 -0.1960 -1.0954  0.3043
  316MOL0     C43511   6.043  11.053   6.218  0.5851  1.0096  0.7153
  316MOL0     C43512   6.004  11.043   6.364  0.1601 -0.2592 -0.4713
  316MOL0     C43513   5.871  10.966   6.378 -1.4138  1.1651 -0.1300
  316MOL0     C43514   5.847  10.937   6.521  0.2936 -0.1543 -0.4995
  316MOL0    Cl43515   5.797  11.088   6.608 -0.1086 -0.8513 -0.7125
  316MOL0     C43516   6.686  11.156   5.813  0.5317 -0.7697 -0.3329
  316MOL0     C43517   6.802  11.179   5.734 -0.6627 -0.9844  1.1163
  316MOL0     O43518   6.828  11.427   5.389  0.1839 -0.6434 -0.4248
  316MOL0     C43519   7.147  11.310   5.461  0.3026 -0.2696 -0.2627
  316MOL0     C43520   7.281  11.306   5.410  0.6353  0.6023 -0.2842
  316MOL0     N43521   7.887  11.441   4.709  0.4563 -0.7276 -0.7652
  316MOL0     N43522   7.943  11.451   4.596 -0.6939 -0.3598  0.6219
  316MOL0     C43523   8.690  11.617   3.834 -0.6078  0.0709  0.0813
  316MOL0     C43524   8.803  11.681   3.789  0.2217  0.0378  0.7576
  316MOL0     C43525   9.238  11.672   3.606 -0.1406  0.1883  0.3715
  316MOL0     C43526   9.343  11.583   3.586 -0.0215 -0.3687  0.5262
  316MOL0     C43527   9.452  11.634   3.517 -0.1073 -0.5198  0.3380
  316MOL0     C43528   9.463  11.760   3.473  0.0562 -0.5604 -0.7750
  316MOL0     O43529   9.563  11.809   3.395  0.0783 -0.0068 -0.5051
  316MOL0     C43530   9.630  11.929   3.427  0.9861  0.5461  0.1291
  316MOL0     C43531   9.667  12.002   3.296  0.2907 -0.2835 -1.1070
  316MOL0     C43532   9.744  11.920   3.201 -0.4995  0.1560  0.0325
  316MOL0     C43533   9.767  11.990   3.068  0.2397 -0.2775  0.2390
  316MOL0     C43534   9.860  11.929   2.979  0.1344 -1.1617 -0.1829
  316MOL0     C43535   9.941  11.872   2.910  0.3232  0.3152 -0.5514
  316MOL0     C43536   9.362  11.848   3.506 -0.0724 -0.0330  0.0555
  316MOL0     C43537   9.251  11.810   3.578  0.1412  1.0322  0.1087
  316MOL0     C43538   9.153  11.914   3.643  0.2396  0.5237  0.0419
  316MOL0     H43539   8.929  11.416   3.613  0.0134 -0.7963  0.4916
  316MOL0     H43540   8.706  11.334   3.662 -3.0562  1.6248  1.7914
  316MOL0     H43541   8.605  11.282   3.962  1.1493 -2.6274 -0.9393
  316MOL0     H43542   8.593  11.236   3.792  1.0267  1.2190  0.1575
  316MOL0     H43543   8.350  11.255   3.819 -0.0740 -0.3292  0.9892
  316MOL0     H43544   8.442  11.126   3.910  0.1062 -0.1648 -3.1662
  316MOL0     H43545   8.293  11.385   4.011 -3.9111 -0.4947  2.0262
  316MOL0     H43546   8.226  11.231   4.025  0.1597 -1.3580  1.7407
  316MOL0     H43547   8.420  11.149   4.172  0.2538 -0.3879  2.0764
  316MOL0     H43548   8.479  11.316   4.170 -0.4508 -1.4026  0.6264
  316MOL0     H43549   8.238  11.359   4.258  1.5748  1.6131 -0.0400
  316MOL0     H43550   8.360  11.293   4.371 -0.3840  0.6301  0.2081
  316MOL0     H43551   8.141  11.140   4.220 -3.3431  1.7145  0.9571
  316MOL0     H43552   8.254  11.060   4.327  0.8452  0.0321  1.3689
  316MOL0     H43553   8.181  11.197   4.525  0.4903 -0.4915 -0.5624
  316MOL0     H43554   8.068  11.085   4.464 -0.2507 -0.1581  0.9861
  316MOL0     H43555   8.051  11.370   4.367  1.6219 -0.6950  0.5125
  316MOL0     H43556   7.929  11.247   4.354  1.4470 -1.0802  0.3438
  316MOL0     H43557   7.908  11.126   4.641 -0.9079 -0.6855  0.8914
  316MOL0     H43558   7.874  11.301   4.957  2.8305  2.6396 -3.8582
  316MOL0     H43559   7.798  11.163   4.901  1.1405  0.1024  0.6922
  316MOL0     H43560   7.662  11.431   4.911 -0.9605 -0.2223  2.7141
  316MOL0     H43561   7.590  11.286   4.848  0.4028 -0.7799  0.5853
  316MOL0     H43562   7.628  11.174   5.068 -2.5296  0.2287  2.9800
  316MOL0     H43563   7.702  11.317   5.133  0.4680  1.6271  0.0879
  316MOL0     H43564   7.463  11.423   5.072  2.9326  0.2138 -0.1727
  316MOL0     H43565   7.411  11.245   5.044  0.3119  0.7623 -1.6522
  316MOL0     H43566   7.215  11.341   5.075  1.8338 -0.3224 -0.0352
  316MOL0     H43567   6.991  11.463   5.074 -1.0563 -1.7492 -4.1826
  316MOL0     H43568   6.864  11.378   5.151 -0.3785 -0.5748 -1.7245
  316MOL0     H43569   6.966  11.295   5.046 -2.5542 -1.1566  1.4649
  316MOL0     H43570   6.637  11.344   5.484  0.5765  2.1274  1.0621
  316MOL0     H43571   6.444  11.288   5.611 -0.4849  0.1835 -0.6279
  316MOL0     H43572   6.430  11.375   5.910  2.1718 -1.1870  1.6543
  316MOL0     H43573   6.286  11.276   5.860 -0.0235  1.2484 -0.0659
  316MOL0     H43574   6.409  11.191   6.107  0.7701 -2.5959 -2.2702
  316MOL0     H43575   6.311  11.346   6.121  3.5356  2.7776 -1.5567
  316MOL0     H43576   6.199  11.095   5.986 -4.3023  1.5318 -1.1913
  316MOL0     H43577   6.125  11.234   6.036  0.6958  2.6802  4.0115
  316MOL0     H43578   6.195  11.188   6.276 -3.1021  0.0108 -0.1296
  316MOL0     H43579   6.250  11.028   6.228  2.9263  1.5845  0.6521
  316MOL0     H43580   5.969  11.113   6.163  2.3256 -0.0112 -3.1234
  316MOL0     H43581   6.046  10.949   6.185 -0.7059 -0.2819  4.2046
  316MOL0     H43582   5.994  11.143   6.406 -3.2640  1.2058 -4.1437
  316MOL0     H43583   6.093  10.998   6.408  0.7883  0.6787 -0.7617
  316MOL0     H43584   5.884  10.867   6.333 -1.1157  1.2018 -0.1325
  316MOL0     H43585   5.786  11.016   6.332 -3.7607 -0.2640  2.3959
  316MOL0     H43586   5.934  10.904   6.578 -0.0804 -0.2234  0.0452
  316MOL0     H43587   5.762  10.868   6.524 -0.1639  0.2561 -2.6011
  316MOL0     H43588   6.697  11.103   5.907  0.3344  0.7392  0.5777
  316MOL0     H43589   6.900  11.144   5.762  1.6372  1.7056 -2.5598
  316MOL0     H43590   7.130  11.311   5.568 -0.1007  1.1970 -0.3274
  316MOL0     H43591   7.364  11.293   5.480  1.1209  2.8126 -0.3908
  316MOL0     H43592   8.612  11.663   3.894 -2.9856 -2.4705 -0.8730
  316MOL0     H43593   8.812  11.786   3.817  0.3100  0.3159 -0.2652
  316MOL0     H43594   9.348  11.483   3.627 -0.4847 -1.3917 -1.7681
  316MOL0     H43595   9.537  11.572   3.487 -0.2534 -0.4525 -0.2194
  316MOL0     H43596   9.581  11.996   3.498  2.9490  2.9397 -0.6391
  316MOL0     H43597   9.722  11.893   3.474 -0.6606 -2.7960  1.0817
  316MOL0     H43598   9.712  12.099   3.318 -1.8782  1.0316 -2.0757
  316MOL0     H43599   9.569  12.035   3.260  0.2050  1.6707  0.7517
  316MOL0     H43600   9.837  11.883   3.246 -1.4967 -0.4495  1.6924
  316MOL0     H43601   9.695  11.824   3.181  2.4388 -1.4861  0.0472
  316MOL0     H43602   9.788  12.096   3.088 -1.2378  0.9412 -3.7023
  316MOL0     H43603   9.669  11.976   3.022  0.9023  0.5688 -1.5075
  316MOL0     H43604  10.020  11.816   2.863  2.3808  2.6356 -0.0286
  316MOL0     H43605   9.362  11.948   3.465 -5.3831  0.3304  0.2157
  316MOL0     H43606   9.155  11.909   3.752  0.9999  0.8033  0.0474
  316MOL0     H43607   9.203  12.008   3.618  0.7386  0.5669  1.1835
  316MOL0     H43608   9.052  11.925   3.601 -0.5231 -2.2079  0.9251
  317MOL0     O43609   8.297   4.714  11.323 -0.5960 -0.2434 -0.3693
  317MOL0     C43610   8.353   4.650  11.416  0.5240  0.9954 -0.6827
  317MOL0     O43611   8.386   4.703  11.533 -0.7335 -0.0746 -0.6322
  317MOL0     C43612   8.324   4.810  11.604  0.0815  0.5768 -0.1267
  317MOL0     C43613   8.215   4.882  11.561  0.2455 -0.1034  0.7992
  317MOL0     C43614   8.146   4.977  11.647 -0.7098  0.1730  0.8626
  317MOL0     C43615   8.202   5.007  11.771  0.2746 -0.1483 -0.0660
  317MOL0     O43616   8.135   5.094  11.854  0.1216 -0.4594 -0.0565
  317MOL0     C43617   8.125   5.048  11.999  0.7902  1.4339 -0.3370
  317MOL0     C43618   8.007   5.118  12.075 -0.3402 -0.8974 -0.0121
  317MOL0     C43619   8.013   5.272  12.063 -0.3730  0.5319  0.0736
  317MOL0     C43620   7.904   5.334  12.157  0.5683 -0.5259  0.3954
  317MOL0     C43621   7.930   5.322  12.310 -0.1264  0.7058 -0.2358
  317MOL0     C43622   7.824   5.386  12.390  0.6306 -0.2500  0.1089
  317MOL0     C43623   7.864   5.419  12.535 -0.4771  0.4539  0.4753
  317MOL0     C43624   7.958   5.539  12.544 -1.1060 -0.0727 -1.5324
  317MOL0     N43625   7.975   5.594  12.682 -0.1592 -0.1479 -0.2526
  317MOL0     C43626   8.059   5.531  12.776 -0.2352  0.8202  0.4609
  317MOL0     C43627   8.066   5.620  12.879 -0.6472  0.0788  0.6923
  317MOL0     C43628   8.171   5.615  12.977 -0.0569  0.4401  0.6393
  317MOL0     C43629   8.102   5.555  13.109 -0.0172  0.0687 -0.2546
  317MOL0     C43630   8.205   5.550  13.218 -0.5056 -0.1797  0.6983
  317MOL0     C43631   8.148   5.527  13.358  1.4809  0.7590 -0.5659
  317MOL0     O43632   8.039   5.434  13.360  0.1392  0.3942 -0.0177
  317MOL0     C43633   8.006   5.384  13.491  0.7799  0.9049 -0.0135
  317MOL0     C43634   7.876   5.383  13.520 -0.3121  0.1665  0.1451
  317MOL0     C43635   7.825   5.350  13.650  0.0724 -0.9636  1.2323
  317MOL0     C43636   7.677   5.379  13.669  0.0906 -0.0961  0.5680
  317MOL0     C43637   7.920   5.296  13.739  0.0153  0.3853 -0.8813
  317MOL0     C43638   7.868   5.242  13.875 -1.2988 -0.2240 -0.6807
  317MOL0     O43639   7.966   5.233  13.968  0.0639 -0.4044  0.2360
  317MOL0     C43640   7.934   5.217  14.097 -0.5446  0.3034  0.5279
  317MOL0     C43641   7.850   5.299  14.174  0.8982  0.0588  0.0540
  317MOL0     C43642   7.832   5.274  14.304  0.4464  0.2049 -0.1088
  317MOL0     C43643   7.898   5.165  14.369 -0.4652 -0.2614 -0.4831
  317MOL0     O43644   7.890   5.162  14.506  0.8514  0.3435  0.8183
  317MOL0     C43645   8.009   5.200  14.579 -0.2356  0.2170 -0.0796
  317MOL0     C43646   8.019   5.349  14.575 -0.6260 -0.2989  0.6301
  317MOL0     C43647   7.890   5.419  14.631  0.3470  0.0636 -0.0855
  317MOL0     C43648   7.908   5.562  14.672 -0.1946 -0.8421  0.6016
  317MOL0     C43649   7.793   5.616  14.761  0.9173  0.2832 -0.9311
  317MOL0     C43650   7.799   5.764  14.791 -0.3497  0.7797  0.1925
  317MOL0     C43651   7.720   5.809  14.910  0.7215  0.6450  0.5874
  317MOL0     C43652   7.573   5.772  14.903 -0.3536 -0.0884 -0.0419
  317MOL0    Cl43653   7.482   5.824  14.757  0.2313  0.0268 -0.4505
  317MOL0     C43654   7.986   5.089  14.292  0.1007 -0.6272 -0.4489
  317MOL0     C43655   8.008   5.114  14.157  0.0552  0.1278  1.1846
  317MOL0     O43656   7.752   5.219  13.891  0.0861 -0.8156  0.0153
  317MOL0     C43657   8.057   5.297  13.710  0.1341 -0.1827 -0.7605
  317MOL0     C43658   8.100   5.336  13.583 -0.0897 -0.5622 -0.6084
  317MOL0     N43659   7.973   5.721  12.851  0.5890  0.2697  0.5072
  317MOL0     N43660   7.926   5.709  12.729 -0.2627  0.0098 -0.7024
  317MOL0     C43661   8.318   4.937  11.813  1.4034  0.1974  0.0619
  317MOL0     C43662   8.372   4.837  11.728 -1.0293 -0.3965 -0.4699
  317MOL0     C43663   8.403   4.510  11.375  0.1696  0.8383 -0.7569
  317MOL0     C43664   8.505   4.464  11.461  0.2391 -0.4293 -0.9288
  317MOL0     C43665   8.552   4.330  11.448 -0.7557 -0.5306  0.5847
  317MOL0     C43666   8.510   4.251  11.338  1.1986  0.2211 -0.8525
  317MOL0     O43667   8.593   4.145  11.311 -0.3387  0.3828 -0.5138
  317MOL0     C43668   8.579   4.081  11.181  0.6036  0.8279  0.3817
  317MOL0     C43669   8.705   3.996  11.155 -0.2629 -0.3785  0.9921
  317MOL0     C43670   8.741   3.897  11.262  0.3463 -0.2975  0.6610
  317MOL0     C43671   8.827   3.798  11.199 -1.2007  0.3322  0.4676
  317MOL0     C43672   8.855   3.689  11.286 -0.1759  0.4072  0.4058
  317MOL0     C43673   8.863   3.597  11.370  0.7116 -0.7073  0.1322
  317MOL0     C43674   8.400   4.300  11.267  0.5659 -0.6675 -0.1559
  317MOL0     C43675   8.345   4.433  11.274  0.1663  0.2581  0.3367
  317MOL0     C43676   8.241   4.471  11.169  0.1692 -0.0801  0.5809
  317MOL0     H43677   8.173   4.866  11.462  2.6142 -2.3007  0.0364
  317MOL0     H43678   8.057   5.023  11.606 -0.7604 -0.7253 -0.0856
  317MOL0     H43679   8.220   5.077  12.045 -1.1912  2.8954  3.2460
  317MOL0     H43680   8.114   4.939  12.001 -0.9763  1.5854  0.3209
  317MOL0     H43681   7.916   5.084  12.024 -1.4245  0.7729  0.7048
  317MOL0     H43682   8.012   5.092  12.181  0.1560 -3.5658 -0.6272
  317MOL0     H43683   8.118   5.285  12.093 -0.2116 -1.9464  0.8277
  317MOL0     H43684   8.002   5.295  11.957  1.3361 -1.4673 -0.6207
  317MOL0     H43685   7.892   5.440  12.132 -0.4844 -0.9210 -0.8604
  317MOL0     H43686   7.810   5.287  12.128  0.1204  1.6659 -2.1267
  317MOL0     H43687   8.032   5.361  12.323  1.1161 -1.7428 -1.9593
  317MOL0     H43688   7.941   5.217  12.337  0.8240  0.9036  0.2006
  317MOL0     H43689   7.785   5.475  12.339 -2.4156  0.1152  2.7398
  317MOL0     H43690   7.732   5.328  12.391 -3.3680  5.1430 -2.4305
  317MOL0     H43691   7.894   5.327  12.587 -2.0440  0.2179  1.0236
  317MOL0     H43692   7.770   5.451  12.580 -1.8544 -1.4656 -0.8917
  317MOL0     H43693   8.053   5.497  12.508 -1.6077 -1.4064 -1.3375
  317MOL0     H43694   7.927   5.617  12.473 -0.6948 -0.7101 -2.4336
  317MOL0     H43695   8.108   5.434  12.765 -1.2718  0.3111  0.1229
  317MOL0     H43696   8.208   5.715  12.999 -1.0542  0.3729  3.0759
  317MOL0     H43697   8.255   5.558  12.936  1.7948  0.1206  4.3647
  317MOL0     H43698   8.020   5.625  13.124  0.2906  1.3140 -3.6962
  317MOL0     H43699   8.076   5.449  13.097 -0.6679 -0.0303  1.6430
  317MOL0     H43700   8.282   5.474  13.203  2.4667  2.9499 -1.3756
  317MOL0     H43701   8.261   5.644  13.220  0.6450 -0.8126 -0.5113
  317MOL0     H43702   8.223   5.497  13.431  1.7917  2.7683  0.0051
  317MOL0     H43703   8.117   5.624  13.398 -0.9912  0.0234 -0.5539
  317MOL0     H43704   7.809   5.403  13.437 -1.0892  2.1237  1.1742
  317MOL0     H43705   7.651   5.420  13.767 -1.7273 -1.5880  0.7748
  317MOL0     H43706   7.619   5.286  13.669  0.5164 -0.3762  1.4620
  317MOL0     H43707   7.643   5.447  13.591  2.1329  0.7579  0.3747
  317MOL0     H43708   7.816   5.393  14.132  0.7325  0.3490  0.8082
  317MOL0     H43709   7.784   5.354  14.361  3.3400  2.4161 -0.5200
  317MOL0     H43710   7.996   5.160  14.680  1.3132 -0.5605 -0.1621
  317MOL0     H43711   8.096   5.160  14.525 -2.1217 -0.8190 -2.5757
  317MOL0     H43712   8.093   5.390  14.644 -1.6102  1.4884  0.6942
  317MOL0     H43713   8.048   5.377  14.474  0.6193 -1.7923  0.5486
  317MOL0     H43714   7.850   5.364  14.717  0.0039  0.3981 -0.0298
  317MOL0     H43715   7.812   5.410  14.555  1.9212 -0.5884 -1.7074
  317MOL0     H43716   7.917   5.633  14.589 -0.3570  3.0189  3.6023
  317MOL0     H43717   8.000   5.571  14.730 -0.0006  1.4368  0.0264
  317MOL0     H43718   7.691   5.594  14.727 -1.5172 -0.1634  5.3936
  317MOL0     H43719   7.803   5.554  14.850 -0.9941  0.0593 -0.8208
  317MOL0     H43720   7.774   5.827  14.705  0.0516 -0.8702 -1.1869
  317MOL0     H43721   7.906   5.784  14.805  0.4546 -1.8544 -1.5309
  317MOL0     H43722   7.737   5.914  14.931  1.5599  0.4289  1.0289
  317MOL0     H43723   7.766   5.766  14.999 -0.0081 -0.0417  0.6501
  317MOL0     H43724   7.526   5.809  14.995  3.2678  0.1563  1.8813
  317MOL0     H43725   7.570   5.663  14.900  2.9318 -0.2739 -0.6085
  317MOL0     H43726   8.036   5.000  14.327 -1.6049 -0.8898  1.5049
  317MOL0     H43727   8.079   5.056  14.098  0.9537  0.8641  1.5118
  317MOL0     H43728   8.140   5.264  13.772 -0.8631  0.6574  1.1163
  317MOL0     H43729   8.207   5.325  13.565  0.1767 -1.4247  1.2193
  317MOL0     H43730   8.362   4.951  11.911 -0.2780 -1.9538  1.2091
  317MOL0     H43731   8.448   4.772  11.768 -0.4893 -0.6602 -1.8703
  317MOL0     H43732   8.542   4.518  11.547 -2.3123 -3.1022  2.1231
  317MOL0     H43733   8.630   4.274  11.499  1.2895 -0.8106 -2.5540
  317MOL0     H43734   8.492   4.016  11.173  1.0981  0.3678 -1.8861
  317MOL0     H43735   8.559   4.158  11.106 -0.4272  1.9121  1.7035
  317MOL0     H43736   8.789   4.066  11.154 -1.3370  0.9583  1.3404
  317MOL0     H43737   8.693   3.955  11.054 -0.9269  1.1820  0.3872
  317MOL0     H43738   8.789   3.949  11.345  2.7828 -2.5070  0.7590
  317MOL0     H43739   8.649   3.852  11.300  1.5735 -3.9576 -0.2477
  317MOL0     H43740   8.920   3.847  11.170 -1.9647  1.5231 -0.0133
  317MOL0     H43741   8.777   3.770  11.107  0.3090  1.1444 -0.6429
  317MOL0     H43742   8.866   3.519  11.443  2.6965 -0.2078  0.6631
  317MOL0     H43743   8.352   4.243  11.188  4.7664  0.0060 -3.5954
  317MOL0     H43744   8.144   4.466  11.221  0.9691 -1.1160  2.0475
  317MOL0     H43745   8.256   4.564  11.115  1.6693 -1.4258 -1.4640
  317MOL0     H43746   8.242   4.391  11.094 -0.8997 -1.9407  2.4210
  318MOL0     O43747  11.068   2.715   8.834 -0.3352 -0.0509 -0.3314
  318MOL0     C43748  11.168   2.783   8.813 -0.9610 -0.3843 -1.2979
  318MOL0     O43749  11.172   2.909   8.749  0.0997 -0.3284 -0.3706
  318MOL0     C43750  11.062   2.976   8.727  0.5768 -0.1027 -0.1052
  318MOL0     C43751  10.978   3.020   8.829  0.5088 -0.8130 -0.0195
  318MOL0     C43752  10.845   3.065   8.801 -0.1566 -0.5145  0.3337
  318MOL0     C43753  10.803   3.072   8.663 -0.2333 -0.6353  0.6523
  318MOL0     O43754  10.679   3.122   8.645 -0.9066 -0.1750  0.2532
  318MOL0     C43755  10.583   3.048   8.562  0.4652  0.6212 -0.7579
  318MOL0     C43756  10.466   2.980   8.644 -1.2218 -0.3160  0.1078
  318MOL0     C43757  10.518   2.887   8.759 -0.5668  0.4607 -0.0435
  318MOL0     C43758  10.601   2.769   8.697 -0.4306 -0.8294  0.4164
  318MOL0     C43759  10.679   2.702   8.806  0.0615 -0.3007 -0.2148
  318MOL0     C43760  10.720   2.555   8.767 -0.8941  0.0924  0.0750
  318MOL0     C43761  10.803   2.483   8.876  0.1069 -0.0643 -0.8318
  318MOL0     C43762  10.712   2.432   8.990  0.1494  0.1054 -0.7748
  318MOL0     N43763  10.621   2.330   8.941  0.4162  0.0652 -0.5764
  318MOL0     C43764  10.490   2.361   8.898 -0.7139 -0.3866 -0.1390
  318MOL0     C43765  10.459   2.244   8.835  0.9110  0.2165  0.1705
  318MOL0     C43766  10.324   2.231   8.778 -0.3759  0.5180 -0.3842
  318MOL0     C43767  10.309   2.312   8.657  0.1913 -0.0913  0.2422
  318MOL0     C43768  10.204   2.237   8.560  0.4376  0.0015  0.2018
  318MOL0     C43769  10.127   2.339   8.490 -0.0076 -0.1428  1.4569
  318MOL0     O43770  10.032   2.404   8.571 -0.2342 -0.0589 -0.2356
  318MOL0     C43771   9.964   2.520   8.529 -0.1632 -1.0041  0.3770
  318MOL0     C43772  10.003   2.633   8.602  0.3138 -0.7572  0.0769
  318MOL0     C43773   9.955   2.765   8.563 -0.2609 -0.0900  0.1851
  318MOL0     C43774  10.000   2.877   8.646  0.0745  0.1440  0.6722
  318MOL0     C43775   9.864   2.779   8.453  0.1759 -0.1530 -0.1104
  318MOL0     C43776   9.789   2.909   8.433  1.1189 -0.0022  0.5909
  318MOL0     O43777   9.862   3.016   8.404 -0.5762 -0.2841  0.1198
  318MOL0     C43778   9.806   3.137   8.401 -0.5574  0.0125  0.5345
  318MOL0     C43779   9.715   3.184   8.303 -0.0745  0.3496 -0.6484
  318MOL0     C43780   9.676   3.317   8.295  0.6703  0.3149  0.4470
  318MOL0     C43781   9.713   3.411   8.391  0.4811 -0.2422 -0.0842
  318MOL0     O43782   9.670   3.546   8.394  0.4947  0.0269 -0.2571
  318MOL0     C43783   9.558   3.595   8.319 -0.9975  0.8543 -0.0998
  318MOL0     C43784   9.558   3.739   8.354  0.7869  0.1511  0.0965
  318MOL0     C43785   9.673   3.831   8.312  0.3600  0.2611  0.4558
  318MOL0     C43786   9.648   3.976   8.359  1.2893  0.3445  0.9120
  318MOL0     C43787   9.753   4.070   8.318  0.7814  0.2042 -0.6358
  318MOL0     C43788   9.697   4.212   8.352 -0.4171 -0.0036 -0.2193
  318MOL0     C43789   9.803   4.323   8.373  0.6096  0.0809 -0.2424
  318MOL0     C43790   9.840   4.373   8.243 -0.1558  0.4581  0.1160
  318MOL0    Cl43791   9.995   4.302   8.201  0.2039 -0.3249 -0.3789
  318MOL0     C43792   9.803   3.369   8.493  0.8911 -0.7251  0.0091
  318MOL0     C43793   9.852   3.238   8.494 -0.4805 -0.3678 -0.4673
  318MOL0     O43794   9.665   2.903   8.431  0.2378 -0.3875 -0.4149
  318MOL0     C43795   9.828   2.659   8.388  1.1697  0.4115 -0.5316
  318MOL0     C43796   9.884   2.526   8.424 -0.0687 -0.9857 -0.0894
  318MOL0     N43797  10.550   2.147   8.848 -0.2682 -0.2744 -0.0603
  318MOL0     N43798  10.645   2.200   8.917 -0.2990  0.0052  0.0308
  318MOL0     C43799  10.895   3.040   8.560  0.0533  0.2398  0.1188
  318MOL0     C43800  11.021   2.991   8.601  0.0103  0.1566  0.8200
  318MOL0     C43801  11.302   2.725   8.851  0.4712  0.0071  0.5770
  318MOL0     C43802  11.343   2.601   8.802  0.3179  0.4101  0.1334
  318MOL0     C43803  11.479   2.566   8.797 -0.8045 -0.7720 -0.1231
  318MOL0     C43804  11.578   2.644   8.858  0.1031  0.5388  0.4670
  318MOL0     O43805  11.704   2.599   8.850 -0.0357  0.0118  0.5987
  318MOL0     C43806  11.817   2.682   8.869  0.1307  0.5179  0.0912
  318MOL0     C43807  11.864   2.739   8.739  0.4048  0.2606  0.0593
  318MOL0     C43808  12.001   2.804   8.752 -0.2167 -0.4022  0.3891
  318MOL0     C43809  12.030   2.890   8.624  0.4798 -0.4031 -0.0415
  318MOL0     C43810  12.166   2.939   8.612 -0.2548  0.1146  1.8585
  318MOL0     C43811  12.276   2.983   8.639  0.2051 -0.3982 -0.5560
  318MOL0     C43812  11.534   2.764   8.918  0.0807 -0.0485  0.6594
  318MOL0     C43813  11.395   2.808   8.925  0.0457 -0.2890  0.5745
  318MOL0     C43814  11.348   2.916   9.002  0.5281 -0.1744 -0.3340
  318MOL0     H43815  11.025   3.032   8.927  2.0625  1.6363 -0.9603
  318MOL0     H43816  10.771   3.098   8.873  0.3385  0.3365  0.4678
  318MOL0     H43817  10.636   2.970   8.507 -0.6397  1.1486 -2.6498
  318MOL0     H43818  10.537   3.117   8.491 -2.3958  0.1750  0.5292
  318MOL0     H43819  10.419   3.066   8.691 -0.4719  0.0166  0.2761
  318MOL0     H43820  10.404   2.922   8.575 -1.0929 -2.2164  1.5211
  318MOL0     H43821  10.571   2.943   8.836  1.9561 -2.5669  0.6474
  318MOL0     H43822  10.432   2.845   8.812 -0.3790 -0.0264 -0.1166
  318MOL0     H43823  10.530   2.705   8.645  0.3061 -0.4164 -1.1981
  318MOL0     H43824  10.678   2.811   8.631  0.2409  1.5097  2.5246
  318MOL0     H43825  10.608   2.690   8.889  0.5599  0.5648  0.3553
  318MOL0     H43826  10.759   2.764   8.847  0.6691 -0.7282 -0.7443
  318MOL0     H43827  10.634   2.503   8.725  0.6543 -1.2318 -1.5855
  318MOL0     H43828  10.789   2.550   8.683 -0.2287 -1.5663  0.6761
  318MOL0     H43829  10.876   2.551   8.923  1.0183  0.0050 -2.2802
  318MOL0     H43830  10.853   2.391   8.842 -1.1310 -1.8061  1.7340
  318MOL0     H43831  10.752   2.388   9.081 -4.3664  1.9837  2.4762
  318MOL0     H43832  10.657   2.522   9.018  1.1516  0.7984 -0.9578
  318MOL0     H43833  10.428   2.450   8.903 -3.4966 -2.0351 -2.3527
  318MOL0     H43834  10.258   2.248   8.864 -0.1777 -0.0791 -0.1067
  318MOL0     H43835  10.309   2.126   8.750  1.5647 -0.4322  1.7990
  318MOL0     H43836  10.294   2.418   8.676  1.1887 -0.0736  0.9726
  318MOL0     H43837  10.410   2.316   8.615 -0.0206  2.8346 -0.1901
  318MOL0     H43838  10.247   2.174   8.481  3.9046  0.1719  1.7394
  318MOL0     H43839  10.124   2.183   8.612 -0.5254  0.2746 -0.9556
  318MOL0     H43840  10.176   2.418   8.433 -1.8438 -0.1259 -0.2182
  318MOL0     H43841  10.072   2.280   8.416  1.0657 -1.5482  1.7403
  318MOL0     H43842  10.067   2.621   8.689 -0.5170  1.4081  1.0647
  318MOL0     H43843  10.034   2.960   8.583 -0.8133  0.1742  0.2242
  318MOL0     H43844  10.076   2.841   8.717  1.0337  0.1952 -0.2986
  318MOL0     H43845   9.924   2.923   8.709  2.4250  1.7419  2.5457
  318MOL0     H43846   9.669   3.115   8.233 -1.7665 -1.7193  2.2540
  318MOL0     H43847   9.619   3.347   8.208 -1.0173 -1.2132  0.9299
  318MOL0     H43848   9.571   3.578   8.212 -0.6980  0.8841 -0.0695
  318MOL0     H43849   9.463   3.550   8.349 -0.3487 -1.4618 -1.3108
  318MOL0     H43850   9.466   3.783   8.313  0.9289 -0.0124 -0.4050
  318MOL0     H43851   9.556   3.746   8.463 -1.1452  0.1527  0.0964
  318MOL0     H43852   9.688   3.836   8.204 -1.7304 -2.0613 -0.0244
  318MOL0     H43853   9.770   3.802   8.354  0.8934 -0.9586 -1.4811
  318MOL0     H43854   9.646   3.965   8.468 -2.0114 -1.3547  0.8012
  318MOL0     H43855   9.557   4.008   8.309  0.4492 -5.0544 -1.7732
  318MOL0     H43856   9.844   4.051   8.377  0.0568  2.1968  1.2316
  318MOL0     H43857   9.772   4.048   8.212  1.0941 -1.7415 -0.2128
  318MOL0     H43858   9.658   4.202   8.454 -0.5259  1.6707 -0.0682
  318MOL0     H43859   9.617   4.248   8.288  0.6749  1.5460 -0.7737
  318MOL0     H43860   9.891   4.291   8.431  0.3602 -0.4924 -0.1700
  318MOL0     H43861   9.744   4.398   8.426 -1.7613 -0.3462 -2.0743
  318MOL0     H43862   9.837   4.482   8.256 -1.5063  0.1864  2.5289
  318MOL0     H43863   9.767   4.348   8.165 -3.9776  4.5153  1.9976
  318MOL0     H43864   9.836   3.439   8.569  0.3566  0.1434 -0.5284
  318MOL0     H43865   9.923   3.203   8.569  0.1638  0.3000 -0.7526
  318MOL0     H43866   9.759   2.667   8.305  2.8794  0.7358 -1.9835
  318MOL0     H43867   9.849   2.442   8.366 -0.8025 -0.8797  0.1882
  318MOL0     H43868  10.863   3.063   8.459  0.3462  0.6073  0.1087
  318MOL0     H43869  11.096   2.956   8.532 -2.4224 -2.4995 -0.6929
  318MOL0     H43870  11.271   2.527   8.768 -1.3180  1.3791  1.2906
  318MOL0     H43871  11.495   2.471   8.747  0.9697  0.4037 -1.9068
  318MOL0     H43872  11.803   2.768   8.934  0.4047  2.8974 -2.8018
  318MOL0     H43873  11.895   2.617   8.911 -0.5669 -0.6914 -0.4203
  318MOL0     H43874  11.790   2.814   8.712 -1.8187  0.5266  5.4872
  318MOL0     H43875  11.864   2.661   8.663 -0.0801 -0.0856  0.4084
  318MOL0     H43876  11.993   2.874   8.836 -2.8321  2.1595 -1.7397
  318MOL0     H43877  12.075   2.724   8.758 -1.1853 -1.6527 -2.5510
  318MOL0     H43878  11.967   2.980   8.626 -0.3304 -0.8922 -1.8272
  318MOL0     H43879  11.999   2.846   8.529  0.9328 -0.1490 -0.3132
  318MOL0     H43880  12.369   3.029   8.666  0.7634 -0.9663 -1.4374
  318MOL0     H43881  11.604   2.838   8.956 -0.3725  1.1463 -0.7122
  318MOL0     H43882  11.417   2.930   9.086 -0.4060  3.1697  0.0310
  318MOL0     H43883  11.357   3.007   8.942  4.3192 -0.3223 -0.2293
  318MOL0     H43884  11.247   2.893   9.038 -0.2881  0.5624 -2.0686
  319MOL0     O43885   2.642   4.881   1.885 -0.4431  0.2784 -0.7979
  319MOL0     C43886   2.673   4.764   1.867 -0.9132 -0.1899  0.2995
  319MOL0     O43887   2.602   4.657   1.906 -0.6710 -0.7574  0.4071
  319MOL0     C43888   2.479   4.667   1.965 -0.2348 -0.5303  0.0991
  319MOL0     C43889   2.479   4.703   2.102  0.2659  0.6356  0.5873
  319MOL0     C43890   2.350   4.706   2.169 -0.0469 -0.6644  0.6062
  319MOL0     C43891   2.231   4.663   2.096 -0.4701  0.2985  0.6256
  319MOL0     O43892   2.105   4.660   2.158 -0.4867 -0.5868  0.1643
  319MOL0     C43893   2.013   4.548   2.140 -0.1316  0.0323  0.0139
  319MOL0     C43894   2.060   4.412   2.205 -1.1200  0.1325  0.3169
  319MOL0     C43895   1.954   4.305   2.190 -0.9325  0.1055 -0.1771
  319MOL0     C43896   1.890   4.280   2.323 -0.5250  0.3283  0.1983
  319MOL0     C43897   1.793   4.163   2.314  0.3554  0.2751  0.2898
  319MOL0     C43898   1.715   4.132   2.444  0.3686  0.0973  0.2326
  319MOL0     C43899   1.616   4.011   2.422 -0.8264  0.2231  0.2651
  319MOL0     C43900   1.535   4.004   2.538 -0.1884 -0.9173 -0.1267
  319MOL0     N43901   1.600   3.949   2.653 -0.2397  0.0302 -0.6560
  319MOL0     C43902   1.670   4.027   2.744  0.9735 -0.6884  0.1388
  319MOL0     C43903   1.657   3.971   2.862 -0.2627  0.3927 -0.8637
  319MOL0     C43904   1.688   4.039   2.998  0.0775  0.0827  0.0365
  319MOL0     C43905   1.837   4.043   3.034  0.0169 -0.0077 -0.1788
  319MOL0     C43906   1.860   4.073   3.177  0.1368  0.1622 -0.3430
  319MOL0     C43907   2.001   4.118   3.211  0.9885 -1.4229 -0.4510
  319MOL0     O43908   2.013   4.249   3.163 -0.9425 -0.5858 -0.7590
  319MOL0     C43909   2.137   4.312   3.172  0.6712  0.6336  0.9940
  319MOL0     C43910   2.144   4.449   3.134  0.2745 -0.5383  0.2960
  319MOL0     C43911   2.260   4.521   3.130 -0.0180 -0.3827 -0.1181
  319MOL0     C43912   2.248   4.663   3.079  0.8991 -0.5476 -0.4266
  319MOL0     C43913   2.375   4.464   3.186 -0.2554  0.8885  0.2910
  319MOL0     C43914   2.491   4.538   3.217  0.2085 -0.8510 -0.6547
  319MOL0     O43915   2.601   4.490   3.164  0.5701  0.0771  0.5842
  319MOL0     C43916   2.728   4.544   3.190  0.3209  0.4909  0.2643
  319MOL0     C43917   2.805   4.559   3.080 -0.5313 -0.6070 -0.0671
  319MOL0     C43918   2.939   4.607   3.090  0.4277 -0.6644 -0.1432
  319MOL0     C43919   2.996   4.628   3.216  0.5558  0.6273 -0.4718
  319MOL0     O43920   3.130   4.647   3.229  0.6619 -0.2041  0.9167
  319MOL0     C43921   3.197   4.554   3.311  0.2051  0.4347 -0.3340
  319MOL0     C43922   3.332   4.518   3.257  0.5548 -0.5331 -0.3423
  319MOL0     C43923   3.330   4.401   3.157 -0.6341  0.4877 -0.0035
  319MOL0     C43924   3.317   4.266   3.233 -0.2986 -0.9053 -0.5519
  319MOL0     C43925   3.358   4.142   3.159  0.8426  0.1802  0.2721
  319MOL0     C43926   3.294   4.022   3.228 -0.2306  0.1936 -0.4926
  319MOL0     C43927   3.336   3.991   3.376 -0.5156  0.9156 -0.5179
  319MOL0     C43928   3.238   3.887   3.430  0.1595  0.6579 -0.1490
  319MOL0    Cl43929   3.070   3.949   3.421  0.1329  0.0114  0.5871
  319MOL0     C43930   2.903   4.637   3.320 -0.4073 -0.8688  0.5229
  319MOL0     C43931   2.770   4.599   3.313  0.5631 -0.5050  0.4350
  319MOL0     O43932   2.483   4.636   3.289 -0.1981 -0.8859 -0.3639
  319MOL0     C43933   2.373   4.326   3.231  0.1302  0.1144  0.5187
  319MOL0     C43934   2.253   4.254   3.224 -0.4936 -0.1024  0.0664
  319MOL0     N43935   1.591   3.854   2.838  0.7625 -0.6682 -0.0573
  319MOL0     N43936   1.560   3.841   2.715  0.8648  0.0284  0.3575
  319MOL0     C43937   2.243   4.638   1.962 -0.2065  0.4411  0.7735
  319MOL0     C43938   2.368   4.624   1.896 -0.2801 -0.1828 -0.0062
  319MOL0     C43939   2.807   4.731   1.810  0.3226 -0.6741 -0.2447
  319MOL0     C43940   2.867   4.617   1.858  0.1088 -0.5340 -0.0905
  319MOL0     C43941   3.001   4.583   1.815  0.0408  0.1022 -0.2537
  319MOL0     C43942   3.062   4.668   1.719 -0.3512  0.0037 -0.3557
  319MOL0     O43943   3.179   4.639   1.664 -0.1161 -0.4580  0.3999
  319MOL0     C43944   3.264   4.525   1.704  0.1246  0.5391 -0.3832
  319MOL0     C43945   3.395   4.518   1.619  0.2744 -0.2251 -0.8396
  319MOL0     C43946   3.488   4.637   1.650 -0.8513  0.0386  0.3173
  319MOL0     C43947   3.609   4.637   1.555  0.6693  0.5612  0.7446
  319MOL0     C43948   3.704   4.524   1.581 -0.3739 -1.1601  0.8074
  319MOL0     C43949   3.782   4.428   1.574  1.0065  0.4762  0.5613
  319MOL0     C43950   2.998   4.788   1.672 -0.1736  0.5993 -0.9806
  319MOL0     C43951   2.870   4.816   1.712  0.9555 -0.6018 -1.0120
  319MOL0     C43952   2.805   4.940   1.653 -0.6461  0.1553 -0.2243
  319MOL0     H43953   2.573   4.725   2.151  1.4018 -1.4225 -0.5070
  319MOL0     H43954   2.338   4.746   2.269 -1.3935  1.7668 -0.4465
  319MOL0     H43955   1.995   4.526   2.034 -0.3346  0.6453 -0.0800
  319MOL0     H43956   1.914   4.572   2.180 -1.0711 -2.5064 -0.5648
  319MOL0     H43957   2.147   4.364   2.160 -0.9219 -1.8244  2.5643
  319MOL0     H43958   2.080   4.433   2.311  0.6188 -3.0074  0.7337
  319MOL0     H43959   1.897   4.341   2.105  0.2078  2.2549 -0.0980
  319MOL0     H43960   2.005   4.211   2.166  0.9766  0.5938  1.6592
  319MOL0     H43961   1.959   4.250   2.402 -0.6208  1.2428  0.6432
  319MOL0     H43962   1.848   4.374   2.360 -0.7200  1.1694 -1.9543
  319MOL0     H43963   1.853   4.074   2.291  1.3804  1.0202  0.0160
  319MOL0     H43964   1.725   4.178   2.230  0.6903  1.2097  0.1815
  319MOL0     H43965   1.781   4.103   2.526 -0.1049  0.5406  0.7773
  319MOL0     H43966   1.664   4.226   2.464  2.3629  0.5556  4.0108
  319MOL0     H43967   1.666   3.915   2.405 -0.9297  0.4423 -1.4390
  319MOL0     H43968   1.551   4.027   2.335 -0.1771 -0.6382 -0.4085
  319MOL0     H43969   1.492   4.102   2.561  0.5266 -0.9399  1.3609
  319MOL0     H43970   1.452   3.936   2.513  1.0670 -1.8196 -2.1470
  319MOL0     H43971   1.715   4.124   2.729 -3.6955  1.5180 -1.7420
  319MOL0     H43972   1.637   3.983   3.077  2.6526 -1.1437  0.9324
  319MOL0     H43973   1.637   4.136   2.995 -0.2413 -0.0880 -0.1654
  319MOL0     H43974   1.873   3.940   3.026  0.5586  0.2488 -1.3414
  319MOL0     H43975   1.895   4.098   2.960 -1.0171 -1.1791 -1.9398
  319MOL0     H43976   1.774   4.127   3.216  0.7037 -0.3190  1.7235
  319MOL0     H43977   1.846   3.984   3.239  1.9860  0.4436  0.5575
  319MOL0     H43978   1.993   4.135   3.319 -1.5627 -0.5366 -0.7122
  319MOL0     H43979   2.076   4.044   3.182  0.1489 -1.3819 -3.0093
  319MOL0     H43980   2.054   4.501   3.102  0.9885  0.5426  0.0111
  319MOL0     H43981   2.219   4.718   3.168 -0.3326  0.2814 -1.2995
  319MOL0     H43982   2.162   4.662   3.011  2.8727 -2.1387 -3.1413
  319MOL0     H43983   2.332   4.716   3.034  0.2769 -0.6115 -1.7121
  319MOL0     H43984   2.770   4.525   2.983 -1.6205 -0.8144  0.3851
  319MOL0     H43985   3.008   4.605   3.006 -0.3001 -1.6882 -0.7382
  319MOL0     H43986   3.204   4.581   3.417 -1.9991 -2.3416  0.6411
  319MOL0     H43987   3.148   4.457   3.319  1.6519 -0.2524  0.6048
  319MOL0     H43988   3.370   4.605   3.202  2.4498 -1.3953 -0.4881
  319MOL0     H43989   3.391   4.493   3.346  1.1046  1.1191 -0.2032
  319MOL0     H43990   3.422   4.408   3.098  2.2136 -1.5059  3.7090
  319MOL0     H43991   3.246   4.410   3.088 -1.4649  0.4515  0.9805
  319MOL0     H43992   3.210   4.265   3.257 -0.1464  3.6191  1.4221
  319MOL0     H43993   3.367   4.270   3.330 -3.3799  0.7294  1.1109
  319MOL0     H43994   3.323   4.150   3.056  0.3067 -0.7457  0.3755
  319MOL0     H43995   3.467   4.133   3.170  0.5354 -0.9446  3.3993
  319MOL0     H43996   3.323   3.940   3.162 -0.5017 -0.6203  0.3889
  319MOL0     H43997   3.185   4.033   3.222 -0.6524 -1.9322  1.7128
  319MOL0     H43998   3.337   4.087   3.428  0.4036  1.0965 -0.8446
  319MOL0     H43999   3.438   3.950   3.379 -0.5191  0.6063 -2.6225
  319MOL0     H44000   3.266   3.867   3.534 -4.2816 -1.8999  0.7923
  319MOL0     H44001   3.241   3.797   3.368  0.1047 -0.4074  1.3314
  319MOL0     H44002   2.943   4.675   3.413  0.5029  1.9237 -0.8997
  319MOL0     H44003   2.692   4.614   3.388  1.2301 -0.2394  1.0903
  319MOL0     H44004   2.455   4.268   3.272 -0.0350 -0.7044 -0.2809
  319MOL0     H44005   2.258   4.151   3.257  0.1893  0.0788  0.5665
  319MOL0     H44006   2.168   4.582   1.906  1.4819 -4.2624  2.6920
  319MOL0     H44007   2.382   4.579   1.798  0.3711 -0.0286  0.0110
  319MOL0     H44008   2.822   4.563   1.941  0.1783  1.9601  1.6742
  319MOL0     H44009   3.035   4.485   1.848 -0.0769  0.1220 -0.0773
  319MOL0     H44010   3.285   4.537   1.811 -0.9007 -0.2906 -0.0662
  319MOL0     H44011   3.204   4.433   1.698 -0.7157  1.0681 -0.2049
  319MOL0     H44012   3.369   4.515   1.512 -1.9045 -0.8560 -0.3470
  319MOL0     H44013   3.447   4.424   1.637 -0.7393 -0.5148  0.7558
  319MOL0     H44014   3.424   4.726   1.647 -2.4764 -1.0691  0.6990
  319MOL0     H44015   3.521   4.635   1.754  1.2777  3.3843 -0.1453
  319MOL0     H44016   3.654   4.737   1.550  0.5480  0.5926  0.2003
  319MOL0     H44017   3.551   4.639   1.463 -1.6305  3.2454  2.0823
  319MOL0     H44018   3.843   4.341   1.561 -1.3688 -1.5644  2.1488
  319MOL0     H44019   3.045   4.850   1.596  1.8543 -1.3152 -1.4000
  319MOL0     H44020   2.852   4.985   1.565  1.8082  1.8637  1.8445
  319MOL0     H44021   2.705   4.916   1.614 -0.9271  3.3329 -1.7756
  319MOL0     H44022   2.804   5.026   1.720 -2.7803  0.1830 -0.2210
  320MOL0     O44023   7.729   1.809   4.707 -0.2567 -0.4945  0.6191
  320MOL0     C44024   7.749   1.763   4.592 -0.4007  0.5251  0.0124
  320MOL0     O44025   7.774   1.629   4.578  0.2483 -0.1142  1.0851
  320MOL0     C44026   7.755   1.520   4.666 -0.2204  0.1847  0.0214
  320MOL0     C44027   7.786   1.389   4.617  0.2257 -1.1477 -0.3506
  320MOL0     C44028   7.740   1.281   4.688 -0.5773 -0.5590 -0.8094
  320MOL0     C44029   7.685   1.290   4.818 -0.7905  1.0801  0.4692
  320MOL0     O44030   7.645   1.183   4.895  0.9797 -0.0859  0.2934
  320MOL0     C44031   7.761   1.105   4.940  0.3164 -0.5338  0.0104
  320MOL0     C44032   7.821   1.179   5.060 -1.4971 -0.0583 -0.4622
  320MOL0     C44033   7.956   1.111   5.104  0.5983 -0.0191 -0.6078
  320MOL0     C44034   8.049   1.211   5.181 -0.1352 -0.6946  1.1892
  320MOL0     C44035   8.191   1.157   5.195 -0.5310  0.2677  0.1413
  320MOL0     C44036   8.282   1.241   5.274 -0.5691  0.6252 -0.2421
  320MOL0     C44037   8.227   1.299   5.406  0.6022  0.1816  0.6542
  320MOL0     C44038   8.181   1.195   5.508  1.3544  0.4715 -0.6785
  320MOL0     N44039   8.144   1.271   5.624 -0.0503  0.0002  0.1950
  320MOL0     C44040   8.047   1.365   5.641  0.7093 -0.3459  0.2620
  320MOL0     C44041   8.097   1.443   5.740  0.1196 -0.0933  0.1290
  320MOL0     C44042   8.026   1.559   5.800  1.0955  0.4173  0.1242
  320MOL0     C44043   8.063   1.692   5.741  0.0691 -0.3349  0.2972
  320MOL0     C44044   7.948   1.796   5.703 -0.0548 -0.0218 -0.7464
  320MOL0     C44045   7.996   1.944   5.704 -0.1446  0.2865  1.1940
  320MOL0     O44046   8.082   1.979   5.593  0.5259  0.3749  0.3770
  320MOL0     C44047   8.138   2.107   5.588 -0.5692  0.1054 -0.7990
  320MOL0     C44048   8.240   2.149   5.682 -0.4384 -0.7594 -0.0691
  320MOL0     C44049   8.302   2.276   5.674 -0.4936  0.5840  0.6951
  320MOL0     C44050   8.407   2.309   5.775  0.5069 -0.5203  0.6239
  320MOL0     C44051   8.268   2.360   5.563 -0.3127 -0.3987  0.5417
  320MOL0     C44052   8.342   2.486   5.518 -0.4289  0.6328  0.6423
  320MOL0     O44053   8.359   2.502   5.385  0.3002 -0.1634 -0.7630
  320MOL0     C44054   8.406   2.622   5.344  0.2468  0.0812  1.1272
  320MOL0     C44055   8.320   2.738   5.344  0.0885  0.1030  0.4047
  320MOL0     C44056   8.367   2.862   5.288  0.4918  0.6685 -0.6020
  320MOL0     C44057   8.496   2.858   5.225 -0.1638 -0.0673 -0.2283
  320MOL0     O44058   8.540   2.973   5.173 -0.5881 -0.2727 -1.1251
  320MOL0     C44059   8.598   3.070   5.263 -0.2140  0.8986  0.4517
  320MOL0     C44060   8.571   3.209   5.214 -0.0910  0.8066 -0.3936
  320MOL0     C44061   8.421   3.244   5.221 -0.7807 -0.1085  0.3734
  320MOL0     C44062   8.416   3.396   5.192  0.8470 -0.3043 -1.2572
  320MOL0     C44063   8.286   3.467   5.238  0.8547  0.1572  0.6819
  320MOL0     C44064   8.160   3.380   5.234  0.5804  0.8944 -0.3937
  320MOL0     C44065   8.040   3.447   5.290  0.9412 -0.6753  0.5159
  320MOL0     C44066   7.995   3.560   5.199 -0.6880  0.1754 -0.5404
  320MOL0    Cl44067   7.844   3.645   5.267  0.0245  0.1540  0.6083
  320MOL0     C44068   8.578   2.748   5.232  0.5023  0.0129 -0.7268
  320MOL0     C44069   8.535   2.626   5.290  0.8587 -0.7768  0.3374
  320MOL0     O44070   8.380   2.559   5.611  0.5984  0.1417 -0.0091
  320MOL0     C44071   8.167   2.321   5.469 -0.1380  0.2296  0.4162
  320MOL0     C44072   8.105   2.193   5.490 -0.4781 -0.3864 -0.5979
  320MOL0     N44073   8.214   1.396   5.784 -0.2088 -0.9331  0.5663
  320MOL0     N44074   8.242   1.287   5.720 -0.0299 -0.9067  0.3372
  320MOL0     C44075   7.658   1.424   4.863  0.8127  0.7540  0.7829
  320MOL0     C44076   7.679   1.531   4.786 -0.5485  0.4751  0.6634
  320MOL0     C44077   7.736   1.855   4.480  0.3200 -0.0862  0.1673
  320MOL0     C44078   7.719   1.795   4.358 -0.8639  0.4488 -0.5172
  320MOL0     C44079   7.708   1.871   4.243 -0.0338 -0.6692 -0.5673
  320MOL0     C44080   7.712   2.014   4.254  1.8033 -0.2841  0.8252
  320MOL0     O44081   7.703   2.108   4.151 -0.0846  1.3210  0.1371
  320MOL0     C44082   7.709   2.060   4.021 -0.4271  0.8270 -0.1202
  320MOL0     C44083   7.672   2.163   3.924  0.1411  0.0718  0.3936
  320MOL0     C44084   7.788   2.262   3.891 -0.3121 -0.0731  0.2789
  320MOL0     C44085   7.732   2.370   3.800 -1.1496  0.2716  0.2967
  320MOL0     C44086   7.651   2.456   3.886  0.7976 -1.0662  0.1292
  320MOL0     C44087   7.608   2.528   3.973  1.0090  0.6296 -0.1399
  320MOL0     C44088   7.727   2.075   4.380 -0.4547  0.2078 -0.6985
  320MOL0     C44089   7.734   1.996   4.492 -0.9293 -0.5888  0.2627
  320MOL0     C44090   7.759   2.067   4.624  0.0720 -0.1471  0.5196
  320MOL0     H44091   7.829   1.389   4.517  2.0837 -0.6699  0.4058
  320MOL0     H44092   7.762   1.187   4.638 -1.5566  0.7997 -4.0716
  320MOL0     H44093   7.822   1.076   4.853 -0.6388  1.1050 -1.2660
  320MOL0     H44094   7.721   1.014   4.984  0.6661 -0.1410  1.1594
  320MOL0     H44095   7.844   1.281   5.028  1.3641 -1.0073 -1.7125
  320MOL0     H44096   7.743   1.171   5.137 -2.0378 -0.3468 -1.0250
  320MOL0     H44097   7.940   1.028   5.174  0.4312  0.6444  0.1603
  320MOL0     H44098   8.001   1.069   5.014 -4.2271  0.3444 -3.5232
  320MOL0     H44099   8.063   1.306   5.130  0.0086 -0.0480  2.4012
  320MOL0     H44100   8.005   1.240   5.276  0.8834  0.1912  1.4135
  320MOL0     H44101   8.230   1.138   5.095  1.8671 -5.9643  1.7927
  320MOL0     H44102   8.178   1.058   5.239 -2.1128 -0.5108 -1.9643
  320MOL0     H44103   8.378   1.190   5.291 -0.9938  0.9372  4.3482
  320MOL0     H44104   8.305   1.330   5.215 -2.1367  1.1248 -0.1284
  320MOL0     H44105   8.146   1.368   5.382  0.7178 -0.1019 -0.6453
  320MOL0     H44106   8.311   1.358   5.445  0.5647 -1.0528  2.7747
  320MOL0     H44107   8.093   1.139   5.476  0.4973  0.2553  1.7877
  320MOL0     H44108   8.261   1.123   5.530 -0.1390 -1.2894 -0.8335
  320MOL0     H44109   7.948   1.375   5.599  0.2140 -0.2816  1.4177
  320MOL0     H44110   8.032   1.554   5.909 -0.4237 -2.8864  0.1567
  320MOL0     H44111   7.921   1.543   5.773  0.7577  2.1998  0.2251
  320MOL0     H44112   8.133   1.735   5.814 -0.2505 -1.0989  1.0722
  320MOL0     H44113   8.117   1.673   5.648 -0.2011  2.6400 -0.5718
  320MOL0     H44114   7.904   1.774   5.605  0.6295 -2.5508 -0.5499
  320MOL0     H44115   7.869   1.795   5.779  0.8802  2.5283  0.3844
  320MOL0     H44116   7.912   2.014   5.697  0.1290  0.4576 -1.1809
  320MOL0     H44117   8.050   1.952   5.799 -0.3563 -3.2865  1.7423
  320MOL0     H44118   8.263   2.080   5.762  1.1174  1.1779  1.2678
  320MOL0     H44119   8.420   2.416   5.792  2.1527 -0.6022  0.0720
  320MOL0     H44120   8.499   2.287   5.719  0.7002 -0.4994  0.9285
  320MOL0     H44121   8.408   2.241   5.861  3.3615 -1.6763 -0.1904
  320MOL0     H44122   8.221   2.730   5.389 -0.5775 -3.1766 -1.3833
  320MOL0     H44123   8.293   2.941   5.277 -2.0866 -1.8415 -2.5188
  320MOL0     H44124   8.566   3.046   5.365 -1.6079 -0.1526 -0.2044
  320MOL0     H44125   8.707   3.059   5.256 -0.4386 -0.2629 -3.3096
  320MOL0     H44126   8.632   3.276   5.275  0.5306  0.7183 -0.9051
  320MOL0     H44127   8.610   3.210   5.112  1.6086  0.3960  0.2192
  320MOL0     H44128   8.380   3.210   5.317 -1.1534 -2.5676 -0.5767
  320MOL0     H44129   8.369   3.195   5.138 -1.2712  0.4447  0.3444
  320MOL0     H44130   8.434   3.412   5.085 -0.8853  1.5273 -1.3387
  320MOL0     H44131   8.491   3.450   5.250  1.2026  0.4811 -2.4168
  320MOL0     H44132   8.296   3.488   5.345  2.0185 -1.8488  1.0298
  320MOL0     H44133   8.281   3.560   5.181  1.4601 -0.4144 -0.3459
  320MOL0     H44134   8.179   3.288   5.291  0.8705  0.6040 -0.9542
  320MOL0     H44135   8.126   3.337   5.139 -1.5702 -0.6078  0.9402
  320MOL0     H44136   8.070   3.489   5.386  3.7940 -0.7043 -0.2442
  320MOL0     H44137   7.955   3.379   5.293 -2.8155  3.5937  1.2669
  320MOL0     H44138   7.971   3.525   5.098  3.5163  2.5207 -2.6590
  320MOL0     H44139   8.072   3.636   5.177 -1.3456  0.3015 -2.6107
  320MOL0     H44140   8.683   2.768   5.212  0.0419  1.7458 -1.6178
  320MOL0     H44141   8.590   2.533   5.288 -0.6023 -1.7034  1.2995
  320MOL0     H44142   8.140   2.382   5.383 -1.3603  0.4886  0.9656
  320MOL0     H44143   8.034   2.169   5.411 -2.7834 -0.5925  1.4250
  320MOL0     H44144   7.616   1.435   4.963 -2.0844  2.0864 -0.4966
  320MOL0     H44145   7.630   1.623   4.813  0.8669  1.5779 -0.3953
  320MOL0     H44146   7.727   1.687   4.348 -0.1851  0.3604  0.7091
  320MOL0     H44147   7.699   1.821   4.147 -2.4574 -1.0562 -0.2011
  320MOL0     H44148   7.804   2.007   4.011 -0.5353 -0.1868  3.2104
  320MOL0     H44149   7.641   1.976   4.009  1.9378 -1.5480  1.7998
  320MOL0     H44150   7.585   2.214   3.966 -0.2982 -2.5393  3.0046
  320MOL0     H44151   7.647   2.115   3.829  2.6550 -3.8756  1.4738
  320MOL0     H44152   7.821   2.302   3.987 -1.2690 -3.0622  1.9879
  320MOL0     H44153   7.878   2.222   3.843 -1.3660 -1.1748 -0.8884
  320MOL0     H44154   7.681   2.322   3.716  1.7167 -1.9827 -0.3518
  320MOL0     H44155   7.814   2.428   3.757  1.1747 -3.1731 -0.3608
  320MOL0     H44156   7.586   2.577   4.066  0.9182 -2.9856  1.9442
  320MOL0     H44157   7.747   2.182   4.380 -1.8047  0.4846 -1.9283
  320MOL0     H44158   7.862   2.043   4.649  0.1206  1.1097  1.6945
  320MOL0     H44159   7.734   2.173   4.611 -1.5053 -0.1588  2.7417
  320MOL0     H44160   7.691   2.033   4.704 -0.1261  0.4391  0.6084
  321MOL0     O44161   0.216  10.269  11.436  0.3295 -0.0747  0.6876
  321MOL0     C44162   0.338  10.262  11.465 -0.1921 -0.5852  0.1905
  321MOL0     O44163   0.431  10.214  11.376 -1.2617 -0.2541  1.0531
  321MOL0     C44164   0.385  10.150  11.267 -0.9576  0.0163  0.6693
  321MOL0     C44165   0.306  10.040  11.282 -0.0008 -0.1537 -0.3009
  321MOL0     C44166   0.266   9.972  11.161  0.0739 -0.1979 -1.0000
  321MOL0     C44167   0.303  10.021  11.033 -0.3409  0.5987  0.2209
  321MOL0     O44168   0.258   9.972  10.913 -0.2425 -0.3660  0.0048
  321MOL0     C44169   0.182   9.849  10.924 -0.2295  0.2356 -0.3167
  321MOL0     C44170   0.163   9.806  10.784  0.2712  0.4299 -0.5363
  321MOL0     C44171   0.157   9.657  10.769  0.4563 -0.9375 -0.4978
  321MOL0     C44172   0.297   9.593  10.771 -0.5675 -0.5235  0.5552
  321MOL0     C44173   0.375   9.596  10.644 -0.0883 -0.7272 -0.7231
  321MOL0     C44174   0.315   9.530  10.523 -0.1517  0.2994  0.1179
  321MOL0     C44175   0.267   9.382  10.538  0.2602  0.0155 -0.5972
  321MOL0     C44176   0.272   9.296  10.414 -0.0694  0.3153  0.1452
  321MOL0     N44177   0.206   9.359  10.303  0.2749  0.4046  0.1117
  321MOL0     C44178   0.064   9.396  10.307  0.4706  0.0314 -0.0762
  321MOL0     C44179   0.044   9.457  10.191  0.1122 -0.2011  0.3803
  321MOL0     C44180  -0.083   9.526  10.163 -0.6539 -0.7974 -0.8389
  321MOL0     C44181  -0.139   9.493  10.027 -0.7628 -0.0597  0.0818
  321MOL0     C44182  -0.255   9.588   9.989 -0.3351 -0.1791  0.3325
  321MOL0     C44183  -0.253   9.634   9.844 -0.1131  0.5771 -0.2602
  321MOL0     O44184  -0.128   9.682   9.785  0.7166  0.9273  0.1005
  321MOL0     C44185  -0.108   9.648   9.661  0.1458  0.2156  0.3742
  321MOL0     C44186  -0.080   9.750   9.567 -0.5934 -0.8409 -0.9681
  321MOL0     C44187  -0.026   9.724   9.434 -0.2442  0.1586 -0.2631
  321MOL0     C44188   0.019   9.837   9.349  0.8762  0.0417 -0.5206
  321MOL0     C44189  -0.015   9.584   9.399  0.9668  0.0704 -0.3412
  321MOL0     C44190   0.008   9.536   9.256 -0.9296  0.0952  0.1602
  321MOL0     O44191   0.048   9.408   9.237 -0.4051  1.3312 -0.0654
  321MOL0     C44192   0.080   9.363   9.111  0.1441 -0.4519 -0.4507
  321MOL0     C44193   0.013   9.253   9.045 -0.2274  0.2119  0.5837
  321MOL0     C44194   0.073   9.204   8.925 -0.8753  0.3971 -0.6604
  321MOL0     C44195   0.196   9.250   8.875  0.3848 -0.0437 -0.2709
  321MOL0     O44196   0.251   9.184   8.762 -0.6332 -0.2737 -0.1282
  321MOL0     C44197   0.378   9.214   8.704  0.0570 -0.0566 -0.5061
  321MOL0     C44198   0.424   9.119   8.590  0.8044 -0.0660 -1.1838
  321MOL0     C44199   0.374   9.150   8.449  0.0854  0.4859 -0.3773
  321MOL0     C44200   0.466   9.078   8.351 -0.8563 -0.7377  0.0944
  321MOL0     C44201   0.404   9.103   8.211 -0.0759  0.0610  0.1213
  321MOL0     C44202   0.268   9.041   8.192 -0.0774 -0.2289  1.0601
  321MOL0     C44203   0.203   9.076   8.053 -0.7058 -0.7105 -0.2389
  321MOL0     C44204   0.271   9.016   7.931  0.2481  0.2794  0.5214
  321MOL0    Cl44205   0.187   9.071   7.790 -0.1390  0.0405  0.2230
  321MOL0     C44206   0.255   9.363   8.936 -0.2606 -0.3523  0.0045
  321MOL0     C44207   0.190   9.421   9.050 -0.1234 -0.7272  0.5501
  321MOL0     O44208   0.001   9.616   9.166 -0.5655  0.2274  0.5929
  321MOL0     C44209  -0.050   9.483   9.498 -0.7327 -0.0760  0.2120
  321MOL0     C44210  -0.088   9.520   9.627  0.0483 -0.0557  0.5003
  321MOL0     N44211   0.164   9.454  10.118  0.2008 -0.2255 -0.9314
  321MOL0     N44212   0.257   9.388  10.184 -0.6322 -0.4152 -0.1440
  321MOL0     C44213   0.390  10.129  11.018 -0.0342 -0.1432  0.5985
  321MOL0     C44214   0.430  10.191  11.138  1.4786 -0.2930  0.0163
  321MOL0     C44215   0.395  10.304  11.605 -0.0158  0.2195  0.1134
  321MOL0     C44216   0.530  10.275  11.630 -0.5401  0.2234 -0.0904
  321MOL0     C44217   0.585  10.301  11.754  0.7501  0.0364 -0.9654
  321MOL0     C44218   0.518  10.385  11.843  0.4869 -0.1686 -0.4155
  321MOL0     O44219   0.594  10.408  11.957 -0.2197  0.3542 -0.5507
  321MOL0     C44220   0.542  10.497  12.056  0.2741 -0.2407  0.0585
  321MOL0     C44221   0.593  10.641  12.038  0.3284 -0.2675  0.3840
  321MOL0     C44222   0.747  10.636  11.999 -0.2313 -0.2422 -0.3692
  321MOL0     C44223   0.814  10.774  11.998 -0.8510  0.3566  0.8186
  321MOL0     C44224   0.757  10.883  11.914  0.3464  0.9489  1.4304
  321MOL0     C44225   0.707  10.958  11.832  0.9312 -1.2641  0.5795
  321MOL0     C44226   0.393  10.424  11.816  0.1771  0.2807  0.3738
  321MOL0     C44227   0.326  10.385  11.704 -0.6894 -0.7743  1.0711
  321MOL0     C44228   0.194  10.446  11.677  0.3877  0.1273  0.0855
  321MOL0     H44229   0.305  10.009  11.386  4.6243  0.0512  0.0427
  321MOL0     H44230   0.204   9.885  11.181  1.5587 -1.3188 -1.1127
  321MOL0     H44231   0.088   9.847  10.980 -0.0497 -2.3271  0.0199
  321MOL0     H44232   0.241   9.773  10.977  0.9990  2.9410  2.5230
  321MOL0     H44233   0.068   9.850  10.751  1.6243  2.0555 -2.5636
  321MOL0     H44234   0.234   9.855  10.717  2.2888 -0.4382  0.8973
  321MOL0     H44235   0.099   9.607  10.846 -0.1425 -1.2696 -1.1537
  321MOL0     H44236   0.115   9.634  10.671 -1.5800  0.2906  0.0273
  321MOL0     H44237   0.355   9.650  10.845  0.7039 -1.0039 -0.0456
  321MOL0     H44238   0.305   9.489  10.804 -1.7403 -0.2530  1.7771
  321MOL0     H44239   0.478   9.564  10.659  0.7011  0.9259 -2.2616
  321MOL0     H44240   0.372   9.704  10.626  0.5401 -0.7535 -0.9897
  321MOL0     H44241   0.229   9.595  10.500 -0.1318  0.3598  0.2145
  321MOL0     H44242   0.374   9.537  10.431  0.5749  0.2668  0.5796
  321MOL0     H44243   0.165   9.374  10.577  1.1029 -4.0563  1.3138
  321MOL0     H44244   0.341   9.344  10.609 -1.4254 -0.9079  0.7449
  321MOL0     H44245   0.373   9.271  10.380 -1.0522  0.4779 -3.2181
  321MOL0     H44246   0.228   9.199  10.439 -0.8449  0.2972 -1.2135
  321MOL0     H44247  -0.009   9.384  10.386  2.1011  0.2380  1.5404
  321MOL0     H44248  -0.074   9.633  10.183  0.3399 -0.3115 -3.5073
  321MOL0     H44249  -0.158   9.501  10.239  0.7928  2.2792  1.8767
  321MOL0     H44250  -0.055   9.508   9.958  2.1289 -0.8754  3.1902
  321MOL0     H44251  -0.156   9.385  10.030  0.3916 -0.2394  0.8158
  321MOL0     H44252  -0.353   9.544  10.011  0.3633 -1.8198  0.3052
  321MOL0     H44253  -0.244   9.682  10.045  0.8179 -0.0213 -0.1311
  321MOL0     H44254  -0.290   9.547   9.788  0.8639  0.3491 -0.5725
  321MOL0     H44255  -0.320   9.715   9.816  0.2949 -0.5481 -5.8518
  321MOL0     H44256  -0.098   9.853   9.595  0.0432  0.6294 -5.2530
  321MOL0     H44257  -0.044   9.841   9.259 -0.9478  1.9189  0.7607
  321MOL0     H44258   0.124   9.829   9.317  0.7011 -0.2873 -1.0337
  321MOL0     H44259   0.010   9.933   9.401  1.8995 -0.9628  1.6036
  321MOL0     H44260  -0.081   9.220   9.087  0.3382 -2.5199 -0.0711
  321MOL0     H44261   0.021   9.127   8.869  3.1007 -2.7968 -0.3892
  321MOL0     H44262   0.384   9.319   8.673  1.9945  1.5187  4.1378
  321MOL0     H44263   0.459   9.199   8.777 -0.5070  0.7121  0.2961
  321MOL0     H44264   0.533   9.118   8.586  1.0755 -1.7831  2.2618
  321MOL0     H44265   0.401   9.014   8.611  1.5866  0.1676  1.1783
  321MOL0     H44266   0.359   9.258   8.443 -0.1428  0.5188  0.5814
  321MOL0     H44267   0.269   9.119   8.455  0.3200  0.0023  1.9841
  321MOL0     H44268   0.457   8.970   8.370 -0.0804 -0.3518  3.1651
  321MOL0     H44269   0.569   9.107   8.369 -1.4865  1.1987  0.8075
  321MOL0     H44270   0.390   9.210   8.196 -1.9644  0.2386  2.5460
  321MOL0     H44271   0.471   9.053   8.141 -2.2181  0.2518 -2.2063
  321MOL0     H44272   0.197   9.083   8.264  0.1393  0.5863  0.8099
  321MOL0     H44273   0.269   8.933   8.210 -0.1452 -0.2457  0.9689
  321MOL0     H44274   0.209   9.185   8.048 -3.6724 -0.5032 -1.0655
  321MOL0     H44275   0.101   9.039   8.041 -0.6830 -1.1384  0.7677
  321MOL0     H44276   0.289   8.910   7.949 -2.1784 -0.6299 -1.7720
  321MOL0     H44277   0.370   9.053   7.901  0.6526 -1.9651 -1.1914
  321MOL0     H44278   0.346   9.412   8.902 -0.5249  1.2641  1.5101
  321MOL0     H44279   0.223   9.509   9.104 -1.0621  0.8199 -1.2792
  321MOL0     H44280  -0.050   9.377   9.472 -1.6623 -0.4491  1.6490
  321MOL0     H44281  -0.112   9.437   9.692  0.5627 -0.2129  0.4961
  321MOL0     H44282   0.405  10.177  10.922  0.2414  0.8522  1.1277
  321MOL0     H44283   0.484  10.285  11.144 -0.8988  1.0299  3.0237
  321MOL0     H44284   0.594  10.222  11.560  0.7141  1.2178  0.2542
  321MOL0     H44285   0.682  10.260  11.779  0.1167 -2.6634 -2.5700
  321MOL0     H44286   0.434  10.500  12.074  0.3999  1.5066  0.7204
  321MOL0     H44287   0.588  10.455  12.145  0.7767 -2.8155 -1.3141
  321MOL0     H44288   0.573  10.703  12.126 -0.8364  0.3195 -0.2758
  321MOL0     H44289   0.546  10.694  11.955  1.9892 -1.4554 -1.4344
  321MOL0     H44290   0.806  10.578  12.070  0.4435  2.5590  1.5516
  321MOL0     H44291   0.756  10.591  11.900  1.3001  1.0644 -0.8702
  321MOL0     H44292   0.914  10.757  11.957 -1.7800  1.5663 -2.1867
  321MOL0     H44293   0.825  10.819  12.097  1.8955 -1.4649  1.4661
  321MOL0     H44294   0.658  11.018  11.758  0.9879 -0.7462  0.9604
  321MOL0     H44295   0.339  10.489  11.885 -0.9834 -0.5300  0.2434
  321MOL0     H44296   0.131  10.357  11.684  1.2451 -0.6556 -1.4390
  321MOL0     H44297   0.162  10.519  11.751 -1.3820 -0.2906 -0.2350
  321MOL0     H44298   0.184  10.480  11.573  2.8620 -3.0527 -1.4130
  322MOL0     O44299   3.033   2.955   8.884 -0.1854 -0.6403  0.7930
  322MOL0     C44300   3.095   2.851   8.867  0.2764  0.5982  0.2516
  322MOL0     O44301   3.212   2.823   8.927 -0.9297 -0.3378  0.5931
  322MOL0     C44302   3.298   2.929   8.946 -0.0142 -0.0654 -0.3718
  322MOL0     C44303   3.299   3.042   8.869  0.1448  0.1746  0.4077
  322MOL0     C44304   3.397   3.134   8.879 -0.1171  0.0931  0.4367
  322MOL0     C44305   3.495   3.124   8.979  0.0199  0.6467  0.1323
  322MOL0     O44306   3.601   3.206   8.981 -0.2574  0.1206  0.3607
  322MOL0     C44307   3.713   3.178   8.900  0.6681  0.4613 -0.8627
  322MOL0     C44308   3.772   3.306   8.855 -0.4596 -0.2635 -0.2715
  322MOL0     C44309   3.901   3.329   8.946  0.4816  0.5365  0.2574
  322MOL0     C44310   3.958   3.471   8.896  0.3226  0.1845 -0.1636
  322MOL0     C44311   4.097   3.488   8.966  0.4090 -0.3770 -0.4650
  322MOL0     C44312   4.191   3.565   8.880 -0.3343  0.8215  0.0121
  322MOL0     C44313   4.316   3.602   8.959 -0.3452  0.8729  0.3253
  322MOL0     C44314   4.450   3.529   8.918 -0.3164 -0.4533 -0.3210
  322MOL0     N44315   4.455   3.494   8.778  0.4128 -0.8776 -0.3324
  322MOL0     C44316   4.472   3.364   8.740  0.9001  0.4381 -0.5443
  322MOL0     C44317   4.501   3.377   8.607 -0.2299  1.0271  0.1947
  322MOL0     C44318   4.529   3.255   8.504  0.4614 -0.3607  0.1667
  322MOL0     C44319   4.497   3.118   8.589  0.2712  0.2722  0.5430
  322MOL0     C44320   4.506   2.995   8.508 -0.2990  0.1585  0.0312
  322MOL0     C44321   4.648   2.949   8.476  0.3912  0.4257  0.0790
  322MOL0     O44322   4.731   2.923   8.592  0.3124 -0.3398  0.2392
  322MOL0     C44323   4.856   2.980   8.581  0.2710  0.4559 -0.3953
  322MOL0     C44324   4.964   2.905   8.536 -1.1871  0.3340 -0.3349
  322MOL0     C44325   5.102   2.969   8.535  0.0909 -0.0214 -0.3039
  322MOL0     C44326   5.220   2.875   8.503  0.6974  0.0891 -0.5780
  322MOL0     C44327   5.119   3.102   8.570 -0.2480 -0.2019  0.3812
  322MOL0     C44328   5.247   3.181   8.572  0.3907 -1.2665  0.0483
  322MOL0     O44329   5.249   3.303   8.516  0.2613 -0.0404 -0.0767
  322MOL0     C44330   5.365   3.375   8.525 -0.5161  0.3319  0.4781
  322MOL0     C44331   5.465   3.353   8.429 -0.0544 -0.7627  0.0625
  322MOL0     C44332   5.584   3.428   8.435  1.1179 -0.3881 -0.6821
  322MOL0     C44333   5.593   3.540   8.508  0.3240  0.1897 -0.1707
  322MOL0     O44334   5.707   3.615   8.509 -0.6554 -0.0718  0.2011
  322MOL0     C44335   5.815   3.549   8.574 -0.1594  0.2150  0.2575
  322MOL0     C44336   5.898   3.667   8.625  0.0251  0.5235 -0.6970
  322MOL0     C44337   6.008   3.639   8.736 -0.2270  0.3172  0.0818
  322MOL0     C44338   6.089   3.762   8.779 -0.1871 -0.3806 -0.1196
  322MOL0     C44339   6.027   3.901   8.806  0.2362  0.3778  0.5923
  322MOL0     C44340   5.943   3.917   8.935 -1.1166 -0.3433 -0.0275
  322MOL0     C44341   5.861   4.040   8.921  1.1776  0.9959  0.0029
  322MOL0     C44342   5.929   4.179   8.889  0.0834  0.4051  0.9335
  322MOL0    Cl44343   6.042   4.234   9.001  0.0442  0.0276 -0.1062
  322MOL0     C44344   5.480   3.574   8.587 -0.0545 -0.8922 -0.4383
  322MOL0     C44345   5.372   3.486   8.614 -0.1366  0.1524  1.4001
  322MOL0     O44346   5.344   3.125   8.621  0.1094  1.1717  0.6027
  322MOL0     C44347   4.999   3.170   8.616  0.0074 -0.1412  0.6977
  322MOL0     C44348   4.878   3.103   8.624 -0.1569  0.7056 -0.9431
  322MOL0     N44349   4.501   3.505   8.567 -0.3223  0.0893  0.1891
  322MOL0     N44350   4.484   3.574   8.668  0.1444 -0.6189  0.9478
  322MOL0     C44351   3.501   3.010   9.066  1.4499 -0.3709 -0.7842
  322MOL0     C44352   3.399   2.914   9.044 -0.0337 -0.8007  0.9367
  322MOL0     C44353   3.025   2.740   8.790 -0.5091  0.4648 -1.2811
  322MOL0     C44354   2.909   2.775   8.731  0.2432  0.4147  0.1698
  322MOL0     C44355   2.831   2.696   8.657 -0.6979  0.0299 -0.8117
  322MOL0     C44356   2.862   2.561   8.636 -0.3526 -0.2488  0.3119
  322MOL0     O44357   2.787   2.478   8.558  0.4099 -0.5337  0.3767
  322MOL0     C44358   2.717   2.376   8.632  0.5818 -0.2055  0.1484
  322MOL0     C44359   2.590   2.433   8.682 -0.8600 -0.7489  0.6785
  322MOL0     C44360   2.480   2.442   8.579 -0.2531 -0.4173  1.2282
  322MOL0     C44361   2.367   2.526   8.635  0.6176 -0.7249 -0.2117
  322MOL0     C44362   2.239   2.500   8.576  0.4321 -0.5512  0.7318
  322MOL0     C44363   2.130   2.485   8.538 -0.2131  0.0219  0.6622
  322MOL0     C44364   2.973   2.512   8.708 -0.0984  0.0728  0.1655
  322MOL0     C44365   3.049   2.598   8.788  1.3499 -0.2044 -0.1041
  322MOL0     C44366   3.156   2.529   8.869 -1.3133  0.8702 -1.0824
  322MOL0     H44367   3.225   3.058   8.791  2.5260 -3.8487 -3.1049
  322MOL0     H44368   3.403   3.212   8.804  2.8702 -1.3141 -0.9846
  322MOL0     H44369   3.686   3.133   8.804  1.5486 -1.1582 -0.3767
  322MOL0     H44370   3.793   3.119   8.945  1.1856  1.1660 -0.8232
  322MOL0     H44371   3.798   3.320   8.750 -0.8346  2.3317 -0.0822
  322MOL0     H44372   3.700   3.385   8.880 -1.2116 -0.8111 -0.6701
  322MOL0     H44373   3.874   3.341   9.051  0.8926 -1.4135  0.6169
  322MOL0     H44374   3.977   3.251   8.958 -1.9617 -2.0535 -0.2210
  322MOL0     H44375   3.966   3.479   8.787 -0.5126 -0.6870 -0.3007
  322MOL0     H44376   3.899   3.562   8.912  0.6837  0.2365  1.0091
  322MOL0     H44377   4.140   3.389   8.979  0.7919  0.1722  3.9377
  322MOL0     H44378   4.071   3.526   9.065  2.8739 -2.6558  1.1878
  322MOL0     H44379   4.204   3.505   8.790 -1.2796  6.0981 -4.0875
  322MOL0     H44380   4.133   3.646   8.836 -0.3996  0.1186 -1.2447
  322MOL0     H44381   4.305   3.586   9.067 -1.8916  1.5116  0.2831
  322MOL0     H44382   4.332   3.707   8.933 -2.0728  0.5991 -2.2295
  322MOL0     H44383   4.535   3.597   8.925 -0.0833 -0.8700  1.0440
  322MOL0     H44384   4.463   3.440   8.981 -0.6297  0.5361  1.1763
  322MOL0     H44385   4.470   3.274   8.801  3.9591  1.5865  1.4857
  322MOL0     H44386   4.633   3.250   8.470  0.1073  1.6577 -1.4622
  322MOL0     H44387   4.459   3.275   8.422  1.2801  1.2956 -0.1751
  322MOL0     H44388   4.553   3.099   8.681  0.0758 -1.6215  0.3208
  322MOL0     H44389   4.392   3.129   8.616 -0.8348  0.2617 -3.1331
  322MOL0     H44390   4.454   2.912   8.558 -2.5516  0.4114 -1.7150
  322MOL0     H44391   4.449   3.006   8.415  0.3210  1.1387 -0.2457
  322MOL0     H44392   4.647   2.854   8.422 -2.6468 -1.2314  2.7417
  322MOL0     H44393   4.690   3.023   8.407  0.3154 -1.8466 -2.5865
  322MOL0     H44394   4.955   2.799   8.516  0.8505  0.3142 -1.3981
  322MOL0     H44395   5.193   2.797   8.431  1.1493  1.1236 -1.9340
  322MOL0     H44396   5.260   2.817   8.586  0.2916 -0.1907 -0.5790
  322MOL0     H44397   5.310   2.926   8.468  0.3434  1.1525  0.0259
  322MOL0     H44398   5.467   3.268   8.362 -0.0848 -0.2306 -0.6213
  322MOL0     H44399   5.674   3.393   8.384  0.5116 -0.4856 -1.7177
  322MOL0     H44400   5.787   3.492   8.663  1.1671  0.3666  0.8080
  322MOL0     H44401   5.871   3.484   8.506  2.2787  2.5961 -0.1776
  322MOL0     H44402   5.945   3.701   8.532 -0.2764 -0.8161 -1.3677
  322MOL0     H44403   5.821   3.726   8.675  1.1786 -1.3332  3.8410
  322MOL0     H44404   6.081   3.564   8.705  0.4050 -0.0332  2.2484
  322MOL0     H44405   5.956   3.597   8.823 -1.3894  2.4613  0.4989
  322MOL0     H44406   6.178   3.785   8.719 -0.7742  0.5339 -0.6752
  322MOL0     H44407   6.132   3.734   8.875  1.4112  0.7827 -0.4415
  322MOL0     H44408   6.107   3.976   8.804  0.2696  0.3376 -1.0343
  322MOL0     H44409   5.959   3.922   8.723  1.3725 -1.8416 -0.9963
  322MOL0     H44410   6.008   3.912   9.023 -0.3126 -4.0494 -0.6845
  322MOL0     H44411   5.870   3.836   8.940  0.1397 -1.8882 -3.4798
  322MOL0     H44412   5.801   4.054   9.012 -5.2314  0.4010 -3.5481
  322MOL0     H44413   5.800   4.018   8.833 -0.6330  0.9228  1.2120
  322MOL0     H44414   5.853   4.258   8.886  0.4032  0.6906 -0.0590
  322MOL0     H44415   5.982   4.169   8.794  0.0170  0.8584  0.8464
  322MOL0     H44416   5.485   3.662   8.651 -0.6174 -0.4417 -0.9957
  322MOL0     H44417   5.293   3.503   8.687 -0.7455 -0.4816  0.8930
  322MOL0     H44418   5.016   3.271   8.651  0.8927 -0.6162  1.7034
  322MOL0     H44419   4.792   3.157   8.664 -2.8589 -4.3831  1.0316
  322MOL0     H44420   3.580   3.006   9.140 -0.9893  2.8013  2.3746
  322MOL0     H44421   3.386   2.821   9.099 -6.4298 -2.3326 -2.2207
  322MOL0     H44422   2.874   2.878   8.730 -1.7554 -0.2213 -0.4974
  322MOL0     H44423   2.739   2.734   8.613 -1.2421  3.2536  2.6189
  322MOL0     H44424   2.696   2.293   8.563 -1.1927  0.5511 -0.2833
  322MOL0     H44425   2.777   2.338   8.715 -1.3545  1.8503  2.6554
  322MOL0     H44426   2.608   2.534   8.719 -4.3547  1.5030 -2.9581
  322MOL0     H44427   2.551   2.371   8.763 -1.5117 -0.5374  0.5292
  322MOL0     H44428   2.522   2.483   8.486 -0.4084 -2.6209  0.1275
  322MOL0     H44429   2.444   2.343   8.552 -1.2592  0.0015  0.9764
  322MOL0     H44430   2.390   2.631   8.612  0.1091 -0.3365  0.9488
  322MOL0     H44431   2.355   2.521   8.744 -0.8631  4.0576  0.0844
  322MOL0     H44432   2.037   2.493   8.487  1.9657  2.4627 -3.4586
  322MOL0     H44433   3.011   2.413   8.687  2.1838  0.5015  1.9031
  322MOL0     H44434   3.196   2.581   8.956  2.8409 -1.0521 -1.6416
  322MOL0     H44435   3.095   2.448   8.912 -2.7207  2.2391 -0.3650
  322MOL0     H44436   3.228   2.472   8.811 -1.7133 -1.9434  0.9684
  323MOL0     O44437   9.607   0.610   4.300 -0.5323  0.0288 -1.0189
  323MOL0     C44438   9.693   0.645   4.220  0.1428 -0.6659  0.2056
  323MOL0     O44439   9.663   0.685   4.096 -0.7361 -0.1813 -0.0674
  323MOL0     C44440   9.535   0.676   4.053 -0.8741 -0.2805  0.2075
  323MOL0     C44441   9.452   0.778   4.079  0.6075  0.4398  0.7674
  323MOL0     C44442   9.313   0.768   4.047 -1.3048 -0.4118  0.4616
  323MOL0     C44443   9.262   0.666   3.968  0.0904  0.7833 -0.7599
  323MOL0     O44444   9.140   0.662   3.905  0.4360 -0.1884 -0.3298
  323MOL0     C44445   9.020   0.719   3.974 -0.4141  0.6292  0.4430
  323MOL0     C44446   8.989   0.644   4.106 -0.2341 -0.7557 -0.5066
  323MOL0     C44447   8.855   0.679   4.147 -0.3120  0.3403 -1.5442
  323MOL0     C44448   8.851   0.750   4.291 -0.5337 -0.4737  0.1687
  323MOL0     C44449   8.909   0.903   4.316  0.9223  0.4713 -1.0892
  323MOL0     C44450   8.878   0.999   4.200 -0.2819  0.2448  0.4751
  323MOL0     C44451   8.968   1.120   4.184 -0.2902  0.2268 -0.2288
  323MOL0     C44452   8.942   1.230   4.288 -0.1018  0.1299  0.0935
  323MOL0     N44453   9.050   1.323   4.285  0.0799 -0.1590 -0.0134
  323MOL0     C44454   9.047   1.431   4.194  0.7209  0.1449 -0.1186
  323MOL0     C44455   9.148   1.512   4.225 -0.6371  0.1545  1.0333
  323MOL0     C44456   9.187   1.635   4.155  0.5116  0.1113 -0.2425
  323MOL0     C44457   9.257   1.744   4.243  0.3792  0.2993 -0.1272
  323MOL0     C44458   9.276   1.879   4.171  0.6516 -0.1827 -0.6119
  323MOL0     C44459   9.383   1.973   4.225 -0.3491 -0.0413 -0.6542
  323MOL0     O44460   9.339   2.041   4.341 -0.1964 -0.2846 -0.2657
  323MOL0     C44461   9.434   2.115   4.405 -0.2656 -0.8426 -0.1007
  323MOL0     C44462   9.412   2.177   4.533 -0.7197  0.4290 -0.2904
  323MOL0     C44463   9.510   2.247   4.604 -0.5463  0.8369 -0.8611
  323MOL0     C44464   9.473   2.308   4.735  0.1512  0.4123 -0.6355
  323MOL0     C44465   9.644   2.267   4.556 -0.1949 -0.7926 -0.1778
  323MOL0     C44466   9.767   2.314   4.628 -0.2621  0.2915  0.1809
  323MOL0     O44467   9.753   2.299   4.762 -0.6730  0.6597  0.2926
  323MOL0     C44468   9.841   2.336   4.862  0.3815 -0.7235 -0.5036
  323MOL0     C44469   9.964   2.411   4.842 -0.0948  0.7049  0.0010
  323MOL0     C44470  10.039   2.460   4.949 -1.2083 -1.2920 -0.4206
  323MOL0     C44471  10.019   2.427   5.077  0.7002 -0.1986 -1.1658
  323MOL0     O44472  10.104   2.461   5.180 -0.6007 -0.3314 -0.3239
  323MOL0     C44473  10.063   2.444   5.319 -1.0540 -0.8363 -0.0447
  323MOL0     C44474  10.174   2.469   5.417 -0.4277  1.0515  0.5737
  323MOL0     C44475  10.195   2.614   5.444 -0.2696  0.2757 -0.0698
  323MOL0     C44476  10.294   2.627   5.556 -0.7630  0.1202  0.7654
  323MOL0     C44477  10.302   2.771   5.609 -0.1795  0.0904 -0.6521
  323MOL0     C44478  10.372   2.874   5.512 -0.0868  0.8134  0.4439
  323MOL0     C44479  10.346   3.026   5.539  0.0753  0.4655 -0.6973
  323MOL0     C44480  10.196   3.065   5.491  0.2418  0.0240 -0.1597
  323MOL0    Cl44481  10.169   3.242   5.490 -0.2373 -0.0598  0.1626
  323MOL0     C44482   9.900   2.352   5.093 -0.2967  0.6937 -1.0249
  323MOL0     C44483   9.812   2.307   4.992  0.6978 -0.5305 -0.2637
  323MOL0     O44484   9.863   2.364   4.571 -0.2908 -0.2865 -0.3547
  323MOL0     C44485   9.656   2.224   4.427 -0.1353 -0.5919 -0.9787
  323MOL0     C44486   9.566   2.141   4.355  0.2563 -0.1261 -0.0896
  323MOL0     N44487   9.227   1.442   4.323  0.1767 -0.2832 -0.1987
  323MOL0     N44488   9.167   1.327   4.354  0.7739 -0.5448 -0.0339
  323MOL0     C44489   9.359   0.563   3.950  0.4680  0.9073  0.4524
  323MOL0     C44490   9.491   0.558   3.987  0.3687 -0.4051 -0.8088
  323MOL0     C44491   9.833   0.663   4.274  0.0739 -0.7501 -0.3356
  323MOL0     C44492   9.848   0.645   4.417 -0.6499  0.8300 -0.4685
  323MOL0     C44493   9.977   0.662   4.475  0.4663  0.6383  0.0222
  323MOL0     C44494  10.082   0.710   4.396 -0.4294  0.4469 -0.5395
  323MOL0     O44495  10.203   0.748   4.439 -0.0891  0.4017 -0.5807
  323MOL0     C44496  10.211   0.765   4.586  0.0204  1.2434  0.6857
  323MOL0     C44497  10.344   0.807   4.631  0.3287  0.1354  0.4346
  323MOL0     C44498  10.444   0.702   4.611 -0.1988  0.2858  0.3433
  323MOL0     C44499  10.571   0.738   4.533  0.5627  0.1883 -0.1250
  323MOL0     C44500  10.545   0.819   4.412 -0.2179  0.7052  0.9628
  323MOL0     C44501  10.552   0.881   4.308  0.3427 -0.1943 -0.3890
  323MOL0     C44502  10.066   0.728   4.261  0.5118 -0.0952 -0.3239
  323MOL0     C44503   9.946   0.713   4.203 -0.2789  0.1595 -0.3561
  323MOL0     C44504   9.961   0.735   4.055 -0.3748  0.0113 -0.6816
  323MOL0     H44505   9.489   0.870   4.123  3.6650 -0.4609  0.2865
  323MOL0     H44506   9.245   0.847   4.080  1.3378  0.8994  3.1684
  323MOL0     H44507   8.929   0.732   3.915 -0.3723  2.9549  0.8258
  323MOL0     H44508   9.050   0.820   4.004  0.7735  0.1059  1.1062
  323MOL0     H44509   9.003   0.538   4.083 -0.4918 -0.9295  0.1137
  323MOL0     H44510   9.062   0.675   4.182 -1.0698  0.2054 -0.0705
  323MOL0     H44511   8.794   0.735   4.076 -0.4652  0.6381 -1.1818
  323MOL0     H44512   8.804   0.583   4.162  1.4277 -0.5765 -1.1568
  323MOL0     H44513   8.743   0.761   4.294 -0.7295 -1.3742 -1.8889
  323MOL0     H44514   8.888   0.672   4.359 -0.0529 -2.3933 -2.1536
  323MOL0     H44515   9.017   0.887   4.320  1.1001  1.4424 -1.6626
  323MOL0     H44516   8.878   0.959   4.404  0.1611  1.7372 -2.1144
  323MOL0     H44517   8.890   0.947   4.105 -0.7606  0.9039  0.0511
  323MOL0     H44518   8.780   1.047   4.203  0.5718  2.3655 -2.0404
  323MOL0     H44519   8.970   1.166   4.084  3.0442  1.0764  0.0804
  323MOL0     H44520   9.071   1.082   4.184 -0.3246  0.1283 -0.4321
  323MOL0     H44521   8.845   1.281   4.284 -1.4239 -2.2228  0.2744
  323MOL0     H44522   8.952   1.173   4.381 -1.2781 -2.7875 -1.4237
  323MOL0     H44523   8.979   1.441   4.109  0.2476 -0.2924  0.2014
  323MOL0     H44524   9.092   1.667   4.110 -0.2178  1.1804  1.9300
  323MOL0     H44525   9.261   1.603   4.081  0.6712  1.4101 -0.6625
  323MOL0     H44526   9.193   1.768   4.328  0.9265  3.6449 -0.5120
  323MOL0     H44527   9.356   1.707   4.272  0.3487  0.9770  0.8750
  323MOL0     H44528   9.288   1.859   4.064 -1.8849 -1.0647 -0.8103
  323MOL0     H44529   9.184   1.938   4.175  0.8122  0.1966 -1.9679
  323MOL0     H44530   9.476   1.918   4.237  0.0970  0.4412 -1.7773
  323MOL0     H44531   9.396   2.053   4.151 -3.0928  0.4105 -0.7741
  323MOL0     H44532   9.313   2.157   4.573  0.3059 -1.6457  1.3717
  323MOL0     H44533   9.367   2.282   4.744 -0.1282  1.8347  0.4754
  323MOL0     H44534   9.473   2.418   4.738 -2.0546  0.4262  0.8542
  323MOL0     H44535   9.530   2.261   4.815 -0.6012 -0.2598 -0.4815
  323MOL0     H44536   9.996   2.440   4.743 -0.8080  0.0664 -0.4281
  323MOL0     H44537  10.131   2.515   4.937 -2.2154  0.3078 -1.1166
  323MOL0     H44538   9.990   2.516   5.356 -0.0382 -1.2576  3.0638
  323MOL0     H44539  10.030   2.344   5.350 -0.9653  0.1121  3.4506
  323MOL0     H44540  10.148   2.401   5.499 -0.3743 -2.0337 -1.7599
  323MOL0     H44541  10.261   2.423   5.368  0.0963  1.9051  0.6859
  323MOL0     H44542  10.103   2.661   5.481 -0.1714 -2.2956  3.9331
  323MOL0     H44543  10.230   2.660   5.351  1.8916 -0.9062  0.0945
  323MOL0     H44544  10.389   2.593   5.514  0.8382  0.2550  3.9771
  323MOL0     H44545  10.267   2.565   5.642 -0.7340  0.4506  1.0136
  323MOL0     H44546  10.198   2.802   5.619  0.3077  1.3732  0.7554
  323MOL0     H44547  10.342   2.764   5.711  1.5498 -0.9977 -1.3605
  323MOL0     H44548  10.341   2.852   5.409  0.4221  1.2036  0.2011
  323MOL0     H44549  10.479   2.852   5.511  0.4480  2.4686 -4.2631
  323MOL0     H44550  10.415   3.093   5.487  1.3407 -0.6111 -0.4623
  323MOL0     H44551  10.356   3.052   5.645  3.3986 -0.2017 -0.7215
  323MOL0     H44552  10.127   2.999   5.544 -2.8018  2.5228 -0.7098
  323MOL0     H44553  10.179   3.040   5.386 -0.2602  2.7760 -0.8120
  323MOL0     H44554   9.867   2.336   5.195  1.1962  1.0806 -0.4493
  323MOL0     H44555   9.711   2.276   5.019  0.3550  0.5795 -0.2393
  323MOL0     H44556   9.750   2.248   4.378  0.4604  0.0074  0.4116
  323MOL0     H44557   9.594   2.117   4.254  0.5939 -2.3477  0.4870
  323MOL0     H44558   9.335   0.483   3.881  0.5041  0.5463  0.8558
  323MOL0     H44559   9.566   0.485   3.960 -0.2125 -1.0338 -0.7511
  323MOL0     H44560   9.760   0.614   4.473  1.0689 -1.9040  0.9452
  323MOL0     H44561   9.981   0.639   4.581  0.3376  0.5490  0.0078
  323MOL0     H44562  10.140   0.844   4.612  1.5805  2.6722  0.7771
  323MOL0     H44563  10.184   0.670   4.634  0.8725  1.4224  1.5460
  323MOL0     H44564  10.337   0.837   4.736 -2.1555  1.8927 -0.1367
  323MOL0     H44565  10.370   0.903   4.586 -1.2836  0.7320  0.6877
  323MOL0     H44566  10.466   0.656   4.708  0.8424 -1.4459 -0.6556
  323MOL0     H44567  10.398   0.619   4.557 -2.2733  0.1859  2.1167
  323MOL0     H44568  10.607   0.637   4.510 -3.5286 -1.9419  1.7726
  323MOL0     H44569  10.642   0.799   4.589 -1.4906  3.1731 -0.5297
  323MOL0     H44570  10.539   0.929   4.213 -1.3736  0.8307  0.3127
  323MOL0     H44571  10.157   0.752   4.207  1.3713  3.5795  2.4032
  323MOL0     H44572   9.901   0.662   3.999 -0.6100 -1.1935  1.0831
  323MOL0     H44573   9.916   0.832   4.028 -2.7528 -0.9042 -0.2242
  323MOL0     H44574  10.059   0.729   4.008 -1.2931 -0.9581 -2.5879
  324MOL0     O44575   8.770   6.458   6.159 -0.4821 -0.5568 -0.9803
  324MOL0     C44576   8.771   6.475   6.038  0.7641  0.0736 -0.1178
  324MOL0     O44577   8.712   6.582   5.971 -1.0111  0.5217  0.2655
  324MOL0     C44578   8.663   6.691   6.031  0.2787  0.0488  0.5217
  324MOL0     C44579   8.660   6.807   5.954  0.9242 -0.6404  0.0391
  324MOL0     C44580   8.602   6.924   6.000  0.3514 -0.4154  1.0621
  324MOL0     C44581   8.540   6.928   6.123  0.6008 -1.0091  0.0390
  324MOL0     O44582   8.489   7.048   6.174  0.3480  0.1869  0.0772
  324MOL0     C44583   8.357   7.047   6.232  0.1593  0.3111 -0.0159
  324MOL0     C44584   8.309   7.187   6.252 -1.2049 -0.2332 -0.0888
  324MOL0     C44585   8.411   7.273   6.337 -0.4815  0.5060 -0.5043
  324MOL0     C44586   8.362   7.422   6.335 -0.4818 -0.1280 -0.7171
  324MOL0     C44587   8.437   7.495   6.225  0.0359 -0.7818  0.6028
  324MOL0     C44588   8.379   7.633   6.194  0.2121 -0.2829 -0.4300
  324MOL0     C44589   8.417   7.699   6.061  0.1810  0.5186  0.1438
  324MOL0     C44590   8.371   7.838   6.050  0.0640 -0.1105  0.8567
  324MOL0     N44591   8.220   7.840   6.063 -0.2612 -0.7122  0.3055
  324MOL0     C44592   8.125   7.803   5.973  0.1746  0.5571  1.2843
  324MOL0     C44593   8.012   7.853   6.026 -0.7441 -0.7567  0.1626
  324MOL0     C44594   7.880   7.848   5.943  0.7334  0.2710  0.2804
  324MOL0     C44595   7.850   7.970   5.852 -0.1020 -0.0523 -0.2972
  324MOL0     C44596   7.717   7.980   5.802  0.4407  0.3714  0.5290
  324MOL0     C44597   7.698   8.072   5.675 -0.5965 -0.0226 -0.2319
  324MOL0     O44598   7.569   8.080   5.617  0.3422 -1.4108 -0.0076
  324MOL0     C44599   7.470   8.152   5.682 -0.2438  0.4019 -0.2705
  324MOL0     C44600   7.485   8.243   5.786  0.4431  0.4864 -0.1757
  324MOL0     C44601   7.376   8.301   5.841 -0.7632  0.2411 -0.1058
  324MOL0     C44602   7.401   8.408   5.941  0.7450 -0.3565 -0.6452
  324MOL0     C44603   7.243   8.266   5.808  0.0310 -0.1702  0.0050
  324MOL0     C44604   7.111   8.302   5.867  0.0145  0.6407 -0.5165
  324MOL0     O44605   6.996   8.221   5.833 -0.2633  0.1891 -0.0676
  324MOL0     C44606   6.869   8.278   5.865  0.4924  0.8262  0.2768
  324MOL0     C44607   6.837   8.390   5.789  0.1522 -1.1606 -1.5079
  324MOL0     C44608   6.712   8.457   5.794  0.2117  0.1204  0.2846
  324MOL0     C44609   6.610   8.398   5.867 -0.0037 -0.0747 -0.0016
  324MOL0     O44610   6.483   8.445   5.848 -0.6176  0.3834 -0.9184
  324MOL0     C44611   6.403   8.446   5.969  0.1305 -0.6359 -0.3839
  324MOL0     C44612   6.270   8.531   5.936 -0.0934 -0.2281 -1.0273
  324MOL0     C44613   6.293   8.686   5.928 -0.4659  1.1161  0.7210
  324MOL0     C44614   6.176   8.757   5.845 -1.0830  0.5956 -0.2360
  324MOL0     C44615   6.225   8.895   5.809 -0.2234  0.2044  0.0605
  324MOL0     C44616   6.105   8.984   5.768  1.2021  0.2133 -0.7686
  324MOL0     C44617   6.151   9.128   5.740  0.2004 -0.3099  0.4957
  324MOL0     C44618   6.038   9.222   5.702  0.1313 -0.1798  0.2426
  324MOL0    Cl44619   5.938   9.244   5.848  0.6336 -0.2307 -0.0105
  324MOL0     C44620   6.644   8.279   5.948  0.4963 -0.5278  0.9684
  324MOL0     C44621   6.775   8.229   5.956 -0.3888  0.4597  0.6396
  324MOL0     O44622   7.095   8.408   5.926 -0.2489  0.1183 -0.4830
  324MOL0     C44623   7.234   8.168   5.704  0.1912  0.6180  0.2785
  324MOL0     C44624   7.343   8.121   5.633 -0.3165  0.4764  0.3052
  324MOL0     N44625   8.040   7.922   6.142  0.6030 -0.4144 -0.1314
  324MOL0     N44626   8.161   7.909   6.167  0.1778 -0.1447 -0.0178
  324MOL0     C44627   8.525   6.812   6.191  0.2978  0.1613 -1.1307
  324MOL0     C44628   8.582   6.694   6.143  0.5416  0.0001 -0.2579
  324MOL0     C44629   8.839   6.385   5.941 -0.8639  0.1283 -0.6004
  324MOL0     C44630   8.881   6.431   5.807 -0.7092 -0.3184  0.4017
  324MOL0     C44631   8.959   6.352   5.720 -0.0265  0.2932 -0.0105
  324MOL0     C44632   9.022   6.240   5.768 -0.3918  0.5605  1.0383
  324MOL0     O44633   9.107   6.153   5.691  0.3536 -0.6313 -0.6010
  324MOL0     C44634   9.172   6.199   5.575 -0.3303 -0.6422  0.0928
  324MOL0     C44635   9.285   6.295   5.617  0.1690  0.1449  0.8182
  324MOL0     C44636   9.309   6.400   5.511 -0.1663  0.3734 -0.1892
  324MOL0     C44637   9.375   6.532   5.560 -0.6009 -0.0525 -0.1214
  324MOL0     C44638   9.456   6.583   5.445  0.5787 -0.4131 -0.8724
  324MOL0     C44639   9.537   6.585   5.362  0.6494  0.6331  1.1629
  324MOL0     C44640   8.983   6.202   5.895  0.3029 -0.3926 -0.0622
  324MOL0     C44641   8.910   6.272   5.982  0.1288  0.6794 -0.6109
  324MOL0     C44642   8.884   6.217   6.118  0.0195  0.0422 -0.1451
  324MOL0     H44643   8.717   6.828   5.864 -0.0693  2.1493 -0.0396
  324MOL0     H44644   8.591   7.011   5.937  1.0485  0.4283  2.0888
  324MOL0     H44645   8.374   7.001   6.329 -2.4182  4.1337  2.5287
  324MOL0     H44646   8.289   6.983   6.175  1.0293  1.2494 -2.2243
  324MOL0     H44647   8.272   7.224   6.156  1.7625  0.7659 -0.9636
  324MOL0     H44648   8.222   7.193   6.319 -1.1554  0.9048 -0.1029
  324MOL0     H44649   8.405   7.247   6.443  0.3845  1.3170 -0.2364
  324MOL0     H44650   8.516   7.267   6.306 -1.0053  1.0471 -2.5614
  324MOL0     H44651   8.256   7.420   6.309 -0.7839  2.4544  0.0548
  324MOL0     H44652   8.373   7.479   6.427  0.4461 -0.4043 -0.6515
  324MOL0     H44653   8.423   7.422   6.145 -0.0254 -1.5161  1.2705
  324MOL0     H44654   8.543   7.515   6.242 -0.2839  0.7868  0.9181
  324MOL0     H44655   8.270   7.634   6.204  0.3774  2.4044  4.1533
  324MOL0     H44656   8.407   7.706   6.270 -2.5351  1.6043 -1.0569
  324MOL0     H44657   8.379   7.632   5.984  0.5949 -0.9026  1.1355
  324MOL0     H44658   8.527   7.701   6.060  0.1721  1.4606  0.1729
  324MOL0     H44659   8.414   7.896   6.132 -1.8093  2.7685 -0.0429
  324MOL0     H44660   8.409   7.889   5.960  0.9292  0.1501  1.3617
  324MOL0     H44661   8.145   7.753   5.879 -1.5234  1.7113  0.2452
  324MOL0     H44662   7.805   7.845   6.023 -0.3259  1.5050 -0.6253
  324MOL0     H44663   7.875   7.758   5.882  2.5131  0.5690 -0.3665
  324MOL0     H44664   7.858   8.063   5.910 -0.1121  0.4550 -1.0868
  324MOL0     H44665   7.921   7.969   5.769  0.0159  4.4030 -0.5307
  324MOL0     H44666   7.683   7.882   5.767  3.4353 -1.4185  2.1377
  324MOL0     H44667   7.659   8.027   5.882  1.7092 -0.2052  1.8513
  324MOL0     H44668   7.743   8.171   5.684 -0.9174  0.2328 -1.2991
  324MOL0     H44669   7.767   8.033   5.599 -3.7162  0.0286 -3.3340
  324MOL0     H44670   7.586   8.257   5.824  0.1474 -2.2185  1.9340
  324MOL0     H44671   7.401   8.509   5.898  1.0449  0.6934  1.6970
  324MOL0     H44672   7.495   8.386   5.992 -0.7435 -2.0250  1.5588
  324MOL0     H44673   7.322   8.415   6.016 -0.5902  5.0627 -2.0549
  324MOL0     H44674   6.915   8.429   5.724  1.2691  2.2614  1.5589
  324MOL0     H44675   6.686   8.533   5.721 -2.9042  0.2743  1.4122
  324MOL0     H44676   6.375   8.342   5.988  0.7318 -0.5361  1.2699
  324MOL0     H44677   6.455   8.490   6.055 -2.5474  1.7427  0.1923
  324MOL0     H44678   6.225   8.481   5.849 -0.9469 -2.1843  0.4559
  324MOL0     H44679   6.195   8.524   6.015 -0.0785  0.2212 -0.9736
  324MOL0     H44680   6.391   8.697   5.881 -0.3121  1.4416  1.1120
  324MOL0     H44681   6.289   8.731   6.028 -0.7029  2.5117  0.1012
  324MOL0     H44682   6.084   8.768   5.903 -0.3206  1.2148  0.9010
  324MOL0     H44683   6.148   8.700   5.756  2.9694 -0.5297 -1.0090
  324MOL0     H44684   6.279   8.950   5.887 -1.9749  1.8227  0.2150
  324MOL0     H44685   6.291   8.880   5.724 -1.1889  2.5173 -1.1978
  324MOL0     H44686   6.038   8.981   5.854  4.3812  0.8833  1.9454
  324MOL0     H44687   6.056   8.951   5.676  1.1600 -0.6559 -0.4412
  324MOL0     H44688   6.218   9.108   5.656  3.3486 -0.2417  2.8549
  324MOL0     H44689   6.210   9.169   5.822  1.1393 -0.8239  0.0882
  324MOL0     H44690   5.995   9.175   5.613  2.2893  0.4492 -1.2179
  324MOL0     H44691   6.081   9.317   5.668  1.1401 -0.9702 -0.8014
  324MOL0     H44692   6.566   8.241   6.013  1.0377 -1.6903  0.9502
  324MOL0     H44693   6.792   8.143   6.021 -1.4867  0.4922  0.9939
  324MOL0     H44694   7.133   8.135   5.683  0.2478 -0.3336  1.4566
  324MOL0     H44695   7.321   8.074   5.538 -0.0084 -0.3904  0.6465
  324MOL0     H44696   8.488   6.821   6.292  0.2142 -0.9932 -1.0448
  324MOL0     H44697   8.549   6.606   6.198  0.4990 -0.0791 -0.4082
  324MOL0     H44698   8.869   6.533   5.771  0.3233  0.1497  1.3354
  324MOL0     H44699   8.995   6.388   5.624  0.0880 -1.7661 -0.7906
  324MOL0     H44700   9.220   6.123   5.513 -1.9540 -0.8917 -0.9158
  324MOL0     H44701   9.103   6.243   5.502 -0.0570  2.7874  1.7180
  324MOL0     H44702   9.382   6.248   5.631  0.8973  0.8605 -1.4981
  324MOL0     H44703   9.258   6.342   5.712  2.1987  0.2427  1.3861
  324MOL0     H44704   9.366   6.356   5.429  1.3271  2.3681 -0.2921
  324MOL0     H44705   9.211   6.425   5.470 -1.0085  0.9623  1.9908
  324MOL0     H44706   9.443   6.503   5.641 -0.0767 -0.7602 -0.8085
  324MOL0     H44707   9.301   6.608   5.587 -1.2217 -0.2395 -1.2391
  324MOL0     H44708   9.587   6.602   5.269 -0.9757 -2.4655 -0.4398
  324MOL0     H44709   9.029   6.116   5.942 -0.0410 -2.1776 -2.7608
  324MOL0     H44710   8.932   6.289   6.185  1.9707 -0.3916 -0.9989
  324MOL0     H44711   8.778   6.214   6.143  0.0684  2.0569  0.4533
  324MOL0     H44712   8.924   6.115   6.129  0.8946  0.3464 -0.4376
  325MOL0     O44713   0.438   4.855   7.047  0.4915 -0.1253 -0.2484
  325MOL0     C44714   0.376   4.775   7.118 -0.3984 -0.4462  0.0902
  325MOL0     O44715   0.275   4.814   7.209 -0.1305 -0.3316 -0.3117
  325MOL0     C44716   0.200   4.930   7.195 -0.1862 -0.0981  0.7478
  325MOL0     C44717   0.157   4.988   7.076  0.8396  0.2201  0.6462
  325MOL0     C44718   0.068   5.100   7.074  0.1196  0.2950 -0.1909
  325MOL0     C44719   0.025   5.147   7.197  0.5179 -0.1513 -0.3056
  325MOL0     O44720  -0.080   5.243   7.189 -0.5370  0.4093  0.6100
  325MOL0     C44721  -0.089   5.356   7.273 -0.3447  0.4813  0.3753
  325MOL0     C44722   0.023   5.462   7.257  0.1919 -0.1243  0.3013
  325MOL0     C44723   0.061   5.493   7.111  0.7365  0.8413 -0.1300
  325MOL0     C44724   0.103   5.634   7.095 -0.1205  0.4079  0.8729
  325MOL0     C44725   0.112   5.681   6.950  0.0210 -0.2361 -1.1787
  325MOL0     C44726  -0.019   5.681   6.862 -0.1450 -0.2605 -0.3522
  325MOL0     C44727  -0.120   5.786   6.896 -0.0092 -0.1123  0.5033
  325MOL0     C44728  -0.216   5.788   6.779 -0.7292 -1.3757  0.1623
  325MOL0     N44729  -0.288   5.911   6.782 -0.6699 -0.6908  0.1946
  325MOL0     C44730  -0.243   6.023   6.711  0.0791 -0.7797 -0.0110
  325MOL0     C44731  -0.346   6.112   6.724  0.1653  0.9868 -0.9042
  325MOL0     C44732  -0.348   6.246   6.665 -0.4607  0.9235  0.2068
  325MOL0     C44733  -0.401   6.352   6.764  0.6471  0.4512 -1.0058
  325MOL0     C44734  -0.419   6.502   6.705 -0.5898  0.0102 -0.8004
  325MOL0     C44735  -0.477   6.603   6.808  0.2786  0.0631 -0.7195
  325MOL0     O44736  -0.479   6.736   6.756 -0.1711  0.6749 -0.0621
  325MOL0     C44737  -0.565   6.830   6.808  0.1391  0.2949  0.6008
  325MOL0     C44738  -0.618   6.833   6.936 -0.0501 -0.2261 -0.3912
  325MOL0     C44739  -0.711   6.937   6.968  0.2225  0.8125 -1.1454
  325MOL0     C44740  -0.787   6.924   7.098 -0.6350  0.5801 -0.0376
  325MOL0     C44741  -0.730   7.041   6.879 -0.4381  0.2951  0.5248
  325MOL0     C44742  -0.799   7.165   6.924  0.6905 -0.1870 -1.1088
  325MOL0     O44743  -0.933   7.161   6.961 -0.1411  0.9282 -0.5508
  325MOL0     C44744  -1.002   7.281   6.985 -0.1956 -0.1024 -0.9118
  325MOL0     C44745  -1.062   7.342   6.874 -0.2660 -0.9534 -0.4949
  325MOL0     C44746  -1.129   7.470   6.888  0.1201 -0.4396 -0.9826
  325MOL0     C44747  -1.113   7.545   7.008  0.7032  1.1009  0.0858
  325MOL0     O44748  -1.157   7.671   7.036 -0.8036  0.3356 -0.2658
  325MOL0     C44749  -1.173   7.757   6.922  0.4208  0.3392  0.6778
  325MOL0     C44750  -1.169   7.908   6.960  0.5910 -0.3104 -0.0081
  325MOL0     C44751  -1.306   7.979   6.990 -0.0766 -0.4810 -0.0208
  325MOL0     C44752  -1.377   7.924   7.107  0.0345 -0.2687  0.0649
  325MOL0     C44753  -1.521   7.962   7.112  0.7316  0.4736  0.7606
  325MOL0     C44754  -1.608   7.911   7.233  0.4605  0.3642  0.0656
  325MOL0     C44755  -1.750   7.972   7.209 -1.5298  0.2225  0.1702
  325MOL0     C44756  -1.848   7.921   7.314 -0.2574  0.1766 -0.2160
  325MOL0    Cl44757  -2.015   7.970   7.285  0.8213  0.2759  0.4635
  325MOL0     C44758  -1.057   7.474   7.122 -0.5451 -0.1391 -0.2047
  325MOL0     C44759  -1.001   7.350   7.112  0.4357 -0.0306  0.6790
  325MOL0     O44760  -0.726   7.267   6.931 -0.1029 -0.3358 -0.7178
  325MOL0     C44761  -0.670   7.038   6.754  0.1824  0.2244 -0.6062
  325MOL0     C44762  -0.593   6.938   6.718 -0.0380 -0.1811  0.2035
  325MOL0     N44763  -0.435   6.053   6.811  0.1787 -0.3305 -0.3374
  325MOL0     N44764  -0.401   5.937   6.841  0.8645 -0.1061 -0.0074
  325MOL0     C44765   0.066   5.088   7.321  0.2031 -0.6796 -0.7013
  325MOL0     C44766   0.158   4.985   7.316 -0.4025 -0.7637 -0.9469
  325MOL0     C44767   0.442   4.646   7.124  0.5936  0.8716  0.7290
  325MOL0     C44768   0.418   4.575   7.242  0.2553  0.4193 -0.5432
  325MOL0     C44769   0.463   4.441   7.249 -0.6270 -0.2226 -0.4189
  325MOL0     C44770   0.532   4.379   7.144  0.4185 -0.1504  0.1607
  325MOL0     O44771   0.574   4.255   7.143  0.9239 -0.2921 -0.3085
  325MOL0     C44772   0.604   4.188   7.268 -0.4657 -0.7043  0.4109
  325MOL0     C44773   0.492   4.090   7.314 -0.5279 -0.7986 -0.9214
  325MOL0     C44774   0.492   3.972   7.218  0.7880 -0.3647  0.0792
  325MOL0     C44775   0.452   3.834   7.275 -0.9499 -0.6327  0.4834
  325MOL0     C44776   0.314   3.830   7.324  0.1579  0.0357  1.0582
  325MOL0     C44777   0.197   3.824   7.355  0.3220 -0.1413  0.2063
  325MOL0     C44778   0.535   4.454   7.027  0.4907 -0.5455 -0.2250
  325MOL0     C44779   0.486   4.579   7.011 -0.2328  0.4965 -0.3882
  325MOL0     C44780   0.476   4.634   6.874  0.7784 -1.4979 -0.4140
  325MOL0     H44781   0.195   4.967   6.976 -0.1608  1.3145  0.0097
  325MOL0     H44782   0.035   5.142   6.979  1.3592 -0.5649 -1.0419
  325MOL0     H44783  -0.102   5.312   7.373 -0.1302 -0.6179 -0.0583
  325MOL0     H44784  -0.177   5.415   7.248  0.7395  2.5983  1.3093
  325MOL0     H44785  -0.027   5.542   7.312 -1.2073 -0.6451 -0.1701
  325MOL0     H44786   0.119   5.454   7.309 -0.3825 -0.3327  1.3478
  325MOL0     H44787   0.149   5.435   7.082  1.1809  2.6106 -2.6279
  325MOL0     H44788  -0.020   5.457   7.047  0.9651 -2.1531  1.1049
  325MOL0     H44789   0.032   5.700   7.147  0.2253  1.2905  0.2476
  325MOL0     H44790   0.202   5.645   7.141 -0.1211  0.7649  0.7887
  325MOL0     H44791   0.187   5.617   6.903  0.6722  2.6939 -4.6210
  325MOL0     H44792   0.154   5.781   6.962  2.0222 -1.1706  0.1136
  325MOL0     H44793   0.009   5.690   6.756  1.5727  2.5177  0.2200
  325MOL0     H44794  -0.072   5.587   6.878  2.9808 -1.9342  1.0544
  325MOL0     H44795  -0.066   5.881   6.907  0.6898 -0.7650  3.3268
  325MOL0     H44796  -0.171   5.763   6.990  0.2523  2.5089  1.3702
  325MOL0     H44797  -0.168   5.767   6.683 -0.1972  0.2542  0.0608
  325MOL0     H44798  -0.290   5.707   6.785 -2.0422 -0.3312 -1.1238
  325MOL0     H44799  -0.146   6.040   6.665 -0.7212 -0.5126 -1.6659
  325MOL0     H44800  -0.428   6.233   6.591 -2.2806 -0.8146  2.3358
  325MOL0     H44801  -0.259   6.283   6.614  0.5371  1.1823  2.0599
  325MOL0     H44802  -0.498   6.319   6.802  1.1445 -0.3684 -0.4270
  325MOL0     H44803  -0.328   6.357   6.845  0.1106  1.2474 -0.5624
  325MOL0     H44804  -0.329   6.536   6.653  0.8842 -1.0009  0.9429
  325MOL0     H44805  -0.493   6.495   6.624 -2.2371 -2.0487  0.7601
  325MOL0     H44806  -0.570   6.564   6.850  0.9811 -0.6216  0.2227
  325MOL0     H44807  -0.414   6.591   6.896 -0.3721 -2.5585 -0.5419
  325MOL0     H44808  -0.599   6.759   7.013  3.3046  0.7171 -0.1419
  325MOL0     H44809  -0.779   7.021   7.148  0.8810  0.1096  0.6951
  325MOL0     H44810  -0.742   6.849   7.164  2.6013  2.3725  0.0054
  325MOL0     H44811  -0.893   6.902   7.085 -1.3218  2.6876  1.4365
  325MOL0     H44812  -1.082   7.283   6.786 -1.2177 -1.3014 -0.0685
  325MOL0     H44813  -1.171   7.523   6.803  0.2520  0.7960 -0.3083
  325MOL0     H44814  -1.090   7.749   6.851 -0.2656  0.8982 -0.2174
  325MOL0     H44815  -1.266   7.732   6.869  1.4613 -1.4718 -0.3759
  325MOL0     H44816  -1.100   7.918   7.044  2.7972  1.2199 -1.8877
  325MOL0     H44817  -1.117   7.964   6.882  1.9816  0.7862  1.6570
  325MOL0     H44818  -1.371   7.982   6.902 -2.0125  0.8364  1.3673
  325MOL0     H44819  -1.269   8.081   7.008  0.5994 -0.4115 -1.6560
  325MOL0     H44820  -1.324   7.955   7.198  1.9768  2.1000 -1.7203
  325MOL0     H44821  -1.370   7.816   7.096  0.8319 -0.2182  0.0146
  325MOL0     H44822  -1.526   8.071   7.106  0.5289  0.4008 -0.9062
  325MOL0     H44823  -1.566   7.923   7.020  2.5508  0.2833 -0.1027
  325MOL0     H44824  -1.572   7.952   7.328  1.6261  1.1778 -0.7036
  325MOL0     H44825  -1.619   7.802   7.233  0.0560  0.3796 -1.7690
  325MOL0     H44826  -1.790   7.942   7.112 -1.8390 -0.4015  0.4836
  325MOL0     H44827  -1.749   8.080   7.226  3.6996  0.2049  1.7083
  325MOL0     H44828  -1.819   7.953   7.414  0.4270 -0.4998 -0.1852
  325MOL0     H44829  -1.851   7.811   7.310  0.0435  0.1745 -0.4168
  325MOL0     H44830  -1.055   7.526   7.217 -0.0638 -1.3898  0.4814
  325MOL0     H44831  -0.945   7.305   7.193  1.6236  3.7422  2.1680
  325MOL0     H44832  -0.690   7.120   6.685 -0.9178  2.2740  1.9757
  325MOL0     H44833  -0.551   6.941   6.618 -1.7852 -1.0497 -0.6057
  325MOL0     H44834   0.034   5.137   7.412 -0.9288  5.5423 -3.9178
  325MOL0     H44835   0.195   4.941   7.409  0.1280 -0.5117 -1.0362
  325MOL0     H44836   0.343   4.611   7.312 -0.0843 -4.6560  2.1477
  325MOL0     H44837   0.445   4.391   7.344  1.8248  0.9233  0.7473
  325MOL0     H44838   0.696   4.130   7.259 -0.6775 -0.7645 -1.7723
  325MOL0     H44839   0.606   4.257   7.353 -0.5705 -0.6888  0.4011
  325MOL0     H44840   0.392   4.132   7.329 -0.0702 -1.0154  5.6669
  325MOL0     H44841   0.518   4.048   7.412 -1.4404 -0.5438 -0.5533
  325MOL0     H44842   0.414   4.004   7.148  1.2653  0.9748  0.1326
  325MOL0     H44843   0.587   3.964   7.163 -0.3698 -0.6347 -2.0232
  325MOL0     H44844   0.521   3.809   7.356  0.6340  4.2245  0.9685
  325MOL0     H44845   0.452   3.757   7.198  2.3048 -0.8889  0.6227
  325MOL0     H44846   0.096   3.845   7.383 -0.0354  1.4131 -1.9974
  325MOL0     H44847   0.571   4.414   6.932 -3.2248  0.2260 -2.1552
  325MOL0     H44848   0.562   4.685   6.828 -1.6107  2.6999 -0.6970
  325MOL0     H44849   0.450   4.559   6.799  1.2090  0.0012 -2.1673
  325MOL0     H44850   0.399   4.712   6.873 -0.0862 -2.2846 -2.5609
  326MOL0     O44851   2.391   3.218   7.785  0.6548 -0.7273 -0.6767
  326MOL0     C44852   2.309   3.308   7.817  0.2943 -0.4179  0.3535
  326MOL0     O44853   2.287   3.346   7.947 -0.0741  0.2729 -0.0438
  326MOL0     C44854   2.358   3.292   8.056  0.4341 -0.2163 -0.1190
  326MOL0     C44855   2.390   3.159   8.064  0.2391  0.6713 -0.0683
  326MOL0     C44856   2.456   3.110   8.181 -0.5107 -0.7438  0.5825
  326MOL0     C44857   2.515   3.200   8.276  0.6964  0.6101  0.2246
  326MOL0     O44858   2.580   3.151   8.393  0.8397 -0.0050  0.3104
  326MOL0     C44859   2.678   3.230   8.458 -0.4047  0.1881 -0.1350
  326MOL0     C44860   2.795   3.143   8.495 -0.8676  0.3855 -0.1596
  326MOL0     C44861   2.860   3.110   8.360  0.1186 -0.4305  0.6561
  326MOL0     C44862   2.959   2.988   8.370  0.1812  0.0637 -0.0243
  326MOL0     C44863   3.001   2.929   8.232 -0.1759  0.2969 -0.5403
  326MOL0     C44864   3.066   2.789   8.251  0.0367  0.3545  0.8607
  326MOL0     C44865   3.193   2.789   8.342  0.4662 -0.7549 -0.3372
  326MOL0     C44866   3.240   2.658   8.401  0.6272 -0.5695  0.5131
  326MOL0     N44867   3.341   2.671   8.510 -0.6799  0.3326  0.3531
  326MOL0     C44868   3.422   2.790   8.527  0.4851  0.4849  0.8293
  326MOL0     C44869   3.491   2.753   8.636 -0.1213  0.7894 -0.1746
  326MOL0     C44870   3.589   2.845   8.697  0.6138 -0.7164 -0.6427
  326MOL0     C44871   3.736   2.806   8.683 -0.4605  0.4569  0.5762
  326MOL0     C44872   3.765   2.710   8.798 -0.3498 -0.5082  0.6821
  326MOL0     C44873   3.917   2.678   8.795 -0.6151  1.2180 -1.2317
  326MOL0     O44874   3.988   2.799   8.788 -0.1410  0.4066 -0.4425
  326MOL0     C44875   4.117   2.805   8.806 -0.1193 -0.9360 -1.4259
  326MOL0     C44876   4.161   2.921   8.873  0.1796 -0.7241 -1.5345
  326MOL0     C44877   4.294   2.937   8.913 -0.2001 -0.6280  0.1490
  326MOL0     C44878   4.326   3.049   9.016  0.7377  0.0286  0.0111
  326MOL0     C44879   4.384   2.836   8.880 -0.9591 -0.7082 -0.8983
  326MOL0     C44880   4.520   2.838   8.923 -0.5316 -0.0102 -0.0352
  326MOL0     O44881   4.575   2.714   8.929 -0.1632 -0.4147  0.6314
  326MOL0     C44882   4.687   2.680   8.992 -0.2020  0.3841  0.4456
  326MOL0     C44883   4.690   2.552   9.059  0.8501  0.0940  0.8607
  326MOL0     C44884   4.807   2.509   9.125 -0.0648 -0.2956  0.4628
  326MOL0     C44885   4.917   2.599   9.158  0.1102  0.1921 -0.1760
  326MOL0     O44886   5.027   2.557   9.228  0.3967  0.1237  0.4757
  326MOL0     C44887   5.020   2.611   9.362 -0.1232 -1.1091  0.1175
  326MOL0     C44888   5.136   2.560   9.448  0.5836  0.1306  0.2076
  326MOL0     C44889   5.136   2.637   9.581 -0.3758 -0.4337 -0.7524
  326MOL0     C44890   5.265   2.594   9.644 -0.7288  1.0756 -0.6205
  326MOL0     C44891   5.293   2.687   9.761 -0.1940 -0.0181 -0.6538
  326MOL0     C44892   5.421   2.648   9.826  0.0458  0.0046 -0.4065
  326MOL0     C44893   5.442   2.735   9.956 -0.7627 -0.7483  0.7389
  326MOL0     C44894   5.590   2.762   9.980 -0.8417  0.7364 -0.0420
  326MOL0    Cl44895   5.618   2.883  10.107  0.3070 -0.7045  0.0815
  326MOL0     C44896   4.913   2.720   9.094 -0.2248 -0.8489 -0.1929
  326MOL0     C44897   4.806   2.758   9.008  0.8180 -0.6542 -0.4569
  326MOL0     O44898   4.574   2.942   8.958 -0.0526  0.4682  0.0298
  326MOL0     C44899   4.343   2.726   8.805  0.0098  0.3670  0.5995
  326MOL0     C44900   4.209   2.709   8.772  0.0499  0.6633 -0.1278
  326MOL0     N44901   3.448   2.629   8.689 -0.4744 -0.5757  0.1368
  326MOL0     N44902   3.369   2.574   8.602 -0.2440  0.4135 -1.0438
  326MOL0     C44903   2.470   3.333   8.257 -0.0719 -1.4091 -1.2255
  326MOL0     C44904   2.398   3.382   8.145 -0.2409 -0.1239 -0.0801
  326MOL0     C44905   2.246   3.392   7.712 -0.5652  0.1574 -0.0557
  326MOL0     C44906   2.255   3.532   7.724 -0.0138  0.5967 -0.5550
  326MOL0     C44907   2.197   3.604   7.615  0.2089  0.0743 -0.8821
  326MOL0     C44908   2.130   3.542   7.511 -0.0183 -0.5052 -0.6097
  326MOL0     O44909   2.074   3.637   7.424  0.1532 -0.0493  0.0199
  326MOL0     C44910   1.960   3.602   7.343 -0.1685 -0.5031 -0.0134
  326MOL0     C44911   1.990   3.533   7.210  0.1145  0.1798  0.1191
  326MOL0     C44912   1.865   3.516   7.122  0.1090  0.2058  0.1717
  326MOL0     C44913   1.812   3.369   7.107  0.6913  0.8134  1.5347
  326MOL0     C44914   1.758   3.300   7.227  0.5149 -0.6029 -0.3705
  326MOL0     C44915   1.712   3.267   7.338 -1.4788  0.0309 -0.2497
  326MOL0     C44916   2.119   3.407   7.515  0.0653 -0.5197  0.4429
  326MOL0     C44917   2.174   3.327   7.607 -0.0716  0.4793  0.2384
  326MOL0     C44918   2.157   3.178   7.585 -0.3056 -0.0082  0.3027
  326MOL0     H44919   2.352   3.083   7.996  1.7470 -0.8756  0.7653
  326MOL0     H44920   2.485   3.006   8.189 -0.7428 -0.8765 -0.2171
  326MOL0     H44921   2.630   3.274   8.545  0.7301  0.9333  0.1343
  326MOL0     H44922   2.714   3.309   8.391  0.8918  0.1098  0.4526
  326MOL0     H44923   2.873   3.197   8.549  1.7513 -3.2383  0.0651
  326MOL0     H44924   2.767   3.056   8.555  0.5649 -0.9175 -1.2724
  326MOL0     H44925   2.794   3.082   8.277  0.2284 -0.4973  0.5898
  326MOL0     H44926   2.923   3.196   8.335 -0.4655 -0.4798 -1.1556
  326MOL0     H44927   3.053   3.026   8.411 -0.4535 -0.8505  2.4305
  326MOL0     H44928   2.918   2.921   8.447  1.7159 -1.8882 -0.8196
  326MOL0     H44929   3.061   3.006   8.183 -1.0512  1.0704 -0.4329
  326MOL0     H44930   2.913   2.923   8.168 -0.2495  0.8384 -0.4973
  326MOL0     H44931   2.993   2.722   8.298  1.5019 -4.2368 -2.6280
  326MOL0     H44932   3.107   2.752   8.156 -0.8837 -0.8502  0.9046
  326MOL0     H44933   3.177   2.856   8.427  1.9361 -2.0198  0.9919
  326MOL0     H44934   3.275   2.823   8.279  1.7116 -2.9888 -0.0162
  326MOL0     H44935   3.157   2.597   8.437 -2.2622  1.9732 -1.3257
  326MOL0     H44936   3.286   2.605   8.317  1.4433  1.3616 -0.3410
  326MOL0     H44937   3.423   2.887   8.477 -1.1404  0.0405 -0.1124
  326MOL0     H44938   3.566   2.864   8.802  5.0906 -1.4412  0.6522
  326MOL0     H44939   3.581   2.944   8.653  1.7230  0.0388  0.7753
  326MOL0     H44940   3.751   2.748   8.591  2.3609  2.5209 -0.3871
  326MOL0     H44941   3.807   2.889   8.681  0.5858 -0.4313 -0.7131
  326MOL0     H44942   3.738   2.761   8.891 -1.7004  1.2721 -0.6250
  326MOL0     H44943   3.713   2.615   8.781  0.0667 -1.3671  3.6321
  326MOL0     H44944   3.953   2.621   8.881 -1.6209  1.8212 -0.3975
  326MOL0     H44945   3.924   2.623   8.701 -2.4273 -0.9982 -0.1594
  326MOL0     H44946   4.093   3.001   8.902  2.0797  0.3337  0.2573
  326MOL0     H44947   4.412   3.110   8.985 -1.0918  1.3622 -2.9292
  326MOL0     H44948   4.342   3.008   9.116 -0.5536 -2.1977 -0.6220
  326MOL0     H44949   4.242   3.120   9.020 -0.8651 -1.8350  0.6681
  326MOL0     H44950   4.598   2.496   9.046  1.5526 -0.4910 -3.1018
  326MOL0     H44951   4.831   2.408   9.156  0.0229 -0.4590 -0.1244
  326MOL0     H44952   5.023   2.720   9.355  2.0160 -1.1085  0.3392
  326MOL0     H44953   4.927   2.597   9.417 -1.4880  0.3177 -1.6928
  326MOL0     H44954   5.125   2.451   9.445 -0.3170  0.2292 -0.5913
  326MOL0     H44955   5.227   2.590   9.395  0.8623  2.0960  1.6876
  326MOL0     H44956   5.048   2.597   9.632 -1.2501  0.3063 -1.6359
  326MOL0     H44957   5.122   2.745   9.577  1.0868 -0.1075  1.4363
  326MOL0     H44958   5.351   2.602   9.578  1.0480  2.1211  1.6725
  326MOL0     H44959   5.260   2.493   9.685  1.8444  1.3141  0.4102
  326MOL0     H44960   5.304   2.785   9.715 -2.5465  0.5539 -0.1206
  326MOL0     H44961   5.210   2.683   9.833 -0.8786  0.6198 -1.3865
  326MOL0     H44962   5.504   2.667   9.757  1.1357 -1.4590  0.4488
  326MOL0     H44963   5.427   2.541   9.852  0.4250 -0.4869 -2.3377
  326MOL0     H44964   5.382   2.685  10.032 -2.3217 -1.6238 -1.0149
  326MOL0     H44965   5.381   2.826   9.953  3.5696  2.7812  4.2750
  326MOL0     H44966   5.654   2.783   9.894 -1.3136  2.1133 -0.0877
  326MOL0     H44967   5.639   2.672  10.020 -2.8747 -0.7082 -0.6279
  326MOL0     H44968   4.989   2.797   9.102 -0.6724 -0.5898  2.6537
  326MOL0     H44969   4.809   2.857   8.964  0.6158 -0.8210 -0.8515
  326MOL0     H44970   4.416   2.653   8.774  0.7949  0.2414  2.6191
  326MOL0     H44971   4.176   2.623   8.716  2.2801 -1.1929  1.2415
  326MOL0     H44972   2.506   3.405   8.330 -1.1514 -0.9084 -1.1649
  326MOL0     H44973   2.382   3.489   8.143 -2.2232 -0.3698 -2.3001
  326MOL0     H44974   2.295   3.577   7.814  1.7698 -1.4812 -0.2387
  326MOL0     H44975   2.195   3.712   7.609 -0.6257  0.2229  1.3875
  326MOL0     H44976   1.901   3.531   7.401 -0.6469 -1.3543 -1.4731
  326MOL0     H44977   1.909   3.696   7.319 -0.2352  0.5280  3.5688
  326MOL0     H44978   2.044   3.438   7.219 -1.4634 -1.0528 -2.2391
  326MOL0     H44979   2.058   3.593   7.149 -0.2781 -1.3426 -1.9443
  326MOL0     H44980   1.780   3.564   7.172 -0.0505  1.0385 -0.8594
  326MOL0     H44981   1.882   3.572   7.030 -1.5729  0.6498  0.0984
  326MOL0     H44982   1.893   3.314   7.058  0.3798  0.8693  0.9474
  326MOL0     H44983   1.730   3.366   7.034  0.9872 -1.6785  1.2310
  326MOL0     H44984   1.684   3.247   7.439  0.3469 -2.1584 -0.0943
  326MOL0     H44985   2.066   3.368   7.428 -1.1009  0.8154  0.5200
  326MOL0     H44986   2.121   3.139   7.681 -1.0222  0.9951  0.4615
  326MOL0     H44987   2.080   3.151   7.512  0.7577 -2.2915 -0.0733
  326MOL0     H44988   2.255   3.133   7.569  0.7294  0.3230  4.5101
  327MOL0     O44989   7.122   2.026   2.173 -0.0099  0.3201  0.9087
  327MOL0     C44990   7.169   2.092   2.261  0.2622 -0.4609 -0.5937
  327MOL0     O44991   7.128   2.094   2.388  0.3053 -0.1407  0.0986
  327MOL0     C44992   7.030   2.008   2.438  0.9647 -0.4441  0.1103
  327MOL0     C44993   7.000   1.880   2.392  0.0340  0.5892  0.5885
  327MOL0     C44994   6.877   1.816   2.436  0.0310 -0.4112  0.1463
  327MOL0     C44995   6.814   1.869   2.548  0.2627  0.3313 -0.8942
  327MOL0     O44996   6.696   1.802   2.577 -0.3453 -0.4244 -0.0346
  327MOL0     C44997   6.591   1.875   2.634 -0.2376 -0.6586 -0.8622
  327MOL0     C44998   6.463   1.789   2.625  0.1500 -0.6016  0.3624
  327MOL0     C44999   6.347   1.852   2.690 -0.3271  1.1808  0.1628
  327MOL0     C45000   6.217   1.776   2.689 -0.1702  0.0924  0.3502
  327MOL0     C45001   6.100   1.846   2.755  0.7702  0.5037  0.1623
  327MOL0     C45002   6.112   1.890   2.900 -0.1561 -0.4162  0.2141
  327MOL0     C45003   5.974   1.947   2.941 -0.1540  0.1828  0.3546
  327MOL0     C45004   5.868   1.850   2.978  0.0232  0.2827  0.1603
  327MOL0     N45005   5.766   1.914   3.045  0.1139 -0.5791 -0.1066
  327MOL0     C45006   5.758   1.966   3.172  0.1878 -0.0666  0.7285
  327MOL0     C45007   5.634   2.032   3.174 -0.2640  0.5838 -0.4731
  327MOL0     C45008   5.581   2.114   3.289 -0.1088 -0.8212 -0.4520
  327MOL0     C45009   5.616   2.050   3.425 -1.0473  0.6329 -0.5242
  327MOL0     C45010   5.546   1.910   3.442 -0.5145  0.0136  0.7226
  327MOL0     C45011   5.599   1.831   3.563 -0.4383  0.3161 -0.5640
  327MOL0     O45012   5.706   1.754   3.514 -0.0194  0.0460  0.3730
  327MOL0     C45013   5.792   1.702   3.598 -0.0652 -0.4325  0.2004
  327MOL0     C45014   5.919   1.682   3.561 -0.2439 -0.6345  0.3163
  327MOL0     C45015   6.016   1.616   3.634  0.1777  0.3910 -0.1908
  327MOL0     C45016   6.147   1.596   3.560 -0.0516  0.4107 -0.3873
  327MOL0     C45017   5.980   1.578   3.770  0.2157  1.1185  0.1188
  327MOL0     C45018   6.067   1.514   3.873  0.0756 -0.3387 -0.4836
  327MOL0     O45019   6.018   1.499   4.000 -0.0056 -0.1946 -0.2260
  327MOL0     C45020   6.069   1.405   4.087 -0.1063 -0.0554  0.0590
  327MOL0     C45021   6.053   1.434   4.221  0.3324  0.3372  0.6254
  327MOL0     C45022   6.089   1.344   4.322 -0.2235 -0.6780 -0.2442
  327MOL0     C45023   6.140   1.213   4.289  0.5546  1.0776 -0.8897
  327MOL0     O45024   6.195   1.128   4.388  0.0576 -0.1104 -0.2394
  327MOL0     C45025   6.273   1.202   4.489 -0.3388 -0.1189  0.5734
  327MOL0     C45026   6.350   1.100   4.570  0.2060  0.6082  0.3712
  327MOL0     C45027   6.451   1.007   4.475  0.2172 -0.9629 -0.1288
  327MOL0     C45028   6.513   1.088   4.358 -0.0900  0.3805 -0.6175
  327MOL0     C45029   6.629   1.019   4.295  0.8650 -0.0849  0.5095
  327MOL0     C45030   6.593   0.888   4.210  0.0657  0.0510 -0.0532
  327MOL0     C45031   6.725   0.804   4.195  0.8306 -0.4720  0.2727
  327MOL0     C45032   6.686   0.688   4.106  0.4499  0.4784  0.9065
  327MOL0    Cl45033   6.832   0.584   4.104 -0.2515  0.3750 -0.0194
  327MOL0     C45034   6.149   1.184   4.153 -0.2676 -0.6120  0.3126
  327MOL0     C45035   6.105   1.275   4.055 -0.0671  0.6762  1.6510
  327MOL0     O45036   6.178   1.491   3.844 -0.3558  0.4905 -0.3216
  327MOL0     C45037   5.847   1.606   3.815  1.0179  0.3090 -0.0772
  327MOL0     C45038   5.763   1.685   3.734  0.4709  0.3367  0.7194
  327MOL0     N45039   5.575   2.010   3.054 -0.1898 -0.7967 -0.3073
  327MOL0     N45040   5.649   1.940   2.970  0.0646  0.1931  0.0329
  327MOL0     C45041   6.861   1.984   2.608 -0.1503  0.8303 -0.0663
  327MOL0     C45042   6.962   2.067   2.547  0.5417 -0.9100  0.6315
  327MOL0     C45043   7.264   2.191   2.220 -0.7854  0.0098  0.3678
  327MOL0     C45044   7.303   2.286   2.318  0.8684  0.7948 -1.1120
  327MOL0     C45045   7.400   2.382   2.290 -0.4847 -0.2759 -0.3078
  327MOL0     C45046   7.459   2.413   2.168  0.8043  0.1793  0.1976
  327MOL0     O45047   7.535   2.524   2.143 -0.3440  0.0690  0.2898
  327MOL0     C45048   7.556   2.616   2.246  0.1552  0.3641 -0.0096
  327MOL0     C45049   7.659   2.722   2.203  0.4570  0.8819 -0.5310
  327MOL0     C45050   7.596   2.799   2.093 -0.3767 -0.9238 -0.1530
  327MOL0     C45051   7.680   2.919   2.046 -0.2700  0.6505 -0.7261
  327MOL0     C45052   7.619   2.971   1.926  0.3136 -0.1347 -0.2782
  327MOL0     C45053   7.564   3.001   1.827  0.5433 -0.1838  1.0363
  327MOL0     C45054   7.438   2.303   2.087  0.4199  0.5417 -0.2648
  327MOL0     C45055   7.345   2.200   2.100  0.8624  0.4062 -1.0618
  327MOL0     C45056   7.327   2.114   1.982  0.2407 -0.7763 -0.7761
  327MOL0     H45057   7.046   1.823   2.312 -1.1414 -3.7095  2.6779
  327MOL0     H45058   6.828   1.733   2.384  0.4769 -0.4281 -0.2523
  327MOL0     H45059   6.576   1.966   2.576 -0.6600  0.9589  1.6408
  327MOL0     H45060   6.608   1.900   2.740  1.0331 -2.6895 -0.5268
  327MOL0     H45061   6.450   1.778   2.516 -0.6292  2.3071  0.0935
  327MOL0     H45062   6.481   1.690   2.667  2.8568 -0.5648 -0.5315
  327MOL0     H45063   6.367   1.867   2.796  0.9452 -0.0037  0.1119
  327MOL0     H45064   6.330   1.946   2.637  2.7238  1.4211 -0.5622
  327MOL0     H45065   6.186   1.748   2.588 -1.5334  0.4037  0.6611
  327MOL0     H45066   6.249   1.685   2.742 -1.2554 -0.1999  0.5288
  327MOL0     H45067   6.012   1.784   2.737  1.7228  0.0796 -4.2718
  327MOL0     H45068   6.092   1.934   2.690 -0.0516 -0.1577 -0.6697
  327MOL0     H45069   6.130   1.798   2.957 -0.3740 -1.7766 -1.8164
  327MOL0     H45070   6.193   1.963   2.911 -1.4624  1.0063  0.7085
  327MOL0     H45071   5.931   2.022   2.873  0.0729  0.7520  0.8277
  327MOL0     H45072   5.996   2.006   3.031 -1.9898  0.2508  0.7870
  327MOL0     H45073   5.813   1.800   2.898 -1.9471 -1.6513  2.5648
  327MOL0     H45074   5.912   1.779   3.049 -2.3686  1.4035  2.9841
  327MOL0     H45075   5.833   1.958   3.250  0.4293  1.6234  0.6987
  327MOL0     H45076   5.475   2.129   3.272  0.2363  2.6508 -0.1992
  327MOL0     H45077   5.631   2.211   3.282 -1.0700 -0.2214  0.7579
  327MOL0     H45078   5.722   2.041   3.451 -1.9223 -1.4526  2.9920
  327MOL0     H45079   5.577   2.121   3.499 -1.9854  1.2390 -1.5612
  327MOL0     H45080   5.437   1.921   3.445 -0.5955  0.7787 -2.1536
  327MOL0     H45081   5.562   1.850   3.351 -2.4563  0.7352 -0.1459
  327MOL0     H45082   5.625   1.901   3.643 -1.2567  1.5955 -1.3698
  327MOL0     H45083   5.521   1.763   3.598 -1.2090  0.9129 -1.0761
  327MOL0     H45084   5.953   1.698   3.459 -0.6187  0.2967  0.3312
  327MOL0     H45085   6.153   1.489   3.540 -0.3196  0.7337 -2.4480
  327MOL0     H45086   6.232   1.631   3.620 -0.4082  4.2710 -1.8234
  327MOL0     H45087   6.146   1.656   3.469  2.1352 -0.7607 -1.2614
  327MOL0     H45088   5.998   1.522   4.252  0.6988  0.1906  1.7557
  327MOL0     H45089   6.082   1.367   4.428 -0.7747 -1.3978 -0.1170
  327MOL0     H45090   6.345   1.270   4.442  0.3375 -0.0824  1.6080
  327MOL0     H45091   6.204   1.245   4.563 -0.6136 -0.9710  0.8176
  327MOL0     H45092   6.413   1.150   4.645  0.3798  0.5019  0.2968
  327MOL0     H45093   6.279   1.039   4.625 -1.1562  2.1158  0.3619
  327MOL0     H45094   6.398   0.921   4.431  1.3052 -1.7581  0.0722
  327MOL0     H45095   6.526   0.973   4.547  0.0307 -2.6830 -0.6825
  327MOL0     H45096   6.556   1.178   4.402  1.8754 -0.8309  0.0623
  327MOL0     H45097   6.451   1.119   4.274  0.8566  2.5729 -0.5745
  327MOL0     H45098   6.686   1.090   4.234 -2.8430  1.4211 -1.5552
  327MOL0     H45099   6.677   0.999   4.391 -0.2581 -0.1750  1.0781
  327MOL0     H45100   6.572   0.923   4.109  0.2103  0.0612 -0.0814
  327MOL0     H45101   6.510   0.829   4.249 -0.7368  0.2665 -1.3682
  327MOL0     H45102   6.750   0.763   4.293 -2.9228  1.1273  2.0683
  327MOL0     H45103   6.805   0.864   4.148  0.5708 -0.6374 -0.3850
  327MOL0     H45104   6.660   0.723   4.006  0.9413 -2.6102 -0.3813
  327MOL0     H45105   6.603   0.635   4.155  1.3985  0.6517  2.7892
  327MOL0     H45106   6.198   1.089   4.137 -0.9308 -1.0019  0.5537
  327MOL0     H45107   6.119   1.246   3.951  0.1549  0.5306  1.7189
  327MOL0     H45108   5.805   1.584   3.913  1.5797 -0.2591  0.0457
  327MOL0     H45109   5.672   1.716   3.785  0.7676 -1.7410  2.7136
  327MOL0     H45110   6.808   2.029   2.692 -1.5355 -0.8285 -0.0007
  327MOL0     H45111   6.976   2.169   2.584 -0.1031 -0.5214 -0.1714
  327MOL0     H45112   7.268   2.291   2.420 -0.6052 -0.2683 -1.5385
  327MOL0     H45113   7.408   2.455   2.371  0.1733  4.4573 -4.1887
  327MOL0     H45114   7.466   2.672   2.273 -0.3690  0.6821 -2.2089
  327MOL0     H45115   7.602   2.568   2.333  1.7048 -0.1115 -1.0503
  327MOL0     H45116   7.744   2.666   2.162 -0.8085 -0.1181 -1.8840
  327MOL0     H45117   7.676   2.792   2.286  0.8074  0.4369 -0.2155
  327MOL0     H45118   7.565   2.728   2.016 -1.5046 -2.9932  2.0987
  327MOL0     H45119   7.509   2.847   2.138 -1.4521 -1.4471 -1.6011
  327MOL0     H45120   7.779   2.881   2.018 -1.0612 -1.8663 -0.3888
  327MOL0     H45121   7.694   2.991   2.126  0.6395 -0.5497  0.2367
  327MOL0     H45122   7.505   3.008   1.738 -2.5792 -1.0598  2.8856
  327MOL0     H45123   7.481   2.319   1.989 -0.1529  0.5050 -0.5280
  327MOL0     H45124   7.407   2.134   1.911  1.2691 -0.6458  0.3885
  327MOL0     H45125   7.348   2.009   2.003  1.7361 -0.7794 -2.0874
  327MOL0     H45126   7.227   2.124   1.938 -0.8113 -1.4654  1.3347
  328MOL0     O45127  10.709   2.953   9.148 -0.2039 -0.0490  0.6856
  328MOL0     C45128  10.706   2.867   9.241  0.2496  0.0761 -0.0817
  328MOL0     O45129  10.615   2.762   9.254 -0.6424 -0.3258  0.0166
  328MOL0     C45130  10.491   2.760   9.185  0.0841 -0.1429  0.7450
  328MOL0     C45131  10.439   2.629   9.159 -1.3133  0.2768  0.2022
  328MOL0     C45132  10.316   2.608   9.101 -0.2025 -0.3886 -0.0918
  328MOL0     C45133  10.243   2.721   9.046  1.0084 -0.5526 -0.0959
  328MOL0     O45134  10.129   2.692   8.972 -0.3441  0.3063 -0.6958
  328MOL0     C45135  10.005   2.746   9.024  0.5218 -0.2663  0.2320
  328MOL0     C45136   9.888   2.651   8.988  0.6522  1.0755 -0.1638
  328MOL0     C45137   9.758   2.727   9.019  0.2313  0.6558  0.5076
  328MOL0     C45138   9.645   2.639   8.961  0.1065  1.3183 -0.0993
  328MOL0     C45139   9.531   2.680   9.052  0.0934 -0.1344 -0.5070
  328MOL0     C45140   9.414   2.592   9.016 -0.1796 -0.9628 -0.1211
  328MOL0     C45141   9.287   2.651   9.083  0.2025  0.4989  0.0293
  328MOL0     C45142   9.154   2.575   9.066 -0.5485 -0.3179 -1.1087
  328MOL0     N45143   9.063   2.640   9.160  0.8478 -0.0714 -0.5515
  328MOL0     C45144   9.033   2.783   9.132 -0.1419 -0.3658 -0.6104
  328MOL0     C45145   8.981   2.828   9.258 -1.4158 -0.0360 -1.0658
  328MOL0     C45146   8.940   2.968   9.282  0.0900 -0.0514 -0.4798
  328MOL0     C45147   8.806   2.997   9.215 -0.6883  1.3238 -0.2106
  328MOL0     C45148   8.683   2.917   9.258  0.1387  0.6269 -0.8265
  328MOL0     C45149   8.678   2.777   9.189 -0.4343 -0.0847  0.7399
  328MOL0     O45150   8.697   2.779   9.040  0.3474 -0.2523 -0.3510
  328MOL0     C45151   8.739   2.662   8.986 -0.3224 -0.4849  0.3833
  328MOL0     C45152   8.793   2.549   9.051 -0.1518 -1.0635 -0.0389
  328MOL0     C45153   8.827   2.434   8.981  0.7417 -0.4476  1.4250
  328MOL0     C45154   8.865   2.314   9.067 -0.5641 -1.3462  0.5023
  328MOL0     C45155   8.802   2.431   8.839 -0.3491  1.1891 -0.6228
  328MOL0     C45156   8.825   2.304   8.768 -0.0198  0.3441  0.4791
  328MOL0     O45157   8.936   2.238   8.790 -0.4379 -0.4056  0.0316
  328MOL0     C45158   8.972   2.134   8.713 -0.4477 -0.6030 -0.0933
  328MOL0     C45159   9.093   2.150   8.648  0.2882 -0.8960 -0.2071
  328MOL0     C45160   9.145   2.047   8.562  0.3050  0.6558 -0.3783
  328MOL0     C45161   9.065   1.932   8.527 -0.5030  0.1356  0.4492
  328MOL0     O45162   9.087   1.838   8.436  0.0797  0.5475  0.6067
  328MOL0     C45163   9.223   1.803   8.404 -0.2729  1.6187  0.2874
  328MOL0     C45164   9.228   1.684   8.304  0.4732  0.3229 -0.3877
  328MOL0     C45165   9.170   1.564   8.374  0.0989  0.3200 -0.2701
  328MOL0     C45166   9.236   1.429   8.329  1.0595  0.2753  0.4585
  328MOL0     C45167   9.371   1.414   8.389 -0.1680 -0.8326 -0.1744
  328MOL0     C45168   9.369   1.425   8.546  0.6666  0.9601  0.7945
  328MOL0     C45169   9.484   1.357   8.608  1.1881  0.0179 -0.1470
  328MOL0     C45170   9.501   1.394   8.756  0.2155 -0.1784  0.0419
  328MOL0    Cl45171   9.554   1.564   8.780  0.5750 -0.1040 -0.0554
  328MOL0     C45172   8.943   1.926   8.595  0.2920  0.0696  0.5894
  328MOL0     C45173   8.891   2.028   8.683 -0.1659  0.1925  0.2469
  328MOL0     O45174   8.745   2.277   8.677 -0.7336 -0.3047 -0.0315
  328MOL0     C45175   8.765   2.544   8.775 -0.6767  0.3535 -0.4096
  328MOL0     C45176   8.740   2.657   8.850 -0.3214 -0.3552 -0.2147
  328MOL0     N45177   8.989   2.723   9.344  0.2627 -0.2653  0.6198
  328MOL0     N45178   9.026   2.611   9.288 -0.1282 -0.9047  0.0622
  328MOL0     C45179  10.304   2.847   9.060  0.2214 -0.2253 -0.3505
  328MOL0     C45180  10.425   2.865   9.138  1.0447 -0.1821  0.4316
  328MOL0     C45181  10.831   2.861   9.322  0.4592 -0.0299  0.8934
  328MOL0     C45182  10.832   2.925   9.445  0.2760  0.1310  0.9290
  328MOL0     C45183  10.946   2.934   9.527  0.5808 -0.1225 -0.9866
  328MOL0     C45184  11.061   2.875   9.482 -0.5280  0.6676 -0.1870
  328MOL0     O45185  11.182   2.897   9.540 -0.2818  0.2633  0.0735
  328MOL0     C45186  11.239   3.026   9.525 -0.2511 -0.5464  0.5080
  328MOL0     C45187  11.351   3.071   9.624 -0.9520 -0.1002 -0.8288
  328MOL0     C45188  11.458   3.157   9.566  0.2301 -0.7140 -0.0562
  328MOL0     C45189  11.514   3.122   9.422 -0.1257 -0.2828  0.4284
  328MOL0     C45190  11.648   3.191   9.413  0.4175  0.5565 -2.0206
  328MOL0     C45191  11.761   3.232   9.429  0.8494 -0.8313  0.6435
  328MOL0     C45192  11.058   2.801   9.362  0.0041 -0.1636 -0.3047
  328MOL0     C45193  10.945   2.786   9.282 -0.1575 -0.4668  0.9288
  328MOL0     C45194  10.948   2.708   9.153 -0.2340  0.2773 -0.0141
  328MOL0     H45195  10.490   2.540   9.193 -0.7626 -0.7900 -3.0219
  328MOL0     H45196  10.288   2.504   9.093  3.9053 -1.6864 -0.2044
  328MOL0     H45197  10.003   2.844   8.976 -0.4421  0.8271  2.3714
  328MOL0     H45198  10.000   2.763   9.132  1.0887  2.3101 -0.0854
  328MOL0     H45199   9.889   2.617   8.884 -3.4687  1.3735 -0.4465
  328MOL0     H45200   9.895   2.556   9.042 -2.7312  1.5361  1.3495
  328MOL0     H45201   9.749   2.720   9.128  0.4638 -3.8351  0.4386
  328MOL0     H45202   9.760   2.827   8.975  0.3880  0.8076  0.8554
  328MOL0     H45203   9.617   2.640   8.856 -3.2330 -3.3049  0.4514
  328MOL0     H45204   9.660   2.531   8.969  3.4741  1.6230 -0.8019
  328MOL0     H45205   9.521   2.789   9.038  0.8116 -0.0252 -0.1958
  328MOL0     H45206   9.557   2.664   9.157 -0.1515 -2.5643 -0.7648
  328MOL0     H45207   9.402   2.580   8.908 -0.5142 -1.0226 -0.0767
  328MOL0     H45208   9.423   2.489   9.049  1.1819 -1.4628 -1.9063
  328MOL0     H45209   9.281   2.748   9.033  0.8503  0.8684  0.6597
  328MOL0     H45210   9.295   2.666   9.191  0.2633  2.3250 -0.1940
  328MOL0     H45211   9.130   2.577   8.959 -1.4983 -1.1559 -0.9229
  328MOL0     H45212   9.163   2.473   9.106  1.5396  0.8637  1.8495
  328MOL0     H45213   9.060   2.830   9.038 -1.9553  0.3081 -0.8445
  328MOL0     H45214   9.023   3.033   9.250  1.0390  0.1024  2.0673
  328MOL0     H45215   8.931   2.974   9.391  1.6894 -1.4823 -0.2095
  328MOL0     H45216   8.780   3.099   9.244  0.5324  1.0045  2.2304
  328MOL0     H45217   8.819   2.985   9.107 -2.2603 -0.3710 -0.2628
  328MOL0     H45218   8.674   2.897   9.365 -1.5256  3.7357 -0.2605
  328MOL0     H45219   8.593   2.973   9.231  0.6210  2.1623  0.6238
  328MOL0     H45220   8.743   2.706   9.241  0.5588 -0.0047 -0.3448
  328MOL0     H45221   8.582   2.726   9.200 -0.9028  0.0542 -1.9119
  328MOL0     H45222   8.813   2.546   9.158 -1.1968 -0.6501  0.1854
  328MOL0     H45223   8.815   2.312   9.164  3.8229 -1.9273  3.0021
  328MOL0     H45224   8.972   2.315   9.088 -0.7827 -3.9584  2.2385
  328MOL0     H45225   8.834   2.224   9.014 -4.3942 -1.4524  2.5501
  328MOL0     H45226   9.133   2.249   8.668 -1.3668  0.5695 -3.3942
  328MOL0     H45227   9.241   2.053   8.513 -1.1035  0.1260 -3.4181
  328MOL0     H45228   9.272   1.884   8.350  1.8806  1.4973  1.9302
  328MOL0     H45229   9.292   1.790   8.488 -0.3549  2.7092  0.5428
  328MOL0     H45230   9.179   1.713   8.211 -0.7316 -3.0875 -0.9577
  328MOL0     H45231   9.334   1.673   8.280  0.3342  0.0414 -0.8979
  328MOL0     H45232   9.065   1.565   8.343 -0.1530 -0.7447  0.4782
  328MOL0     H45233   9.164   1.580   8.482 -2.1969  1.0796 -0.4431
  328MOL0     H45234   9.250   1.418   8.221 -2.9314 -1.3135 -0.0892
  328MOL0     H45235   9.174   1.343   8.357 -0.0817  1.0123  0.2427
  328MOL0     H45236   9.396   1.309   8.371 -0.4562 -0.5774 -2.3054
  328MOL0     H45237   9.449   1.469   8.336 -0.7372  1.1219  0.9228
  328MOL0     H45238   9.276   1.379   8.577 -1.0353  3.4061 -0.3038
  328MOL0     H45239   9.365   1.532   8.571 -2.8571  1.0389  0.3062
  328MOL0     H45240   9.570   1.392   8.550  0.7080 -1.1059 -1.5870
  328MOL0     H45241   9.478   1.248   8.599 -0.8775  0.1460 -0.8386
  328MOL0     H45242   9.563   1.325   8.814 -0.3446 -1.0835 -0.4100
  328MOL0     H45243   9.397   1.396   8.792  0.3742 -0.3792  0.5240
  328MOL0     H45244   8.883   1.836   8.586  1.0252 -0.4757  1.0612
  328MOL0     H45245   8.800   2.020   8.742  1.8063  1.2071  3.7751
  328MOL0     H45246   8.759   2.535   8.667  0.4165  1.3649 -0.5854
  328MOL0     H45247   8.710   2.752   8.808  2.5850  0.4456 -0.7235
  328MOL0     H45248  10.260   2.936   9.016 -0.0241 -0.7701 -1.2352
  328MOL0     H45249  10.464   2.966   9.128  1.1827 -0.3272 -0.5486
  328MOL0     H45250  10.747   2.972   9.494  0.5033  2.5992 -0.8582
  328MOL0     H45251  10.943   2.971   9.630  2.0534 -0.0087 -0.9548
  328MOL0     H45252  11.266   3.034   9.419 -2.8332 -1.1956 -0.2721
  328MOL0     H45253  11.164   3.105   9.533 -0.8643 -1.0299 -0.2717
  328MOL0     H45254  11.391   2.973   9.652 -1.6091  0.2525  1.5808
  328MOL0     H45255  11.307   3.121   9.711 -1.6345 -0.9249 -0.6922
  328MOL0     H45256  11.406   3.252   9.556  4.8440  2.5021  2.5291
  328MOL0     H45257  11.538   3.173   9.639 -0.5665 -2.4868  1.2813
  328MOL0     H45258  11.451   3.158   9.340 -0.9549 -3.9860 -0.7759
  328MOL0     H45259  11.515   3.015   9.400 -1.1419  0.2285 -2.6418
  328MOL0     H45260  11.859   3.273   9.434 -0.0228  1.4419  0.3023
  328MOL0     H45261  11.158   2.772   9.332 -0.0410 -1.9295  1.1368
  328MOL0     H45262  11.047   2.673   9.124 -1.2349 -2.0121 -0.8692
  328MOL0     H45263  10.885   2.619   9.163 -0.9572  0.5066 -2.0795
  328MOL0     H45264  10.909   2.777   9.077  0.4786  1.1418  0.3945
  329MOL0     O45265  10.575  11.199   6.338 -0.2412 -0.4446  0.7200
  329MOL0     C45266  10.546  11.083   6.360 -0.5436  0.7171  0.1930
  329MOL0     O45267  10.475  11.000   6.279 -0.1045  0.4114 -0.6337
  329MOL0     C45268  10.439  11.033   6.153 -0.1303  0.8303  0.5940
  329MOL0     C45269  10.540  11.048   6.054 -0.1291  0.3150  0.3390
  329MOL0     C45270  10.514  11.099   5.924 -0.2943  0.0852 -0.7632
  329MOL0     C45271  10.381  11.109   5.887 -0.4197 -0.6537 -0.2041
  329MOL0     O45272  10.353  11.163   5.760 -0.1069 -0.3047  0.8518
  329MOL0     C45273  10.234  11.129   5.693 -0.8064  0.0956  1.0104
  329MOL0     C45274  10.255  11.164   5.544  0.2902 -0.2563  1.2482
  329MOL0     C45275  10.119  11.186   5.487  0.8165 -0.9949  0.2365
  329MOL0     C45276  10.120  11.162   5.322  0.2414 -0.5729 -0.4699
  329MOL0     C45277   9.971  11.132   5.265  0.5720  0.0837  0.5419
  329MOL0     C45278   9.992  11.046   5.146 -0.2905  0.0778  0.5366
  329MOL0     C45279   9.860  11.013   5.074  0.6799  0.4020 -0.7452
  329MOL0     C45280   9.795  10.884   5.129 -0.2450 -0.3017  0.1880
  329MOL0     N45281   9.668  10.838   5.071  0.9148 -0.7432 -0.3456
  329MOL0     C45282   9.633  10.811   4.939 -0.0636 -0.5585 -0.1811
  329MOL0     C45283   9.499  10.779   4.953 -0.5510  0.3011 -0.6975
  329MOL0     C45284   9.419  10.719   4.848 -0.1142  0.1879  1.2106
  329MOL0     C45285   9.339  10.836   4.770 -0.8580  0.6748  0.0407
  329MOL0     C45286   9.229  10.770   4.676  0.1564 -0.7650  0.3846
  329MOL0     C45287   9.089  10.753   4.742 -1.8981 -0.1889  0.0291
  329MOL0     O45288   9.005  10.693   4.641  0.5234 -0.3168 -0.1277
  329MOL0     C45289   8.882  10.642   4.690 -0.0126 -0.7814 -0.3260
  329MOL0     C45290   8.833  10.515   4.653  0.1374  0.2111  0.3841
  329MOL0     C45291   8.720  10.452   4.713  0.2966  0.0868 -0.3485
  329MOL0     C45292   8.664  10.331   4.644 -0.2110  0.2606 -0.2993
  329MOL0     C45293   8.642  10.528   4.804  0.8687 -0.7728  0.2990
  329MOL0     C45294   8.508  10.495   4.862 -0.2478 -0.7824 -0.3023
  329MOL0     O45295   8.467  10.371   4.830 -0.3778 -0.1425 -0.0554
  329MOL0     C45296   8.336  10.337   4.852  0.1489  0.2557 -0.6868
  329MOL0     C45297   8.297  10.239   4.949 -0.1702 -1.2346  0.1098
  329MOL0     C45298   8.165  10.203   4.946  0.1590  0.3877  0.2493
  329MOL0     C45299   8.065  10.251   4.871 -0.2297 -0.0036  0.9940
  329MOL0     O45300   7.936  10.205   4.894  0.0943 -0.1538 -0.9000
  329MOL0     C45301   7.871  10.177   4.762 -0.7975 -0.2132 -0.8120
  329MOL0     C45302   7.774  10.058   4.782  0.1318 -0.2275  0.4415
  329MOL0     C45303   7.821   9.961   4.898 -0.6355  0.4705 -0.0381
  329MOL0     C45304   7.744   9.829   4.899  0.0356 -0.1508 -0.5248
  329MOL0     C45305   7.772   9.757   5.028 -0.6897  0.2256 -0.4520
  329MOL0     C45306   7.668   9.651   5.058  0.5845 -0.2859 -0.9332
  329MOL0     C45307   7.700   9.508   5.016 -0.1425 -0.5657  0.1717
  329MOL0     C45308   7.599   9.397   5.070 -0.1973 -0.7432  0.9129
  329MOL0    Cl45309   7.609   9.390   5.237 -0.0326 -0.2351 -0.3219
  329MOL0     C45310   8.103  10.351   4.779 -0.1471  0.4376  0.7497
  329MOL0     C45311   8.238  10.391   4.765  0.3231 -0.0155 -0.0174
  329MOL0     O45312   8.435  10.574   4.915 -0.0406 -0.9128 -0.2692
  329MOL0     C45313   8.700  10.657   4.843  1.2772 -0.0792  0.3265
  329MOL0     C45314   8.815  10.717   4.789  0.3638  0.5310 -0.8994
  329MOL0     N45315   9.460  10.792   5.082  0.2999  0.3539  0.3476
  329MOL0     N45316   9.560  10.838   5.152  0.2590  1.2835  0.0854
  329MOL0     C45317  10.279  11.089   5.983  0.3545  0.1102  0.6905
  329MOL0     C45318  10.306  11.050   6.120 -0.9757 -0.0443  0.3715
  329MOL0     C45319  10.610  11.027   6.479 -0.3491 -0.0456 -0.3638
  329MOL0     C45320  10.713  10.931   6.461  0.4042 -0.9374 -0.1100
  329MOL0     C45321  10.785  10.883   6.576 -1.0181  0.9953 -0.2799
  329MOL0     C45322  10.756  10.925   6.700  0.7383 -0.2996 -0.0559
  329MOL0     O45323  10.839  10.876   6.798 -0.3499 -0.8277 -0.6702
  329MOL0     C45324  10.839  10.937   6.929 -0.6476 -1.1932 -0.0201
  329MOL0     C45325  10.775  10.865   7.043  0.2047  0.4084 -1.0569
  329MOL0     C45326  10.753  10.950   7.175 -0.0526 -0.8421 -0.0544
  329MOL0     C45327  10.615  11.013   7.169  0.6402  0.7935  0.1302
  329MOL0     C45328  10.602  11.103   7.278  0.1919 -0.5525 -0.6499
  329MOL0     C45329  10.586  11.188   7.361 -0.3300  0.2004  1.0381
  329MOL0     C45330  10.648  11.018   6.718 -0.1112  0.2335  1.1511
  329MOL0     C45331  10.571  11.070   6.609  0.5030 -0.3895  0.3790
  329MOL0     C45332  10.467  11.182   6.619  0.5082  0.3838 -0.3698
  329MOL0     H45333  10.643  11.032   6.084 -0.3986  0.9660  1.7176
  329MOL0     H45334  10.591  11.122   5.852 -1.0027 -0.4605 -1.7121
  329MOL0     H45335  10.144  11.175   5.734 -1.2910  1.1716 -1.1223
  329MOL0     H45336  10.214  11.021   5.686  1.7551 -0.3684 -0.1414
  329MOL0     H45337  10.308  11.260   5.543  0.3500 -0.2910  0.5951
  329MOL0     H45338  10.315  11.093   5.487 -1.2290  0.4691 -1.4100
  329MOL0     H45339  10.043  11.123   5.534  0.2764 -0.7521 -0.2843
  329MOL0     H45340  10.090  11.290   5.507  3.4598  0.4958 -2.7635
  329MOL0     H45341  10.151  11.254   5.273 -1.8120  1.0225  1.0760
  329MOL0     H45342  10.195  11.089   5.287 -1.0727 -3.0264  1.4342
  329MOL0     H45343   9.931  11.229   5.234 -2.6785 -1.0643  0.7169
  329MOL0     H45344   9.906  11.095   5.345 -2.5457 -0.6221 -2.1279
  329MOL0     H45345  10.057  11.100   5.077 -2.8016 -0.5205 -2.5375
  329MOL0     H45346  10.034  10.952   5.183 -0.8507  0.3150  1.8608
  329MOL0     H45347   9.869  11.010   4.965  0.2769  2.3068 -0.8599
  329MOL0     H45348   9.794  11.097   5.094  1.6072  1.0792 -0.4218
  329MOL0     H45349   9.874  10.814   5.101  0.7936  1.1587 -0.7125
  329MOL0     H45350   9.781  10.884   5.237  0.7014 -0.8513  0.3222
  329MOL0     H45351   9.693  10.811   4.849 -1.2412  3.0071 -1.1529
  329MOL0     H45352   9.336  10.673   4.902  0.0409 -0.5792  0.8167
  329MOL0     H45353   9.469  10.646   4.784  0.9406 -1.8519  4.1748
  329MOL0     H45354   9.299  10.907   4.844  0.6981  0.6945  0.9041
  329MOL0     H45355   9.422  10.882   4.715 -0.6151 -0.9042 -0.9745
  329MOL0     H45356   9.218  10.822   4.580  0.0757  0.0904  0.8438
  329MOL0     H45357   9.279  10.677   4.650  3.2454  0.6718  0.7566
  329MOL0     H45358   9.090  10.694   4.834 -2.6286  1.1855  0.9588
  329MOL0     H45359   9.055  10.852   4.774 -2.4784 -0.7717  1.3185
  329MOL0     H45360   8.894  10.469   4.576  2.4731  3.7204 -0.0903
  329MOL0     H45361   8.724  10.288   4.564 -0.6444 -0.6092 -0.1729
  329MOL0     H45362   8.567  10.354   4.598  0.9230  1.9781 -1.9600
  329MOL0     H45363   8.647  10.257   4.724 -2.1888  1.3873  0.4061
  329MOL0     H45364   8.370  10.198   5.018  1.0270 -0.1090 -0.4245
  329MOL0     H45365   8.140  10.112   5.000  0.9233 -2.3473 -3.6008
  329MOL0     H45366   7.823  10.268   4.725  0.3344 -0.8529 -4.2623
  329MOL0     H45367   7.948  10.142   4.693  1.7970 -1.1471  2.3509
  329MOL0     H45368   7.679  10.103   4.813  0.5709  0.9411  0.1223
  329MOL0     H45369   7.763  10.007   4.686 -3.1485  2.4867 -0.8353
  329MOL0     H45370   7.801  10.011   4.994  2.5643 -2.6582  2.5591
  329MOL0     H45371   7.928   9.938   4.906 -0.3215  2.1539  1.4520
  329MOL0     H45372   7.765   9.754   4.822  0.3624 -0.2702 -0.3222
  329MOL0     H45373   7.638   9.851   4.885 -0.0068 -1.1811 -2.0634
  329MOL0     H45374   7.875   9.721   5.026 -0.3505  1.1867 -1.7112
  329MOL0     H45375   7.768   9.835   5.105  4.6112 -0.3526  0.8018
  329MOL0     H45376   7.569   9.685   5.027  0.3946 -1.3011 -1.4636
  329MOL0     H45377   7.674   9.650   5.168  1.5157  1.1841 -0.9356
  329MOL0     H45378   7.800   9.487   5.057  0.1815  0.5710 -0.0133
  329MOL0     H45379   7.703   9.493   4.908  3.1634 -0.0357  0.0888
  329MOL0     H45380   7.626   9.298   5.032  1.8692  1.7007 -5.1985
  329MOL0     H45381   7.496   9.420   5.043  0.3251 -1.0906 -1.5827
  329MOL0     H45382   8.020  10.397   4.726  0.2879  2.0539  1.4132
  329MOL0     H45383   8.252  10.459   4.682 -0.5367  0.2678  0.0634
  329MOL0     H45384   8.632  10.714   4.906  0.3475 -1.3852  0.5523
  329MOL0     H45385   8.829  10.820   4.820 -3.1416  0.7959  0.2377
  329MOL0     H45386  10.173  11.104   5.967 -0.2333  0.2099  3.9749
  329MOL0     H45387  10.240  11.026   6.203 -1.2884 -3.1165 -0.6127
  329MOL0     H45388  10.734  10.894   6.361 -2.0461 -2.1569 -0.2671
  329MOL0     H45389  10.868  10.815   6.557  0.3145  3.1384 -2.7705
  329MOL0     H45390  10.938  10.956   6.973 -0.8397  1.1809 -0.4819
  329MOL0     H45391  10.800  11.039   6.926  1.4755 -0.3498 -1.7096
  329MOL0     H45392  10.839  10.781   7.072 -0.9898  0.0841  0.7266
  329MOL0     H45393  10.682  10.828   6.999  0.2314  0.9643 -1.5918
  329MOL0     H45394  10.761  10.888   7.264 -1.0440  2.6328  2.6556
  329MOL0     H45395  10.839  11.017   7.183  1.3720 -1.9962 -3.5432
  329MOL0     H45396  10.542  10.931   7.168  1.6269 -0.2345 -3.4554
  329MOL0     H45397  10.595  11.059   7.072  0.3543 -1.4982 -0.9789
  329MOL0     H45398  10.587  11.282   7.413  0.8964  0.9654 -0.2937
  329MOL0     H45399  10.614  11.042   6.818  0.0957 -2.1442  1.8481
  329MOL0     H45400  10.508  11.277   6.583  1.0527  0.4035  0.2775
  329MOL0     H45401  10.386  11.157   6.550  1.6930 -0.0533 -1.6304
  329MOL0     H45402  10.422  11.202   6.717 -0.9025  0.6339 -1.0476
  330MOL0     O45403  11.088   5.349   9.554  0.4359 -0.7836  0.6877
  330MOL0     C45404  11.026   5.451   9.578 -1.2391  0.0690 -0.1932
  330MOL0     O45405  11.054   5.563   9.516  0.5389  0.4146 -0.2793
  330MOL0     C45406  11.108   5.570   9.388 -1.1868 -1.1557 -0.7685
  330MOL0     C45407  11.115   5.463   9.288 -0.1717 -0.8311  0.2810
  330MOL0     C45408  11.188   5.467   9.170 -0.5324  0.0216 -0.2613
  330MOL0     C45409  11.247   5.587   9.139 -0.4361 -0.9352  0.6900
  330MOL0     O45410  11.327   5.593   9.031  0.4476  0.0624  0.2112
  330MOL0     C45411  11.457   5.529   9.033 -0.1841  0.1272  0.2549
  330MOL0     C45412  11.494   5.502   8.890 -0.8487 -0.3618 -0.6177
  330MOL0     C45413  11.451   5.370   8.842 -0.3297 -0.9545 -0.7126
  330MOL0     C45414  11.428   5.371   8.687  0.5081  0.3012  0.4753
  330MOL0     C45415  11.317   5.465   8.629 -0.2447 -0.2949  0.0546
  330MOL0     C45416  11.188   5.452   8.702  0.4334  0.5328 -0.6896
  330MOL0     C45417  11.051   5.470   8.627 -0.5319  0.5849  1.1536
  330MOL0     C45418  10.938   5.518   8.715 -0.3633 -0.5668  0.3006
  330MOL0     N45419  10.974   5.647   8.787  0.1299  0.4597  0.0988
  330MOL0     C45420  10.992   5.652   8.918  0.6034 -0.3507 -0.0122
  330MOL0     C45421  10.985   5.788   8.950 -0.6870  0.2612  1.4721
  330MOL0     C45422  10.998   5.851   9.086  0.4181 -0.4624  0.7995
  330MOL0     C45423  10.918   5.783   9.191 -0.2920  0.6774 -0.2549
  330MOL0     C45424  10.774   5.800   9.154  0.5463 -0.0594 -0.8668
  330MOL0     C45425  10.661   5.745   9.254 -0.7138  0.3613  0.2930
  330MOL0     O45426  10.678   5.770   9.394  0.1269  0.1385  0.4112
  330MOL0     C45427  10.616   5.691   9.480  0.9136 -0.3551  0.4087
  330MOL0     C45428  10.483   5.720   9.514 -0.9238  0.1421  0.0085
  330MOL0     C45429  10.409   5.645   9.602 -0.1729 -0.4513  0.3358
  330MOL0     C45430  10.270   5.699   9.641  0.3062 -0.0771  0.1180
  330MOL0     C45431  10.463   5.513   9.640  0.7639  0.8948 -0.2871
  330MOL0     C45432  10.377   5.419   9.726 -0.3692  0.6341  0.0411
  330MOL0     O45433  10.261   5.454   9.768 -0.8149 -0.6885  0.4663
  330MOL0     C45434  10.170   5.371   9.818  0.9048  0.5952 -0.0688
  330MOL0     C45435  10.125   5.261   9.750 -0.3303 -0.5312 -0.3275
  330MOL0     C45436  10.034   5.181   9.818 -0.2306 -0.1954  0.2928
  330MOL0     C45437   9.976   5.212   9.938 -0.5606 -0.4266  0.6211
  330MOL0     O45438   9.903   5.109   9.994  0.7490  0.8657  0.5511
  330MOL0     C45439   9.805   5.143  10.098 -0.2586 -0.3774  1.4565
  330MOL0     C45440   9.715   5.033  10.145  0.0338 -0.7832 -0.6446
  330MOL0     C45441   9.605   4.995  10.055 -0.8137 -0.4356 -0.2506
  330MOL0     C45442   9.552   4.865  10.109 -0.3424 -0.2453  0.0105
  330MOL0     C45443   9.427   4.814  10.031  1.3026 -0.4831  0.2526
  330MOL0     C45444   9.393   4.661  10.044 -0.4000  0.2675 -0.1647
  330MOL0     C45445   9.286   4.621   9.939 -0.2043 -0.3977 -0.4234
  330MOL0     C45446   9.202   4.499   9.987 -0.2521  0.2739 -0.7409
  330MOL0    Cl45447   9.306   4.367  10.050 -0.0658 -0.3128  0.1713
  330MOL0     C45448  10.013   5.327  10.003  0.7518  0.1257  0.1865
  330MOL0     C45449  10.098   5.406   9.939 -1.1193 -0.4705  0.1349
  330MOL0     O45450  10.427   5.312   9.767  0.3566  0.3040  0.9441
  330MOL0     C45451  10.594   5.478   9.601 -0.1750  0.5133  0.0699
  330MOL0     C45452  10.664   5.574   9.525  0.2107  0.6067 -0.2038
  330MOL0     N45453  10.950   5.852   8.834 -0.4980 -0.1007  1.1635
  330MOL0     N45454  10.935   5.765   8.742 -0.5842  0.6280 -0.1223
  330MOL0     C45455  11.252   5.699   9.235  0.5865 -0.1106  0.0666
  330MOL0     C45456  11.172   5.688   9.350 -0.5472 -0.0381  0.0866
  330MOL0     C45457  10.943   5.464   9.700 -0.1476 -0.0096  0.2415
  330MOL0     C45458  10.899   5.598   9.721 -0.1203  0.1633  0.7614
  330MOL0     C45459  10.810   5.617   9.821 -0.0112 -0.1717 -1.2890
  330MOL0     C45460  10.767   5.512   9.908 -0.8676  0.2969 -1.3406
  330MOL0     O45461  10.687   5.539  10.014 -0.0095 -0.1020 -0.0119
  330MOL0     C45462  10.589   5.442  10.052  0.1650  0.1180  0.1248
  330MOL0     C45463  10.459   5.513  10.065  0.5749 -0.0366  0.0029
  330MOL0     C45464  10.440   5.601  10.186  0.4297 -0.3859 -0.1801
  330MOL0     C45465  10.292   5.619  10.231  0.2776  0.2628  0.4581
  330MOL0     C45466  10.222   5.699  10.125 -0.8340 -0.8894 -0.1990
  330MOL0     C45467  10.162   5.762  10.038 -0.5609  0.2157 -0.2617
  330MOL0     C45468  10.829   5.385   9.896  0.1004 -0.9397  1.3326
  330MOL0     C45469  10.914   5.359   9.783  0.3471  0.5568 -0.1786
  330MOL0     C45470  10.955   5.212   9.775  0.1907  0.1585  0.6706
  330MOL0     H45471  11.072   5.364   9.300 -0.7592 -0.5420  0.6170
  330MOL0     H45472  11.183   5.378   9.108 -2.8303  0.0202 -0.1769
  330MOL0     H45473  11.466   5.435   9.088  3.1315  1.6958  2.7626
  330MOL0     H45474  11.533   5.592   9.081 -1.8625  2.0568  0.5041
  330MOL0     H45475  11.459   5.580   8.822  0.2708 -1.6055 -2.7236
  330MOL0     H45476  11.603   5.509   8.900 -0.8476 -1.0484 -0.0787
  330MOL0     H45477  11.539   5.310   8.869  0.0202  0.3032  1.1580
  330MOL0     H45478  11.360   5.348   8.899 -0.7904  3.6693  0.7162
  330MOL0     H45479  11.516   5.418   8.643 -0.1725  2.5526  1.4046
  330MOL0     H45480  11.426   5.270   8.644 -2.0447  1.1919 -1.8312
  330MOL0     H45481  11.296   5.434   8.526  0.5114  0.3460 -0.3024
  330MOL0     H45482  11.352   5.567   8.613  2.4720 -1.4954 -2.7913
  330MOL0     H45483  11.175   5.348   8.736 -1.4462  0.5824 -1.1742
  330MOL0     H45484  11.194   5.515   8.791  2.4371  0.1333 -0.5039
  330MOL0     H45485  11.054   5.380   8.565  5.8794  1.6347 -0.7170
  330MOL0     H45486  11.063   5.550   8.554  0.7064  0.1648  0.8762
  330MOL0     H45487  10.851   5.540   8.653  1.6980 -2.1828 -3.5358
  330MOL0     H45488  10.905   5.445   8.789 -1.4804 -1.3362 -0.9271
  330MOL0     H45489  11.006   5.574   8.993 -0.9907 -0.5813  0.0832
  330MOL0     H45490  10.946   5.944   9.063 -1.3335 -2.4765 -5.4337
  330MOL0     H45491  11.103   5.866   9.111  1.2376 -3.2258 -0.5100
  330MOL0     H45492  10.951   5.679   9.193  1.5490  1.2158 -0.6681
  330MOL0     H45493  10.935   5.820   9.293  1.9228  4.7391 -1.8919
  330MOL0     H45494  10.751   5.905   9.133 -0.6954 -0.5966 -2.4490
  330MOL0     H45495  10.749   5.741   9.065 -1.2889 -4.0738  1.9664
  330MOL0     H45496  10.560   5.771   9.220 -1.5808 -0.9000  1.7378
  330MOL0     H45497  10.667   5.636   9.244  1.8707  0.2158  2.3530
  330MOL0     H45498  10.452   5.815   9.471  0.9184 -0.0611 -1.9241
  330MOL0     H45499  10.252   5.806   9.629 -1.9552 -0.5854 -1.7382
  330MOL0     H45500  10.243   5.686   9.746  0.3408 -0.0947  0.1251
  330MOL0     H45501  10.198   5.650   9.575  1.6899  0.5300 -1.9578
  330MOL0     H45502  10.183   5.241   9.661 -1.2748 -1.3278 -0.7846
  330MOL0     H45503  10.002   5.089   9.772 -1.3685  0.3412 -0.0216
  330MOL0     H45504   9.860   5.180  10.186  1.1692  0.8056  0.1308
  330MOL0     H45505   9.736   5.217  10.057  2.4773  0.8203 -1.4774
  330MOL0     H45506   9.762   4.938  10.173 -2.6810 -1.6944  1.3235
  330MOL0     H45507   9.666   5.072  10.235 -1.1299 -1.2718 -1.0477
  330MOL0     H45508   9.660   4.984   9.961  1.4376 -1.2476  1.0751
  330MOL0     H45509   9.526   5.070  10.049  0.3564  0.7911 -1.1675
  330MOL0     H45510   9.536   4.882  10.216  2.9699  1.1978  0.4109
  330MOL0     H45511   9.626   4.784  10.108 -2.4711 -2.2919 -0.2788
  330MOL0     H45512   9.335   4.858  10.072 -0.2443 -2.3639 -0.9868
  330MOL0     H45513   9.437   4.832   9.924  1.1565 -2.5469 -0.1508
  330MOL0     H45514   9.355   4.628  10.141 -3.5334 -3.5770 -2.3947
  330MOL0     H45515   9.482   4.601  10.026 -0.4154  0.4754 -0.9575
  330MOL0     H45516   9.341   4.605   9.846  2.2067  2.1169  0.4258
  330MOL0     H45517   9.218   4.703   9.912  3.0139  2.9617  0.8455
  330MOL0     H45518   9.148   4.456   9.902 -0.4672 -1.0317  0.0327
  330MOL0     H45519   9.125   4.532  10.057 -1.9542 -2.9092 -0.9476
  330MOL0     H45520   9.983   5.361  10.102  2.5478  0.1200  0.7638
  330MOL0     H45521  10.130   5.501   9.980  1.2209 -0.9801 -0.3209
  330MOL0     H45522  10.634   5.382   9.631  3.6032  0.7227 -3.5782
  330MOL0     H45523  10.766   5.552   9.493  0.4481 -1.0970  1.4673
  330MOL0     H45524  11.305   5.792   9.218 -0.3427  0.6028  0.9442
  330MOL0     H45525  11.165   5.770   9.421 -1.1197  2.1505 -2.3541
  330MOL0     H45526  10.927   5.689   9.670 -2.0271  0.3874  0.0221
  330MOL0     H45527  10.773   5.714   9.852  2.5084  0.8415 -1.2015
  330MOL0     H45528  10.584   5.361   9.979  2.7754  0.1910 -0.2237
  330MOL0     H45529  10.621   5.395  10.145 -2.2234 -1.7563  0.0899
  330MOL0     H45530  10.382   5.436  10.057 -2.1395  2.2807  1.8543
  330MOL0     H45531  10.462   5.567   9.970 -0.9094  1.0107  0.5162
  330MOL0     H45532  10.483   5.562  10.278 -1.2385 -0.7342  0.4819
  330MOL0     H45533  10.488   5.699  10.172  0.8901 -0.5429  0.2676
  330MOL0     H45534  10.280   5.671  10.327 -1.6085 -1.0847  1.0102
  330MOL0     H45535  10.251   5.519  10.252  2.6954 -0.6951  0.9690
  330MOL0     H45536  10.111   5.797   9.951 -0.7034  0.2124 -0.1805
  330MOL0     H45537  10.797   5.297   9.951 -1.3791 -0.6666  0.9628
  330MOL0     H45538  10.879   5.151   9.725  1.1273 -1.3648  1.0446
  330MOL0     H45539  11.050   5.185   9.729 -0.4997 -0.7125 -0.2969
  330MOL0     H45540  10.960   5.171   9.876  2.4153 -1.7177 -0.1113
  331MOL0     O45541   7.837   6.634   2.511 -0.0542  0.1033  0.3036
  331MOL0     C45542   7.847   6.691   2.399 -0.9464  1.5082  0.0256
  331MOL0     O45543   7.751   6.670   2.306 -0.8624  1.2996  0.5245
  331MOL0     C45544   7.623   6.621   2.337 -1.2394  0.2719  0.1080
  331MOL0     C45545   7.573   6.527   2.246 -0.6045 -0.5730 -0.0504
  331MOL0     C45546   7.449   6.488   2.247  0.0357  0.2413 -0.2996
  331MOL0     C45547   7.364   6.546   2.350  1.1614  1.0652  0.9673
  331MOL0     O45548   7.233   6.503   2.373 -0.7273 -0.1583  0.3559
  331MOL0     C45549   7.168   6.428   2.267  0.1024  0.2731 -0.2705
  331MOL0     C45550   7.175   6.281   2.296  0.4204 -0.5546 -0.1444
  331MOL0     C45551   7.062   6.245   2.389 -0.2262  0.7054 -0.2562
  331MOL0     C45552   7.062   6.095   2.442  0.3320  0.0880 -1.0364
  331MOL0     C45553   6.947   6.085   2.541  0.5824 -0.4634  1.0110
  331MOL0     C45554   6.960   5.953   2.617 -0.6891 -0.4367 -0.0527
  331MOL0     C45555   6.832   5.878   2.664  0.5810 -0.1763  0.3887
  331MOL0     C45556   6.861   5.724   2.709  0.0944 -0.3676  0.5356
  331MOL0     N45557   6.729   5.646   2.735 -0.0606 -0.3730 -0.1731
  331MOL0     C45558   6.607   5.665   2.666  0.3264  0.0744  0.1908
  331MOL0     C45559   6.514   5.591   2.729 -0.7419  0.3046  0.3406
  331MOL0     C45560   6.379   5.559   2.685  0.8519 -0.6387 -0.1516
  331MOL0     C45561   6.285   5.657   2.761 -0.2603  0.6010  0.1905
  331MOL0     C45562   6.143   5.619   2.753 -0.4598 -0.6004 -0.0921
  331MOL0     C45563   6.084   5.635   2.609 -0.2059 -0.4748  0.3503
  331MOL0     O45564   5.938   5.651   2.612  0.1517 -0.0056  0.1483
  331MOL0     C45565   5.869   5.539   2.653  0.7428 -0.1231  0.0257
  331MOL0     C45566   5.732   5.548   2.683 -0.0673  0.6078  0.0252
  331MOL0     C45567   5.648   5.442   2.731 -0.0685 -0.2105  0.0132
  331MOL0     C45568   5.502   5.463   2.747 -0.4282  0.4054  0.9197
  331MOL0     C45569   5.708   5.317   2.767 -0.6485  0.1821 -0.1362
  331MOL0     C45570   5.634   5.192   2.823 -0.1724 -0.4005  0.9103
  331MOL0     O45571   5.700   5.123   2.909 -0.0099  0.8571  0.0660
  331MOL0     C45572   5.658   5.005   2.968 -0.9774  0.2982 -0.6354
  331MOL0     C45573   5.601   4.897   2.901 -0.7321  0.5004 -0.2051
  331MOL0     C45574   5.564   4.773   2.974  0.2063 -0.7952  0.8036
  331MOL0     C45575   5.606   4.756   3.103  0.3138  0.4992 -0.4576
  331MOL0     O45576   5.607   4.623   3.146  0.1842  0.1940  0.5991
  331MOL0     C45577   5.641   4.578   3.281  0.5999  0.8636  0.5844
  331MOL0     C45578   5.649   4.418   3.281 -0.3473 -0.1446 -0.7678
  331MOL0     C45579   5.516   4.342   3.257 -0.5008  0.5915 -0.3252
  331MOL0     C45580   5.458   4.277   3.388  0.4359  0.2367  0.7059
  331MOL0     C45581   5.310   4.226   3.369  0.0584  0.7429  0.3696
  331MOL0     C45582   5.235   4.169   3.494 -2.1971  0.0052  0.3685
  331MOL0     C45583   5.093   4.124   3.455  0.5035 -0.0726  0.7338
  331MOL0     C45584   5.058   3.987   3.512 -0.0389 -0.4141 -0.0523
  331MOL0    Cl45585   5.134   3.856   3.420  0.3598 -0.7205 -0.3764
  331MOL0     C45586   5.667   4.867   3.169 -0.5637 -0.1973 -0.7221
  331MOL0     C45587   5.684   4.985   3.103 -0.5273 -1.1584  0.7478
  331MOL0     O45588   5.524   5.162   2.784 -0.1279 -0.1500  0.5225
  331MOL0     C45589   5.848   5.305   2.735 -0.4196  0.6808 -0.1877
  331MOL0     C45590   5.920   5.408   2.678 -0.3008  0.4777 -0.0864
  331MOL0     N45591   6.570   5.538   2.845  0.0628  0.0316 -0.0149
  331MOL0     N45592   6.700   5.567   2.849  0.1964 -0.2224  0.0266
  331MOL0     C45593   7.415   6.642   2.437 -0.1246  0.0465 -0.7268
  331MOL0     C45594   7.550   6.676   2.435  1.1826  0.9170 -0.1904
  331MOL0     C45595   7.952   6.802   2.371 -0.8162 -0.9232  0.2570
  331MOL0     C45596   7.955   6.868   2.247 -0.6913  0.3252  0.8584
  331MOL0     C45597   8.052   6.962   2.211  0.4646 -0.3115  0.1161
  331MOL0     C45598   8.151   7.011   2.295  0.4958 -0.7500 -0.7795
  331MOL0     O45599   8.231   7.118   2.257  0.2439  0.1090  0.1921
  331MOL0     C45600   8.331   7.160   2.359  0.1824 -0.3408 -0.4117
  331MOL0     C45601   8.391   7.284   2.313  0.5753 -1.1310 -0.1518
  331MOL0     C45602   8.496   7.320   2.404  0.3747 -0.8969 -0.2172
  331MOL0     C45603   8.592   7.424   2.364 -0.3282 -1.0013 -0.3457
  331MOL0     C45604   8.545   7.553   2.337 -0.5120  0.1391  0.1091
  331MOL0     C45605   8.501   7.660   2.289 -0.4042  0.8506 -0.3933
  331MOL0     C45606   8.154   6.939   2.419 -0.1418 -0.4523  0.6190
  331MOL0     C45607   8.058   6.838   2.459  0.2743  0.4602  0.1229
  331MOL0     C45608   8.086   6.761   2.586 -0.3107  0.9564  1.0797
  331MOL0     H45609   7.632   6.490   2.163 -0.1659 -0.2539  0.1108
  331MOL0     H45610   7.405   6.414   2.182 -3.3845  2.3036 -0.6373
  331MOL0     H45611   7.211   6.448   2.168  1.0282  2.5731  0.5405
  331MOL0     H45612   7.065   6.466   2.262  0.3488  1.7470  3.0977
  331MOL0     H45613   7.163   6.211   2.213 -2.1465 -3.2678  2.2979
  331MOL0     H45614   7.278   6.266   2.328  0.6291 -0.7539 -0.8864
  331MOL0     H45615   7.058   6.317   2.472 -0.3562 -1.9368  2.1578
  331MOL0     H45616   6.967   6.258   2.336 -1.9798 -0.9888  2.2420
  331MOL0     H45617   7.051   6.020   2.364  0.2166  0.2910 -1.2165
  331MOL0     H45618   7.153   6.074   2.499 -2.3880 -0.4627  3.6734
  331MOL0     H45619   6.859   6.093   2.477  0.9376 -0.1342  0.5577
  331MOL0     H45620   6.949   6.173   2.607 -1.4653  0.3919 -0.0053
  331MOL0     H45621   7.016   5.876   2.563 -0.4792 -0.8119  0.6772
  331MOL0     H45622   7.018   5.977   2.707  0.3669  0.4748 -0.9548
  331MOL0     H45623   6.763   5.879   2.580  2.3084  2.8905 -1.1649
  331MOL0     H45624   6.789   5.936   2.747 -0.7432 -2.9530  1.7597
  331MOL0     H45625   6.934   5.685   2.638  2.7028 -0.0776  2.8608
  331MOL0     H45626   6.917   5.727   2.804 -2.3420 -0.8256  2.0823
  331MOL0     H45627   6.571   5.721   2.580 -2.7963 -1.7108  0.1928
  331MOL0     H45628   6.352   5.460   2.722  2.5179 -0.4386  1.7565
  331MOL0     H45629   6.360   5.571   2.578 -3.1236 -0.7544  0.3869
  331MOL0     H45630   6.303   5.636   2.867  1.2599 -1.5398 -0.4251
  331MOL0     H45631   6.307   5.764   2.748  2.4745  0.6983  3.8994
  331MOL0     H45632   6.140   5.515   2.785 -0.8010 -0.7561 -0.6310
  331MOL0     H45633   6.088   5.691   2.815 -1.7748  0.6077 -2.5051
  331MOL0     H45634   6.127   5.729   2.574 -1.9449  0.9595  1.8364
  331MOL0     H45635   6.114   5.556   2.541 -0.3564 -1.0132  0.9002
  331MOL0     H45636   5.685   5.644   2.666 -0.8327 -0.0077 -1.5354
  331MOL0     H45637   5.447   5.373   2.720  0.1888 -0.4087  2.2696
  331MOL0     H45638   5.472   5.541   2.676 -0.8319  0.4461  1.1325
  331MOL0     H45639   5.476   5.503   2.846 -1.1117 -0.8434  1.2651
  331MOL0     H45640   5.580   4.911   2.796  1.7302 -4.3054 -1.6092
  331MOL0     H45641   5.521   4.694   2.913  0.4416  1.5760 -2.7538
  331MOL0     H45642   5.740   4.617   3.304  2.7440 -3.7533  0.1431
  331MOL0     H45643   5.566   4.618   3.350 -2.1131 -0.0878 -1.6059
  331MOL0     H45644   5.711   4.388   3.196 -0.0468  0.3941 -0.7440
  331MOL0     H45645   5.697   4.389   3.375 -0.5993 -1.1603 -0.9439
  331MOL0     H45646   5.542   4.267   3.181  0.2191  2.3567 -1.9062
  331MOL0     H45647   5.441   4.407   3.211  0.5640  0.6841 -2.0517
  331MOL0     H45648   5.447   4.346   3.472  0.2375  2.2345 -0.8865
  331MOL0     H45649   5.525   4.199   3.426  1.4684  0.4938 -0.5274
  331MOL0     H45650   5.253   4.318   3.350 -0.1706  0.3109 -1.0970
  331MOL0     H45651   5.295   4.165   3.280 -2.7565  0.7449  0.7547
  331MOL0     H45652   5.237   4.231   3.583 -0.2779 -1.1930  1.2189
  331MOL0     H45653   5.291   4.083   3.533 -1.7330  0.1073 -0.0613
  331MOL0     H45654   5.085   4.112   3.346  1.8647  1.8063  0.3725
  331MOL0     H45655   5.027   4.205   3.488  2.7544  1.8860  0.7453
  331MOL0     H45656   4.954   3.954   3.513 -0.1453 -0.0858  0.2779
  331MOL0     H45657   5.096   3.992   3.615 -1.0534 -1.0716  0.3677
  331MOL0     H45658   5.697   4.860   3.274  1.4469 -2.4436 -1.3536
  331MOL0     H45659   5.733   5.069   3.152 -1.2881 -0.6354  0.6274
  331MOL0     H45660   5.899   5.216   2.769 -1.0405  0.1800 -0.5503
  331MOL0     H45661   6.025   5.396   2.654  0.0661  2.0636  0.5429
  331MOL0     H45662   7.337   6.681   2.502 -0.8326  0.0632 -1.5750
  331MOL0     H45663   7.582   6.752   2.505  1.0127 -1.2107  2.3518
  331MOL0     H45664   7.878   6.835   2.178 -0.4291 -1.4305  1.3543
  331MOL0     H45665   8.062   7.000   2.110  1.1812 -0.7441  0.0183
  331MOL0     H45666   8.274   7.188   2.448 -1.7462  0.7666 -1.9168
  331MOL0     H45667   8.397   7.076   2.383 -1.4767 -0.2977  6.1269
  331MOL0     H45668   8.327   7.372   2.305  0.1668 -1.4307 -0.1892
  331MOL0     H45669   8.423   7.272   2.209  3.0595  2.6366 -0.0658
  331MOL0     H45670   8.458   7.351   2.502  0.6394 -0.5991 -0.2078
  331MOL0     H45671   8.550   7.226   2.416  1.6643 -0.6917 -3.3284
  331MOL0     H45672   8.643   7.380   2.278 -0.8837 -3.0367  0.2901
  331MOL0     H45673   8.659   7.427   2.451 -1.2136 -0.9169  0.3534
  331MOL0     H45674   8.461   7.747   2.242 -0.6532  1.7800  1.4683
  331MOL0     H45675   8.229   6.962   2.493 -0.1581  3.9751 -0.4639
  331MOL0     H45676   8.194   6.769   2.600 -0.2460  2.0686  0.1268
  331MOL0     H45677   8.026   6.805   2.667  0.2302  0.4503  1.7745
  331MOL0     H45678   8.052   6.657   2.585 -2.4298  1.6012  1.2546
  332MOL0     O45679   6.510  10.060   4.700 -0.2478 -0.0813  0.3044
  332MOL0     C45680   6.441   9.961   4.657  0.4070  0.1001 -0.5568
  332MOL0     O45681   6.333   9.979   4.572 -0.1103  0.5176 -0.3170
  332MOL0     C45682   6.264  10.096   4.547 -0.1682 -0.3863 -0.0578
  332MOL0     C45683   6.273  10.207   4.629  1.1373  0.5624 -0.1452
  332MOL0     C45684   6.194  10.313   4.597  0.1406 -0.1662  0.0889
  332MOL0     C45685   6.106  10.318   4.482  1.0499  0.6969 -0.2107
  332MOL0     O45686   6.031  10.422   4.478  0.7357  0.4599  0.3114
  332MOL0     C45687   6.094  10.540   4.428 -0.4659 -0.6712  0.0707
  332MOL0     C45688   6.113  10.558   4.273 -0.1548 -0.2463 -0.3630
  332MOL0     C45689   5.995  10.630   4.197  0.5943  0.0724 -0.1994
  332MOL0     C45690   6.009  10.605   4.040  0.5438 -1.0259 -0.2110
  332MOL0     C45691   5.896  10.676   3.976  0.1429  0.4473 -0.1101
  332MOL0     C45692   5.936  10.666   3.821  0.4505 -1.0211  0.1037
  332MOL0     C45693   5.820  10.735   3.751 -0.2212  0.7275  0.0719
  332MOL0     C45694   5.706  10.644   3.710 -0.4599  0.9049 -0.0067
  332MOL0     N45695   5.579  10.709   3.706  0.5244 -0.4861 -0.1355
  332MOL0     C45696   5.535  10.799   3.608  0.0591  0.1512  0.0724
  332MOL0     C45697   5.404  10.822   3.634 -0.5641  0.5585  0.0265
  332MOL0     C45698   5.297  10.873   3.531 -0.0297  1.1054  0.7606
  332MOL0     C45699   5.349  10.934   3.402  0.5700  0.3500 -0.6257
  332MOL0     C45700   5.381  10.833   3.295 -0.6537  0.0836  0.6445
  332MOL0     C45701   5.450  10.895   3.171  0.1839 -0.1469  0.2563
  332MOL0     O45702   5.576  10.958   3.215 -0.0467  0.0698 -0.6257
  332MOL0     C45703   5.687  10.893   3.248 -0.3228 -0.0302 -0.1130
  332MOL0     C45704   5.783  10.955   3.323 -0.1833  0.4549  0.0821
  332MOL0     C45705   5.896  10.888   3.368  0.2234  0.4777  1.1060
  332MOL0     C45706   6.012  10.967   3.429  0.4585  0.3229 -0.0557
  332MOL0     C45707   5.919  10.750   3.333 -0.0156 -0.2050 -0.1615
  332MOL0     C45708   6.050  10.670   3.357  0.9363  0.9900 -0.1732
  332MOL0     O45709   6.094  10.574   3.261  0.1602  0.8350 -1.2032
  332MOL0     C45710   6.190  10.479   3.289 -0.8427 -0.0713 -0.1427
  332MOL0     C45711   6.151  10.355   3.330 -0.1013 -0.3528  0.7351
  332MOL0     C45712   6.250  10.268   3.390  1.3582  0.3267  0.4076
  332MOL0     C45713   6.382  10.302   3.395  0.0478 -0.3442 -0.0739
  332MOL0     O45714   6.490  10.230   3.446  0.1757 -0.0595 -0.0334
  332MOL0     C45715   6.469  10.160   3.572 -0.6970 -0.2224  0.7887
  332MOL0     C45716   6.597  10.091   3.610 -0.6785  0.7047  0.0696
  332MOL0     C45717   6.603   9.948   3.532 -0.4592 -0.4766 -0.2220
  332MOL0     C45718   6.716   9.861   3.594  0.0520  0.1813  0.4884
  332MOL0     C45719   6.747   9.711   3.525  0.3460  1.3067  0.1093
  332MOL0     C45720   6.616   9.646   3.497 -0.2781  0.2334 -0.1396
  332MOL0     C45721   6.613   9.485   3.498  0.0287  0.2691  0.0396
  332MOL0     C45722   6.702   9.424   3.383  0.8416  0.2785  0.4192
  332MOL0    Cl45723   6.646   9.469   3.223  0.4745 -0.1499  0.4516
  332MOL0     C45724   6.414  10.422   3.350 -0.6467 -0.9055  1.1141
  332MOL0     C45725   6.327  10.517   3.297 -0.7135 -0.3629 -0.4070
  332MOL0     O45726   6.089  10.679   3.473  0.0707 -1.3803 -0.4976
  332MOL0     C45727   5.813  10.694   3.262 -0.4987  1.0213 -0.2329
  332MOL0     C45728   5.707  10.766   3.207 -0.4894  0.6692 -0.5489
  332MOL0     N45729   5.381  10.765   3.759 -1.1311  0.8666 -0.1208
  332MOL0     N45730   5.483  10.689   3.797 -0.2290 -0.1198 -0.1248
  332MOL0     C45731   6.088  10.200   4.408 -0.6633  0.2269 -0.7843
  332MOL0     C45732   6.174  10.092   4.443  0.2358  0.2632 -0.0187
  332MOL0     C45733   6.478   9.826   4.690  0.1902 -0.1439  0.3689
  332MOL0     C45734   6.370   9.730   4.700 -0.0164  0.4654  0.1217
  332MOL0     C45735   6.394   9.586   4.707  0.5073  0.0087  0.6597
  332MOL0     C45736   6.521   9.531   4.716 -0.8902  0.0619 -0.1436
  332MOL0     O45737   6.570   9.408   4.712  0.7057  1.0499  0.0162
  332MOL0     C45738   6.478   9.295   4.719 -1.0308 -0.5728  0.3680
  332MOL0     C45739   6.462   9.240   4.577 -0.8129 -0.6407 -0.2012
  332MOL0     C45740   6.335   9.163   4.570  0.7775 -0.5446 -0.5671
  332MOL0     C45741   6.200   9.238   4.582 -0.4490  0.1290 -0.3390
  332MOL0     C45742   6.087   9.150   4.581  0.0340  0.0225  0.3649
  332MOL0     C45743   5.981   9.095   4.580  0.7430  0.1777  0.2581
  332MOL0     C45744   6.623   9.629   4.714  0.0749  0.5525  0.0006
  332MOL0     C45745   6.603   9.773   4.708 -0.6273  0.0221  0.9409
  332MOL0     C45746   6.736   9.851   4.710  0.4624 -0.6558 -0.0061
  332MOL0     H45747   6.332  10.228   4.718 -2.4555  2.0990  2.0842
  332MOL0     H45748   6.211  10.397   4.662  1.2196 -0.7553  0.5878
  332MOL0     H45749   6.186  10.544   4.485 -0.3993 -2.4733  0.1168
  332MOL0     H45750   6.046  10.630   4.467 -0.2771 -1.6490  2.7317
  332MOL0     H45751   6.207  10.609   4.254 -1.1415  1.6847 -0.2869
  332MOL0     H45752   6.119  10.457   4.231  0.3283 -0.0523 -0.7625
  332MOL0     H45753   5.900  10.583   4.223 -0.5781  2.2683 -0.2673
  332MOL0     H45754   5.987  10.738   4.216 -2.2911 -0.0374 -0.3981
  332MOL0     H45755   6.105  10.639   3.998 -0.4127  2.7702  0.3430
  332MOL0     H45756   6.004  10.499   4.015 -2.0476 -0.4026 -2.9864
  332MOL0     H45757   5.896  10.780   4.012 -1.2601  0.0714  1.0945
  332MOL0     H45758   5.794  10.638   3.989  0.6967 -0.8483  0.5681
  332MOL0     H45759   6.031  10.721   3.818 -0.5332  0.7455  0.2987
  332MOL0     H45760   5.959  10.569   3.776 -0.1485  0.2875 -3.3087
  332MOL0     H45761   5.872  10.776   3.664  1.0699  2.0337  1.3903
  332MOL0     H45762   5.774  10.820   3.803 -0.0541 -0.3442  2.0435
  332MOL0     H45763   5.725  10.597   3.613  1.8031 -1.5163  1.4751
  332MOL0     H45764   5.690  10.559   3.777  2.9808 -0.8486 -1.1596
  332MOL0     H45765   5.587  10.841   3.522 -3.9424  0.5001 -2.4216
  332MOL0     H45766   5.228  10.932   3.592 -2.3604 -1.1827  0.5205
  332MOL0     H45767   5.239  10.786   3.499  3.5612 -1.6731  1.1912
  332MOL0     H45768   5.271  10.997   3.360 -2.6124 -2.6483  0.3930
  332MOL0     H45769   5.430  11.008   3.415 -1.2280  2.5160 -1.0706
  332MOL0     H45770   5.440  10.751   3.337 -1.7396 -3.3093 -3.7155
  332MOL0     H45771   5.287  10.786   3.265 -1.9469  1.9718  1.5298
  332MOL0     H45772   5.462  10.815   3.097  0.3952 -0.8749  1.0676
  332MOL0     H45773   5.379  10.963   3.123 -3.0117 -3.1734  0.3017
  332MOL0     H45774   5.766  11.057   3.356  1.1927 -0.3340  3.7387
  332MOL0     H45775   6.022  10.935   3.533 -0.3898 -2.7315 -0.8199
  332MOL0     H45776   6.001  11.076   3.426  3.0487  0.6155 -1.6754
  332MOL0     H45777   6.102  10.938   3.376 -0.6495 -2.0235 -0.7722
  332MOL0     H45778   6.047  10.325   3.323  0.0363 -0.5838 -0.5758
  332MOL0     H45779   6.234  10.168   3.428  1.9518 -1.1771 -2.9274
  332MOL0     H45780   6.447  10.240   3.643 -0.8379  2.6938 -2.2957
  332MOL0     H45781   6.380  10.097   3.566 -1.2762  0.6544 -0.0697
  332MOL0     H45782   6.692  10.138   3.582  1.3432 -3.2711 -0.5647
  332MOL0     H45783   6.601  10.079   3.719  3.5186  1.0512  0.1133
  332MOL0     H45784   6.623   9.972   3.427 -0.6620  0.2673 -0.0996
  332MOL0     H45785   6.505   9.900   3.536 -1.7528  2.0421  0.8356
  332MOL0     H45786   6.678   9.833   3.693  0.5221 -1.5580  0.2113
  332MOL0     H45787   6.809   9.918   3.604 -1.6400  3.3225 -0.4906
  332MOL0     H45788   6.796   9.722   3.428  2.3067 -0.6011  0.8107
  332MOL0     H45789   6.805   9.650   3.594 -2.1726  2.1873  3.2472
  332MOL0     H45790   6.566   9.689   3.409 -0.7993  0.2563  0.1575
  332MOL0     H45791   6.538   9.677   3.567  0.3172  4.4613 -1.0768
  332MOL0     H45792   6.512   9.447   3.481  0.0374  0.7557 -1.1973
  332MOL0     H45793   6.648   9.460   3.598 -0.1916  1.5457  0.4500
  332MOL0     H45794   6.715   9.316   3.392  0.7141  0.2038 -0.2244
  332MOL0     H45795   6.803   9.466   3.389  1.6290 -1.6717  1.6174
  332MOL0     H45796   6.518  10.450   3.362 -0.5048 -0.7517 -0.2354
  332MOL0     H45797   6.359  10.621   3.293  1.1259 -0.9153 -1.5916
  332MOL0     H45798   5.833  10.596   3.220  0.7533  1.4720 -0.7442
  332MOL0     H45799   5.653  10.707   3.133  0.4737 -2.7207  1.2312
  332MOL0     H45800   6.003  10.188   4.341  0.2437 -2.6086 -1.5533
  332MOL0     H45801   6.160  10.001   4.385 -1.4651  1.4794 -1.6624
  332MOL0     H45802   6.266   9.760   4.690 -0.6606 -1.8782 -1.0587
  332MOL0     H45803   6.307   9.525   4.688 -0.2875  1.9527 -2.6677
  332MOL0     H45804   6.510   9.221   4.793  1.6418  0.3417  0.2346
  332MOL0     H45805   6.384   9.335   4.758 -0.6049 -1.4604  2.4322
  332MOL0     H45806   6.539   9.174   4.537 -1.3419  0.3930 -3.1305
  332MOL0     H45807   6.464   9.322   4.505  2.4807 -0.1372  0.3474
  332MOL0     H45808   6.319   9.115   4.473 -2.7559 -0.8516  0.0435
  332MOL0     H45809   6.350   9.081   4.641  1.7340  0.1596  0.0644
  332MOL0     H45810   6.182   9.305   4.497  2.8060  0.6822 -0.7052
  332MOL0     H45811   6.192   9.298   4.673 -0.9143  1.0278 -0.9610
  332MOL0     H45812   5.888   9.044   4.567 -0.3689  1.4983  2.3554
  332MOL0     H45813   6.724   9.591   4.729 -0.0633  0.6511  1.2474
  332MOL0     H45814   6.757   9.898   4.613  1.7322  1.8049  1.3491
  332MOL0     H45815   6.728   9.935   4.780  0.3608  1.0270 -1.9397
  332MOL0     H45816   6.818   9.790   4.747 -0.4732 -1.3855  0.8991
  333MOL0     O45817   9.570   7.873   9.338  0.0112  0.2600  0.1910
  333MOL0     C45818   9.604   7.987   9.317 -0.0092  0.3275  0.0935
  333MOL0     O45819   9.522   8.099   9.317 -0.5160 -0.5732  0.4511
  333MOL0     C45820   9.385   8.086   9.345 -0.0456 -0.6578  0.4043
  333MOL0     C45821   9.311   8.170   9.428  1.7592  0.6149 -0.3255
  333MOL0     C45822   9.170   8.150   9.457 -0.0049  0.3414  0.2586
  333MOL0     C45823   9.104   8.040   9.408  0.8587 -0.0147 -0.1075
  333MOL0     O45824   8.969   8.031   9.437  0.3721 -0.2724 -0.4869
  333MOL0     C45825   8.888   7.915   9.405 -0.1253 -0.4137 -0.1381
  333MOL0     C45826   8.737   7.954   9.417  0.8776  0.8143  0.2520
  333MOL0     C45827   8.641   7.858   9.350  0.2329 -0.9079  0.0744
  333MOL0     C45828   8.620   7.911   9.208 -0.0600  0.1664 -0.9394
  333MOL0     C45829   8.491   7.861   9.144 -0.5934 -0.4149  0.0942
  333MOL0     C45830   8.497   7.896   8.996  0.2378  0.3285 -0.3243
  333MOL0     C45831   8.376   7.831   8.917 -0.6325  0.1053 -0.4632
  333MOL0     C45832   8.254   7.923   8.932  0.3528  0.1360  0.2217
  333MOL0     N45833   8.127   7.875   8.868 -1.1364  0.2538  0.0230
  333MOL0     C45834   8.032   7.811   8.938 -0.5752 -0.5697  0.6298
  333MOL0     C45835   7.923   7.808   8.854  0.5110  0.4445  0.2692
  333MOL0     C45836   7.797   7.722   8.878 -0.0030 -0.5722 -0.2251
  333MOL0     C45837   7.733   7.761   9.017 -0.8906  0.4602 -0.7017
  333MOL0     C45838   7.796   7.677   9.125  0.6780 -0.3370  0.0334
  333MOL0     C45839   7.736   7.734   9.254  0.3793  0.0958 -0.2274
  333MOL0     O45840   7.755   7.875   9.284  0.5504 -0.8283 -0.4064
  333MOL0     C45841   7.882   7.936   9.281  0.3639  0.1935 -0.9700
  333MOL0     C45842   7.897   8.044   9.204  0.6868  0.3949  0.2047
  333MOL0     C45843   8.017   8.114   9.190 -0.5237  0.4663 -0.4758
  333MOL0     C45844   8.021   8.231   9.105  0.0912 -0.4037  0.6672
  333MOL0     C45845   8.131   8.074   9.277  0.6549 -0.1942 -0.0348
  333MOL0     C45846   8.259   8.139   9.294 -0.2321  0.6750 -0.2048
  333MOL0     O45847   8.293   8.143   9.431 -0.3115 -0.0812  1.2178
  333MOL0     C45848   8.412   8.203   9.474 -0.1478 -0.0427 -0.6476
  333MOL0     C45849   8.498   8.286   9.403 -0.1315 -0.5632 -0.2084
  333MOL0     C45850   8.615   8.344   9.461  0.5177  1.0643  0.4648
  333MOL0     C45851   8.650   8.311   9.596  0.8954  0.0304  0.6717
  333MOL0     O45852   8.770   8.365   9.645  0.3072 -0.0413  0.1198
  333MOL0     C45853   8.841   8.282   9.733  1.1538  0.4694  0.5618
  333MOL0     C45854   8.972   8.351   9.764 -0.2645  0.9737  0.2246
  333MOL0     C45855   9.037   8.239   9.846  0.7153 -0.9029  0.2631
  333MOL0     C45856   9.162   8.299   9.918 -0.7589 -0.6382  1.5646
  333MOL0     C45857   9.268   8.198   9.962  0.3604  0.0969 -0.9524
  333MOL0     C45858   9.349   8.133   9.851 -0.5068 -0.1408  0.1698
  333MOL0     C45859   9.450   8.244   9.797  0.1020  0.8985 -0.0978
  333MOL0     C45860   9.549   8.172   9.714  1.2835  0.5470 -0.0646
  333MOL0    Cl45861   9.659   8.294   9.662  0.5746 -0.2781 -0.4711
  333MOL0     C45862   8.564   8.224   9.664  0.7609  0.0852  0.4570
  333MOL0     C45863   8.452   8.169   9.596  0.0964  0.7256  0.7566
  333MOL0     O45864   8.317   8.185   9.199  0.1938  0.3979 -0.5870
  333MOL0     C45865   8.120   7.950   9.353 -0.2636 -0.7650  0.4532
  333MOL0     C45866   7.993   7.892   9.364  0.0345  0.7400  0.6458
  333MOL0     N45867   7.960   7.864   8.731  0.1270  0.2179  0.8358
  333MOL0     N45868   8.084   7.906   8.741 -0.2564  0.4595  0.1331
  333MOL0     C45869   9.174   7.957   9.311 -1.2714  0.5351 -0.3887
  333MOL0     C45870   9.313   7.984   9.286  1.1718 -0.2040  0.0168
  333MOL0     C45871   9.736   8.011   9.263  0.3131 -0.0241  0.0066
  333MOL0     C45872   9.820   8.109   9.318  0.0665 -0.4344 -0.2522
  333MOL0     C45873   9.956   8.125   9.283  0.8182 -0.9778  0.3280
  333MOL0     C45874  10.010   8.041   9.188 -0.1014  0.0338 -0.0978
  333MOL0     O45875  10.138   8.057   9.146 -0.3439  0.0806 -0.2639
  333MOL0     C45876  10.214   7.970   9.057 -0.3952 -0.2599 -0.3185
  333MOL0     C45877  10.343   8.032   9.006  0.5237 -0.3212  0.0817
  333MOL0     C45878  10.301   8.160   8.911 -0.2710  0.1538 -0.8190
  333MOL0     C45879  10.410   8.263   8.923 -1.1999 -0.3856 -0.2729
  333MOL0     C45880  10.550   8.214   8.889 -0.3956 -0.2848  0.5479
  333MOL0     C45881  10.660   8.172   8.882  0.3932 -0.4719 -0.1427
  333MOL0     C45882   9.932   7.945   9.131 -0.3770 -0.5352 -0.7424
  333MOL0     C45883   9.804   7.927   9.175  0.5094  0.2371  0.6391
  333MOL0     C45884   9.731   7.814   9.099 -0.6697 -0.5467 -0.3896
  333MOL0     H45885   9.351   8.263   9.468  2.0881 -0.3307  1.6922
  333MOL0     H45886   9.128   8.234   9.513  1.5855 -1.1563  4.0743
  333MOL0     H45887   8.917   7.826   9.463  2.9886  2.1285  2.6213
  333MOL0     H45888   8.912   7.899   9.299  1.9097  0.9289  0.0520
  333MOL0     H45889   8.718   7.946   9.525  0.5077  2.5640  0.3460
  333MOL0     H45890   8.728   8.060   9.391  0.1609  1.0741  1.4590
  333MOL0     H45891   8.683   7.758   9.361  4.0745  0.5982  0.4927
  333MOL0     H45892   8.547   7.875   9.404  0.0846 -0.8528 -0.2007
  333MOL0     H45893   8.612   8.020   9.212 -2.5528  0.1291 -2.5832
  333MOL0     H45894   8.713   7.878   9.160  0.4568 -1.2185  0.9109
  333MOL0     H45895   8.398   7.894   9.189  0.6627  5.5347 -0.8289
  333MOL0     H45896   8.505   7.753   9.157  1.3108 -0.3864 -1.1610
  333MOL0     H45897   8.496   8.004   8.977 -1.7082  0.5714  0.8728
  333MOL0     H45898   8.584   7.846   8.954 -1.8496 -5.3450  1.2087
  333MOL0     H45899   8.352   7.733   8.960 -1.8612 -2.2876 -5.7091
  333MOL0     H45900   8.410   7.818   8.814  0.9697 -0.5382  0.1218
  333MOL0     H45901   8.238   7.938   9.039  0.9242  2.0162  0.0744
  333MOL0     H45902   8.270   8.027   8.902  0.0243  0.1020 -0.0810
  333MOL0     H45903   8.041   7.769   9.038  1.8348 -1.7084  0.0032
  333MOL0     H45904   7.826   7.617   8.869  1.3930 -0.2437  0.2804
  333MOL0     H45905   7.721   7.753   8.806 -0.3564 -0.3417  0.2437
  333MOL0     H45906   7.772   7.861   9.038  2.0159 -0.6017 -0.4407
  333MOL0     H45907   7.624   7.767   9.015 -0.8124  2.6648 -1.9566
  333MOL0     H45908   7.758   7.574   9.119  1.2623 -0.6081  0.8485
  333MOL0     H45909   7.905   7.685   9.126  0.6242  0.3692  0.4971
  333MOL0     H45910   7.626   7.730   9.255  0.3774 -0.7332  1.7187
  333MOL0     H45911   7.762   7.671   9.339 -3.3047  1.6860  2.3488
  333MOL0     H45912   7.806   8.079   9.156  0.1902  0.5281  1.2281
  333MOL0     H45913   8.119   8.279   9.098 -0.6282  0.8791 -1.6703
  333MOL0     H45914   7.940   8.294   9.144 -0.9457 -1.1380 -0.2515
  333MOL0     H45915   7.991   8.210   9.002 -1.2825  2.5029  0.3737
  333MOL0     H45916   8.475   8.330   9.307 -1.8128  2.7446  1.5338
  333MOL0     H45917   8.687   8.405   9.407 -2.3559  0.5778 -4.5731
  333MOL0     H45918   8.790   8.267   9.828  1.1961  1.8183  0.8210
  333MOL0     H45919   8.857   8.188   9.680 -1.8926  1.3136 -2.2625
  333MOL0     H45920   9.028   8.379   9.674 -1.1328  2.4975  0.1384
  333MOL0     H45921   8.968   8.440   9.826  0.1265  0.9612  0.2713
  333MOL0     H45922   9.081   8.167   9.776  0.7671  1.6907 -2.5726
  333MOL0     H45923   8.967   8.187   9.912 -0.5282  0.9746  0.5034
  333MOL0     H45924   9.113   8.344  10.004 -1.7670 -0.8025  1.0968
  333MOL0     H45925   9.210   8.380   9.860  0.1574 -1.5891  0.9535
  333MOL0     H45926   9.337   8.246  10.032  2.8145  1.0711 -3.8389
  333MOL0     H45927   9.222   8.123  10.027  2.0894  0.7099  1.0896
  333MOL0     H45928   9.292   8.085   9.772  1.1162  1.6070 -2.1837
  333MOL0     H45929   9.402   8.062   9.915 -1.6414  0.1894  1.5412
  333MOL0     H45930   9.496   8.310   9.872 -1.3644  4.8748 -2.4258
  333MOL0     H45931   9.402   8.316   9.730 -1.2831  1.9988  1.9631
  333MOL0     H45932   9.487   8.146   9.628 -1.3041  3.6895  0.6702
  333MOL0     H45933   9.610   8.095   9.763  1.8315  0.9288 -0.1299
  333MOL0     H45934   8.580   8.178   9.761 -0.3909  2.8022  2.0263
  333MOL0     H45935   8.403   8.095   9.657  2.3970  0.1565  2.0138
  333MOL0     H45936   8.190   7.940   9.434 -2.7307 -0.4473  2.7670
  333MOL0     H45937   7.993   7.810   9.434 -0.8142  0.2056  0.0374
  333MOL0     H45938   9.133   7.869   9.262  1.3687 -1.2135  0.3382
  333MOL0     H45939   9.363   7.920   9.214  3.1009  0.2601  0.8739
  333MOL0     H45940   9.778   8.168   9.399  1.1139  1.1089 -0.8064
  333MOL0     H45941  10.013   8.213   9.313  0.6598 -0.7769  0.0469
  333MOL0     H45942  10.245   7.881   9.112 -0.0849  0.1387  0.1634
  333MOL0     H45943  10.149   7.951   8.971  1.2128  1.7723 -2.0986
  333MOL0     H45944  10.397   7.951   8.955  2.4602  0.0723  1.4085
  333MOL0     H45945  10.404   8.067   9.089  0.5312 -0.7287  0.2514
  333MOL0     H45946  10.288   8.121   8.810 -0.1251 -3.0695  0.2766
  333MOL0     H45947  10.199   8.188   8.936 -1.5249 -2.9039 -1.9932
  333MOL0     H45948  10.410   8.312   9.021  1.4623 -0.1267 -0.3372
  333MOL0     H45949  10.379   8.341   8.854  1.1510 -0.4813 -1.5523
  333MOL0     H45950  10.758   8.133   8.864 -1.0098 -4.4709 -0.1868
  333MOL0     H45951   9.980   7.884   9.056 -0.2424 -1.6162  0.1933
  333MOL0     H45952   9.628   7.849   9.081 -0.2571 -0.4690 -3.0015
  333MOL0     H45953   9.788   7.794   9.008  3.6749  0.2525  1.8943
  333MOL0     H45954   9.710   7.723   9.157 -2.5305 -0.2372 -0.4949
  334MOL0     O45955   0.583  10.537  11.235  1.2627 -0.5130  0.5095
  334MOL0     C45956   0.602  10.596  11.339 -1.2741  0.0638  0.0837
  334MOL0     O45957   0.727  10.603  11.398  0.3329  0.2588  0.4853
  334MOL0     C45958   0.828  10.534  11.330  0.9223  1.1603 -0.3777
  334MOL0     C45959   0.899  10.558  11.212  0.4098  0.1485  0.4466
  334MOL0     C45960   0.991  10.471  11.159  0.2844  0.1360  0.3111
  334MOL0     C45961   1.018  10.342  11.212 -0.4147  0.4366 -0.2605
  334MOL0     O45962   1.106  10.254  11.161 -0.3255  0.0645  0.3057
  334MOL0     C45963   1.190  10.185  11.252 -0.1349  1.1651  0.0912
  334MOL0     C45964   1.325  10.189  11.185  0.9695 -0.0820  0.0514
  334MOL0     C45965   1.367  10.327  11.135 -0.0234 -0.5579  1.2973
  334MOL0     C45966   1.514  10.335  11.106  0.5124  0.0882 -0.1998
  334MOL0     C45967   1.568  10.476  11.081 -0.5627 -0.0017  0.2024
  334MOL0     C45968   1.529  10.529  10.946  0.4264 -0.3720  0.2298
  334MOL0     C45969   1.616  10.656  10.915 -0.4102 -0.5333  0.1125
  334MOL0     C45970   1.753  10.608  10.863 -0.0537 -0.6601  0.7317
  334MOL0     N45971   1.829  10.729  10.823 -0.1800 -0.0868  0.2468
  334MOL0     C45972   1.872  10.822  10.916  0.0878 -0.8556 -0.4178
  334MOL0     C45973   1.907  10.935  10.847 -0.5403  0.9216 -0.2469
  334MOL0     C45974   1.975  11.056  10.902  0.3821 -0.1918  0.2349
  334MOL0     C45975   1.949  11.175  10.810 -0.3687  0.1330 -0.1510
  334MOL0     C45976   2.015  11.305  10.866  0.1585 -0.0471  0.1344
  334MOL0     C45977   2.025  11.411  10.756 -0.6965  0.4179 -0.3633
  334MOL0     O45978   2.103  11.524  10.811 -0.2787  0.1852  0.6063
  334MOL0     C45979   2.201  11.559  10.726  0.5532 -0.1670  0.2471
  334MOL0     C45980   2.320  11.490  10.712 -0.3609 -1.3767 -1.0214
  334MOL0     C45981   2.426  11.541  10.644  0.0826 -0.4077 -0.2732
  334MOL0     C45982   2.555  11.470  10.631 -0.4648 -0.3899 -0.2726
  334MOL0     C45983   2.411  11.656  10.568  0.9333  0.3430  0.1768
  334MOL0     C45984   2.503  11.692  10.456 -0.0766  0.3068  0.7233
  334MOL0     O45985   2.557  11.818  10.477  0.2325  0.7267  0.1908
  334MOL0     C45986   2.652  11.854  10.381  0.1637  0.2477  0.4906
  334MOL0     C45987   2.631  11.865  10.245  0.5685  0.1979  0.4551
  334MOL0     C45988   2.735  11.910  10.156 -0.0728  0.0064 -0.6468
  334MOL0     C45989   2.866  11.930  10.202  0.0834  0.1229 -0.0801
  334MOL0     O45990   2.954  11.969  10.106 -0.1266 -0.0497 -0.6745
  334MOL0     C45991   3.054  12.058  10.152  0.2295  0.0236  0.3360
  334MOL0     C45992   3.110  12.117  10.029  0.8057  0.0312  1.4806
  334MOL0     C45993   3.152  12.254  10.069 -0.0722  0.3622 -0.2271
  334MOL0     C45994   3.226  12.309   9.940  0.4653  0.5241  0.6792
  334MOL0     C45995   3.243  12.463   9.932 -0.1820 -0.2232 -0.7122
  334MOL0     C45996   3.329  12.504   9.809  0.5435  0.4588  0.1820
  334MOL0     C45997   3.347  12.656   9.792 -0.4514 -0.7421 -0.5589
  334MOL0     C45998   3.387  12.697   9.650 -0.7823  0.8581 -1.3231
  334MOL0    Cl45999   3.534  12.607   9.604 -0.0854  0.1645  0.3872
  334MOL0     C46000   2.890  11.912  10.347  0.4947 -0.0972 -1.0176
  334MOL0     C46001   2.782  11.874  10.424  0.1159  1.1297 -1.0943
  334MOL0     O46002   2.538  11.612  10.367  0.6304  0.3865  1.1070
  334MOL0     C46003   2.290  11.726  10.577  0.0693  1.4208 -0.9648
  334MOL0     C46004   2.184  11.673  10.650 -1.2943 -0.5096 -0.3149
  334MOL0     N46005   1.897  10.902  10.709  0.0748  0.2343  0.0826
  334MOL0     N46006   1.857  10.777  10.696  0.2225  0.4468 -0.6713
  334MOL0     C46007   0.956  10.310  11.334  0.3042 -0.7816 -0.2663
  334MOL0     C46008   0.857  10.406  11.382  0.3721 -0.6646 -0.6474
  334MOL0     C46009   0.483  10.662  11.406 -0.2376 -0.2974 -0.2433
  334MOL0     C46010   0.363  10.688  11.321 -0.0237  0.3811 -0.4471
  334MOL0     C46011   0.251  10.755  11.371  0.9994  0.4998 -0.0006
  334MOL0     C46012   0.248  10.793  11.505 -0.3477  0.5072  0.2781
  334MOL0     O46013   0.129  10.858  11.540 -0.2058 -0.3984 -0.1596
  334MOL0     C46014   0.102  10.901  11.668 -0.4498 -0.4126 -0.0353
  334MOL0     C46015  -0.041  10.963  11.682 -0.3506  0.5789 -0.4098
  334MOL0     C46016  -0.069  11.087  11.605 -0.2827 -0.3457  0.6592
  334MOL0     C46017   0.004  11.221  11.654  1.0179 -0.2506 -0.4876
  334MOL0     C46018  -0.043  11.244  11.785  0.2152  0.2422 -0.1807
  334MOL0     C46019  -0.085  11.257  11.900 -0.5507 -1.3724  0.4811
  334MOL0     C46020   0.360  10.769  11.592 -0.2559  0.9175 -0.7391
  334MOL0     C46021   0.479  10.712  11.541 -0.6185  0.0607  0.4957
  334MOL0     C46022   0.585  10.670  11.629  0.5876  0.2124  0.3606
  334MOL0     H46023   0.884  10.657  11.170 -2.2782  0.4449  1.9369
  334MOL0     H46024   1.023  10.488  11.057 -0.8733  0.8712  0.0398
  334MOL0     H46025   1.156  10.082  11.261 -2.9558  1.7996 -2.0794
  334MOL0     H46026   1.214  10.233  11.347  1.8259 -3.0576  2.0270
  334MOL0     H46027   1.393  10.152  11.262  0.7719 -1.6533 -0.4922
  334MOL0     H46028   1.337  10.114  11.107 -1.4490  2.7452 -3.3558
  334MOL0     H46029   1.319  10.345  11.038  1.0519 -0.0091  0.8579
  334MOL0     H46030   1.332  10.413  11.193 -0.7899  1.9261 -2.4699
  334MOL0     H46031   1.563  10.300  11.197  0.4697  1.0501  0.2052
  334MOL0     H46032   1.535  10.270  11.021  5.0937 -2.0600  2.2016
  334MOL0     H46033   1.676  10.472  11.097 -0.6773  0.2460  1.0463
  334MOL0     H46034   1.530  10.544  11.158 -0.1720 -0.4614  0.8139
  334MOL0     H46035   1.542  10.448  10.874 -0.2235 -1.5999  1.4373
  334MOL0     H46036   1.423  10.554  10.936  1.3737  4.9443  0.3639
  334MOL0     H46037   1.627  10.723  11.001 -0.9489  0.2423 -0.4093
  334MOL0     H46038   1.556  10.709  10.840 -1.3988 -2.6609 -0.6715
  334MOL0     H46039   1.801  10.551  10.942 -1.2572 -0.2291  1.7993
  334MOL0     H46040   1.739  10.550  10.771 -1.2728  2.0539 -0.9435
  334MOL0     H46041   1.860  10.826  11.023  0.1329  1.9663 -0.4386
  334MOL0     H46042   2.084  11.048  10.913  0.8299  1.1661 -2.3132
  334MOL0     H46043   1.933  11.078  11.000  1.2650 -1.5664  0.9551
  334MOL0     H46044   2.004  11.157  10.717 -0.6069  0.7073 -0.4105
  334MOL0     H46045   1.842  11.192  10.793 -0.5577  0.4088  1.1624
  334MOL0     H46046   1.957  11.351  10.947 -2.6642  1.9355 -2.7596
  334MOL0     H46047   2.116  11.288  10.903  0.4334  0.2899 -0.4489
  334MOL0     H46048   2.079  11.359  10.677 -1.9344 -1.6343  0.0307
  334MOL0     H46049   1.929  11.445  10.718 -0.9783 -0.7563 -0.7431
  334MOL0     H46050   2.336  11.400  10.770 -0.9940  0.2452  1.8892
  334MOL0     H46051   2.555  11.387  10.703  1.0772 -0.8390 -0.7599
  334MOL0     H46052   2.633  11.546  10.634 -1.2637  0.4398 -0.2704
  334MOL0     H46053   2.572  11.429  10.531 -0.4736 -2.4005  0.4995
  334MOL0     H46054   2.533  11.852  10.200  0.6672  1.6910 -0.2557
  334MOL0     H46055   2.726  11.942  10.053  2.3787  2.7192 -0.1413
  334MOL0     H46056   3.005  12.132  10.216  1.1775  0.3074  0.7492
  334MOL0     H46057   3.122  12.009  10.223 -0.1019 -0.1777  0.5182
  334MOL0     H46058   3.188  12.055   9.985 -1.7763 -1.2919 -1.6398
  334MOL0     H46059   3.033  12.120   9.951  0.0255  0.1161  2.2393
  334MOL0     H46060   3.225  12.261  10.149  1.6914  3.6767 -1.9195
  334MOL0     H46061   3.057  12.299  10.102 -1.2100 -0.8713 -1.6635
  334MOL0     H46062   3.175  12.270   9.851 -1.7156  3.9219  0.2788
  334MOL0     H46063   3.322  12.257   9.943  0.0213 -0.2957  1.0173
  334MOL0     H46064   3.140  12.497   9.915 -1.4587 -1.8080  2.9675
  334MOL0     H46065   3.280  12.500  10.027 -1.7403  1.0599 -0.5546
  334MOL0     H46066   3.265  12.474   9.725  0.6863 -1.4149  0.6893
  334MOL0     H46067   3.429  12.462   9.801  0.3524  0.1489 -0.7922
  334MOL0     H46068   3.425  12.683   9.863 -2.6387  0.0710  1.6520
  334MOL0     H46069   3.257  12.712   9.817  1.0108  1.2629  0.5259
  334MOL0     H46070   3.407  12.804   9.648 -0.8663  1.0089  1.7071
  334MOL0     H46071   3.310  12.668   9.578  0.2225  0.1735 -2.1463
  334MOL0     H46072   2.991  11.927  10.382  0.0801  2.7281 -0.8157
  334MOL0     H46073   2.793  11.863  10.532 -1.7457 -0.9056 -1.0254
  334MOL0     H46074   2.274  11.818  10.522  2.4251  1.8023 -1.0906
  334MOL0     H46075   2.098  11.737  10.669  0.3930  1.2905  1.7353
  334MOL0     H46076   0.974  10.213  11.379 -0.5715 -0.5280  0.6725
  334MOL0     H46077   0.796  10.382  11.468 -1.3226 -3.2010 -2.4070
  334MOL0     H46078   0.353  10.644  11.223 -4.3398 -0.1872  0.0783
  334MOL0     H46079   0.168  10.775  11.305 -0.1653  4.1979  2.2415
  334MOL0     H46080   0.116  10.821  11.741  2.1778 -1.0948 -1.1843
  334MOL0     H46081   0.170  10.980  11.699 -1.0931  0.3591 -0.5302
  334MOL0     H46082  -0.059  10.985  11.787 -0.9863  0.2969 -0.4569
  334MOL0     H46083  -0.110  10.885  11.649 -0.7440  1.0921 -0.8147
  334MOL0     H46084  -0.041  11.068  11.501  2.2509  1.5168  0.9086
  334MOL0     H46085  -0.176  11.108  11.606 -0.3935 -0.7951 -0.1285
  334MOL0     H46086  -0.023  11.308  11.594 -1.2739  0.1240  0.9403
  334MOL0     H46087   0.112  11.212  11.649  1.0818  0.4528 -0.4049
  334MOL0     H46088  -0.122  11.260  12.000 -1.2254  1.1139  0.2247
  334MOL0     H46089   0.359  10.783  11.700 -0.8109  1.1314 -0.7709
  334MOL0     H46090   0.672  10.735  11.613 -0.3857  1.6737  0.8338
  334MOL0     H46091   0.546  10.677  11.731 -2.5331  2.3620 -0.8028
  334MOL0     H46092   0.606  10.563  11.627 -0.5823 -0.0470  1.0818
  335MOL0     O46093   9.300   4.188   7.366  0.0468 -0.4442  0.1794
  335MOL0     C46094   9.386   4.161   7.456 -0.2924 -0.9451  0.4039
  335MOL0     O46095   9.359   4.096   7.576  1.3413  1.2528  0.5960
  335MOL0     C46096   9.235   4.120   7.635 -0.5961 -0.6095 -0.6306
  335MOL0     C46097   9.132   4.033   7.603  0.6784  0.4532  0.2798
  335MOL0     C46098   8.999   4.074   7.641 -1.1790 -0.7747 -0.5292
  335MOL0     C46099   8.982   4.194   7.705  0.3056 -0.3883  0.6519
  335MOL0     O46100   8.854   4.219   7.740 -0.0474  0.4360 -0.0516
  335MOL0     C46101   8.790   4.333   7.700 -0.2724 -0.9073 -0.1032
  335MOL0     C46102   8.640   4.335   7.720 -0.1230  0.0461 -0.0956
  335MOL0     C46103   8.563   4.222   7.655 -0.6828 -1.1832  0.0272
  335MOL0     C46104   8.577   4.082   7.705 -0.3689 -0.0946  0.3480
  335MOL0     C46105   8.585   3.980   7.591 -0.4338  0.4804 -0.2866
  335MOL0     C46106   8.608   3.835   7.655 -1.0014  0.0540  0.1749
  335MOL0     C46107   8.568   3.708   7.567  0.0174 -0.3720  0.4369
  335MOL0     C46108   8.651   3.726   7.439  0.4532 -0.0988  0.2959
  335MOL0     N46109   8.783   3.654   7.455 -0.0709 -0.4201 -0.1006
  335MOL0     C46110   8.811   3.515   7.454 -0.5451  0.9782 -0.5562
  335MOL0     C46111   8.935   3.508   7.504  0.0234 -0.0672  0.5583
  335MOL0     C46112   8.993   3.376   7.541 -0.2878  1.2395  0.8650
  335MOL0     C46113   8.960   3.248   7.452 -0.5967 -0.2048 -0.1944
  335MOL0     C46114   9.042   3.122   7.489 -0.5983  1.0343  0.1807
  335MOL0     C46115   9.015   3.012   7.378 -0.4077  0.3554  0.4965
  335MOL0     O46116   9.083   2.896   7.423 -0.1784  0.3333 -0.1645
  335MOL0     C46117   9.103   2.796   7.331 -0.6402 -0.2168  0.3732
  335MOL0     C46118   9.190   2.688   7.359  0.1640 -0.7602 -0.2250
  335MOL0     C46119   9.214   2.590   7.263  1.5903 -0.0654  0.1822
  335MOL0     C46120   9.316   2.485   7.315  0.2767  0.1908 -1.0837
  335MOL0     C46121   9.151   2.580   7.134 -0.3802 -0.3505  0.1260
  335MOL0     C46122   9.186   2.469   7.033 -1.1230  0.1156 -0.4684
  335MOL0     O46123   9.140   2.489   6.909 -0.0258  0.0747  0.8726
  335MOL0     C46124   9.146   2.389   6.811  0.1195 -0.0055  0.4524
  335MOL0     C46125   9.108   2.257   6.840 -0.7410 -0.7042 -0.1335
  335MOL0     C46126   9.120   2.166   6.733  0.3723 -1.0168 -0.5195
  335MOL0     C46127   9.159   2.200   6.597  0.4029 -0.3837 -0.4622
  335MOL0     O46128   9.175   2.111   6.495 -0.4275  0.2764  0.0797
  335MOL0     C46129   9.212   1.982   6.531  0.3509  0.5752  0.2262
  335MOL0     C46130   9.106   1.878   6.526  0.0474  0.8175 -0.4138
  335MOL0     C46131   8.969   1.934   6.543  0.9529 -0.7778  0.0818
  335MOL0     C46132   8.860   1.829   6.503  0.3668  0.6590 -0.1294
  335MOL0     C46133   8.719   1.889   6.490  0.4068 -0.0941  0.4510
  335MOL0     C46134   8.614   1.778   6.473  0.2967 -0.2909  0.6184
  335MOL0     C46135   8.586   1.709   6.599  1.3373 -0.4392 -0.5435
  335MOL0     C46136   8.483   1.601   6.574  0.5226  0.1932 -0.5268
  335MOL0    Cl46137   8.419   1.550   6.735  0.4109  0.2920  0.0540
  335MOL0     C46138   9.198   2.330   6.578 -0.0349 -0.2503 -0.3233
  335MOL0     C46139   9.191   2.427   6.686  0.8114 -0.7573 -0.0208
  335MOL0     O46140   9.254   2.370   7.066 -0.1142 -0.4231  0.3650
  335MOL0     C46141   9.068   2.689   7.114  0.5099  0.4121  0.6368
  335MOL0     C46142   9.045   2.794   7.207  0.5730  0.4848 -0.0016
  335MOL0     N46143   8.978   3.636   7.530  0.4306 -1.0043 -0.0105
  335MOL0     N46144   8.891   3.722   7.507 -0.2807  0.5665  0.4386
  335MOL0     C46145   9.089   4.281   7.738  0.4062 -0.2433  0.4215
  335MOL0     C46146   9.213   4.243   7.697 -0.4239  0.9535  0.3904
  335MOL0     C46147   9.529   4.171   7.427  0.1991 -1.9160 -0.2230
  335MOL0     C46148   9.561   4.205   7.290 -0.1854 -0.7043 -0.1959
  335MOL0     C46149   9.683   4.239   7.242 -0.1254 -0.0493 -0.5828
  335MOL0     C46150   9.798   4.231   7.326  0.9292  0.9588 -0.2837
  335MOL0     O46151   9.929   4.255   7.287  0.7944 -0.4225  0.1475
  335MOL0     C46152   9.956   4.302   7.155  0.8089  0.3830 -0.0959
  335MOL0     C46153   9.928   4.444   7.134 -0.1253  0.6363  0.7906
  335MOL0     C46154   9.995   4.497   7.008 -0.0553  0.5077 -0.1966
  335MOL0     C46155   9.987   4.650   7.013  0.1940  0.3791 -0.0950
  335MOL0     C46156   9.851   4.714   7.004 -0.4995  0.0589  0.3340
  335MOL0     C46157   9.753   4.774   6.990 -0.0117  0.2955 -0.1620
  335MOL0     C46158   9.766   4.197   7.464  0.5316  0.3039  1.0267
  335MOL0     C46159   9.638   4.185   7.518 -0.8579  0.0852 -0.3202
  335MOL0     C46160   9.632   4.164   7.667 -0.2561  0.6658  0.1878
  335MOL0     H46161   9.141   3.943   7.543 -0.4683 -0.7937  1.8494
  335MOL0     H46162   8.909   4.017   7.620 -1.7315 -0.9499  2.0293
  335MOL0     H46163   8.810   4.349   7.594 -1.2270  1.6779  0.0271
  335MOL0     H46164   8.839   4.415   7.754 -1.3901  0.7828 -1.5680
  335MOL0     H46165   8.603   4.334   7.823 -1.1534  2.7680 -0.3456
  335MOL0     H46166   8.588   4.418   7.671 -1.7756 -1.1099 -0.3839
  335MOL0     H46167   8.457   4.241   7.676 -0.8423  0.2466 -1.7954
  335MOL0     H46168   8.572   4.233   7.547 -0.4420  0.0559  0.1644
  335MOL0     H46169   8.666   4.081   7.768 -0.8881  0.6909  1.1339
  335MOL0     H46170   8.488   4.051   7.761  0.6932 -2.1321  0.9921
  335MOL0     H46171   8.660   4.008   7.517  1.2291  0.4104  1.2751
  335MOL0     H46172   8.489   3.967   7.542 -0.7528  0.6320  0.2820
  335MOL0     H46173   8.714   3.832   7.683 -0.5401 -2.1189 -1.5257
  335MOL0     H46174   8.541   3.821   7.740 -1.0775 -1.2345 -0.0688
  335MOL0     H46175   8.464   3.718   7.534  0.7076  2.8542 -1.1745
  335MOL0     H46176   8.579   3.618   7.628  0.5179 -1.3572 -1.0738
  335MOL0     H46177   8.591   3.678   7.361  1.5297 -1.9178  0.5228
  335MOL0     H46178   8.658   3.829   7.404 -1.2454 -0.4008 -1.1046
  335MOL0     H46179   8.738   3.435   7.440  0.9807 -0.6461  0.3496
  335MOL0     H46180   8.959   3.349   7.642  0.5229  0.8753  1.0477
  335MOL0     H46181   9.102   3.382   7.543 -0.0250 -1.6312  0.2101
  335MOL0     H46182   8.852   3.229   7.458 -0.2622 -1.7872  2.1934
  335MOL0     H46183   8.974   3.272   7.346 -1.0559 -2.9678 -0.9742
  335MOL0     H46184   9.149   3.145   7.484 -0.2462 -0.7164 -2.9521
  335MOL0     H46185   9.001   3.080   7.581  0.0731 -0.9207 -0.3609
  335MOL0     H46186   8.907   2.993   7.371 -0.4530  0.8306 -0.2543
  335MOL0     H46187   9.053   3.048   7.282 -1.4571 -2.4972 -1.1450
  335MOL0     H46188   9.245   2.699   7.452 -1.2967  2.3082  0.4101
  335MOL0     H46189   9.269   2.389   7.342 -2.1465  1.5293 -0.1742
  335MOL0     H46190   9.376   2.527   7.396 -1.3826  2.3360 -0.8773
  335MOL0     H46191   9.390   2.461   7.239  0.0775 -0.9294 -0.9544
  335MOL0     H46192   9.069   2.224   6.935 -0.0959 -0.8676  0.0771
  335MOL0     H46193   9.104   2.063   6.764  0.1962 -0.4377  1.4364
  335MOL0     H46194   9.300   1.949   6.475 -0.6569 -1.7283 -0.1372
  335MOL0     H46195   9.248   1.984   6.634 -0.2450  0.8987  0.4355
  335MOL0     H46196   9.097   1.822   6.432  1.4683  1.6078 -1.0507
  335MOL0     H46197   9.123   1.811   6.611 -1.4038  2.2487  1.0801
  335MOL0     H46198   8.948   2.024   6.484  1.4107 -1.8463 -1.7907
  335MOL0     H46199   8.951   1.946   6.650 -1.5568 -0.5425 -0.3040
  335MOL0     H46200   8.855   1.745   6.572 -3.1721  1.3203  0.6186
  335MOL0     H46201   8.887   1.776   6.411  3.6146  1.0034  0.5159
  335MOL0     H46202   8.696   1.952   6.577  0.5191 -0.7408  0.9534
  335MOL0     H46203   8.721   1.952   6.401  1.7221 -0.7610 -0.0214
  335MOL0     H46204   8.637   1.702   6.398 -1.3633  0.0616 -0.3016
  335MOL0     H46205   8.532   1.833   6.425  2.6655  0.0226 -3.6018
  335MOL0     H46206   8.544   1.773   6.677 -0.7007 -0.6490 -1.4100
  335MOL0     H46207   8.676   1.661   6.641  3.4591  0.3828 -3.7762
  335MOL0     H46208   8.521   1.508   6.531  1.8871 -1.0411  2.9368
  335MOL0     H46209   8.410   1.640   6.503  0.2256  1.6968  0.5465
  335MOL0     H46210   9.227   2.362   6.479 -0.2753  1.1722  0.0290
  335MOL0     H46211   9.203   2.532   6.661 -0.2570 -0.5053  0.4950
  335MOL0     H46212   9.017   2.691   7.018  1.0465 -4.2972  0.0239
  335MOL0     H46213   8.979   2.876   7.182 -1.2417 -1.4688 -2.1352
  335MOL0     H46214   9.075   4.379   7.782 -1.5146  0.3414 -1.3446
  335MOL0     H46215   9.303   4.303   7.703  1.2999 -1.5969  2.0049
  335MOL0     H46216   9.497   4.222   7.204  1.7040 -1.7003 -1.9056
  335MOL0     H46217   9.689   4.270   7.138 -0.5507  1.0011 -0.3033
  335MOL0     H46218  10.062   4.288   7.131  1.4088  2.9775  0.6941
  335MOL0     H46219   9.884   4.254   7.089  0.0901  0.8451  0.3297
  335MOL0     H46220   9.972   4.496   7.219 -1.2494  0.6479  1.3872
  335MOL0     H46221   9.821   4.466   7.133 -0.5117 -1.1359  0.5197
  335MOL0     H46222  10.099   4.468   6.994 -0.7256 -1.5979 -1.1900
  335MOL0     H46223   9.954   4.452   6.917  4.7739 -2.3206 -1.3064
  335MOL0     H46224  10.056   4.692   6.940 -0.7139  1.4096 -0.3736
  335MOL0     H46225  10.015   4.697   7.108  0.2939 -0.0983  0.1137
  335MOL0     H46226   9.656   4.814   6.970  0.1343  1.2684  0.9588
  335MOL0     H46227   9.843   4.190   7.540 -0.1772 -0.2049  1.7129
  335MOL0     H46228   9.724   4.149   7.723 -0.6868  0.9964  1.0105
  335MOL0     H46229   9.574   4.243   7.716 -0.5017  0.7316 -0.1942
  335MOL0     H46230   9.580   4.074   7.699 -1.7456  2.5456  3.6247
  336MOL0     O46231   0.617  10.675   9.934  0.3686  0.0305  0.6485
  336MOL0     C46232   0.618  10.772   9.865  0.8995  0.3513 -0.0136
  336MOL0     O46233   0.720  10.818   9.789 -0.2028 -0.3131  0.1752
  336MOL0     C46234   0.823  10.727   9.757 -0.6045 -0.1231 -0.2637
  336MOL0     C46235   0.791  10.594   9.730  0.1409  0.1316  0.0297
  336MOL0     C46236   0.896  10.512   9.683  0.1611 -0.3696 -0.0202
  336MOL0     C46237   1.019  10.577   9.645  0.0911 -0.4979 -0.6359
  336MOL0     O46238   1.104  10.515   9.560 -0.7131  0.3784 -0.4325
  336MOL0     C46239   1.069  10.422   9.459  1.5187 -1.0370 -0.2582
  336MOL0     C46240   1.173  10.446   9.348  0.1607 -0.1914  0.0146
  336MOL0     C46241   1.158  10.585   9.275 -0.7394  0.0006 -1.1110
  336MOL0     C46242   1.263  10.605   9.165 -0.2259  0.4326 -0.2835
  336MOL0     C46243   1.218  10.732   9.094 -0.2404  0.3712 -0.2029
  336MOL0     C46244   1.297  10.747   8.965 -0.3881 -0.7872 -0.0587
  336MOL0     C46245   1.446  10.786   8.982 -0.4411  0.4153 -0.0285
  336MOL0     C46246   1.466  10.912   9.049 -1.5867 -0.3209 -0.4582
  336MOL0     N46247   1.610  10.953   9.041 -1.1397 -0.5718 -0.9117
  336MOL0     C46248   1.721  10.890   9.082  0.1561 -0.4426 -0.4800
  336MOL0     C46249   1.822  10.973   9.054  1.0922 -0.2291 -0.7824
  336MOL0     C46250   1.978  10.957   9.072  0.3334  0.0218  0.3497
  336MOL0     C46251   2.026  10.822   9.125  0.8405 -0.8692 -0.4450
  336MOL0     C46252   2.053  10.713   9.031 -0.4734  0.1364  0.1358
  336MOL0     C46253   2.039  10.578   9.105 -1.1563 -0.8663  0.5412
  336MOL0     O46254   1.905  10.558   9.146  0.0081 -1.0852  0.2988
  336MOL0     C46255   1.802  10.507   9.068 -0.4177  0.3347  0.5995
  336MOL0     C46256   1.797  10.513   8.931  0.1537 -0.3727 -0.1795
  336MOL0     C46257   1.681  10.456   8.859  0.9990 -0.1205  0.5763
  336MOL0     C46258   1.683  10.472   8.712 -0.3375  0.7345 -0.8059
  336MOL0     C46259   1.571  10.403   8.919 -0.6046  1.0086  0.3809
  336MOL0     C46260   1.456  10.330   8.851 -0.1197 -0.9731 -0.2487
  336MOL0     O46261   1.328  10.385   8.871  0.0658 -0.1371  0.7163
  336MOL0     C46262   1.211  10.324   8.834 -0.5048 -0.8366 -0.0241
  336MOL0     C46263   1.096  10.349   8.908 -0.5950 -0.2800 -0.2327
  336MOL0     C46264   0.971  10.318   8.857  0.2066 -0.0301  0.1391
  336MOL0     C46265   0.957  10.237   8.746  0.1848  0.0606 -0.1337
  336MOL0     O46266   0.833  10.189   8.707 -0.3454  0.4489 -0.3674
  336MOL0     C46267   0.799  10.148   8.571 -0.7831  0.3891  0.2736
  336MOL0     C46268   0.734  10.008   8.551 -0.3348  0.0084 -0.0934
  336MOL0     C46269   0.585  10.027   8.591  0.5659  0.4778 -0.0917
  336MOL0     C46270   0.495   9.907   8.572 -0.5526  0.0542 -0.2963
  336MOL0     C46271   0.539   9.788   8.658  0.3104  0.7565 -1.0253
  336MOL0     C46272   0.551   9.818   8.809  0.3282 -0.4910 -0.3713
  336MOL0     C46273   0.566   9.686   8.888  0.2298  0.0589  0.8315
  336MOL0     C46274   0.554   9.699   9.037  0.4426  0.2906 -0.5651
  336MOL0    Cl46275   0.378   9.700   9.079  0.1961 -0.0616  0.4553
  336MOL0     C46276   1.077  10.190   8.686 -0.6117  1.1017  0.3939
  336MOL0     C46277   1.203  10.247   8.716  0.9139 -0.2975  0.1929
  336MOL0     O46278   1.481  10.225   8.802 -0.3493  0.6354  1.4881
  336MOL0     C46279   1.569  10.410   9.061 -0.3299 -0.2924  0.0736
  336MOL0     C46280   1.684  10.461   9.135 -0.1782 -0.1194 -0.3558
  336MOL0     N46281   1.776  11.091   9.014 -0.8385 -0.2142 -0.2609
  336MOL0     N46282   1.649  11.083   9.007  1.0839  0.8510  0.6312
  336MOL0     C46283   1.045  10.708   9.691 -0.1277  1.7981  0.6204
  336MOL0     C46284   0.951  10.778   9.751  0.3946  0.0464 -0.1064
  336MOL0     C46285   0.491  10.837   9.867 -0.5519 -0.6851 -0.0015
  336MOL0     C46286   0.485  10.971   9.808  0.4285 -0.1652 -1.1776
  336MOL0     C46287   0.373  11.043   9.807  0.6993 -0.9671  0.8014
  336MOL0     C46288   0.256  10.992   9.860  0.7610  0.8109 -0.7563
  336MOL0     O46289   0.149  11.069   9.870  1.7292 -0.7455  0.2673
  336MOL0     C46290   0.062  11.057   9.756  0.3455  0.5381  0.2369
  336MOL0     C46291  -0.052  11.160   9.774  0.2003 -0.8003  0.2544
  336MOL0     C46292  -0.155  11.166   9.661  0.5051 -0.4495 -1.1410
  336MOL0     C46293  -0.302  11.206   9.694 -0.3245 -0.1026 -0.0120
  336MOL0     C46294  -0.389  11.103   9.749 -0.4967 -0.2785  0.3994
  336MOL0     C46295  -0.468  11.039   9.819  0.0061 -0.4873  0.3066
  336MOL0     C46296   0.254  10.865   9.925  0.8352 -0.6504 -0.3788
  336MOL0     C46297   0.367  10.787   9.922  0.3650 -0.3772  0.7536
  336MOL0     C46298   0.351  10.647   9.974 -0.1180 -1.1498  0.1302
  336MOL0     H46299   0.686  10.567   9.719 -0.5124  2.8130 -0.9844
  336MOL0     H46300   0.871  10.411   9.652  0.1569 -0.3182 -0.1872
  336MOL0     H46301   0.970  10.440   9.416  1.2679  0.3095  0.7992
  336MOL0     H46302   1.072  10.326   9.512 -0.0418  0.3555  2.5533
  336MOL0     H46303   1.276  10.435   9.382  0.7639  0.7392 -1.4193
  336MOL0     H46304   1.154  10.358   9.285  0.9756 -1.6662  1.7277
  336MOL0     H46305   1.057  10.584   9.233 -0.9506  0.2805 -0.6039
  336MOL0     H46306   1.163  10.661   9.353  3.6345 -2.7362  1.6892
  336MOL0     H46307   1.362  10.636   9.198 -0.6112  1.6315 -0.2244
  336MOL0     H46308   1.268  10.514   9.104  1.2561  0.1580  0.2065
  336MOL0     H46309   1.227  10.822   9.155  0.9048  1.2677 -1.6311
  336MOL0     H46310   1.112  10.733   9.069 -0.0501 -0.7014 -1.1781
  336MOL0     H46311   1.270  10.658   8.908 -6.0535  0.7463 -0.3880
  336MOL0     H46312   1.250  10.827   8.907  1.4523 -0.7328 -1.6106
  336MOL0     H46313   1.474  10.796   8.877 -1.0697  1.7533 -0.0809
  336MOL0     H46314   1.516  10.715   9.027  1.7038  2.3837 -0.0495
  336MOL0     H46315   1.419  10.998   8.999  5.3512  5.3703  1.1303
  336MOL0     H46316   1.430  10.898   9.151 -3.5498 -1.7032 -1.2745
  336MOL0     H46317   1.724  10.796   9.135  2.6330  0.4557  1.1274
  336MOL0     H46318   2.008  11.039   9.138  3.6111 -0.0892 -0.8210
  336MOL0     H46319   2.024  10.969   8.974  0.9798 -2.2098  0.3155
  336MOL0     H46320   2.121  10.837   9.177  0.7371 -1.1412 -0.1706
  336MOL0     H46321   1.963  10.799   9.212 -0.3655  0.3875 -0.9647
  336MOL0     H46322   1.982  10.709   8.948 -1.2791  0.8100  0.7776
  336MOL0     H46323   2.149  10.731   8.982  0.2883 -1.2318  1.0399
  336MOL0     H46324   2.067  10.499   9.035 -1.3505 -1.7881  1.4860
  336MOL0     H46325   2.103  10.581   9.194 -0.7542 -0.8874  0.2551
  336MOL0     H46326   1.879  10.543   8.866  0.7873 -1.3764  0.1293
  336MOL0     H46327   1.623  10.559   8.683 -3.9385 -0.9073  0.9516
  336MOL0     H46328   1.647  10.380   8.665  0.2877 -1.3140  2.4110
  336MOL0     H46329   1.790  10.480   8.695  0.3209 -2.2525  1.1258
  336MOL0     H46330   1.092  10.393   9.007  0.2154 -2.0837  0.6531
  336MOL0     H46331   0.883  10.353   8.911 -1.2654 -1.8114 -0.9922
  336MOL0     H46332   0.734  10.221   8.520 -1.1424 -0.3190 -0.3000
  336MOL0     H46333   0.892  10.148   8.512  0.2222 -1.2016  1.7769
  336MOL0     H46334   0.741   9.966   8.451  2.4637  0.2782 -0.0766
  336MOL0     H46335   0.776   9.931   8.617  1.9485  0.1095 -1.3148
  336MOL0     H46336   0.548  10.102   8.520  0.0409 -2.2164 -2.9301
  336MOL0     H46337   0.569  10.059   8.694  2.5782 -1.6732  0.9845
  336MOL0     H46338   0.496   9.870   8.469  0.7388 -0.0962 -0.2582
  336MOL0     H46339   0.391   9.931   8.594 -1.0268 -1.6752 -0.5583
  336MOL0     H46340   0.460   9.713   8.650 -3.0053  3.9236 -0.6827
  336MOL0     H46341   0.629   9.735   8.625 -0.7112 -0.9072 -1.2558
  336MOL0     H46342   0.457   9.861   8.844 -0.9156 -4.0045  1.0560
  336MOL0     H46343   0.630   9.891   8.829  0.6899 -0.9718 -0.0277
  336MOL0     H46344   0.654   9.626   8.863 -1.0869 -1.8168  0.5165
  336MOL0     H46345   0.489   9.613   8.861  0.9878  0.2070 -2.0795
  336MOL0     H46346   0.580   9.792   9.089 -1.1161 -1.2315  3.3255
  336MOL0     H46347   0.609   9.625   9.095 -1.2148 -1.2038 -0.8319
  336MOL0     H46348   1.075  10.120   8.603  4.6297  0.1280  0.7835
  336MOL0     H46349   1.290  10.229   8.655 -0.5819 -0.4880 -2.0300
  336MOL0     H46350   1.479  10.371   9.107  1.2931 -2.0170  2.0307
  336MOL0     H46351   1.684  10.477   9.242 -0.4282 -0.0275 -0.3683
  336MOL0     H46352   1.140  10.754   9.665  0.3914  1.0467  1.1421
  336MOL0     H46353   0.966  10.883   9.773 -0.7098  0.5993 -1.8058
  336MOL0     H46354   0.569  11.011   9.753  0.8782 -1.1041 -1.2033
  336MOL0     H46355   0.387  11.142   9.765  1.2516 -1.1545  0.5296
  336MOL0     H46356   0.119  11.074   9.664 -1.3728  2.6052 -0.5299
  336MOL0     H46357   0.021  10.955   9.754 -0.0114  0.6738  0.6141
  336MOL0     H46358  -0.020  11.264   9.785 -1.6709 -0.0109 -1.1974
  336MOL0     H46359  -0.101  11.147   9.871 -0.6072 -2.6379 -0.3513
  336MOL0     H46360  -0.122  11.245   9.591 -2.8324  0.5686 -1.7227
  336MOL0     H46361  -0.167  11.072   9.607  0.7286 -0.6783 -0.7959
  336MOL0     H46362  -0.341  11.233   9.596  0.0475  0.6172  0.0384
  336MOL0     H46363  -0.295  11.290   9.763 -1.1955 -2.4429  3.1680
  336MOL0     H46364  -0.518  10.987   9.898  1.5943  0.7734  2.2238
  336MOL0     H46365   0.165  10.830   9.977 -1.2501  2.1241 -1.7934
  336MOL0     H46366   0.250  10.619  10.007 -0.5544  2.9921  3.0108
  336MOL0     H46367   0.378  10.577   9.895 -1.7198  0.7584 -2.2520
  336MOL0     H46368   0.424  10.633  10.054  3.4569 -0.5548 -2.7832
  337MOL0     O46369   4.490   9.077   4.142  0.2447  0.1293 -0.0687
  337MOL0     C46370   4.483   8.985   4.228 -0.5231 -0.6416  0.0005
  337MOL0     O46371   4.414   8.870   4.215 -0.4543 -0.2620  0.4617
  337MOL0     C46372   4.392   8.817   4.091 -0.4368  0.0129 -0.2018
  337MOL0     C46373   4.264   8.795   4.044 -0.5519 -0.5632 -0.2050
  337MOL0     C46374   4.243   8.769   3.901 -0.2926 -0.1385 -0.2616
  337MOL0     C46375   4.341   8.764   3.813 -0.1300 -0.5697  1.3022
  337MOL0     O46376   4.312   8.753   3.680  0.4111  0.3247 -0.4016
  337MOL0     C46377   4.413   8.720   3.589  0.5816  0.5554 -0.5066
  337MOL0     C46378   4.348   8.701   3.442 -0.5190  0.3051 -0.0372
  337MOL0     C46379   4.254   8.582   3.430  0.0301 -0.4937 -0.8777
  337MOL0     C46380   4.211   8.567   3.291  0.4536 -0.2795  0.1267
  337MOL0     C46381   4.071   8.491   3.263 -0.2921  0.0564  0.5539
  337MOL0     C46382   4.049   8.453   3.112  0.4080  0.0239  0.5274
  337MOL0     C46383   3.930   8.369   3.090  0.9975 -0.4870  0.4625
  337MOL0     C46384   3.796   8.441   3.055 -0.7718  0.7690  0.1684
  337MOL0     N46385   3.736   8.501   3.171 -0.7691 -0.2197 -0.2314
  337MOL0     C46386   3.746   8.636   3.196 -0.1719  0.8103  0.2271
  337MOL0     C46387   3.679   8.647   3.313 -0.0097  0.6019  0.5137
  337MOL0     C46388   3.667   8.772   3.401  0.4823  0.8220  0.5286
  337MOL0     C46389   3.768   8.763   3.510 -0.6698 -0.3528 -0.3802
  337MOL0     C46390   3.752   8.877   3.617 -0.0995  0.4788  0.0443
  337MOL0     C46391   3.888   8.903   3.682  0.7973  0.2189  0.2781
  337MOL0     O46392   3.876   8.980   3.809  0.0262  0.0953 -0.4651
  337MOL0     C46393   3.870   8.920   3.926 -0.2806  0.5940  1.2263
  337MOL0     C46394   3.919   8.988   4.036 -0.3085 -0.8634 -0.7080
  337MOL0     C46395   3.908   8.930   4.164  0.3890  0.5007 -0.0582
  337MOL0     C46396   3.972   9.009   4.277 -0.5113 -0.7096  0.3338
  337MOL0     C46397   3.872   8.797   4.182  0.0458  0.2946 -0.8074
  337MOL0     C46398   3.877   8.720   4.302 -0.4498  0.5148 -0.9981
  337MOL0     O46399   3.770   8.745   4.386  0.1993 -0.3169 -0.4599
  337MOL0     C46400   3.750   8.668   4.490 -0.0340 -0.1672  0.5807
  337MOL0     C46401   3.653   8.569   4.475  0.1832 -0.2954  0.7018
  337MOL0     C46402   3.621   8.490   4.591  0.1642  0.3972  0.1924
  337MOL0     C46403   3.695   8.502   4.713 -0.0900 -0.7200  0.0863
  337MOL0     O46404   3.669   8.410   4.815 -0.2067  0.4171  0.0417
  337MOL0     C46405   3.749   8.412   4.935  0.3175  0.9935  0.3420
  337MOL0     C46406   3.736   8.263   4.982 -0.3170 -0.1594  0.3910
  337MOL0     C46407   3.822   8.228   5.109 -0.2592  0.5237  0.6172
  337MOL0     C46408   3.973   8.236   5.087 -0.2266 -0.0497  0.5505
  337MOL0     C46409   4.063   8.295   5.200  0.4097  0.6208  0.1005
  337MOL0     C46410   4.065   8.444   5.211  0.3085 -0.9270 -0.5893
  337MOL0     C46411   4.162   8.486   5.324 -0.0573  0.6343  0.0928
  337MOL0     C46412   4.159   8.637   5.355  0.1318 -0.1640 -0.3999
  337MOL0    Cl46413   4.253   8.742   5.240  0.1294  0.0283 -0.0385
  337MOL0     C46414   3.788   8.601   4.718  0.1578  0.3257  0.2853
  337MOL0     C46415   3.820   8.678   4.611  0.6868 -0.5705  0.1215
  337MOL0     O46416   3.974   8.650   4.332 -0.7519 -0.7973 -0.2608
  337MOL0     C46417   3.834   8.724   4.064  0.5872 -0.1059  0.8384
  337MOL0     C46418   3.837   8.787   3.939  0.1316 -0.2185 -0.7942
  337MOL0     N46419   3.641   8.528   3.364  0.6914  0.0513  0.2809
  337MOL0     N46420   3.673   8.438   3.269  0.1739  0.1433 -0.0378
  337MOL0     C46421   4.473   8.779   3.862  0.0843 -0.0033 -0.3780
  337MOL0     C46422   4.501   8.797   4.001  0.1750 -0.1154 -0.0208
  337MOL0     C46423   4.550   8.994   4.361  0.1996  0.6125 -0.0338
  337MOL0     C46424   4.551   8.878   4.450 -0.5021  0.5467 -0.7192
  337MOL0     C46425   4.603   8.880   4.581  1.4989  0.4476 -0.3802
  337MOL0     C46426   4.654   9.001   4.633 -0.7523  0.0131  0.6076
  337MOL0     O46427   4.716   8.989   4.758 -0.4000 -0.5027  0.2466
  337MOL0     C46428   4.794   9.101   4.818  0.9168 -0.9875  0.5054
  337MOL0     C46429   4.704   9.203   4.889  0.3568 -0.2173  1.0630
  337MOL0     C46430   4.782   9.327   4.939  0.1129 -0.0321  0.1315
  337MOL0     C46431   4.683   9.441   4.973  0.4381 -0.2601 -0.1164
  337MOL0     C46432   4.749   9.534   5.071 -0.2641 -0.6634  0.1752
  337MOL0     C46433   4.786   9.612   5.161 -0.0907  0.3786  0.7984
  337MOL0     C46434   4.655   9.114   4.547  0.1863 -0.5090 -0.6141
  337MOL0     C46435   4.610   9.115   4.411  0.5263  0.2561 -0.5742
  337MOL0     C46436   4.621   9.245   4.342 -1.0733 -0.6770  0.6634
  337MOL0     H46437   4.181   8.820   4.109  0.8782  4.5651  0.0970
  337MOL0     H46438   4.142   8.751   3.865  0.8171 -1.5343 -2.9549
  337MOL0     H46439   4.468   8.631   3.622  2.0071  1.5274 -0.1512
  337MOL0     H46440   4.479   8.807   3.580  1.4559 -0.0099  0.3098
  337MOL0     H46441   4.278   8.781   3.418 -0.8297  0.1986  0.4827
  337MOL0     H46442   4.428   8.689   3.368 -2.9852  0.4763 -2.8836
  337MOL0     H46443   4.296   8.490   3.472 -1.2500  0.3563  2.5894
  337MOL0     H46444   4.168   8.609   3.493  0.4331  2.1956 -1.3779
  337MOL0     H46445   4.208   8.659   3.231 -2.3906 -3.0073 -4.4770
  337MOL0     H46446   4.284   8.500   3.246  1.3463  2.1138 -2.2866
  337MOL0     H46447   3.986   8.551   3.297 -2.1008 -1.1730 -1.5481
  337MOL0     H46448   4.073   8.403   3.328  2.0646 -0.3820 -0.0189
  337MOL0     H46449   4.035   8.540   3.047 -2.9667 -2.0776 -1.9309
  337MOL0     H46450   4.128   8.388   3.075  0.6737  1.3577 -1.4134
  337MOL0     H46451   3.902   8.299   3.169 -0.3868 -2.1924 -1.4388
  337MOL0     H46452   3.953   8.303   3.006  0.7760 -1.2043  0.9549
  337MOL0     H46453   3.825   8.513   2.978 -2.1763  0.4954 -0.6587
  337MOL0     H46454   3.729   8.369   3.008  3.1219 -0.4682 -4.2365
  337MOL0     H46455   3.783   8.723   3.142  1.9536  1.6500  2.7833
  337MOL0     H46456   3.566   8.786   3.441  0.5227  0.4609  0.7579
  337MOL0     H46457   3.704   8.854   3.338  1.6466  1.0865  1.5308
  337MOL0     H46458   3.749   8.674   3.570 -3.4644  1.1055  1.0585
  337MOL0     H46459   3.867   8.776   3.464 -1.4913  2.6000 -1.5627
  337MOL0     H46460   3.700   8.967   3.584 -5.5355 -1.5583  1.8162
  337MOL0     H46461   3.681   8.845   3.695  0.3199  3.4579  1.8213
  337MOL0     H46462   3.948   8.813   3.695  2.7034  1.7530  3.0867
  337MOL0     H46463   3.949   8.951   3.605 -0.0501 -0.2655 -0.7222
  337MOL0     H46464   3.964   9.086   4.030  3.0455 -2.0335  1.7546
  337MOL0     H46465   4.079   8.999   4.295 -0.7521 -1.8945  1.2887
  337MOL0     H46466   3.923   8.993   4.374  2.2928  2.4251  2.4888
  337MOL0     H46467   3.951   9.116   4.265 -1.4141 -1.0307 -1.1206
  337MOL0     H46468   3.605   8.545   4.381 -0.0920  1.2360  0.4225
  337MOL0     H46469   3.545   8.414   4.578 -2.5329  2.7124  1.4790
  337MOL0     H46470   3.854   8.433   4.915  1.4412 -5.5129 -3.2145
  337MOL0     H46471   3.704   8.466   5.020 -1.9184 -2.6423  1.7262
  337MOL0     H46472   3.630   8.243   5.000 -0.1025 -0.7988  0.9931
  337MOL0     H46473   3.774   8.201   4.900  0.1204  1.8183 -0.9903
  337MOL0     H46474   3.796   8.125   5.133  2.3223 -0.7067 -1.4530
  337MOL0     H46475   3.780   8.289   5.190 -1.2016 -0.7970  1.1606
  337MOL0     H46476   3.994   8.308   5.008 -3.0292  1.2410  0.8601
  337MOL0     H46477   4.005   8.134   5.067 -3.5852 -1.0983 -0.2250
  337MOL0     H46478   4.042   8.246   5.296 -0.5581 -0.3379 -0.5742
  337MOL0     H46479   4.167   8.266   5.182  1.0424  1.0793  2.6883
  337MOL0     H46480   3.964   8.479   5.235  0.7531  0.0114 -0.0372
  337MOL0     H46481   4.079   8.499   5.118 -1.2211  0.8694  0.1674
  337MOL0     H46482   4.262   8.465   5.284 -0.4277 -1.3317  0.1166
  337MOL0     H46483   4.144   8.426   5.413 -2.9018 -0.9896 -1.4199
  337MOL0     H46484   4.193   8.661   5.456  1.7707  0.2835 -1.0292
  337MOL0     H46485   4.058   8.680   5.358  1.7191  4.0244  3.3272
  337MOL0     H46486   3.849   8.602   4.808 -1.2883 -0.2673  1.3015
  337MOL0     H46487   3.890   8.758   4.634 -0.2829 -0.3416  2.6698
  337MOL0     H46488   3.804   8.620   4.063  1.3913 -0.3780 -1.8408
  337MOL0     H46489   3.810   8.730   3.851 -0.0754 -4.1898  1.5615
  337MOL0     H46490   4.557   8.767   3.796  0.2548 -1.3460  0.0519
  337MOL0     H46491   4.606   8.804   4.025 -0.0062  2.0009  0.3149
  337MOL0     H46492   4.508   8.790   4.402  0.8094  1.2965 -3.4856
  337MOL0     H46493   4.613   8.795   4.647  2.0625  0.2179 -0.7515
  337MOL0     H46494   4.865   9.059   4.890  1.6451 -1.0374 -0.2311
  337MOL0     H46495   4.853   9.155   4.743  0.9212  1.2916  2.0615
  337MOL0     H46496   4.649   9.164   4.976 -2.9702 -0.3806 -0.9671
  337MOL0     H46497   4.641   9.247   4.812  3.5886  0.1023 -1.6543
  337MOL0     H46498   4.855   9.305   5.017 -2.4943 -2.6439  2.0721
  337MOL0     H46499   4.835   9.346   4.845 -0.2667 -1.4457 -0.3914
  337MOL0     H46500   4.590   9.399   5.013 -1.2274  0.3287 -3.0800
  337MOL0     H46501   4.652   9.498   4.884 -2.5527  0.7689  1.4485
  337MOL0     H46502   4.816   9.656   5.254 -0.0125 -0.3104  1.1087
  337MOL0     H46503   4.694   9.210   4.582 -4.1841  0.5826  2.1157
  337MOL0     H46504   4.688   9.316   4.393  0.1884 -0.9044 -0.6213
  337MOL0     H46505   4.654   9.244   4.238 -1.2049  0.6549  0.5843
  337MOL0     H46506   4.521   9.288   4.331 -1.7508 -2.0150  1.3775
  338MOL0     O46507  10.923   9.276   5.144 -0.6546  0.3898  0.2173
  338MOL0     C46508  11.044   9.300   5.128 -0.2109  0.0602 -0.4882
  338MOL0     O46509  11.101   9.337   5.018  0.1052 -0.7052  0.0342
  338MOL0     C46510  11.057   9.326   4.880 -0.7010 -0.2332 -0.6196
  338MOL0     C46511  10.945   9.253   4.837  0.5325 -0.0681 -0.2033
  338MOL0     C46512  10.906   9.256   4.703  0.8981  0.0527  0.5256
  338MOL0     C46513  10.986   9.320   4.598  0.4888  0.4379  0.3676
  338MOL0     O46514  10.948   9.323   4.463 -0.3298 -0.4038  0.4873
  338MOL0     C46515  10.867   9.210   4.423  0.4959 -0.8883  0.2300
  338MOL0     C46516  10.886   9.159   4.274  0.4274 -0.1696 -0.3642
  338MOL0     C46517  11.028   9.100   4.254  0.0135 -0.1787  0.2954
  338MOL0     C46518  11.061   9.063   4.120  0.3290  0.2336 -0.1141
  338MOL0     C46519  11.073   9.183   4.019  0.2156  0.2760 -0.0651
  338MOL0     C46520  11.155   9.129   3.898 -0.0573 -0.0167  0.7161
  338MOL0     C46521  11.129   9.208   3.778  0.1409 -1.0048  0.2484
  338MOL0     C46522  11.002   9.186   3.699  0.4080 -0.7567 -1.1036
  338MOL0     N46523  10.979   9.283   3.592  0.5880  0.3925  0.1578
  338MOL0     C46524  10.938   9.259   3.464  0.3457  0.3241 -0.1641
  338MOL0     C46525  10.953   9.381   3.402 -0.7869 -0.0535  0.2636
  338MOL0     C46526  10.911   9.416   3.264 -0.1259 -0.2886  0.8249
  338MOL0     C46527  11.001   9.362   3.150 -0.6635  0.0554  0.6888
  338MOL0     C46528  11.143   9.414   3.164 -0.6421  0.0293  0.3069
  338MOL0     C46529  11.228   9.343   3.055  0.5099  0.0082 -0.9098
  338MOL0     O46530  11.247   9.208   3.083  0.6115  0.7155  0.1330
  338MOL0     C46531  11.305   9.131   2.992  0.6122 -0.6462  0.0410
  338MOL0     C46532  11.341   9.004   3.022 -0.3588 -0.6222 -0.2757
  338MOL0     C46533  11.395   8.918   2.933  0.3645  0.5272  0.0968
  338MOL0     C46534  11.415   8.782   2.979 -0.2510 -0.2810 -0.5739
  338MOL0     C46535  11.429   8.960   2.802  0.6956  0.5473 -0.3428
  338MOL0     C46536  11.470   8.864   2.689 -0.1336 -0.6612 -0.1599
  338MOL0     O46537  11.557   8.763   2.723  0.0439 -0.4781  0.5132
  338MOL0     C46538  11.602   8.669   2.626 -0.0108 -0.2353 -0.0638
  338MOL0     C46539  11.729   8.624   2.631  0.0202  0.5663 -0.6854
  338MOL0     C46540  11.769   8.526   2.540 -0.1354  0.1699 -0.4252
  338MOL0     C46541  11.683   8.480   2.442 -0.6635 -0.1241  0.7296
  338MOL0     O46542  11.710   8.385   2.348 -0.6371 -0.1699  0.4049
  338MOL0     C46543  11.829   8.318   2.354  0.6982  0.5301  0.4742
  338MOL0     C46544  11.813   8.188   2.269  0.3583  0.1348  0.0779
  338MOL0     C46545  11.796   8.230   2.129  0.4488  0.3231  0.0623
  338MOL0     C46546  11.836   8.118   2.033  0.5497 -0.3302 -0.1106
  338MOL0     C46547  11.731   8.013   2.024 -0.1818  0.0727 -0.3075
  338MOL0     C46548  11.799   7.887   1.967 -0.3619  0.4286  0.1459
  338MOL0     C46549  11.854   7.896   1.821 -1.0351 -0.3221  0.3624
  338MOL0     C46550  11.750   7.876   1.708 -0.8927 -0.2183  0.2844
  338MOL0    Cl46551  11.794   7.906   1.529 -0.2622  0.6051  0.0918
  338MOL0     C46552  11.557   8.527   2.448  0.4352 -0.8173  0.3303
  338MOL0     C46553  11.513   8.616   2.537 -0.4039 -0.4105 -0.1314
  338MOL0     O46554  11.428   8.887   2.574 -0.2654  0.4180 -0.2588
  338MOL0     C46555  11.396   9.091   2.772 -0.8886 -0.0128 -0.5209
  338MOL0     C46556  11.341   9.178   2.860 -0.5102  0.1603 -0.5502
  338MOL0     N46557  10.986   9.470   3.501  0.5722  0.5674  0.3385
  338MOL0     N46558  10.985   9.416   3.618  0.2519 -0.8360  0.1819
  338MOL0     C46559  11.107   9.380   4.647  1.0570 -1.3549  0.1762
  338MOL0     C46560  11.133   9.377   4.787  0.1718 -0.4386 -0.0051
  338MOL0     C46561  11.128   9.325   5.250  0.0322  0.7489  0.3763
  338MOL0     C46562  11.253   9.277   5.249  0.1316  0.1215 -0.4521
  338MOL0     C46563  11.342   9.286   5.351 -0.3834 -0.6796 -0.2562
  338MOL0     C46564  11.303   9.354   5.466  0.5390 -0.0106 -0.7353
  338MOL0     O46565  11.398   9.366   5.563 -0.1486  0.6704  0.2952
  338MOL0     C46566  11.376   9.430   5.686 -0.2228  0.4484 -0.1080
  338MOL0     C46567  11.329   9.331   5.795 -0.0468 -0.2061 -0.3397
  338MOL0     C46568  11.286   9.423   5.912  0.1925  0.0620  0.2803
  338MOL0     C46569  11.157   9.508   5.887 -0.8236  0.1959  0.1453
  338MOL0     C46570  11.036   9.428   5.880  0.1324 -0.1777  0.8050
  338MOL0     C46571  10.939   9.349   5.874 -0.1798 -1.2861 -0.7035
  338MOL0     C46572  11.171   9.393   5.479  0.2662 -0.3920 -0.2635
  338MOL0     C46573  11.083   9.379   5.371  0.3490 -1.4374 -0.1045
  338MOL0     C46574  10.951   9.455   5.392  0.0137  0.6545  0.7097
  338MOL0     H46575  10.880   9.200   4.906  1.6213 -2.0569 -0.6480
  338MOL0     H46576  10.824   9.190   4.677  0.3049  1.9453 -2.9477
  338MOL0     H46577  10.765   9.248   4.433  1.3618  1.1974  2.3157
  338MOL0     H46578  10.873   9.125   4.491  0.8517 -0.4163  0.8076
  338MOL0     H46579  10.817   9.082   4.239  3.0816 -1.7434 -2.5284
  338MOL0     H46580  10.876   9.249   4.213  0.6680 -0.3380 -0.6578
  338MOL0     H46581  11.097   9.173   4.297  0.4759 -0.5628  0.2249
  338MOL0     H46582  11.037   9.004   4.307  0.1135 -0.6344 -0.5228
  338MOL0     H46583  11.153   9.005   4.117  0.0497 -0.1807 -1.0602
  338MOL0     H46584  10.984   8.997   4.079  1.6720  0.6438 -3.6160
  338MOL0     H46585  11.136   9.254   4.074  1.7647 -1.5573  0.6664
  338MOL0     H46586  10.975   9.226   3.996  0.4863  1.1474  0.3640
  338MOL0     H46587  11.262   9.127   3.922 -0.4326 -3.3350  2.8060
  338MOL0     H46588  11.126   9.025   3.880  1.0080 -0.9827  3.7927
  338MOL0     H46589  11.205   9.182   3.703 -1.1321  0.6075 -1.7119
  338MOL0     H46590  11.145   9.313   3.803 -1.7063 -0.3454 -1.1203
  338MOL0     H46591  11.007   9.086   3.654  1.9957 -1.1278 -0.1488
  338MOL0     H46592  10.922   9.188   3.773  0.8395  2.5746 -0.5957
  338MOL0     H46593  10.927   9.157   3.429  2.9172 -0.5331  1.2511
  338MOL0     H46594  10.918   9.523   3.242  0.5627 -0.9862 -2.9918
  338MOL0     H46595  10.807   9.385   3.249 -0.5389  1.6472 -0.7114
  338MOL0     H46596  11.010   9.255   3.133 -0.4974 -0.0443  1.3465
  338MOL0     H46597  10.953   9.396   3.058  2.5547  0.3571 -0.9913
  338MOL0     H46598  11.142   9.520   3.137  2.6759 -0.7719 -4.0985
  338MOL0     H46599  11.177   9.395   3.266 -0.4353  0.0828  0.2496
  338MOL0     H46600  11.175   9.357   2.960 -1.4405  1.2093  0.2866
  338MOL0     H46601  11.328   9.385   3.048  0.1614  1.0564  0.0638
  338MOL0     H46602  11.320   8.965   3.121  2.5489 -1.3300  0.1383
  338MOL0     H46603  11.502   8.730   2.938  0.7123  2.3333 -2.0808
  338MOL0     H46604  11.318   8.739   2.953 -1.4676  0.9340  1.6431
  338MOL0     H46605  11.410   8.773   3.088  1.8932  0.3380 -0.3771
  338MOL0     H46606  11.791   8.662   2.711  0.5134 -3.4251  1.0416
  338MOL0     H46607  11.871   8.490   2.550 -0.0671  0.5870  0.4257
  338MOL0     H46608  11.907   8.387   2.319  1.2495 -0.2930  0.0422
  338MOL0     H46609  11.852   8.284   2.456 -0.5536  0.6558  0.8125
  338MOL0     H46610  11.902   8.125   2.277  0.4778  0.3838  0.7854
  338MOL0     H46611  11.739   8.115   2.299 -0.6191  0.0676 -2.2633
  338MOL0     H46612  11.872   8.305   2.103  1.3340 -1.6473 -3.7648
  338MOL0     H46613  11.693   8.265   2.119  0.0657 -0.2882  1.6249
  338MOL0     H46614  11.935   8.075   2.054  0.1213 -2.3215 -1.8597
  338MOL0     H46615  11.833   8.163   1.934 -1.0278  1.8195  0.8353
  338MOL0     H46616  11.694   7.992   2.125  2.3472  0.9312  0.8936
  338MOL0     H46617  11.644   8.047   1.967  0.5015 -0.1689 -1.5180
  338MOL0     H46618  11.718   7.813   1.973 -1.5244  1.3837 -2.3343
  338MOL0     H46619  11.883   7.876   2.036  0.1269  2.9907  0.0356
  338MOL0     H46620  11.927   7.817   1.801 -0.1320  0.1648  1.6066
  338MOL0     H46621  11.910   7.989   1.805 -0.7868 -0.6770 -1.0209
  338MOL0     H46622  11.666   7.943   1.728  0.4012  2.1611 -1.7121
  338MOL0     H46623  11.713   7.772   1.707  1.0672 -1.0158  2.5552
  338MOL0     H46624  11.489   8.486   2.374  0.7968 -0.1079 -0.4116
  338MOL0     H46625  11.411   8.650   2.554 -0.6938 -1.0683 -0.5445
  338MOL0     H46626  11.416   9.133   2.674 -0.9348  1.9827  0.2834
  338MOL0     H46627  11.324   9.279   2.823 -0.2793  0.2824 -0.3225
  338MOL0     H46628  11.174   9.444   4.592 -0.6455  1.8944  1.6435
  338MOL0     H46629  11.217   9.437   4.820  0.4107 -1.2178  0.8452
  338MOL0     H46630  11.292   9.250   5.152  1.7353  1.9437 -0.3574
  338MOL0     H46631  11.447   9.262   5.333  1.0715  3.9389  0.6714
  338MOL0     H46632  11.478   9.460   5.712  0.2847  0.2247 -1.7280
  338MOL0     H46633  11.313   9.517   5.663  0.0103  0.0620 -2.5124
  338MOL0     H46634  11.407   9.258   5.821  0.2910 -0.2353 -1.3773
  338MOL0     H46635  11.252   9.268   5.749  1.6237 -0.2115 -3.3538
  338MOL0     H46636  11.267   9.358   5.998  3.1678 -1.8116 -0.3086
  338MOL0     H46637  11.369   9.491   5.932  1.8652 -0.7024 -3.2455
  338MOL0     H46638  11.157   9.563   5.793 -0.3522  2.2780  1.2992
  338MOL0     H46639  11.152   9.581   5.968  1.1076  2.3170 -1.5307
  338MOL0     H46640  10.855   9.287   5.848  1.2664 -3.4182 -0.5928
  338MOL0     H46641  11.137   9.454   5.563 -1.8895 -1.4465 -0.2884
  338MOL0     H46642  10.942   9.511   5.485 -0.0497  0.5428  0.7708
  338MOL0     H46643  10.923   9.527   5.314 -3.2734  0.0103  1.1861
  338MOL0     H46644  10.877   9.376   5.404  0.8504 -0.2785 -0.0215
  339MOL0     O46645   7.027   4.242  10.583 -0.7441  0.0960  0.0642
  339MOL0     C46646   7.013   4.138  10.647  0.1002 -0.3116 -0.5095
  339MOL0     O46647   7.039   4.013  10.597 -0.4859  0.5834 -0.2296
  339MOL0     C46648   7.068   4.008  10.461  0.6508  0.2981  0.2074
  339MOL0     C46649   6.969   3.963  10.382  0.1155  0.3415 -0.2874
  339MOL0     C46650   6.987   3.933  10.254  0.5168  0.8317 -0.3096
  339MOL0     C46651   7.111   3.959  10.192 -1.0380  0.1935  0.4391
  339MOL0     O46652   7.109   3.934  10.058 -0.4548 -0.8033 -0.5786
  339MOL0     C46653   7.232   3.944   9.989 -0.6306  0.4276  0.7734
  339MOL0     C46654   7.218   3.888   9.852  0.4311 -0.3962 -0.0704
  339MOL0     C46655   7.214   3.736   9.865  0.2348 -0.1419  0.1374
  339MOL0     C46656   7.220   3.686   9.714  0.0852 -0.5446  0.2752
  339MOL0     C46657   7.075   3.654   9.662  0.2110  0.4870  0.6463
  339MOL0     C46658   7.078   3.570   9.534 -0.3165  0.4815 -0.2615
  339MOL0     C46659   7.172   3.616   9.420  0.7907  0.3750  0.0755
  339MOL0     C46660   7.148   3.532   9.290 -0.2970 -0.3944  0.4895
  339MOL0     N46661   7.229   3.412   9.287 -0.5328  0.8570  0.8289
  339MOL0     C46662   7.228   3.301   9.373 -0.2746 -0.5366  0.0518
  339MOL0     C46663   7.315   3.213   9.329 -0.0966 -0.7050  0.0548
  339MOL0     C46664   7.343   3.088   9.405 -0.0048 -0.0964  0.4107
  339MOL0     C46665   7.220   2.999   9.414 -0.0870  0.3407  0.2193
  339MOL0     C46666   7.162   2.976   9.277 -0.1025 -0.3499 -0.6244
  339MOL0     C46667   7.265   2.909   9.184  0.6346 -1.0522  0.4488
  339MOL0     O46668   7.327   2.787   9.232  0.2796  0.1565  0.2093
  339MOL0     C46669   7.409   2.718   9.140 -0.5546 -0.3741 -0.2619
  339MOL0     C46670   7.422   2.738   9.002  0.6282 -0.8779 -0.4535
  339MOL0     C46671   7.507   2.651   8.925 -0.8356  0.0691  0.2824
  339MOL0     C46672   7.524   2.697   8.785 -0.2699  0.8572  0.8123
  339MOL0     C46673   7.593   2.560   8.989  0.7825 -0.4191 -0.1009
  339MOL0     C46674   7.687   2.472   8.920 -0.1170  0.5756  0.8197
  339MOL0     O46675   7.772   2.384   8.995 -0.1487  0.2214  0.4230
  339MOL0     C46676   7.844   2.291   8.920  0.0715  0.1479  0.3601
  339MOL0     C46677   7.934   2.350   8.825 -0.6151  0.4082 -0.0471
  339MOL0     C46678   8.000   2.269   8.727 -0.6380  0.2290 -0.3391
  339MOL0     C46679   7.971   2.130   8.732 -0.0135 -0.2118  0.2469
  339MOL0     O46680   8.034   2.051   8.635  0.6368 -0.3072 -0.5375
  339MOL0     C46681   8.036   1.912   8.641 -0.0187  0.6270  0.2326
  339MOL0     C46682   8.074   1.850   8.508 -0.0557  0.6496 -1.3819
  339MOL0     C46683   8.068   1.702   8.516  0.0472  0.7429  0.0281
  339MOL0     C46684   7.931   1.641   8.503  0.4118 -1.2021  0.0050
  339MOL0     C46685   7.920   1.486   8.484  0.3223  0.4451 -0.3054
  339MOL0     C46686   7.784   1.446   8.444  0.5984  0.7750  0.3881
  339MOL0     C46687   7.766   1.302   8.408  0.9861  0.7705 -0.4494
  339MOL0     C46688   7.621   1.269   8.350  0.6026 -0.2371  0.0226
  339MOL0    Cl46689   7.489   1.305   8.457 -0.1299 -0.2076  0.3945
  339MOL0     C46690   7.885   2.071   8.833 -0.6372  0.1172 -0.4077
  339MOL0     C46691   7.813   2.153   8.922 -0.5684  0.1617  0.3331
  339MOL0     O46692   7.686   2.466   8.797  0.2090  0.0792 -0.1042
  339MOL0     C46693   7.590   2.561   9.131 -0.4076  0.1597 -0.0174
  339MOL0     C46694   7.485   2.619   9.209  0.5777 -1.4674 -0.1018
  339MOL0     N46695   7.371   3.253   9.214 -0.3668  0.5569  1.0242
  339MOL0     N46696   7.328   3.371   9.196  0.1423  0.2935 -0.0226
  339MOL0     C46697   7.214   3.999  10.279 -1.0675  0.3045  0.1983
  339MOL0     C46698   7.194   4.032  10.414 -0.0445 -0.2337 -0.9573
  339MOL0     C46699   6.952   4.138  10.783  0.1405 -0.0494  0.3385
  339MOL0     C46700   6.838   4.067  10.813 -0.1510  0.2311 -0.2572
  339MOL0     C46701   6.778   4.076  10.941  0.0533  0.6050  0.8948
  339MOL0     C46702   6.834   4.141  11.044  0.5249 -0.0793  0.1856
  339MOL0     O46703   6.768   4.131  11.171  0.1928  0.0373  0.4564
  339MOL0     C46704   6.769   4.245  11.246  0.1734  0.4029 -0.1307
  339MOL0     C46705   6.693   4.365  11.183  0.8706 -0.4024  0.8119
  339MOL0     C46706   6.666   4.486  11.276 -0.0059 -1.0600  0.0811
  339MOL0     C46707   6.779   4.579  11.296 -0.4398  0.5420  0.0222
  339MOL0     C46708   6.805   4.659  11.182  0.1747 -0.5911  0.0777
  339MOL0     C46709   6.838   4.721  11.081  0.6635 -0.1414  0.5449
  339MOL0     C46710   6.947   4.218  11.012  0.0669  0.2886  0.3626
  339MOL0     C46711   7.015   4.215  10.883  1.1666  1.1230 -0.1255
  339MOL0     C46712   7.131   4.297  10.867 -0.3228 -0.4747  0.2838
  339MOL0     H46713   6.878   3.935  10.434 -0.9991 -1.5215 -3.0070
  339MOL0     H46714   6.904   3.891  10.198 -0.9903  1.5051  1.3293
  339MOL0     H46715   7.308   3.881  10.037  2.9329  2.2834 -1.9349
  339MOL0     H46716   7.266   4.047   9.975  5.0691 -1.0915  0.8282
  339MOL0     H46717   7.132   3.922   9.795  0.2606 -1.1136 -0.2581
  339MOL0     H46718   7.304   3.927   9.795  0.4411  1.0105  0.8634
  339MOL0     H46719   7.294   3.698   9.929 -0.8560 -0.6746  1.2136
  339MOL0     H46720   7.119   3.709   9.911 -1.7978  0.6656 -3.2577
  339MOL0     H46721   7.257   3.774   9.661  1.4939  0.2244  2.4238
  339MOL0     H46722   7.283   3.603   9.682  0.1156 -0.7216  0.7925
  339MOL0     H46723   7.022   3.749   9.647 -1.2413  0.2046  3.2929
  339MOL0     H46724   7.027   3.602   9.745  1.7333  0.7153  1.7194
  339MOL0     H46725   7.103   3.466   9.560 -0.4371  0.3609 -0.6164
  339MOL0     H46726   6.975   3.563   9.499 -0.9452 -2.5656  1.7802
  339MOL0     H46727   7.278   3.620   9.449  0.4037  1.8384  1.4214
  339MOL0     H46728   7.155   3.723   9.409  1.0698  0.3574 -0.5966
  339MOL0     H46729   7.041   3.509   9.287 -0.2333 -0.6357 -0.0053
  339MOL0     H46730   7.170   3.590   9.200 -0.7744 -1.6628 -0.4902
  339MOL0     H46731   7.171   3.296   9.465 -2.1584 -1.4591 -1.1131
  339MOL0     H46732   7.369   3.114   9.508 -0.3269 -1.2292  0.7956
  339MOL0     H46733   7.429   3.028   9.373  3.3836  4.1187  0.8026
  339MOL0     H46734   7.252   2.899   9.446 -1.6181 -0.0156  0.7187
  339MOL0     H46735   7.136   3.029   9.477 -1.2368 -0.1787 -1.0146
  339MOL0     H46736   7.078   2.906   9.284  1.9514 -2.7914  2.5975
  339MOL0     H46737   7.130   3.069   9.229  2.3930 -0.1145 -1.9778
  339MOL0     H46738   7.212   2.891   9.090  0.4470  2.6948 -0.3311
  339MOL0     H46739   7.346   2.978   9.158  0.2076 -1.6276 -2.9401
  339MOL0     H46740   7.370   2.822   8.960 -2.6477 -0.7324  3.3212
  339MOL0     H46741   7.499   2.802   8.771 -0.0431  1.0098  1.5039
  339MOL0     H46742   7.450   2.641   8.727  1.8787 -3.1740  1.5744
  339MOL0     H46743   7.622   2.678   8.740 -1.7763 -2.6012 -1.5085
  339MOL0     H46744   7.958   2.455   8.809 -0.2219 -0.1910 -5.0703
  339MOL0     H46745   8.063   2.306   8.647  1.0768 -2.0988 -0.1901
  339MOL0     H46746   8.109   1.878   8.715 -0.6315 -0.2957  0.4296
  339MOL0     H46747   7.938   1.876   8.671  0.4445 -0.1761  0.8134
  339MOL0     H46748   7.999   1.895   8.442  0.2509 -0.2865 -2.4013
  339MOL0     H46749   8.174   1.891   8.493 -0.7097  2.4909 -0.9712
  339MOL0     H46750   8.105   1.650   8.605 -0.1897  0.4584 -0.0361
  339MOL0     H46751   8.131   1.664   8.436  0.4992  0.0601  0.6953
  339MOL0     H46752   7.884   1.672   8.409  0.2803  1.8702  0.9570
  339MOL0     H46753   7.866   1.670   8.587  1.5269  1.0684  0.1548
  339MOL0     H46754   7.985   1.460   8.400 -1.1182 -2.6551 -0.5806
  339MOL0     H46755   7.954   1.439   8.577  1.5330 -1.6406 -1.6935
  339MOL0     H46756   7.734   1.503   8.365  0.8290  2.3166  1.3113
  339MOL0     H46757   7.721   1.462   8.532 -1.8165  1.2142 -1.3045
  339MOL0     H46758   7.779   1.228   8.488  0.6915 -0.0020 -1.1023
  339MOL0     H46759   7.837   1.280   8.328  1.2187 -3.2858  0.6505
  339MOL0     H46760   7.616   1.168   8.309  2.0724 -0.3311  0.0203
  339MOL0     H46761   7.606   1.335   8.264  0.1376  1.7827  1.5865
  339MOL0     H46762   7.859   1.966   8.828 -1.9924  0.4455 -0.7347
  339MOL0     H46763   7.727   2.114   8.976 -1.5122  0.6223 -0.7769
  339MOL0     H46764   7.665   2.499   9.179 -2.0756 -2.1587 -0.2396
  339MOL0     H46765   7.467   2.600   9.314  0.1472  0.6207  0.2511
  339MOL0     H46766   7.315   4.025  10.249 -0.3404 -0.5397  1.8091
  339MOL0     H46767   7.271   4.054  10.487  0.4913 -2.0693 -0.9244
  339MOL0     H46768   6.784   4.012  10.737 -1.8449  1.9680 -0.3770
  339MOL0     H46769   6.691   4.013  10.959 -0.3942  1.4656  1.8799
  339MOL0     H46770   6.730   4.217  11.345 -1.1370 -1.9084 -1.2273
  339MOL0     H46771   6.873   4.277  11.253  0.1520  0.1753  1.9133
  339MOL0     H46772   6.599   4.334  11.136  2.3612  0.6454 -3.2567
  339MOL0     H46773   6.740   4.412  11.096 -1.4049 -0.7615 -0.7120
  339MOL0     H46774   6.581   4.538  11.230 -1.1174 -1.3857  1.6782
  339MOL0     H46775   6.636   4.449  11.374  0.0498  0.4125  0.6913
  339MOL0     H46776   6.865   4.517  11.324 -3.5409 -2.6746  3.5829
  339MOL0     H46777   6.772   4.658  11.372  1.5526  1.2465 -0.4474
  339MOL0     H46778   6.872   4.778  10.996  0.4620 -0.8645 -0.0298
  339MOL0     H46779   6.988   4.297  11.074  0.9340  1.4258 -1.5883
  339MOL0     H46780   7.119   4.364  10.781  1.3465 -0.2907  0.1514
  339MOL0     H46781   7.160   4.350  10.958 -1.1320 -1.0623  0.8981
  339MOL0     H46782   7.218   4.234  10.844  2.1244  2.6288  0.4503
  340MOL0     O46783   7.520   4.352   8.349  0.0655  0.1475 -0.4484
  340MOL0     C46784   7.449   4.452   8.351  0.4979  0.9050  0.0070
  340MOL0     O46785   7.389   4.509   8.465  0.2944  0.1376 -0.6690
  340MOL0     C46786   7.435   4.456   8.581  0.0505  0.0578  0.9528
  340MOL0     C46787   7.553   4.496   8.636  0.3007  1.2345 -0.5467
  340MOL0     C46788   7.587   4.431   8.756 -0.4450  0.0736 -0.0162
  340MOL0     C46789   7.515   4.336   8.823 -0.3288  0.0065 -0.8172
  340MOL0     O46790   7.543   4.280   8.945 -0.1600 -0.9375  0.0965
  340MOL0     C46791   7.688   4.280   8.967  0.1227 -0.0509  0.0583
  340MOL0     C46792   7.700   4.190   9.086  0.3546 -0.0911 -0.3604
  340MOL0     C46793   7.837   4.162   9.132  0.4648  0.6607 -0.5492
  340MOL0     C46794   7.903   4.055   9.045  0.5652  0.5518 -0.2119
  340MOL0     C46795   8.036   4.014   9.116 -0.0155  0.0407  0.9382
  340MOL0     C46796   8.128   3.929   9.028  0.3333 -0.4064 -0.2187
  340MOL0     C46797   8.185   4.003   8.920  0.1563  0.8471 -0.3962
  340MOL0     C46798   8.275   3.904   8.834 -0.7797 -0.2285 -0.4220
  340MOL0     N46799   8.388   3.844   8.906 -0.0555  0.6577  0.3918
  340MOL0     C46800   8.372   3.726   8.979  0.5167  0.2908  0.2213
  340MOL0     C46801   8.491   3.698   9.026 -1.3180  0.6101 -0.1186
  340MOL0     C46802   8.522   3.573   9.109  0.4695  0.9772  0.8537
  340MOL0     C46803   8.655   3.570   9.183 -0.5540  0.1376 -0.7616
  340MOL0     C46804   8.665   3.694   9.266 -0.2750  0.0954 -0.5660
  340MOL0     C46805   8.817   3.717   9.312  0.0175 -0.8989 -0.6819
  340MOL0     O46806   8.848   3.849   9.367 -0.3923 -0.2258 -0.4188
  340MOL0     C46807   8.837   3.960   9.288  0.1682 -0.1427  1.0104
  340MOL0     C46808   8.815   3.967   9.152  0.1070  0.4343 -0.0149
  340MOL0     C46809   8.805   4.093   9.088 -0.6055  0.7353  0.0872
  340MOL0     C46810   8.775   4.085   8.937 -0.4438 -0.0416 -0.6381
  340MOL0     C46811   8.837   4.212   9.159  0.2860 -0.2787 -0.5033
  340MOL0     C46812   8.855   4.347   9.086 -0.5466 -0.0412 -0.1292
  340MOL0     O46813   8.913   4.441   9.164  0.2547  0.5840  0.2509
  340MOL0     C46814   8.964   4.551   9.101 -0.9338 -1.1054  0.0006
  340MOL0     C46815   9.067   4.555   8.997 -0.1231  1.3037 -0.2605
  340MOL0     C46816   9.113   4.674   8.950  0.8498 -0.6923  0.7383
  340MOL0     C46817   9.068   4.798   8.998  0.2761  0.5646  0.0661
  340MOL0     O46818   9.115   4.925   8.960 -0.1750 -0.2100  0.5411
  340MOL0     C46819   9.248   4.910   8.924 -0.0640 -0.2033 -0.2373
  340MOL0     C46820   9.319   5.045   8.894  0.9289  1.0073  0.6430
  340MOL0     C46821   9.299   5.153   9.002  0.9876 -0.0864 -0.0959
  340MOL0     C46822   9.410   5.260   9.005 -0.0664  0.0185  0.5143
  340MOL0     C46823   9.536   5.205   9.066 -0.1074  0.0218  0.1111
  340MOL0     C46824   9.651   5.309   9.092  1.2088 -0.2848 -0.4742
  340MOL0     C46825   9.768   5.255   9.165  0.4719  0.5827  0.4549
  340MOL0     C46826   9.839   5.158   9.076  0.3242 -0.3136  0.3513
  340MOL0    Cl46827  10.016   5.171   9.069 -0.0794 -0.2427  0.8936
  340MOL0     C46828   8.975   4.791   9.101  0.0484  0.6194 -0.5320
  340MOL0     C46829   8.926   4.673   9.151  0.5867 -0.3503  0.4870
  340MOL0     O46830   8.813   4.363   8.972  0.5986 -0.8198 -0.5985
  340MOL0     C46831   8.878   4.206   9.289 -0.0957 -0.2840 -0.2072
  340MOL0     C46832   8.858   4.081   9.353 -1.6938 -0.4521 -0.3761
  340MOL0     N46833   8.578   3.793   8.968 -0.1332 -0.1513 -0.7306
  340MOL0     N46834   8.518   3.888   8.898  0.1883  0.3262 -0.1185
  340MOL0     C46835   7.392   4.299   8.762 -0.0448  0.5282  0.0408
  340MOL0     C46836   7.348   4.358   8.648 -0.3835 -0.4315  0.3502
  340MOL0     C46837   7.438   4.531   8.230 -0.7291  0.9939  0.1692
  340MOL0     C46838   7.442   4.671   8.246 -0.6741 -0.6014 -0.1142
  340MOL0     C46839   7.449   4.752   8.143  1.2554  0.0269 -0.9913
  340MOL0     C46840   7.432   4.702   8.008  0.4022 -1.1852  0.0906
  340MOL0     O46841   7.453   4.792   7.909 -0.4403  0.0425  0.2684
  340MOL0     C46842   7.483   4.752   7.768  0.3703 -0.2113 -0.6732
  340MOL0     C46843   7.625   4.690   7.750  0.5943 -0.0958 -0.1448
  340MOL0     C46844   7.728   4.750   7.839  0.3803  0.4184  0.6766
  340MOL0     C46845   7.863   4.706   7.803  0.4111 -0.3652  0.0064
  340MOL0     C46846   7.962   4.754   7.911  0.5682  0.4997 -0.9769
  340MOL0     C46847   8.031   4.769   8.006  0.2142  0.5559  0.0851
  340MOL0     C46848   7.419   4.566   7.986  0.4353  0.2211 -0.1686
  340MOL0     C46849   7.429   4.479   8.092 -0.7863  0.1872 -0.1287
  340MOL0     C46850   7.452   4.330   8.080 -0.0309  0.4193  0.0494
  340MOL0     H46851   7.620   4.566   8.586  0.8623 -0.5238 -2.3861
  340MOL0     H46852   7.677   4.467   8.805 -1.0103 -0.9473  1.8694
  340MOL0     H46853   7.728   4.380   8.985 -1.2014  1.0343 -2.4562
  340MOL0     H46854   7.744   4.247   8.879  0.1979  1.4198 -0.4685
  340MOL0     H46855   7.654   4.236   9.175  0.2197 -0.1230 -0.4140
  340MOL0     H46856   7.637   4.103   9.067 -1.3664  0.6011  1.6981
  340MOL0     H46857   7.890   4.258   9.127  0.3825  0.8309  1.2530
  340MOL0     H46858   7.848   4.129   9.236  1.2320 -1.9250 -1.3873
  340MOL0     H46859   7.828   3.975   9.043 -1.7232  2.2845  4.0802
  340MOL0     H46860   7.918   4.093   8.944 -2.6394  0.4569 -0.8088
  340MOL0     H46861   7.999   3.951   9.198 -3.9981 -0.5489 -1.1112
  340MOL0     H46862   8.098   4.097   9.150  1.4504 -0.6767  0.1411
  340MOL0     H46863   8.196   3.899   9.108 -1.3050  1.1528  1.8875
  340MOL0     H46864   8.078   3.846   8.978  4.0359 -1.6133 -2.3016
  340MOL0     H46865   8.260   4.080   8.943  0.2625  0.3127  1.1428
  340MOL0     H46866   8.117   4.053   8.851 -0.3477 -1.6644 -1.8275
  340MOL0     H46867   8.211   3.826   8.793  0.3249 -2.2533  1.5135
  340MOL0     H46868   8.321   3.951   8.747  1.8904 -1.3642  0.2800
  340MOL0     H46869   8.275   3.678   8.988  0.8112 -0.5515 -0.8109
  340MOL0     H46870   8.512   3.477   9.056  2.5107  1.2701 -0.1454
  340MOL0     H46871   8.441   3.566   9.182  1.5355 -2.0112  1.8991
  340MOL0     H46872   8.664   3.477   9.240  2.9417 -0.1517 -1.6063
  340MOL0     H46873   8.727   3.580   9.102  1.5822  0.0455  1.0439
  340MOL0     H46874   8.629   3.786   9.219  0.5296  1.2136  0.9051
  340MOL0     H46875   8.605   3.678   9.356  1.4496 -1.3920  0.3915
  340MOL0     H46876   8.855   3.646   9.386  2.2127  1.5780  0.7131
  340MOL0     H46877   8.886   3.712   9.227 -0.0715  0.4884 -0.8611
  340MOL0     H46878   8.789   3.880   9.093 -2.6075  1.9091 -1.1833
  340MOL0     H46879   8.865   4.132   8.896  0.1997 -0.5700  0.1287
  340MOL0     H46880   8.688   4.142   8.904  0.8257  2.0399 -0.5969
  340MOL0     H46881   8.772   3.982   8.900  0.0275 -0.0033 -0.7950
  340MOL0     H46882   9.113   4.463   8.962  0.1451  1.5336 -0.5249
  340MOL0     H46883   9.191   4.676   8.873  1.0111  2.5627  0.8416
  340MOL0     H46884   9.298   4.860   9.007 -1.3019  0.9193  1.2471
  340MOL0     H46885   9.262   4.854   8.831 -3.0014 -3.1278  0.8866
  340MOL0     H46886   9.419   5.004   8.881 -0.2232 -2.5767  2.0719
  340MOL0     H46887   9.277   5.086   8.802 -1.0256  2.6524  2.1651
  340MOL0     H46888   9.310   5.104   9.099  2.1031 -1.1101 -0.7112
  340MOL0     H46889   9.198   5.192   8.985  1.3399  0.6821 -0.4710
  340MOL0     H46890   9.382   5.348   9.063  3.0198  0.3253  1.7852
  340MOL0     H46891   9.442   5.308   8.913  1.0096  1.4901  1.6127
  340MOL0     H46892   9.513   5.164   9.165  1.7967  0.2025  0.6700
  340MOL0     H46893   9.566   5.119   9.007 -2.6211 -1.2816  0.5873
  340MOL0     H46894   9.604   5.393   9.144 -2.1001 -1.3546 -1.4465
  340MOL0     H46895   9.696   5.344   8.999  2.5879 -2.6606 -0.7882
  340MOL0     H46896   9.739   5.215   9.263 -1.7140  0.7062 -0.0920
  340MOL0     H46897   9.846   5.327   9.192  0.2351  1.4985 -1.1730
  340MOL0     H46898   9.805   5.170   8.973 -0.1925  1.9888  0.7368
  340MOL0     H46899   9.822   5.053   9.105  0.4343 -1.3523 -2.9490
  340MOL0     H46900   8.949   4.883   9.152  0.8879  1.7284 -2.0079
  340MOL0     H46901   8.846   4.671   9.224 -0.8722 -1.6040 -1.0706
  340MOL0     H46902   8.901   4.297   9.342 -3.9256  1.2143 -0.7669
  340MOL0     H46903   8.889   4.068   9.456 -1.3900 -1.2697 -0.5679
  340MOL0     H46904   7.324   4.234   8.816 -0.6571  1.6997  0.7364
  340MOL0     H46905   7.244   4.336   8.628 -0.2343 -0.1727 -0.7376
  340MOL0     H46906   7.423   4.706   8.346 -2.4221 -1.6195 -0.0631
  340MOL0     H46907   7.448   4.858   8.166 -2.6226 -0.2835  1.1684
  340MOL0     H46908   7.404   4.700   7.714 -0.2588 -0.6379  0.6185
  340MOL0     H46909   7.486   4.845   7.712 -2.5130  2.2207  2.7320
  340MOL0     H46910   7.658   4.711   7.648 -2.1236 -2.8004 -1.7312
  340MOL0     H46911   7.620   4.581   7.763  2.8450 -0.4275 -1.3915
  340MOL0     H46912   7.728   4.860   7.841  1.2999  0.6725 -3.6029
  340MOL0     H46913   7.704   4.714   7.940 -1.4325 -1.4266 -0.3422
  340MOL0     H46914   7.886   4.746   7.703  0.1860  1.1639  0.5372
  340MOL0     H46915   7.868   4.597   7.805  1.4145 -0.3838 -1.4536
  340MOL0     H46916   8.093   4.775   8.094 -0.9110 -1.0381  1.0361
  340MOL0     H46917   7.403   4.535   7.883  0.9071  1.9049 -0.7791
  340MOL0     H46918   7.406   4.261   8.151 -2.3945  1.1279 -0.7114
  340MOL0     H46919   7.392   4.299   7.994 -1.4220 -2.2760  1.8705
  340MOL0     H46920   7.558   4.302   8.083  0.1336  1.0072 -0.1299
  341MOL0     O46921   5.218   9.081   9.910  1.0617 -0.3397 -0.0083
  341MOL0     C46922   5.337   9.058   9.940  0.4019  0.5617  0.7308
  341MOL0     O46923   5.381   8.998  10.057  0.5437  0.0030 -0.0747
  341MOL0     C46924   5.293   8.939  10.145 -0.2892  0.5069  0.8489
  341MOL0     C46925   5.319   8.958  10.280  0.2473  0.5928 -1.2798
  341MOL0     C46926   5.233   8.920  10.382  0.1968 -0.6517  0.0893
  341MOL0     C46927   5.121   8.854  10.349  1.1156  1.4187 -0.2526
  341MOL0     O46928   5.045   8.803  10.455  0.0626  0.1455  0.1298
  341MOL0     C46929   4.962   8.694  10.420 -0.5437  1.0565 -0.1827
  341MOL0     C46930   4.911   8.624  10.549 -0.0874  0.5620  0.1725
  341MOL0     C46931   4.953   8.475  10.546  0.7201 -0.1053  0.5068
  341MOL0     C46932   4.937   8.427  10.696 -0.3891 -0.1992  0.0039
  341MOL0     C46933   4.962   8.282  10.723  0.3778 -0.8263 -0.6558
  341MOL0     C46934   5.098   8.224  10.684  0.3270  0.2174 -0.3067
  341MOL0     C46935   5.131   8.096  10.767  1.1244 -0.4930  0.6249
  341MOL0     C46936   5.196   8.122  10.905  0.8474 -0.2181 -0.8885
  341MOL0     N46937   5.297   8.233  10.896 -0.0283  0.4864  1.0400
  341MOL0     C46938   5.284   8.370  10.920 -0.3424 -0.1361  0.0888
  341MOL0     C46939   5.392   8.436  10.878 -0.0783 -0.2748  0.3261
  341MOL0     C46940   5.422   8.578  10.870 -0.2327  0.1682 -1.1968
  341MOL0     C46941   5.404   8.643  10.734 -0.4737 -1.3797  0.5155
  341MOL0     C46942   5.528   8.628  10.647 -0.5151  0.6872 -0.4189
  341MOL0     C46943   5.647   8.715  10.672 -0.9611  0.6874  0.1141
  341MOL0     O46944   5.595   8.846  10.704  0.1667  0.1423  0.4710
  341MOL0     C46945   5.681   8.948  10.728 -0.0068 -0.3830 -0.6384
  341MOL0     C46946   5.825   8.945  10.727 -0.6868  0.3498 -0.0848
  341MOL0     C46947   5.912   9.049  10.770  0.1529 -0.4124 -1.0116
  341MOL0     C46948   6.057   9.036  10.796 -0.8538 -0.7189 -0.1425
  341MOL0     C46949   5.841   9.168  10.813  0.3188  0.3306  0.5719
  341MOL0     C46950   5.895   9.309  10.828  0.0516  0.6088  0.3230
  341MOL0     O46951   6.027   9.309  10.868 -0.6359 -0.1034  0.0172
  341MOL0     C46952   6.069   9.434  10.909 -0.0312  0.6655  0.3000
  341MOL0     C46953   6.173   9.496  10.836 -0.3701  0.7946 -1.4811
  341MOL0     C46954   6.241   9.610  10.887 -0.1951  0.5072  0.1499
  341MOL0     C46955   6.198   9.676  11.003  0.6520  0.8644 -0.1933
  341MOL0     O46956   6.243   9.785  11.064 -0.5145  0.1100 -0.1736
  341MOL0     C46957   6.366   9.851  11.031 -0.0540  0.6502 -0.6522
  341MOL0     C46958   6.460   9.824  11.149  0.3640 -0.2665 -0.6963
  341MOL0     C46959   6.587   9.893  11.138 -0.5698  0.2705 -0.0345
  341MOL0     C46960   6.677   9.858  11.263 -0.5285  0.7305 -0.7443
  341MOL0     C46961   6.688   9.704  11.302  0.2888  0.3757  0.5884
  341MOL0     C46962   6.809   9.671  11.383  0.4263 -0.5578 -0.7233
  341MOL0     C46963   6.803   9.721  11.521 -0.6084 -0.2565 -0.3019
  341MOL0     C46964   6.682   9.653  11.586 -0.4135 -1.4286  0.4115
  341MOL0    Cl46965   6.690   9.667  11.761 -0.7075  0.3893  0.0273
  341MOL0     C46966   6.084   9.613  11.066 -0.7172 -1.1345 -0.5306
  341MOL0     C46967   6.025   9.495  11.025  0.1018  0.2712 -0.7515
  341MOL0     O46968   5.823   9.406  10.820  0.1747  0.7176 -0.6527
  341MOL0     C46969   5.701   9.167  10.806  0.0857  0.3682  0.5930
  341MOL0     C46970   5.619   9.062  10.764 -0.2593 -0.7165  0.6841
  341MOL0     N46971   5.473   8.333  10.838  0.3500 -0.6285 -0.4425
  341MOL0     N46972   5.419   8.220  10.832  0.6835  0.3639 -0.6240
  341MOL0     C46973   5.091   8.820  10.213 -0.1546  0.6949 -0.1468
  341MOL0     C46974   5.176   8.861  10.115 -0.4664 -0.5983  0.3617
  341MOL0     C46975   5.433   9.087   9.836  0.4254  0.4787 -0.4160
  341MOL0     C46976   5.388   9.089   9.700  0.4841  1.1769 -0.2410
  341MOL0     C46977   5.478   9.114   9.602 -0.2504 -0.0919  0.3892
  341MOL0     C46978   5.609   9.133   9.617 -0.4058 -0.0179  0.1391
  341MOL0     O46979   5.700   9.151   9.513 -0.1680  0.0566  0.3437
  341MOL0     C46980   5.825   9.080   9.533 -1.0460  0.3243  0.1397
  341MOL0     C46981   5.814   8.930   9.544 -0.3754 -0.1584 -0.1582
  341MOL0     C46982   5.921   8.873   9.635 -0.4932  0.1506 -0.8880
  341MOL0     C46983   5.892   8.897   9.789 -0.5316  0.2305 -0.3981
  341MOL0     C46984   5.982   8.823   9.869  0.3240  0.6352 -0.9242
  341MOL0     C46985   6.045   8.744   9.941 -0.9694 -0.2928  0.0282
  341MOL0     C46986   5.654   9.150   9.747 -0.1329  0.4587  0.3784
  341MOL0     C46987   5.566   9.124   9.855  0.5143 -0.7178  0.5236
  341MOL0     C46988   5.627   9.144   9.995  0.1437 -0.1046 -0.2264
  341MOL0     H46989   5.400   9.026  10.309 -2.1698  2.0290  3.2359
  341MOL0     H46990   5.252   8.939  10.487  2.4153 -0.7480 -0.2556
  341MOL0     H46991   5.013   8.623  10.355 -0.6470 -1.3896  2.2642
  341MOL0     H46992   4.874   8.739  10.372 -0.7049  1.9766  0.9333
  341MOL0     H46993   4.945   8.671  10.642  2.4892 -1.2946  0.2454
  341MOL0     H46994   4.803   8.639  10.557 -0.5224 -1.4161 -1.3353
  341MOL0     H46995   4.892   8.422  10.473  4.4346 -1.3241 -2.0411
  341MOL0     H46996   5.060   8.477  10.522  0.7779 -0.4319  0.7387
  341MOL0     H46997   4.998   8.483  10.768 -0.4435 -0.8125  0.5291
  341MOL0     H46998   4.831   8.432  10.723 -0.5216  0.3481 -0.5958
  341MOL0     H46999   4.878   8.228  10.680 -0.5178  1.9415 -2.6907
  341MOL0     H47000   4.956   8.270  10.832  5.2091  0.2059 -0.0266
  341MOL0     H47001   5.098   8.199  10.578 -0.1445  1.5869 -0.6545
  341MOL0     H47002   5.174   8.304  10.687  0.9002 -0.3292  2.0428
  341MOL0     H47003   5.206   8.036  10.715 -1.1585 -1.6732 -1.4930
  341MOL0     H47004   5.045   8.029  10.774  0.5165  0.2390  0.3599
  341MOL0     H47005   5.111   8.160  10.963 -0.4314 -1.3372 -1.9490
  341MOL0     H47006   5.238   8.032  10.951 -1.0638 -0.5615  0.2877
  341MOL0     H47007   5.192   8.425  10.942 -1.0100 -0.2871 -2.1267
  341MOL0     H47008   5.524   8.592  10.905 -0.0412  0.8179 -1.9544
  341MOL0     H47009   5.360   8.621  10.949  0.3930 -0.4731 -0.3446
  341MOL0     H47010   5.320   8.592  10.686 -0.6591 -0.6085  0.0061
  341MOL0     H47011   5.389   8.751  10.735  2.3941 -0.8777 -0.2731
  341MOL0     H47012   5.569   8.527  10.659 -1.2617  0.5667  1.6212
  341MOL0     H47013   5.500   8.642  10.542 -3.5713 -0.7528  0.0817
  341MOL0     H47014   5.704   8.675  10.757 -2.3905 -0.0835  0.7557
  341MOL0     H47015   5.705   8.710  10.579  0.3569  2.5817  0.7711
  341MOL0     H47016   5.871   8.852  10.698 -1.6422 -0.3827  0.6910
  341MOL0     H47017   6.099   8.942  10.761 -0.6190  0.6195 -3.8832
  341MOL0     H47018   6.069   9.045  10.904 -0.7616  0.3636 -0.2274
  341MOL0     H47019   6.115   9.120  10.757 -1.5165  1.4511  3.1416
  341MOL0     H47020   6.195   9.461  10.735 -0.8510  1.2669 -1.7580
  341MOL0     H47021   6.329   9.649  10.837 -0.4610 -0.4981 -1.1578
  341MOL0     H47022   6.397   9.822  10.930  0.5549 -3.8816  0.6042
  341MOL0     H47023   6.348   9.958  11.022 -0.9072  0.4196 -1.9662
  341MOL0     H47024   6.409   9.846  11.243  3.7865  0.0958  1.2171
  341MOL0     H47025   6.481   9.717  11.137  1.9527  0.3327 -4.9143
  341MOL0     H47026   6.563   9.999  11.133 -1.2541  0.2072  1.3176
  341MOL0     H47027   6.651   9.861  11.055  3.6579 -0.0336  3.0060
  341MOL0     H47028   6.625   9.914  11.341 -0.1666 -0.3492  0.3113
  341MOL0     H47029   6.778   9.896  11.249 -0.2053  0.0595 -0.2912
  341MOL0     H47030   6.593   9.682  11.350 -0.2582  0.5176 -0.3969
  341MOL0     H47031   6.696   9.654  11.205  0.9619  1.0469  0.2819
  341MOL0     H47032   6.902   9.701  11.335 -1.2530  0.9148 -3.3241
  341MOL0     H47033   6.815   9.561  11.381  0.9313 -0.5304 -0.6851
  341MOL0     H47034   6.787   9.828  11.539  2.5185  0.3730 -0.7716
  341MOL0     H47035   6.897   9.687  11.564  0.0770  0.3496 -1.2857
  341MOL0     H47036   6.687   9.548  11.558 -1.7674 -1.3604 -0.1789
  341MOL0     H47037   6.592   9.705  11.551  0.7572 -0.1035 -0.7346
  341MOL0     H47038   6.033   9.657  11.151 -0.5235 -1.5381 -0.1987
  341MOL0     H47039   5.939   9.456  11.078  0.6518  0.9726  0.7228
  341MOL0     H47040   5.640   9.252  10.836 -0.8926 -1.2765  3.5694
  341MOL0     H47041   5.511   9.064  10.769 -0.3561 -2.6568  6.0316
  341MOL0     H47042   4.998   8.774  10.182 -0.7953  0.2182  2.2609
  341MOL0     H47043   5.155   8.840  10.011  2.6107 -0.5770 -0.3701
  341MOL0     H47044   5.282   9.068   9.687 -0.8941  4.9912  3.0393
  341MOL0     H47045   5.455   9.117   9.496 -1.1066 -1.0100  0.5409
  341MOL0     H47046   5.890   9.111   9.451 -1.4232 -1.1837 -0.7723
  341MOL0     H47047   5.882   9.106   9.623 -0.8564  0.2955  0.0279
  341MOL0     H47048   5.825   8.882   9.447 -0.1329 -0.4662  0.0167
  341MOL0     H47049   5.718   8.896   9.584  0.4157 -1.3171  0.8482
  341MOL0     H47050   5.918   8.765   9.620 -0.5375  0.1455 -0.8413
  341MOL0     H47051   6.023   8.911   9.618  0.6739 -2.2825  0.1471
  341MOL0     H47052   5.796   8.867   9.832 -0.0102 -2.0628 -0.7136
  341MOL0     H47053   5.915   9.002   9.810  2.7276  0.0088 -2.2774
  341MOL0     H47054   6.084   8.676  10.014  2.0023  0.7978 -0.3787
  341MOL0     H47055   5.755   9.184   9.768  0.4294  0.5954 -2.1549
  341MOL0     H47056   5.735   9.164   9.996  0.5563 -1.9246  2.1610
  341MOL0     H47057   5.583   9.225  10.052  1.8366  0.7858 -0.1169
  341MOL0     H47058   5.615   9.054  10.057  1.5930 -1.0017 -1.1732
  342MOL0     O47059   9.593  11.308   3.457  0.2367 -0.1932 -0.4842
  342MOL0     C47060   9.698  11.315   3.394  0.4587  1.3082 -0.5856
  342MOL0     O47061   9.803  11.379   3.439  0.0833  0.2291  0.6563
  342MOL0     C47062   9.802  11.460   3.545  0.4942  0.1564  0.2883
  342MOL0     C47063   9.844  11.595   3.525 -0.7409 -0.0073 -0.1099
  342MOL0     C47064   9.847  11.695   3.627  0.7767 -0.3239  0.3736
  342MOL0     C47065   9.821  11.657   3.754  0.2489  0.7459  0.3974
  342MOL0     O47066   9.827  11.758   3.849 -0.2547 -0.6791  0.4757
  342MOL0     C47067   9.832  11.722   3.995  0.3526 -0.6431  0.5906
  342MOL0     C47068   9.833  11.846   4.074  0.2225  0.3810 -0.0537
  342MOL0     C47069   9.899  11.840   4.216  0.2799 -0.2313 -0.3223
  342MOL0     C47070   9.822  11.735   4.301  0.0766  0.2296  0.5861
  342MOL0     C47071   9.857  11.764   4.453  0.4853  0.4924  0.4042
  342MOL0     C47072   9.784  11.661   4.544 -0.3213 -0.1434 -0.7038
  342MOL0     C47073   9.796  11.687   4.692 -0.2680 -0.1991  0.2231
  342MOL0     C47074   9.947  11.683   4.737  0.1950  0.6445  0.7295
  342MOL0     N47075   9.997  11.818   4.761  0.6589  0.1208 -0.1650
  342MOL0     C47076   9.948  11.889   4.868  0.0987 -0.4448  0.9120
  342MOL0     C47077   9.991  12.012   4.849  0.5951  1.2809 -0.7769
  342MOL0     C47078   9.978  12.112   4.957  0.3631 -0.6961  0.5562
  342MOL0     C47079  10.097  12.109   5.051  0.3017 -0.2068 -0.3584
  342MOL0     C47080  10.075  12.193   5.182  0.1906 -0.3235 -0.5912
  342MOL0     C47081  10.171  12.165   5.293 -0.1867  0.3718 -0.5476
  342MOL0     O47082  10.296  12.218   5.254  0.3201 -0.1215  0.1958
  342MOL0     C47083  10.392  12.242   5.347  0.1773  0.6728  0.3470
  342MOL0     C47084  10.509  12.305   5.302 -0.4270 -0.1385 -0.3165
  342MOL0     C47085  10.620  12.338   5.387 -0.4416  0.5796  0.4873
  342MOL0     C47086  10.750  12.390   5.335 -0.4090 -0.6685  0.1726
  342MOL0     C47087  10.606  12.310   5.520 -0.4319  0.4770 -0.1912
  342MOL0     C47088  10.723  12.317   5.618 -0.5671 -0.2139 -0.0839
  342MOL0     O47089  10.858  12.294   5.584  1.0588 -0.0468 -0.1588
  342MOL0     C47090  10.951  12.287   5.692 -0.9631 -0.2298  0.8641
  342MOL0     C47091  11.075  12.351   5.693 -0.4833 -0.2060  0.4189
  342MOL0     C47092  11.165  12.344   5.805  0.2570  0.8512  0.3528
  342MOL0     C47093  11.126  12.264   5.915  0.3871  0.2537 -0.1381
  342MOL0     O47094  11.216  12.266   6.019  0.3515 -0.3235 -0.6158
  342MOL0     C47095  11.198  12.167   6.124 -0.5078  0.0681 -0.1218
  342MOL0     C47096  11.327  12.144   6.202 -0.3058 -0.7339  0.4339
  342MOL0     C47097  11.424  12.268   6.239 -0.3215  0.2764 -1.1837
  342MOL0     C47098  11.552  12.276   6.167 -0.0506  0.2118 -0.5405
  342MOL0     C47099  11.631  12.412   6.176  0.0415 -0.2633  0.2179
  342MOL0     C47100  11.561  12.534   6.120 -0.0136 -0.5382  0.8155
  342MOL0     C47101  11.543  12.527   5.968  0.4924 -0.3794 -0.1905
  342MOL0     C47102  11.516  12.664   5.896  0.1385  0.1536  0.1019
  342MOL0    Cl47103  11.495  12.658   5.726 -0.4473 -0.5840 -0.2415
  342MOL0     C47104  11.002  12.198   5.909 -0.2911  0.1712 -0.5771
  342MOL0     C47105  10.911  12.212   5.805 -0.4428  0.5850  1.2284
  342MOL0     O47106  10.679  12.346   5.734 -0.8787  0.3867  0.6046
  342MOL0     C47107  10.491  12.259   5.571  0.1310  0.2285 -0.2689
  342MOL0     C47108  10.384  12.221   5.483 -0.7287 -0.1009 -0.6217
  342MOL0     N47109  10.080  12.012   4.744 -0.9553 -0.2363  0.1990
  342MOL0     N47110  10.079  11.895   4.692 -0.0784  0.4122 -0.1672
  342MOL0     C47111   9.790  11.520   3.778 -0.0140  0.0212 -0.6335
  342MOL0     C47112   9.780  11.429   3.680 -0.1742  0.8521  0.3588
  342MOL0     C47113   9.701  11.252   3.260 -0.6012  0.7354  0.0401
  342MOL0     C47114   9.661  11.117   3.246  0.0332 -0.2111  0.1708
  342MOL0     C47115   9.646  11.061   3.128 -0.2987  0.5883  0.3694
  342MOL0     C47116   9.664  11.132   3.009 -0.1414 -0.2428 -0.1809
  342MOL0     O47117   9.632  11.073   2.887  0.1957  0.4127  0.1158
  342MOL0     C47118   9.569  11.155   2.780 -0.2873 -0.3839 -0.1385
  342MOL0     C47119   9.420  11.140   2.763  0.3423  0.1070 -0.4555
  342MOL0     C47120   9.379  11.216   2.634  0.2809  0.5582  0.4783
  342MOL0     C47121   9.223  11.208   2.607 -0.5103  0.1481  0.5143
  342MOL0     C47122   9.154  11.316   2.676 -0.7253 -0.2518 -0.5254
  342MOL0     C47123   9.112  11.411   2.742 -0.0970 -0.1477 -0.4270
  342MOL0     C47124   9.716  11.269   3.016 -0.3920  0.7004  0.2714
  342MOL0     C47125   9.737  11.320   3.142  0.2521  0.5295  0.0949
  342MOL0     C47126   9.781  11.462   3.161  0.3300  0.1517  1.0028
  342MOL0     H47127   9.865  11.614   3.420 -0.2823 -3.5905 -0.7947
  342MOL0     H47128   9.867  11.802   3.619 -0.2849 -0.0400  1.2484
  342MOL0     H47129   9.919  11.659   4.017 -1.6489 -3.6476  0.4837
  342MOL0     H47130   9.751  11.660   4.036  0.3179 -1.6934 -0.9548
  342MOL0     H47131   9.893  11.922   4.023 -0.9279  0.6957 -0.9805
  342MOL0     H47132   9.740  11.903   4.074 -1.4475 -2.1423  1.2191
  342MOL0     H47133  10.004  11.809   4.217  0.6294  0.8119 -1.4613
  342MOL0     H47134   9.887  11.941   4.256  2.1543  0.4071 -1.2306
  342MOL0     H47135   9.713  11.746   4.291 -0.2685 -1.5878  1.8677
  342MOL0     H47136   9.845  11.633   4.271 -0.2012  0.2966  0.1305
  342MOL0     H47137   9.848  11.869   4.479  0.4037  0.6901 -0.3827
  342MOL0     H47138   9.965  11.751   4.458  0.9152  3.6631  1.7428
  342MOL0     H47139   9.682  11.653   4.506  0.0274 -0.7314 -1.5602
  342MOL0     H47140   9.829  11.565   4.515 -1.0192 -0.7077  0.0465
  342MOL0     H47141   9.745  11.609   4.749 -0.8340  1.8646  2.7003
  342MOL0     H47142   9.753  11.786   4.710  2.0936  1.3231 -1.8056
  342MOL0     H47143   9.948  11.622   4.828  0.8628  0.9979  0.9655
  342MOL0     H47144  10.018  11.644   4.663  0.0456  3.2716 -0.9066
  342MOL0     H47145   9.873  11.856   4.939 -0.3815 -1.0071  0.1584
  342MOL0     H47146   9.897  12.091   5.027  0.7996 -0.0134  1.2787
  342MOL0     H47147   9.959  12.212   4.919  2.1801 -0.0543  1.2173
  342MOL0     H47148  10.117  12.006   5.080  2.8938  0.5065  0.7048
  342MOL0     H47149  10.190  12.139   5.001  2.0352  0.6383  3.0276
  342MOL0     H47150  10.053  12.298   5.161 -0.0078 -0.1145  0.6070
  342MOL0     H47151   9.974  12.161   5.212  0.9853 -0.8207  1.8241
  342MOL0     H47152  10.141  12.209   5.389  1.7846  1.7385 -0.4890
  342MOL0     H47153  10.169  12.056   5.302 -2.2830  0.3527 -0.7347
  342MOL0     H47154  10.521  12.333   5.198 -1.9011  1.1059 -0.1833
  342MOL0     H47155  10.752  12.389   5.225  3.1411  1.3961  0.0425
  342MOL0     H47156  10.841  12.340   5.368  0.2995  1.2446  1.2802
  342MOL0     H47157  10.752  12.498   5.355 -2.8830  0.2342 -3.3799
  342MOL0     H47158  11.095  12.407   5.602  2.1563 -1.1642  0.3453
  342MOL0     H47159  11.263  12.389   5.811  2.5923 -3.5680 -0.1437
  342MOL0     H47160  11.133  12.193   6.208 -0.4141 -0.5032  0.1346
  342MOL0     H47161  11.156  12.074   6.086 -0.3554  0.7572 -2.0924
  342MOL0     H47162  11.294  12.082   6.286 -1.4896 -2.2587 -1.0793
  342MOL0     H47163  11.396  12.076   6.151 -1.2442 -1.8977  0.6670
  342MOL0     H47164  11.457  12.253   6.342  0.2100 -3.2269 -1.7329
  342MOL0     H47165  11.376  12.367   6.240 -2.2509 -0.4905  3.1656
  342MOL0     H47166  11.532  12.240   6.066 -3.1061 -4.7341  1.4308
  342MOL0     H47167  11.625  12.206   6.210  3.4627  3.8148 -0.0040
  342MOL0     H47168  11.652  12.432   6.281  0.5817 -2.0942  0.4968
  342MOL0     H47169  11.730  12.417   6.128 -0.3791  2.5672 -0.5503
  342MOL0     H47170  11.609  12.625   6.158 -1.6102  0.9220 -0.5489
  342MOL0     H47171  11.460  12.555   6.157 -1.0751 -2.9747 -0.4852
  342MOL0     H47172  11.469  12.450   5.943  1.5728 -1.1055 -1.2604
  342MOL0     H47173  11.640  12.488   5.937  0.5447 -1.6883  1.4694
  342MOL0     H47174  11.604  12.723   5.923  0.5059  0.7691 -2.2659
  342MOL0     H47175  11.428  12.711   5.942 -0.0953 -2.9594  3.2939
  342MOL0     H47176  10.971  12.143   5.997 -0.2937 -1.0166 -1.2937
  342MOL0     H47177  10.822  12.152   5.788  0.8712 -0.4789 -3.0019
  342MOL0     H47178  10.466  12.237   5.674  0.4149  3.6092  0.6420
  342MOL0     H47179  10.296  12.182   5.533  0.4153 -0.2409  1.4164
  342MOL0     H47180   9.761  11.491   3.879 -0.9151 -1.5049 -1.2809
  342MOL0     H47181   9.745  11.327   3.696 -0.7226  0.5558 -2.2654
  342MOL0     H47182   9.641  11.070   3.342  1.4265 -1.9865 -0.3505
  342MOL0     H47183   9.643  10.952   3.128  4.0906  0.2898  0.0178
  342MOL0     H47184   9.586  11.262   2.796  2.3670 -0.1884 -3.2933
  342MOL0     H47185   9.630  11.136   2.691  2.7347 -1.9731  2.1155
  342MOL0     H47186   9.379  11.192   2.849  0.7347  1.8141 -1.2592
  342MOL0     H47187   9.388  11.036   2.773 -2.4159  1.0678  2.1048
  342MOL0     H47188   9.411  11.320   2.641 -2.1043  1.6155 -2.2764
  342MOL0     H47189   9.426  11.175   2.545 -0.5214 -0.5472  0.5482
  342MOL0     H47190   9.184  11.114   2.649  1.2407 -0.4152  0.9824
  342MOL0     H47191   9.193  11.215   2.502 -1.0040  0.2355  0.6618
  342MOL0     H47192   9.087  11.502   2.792  2.3293  0.0938  0.4418
  342MOL0     H47193   9.724  11.324   2.923 -1.4345 -0.0758 -0.2858
  342MOL0     H47194   9.703  11.517   3.216  1.4627  3.7356 -0.6599
  342MOL0     H47195   9.872  11.465   3.221 -0.3051 -1.1713  2.1019
  342MOL0     H47196   9.796  11.512   3.065 -0.3660 -2.0774 -0.3252
  343MOL0     O47197  10.929   7.993   2.566 -0.7479 -0.5567 -0.0943
  343MOL0     C47198  11.029   7.949   2.625 -0.3372  0.4862  0.3174
  343MOL0     O47199  11.150   7.900   2.565  0.8795 -0.7587 -0.2686
  343MOL0     C47200  11.164   7.903   2.424 -0.6583 -0.7644  0.0328
  343MOL0     C47201  11.071   7.938   2.316 -0.9953 -1.0388 -0.4693
  343MOL0     C47202  11.130   7.960   2.192  0.4381 -0.0404 -0.8016
  343MOL0     C47203  11.266   7.924   2.159 -0.3156 -0.1018  0.4686
  343MOL0     O47204  11.331   7.913   2.038  0.7876 -0.1717  0.0991
  343MOL0     C47205  11.269   7.964   1.918 -0.1144 -0.1234 -0.8354
  343MOL0     C47206  11.368   7.949   1.803  0.0113 -0.8616 -0.7785
  343MOL0     C47207  11.363   7.802   1.739  0.1481 -0.5192 -0.4662
  343MOL0     C47208  11.389   7.815   1.592 -0.0244  0.0753  0.1008
  343MOL0     C47209  11.396   7.668   1.535  0.2570 -0.7795  0.0638
  343MOL0     C47210  11.250   7.618   1.490 -1.1139  0.4709  0.2484
  343MOL0     C47211  11.285   7.484   1.421 -0.9282  0.6238  0.5879
  343MOL0     C47212  11.159   7.401   1.388 -0.1929  0.7824 -0.8286
  343MOL0     N47213  11.073   7.373   1.501  1.1702 -0.1894 -0.6247
  343MOL0     C47214  11.115   7.293   1.605  0.4163 -1.0973 -0.0989
  343MOL0     C47215  11.001   7.227   1.636 -0.2540  0.8255  0.1784
  343MOL0     C47216  10.993   7.123   1.748 -0.1567  0.0555  0.1583
  343MOL0     C47217  10.912   7.180   1.863  0.0188  0.6834  0.1757
  343MOL0     C47218  10.918   7.093   1.980  0.3278  0.3778 -0.0147
  343MOL0     C47219  10.818   7.132   2.090  0.1606  0.6666  1.3571
  343MOL0     O47220  10.859   7.262   2.133  0.2674 -0.3672 -0.3828
  343MOL0     C47221  10.870   7.294   2.267  0.1469  0.8095 -0.4689
  343MOL0     C47222  10.854   7.430   2.313 -0.1875  0.5486  0.5179
  343MOL0     C47223  10.846   7.466   2.453 -0.3541 -0.3048  0.5771
  343MOL0     C47224  10.832   7.609   2.480 -0.7048 -0.4023  0.5870
  343MOL0     C47225  10.869   7.365   2.549  0.9201 -0.1206 -0.0693
  343MOL0     C47226  10.860   7.396   2.700 -0.1176  0.0838  0.7643
  343MOL0     O47227  10.797   7.505   2.741  0.3731  0.0306 -0.1967
  343MOL0     C47228  10.789   7.538   2.871  0.2611  0.0946 -0.1685
  343MOL0     C47229  10.800   7.674   2.905  0.0296 -0.7923 -0.0079
  343MOL0     C47230  10.824   7.721   3.040 -0.1713 -0.3513  0.7905
  343MOL0     C47231  10.818   7.631   3.143  0.0960 -0.9600 -0.2349
  343MOL0     O47232  10.822   7.663   3.275 -0.5710  0.4192  0.3986
  343MOL0     C47233  10.867   7.796   3.315  0.3997  0.3126  1.3197
  343MOL0     C47234  10.885   7.811   3.471  0.4294 -0.2210  0.6926
  343MOL0     C47235  10.744   7.810   3.532 -0.0234  0.1692  0.0979
  343MOL0     C47236  10.732   7.754   3.669 -0.4349  0.0801  1.0652
  343MOL0     C47237  10.727   7.607   3.662  0.2327  0.2405  0.4261
  343MOL0     C47238  10.755   7.557   3.807 -0.1016 -0.4588  0.0703
  343MOL0     C47239  10.756   7.406   3.813  0.0665 -0.1109 -0.3967
  343MOL0     C47240  10.621   7.349   3.798  0.7781  0.2929  0.4342
  343MOL0    Cl47241  10.505   7.388   3.924 -0.1272 -0.0793  0.1011
  343MOL0     C47242  10.790   7.502   3.116 -0.3683  0.2640 -0.1465
  343MOL0     C47243  10.780   7.454   2.983 -1.2204  0.3761  0.6339
  343MOL0     O47244  10.908   7.308   2.769 -1.3006  0.4238 -0.0487
  343MOL0     C47245  10.888   7.239   2.504 -1.2872  1.0648 -1.0643
  343MOL0     C47246  10.886   7.202   2.369  0.1560  0.3269  0.1534
  343MOL0     N47247  10.900   7.270   1.560 -0.5463 -0.0596  0.3652
  343MOL0     N47248  10.939   7.371   1.485 -0.6929  0.1086 -0.5696
  343MOL0     C47249  11.338   7.874   2.262 -0.1267 -1.2138 -0.4730
  343MOL0     C47250  11.288   7.868   2.388  0.1278  0.6551  0.1676
  343MOL0     C47251  11.038   7.948   2.775  0.2500 -0.0991 -0.3285
  343MOL0     C47252  11.093   7.834   2.838 -0.3317 -0.2054 -0.3499
  343MOL0     C47253  11.135   7.837   2.969  0.1564  0.5739  0.3568
  343MOL0     C47254  11.103   7.947   3.045  0.8069 -1.1559 -1.3176
  343MOL0     O47255  11.150   7.947   3.179 -0.5162 -0.1398  0.5292
  343MOL0     C47256  11.134   8.056   3.269  0.2631  0.4211 -0.3662
  343MOL0     C47257  11.250   8.056   3.366 -0.2548 -0.1723  0.4375
  343MOL0     C47258  11.254   8.177   3.461  0.1966  0.1015  0.1076
  343MOL0     C47259  11.157   8.159   3.579  0.0151 -1.1994  0.8950
  343MOL0     C47260  11.168   8.276   3.666  0.0594  1.0477  0.4685
  343MOL0     C47261  11.176   8.363   3.749  0.5229  0.0584 -0.2356
  343MOL0     C47262  11.023   8.046   2.985 -0.0458 -0.5360 -0.6907
  343MOL0     C47263  10.987   8.050   2.857 -0.0532  0.8430 -0.0808
  343MOL0     C47264  10.936   8.171   2.806 -0.0218 -0.4332 -0.2213
  343MOL0     H47265  10.968   7.962   2.342  0.1910  3.2603  1.2132
  343MOL0     H47266  11.059   7.985   2.113 -0.0569  0.2733 -0.2620
  343MOL0     H47267  11.248   8.072   1.926  0.1071  0.1133 -2.9797
  343MOL0     H47268  11.176   7.906   1.910 -1.7284  1.8541  1.8103
  343MOL0     H47269  11.333   8.013   1.722  0.0275 -0.6458 -0.6152
  343MOL0     H47270  11.466   7.993   1.828 -1.8381  3.7423 -0.5960
  343MOL0     H47271  11.434   7.736   1.790 -0.9408 -1.1788  0.2176
  343MOL0     H47272  11.263   7.762   1.757  0.3190 -0.9318 -0.4181
  343MOL0     H47273  11.307   7.864   1.539 -1.5625 -2.5670 -0.1804
  343MOL0     H47274  11.481   7.872   1.578  0.3012 -0.6284 -0.7731
  343MOL0     H47275  11.454   7.602   1.601 -1.7993 -1.7650  0.9890
  343MOL0     H47276  11.463   7.680   1.449 -0.1187  1.4410  0.0191
  343MOL0     H47277  11.189   7.596   1.578 -0.8552 -1.2873  0.0296
  343MOL0     H47278  11.203   7.689   1.421  0.0915  1.2333  0.1889
  343MOL0     H47279  11.354   7.428   1.484  0.0827  1.3424  0.1339
  343MOL0     H47280  11.339   7.505   1.328  1.4227 -1.0654  1.4934
  343MOL0     H47281  11.101   7.460   1.316 -0.9554  2.8728  1.3397
  343MOL0     H47282  11.184   7.306   1.340 -0.9802 -0.0307  0.3259
  343MOL0     H47283  11.213   7.288   1.653 -0.3767 -0.1585  1.7266
  343MOL0     H47284  11.089   7.115   1.798 -0.7594 -3.8981  0.9953
  343MOL0     H47285  10.950   7.030   1.710 -3.8858  1.8564 -0.4829
  343MOL0     H47286  10.949   7.277   1.898  1.5265 -1.1571  4.4219
  343MOL0     H47287  10.807   7.192   1.834  0.1466  1.3083 -0.0290
  343MOL0     H47288  10.894   6.991   1.951 -2.7591  1.4503 -1.6265
  343MOL0     H47289  11.021   7.095   2.018 -0.0656 -0.2945  1.1380
  343MOL0     H47290  10.720   7.135   2.043  0.8365  2.6265 -0.0642
  343MOL0     H47291  10.808   7.064   2.175 -1.6522 -2.1601 -0.9205
  343MOL0     H47292  10.845   7.516   2.247 -0.8087  1.1747  1.3955
  343MOL0     H47293  10.913   7.620   2.553  1.6976 -0.6035 -1.9206
  343MOL0     H47294  10.736   7.641   2.523  0.6258  5.2491  0.1814
  343MOL0     H47295  10.854   7.672   2.394  0.9063  0.7289  1.7706
  343MOL0     H47296  10.798   7.747   2.825  1.9864 -0.3031  0.3423
  343MOL0     H47297  10.841   7.826   3.063  4.0857 -0.8681  0.7568
  343MOL0     H47298  10.967   7.832   3.286 -0.7228  2.3398 -0.2494
  343MOL0     H47299  10.801   7.870   3.269  1.7847 -0.0773 -1.5337
  343MOL0     H47300  10.947   7.734   3.518  0.5755  0.9230  2.4731
  343MOL0     H47301  10.936   7.906   3.488  0.8273  0.2582 -2.4735
  343MOL0     H47302  10.683   7.753   3.462  0.6010  1.4012 -1.5254
  343MOL0     H47303  10.703   7.912   3.533 -1.7808 -0.5038 -0.0783
  343MOL0     H47304  10.640   7.794   3.713 -3.3705  0.2224 -4.3868
  343MOL0     H47305  10.816   7.793   3.728  0.2156 -0.5484  0.5810
  343MOL0     H47306  10.630   7.574   3.625  1.8550 -0.9371 -3.1739
  343MOL0     H47307  10.806   7.579   3.591  0.9524  2.3669  0.2977
  343MOL0     H47308  10.670   7.595   3.865 -0.5415  0.1787 -0.9546
  343MOL0     H47309  10.850   7.601   3.839 -1.2942  0.3997  2.6926
  343MOL0     H47310  10.805   7.378   3.907 -1.3476 -0.8704  0.1460
  343MOL0     H47311  10.819   7.360   3.736  1.7560 -0.9336  1.3921
  343MOL0     H47312  10.631   7.240   3.790 -0.9435  0.1595 -0.4450
  343MOL0     H47313  10.582   7.363   3.696 -2.6683  0.2255  1.6060
  343MOL0     H47314  10.767   7.432   3.196 -0.4605  1.8858  1.2999
  343MOL0     H47315  10.748   7.352   2.966 -0.3341 -0.6633  4.2569
  343MOL0     H47316  10.908   7.165   2.580 -0.1628  2.3768 -0.0215
  343MOL0     H47317  10.892   7.095   2.348 -2.2194  0.4046 -1.2333
  343MOL0     H47318  11.439   7.835   2.251  0.0218 -1.2632  0.8657
  343MOL0     H47319  11.345   7.833   2.474 -0.9246 -0.8801  0.2827
  343MOL0     H47320  11.107   7.748   2.773 -1.3049  0.9963 -2.2606
  343MOL0     H47321  11.183   7.754   3.020  3.2453  0.2540 -2.7038
  343MOL0     H47322  11.132   8.153   3.216 -0.3460  1.8763  2.1627
  343MOL0     H47323  11.037   8.049   3.319  1.5351 -2.6211  1.9698
  343MOL0     H47324  11.344   8.069   3.311  0.5285  1.6715  2.0970
  343MOL0     H47325  11.261   7.959   3.417 -1.3751 -1.4238 -1.5575
  343MOL0     H47326  11.358   8.189   3.491  1.1913  0.4881 -3.1070
  343MOL0     H47327  11.235   8.269   3.405 -0.9171  0.4174  0.9760
  343MOL0     H47328  11.182   8.072   3.639 -0.1646 -1.5556  0.4629
  343MOL0     H47329  11.050   8.150   3.556 -0.7528  0.0031  3.6319
  343MOL0     H47330  11.195   8.427   3.833  0.3693 -0.9801  0.6038
  343MOL0     H47331  10.984   8.117   3.057 -0.2881 -2.0632  0.7524
  343MOL0     H47332  10.989   8.249   2.860 -1.2733 -1.1544  2.1834
  343MOL0     H47333  10.947   8.193   2.699 -0.2846  5.3771  0.6755
  343MOL0     H47334  10.832   8.188   2.832 -0.1763  3.1039 -2.5288
  344MOL0     O47335   0.752   4.841   1.035 -0.6695  0.5915  0.0375
  344MOL0     C47336   0.676   4.846   1.136  0.1738 -0.0070  0.2743
  344MOL0     O47337   0.536   4.840   1.129 -0.6843  0.2872 -0.8102
  344MOL0     C47338   0.471   4.843   1.004  0.7145  0.4498 -0.6765
  344MOL0     C47339   0.467   4.720   0.935  0.0145 -0.3854  0.4553
  344MOL0     C47340   0.410   4.717   0.805  1.0670 -0.2374  0.7726
  344MOL0     C47341   0.353   4.835   0.752  0.0453  0.0322 -0.3930
  344MOL0     O47342   0.284   4.847   0.634  0.0494  0.1639 -0.1909
  344MOL0     C47343   0.206   4.748   0.574  0.3636 -0.4358  0.3320
  344MOL0     C47344   0.157   4.778   0.435 -0.0406  0.3761 -0.9368
  344MOL0     C47345   0.039   4.682   0.408 -0.1717 -0.3960 -0.0504
  344MOL0     C47346   0.076   4.527   0.410 -0.0473  0.3529  0.4444
  344MOL0     C47347  -0.032   4.448   0.474  0.6939  1.1973 -0.1299
  344MOL0     C47348  -0.025   4.435   0.620 -0.4240 -0.8326 -0.6460
  344MOL0     C47349   0.100   4.365   0.687  0.2240 -0.6921  0.4754
  344MOL0     C47350   0.080   4.347   0.838 -0.4482  0.1896 -0.2606
  344MOL0     N47351   0.206   4.360   0.910 -0.2229  0.0797 -0.5854
  344MOL0     C47352   0.217   4.362   1.050 -0.5127 -0.2973  0.2411
  344MOL0     C47353   0.348   4.373   1.072  0.5933  0.2743 -0.5841
  344MOL0     C47354   0.397   4.410   1.210 -0.2754  0.8331  1.4587
  344MOL0     C47355   0.553   4.370   1.206 -0.0568 -0.3863 -1.3133
  344MOL0     C47356   0.613   4.369   1.348  0.4853  0.2120 -0.3689
  344MOL0     C47357   0.768   4.337   1.348  0.4191 -0.5874 -0.1906
  344MOL0     O47358   0.804   4.327   1.489  0.4857  0.9795 -0.8596
  344MOL0     C47359   0.908   4.243   1.503 -0.2629  0.3574 -0.3395
  344MOL0     C47360   1.037   4.252   1.448 -0.3263  1.2432 -1.0824
  344MOL0     C47361   1.131   4.145   1.479  1.1103  0.2878 -0.3684
  344MOL0     C47362   1.251   4.141   1.391 -0.0180  0.4161 -0.0544
  344MOL0     C47363   1.097   4.041   1.569  0.1330  0.1660 -1.3413
  344MOL0     C47364   1.188   3.928   1.621  0.2021 -0.0399  0.8602
  344MOL0     O47365   1.257   3.868   1.523 -0.4184  0.2306  0.5633
  344MOL0     C47366   1.347   3.770   1.558 -1.2433 -0.4508  0.2008
  344MOL0     C47367   1.445   3.787   1.656  0.5845 -0.1930  0.3727
  344MOL0     C47368   1.536   3.677   1.684 -0.3216 -0.6899  0.6804
  344MOL0     C47369   1.538   3.564   1.602 -0.3655  0.2425  0.5732
  344MOL0     O47370   1.642   3.473   1.605  1.2500  0.0596  0.5112
  344MOL0     C47371   1.691   3.421   1.478 -0.1491  0.3498 -0.4421
  344MOL0     C47372   1.751   3.526   1.395 -0.6572  0.0693  0.2898
  344MOL0     C47373   1.830   3.482   1.267 -0.2184 -0.0844  0.1919
  344MOL0     C47374   1.724   3.433   1.163  0.3656 -0.3273 -0.7025
  344MOL0     C47375   1.788   3.447   1.028 -0.7874  0.2062  0.2556
  344MOL0     C47376   1.693   3.416   0.912 -0.3328  0.0213  1.0264
  344MOL0     C47377   1.756   3.372   0.776 -0.7336  0.6242 -0.0242
  344MOL0     C47378   1.652   3.387   0.663 -0.9980 -0.1754  0.3421
  344MOL0    Cl47379   1.710   3.310   0.512  0.0075  0.5337 -0.0301
  344MOL0     C47380   1.437   3.555   1.505 -0.3650 -0.6851  0.1184
  344MOL0     C47381   1.349   3.666   1.468 -0.5434 -0.6066 -0.0275
  344MOL0     O47382   1.190   3.890   1.737 -0.1665 -0.0995  0.1086
  344MOL0     C47383   0.973   4.040   1.640 -1.1172 -0.7796  0.3230
  344MOL0     C47384   0.886   4.148   1.606 -0.3307  0.3497  0.5566
  344MOL0     N47385   0.413   4.389   0.946  0.1603 -0.6777 -0.4213
  344MOL0     N47386   0.327   4.369   0.854 -0.0043  0.1333  0.2754
  344MOL0     C47387   0.361   4.959   0.816 -0.3273 -0.6157 -0.0444
  344MOL0     C47388   0.434   4.960   0.938 -0.2066 -0.5765  0.0876
  344MOL0     C47389   0.735   4.850   1.267  0.6979  0.3174  0.7469
  344MOL0     C47390   0.683   4.753   1.364  0.2263 -0.4331 -0.1328
  344MOL0     C47391   0.750   4.741   1.480  0.1698  0.9521  0.2229
  344MOL0     C47392   0.869   4.811   1.508  0.1925  0.4042  0.2593
  344MOL0     O47393   0.933   4.803   1.631 -0.7485  0.0089 -0.3031
  344MOL0     C47394   0.958   4.669   1.669 -0.9315 -0.5982 -0.5397
  344MOL0     C47395   1.100   4.663   1.745  0.3051  0.5592 -0.3400
  344MOL0     C47396   1.139   4.506   1.767 -0.2349 -0.5080 -1.0085
  344MOL0     C47397   1.288   4.490   1.792 -0.3488 -0.5135  0.7378
  344MOL0     C47398   1.335   4.355   1.759  0.1175 -0.0887  0.0705
  344MOL0     C47399   1.369   4.247   1.727 -0.0820 -0.0558 -0.0479
  344MOL0     C47400   0.913   4.906   1.427  1.1497 -0.0853  0.1885
  344MOL0     C47401   0.855   4.927   1.303 -0.8978  0.3348 -0.2328
  344MOL0     C47402   0.919   5.040   1.217  0.2920 -0.2662 -0.3675
  344MOL0     H47403   0.509   4.625   0.967 -1.8771 -2.8256 -3.5653
  344MOL0     H47404   0.408   4.633   0.736  1.4996  1.0107 -0.7989
  344MOL0     H47405   0.122   4.720   0.638 -1.3792  1.1186 -1.1538
  344MOL0     H47406   0.269   4.659   0.564  0.4372 -0.4967  1.2845
  344MOL0     H47407   0.127   4.883   0.435  0.3593  0.4903 -0.9242
  344MOL0     H47408   0.243   4.769   0.369  1.0511 -1.2080  0.6035
  344MOL0     H47409  -0.034   4.693   0.489 -1.0216 -1.0034 -0.7151
  344MOL0     H47410  -0.018   4.711   0.319  0.9116  1.6398 -0.1377
  344MOL0     H47411   0.085   4.483   0.310  3.1857  1.0603  0.3064
  344MOL0     H47412   0.171   4.502   0.458  0.5264 -2.5487 -1.8930
  344MOL0     H47413  -0.026   4.348   0.429  1.0367  0.1375  2.1056
  344MOL0     H47414  -0.129   4.494   0.453 -1.9880 -1.8817  3.9334
  344MOL0     H47415  -0.036   4.535   0.664 -2.3073 -1.6436  0.8984
  344MOL0     H47416  -0.117   4.386   0.653 -0.6507  0.3756  0.6435
  344MOL0     H47417   0.189   4.424   0.666 -1.4749  2.3077  1.1611
  344MOL0     H47418   0.105   4.268   0.636 -2.2232  0.3234 -1.9242
  344MOL0     H47419   0.010   4.423   0.875  0.9637 -0.5527  4.6096
  344MOL0     H47420   0.033   4.249   0.851 -0.0826  0.1759  1.0574
  344MOL0     H47421   0.133   4.341   1.115  1.1371 -0.3498  2.4492
  344MOL0     H47422   0.344   4.362   1.293  0.2402 -2.1773  0.1945
  344MOL0     H47423   0.386   4.517   1.225  0.1695  0.7445  2.4970
  344MOL0     H47424   0.565   4.276   1.150  3.0318  0.1662 -1.7641
  344MOL0     H47425   0.608   4.442   1.144  0.5050  0.5748  0.2514
  344MOL0     H47426   0.594   4.471   1.383 -0.8179  0.4900 -1.7732
  344MOL0     H47427   0.551   4.299   1.405 -0.7797  1.1713 -0.5059
  344MOL0     H47428   0.787   4.239   1.304  1.5713 -1.0951  1.3489
  344MOL0     H47429   0.813   4.417   1.289 -1.5629  0.6461 -0.1002
  344MOL0     H47430   1.043   4.318   1.362  1.5121  0.1891 -1.8592
  344MOL0     H47431   1.343   4.150   1.450 -0.7143 -1.3410  1.4010
  344MOL0     H47432   1.248   4.218   1.314 -1.8461 -1.7531 -2.3181
  344MOL0     H47433   1.270   4.051   1.333 -1.1322 -0.5811  1.0516
  344MOL0     H47434   1.453   3.877   1.717 -0.2125 -0.0433  0.2668
  344MOL0     H47435   1.618   3.683   1.755 -0.5999 -1.9303  1.1242
  344MOL0     H47436   1.764   3.344   1.506  1.3054  2.3108  1.4602
  344MOL0     H47437   1.612   3.372   1.420 -1.4428 -1.8843  2.8888
  344MOL0     H47438   1.679   3.600   1.360 -0.3469 -1.3370 -3.8134
  344MOL0     H47439   1.827   3.568   1.463  0.4533 -1.5446  0.1033
  344MOL0     H47440   1.912   3.410   1.278  1.5603  1.7947 -0.0459
  344MOL0     H47441   1.887   3.570   1.235  0.2016 -1.2760 -2.6872
  344MOL0     H47442   1.639   3.502   1.161  3.5629  4.1098 -0.8603
  344MOL0     H47443   1.701   3.330   1.190 -0.5796 -0.1865 -0.9412
  344MOL0     H47444   1.826   3.547   1.006 -1.7522  0.0825 -2.2598
  344MOL0     H47445   1.870   3.373   1.029 -2.3231 -1.5822 -0.3391
  344MOL0     H47446   1.615   3.493   0.900 -0.6628 -0.5449 -0.7410
  344MOL0     H47447   1.629   3.330   0.934  1.1855 -1.2585  0.5090
  344MOL0     H47448   1.792   3.269   0.777  0.4313  1.0072 -0.8257
  344MOL0     H47449   1.844   3.429   0.745  1.1248 -1.6966  0.6438
  344MOL0     H47450   1.626   3.492   0.646  3.1031  0.7985 -0.9909
  344MOL0     H47451   1.568   3.326   0.697  0.6129 -1.1211  2.8811
  344MOL0     H47452   1.438   3.463   1.448  0.9415 -0.0711 -0.8904
  344MOL0     H47453   1.285   3.658   1.382  0.1084  0.2878 -0.6105
  344MOL0     H47454   0.945   3.981   1.727 -1.4480 -0.8905  0.1389
  344MOL0     H47455   0.782   4.148   1.640 -0.8580  0.4811 -0.9860
  344MOL0     H47456   0.328   5.042   0.754  3.0330 -0.2591 -1.6157
  344MOL0     H47457   0.455   5.053   0.990  0.2784 -1.3689  1.3836
  344MOL0     H47458   0.596   4.695   1.337  1.0157 -2.5344  1.5367
  344MOL0     H47459   0.693   4.671   1.540 -2.3532  1.0977 -1.7851
  344MOL0     H47460   0.875   4.636   1.732 -0.1240 -1.6901  0.0014
  344MOL0     H47461   0.960   4.616   1.573 -2.0391  1.0965 -1.5517
  344MOL0     H47462   1.096   4.708   1.844 -1.0863  1.1845 -0.6578
  344MOL0     H47463   1.184   4.712   1.694  0.0665  0.8095 -0.4934
  344MOL0     H47464   1.097   4.455   1.854  3.1893 -1.6078  0.1547
  344MOL0     H47465   1.106   4.452   1.677 -1.4945  0.0339 -0.8921
  344MOL0     H47466   1.326   4.507   1.893 -1.5647 -2.8735  1.6657
  344MOL0     H47467   1.345   4.557   1.726  2.5553 -2.0183  1.5336
  344MOL0     H47468   1.404   4.154   1.687 -1.8227 -1.5925  1.7908
  344MOL0     H47469   0.997   4.970   1.455 -1.3826  3.3692  0.4778
  344MOL0     H47470   0.894   5.141   1.254  1.8903  0.3567 -0.8876
  344MOL0     H47471   1.028   5.026   1.224  0.4061 -2.5818 -4.1425
  344MOL0     H47472   0.889   5.043   1.112 -1.1864  1.0750  0.0558
  345MOL0     O47473   7.556   0.814  10.508 -0.6720 -0.8053  0.0970
  345MOL0     C47474   7.582   0.925  10.476  0.1556  1.0453 -0.4066
  345MOL0     O47475   7.629   0.958  10.358  0.1099  0.5056  0.1802
  345MOL0     C47476   7.678   0.859  10.278 -0.7648 -0.0942  0.1983
  345MOL0     C47477   7.800   0.800  10.307  0.5753 -0.3014  0.4681
  345MOL0     C47478   7.853   0.713  10.217 -0.0975  0.4263  0.3141
  345MOL0     C47479   7.784   0.660  10.110  0.9517  0.6800  1.1184
  345MOL0     O47480   7.849   0.564  10.038 -0.4823 -0.1964 -0.1250
  345MOL0     C47481   7.784   0.498   9.931  0.8728 -1.2908  0.1748
  345MOL0     C47482   7.838   0.362   9.883 -0.3694  0.1124  0.6462
  345MOL0     C47483   7.772   0.314   9.755  0.6318  0.9801 -0.2457
  345MOL0     C47484   7.837   0.382   9.640  0.1120  0.9861  0.0832
  345MOL0     C47485   7.794   0.331   9.501 -0.1815  0.5839 -0.5569
  345MOL0     C47486   7.645   0.385   9.467 -0.1278 -0.4065  0.7548
  345MOL0     C47487   7.618   0.364   9.317  0.6098  0.2815  0.6274
  345MOL0     C47488   7.467   0.369   9.306  0.2023  0.0701  0.2267
  345MOL0     N47489   7.418   0.331   9.178  0.6146  0.3762  0.3929
  345MOL0     C47490   7.441   0.406   9.065  0.4360 -1.3787  0.1155
  345MOL0     C47491   7.333   0.379   8.989  0.0035  0.4635  0.8910
  345MOL0     C47492   7.307   0.432   8.847 -0.2889  0.8330 -0.8601
  345MOL0     C47493   7.163   0.487   8.828 -0.3216 -0.0822  0.3254
  345MOL0     C47494   7.136   0.569   8.698 -0.2282 -0.1066  0.3292
  345MOL0     C47495   6.995   0.612   8.673  0.4316 -0.7005 -0.9599
  345MOL0     O47496   6.939   0.693   8.779  0.1472  1.2934  0.0936
  345MOL0     C47497   6.855   0.796   8.747  0.1557 -0.3023 -0.9287
  345MOL0     C47498   6.810   0.881   8.848  0.1701  0.4133  0.8988
  345MOL0     C47499   6.725   0.994   8.834 -0.3629 -0.2204 -0.7129
  345MOL0     C47500   6.708   1.070   8.963  1.0809  0.2658  0.2535
  345MOL0     C47501   6.681   1.026   8.694 -0.0200  0.1544 -0.8339
  345MOL0     C47502   6.602   1.143   8.645  0.5017  0.6131  0.2736
  345MOL0     O47503   6.564   1.162   8.515 -0.3062  0.2529 -0.0682
  345MOL0     C47504   6.494   1.266   8.462 -0.0612 -0.0130 -0.3154
  345MOL0     C47505   6.425   1.370   8.531  0.6387  0.2098 -0.0390
  345MOL0     C47506   6.352   1.466   8.456 -0.6595 -0.0161 -0.2213
  345MOL0     C47507   6.351   1.477   8.317  0.9763 -0.2553 -0.2017
  345MOL0     O47508   6.266   1.560   8.247  0.2871  0.6541  0.0046
  345MOL0     C47509   6.227   1.684   8.308 -0.0305  0.9970  0.0267
  345MOL0     C47510   6.156   1.771   8.203 -0.3137 -0.5377 -0.3379
  345MOL0     C47511   6.245   1.853   8.105 -0.1339 -0.6155 -0.4822
  345MOL0     C47512   6.161   1.900   7.991 -0.0656 -1.4980 -1.1095
  345MOL0     C47513   6.243   1.999   7.914  0.1438 -0.8110  0.1875
  345MOL0     C47514   6.192   2.021   7.769 -0.2443 -0.5651  0.1689
  345MOL0     C47515   6.289   2.124   7.705  0.3749 -0.2026  0.5888
  345MOL0     C47516   6.225   2.168   7.572 -1.0092 -0.5013 -0.4621
  345MOL0    Cl47517   6.088   2.285   7.602  0.1071 -0.2221  0.5515
  345MOL0     C47518   6.415   1.364   8.246  0.1912 -0.7061  0.0391
  345MOL0     C47519   6.491   1.267   8.317  0.4135 -0.0297  0.5625
  345MOL0     O47520   6.583   1.228   8.730 -0.1136  0.7685  0.4070
  345MOL0     C47521   6.703   0.925   8.596  0.4797  0.0116  0.2479
  345MOL0     C47522   6.798   0.824   8.622  0.9142  0.2434  0.6240
  345MOL0     N47523   7.243   0.300   9.058  0.4534  0.0545 -0.1391
  345MOL0     N47524   7.298   0.272   9.169  0.1907 -0.1708 -0.6812
  345MOL0     C47525   7.652   0.708  10.080 -1.1414 -0.0603 -0.7363
  345MOL0     C47526   7.607   0.818  10.161 -0.7760 -0.3125  0.3318
  345MOL0     C47527   7.558   1.027  10.584  0.8233 -0.3997  0.1762
  345MOL0     C47528   7.515   0.989  10.713  0.8862 -0.6328 -0.1963
  345MOL0     C47529   7.484   1.082  10.807  1.2392  0.2977 -1.1271
  345MOL0     C47530   7.486   1.215  10.789 -0.3619 -0.5832  0.9421
  345MOL0     O47531   7.463   1.286  10.905  0.3170 -0.2937  0.3587
  345MOL0     C47532   7.387   1.412  10.890 -0.1007  1.2157 -0.1625
  345MOL0     C47533   7.458   1.544  10.891 -0.6631  0.1450  0.8788
  345MOL0     C47534   7.352   1.655  10.898 -0.1598 -0.2764  0.0010
  345MOL0     C47535   7.314   1.701  11.038  0.1786  0.6241  1.2008
  345MOL0     C47536   7.416   1.695  11.140 -0.3718  0.4072 -0.2627
  345MOL0     C47537   7.512   1.698  11.210  0.4694  0.6833 -1.1194
  345MOL0     C47538   7.529   1.257  10.657  0.1125 -1.5658 -0.0188
  345MOL0     C47539   7.565   1.172  10.558 -0.4263  0.5251 -0.5405
  345MOL0     C47540   7.603   1.239  10.428  0.0114  0.5453  0.4471
  345MOL0     H47541   7.863   0.818  10.394  1.6070 -2.5640  0.2608
  345MOL0     H47542   7.954   0.682  10.241 -1.0787 -1.3010  2.5538
  345MOL0     H47543   7.785   0.570   9.849  1.6603 -5.2590 -3.6924
  345MOL0     H47544   7.684   0.473   9.968  1.4984 -1.5501  1.7646
  345MOL0     H47545   7.945   0.375   9.865 -0.2718 -0.7303  0.5736
  345MOL0     H47546   7.826   0.277   9.952 -1.7186 -1.7167 -1.6762
  345MOL0     H47547   7.798   0.208   9.746  0.4486  0.9066  0.0808
  345MOL0     H47548   7.663   0.320   9.752  0.3887 -2.1704 -0.6248
  345MOL0     H47549   7.813   0.488   9.639  2.1501  1.5329 -2.3048
  345MOL0     H47550   7.946   0.367   9.639 -0.0293 -0.3176 -1.7551
  345MOL0     H47551   7.792   0.223   9.515 -2.6857  0.6734  0.3292
  345MOL0     H47552   7.860   0.377   9.426 -1.5425  0.4018 -1.9136
  345MOL0     H47553   7.582   0.336   9.542 -2.2611  0.0440 -0.6795
  345MOL0     H47554   7.647   0.492   9.488 -2.9825 -0.4500  1.5529
  345MOL0     H47555   7.656   0.270   9.277 -2.6198 -1.3003  0.9073
  345MOL0     H47556   7.662   0.451   9.268 -1.1743  1.8368  1.6088
  345MOL0     H47557   7.420   0.302   9.379 -0.3172 -0.4715 -0.5851
  345MOL0     H47558   7.441   0.471   9.335  2.7512  0.6160  0.8788
  345MOL0     H47559   7.526   0.468   9.041 -1.7477  1.0006 -2.1850
  345MOL0     H47560   7.332   0.356   8.772  1.9141  1.6994 -1.0931
  345MOL0     H47561   7.379   0.510   8.820 -2.0700  2.3853 -1.3531
  345MOL0     H47562   7.092   0.405   8.845 -0.9899  0.5621  0.6877
  345MOL0     H47563   7.140   0.558   8.908 -1.9513 -1.9506  1.6421
  345MOL0     H47564   7.198   0.659   8.692 -1.7253  0.8934 -0.8835
  345MOL0     H47565   7.160   0.498   8.619  2.5495  0.9028  0.1513
  345MOL0     H47566   7.000   0.665   8.578 -0.0105 -3.4327 -2.6183
  345MOL0     H47567   6.937   0.519   8.669 -1.2093  0.1465  1.1664
  345MOL0     H47568   6.860   0.868   8.943  3.9616  1.8940 -0.7141
  345MOL0     H47569   6.599   1.079   8.973  1.1143  0.9469  0.0550
  345MOL0     H47570   6.739   1.173   8.941  1.4732  0.1782  0.4030
  345MOL0     H47571   6.746   1.036   9.059  1.5708  3.2427  1.2404
  345MOL0     H47572   6.428   1.373   8.639  0.5889  1.7302 -0.0618
  345MOL0     H47573   6.301   1.541   8.516 -5.6075 -1.6617 -1.8673
  345MOL0     H47574   6.152   1.656   8.382  0.1382 -3.0792 -1.0955
  345MOL0     H47575   6.310   1.739   8.354  1.3037 -0.1976 -0.8582
  345MOL0     H47576   6.093   1.706   8.141  2.9857 -1.7044 -2.7519
  345MOL0     H47577   6.087   1.837   8.257  1.8354  0.4914  1.2869
  345MOL0     H47578   6.329   1.789   8.077  0.2087 -1.4513  2.1032
  345MOL0     H47579   6.279   1.940   8.162 -0.8943 -0.4794 -0.2339
  345MOL0     H47580   6.076   1.963   8.017  2.3596  2.3509 -1.7381
  345MOL0     H47581   6.135   1.810   7.934 -2.1717 -4.0534  3.3029
  345MOL0     H47582   6.247   2.093   7.970  2.0566 -0.6013 -0.2386
  345MOL0     H47583   6.347   1.972   7.891  0.3894  1.2737 -1.5344
  345MOL0     H47584   6.089   2.057   7.760  0.2629  0.3187 -3.7637
  345MOL0     H47585   6.189   1.926   7.715 -1.7120 -0.2615 -0.3295
  345MOL0     H47586   6.385   2.072   7.694 -0.1431 -1.1242  0.3025
  345MOL0     H47587   6.293   2.207   7.775 -1.0611  1.7332 -1.5086
  345MOL0     H47588   6.195   2.076   7.521  1.8112 -2.3517  0.9412
  345MOL0     H47589   6.304   2.207   7.507  1.4954 -2.1068  1.4162
  345MOL0     H47590   6.401   1.347   8.140  2.3944 -0.3409 -0.3697
  345MOL0     H47591   6.516   1.181   8.256  2.4118  0.7883  0.1719
  345MOL0     H47592   6.670   0.938   8.494  1.3103  2.1547  0.2147
  345MOL0     H47593   6.823   0.769   8.532 -0.0015  1.0475 -0.1507
  345MOL0     H47594   7.591   0.656  10.007 -1.0737 -1.1853 -0.0301
  345MOL0     H47595   7.511   0.866  10.144 -2.5063 -2.1484  3.7402
  345MOL0     H47596   7.501   0.883  10.729 -2.8801 -0.6311 -2.4232
  345MOL0     H47597   7.453   1.041  10.903  1.9079 -1.0334 -1.4612
  345MOL0     H47598   7.329   1.404  10.797 -0.8216 -2.1798  0.4561
  345MOL0     H47599   7.315   1.412  10.972 -2.8199 -1.9948 -2.2953
  345MOL0     H47600   7.507   1.554  10.794 -1.9210  3.1987  0.4515
  345MOL0     H47601   7.532   1.543  10.971  1.7486  0.4891 -1.2161
  345MOL0     H47602   7.394   1.729  10.828  0.1184 -1.1481 -0.7800
  345MOL0     H47603   7.260   1.621  10.849 -1.7684  2.2387  1.0189
  345MOL0     H47604   7.225   1.646  11.069  0.5276 -0.4244  0.3974
  345MOL0     H47605   7.282   1.803  11.012 -0.5579 -0.2574 -1.7133
  345MOL0     H47606   7.603   1.700  11.267  0.3849 -2.4089 -0.7319
  345MOL0     H47607   7.537   1.364  10.641 -1.0792 -0.9331  2.9691
  345MOL0     H47608   7.547   1.214  10.337  2.1768 -0.3522 -0.7163
  345MOL0     H47609   7.593   1.348  10.432  1.2044  0.6393  1.7613
  345MOL0     H47610   7.708   1.216  10.407 -0.8818 -0.7770 -3.5390
  346MOL0     O47611   2.244   2.234  11.038 -0.0222  0.2274  0.0371
  346MOL0     C47612   2.120   2.213  11.049 -0.0893 -0.4037 -0.2060
  346MOL0     O47613   2.067   2.110  11.112 -0.0731  0.5591  0.2597
  346MOL0     C47614   2.145   2.005  11.154 -0.6662  0.4068 -0.6006
  346MOL0     C47615   2.277   1.970  11.114 -0.3731  0.2094  0.7219
  346MOL0     C47616   2.340   1.862  11.161 -0.1426 -0.4625 -0.2629
  346MOL0     C47617   2.283   1.768  11.249  0.2287 -0.5409 -0.0661
  346MOL0     O47618   2.371   1.676  11.307 -0.3923 -0.2697  0.7277
  346MOL0     C47619   2.321   1.603  11.416 -0.1575  0.6927 -0.3454
  346MOL0     C47620   2.437   1.526  11.492  0.7518  0.5885 -0.2117
  346MOL0     C47621   2.422   1.535  11.648 -0.0110  0.1350  0.9584
  346MOL0     C47622   2.535   1.610  11.720  0.8382 -0.5903 -0.6635
  346MOL0     C47623   2.519   1.590  11.873  0.8327 -0.6641 -0.2746
  346MOL0     C47624   2.654   1.618  11.940  0.8628  0.6835 -0.0912
  346MOL0     C47625   2.714   1.760  11.920 -1.0282 -0.0014 -0.6717
  346MOL0     C47626   2.856   1.737  11.859 -0.3864  0.7674 -0.3069
  346MOL0     N47627   2.945   1.859  11.852  0.5237  0.5540  0.6460
  346MOL0     C47628   3.077   1.874  11.892  0.1844 -0.1383 -1.1088
  346MOL0     C47629   3.106   2.005  11.872 -0.3820  0.6263  0.6530
  346MOL0     C47630   3.244   2.054  11.912 -0.8824  0.5031 -0.5341
  346MOL0     C47631   3.231   2.108  12.051 -0.1583  0.7926  0.8878
  346MOL0     C47632   3.380   2.125  12.099 -0.6681 -0.5474 -0.5115
  346MOL0     C47633   3.402   2.199  12.226 -0.3378 -0.1062 -0.7019
  346MOL0     O47634   3.367   2.126  12.340  0.4914  0.8964  0.0629
  346MOL0     C47635   3.426   2.178  12.453 -1.0888  0.0994  0.0578
  346MOL0     C47636   3.426   2.098  12.569  0.2448  0.1946  0.6469
  346MOL0     C47637   3.475   2.150  12.693  0.2715 -0.0669 -0.2262
  346MOL0     C47638   3.433   2.064  12.814  0.0637 -0.7597 -0.3232
  346MOL0     C47639   3.540   2.272  12.705 -0.5020 -0.1729  0.5912
  346MOL0     C47640   3.597   2.333  12.829  0.1841 -0.5431  0.5639
  346MOL0     O47641   3.679   2.440  12.810  0.5157  0.2710  0.3373
  346MOL0     C47642   3.714   2.518  12.914 -0.4642  0.6212  0.4425
  346MOL0     C47643   3.759   2.466  13.037  0.4576 -0.2582 -0.4552
  346MOL0     C47644   3.795   2.553  13.136  0.6978 -0.3036  0.1706
  346MOL0     C47645   3.792   2.694  13.121  0.7299  0.1761  0.0264
  346MOL0     O47646   3.836   2.790  13.208 -0.3273 -0.2537 -0.1127
  346MOL0     C47647   3.917   2.743  13.315 -0.8044  0.0887 -0.3160
  346MOL0     C47648   3.923   2.847  13.419 -0.5882  0.1241 -0.1802
  346MOL0     C47649   3.998   2.817  13.553 -0.3266  0.1679  0.2539
  346MOL0     C47650   3.905   2.824  13.679  0.3589  0.3112  0.4079
  346MOL0     C47651   3.979   2.796  13.806 -0.4135  0.0656  0.6597
  346MOL0     C47652   3.890   2.845  13.924 -0.0374 -0.3847  0.3521
  346MOL0     C47653   3.958   2.800  14.059 -0.3759  0.5543 -0.2967
  346MOL0     C47654   3.959   2.912  14.174  0.9773  0.5468 -0.2218
  346MOL0    Cl47655   3.786   2.964  14.185  0.1418 -0.0376 -0.0135
  346MOL0     C47656   3.744   2.742  12.996 -0.2347 -0.1550  0.1602
  346MOL0     C47657   3.698   2.655  12.887  0.3826  0.9981 -0.8277
  346MOL0     O47658   3.574   2.281  12.936  0.7000  0.2032  0.3408
  346MOL0     C47659   3.555   2.345  12.588  0.0190  1.0289  0.0731
  346MOL0     C47660   3.488   2.300  12.472  0.4332 -0.7630  0.1422
  346MOL0     N47661   2.993   2.066  11.821  0.3785  0.6318 -0.0119
  346MOL0     N47662   2.909   1.976  11.797  0.7608  0.3779  0.0012
  346MOL0     C47663   2.156   1.790  11.287  0.2111 -1.0703  0.0272
  346MOL0     C47664   2.086   1.913  11.248 -0.0422 -0.1514  0.6200
  346MOL0     C47665   2.021   2.311  10.984 -0.4135  0.1613 -0.5283
  346MOL0     C47666   1.884   2.273  10.969  0.2077  0.6690 -0.9706
  346MOL0     C47667   1.782   2.359  10.913 -0.7294  1.1259  0.4053
  346MOL0     C47668   1.819   2.485  10.864  0.6037 -0.1514 -0.6066
  346MOL0     O47669   1.719   2.569  10.819  0.3437 -0.0895  0.5106
  346MOL0     C47670   1.755   2.701  10.768 -0.0573 -0.9989  0.0201
  346MOL0     C47671   1.662   2.742  10.657  0.5210  0.0447 -0.1768
  346MOL0     C47672   1.693   2.887  10.610  0.8864 -0.4598 -0.2878
  346MOL0     C47673   1.596   2.928  10.493  0.3236 -0.0945 -0.5654
  346MOL0     C47674   1.471   2.978  10.538 -0.2614  0.4345 -0.2980
  346MOL0     C47675   1.367   3.018  10.594 -0.3175  0.8976 -0.3926
  346MOL0     C47676   1.953   2.522  10.877 -0.1239 -0.2223 -0.2309
  346MOL0     C47677   2.058   2.438  10.931  1.2489 -1.1936  0.1903
  346MOL0     C47678   2.202   2.494  10.931 -0.6553 -0.3760  0.4695
  346MOL0     H47679   2.336   2.033  11.048 -0.5936 -0.3826 -0.0608
  346MOL0     H47680   2.441   1.844  11.123  0.4642  0.6482  0.7613
  346MOL0     H47681   2.247   1.529  11.385  1.8211 -2.0026  0.9213
  346MOL0     H47682   2.279   1.680  11.481 -0.7957  0.6940 -0.7548
  346MOL0     H47683   2.427   1.420  11.467  1.5626  0.3910  0.2440
  346MOL0     H47684   2.535   1.561  11.458  0.2674  2.0778 -0.1432
  346MOL0     H47685   2.332   1.595  11.668 -0.2252  0.8279 -1.6688
  346MOL0     H47686   2.399   1.439  11.696  2.6148 -0.9843  0.1703
  346MOL0     H47687   2.635   1.583  11.685  0.7103  0.1832 -1.6833
  346MOL0     H47688   2.521   1.718  11.704 -2.4015 -0.9025 -0.4671
  346MOL0     H47689   2.481   1.491  11.902 -1.0843  0.8630  3.0007
  346MOL0     H47690   2.434   1.654  11.899  0.9187 -0.7935  0.3366
  346MOL0     H47691   2.635   1.597  12.046  1.2006  0.5776 -0.0483
  346MOL0     H47692   2.723   1.543  11.899 -0.7328  0.0884 -1.7995
  346MOL0     H47693   2.721   1.807  12.018  0.0756  0.7923 -1.1129
  346MOL0     H47694   2.651   1.826  11.860  0.6466  1.9801 -0.3583
  346MOL0     H47695   2.904   1.668  11.930 -0.4814 -1.1481 -2.0178
  346MOL0     H47696   2.857   1.678  11.767 -0.3144 -0.0465  0.1942
  346MOL0     H47697   3.157   1.809  11.928 -0.0845 -0.6163 -1.3731
  346MOL0     H47698   3.282   2.140  11.857 -0.5069  2.0722  1.9899
  346MOL0     H47699   3.324   1.980  11.900 -1.7089 -0.1470 -2.3400
  346MOL0     H47700   3.181   2.204  12.067 -2.2306 -0.1277  0.2675
  346MOL0     H47701   3.181   2.037  12.116  2.3820 -0.6368  1.4334
  346MOL0     H47702   3.433   2.029  12.105 -0.6461 -0.5951 -1.3297
  346MOL0     H47703   3.436   2.179  12.022 -0.2345  0.5203  0.5180
  346MOL0     H47704   3.506   2.231  12.235  0.2242 -1.9813 -0.1198
  346MOL0     H47705   3.345   2.292  12.223  1.9778  1.5056  1.5253
  346MOL0     H47706   3.380   2.001  12.554  0.2773 -0.1277  2.4027
  346MOL0     H47707   3.401   1.964  12.783 -2.5252 -0.0059 -0.2423
  346MOL0     H47708   3.354   2.117  12.867  0.2901  0.9171 -1.6011
  346MOL0     H47709   3.505   2.052  12.896  0.1895  0.0118 -0.3160
  346MOL0     H47710   3.779   2.360  13.043  1.5805 -0.1592 -1.9004
  346MOL0     H47711   3.823   2.509  13.231  2.3697  2.2187  0.9360
  346MOL0     H47712   3.884   2.645  13.352 -0.7235 -0.0643 -0.6379
  346MOL0     H47713   4.019   2.729  13.276  0.2928 -0.2947  2.4772
  346MOL0     H47714   3.963   2.939  13.376 -0.4032 -0.8045 -2.0954
  346MOL0     H47715   3.820   2.870  13.447 -1.1978 -0.6335 -1.6842
  346MOL0     H47716   4.081   2.887  13.567  1.2789 -1.4312 -0.8931
  346MOL0     H47717   4.049   2.723  13.531  0.7585  0.6838  0.4763
  346MOL0     H47718   3.812   2.767  13.675  1.2974 -1.2338 -0.2408
  346MOL0     H47719   3.886   2.931  13.687  0.1772  0.3825 -0.7986
  346MOL0     H47720   4.004   2.691  13.822 -2.0277 -0.9872 -2.8960
  346MOL0     H47721   4.071   2.854  13.796 -1.2728  1.5242  0.8350
  346MOL0     H47722   3.792   2.797  13.911 -0.5992  1.0614 -1.1597
  346MOL0     H47723   3.881   2.954  13.918 -0.8582 -0.5142 -1.1557
  346MOL0     H47724   4.064   2.778  14.043 -0.5537 -0.0426 -0.6668
  346MOL0     H47725   3.910   2.714  14.106  0.6700  0.3681  0.4700
  346MOL0     H47726   4.016   3.005  14.165  0.6158  0.8621  0.6769
  346MOL0     H47727   3.973   2.861  14.269 -0.2960  0.1830 -0.2047
  346MOL0     H47728   3.726   2.849  12.994  3.1662  0.6018  2.1145
  346MOL0     H47729   3.656   2.689  12.792  2.0092 -3.0563 -3.2470
  346MOL0     H47730   3.604   2.441  12.574  2.8701 -0.5493 -1.7117
  346MOL0     H47731   3.492   2.366  12.385 -0.3875 -0.3043  0.4415
  346MOL0     H47732   2.098   1.732  11.357 -1.0217 -0.6152 -0.5897
  346MOL0     H47733   1.983   1.928  11.279 -0.1140  0.0051  0.3075
  346MOL0     H47734   1.853   2.174  11.000  0.4028  0.6830 -0.7220
  346MOL0     H47735   1.676   2.338  10.920 -0.5073  0.4797  2.3332
  346MOL0     H47736   1.740   2.770  10.852  2.1892  1.1578 -1.2175
  346MOL0     H47737   1.858   2.714  10.735 -0.1442  0.8190  0.3250
  346MOL0     H47738   1.556   2.751  10.680 -0.2114  2.4367 -3.6646
  346MOL0     H47739   1.687   2.679  10.571 -0.0819 -2.6146  1.5011
  346MOL0     H47740   1.688   2.947  10.702  2.6328 -1.3295  0.4180
  346MOL0     H47741   1.787   2.898  10.554  0.3977 -0.9111 -1.2161
  346MOL0     H47742   1.578   2.851  10.417  1.3220 -1.4900  0.5764
  346MOL0     H47743   1.648   3.007  10.439 -0.4299 -0.4584 -1.8714
  346MOL0     H47744   1.276   3.049  10.642 -1.6936  1.7866 -3.3284
  346MOL0     H47745   1.986   2.624  10.861  0.2975 -0.3942 -0.4791
  346MOL0     H47746   2.251   2.447  10.845 -2.1298  0.6379 -0.9803
  346MOL0     H47747   2.219   2.601  10.913 -0.2272 -0.3576  0.9700
  346MOL0     H47748   2.252   2.467  11.025  0.4130 -1.5364 -0.3963
  347MOL0     O47749   1.801   4.003   3.514 -0.3745 -0.1876 -0.0620
  347MOL0     C47750   1.720   3.992   3.611 -0.3223 -0.0933 -0.3784
  347MOL0     O47751   1.591   3.984   3.603  0.1094 -0.6741 -1.5054
  347MOL0     C47752   1.525   4.010   3.485 -0.4078  0.2965  0.1368
  347MOL0     C47753   1.454   3.905   3.430 -0.0293 -0.1953  1.0120
  347MOL0     C47754   1.396   3.924   3.308 -0.2377 -0.3262  1.5793
  347MOL0     C47755   1.402   4.047   3.238 -0.5829 -0.7858 -0.0857
  347MOL0     O47756   1.342   4.076   3.115  0.5101  0.5208  0.1253
  347MOL0     C47757   1.288   3.978   3.022 -0.3717  0.7841 -0.7172
  347MOL0     C47758   1.284   4.038   2.881 -0.3280 -0.0397  0.0527
  347MOL0     C47759   1.220   3.946   2.777  0.9164  0.8203  0.3519
  347MOL0     C47760   1.180   4.017   2.648 -0.5632  0.4011  0.0727
  347MOL0     C47761   1.122   3.930   2.541 -0.5671  0.2281  0.3472
  347MOL0     C47762   1.106   4.009   2.406  0.0930  1.1316 -0.5755
  347MOL0     C47763   1.043   3.930   2.298  0.1649  0.3853  0.4087
  347MOL0     C47764   1.134   3.809   2.257 -0.1916 -0.1271  0.3581
  347MOL0     N47765   1.268   3.836   2.201  1.1174  0.1890 -0.7617
  347MOL0     C47766   1.314   3.917   2.102  0.6171 -0.1745 -0.0635
  347MOL0     C47767   1.442   3.886   2.072  0.0466  0.3906  0.1843
  347MOL0     C47768   1.521   3.949   1.969  0.4684 -0.2216  0.1107
  347MOL0     C47769   1.616   4.057   2.028  0.6334 -0.5330  0.3685
  347MOL0     C47770   1.694   4.145   1.923  0.0697  0.1761 -0.3140
  347MOL0     C47771   1.756   4.068   1.805  0.7483  0.2569  0.6927
  347MOL0     O47772   1.667   4.036   1.699  0.2394  0.0473 -0.6107
  347MOL0     C47773   1.655   4.095   1.579 -0.6497 -0.4814  0.2666
  347MOL0     C47774   1.666   4.239   1.558 -0.2136  1.4759 -0.3540
  347MOL0     C47775   1.651   4.287   1.429  0.6759 -0.7408 -0.1118
  347MOL0     C47776   1.655   4.439   1.419  0.6771 -0.0857 -0.4537
  347MOL0     C47777   1.631   4.199   1.321  0.6509  0.4491 -1.0339
  347MOL0     C47778   1.580   4.245   1.194  0.6569  0.3174  0.2570
  347MOL0     O47779   1.478   4.173   1.136  0.6288  0.1410  0.2110
  347MOL0     C47780   1.434   4.211   1.010  0.3370  0.3739 -0.0227
  347MOL0     C47781   1.313   4.285   0.988 -0.0460 -0.7434  0.4050
  347MOL0     C47782   1.280   4.337   0.861  0.6084  0.2591 -0.2632
  347MOL0     C47783   1.358   4.305   0.750 -0.7019 -0.2159  1.4507
  347MOL0     O47784   1.345   4.343   0.614 -0.5068  0.1188 -0.7550
  347MOL0     C47785   1.225   4.402   0.578 -0.1351 -0.2025  0.0035
  347MOL0     C47786   1.238   4.551   0.605  0.3663 -0.1872  0.0426
  347MOL0     C47787   1.107   4.627   0.584 -0.4208  0.2950  0.3403
  347MOL0     C47788   1.134   4.771   0.537 -0.6633 -0.0074  0.6289
  347MOL0     C47789   1.014   4.856   0.581 -0.4525 -0.8384 -0.5363
  347MOL0     C47790   0.878   4.811   0.506  0.3271  0.4013  0.0884
  347MOL0     C47791   0.760   4.893   0.570 -0.0911  0.5120  0.1715
  347MOL0     C47792   0.632   4.870   0.487 -0.4698  0.0098 -1.1058
  347MOL0    Cl47793   0.651   4.947   0.331 -0.2848 -0.1663 -0.0520
  347MOL0     C47794   1.470   4.226   0.771  0.3698  0.7798  0.9901
  347MOL0     C47795   1.514   4.192   0.902 -0.1701  0.0608 -0.0966
  347MOL0     O47796   1.649   4.339   1.144 -0.1119 -0.6224  0.1060
  347MOL0     C47797   1.624   4.062   1.350  0.4824  0.4505  0.1437
  347MOL0     C47798   1.630   4.008   1.480  0.7209 -0.4521  0.3055
  347MOL0     N47799   1.475   3.778   2.155  0.0108 -0.7339  0.0858
  347MOL0     N47800   1.365   3.745   2.230  0.5050  0.9501  0.1648
  347MOL0     C47801   1.477   4.154   3.300  0.7804  0.0571 -0.1725
  347MOL0     C47802   1.545   4.136   3.417  0.4308  0.0057  0.2578
  347MOL0     C47803   1.779   3.973   3.740  0.3121 -0.4027 -0.8287
  347MOL0     C47804   1.878   4.059   3.782 -0.3691 -0.4462  0.4139
  347MOL0     C47805   1.928   4.063   3.914 -0.6943 -0.9472 -0.4912
  347MOL0     C47806   1.882   3.976   4.009  0.0722  0.7936 -0.0722
  347MOL0     O47807   1.940   3.971   4.130 -0.1305  0.1715 -0.1448
  347MOL0     C47808   2.038   3.863   4.155 -0.2332 -0.0603  0.0511
  347MOL0     C47809   2.107   3.879   4.287  0.6680  0.2887  0.0480
  347MOL0     C47810   2.230   3.785   4.307  0.7924  0.5186  0.3482
  347MOL0     C47811   2.187   3.642   4.352 -0.3678 -0.4644 -0.3789
  347MOL0     C47812   2.308   3.560   4.375 -0.2880 -0.0197 -0.4354
  347MOL0     C47813   2.414   3.502   4.409  1.4791  0.4769 -1.0732
  347MOL0     C47814   1.781   3.888   3.966  0.1487 -0.4308  0.1915
  347MOL0     C47815   1.722   3.888   3.840 -0.1112 -0.3008 -0.2272
  347MOL0     C47816   1.613   3.793   3.809 -0.7253  0.6542 -0.5443
  347MOL0     H47817   1.435   3.804   3.465  0.5031 -1.3080 -1.6847
  347MOL0     H47818   1.331   3.852   3.258 -0.7191  0.5034  0.9800
  347MOL0     H47819   1.189   3.956   3.061  1.1383 -0.4184  2.8685
  347MOL0     H47820   1.350   3.888   3.029  1.4030  2.0121  0.4697
  347MOL0     H47821   1.224   4.130   2.880  0.3745  0.4324  0.5702
  347MOL0     H47822   1.386   4.063   2.849  1.2026 -2.9706  2.2139
  347MOL0     H47823   1.278   3.856   2.752 -1.2804 -0.1374 -1.6167
  347MOL0     H47824   1.128   3.902   2.816  1.8812 -1.4682  0.1845
  347MOL0     H47825   1.116   4.105   2.658  1.0739  1.5625  0.8199
  347MOL0     H47826   1.279   4.046   2.609  0.2496 -1.8883  0.2619
  347MOL0     H47827   1.032   3.873   2.569 -1.8112  1.3649 -1.1581
  347MOL0     H47828   1.196   3.851   2.523 -1.1916 -0.9835  2.7262
  347MOL0     H47829   1.049   4.097   2.439 -0.0736  0.4985  0.8720
  347MOL0     H47830   1.209   4.030   2.375  0.0204  0.6031 -1.1842
  347MOL0     H47831   1.020   3.990   2.210 -2.3682 -1.3022 -0.2004
  347MOL0     H47832   0.950   3.879   2.324 -0.9386  1.7990 -0.6366
  347MOL0     H47833   1.130   3.741   2.343 -0.0828  1.2114  1.4618
  347MOL0     H47834   1.095   3.744   2.179 -0.5375 -1.1551  1.3580
  347MOL0     H47835   1.267   4.003   2.055 -1.3730 -0.8532  0.5934
  347MOL0     H47836   1.457   3.994   1.892  0.3906 -1.7487 -0.7407
  347MOL0     H47837   1.593   3.879   1.926 -0.8240 -2.2585  1.1050
  347MOL0     H47838   1.566   4.125   2.096 -2.3780 -0.2465 -1.9437
  347MOL0     H47839   1.696   4.009   2.086  1.2011 -1.9520 -1.4541
  347MOL0     H47840   1.625   4.219   1.881 -0.1145  1.2331  1.7053
  347MOL0     H47841   1.774   4.189   1.982  0.3740 -0.9058  0.1090
  347MOL0     H47842   1.844   4.124   1.773  1.0398  1.1609  2.8495
  347MOL0     H47843   1.791   3.967   1.832 -1.6881 -1.2173 -1.2094
  347MOL0     H47844   1.698   4.306   1.638 -0.4171  0.7697  0.3282
  347MOL0     H47845   1.615   4.486   1.510  0.0297 -1.4583 -0.0040
  347MOL0     H47846   1.588   4.478   1.342  0.1221 -1.0837 -0.4841
  347MOL0     H47847   1.757   4.472   1.398  0.7990 -0.6031 -0.6761
  347MOL0     H47848   1.259   4.301   1.081 -1.9910 -3.5141 -0.1100
  347MOL0     H47849   1.186   4.390   0.854 -0.9252 -2.2883 -0.0406
  347MOL0     H47850   1.202   4.375   0.474 -2.8536  1.1585  0.1617
  347MOL0     H47851   1.139   4.363   0.632 -2.2418  1.5112 -1.9152
  347MOL0     H47852   1.268   4.568   0.709  2.3581 -4.5776  0.3820
  347MOL0     H47853   1.320   4.582   0.539 -0.9432 -0.4280 -1.7648
  347MOL0     H47854   1.062   4.645   0.682  1.3894  2.8564  0.7825
  347MOL0     H47855   1.035   4.566   0.528  0.5282 -1.9546  1.4426
  347MOL0     H47856   1.128   4.775   0.428 -1.7121 -2.0279  0.5643
  347MOL0     H47857   1.227   4.822   0.564 -0.9484 -0.2768  2.2197
  347MOL0     H47858   1.007   4.846   0.690 -1.1083  3.2042 -0.0284
  347MOL0     H47859   1.025   4.962   0.557 -4.3441  0.9831  4.0559
  347MOL0     H47860   0.840   4.708   0.510 -1.1443  0.8105 -1.6930
  347MOL0     H47861   0.895   4.832   0.400  2.5572  2.3683  0.7479
  347MOL0     H47862   0.774   5.002   0.570  0.9769  0.4378  2.9878
  347MOL0     H47863   0.756   4.850   0.670 -0.9214  0.2797  0.0472
  347MOL0     H47864   0.547   4.913   0.541  0.4544  2.1755 -1.2619
  347MOL0     H47865   0.606   4.765   0.468 -2.3551  0.9304 -4.3223
  347MOL0     H47866   1.536   4.202   0.688 -0.8364  2.5961 -0.5831
  347MOL0     H47867   1.613   4.148   0.912 -0.4781 -0.9952 -1.3952
  347MOL0     H47868   1.604   4.011   1.257  2.3424  0.9002 -0.5476
  347MOL0     H47869   1.609   3.905   1.508  4.2504 -1.0352  1.3678
  347MOL0     H47870   1.498   4.242   3.241  0.0487 -0.7281 -1.6605
  347MOL0     H47871   1.603   4.216   3.461 -0.9831  1.1964  0.0386
  347MOL0     H47872   1.925   4.134   3.719  0.2025 -0.9140  0.2788
  347MOL0     H47873   2.005   4.138   3.931  0.1095 -1.3822 -2.0776
  347MOL0     H47874   1.985   3.768   4.143 -0.9656  0.5427 -1.8112
  347MOL0     H47875   2.120   3.882   4.086 -0.3502  0.8763  0.1512
  347MOL0     H47876   2.028   3.861   4.361  0.4668 -0.0928 -0.2543
  347MOL0     H47877   2.135   3.984   4.297 -1.5967  0.8677  0.9803
  347MOL0     H47878   2.303   3.795   4.226  1.1440  3.4275  0.9202
  347MOL0     H47879   2.275   3.830   4.396 -1.0234  2.7957  0.2044
  347MOL0     H47880   2.117   3.599   4.280  1.8469 -1.8051 -1.8408
  347MOL0     H47881   2.129   3.656   4.444  0.2473  0.9759 -0.1877
  347MOL0     H47882   2.499   3.450   4.448  0.6800  1.1855  1.8673
  347MOL0     H47883   1.742   3.839   4.054 -1.4375 -0.4853 -0.5149
  347MOL0     H47884   1.604   3.766   3.703 -1.3687  2.0783 -0.8747
  347MOL0     H47885   1.627   3.701   3.867  3.6715  1.3819 -0.1311
  347MOL0     H47886   1.517   3.838   3.834 -1.0734 -1.5981  2.7025
  348MOL0     O47887   9.701   4.140  10.752  0.5027  0.5143  0.4476
  348MOL0     C47888   9.782   4.226  10.731  0.3720 -0.0623 -0.8642
  348MOL0     O47889   9.874   4.224  10.632  0.5993 -0.3452  0.5660
  348MOL0     C47890   9.864   4.127  10.534 -0.2941  1.3287  0.0461
  348MOL0     C47891   9.881   3.995  10.572  0.2278 -0.7297 -0.4003
  348MOL0     C47892   9.883   3.889  10.480  0.0331 -0.1185 -0.1616
  348MOL0     C47893   9.870   3.913  10.339  0.6810 -0.3766 -0.3970
  348MOL0     O47894   9.874   3.824  10.243 -1.2582  0.4100  0.4495
  348MOL0     C47895   9.946   3.701  10.262  0.5891 -0.1741  0.5544
  348MOL0     C47896   9.968   3.630  10.127 -0.8855  0.8721 -0.0988
  348MOL0     C47897  10.084   3.684  10.042 -0.5148  0.0293 -0.1717
  348MOL0     C47898  10.048   3.814   9.965 -0.0889  0.1703 -0.1061
  348MOL0     C47899  10.176   3.864   9.885 -0.1836 -0.4799  0.0608
  348MOL0     C47900  10.144   4.005   9.818  0.1988  1.2533  0.3418
  348MOL0     C47901  10.275   4.067   9.765 -0.2415  0.4588 -0.1902
  348MOL0     C47902  10.260   4.224   9.751 -0.5326 -0.3357 -0.0780
  348MOL0     N47903  10.213   4.298   9.871  0.3059  0.6153 -0.2240
  348MOL0     C47904  10.085   4.312   9.921  0.1482 -0.0745  0.0517
  348MOL0     C47905  10.099   4.400  10.024  0.2219  0.2775 -0.1897
  348MOL0     C47906  10.000   4.456  10.113 -0.0977 -0.1143  0.2664
  348MOL0     C47907  10.063   4.543  10.224  0.2192  0.1048 -0.0092
  348MOL0     C47908  10.150   4.470  10.329 -0.2145  0.1455 -0.1593
  348MOL0     C47909  10.178   4.580  10.440  0.4549 -0.8535  0.3740
  348MOL0     O47910  10.246   4.693  10.388  0.9102  0.5828  0.2258
  348MOL0     C47911  10.378   4.666  10.412 -1.2689 -0.2382  0.1849
  348MOL0     C47912  10.425   4.713  10.530 -0.7064 -0.1646  0.6968
  348MOL0     C47913  10.558   4.703  10.569  0.8782  0.7230  1.2479
  348MOL0     C47914  10.600   4.800  10.675 -0.9788 -0.4956 -0.4813
  348MOL0     C47915  10.652   4.621  10.500  0.7549  0.0877  1.5535
  348MOL0     C47916  10.779   4.576  10.554 -0.7597  0.7641  0.8481
  348MOL0     O47917  10.871   4.511  10.464  0.4074 -0.5721  0.2243
  348MOL0     C47918  10.993   4.495  10.514 -0.2074 -0.0751  0.1326
  348MOL0     C47919  11.104   4.584  10.462 -0.8951  0.4365 -0.9121
  348MOL0     C47920  11.236   4.552  10.500  1.4266 -0.4816  0.3983
  348MOL0     C47921  11.264   4.443  10.584  0.2176 -0.2567 -0.1359
  348MOL0     O47922  11.392   4.412  10.609  0.4438  0.8544  0.0794
  348MOL0     C47923  11.469   4.516  10.661 -0.2475  0.3105  0.8024
  348MOL0     C47924  11.592   4.451  10.725 -0.5261 -0.2549 -0.9841
  348MOL0     C47925  11.675   4.557  10.799 -0.4563  0.5387 -0.1385
  348MOL0     C47926  11.806   4.512  10.855  0.4711 -0.6923 -0.1150
  348MOL0     C47927  11.802   4.465  10.996  0.3661  0.1338  0.7710
  348MOL0     C47928  11.877   4.331  11.003  0.1522 -0.8458 -0.5225
  348MOL0     C47929  11.909   4.273  11.149 -0.4667 -0.4726 -0.2778
  348MOL0     C47930  11.940   4.117  11.155 -0.2194 -0.4885 -0.2942
  348MOL0    Cl47931  12.119   4.100  11.194 -0.4050  0.3530 -0.4792
  348MOL0     C47932  11.162   4.357  10.628 -0.0388  0.8720 -0.7495
  348MOL0     C47933  11.027   4.391  10.597 -0.5376  0.0790  0.9168
  348MOL0     O47934  10.799   4.594  10.672 -0.0154 -1.4047 -0.2791
  348MOL0     C47935  10.597   4.561  10.382 -1.5092  0.2911 -0.6123
  348MOL0     C47936  10.470   4.593  10.330  0.1672  0.5938 -0.4421
  348MOL0     N47937  10.230   4.438  10.032  0.6896  0.4949 -0.9221
  348MOL0     N47938  10.297   4.385   9.938  0.3588 -0.8835  0.5667
  348MOL0     C47939   9.843   4.040  10.298 -0.0615 -0.5314 -0.3741
  348MOL0     C47940   9.844   4.154  10.394  0.2177  0.9841  0.3978
  348MOL0     C47941   9.761   4.339  10.817 -1.0150  0.0342 -0.1535
  348MOL0     C47942   9.692   4.325  10.936 -0.4902  0.4209 -0.2386
  348MOL0     C47943   9.655   4.435  11.013  0.6087  0.1519  0.0124
  348MOL0     C47944   9.687   4.559  10.972 -0.8669  0.5803  1.0207
  348MOL0     O47945   9.671   4.668  11.050  0.1564  1.1052 -0.1838
  348MOL0     C47946   9.541   4.690  11.114  0.9592  0.5360  1.4134
  348MOL0     C47947   9.457   4.779  11.021  0.5924  0.3024 -0.4799
  348MOL0     C47948   9.315   4.785  11.078  0.3104 -0.5140  0.4727
  348MOL0     C47949   9.221   4.861  10.988 -0.4540  0.4086  0.2291
  348MOL0     C47950   9.122   4.945  11.065  0.9669  0.0093 -0.5428
  348MOL0     C47951   9.047   5.016  11.135  0.3492  0.4990 -0.4192
  348MOL0     C47952   9.758   4.576  10.854  1.0247  0.1708 -0.6622
  348MOL0     C47953   9.786   4.470  10.769 -0.2950 -0.5684 -1.0964
  348MOL0     C47954   9.865   4.509  10.654 -0.4450  0.8771 -0.3030
  348MOL0     H47955   9.894   3.961  10.674  2.3337 -0.3660 -0.5081
  348MOL0     H47956   9.891   3.789  10.521  1.8727 -0.0565 -0.2847
  348MOL0     H47957   9.896   3.641  10.338  1.8240 -0.7713  0.9120
  348MOL0     H47958  10.045   3.734  10.296  1.2494 -0.8717 -0.6209
  348MOL0     H47959  10.000   3.528  10.151 -3.4181  0.5945  2.8396
  348MOL0     H47960   9.880   3.624  10.062 -2.2480  0.7439  1.6800
  348MOL0     H47961  10.160   3.707  10.117  0.0113  2.7471 -1.3862
  348MOL0     H47962  10.112   3.603   9.974 -0.4273 -0.1697  0.1004
  348MOL0     H47963   9.958   3.797   9.906 -0.6817  2.3049  0.1109
  348MOL0     H47964  10.006   3.897  10.023 -3.7794 -0.7907 -1.1964
  348MOL0     H47965  10.216   3.793   9.812 -1.1768  0.6113 -1.5981
  348MOL0     H47966  10.259   3.889   9.952  0.8959  0.4890 -1.5616
  348MOL0     H47967  10.071   3.991   9.738  0.1849  1.9840  0.2219
  348MOL0     H47968  10.109   4.064   9.903  0.7518 -1.6962  2.8102
  348MOL0     H47969  10.310   4.008   9.680 -0.6217 -2.0567  1.2882
  348MOL0     H47970  10.352   4.056   9.842 -0.3422  1.8521  0.1214
  348MOL0     H47971  10.357   4.264   9.722 -0.6160  3.5147  3.9558
  348MOL0     H47972  10.191   4.255   9.673 -0.6984  1.5787  0.7830
  348MOL0     H47973   9.994   4.259   9.894 -0.0034 -0.3183  1.0192
  348MOL0     H47974   9.955   4.368  10.159  3.3135 -1.7013  0.8817
  348MOL0     H47975   9.924   4.514  10.058  0.3759  0.8646  0.6307
  348MOL0     H47976  10.115   4.632  10.187 -0.3818  0.4647 -0.0069
  348MOL0     H47977   9.976   4.584  10.275 -0.6050 -0.6749 -0.7438
  348MOL0     H47978  10.120   4.371  10.365 -1.7409  0.7877  0.4123
  348MOL0     H47979  10.245   4.444  10.282 -0.2741 -1.0298  0.3413
  348MOL0     H47980  10.078   4.615  10.464 -0.9573 -2.1923 -2.8745
  348MOL0     H47981  10.227   4.535  10.527  1.1347  1.7356  1.4048
  348MOL0     H47982  10.349   4.770  10.581 -0.1431  2.3135 -1.0712
  348MOL0     H47983  10.701   4.841  10.662 -1.5096  0.3265 -2.2978
  348MOL0     H47984  10.587   4.751  10.772 -1.8510 -0.8506 -0.7680
  348MOL0     H47985  10.536   4.888  10.662  0.2270  1.1627  3.3185
  348MOL0     H47986  11.088   4.663  10.390  0.9912  2.5135  0.8055
  348MOL0     H47987  11.314   4.616  10.459  1.4675 -0.0883  1.0783
  348MOL0     H47988  11.490   4.586  10.579 -1.2462 -2.2886 -1.8704
  348MOL0     H47989  11.414   4.565  10.742 -3.7975 -0.1780 -1.1150
  348MOL0     H47990  11.570   4.367  10.791  5.4692  0.5302  2.8188
  348MOL0     H47991  11.657   4.413  10.646  0.6773  1.5467 -0.9267
  348MOL0     H47992  11.620   4.613  10.875  3.7878  0.9179  3.0601
  348MOL0     H47993  11.704   4.628  10.722  1.1988  0.9509  0.7930
  348MOL0     H47994  11.870   4.601  10.853  1.3530 -1.2471  1.4404
  348MOL0     H47995  11.843   4.441  10.781 -0.0346 -1.8808  0.7391
  348MOL0     H47996  11.849   4.536  11.065 -1.8911 -1.3557  4.1130
  348MOL0     H47997  11.695   4.457  11.021 -0.5726  1.6812 -2.3087
  348MOL0     H47998  11.974   4.340  10.953  0.2064 -4.1122 -1.1882
  348MOL0     H47999  11.815   4.259  10.949 -0.1345 -1.5771  0.7376
  348MOL0     H48000  11.827   4.280  11.220 -1.6078  1.5378 -1.6964
  348MOL0     H48001  11.997   4.319  11.195 -0.8080 -2.5868  2.7160
  348MOL0     H48002  11.920   4.059  11.065  0.4803 -1.1230 -0.0513
  348MOL0     H48003  11.896   4.064  11.240  1.3297  0.7979  1.4096
  348MOL0     H48004  11.193   4.276  10.693 -1.4420 -0.1449 -1.2923
  348MOL0     H48005  10.950   4.319  10.620  0.2728 -1.6865 -1.5063
  348MOL0     H48006  10.659   4.491  10.327  0.2435 -0.2677  1.8899
  348MOL0     H48007  10.438   4.564  10.230 -2.2359 -0.6657  0.6179
  348MOL0     H48008   9.818   4.065  10.196  1.3815  2.2811 -0.1493
  348MOL0     H48009   9.811   4.246  10.347 -0.8695  0.9685  1.0882
  348MOL0     H48010   9.677   4.224  10.971 -0.7704 -0.8100 -3.5802
  348MOL0     H48011   9.610   4.416  11.110  1.0708  1.5332  0.5136
  348MOL0     H48012   9.495   4.598  11.149  0.8825 -0.1540 -0.4284
  348MOL0     H48013   9.542   4.765  11.194 -0.9429  1.3309  0.7477
  348MOL0     H48014   9.463   4.732  10.923 -0.7650 -0.2264 -0.3323
  348MOL0     H48015   9.499   4.880  11.034  0.9227 -0.0001  1.0153
  348MOL0     H48016   9.283   4.681  11.079  3.4757 -1.6050  1.8620
  348MOL0     H48017   9.310   4.821  11.182 -1.6767 -2.5799  1.1896
  348MOL0     H48018   9.161   4.790  10.931 -0.4657 -0.3057  1.1109
  348MOL0     H48019   9.271   4.919  10.910 -1.0247 -1.5143 -1.6653
  348MOL0     H48020   8.987   5.076  11.199  2.9465 -0.6831  3.4747
  348MOL0     H48021   9.795   4.677  10.835  0.2224  0.9419  1.5716
  348MOL0     H48022   9.898   4.613  10.668  0.8405  0.2310  2.2644
  348MOL0     H48023   9.954   4.446  10.649  0.1808  1.5456  1.5358
  348MOL0     H48024   9.805   4.499  10.564 -0.4776  3.2586 -0.6267
  349MOL0     O48025   7.255  11.090  10.154 -0.0901 -0.2297 -0.1504
  349MOL0     C48026   7.184  11.165  10.218 -0.1384 -0.8096  0.6150
  349MOL0     O48027   7.051  11.145  10.245 -0.2178 -0.4889  0.2597
  349MOL0     C48028   6.974  11.066  10.163 -0.0100 -0.3145 -0.4668
  349MOL0     C48029   6.853  11.115  10.116  0.6717 -0.2886  0.1339
  349MOL0     C48030   6.764  11.050  10.019 -1.1715 -0.4732  0.1588
  349MOL0     C48031   6.817  10.934   9.970  0.2328  0.3250  0.4326
  349MOL0     O48032   6.745  10.868   9.873  0.1452 -0.0720 -0.0883
  349MOL0     C48033   6.783  10.747   9.805  0.1642 -0.0432  0.4690
  349MOL0     C48034   6.689  10.717   9.687 -0.5989 -0.1195 -0.1777
  349MOL0     C48035   6.554  10.665   9.745  0.0457  0.2540  0.5096
  349MOL0     C48036   6.505  10.552   9.651  0.8782 -0.4818 -0.2417
  349MOL0     C48037   6.362  10.503   9.690 -0.1671 -0.1071 -0.3245
  349MOL0     C48038   6.326  10.370   9.628  0.2365 -0.3656  0.6777
  349MOL0     C48039   6.174  10.333   9.645  0.3457 -0.9556 -0.2438
  349MOL0     C48040   6.132  10.230   9.533 -0.1018 -0.6233  1.0539
  349MOL0     N48041   6.188  10.098   9.565  0.1105 -0.5940 -0.2327
  349MOL0     C48042   6.321  10.067   9.538 -0.9650 -0.2890 -1.0216
  349MOL0     C48043   6.339   9.938   9.592  0.4155 -0.9671 -0.0261
  349MOL0     C48044   6.465   9.860   9.587  0.6286  0.2069 -0.1243
  349MOL0     C48045   6.479   9.734   9.675 -0.4811 -0.1422 -0.2612
  349MOL0     C48046   6.586   9.632   9.621 -0.1022 -0.4655  0.1031
  349MOL0     C48047   6.623   9.547   9.738 -0.2371 -0.1757 -0.3129
  349MOL0     O48048   6.713   9.442   9.708  0.2511 -0.2142  0.1081
  349MOL0     C48049   6.695   9.329   9.780 -0.3945 -0.3166 -0.9591
  349MOL0     C48050   6.744   9.215   9.719  0.0139  0.8212 -0.2241
  349MOL0     C48051   6.774   9.098   9.793  0.3074 -0.0912  0.5479
  349MOL0     C48052   6.857   8.999   9.719 -0.1444 -0.9395  0.4362
  349MOL0     C48053   6.734   9.092   9.927  0.2997  0.8999 -0.2776
  349MOL0     C48054   6.749   8.968  10.021 -0.8014 -0.4649  0.0044
  349MOL0     O48055   6.732   8.984  10.161  0.3299  0.2114 -0.3945
  349MOL0     C48056   6.730   8.871  10.236  0.3565 -0.5671 -0.9890
  349MOL0     C48057   6.816   8.860  10.346  1.0522 -0.0447  0.0751
  349MOL0     C48058   6.795   8.759  10.437 -1.5294  0.7255  0.0690
  349MOL0     C48059   6.710   8.654  10.413 -1.1888 -0.4674  0.7359
  349MOL0     O48060   6.692   8.549  10.510 -0.8179 -0.4561 -0.3766
  349MOL0     C48061   6.798   8.497  10.594 -1.0785 -0.3946  0.2035
  349MOL0     C48062   6.769   8.374  10.666 -0.0011  0.0858 -0.0468
  349MOL0     C48063   6.751   8.250  10.571 -0.1282  0.4630  0.0065
  349MOL0     C48064   6.699   8.122  10.642  0.6948 -1.2974 -0.6038
  349MOL0     C48065   6.742   7.994  10.570 -0.6819  0.6071 -0.4575
  349MOL0     C48066   6.668   7.876  10.648 -0.2942  0.0927 -0.1399
  349MOL0     C48067   6.527   7.844  10.606  0.1961  0.2594  0.6745
  349MOL0     C48068   6.519   7.736  10.493  0.5106 -0.5778  0.1803
  349MOL0    Cl48069   6.352   7.727  10.431 -0.2521  0.3349  0.3414
  349MOL0     C48070   6.632   8.651  10.297 -0.0729 -0.1228  0.2989
  349MOL0     C48071   6.644   8.758  10.198  0.4217 -0.0239 -0.8170
  349MOL0     O48072   6.766   8.857   9.960  0.1525  0.2305  0.0780
  349MOL0     C48073   6.670   9.200   9.983  0.4655 -0.4693 -0.0733
  349MOL0     C48074   6.659   9.317   9.918  0.4380 -0.1602 -0.8489
  349MOL0     N48075   6.219   9.911   9.661 -0.3219 -0.0311 -0.5791
  349MOL0     N48076   6.128  10.003   9.640 -0.1257 -0.0133  0.0315
  349MOL0     C48077   6.941  10.881  10.014  1.2121 -0.1793 -0.3614
  349MOL0     C48078   7.015  10.942  10.111 -0.7441 -0.6189 -0.2809
  349MOL0     C48079   7.237  11.283  10.286  0.4147  1.2633  0.3361
  349MOL0     C48080   7.152  11.343  10.386 -0.4297 -0.2316 -0.3661
  349MOL0     C48081   7.204  11.441  10.481  1.4736 -0.2943 -0.0402
  349MOL0     C48082   7.330  11.493  10.476 -0.2171  0.3587 -0.3851
  349MOL0     O48083   7.366  11.587  10.556  0.0659 -0.5010  0.1021
  349MOL0     C48084   7.483  11.663  10.529  0.3176 -0.2907 -0.7132
  349MOL0     C48085   7.501  11.773  10.632  0.4848 -0.0374 -0.3860
  349MOL0     C48086   7.443  11.912  10.594 -0.5318 -0.2044 -0.7231
  349MOL0     C48087   7.288  11.900  10.556 -0.4279  0.3844 -0.6065
  349MOL0     C48088   7.239  12.041  10.570  0.0092 -0.7410 -0.6884
  349MOL0     C48089   7.176  12.145  10.567  0.4563 -0.2303 -0.2286
  349MOL0     C48090   7.416  11.429  10.387 -0.7466  0.1983  0.1892
  349MOL0     C48091   7.366  11.335  10.289 -1.5562 -0.1998 -0.6376
  349MOL0     C48092   7.470  11.309  10.177 -0.2430 -1.0782  0.1889
  349MOL0     H48093   6.825  11.208  10.164  4.1603  2.9168 -3.2728
  349MOL0     H48094   6.673  11.093   9.976 -1.3621  1.8668  2.6374
  349MOL0     H48095   6.789  10.660   9.872  1.0890  0.9173  1.6729
  349MOL0     H48096   6.881  10.762   9.760 -0.0991  0.8638  0.1813
  349MOL0     H48097   6.676  10.804   9.622  0.8969 -2.7364 -4.3573
  349MOL0     H48098   6.739  10.646   9.621  0.7389  1.4524 -0.9139
  349MOL0     H48099   6.571  10.618   9.842 -0.2665 -1.4181 -0.1992
  349MOL0     H48100   6.477  10.736   9.775  0.4988  1.1047 -0.2835
  349MOL0     H48101   6.506  10.587   9.547  1.2245  2.1830  0.5895
  349MOL0     H48102   6.572  10.466   9.656  0.0493 -1.3547 -2.6710
  349MOL0     H48103   6.287  10.581   9.670  0.0003  0.1933  0.2018
  349MOL0     H48104   6.362  10.491   9.799 -2.0068 -0.3693 -0.3210
  349MOL0     H48105   6.345  10.374   9.521  1.1298 -4.9487  0.4568
  349MOL0     H48106   6.390  10.289   9.664  0.7825 -0.2439 -0.0248
  349MOL0     H48107   6.115  10.421   9.616 -0.5840 -2.1890 -2.3169
  349MOL0     H48108   6.145  10.300   9.745 -2.0581 -1.6095 -1.1026
  349MOL0     H48109   6.024  10.225   9.522  0.0417  0.0040 -1.2632
  349MOL0     H48110   6.164  10.252   9.431 -0.1653 -0.7229  1.0135
  349MOL0     H48111   6.388  10.139   9.490  0.2927  1.8046  3.3273
  349MOL0     H48112   6.543   9.932   9.613 -0.7848  2.2419 -1.2909
  349MOL0     H48113   6.488   9.845   9.481 -0.2066  1.9981 -0.5941
  349MOL0     H48114   6.500   9.765   9.778  1.8408  1.1034 -1.0399
  349MOL0     H48115   6.382   9.683   9.680 -0.9942  0.6946 -1.2885
  349MOL0     H48116   6.537   9.573   9.543 -0.7941 -0.0751  0.2326
  349MOL0     H48117   6.675   9.674   9.574 -1.4887 -0.5922 -2.8930
  349MOL0     H48118   6.674   9.600   9.819  1.9449  0.9742 -2.3455
  349MOL0     H48119   6.532   9.502   9.780 -0.1518  1.6472  2.0341
  349MOL0     H48120   6.775   9.222   9.615  1.4342  2.7569  0.2654
  349MOL0     H48121   6.920   8.935   9.781 -0.3759 -1.6104 -0.0172
  349MOL0     H48122   6.916   9.048   9.641  0.6254 -2.1054  0.2715
  349MOL0     H48123   6.786   8.942   9.658 -0.7136  1.5808 -1.4373
  349MOL0     H48124   6.887   8.936  10.376  0.6182  0.4362 -0.1017
  349MOL0     H48125   6.857   8.759  10.527  1.4003 -2.9519 -1.6891
  349MOL0     H48126   6.889   8.485  10.534 -1.7582  5.4987 -2.7089
  349MOL0     H48127   6.821   8.574  10.668 -1.6358 -1.7490  1.8580
  349MOL0     H48128   6.858   8.364  10.730 -0.2406  0.4056  0.3403
  349MOL0     H48129   6.673   8.379  10.717  1.6793  0.4755  3.4095
  349MOL0     H48130   6.849   8.221  10.534  0.1037 -1.2368  1.7624
  349MOL0     H48131   6.682   8.271  10.489  0.4277 -3.2299 -1.5846
  349MOL0     H48132   6.594   8.124  10.672  1.1005  2.3919  1.2042
  349MOL0     H48133   6.747   8.132  10.740 -1.9152  3.4223  0.4605
  349MOL0     H48134   6.721   7.992  10.462 -1.6300 -0.0790 -0.2791
  349MOL0     H48135   6.850   7.985  10.580 -0.8784 -0.4444  1.0474
  349MOL0     H48136   6.678   7.895  10.755  1.9259  3.0294 -0.7217
  349MOL0     H48137   6.725   7.787  10.618 -0.0808 -0.0334  0.6373
  349MOL0     H48138   6.481   7.937  10.571  0.9146 -0.2480 -1.8352
  349MOL0     H48139   6.469   7.831  10.698  3.8561  0.6065  3.2425
  349MOL0     H48140   6.542   7.638  10.536 -1.8340 -0.9134  0.8094
  349MOL0     H48141   6.593   7.762  10.417  0.1053 -0.1052 -0.0597
  349MOL0     H48142   6.575   8.564  10.268 -0.5987 -0.6249  2.6390
  349MOL0     H48143   6.595   8.762  10.102 -1.2491  1.9571  0.0565
  349MOL0     H48144   6.643   9.195  10.088  0.0989 -1.8863 -0.2099
  349MOL0     H48145   6.615   9.399   9.973 -0.7902 -0.9809 -0.5505
  349MOL0     H48146   6.963  10.780   9.980 -0.0599 -0.6139  0.0347
  349MOL0     H48147   7.109  10.894  10.136  0.4899  1.7607 -0.0676
  349MOL0     H48148   7.047  11.317  10.396 -0.5878  0.8909  1.2521
  349MOL0     H48149   7.136  11.470  10.560  0.4265 -1.1168 -0.6166
  349MOL0     H48150   7.576  11.607  10.535  1.4434  1.4475 -1.2613
  349MOL0     H48151   7.465  11.700  10.427 -0.9682 -0.9565 -0.7440
  349MOL0     H48152   7.608  11.784  10.650  0.8388  0.0057 -2.3191
  349MOL0     H48153   7.439  11.753  10.720  0.5070  0.3113 -0.2869
  349MOL0     H48154   7.450  11.984  10.676  0.3819  1.2406 -2.0295
  349MOL0     H48155   7.505  11.948  10.512 -0.4952 -0.4692 -0.8149
  349MOL0     H48156   7.237  11.830  10.622  1.7975  2.1114  3.2446
  349MOL0     H48157   7.283  11.868  10.451 -3.3737 -0.8499 -0.1766
  349MOL0     H48158   7.127  12.239  10.569  1.1116  0.1236  2.2344
  349MOL0     H48159   7.524  11.443  10.390 -0.3487 -2.3857  2.3101
  349MOL0     H48160   7.428  11.283  10.079 -0.3777 -1.2719  0.2984
  349MOL0     H48161   7.515  11.408  10.166  0.7031 -1.6594 -1.7005
  349MOL0     H48162   7.528  11.221  10.207 -1.3483 -1.8831  0.0488
  350MOL0     O48163   4.378   3.117   0.528  0.8597  0.5394  0.4797
  350MOL0     C48164   4.262   3.147   0.492  0.1580 -0.0679  0.0306
  350MOL0     O48165   4.218   3.161   0.360  0.4292 -0.0189  0.0563
  350MOL0     C48166   4.294   3.119   0.251  0.6842  0.1933 -0.1044
  350MOL0     C48167   4.422   3.165   0.221  0.2350  0.1851 -0.4466
  350MOL0     C48168   4.486   3.109   0.104  0.6231 -0.7814 -0.1869
  350MOL0     C48169   4.409   3.025   0.028 -0.3417  0.0619  0.3451
  350MOL0     O48170   4.461   2.952  -0.081 -1.0659 -1.0433  0.2623
  350MOL0     C48171   4.449   3.007  -0.217 -0.2038  0.1553 -0.1193
  350MOL0     C48172   4.484   2.906  -0.319 -0.8364 -0.6938  0.8116
  350MOL0     C48173   4.491   2.960  -0.468  0.0691 -0.8296  0.0605
  350MOL0     C48174   4.576   2.866  -0.560  0.5229 -0.0553  0.6984
  350MOL0     C48175   4.508   2.718  -0.579 -0.4032  0.6724  0.3055
  350MOL0     C48176   4.385   2.722  -0.675 -0.3506 -1.2553 -0.3679
  350MOL0     C48177   4.376   2.577  -0.730 -0.4863  0.2168 -0.0780
  350MOL0     C48178   4.249   2.554  -0.811  0.4767 -0.0957 -0.3995
  350MOL0     N48179   4.237   2.628  -0.931 -0.2001 -0.2003 -0.3415
  350MOL0     C48180   4.122   2.684  -0.994 -0.0049  0.9944  0.0172
  350MOL0     C48181   4.163   2.728  -1.115  0.3765  0.2688 -0.4481
  350MOL0     C48182   4.085   2.801  -1.228 -0.3846 -0.1390  0.1737
  350MOL0     C48183   4.169   2.913  -1.291  0.0776 -0.7855 -0.0728
  350MOL0     C48184   4.115   2.972  -1.423 -0.5877  0.5862  0.5812
  350MOL0     C48185   4.185   3.094  -1.479 -0.2287 -0.8606  0.9951
  350MOL0     O48186   4.325   3.088  -1.475  0.3127  0.7908 -0.6162
  350MOL0     C48187   4.389   3.130  -1.593 -0.0340  0.3050  0.1711
  350MOL0     C48188   4.486   3.223  -1.578 -0.1429 -0.4868  0.0209
  350MOL0     C48189   4.552   3.293  -1.690  0.1918  0.3868 -0.3086
  350MOL0     C48190   4.663   3.397  -1.675 -0.0217 -0.1236 -0.7355
  350MOL0     C48191   4.516   3.237  -1.822 -0.2791  0.1950 -0.4845
  350MOL0     C48192   4.568   3.287  -1.942  0.4381  0.2657  0.1260
  350MOL0     O48193   4.598   3.199  -2.031  0.0715  0.2667  0.4661
  350MOL0     C48194   4.660   3.224  -2.143 -0.7724 -0.0467  0.1958
  350MOL0     C48195   4.750   3.327  -2.160 -0.0714  0.0213  0.4319
  350MOL0     C48196   4.806   3.360  -2.283  0.2382  0.5226 -0.6467
  350MOL0     C48197   4.764   3.293  -2.399  0.0711  0.6477  0.4062
  350MOL0     O48198   4.806   3.315  -2.531 -0.3538 -0.3327 -0.2583
  350MOL0     C48199   4.834   3.450  -2.563  0.4675  0.2157 -0.2867
  350MOL0     C48200   4.879   3.455  -2.710 -0.1571 -0.6549  0.3766
  350MOL0     C48201   4.879   3.605  -2.758 -0.1821  0.4570  0.2708
  350MOL0     C48202   4.964   3.616  -2.885  0.1000  0.1317  0.2456
  350MOL0     C48203   4.905   3.564  -3.018 -0.1026  0.1314  0.6943
  350MOL0     C48204   4.990   3.581  -3.141 -0.7871  0.9533 -0.7208
  350MOL0     C48205   5.008   3.734  -3.182 -0.2042  0.2169 -0.3883
  350MOL0     C48206   4.878   3.802  -3.209 -0.4617  0.8311  0.0904
  350MOL0    Cl48207   4.917   3.975  -3.236 -0.0177  0.4500 -0.1295
  350MOL0     C48208   4.677   3.188  -2.382  1.1145 -0.3701  0.3891
  350MOL0     C48209   4.618   3.158  -2.258 -0.1312 -0.1783  0.5074
  350MOL0     O48210   4.578   3.407  -1.953 -0.1205  0.1729 -0.0964
  350MOL0     C48211   4.432   3.134  -1.832 -0.1393  0.1383  0.1221
  350MOL0     C48212   4.367   3.083  -1.721 -1.3626 -0.2627 -0.4917
  350MOL0     N48213   4.300   2.683  -1.129 -0.2693  0.6160 -0.4651
  350MOL0     N48214   4.343   2.633  -1.019 -0.2861 -0.1127 -0.4208
  350MOL0     C48215   4.278   2.995   0.058  0.4673 -0.1307  0.0220
  350MOL0     C48216   4.219   3.042   0.173  0.2337 -0.4975 -0.2419
  350MOL0     C48217   4.172   3.167   0.603  0.0306  0.3290  0.4109
  350MOL0     C48218   4.059   3.246   0.574  0.2921 -0.4235 -0.0039
  350MOL0     C48219   3.958   3.272   0.669 -0.5396  0.6737  0.5941
  350MOL0     C48220   3.980   3.231   0.798  0.6197 -0.5773 -0.2699
  350MOL0     O48221   3.878   3.250   0.887 -0.1910 -0.5654 -0.2832
  350MOL0     C48222   3.800   3.132   0.893 -0.0274 -0.8999 -0.2921
  350MOL0     C48223   3.836   3.076   1.025  1.1007 -0.4106 -0.5897
  350MOL0     C48224   3.800   3.185   1.132  0.4740 -0.0120 -0.8879
  350MOL0     C48225   3.866   3.148   1.264 -0.2579  0.0556 -0.6761
  350MOL0     C48226   4.013   3.164   1.248  0.9279 -1.0493 -0.2011
  350MOL0     C48227   4.129   3.189   1.233 -0.6714  0.3762  0.1024
  350MOL0     C48228   4.102   3.161   0.827 -0.0044 -0.1433 -0.0149
  350MOL0     C48229   4.193   3.122   0.732 -0.9637 -0.9090 -0.1633
  350MOL0     C48230   4.305   3.038   0.783 -0.1883  0.0151 -0.5662
  350MOL0     H48231   4.476   3.238   0.281 -1.5164  0.8062  0.4587
  350MOL0     H48232   4.589   3.134   0.080  2.2428 -0.9279  5.3664
  350MOL0     H48233   4.513   3.094  -0.228 -1.0143  0.9818  1.3995
  350MOL0     H48234   4.346   3.042  -0.225 -0.1850  1.5876  3.7445
  350MOL0     H48235   4.587   2.869  -0.309 -0.0468  0.5204 -2.0502
  350MOL0     H48236   4.419   2.819  -0.302 -3.4546  0.4886 -2.1830
  350MOL0     H48237   4.391   2.974  -0.509  0.2220  0.4419  0.0632
  350MOL0     H48238   4.541   3.057  -0.476 -2.2000  0.2686 -1.8146
  350MOL0     H48239   4.587   2.903  -0.662 -0.7043 -2.8383 -0.5744
  350MOL0     H48240   4.678   2.846  -0.529  0.6823 -2.2644 -1.0075
  350MOL0     H48241   4.469   2.679  -0.484  0.6724  2.2905  1.4770
  350MOL0     H48242   4.585   2.652  -0.619 -0.7785  0.7008 -0.4873
  350MOL0     H48243   4.304   2.738  -0.603  0.9766  0.1235  0.8751
  350MOL0     H48244   4.386   2.793  -0.758  0.3681 -1.8571 -0.8826
  350MOL0     H48245   4.366   2.504  -0.648  1.5555 -0.6794 -0.5370
  350MOL0     H48246   4.458   2.545  -0.796 -0.9293 -2.6432  0.6099
  350MOL0     H48247   4.257   2.448  -0.838  2.8186  0.5789 -2.7258
  350MOL0     H48248   4.160   2.580  -0.754 -0.6398 -0.4830 -1.9210
  350MOL0     H48249   4.026   2.683  -0.944 -0.4492  1.7700 -0.7781
  350MOL0     H48250   3.991   2.834  -1.182 -3.6396 -1.5742 -4.6953
  350MOL0     H48251   4.065   2.726  -1.304 -1.2272  1.8753 -1.6834
  350MOL0     H48252   4.181   2.998  -1.224 -3.0367  0.3180 -0.7843
  350MOL0     H48253   4.269   2.877  -1.318  0.8303  2.6364 -2.3924
  350MOL0     H48254   4.120   2.894  -1.500  1.3281  0.1533  1.0771
  350MOL0     H48255   4.008   2.990  -1.410 -1.0138 -0.1585 -1.5558
  350MOL0     H48256   4.156   3.092  -1.585  2.2611  2.7078  0.0813
  350MOL0     H48257   4.153   3.184  -1.425 -0.6520 -0.5109  0.1782
  350MOL0     H48258   4.494   3.265  -1.478  0.4268  2.2786 -1.1100
  350MOL0     H48259   4.749   3.387  -1.742  0.5294 -0.3554  0.0030
  350MOL0     H48260   4.704   3.386  -1.575  1.3140 -0.1564 -1.2663
  350MOL0     H48261   4.617   3.494  -1.694  0.3539 -0.1899 -2.1058
  350MOL0     H48262   4.787   3.389  -2.080  1.6621  0.5159 -0.6958
  350MOL0     H48263   4.877   3.442  -2.284  0.4964  0.3559  0.9339
  350MOL0     H48264   4.748   3.515  -2.546  1.5190  1.7672 -0.6339
  350MOL0     H48265   4.914   3.492  -2.501 -0.3529 -0.7140  1.4675
  350MOL0     H48266   4.981   3.415  -2.717 -0.1994 -0.5487 -0.9930
  350MOL0     H48267   4.819   3.385  -2.769  1.1784 -1.4364 -0.0945
  350MOL0     H48268   4.930   3.664  -2.681  1.9676 -1.3548  0.3389
  350MOL0     H48269   4.776   3.634  -2.783 -0.2314  0.2493  0.2350
  350MOL0     H48270   5.065   3.583  -2.857 -0.2109  2.6488  5.5816
  350MOL0     H48271   4.970   3.724  -2.900  0.6737  0.4627  2.3915
  350MOL0     H48272   4.882   3.458  -3.003 -0.8496 -0.2285 -2.3127
  350MOL0     H48273   4.811   3.620  -3.026 -0.1525  0.1030  1.0869
  350MOL0     H48274   4.959   3.520  -3.227  2.0822 -1.2631 -0.3432
  350MOL0     H48275   5.088   3.543  -3.113 -1.1373  1.1432  0.8327
  350MOL0     H48276   5.068   3.739  -3.273  1.1918 -1.0695  0.4070
  350MOL0     H48277   5.054   3.789  -3.100 -2.4217  0.3470  0.8232
  350MOL0     H48278   4.802   3.779  -3.134 -2.0266 -4.4402 -2.5942
  350MOL0     H48279   4.834   3.777  -3.307 -0.1944  3.9410 -0.9507
  350MOL0     H48280   4.632   3.153  -2.475 -2.8008  2.5335  0.9563
  350MOL0     H48281   4.548   3.075  -2.256  1.1720 -1.3584 -0.3924
  350MOL0     H48282   4.405   3.096  -1.931 -0.5159 -3.7648  1.5264
  350MOL0     H48283   4.284   3.017  -1.743 -0.2382 -0.8724 -3.4110
  350MOL0     H48284   4.214   2.936  -0.007  0.8612 -0.0732 -0.4290
  350MOL0     H48285   4.117   3.019   0.198  0.5725 -3.3741 -1.1442
  350MOL0     H48286   4.056   3.289   0.474  3.0100  0.2422  0.1197
  350MOL0     H48287   3.868   3.331   0.654 -0.7861 -0.0315 -0.9692
  350MOL0     H48288   3.693   3.148   0.875 -0.6777 -0.5508  3.1176
  350MOL0     H48289   3.830   3.056   0.821 -3.2576 -1.4039 -1.2757
  350MOL0     H48290   3.941   3.046   1.025  0.2495 -4.1552  1.8106
  350MOL0     H48291   3.779   2.982   1.028 -0.9658  0.7702 -1.2094
  350MOL0     H48292   3.837   3.286   1.112 -0.8479  0.3250 -1.7628
  350MOL0     H48293   3.691   3.200   1.132  0.3735 -0.6576 -1.8992
  350MOL0     H48294   3.837   3.045   1.284 -1.6344 -0.3149 -3.9987
  350MOL0     H48295   3.841   3.219   1.344  1.1082  0.3822 -0.5183
  350MOL0     H48296   4.223   3.187   1.182 -1.2092 -2.7234 -0.9350
  350MOL0     H48297   4.119   3.136   0.930  0.7672  3.5162  0.9036
  350MOL0     H48298   4.335   2.951   0.724 -1.5491  0.0669 -1.3786
  350MOL0     H48299   4.395   3.100   0.782 -1.0581  1.4832  2.2285
  350MOL0     H48300   4.287   2.999   0.883 -0.7658  1.3593 -0.1194
  351MOL0     O48301   6.046   3.279   6.279 -0.5997 -0.5970 -0.2559
  351MOL0     C48302   6.053   3.258   6.156  0.4507 -0.2218 -0.0841
  351MOL0     O48303   6.171   3.257   6.086 -0.1840 -0.4971 -0.5142
  351MOL0     C48304   6.289   3.281   6.150  1.0059  0.1416 -0.6140
  351MOL0     C48305   6.378   3.371   6.101  0.6855  0.7626 -0.1974
  351MOL0     C48306   6.498   3.391   6.177 -0.1388  0.4785  0.4166
  351MOL0     C48307   6.539   3.306   6.281  0.2260  0.3754 -0.7519
  351MOL0     O48308   6.669   3.316   6.325 -0.3631  0.6440  0.7009
  351MOL0     C48309   6.671   3.391   6.446 -0.4539 -0.1614  0.6246
  351MOL0     C48310   6.801   3.369   6.526  0.1943 -0.4474 -0.1058
  351MOL0     C48311   6.824   3.486   6.617 -0.4936 -1.3245  0.1313
  351MOL0     C48312   6.723   3.486   6.742 -0.2482 -0.5949 -0.9306
  351MOL0     C48313   6.788   3.542   6.873  1.1956  0.2847 -0.7486
  351MOL0     C48314   6.757   3.697   6.887 -0.3299  0.2061 -0.4288
  351MOL0     C48315   6.807   3.751   7.017 -0.4220 -0.5156 -0.4130
  351MOL0     C48316   6.780   3.900   7.025  0.0200  0.9239  0.7148
  351MOL0     N48317   6.818   3.953   7.156 -0.3100 -0.8039  0.5635
  351MOL0     C48318   6.890   4.065   7.172 -1.1077 -0.5649 -0.2346
  351MOL0     C48319   6.901   4.079   7.305 -0.4343  0.9431 -0.0181
  351MOL0     C48320   6.946   4.213   7.364 -0.6944  0.1928 -0.5228
  351MOL0     C48321   6.832   4.267   7.452 -0.2738  0.3289  0.2973
  351MOL0     C48322   6.748   4.361   7.367 -0.2804  0.3889  0.8637
  351MOL0     C48323   6.620   4.410   7.439  0.3139  0.6201  0.9599
  351MOL0     O48324   6.657   4.495   7.545  0.0706 -0.1273  0.7049
  351MOL0     C48325   6.556   4.557   7.615 -0.5376  0.8936  0.2877
  351MOL0     C48326   6.587   4.651   7.716 -0.9261  0.2824 -0.5937
  351MOL0     C48327   6.487   4.708   7.786  0.3617  0.5127  0.1148
  351MOL0     C48328   6.526   4.795   7.904 -0.0079 -0.1101 -0.3946
  351MOL0     C48329   6.352   4.689   7.758  0.5053 -0.7031  1.4044
  351MOL0     C48330   6.244   4.746   7.835  0.5399 -0.6259 -1.0639
  351MOL0     O48331   6.132   4.663   7.833 -0.0917  0.4364  0.6618
  351MOL0     C48332   6.048   4.689   7.936 -0.4384  1.2201  0.3646
  351MOL0     C48333   6.056   4.601   8.043 -0.1685 -0.5175 -1.2336
  351MOL0     C48334   5.977   4.622   8.162  0.5941 -0.0599 -0.2430
  351MOL0     C48335   5.886   4.721   8.161 -0.2203  0.2221  0.4342
  351MOL0     O48336   5.804   4.744   8.261  0.0634 -0.5832  0.1714
  351MOL0     C48337   5.863   4.831   8.362 -0.6053  0.0854  0.2881
  351MOL0     C48338   5.764   4.871   8.483 -0.1986  0.4866  0.8380
  351MOL0     C48339   5.632   4.935   8.429  0.5637  0.0722  0.0841
  351MOL0     C48340   5.517   4.940   8.531  0.5743  0.6761  0.6124
  351MOL0     C48341   5.533   5.000   8.673 -0.0296 -0.1172 -0.2142
  351MOL0     C48342   5.567   5.145   8.677 -0.0384  0.6310 -0.4070
  351MOL0     C48343   5.476   5.250   8.603  0.9554 -0.4408  0.2799
  351MOL0     C48344   5.561   5.345   8.523  0.2850 -0.1018 -0.5672
  351MOL0    Cl48345   5.692   5.414   8.633 -0.0490  0.2484 -0.0585
  351MOL0     C48346   5.870   4.808   8.047  1.1413  1.0837 -0.4171
  351MOL0     C48347   5.952   4.786   7.942  0.3053 -0.9101  0.5038
  351MOL0     O48348   6.258   4.853   7.901  0.2096  0.1699  0.6917
  351MOL0     C48349   6.317   4.599   7.661 -0.6909 -0.3529 -0.0686
  351MOL0     C48350   6.416   4.536   7.582 -0.0635 -0.2272  0.2911
  351MOL0     N48351   6.842   3.970   7.379  0.6470 -0.6549  0.0465
  351MOL0     N48352   6.791   3.900   7.279 -0.4259 -0.1513 -0.3595
  351MOL0     C48353   6.449   3.210   6.322  0.3797  0.4127 -1.0789
  351MOL0     C48354   6.323   3.202   6.255  0.5223  0.8512  0.0765
  351MOL0     C48355   5.923   3.231   6.083  0.7012 -0.7922 -1.1116
  351MOL0     C48356   5.811   3.186   6.158 -0.7793  0.3487 -0.7702
  351MOL0     C48357   5.706   3.132   6.095  0.5113  0.7941  0.7000
  351MOL0     C48358   5.705   3.127   5.958  0.7150  0.1290  0.1475
  351MOL0     O48359   5.589   3.089   5.889 -0.2935  0.4338 -0.0402
  351MOL0     C48360   5.523   3.185   5.802  0.7595  0.4211 -0.5304
  351MOL0     C48361   5.447   3.102   5.709 -0.0158 -0.3599 -0.1480
  351MOL0     C48362   5.313   3.069   5.773  0.8500  0.2959  0.3226
  351MOL0     C48363   5.192   3.053   5.684 -0.7116 -0.0896 -0.2118
  351MOL0     C48364   5.215   2.939   5.601  0.4036  0.2276  0.0935
  351MOL0     C48365   5.232   2.850   5.527 -0.1178 -0.2626  0.2388
  351MOL0     C48366   5.807   3.177   5.883 -0.1762  0.0467  0.3680
  351MOL0     C48367   5.912   3.243   5.945  0.1104 -0.2014 -0.6571
  351MOL0     C48368   6.013   3.306   5.847 -0.0077  0.3152 -0.2304
  351MOL0     H48369   6.359   3.434   6.015  0.0486  0.0277 -0.6153
  351MOL0     H48370   6.565   3.470   6.142  1.1769  0.1401  2.0205
  351MOL0     H48371   6.587   3.370   6.512 -0.5425  0.7531  0.8055
  351MOL0     H48372   6.661   3.492   6.406  3.2345 -0.4226 -1.4903
  351MOL0     H48373   6.804   3.275   6.582  0.6303 -0.0785  0.4916
  351MOL0     H48374   6.876   3.363   6.447  1.1562  0.4874  0.7082
  351MOL0     H48375   6.926   3.482   6.657 -0.2632  0.5889 -0.1639
  351MOL0     H48376   6.810   3.576   6.557 -3.5838 -0.7219  1.5395
  351MOL0     H48377   6.630   3.539   6.721 -0.1235 -0.4005 -0.9911
  351MOL0     H48378   6.699   3.381   6.766 -2.3107  0.5255  2.7052
  351MOL0     H48379   6.896   3.524   6.866  0.6733 -3.3532 -1.3726
  351MOL0     H48380   6.751   3.490   6.962  1.4850  0.3815 -0.5688
  351MOL0     H48381   6.802   3.743   6.799 -1.1417 -2.3696 -2.3234
  351MOL0     H48382   6.650   3.720   6.878 -0.6744 -0.7946  0.8220
  351MOL0     H48383   6.916   3.747   7.027 -0.5029 -0.1106  0.8221
  351MOL0     H48384   6.751   3.699   7.095  0.8853 -0.9136  0.2821
  351MOL0     H48385   6.843   3.951   6.951  2.1733 -0.2213  1.6453
  351MOL0     H48386   6.678   3.921   6.992  0.2803 -0.9086 -1.5141
  351MOL0     H48387   6.921   4.143   7.103 -4.1500  3.9827  2.9537
  351MOL0     H48388   6.978   4.292   7.295  1.0194 -1.6767 -2.0047
  351MOL0     H48389   7.033   4.199   7.428 -0.9202  5.8858  1.5474
  351MOL0     H48390   6.770   4.189   7.497 -2.6900  0.8504 -1.8802
  351MOL0     H48391   6.877   4.332   7.528 -0.5326  2.4340 -1.2511
  351MOL0     H48392   6.806   4.446   7.330 -3.3858  3.5278  2.5620
  351MOL0     H48393   6.709   4.296   7.288 -0.6406  1.5854  0.0268
  351MOL0     H48394   6.568   4.462   7.358  1.2248 -3.0301 -2.3073
  351MOL0     H48395   6.563   4.326   7.481 -0.8228  0.0917 -1.5016
  351MOL0     H48396   6.693   4.673   7.727 -1.3515  1.3780  2.5125
  351MOL0     H48397   6.463   4.762   7.987 -3.3444  1.1483 -2.2309
  351MOL0     H48398   6.517   4.903   7.888 -2.0100  0.4661  3.4465
  351MOL0     H48399   6.630   4.784   7.936 -0.0089  1.3787  0.1955
  351MOL0     H48400   6.118   4.512   8.042 -0.8804 -1.0731 -3.5476
  351MOL0     H48401   5.972   4.562   8.252  2.7678  1.0367  0.6614
  351MOL0     H48402   5.944   4.780   8.416 -0.0276  2.3318  1.6702
  351MOL0     H48403   5.903   4.918   8.309  1.5327 -0.5883  0.6961
  351MOL0     H48404   5.735   4.783   8.541  1.4138  0.9836  2.4820
  351MOL0     H48405   5.816   4.939   8.551  0.2276 -0.8351  1.8814
  351MOL0     H48406   5.585   4.894   8.340 -1.1258  0.8459  0.5963
  351MOL0     H48407   5.650   5.040   8.407  0.5501 -0.4870 -3.0581
  351MOL0     H48408   5.475   4.842   8.553  0.3368  0.4670 -0.6958
  351MOL0     H48409   5.443   5.003   8.482  1.6868 -0.0935 -2.2492
  351MOL0     H48410   5.440   4.999   8.731 -0.5882  1.7285 -0.9796
  351MOL0     H48411   5.602   4.945   8.737 -1.7359 -1.2586  0.7414
  351MOL0     H48412   5.665   5.155   8.629 -0.8879  2.9206 -1.8156
  351MOL0     H48413   5.583   5.165   8.784  2.6750 -1.0675 -0.3811
  351MOL0     H48414   5.420   5.310   8.676  0.1370 -0.0113 -0.6748
  351MOL0     H48415   5.392   5.212   8.543 -0.0216  1.3507  0.4287
  351MOL0     H48416   5.507   5.435   8.491  0.4850 -0.3273 -1.5755
  351MOL0     H48417   5.607   5.298   8.436  0.8624  0.9731 -0.8646
  351MOL0     H48418   5.792   4.883   8.041  1.6222  1.6090 -0.1788
  351MOL0     H48419   5.936   4.849   7.855  2.1966 -0.4275  0.4512
  351MOL0     H48420   6.215   4.567   7.643 -1.3465  0.4891  1.8281
  351MOL0     H48421   6.392   4.466   7.503  1.9367 -0.4664 -0.1401
  351MOL0     H48422   6.453   3.140   6.405  0.0052 -0.5268 -1.8352
  351MOL0     H48423   6.250   3.128   6.286  0.2418  0.0453 -2.3025
  351MOL0     H48424   5.817   3.177   6.266  2.0767 -0.0586 -0.8626
  351MOL0     H48425   5.610   3.111   6.142 -0.4791  3.1987 -0.0934
  351MOL0     H48426   5.456   3.253   5.855 -0.7772 -0.4586 -1.2716
  351MOL0     H48427   5.603   3.239   5.749 -1.0642  3.5193 -0.3479
  351MOL0     H48428   5.497   3.017   5.661  0.9271 -0.0881  0.3439
  351MOL0     H48429   5.429   3.174   5.628 -1.7866  0.3791  0.8510
  351MOL0     H48430   5.320   2.976   5.831  0.2317 -0.0360 -0.1220
  351MOL0     H48431   5.282   3.150   5.840  0.3801  1.2995 -1.0660
  351MOL0     H48432   5.174   3.149   5.636 -0.8400  1.0100  1.8905
  351MOL0     H48433   5.103   3.039   5.746 -1.3452  0.3049 -1.0265
  351MOL0     H48434   5.233   2.773   5.453 -0.4210  3.1810 -3.7678
  351MOL0     H48435   5.801   3.169   5.775 -0.1055  1.2357  0.2606
  351MOL0     H48436   5.986   3.300   5.741 -3.6582  0.0147  0.5793
  351MOL0     H48437   6.042   3.409   5.870  4.0772 -0.7144 -0.0034
  351MOL0     H48438   6.110   3.258   5.866  0.6937  2.0070  0.6482
  352MOL0     O48439   0.944   4.794   4.367 -0.0735  0.1584 -0.1391
  352MOL0     C48440   0.965   4.754   4.478 -1.1250 -0.1812  0.1986
  352MOL0     O48441   1.010   4.835   4.584 -0.1444  0.2628 -0.0341
  352MOL0     C48442   1.023   4.965   4.558 -1.1153  0.3712  0.3141
  352MOL0     C48443   1.149   5.015   4.528 -0.8522  1.2886  0.3038
  352MOL0     C48444   1.171   5.144   4.492  0.4335 -0.6430 -0.0716
  352MOL0     C48445   1.060   5.230   4.482 -0.1426 -0.3528 -0.2445
  352MOL0     O48446   1.069   5.372   4.464  0.9461  0.3162  0.3471
  352MOL0     C48447   1.193   5.434   4.503  0.1389  0.0061  0.0316
  352MOL0     C48448   1.172   5.581   4.477  0.5082 -0.6481  0.4232
  352MOL0     C48449   1.270   5.679   4.533  0.4261  0.1045  0.3173
  352MOL0     C48450   1.282   5.798   4.436 -0.4489  0.1955  0.1004
  352MOL0     C48451   1.352   5.924   4.495  0.1170 -0.0458  0.5865
  352MOL0     C48452   1.376   6.045   4.400  0.8938 -0.3913  0.2695
  352MOL0     C48453   1.504   6.042   4.318  0.1347  0.8616  0.4014
  352MOL0     C48454   1.490   5.931   4.211 -1.0231  0.4058 -0.3955
  352MOL0     N48455   1.570   5.972   4.092 -0.2361 -0.0303 -0.7334
  352MOL0     C48456   1.514   6.028   3.985 -0.5631 -0.8180  1.0319
  352MOL0     C48457   1.602   6.008   3.876 -0.0050 -0.2885 -0.2885
  352MOL0     C48458   1.580   6.033   3.730  0.4388  0.0490 -0.6801
  352MOL0     C48459   1.483   5.934   3.669  0.7126 -0.2649  0.5542
  352MOL0     C48460   1.346   5.909   3.739 -0.2380  0.9320  0.9424
  352MOL0     C48461   1.260   6.027   3.752  0.5204 -0.3402 -0.8806
  352MOL0     O48462   1.207   6.060   3.622  0.3153 -0.4537  0.0493
  352MOL0     C48463   1.145   6.180   3.607 -0.0472  0.1522  0.4159
  352MOL0     C48464   1.070   6.238   3.700  1.0871 -0.0124  0.2561
  352MOL0     C48465   0.999   6.359   3.688 -0.2275 -0.7536 -0.6407
  352MOL0     C48466   0.930   6.411   3.812  0.1587  0.5694  0.8351
  352MOL0     C48467   0.981   6.425   3.566 -0.0193 -0.6866  0.6913
  352MOL0     C48468   0.887   6.539   3.528 -0.0557  0.4274 -0.1714
  352MOL0     O48469   0.924   6.607   3.420 -0.6711 -0.4475  0.9726
  352MOL0     C48470   0.844   6.717   3.393 -0.2644 -0.4976 -0.2027
  352MOL0     C48471   0.798   6.727   3.262 -0.3169 -0.5717 -0.2433
  352MOL0     C48472   0.715   6.832   3.224  0.3839  0.4829 -0.3280
  352MOL0     C48473   0.681   6.933   3.316  0.3028 -0.0964  0.2803
  352MOL0     O48474   0.574   7.014   3.274  0.1345 -0.8894  0.2768
  352MOL0     C48475   0.534   7.127   3.363  0.5349 -0.2327  0.3820
  352MOL0     C48476   0.433   7.213   3.296  0.6780  0.0360 -0.4571
  352MOL0     C48477   0.349   7.303   3.384  0.9623 -0.1572 -0.3776
  352MOL0     C48478   0.424   7.399   3.478  0.8944 -0.8137 -0.2239
  352MOL0     C48479   0.331   7.480   3.561  0.0398 -1.4069 -0.3783
  352MOL0     C48480   0.405   7.546   3.672 -0.8595  0.3554 -0.4993
  352MOL0     C48481   0.317   7.644   3.739  0.2710  0.2860 -0.4569
  352MOL0     C48482   0.379   7.724   3.854 -0.3101  0.8442 -0.0394
  352MOL0    Cl48483   0.408   7.603   3.971  0.1981  0.4058 -0.7059
  352MOL0     C48484   0.742   6.936   3.448 -0.3398  0.9922  0.5744
  352MOL0     C48485   0.827   6.826   3.483  0.5323  0.4802 -0.4294
  352MOL0     O48486   0.798   6.568   3.610 -0.0215 -0.3307  0.6242
  352MOL0     C48487   1.064   6.366   3.461 -1.1116 -0.4944 -0.1591
  352MOL0     C48488   1.147   6.248   3.478 -0.7419 -0.3903 -1.2130
  352MOL0     N48489   1.715   5.954   3.936  0.5598 -0.3865  0.1221
  352MOL0     N48490   1.697   5.933   4.064  0.3974  0.3596  0.5801
  352MOL0     C48491   0.931   5.172   4.502 -0.3329  1.1850  0.4960
  352MOL0     C48492   0.911   5.041   4.544  0.4382  0.7342  0.3631
  352MOL0     C48493   0.914   4.619   4.517  1.1101 -0.8858  0.5378
  352MOL0     C48494   0.845   4.610   4.641  0.8993 -1.0627  0.4702
  352MOL0     C48495   0.800   4.491   4.693 -0.4651  0.3414 -0.1910
  352MOL0     C48496   0.830   4.372   4.629 -0.5310 -0.3519  0.4717
  352MOL0     O48497   0.794   4.244   4.663  0.4049  0.9776  0.9798
  352MOL0     C48498   0.726   4.213   4.785 -0.3265  0.1093 -0.0216
  352MOL0     C48499   0.676   4.065   4.791  0.7222 -0.9398  0.2306
  352MOL0     C48500   0.544   4.061   4.709  0.4289 -0.2206  0.1138
  352MOL0     C48501   0.534   4.008   4.574  0.2211  0.3692  0.0052
  352MOL0     C48502   0.637   4.048   4.485  0.5992 -0.0772 -0.1759
  352MOL0     C48503   0.710   4.076   4.398 -0.0503 -0.3826  0.6887
  352MOL0     C48504   0.887   4.384   4.499  0.3928  0.3005 -0.6111
  352MOL0     C48505   0.932   4.501   4.446 -0.1336 -0.6259 -0.3153
  352MOL0     C48506   1.010   4.495   4.324 -0.1124  0.1521 -0.0316
  352MOL0     H48507   1.225   4.938   4.530  0.0297  2.1327  0.1126
  352MOL0     H48508   1.277   5.163   4.475  0.6894 -0.1774  1.8403
  352MOL0     H48509   1.272   5.407   4.432 -1.7090 -1.5432 -1.5332
  352MOL0     H48510   1.222   5.428   4.609 -2.7499 -3.0941  0.8059
  352MOL0     H48511   1.187   5.597   4.370  1.4578  1.6889  0.8474
  352MOL0     H48512   1.068   5.605   4.498  0.9667 -0.0787  2.1896
  352MOL0     H48513   1.237   5.694   4.637 -1.1442 -0.0130 -0.1440
  352MOL0     H48514   1.372   5.641   4.541  1.7078  3.1690  0.1410
  352MOL0     H48515   1.342   5.769   4.349  1.0354  0.7578  0.9062
  352MOL0     H48516   1.177   5.826   4.420 -1.0131 -1.7960  0.0333
  352MOL0     H48517   1.455   5.902   4.525  0.5693 -0.1406 -0.9182
  352MOL0     H48518   1.294   5.955   4.582 -1.5090  3.7948 -1.6026
  352MOL0     H48519   1.288   6.068   4.340  1.4228 -1.1277 -0.8247
  352MOL0     H48520   1.396   6.121   4.476  0.1606  1.7034 -1.5341
  352MOL0     H48521   1.576   6.007   4.393 -2.2214 -1.4641  1.7768
  352MOL0     H48522   1.520   6.136   4.266  0.7656 -0.3483 -1.7175
  352MOL0     H48523   1.521   5.835   4.254  1.5856  1.2276 -0.2847
  352MOL0     H48524   1.386   5.927   4.177 -0.3553 -1.3583 -2.3661
  352MOL0     H48525   1.415   6.071   3.974 -1.1538 -2.2923  0.2676
  352MOL0     H48526   1.676   6.016   3.680  0.2612  0.6101 -1.2172
  352MOL0     H48527   1.531   6.129   3.716 -1.3361 -0.6506  0.3002
  352MOL0     H48528   1.476   5.952   3.561  1.8776  2.0208  0.7781
  352MOL0     H48529   1.540   5.841   3.670  2.7246  0.8848 -0.4500
  352MOL0     H48530   1.296   5.831   3.681  1.4998  0.1203  0.4704
  352MOL0     H48531   1.375   5.865   3.835  1.7627 -0.8445 -0.3765
  352MOL0     H48532   1.179   6.003   3.821  0.8423 -1.2573 -0.8124
  352MOL0     H48533   1.324   6.109   3.785  2.1071 -1.4937 -0.9447
  352MOL0     H48534   1.046   6.183   3.790 -1.2175 -1.6731 -1.2521
  352MOL0     H48535   0.823   6.393   3.803  0.1895  1.0445 -0.7183
  352MOL0     H48536   0.950   6.518   3.818 -1.7316  0.9570  0.8316
  352MOL0     H48537   0.963   6.356   3.901  1.1033  0.1268  0.2337
  352MOL0     H48538   0.827   6.652   3.188 -0.9160  1.1753 -2.3713
  352MOL0     H48539   0.668   6.847   3.127  2.7171  0.8791 -1.4739
  352MOL0     H48540   0.492   7.089   3.456  0.0799  2.3702  1.3413
  352MOL0     H48541   0.616   7.194   3.393  1.7732 -1.2366 -0.6379
  352MOL0     H48542   0.489   7.278   3.228  0.5894  1.1007  0.4425
  352MOL0     H48543   0.353   7.157   3.247 -0.3923  1.4850 -0.4166
  352MOL0     H48544   0.284   7.239   3.444  0.7742  1.7956  1.6189
  352MOL0     H48545   0.283   7.365   3.323 -0.7465 -2.7607 -1.3262
  352MOL0     H48546   0.488   7.463   3.417  0.4264 -0.5776 -0.4736
  352MOL0     H48547   0.482   7.343   3.553  1.5596  2.2322  1.7366
  352MOL0     H48548   0.274   7.558   3.509 -2.1978 -1.3613  1.9288
  352MOL0     H48549   0.263   7.412   3.612 -0.2106 -0.1585  1.0255
  352MOL0     H48550   0.493   7.598   3.633  1.7739 -1.5186  2.4179
  352MOL0     H48551   0.441   7.463   3.734  0.5098  1.3469  0.0754
  352MOL0     H48552   0.233   7.586   3.778  0.7523 -0.2738 -0.2419
  352MOL0     H48553   0.271   7.706   3.662 -0.0220 -3.2205 -3.3677
  352MOL0     H48554   0.325   7.811   3.893 -1.8231 -1.9321  4.8872
  352MOL0     H48555   0.474   7.763   3.816  0.9261  0.8834  2.8979
  352MOL0     H48556   0.716   7.011   3.523 -0.7059  0.8866  0.5576
  352MOL0     H48557   0.866   6.826   3.585  0.4013  1.2331 -0.3743
  352MOL0     H48558   1.053   6.419   3.367  0.7374  2.1074  0.9614
  352MOL0     H48559   1.196   6.204   3.392 -1.7373 -1.2879 -1.3335
  352MOL0     H48560   0.852   5.246   4.495 -0.5243  1.1389  1.8354
  352MOL0     H48561   0.808   5.009   4.559  0.1381  0.4747 -1.8301
  352MOL0     H48562   0.845   4.694   4.710  2.4869  0.6299 -1.4280
  352MOL0     H48563   0.739   4.477   4.781  1.3992 -2.0712  0.8210
  352MOL0     H48564   0.800   4.230   4.863  0.0141 -0.9918 -0.0935
  352MOL0     H48565   0.649   4.290   4.797  1.5672  1.8568  1.6147
  352MOL0     H48566   0.652   4.039   4.894 -3.1073  1.5065  0.1576
  352MOL0     H48567   0.740   3.984   4.756 -0.5719 -0.8548 -2.6505
  352MOL0     H48568   0.485   3.996   4.774 -0.3321  0.4357  0.0962
  352MOL0     H48569   0.481   4.150   4.720  0.9276  0.0145  1.1842
  352MOL0     H48570   0.438   4.034   4.529 -0.4776  0.2062  1.3585
  352MOL0     H48571   0.535   3.899   4.565  0.7052  0.4337 -0.8902
  352MOL0     H48572   0.783   4.098   4.323 -0.7793 -1.4609 -0.3950
  352MOL0     H48573   0.898   4.290   4.447 -3.2264 -1.2547  1.0627
  352MOL0     H48574   1.067   4.402   4.334  1.1112  0.8575 -0.2825
  352MOL0     H48575   0.948   4.485   4.235 -0.8992 -1.1396  0.6274
  352MOL0     H48576   1.083   4.576   4.319 -0.1168  0.0842 -1.5408
  353MOL0     O48577   6.615   9.042   3.834  0.2863 -0.5751  0.7572
  353MOL0     C48578   6.674   9.137   3.784  0.8031 -0.2643 -0.4040
  353MOL0     O48579   6.619   9.244   3.718  0.4849  0.4217 -0.4310
  353MOL0     C48580   6.502   9.221   3.644 -0.1984 -0.5635 -1.0951
  353MOL0     C48581   6.507   9.144   3.528 -0.9951  0.4570 -0.5394
  353MOL0     C48582   6.398   9.145   3.446  0.5985 -1.2169 -0.5570
  353MOL0     C48583   6.286   9.216   3.480  0.0367 -1.3630 -0.0402
  353MOL0     O48584   6.185   9.213   3.397 -0.4420 -0.0663 -0.1484
  353MOL0     C48585   6.174   9.335   3.323  1.2289 -0.4836  0.3863
  353MOL0     C48586   6.281   9.346   3.214 -0.5641  0.0149 -0.4130
  353MOL0     C48587   6.298   9.472   3.129 -0.4719 -0.6730 -0.1835
  353MOL0     C48588   6.198   9.488   3.018 -0.7694 -0.3449 -0.8116
  353MOL0     C48589   6.221   9.608   2.923 -0.3137 -1.6415  0.0042
  353MOL0     C48590   6.351   9.608   2.838  0.5522  0.8123  0.3599
  353MOL0     C48591   6.347   9.704   2.713  0.6240 -0.7734 -0.0349
  353MOL0     C48592   6.475   9.725   2.645  0.6300 -0.1883 -0.0683
  353MOL0     N48593   6.459   9.764   2.504  0.4471  0.6962 -0.4971
  353MOL0     C48594   6.421   9.679   2.406 -0.2464 -0.7439  0.0746
  353MOL0     C48595   6.417   9.767   2.293 -0.8898 -0.7765  0.1176
  353MOL0     C48596   6.377   9.717   2.149  0.8670 -0.6618 -0.1907
  353MOL0     C48597   6.268   9.803   2.078 -0.0254  0.2985 -0.0761
  353MOL0     C48598   6.250   9.768   1.927  0.6344 -0.4325  0.5490
  353MOL0     C48599   6.187   9.632   1.900 -0.1981 -0.2276 -0.4403
  353MOL0     O48600   6.184   9.605   1.760  0.6053  0.9027 -0.1272
  353MOL0     C48601   6.153   9.477   1.713 -0.2598  0.5052  0.0472
  353MOL0     C48602   6.165   9.457   1.576 -0.6145  0.0677  0.7009
  353MOL0     C48603   6.107   9.337   1.513  0.1016  1.1211  0.0565
  353MOL0     C48604   6.111   9.327   1.366  0.2360  0.1084 -0.1806
  353MOL0     C48605   6.049   9.236   1.595  0.7994  0.0153  0.7275
  353MOL0     C48606   6.000   9.101   1.550  0.2734  0.0744  0.7746
  353MOL0     O48607   5.969   9.012   1.646  0.4860 -0.1353  0.1599
  353MOL0     C48608   5.908   8.888   1.616 -0.1217  0.2530  0.1330
  353MOL0     C48609   5.771   8.864   1.635 -0.9108  0.8020 -0.7620
  353MOL0     C48610   5.704   8.752   1.580 -1.0960  0.7985  0.1820
  353MOL0     C48611   5.786   8.654   1.515  0.5340  0.9737 -0.0278
  353MOL0     O48612   5.740   8.528   1.481  0.4929  1.6812  0.5575
  353MOL0     C48613   5.642   8.515   1.378 -0.4932 -0.6216 -0.7565
  353MOL0     C48614   5.682   8.381   1.312  0.5513  1.3118 -0.7938
  353MOL0     C48615   5.664   8.264   1.426 -0.1729 -0.1433  0.2889
  353MOL0     C48616   5.718   8.134   1.369 -0.1315 -0.1865  0.1403
  353MOL0     C48617   5.661   8.019   1.448  0.1026  0.2168  0.3743
  353MOL0     C48618   5.707   7.886   1.381 -0.0026 -0.7421  0.4076
  353MOL0     C48619   5.690   7.764   1.468 -0.7120  0.1955  0.2001
  353MOL0     C48620   5.752   7.639   1.400  0.6831 -0.4365 -0.2332
  353MOL0    Cl48621   5.914   7.670   1.373 -0.1239 -0.3231  0.0758
  353MOL0     C48622   5.926   8.675   1.502  0.3982  0.6013  0.2747
  353MOL0     C48623   5.986   8.786   1.559 -0.3990  0.2931 -0.9586
  353MOL0     O48624   5.980   9.085   1.429 -0.1305  0.6108  0.3521
  353MOL0     C48625   6.037   9.262   1.729  0.2411  0.4894  0.0906
  353MOL0     C48626   6.086   9.380   1.782  0.4228 -0.9625  0.2818
  353MOL0     N48627   6.460   9.895   2.337 -0.5743 -0.1755  0.2522
  353MOL0     N48628   6.484   9.884   2.462 -0.5040 -0.1736 -0.5061
  353MOL0     C48629   6.279   9.289   3.603 -0.6708 -0.4705  0.0208
  353MOL0     C48630   6.388   9.286   3.694  0.7116 -0.0574  0.2266
  353MOL0     C48631   6.819   9.178   3.831 -0.6636 -0.5749 -0.1137
  353MOL0     C48632   6.851   9.316   3.837 -0.7902 -0.0774 -0.8425
  353MOL0     C48633   6.977   9.358   3.893 -0.4182 -0.3217 -0.1169
  353MOL0     C48634   7.078   9.272   3.927  0.0251  0.0370 -0.5179
  353MOL0     O48635   7.204   9.303   3.970 -0.6524  0.7316 -0.5669
  353MOL0     C48636   7.258   9.427   3.925  0.7988 -0.0495 -0.5635
  353MOL0     C48637   7.404   9.437   3.963  1.3661 -0.4601 -0.9380
  353MOL0     C48638   7.427   9.502   4.098 -0.0334  0.3660  0.4667
  353MOL0     C48639   7.538   9.600   4.103  0.4384  0.3365 -0.5954
  353MOL0     C48640   7.524   9.725   4.015 -0.5894 -0.1607 -0.0626
  353MOL0     C48641   7.534   9.819   3.937 -0.7673  0.7076  1.2148
  353MOL0     C48642   7.042   9.135   3.921 -1.4587 -0.5527 -0.8258
  353MOL0     C48643   6.918   9.087   3.885  1.0497  0.6564  0.6745
  353MOL0     C48644   6.900   8.932   3.865  0.1558  0.7709 -0.0938
  353MOL0     H48645   6.587   9.084   3.487 -2.9932 -1.8672 -1.2635
  353MOL0     H48646   6.397   9.095   3.350  1.8902 -0.8498 -0.7873
  353MOL0     H48647   6.178   9.430   3.378  0.4979 -0.8019  1.0192
  353MOL0     H48648   6.074   9.343   3.279  0.4204  0.6954  2.2904
  353MOL0     H48649   6.373   9.345   3.273 -1.1888  6.3267  1.3730
  353MOL0     H48650   6.277   9.265   3.139  1.5774 -0.5872  0.0468
  353MOL0     H48651   6.303   9.562   3.191  2.0320 -1.0017  0.2064
  353MOL0     H48652   6.399   9.456   3.089 -0.6969 -3.2020  0.0825
  353MOL0     H48653   6.192   9.394   2.961 -1.7776 -0.8995  0.1668
  353MOL0     H48654   6.102   9.496   3.070  0.1052  0.2773  0.7646
  353MOL0     H48655   6.201   9.700   2.978 -2.8373 -2.7998  1.2262
  353MOL0     H48656   6.142   9.605   2.847 -0.3372  3.2108 -0.4956
  353MOL0     H48657   6.437   9.635   2.900  2.2202 -2.2890 -0.3774
  353MOL0     H48658   6.364   9.504   2.808 -0.8761  1.1909 -1.7813
  353MOL0     H48659   6.305   9.796   2.753 -0.0594 -0.3269 -1.7077
  353MOL0     H48660   6.268   9.676   2.643 -0.2921  1.7427 -0.1130
  353MOL0     H48661   6.537   9.796   2.700 -0.7287 -0.4762  1.9918
  353MOL0     H48662   6.518   9.624   2.646  1.0353 -0.0439 -1.5440
  353MOL0     H48663   6.399   9.574   2.416  1.2934 -0.8095  5.0153
  353MOL0     H48664   6.330   9.618   2.160  0.8810 -0.7374 -0.7984
  353MOL0     H48665   6.466   9.719   2.086  1.0956  2.7502  0.0895
  353MOL0     H48666   6.169   9.800   2.125 -1.4003  1.0824 -2.7360
  353MOL0     H48667   6.304   9.905   2.094  1.1396 -0.4218  2.3036
  353MOL0     H48668   6.192   9.847   1.880 -1.1109 -0.9234  1.7677
  353MOL0     H48669   6.349   9.770   1.880  0.8909  4.3639  0.8088
  353MOL0     H48670   6.246   9.550   1.941  1.4633  1.3358  0.4913
  353MOL0     H48671   6.087   9.629   1.943 -1.0684  2.9275 -1.9055
  353MOL0     H48672   6.207   9.533   1.512 -2.1328  1.5807  1.3968
  353MOL0     H48673   6.161   9.238   1.327 -0.4415  0.0492 -0.9412
  353MOL0     H48674   6.173   9.408   1.328 -0.6179 -0.1659 -2.3043
  353MOL0     H48675   6.015   9.342   1.316  0.1623 -2.5539 -0.9525
  353MOL0     H48676   5.706   8.940   1.677  1.2411  2.7024 -0.6489
  353MOL0     H48677   5.597   8.746   1.596 -0.8557  0.1677  1.7698
  353MOL0     H48678   5.538   8.521   1.411 -0.0167  1.5160  0.5384
  353MOL0     H48679   5.654   8.584   1.294  0.6032 -1.3972 -1.2708
  353MOL0     H48680   5.622   8.346   1.228  1.1824 -2.8865  0.2867
  353MOL0     H48681   5.787   8.384   1.281  0.4332 -0.5057 -1.5031
  353MOL0     H48682   5.558   8.249   1.450 -0.4583  0.3463 -0.6273
  353MOL0     H48683   5.716   8.280   1.520  2.1957 -4.8359  0.0813
  353MOL0     H48684   5.826   8.133   1.384  0.1651 -1.2825 -1.6983
  353MOL0     H48685   5.693   8.126   1.262  4.3732 -1.9464 -1.0064
  353MOL0     H48686   5.709   8.015   1.547  3.2455  0.0145 -1.0225
  353MOL0     H48687   5.553   8.013   1.457  0.1224 -0.6514  0.0929
  353MOL0     H48688   5.814   7.900   1.364  0.7860  0.2340  4.9092
  353MOL0     H48689   5.650   7.875   1.288  2.6565  1.9275 -1.7596
  353MOL0     H48690   5.588   7.732   1.490 -0.5554 -0.0521  0.5922
  353MOL0     H48691   5.727   7.777   1.570 -1.1088 -0.7885  0.4899
  353MOL0     H48692   5.707   7.632   1.300 -0.3753  1.6249  0.0663
  353MOL0     H48693   5.736   7.548   1.459 -3.5355  0.0759 -0.3267
  353MOL0     H48694   5.981   8.599   1.447  0.5558 -0.7244  2.1696
  353MOL0     H48695   6.089   8.806   1.532  1.0615 -4.9548 -0.3744
  353MOL0     H48696   5.982   9.195   1.794  1.5184 -0.5796  0.1249
  353MOL0     H48697   6.038   9.398   1.878 -0.3602  2.5907 -0.6363
  353MOL0     H48698   6.195   9.357   3.611 -1.2513 -0.5970 -3.3899
  353MOL0     H48699   6.393   9.340   3.788  0.9022  0.0017  0.1828
  353MOL0     H48700   6.778   9.394   3.818  0.2317  1.9007  2.4367
  353MOL0     H48701   7.004   9.463   3.887 -2.9190  0.4719  1.3522
  353MOL0     H48702   7.249   9.452   3.819  0.1426 -2.6523 -1.1895
  353MOL0     H48703   7.201   9.509   3.969 -1.7308 -0.1259 -3.4238
  353MOL0     H48704   7.451   9.502   3.888  0.1641 -0.6276 -1.8536
  353MOL0     H48705   7.462   9.345   3.949  2.2638  0.3114 -2.6368
  353MOL0     H48706   7.336   9.551   4.134 -1.4412 -3.7267  3.1906
  353MOL0     H48707   7.444   9.429   4.178 -2.8909  1.9728  2.7681
  353MOL0     H48708   7.637   9.559   4.079  0.3868 -0.2285  0.1374
  353MOL0     H48709   7.539   9.646   4.202  0.8875  1.8742 -1.2714
  353MOL0     H48710   7.549   9.903   3.873  0.8525 -0.9914 -0.7480
  353MOL0     H48711   7.115   9.065   3.960 -1.9165  1.3651  4.1941
  353MOL0     H48712   6.861   8.894   3.959  1.4708  2.6030  1.2608
  353MOL0     H48713   6.831   8.904   3.784  1.2059 -1.7409 -0.1885
  353MOL0     H48714   6.991   8.873   3.852 -1.0358 -0.9470 -0.9962
  354MOL0     O48715   3.149   4.655   9.031  1.2442 -0.1296  0.6557
  354MOL0     C48716   3.207   4.719   8.940 -0.3392  0.3860  0.4271
  354MOL0     O48717   3.302   4.668   8.856 -0.8237  0.2189  0.3323
  354MOL0     C48718   3.299   4.530   8.859  0.0350 -0.1550  0.3885
  354MOL0     C48719   3.423   4.467   8.893  0.0063  0.6187 -0.2003
  354MOL0     C48720   3.432   4.330   8.915 -0.5697  0.1181 -0.7176
  354MOL0     C48721   3.308   4.265   8.913 -0.1747  0.2846  0.7475
  354MOL0     O48722   3.287   4.133   8.957 -0.4351  0.6602  0.3148
  354MOL0     C48723   3.369   4.019   8.917 -0.9857  0.2686  0.2302
  354MOL0     C48724   3.396   3.920   9.037  0.4104  0.0710 -0.0132
  354MOL0     C48725   3.254   3.864   9.071 -0.8131 -0.0530 -0.5774
  354MOL0     C48726   3.265   3.723   9.114 -0.1841 -0.4363 -0.2074
  354MOL0     C48727   3.129   3.651   9.171  0.2900 -0.4655  0.4786
  354MOL0     C48728   3.158   3.516   9.237 -0.1812 -0.8564 -0.0309
  354MOL0     C48729   3.035   3.446   9.285  0.2453  0.8050  0.8918
  354MOL0     C48730   2.944   3.402   9.158  0.2573 -0.8235 -0.2645
  354MOL0     N48731   2.808   3.354   9.190 -0.7394  0.0025  0.2121
  354MOL0     C48732   2.752   3.222   9.188  0.1033  1.1054 -0.3687
  354MOL0     C48733   2.628   3.238   9.240  0.1573 -0.8704  0.8548
  354MOL0     C48734   2.535   3.137   9.296 -1.0583 -0.6846  0.6433
  354MOL0     C48735   2.420   3.100   9.198  0.3568  0.3314  0.0068
  354MOL0     C48736   2.366   2.962   9.248  0.4805 -0.0808 -0.4726
  354MOL0     C48737   2.262   2.892   9.170  0.8039 -0.5085 -0.0063
  354MOL0     O48738   2.153   2.985   9.148  0.5375 -0.7209 -0.5153
  354MOL0     C48739   2.080   2.979   9.020  0.1229 -0.4674 -0.3062
  354MOL0     C48740   2.054   2.856   8.965 -0.4422  0.5211  0.0024
  354MOL0     C48741   1.980   2.838   8.850 -0.5755  0.4086 -0.8240
  354MOL0     C48742   1.959   2.692   8.794 -0.4678 -0.4299  0.4252
  354MOL0     C48743   1.922   2.954   8.785  0.9222 -0.7819  0.1324
  354MOL0     C48744   1.837   2.945   8.663  0.2398 -0.7264 -0.1179
  354MOL0     O48745   1.713   2.989   8.666 -0.6061 -0.1219  0.0342
  354MOL0     C48746   1.642   2.962   8.559  0.8960 -0.3675  1.0681
  354MOL0     C48747   1.588   3.067   8.484  0.2665 -0.6119  0.3733
  354MOL0     C48748   1.489   3.041   8.382 -0.5108  1.3146  0.1157
  354MOL0     C48749   1.432   2.909   8.378 -0.7855 -0.2286  0.6548
  354MOL0     O48750   1.326   2.882   8.298 -0.5652  0.2517 -0.3507
  354MOL0     C48751   1.212   2.833   8.369  0.2962  0.4943  0.0826
  354MOL0     C48752   1.090   2.900   8.302  0.4159  0.4461  0.5271
  354MOL0     C48753   1.004   2.973   8.408  0.3835 -0.7559 -0.2829
  354MOL0     C48754   1.085   3.092   8.467 -0.2013 -0.2263  0.0701
  354MOL0     C48755   1.099   3.204   8.365 -0.4687  0.5000  0.7128
  354MOL0     C48756   1.162   3.318   8.437  0.0913 -1.3831  0.4390
  354MOL0     C48757   1.182   3.439   8.345  0.1588  0.6451  0.5538
  354MOL0     C48758   1.264   3.552   8.405  0.8697  0.6773 -0.6434
  354MOL0    Cl48759   1.210   3.601   8.569 -0.2673 -0.1635 -0.0699
  354MOL0     C48760   1.489   2.803   8.451  1.2342 -0.2352  1.6468
  354MOL0     C48761   1.588   2.828   8.538 -0.3133 -0.2759  0.8943
  354MOL0     O48762   1.890   2.885   8.570 -0.4638 -0.4392  0.1556
  354MOL0     C48763   1.943   3.078   8.846  0.6090 -0.3445  0.5848
  354MOL0     C48764   2.032   3.088   8.954  0.3763  0.0483  0.5108
  354MOL0     N48765   2.608   3.373   9.235 -0.2197 -0.2686  0.0473
  354MOL0     N48766   2.717   3.439   9.221 -0.4684 -0.0848  0.0897
  354MOL0     C48767   3.195   4.319   8.861  0.5331 -0.0551  1.2042
  354MOL0     C48768   3.187   4.453   8.825  0.4114  0.9758 -0.3787
  354MOL0     C48769   3.202   4.861   8.952  0.3940  0.4225  0.0313
  354MOL0     C48770   3.192   4.929   8.831  0.3870 -0.1398  0.6217
  354MOL0     C48771   3.189   5.064   8.832  0.2386 -1.0673 -0.2594
  354MOL0     C48772   3.192   5.141   8.951 -0.3707 -0.0286 -0.7377
  354MOL0     O48773   3.174   5.276   8.962  0.7946  0.4369  0.4622
  354MOL0     C48774   3.287   5.366   9.006  1.1180  0.5745  0.1391
  354MOL0     C48775   3.260   5.401   9.158  0.7521 -1.2883  0.1862
  354MOL0     C48776   3.119   5.433   9.209  0.7578 -0.5021 -0.2355
  354MOL0     C48777   3.055   5.540   9.117  0.9230  0.2299  1.2656
  354MOL0     C48778   2.933   5.595   9.182 -0.1785  0.2684  0.5628
  354MOL0     C48779   2.841   5.629   9.246  0.5706  0.1149  0.3510
  354MOL0     C48780   3.187   5.062   9.064  0.4618 -0.1837 -0.1444
  354MOL0     C48781   3.202   4.926   9.065  0.0043  0.0684 -0.1708
  354MOL0     C48782   3.215   4.861   9.209  0.0416 -0.1953 -0.0591
  354MOL0     H48783   3.512   4.527   8.910  0.7549 -0.3965 -0.4474
  354MOL0     H48784   3.519   4.272   8.946 -1.2105 -1.0324 -0.9817
  354MOL0     H48785   3.470   4.052   8.891 -0.3601  0.6438  2.8554
  354MOL0     H48786   3.328   3.958   8.836  1.3328 -1.2191  0.0735
  354MOL0     H48787   3.471   3.848   9.003 -0.4431  0.4653 -3.0512
  354MOL0     H48788   3.434   3.981   9.119  2.3980  2.6269 -2.6637
  354MOL0     H48789   3.211   3.918   9.157  2.7346  0.9880  0.7069
  354MOL0     H48790   3.186   3.880   8.986  0.4352  0.7757 -1.4591
  354MOL0     H48791   3.304   3.677   9.023 -1.4798  3.0240 -2.7320
  354MOL0     H48792   3.337   3.718   9.196  0.8355  2.0895 -0.8617
  354MOL0     H48793   3.053   3.630   9.095  1.1656 -2.3841  0.0705
  354MOL0     H48794   3.087   3.717   9.247 -0.4870 -2.9321  2.3244
  354MOL0     H48795   3.225   3.456   9.175  3.2201  3.7295 -1.3753
  354MOL0     H48796   3.225   3.534   9.321  1.2627  0.4814 -1.3842
  354MOL0     H48797   2.982   3.511   9.355 -0.4489 -2.7161  3.9722
  354MOL0     H48798   3.067   3.351   9.330 -2.0064 -0.2931  0.2940
  354MOL0     H48799   2.935   3.488   9.092  1.8611 -0.5954 -0.2240
  354MOL0     H48800   3.004   3.323   9.113  1.3294 -0.1346 -0.0745
  354MOL0     H48801   2.788   3.121   9.169 -1.9377  0.3647 -0.5409
  354MOL0     H48802   2.512   3.174   9.396  5.9310 -0.5157  2.6817
  354MOL0     H48803   2.600   3.052   9.318  1.8592  1.1943 -0.1504
  354MOL0     H48804   2.344   3.179   9.197  0.5258  0.5062  0.5095
  354MOL0     H48805   2.454   3.086   9.095 -0.1010  1.6013 -0.3411
  354MOL0     H48806   2.448   2.893   9.269  1.4836  1.5916  1.5839
  354MOL0     H48807   2.318   2.975   9.346  1.3336  0.6401 -0.1424
  354MOL0     H48808   2.305   2.861   9.074  1.2697 -0.5242  0.2031
  354MOL0     H48809   2.233   2.800   9.222 -2.1207  1.1032  1.4483
  354MOL0     H48810   2.103   2.768   9.005 -0.5918  0.0956 -0.7198
  354MOL0     H48811   2.043   2.633   8.832 -1.9088 -1.4232  2.2215
  354MOL0     H48812   1.964   2.693   8.684  2.2035  0.1734  0.4744
  354MOL0     H48813   1.859   2.661   8.823 -1.9867  1.8364 -1.9161
  354MOL0     H48814   1.625   3.169   8.492  2.4011 -1.3848  0.9508
  354MOL0     H48815   1.444   3.105   8.307 -0.2843 -0.6692 -1.8129
  354MOL0     H48816   1.193   2.725   8.369 -2.3669  0.8647 -1.5254
  354MOL0     H48817   1.218   2.859   8.475 -1.2174  0.8531  0.1050
  354MOL0     H48818   1.128   2.972   8.229  2.3424  0.4830  1.5230
  354MOL0     H48819   1.016   2.824   8.273  1.2482  0.0944 -0.7779
  354MOL0     H48820   0.970   2.897   8.478 -0.2012 -4.6127 -4.3048
  354MOL0     H48821   0.910   3.006   8.362 -0.1284 -1.7066  0.0673
  354MOL0     H48822   1.180   3.062   8.511 -0.0656 -1.6700 -1.1349
  354MOL0     H48823   1.029   3.140   8.548 -1.1039 -0.6634 -0.2694
  354MOL0     H48824   1.149   3.168   8.275 -1.9927 -1.8334  0.6895
  354MOL0     H48825   1.000   3.240   8.336  0.9393  3.6840 -0.5555
  354MOL0     H48826   1.255   3.298   8.490  1.0513 -2.2751 -1.5083
  354MOL0     H48827   1.076   3.349   8.497 -2.6925 -2.6529 -2.5747
  354MOL0     H48828   1.083   3.475   8.315 -0.1618 -1.8493 -1.8210
  354MOL0     H48829   1.237   3.401   8.259 -2.7734 -0.2227 -1.0641
  354MOL0     H48830   1.260   3.626   8.324  2.9916  0.7749 -0.7051
  354MOL0     H48831   1.371   3.535   8.418  1.0630  2.1259 -0.1979
  354MOL0     H48832   1.443   2.706   8.436  0.2762  0.0971  2.3396
  354MOL0     H48833   1.612   2.746   8.605  0.6130 -1.4590 -0.8238
  354MOL0     H48834   1.905   3.173   8.811  3.4519  0.2677 -1.1447
  354MOL0     H48835   2.063   3.185   8.991  0.5216 -0.2515  1.1868
  354MOL0     H48836   3.105   4.263   8.838  0.8944  0.5017 -2.0779
  354MOL0     H48837   3.096   4.497   8.784  0.0185 -0.8094 -1.5052
  354MOL0     H48838   3.178   4.883   8.733  2.5357  2.7840 -1.2213
  354MOL0     H48839   3.177   5.119   8.738 -2.5834 -3.7783 -1.6755
  354MOL0     H48840   3.389   5.332   8.985  0.7999 -0.6912  0.5870
  354MOL0     H48841   3.273   5.461   8.952 -0.6320  1.1568  1.5040
  354MOL0     H48842   3.319   5.491   9.175 -0.5116 -0.0461 -1.5730
  354MOL0     H48843   3.280   5.320   9.228  0.9444 -0.3470  1.2373
  354MOL0     H48844   3.060   5.342   9.222  1.4628 -0.8913  0.2885
  354MOL0     H48845   3.130   5.487   9.303 -2.4404  1.0258 -0.5869
  354MOL0     H48846   3.030   5.489   9.024  0.5548  1.6100  0.5885
  354MOL0     H48847   3.128   5.619   9.098 -0.6564  1.6769  1.0210
  354MOL0     H48848   2.757   5.653   9.307  1.9652 -1.9070  3.3410
  354MOL0     H48849   3.173   5.108   9.161 -1.4792  0.4469 -0.6626
  354MOL0     H48850   3.241   4.940   9.281 -0.3094  0.2303 -0.3988
  354MOL0     H48851   3.122   4.811   9.236 -0.4439  1.1184  0.8093
  354MOL0     H48852   3.296   4.787   9.215 -0.0684 -0.5075 -1.8625
  355MOL0     O48853   6.959   2.140  10.464 -0.3724  0.0889 -0.1857
  355MOL0     C48854   6.926   2.241  10.404 -0.5257 -0.6693  0.3475
  355MOL0     O48855   6.801   2.281  10.378 -0.0375  0.5162  0.1570
  355MOL0     C48856   6.702   2.194  10.403 -0.3104  0.4826  0.1732
  355MOL0     C48857   6.605   2.231  10.497  0.1054  0.1677  0.1237
  355MOL0     C48858   6.492   2.143  10.518  0.4057 -0.3373 -0.5018
  355MOL0     C48859   6.492   2.022  10.458 -0.2186  0.2296 -0.5352
  355MOL0     O48860   6.393   1.923  10.468 -0.8671  0.1638  0.5299
  355MOL0     C48861   6.292   1.914  10.569  0.3627  0.3042 -0.0800
  355MOL0     C48862   6.360   1.840  10.691  0.7663 -0.3790  0.1563
  355MOL0     C48863   6.291   1.848  10.826 -0.1178 -0.0589 -0.1759
  355MOL0     C48864   6.228   1.980  10.873 -0.9866  0.2391 -1.0637
  355MOL0     C48865   6.183   1.976  11.019  0.1202 -0.1105  0.0180
  355MOL0     C48866   6.231   2.090  11.115 -0.1850  0.0595  0.5719
  355MOL0     C48867   6.171   2.225  11.091  0.1080  0.4530  0.5092
  355MOL0     C48868   6.210   2.333  11.194  0.5181  0.0524 -0.6532
  355MOL0     N48869   6.131   2.463  11.167  0.2086  0.0206  0.2780
  355MOL0     C48870   6.036   2.496  11.076  0.5753 -0.3278  0.6491
  355MOL0     C48871   6.033   2.629  11.072  0.2489  0.4180  0.0467
  355MOL0     C48872   5.944   2.724  10.990 -0.0892 -0.3383 -0.8421
  355MOL0     C48873   6.015   2.802  10.880 -0.0163  0.1444 -0.5593
  355MOL0     C48874   5.914   2.874  10.792 -0.2087  0.6641 -0.1521
  355MOL0     C48875   5.831   2.780  10.702 -0.7989  0.2828 -1.1545
  355MOL0     O48876   5.735   2.853  10.620 -0.2016  0.1560 -0.1920
  355MOL0     C48877   5.655   2.769  10.544  0.4970  0.5776  0.2955
  355MOL0     C48878   5.667   2.631  10.535  0.8268  0.0037 -0.5909
  355MOL0     C48879   5.577   2.548  10.464  0.0950  0.3814 -1.0386
  355MOL0     C48880   5.594   2.401  10.470  0.1836 -0.7688 -0.2510
  355MOL0     C48881   5.472   2.613  10.397  0.1536  0.1511  0.1954
  355MOL0     C48882   5.376   2.540  10.312 -0.1233  0.2621 -0.1234
  355MOL0     O48883   5.252   2.594  10.315 -0.0657 -0.2706 -0.3357
  355MOL0     C48884   5.152   2.539  10.242 -0.7764  0.2043  0.7968
  355MOL0     C48885   5.109   2.409  10.275 -0.3015  0.4232  0.2809
  355MOL0     C48886   5.007   2.354  10.194  0.4461 -0.1106  0.3158
  355MOL0     C48887   4.958   2.414  10.079 -0.4863 -0.0122 -0.2133
  355MOL0     O48888   4.871   2.355   9.994  0.0142 -0.4658 -0.1130
  355MOL0     C48889   4.790   2.252  10.043  1.5251  0.3691  0.4937
  355MOL0     C48890   4.685   2.218   9.933 -0.1429  0.2143 -0.1494
  355MOL0     C48891   4.585   2.105   9.972 -1.1215 -0.5476 -1.0501
  355MOL0     C48892   4.525   2.045   9.839 -0.7207  0.0701 -1.2531
  355MOL0     C48893   4.430   1.928   9.884  1.1514 -0.3782 -0.1776
  355MOL0     C48894   4.515   1.808   9.926 -0.1951  0.7084  0.5449
  355MOL0     C48895   4.434   1.697  10.001  1.0861  0.5442 -0.0752
  355MOL0     C48896   4.329   1.626   9.915 -0.6305 -0.1535  0.0691
  355MOL0    Cl48897   4.166   1.696   9.925  0.0694  0.1662 -0.0007
  355MOL0     C48898   4.991   2.549  10.060 -0.1985  0.3305  0.0673
  355MOL0     C48899   5.097   2.610  10.133  0.4251 -0.3298  0.3633
  355MOL0     O48900   5.413   2.452  10.239  0.3360  0.3077  1.2129
  355MOL0     C48901   5.460   2.754  10.404  0.1233 -0.3279  0.2168
  355MOL0     C48902   5.554   2.822  10.468  0.8376  0.3309  0.1885
  355MOL0     N48903   6.111   2.681  11.169  0.7567 -0.3697 -0.2830
  355MOL0     N48904   6.167   2.584  11.231 -0.5835 -0.2398 -0.1194
  355MOL0     C48905   6.595   1.991  10.359  0.2689  0.4596 -0.3409
  355MOL0     C48906   6.696   2.080  10.326  1.1524  0.1327 -0.3060
  355MOL0     C48907   7.023   2.335  10.345 -0.0310 -0.1780  0.3522
  355MOL0     C48908   6.981   2.470  10.310 -0.1506  0.3608  0.9066
  355MOL0     C48909   7.071   2.568  10.288 -0.2111 -0.6032  0.7097
  355MOL0     C48910   7.206   2.543  10.280 -0.2477  0.7397 -0.1506
  355MOL0     O48911   7.315   2.623  10.260 -0.3769  0.2747 -0.4327
  355MOL0     C48912   7.298   2.759  10.236  0.1452  0.0545 -0.5041
  355MOL0     C48913   7.370   2.801  10.119  0.5083  0.0339  1.0621
  355MOL0     C48914   7.298   2.905  10.041  0.2113 -0.0688 -0.4759
  355MOL0     C48915   7.354   2.925   9.897  1.1028 -0.7593  0.6115
  355MOL0     C48916   7.266   3.023   9.823 -0.0669 -0.0234  0.3244
  355MOL0     C48917   7.195   3.106   9.777 -0.1570  0.8021 -0.6401
  355MOL0     C48918   7.244   2.413  10.310 -0.4464 -0.0650 -0.8259
  355MOL0     C48919   7.162   2.310  10.337 -0.0430  1.2113 -0.7316
  355MOL0     C48920   7.226   2.185  10.393 -0.5843  0.0845 -0.5511
  355MOL0     H48921   6.629   2.315  10.562  3.1963  1.1664 -2.1130
  355MOL0     H48922   6.427   2.164  10.602  1.6061 -1.4878  0.7679
  355MOL0     H48923   6.203   1.866  10.526  0.9492  1.5532 -2.8763
  355MOL0     H48924   6.265   2.015  10.600 -1.6744 -0.0484 -0.5209
  355MOL0     H48925   6.373   1.738  10.654  0.3788 -0.8313  1.2359
  355MOL0     H48926   6.460   1.884  10.699 -0.1574  1.7478  0.8635
  355MOL0     H48927   6.209   1.777  10.841 -0.9168  1.4264  3.4574
  355MOL0     H48928   6.363   1.819  10.903  0.7570 -1.7205 -1.5530
  355MOL0     H48929   6.305   2.053  10.847  0.2789 -1.7386 -3.2034
  355MOL0     H48930   6.151   1.997  10.797  1.5261  1.0316 -3.5722
  355MOL0     H48931   6.233   1.895  11.073  0.6128  1.6269  2.3562
  355MOL0     H48932   6.075   1.966  11.029 -0.2218  2.1065 -0.9331
  355MOL0     H48933   6.231   2.055  11.218  1.2685 -1.3370  0.1245
  355MOL0     H48934   6.338   2.100  11.093 -0.9153 -1.3501 -5.2260
  355MOL0     H48935   6.062   2.216  11.080  0.3462  0.0915 -2.2890
  355MOL0     H48936   6.204   2.261  10.993 -0.2694  0.4003  0.3583
  355MOL0     H48937   6.191   2.303  11.297 -2.6347  0.7095 -0.9292
  355MOL0     H48938   6.316   2.342  11.171  0.3287  0.2072 -1.5301
  355MOL0     H48939   5.989   2.422  11.013  1.1142 -0.6708  0.6405
  355MOL0     H48940   5.891   2.799  11.049 -0.1600 -0.1921 -1.0898
  355MOL0     H48941   5.861   2.663  10.952 -2.2743 -0.4332  3.5069
  355MOL0     H48942   6.078   2.880  10.922 -0.3100  0.2853 -0.3791
  355MOL0     H48943   6.073   2.736  10.814 -0.4982  0.9088 -1.7797
  355MOL0     H48944   5.852   2.932  10.860 -1.4888 -0.8751  0.0648
  355MOL0     H48945   5.975   2.937  10.727 -1.2752  0.2745 -1.5764
  355MOL0     H48946   5.906   2.729  10.642  1.6195  2.4549 -0.2172
  355MOL0     H48947   5.768   2.709  10.757 -0.4625  1.0695  0.3232
  355MOL0     H48948   5.744   2.570  10.581  0.1044 -0.8627 -0.5004
  355MOL0     H48949   5.498   2.354  10.493  1.5606 -2.7487  1.9442
  355MOL0     H48950   5.662   2.366  10.548  0.8625 -1.0163 -0.9320
  355MOL0     H48951   5.632   2.357  10.377  0.9679  2.0749 -1.3807
  355MOL0     H48952   5.149   2.359  10.363 -2.7405  0.9358  1.7962
  355MOL0     H48953   4.979   2.252  10.220  0.3131 -0.5598 -1.4472
  355MOL0     H48954   4.851   2.164  10.065  0.3265 -1.0235 -1.4206
  355MOL0     H48955   4.745   2.292  10.134 -2.2920  3.0766 -2.2470
  355MOL0     H48956   4.622   2.302   9.903 -0.9028 -1.1437 -2.6611
  355MOL0     H48957   4.747   2.184   9.849  1.5821 -0.4930  1.3463
  355MOL0     H48958   4.502   2.147  10.029 -2.0379 -1.6901 -1.5040
  355MOL0     H48959   4.635   2.032  10.037  0.1415 -1.2255 -2.6981
  355MOL0     H48960   4.605   2.007   9.774 -0.1044 -0.8557  0.0040
  355MOL0     H48961   4.471   2.120   9.780 -0.8661 -0.7065 -2.1340
  355MOL0     H48962   4.377   1.953   9.976  2.0771 -2.5963  1.0318
  355MOL0     H48963   4.353   1.903   9.810 -2.3396  0.3190  2.9248
  355MOL0     H48964   4.602   1.833   9.988  0.6003  1.0068 -0.6715
  355MOL0     H48965   4.545   1.765   9.831  1.0261  0.0001  1.2266
  355MOL0     H48966   4.391   1.729  10.096 -0.2603 -0.5929 -0.2644
  355MOL0     H48967   4.496   1.610  10.026 -1.2176 -1.3240 -0.5121
  355MOL0     H48968   4.335   1.517   9.919  1.4205 -0.0465  1.9106
  355MOL0     H48969   4.371   1.637   9.815  1.9169  1.6825  1.2421
  355MOL0     H48970   4.944   2.593   9.972 -4.0560 -2.1226  0.6918
  355MOL0     H48971   5.140   2.702  10.095  1.3169  0.1713  2.4766
  355MOL0     H48972   5.390   2.804  10.338  0.8291  1.6947  0.9280
  355MOL0     H48973   5.551   2.928  10.445 -1.6533  0.2038 -0.3577
  355MOL0     H48974   6.594   1.887  10.328 -1.5093 -0.8438  3.3759
  355MOL0     H48975   6.773   2.059  10.252  1.3493 -0.5868  0.0985
  355MOL0     H48976   6.881   2.506  10.328  0.4222  3.4352 -1.2053
  355MOL0     H48977   7.035   2.668  10.265  0.9294 -0.3569 -0.0905
  355MOL0     H48978   7.193   2.787  10.229  0.4929  1.1809 -1.6470
  355MOL0     H48979   7.339   2.811  10.323  5.1929 -1.6877 -1.4659
  355MOL0     H48980   7.393   2.713  10.058  1.3834  0.5942  0.5669
  355MOL0     H48981   7.464   2.840  10.160  0.4476 -0.0719  1.3087
  355MOL0     H48982   7.192   2.885  10.019 -0.0754 -0.4082  1.0820
  355MOL0     H48983   7.297   2.999  10.098 -0.2905 -0.2303 -0.2023
  355MOL0     H48984   7.353   2.827   9.848 -1.8476  0.5185 -2.2339
  355MOL0     H48985   7.455   2.967   9.894  0.8576 -0.1757  0.4530
  355MOL0     H48986   7.135   3.182   9.731  0.6632  2.0572  0.3031
  355MOL0     H48987   7.351   2.406  10.326 -0.7702  1.5139  3.1825
  355MOL0     H48988   7.335   2.188  10.384 -0.6404  2.9116 -1.1736
  355MOL0     H48989   7.203   2.174  10.499 -0.0191  1.0745 -0.3190
  355MOL0     H48990   7.187   2.096  10.342 -1.3159  0.6249 -0.9641
  356MOL0     O48991   2.029   7.233   3.471 -0.1872  1.1403 -0.0512
  356MOL0     C48992   2.111   7.322   3.459  0.8382  0.3709 -0.4202
  356MOL0     O48993   2.188   7.340   3.352 -0.7367 -0.3768 -1.4045
  356MOL0     C48994   2.198   7.246   3.258  0.5413 -0.1358 -0.5317
  356MOL0     C48995   2.085   7.195   3.188 -1.6577  0.2683  0.1821
  356MOL0     C48996   2.113   7.107   3.085 -0.2469 -0.1808 -0.4321
  356MOL0     C48997   2.246   7.063   3.052  0.0084  0.8288 -0.5904
  356MOL0     O48998   2.253   6.959   2.954 -0.3162 -0.3950  0.2285
  356MOL0     C48999   2.363   6.970   2.860 -0.2994 -0.0007  0.0439
  356MOL0     C49000   2.330   7.056   2.740  0.3235 -0.6590 -0.3910
  356MOL0     C49001   2.450   7.048   2.645 -0.3730  0.3276 -0.7818
  356MOL0     C49002   2.428   7.164   2.546  0.4100 -0.3016  0.1294
  356MOL0     C49003   2.523   7.182   2.433  0.0536 -0.4290  0.3112
  356MOL0     C49004   2.498   7.306   2.344  0.3065 -0.5884 -0.6198
  356MOL0     C49005   2.560   7.309   2.205  0.5722 -0.2399  0.0105
  356MOL0     C49006   2.719   7.303   2.199  0.1571 -0.8575 -0.1036
  356MOL0     N49007   2.754   7.304   2.054 -0.1610  0.7554 -1.0751
  356MOL0     C49008   2.765   7.194   1.974 -0.2453 -0.2174 -0.2183
  356MOL0     C49009   2.802   7.247   1.850 -0.0945  0.3126 -0.7220
  356MOL0     C49010   2.864   7.168   1.737 -1.1996  0.5523 -0.8772
  356MOL0     C49011   2.835   7.026   1.734 -0.0572  1.2359 -0.3236
  356MOL0     C49012   2.693   7.018   1.675 -0.2799  0.3661  0.0786
  356MOL0     C49013   2.625   6.886   1.686 -0.2028  0.4165  0.3952
  356MOL0     O49014   2.577   6.843   1.810  0.1734  0.3523  0.3830
  356MOL0     C49015   2.528   6.717   1.803 -0.8639 -0.0243  0.7982
  356MOL0     C49016   2.587   6.613   1.867 -0.4568 -0.2054 -1.4045
  356MOL0     C49017   2.520   6.489   1.865 -1.1789  0.8648 -0.5957
  356MOL0     C49018   2.567   6.381   1.963 -0.0561  0.6198  0.5849
  356MOL0     C49019   2.408   6.473   1.793  1.8109  0.1419  0.4871
  356MOL0     C49020   2.329   6.341   1.774 -0.1548 -0.3906  0.3625
  356MOL0     O49021   2.198   6.347   1.789  0.9297  0.7863 -0.1856
  356MOL0     C49022   2.127   6.300   1.691  0.3196  0.2553  1.0106
  356MOL0     C49023   2.122   6.164   1.676  0.1156 -0.5292 -0.9031
  356MOL0     C49024   2.024   6.100   1.601 -0.6138  0.2847 -0.2266
  356MOL0     C49025   1.937   6.186   1.523 -0.1421  0.7421  0.2350
  356MOL0     O49026   1.830   6.133   1.451 -0.5593 -0.2671  0.2706
  356MOL0     C49027   1.699   6.206   1.449 -0.1833 -0.7057  0.2007
  356MOL0     C49028   1.582   6.110   1.407 -0.2176  0.5878  0.1426
  356MOL0     C49029   1.522   6.112   1.272 -0.3556 -0.9090  0.4499
  356MOL0     C49030   1.631   6.105   1.159 -0.5912  0.1334 -0.0285
  356MOL0     C49031   1.569   6.055   1.025 -0.8834  0.3361  0.6799
  356MOL0     C49032   1.501   6.174   0.961  0.1073  0.2152 -0.5411
  356MOL0     C49033   1.446   6.143   0.821 -1.1066 -0.7531 -0.3417
  356MOL0     C49034   1.551   6.109   0.720  0.1972 -0.2348  0.6014
  356MOL0    Cl49035   1.655   6.258   0.684  0.4716  0.4215  0.2034
  356MOL0     C49036   1.957   6.320   1.526 -0.7567 -1.3040  0.4281
  356MOL0     C49037   2.038   6.380   1.622  0.0249  0.0592 -0.0039
  356MOL0     O49038   2.391   6.242   1.762 -0.7907 -0.1624  0.3104
  356MOL0     C49039   2.357   6.580   1.713 -0.1866  0.6719  0.1556
  356MOL0     C49040   2.413   6.700   1.729  0.8789  0.9811  0.3455
  356MOL0     N49041   2.799   7.382   1.861 -0.9261 -0.6043 -0.0308
  356MOL0     N49042   2.771   7.414   1.981  0.7542  0.4176 -0.1008
  356MOL0     C49043   2.355   7.114   3.128  0.6593 -0.4716 -0.5598
  356MOL0     C49044   2.322   7.199   3.230 -0.6502  0.2593  0.0853
  356MOL0     C49045   2.125   7.394   3.591  0.8250 -0.9981  0.0172
  356MOL0     C49046   2.021   7.422   3.680 -0.1158 -0.7827 -0.4105
  356MOL0     C49047   2.045   7.463   3.814  0.5826 -0.5489  0.7162
  356MOL0     C49048   2.174   7.492   3.863 -0.2124  0.3049  0.3133
  356MOL0     O49049   2.210   7.535   3.989 -0.2608 -0.6272  0.5455
  356MOL0     C49050   2.111   7.564   4.081 -0.2787 -0.4395  0.3248
  356MOL0     C49051   2.172   7.666   4.180 -1.2300 -0.2949 -0.6078
  356MOL0     C49052   2.076   7.696   4.292  0.1174  0.6103  0.5393
  356MOL0     C49053   2.134   7.782   4.390  0.2635 -0.4228 -0.2326
  356MOL0     C49054   2.037   7.806   4.499  0.4950 -0.3917 -0.5489
  356MOL0     C49055   1.955   7.841   4.589  0.4185  0.6024  0.5105
  356MOL0     C49056   2.277   7.478   3.772 -0.7337  0.4549 -0.1049
  356MOL0     C49057   2.257   7.425   3.647  0.6704  0.1778  0.6665
  356MOL0     C49058   2.384   7.397   3.564 -0.0440 -0.1999 -0.5252
  356MOL0     H49059   1.987   7.228   3.220 -1.7936 -0.2075  0.2527
  356MOL0     H49060   2.026   7.079   3.026  1.7382 -5.8185 -1.3047
  356MOL0     H49061   2.392   6.867   2.840 -0.9157 -0.7232  2.5262
  356MOL0     H49062   2.459   7.009   2.895  0.4200  0.6858 -2.4788
  356MOL0     H49063   2.232   7.030   2.698 -1.1583 -3.0102  3.8388
  356MOL0     H49064   2.310   7.156   2.779  0.6780 -0.4668 -0.7078
  356MOL0     H49065   2.550   7.063   2.685 -0.1676  0.8468 -1.4574
  356MOL0     H49066   2.468   6.951   2.596  1.0172 -0.2452  0.7827
  356MOL0     H49067   2.323   7.165   2.515 -0.0258 -0.7202  1.5224
  356MOL0     H49068   2.423   7.253   2.609 -0.2239  1.2939 -2.0613
  356MOL0     H49069   2.502   7.096   2.368 -2.4541  1.0732 -1.0370
  356MOL0     H49070   2.627   7.182   2.466  0.1248 -3.8716  0.4723
  356MOL0     H49071   2.391   7.327   2.334  0.3929  0.9619  1.1426
  356MOL0     H49072   2.542   7.393   2.394 -0.6883 -1.5141  2.0411
  356MOL0     H49073   2.535   7.401   2.151  2.6825 -0.5360 -1.5979
  356MOL0     H49074   2.523   7.224   2.148 -3.2165  1.6505 -0.6907
  356MOL0     H49075   2.764   7.387   2.252 -0.7947 -0.6694  0.4334
  356MOL0     H49076   2.751   7.209   2.244  0.1126 -1.2008 -0.7806
  356MOL0     H49077   2.780   7.090   2.001  1.4657  0.3100  0.9825
  356MOL0     H49078   2.970   7.173   1.763 -1.4588  2.5945 -0.0864
  356MOL0     H49079   2.848   7.227   1.646 -0.3855  0.8655 -0.8278
  356MOL0     H49080   2.902   6.982   1.659  1.0665 -1.1110  1.8771
  356MOL0     H49081   2.849   6.977   1.831  1.0940 -2.2001 -2.0588
  356MOL0     H49082   2.624   7.075   1.737  2.5086  1.4367  2.4322
  356MOL0     H49083   2.679   7.051   1.572 -1.6608  0.0959  0.1657
  356MOL0     H49084   2.539   6.892   1.618 -2.0279  2.3271  2.6706
  356MOL0     H49085   2.706   6.820   1.655 -0.6010  0.9540 -2.0063
  356MOL0     H49086   2.672   6.625   1.933 -2.1855  0.4055  0.8288
  356MOL0     H49087   2.648   6.409   2.030  2.3137 -0.8553 -1.5046
  356MOL0     H49088   2.612   6.299   1.906 -0.4715 -1.1853  2.7023
  356MOL0     H49089   2.483   6.339   2.020  1.5119 -0.4203  2.2290
  356MOL0     H49090   2.197   6.099   1.721  2.1823  1.7054 -0.9520
  356MOL0     H49091   2.026   5.991   1.609 -2.0246  0.2179 -0.4669
  356MOL0     H49092   1.686   6.235   1.553  3.0080 -1.2152  0.8604
  356MOL0     H49093   1.702   6.290   1.379  0.4477 -1.5380 -0.8060
  356MOL0     H49094   1.604   6.004   1.427 -0.5888  0.0268 -2.1790
  356MOL0     H49095   1.502   6.139   1.475 -1.0342 -1.7281  0.2677
  356MOL0     H49096   1.453   6.195   1.252  0.9469 -0.2014 -1.3356
  356MOL0     H49097   1.468   6.019   1.256 -1.1737 -0.4577  0.5214
  356MOL0     H49098   1.707   6.034   1.193 -2.0348 -0.0014  3.3454
  356MOL0     H49099   1.666   6.208   1.152 -1.4175  0.5637  1.6203
  356MOL0     H49100   1.648   6.017   0.960 -3.6963  0.7592 -3.3869
  356MOL0     H49101   1.499   5.972   1.042 -0.3506 -0.2220  0.2007
  356MOL0     H49102   1.581   6.247   0.953  2.3229 -1.8719  1.1048
  356MOL0     H49103   1.427   6.212   1.032  0.1101 -2.3263  0.9481
  356MOL0     H49104   1.393   6.230   0.782  1.5972  0.7883 -0.7869
  356MOL0     H49105   1.376   6.060   0.831 -0.2320 -1.4800 -0.1484
  356MOL0     H49106   1.500   6.072   0.631 -0.3293 -2.3247  1.6998
  356MOL0     H49107   1.613   6.025   0.752  0.6748 -1.0186 -2.1078
  356MOL0     H49108   1.909   6.388   1.456  2.0109  1.9223  1.4164
  356MOL0     H49109   2.042   6.488   1.636 -2.7405  0.2313  0.0720
  356MOL0     H49110   2.265   6.562   1.657 -1.8480  0.9682  2.5909
  356MOL0     H49111   2.379   6.794   1.686  1.3610  0.6487 -0.8015
  356MOL0     H49112   2.461   7.091   3.118  0.6945 -0.3415 -0.4846
  356MOL0     H49113   2.407   7.214   3.296 -1.1068 -3.6305  1.8570
  356MOL0     H49114   1.918   7.407   3.652 -0.4030  0.8899 -0.3759
  356MOL0     H49115   1.957   7.470   3.877  0.2919  0.2410  0.2411
  356MOL0     H49116   2.036   7.624   4.029  2.1171  2.9806  0.4820
  356MOL0     H49117   2.077   7.477   4.137  0.4610 -0.5224  0.6671
  356MOL0     H49118   2.198   7.757   4.126 -1.1459 -0.8319 -1.4861
  356MOL0     H49119   2.260   7.619   4.224 -0.6369  2.9809  2.1085
  356MOL0     H49120   2.001   7.754   4.235  2.4900  0.9327 -2.5027
  356MOL0     H49121   2.035   7.602   4.329 -2.7266  1.3533 -0.4416
  356MOL0     H49122   2.160   7.877   4.343  0.1088 -0.3234 -0.1212
  356MOL0     H49123   2.218   7.728   4.435  1.6346  1.7850 -0.0274
  356MOL0     H49124   1.887   7.877   4.664 -0.4011  0.9513 -0.3920
  356MOL0     H49125   2.381   7.492   3.798 -0.7019  1.0499 -0.5229
  356MOL0     H49126   2.363   7.464   3.480 -1.4567  0.0786  0.0125
  356MOL0     H49127   2.478   7.422   3.612  1.1250 -0.2718 -2.6446
  356MOL0     H49128   2.390   7.291   3.537 -4.9254 -2.1865  4.2867
  357MOL0     O49129   5.900   3.176   4.554  0.8320  0.5436  0.2403
  357MOL0     C49130   5.900   3.170   4.672 -0.5810  0.2134  0.1319
  357MOL0     O49131   5.876   3.058   4.745  0.3928  0.1987  0.4506
  357MOL0     C49132   5.855   2.935   4.675  0.1502  0.0152 -0.1410
  357MOL0     C49133   5.956   2.830   4.661  0.4229 -1.3916  0.3110
  357MOL0     C49134   5.919   2.717   4.587  0.3089 -0.3285  0.2778
  357MOL0     C49135   5.793   2.707   4.537  0.2379  0.6540 -0.5623
  357MOL0     O49136   5.755   2.595   4.465 -0.6522 -0.2148 -0.5300
  357MOL0     C49137   5.726   2.601   4.324 -0.5586  0.2463 -0.1193
  357MOL0     C49138   5.868   2.582   4.267  0.2336 -0.1453 -0.0985
  357MOL0     C49139   5.917   2.434   4.276  0.5084  0.2472  0.0022
  357MOL0     C49140   6.056   2.406   4.209  0.2929  0.6081  0.3631
  357MOL0     C49141   6.116   2.270   4.254 -0.7691  0.0204  0.3852
  357MOL0     C49142   6.034   2.146   4.212  0.5762  0.9981 -0.1260
  357MOL0     C49143   5.944   2.090   4.323  0.4871 -0.8362 -0.2501
  357MOL0     C49144   6.012   2.066   4.456 -0.1143  0.2809 -0.6530
  357MOL0     N49145   5.912   2.020   4.561 -0.6598 -0.0699 -0.2337
  357MOL0     C49146   5.820   2.103   4.623  0.6651  0.0529  0.1637
  357MOL0     C49147   5.754   2.020   4.715  0.2411 -0.9410 -0.9440
  357MOL0     C49148   5.656   2.076   4.809  0.3334  0.0222  0.5713
  357MOL0     C49149   5.535   1.976   4.824  0.5225 -0.5363 -0.3275
  357MOL0     C49150   5.438   2.029   4.939  0.2580  0.0077 -0.3989
  357MOL0     C49151   5.373   2.167   4.907  0.0855  0.6983 -0.5108
  357MOL0     O49152   5.248   2.190   4.976 -0.4447  0.0977  0.5943
  357MOL0     C49153   5.246   2.270   5.092 -0.2485 -0.4007  0.0930
  357MOL0     C49154   5.132   2.275   5.171 -0.4731  0.2295 -0.0928
  357MOL0     C49155   5.115   2.348   5.286 -0.7197  0.5559  0.8149
  357MOL0     C49156   4.987   2.338   5.362  0.1822 -0.2469  0.2871
  357MOL0     C49157   5.235   2.418   5.340 -0.4247  0.7820 -0.6349
  357MOL0     C49158   5.241   2.473   5.478  0.9093  0.0038 -0.5325
  357MOL0     O49159   5.376   2.489   5.516 -0.8736 -0.4020 -0.3571
  357MOL0     C49160   5.412   2.517   5.649 -0.4483  0.0895  0.0885
  357MOL0     C49161   5.327   2.508   5.762  0.8900  0.0814  0.0701
  357MOL0     C49162   5.362   2.564   5.887 -0.4407 -0.2424 -0.1817
  357MOL0     C49163   5.489   2.618   5.899 -0.5268  0.2962 -0.1064
  357MOL0     O49164   5.521   2.687   6.018  0.2039  0.6917 -0.1589
  357MOL0     C49165   5.651   2.742   6.055 -0.0641 -0.0279  0.2555
  357MOL0     C49166   5.654   2.757   6.205  1.0000  1.0882 -0.3746
  357MOL0     C49167   5.779   2.822   6.269  0.2748  0.4080  0.1415
  357MOL0     C49168   5.810   2.756   6.412  0.1318  0.2511 -0.1861
  357MOL0     C49169   5.955   2.795   6.460 -0.4941  0.0704  0.0542
  357MOL0     C49170   5.975   2.949   6.474 -0.0603  0.6235  0.2884
  357MOL0     C49171   5.874   3.021   6.578 -0.2421  0.1534 -0.2625
  357MOL0     C49172   5.874   2.969   6.726  0.4774  0.6245  0.6357
  357MOL0    Cl49173   5.765   3.087   6.818  0.3039  0.3392  0.3883
  357MOL0     C49174   5.574   2.629   5.789  0.0337  0.1214  1.4077
  357MOL0     C49175   5.548   2.559   5.664 -0.7160 -0.2987  0.8059
  357MOL0     O49176   5.139   2.524   5.535  0.0486 -0.4999  0.1751
  357MOL0     C49177   5.344   2.430   5.253  0.9500 -0.7510 -0.7000
  357MOL0     C49178   5.346   2.359   5.137  0.1136 -1.0382 -0.2117
  357MOL0     N49179   5.809   1.897   4.708  0.0556  0.6358 -0.0326
  357MOL0     N49180   5.891   1.891   4.608  0.6291  0.8076  0.0966
  357MOL0     C49181   5.694   2.801   4.548 -0.0854 -1.0534 -0.1417
  357MOL0     C49182   5.724   2.916   4.628 -0.0500 -0.2460  0.7442
  357MOL0     C49183   5.964   3.279   4.747 -0.0994  0.0664 -0.3965
  357MOL0     C49184   5.981   3.261   4.885  0.4380  0.9582 -0.4325
  357MOL0     C49185   6.034   3.363   4.965  0.2105  0.3915 -0.9043
  357MOL0     C49186   6.084   3.481   4.904  0.3909 -1.2095 -0.3030
  357MOL0     O49187   6.145   3.589   4.963  0.0172  0.1894 -0.3519
  357MOL0     C49188   6.255   3.562   5.049 -0.5214  0.5078 -1.1145
  357MOL0     C49189   6.318   3.688   5.102 -0.2169  0.0037 -0.0844
  357MOL0     C49190   6.243   3.746   5.228  0.8795  0.0391 -0.1596
  357MOL0     C49191   6.150   3.863   5.189  0.5699  0.1911  0.0371
  357MOL0     C49192   6.214   3.990   5.190 -0.3858 -0.3091  0.1449
  357MOL0     C49193   6.273   4.093   5.174 -0.5320 -0.7368  0.3464
  357MOL0     C49194   6.077   3.490   4.771 -0.7303 -0.1470 -0.1853
  357MOL0     C49195   6.011   3.402   4.685 -0.5250  0.9344  0.9718
  357MOL0     C49196   6.001   3.447   4.536  0.6300  0.0735 -0.3691
  357MOL0     H49197   6.053   2.846   4.705 -0.9792  1.8098  2.6208
  357MOL0     H49198   5.997   2.644   4.567 -1.7889 -2.0434 -2.4005
  357MOL0     H49199   5.685   2.696   4.288 -1.4762 -1.0971 -2.9534
  357MOL0     H49200   5.661   2.517   4.297 -0.2308 -0.8563  2.2645
  357MOL0     H49201   5.876   2.610   4.161  3.2537 -0.6627 -0.0908
  357MOL0     H49202   5.935   2.650   4.320 -1.7058 -0.1726  2.5694
  357MOL0     H49203   5.932   2.414   4.382 -4.1262  1.4541  1.0806
  357MOL0     H49204   5.841   2.367   4.236 -2.6846  2.2704  2.2871
  357MOL0     H49205   6.044   2.409   4.100  0.8008 -2.2405  0.1468
  357MOL0     H49206   6.122   2.485   4.245 -1.3787  1.7455  1.0423
  357MOL0     H49207   6.153   2.274   4.357 -2.4052 -0.3201  1.0209
  357MOL0     H49208   6.202   2.264   4.186 -0.4363 -3.0543  0.9318
  357MOL0     H49209   5.979   2.167   4.120 -2.1022 -0.2861  1.0768
  357MOL0     H49210   6.104   2.062   4.201 -0.1866  0.2274  0.7554
  357MOL0     H49211   5.885   2.002   4.296 -1.8689 -0.7523  3.8220
  357MOL0     H49212   5.863   2.162   4.334  0.1172 -1.0723 -1.3868
  357MOL0     H49213   6.083   1.984   4.445  0.2534  0.3823  0.7665
  357MOL0     H49214   6.063   2.152   4.500 -2.6316  0.5736  1.9251
  357MOL0     H49215   5.810   2.210   4.608 -0.6242 -0.3318 -2.2211
  357MOL0     H49216   5.608   2.169   4.779  1.5144  0.6035  0.4169
  357MOL0     H49217   5.715   2.086   4.901  2.7523 -1.9254 -0.6330
  357MOL0     H49218   5.466   1.992   4.741 -4.8424 -0.1477  3.6580
  357MOL0     H49219   5.569   1.873   4.841  2.2887  0.1424  0.4904
  357MOL0     H49220   5.370   1.946   4.954 -0.1688  0.1121 -1.6722
  357MOL0     H49221   5.501   2.050   5.026 -1.0892 -0.8172  0.8166
  357MOL0     H49222   5.449   2.242   4.930 -0.2751  0.9111 -0.0062
  357MOL0     H49223   5.375   2.181   4.798 -0.2802 -2.0545 -0.9534
  357MOL0     H49224   5.042   2.221   5.144 -0.0734  0.5016 -2.1136
  357MOL0     H49225   4.936   2.435   5.368  0.3945  0.0893 -2.2244
  357MOL0     H49226   5.006   2.290   5.458  0.3180 -4.1839 -1.4960
  357MOL0     H49227   4.925   2.256   5.324  0.0456  0.2657 -0.6306
  357MOL0     H49228   5.226   2.472   5.743  1.3664 -0.4352 -1.7673
  357MOL0     H49229   5.301   2.576   5.976 -0.6882  3.1739 -0.7016
  357MOL0     H49230   5.731   2.673   6.026  0.7944  0.2192  1.9038
  357MOL0     H49231   5.674   2.838   6.008  1.4663 -0.5950 -0.2433
  357MOL0     H49232   5.566   2.814   6.238  1.3496  1.9638 -0.9124
  357MOL0     H49233   5.648   2.661   6.257 -0.3528  0.7750 -1.0659
  357MOL0     H49234   5.761   2.929   6.286 -0.4812  0.3906 -0.5312
  357MOL0     H49235   5.855   2.816   6.191 -0.7916 -1.5715 -0.8229
  357MOL0     H49236   5.812   2.647   6.409  0.4261  0.2274  0.6868
  357MOL0     H49237   5.732   2.772   6.487 -0.7297  0.1633 -1.0483
  357MOL0     H49238   5.973   2.737   6.551  1.3715  0.1051 -0.2546
  357MOL0     H49239   6.024   2.761   6.382 -0.4192 -3.4251  1.4655
  357MOL0     H49240   5.951   2.996   6.379  0.9533 -0.1690 -0.3790
  357MOL0     H49241   6.080   2.978   6.486 -0.3005  2.1828 -1.0335
  357MOL0     H49242   5.774   3.009   6.536 -0.1869 -1.0283 -0.0798
  357MOL0     H49243   5.897   3.128   6.572 -1.5339  0.4204 -0.8258
  357MOL0     H49244   5.972   2.952   6.773 -0.8055 -3.5419  2.3100
  357MOL0     H49245   5.847   2.863   6.727  1.6008 -0.0432 -4.7387
  357MOL0     H49246   5.672   2.676   5.796  0.2008  0.1078 -0.4848
  357MOL0     H49247   5.622   2.558   5.585 -1.4169 -2.0014  0.1231
  357MOL0     H49248   5.434   2.480   5.287 -0.6699  0.1118  2.8707
  357MOL0     H49249   5.436   2.381   5.081 -0.0403 -0.7502 -0.3475
  357MOL0     H49250   5.595   2.784   4.506 -0.9321  0.4440  1.1394
  357MOL0     H49251   5.651   2.997   4.632  1.4164  1.1116  3.3345
  357MOL0     H49252   5.939   3.181   4.944  1.1507  3.2202  3.4843
  357MOL0     H49253   6.033   3.334   5.070 -0.6276  0.1866 -0.9567
  357MOL0     H49254   6.245   3.487   5.127  0.8630  1.9547  0.5364
  357MOL0     H49255   6.334   3.512   4.993  1.0795 -0.6465  1.9747
  357MOL0     H49256   6.341   3.772   5.037  0.3738 -0.4025 -0.4159
  357MOL0     H49257   6.417   3.667   5.144  1.2562 -0.0309 -3.2608
  357MOL0     H49258   6.178   3.669   5.272 -1.1347 -0.4232 -3.5824
  357MOL0     H49259   6.316   3.771   5.306  0.4305 -3.5234  1.6060
  357MOL0     H49260   6.070   3.870   5.263  1.7384  2.2198  1.2025
  357MOL0     H49261   6.105   3.850   5.090  1.7056  1.5450 -0.6940
  357MOL0     H49262   6.328   4.184   5.167  1.6749 -1.7804  2.4516
  357MOL0     H49263   6.110   3.577   4.715 -2.4750  1.2791  0.8905
  357MOL0     H49264   6.084   3.408   4.476  0.2381  1.2923 -1.7623
  357MOL0     H49265   5.914   3.405   4.484  0.6757  1.7095 -1.8384
  357MOL0     H49266   6.009   3.555   4.522  0.3077  0.3159  1.1674
  358MOL0     O49267  10.859   7.708   8.720 -0.3508 -0.3776  0.0888
  358MOL0     C49268  10.902   7.606   8.775  1.7052 -1.0887  0.5805
  358MOL0     O49269  10.895   7.585   8.911 -0.5122  0.1921  0.2797
  358MOL0     C49270  10.827   7.673   8.995 -0.2870  0.5921  0.9650
  358MOL0     C49271  10.725   7.610   9.065  0.7391 -0.3959  0.4312
  358MOL0     C49272  10.642   7.682   9.149 -0.3883  0.3046 -0.7111
  358MOL0     C49273  10.648   7.823   9.162  0.3113 -0.2620  0.4676
  358MOL0     O49274  10.560   7.907   9.225 -0.1799  0.7799 -0.3616
  358MOL0     C49275  10.624   7.957   9.341 -0.6404  0.1848  0.2871
  358MOL0     C49276  10.531   7.965   9.464 -0.0661  0.2656 -0.0705
  358MOL0     C49277  10.452   7.843   9.502  0.5581 -0.4135 -0.1196
  358MOL0     C49278  10.330   7.823   9.423  0.2072 -0.6086  0.3521
  358MOL0     C49279  10.269   7.683   9.457  0.5706 -0.7290 -0.4137
  358MOL0     C49280  10.145   7.647   9.371  0.7482 -0.5597 -0.7919
  358MOL0     C49281  10.177   7.615   9.227 -0.5763  0.3480  0.3286
  358MOL0     C49282  10.153   7.481   9.167 -0.0993 -0.2322  0.3082
  358MOL0     N49283  10.207   7.378   9.260  0.7865  0.2444  0.9813
  358MOL0     C49284  10.124   7.310   9.343  0.5840 -0.1499 -0.4867
  358MOL0     C49285  10.213   7.244   9.419  0.9043  0.6515  0.6809
  358MOL0     C49286  10.172   7.147   9.524 -0.6584 -0.2384 -0.8760
  358MOL0     C49287  10.244   7.187   9.659  0.3355  1.0630  0.6298
  358MOL0     C49288  10.188   7.321   9.714 -0.4086 -0.5569 -0.7345
  358MOL0     C49289  10.251   7.355   9.847  0.1829 -0.0719  0.4686
  358MOL0     O49290  10.193   7.479   9.878 -0.1098  0.1795 -0.4264
  358MOL0     C49291  10.245   7.539   9.996 -0.2128  0.2224  1.3754
  358MOL0     C49292  10.224   7.679  10.007 -0.4592 -0.1072  0.8363
  358MOL0     C49293  10.264   7.746  10.112  0.1461  0.2782  0.2689
  358MOL0     C49294  10.244   7.897  10.110  0.1703  0.6243  0.1642
  358MOL0     C49295  10.334   7.680  10.217 -0.2132 -0.8100 -0.7014
  358MOL0     C49296  10.390   7.736  10.348  0.6089  2.3410  1.2512
  358MOL0     O49297  10.467   7.648  10.432  0.1809 -0.4710 -0.0511
  358MOL0     C49298  10.471   7.674  10.567 -1.1188  0.0923  0.2234
  358MOL0     C49299  10.361   7.705  10.649  0.0474  0.5360  0.0985
  358MOL0     C49300  10.374   7.745  10.782 -0.3534 -0.1366 -0.0731
  358MOL0     C49301  10.507   7.734  10.845  0.2620  0.7648 -0.0727
  358MOL0     O49302  10.532   7.767  10.978 -1.0919 -0.3273 -0.3928
  358MOL0     C49303  10.426   7.828  11.065 -1.3976  0.9094  0.5339
  358MOL0     C49304  10.479   7.858  11.207 -0.5399  0.7859 -0.4548
  358MOL0     C49305  10.537   7.740  11.287  0.5730  0.4406 -1.0782
  358MOL0     C49306  10.426   7.646  11.314 -0.3567 -0.3191 -0.3314
  358MOL0     C49307  10.472   7.525  11.402  0.0122 -1.1569 -0.1065
  358MOL0     C49308  10.605   7.454  11.367 -0.7707  0.2781  0.6257
  358MOL0     C49309  10.614   7.308  11.423 -1.5821  1.4336 -0.2139
  358MOL0     C49310  10.714   7.222  11.341  0.0964  0.2064 -0.2796
  358MOL0    Cl49311  10.747   7.061  11.408  0.2916  0.4143  0.4374
  358MOL0     C49312  10.606   7.670  10.774 -0.6294  0.2561  0.9908
  358MOL0     C49313  10.591   7.644  10.635 -0.3007 -0.3316 -0.5786
  358MOL0     O49314  10.347   7.837  10.382 -1.0982  0.4076 -0.4284
  358MOL0     C49315  10.362   7.540  10.199 -0.1498  0.0276 -1.0298
  358MOL0     C49316  10.308   7.469  10.100  0.5336 -0.3264  0.6141
  358MOL0     N49317  10.340   7.265   9.379  1.3223 -0.6232 -0.7822
  358MOL0     N49318  10.335   7.351   9.285 -1.0636  0.5615 -0.6912
  358MOL0     C49319  10.743   7.881   9.078  0.2183  0.9629  0.0401
  358MOL0     C49320  10.834   7.805   9.004  0.2376  0.0857  0.5671
  358MOL0     C49321  10.950   7.498   8.685 -0.0686 -0.2700 -1.1468
  358MOL0     C49322  10.980   7.375   8.744  0.3033  0.9751  0.0358
  358MOL0     C49323  11.035   7.265   8.671  0.0510  0.3451  0.0753
  358MOL0     C49324  11.075   7.280   8.537 -0.1826 -0.5020 -0.8651
  358MOL0     O49325  11.134   7.188   8.459 -0.2736 -0.2797 -0.1394
  358MOL0     C49326  11.175   7.064   8.513 -0.4168 -0.0145 -0.1806
  358MOL0     C49327  11.237   6.975   8.395  0.1022  0.7262  0.1867
  358MOL0     C49328  11.366   7.050   8.348  0.3053 -0.7516 -0.6293
  358MOL0     C49329  11.461   6.964   8.274 -0.1233  0.2917 -0.6971
  358MOL0     C49330  11.566   7.050   8.228  0.1560  0.1233  0.2987
  358MOL0     C49331  11.651   7.133   8.196 -0.5233  0.2073  0.2189
  358MOL0     C49332  11.038   7.401   8.484  0.9606 -0.1963  0.6432
  358MOL0     C49333  10.971   7.511   8.547 -0.8532  0.3945 -0.3376
  358MOL0     C49334  10.938   7.626   8.459 -0.0832  0.4721  0.8143
  358MOL0     H49335  10.717   7.502   9.067 -0.6473 -0.3010  0.5214
  358MOL0     H49336  10.563   7.645   9.212 -1.9543  2.0652 -1.5367
  358MOL0     H49337  10.665   8.055   9.315  0.3596 -0.0488  0.9163
  358MOL0     H49338  10.705   7.893   9.377 -1.4111  0.3432  2.4475
  358MOL0     H49339  10.592   7.990   9.551 -0.1361 -2.9350  1.0241
  358MOL0     H49340  10.453   8.040   9.450 -1.6896 -1.3961 -0.2468
  358MOL0     H49341  10.507   7.749   9.510  1.5722  0.2783  1.5840
  358MOL0     H49342  10.423   7.868   9.604 -0.7973 -0.6621 -0.4198
  358MOL0     H49343  10.246   7.886   9.454 -0.2876 -1.6024  1.0617
  358MOL0     H49344  10.353   7.840   9.317 -0.2829  1.1224  0.4936
  358MOL0     H49345  10.253   7.674   9.565  0.5578 -0.8799 -0.4267
  358MOL0     H49346  10.340   7.602   9.438 -1.3512 -1.9963 -2.7389
  358MOL0     H49347  10.087   7.564   9.414  2.6577 -0.8721  1.3845
  358MOL0     H49348  10.083   7.737   9.368  0.7430 -0.5855 -2.2888
  358MOL0     H49349  10.278   7.648   9.201  0.2978  0.6104  3.6484
  358MOL0     H49350  10.102   7.677   9.176 -1.1982  0.4785  1.3754
  358MOL0     H49351  10.046   7.482   9.144  0.0350  0.5665 -0.3590
  358MOL0     H49352  10.199   7.465   9.068 -2.0183 -3.1182 -0.2282
  358MOL0     H49353  10.022   7.336   9.370  1.6882  3.1475  0.9789
  358MOL0     H49354  10.213   7.047   9.509  2.9349  1.2998 -2.2628
  358MOL0     H49355  10.065   7.154   9.547 -1.0444  1.8381 -2.9441
  358MOL0     H49356  10.224   7.103   9.726  0.1482  0.2158 -0.4664
  358MOL0     H49357  10.351   7.206   9.645  0.5073 -1.0032 -1.4897
  358MOL0     H49358  10.204   7.408   9.649 -0.3918  2.1460  2.5511
  358MOL0     H49359  10.080   7.307   9.719 -0.4586 -0.2117 -0.7759
  358MOL0     H49360  10.230   7.269   9.912  2.4184 -0.7852  0.3287
  358MOL0     H49361  10.360   7.364   9.847  0.3433 -1.6236  1.7366
  358MOL0     H49362  10.185   7.729   9.919 -0.8649 -1.8585 -0.0222
  358MOL0     H49363  10.167   7.926  10.182  1.0860  1.4800  0.8426
  358MOL0     H49364  10.200   7.924  10.013 -3.7549 -1.8639  1.0514
  358MOL0     H49365  10.342   7.941  10.130  0.9096  0.1548 -2.1163
  358MOL0     H49366  10.265   7.718  10.600  1.8040 -0.1719 -4.0015
  358MOL0     H49367  10.290   7.788  10.835 -0.1684  0.3565 -0.1713
  358MOL0     H49368  10.402   7.927  11.026  2.0135  1.5529 -0.2860
  358MOL0     H49369  10.337   7.766  11.074 -0.9627 -0.0104 -1.0895
  358MOL0     H49370  10.551   7.940  11.204  0.8695 -0.4377 -1.5042
  358MOL0     H49371  10.393   7.890  11.267 -1.6330 -3.2203  0.4390
  358MOL0     H49372  10.565   7.774  11.387 -1.2975  1.6058 -0.9042
  358MOL0     H49373  10.622   7.697  11.233  0.1105  0.1484 -1.5919
  358MOL0     H49374  10.375   7.615  11.222 -0.9065  1.1391 -0.5528
  358MOL0     H49375  10.348   7.697  11.371 -0.3415 -0.4242 -0.2154
  358MOL0     H49376  10.486   7.553  11.507 -2.4519 -0.7606  0.1821
  358MOL0     H49377  10.399   7.444  11.410  1.6045 -2.6771 -0.4037
  358MOL0     H49378  10.693   7.501  11.411  1.0536 -3.4075  1.2812
  358MOL0     H49379  10.619   7.452  11.258  1.1395  0.8821  0.8164
  358MOL0     H49380  10.520   7.253  11.416 -0.4204 -0.5415 -1.1075
  358MOL0     H49381  10.647   7.305  11.528  0.8233 -1.9170 -0.8866
  358MOL0     H49382  10.813   7.269  11.339  0.3142 -0.1412  1.1989
  358MOL0     H49383  10.678   7.214  11.238 -0.3597  3.5999 -0.4933
  358MOL0     H49384  10.703   7.646  10.814  1.0034 -1.5676 -3.4398
  358MOL0     H49385  10.669   7.603  10.572  0.0638  1.3851 -1.2974
  358MOL0     H49386  10.407   7.478  10.276  0.5778 -3.1978 -3.8527
  358MOL0     H49387  10.323   7.362  10.096  1.4478 -0.2245  0.9942
  358MOL0     H49388  10.740   7.988   9.066 -0.9189  1.3623  2.9295
  358MOL0     H49389  10.909   7.848   8.938 -0.6641 -1.2687 -1.4373
  358MOL0     H49390  10.964   7.363   8.851  3.0034  2.2575  0.6739
  358MOL0     H49391  11.047   7.173   8.726 -0.3872  0.2886  0.0821
  358MOL0     H49392  11.245   7.074   8.597 -0.4671 -1.3729  0.0496
  358MOL0     H49393  11.091   7.005   8.552  0.4151 -1.2950 -0.2840
  358MOL0     H49394  11.170   6.972   8.309 -1.2928  2.0634  1.1914
  358MOL0     H49395  11.254   6.870   8.422  3.3559  0.9371 -0.6123
  358MOL0     H49396  11.340   7.134   8.283  1.0544 -1.0538 -1.3360
  358MOL0     H49397  11.417   7.096   8.434  1.0735 -0.0396 -1.4495
  358MOL0     H49398  11.419   6.919   8.184 -0.5612  0.3781 -0.5358
  358MOL0     H49399  11.486   6.876   8.333  0.7061 -0.5762 -2.2658
  358MOL0     H49400  11.719   7.193   8.140 -3.3070  0.7050 -2.9996
  358MOL0     H49401  11.061   7.405   8.378  2.0935  1.3572  0.9263
  358MOL0     H49402  10.834   7.608   8.427  0.1481  1.0770 -0.3379
  358MOL0     H49403  10.946   7.724   8.505 -0.7450  0.5952  0.6843
  358MOL0     H49404  11.003   7.641   8.372 -0.1034  1.5061  0.9713
  359MOL0     O49405   5.052   9.050   5.104  0.4291 -0.6735 -0.4909
  359MOL0     C49406   5.167   9.024   5.132 -0.2319  1.0641  0.8988
  359MOL0     O49407   5.204   8.930   5.226  0.4073 -0.2387  0.7939
  359MOL0     C49408   5.119   8.839   5.291 -0.0473  0.1777  0.4011
  359MOL0     C49409   5.054   8.870   5.417  0.4220 -0.1750 -1.0319
  359MOL0     C49410   4.955   8.782   5.472 -0.0626 -0.3180  0.8394
  359MOL0     C49411   4.929   8.660   5.411  0.0621 -0.2989  0.5095
  359MOL0     O49412   4.839   8.586   5.475 -0.6384  0.5853  0.3204
  359MOL0     C49413   4.737   8.526   5.398 -0.5622 -1.0440  0.4769
  359MOL0     C49414   4.599   8.542   5.458 -0.5416 -0.9622 -0.5122
  359MOL0     C49415   4.564   8.468   5.585 -0.1458 -0.3936 -1.2805
  359MOL0     C49416   4.417   8.495   5.637  0.3425 -0.4405 -1.1643
  359MOL0     C49417   4.384   8.625   5.720 -0.1420  0.2760  0.6081
  359MOL0     C49418   4.442   8.624   5.858 -0.3608 -0.3304  0.4579
  359MOL0     C49419   4.399   8.747   5.939  0.1571  0.2651  0.2356
  359MOL0     C49420   4.492   8.773   6.058 -0.5901 -0.8619  0.2816
  359MOL0     N49421   4.524   8.655   6.143 -0.0482 -0.2280  0.1326
  359MOL0     C49422   4.628   8.567   6.128 -0.4111 -0.0210  0.6279
  359MOL0     C49423   4.604   8.482   6.234 -0.1920  0.4124  0.0943
  359MOL0     C49424   4.697   8.368   6.275 -0.2112  0.2272  0.0607
  359MOL0     C49425   4.641   8.235   6.230 -1.2477  0.5128 -0.4843
  359MOL0     C49426   4.529   8.192   6.319  0.3806  0.3064  0.3728
  359MOL0     C49427   4.460   8.070   6.263  0.3214 -0.3911  0.4964
  359MOL0     O49428   4.418   8.088   6.123 -0.2913  0.2777 -0.2702
  359MOL0     C49429   4.285   8.115   6.105  0.3783  0.3066 -0.7170
  359MOL0     C49430   4.241   8.249   6.102  0.4149 -0.0465  0.4320
  359MOL0     C49431   4.109   8.289   6.058 -0.1926  0.1534 -0.2890
  359MOL0     C49432   4.074   8.437   6.073 -0.3803  0.0951  0.1669
  359MOL0     C49433   4.016   8.188   6.027 -0.0858 -0.1251  0.2730
  359MOL0     C49434   3.870   8.219   6.005  0.4029 -0.2644 -1.0535
  359MOL0     O49435   3.779   8.123   6.034 -0.7013 -0.3016  0.4796
  359MOL0     C49436   3.648   8.121   5.980 -0.4619 -1.1403 -0.2109
  359MOL0     C49437   3.588   8.221   5.903  0.1323  0.3560 -0.2390
  359MOL0     C49438   3.461   8.197   5.852  0.0275 -0.6888 -0.3376
  359MOL0     C49439   3.391   8.078   5.879 -0.8574 -0.1936  0.1599
  359MOL0     O49440   3.261   8.069   5.834 -0.0175 -0.3077  0.1879
  359MOL0     C49441   3.180   7.956   5.863  0.3220  0.2523  0.4115
  359MOL0     C49442   3.045   7.964   5.794 -0.6205 -0.1497  1.4259
  359MOL0     C49443   2.947   8.078   5.843 -0.3502  0.3154 -0.1777
  359MOL0     C49444   2.795   8.057   5.803  0.1825  0.3678 -0.9224
  359MOL0     C49445   2.725   7.960   5.898  0.2474 -0.4330  0.7832
  359MOL0     C49446   2.732   7.977   6.055  0.4617  0.2757  0.1703
  359MOL0     C49447   2.695   8.119   6.091  0.3560 -0.0129  0.1446
  359MOL0     C49448   2.698   8.131   6.246 -0.1341 -0.2696  1.0749
  359MOL0    Cl49449   2.545   8.076   6.307 -0.0128  0.0028 -0.6236
  359MOL0     C49450   3.459   7.974   5.948  0.4009 -0.3647 -0.6239
  359MOL0     C49451   3.585   8.004   5.997  0.6604  0.5958  1.6363
  359MOL0     O49452   3.840   8.322   5.948  0.2524  0.6966  0.2947
  359MOL0     C49453   4.057   8.056   6.044 -0.0368  0.0725  0.0174
  359MOL0     C49454   4.191   8.018   6.088  0.7329 -0.1994  0.3558
  359MOL0     N49455   4.476   8.500   6.287  0.5995 -0.2703 -0.6915
  359MOL0     N49456   4.433   8.609   6.234  0.4450  0.8180  0.2049
  359MOL0     C49457   4.992   8.625   5.295  0.1798  0.1776  0.5827
  359MOL0     C49458   5.080   8.719   5.234 -0.3323  1.0135 -0.3431
  359MOL0     C49459   5.281   9.089   5.071 -0.2133  0.7505 -0.2355
  359MOL0     C49460   5.414   9.057   5.100  0.2454 -0.9115  0.7583
  359MOL0     C49461   5.532   9.125   5.067  0.6164 -0.0373 -0.4929
  359MOL0     C49462   5.524   9.231   4.981  0.3709 -0.1346 -0.9157
  359MOL0     O49463   5.625   9.289   4.902 -0.1516 -0.2812 -0.2038
  359MOL0     C49464   5.758   9.266   4.966  0.4408  0.2519  0.0817
  359MOL0     C49465   5.866   9.363   4.917  0.6080 -0.9461 -0.8288
  359MOL0     C49466   5.828   9.513   4.946  0.7618  0.6651 -0.6716
  359MOL0     C49467   5.952   9.606   4.925 -0.4129 -0.5845 -0.1266
  359MOL0     C49468   5.977   9.625   4.785 -0.1545 -0.5180 -0.0009
  359MOL0     C49469   5.972   9.653   4.666  0.5796 -0.2552  0.5567
  359MOL0     C49470   5.396   9.262   4.940  1.2100  0.0294  0.2460
  359MOL0     C49471   5.277   9.197   4.977 -0.8261  0.6085  0.2145
  359MOL0     C49472   5.152   9.257   4.905 -0.8702  1.6897 -0.8052
  359MOL0     H49473   5.075   8.968   5.458 -0.0043 -1.3115  2.2335
  359MOL0     H49474   4.909   8.826   5.560 -1.2415 -2.1807  1.2004
  359MOL0     H49475   4.767   8.421   5.394  1.7838 -0.4251 -3.2007
  359MOL0     H49476   4.732   8.566   5.296  1.3032  0.0005  0.7545
  359MOL0     H49477   4.587   8.647   5.486 -3.5943 -1.2233 -0.5127
  359MOL0     H49478   4.529   8.499   5.386  1.2032 -5.0553 -0.0908
  359MOL0     H49479   4.587   8.363   5.566 -1.0491 -0.4892 -1.9041
  359MOL0     H49480   4.634   8.499   5.664 -0.4309  2.3802 -2.0215
  359MOL0     H49481   4.349   8.486   5.551 -2.1732 -0.4953  0.7109
  359MOL0     H49482   4.389   8.405   5.692  3.7258 -1.7735 -1.4261
  359MOL0     H49483   4.275   8.611   5.722 -0.2133  0.8976  1.8135
  359MOL0     H49484   4.424   8.709   5.661  2.0247 -1.5657 -0.7052
  359MOL0     H49485   4.414   8.532   5.910 -0.0021 -0.2753  0.7494
  359MOL0     H49486   4.550   8.639   5.857 -0.7711  6.0857 -2.7945
  359MOL0     H49487   4.295   8.746   5.975  0.8709 -0.8052  2.4639
  359MOL0     H49488   4.405   8.833   5.872 -0.7185  0.2340  0.1025
  359MOL0     H49489   4.590   8.799   6.017  1.1502 -1.6801  3.5084
  359MOL0     H49490   4.454   8.850   6.126  3.4485  1.0039  0.7316
  359MOL0     H49491   4.718   8.561   6.067  0.9017 -2.7102  2.6282
  359MOL0     H49492   4.733   8.370   6.378  1.3219 -0.4108 -0.4308
  359MOL0     H49493   4.789   8.379   6.217 -0.9912 -0.5470 -1.3712
  359MOL0     H49494   4.608   8.239   6.125  2.4290 -0.0863 -1.8047
  359MOL0     H49495   4.718   8.159   6.243 -2.3579 -0.1293  3.7858
  359MOL0     H49496   4.578   8.181   6.416  2.3073  0.3724 -0.5485
  359MOL0     H49497   4.442   8.259   6.320 -1.6448 -2.1428 -0.5836
  359MOL0     H49498   4.533   7.989   6.274 -0.1279 -1.0538 -1.0444
  359MOL0     H49499   4.370   8.045   6.320 -0.5813  0.4971 -0.5023
  359MOL0     H49500   4.321   8.321   6.117  2.6308 -2.1769 -0.5478
  359MOL0     H49501   4.025   8.478   5.984 -2.1065 -1.4642  0.3649
  359MOL0     H49502   4.170   8.484   6.097  0.3265 -1.4325  0.4090
  359MOL0     H49503   4.013   8.443   6.164 -1.0646 -0.8544 -0.2161
  359MOL0     H49504   3.634   8.309   5.858 -2.7425  1.4567 -1.2079
  359MOL0     H49505   3.420   8.282   5.798  0.9762  0.9594  1.3836
  359MOL0     H49506   3.230   7.865   5.830 -0.6115 -0.7431  1.6564
  359MOL0     H49507   3.162   7.938   5.970  2.6149 -1.8424  0.5104
  359MOL0     H49508   3.067   7.976   5.688 -1.7994 -3.2616  0.7121
  359MOL0     H49509   3.011   7.861   5.809  0.4660 -0.8923 -0.8111
  359MOL0     H49510   2.973   8.156   5.771  2.0209  0.5620  0.8588
  359MOL0     H49511   2.946   8.113   5.947 -4.9916  2.0425 -0.5869
  359MOL0     H49512   2.775   8.019   5.703  0.1914 -1.9707 -0.1004
  359MOL0     H49513   2.740   8.152   5.811 -1.0978 -0.4498  0.9811
  359MOL0     H49514   2.623   7.970   5.860  0.7784  0.8050 -0.3997
  359MOL0     H49515   2.759   7.862   5.865 -2.6136 -0.4376 -2.7568
  359MOL0     H49516   2.827   7.940   6.093  0.1868  0.4854  1.0954
  359MOL0     H49517   2.653   7.914   6.097  0.1092 -0.3563 -1.3962
  359MOL0     H49518   2.594   8.147   6.062  0.5362  2.9188  1.9481
  359MOL0     H49519   2.766   8.191   6.051  0.5915 -0.6233 -0.5631
  359MOL0     H49520   2.705   8.235   6.279  1.2986 -0.1251  0.4106
  359MOL0     H49521   2.780   8.071   6.286  0.7460  1.3572  1.8419
  359MOL0     H49522   3.408   7.879   5.963  0.3396 -0.3530 -0.7496
  359MOL0     H49523   3.638   7.922   6.046  0.7309 -1.0611 -0.9915
  359MOL0     H49524   3.983   7.980   6.020  0.2508  0.6582 -3.0670
  359MOL0     H49525   4.216   7.912   6.086 -1.1719 -0.8144  3.3667
  359MOL0     H49526   4.971   8.536   5.236  0.7265 -0.0244  0.6875
  359MOL0     H49527   5.138   8.694   5.146 -2.4355 -1.7526 -1.0875
  359MOL0     H49528   5.438   8.972   5.163 -0.9118 -2.6731 -1.0509
  359MOL0     H49529   5.620   9.092   5.120  0.1963  1.6454  1.3714
  359MOL0     H49530   5.745   9.265   5.074 -2.4569 -0.2835 -0.1716
  359MOL0     H49531   5.786   9.163   4.942  0.9316  0.7404 -1.5922
  359MOL0     H49532   5.892   9.338   4.814  3.1977 -1.0319 -0.2127
  359MOL0     H49533   5.956   9.352   4.978 -0.2044  3.5844  1.5908
  359MOL0     H49534   5.746   9.542   4.880 -0.1295  0.6725  0.4143
  359MOL0     H49535   5.777   9.521   5.043 -1.7732 -2.6086 -1.5630
  359MOL0     H49536   6.045   9.581   4.977 -1.2049 -1.0052  1.1514
  359MOL0     H49537   5.920   9.697   4.978 -0.5027 -0.3400 -0.5998
  359MOL0     H49538   5.970   9.706   4.573  1.2656  2.3716  1.9371
  359MOL0     H49539   5.401   9.347   4.873  1.5507  1.4149  1.9496
  359MOL0     H49540   5.110   9.316   4.987  1.5365 -2.6063  4.1390
  359MOL0     H49541   5.182   9.315   4.817 -0.0355  2.5167  0.0012
  359MOL0     H49542   5.088   9.176   4.870 -0.1895  0.2755  1.0292
  360MOL0     O49543   2.932   9.308   4.199  0.4197  0.8306 -0.7144
  360MOL0     C49544   2.833   9.333   4.139  0.9908  0.1074 -0.6678
  360MOL0     O49545   2.729   9.406   4.182 -0.3297 -0.4854 -0.9176
  360MOL0     C49546   2.735   9.461   4.305 -0.2079 -0.1370 -0.2220
  360MOL0     C49547   2.765   9.597   4.323 -0.8143 -0.1233  0.8349
  360MOL0     C49548   2.766   9.647   4.455 -0.6922 -0.4387 -0.7953
  360MOL0     C49549   2.737   9.570   4.560 -0.3625  0.7910  0.1949
  360MOL0     O49550   2.737   9.646   4.679  0.6188  0.4491  0.5516
  360MOL0     C49551   2.714   9.575   4.803  0.1831 -0.2009  0.3227
  360MOL0     C49552   2.669   9.688   4.904 -0.5255  0.2640 -0.1192
  360MOL0     C49553   2.564   9.650   5.008  0.3621 -1.4129  1.4209
  360MOL0     C49554   2.429   9.660   4.962  0.3053 -0.4003 -0.3939
  360MOL0     C49555   2.338   9.617   5.081  0.5342 -0.2405  0.0122
  360MOL0     C49556   2.195   9.644   5.039  0.0906 -0.7465 -0.6490
  360MOL0     C49557   2.097   9.649   5.155 -0.0956 -0.3108  0.1104
  360MOL0     C49558   2.098   9.520   5.242  0.4715 -1.3506  0.0467
  360MOL0     N49559   2.069   9.395   5.175 -0.3104  0.9906 -0.4506
  360MOL0     C49560   1.937   9.358   5.148 -0.5637 -0.1871  0.2600
  360MOL0     C49561   1.954   9.235   5.097  0.4773 -0.2056  1.2156
  360MOL0     C49562   1.840   9.135   5.049 -0.3231 -0.4700  0.0500
  360MOL0     C49563   1.851   9.102   4.896  0.5662 -0.2676  1.3298
  360MOL0     C49564   1.745   9.002   4.851  0.5428 -0.2422 -0.0046
  360MOL0     C49565   1.715   9.010   4.703  0.0040  0.5858 -0.0919
  360MOL0     O49566   1.588   8.954   4.688 -0.4209 -0.2818  0.1607
  360MOL0     C49567   1.561   8.883   4.568  0.4731  0.2780 -0.4347
  360MOL0     C49568   1.445   8.809   4.563 -1.0767 -0.2979  0.4387
  360MOL0     C49569   1.414   8.723   4.456 -0.1108  0.5599 -0.0770
  360MOL0     C49570   1.291   8.644   4.448  0.8032  0.9005 -0.2253
  360MOL0     C49571   1.501   8.726   4.346 -0.1771 -0.3436  0.3525
  360MOL0     C49572   1.482   8.652   4.220 -0.0486  0.2432  0.1361
  360MOL0     O49573   1.591   8.632   4.141 -0.4796  0.6106  0.2474
  360MOL0     C49574   1.577   8.588   4.010 -0.2222 -0.2810  0.4795
  360MOL0     C49575   1.535   8.461   3.962 -0.5904 -0.2407  0.1375
  360MOL0     C49576   1.537   8.427   3.825  0.2932  0.3145 -0.3436
  360MOL0     C49577   1.562   8.535   3.734 -0.9732 -0.0186  0.4174
  360MOL0     O49578   1.574   8.516   3.600  0.0970  0.2616 -0.1402
  360MOL0     C49579   1.492   8.419   3.540  0.0290 -0.0296 -0.0540
  360MOL0     C49580   1.502   8.448   3.393  0.1217 -0.4627  0.6979
  360MOL0     C49581   1.645   8.481   3.347  0.7574 -0.4094  0.1758
  360MOL0     C49582   1.655   8.488   3.192 -0.4908 -0.0961  0.1429
  360MOL0     C49583   1.799   8.522   3.142  0.0386 -0.1235 -0.6830
  360MOL0     C49584   1.817   8.486   3.001 -0.2280 -1.0600 -0.4460
  360MOL0     C49585   1.964   8.526   2.968  0.6055 -0.2758  0.7613
  360MOL0     C49586   2.004   8.480   2.827  0.5257 -0.7269 -0.3380
  360MOL0    Cl49587   2.165   8.542   2.796  0.3308  0.4615  0.1196
  360MOL0     C49588   1.602   8.665   3.786  0.5111  0.2705 -0.8723
  360MOL0     C49589   1.614   8.691   3.916  0.4864  0.0879  0.1100
  360MOL0     O49590   1.367   8.615   4.190  0.4303  0.0137  0.2247
  360MOL0     C49591   1.622   8.791   4.358  0.1946  0.5910  0.9556
  360MOL0     C49592   1.643   8.877   4.465 -0.0562 -0.1566  0.7471
  360MOL0     N49593   2.091   9.212   5.073  0.2695 -0.0598 -0.0513
  360MOL0     N49594   2.161   9.299   5.134 -0.0194  0.0357 -0.8984
  360MOL0     C49595   2.697   9.441   4.544 -0.9124 -0.7693  0.3213
  360MOL0     C49596   2.689   9.392   4.414  0.0464  0.8840  0.5221
  360MOL0     C49597   2.817   9.252   4.014  0.1950 -0.2627  0.4561
  360MOL0     C49598   2.693   9.230   3.961  0.0400  0.5761  0.9199
  360MOL0     C49599   2.666   9.143   3.854  0.1803 -0.2040 -0.4408
  360MOL0     C49600   2.767   9.085   3.782 -0.0913 -0.2280 -0.2052
  360MOL0     O49601   2.762   9.002   3.673 -0.5946  0.5259  0.2806
  360MOL0     C49602   2.640   8.995   3.599  0.6519  0.1047 -0.6311
  360MOL0     C49603   2.655   8.886   3.493 -0.1830 -0.2853 -0.1615
  360MOL0     C49604   2.516   8.869   3.424  0.3895  0.1398 -1.1649
  360MOL0     C49605   2.502   8.746   3.341  0.3486  1.4594  0.5966
  360MOL0     C49606   2.359   8.734   3.299 -0.4634  0.3618 -0.3319
  360MOL0     C49607   2.238   8.729   3.266 -0.5491 -0.9152  0.1406
  360MOL0     C49608   2.897   9.117   3.831 -0.5768  0.5180 -0.6648
  360MOL0     C49609   2.923   9.193   3.943  0.5940 -0.3069 -0.0275
  360MOL0     C49610   3.061   9.240   3.966 -0.2286  0.0861 -0.2760
  360MOL0     H49611   2.792   9.660   4.239  0.1372 -4.0545 -2.1539
  360MOL0     H49612   2.784   9.752   4.475 -2.8176 -0.6324  3.2255
  360MOL0     H49613   2.807   9.528   4.836  1.1105  0.4390 -1.2696
  360MOL0     H49614   2.637   9.497   4.813  1.0041 -1.0793 -0.0034
  360MOL0     H49615   2.756   9.731   4.955  0.0363  2.4726 -2.6547
  360MOL0     H49616   2.625   9.770   4.847 -1.0444  1.3717  1.7954
  360MOL0     H49617   2.570   9.547   5.042  2.3917 -1.5867  0.6545
  360MOL0     H49618   2.585   9.721   5.089 -0.1429  1.7717 -1.0238
  360MOL0     H49619   2.419   9.765   4.933 -0.7651 -0.7071 -1.1525
  360MOL0     H49620   2.411   9.603   4.871 -1.0616  0.9134 -0.9751
  360MOL0     H49621   2.367   9.670   5.172  0.6409  3.2754 -1.8436
  360MOL0     H49622   2.355   9.509   5.081  0.6481 -0.2276 -0.4544
  360MOL0     H49623   2.201   9.738   4.984  0.2563 -1.7278 -2.3670
  360MOL0     H49624   2.158   9.574   4.963  1.6908  1.7046 -3.8915
  360MOL0     H49625   1.994   9.661   5.119  0.1411  2.5202  0.1597
  360MOL0     H49626   2.110   9.734   5.223 -1.7992 -0.8975  1.2408
  360MOL0     H49627   2.187   9.505   5.303  1.0887 -1.4861 -0.8684
  360MOL0     H49628   2.021   9.536   5.319  1.1363  1.5591  0.2307
  360MOL0     H49629   1.857   9.427   5.173  1.7221  2.2001  1.4724
  360MOL0     H49630   1.740   9.177   5.059  0.1780  0.6067  0.6021
  360MOL0     H49631   1.847   9.041   5.105  1.0342 -1.3650 -1.5118
  360MOL0     H49632   1.846   9.197   4.842 -0.5838  1.7982  4.7480
  360MOL0     H49633   1.950   9.060   4.875 -0.8286 -3.0485 -0.2273
  360MOL0     H49634   1.785   8.902   4.874  0.7004  0.1478  1.5543
  360MOL0     H49635   1.660   9.005   4.920  0.6883  0.7640  0.1410
  360MOL0     H49636   1.713   9.112   4.665 -1.2415 -0.2697 -2.5148
  360MOL0     H49637   1.795   8.953   4.655 -0.4778  0.9319 -1.3520
  360MOL0     H49638   1.378   8.817   4.648  0.3783 -2.5891  1.9160
  360MOL0     H49639   1.222   8.658   4.365 -0.0090  0.0347  0.2909
  360MOL0     H49640   1.237   8.663   4.541 -0.3498 -0.6328 -0.5483
  360MOL0     H49641   1.322   8.539   4.449  0.9619  0.8941 -2.2829
  360MOL0     H49642   1.513   8.375   4.023  1.4791 -0.3093  0.8771
  360MOL0     H49643   1.521   8.324   3.794  0.3997 -1.0873  3.7522
  360MOL0     H49644   1.527   8.316   3.547 -0.8132 -0.2604  0.9605
  360MOL0     H49645   1.392   8.427   3.584  0.4005 -0.3625  0.8803
  360MOL0     H49646   1.473   8.362   3.332  1.2759 -0.7348  0.5085
  360MOL0     H49647   1.429   8.526   3.372  0.2840 -0.9057 -1.8594
  360MOL0     H49648   1.713   8.402   3.381  0.7126 -1.5319 -2.1531
  360MOL0     H49649   1.667   8.581   3.385 -1.1569  0.4019 -0.7517
  360MOL0     H49650   1.587   8.564   3.154  1.3476  0.2088 -2.9171
  360MOL0     H49651   1.618   8.391   3.157 -0.9246 -0.6234  1.9433
  360MOL0     H49652   1.816   8.631   3.139  0.8944 -0.2708 -1.9254
  360MOL0     H49653   1.864   8.473   3.214 -0.1919  0.9330  0.2789
  360MOL0     H49654   1.744   8.533   2.935 -0.0060 -2.1750 -1.5235
  360MOL0     H49655   1.807   8.378   2.986  1.5570 -1.2025 -0.8610
  360MOL0     H49656   2.024   8.477   3.045 -0.4467  2.2408  3.3513
  360MOL0     H49657   1.991   8.631   2.983 -0.9446  0.4449 -1.1346
  360MOL0     H49658   1.937   8.525   2.753  1.5543  0.7119 -0.4516
  360MOL0     H49659   1.996   8.371   2.819 -0.7029 -1.1038  3.9336
  360MOL0     H49660   1.619   8.749   3.718  1.5490 -0.4244 -1.5063
  360MOL0     H49661   1.629   8.790   3.957  1.3252 -0.2206  0.5623
  360MOL0     H49662   1.695   8.794   4.279  0.6385  1.2147  1.3789
  360MOL0     H49663   1.734   8.937   4.465  0.0304 -0.2532  2.4469
  360MOL0     H49664   2.656   9.391   4.631 -0.1005 -0.4676  0.8990
  360MOL0     H49665   2.653   9.293   4.388 -0.0743  1.0336  0.1011
  360MOL0     H49666   2.605   9.280   4.000 -0.2889 -0.5921  1.7165
  360MOL0     H49667   2.558   9.141   3.843 -0.0459  0.5481  1.3481
  360MOL0     H49668   2.557   8.977   3.667 -0.0198  1.9959 -0.9083
  360MOL0     H49669   2.607   9.083   3.544  2.4224 -0.7903 -3.3453
  360MOL0     H49670   2.698   8.793   3.531  2.2129  1.1878  0.9038
  360MOL0     H49671   2.714   8.921   3.408 -0.6589 -0.1185 -0.4269
  360MOL0     H49672   2.451   8.844   3.508 -0.3362 -6.3477 -3.0713
  360MOL0     H49673   2.489   8.958   3.367  0.4954  0.8604 -0.1228
  360MOL0     H49674   2.543   8.673   3.411  0.2084 -0.8039 -1.5549
  360MOL0     H49675   2.563   8.763   3.252 -0.0295  0.8352  0.2063
  360MOL0     H49676   2.136   8.713   3.238 -0.3923  0.4373 -1.4031
  360MOL0     H49677   2.987   9.074   3.788  0.1080  0.0100  1.1730
  360MOL0     H49678   3.132   9.191   3.898  2.5835  3.9520 -0.4910
  360MOL0     H49679   3.064   9.349   3.964  0.1015  0.1481  1.7408
  360MOL0     H49680   3.088   9.213   4.068 -2.1302  2.2838  0.9030
  361MOL0     O49681   3.673   1.291   8.581 -0.3754  0.0286  0.0274
  361MOL0     C49682   3.655   1.376   8.498  0.8427 -1.0317 -0.0388
  361MOL0     O49683   3.739   1.476   8.469  0.3460  0.1124 -0.6118
  361MOL0     C49684   3.826   1.524   8.558 -0.7547 -0.4548 -0.1114
  361MOL0     C49685   3.950   1.559   8.500  0.1706 -0.7555 -0.0571
  361MOL0     C49686   4.052   1.625   8.575  0.8018  0.2228 -0.1745
  361MOL0     C49687   4.031   1.618   8.714 -0.2991 -1.1324  0.1459
  361MOL0     O49688   4.145   1.666   8.781 -0.5584  0.4627  0.6077
  361MOL0     C49689   4.119   1.690   8.920 -1.1468 -0.0511 -0.5547
  361MOL0     C49690   4.244   1.754   8.993  0.4617 -0.0834  0.6742
  361MOL0     C49691   4.203   1.776   9.141 -0.5136  0.5108  0.4086
  361MOL0     C49692   4.310   1.790   9.240 -0.3607  0.4579 -0.6192
  361MOL0     C49693   4.260   1.790   9.388  0.5218  0.3541 -0.1433
  361MOL0     C49694   4.369   1.824   9.491 -0.4801  0.4522  1.1668
  361MOL0     C49695   4.482   1.718   9.489  0.3069  0.2866  0.6919
  361MOL0     C49696   4.618   1.785   9.520  0.2293 -0.0562 -0.2249
  361MOL0     N49697   4.716   1.693   9.576 -0.1294  0.7788 -0.1058
  361MOL0     C49698   4.785   1.598   9.510  0.6337 -0.0699  0.2794
  361MOL0     C49699   4.854   1.528   9.608  0.3276 -0.3242  0.5263
  361MOL0     C49700   4.938   1.408   9.575  0.5135 -1.0262 -0.2213
  361MOL0     C49701   4.876   1.280   9.634 -0.1347 -0.0288  0.2358
  361MOL0     C49702   4.910   1.269   9.785 -0.0852 -0.1876 -0.3853
  361MOL0     C49703   4.882   1.118   9.827  0.1726  0.0195  0.0824
  361MOL0     O49704   4.939   1.091   9.959  0.7132 -0.1908  0.1388
  361MOL0     C49705   4.919   0.978  10.045  0.6504 -0.9517 -0.1789
  361MOL0     C49706   5.010   0.947  10.140  0.6411 -0.4294  0.2316
  361MOL0     C49707   5.001   0.821  10.203  0.7688  0.2059 -0.1807
  361MOL0     C49708   5.108   0.786  10.302  0.1797 -0.0300  0.5649
  361MOL0     C49709   4.894   0.735  10.177  0.5790 -0.6314 -0.1281
  361MOL0     C49710   4.861   0.602  10.243 -0.3701  0.1093  0.7841
  361MOL0     O49711   4.749   0.530  10.205 -0.5842 -0.2451  0.0277
  361MOL0     C49712   4.701   0.422  10.265  0.0486 -0.6701  0.0923
  361MOL0     C49713   4.711   0.409  10.415 -1.1599 -0.3768  0.2666
  361MOL0     C49714   4.651   0.301  10.472 -0.8474 -0.0353 -0.1251
  361MOL0     C49715   4.579   0.210  10.402  0.5950  0.3262 -0.8980
  361MOL0     O49716   4.497   0.125  10.479  0.3729  0.0623  0.6109
  361MOL0     C49717   4.427   0.022  10.417  0.1876 -0.1349 -0.4583
  361MOL0     C49718   4.288   0.068  10.356 -0.2745 -0.0097 -0.2223
  361MOL0     C49719   4.199  -0.046  10.319 -0.7547 -0.1096 -0.8795
  361MOL0     C49720   4.145  -0.128  10.437  0.2748 -0.1960  1.0664
  361MOL0     C49721   4.041  -0.234  10.392  0.4226 -0.4522 -1.3288
  361MOL0     C49722   4.020  -0.343  10.507  0.3202 -0.0082  0.1792
  361MOL0     C49723   3.884  -0.412  10.486 -0.3559 -0.2333 -0.0654
  361MOL0     C49724   3.872  -0.526  10.577  0.2780  0.0894 -0.3872
  361MOL0    Cl49725   3.723  -0.623  10.561  0.3683  0.0880  0.0783
  361MOL0     C49726   4.568   0.227  10.267  0.2694 -0.5519 -0.2648
  361MOL0     C49727   4.632   0.323  10.192  0.9059 -0.4859 -0.3010
  361MOL0     O49728   4.950   0.555  10.321  0.1689 -0.4743 -0.0233
  361MOL0     C49729   4.796   0.774  10.086 -0.0675 -0.1046  1.1813
  361MOL0     C49730   4.804   0.901  10.026 -0.7761  0.2418  0.4497
  361MOL0     N49731   4.822   1.574   9.735  0.1475  0.2289  0.3592
  361MOL0     N49732   4.737   1.677   9.711 -0.4316  0.3154  0.3648
  361MOL0     C49733   3.919   1.559   8.772 -0.0315  0.3663 -0.3417
  361MOL0     C49734   3.816   1.513   8.697  0.9751 -0.3002 -0.9383
  361MOL0     C49735   3.522   1.355   8.423 -0.0821 -0.8284 -0.7341
  361MOL0     C49736   3.532   1.379   8.282  0.5871 -0.2205 -0.2134
  361MOL0     C49737   3.423   1.344   8.203 -0.5558 -0.1984  0.1396
  361MOL0     C49738   3.300   1.304   8.251 -0.2577 -0.2856 -0.7059
  361MOL0     O49739   3.193   1.300   8.153 -0.9295  1.6199 -0.1437
  361MOL0     C49740   3.052   1.270   8.180 -1.1648 -0.7979 -0.4943
  361MOL0     C49741   2.984   1.389   8.234  0.3211  0.0417 -1.1550
  361MOL0     C49742   2.833   1.378   8.276 -0.0982  0.0007 -0.8612
  361MOL0     C49743   2.818   1.278   8.392 -0.0889  0.1197 -0.9538
  361MOL0     C49744   2.798   1.136   8.349  0.6648  0.1794  0.0850
  361MOL0     C49745   2.784   1.024   8.316 -0.2973  0.5019 -0.6944
  361MOL0     C49746   3.287   1.281   8.391  0.3124 -0.8070  0.0874
  361MOL0     C49747   3.394   1.317   8.480 -0.5316  0.1813  0.1330
  361MOL0     C49748   3.365   1.294   8.625 -0.0600 -0.3976 -0.3568
  361MOL0     H49749   3.963   1.563   8.392  2.5307 -3.0146  0.0611
  361MOL0     H49750   4.144   1.669   8.536 -0.0405  0.1631 -2.3577
  361MOL0     H49751   4.110   1.595   8.974  0.0412  1.9658  3.6171
  361MOL0     H49752   4.034   1.758   8.926  1.5494  3.5112  1.6898
  361MOL0     H49753   4.325   1.683   8.977  0.9569  0.5027  0.5204
  361MOL0     H49754   4.271   1.845   8.937  0.2870  0.6247  1.7147
  361MOL0     H49755   4.139   1.865   9.139  1.5553  2.0852 -0.8433
  361MOL0     H49756   4.139   1.691   9.165 -1.4958  1.9391  3.2799
  361MOL0     H49757   4.368   1.699   9.220  1.7124  1.6676 -0.4867
  361MOL0     H49758   4.372   1.877   9.217  2.0935 -1.4178 -1.5723
  361MOL0     H49759   4.231   1.687   9.409  2.5455  0.3796  3.7617
  361MOL0     H49760   4.174   1.857   9.397  1.2758  1.2359  0.8259
  361MOL0     H49761   4.408   1.923   9.465  2.2379 -1.2272 -2.0622
  361MOL0     H49762   4.315   1.818   9.585 -1.9296  0.9148  0.3850
  361MOL0     H49763   4.490   1.655   9.400 -3.2833  0.0907  0.3680
  361MOL0     H49764   4.455   1.653   9.572  1.6591 -2.0175 -0.5515
  361MOL0     H49765   4.653   1.830   9.427  1.1287 -0.8276 -0.2775
  361MOL0     H49766   4.608   1.879   9.574  0.3790  0.6241 -1.3534
  361MOL0     H49767   4.767   1.586   9.403 -2.6851  3.0821  0.3039
  361MOL0     H49768   5.037   1.418   9.621 -0.6644  0.0705  2.2885
  361MOL0     H49769   4.953   1.404   9.467 -0.9606  1.0431 -0.5742
  361MOL0     H49770   4.768   1.294   9.636 -0.0018  1.1169  2.7894
  361MOL0     H49771   4.911   1.191   9.580  1.2982  0.7142 -0.1139
  361MOL0     H49772   5.010   1.308   9.806 -0.6655  2.8112 -2.5544
  361MOL0     H49773   4.840   1.331   9.842 -2.3836 -1.2701 -1.8782
  361MOL0     H49774   4.773   1.114   9.820  0.2741 -0.3676 -2.2182
  361MOL0     H49775   4.925   1.050   9.753 -2.2934 -0.0734 -1.3784
  361MOL0     H49776   5.091   1.016  10.159 -0.3884  0.4272  1.6620
  361MOL0     H49777   5.053   0.791  10.397  0.2728 -0.3004  0.6360
  361MOL0     H49778   5.199   0.846  10.296  1.7958 -2.4867 -1.6418
  361MOL0     H49779   5.149   0.689  10.271  1.0441  0.1083  1.2247
  361MOL0     H49780   4.762   0.477  10.482 -0.9956 -3.2610  3.3207
  361MOL0     H49781   4.658   0.286  10.580 -5.2647  0.7112  0.4465
  361MOL0     H49782   4.486  -0.038  10.346 -1.0137 -1.4116 -0.4198
  361MOL0     H49783   4.399  -0.052  10.492 -1.7134  1.1026  0.1145
  361MOL0     H49784   4.245   0.138  10.429  2.9591  3.4712 -1.3097
  361MOL0     H49785   4.301   0.118  10.260 -5.0407 -0.2532 -1.2546
  361MOL0     H49786   4.255  -0.098  10.241 -0.1837  0.1261 -0.6316
  361MOL0     H49787   4.107  -0.020  10.266  0.4960 -0.8934 -3.5936
  361MOL0     H49788   4.086  -0.056  10.495  0.5880 -1.5927  3.2245
  361MOL0     H49789   4.215  -0.173  10.508  2.1067 -1.7421 -1.5785
  361MOL0     H49790   3.952  -0.175  10.371  0.3950  0.1314  0.2836
  361MOL0     H49791   4.071  -0.296  10.307 -5.0167 -2.0664 -2.4513
  361MOL0     H49792   4.019  -0.288  10.601  1.1345  1.5941 -0.6996
  361MOL0     H49793   4.098  -0.419  10.503  0.2586 -0.1390  1.2298
  361MOL0     H49794   3.866  -0.450  10.385  1.0095 -0.8060 -0.1173
  361MOL0     H49795   3.807  -0.337  10.507  0.9503  0.6670  1.7898
  361MOL0     H49796   3.882  -0.479  10.675 -1.3275  2.8552 -1.4413
  361MOL0     H49797   3.959  -0.593  10.570  1.9963  2.3688 -2.2524
  361MOL0     H49798   4.512   0.151  10.215 -0.0092 -0.8792  0.4949
  361MOL0     H49799   4.627   0.339  10.085  1.4759  0.6403 -0.1794
  361MOL0     H49800   4.714   0.708  10.058  0.4710  0.0020 -0.7563
  361MOL0     H49801   4.724   0.925   9.957 -2.2740 -4.0330  0.4431
  361MOL0     H49802   3.909   1.554   8.880  1.0192 -1.3351 -0.2904
  361MOL0     H49803   3.731   1.466   8.745  1.5298 -1.5995 -1.1608
  361MOL0     H49804   3.625   1.413   8.237 -0.0696  2.3703  0.2480
  361MOL0     H49805   3.436   1.361   8.096  2.0876  3.2839  0.8239
  361MOL0     H49806   3.000   1.249   8.085 -0.8155  2.8303 -1.6442
  361MOL0     H49807   3.052   1.174   8.233  2.5060  1.4804  4.4358
  361MOL0     H49808   3.007   1.477   8.173 -0.1547  0.1099 -1.2409
  361MOL0     H49809   3.037   1.411   8.327 -0.6042 -1.1647 -0.3144
  361MOL0     H49810   2.806   1.478   8.309  1.0606 -0.4506  1.7448
  361MOL0     H49811   2.762   1.348   8.198 -1.5761 -1.1200  0.8462
  361MOL0     H49812   2.739   1.311   8.460  2.1691 -1.5454  2.8175
  361MOL0     H49813   2.904   1.270   8.459 -0.5282  2.9908  0.0920
  361MOL0     H49814   2.760   0.930   8.269  1.6385  1.5516 -4.0677
  361MOL0     H49815   3.199   1.226   8.423  1.1042 -1.6418  0.8800
  361MOL0     H49816   3.448   1.310   8.694 -0.4853 -2.8141  0.8083
  361MOL0     H49817   3.280   1.358   8.650 -0.2299  0.6320 -3.1682
  361MOL0     H49818   3.322   1.195   8.645 -1.9994  0.7190  1.4009
  362MOL0     O49819   5.693   2.239   0.931 -1.0028 -0.2658  0.1931
  362MOL0     C49820   5.653   2.165   1.024 -1.3005  0.2227  0.0872
  362MOL0     O49821   5.520   2.153   1.067 -0.4750 -0.0261  0.6883
  362MOL0     C49822   5.426   2.207   0.985 -0.3935  0.5001 -0.4235
  362MOL0     C49823   5.421   2.175   0.844  0.2539 -0.7061  0.5908
  362MOL0     C49824   5.303   2.207   0.764 -1.1884  0.1578 -0.6710
  362MOL0     C49825   5.187   2.255   0.828 -0.2780 -0.9283 -0.4322
  362MOL0     O49826   5.081   2.266   0.747  0.3094  0.2489 -0.1799
  362MOL0     C49827   4.951   2.290   0.800 -0.3812 -0.2718  0.3184
  362MOL0     C49828   4.851   2.229   0.707  0.0292 -0.5715  1.5828
  362MOL0     C49829   4.703   2.260   0.746 -0.6582  0.3156  0.2207
  362MOL0     C49830   4.608   2.165   0.685 -0.4986 -0.2142  0.1190
  362MOL0     C49831   4.466   2.234   0.679 -0.2204  0.1042  0.3739
  362MOL0     C49832   4.361   2.132   0.628 -0.0626  0.7025  0.5944
  362MOL0     C49833   4.220   2.142   0.682 -0.6282  0.4506 -0.8595
  362MOL0     C49834   4.117   2.094   0.575  0.0198  0.5156  0.3647
  362MOL0     N49835   4.128   2.168   0.449 -0.7126 -0.9187 -0.1342
  362MOL0     C49836   4.089   2.305   0.434  0.4102 -0.0114  0.1094
  362MOL0     C49837   4.131   2.345   0.309 -0.7500  0.6324 -0.9673
  362MOL0     C49838   4.154   2.490   0.271 -0.2562 -0.1197 -0.3922
  362MOL0     C49839   4.046   2.551   0.176 -0.5473  1.1094 -0.2384
  362MOL0     C49840   4.049   2.705   0.143  0.1475  0.7352  0.6975
  362MOL0     C49841   3.960   2.734   0.025  0.6960 -0.6176 -0.6102
  362MOL0     O49842   3.821   2.719   0.070 -0.1970 -0.1714  0.2890
  362MOL0     C49843   3.773   2.790   0.173 -0.2559  0.5207  0.3611
  362MOL0     C49844   3.789   2.932   0.187 -0.6881  0.3868  0.8331
  362MOL0     C49845   3.740   3.002   0.298 -0.7797 -0.2502  0.8663
  362MOL0     C49846   3.743   3.150   0.295 -0.5417  0.1326 -0.0863
  362MOL0     C49847   3.673   2.941   0.400  0.8056 -0.1261  0.5158
  362MOL0     C49848   3.620   3.010   0.522 -1.1412  0.0915 -0.0223
  362MOL0     O49849   3.508   2.955   0.568  0.4038  0.3770 -0.0266
  362MOL0     C49850   3.468   2.974   0.693 -1.0733 -0.2495  0.1874
  362MOL0     C49851   3.368   3.059   0.739 -0.0141 -0.1249  0.3064
  362MOL0     C49852   3.331   3.062   0.870 -0.1631 -1.1605 -0.6947
  362MOL0     C49853   3.402   2.983   0.971 -0.3062  0.8906  0.2136
  362MOL0     O49854   3.372   3.000   1.107  0.1445  0.0268 -0.0239
  362MOL0     C49855   3.448   2.939   1.212  0.9037 -1.1893 -0.4745
  362MOL0     C49856   3.422   3.003   1.350 -0.2031 -0.0131  0.4975
  362MOL0     C49857   3.478   3.140   1.361 -0.1928 -0.1898  0.8027
  362MOL0     C49858   3.478   3.183   1.511  0.2992  0.0791 -0.1992
  362MOL0     C49859   3.601   3.119   1.579  0.5997 -0.6843  0.0061
  362MOL0     C49860   3.632   3.176   1.728  0.3760  0.9461 -0.4591
  362MOL0     C49861   3.534   3.118   1.824  0.4545 -0.0894  0.2409
  362MOL0     C49862   3.592   3.149   1.965 -0.0029  0.1626  0.4989
  362MOL0    Cl49863   3.467   3.069   2.090  0.2377  0.1177 -0.3358
  362MOL0     C49864   3.506   2.885   0.928  0.0267  0.3667  0.1893
  362MOL0     C49865   3.526   2.881   0.786  0.0398 -0.4001 -1.0145
  362MOL0     O49866   3.674   3.119   0.569  0.2653  0.2672  0.0312
  362MOL0     C49867   3.656   2.799   0.385  0.2737 -0.4600  0.4051
  362MOL0     C49868   3.710   2.726   0.278 -0.1754 -0.1737 -0.4291
  362MOL0     N49869   4.171   2.227   0.246  0.5212  0.1829  0.1511
  362MOL0     N49870   4.167   2.123   0.326  0.7261 -0.3585  0.5552
  362MOL0     C49871   5.188   2.287   0.967 -0.0299  0.6281 -0.0502
  362MOL0     C49872   5.308   2.256   1.034 -0.5177 -0.1760 -0.4440
  362MOL0     C49873   5.751   2.065   1.079  0.5907  0.5635 -0.3313
  362MOL0     C49874   5.704   1.968   1.172  0.0386  0.0090 -0.9848
  362MOL0     C49875   5.785   1.873   1.229 -1.0475  0.5513 -0.7409
  362MOL0     C49876   5.917   1.858   1.198 -0.7556  0.3748  0.0395
  362MOL0     O49877   5.985   1.757   1.258  0.3865 -0.0994 -0.4205
  362MOL0     C49878   6.122   1.748   1.234  0.5774 -0.9388 -0.5141
  362MOL0     C49879   6.172   1.638   1.333 -0.2925 -0.3319 -0.2869
  362MOL0     C49880   6.106   1.495   1.306  0.0994 -0.0312  0.6689
  362MOL0     C49881   6.157   1.376   1.395 -0.5491 -0.0624 -0.2951
  362MOL0     C49882   6.070   1.255   1.395 -0.5069 -0.9800  0.8512
  362MOL0     C49883   6.011   1.144   1.386  0.1765 -1.3373 -1.2709
  362MOL0     C49884   5.972   1.957   1.115 -0.1871 -0.2722  0.3390
  362MOL0     C49885   5.898   2.055   1.052  1.0082  0.5285  0.4702
  362MOL0     C49886   5.964   2.145   0.951  0.5138 -0.6524 -0.2115
  362MOL0     H49887   5.501   2.126   0.791  1.7007  0.2348  1.8221
  362MOL0     H49888   5.306   2.177   0.659  0.4601 -0.5530 -0.4504
  362MOL0     H49889   4.932   2.398   0.806  1.2303  0.0304  0.5472
  362MOL0     H49890   4.937   2.234   0.893 -0.2737 -4.1103 -1.7603
  362MOL0     H49891   4.861   2.271   0.607 -3.1221  0.5284  1.6195
  362MOL0     H49892   4.875   2.122   0.707 -1.7222 -1.0098  1.9858
  362MOL0     H49893   4.683   2.273   0.852 -1.6269  2.1367 -0.1450
  362MOL0     H49894   4.675   2.361   0.715  2.4310  0.9055 -0.9429
  362MOL0     H49895   4.648   2.131   0.589 -2.8755  1.0483 -1.4260
  362MOL0     H49896   4.610   2.077   0.750 -1.0325  0.9553  1.7976
  362MOL0     H49897   4.461   2.331   0.628 -3.5943 -0.4757 -0.7163
  362MOL0     H49898   4.430   2.247   0.781 -1.7213 -1.6415  0.1194
  362MOL0     H49899   4.347   2.133   0.519 -4.4300  0.4314  0.9698
  362MOL0     H49900   4.391   2.031   0.659 -0.3031 -0.5680 -2.8326
  362MOL0     H49901   4.193   2.241   0.721  0.4881  0.2714  0.4568
  362MOL0     H49902   4.209   2.078   0.770 -2.5994 -0.8449 -1.9856
  362MOL0     H49903   4.120   1.986   0.556  1.0910  0.4502  0.8691
  362MOL0     H49904   4.017   2.112   0.617  0.5123  0.8027  1.4260
  362MOL0     H49905   4.060   2.360   0.523 -0.6561 -2.9952  1.7353
  362MOL0     H49906   4.258   2.515   0.247 -0.1248  0.5071  0.7706
  362MOL0     H49907   4.155   2.539   0.369  1.4867 -2.3363  0.8111
  362MOL0     H49908   4.043   2.498   0.080 -0.4270  1.8583 -0.6695
  362MOL0     H49909   3.952   2.523   0.224 -0.5036 -1.0670 -1.2872
  362MOL0     H49910   4.028   2.753   0.239 -0.9833 -1.7358  1.7793
  362MOL0     H49911   4.150   2.726   0.107  0.6250 -1.1866  0.7966
  362MOL0     H49912   3.980   2.835  -0.011 -0.7614  0.8515  2.3488
  362MOL0     H49913   3.979   2.662  -0.055  1.4968  0.6884 -1.6524
  362MOL0     H49914   3.843   2.992   0.114 -1.1667  0.6437  0.6881
  362MOL0     H49915   3.757   3.190   0.195  0.0165  0.2110  0.0191
  362MOL0     H49916   3.821   3.178   0.367 -1.6286  0.1403  1.1353
  362MOL0     H49917   3.653   3.204   0.326 -0.8459 -0.7627  0.6618
  362MOL0     H49918   3.329   3.135   0.673 -0.2677 -0.2199  0.3456
  362MOL0     H49919   3.249   3.125   0.902  1.0690  1.5328 -2.5124
  362MOL0     H49920   3.422   2.835   1.230 -1.8090 -0.7170 -1.1856
  362MOL0     H49921   3.555   2.946   1.190  1.5644  3.2058  2.7126
  362MOL0     H49922   3.315   2.990   1.370  0.1535 -2.7944  0.9982
  362MOL0     H49923   3.477   2.946   1.426  1.5594  0.5383 -0.3332
  362MOL0     H49924   3.436   3.216   1.295  0.5550 -1.4042 -1.1502
  362MOL0     H49925   3.582   3.133   1.329  0.4350  2.1395  2.1198
  362MOL0     H49926   3.388   3.145   1.560  1.9327 -3.7157  0.1345
  362MOL0     H49927   3.487   3.291   1.528 -0.8043  0.0134  0.9539
  362MOL0     H49928   3.590   3.011   1.593  1.5424 -0.5516  2.2782
  362MOL0     H49929   3.677   3.139   1.504 -0.6818  0.6757 -0.9892
  362MOL0     H49930   3.613   3.282   1.743 -2.1734  0.3224  1.3071
  362MOL0     H49931   3.733   3.142   1.753 -0.8711 -2.7515  0.2641
  362MOL0     H49932   3.526   3.011   1.804  2.3735 -0.2210 -0.0755
  362MOL0     H49933   3.434   3.161   1.821 -1.7472 -4.5076  1.7719
  362MOL0     H49934   3.600   3.256   1.982  2.8938 -0.0976  1.3499
  362MOL0     H49935   3.696   3.118   1.975  0.0179  0.4694  1.2792
  362MOL0     H49936   3.563   2.827   1.000 -4.7266 -4.2506  0.8192
  362MOL0     H49937   3.591   2.804   0.747 -1.2685 -2.9595  1.4351
  362MOL0     H49938   3.604   2.736   0.456  0.6136 -1.5470 -0.2941
  362MOL0     H49939   3.687   2.620   0.276 -3.8146  0.4492  0.3836
  362MOL0     H49940   5.100   2.329   1.015 -0.4346 -0.2522 -0.0006
  362MOL0     H49941   5.310   2.279   1.140  2.6441  1.1648 -0.6699
  362MOL0     H49942   5.598   1.970   1.194 -0.1063 -1.0397 -1.5636
  362MOL0     H49943   5.729   1.803   1.291 -2.8644  0.5409 -2.3004
  362MOL0     H49944   6.147   1.730   1.129  0.7602 -1.5652 -0.3674
  362MOL0     H49945   6.172   1.841   1.262 -0.3784  0.2190 -2.4207
  362MOL0     H49946   6.167   1.680   1.433 -2.1053  3.9212 -1.9282
  362MOL0     H49947   6.278   1.630   1.310  0.0061  2.7637 -0.3469
  362MOL0     H49948   6.001   1.512   1.332  0.9011  2.4544  2.6427
  362MOL0     H49949   6.123   1.460   1.203  0.3438  1.3105  0.2331
  362MOL0     H49950   6.172   1.417   1.496 -1.6627  0.7792 -0.4590
  362MOL0     H49951   6.257   1.343   1.363 -1.4714  0.7074 -4.6194
  362MOL0     H49952   5.976   1.043   1.376 -0.9705 -1.0641 -0.2493
  362MOL0     H49953   6.077   1.952   1.088 -0.4057  0.3064 -0.6895
  362MOL0     H49954   5.923   2.139   0.850 -2.2319  1.3742  0.6536
  362MOL0     H49955   5.962   2.252   0.974  0.9775 -1.2290  3.0446
  362MOL0     H49956   6.067   2.116   0.929 -0.3093 -0.8703 -4.7317
  363MOL0     O49957   3.844   3.964   8.247 -0.0868  0.2599 -0.1502
  363MOL0     C49958   3.725   3.936   8.245  1.1682 -0.0562  1.4577
  363MOL0     O49959   3.636   3.956   8.139 -0.2958 -0.1632 -0.7669
  363MOL0     C49960   3.694   4.002   8.023 -0.4232  0.8624 -0.2181
  363MOL0     C49961   3.808   3.949   7.958  0.0912  0.1240 -0.0567
  363MOL0     C49962   3.865   4.026   7.849 -0.2117 -0.0201 -0.2579
  363MOL0     C49963   3.807   4.151   7.800 -1.4394  0.5320  0.4738
  363MOL0     O49964   3.857   4.221   7.687 -0.0782  0.0171  0.3400
  363MOL0     C49965   3.924   4.131   7.587 -0.1165 -0.8893 -0.7209
  363MOL0     C49966   3.927   4.203   7.446  0.7436  0.1578 -0.0233
  363MOL0     C49967   4.069   4.274   7.436 -0.0733  0.5778  0.8953
  363MOL0     C49968   4.073   4.373   7.321 -0.4927 -0.5773 -0.0378
  363MOL0     C49969   4.214   4.430   7.308  0.1646  0.1001  0.5572
  363MOL0     C49970   4.196   4.555   7.218 -0.6286  0.4064 -1.2619
  363MOL0     C49971   4.324   4.619   7.152 -0.8991  0.5478 -0.1658
  363MOL0     C49972   4.434   4.667   7.257 -0.1243 -0.2293  0.3242
  363MOL0     N49973   4.384   4.784   7.335 -0.0144  0.0448 -0.4545
  363MOL0     C49974   4.395   4.920   7.308  0.7079  0.8849 -0.0098
  363MOL0     C49975   4.359   4.988   7.410 -0.8003  0.0069  0.4343
  363MOL0     C49976   4.337   5.142   7.418 -0.0474  0.6906  0.1524
  363MOL0     C49977   4.235   5.168   7.305  0.2477  0.5334 -0.7540
  363MOL0     C49978   4.095   5.153   7.360  0.2521  0.1319 -0.3429
  363MOL0     C49979   4.065   5.013   7.407 -1.1111 -0.3172  0.1576
  363MOL0     O49980   3.918   4.999   7.398  0.1785  0.2388 -0.5584
  363MOL0     C49981   3.852   4.902   7.455  0.2915  0.3149 -0.0763
  363MOL0     C49982   3.914   4.788   7.513  0.2921 -0.9755 -0.1837
  363MOL0     C49983   3.835   4.682   7.559 -1.1406  0.0236 -0.0193
  363MOL0     C49984   3.912   4.551   7.598  0.7261 -0.0917  0.4703
  363MOL0     C49985   3.696   4.691   7.567  0.9548  0.1350 -0.0887
  363MOL0     C49986   3.605   4.594   7.636  0.2059  0.1987 -0.3619
  363MOL0     O49987   3.475   4.587   7.599  0.3557  0.0488  0.8807
  363MOL0     C49988   3.389   4.491   7.650 -0.7877 -1.0506 -0.2294
  363MOL0     C49989   3.301   4.437   7.556 -0.4990  0.4216  0.1965
  363MOL0     C49990   3.216   4.343   7.601  0.0474  0.7394 -0.3653
  363MOL0     C49991   3.198   4.312   7.735  0.3587 -0.1513 -0.1895
  363MOL0     O49992   3.091   4.233   7.770  0.5842 -0.7868  0.5173
  363MOL0     C49993   3.003   4.302   7.863 -0.4028 -0.2106  0.8449
  363MOL0     C49994   2.854   4.258   7.846 -0.1675  0.1923  0.5782
  363MOL0     C49995   2.757   4.315   7.944  0.1243  0.0283  0.0841
  363MOL0     C49996   2.618   4.255   7.931  0.1121 -1.1687  0.0715
  363MOL0     C49997   2.527   4.273   8.053 -0.0353  0.0184  0.6175
  363MOL0     C49998   2.383   4.236   8.023 -0.3400  0.2686  0.4406
  363MOL0     C49999   2.323   4.236   8.157 -0.3406  0.0863 -0.1947
  363MOL0     C50000   2.172   4.196   8.162 -0.3754  0.0147  0.1865
  363MOL0    Cl50001   2.165   4.032   8.194 -0.3126  0.1501  0.0754
  363MOL0     C50002   3.283   4.372   7.824 -0.0705 -0.5670 -0.6027
  363MOL0     C50003   3.375   4.467   7.782 -0.5282  0.1352  0.2328
  363MOL0     O50004   3.653   4.531   7.727  0.6543  0.4362  0.0107
  363MOL0     C50005   3.638   4.811   7.520 -0.4520 -0.2268  0.9484
  363MOL0     C50006   3.715   4.905   7.456  0.7613 -0.1133 -0.1251
  363MOL0     N50007   4.343   4.897   7.517  0.0228  0.1313 -0.2485
  363MOL0     N50008   4.353   4.768   7.465  0.2919 -0.0991  0.1455
  363MOL0     C50009   3.692   4.184   7.865 -0.4137  0.1403  0.1491
  363MOL0     C50010   3.634   4.111   7.967  1.2511  0.3993 -0.1854
  363MOL0     C50011   3.657   3.879   8.358  0.5170  0.9661 -0.3814
  363MOL0     C50012   3.518   3.905   8.371  0.4683  0.2588  0.5810
  363MOL0     C50013   3.453   3.862   8.488  0.1458  0.1002 -0.4039
  363MOL0     C50014   3.519   3.788   8.586 -0.3673 -1.0304 -0.8676
  363MOL0     O50015   3.458   3.753   8.709  0.3415  0.3726  0.3424
  363MOL0     C50016   3.403   3.622   8.734  0.1916 -0.3682  0.3731
  363MOL0     C50017   3.290   3.554   8.642  0.2209 -0.6939  0.3135
  363MOL0     C50018   3.264   3.409   8.674 -0.6809  0.8184 -0.3862
  363MOL0     C50019   3.133   3.355   8.613  0.1899  0.4509 -0.0315
  363MOL0     C50020   3.030   3.419   8.687 -0.0550 -0.1592 -0.5982
  363MOL0     C50021   2.944   3.470   8.756 -1.0186 -0.2045  0.0611
  363MOL0     C50022   3.657   3.766   8.573  0.6525 -0.3784  0.8862
  363MOL0     C50023   3.728   3.807   8.457 -0.0752  1.0941 -0.1374
  363MOL0     C50024   3.870   3.755   8.441 -1.3510  0.0453 -0.4416
  363MOL0     H50025   3.863   3.860   7.988 -0.9748  0.1142  2.0731
  363MOL0     H50026   3.946   3.971   7.802 -0.6985  0.7819 -2.1154
  363MOL0     H50027   3.846   4.055   7.575 -2.5390  1.1179  1.1857
  363MOL0     H50028   4.021   4.094   7.621  0.3807  0.0636 -1.0920
  363MOL0     H50029   3.904   4.142   7.358 -1.2740  1.4989 -0.4895
  363MOL0     H50030   3.855   4.285   7.435  0.7722  0.5325  2.1152
  363MOL0     H50031   4.080   4.326   7.532 -1.0814  2.6334 -0.0320
  363MOL0     H50032   4.151   4.206   7.414  0.3011  1.6707 -1.4050
  363MOL0     H50033   4.053   4.313   7.232  2.4157  1.7379 -2.4283
  363MOL0     H50034   4.004   4.450   7.357  1.5122  0.1978  2.4242
  363MOL0     H50035   4.258   4.353   7.244 -0.0708 -0.9763  1.6537
  363MOL0     H50036   4.271   4.438   7.400 -1.6729 -1.3454  1.9023
  363MOL0     H50037   4.133   4.530   7.132  0.3014 -0.8110 -1.6251
  363MOL0     H50038   4.157   4.637   7.279 -0.6731  0.4488 -1.3465
  363MOL0     H50039   4.303   4.707   7.090  0.9054  0.6783 -0.6245
  363MOL0     H50040   4.362   4.539   7.088  1.6478 -0.3211  2.2512
  363MOL0     H50041   4.470   4.589   7.324  2.3305 -1.5254 -2.2827
  363MOL0     H50042   4.524   4.702   7.205 -0.0296 -0.2143  0.4969
  363MOL0     H50043   4.417   4.942   7.204 -0.0629 -1.2545 -0.6755
  363MOL0     H50044   4.429   5.195   7.392  1.5348 -0.6118  2.6612
  363MOL0     H50045   4.294   5.177   7.512 -2.6229  2.4338 -1.5414
  363MOL0     H50046   4.244   5.274   7.279  3.4123 -0.2098 -3.1845
  363MOL0     H50047   4.246   5.115   7.210 -2.2515  0.1378 -0.8959
  363MOL0     H50048   4.076   5.225   7.440  2.0207  2.3579 -1.7942
  363MOL0     H50049   4.035   5.185   7.275 -0.0740 -1.3053 -0.6883
  363MOL0     H50050   4.116   4.928   7.359  3.0756  1.4482  1.0793
  363MOL0     H50051   4.103   5.007   7.510  3.1275  0.1918 -1.1734
  363MOL0     H50052   4.020   4.768   7.519  0.0272 -2.0223  2.0840
  363MOL0     H50053   3.923   4.543   7.707 -0.5104 -0.7962  0.5633
  363MOL0     H50054   4.013   4.555   7.557  0.5532 -0.3091  0.0230
  363MOL0     H50055   3.857   4.461   7.570 -0.3372  0.4919  0.6212
  363MOL0     H50056   3.300   4.469   7.452 -1.6973  1.6729  0.5550
  363MOL0     H50057   3.153   4.307   7.521  0.4403 -0.5574 -0.1118
  363MOL0     H50058   3.029   4.285   7.968  0.7364 -1.8438  0.3346
  363MOL0     H50059   3.028   4.408   7.855  5.0880 -1.0725  2.2158
  363MOL0     H50060   2.827   4.278   7.742 -0.0755 -0.8125  0.3490
  363MOL0     H50061   2.853   4.149   7.845 -1.0833  0.1929  0.8083
  363MOL0     H50062   2.742   4.422   7.929 -2.4983 -0.0516  1.4782
  363MOL0     H50063   2.786   4.303   8.049  1.1663  3.3875  0.2813
  363MOL0     H50064   2.635   4.148   7.912  0.0758 -1.4865  1.7107
  363MOL0     H50065   2.572   4.292   7.839  0.8409 -2.7362 -0.9772
  363MOL0     H50066   2.562   4.216   8.140 -2.3309 -0.1792  1.4761
  363MOL0     H50067   2.526   4.379   8.081 -3.3204  0.8290 -2.0256
  363MOL0     H50068   2.385   4.140   7.970  2.8164  0.1220  0.6510
  363MOL0     H50069   2.327   4.307   7.962 -0.0044  0.0411 -0.1400
  363MOL0     H50070   2.328   4.338   8.196  1.4284 -0.4519  1.0815
  363MOL0     H50071   2.374   4.170   8.227 -2.6947 -1.2326  0.3927
  363MOL0     H50072   2.116   4.208   8.068 -2.5553 -2.3686  1.0813
  363MOL0     H50073   2.122   4.247   8.245 -0.0826 -1.6410  1.4312
  363MOL0     H50074   3.270   4.350   7.930  0.1237 -3.4634 -1.1094
  363MOL0     H50075   3.442   4.507   7.858 -0.5297 -0.6098  0.6304
  363MOL0     H50076   3.531   4.830   7.522 -0.4330  0.6497 -1.7401
  363MOL0     H50077   3.670   5.001   7.432  1.5308  0.5465  0.9587
  363MOL0     H50078   3.653   4.279   7.829 -0.8173  1.3012  3.3859
  363MOL0     H50079   3.541   4.153   8.004  0.8185  0.4944 -1.3344
  363MOL0     H50080   3.468   3.966   8.296  2.8139  1.2223 -0.2837
  363MOL0     H50081   3.348   3.886   8.502 -0.0155 -0.1414 -1.1363
  363MOL0     H50082   3.485   3.549   8.732  0.1738 -0.8747  5.4213
  363MOL0     H50083   3.372   3.601   8.836 -0.1483 -3.3745 -0.2666
  363MOL0     H50084   3.305   3.582   8.538 -0.1409  0.4108  0.5402
  363MOL0     H50085   3.203   3.613   8.674  0.7555 -0.7896  2.0499
  363MOL0     H50086   3.343   3.347   8.632 -0.9675 -0.7738  1.3057
  363MOL0     H50087   3.269   3.387   8.781 -1.0971  1.5762 -0.2010
  363MOL0     H50088   3.123   3.247   8.624  3.2392  0.2956  3.1622
  363MOL0     H50089   3.134   3.374   8.506  1.7029 -2.9363 -0.7673
  363MOL0     H50090   2.867   3.513   8.816 -1.3169 -0.3285 -0.2278
  363MOL0     H50091   3.703   3.725   8.663 -4.0361  1.2555  4.4737
  363MOL0     H50092   3.954   3.824   8.452 -0.0198 -1.3768 -1.2991
  363MOL0     H50093   3.875   3.689   8.528 -0.0733  1.2209  0.4173
  363MOL0     H50094   3.877   3.707   8.343  0.4337 -1.0246  0.1787
  364MOL0     O50095   9.717   4.115   3.163  0.4580 -0.6946 -0.4361
  364MOL0     C50096   9.759   4.175   3.059 -0.3122  0.2867 -0.3107
  364MOL0     O50097   9.676   4.208   2.951 -0.1901  0.2421 -0.3646
  364MOL0     C50098   9.544   4.173   2.939 -1.0652  0.2585 -0.0898
  364MOL0     C50099   9.440   4.249   2.984  0.2792 -0.5743 -0.5854
  364MOL0     C50100   9.308   4.201   2.968  0.5580  0.6504  0.7237
  364MOL0     C50101   9.282   4.085   2.890  0.1396 -0.4983 -0.6720
  364MOL0     O50102   9.147   4.049   2.876 -0.1494 -0.0021 -0.1296
  364MOL0     C50103   9.115   3.979   2.762  0.3967  0.2882  0.7250
  364MOL0     C50104   8.959   3.972   2.747 -0.1105 -1.0578  0.2641
  364MOL0     C50105   8.927   3.863   2.646 -0.4543 -0.2263 -0.7705
  364MOL0     C50106   8.772   3.831   2.633 -0.3956  0.5380 -1.0112
  364MOL0     C50107   8.730   3.728   2.739  0.0183 -0.3427  0.5107
  364MOL0     C50108   8.580   3.699   2.752 -0.1954  0.4381 -0.4843
  364MOL0     C50109   8.519   3.625   2.630  0.2120 -0.3376  0.1180
  364MOL0     C50110   8.366   3.587   2.656  0.1704  0.9497  0.3737
  364MOL0     N50111   8.280   3.704   2.637  0.1492  0.0203 -0.0459
  364MOL0     C50112   8.218   3.773   2.737 -0.2565  0.5145 -0.7981
  364MOL0     C50113   8.144   3.866   2.680 -0.7088 -0.0689 -1.5900
  364MOL0     C50114   8.056   3.961   2.750  1.1337  0.9462  0.1150
  364MOL0     C50115   8.095   4.118   2.748 -0.5735  0.4911 -0.8869
  364MOL0     C50116   8.221   4.152   2.657 -0.3520 -0.3203  0.5262
  364MOL0     C50117   8.360   4.125   2.722  0.0552  0.6854  0.4801
  364MOL0     O50118   8.465   4.124   2.617 -0.0236  0.1172  0.2813
  364MOL0     C50119   8.570   4.193   2.658 -0.2429  0.6983  1.1084
  364MOL0     C50120   8.621   4.301   2.585 -0.5882 -0.0485 -0.5978
  364MOL0     C50121   8.728   4.380   2.621  0.6936  0.5358 -0.1773
  364MOL0     C50122   8.750   4.490   2.521  0.7311  1.0176 -0.1308
  364MOL0     C50123   8.798   4.349   2.738  0.7196  0.2885 -1.4021
  364MOL0     C50124   8.899   4.436   2.813  0.0233  0.4022  1.3736
  364MOL0     O50125   8.924   4.387   2.940  0.8873  0.3621  0.2120
  364MOL0     C50126   9.005   4.441   3.037  0.1726  0.0650  0.7879
  364MOL0     C50127   9.058   4.576   3.036 -0.7271 -0.3069  1.3232
  364MOL0     C50128   9.143   4.616   3.138  0.4149 -0.8993 -0.7940
  364MOL0     C50129   9.163   4.533   3.247 -0.4408 -0.5510  0.8065
  364MOL0     O50130   9.241   4.589   3.343 -0.3698 -0.0776 -0.0782
  364MOL0     C50131   9.363   4.514   3.388  0.8150 -0.4952  0.3501
  364MOL0     C50132   9.415   4.584   3.511  0.7996 -0.6232 -0.0849
  364MOL0     C50133   9.440   4.743   3.503  0.2593  0.1525 -0.6750
  364MOL0     C50134   9.543   4.782   3.393 -0.8823  0.1295  0.4542
  364MOL0     C50135   9.584   4.937   3.390  0.3694 -0.4912  0.1942
  364MOL0     C50136   9.680   4.990   3.269  0.1562 -0.2837  0.2402
  364MOL0     C50137   9.691   5.147   3.272 -0.0838 -0.6032 -0.4919
  364MOL0     C50138   9.724   5.203   3.419 -0.0736 -0.3636 -0.2124
  364MOL0    Cl50139   9.878   5.135   3.470  0.3182 -0.3559 -0.4946
  364MOL0     C50140   9.100   4.411   3.263  0.1885 -0.1455  0.1168
  364MOL0     C50141   9.016   4.368   3.159  0.9231  0.0305 -0.0043
  364MOL0     O50142   8.936   4.538   2.765  0.0461 -0.4107 -0.1006
  364MOL0     C50143   8.759   4.229   2.806 -0.5950  0.2396 -0.0934
  364MOL0     C50144   8.650   4.152   2.768  1.1595 -0.1626 -0.4286
  364MOL0     N50145   8.168   3.862   2.545  0.8676 -0.0059  0.0908
  364MOL0     N50146   8.259   3.772   2.521  0.4511  0.3047  0.9245
  364MOL0     C50147   9.391   4.012   2.846  0.7496 -0.8937  0.2487
  364MOL0     C50148   9.521   4.051   2.880 -0.2064  0.0723  0.3610
  364MOL0     C50149   9.894   4.225   3.087 -0.1356 -0.1959  0.4621
  364MOL0     C50150   9.971   4.164   3.189  0.9089 -0.2518 -0.6773
  364MOL0     C50151  10.095   4.198   3.228 -0.4770 -0.3917  0.4006
  364MOL0     C50152  10.149   4.321   3.161 -0.2226  0.1818  0.3104
  364MOL0     O50153  10.271   4.366   3.203 -0.3308  0.2174  0.5993
  364MOL0     C50154  10.368   4.279   3.265  0.3493 -0.2001  0.3739
  364MOL0     C50155  10.504   4.325   3.221 -0.3134  0.0802  0.2871
  364MOL0     C50156  10.612   4.212   3.249  0.8684 -0.0131 -0.5323
  364MOL0     C50157  10.755   4.238   3.203  0.1386  0.2268 -0.0158
  364MOL0     C50158  10.761   4.255   3.058  0.5191  0.0224  0.2902
  364MOL0     C50159  10.765   4.271   2.938  0.2094  0.1201 -0.8582
  364MOL0     C50160  10.081   4.379   3.056  0.2715 -0.1170 -0.8112
  364MOL0     C50161   9.951   4.335   3.020  0.8943 -0.7352  0.5453
  364MOL0     C50162   9.884   4.400   2.901  0.3326  0.0773 -0.2834
  364MOL0     H50163   9.455   4.346   3.030  1.2125 -0.4248 -1.1864
  364MOL0     H50164   9.226   4.252   3.017 -1.5955 -2.1014  0.2593
  364MOL0     H50165   9.151   3.876   2.761 -0.4011 -0.0230 -1.1964
  364MOL0     H50166   9.151   4.020   2.667 -0.2216  2.0893  1.2344
  364MOL0     H50167   8.906   3.943   2.838 -0.1086  1.6501  1.2186
  364MOL0     H50168   8.916   4.065   2.709 -0.6098 -0.8070  1.4021
  364MOL0     H50169   8.958   3.885   2.544 -1.3626 -0.7642 -1.1772
  364MOL0     H50170   8.977   3.771   2.675 -1.3450  0.1319  2.2501
  364MOL0     H50171   8.701   3.914   2.630 -0.4873  0.4699 -0.7151
  364MOL0     H50172   8.757   3.783   2.536  2.9732  2.1334 -2.4856
  364MOL0     H50173   8.768   3.752   2.839  3.5163 -1.4289 -0.3938
  364MOL0     H50174   8.779   3.637   2.703  0.3216  1.1253 -3.2955
  364MOL0     H50175   8.570   3.630   2.836 -1.3863  2.5617  1.1917
  364MOL0     H50176   8.529   3.794   2.772  0.0632 -0.2185  4.3333
  364MOL0     H50177   8.566   3.528   2.616 -0.0140 -0.0507 -3.7038
  364MOL0     H50178   8.529   3.673   2.532 -1.6203 -1.9732 -0.9470
  364MOL0     H50179   8.349   3.518   2.574  0.6214 -1.7351  2.4012
  364MOL0     H50180   8.347   3.545   2.755 -2.0919  0.6776 -0.1334
  364MOL0     H50181   8.227   3.743   2.840 -1.4897  2.3068 -0.1248
  364MOL0     H50182   8.038   3.918   2.849 -1.4757 -3.0976 -1.8542
  364MOL0     H50183   7.961   3.964   2.697  0.2104  2.6609  1.7591
  364MOL0     H50184   8.000   4.165   2.723 -1.2856  0.4937  1.5220
  364MOL0     H50185   8.124   4.143   2.851  0.8157 -0.5735 -0.9849
  364MOL0     H50186   8.212   4.103   2.560 -2.9171  0.4003  0.3404
  364MOL0     H50187   8.208   4.259   2.639 -1.0264 -0.2060  1.6292
  364MOL0     H50188   8.388   4.204   2.793 -1.0677  1.4010  0.1590
  364MOL0     H50189   8.346   4.032   2.777 -0.5244  1.2680  1.3487
  364MOL0     H50190   8.571   4.330   2.493  0.3111 -0.0681 -1.1017
  364MOL0     H50191   8.827   4.460   2.450 -0.5566  0.1298 -1.2189
  364MOL0     H50192   8.776   4.582   2.573  1.1999  1.0402 -0.3998
  364MOL0     H50193   8.665   4.505   2.454 -0.5392  1.5712  1.5352
  364MOL0     H50194   9.040   4.641   2.950  0.4219 -0.4125  0.9875
  364MOL0     H50195   9.195   4.711   3.140  1.6693 -1.5597 -0.9214
  364MOL0     H50196   9.371   4.406   3.397  2.9108 -0.9909 -4.3820
  364MOL0     H50197   9.430   4.524   3.302  1.3414 -2.3144  0.5048
  364MOL0     H50198   9.348   4.572   3.597 -4.5773  2.9164 -3.2602
  364MOL0     H50199   9.513   4.540   3.533  0.3089 -2.3384 -1.1746
  364MOL0     H50200   9.475   4.793   3.593 -2.4111 -0.6208  0.8994
  364MOL0     H50201   9.337   4.773   3.484  0.0798 -1.2665 -2.1630
  364MOL0     H50202   9.493   4.780   3.295 -1.4558  2.5477  0.6446
  364MOL0     H50203   9.629   4.714   3.391  0.3641  1.5002  3.0572
  364MOL0     H50204   9.491   4.993   3.396 -1.2974 -3.0161 -0.5449
  364MOL0     H50205   9.630   4.968   3.484 -1.0517 -2.3094  1.5799
  364MOL0     H50206   9.642   4.966   3.169 -0.7815  0.3976  0.4220
  364MOL0     H50207   9.782   4.949   3.278  2.0956  3.4192 -2.4424
  364MOL0     H50208   9.591   5.177   3.240  0.0875 -0.1605 -0.6181
  364MOL0     H50209   9.771   5.176   3.202  1.3012 -2.9580  0.0121
  364MOL0     H50210   9.644   5.187   3.493 -2.6366  4.0241 -1.6408
  364MOL0     H50211   9.735   5.311   3.427 -1.8005 -0.0375 -1.6555
  364MOL0     H50212   9.103   4.370   3.363 -1.9363 -1.9374 -0.4830
  364MOL0     H50213   8.974   4.268   3.165 -0.9084  0.7174 -0.7608
  364MOL0     H50214   8.782   4.198   2.908 -2.2502 -0.1209  0.2059
  364MOL0     H50215   8.613   4.070   2.828  0.8233 -0.8451 -1.5359
  364MOL0     H50216   9.372   3.922   2.788 -4.5237  1.2462 -1.9902
  364MOL0     H50217   9.593   3.985   2.833 -3.0393 -1.6974 -1.8172
  364MOL0     H50218   9.926   4.087   3.251 -0.2020 -0.5411 -1.8010
  364MOL0     H50219  10.135   4.170   3.325  1.2545 -0.0937 -0.1956
  364MOL0     H50220  10.368   4.281   3.375  0.2977 -3.7935  0.5590
  364MOL0     H50221  10.345   4.180   3.226  1.9172 -0.7286  0.7012
  364MOL0     H50222  10.536   4.420   3.265  0.2551 -0.8259  1.9005
  364MOL0     H50223  10.506   4.333   3.112  3.3982  0.3133  0.2376
  364MOL0     H50224  10.605   4.191   3.356 -2.0898 -0.6212 -0.7461
  364MOL0     H50225  10.585   4.116   3.205  2.1823 -0.0126 -1.3738
  364MOL0     H50226  10.805   4.144   3.230 -2.8001 -1.2128  0.9104
  364MOL0     H50227  10.804   4.322   3.252 -1.1234 -0.2073  2.1324
  364MOL0     H50228  10.756   4.293   2.833 -1.7346  2.6115 -0.2741
  364MOL0     H50229  10.126   4.466   3.009 -0.2409  1.4897  1.4475
  364MOL0     H50230   9.940   4.489   2.868 -1.6783  1.4223 -0.2663
  364MOL0     H50231   9.871   4.329   2.820  0.7420  1.3797 -1.5367
  364MOL0     H50232   9.784   4.439   2.925  1.2446  2.4848 -0.1337
  365MOL0     O50233   3.916   9.758  10.642  0.2631 -0.7647 -0.1625
  365MOL0     C50234   3.945   9.711  10.753 -0.6549 -1.2181  0.4444
  365MOL0     O50235   3.861   9.632  10.833 -0.6824  0.0193  0.4728
  365MOL0     C50236   3.782   9.526  10.786  0.3362 -0.2145 -0.1127
  365MOL0     C50237   3.787   9.484  10.655  0.4278  0.4934  0.2283
  365MOL0     C50238   3.707   9.376  10.614  0.4036 -0.2568  0.6202
  365MOL0     C50239   3.627   9.304  10.701  0.1130  0.0307  1.1024
  365MOL0     O50240   3.557   9.199  10.642  0.0452  1.1649  0.0054
  365MOL0     C50241   3.436   9.163  10.714 -1.0842 -0.4701  0.6843
  365MOL0     C50242   3.346   9.074  10.621  0.5463 -1.2735 -0.4117
  365MOL0     C50243   3.237   9.004  10.714  0.6139  0.3403 -0.4312
  365MOL0     C50244   3.148   8.903  10.642  0.9777 -0.5571 -0.0184
  365MOL0     C50245   3.062   8.827  10.734  0.1230 -0.0399  0.0631
  365MOL0     C50246   2.988   8.703  10.682  0.3338 -0.7453  0.4956
  365MOL0     C50247   2.954   8.604  10.794 -0.2154 -0.3526 -0.1434
  365MOL0     C50248   2.860   8.500  10.760 -0.2306  0.0685 -1.0964
  365MOL0     N50249   2.825   8.409  10.870  0.3856  0.6393 -0.8804
  365MOL0     C50250   2.759   8.447  10.984 -0.2364 -0.5523 -0.1251
  365MOL0     C50251   2.759   8.341  11.064 -0.0258  1.0124 -0.2216
  365MOL0     C50252   2.724   8.324  11.211  0.3289  0.1553 -0.3544
  365MOL0     C50253   2.826   8.260  11.307 -0.1128  0.2586 -0.4470
  365MOL0     C50254   2.805   8.287  11.458 -0.1992 -0.1278 -0.2035
  365MOL0     C50255   2.817   8.158  11.541 -0.4401  0.6100 -0.1488
  365MOL0     O50256   2.716   8.061  11.496  0.3889  0.9143 -0.3424
  365MOL0     C50257   2.587   8.073  11.552  0.0716  0.1455 -0.0194
  365MOL0     C50258   2.549   7.980  11.649 -0.4543 -0.1840  0.5313
  365MOL0     C50259   2.418   7.981  11.706  0.5430  0.5927  0.5220
  365MOL0     C50260   2.389   7.867  11.797 -0.1197 -0.2160 -0.7581
  365MOL0     C50261   2.325   8.079  11.651  0.0196  0.5469 -0.6831
  365MOL0     C50262   2.188   8.077  11.700 -0.1890  0.0433  0.1000
  365MOL0     O50263   2.175   8.056  11.835 -0.6319 -0.4606  0.2672
  365MOL0     C50264   2.052   7.997  11.871 -0.8700 -0.1648 -0.3359
  365MOL0     C50265   1.986   7.901  11.799  0.9048  0.9178  0.0484
  365MOL0     C50266   1.862   7.846  11.851  0.2451  0.2916 -0.5511
  365MOL0     C50267   1.807   7.896  11.972 -0.0990 -0.9793 -0.6554
  365MOL0     O50268   1.695   7.844  12.018 -0.7584 -0.6313  0.5028
  365MOL0     C50269   1.685   7.801  12.152  0.9217 -0.6025  0.2083
  365MOL0     C50270   1.809   7.719  12.197  0.1551 -0.7875  0.5576
  365MOL0     C50271   1.861   7.603  12.111 -0.6703 -0.4303 -0.7793
  365MOL0     C50272   2.013   7.616  12.081  0.4050  0.5151  0.2170
  365MOL0     C50273   2.064   7.470  12.054 -0.6366  0.0696 -1.2638
  365MOL0     C50274   2.184   7.482  11.949 -0.8739 -0.1482  1.2345
  365MOL0     C50275   2.304   7.535  12.020 -0.3103  0.2176  0.9474
  365MOL0     C50276   2.434   7.484  11.940  0.7845 -0.2761  0.1810
  365MOL0    Cl50277   2.471   7.317  11.979  0.2245 -0.2476  0.0168
  365MOL0     C50278   1.869   8.004  12.035 -0.2833 -0.5810 -0.5693
  365MOL0     C50279   1.993   8.052  11.978  0.7081  0.1836 -0.0342
  365MOL0     O50280   2.092   8.097  11.615 -0.4886 -0.3721 -0.6185
  365MOL0     C50281   2.359   8.162  11.546 -0.1994 -0.4049 -0.2359
  365MOL0     C50282   2.492   8.160  11.497  0.0806 -0.6668 -0.0616
  365MOL0     N50283   2.809   8.226  11.000  0.8211 -1.0051 -0.5224
  365MOL0     N50284   2.848   8.270  10.888  0.0969 -1.0159  0.3783
  365MOL0     C50285   3.622   9.353  10.830 -0.0501  0.6588  0.4873
  365MOL0     C50286   3.698   9.458  10.873 -0.2311 -0.2628 -0.2812
  365MOL0     C50287   4.088   9.744  10.777  1.0038 -0.7589 -0.2798
  365MOL0     C50288   4.129   9.869  10.723 -0.5995 -0.1477 -0.2510
  365MOL0     C50289   4.264   9.904  10.720  0.5562 -0.3237 -0.3056
  365MOL0     C50290   4.362   9.824  10.784  0.6568  0.1011 -1.1969
  365MOL0     O50291   4.499   9.844  10.795 -0.0915  0.4838 -0.2194
  365MOL0     C50292   4.551   9.936  10.700  0.4265  0.1035  0.6142
  365MOL0     C50293   4.576   9.857  10.570  0.0565 -0.7031  0.2580
  365MOL0     C50294   4.674   9.740  10.588 -0.1296  0.0494 -0.3848
  365MOL0     C50295   4.749   9.703  10.461 -0.3466 -0.8367 -0.5824
  365MOL0     C50296   4.651   9.647  10.363 -0.1937 -0.2309 -0.6920
  365MOL0     C50297   4.569   9.605  10.279  0.1511  0.0819 -0.6165
  365MOL0     C50298   4.314   9.715  10.850 -0.8160 -0.1647  0.1827
  365MOL0     C50299   4.184   9.665  10.845 -0.1280 -0.2211  0.2046
  365MOL0     C50300   4.148   9.529  10.911  0.7121 -0.9466 -0.6292
  365MOL0     H50301   3.872   9.522  10.600  2.0516 -1.2050  1.4053
  365MOL0     H50302   3.701   9.336  10.513 -0.6726  1.7653 -0.1807
  365MOL0     H50303   3.385   9.256  10.739  0.7604  1.1048 -1.1222
  365MOL0     H50304   3.457   9.114  10.810 -0.8163 -1.5355  0.0929
  365MOL0     H50305   3.294   9.135  10.546 -1.4558 -1.0840  1.0584
  365MOL0     H50306   3.406   9.002  10.565  0.0848 -2.5927  0.7487
  365MOL0     H50307   3.296   8.942  10.782  0.6790  0.3484 -0.4808
  365MOL0     H50308   3.178   9.075  10.772  1.1165 -1.5904  2.6851
  365MOL0     H50309   3.088   8.949  10.563  0.0094  0.8148  1.4461
  365MOL0     H50310   3.216   8.828  10.601  0.3015  0.0290 -2.3744
  365MOL0     H50311   2.991   8.896  10.779 -1.7488 -1.4640 -0.6052
  365MOL0     H50312   3.121   8.789  10.818  2.2531 -0.4454 -1.5317
  365MOL0     H50313   2.889   8.723  10.640 -0.0551  0.6425  1.9494
  365MOL0     H50314   3.049   8.672  10.597  0.0792  0.2155 -0.0611
  365MOL0     H50315   2.900   8.665  10.867  0.2475  1.0085 -0.9080
  365MOL0     H50316   3.043   8.557  10.835  0.1293 -0.6098 -1.1634
  365MOL0     H50317   2.773   8.538  10.707 -0.9176 -2.0433 -1.6044
  365MOL0     H50318   2.910   8.434  10.688 -0.7299 -1.2814 -0.2564
  365MOL0     H50319   2.729   8.543  11.024  1.3880  0.8642 -2.0721
  365MOL0     H50320   2.631   8.267  11.213  1.2797 -1.4416 -0.0075
  365MOL0     H50321   2.696   8.421  11.254  0.1800  0.7728 -1.7922
  365MOL0     H50322   2.827   8.153  11.288 -0.7574 -0.0709  1.1420
  365MOL0     H50323   2.925   8.303  11.290 -0.9685  3.2165  1.1338
  365MOL0     H50324   2.871   8.365  11.496 -2.7754  1.8686  0.5000
  365MOL0     H50325   2.706   8.334  11.469 -0.0975 -0.3483  2.1422
  365MOL0     H50326   2.912   8.106  11.525 -1.8534 -1.6007 -1.9454
  365MOL0     H50327   2.802   8.176  11.648  2.0567  1.8088  0.0543
  365MOL0     H50328   2.637   7.923  11.676  0.5638  1.0123 -0.1856
  365MOL0     H50329   2.480   7.806  11.792 -1.7138 -2.7077 -1.1828
  365MOL0     H50330   2.301   7.807  11.773 -0.4169 -0.2540  0.3563
  365MOL0     H50331   2.375   7.892  11.903 -2.7997 -2.2874 -0.5115
  365MOL0     H50332   2.005   7.867  11.697  1.0820 -0.1275  0.4151
  365MOL0     H50333   1.800   7.773  11.800  0.2670 -0.6966  0.8144
  365MOL0     H50334   1.689   7.887  12.219  2.6723  0.2677 -0.9380
  365MOL0     H50335   1.591   7.750  12.177  1.2944 -1.1359  0.5451
  365MOL0     H50336   1.894   7.786  12.209  0.8658 -1.7175  0.8504
  365MOL0     H50337   1.782   7.663  12.288 -4.1251 -0.1073 -0.0797
  365MOL0     H50338   1.801   7.590  12.021  1.3617 -1.4837 -2.0574
  365MOL0     H50339   1.840   7.516  12.174 -0.6401  1.6118  2.2607
  365MOL0     H50340   2.075   7.660  12.160  1.0300 -0.5474  0.3510
  365MOL0     H50341   2.022   7.682  11.995  3.1471  2.1355  1.6187
  365MOL0     H50342   2.095   7.415  12.143 -1.7862 -1.5120 -1.7963
  365MOL0     H50343   1.985   7.416  12.001 -1.4321 -0.5415  0.4872
  365MOL0     H50344   2.167   7.551  11.866 -0.7293 -0.5308  0.8848
  365MOL0     H50345   2.195   7.378  11.917  0.5729  0.2226  0.4289
  365MOL0     H50346   2.315   7.505  12.125  1.5800  2.3467  1.4477
  365MOL0     H50347   2.290   7.643  12.023  2.0021  0.5652  1.4892
  365MOL0     H50348   2.515   7.546  11.980  0.4621  1.5605 -1.8288
  365MOL0     H50349   2.418   7.507  11.834  0.6106  0.9549  0.4529
  365MOL0     H50350   1.824   8.047  12.124 -1.7628 -0.7979 -1.1853
  365MOL0     H50351   2.058   8.130  12.018  1.5979 -0.6660  0.2256
  365MOL0     H50352   2.285   8.223  11.496  1.2482  1.4443 -0.2304
  365MOL0     H50353   2.521   8.222  11.412 -0.0330 -1.9662 -1.0815
  365MOL0     H50354   3.547   9.304  10.892 -1.0586  1.6318  0.0567
  365MOL0     H50355   3.705   9.479  10.979  1.3724 -1.1645 -0.1695
  365MOL0     H50356   4.057   9.937  10.678 -1.4901 -0.7893  0.1672
  365MOL0     H50357   4.286   9.999  10.673 -0.3326 -0.3430 -0.7859
  365MOL0     H50358   4.494  10.028  10.686 -2.8013 -2.0065 -1.6692
  365MOL0     H50359   4.649   9.964  10.739  1.4929 -0.6828 -1.3483
  365MOL0     H50360   4.619   9.920  10.492  1.3486 -1.8522 -0.0004
  365MOL0     H50361   4.485   9.818  10.523 -1.2289 -0.0476  2.0986
  365MOL0     H50362   4.752   9.765  10.660 -2.2127  1.6083  1.4453
  365MOL0     H50363   4.612   9.660  10.628 -0.0764 -0.3862 -1.1408
  365MOL0     H50364   4.815   9.619  10.483 -0.9842 -1.2260 -0.1075
  365MOL0     H50365   4.805   9.786  10.417  1.0379 -1.9790 -1.0464
  365MOL0     H50366   4.488   9.574  10.217 -0.6031 -2.3690  1.4068
  365MOL0     H50367   4.388   9.644  10.887 -3.1841 -2.3515  0.9815
  365MOL0     H50368   4.068   9.527  10.986 -0.4004 -3.4010 -1.7751
  365MOL0     H50369   4.111   9.468  10.828 -1.2930 -1.6339  0.7007
  365MOL0     H50370   4.233   9.490  10.967 -0.6207  1.3301  3.3408
  366MOL0     O50371   6.833   8.275   1.688  0.3307 -0.3825  0.1443
  366MOL0     C50372   6.890   8.361   1.625 -0.4865  1.0720  0.7521
  366MOL0     O50373   6.909   8.355   1.490 -0.6117  0.2820  0.2923
  366MOL0     C50374   6.863   8.257   1.406 -0.1655  0.9066  0.3549
  366MOL0     C50375   6.858   8.280   1.264  0.3069  0.2885  0.1505
  366MOL0     C50376   6.830   8.185   1.165  0.6973  0.0644  1.0906
  366MOL0     C50377   6.798   8.055   1.205 -0.1528 -0.2850 -1.0528
  366MOL0     O50378   6.744   7.964   1.122  0.3154  0.0804  0.2537
  366MOL0     C50379   6.650   8.002   1.018 -0.4812 -0.7648 -0.4428
  366MOL0     C50380   6.604   7.880   0.931 -0.3457  1.1415  0.1791
  366MOL0     C50381   6.726   7.816   0.849 -0.2549 -0.0266 -0.2543
  366MOL0     C50382   6.830   7.746   0.930 -0.1243  0.2710 -0.0944
  366MOL0     C50383   6.955   7.700   0.847  0.0989  0.1537 -0.8784
  366MOL0     C50384   6.968   7.543   0.841  0.3423  0.4595  0.8572
  366MOL0     C50385   7.097   7.498   0.765 -0.5691 -0.0733  0.8437
  366MOL0     C50386   7.096   7.550   0.621  0.7271 -0.3143 -0.1233
  366MOL0     N50387   7.207   7.486   0.559  0.4766  0.3046  0.8662
  366MOL0     C50388   7.205   7.385   0.462  0.0577 -0.2942 -0.0819
  366MOL0     C50389   7.331   7.369   0.433  0.5167  0.1012 -0.0501
  366MOL0     C50390   7.372   7.261   0.337  0.0047  0.3488 -0.3877
  366MOL0     C50391   7.457   7.163   0.423 -0.7999  0.4353 -0.1140
  366MOL0     C50392   7.386   7.096   0.538 -1.2082 -1.4295  0.6368
  366MOL0     C50393   7.297   6.975   0.509  0.7960 -0.2948 -0.5112
  366MOL0     O50394   7.190   7.011   0.420  0.2331 -0.9117 -0.1030
  366MOL0     C50395   7.078   7.074   0.479 -0.0949  0.3010  0.3304
  366MOL0     C50396   6.967   7.079   0.402 -0.0639  0.4571  0.0127
  366MOL0     C50397   6.841   7.121   0.443  0.1625  0.3306 -1.0593
  366MOL0     C50398   6.732   7.130   0.341  0.1233  0.6711  0.4332
  366MOL0     C50399   6.830   7.170   0.582  0.0029  0.2524 -0.5827
  366MOL0     C50400   6.705   7.230   0.632 -0.2097  0.2486  0.1917
  366MOL0     O50401   6.723   7.298   0.741 -0.3737  1.0244  0.0760
  366MOL0     C50402   6.624   7.374   0.788  0.1939  0.0149 -0.2747
  366MOL0     C50403   6.558   7.474   0.720  1.0756 -0.4838  0.7613
  366MOL0     C50404   6.456   7.551   0.783 -0.5668 -0.4899  0.1093
  366MOL0     C50405   6.424   7.534   0.919  0.5322  1.2485  0.4401
  366MOL0     O50406   6.327   7.620   0.976  0.4190  0.6056  0.1905
  366MOL0     C50407   6.300   7.610   1.116  0.7177  0.1953  0.1786
  366MOL0     C50408   6.192   7.706   1.170  0.0473 -0.4454  0.3604
  366MOL0     C50409   6.212   7.852   1.120  0.1154 -0.1552  0.3694
  366MOL0     C50410   6.108   7.945   1.196 -0.5891  0.3236 -1.2271
  366MOL0     C50411   6.139   8.098   1.178 -0.5368 -0.7302  0.6203
  366MOL0     C50412   6.290   8.146   1.193  0.2985  0.2706  0.0385
  366MOL0     C50413   6.314   8.302   1.186  0.3791  0.5192 -0.6450
  366MOL0     C50414   6.415   8.350   1.085 -0.9022  0.5968 -0.0399
  366MOL0    Cl50415   6.335   8.382   0.921 -0.1831 -0.1731  0.0048
  366MOL0     C50416   6.504   7.450   0.989  0.9201  0.6726 -0.6685
  366MOL0     C50417   6.602   7.369   0.925  0.3977  0.5043 -0.3308
  366MOL0     O50418   6.601   7.213   0.577 -0.1509  0.3504  0.0678
  366MOL0     C50419   6.942   7.161   0.663  1.3804  0.1543 -0.5276
  366MOL0     C50420   7.062   7.117   0.615 -0.1104  0.6071 -0.2688
  366MOL0     N50421   7.412   7.473   0.488  0.2284 -0.3697  0.1018
  366MOL0     N50422   7.334   7.535   0.573 -0.4286 -0.0005  1.0911
  366MOL0     C50423   6.808   8.028   1.341 -0.3311  0.3802  0.9322
  366MOL0     C50424   6.830   8.126   1.443  0.5119 -0.1123 -0.8496
  366MOL0     C50425   6.976   8.453   1.696  0.9792  0.4502 -0.0534
  366MOL0     C50426   7.112   8.457   1.660 -0.1968 -0.0909  0.4473
  366MOL0     C50427   7.204   8.539   1.721  0.2670 -0.8285  0.1229
  366MOL0     C50428   7.170   8.606   1.834 -1.0343 -0.1894  0.5409
  366MOL0     O50429   7.282   8.672   1.893  0.3622 -0.1526 -1.2723
  366MOL0     C50430   7.257   8.787   1.967  0.2946  0.2438 -0.2295
  366MOL0     C50431   7.243   8.756   2.126  0.3981 -0.5495 -0.3449
  366MOL0     C50432   7.330   8.648   2.172 -0.2116  0.0536 -0.3528
  366MOL0     C50433   7.330   8.612   2.326 -0.6768 -0.0668  0.1474
  366MOL0     C50434   7.425   8.510   2.372 -0.5654  0.6670 -0.3845
  366MOL0     C50435   7.507   8.421   2.378  1.0064 -0.0113 -0.0965
  366MOL0     C50436   7.041   8.601   1.874  0.3522  0.3379 -0.2647
  366MOL0     C50437   6.941   8.528   1.807 -0.1235  0.6376 -0.7556
  366MOL0     C50438   6.809   8.524   1.873 -0.3191 -0.3342  0.3450
  366MOL0     H50439   6.883   8.382   1.237  1.4690 -0.8743 -3.8902
  366MOL0     H50440   6.827   8.205   1.059 -0.5656 -1.2159  0.8514
  366MOL0     H50441   6.693   8.087   0.964  0.4613 -1.9656 -1.6562
  366MOL0     H50442   6.557   8.048   1.050  0.6443  2.0225 -0.8747
  366MOL0     H50443   6.554   7.805   0.993  1.3187  1.6427  2.2709
  366MOL0     H50444   6.524   7.912   0.864 -0.6522  1.7701  0.8279
  366MOL0     H50445   6.678   7.752   0.774 -4.4519 -1.4742  3.2400
  366MOL0     H50446   6.783   7.885   0.787 -0.6586  0.2166 -0.3590
  366MOL0     H50447   6.877   7.794   1.016  2.5783 -1.2227 -0.6128
  366MOL0     H50448   6.777   7.663   0.979  1.1188 -0.5157 -0.0369
  366MOL0     H50449   7.039   7.742   0.903  0.4160  0.1211 -1.3280
  366MOL0     H50450   6.952   7.734   0.743 -0.8098  0.2136 -0.8392
  366MOL0     H50451   6.951   7.506   0.943 -0.8932 -3.1181 -0.5222
  366MOL0     H50452   6.880   7.502   0.792  0.1777  1.1211  0.5836
  366MOL0     H50453   7.099   7.389   0.763 -4.8091 -0.3060 -0.2760
  366MOL0     H50454   7.189   7.534   0.812 -0.8380 -0.0233  1.3367
  366MOL0     H50455   7.001   7.516   0.578 -0.2854  2.7011 -0.4961
  366MOL0     H50456   7.095   7.659   0.620 -0.6028 -0.3081 -0.7994
  366MOL0     H50457   7.119   7.335   0.420 -1.0220  2.0769 -0.8889
  366MOL0     H50458   7.439   7.302   0.261  0.4342 -1.6026 -1.1284
  366MOL0     H50459   7.285   7.215   0.289  0.2491 -1.1190  0.5226
  366MOL0     H50460   7.498   7.086   0.357  0.4827  2.7275 -2.1502
  366MOL0     H50461   7.547   7.215   0.457 -0.9159  0.2551  0.4908
  366MOL0     H50462   7.467   7.059   0.602  0.2991 -0.2098 -0.4859
  366MOL0     H50463   7.333   7.180   0.585 -0.2842 -1.1065  1.1511
  366MOL0     H50464   7.353   6.896   0.458  0.3735  0.1794 -1.7486
  366MOL0     H50465   7.266   6.950   0.611 -2.0208  4.6277  0.1662
  366MOL0     H50466   6.973   7.044   0.300  0.9385  1.9913 -0.4791
  366MOL0     H50467   6.659   7.049   0.349  1.7049 -1.0266 -1.1631
  366MOL0     H50468   6.764   7.129   0.236 -0.2292  1.8675  0.3030
  366MOL0     H50469   6.678   7.225   0.339 -2.2178 -0.5165 -3.4947
  366MOL0     H50470   6.574   7.498   0.615 -0.4171 -0.1903  0.5876
  366MOL0     H50471   6.398   7.628   0.734  0.7650 -1.1205 -2.6278
  366MOL0     H50472   6.266   7.511   1.150  0.1678  0.7065  1.1509
  366MOL0     H50473   6.393   7.628   1.171 -0.7748  1.7733  2.3580
  366MOL0     H50474   6.102   7.675   1.116  0.5192 -1.7010  0.2811
  366MOL0     H50475   6.178   7.701   1.278  2.8758 -1.0204  0.7667
  366MOL0     H50476   6.189   7.863   1.013 -0.6613 -0.9888  0.4422
  366MOL0     H50477   6.317   7.881   1.136  0.6738 -1.7325 -0.2107
  366MOL0     H50478   6.105   7.932   1.305 -2.8273  2.5391 -0.9293
  366MOL0     H50479   6.004   7.932   1.164 -0.4186  2.0792 -2.6537
  366MOL0     H50480   6.117   8.126   1.075 -1.3538  2.8648  1.6326
  366MOL0     H50481   6.075   8.160   1.242  0.7723  1.4958 -0.1236
  366MOL0     H50482   6.349   8.091   1.119  2.8005 -0.1246  2.1757
  366MOL0     H50483   6.321   8.098   1.286  0.1170  0.4001  0.1680
  366MOL0     H50484   6.349   8.328   1.287 -1.8567 -3.1052  1.2588
  366MOL0     H50485   6.219   8.356   1.180 -0.1635 -0.4385 -0.7344
  366MOL0     H50486   6.503   8.288   1.065 -2.3502 -1.2844 -0.9569
  366MOL0     H50487   6.458   8.445   1.120  2.7004 -0.7442 -0.4029
  366MOL0     H50488   6.504   7.439   1.097 -0.3685  1.9902 -0.5099
  366MOL0     H50489   6.663   7.301   0.985  0.2533  1.7099  1.2642
  366MOL0     H50490   6.931   7.199   0.764 -1.7060 -1.2496 -0.2122
  366MOL0     H50491   7.141   7.095   0.687  0.5182  0.5055 -0.9802
  366MOL0     H50492   6.793   7.925   1.372  3.4267 -0.0488  1.8590
  366MOL0     H50493   6.824   8.086   1.543 -3.3881 -0.1587 -0.9554
  366MOL0     H50494   7.158   8.400   1.579  2.4540  0.8227  1.1767
  366MOL0     H50495   7.303   8.560   1.683  0.8276  0.9252  2.3347
  366MOL0     H50496   7.342   8.853   1.946 -1.8789  3.2146 -0.3867
  366MOL0     H50497   7.170   8.839   1.926 -0.6409 -1.2716 -0.2275
  366MOL0     H50498   7.139   8.732   2.147  0.3328  0.5601  0.7482
  366MOL0     H50499   7.262   8.855   2.168  0.8854 -0.3334 -1.0527
  366MOL0     H50500   7.302   8.554   2.123  0.7354  0.3576 -1.5289
  366MOL0     H50501   7.431   8.671   2.138 -0.2010  0.1218 -0.2740
  366MOL0     H50502   7.228   8.591   2.358 -0.7589  0.6347  0.3571
  366MOL0     H50503   7.351   8.706   2.377  2.8128 -0.7457  0.2338
  366MOL0     H50504   7.564   8.332   2.401  3.1770  1.0359 -1.1122
  366MOL0     H50505   7.016   8.654   1.965 -0.6427  1.9661 -1.4477
  366MOL0     H50506   6.730   8.547   1.801 -0.2735 -0.3054  0.3044
  366MOL0     H50507   6.777   8.439   1.934 -2.1050  0.8359  1.1215
  366MOL0     H50508   6.817   8.609   1.941 -1.8865 -0.0880  0.2613
  367MOL0     O50509   1.435   6.942   7.792  0.2058 -0.0542 -0.2459
  367MOL0     C50510   1.464   6.998   7.902 -0.3030 -0.4203 -0.0579
  367MOL0     O50511   1.415   7.115   7.961 -0.1200 -0.7621  0.1212
  367MOL0     C50512   1.310   7.185   7.905  0.4658  0.1554 -1.3206
  367MOL0     C50513   1.274   7.291   7.994 -0.5263  0.0755 -0.0950
  367MOL0     C50514   1.173   7.384   7.951 -0.4621  0.4447 -0.3633
  367MOL0     C50515   1.103   7.364   7.826 -0.4354  0.7511  0.0492
  367MOL0     O50516   1.010   7.451   7.780  0.0397 -0.1165  0.3634
  367MOL0     C50517   0.869   7.430   7.763 -0.4322  0.0402 -0.3532
  367MOL0     C50518   0.806   7.565   7.732 -0.5458  0.4097  0.2678
  367MOL0     C50519   0.761   7.634   7.864 -0.0803 -0.0388 -0.7756
  367MOL0     C50520   0.648   7.743   7.826 -0.7052  0.0117 -0.1375
  367MOL0     C50521   0.606   7.814   7.957 -1.1659  0.1183 -0.2498
  367MOL0     C50522   0.475   7.890   7.939  0.9925 -0.2042 -0.4288
  367MOL0     C50523   0.431   7.962   8.073 -0.0822  0.2863 -0.5869
  367MOL0     C50524   0.312   8.060   8.047 -0.0665 -0.1799 -0.3748
  367MOL0     N50525   0.299   8.157   8.158 -0.7656  0.0516  0.0518
  367MOL0     C50526   0.355   8.282   8.143  0.5420  0.3667  0.8431
  367MOL0     C50527   0.309   8.351   8.246  0.0903  0.6454 -0.6014
  367MOL0     C50528   0.347   8.489   8.290  1.7470  0.4104 -0.1712
  367MOL0     C50529   0.502   8.500   8.296  0.6981 -0.3507  0.3559
  367MOL0     C50530   0.547   8.650   8.331 -0.5344  0.3963 -0.1713
  367MOL0     C50531   0.502   8.710   8.467  0.1662 -0.1422 -0.1613
  367MOL0     O50532   0.542   8.624   8.579  0.9877  0.9804 -0.1322
  367MOL0     C50533   0.441   8.617   8.674  0.5573 -0.1860  0.4086
  367MOL0     C50534   0.432   8.727   8.763  0.3389  0.0092 -0.4140
  367MOL0     C50535   0.327   8.742   8.847  0.0930 -0.2538 -0.4854
  367MOL0     C50536   0.319   8.873   8.924  0.3809  0.5612 -0.5596
  367MOL0     C50537   0.233   8.636   8.861  0.6568 -0.0758 -0.0036
  367MOL0     C50538   0.115   8.637   8.954 -0.6209  0.0352 -1.0073
  367MOL0     O50539   0.126   8.712   9.070  0.3000 -0.5289 -0.1796
  367MOL0     C50540   0.027   8.701   9.163 -0.4926  0.6058  1.2989
  367MOL0     C50541  -0.010   8.580   9.216 -0.1766 -0.2122  0.2238
  367MOL0     C50542  -0.101   8.576   9.328 -0.3556 -0.4091  0.0640
  367MOL0     C50543  -0.157   8.695   9.371  0.2029  0.3177  0.6532
  367MOL0     O50544  -0.217   8.685   9.491  0.6721 -0.9373 -0.3367
  367MOL0     C50545  -0.312   8.792   9.515 -0.5469 -0.0415  0.7839
  367MOL0     C50546  -0.409   8.744   9.621 -0.3154 -0.0730  0.3641
  367MOL0     C50547  -0.546   8.815   9.606  0.0794 -0.8788  0.1821
  367MOL0     C50548  -0.627   8.772   9.723  0.4958  0.8851 -0.6809
  367MOL0     C50549  -0.738   8.876   9.756  0.7292  0.2913  0.6744
  367MOL0     C50550  -0.772   8.892   9.906 -0.3519 -0.2411 -0.1842
  367MOL0     C50551  -0.872   8.997   9.949  0.2701 -0.0426 -0.1436
  367MOL0     C50552  -0.841   9.015  10.096 -0.2155 -1.4015  0.0637
  367MOL0    Cl50553  -0.694   9.105  10.117  0.7353 -0.1569  0.3266
  367MOL0     C50554  -0.127   8.813   9.304 -0.1988 -0.3756  0.8362
  367MOL0     C50555  -0.027   8.817   9.204 -0.9744  0.0945  0.2892
  367MOL0     O50556   0.014   8.574   8.929  0.2977 -0.1246  0.4585
  367MOL0     C50557   0.250   8.519   8.787 -0.0068 -0.6558  0.1168
  367MOL0     C50558   0.360   8.507   8.697 -0.4793 -0.2463 -1.3995
  367MOL0     N50559   0.237   8.265   8.324 -0.6310 -0.6351  0.1314
  367MOL0     N50560   0.228   8.156   8.277 -0.2105 -0.0694  0.6723
  367MOL0     C50561   1.139   7.254   7.747 -0.8303 -0.8985  0.3300
  367MOL0     C50562   1.239   7.167   7.784  0.3895  1.5738 -0.1680
  367MOL0     C50563   1.563   6.934   7.999  1.2373  0.1754  0.5740
  367MOL0     C50564   1.644   6.833   7.950  0.4712  0.4757 -0.1619
  367MOL0     C50565   1.719   6.755   8.038 -0.3096 -0.3834  0.4391
  367MOL0     C50566   1.730   6.786   8.169 -0.1575 -0.0180  0.0746
  367MOL0     O50567   1.802   6.710   8.255  0.0184 -0.0752 -0.9076
  367MOL0     C50568   1.826   6.575   8.222  0.0289  0.2142  0.0716
  367MOL0     C50569   1.848   6.509   8.357  0.4391  0.4669 -0.2485
  367MOL0     C50570   1.849   6.352   8.325 -0.6726  0.3773 -0.2319
  367MOL0     C50571   1.901   6.267   8.444  0.4951 -0.7682 -0.0540
  367MOL0     C50572   1.962   6.150   8.396  0.2849  0.6505  0.0357
  367MOL0     C50573   2.006   6.042   8.358  0.3346 -0.3995 -0.0332
  367MOL0     C50574   1.678   6.893   8.217 -0.0647 -0.7528  0.1142
  367MOL0     C50575   1.582   6.970   8.140  0.9232 -0.4861 -0.6704
  367MOL0     C50576   1.497   7.071   8.232 -0.5306 -0.0761  0.6347
  367MOL0     H50577   1.341   7.308   8.078  3.4243 -1.9365 -2.5076
  367MOL0     H50578   1.153   7.481   7.996  0.5609  1.9269 -2.8755
  367MOL0     H50579   0.830   7.372   7.847 -1.2702 -1.9870 -2.0766
  367MOL0     H50580   0.848   7.363   7.679 -2.5493 -0.0346  0.1853
  367MOL0     H50581   0.872   7.640   7.688 -2.0502 -0.1208 -3.1873
  367MOL0     H50582   0.722   7.565   7.663 -0.7040  1.6831  0.4281
  367MOL0     H50583   0.732   7.556   7.935 -2.1535  2.0087  0.7792
  367MOL0     H50584   0.860   7.665   7.900  0.6924 -1.6506 -1.4305
  367MOL0     H50585   0.700   7.822   7.772 -0.1565  2.2596  3.3079
  367MOL0     H50586   0.574   7.698   7.759 -1.4285 -1.7836  1.7364
  367MOL0     H50587   0.690   7.881   7.979 -0.4248 -0.6847 -0.5819
  367MOL0     H50588   0.596   7.748   8.044  0.6741  0.7009  0.4399
  367MOL0     H50589   0.477   7.949   7.847 -1.2819  2.0940  0.8746
  367MOL0     H50590   0.397   7.814   7.921  0.0582  0.3697  1.0066
  367MOL0     H50591   0.518   8.019   8.105  1.4709 -0.9879 -2.3028
  367MOL0     H50592   0.409   7.896   8.157  1.4718  0.6905  0.1597
  367MOL0     H50593   0.341   8.117   7.958  1.7336  0.5762  0.6488
  367MOL0     H50594   0.217   8.006   8.039 -1.4382  2.3071 -2.9858
  367MOL0     H50595   0.427   8.309   8.067 -0.4394 -1.2532 -0.7363
  367MOL0     H50596   0.302   8.516   8.386  1.2365 -1.6915  0.2349
  367MOL0     H50597   0.303   8.549   8.210  0.0193 -0.2425  0.2480
  367MOL0     H50598   0.543   8.429   8.369 -0.1249 -0.7136  0.4801
  367MOL0     H50599   0.546   8.467   8.202  3.5840  1.4792  0.9648
  367MOL0     H50600   0.655   8.637   8.333 -0.3456  1.6266 -1.1689
  367MOL0     H50601   0.521   8.717   8.248  2.5832  1.7584 -0.1707
  367MOL0     H50602   0.552   8.807   8.474 -1.6745  0.7951  0.6275
  367MOL0     H50603   0.395   8.733   8.476  0.3924  1.0926 -0.4493
  367MOL0     H50604   0.501   8.810   8.751  2.6911 -1.8158 -0.1846
  367MOL0     H50605   0.220   8.918   8.916  0.7712  1.7565  0.9829
  367MOL0     H50606   0.385   8.949   8.881  2.9584 -1.8320 -1.1377
  367MOL0     H50607   0.355   8.857   9.026  2.6860 -1.7840 -1.6296
  367MOL0     H50608   0.046   8.488   9.200 -0.1177 -0.1226 -0.0975
  367MOL0     H50609  -0.137   8.491   9.386 -0.9375  0.6039  1.2382
  367MOL0     H50610  -0.267   8.885   9.550 -1.1241  0.3890  0.4013
  367MOL0     H50611  -0.360   8.822   9.422  1.0885 -1.1546 -0.4755
  367MOL0     H50612  -0.425   8.635   9.620  3.8380 -0.8706  0.8548
  367MOL0     H50613  -0.370   8.774   9.719 -2.6006  1.4076  0.8754
  367MOL0     H50614  -0.584   8.796   9.505  1.0971 -1.0197 -0.1836
  367MOL0     H50615  -0.531   8.923   9.610 -0.3244 -0.7386 -1.3801
  367MOL0     H50616  -0.563   8.760   9.811  1.0034  0.2847 -1.1181
  367MOL0     H50617  -0.661   8.669   9.712  1.9744 -0.3681  4.1784
  367MOL0     H50618  -0.728   8.977   9.717  1.2167  0.1036  0.3022
  367MOL0     H50619  -0.827   8.839   9.705 -1.5180  2.7475  2.5526
  367MOL0     H50620  -0.677   8.911   9.957  0.8944 -0.4295 -2.3017
  367MOL0     H50621  -0.815   8.795   9.932 -1.0614 -0.7092 -2.8158
  367MOL0     H50622  -0.976   8.964   9.949  0.2698 -0.2923  2.6995
  367MOL0     H50623  -0.867   9.095   9.900  0.6375  0.7811  1.4761
  367MOL0     H50624  -0.840   8.927  10.161  1.4527 -1.0245  0.6039
  367MOL0     H50625  -0.920   9.087  10.120 -0.3173 -0.6472 -2.3095
  367MOL0     H50626  -0.177   8.904   9.338 -1.8527 -0.1009 -2.0472
  367MOL0     H50627  -0.003   8.910   9.153  1.5173  0.5973  2.1927
  367MOL0     H50628   0.185   8.434   8.807  1.0752 -2.0125 -1.7283
  367MOL0     H50629   0.360   8.409   8.649 -1.6017 -0.9057 -0.1191
  367MOL0     H50630   1.094   7.244   7.649 -2.1017  1.9950  0.4981
  367MOL0     H50631   1.262   7.081   7.722 -1.1294  0.7239  0.4070
  367MOL0     H50632   1.652   6.809   7.845  1.9666  2.7594 -0.6636
  367MOL0     H50633   1.768   6.664   8.005 -1.0737  0.6871 -4.3663
  367MOL0     H50634   1.732   6.533   8.184 -1.3639 -0.0571  3.4334
  367MOL0     H50635   1.910   6.561   8.154  1.0438 -1.0617  1.5367
  367MOL0     H50636   1.759   6.533   8.416 -0.4702  2.3339 -2.2269
  367MOL0     H50637   1.939   6.553   8.398  1.1486  0.1932 -1.4711
  367MOL0     H50638   1.757   6.307   8.287  0.6137 -3.2580  0.5571
  367MOL0     H50639   1.914   6.345   8.237 -2.5801  0.7345 -1.7465
  367MOL0     H50640   1.812   6.251   8.506  1.0343 -1.1737  0.6256
  367MOL0     H50641   1.969   6.332   8.499 -2.3254  2.2414  0.2686
  367MOL0     H50642   2.063   5.959   8.320  0.4222 -0.3641  0.0218
  367MOL0     H50643   1.691   6.913   8.323  0.3787  2.3748 -0.4218
  367MOL0     H50644   1.530   7.059   8.335 -1.0635  2.7432  1.1977
  367MOL0     H50645   1.510   7.176   8.207 -2.9362  0.0262 -0.4665
  367MOL0     H50646   1.391   7.044   8.226 -0.6900  0.4850  0.9646
  368MOL0     O50647   6.383   0.534  11.220 -0.6288 -0.2764 -0.1383
  368MOL0     C50648   6.367   0.461  11.126  0.9600 -0.4782  0.4520
  368MOL0     O50649   6.465   0.397  11.057 -0.2476  0.3958  0.1028
  368MOL0     C50650   6.598   0.379  11.096  0.1709 -0.8749  0.2511
  368MOL0     C50651   6.631   0.379  11.227 -0.6670  0.5719 -0.1478
  368MOL0     C50652   6.770   0.390  11.256  0.2525  0.0926 -0.5588
  368MOL0     C50653   6.864   0.412  11.163  0.0837  0.0029 -0.2766
  368MOL0     O50654   6.990   0.426  11.213  0.2188 -0.1406 -0.1141
  368MOL0     C50655   7.044   0.550  11.159  0.2687  0.0263 -0.8540
  368MOL0     C50656   7.006   0.669  11.232  0.8482  0.1914 -0.8378
  368MOL0     C50657   7.091   0.675  11.366  0.1436  0.1139 -0.3299
  368MOL0     C50658   7.019   0.667  11.502  0.2070 -0.2312  0.8779
  368MOL0     C50659   7.122   0.661  11.623 -0.2234 -0.0675  0.7189
  368MOL0     C50660   7.182   0.511  11.646  0.5809  0.1203  0.1910
  368MOL0     C50661   7.093   0.425  11.723  0.9884  0.7307 -0.6406
  368MOL0     C50662   7.158   0.282  11.758 -0.4884  0.5449 -0.2369
  368MOL0     N50663   7.185   0.191  11.646 -0.0415  0.5127 -0.2420
  368MOL0     C50664   7.099   0.144  11.548 -0.4379  0.7316 -0.5331
  368MOL0     C50665   7.173   0.044  11.489 -0.2854 -0.1102 -0.0874
  368MOL0     C50666   7.126  -0.036  11.372 -0.7032 -0.3784 -0.7620
  368MOL0     C50667   7.050  -0.155  11.415  0.7763 -1.1052  0.3940
  368MOL0     C50668   6.946  -0.195  11.309  0.0866  0.3781 -0.1583
  368MOL0     C50669   6.832  -0.090  11.288  0.3473 -0.5806  0.3927
  368MOL0     O50670   6.784  -0.058  11.419 -0.3906 -0.0129  0.1193
  368MOL0     C50671   6.664   0.003  11.448  1.4287  0.0724  0.9761
  368MOL0     C50672   6.575   0.043  11.350  0.5294  0.2795 -0.5594
  368MOL0     C50673   6.439   0.091  11.373 -0.5004  0.3850  1.0533
  368MOL0     C50674   6.359   0.127  11.253  0.3380 -0.2152 -0.1523
  368MOL0     C50675   6.405   0.111  11.512  0.5872 -0.1422 -0.0339
  368MOL0     C50676   6.269   0.156  11.545  1.1712 -0.0936  0.2400
  368MOL0     O50677   6.264   0.235  11.650 -0.3911 -0.4502 -0.6208
  368MOL0     C50678   6.156   0.298  11.698  0.1680 -0.0237 -1.4179
  368MOL0     C50679   6.163   0.350  11.837  0.5569  0.1002  0.0181
  368MOL0     C50680   6.043   0.399  11.882  0.2318  0.2576  0.7435
  368MOL0     C50681   5.927   0.420  11.797  0.1024 -0.2889 -0.2782
  368MOL0     O50682   5.798   0.460  11.834  0.1111  0.0513 -0.6498
  368MOL0     C50683   5.778   0.449  11.972  0.4479 -0.1136  0.0244
  368MOL0     C50684   5.628   0.447  12.002 -0.5839  0.8325 -0.5286
  368MOL0     C50685   5.556   0.568  11.946  0.2520  0.0688 -0.9061
  368MOL0     C50686   5.403   0.561  11.966 -0.0858  0.4536  0.1366
  368MOL0     C50687   5.353   0.693  12.032  0.4928 -0.4015 -0.2862
  368MOL0     C50688   5.209   0.681  12.092 -0.2563  0.4011  0.1943
  368MOL0     C50689   5.102   0.692  11.977 -0.8952 -0.2040  0.4892
  368MOL0     C50690   4.965   0.757  12.020  0.4894  0.0120  0.6992
  368MOL0    Cl50691   4.987   0.932  12.044  0.0274  0.0935  0.9225
  368MOL0     C50692   5.930   0.369  11.669  0.0474  0.4848  0.4017
  368MOL0     C50693   6.040   0.314  11.614 -1.0958 -0.1539  0.6463
  368MOL0     O50694   6.174   0.103  11.487 -0.0520 -0.1504  0.3212
  368MOL0     C50695   6.504   0.076  11.615 -0.2221 -0.5419  0.4113
  368MOL0     C50696   6.628   0.025  11.577 -0.8701  0.0626 -0.4525
  368MOL0     N50697   7.306   0.055  11.530 -0.2060  0.1220 -1.4128
  368MOL0     N50698   7.313   0.140  11.629  0.1330  0.4237  0.0381
  368MOL0     C50699   6.827   0.395  11.031 -0.1046 -0.6441  0.0078
  368MOL0     C50700   6.691   0.381  10.999  0.0561  0.2346 -0.2517
  368MOL0     C50701   6.232   0.437  11.089 -0.0646  0.1307  0.1336
  368MOL0     C50702   6.215   0.395  10.952  0.7199 -1.0181  0.8672
  368MOL0     C50703   6.091   0.379  10.901  0.2872  0.4844 -1.0452
  368MOL0     C50704   5.981   0.421  10.973 -0.4375  0.0497 -0.4855
  368MOL0     O50705   5.858   0.391  10.917 -0.4160  0.2867  0.4501
  368MOL0     C50706   5.730   0.408  10.994  0.5949  0.1434  0.6084
  368MOL0     C50707   5.605   0.386  10.906  0.0224 -0.1710 -0.1930
  368MOL0     C50708   5.593   0.238  10.858 -0.4611  0.2701  0.3696
  368MOL0     C50709   5.448   0.192  10.836 -0.2377 -0.0722  0.2708
  368MOL0     C50710   5.431   0.047  10.850  0.0632 -0.8658  0.0062
  368MOL0     C50711   5.400  -0.069  10.867 -1.0915 -0.7698 -1.5412
  368MOL0     C50712   5.990   0.473  11.099  0.3027  0.9447 -0.5373
  368MOL0     C50713   6.116   0.475  11.168 -0.0537  0.2704  0.8804
  368MOL0     C50714   6.124   0.511  11.317  1.0290 -0.2051 -0.6789
  368MOL0     H50715   6.553   0.367  11.302  0.3280 -2.5518  0.5119
  368MOL0     H50716   6.792   0.386  11.362 -0.6240 -0.1512 -0.3725
  368MOL0     H50717   7.019   0.563  11.053 -1.1096  2.6073 -0.2987
  368MOL0     H50718   7.153   0.554  11.158  0.2864  0.6649  0.7908
  368MOL0     H50719   7.033   0.754  11.168 -0.6154  1.0129 -0.4175
  368MOL0     H50720   6.900   0.670  11.259  0.5993 -2.6962 -1.4564
  368MOL0     H50721   7.183   0.617  11.362 -1.4186 -2.4406 -2.1090
  368MOL0     H50722   7.129   0.777  11.357 -0.0382  0.0310 -2.8441
  368MOL0     H50723   6.954   0.754  11.503  1.1736  0.5053  1.3836
  368MOL0     H50724   6.955   0.579  11.502  1.7224 -1.3816  1.4596
  368MOL0     H50725   7.080   0.700  11.716 -0.3964  2.9072 -0.5291
  368MOL0     H50726   7.202   0.730  11.593  0.6360 -0.7197  1.4449
  368MOL0     H50727   7.196   0.466  11.547 -0.0652 -0.8396  0.5246
  368MOL0     H50728   7.279   0.524  11.695  0.1980  1.8477  0.5606
  368MOL0     H50729   7.002   0.410  11.664  3.7106 -0.7677 -4.9072
  368MOL0     H50730   7.065   0.466  11.820 -1.7131  0.4853 -1.2256
  368MOL0     H50731   7.247   0.287  11.821 -0.4687  0.4229 -0.2550
  368MOL0     H50732   7.086   0.222  11.815 -0.7375 -1.2863 -2.3486
  368MOL0     H50733   6.992   0.160  11.537 -1.2589 -2.5614  1.2693
  368MOL0     H50734   7.206  -0.086  11.316 -0.9706 -0.1322 -1.3780
  368MOL0     H50735   7.075   0.028  11.298 -2.3577 -0.4276  0.3055
  368MOL0     H50736   7.113  -0.240  11.441 -0.5090 -2.1714  0.0981
  368MOL0     H50737   6.989  -0.129  11.502  1.1713 -0.2956  0.4483
  368MOL0     H50738   7.001  -0.218  11.217 -0.4581  3.4911 -1.4084
  368MOL0     H50739   6.889  -0.284  11.336 -0.2329  0.6620  0.1055
  368MOL0     H50740   6.867  -0.001  11.235 -1.0571 -0.3282 -0.1435
  368MOL0     H50741   6.753  -0.135  11.228 -0.4991  0.2284  0.8717
  368MOL0     H50742   6.617   0.037  11.250  2.9570 -3.3590  0.4724
  368MOL0     H50743   6.271   0.066  11.230  0.2444  0.1966 -0.9186
  368MOL0     H50744   6.409   0.125  11.156 -0.2723 -1.1190 -0.4570
  368MOL0     H50745   6.314   0.227  11.257  0.5634  0.0261 -2.3385
  368MOL0     H50746   6.254   0.347  11.897 -0.2835  3.3216  1.6624
  368MOL0     H50747   6.039   0.438  11.983  0.0991 -0.3707  0.9926
  368MOL0     H50748   5.818   0.362  12.026 -2.5323 -0.1748  2.4045
  368MOL0     H50749   5.826   0.534  12.021  1.3959 -0.5486 -0.1228
  368MOL0     H50750   5.581   0.357  11.962  1.3450 -0.4674 -0.0080
  368MOL0     H50751   5.631   0.448  12.112 -0.0465  0.8503 -0.5433
  368MOL0     H50752   5.568   0.562  11.837  0.3200 -0.5545 -0.8646
  368MOL0     H50753   5.601   0.659  11.988 -3.4727  1.2686  0.9201
  368MOL0     H50754   5.370   0.479  12.031  0.2365 -0.2027 -0.5199
  368MOL0     H50755   5.355   0.544  11.870  0.5834 -2.0906  0.1726
  368MOL0     H50756   5.428   0.718  12.108 -0.2488 -2.1980  1.1098
  368MOL0     H50757   5.359   0.784  11.971  0.2805  1.1056  1.8377
  368MOL0     H50758   5.186   0.762  12.162  0.4549  0.8034 -0.0174
  368MOL0     H50759   5.204   0.579  12.132 -4.0897 -2.2298 -5.5781
  368MOL0     H50760   5.095   0.595  11.926  0.6226  0.1518 -0.4652
  368MOL0     H50761   5.139   0.762  11.902  2.7532 -1.7364  0.6341
  368MOL0     H50762   4.915   0.706  12.103 -2.0214  1.8719  0.4105
  368MOL0     H50763   4.897   0.740  11.937 -0.9583 -0.9031  2.0232
  368MOL0     H50764   5.840   0.386  11.610  0.1269  2.8477  0.8787
  368MOL0     H50765   6.029   0.280  11.511 -0.2615 -2.3889  1.2322
  368MOL0     H50766   6.485   0.095  11.720  1.7162 -0.7404  0.8447
  368MOL0     H50767   6.692  -0.020  11.653 -1.8057  0.0220  0.3290
  368MOL0     H50768   6.900   0.373  10.954  0.4023 -2.1325  0.8741
  368MOL0     H50769   6.659   0.362  10.897  3.0427  1.2641 -1.4974
  368MOL0     H50770   6.287   0.368  10.874 -0.6078  1.4052 -1.3846
  368MOL0     H50771   6.081   0.345  10.799  2.0371 -0.8744 -0.8144
  368MOL0     H50772   5.728   0.347  11.084 -3.6588  0.6597  1.0361
  368MOL0     H50773   5.726   0.512  11.025  3.3791  1.2389 -2.1320
  368MOL0     H50774   5.602   0.460  10.826 -1.3172  0.7335  0.6603
  368MOL0     H50775   5.515   0.400  10.966  1.9615  2.1371  2.4509
  368MOL0     H50776   5.648   0.219  10.765 -0.4114  0.0082  0.4511
  368MOL0     H50777   5.639   0.176  10.935 -1.4059 -0.9521 -0.0285
  368MOL0     H50778   5.422   0.221  10.734  3.3122  0.7376 -0.5546
  368MOL0     H50779   5.376   0.238  10.905  1.7328  0.6524  1.9459
  368MOL0     H50780   5.382  -0.173  10.887 -0.1477 -0.9474 -1.5799
  368MOL0     H50781   5.908   0.514  11.156  0.5399 -1.7903  2.0907
  368MOL0     H50782   6.189   0.442  11.373  2.8358  0.6190 -1.6800
  368MOL0     H50783   6.157   0.614  11.328  1.2385 -0.3003 -0.3866
  368MOL0     H50784   6.024   0.511  11.360  1.0834  1.4264 -0.5129
  369MOL0     O50785   5.123   7.667  10.853 -0.0174 -0.0988  0.9827
  369MOL0     C50786   5.021   7.723  10.901  0.7459 -0.2499 -0.4677
  369MOL0     O50787   4.915   7.775  10.818  0.6816  0.1062 -0.9280
  369MOL0     C50788   4.893   7.718  10.699 -0.9526 -0.4972  0.2961
  369MOL0     C50789   4.894   7.582  10.671  0.6118 -0.5340 -0.5218
  369MOL0     C50790   4.875   7.539  10.538 -0.2407 -0.0123  0.5096
  369MOL0     C50791   4.855   7.632  10.429 -0.0819 -0.0550 -0.5214
  369MOL0     O50792   4.830   7.577  10.303  0.1430 -0.8737 -0.4904
  369MOL0     C50793   4.736   7.466  10.305 -0.6330 -0.8498  0.1998
  369MOL0     C50794   4.643   7.494  10.181 -0.7106  0.6597 -0.0065
  369MOL0     C50795   4.519   7.566  10.244  0.4323 -0.1618  0.9319
  369MOL0     C50796   4.419   7.608  10.139  0.1688 -0.6313  0.0051
  369MOL0     C50797   4.284   7.664  10.194 -0.2231  0.2998 -0.6074
  369MOL0     C50798   4.175   7.650  10.084 -1.2942 -0.2273 -0.5299
  369MOL0     C50799   4.050   7.727  10.106  0.2968  0.2074  0.3554
  369MOL0     C50800   3.955   7.725   9.987 -0.2826 -0.2533  0.5695
  369MOL0     N50801   3.857   7.834   9.985  0.3647  0.7509  0.6116
  369MOL0     C50802   3.843   7.941   9.908 -0.7408 -0.1774  1.0539
  369MOL0     C50803   3.729   7.994   9.949  0.1387 -0.8679 -0.0371
  369MOL0     C50804   3.667   8.115   9.884  0.5942 -0.2714 -0.0681
  369MOL0     C50805   3.554   8.082   9.782  0.7868 -0.1070  0.1036
  369MOL0     C50806   3.516   8.215   9.705 -0.0720 -0.1031  0.6497
  369MOL0     C50807   3.417   8.306   9.782  1.0578  0.0999 -0.4797
  369MOL0     O50808   3.389   8.420   9.692 -0.4120 -0.0825 -0.0128
  369MOL0     C50809   3.270   8.486   9.691  0.1782 -0.2122 -0.1856
  369MOL0     C50810   3.178   8.486   9.802  0.2468  0.5820  0.9384
  369MOL0     C50811   3.048   8.560   9.796 -0.5280  0.4657  0.3767
  369MOL0     C50812   2.954   8.561   9.912 -0.6128  0.4080  0.3867
  369MOL0     C50813   3.013   8.632   9.679 -0.1766 -0.0598 -0.4108
  369MOL0     C50814   2.899   8.720   9.656 -0.1192 -0.8921  0.0134
  369MOL0     O50815   2.850   8.711   9.529  0.4111 -0.4900  0.4878
  369MOL0     C50816   2.730   8.759   9.496  0.5888 -0.1025  0.6621
  369MOL0     C50817   2.724   8.834   9.380  0.3947  0.8134 -0.7293
  369MOL0     C50818   2.608   8.888   9.341 -0.1054  0.8450 -0.1486
  369MOL0     C50819   2.487   8.847   9.397 -0.8224 -0.5430  0.0347
  369MOL0     O50820   2.368   8.891   9.348 -0.8601  0.3657  0.0781
  369MOL0     C50821   2.339   8.824   9.223  0.3613 -0.7630 -0.2028
  369MOL0     C50822   2.191   8.819   9.176  0.4276 -0.8294  0.7100
  369MOL0     C50823   2.174   8.765   9.033 -0.7679 -1.1311 -0.4704
  369MOL0     C50824   2.030   8.719   9.016 -0.2384 -0.7193 -0.4832
  369MOL0     C50825   2.017   8.673   8.867  0.2904 -0.1247 -0.1915
  369MOL0     C50826   2.117   8.580   8.819  0.4177  0.1926 -0.4425
  369MOL0     C50827   2.119   8.450   8.896  0.7467 -0.6824 -0.7995
  369MOL0     C50828   2.201   8.348   8.823 -0.1297 -0.3225  0.3795
  369MOL0    Cl50829   2.253   8.221   8.933 -0.0664 -0.0617  0.0524
  369MOL0     C50830   2.485   8.757   9.501 -0.5259 -0.9306  0.0577
  369MOL0     C50831   2.609   8.715   9.563  0.1982  0.2480  0.4627
  369MOL0     O50832   2.848   8.791   9.743  0.6798  0.2104 -0.3588
  369MOL0     C50833   3.108   8.631   9.575  0.5825  0.7814  0.9369
  369MOL0     C50834   3.234   8.570   9.577  0.0276  0.4368  0.4486
  369MOL0     N50835   3.669   7.918  10.047 -0.7200  0.3349 -0.4206
  369MOL0     N50836   3.747   7.816  10.062  0.0947 -0.7071  0.3929
  369MOL0     C50837   4.850   7.764  10.460 -0.3362 -0.7196  0.1067
  369MOL0     C50838   4.881   7.808  10.591 -0.3109  0.3927 -0.9470
  369MOL0     C50839   5.018   7.762  11.045  0.2216  0.4988  0.4456
  369MOL0     C50840   4.928   7.863  11.074  0.4560  0.5823 -0.8963
  369MOL0     C50841   4.921   7.911  11.208  0.0910 -0.3190  0.2724
  369MOL0     C50842   5.014   7.869  11.300  0.3452  0.3676  0.1284
  369MOL0     O50843   5.008   7.930  11.421  0.0197  0.1417 -0.7811
  369MOL0     C50844   5.094   7.882  11.527 -0.4645  0.0191 -0.3446
  369MOL0     C50845   5.024   7.948  11.652  0.3666  0.7030  0.0724
  369MOL0     C50846   4.882   7.899  11.682 -0.3788 -0.1441 -1.0853
  369MOL0     C50847   4.890   7.798  11.796  0.7249  1.1539  0.3215
  369MOL0     C50848   4.760   7.741  11.832  0.5951 -0.0193  0.4720
  369MOL0     C50849   4.653   7.677  11.843 -0.0372 -0.6885 -0.5677
  369MOL0     C50850   5.102   7.769  11.264  0.8117  0.2238 -1.1163
  369MOL0     C50851   5.109   7.712  11.141  0.6028 -0.8363 -0.4296
  369MOL0     C50852   5.226   7.622  11.106  0.1633 -0.2984 -0.3761
  369MOL0     H50853   4.916   7.508  10.748  0.1438 -0.7266 -0.5701
  369MOL0     H50854   4.867   7.433  10.516 -1.2710 -0.0474  0.9848
  369MOL0     H50855   4.683   7.471  10.400 -0.0351  2.9143  0.4852
  369MOL0     H50856   4.798   7.377  10.289  4.8886  2.6080 -0.4429
  369MOL0     H50857   4.702   7.549  10.107  1.1645  1.8639  2.2718
  369MOL0     H50858   4.609   7.399  10.136  0.4715 -0.0118  0.4903
  369MOL0     H50859   4.463   7.496  10.307  1.7702 -1.3739  0.8268
  369MOL0     H50860   4.554   7.653  10.298 -0.7168  1.9516 -1.5092
  369MOL0     H50861   4.474   7.671  10.068  0.4699  1.1843  1.7549
  369MOL0     H50862   4.398   7.518  10.081  0.3481 -0.1843 -0.7660
  369MOL0     H50863   4.282   7.766  10.234 -1.1683  0.8389 -1.9514
  369MOL0     H50864   4.254   7.594  10.272 -1.1596  0.2810 -0.9759
  369MOL0     H50865   4.224   7.685   9.992  0.6845  0.6217  0.7875
  369MOL0     H50866   4.161   7.543  10.068  0.5331 -0.5008 -0.5538
  369MOL0     H50867   4.081   7.831  10.117 -1.4043  1.2407 -3.1223
  369MOL0     H50868   4.001   7.696  10.199  0.1263  2.3806  1.0522
  369MOL0     H50869   4.015   7.737   9.896 -2.7463 -1.6681 -1.3497
  369MOL0     H50870   3.919   7.622   9.982  2.7873 -1.4130  0.1084
  369MOL0     H50871   3.910   7.971   9.829  0.7467  2.6358  3.1977
  369MOL0     H50872   3.752   8.161   9.832  0.4811  0.8407  0.6774
  369MOL0     H50873   3.630   8.190   9.955  1.6244 -0.3963  0.6236
  369MOL0     H50874   3.604   8.017   9.709  1.6711  1.9328 -1.2106
  369MOL0     H50875   3.479   8.028   9.839  1.7186  0.4585  1.9728
  369MOL0     H50876   3.609   8.268   9.683  0.0061  0.9325  3.1141
  369MOL0     H50877   3.463   8.201   9.611 -0.7966 -0.3294  1.0855
  369MOL0     H50878   3.332   8.237   9.789  1.3143 -0.1953 -0.2343
  369MOL0     H50879   3.460   8.334   9.878 -0.1675  3.3526 -0.7760
  369MOL0     H50880   3.208   8.432   9.890  4.8830  2.0125  0.5210
  369MOL0     H50881   2.859   8.607   9.881  1.6358  3.6133 -2.4525
  369MOL0     H50882   2.993   8.613  10.000  1.6692  0.8317 -0.8014
  369MOL0     H50883   2.936   8.456   9.940  1.1778 -0.2299 -0.7126
  369MOL0     H50884   2.814   8.860   9.326 -0.4901 -0.2248 -2.8093
  369MOL0     H50885   2.611   8.945   9.249 -0.5910  3.8789  1.5914
  369MOL0     H50886   2.400   8.872   9.147 -0.4381  0.0133 -0.3717
  369MOL0     H50887   2.360   8.719   9.246 -2.0586 -0.9049  1.8458
  369MOL0     H50888   2.139   8.762   9.254  2.1088 -0.7878  1.8981
  369MOL0     H50889   2.142   8.917   9.165 -0.2948 -1.4123 -2.2964
  369MOL0     H50890   2.245   8.683   9.031  2.7748  1.6640  0.4387
  369MOL0     H50891   2.202   8.841   8.959 -0.1009  1.6341  2.3745
  369MOL0     H50892   1.963   8.801   9.042  2.3312  1.1740  0.4811
  369MOL0     H50893   2.022   8.633   9.084  1.2105  0.0502  0.7000
  369MOL0     H50894   1.921   8.621   8.862 -0.4752  1.2126  0.2626
  369MOL0     H50895   2.009   8.754   8.794 -2.0115 -1.7994 -1.9307
  369MOL0     H50896   2.215   8.629   8.816  0.3038  1.1524  4.0078
  369MOL0     H50897   2.091   8.563   8.715 -3.2542 -2.1923  0.6686
  369MOL0     H50898   2.012   8.427   8.902  0.3646  1.2805  2.8321
  369MOL0     H50899   2.162   8.464   8.996 -2.7605  0.7628  0.6438
  369MOL0     H50900   2.283   8.415   8.794 -2.3970  3.2134  1.4949
  369MOL0     H50901   2.156   8.305   8.733 -0.2513  0.1297  0.2206
  369MOL0     H50902   2.389   8.730   9.542 -0.8622  2.1800  1.6081
  369MOL0     H50903   2.617   8.657   9.654 -1.8421 -1.7544 -0.5403
  369MOL0     H50904   3.079   8.675   9.480 -0.1829 -3.4576 -1.0628
  369MOL0     H50905   3.299   8.574   9.489 -1.0276 -0.6393 -0.4230
  369MOL0     H50906   4.816   7.833  10.383 -0.7526 -0.7513  0.2589
  369MOL0     H50907   4.873   7.914  10.614 -1.6526 -0.0144  0.7332
  369MOL0     H50908   4.848   7.899  11.010 -0.0654  0.9077 -0.0835
  369MOL0     H50909   4.841   7.975  11.245  1.9601  0.9642  2.2583
  369MOL0     H50910   5.090   7.773  11.535 -2.7271 -0.2205 -3.0812
  369MOL0     H50911   5.197   7.915  11.514 -0.5728  1.1947  1.4175
  369MOL0     H50912   5.025   8.057  11.653  1.3091  0.7180  1.6530
  369MOL0     H50913   5.082   7.927  11.743 -1.4604 -0.9510  0.9344
  369MOL0     H50914   4.835   7.991  11.716  5.5208  2.2237  2.2894
  369MOL0     H50915   4.844   7.852  11.591 -0.5171 -0.7258 -0.7338
  369MOL0     H50916   4.941   7.842  11.882  1.5351  1.3404 -0.2494
  369MOL0     H50917   4.951   7.715  11.758  1.4824  0.2153  3.3259
  369MOL0     H50918   4.569   7.616  11.870  0.1735 -1.2762 -1.2238
  369MOL0     H50919   5.178   7.739  11.335  1.5570  1.2610 -1.4416
  369MOL0     H50920   5.271   7.574  11.193  3.1733 -0.7476 -2.0414
  369MOL0     H50921   5.194   7.536  11.047 -1.6278  0.1085 -0.0780
  369MOL0     H50922   5.307   7.681  11.061  1.5056 -1.1149  0.8748
  370MOL0     O50923   1.161   6.257   7.853  0.4648 -0.5295  0.1554
  370MOL0     C50924   1.172   6.311   7.743  1.0961 -0.1621  0.2032
  370MOL0     O50925   1.143   6.439   7.721 -0.0056 -0.1894  1.1298
  370MOL0     C50926   1.135   6.540   7.817 -1.1928  0.5110  0.4585
  370MOL0     C50927   1.123   6.528   7.957  0.6603  0.1023 -0.5885
  370MOL0     C50928   1.109   6.644   8.039  0.4097  0.7570  0.5455
  370MOL0     C50929   1.127   6.768   7.979 -0.4937 -0.7117 -1.2037
  370MOL0     O50930   1.129   6.875   8.067  0.1586  0.8133  0.0833
  370MOL0     C50931   1.026   6.970   8.041  0.1852 -0.2315 -0.4479
  370MOL0     C50932   1.040   7.070   8.160 -0.0305 -0.7405  0.3563
  370MOL0     C50933   0.940   7.190   8.148 -0.4022  0.5345  0.1811
  370MOL0     C50934   0.980   7.292   8.250  0.6868  1.0408 -0.0299
  370MOL0     C50935   0.872   7.394   8.280 -0.6339  0.4950  0.2604
  370MOL0     C50936   0.879   7.540   8.219 -0.7388 -0.1008 -0.3222
  370MOL0     C50937   0.760   7.614   8.296  0.1094 -0.6796  0.3251
  370MOL0     C50938   0.766   7.647   8.442  0.5572  0.0828 -0.4585
  370MOL0     N50939   0.638   7.691   8.498 -0.2039 -0.3538 -0.0981
  370MOL0     C50940   0.580   7.805   8.450  0.5275  0.3966 -0.5879
  370MOL0     C50941   0.461   7.812   8.511  0.7415  0.0346  0.1663
  370MOL0     C50942   0.337   7.901   8.481 -0.2312 -0.2133  0.1657
  370MOL0     C50943   0.205   7.835   8.464 -0.8875 -0.2851 -0.0624
  370MOL0     C50944   0.185   7.755   8.333 -1.2248 -0.3980 -0.8511
  370MOL0     C50945   0.274   7.626   8.312  0.2060 -0.1208 -0.0186
  370MOL0     O50946   0.237   7.579   8.185 -0.3354 -0.3428 -0.4480
  370MOL0     C50947   0.322   7.484   8.133  0.8209  0.2299  0.4434
  370MOL0     C50948   0.343   7.495   7.994  0.2727  0.5034  0.0909
  370MOL0     C50949   0.431   7.413   7.918 -0.1542  0.0697  0.0076
  370MOL0     C50950   0.438   7.427   7.771  0.0262 -0.4803 -0.0833
  370MOL0     C50951   0.501   7.308   7.991  0.6057 -0.8041 -0.0595
  370MOL0     C50952   0.592   7.214   7.930 -0.3686  0.2750 -0.0706
  370MOL0     O50953   0.607   7.201   7.793 -1.0181  0.9817  0.8649
  370MOL0     C50954   0.708   7.125   7.726 -0.2933  0.7309 -0.1247
  370MOL0     C50955   0.780   7.022   7.782 -0.6170 -0.1070 -0.2201
  370MOL0     C50956   0.875   6.968   7.706  0.3788  1.1179  0.2977
  370MOL0     C50957   0.898   6.998   7.569 -1.0925 -0.2723 -0.6765
  370MOL0     O50958   1.006   6.936   7.509  0.0292  0.1514 -0.5046
  370MOL0     C50959   1.068   7.007   7.399 -0.2695  0.8772  0.2897
  370MOL0     C50960   1.198   6.929   7.376 -0.5309 -0.5657 -0.1280
  370MOL0     C50961   1.278   6.998   7.278 -0.9797  0.4623 -0.4154
  370MOL0     C50962   1.428   6.948   7.286  0.2403 -0.1533  0.5738
  370MOL0     C50963   1.519   7.032   7.198 -0.1205 -0.2703 -0.1376
  370MOL0     C50964   1.667   7.028   7.248  0.1336  0.8164 -0.6129
  370MOL0     C50965   1.772   7.105   7.168 -0.7900 -0.5978 -0.5644
  370MOL0     C50966   1.909   7.110   7.246  0.0893 -0.2201  0.4689
  370MOL0    Cl50967   2.013   7.232   7.173 -0.0700  0.5298  0.0896
  370MOL0     C50968   0.827   7.100   7.516 -0.0302 -0.2886  0.8060
  370MOL0     C50969   0.728   7.167   7.596 -0.3011  0.2593  0.2473
  370MOL0     O50970   0.665   7.154   8.009  0.8084 -0.0973 -0.7818
  370MOL0     C50971   0.477   7.307   8.131  0.6105  0.4634 -0.5342
  370MOL0     C50972   0.404   7.400   8.207  0.3786  0.3132 -0.2582
  370MOL0     N50973   0.453   7.698   8.590 -0.1057  0.2128 -0.7089
  370MOL0     N50974   0.557   7.628   8.590  0.2371 -0.1044  0.1985
  370MOL0     C50975   1.165   6.789   7.844  1.1675 -0.0960 -1.0440
  370MOL0     C50976   1.161   6.669   7.767  1.4157 -0.5386  0.7543
  370MOL0     C50977   1.227   6.237   7.632 -0.4247  0.6408 -0.5209
  370MOL0     C50978   1.265   6.317   7.517  0.5202  0.0248 -0.0861
  370MOL0     C50979   1.328   6.261   7.407 -0.0691  0.0356  0.3588
  370MOL0     C50980   1.359   6.128   7.405 -0.2449 -0.6943  0.7297
  370MOL0     O50981   1.432   6.086   7.297 -0.2077  0.3353  0.1976
  370MOL0     C50982   1.544   5.999   7.335  0.4982  0.8304 -0.1996
  370MOL0     C50983   1.635   5.961   7.223  0.0540 -1.3090 -0.6173
  370MOL0     C50984   1.728   5.854   7.280  0.4020  0.2458 -0.3147
  370MOL0     C50985   1.847   5.827   7.185 -0.3814  0.3526  0.3292
  370MOL0     C50986   1.840   5.697   7.120 -0.1221  0.3622 -0.4618
  370MOL0     C50987   1.811   5.584   7.086 -0.3959 -0.0771  0.2522
  370MOL0     C50988   1.319   6.042   7.517 -0.2171  0.2613  1.2605
  370MOL0     C50989   1.243   6.093   7.621 -0.5712 -0.1420 -1.1417
  370MOL0     C50990   1.181   6.002   7.719  0.6066 -0.0560 -0.7929
  370MOL0     H50991   1.105   6.432   8.005 -0.0425 -1.0415 -2.9619
  370MOL0     H50992   1.106   6.636   8.147  0.5326 -0.4415  0.4772
  370MOL0     H50993   0.933   6.914   8.032 -0.2232  0.5715 -1.4550
  370MOL0     H50994   1.041   7.014   7.942 -1.3487  0.3781 -0.4394
  370MOL0     H50995   1.036   7.019   8.256 -3.5836 -1.1061  0.1635
  370MOL0     H50996   1.140   7.115   8.151  1.3890 -3.4530  1.6039
  370MOL0     H50997   0.924   7.228   8.047  0.1806 -1.1373 -0.5677
  370MOL0     H50998   0.848   7.139   8.181 -0.0803  0.2191  0.5977
  370MOL0     H50999   1.012   7.245   8.344  0.3470  0.2439 -0.3010
  370MOL0     H51000   1.071   7.344   8.219  0.3901  1.0587 -0.9031
  370MOL0     H51001   0.890   7.395   8.388 -0.1555  0.4392  0.1857
  370MOL0     H51002   0.781   7.339   8.255 -1.3617  1.9153 -0.3252
  370MOL0     H51003   0.973   7.588   8.245 -1.4506  0.9515  0.3562
  370MOL0     H51004   0.864   7.547   8.111  0.6733  0.6938 -0.4845
  370MOL0     H51005   0.681   7.543   8.270  0.9345 -0.9830 -1.4541
  370MOL0     H51006   0.759   7.710   8.244 -2.6378  1.0024  3.1575
  370MOL0     H51007   0.793   7.559   8.502  3.4116  0.8766 -0.4539
  370MOL0     H51008   0.838   7.727   8.460 -0.9210  1.1075  1.3079
  370MOL0     H51009   0.614   7.861   8.364  1.2088 -0.0902 -0.6363
  370MOL0     H51010   0.353   7.947   8.383 -0.4274 -0.9431 -0.2148
  370MOL0     H51011   0.331   7.976   8.561  0.3414  1.3199 -1.1708
  370MOL0     H51012   0.195   7.758   8.542  1.4679  2.2973  3.0883
  370MOL0     H51013   0.131   7.915   8.466 -0.2681  0.4086 -2.2156
  370MOL0     H51014   0.079   7.732   8.324 -1.4387  0.2116 -0.0062
  370MOL0     H51015   0.196   7.824   8.249  1.0350 -0.6988 -0.8681
  370MOL0     H51016   0.382   7.646   8.314 -0.0922  1.5416  0.8651
  370MOL0     H51017   0.244   7.548   8.381  0.8672 -1.0267 -0.7265
  370MOL0     H51018   0.280   7.568   7.945 -0.1680 -0.5139 -0.9050
  370MOL0     H51019   0.386   7.348   7.716  0.3817 -0.3970 -0.5378
  370MOL0     H51020   0.542   7.444   7.742 -0.4346  1.1964 -0.8589
  370MOL0     H51021   0.393   7.524   7.753  2.3916  1.4305  3.1095
  370MOL0     H51022   0.766   6.997   7.887  1.7261  4.2548  1.3823
  370MOL0     H51023   0.941   6.896   7.753 -0.5948 -0.9999 -1.4485
  370MOL0     H51024   1.015   6.998   7.303  1.8929 -2.8915 -0.7678
  370MOL0     H51025   1.095   7.108   7.432 -0.4418  1.0143  0.0186
  370MOL0     H51026   1.254   6.924   7.469 -0.9907 -2.5770  0.0879
  370MOL0     H51027   1.172   6.828   7.341 -0.0828 -1.4181  1.8838
  370MOL0     H51028   1.279   7.103   7.311  1.2871  0.5942 -0.7353
  370MOL0     H51029   1.237   6.993   7.177  2.5628 -2.2732 -1.9043
  370MOL0     H51030   1.423   6.849   7.240 -0.4802  0.3750 -0.5220
  370MOL0     H51031   1.468   6.951   7.388  1.3166 -1.0520  0.2032
  370MOL0     H51032   1.504   7.006   7.093 -2.5477 -0.9466  0.3402
  370MOL0     H51033   1.505   7.139   7.216  1.3476 -0.5316  3.1914
  370MOL0     H51034   1.688   6.925   7.277  0.9324  1.5480  1.5512
  370MOL0     H51035   1.668   7.076   7.346  2.4061 -2.6685  1.2990
  370MOL0     H51036   1.725   7.203   7.156 -4.9732 -2.2769  0.1343
  370MOL0     H51037   1.780   7.058   7.070 -1.7595 -1.2312 -0.3596
  370MOL0     H51038   1.950   7.009   7.250 -0.5878 -0.6748 -2.0959
  370MOL0     H51039   1.893   7.138   7.350 -1.8418  0.8358 -0.0538
  370MOL0     H51040   0.844   7.131   7.414 -2.2236  1.2181  0.8471
  370MOL0     H51041   0.673   7.253   7.560  3.9621  3.5081  0.6990
  370MOL0     H51042   0.544   7.236   8.179 -0.1589 -0.7818 -1.2580
  370MOL0     H51043   0.405   7.371   8.311 -0.9740 -2.4863 -0.9351
  370MOL0     H51044   1.181   6.887   7.801  1.4872 -0.0041 -0.7196
  370MOL0     H51045   1.163   6.674   7.659  0.2052  1.6851  0.7825
  370MOL0     H51046   1.244   6.423   7.507  2.0104  0.8049  3.3510
  370MOL0     H51047   1.362   6.326   7.327 -1.9637  0.1947 -0.3685
  370MOL0     H51048   1.603   6.049   7.413  0.9845  0.2200 -0.1660
  370MOL0     H51049   1.497   5.903   7.357  1.5206  0.5360  0.7553
  370MOL0     H51050   1.679   6.055   7.190 -1.0091  0.0816  1.6398
  370MOL0     H51051   1.567   5.924   7.146 -1.4195  2.2389 -1.2384
  370MOL0     H51052   1.774   5.885   7.374 -1.9732 -2.4493  1.9305
  370MOL0     H51053   1.661   5.771   7.304 -0.3554  0.9891  0.1960
  370MOL0     H51054   1.932   5.831   7.253  0.3262 -0.7524 -0.4426
  370MOL0     H51055   1.859   5.905   7.109 -1.5096  0.3114  0.0798
  370MOL0     H51056   1.784   5.481   7.088  0.2420 -0.2486  0.2001
  370MOL0     H51057   1.352   5.939   7.520 -1.2298 -0.2510 -1.5228
  370MOL0     H51058   1.238   5.981   7.809  0.3050 -0.2497 -0.6450
  370MOL0     H51059   1.080   6.028   7.750  2.4969  3.4875  3.4116
  370MOL0     H51060   1.161   5.909   7.663  2.0177  0.3300 -2.0069
  371MOL0     O51061   6.651   4.923   3.511 -0.1130 -0.6540 -0.6198
  371MOL0     C51062   6.630   4.951   3.629  0.1742 -0.3397  0.3327
  371MOL0     O51063   6.705   4.908   3.734 -0.7083 -0.6276 -0.4077
  371MOL0     C51064   6.802   4.807   3.715 -0.3051 -0.0618 -1.0792
  371MOL0     C51065   6.922   4.818   3.790 -0.8719 -0.8763 -0.7336
  371MOL0     C51066   7.033   4.737   3.769 -0.5540  0.5213  0.2996
  371MOL0     C51067   7.031   4.637   3.671  0.7891  0.7728  0.0525
  371MOL0     O51068   7.132   4.547   3.650  0.3680  0.4817 -0.1169
  371MOL0     C51069   7.248   4.529   3.731  0.6651 -0.7010  0.9483
  371MOL0     C51070   7.349   4.435   3.658 -0.0363  0.3238 -0.5076
  371MOL0     C51071   7.497   4.481   3.647  0.2578 -0.2122  0.2347
  371MOL0     C51072   7.526   4.518   3.504 -0.4176  0.4634  0.3313
  371MOL0     C51073   7.430   4.625   3.466 -0.7832 -0.1563  0.5929
  371MOL0     C51074   7.475   4.681   3.323 -0.0155 -0.1194 -0.6695
  371MOL0     C51075   7.589   4.785   3.330  0.4053  0.7190  0.7237
  371MOL0     C51076   7.686   4.762   3.213 -0.9030 -0.0050  1.0119
  371MOL0     N51077   7.628   4.817   3.086  0.0961  0.4681  0.0824
  371MOL0     C51078   7.676   4.921   3.008  0.4161  0.1262  0.4117
  371MOL0     C51079   7.587   4.919   2.906  0.3517 -0.7111 -0.3011
  371MOL0     C51080   7.570   5.026   2.799  0.0019  0.0097 -0.2919
  371MOL0     C51081   7.440   5.112   2.797 -0.3786  1.1685  0.7092
  371MOL0     C51082   7.426   5.221   2.683 -0.9737 -0.6024 -0.2206
  371MOL0     C51083   7.337   5.343   2.711 -0.8779 -0.0210  0.3251
  371MOL0     O51084   7.393   5.418   2.816 -0.6750  0.5588 -0.4430
  371MOL0     C51085   7.503   5.500   2.780 -0.6748  0.6628 -0.0004
  371MOL0     C51086   7.546   5.515   2.648 -0.2813 -0.6553  0.6285
  371MOL0     C51087   7.647   5.606   2.619  0.2561  0.1498  0.3630
  371MOL0     C51088   7.671   5.637   2.473 -0.0123 -0.5437  1.3437
  371MOL0     C51089   7.730   5.663   2.720 -0.7642  0.4145  0.4356
  371MOL0     C51090   7.855   5.741   2.692  0.0017  0.0789  0.3579
  371MOL0     O51091   7.942   5.693   2.584  0.3341  0.0332  0.0005
  371MOL0     C51092   8.071   5.749   2.575  0.2196  0.0034  0.2667
  371MOL0     C51093   8.093   5.855   2.485  0.3009 -0.0996 -0.3998
  371MOL0     C51094   8.219   5.910   2.465 -0.1540  0.1625 -0.4843
  371MOL0     C51095   8.330   5.846   2.525 -0.8223 -0.5561  0.5182
  371MOL0     O51096   8.448   5.906   2.499 -0.3817  0.1145  0.3640
  371MOL0     C51097   8.485   5.913   2.358 -0.8401 -0.1522 -0.1214
  371MOL0     C51098   8.623   5.975   2.341  0.7000 -0.0917 -0.0293
  371MOL0     C51099   8.648   6.112   2.404 -0.1507 -0.2190 -0.2582
  371MOL0     C51100   8.545   6.209   2.359 -0.0136 -0.2993  0.2331
  371MOL0     C51101   8.581   6.353   2.395  0.0661  0.2448  0.6791
  371MOL0     C51102   8.489   6.468   2.348  0.3032 -0.2154 -0.1429
  371MOL0     C51103   8.360   6.482   2.438 -0.1702  0.1844 -0.9049
  371MOL0     C51104   8.380   6.508   2.585 -0.2948  0.6880  1.0336
  371MOL0    Cl51105   8.471   6.662   2.640 -0.2587 -0.1966 -0.5138
  371MOL0     C51106   8.313   5.731   2.600 -0.4433  0.5863  0.0115
  371MOL0     C51107   8.186   5.683   2.634  0.0652 -0.4865  0.3132
  371MOL0     O51108   7.880   5.827   2.772 -0.4611  0.1528  0.8239
  371MOL0     C51109   7.696   5.642   2.852  0.0660 -0.2795  0.3946
  371MOL0     C51110   7.578   5.570   2.884 -1.1606  0.5807 -0.0798
  371MOL0     N51111   7.493   4.820   2.924  0.2361 -0.2392 -0.1538
  371MOL0     N51112   7.509   4.768   3.037  0.2773 -0.5832 -1.0503
  371MOL0     C51113   6.909   4.618   3.600  0.8028 -0.2859 -1.1275
  371MOL0     C51114   6.797   4.697   3.630  0.5903 -0.2295  0.8494
  371MOL0     C51115   6.517   5.030   3.664  1.3040  0.3754  1.1414
  371MOL0     C51116   6.544   5.154   3.731  0.2836 -0.1481 -0.0077
  371MOL0     C51117   6.426   5.223   3.764 -0.6918 -0.2395 -0.6899
  371MOL0     C51118   6.296   5.178   3.748  0.6944 -0.0117  0.1256
  371MOL0     O51119   6.183   5.244   3.792 -1.0956 -0.3277 -0.6288
  371MOL0     C51120   6.097   5.292   3.688 -0.0389 -0.5291  0.2441
  371MOL0     C51121   6.049   5.434   3.728  1.0211  0.8520 -0.3202
  371MOL0     C51122   6.158   5.542   3.692  0.3610 -0.4152  1.0606
  371MOL0     C51123   6.100   5.686   3.694 -0.0866 -0.7163  0.4811
  371MOL0     C51124   6.029   5.717   3.565  0.7843 -0.2162  0.2403
  371MOL0     C51125   5.965   5.757   3.465 -0.0436  0.1009 -0.4107
  371MOL0     C51126   6.276   5.063   3.671 -0.3746 -0.1671 -0.4452
  371MOL0     C51127   6.387   4.979   3.634  0.3178 -0.0631 -0.4367
  371MOL0     C51128   6.368   4.836   3.584 -0.2707  1.1593  0.7804
  371MOL0     H51129   6.940   4.904   3.853 -1.3572 -0.2223 -1.4750
  371MOL0     H51130   7.120   4.756   3.831 -1.4734 -0.5612  2.0001
  371MOL0     H51131   7.222   4.502   3.833  4.5571 -3.6740  1.4137
  371MOL0     H51132   7.283   4.632   3.739 -1.3842  0.2238 -0.9821
  371MOL0     H51133   7.349   4.345   3.719  0.1363  2.4922  2.9900
  371MOL0     H51134   7.313   4.410   3.558 -1.3948  3.0103 -0.7901
  371MOL0     H51135   7.519   4.561   3.718 -1.0676  0.3062  0.0938
  371MOL0     H51136   7.564   4.396   3.660 -2.9659 -2.8784  0.9196
  371MOL0     H51137   7.628   4.553   3.483 -0.8989  1.4173 -0.5628
  371MOL0     H51138   7.513   4.431   3.439 -0.1256  0.5761  0.1199
  371MOL0     H51139   7.423   4.712   3.533 -2.0796  0.4144 -0.2228
  371MOL0     H51140   7.332   4.581   3.445  0.5464 -1.7435 -3.1122
  371MOL0     H51141   7.505   4.597   3.260  1.8428 -0.4497  0.5533
  371MOL0     H51142   7.382   4.719   3.281 -1.8558 -2.7823  0.7583
  371MOL0     H51143   7.641   4.768   3.425  3.5529  0.0877 -0.9779
  371MOL0     H51144   7.561   4.890   3.331  4.7262  2.1427  3.6109
  371MOL0     H51145   7.779   4.813   3.241 -1.4721  2.0309 -0.5258
  371MOL0     H51146   7.695   4.654   3.200 -1.1545 -0.0513  1.2158
  371MOL0     H51147   7.752   4.996   3.028  4.6514 -4.2221  2.6828
  371MOL0     H51148   7.593   4.996   2.696  0.5644  0.5188 -0.3199
  371MOL0     H51149   7.645   5.102   2.821  2.6198 -2.4039 -0.4051
  371MOL0     H51150   7.354   5.047   2.777 -1.7054  0.1042  7.5055
  371MOL0     H51151   7.414   5.168   2.887 -1.5252 -1.3426  2.0484
  371MOL0     H51152   7.523   5.254   2.644 -1.5402 -2.1359 -3.2838
  371MOL0     H51153   7.389   5.173   2.591 -0.6151 -2.1925  0.4287
  371MOL0     H51154   7.331   5.403   2.619  0.8416 -0.5590 -0.1763
  371MOL0     H51155   7.236   5.311   2.736 -1.7054  0.0075 -2.6133
  371MOL0     H51156   7.505   5.478   2.555  0.3775 -1.6418  0.7146
  371MOL0     H51157   7.760   5.593   2.426  0.1902  1.6678 -0.5035
  371MOL0     H51158   7.670   5.746   2.464  2.0682 -0.1295  4.5728
  371MOL0     H51159   7.588   5.599   2.413 -0.7325 -2.1105  3.2245
  371MOL0     H51160   8.009   5.910   2.444  1.1876  2.2489  0.7846
  371MOL0     H51161   8.221   5.999   2.403 -0.3885 -0.7667 -1.8574
  371MOL0     H51162   8.499   5.807   2.333  3.6547  0.2632 -0.2471
  371MOL0     H51163   8.406   5.963   2.302 -0.7915 -0.5553 -0.5564
  371MOL0     H51164   8.689   5.904   2.392 -2.1540 -1.8330  1.5788
  371MOL0     H51165   8.653   5.972   2.236  1.4122  1.0064  0.1278
  371MOL0     H51166   8.742   6.143   2.357 -0.7480 -1.1091 -2.1329
  371MOL0     H51167   8.653   6.100   2.512 -0.0916 -2.0407 -0.4304
  371MOL0     H51168   8.440   6.190   2.384 -0.8019  0.7980 -1.9652
  371MOL0     H51169   8.548   6.213   2.250 -0.7114  1.3834  0.2593
  371MOL0     H51170   8.574   6.357   2.504  3.3897 -2.0387  1.1036
  371MOL0     H51171   8.687   6.374   2.377  0.6148 -1.7219  1.4126
  371MOL0     H51172   8.469   6.450   2.242  1.7592 -0.6664 -0.3677
  371MOL0     H51173   8.555   6.555   2.352 -1.9211  1.7734 -2.9396
  371MOL0     H51174   8.305   6.388   2.434 -1.3893  0.8604 -0.4865
  371MOL0     H51175   8.305   6.568   2.401 -0.5176  0.0573 -0.6921
  371MOL0     H51176   8.431   6.425   2.633 -1.4198 -0.1544  0.8228
  371MOL0     H51177   8.278   6.501   2.624 -1.4562 -2.0603 -2.0272
  371MOL0     H51178   8.409   5.690   2.630  0.6093  0.6242 -2.9910
  371MOL0     H51179   8.167   5.599   2.700 -0.1689 -1.6551 -1.1787
  371MOL0     H51180   7.751   5.698   2.927  0.3016  1.8519 -1.2497
  371MOL0     H51181   7.552   5.563   2.989  0.6122 -0.3477  0.3454
  371MOL0     H51182   6.883   4.537   3.532  4.2379 -2.8042  0.3024
  371MOL0     H51183   6.707   4.678   3.572  0.4374  0.7236  0.7511
  371MOL0     H51184   6.645   5.189   3.749  0.7397  0.0489 -2.5163
  371MOL0     H51185   6.421   5.323   3.808  0.1127 -0.6153  0.2873
  371MOL0     H51186   6.147   5.300   3.591 -0.0491  1.9909  0.3651
  371MOL0     H51187   6.014   5.221   3.687  1.8634 -2.8495 -0.4501
  371MOL0     H51188   6.038   5.446   3.836  1.7742  3.6623 -0.4730
  371MOL0     H51189   5.955   5.454   3.675 -0.1825 -2.4107  0.3576
  371MOL0     H51190   6.244   5.539   3.759  1.9237  1.6234 -0.6858
  371MOL0     H51191   6.204   5.511   3.597 -1.0826 -3.9440  1.3597
  371MOL0     H51192   6.185   5.754   3.699 -0.3563 -0.3116 -0.2895
  371MOL0     H51193   6.031   5.706   3.777 -2.2453 -0.4727 -1.2984
  371MOL0     H51194   5.914   5.787   3.376 -1.0966 -1.4624 -0.3758
  371MOL0     H51195   6.173   5.030   3.663  0.2648 -2.2325 -0.8640
  371MOL0     H51196   6.290   4.792   3.647  0.3242 -0.1882  0.6154
  371MOL0     H51197   6.346   4.827   3.477 -0.1237  1.5420  0.7169
  371MOL0     H51198   6.453   4.769   3.599 -1.0475  0.1606  0.8594
  372MOL0     O51199   9.111   1.948   2.469 -0.1457  1.1722  0.5656
  372MOL0     C51200   9.048   1.878   2.389 -0.9000  0.3646 -0.7528
  372MOL0     O51201   9.009   1.745   2.412  0.3440  0.4408 -0.2454
  372MOL0     C51202   8.998   1.682   2.535  0.0577 -1.0104  1.5072
  372MOL0     C51203   9.014   1.546   2.531 -0.8262 -0.5734  0.4107
  372MOL0     C51204   9.004   1.474   2.645  0.2055 -0.2147 -0.2268
  372MOL0     C51205   8.958   1.537   2.769 -0.2343 -0.0294 -0.0085
  372MOL0     O51206   8.949   1.449   2.875 -0.2027  0.4096 -0.2407
  372MOL0     C51207   8.848   1.481   2.979  0.3380  0.4438 -0.5175
  372MOL0     C51208   8.871   1.378   3.090 -1.2184  0.6298 -0.1218
  372MOL0     C51209   9.016   1.375   3.140 -0.1722 -0.1636  0.1971
  372MOL0     C51210   9.025   1.408   3.295 -1.4538  0.0390 -0.1401
  372MOL0     C51211   9.174   1.441   3.338 -0.2014 -0.4216  0.5199
  372MOL0     C51212   9.210   1.593   3.353 -0.4249 -0.8507  0.4056
  372MOL0     C51213   9.351   1.629   3.378  1.3051  0.2194 -0.2873
  372MOL0     C51214   9.396   1.612   3.527 -0.2476 -0.0760 -0.3650
  372MOL0     N51215   9.413   1.474   3.574  0.3800  0.5967  0.1483
  372MOL0     C51216   9.393   1.421   3.696 -0.0660 -0.4939 -0.3451
  372MOL0     C51217   9.441   1.289   3.691  0.0436 -0.1703  0.3130
  372MOL0     C51218   9.468   1.203   3.816 -0.8074  0.3118 -0.8960
  372MOL0     C51219   9.600   1.136   3.812  0.1412 -0.3276 -0.7889
  372MOL0     C51220   9.699   1.244   3.830  0.1821  0.8817 -0.2250
  372MOL0     C51221   9.839   1.187   3.870 -0.0788 -0.8395 -0.2372
  372MOL0     O51222   9.880   1.064   3.819  0.1424  0.5717  0.3038
  372MOL0     C51223  10.004   1.022   3.840  0.1492  0.1251 -0.2269
  372MOL0     C51224  10.095   1.077   3.929  0.0639 -0.6855  0.1312
  372MOL0     C51225  10.234   1.037   3.936  0.6930  0.9028 -0.5622
  372MOL0     C51226  10.312   1.110   4.028  0.4821 -0.1990 -0.4774
  372MOL0     C51227  10.269   0.920   3.862  0.1952 -0.2911  0.5548
  372MOL0     C51228  10.396   0.848   3.865 -0.6699 -0.0399 -0.5151
  372MOL0     O51229  10.406   0.744   3.774  0.1562  0.1752 -0.9642
  372MOL0     C51230  10.512   0.660   3.767 -0.1864 -0.4369 -0.3717
  372MOL0     C51231  10.488   0.542   3.711 -0.1009  1.2890 -0.1849
  372MOL0     C51232  10.580   0.436   3.710 -0.4880  0.0407  0.6546
  372MOL0     C51233  10.706   0.456   3.777 -0.0899 -0.0705 -0.6090
  372MOL0     O51234  10.798   0.357   3.787  0.5499  0.1301  0.1763
  372MOL0     C51235  10.752   0.220   3.773  0.7527 -0.4674 -0.8441
  372MOL0     C51236  10.865   0.118   3.813  1.0385 -0.0885 -0.9164
  372MOL0     C51237  10.825  -0.031   3.821 -0.6946  1.0038 -0.3804
  372MOL0     C51238  10.738  -0.071   3.697 -0.0975  0.1041 -0.9189
  372MOL0     C51239  10.693  -0.220   3.706 -0.3345  0.5946 -0.2546
  372MOL0     C51240  10.616  -0.249   3.573 -0.2576 -0.0078  0.2009
  372MOL0     C51241  10.590  -0.392   3.549 -0.2889  0.0509  0.2954
  372MOL0     C51242  10.519  -0.468   3.661  0.1975 -0.5746  0.3167
  372MOL0    Cl51243  10.375  -0.376   3.720 -0.2282  0.5825 -0.5186
  372MOL0     C51244  10.734   0.584   3.810  0.3315 -0.0555 -0.1707
  372MOL0     C51245  10.641   0.693   3.817 -0.4893  0.3950  0.6496
  372MOL0     O51246  10.476   0.874   3.956 -0.2274 -0.1879  0.1304
  372MOL0     C51247  10.178   0.878   3.765  0.0523  0.6734 -0.0490
  372MOL0     C51248  10.051   0.927   3.754  0.4715  0.1453  0.2381
  372MOL0     N51249   9.477   1.273   3.561  0.5999 -0.9526  0.1955
  372MOL0     N51250   9.473   1.386   3.493  0.0902  0.4310 -0.8652
  372MOL0     C51251   8.942   1.676   2.766  0.3181  0.0669 -0.2467
  372MOL0     C51252   8.977   1.748   2.652 -0.4536  0.1573  1.8249
  372MOL0     C51253   9.060   1.938   2.252  0.6377  0.5732 -0.3023
  372MOL0     C51254   9.063   1.844   2.150  0.0707 -0.2196  0.4425
  372MOL0     C51255   9.099   1.881   2.023 -0.9491  0.2968  0.5657
  372MOL0     C51256   9.137   2.011   1.990 -0.0433 -1.3291 -0.8039
  372MOL0     O51257   9.174   2.052   1.862  0.4728  0.4791  0.4154
  372MOL0     C51258   9.298   1.989   1.825 -1.3753 -0.0192 -0.0439
  372MOL0     C51259   9.417   2.042   1.903  0.0423 -0.3499 -0.3197
  372MOL0     C51260   9.458   1.954   2.023 -0.1882 -0.2838 -0.3497
  372MOL0     C51261   9.601   2.000   2.064  0.7761 -0.7037  0.0624
  372MOL0     C51262   9.710   1.952   1.976 -1.0393 -0.1112 -0.7341
  372MOL0     C51263   9.814   1.931   1.920 -0.4006 -0.1071  0.4028
  372MOL0     C51264   9.135   2.094   2.093  0.1266  0.3427 -0.1688
  372MOL0     C51265   9.095   2.068   2.225  0.1115 -0.2812 -0.7233
  372MOL0     C51266   9.088   2.182   2.318  0.6532  0.1113 -0.3192
  372MOL0     H51267   9.058   1.517   2.436  0.6932  1.0709  0.5517
  372MOL0     H51268   9.031   1.369   2.643  1.1711 -0.0098  0.7304
  372MOL0     H51269   8.744   1.470   2.945  0.2686 -0.8417  0.0492
  372MOL0     H51270   8.855   1.580   3.024 -0.5116  2.6689 -4.7721
  372MOL0     H51271   8.800   1.397   3.171  1.3233  3.1449  1.6711
  372MOL0     H51272   8.848   1.281   3.044 -1.8445  0.4812  0.4835
  372MOL0     H51273   9.061   1.275   3.136 -3.6912 -2.2691  4.6666
  372MOL0     H51274   9.076   1.446   3.082 -0.1463 -1.0524 -0.9124
  372MOL0     H51275   8.961   1.493   3.322 -2.5507 -0.5921 -0.7183
  372MOL0     H51276   8.994   1.314   3.341  2.5577 -0.8368  1.2293
  372MOL0     H51277   9.236   1.393   3.261 -0.1991  0.8640 -0.3174
  372MOL0     H51278   9.191   1.391   3.434 -0.7321 -2.0703 -0.2119
  372MOL0     H51279   9.163   1.633   3.262 -0.1805  0.7052  0.9264
  372MOL0     H51280   9.152   1.637   3.435  2.5602  0.5554  1.9154
  372MOL0     H51281   9.363   1.733   3.346 -2.2409  0.3828 -1.5299
  372MOL0     H51282   9.412   1.562   3.317 -1.4403 -1.1689 -1.6989
  372MOL0     H51283   9.484   1.673   3.546 -0.5924 -0.1423  1.6270
  372MOL0     H51284   9.314   1.648   3.590 -1.4212 -1.0546 -1.2699
  372MOL0     H51285   9.370   1.477   3.786  2.3562  1.1644 -0.6622
  372MOL0     H51286   9.394   1.123   3.827  1.7801 -2.0701  0.6583
  372MOL0     H51287   9.466   1.260   3.909  2.4429 -1.4120  0.4100
  372MOL0     H51288   9.604   1.063   3.893 -2.2846 -0.0287 -0.3313
  372MOL0     H51289   9.604   1.081   3.718 -1.9016 -3.7912  0.9788
  372MOL0     H51290   9.709   1.286   3.729 -3.2257  2.2552 -0.1422
  372MOL0     H51291   9.678   1.323   3.903 -1.4246  0.8945 -0.6444
  372MOL0     H51292   9.910   1.268   3.850  0.7231 -1.1099  1.3475
  372MOL0     H51293   9.845   1.179   3.979  1.5176 -0.1696 -0.2516
  372MOL0     H51294  10.069   1.158   3.996 -0.7345 -1.5042  0.8454
  372MOL0     H51295  10.309   1.063   4.127 -0.3851  0.6954 -0.0624
  372MOL0     H51296  10.272   1.212   4.038  1.3587  0.4931 -3.1296
  372MOL0     H51297  10.413   1.108   3.987  1.5146  0.2802  1.8424
  372MOL0     H51298  10.386   0.524   3.678 -0.5316 -3.2620  2.7053
  372MOL0     H51299  10.551   0.340   3.670 -0.6981 -0.0912  1.1196
  372MOL0     H51300  10.662   0.204   3.832 -0.0436 -0.3014 -1.9818
  372MOL0     H51301  10.707   0.211   3.674 -3.4320  0.5242  0.7512
  372MOL0     H51302  10.947   0.119   3.740 -0.1540  3.5574 -2.3976
  372MOL0     H51303  10.899   0.154   3.910 -0.8515  3.8499 -1.5304
  372MOL0     H51304  10.771  -0.041   3.915 -1.1064  5.6264  0.1360
  372MOL0     H51305  10.909  -0.100   3.827 -1.2656  0.4545  3.2117
  372MOL0     H51306  10.796  -0.054   3.606  1.6749 -0.3790  0.0778
  372MOL0     H51307  10.647  -0.010   3.696 -0.2279 -0.1017 -1.9411
  372MOL0     H51308  10.784  -0.278   3.727 -0.2011  0.4060 -1.2820
  372MOL0     H51309  10.620  -0.231   3.786 -0.7154  1.5296 -0.4541
  372MOL0     H51310  10.667  -0.208   3.485  1.5312  1.1292  1.6996
  372MOL0     H51311  10.517  -0.203   3.566  0.2209  1.2447  1.1194
  372MOL0     H51312  10.682  -0.446   3.528 -1.1159 -0.5527 -2.1360
  372MOL0     H51313  10.525  -0.397   3.461 -1.5234 -2.5948  1.2584
  372MOL0     H51314  10.595  -0.476   3.739  1.4305 -1.9180 -0.9556
  372MOL0     H51315  10.490  -0.572   3.643 -0.6956 -0.6362  1.9603
  372MOL0     H51316  10.827   0.608   3.862 -0.5514 -0.9167  1.8976
  372MOL0     H51317  10.674   0.790   3.853  1.5626 -1.0511  3.0038
  372MOL0     H51318  10.211   0.809   3.687  0.9238 -1.5371  2.1340
  372MOL0     H51319   9.983   0.894   3.676 -0.0135 -0.5530  0.9398
  372MOL0     H51320   8.929   1.740   2.853 -0.8767  0.9745 -1.0557
  372MOL0     H51321   8.996   1.855   2.657 -1.3431  0.5566 -1.2184
  372MOL0     H51322   9.034   1.743   2.175  0.5387  0.0354  2.0988
  372MOL0     H51323   9.092   1.806   1.945 -0.0523  1.6355 -0.8671
  372MOL0     H51324   9.285   1.881   1.826 -1.7572 -0.0582 -2.5164
  372MOL0     H51325   9.321   2.012   1.720  1.2312 -1.2822  0.1786
  372MOL0     H51326   9.388   2.140   1.941  1.4462  0.0588 -0.2168
  372MOL0     H51327   9.499   2.055   1.831 -1.2455  0.1525 -1.7381
  372MOL0     H51328   9.398   1.982   2.110  1.9377  1.3531  0.6971
  372MOL0     H51329   9.445   1.851   1.988  1.1377 -0.6163  0.0490
  372MOL0     H51330   9.611   1.972   2.170 -1.9824 -1.4396  0.2049
  372MOL0     H51331   9.607   2.107   2.086  3.0460 -1.2779  2.8157
  372MOL0     H51332   9.905   1.906   1.868 -0.3218 -0.4467  0.6956
  372MOL0     H51333   9.168   2.196   2.074 -2.9350  0.8874 -3.6484
  372MOL0     H51334   9.110   2.272   2.258  0.1623 -1.2057 -2.6012
  372MOL0     H51335   8.993   2.190   2.370  0.2960 -0.5835 -0.8508
  372MOL0     H51336   9.155   2.184   2.404 -0.0180 -0.7067  0.2356
  373MOL0     O51337   9.737   1.079  10.973  0.2913  0.0863  0.1976
  373MOL0     C51338   9.659   1.101  11.065  0.1988 -1.1523 -0.2178
  373MOL0     O51339   9.675   1.199  11.160  0.4178 -0.0151 -0.2868
  373MOL0     C51340   9.789   1.269  11.143 -0.6543 -1.0574  0.0841
  373MOL0     C51341   9.901   1.247  11.226 -0.1867 -0.5726 -0.6405
  373MOL0     C51342  10.022   1.304  11.206  0.2749 -0.2680 -0.3958
  373MOL0     C51343  10.037   1.401  11.107  0.3082 -0.4051 -0.2626
  373MOL0     O51344  10.166   1.444  11.092 -0.1209  0.2542 -0.0612
  373MOL0     C51345  10.184   1.586  11.074  0.9647  0.5423  0.5188
  373MOL0     C51346  10.316   1.614  11.015  0.3054  0.1901 -0.6911
  373MOL0     C51347  10.325   1.599  10.870  0.3475 -0.1934  0.1581
  373MOL0     C51348  10.310   1.457  10.819 -0.1749 -0.2560  0.6039
  373MOL0     C51349  10.316   1.452  10.659  0.0464  0.4136  0.2652
  373MOL0     C51350  10.298   1.316  10.595  0.1544 -1.6686 -0.3036
  373MOL0     C51351  10.401   1.216  10.638 -0.3508 -0.0333 -0.1088
  373MOL0     C51352  10.541   1.237  10.576  0.4488  0.4687 -0.7535
  373MOL0     N51353  10.541   1.250  10.423  0.6622 -0.2523  0.7570
  373MOL0     C51354  10.512   1.152  10.329 -0.2637 -0.2238  0.0918
  373MOL0     C51355  10.527   1.217  10.209  0.6670 -0.5266  0.6101
  373MOL0     C51356  10.508   1.156  10.074 -0.5262 -0.2562 -0.5647
  373MOL0     C51357  10.428   1.025  10.061  0.7677 -0.5596  0.5389
  373MOL0     C51358  10.382   0.997   9.912 -0.5084 -0.4178 -0.5964
  373MOL0     C51359  10.497   0.940   9.825 -0.1329  0.2527 -0.4110
  373MOL0     O51360  10.537   0.816   9.878 -0.2557  0.5937  0.3259
  373MOL0     C51361  10.623   0.733   9.806 -1.5334 -0.2059  1.2248
  373MOL0     C51362  10.721   0.770   9.704 -1.0500 -0.0680 -0.2359
  373MOL0     C51363  10.796   0.676   9.631  0.3030  0.1686  0.3563
  373MOL0     C51364  10.912   0.728   9.540  0.3070  1.1003 -0.1877
  373MOL0     C51365  10.763   0.540   9.637 -0.4733 -0.5359  0.3536
  373MOL0     C51366  10.829   0.437   9.556  0.3330  0.3029  0.2791
  373MOL0     O51367  10.860   0.321   9.614 -0.5853 -0.5521 -0.4232
  373MOL0     C51368  10.940   0.227   9.559  0.2468  0.7847  1.5437
  373MOL0     C51369  11.059   0.264   9.492 -0.8821 -0.0491 -0.1845
  373MOL0     C51370  11.141   0.154   9.447  0.0450  0.3590  0.7815
  373MOL0     C51371  11.111   0.015   9.467  0.0810  0.7330  0.2503
  373MOL0     O51372  11.193  -0.088   9.416 -0.3683 -0.4545  0.1564
  373MOL0     C51373  11.126  -0.169   9.316 -0.3479 -0.3256  0.0341
  373MOL0     C51374  11.212  -0.284   9.265  0.1512  0.6085  0.2896
  373MOL0     C51375  11.131  -0.377   9.169  1.3495 -0.3319 -0.5486
  373MOL0     C51376  11.220  -0.478   9.106  0.4188 -0.1023  0.2273
  373MOL0     C51377  11.132  -0.585   9.037  0.1354  1.0945 -0.3091
  373MOL0     C51378  11.085  -0.536   8.904 -0.4852 -0.3779 -0.1901
  373MOL0     C51379  10.982  -0.639   8.844  0.2101  0.0184  0.4431
  373MOL0     C51380  10.977  -0.604   8.698 -0.5096 -0.3405  0.9422
  373MOL0    Cl51381  10.830  -0.665   8.614  0.1357 -0.0386 -0.0316
  373MOL0     C51382  11.001  -0.012   9.540 -1.6729  0.0204 -0.1988
  373MOL0     C51383  10.915   0.087   9.581 -0.5075  0.3218  0.2453
  373MOL0     O51384  10.846   0.452   9.437 -0.0297 -0.4367 -0.0854
  373MOL0     C51385  10.673   0.505   9.739 -0.0447  0.8827  0.7613
  373MOL0     C51386  10.602   0.603   9.815 -0.3513  0.2647 -0.8198
  373MOL0     N51387  10.567   1.352  10.234 -0.4254 -0.2200  0.0006
  373MOL0     N51388  10.571   1.367  10.359 -0.8586  0.0620 -0.3531
  373MOL0     C51389   9.932   1.436  11.020  0.1581  0.2945 -0.3508
  373MOL0     C51390   9.806   1.371  11.044 -0.0141 -0.5722  0.2213
  373MOL0     C51391   9.522   1.042  11.074 -0.4388  0.3569  0.2778
  373MOL0     C51392   9.411   1.102  11.132  0.0353 -0.2608  0.4693
  373MOL0     C51393   9.277   1.054  11.112  0.2548 -0.4526 -0.2561
  373MOL0     C51394   9.254   0.940  11.043 -0.1439  0.0019  0.5219
  373MOL0     O51395   9.129   0.886  11.045 -0.0710  0.1461  0.0419
  373MOL0     C51396   9.070   0.878  10.918 -1.0304  0.0601  0.2186
  373MOL0     C51397   8.926   0.839  10.943  0.2130  0.2207 -0.9302
  373MOL0     C51398   8.907   0.705  11.011  0.3465 -0.3877  0.0776
  373MOL0     C51399   8.760   0.682  11.028 -0.9177  0.4285 -0.7296
  373MOL0     C51400   8.734   0.559  11.116  0.6814 -0.7137  0.5846
  373MOL0     C51401   8.701   0.468  11.184 -0.0359 -0.1636 -0.2421
  373MOL0     C51402   9.358   0.870  10.988  0.6852 -0.7667  0.2009
  373MOL0     C51403   9.494   0.919  11.004  0.2824 -0.3722 -0.2083
  373MOL0     C51404   9.597   0.835  10.935  0.8373 -0.0217 -0.4687
  373MOL0     H51405   9.875   1.187  11.313 -2.5257 -1.2668 -1.7466
  373MOL0     H51406  10.113   1.269  11.253 -1.0550 -3.4688  0.0614
  373MOL0     H51407  10.182   1.638  11.170  2.7457 -0.3282  1.0776
  373MOL0     H51408  10.114   1.639  11.009  2.0825  0.9879 -0.3553
  373MOL0     H51409  10.330   1.721  11.034  0.3815 -0.2144  1.9230
  373MOL0     H51410  10.396   1.554  11.060  0.2333  1.3239  1.0438
  373MOL0     H51411  10.243   1.650  10.818 -3.2396 -3.5320  1.9423
  373MOL0     H51412  10.422   1.634  10.834  0.6980 -0.0423  1.2150
  373MOL0     H51413  10.386   1.396  10.869  0.1131  0.6317  1.2617
  373MOL0     H51414  10.216   1.406  10.844 -1.9734  1.5839 -1.8794
  373MOL0     H51415  10.406   1.495  10.614  1.0261 -0.6131  1.1692
  373MOL0     H51416  10.225   1.505  10.628  0.0827 -0.5624 -1.6683
  373MOL0     H51417  10.200   1.281  10.627  0.7026 -1.7170  1.4003
  373MOL0     H51418  10.307   1.329  10.486  2.5519  2.6757  0.2164
  373MOL0     H51419  10.362   1.115  10.625  0.5565 -0.4505  0.3684
  373MOL0     H51420  10.414   1.212  10.747  1.6284  2.8522 -0.1218
  373MOL0     H51421  10.581   1.334  10.604 -1.3856  0.6727  1.4337
  373MOL0     H51422  10.611   1.160  10.608 -0.5265  0.5076  1.6782
  373MOL0     H51423  10.475   1.051  10.339  3.4947 -1.6534  1.8655
  373MOL0     H51424  10.611   1.130  10.047 -0.0240 -0.5418  1.5012
  373MOL0     H51425  10.470   1.234  10.006 -2.0639  0.5605  1.1662
  373MOL0     H51426  10.488   0.939  10.092 -1.5910 -1.8209  1.8638
  373MOL0     H51427  10.336   1.041  10.118  1.7592  0.8113  1.8481
  373MOL0     H51428  10.292   0.936   9.905 -2.6024  2.3609  0.6290
  373MOL0     H51429  10.347   1.088   9.863 -2.8966 -1.4557 -0.9348
  373MOL0     H51430  10.466   0.940   9.721 -1.1310  0.9238 -0.1312
  373MOL0     H51431  10.573   1.019   9.822 -0.8139  0.9782  0.5074
  373MOL0     H51432  10.744   0.872   9.675  4.0603 -1.1445 -0.8359
  373MOL0     H51433  10.968   0.640   9.506 -1.1293  0.9801 -2.5475
  373MOL0     H51434  10.946   0.814   9.598 -2.3206  0.1235  3.1042
  373MOL0     H51435  10.870   0.765   9.445 -1.6453 -0.0250  0.1908
  373MOL0     H51436  11.099   0.364   9.497  0.3653 -0.5831  3.4657
  373MOL0     H51437  11.232   0.178   9.393  0.3363 -0.3162  0.9657
  373MOL0     H51438  11.023  -0.204   9.332 -0.2290 -0.9170 -0.4405
  373MOL0     H51439  11.115  -0.106   9.227 -0.4285 -0.6993 -0.2214
  373MOL0     H51440  11.298  -0.230   9.223  0.4227 -1.0461 -1.4572
  373MOL0     H51441  11.239  -0.345   9.352 -2.1447 -1.6342 -0.4448
  373MOL0     H51442  11.079  -0.312   9.097 -0.1495  1.1836  1.7823
  373MOL0     H51443  11.049  -0.427   9.221  0.9062  2.1863  1.3726
  373MOL0     H51444  11.272  -0.540   9.179 -0.9733 -3.4982 -1.4447
  373MOL0     H51445  11.286  -0.431   9.032  1.1833 -1.6188 -0.0921
  373MOL0     H51446  11.184  -0.681   9.034  0.6602  1.3386  0.5121
  373MOL0     H51447  11.042  -0.601   9.096 -0.7065  3.3868 -0.8720
  373MOL0     H51448  11.180  -0.528   8.851  0.7103  1.2983  1.9969
  373MOL0     H51449  11.039  -0.437   8.914  1.1683  0.2826  1.3978
  373MOL0     H51450  10.883  -0.633   8.891  0.6188  3.8896  1.1304
  373MOL0     H51451  11.011  -0.744   8.853 -2.4996 -0.9141 -0.6465
  373MOL0     H51452  11.062  -0.641   8.639 -0.2091  0.5907  0.7589
  373MOL0     H51453  10.978  -0.495   8.686 -2.2580 -0.5794 -3.1314
  373MOL0     H51454  10.970  -0.113   9.566  1.9973 -0.4983  3.1285
  373MOL0     H51455  10.825   0.049   9.628  0.8125 -0.4154  2.3582
  373MOL0     H51456  10.661   0.397   9.747  0.6432  0.8037  0.8020
  373MOL0     H51457  10.525   0.583   9.889 -1.1569  2.0427 -1.1228
  373MOL0     H51458   9.949   1.510  10.942  1.4158 -1.9619 -2.3669
  373MOL0     H51459   9.737   1.396  10.963  0.0251  1.7879  0.8652
  373MOL0     H51460   9.428   1.191  11.192  0.3420 -1.2364  1.8508
  373MOL0     H51461   9.199   1.114  11.159  0.1791 -2.0380  1.7917
  373MOL0     H51462   9.084   0.973  10.866  1.7805 -0.2779  0.1789
  373MOL0     H51463   9.114   0.801  10.854 -0.0981  0.7027  0.0635
  373MOL0     H51464   8.876   0.828  10.847  1.5439 -0.5528 -1.5626
  373MOL0     H51465   8.873   0.927  10.982 -1.9791  0.4962 -4.1683
  373MOL0     H51466   8.951   0.622  10.954  1.7002 -1.7421  2.9144
  373MOL0     H51467   8.948   0.719  11.111  0.8901  1.1177 -0.3389
  373MOL0     H51468   8.730   0.646  10.930  3.3073  0.7084 -2.3419
  373MOL0     H51469   8.713   0.771  11.071  1.9598  1.7192  0.0623
  373MOL0     H51470   8.667   0.387  11.246  1.2173  0.5615  1.4743
  373MOL0     H51471   9.333   0.778  10.937  0.8435 -0.3850 -0.5864
  373MOL0     H51472   9.659   0.776  11.003 -1.5166 -2.9019 -0.6231
  373MOL0     H51473   9.545   0.763  10.872 -0.4699  0.8601 -0.4387
  373MOL0     H51474   9.657   0.897  10.867  0.4591 -0.4239 -1.1859
  374MOL0     O51475   9.083   2.734  10.076 -0.0236  0.7353  0.6480
  374MOL0     C51476   9.117   2.617  10.055  0.7029  0.5322  0.0887
  374MOL0     O51477   9.110   2.507  10.139 -0.3897 -0.4673 -0.2437
  374MOL0     C51478   9.058   2.534  10.260 -0.1307 -0.4636  0.3743
  374MOL0     C51479   9.116   2.633  10.347  0.1338 -0.1318  0.5844
  374MOL0     C51480   9.069   2.645  10.483  0.3120 -0.6127 -1.2481
  374MOL0     C51481   8.967   2.563  10.532  0.0531  0.3177  0.1471
  374MOL0     O51482   8.914   2.560  10.658  0.2613 -0.0580  0.0344
  374MOL0     C51483   8.958   2.650  10.764  0.2826  0.6047  0.0723
  374MOL0     C51484   8.894   2.781  10.744 -0.1472  0.0633 -0.0971
  374MOL0     C51485   8.951   2.887  10.837  0.7087  0.2094 -1.8569
  374MOL0     C51486   8.851   3.007  10.850 -0.2986  0.8672  0.4464
  374MOL0     C51487   8.924   3.130  10.918 -0.0645  0.8449  1.3997
  374MOL0     C51488   8.894   3.159  11.061 -0.0451 -0.1490 -0.2947
  374MOL0     C51489   9.000   3.263  11.111 -0.3659  0.7472 -0.2969
  374MOL0     C51490   9.142   3.220  11.136 -0.5859 -0.0059 -0.0506
  374MOL0     N51491   9.198   3.316  11.238 -0.3234 -0.1238  0.8480
  374MOL0     C51492   9.219   3.451  11.219  0.1574  0.2165  0.2098
  374MOL0     C51493   9.261   3.496  11.339  0.5274 -0.0724 -0.4233
  374MOL0     C51494   9.312   3.647  11.356 -0.7579 -0.1216 -0.2137
  374MOL0     C51495   9.187   3.748  11.373 -0.8291  0.1464  0.3186
  374MOL0     C51496   9.232   3.897  11.364  0.3695 -0.7126  0.1405
  374MOL0     C51497   9.309   3.928  11.493  0.9280  0.7905  0.5976
  374MOL0     O51498   9.272   4.049  11.552 -0.3541  0.0395  0.3627
  374MOL0     C51499   9.156   4.063  11.631 -0.8040 -0.4752  0.0711
  374MOL0     C51500   9.054   3.975  11.642  1.4353 -0.0934 -0.0546
  374MOL0     C51501   8.936   4.004  11.716  0.6124  0.4710 -1.1791
  374MOL0     C51502   8.845   3.874  11.738  0.1105  0.7548 -0.4164
  374MOL0     C51503   8.917   4.132  11.774  0.1255 -0.3754  0.0063
  374MOL0     C51504   8.803   4.171  11.858  0.0883  0.0552 -0.4289
  374MOL0     O51505   8.790   4.309  11.883  0.8212  0.2149 -0.6244
  374MOL0     C51506   8.689   4.362  11.953  0.1195  0.4186 -0.4284
  374MOL0     C51507   8.724   4.460  12.043  0.7347  0.5303  0.9860
  374MOL0     C51508   8.630   4.517  12.128  0.5488 -0.5467 -0.0559
  374MOL0     C51509   8.495   4.469  12.121 -0.2136 -0.3765  0.4636
  374MOL0     O51510   8.401   4.519  12.209  0.3248  0.1955 -0.6139
  374MOL0     C51511   8.413   4.452  12.331  0.8605  1.0646 -0.4322
  374MOL0     C51512   8.284   4.465  12.421 -0.0652  0.1376  0.2295
  374MOL0     C51513   8.260   4.346  12.505  0.4562  1.8271 -0.7111
  374MOL0     C51514   8.202   4.372  12.649 -1.0481 -0.4021 -0.3412
  374MOL0     C51515   8.072   4.447  12.638  0.2670 -0.0899  0.7891
  374MOL0     C51516   7.956   4.402  12.738  0.0446 -0.0471  0.8324
  374MOL0     C51517   7.997   4.400  12.886  0.2498 -0.5588 -0.3102
  374MOL0     C51518   7.885   4.430  12.984 -0.3930 -1.4182  0.6244
  374MOL0    Cl51519   7.746   4.311  12.954 -0.5919  0.0009 -0.3935
  374MOL0     C51520   8.456   4.377  12.029  0.2053 -0.5777 -0.0956
  374MOL0     C51521   8.558   4.313  11.961  0.3127  0.5275  0.0885
  374MOL0     O51522   8.737   4.088  11.916 -0.0080  0.1818  0.3573
  374MOL0     C51523   9.031   4.223  11.755  0.2801  0.3090  0.1470
  374MOL0     C51524   9.152   4.184  11.691 -0.7978 -0.9496 -0.4191
  374MOL0     N51525   9.274   3.388  11.424  0.1595 -0.2940 -0.2438
  374MOL0     N51526   9.231   3.276  11.364  0.1052  0.3393  0.1695
  374MOL0     C51527   8.914   2.475  10.430  0.3988 -0.0785 -0.1600
  374MOL0     C51528   8.952   2.455  10.300 -0.3619 -0.0783  0.4983
  374MOL0     C51529   9.207   2.598   9.931  0.0833 -0.0581 -0.9000
  374MOL0     C51530   9.283   2.706   9.886  0.9270 -0.0458 -0.1248
  374MOL0     C51531   9.378   2.682   9.789  0.0141 -0.7524 -0.0515
  374MOL0     C51532   9.392   2.564   9.721  0.2174 -0.3124 -0.4604
  374MOL0     O51533   9.462   2.562   9.604 -0.1876  0.2839  0.3234
  374MOL0     C51534   9.606   2.587   9.616  0.2277 -0.1034  0.7981
  374MOL0     C51535   9.658   2.635   9.477  0.0598 -0.7056 -1.1650
  374MOL0     C51536   9.757   2.541   9.401  0.5616 -0.3315 -0.2828
  374MOL0     C51537   9.910   2.549   9.433  0.3219 -0.3568  1.2236
  374MOL0     C51538  10.003   2.452   9.365  0.1900 -0.3157  0.0364
  374MOL0     C51539  10.085   2.389   9.298  1.6163 -0.6581  1.0257
  374MOL0     C51540   9.308   2.463   9.752  0.4442  0.9293 -0.7166
  374MOL0     C51541   9.221   2.477   9.866 -0.1591 -0.5611  0.3781
  374MOL0     C51542   9.148   2.353   9.906  0.4861  0.1206 -0.0613
  374MOL0     H51543   9.205   2.688  10.315  2.3828 -2.6385  2.0633
  374MOL0     H51544   9.115   2.712  10.556 -3.1730  1.2445 -0.5472
  374MOL0     H51545   9.066   2.667  10.766  0.6958 -1.4281 -1.6144
  374MOL0     H51546   8.937   2.593  10.855  0.6612 -2.7740 -1.8208
  374MOL0     H51547   8.908   2.816  10.642 -0.8511 -2.7322 -1.2383
  374MOL0     H51548   8.790   2.764  10.774 -0.0705 -1.3631 -0.5451
  374MOL0     H51549   8.966   2.833  10.931  0.3726 -2.1971 -3.0933
  374MOL0     H51550   9.049   2.904  10.792  2.1165 -1.2847  0.3882
  374MOL0     H51551   8.813   3.048  10.756  2.7128  0.1619 -1.2279
  374MOL0     H51552   8.760   2.971  10.899  0.5796 -0.5021  1.1235
  374MOL0     H51553   8.901   3.224  10.868 -0.6672  0.9303  1.8323
  374MOL0     H51554   9.028   3.099  10.901 -0.3934 -0.2392  1.2879
  374MOL0     H51555   8.794   3.202  11.066 -0.0926 -0.1183 -1.4106
  374MOL0     H51556   8.895   3.069  11.124  4.9207 -0.6780 -0.7205
  374MOL0     H51557   8.957   3.300  11.204 -1.1898  3.7078 -1.7376
  374MOL0     H51558   9.010   3.353  11.050  1.0152  2.7602  2.7025
  374MOL0     H51559   9.156   3.124  11.186  0.3925  0.4070  0.4856
  374MOL0     H51560   9.197   3.213  11.042 -0.7036  1.7643 -0.2802
  374MOL0     H51561   9.201   3.513  11.132  1.6920 -0.6692 -0.7788
  374MOL0     H51562   9.381   3.682  11.278  0.3764 -1.2900  0.2157
  374MOL0     H51563   9.378   3.641  11.443  1.0865 -2.6521 -1.6279
  374MOL0     H51564   9.125   3.727  11.285 -0.9419  0.2531  0.3729
  374MOL0     H51565   9.123   3.717  11.456  2.2188 -3.5579  1.5881
  374MOL0     H51566   9.299   3.921  11.281  0.7575  2.9997  1.3525
  374MOL0     H51567   9.148   3.967  11.367  0.5027 -0.5941  1.7924
  374MOL0     H51568   9.313   3.836  11.552 -1.6736 -2.8112 -4.1480
  374MOL0     H51569   9.415   3.937  11.465  0.5393 -1.4138 -1.9851
  374MOL0     H51570   9.068   3.873  11.609  1.6999 -2.5078  6.2140
  374MOL0     H51571   8.872   3.791  11.672 -4.8071  0.8090 -2.9409
  374MOL0     H51572   8.739   3.903  11.741  0.4286  1.8693  1.2480
  374MOL0     H51573   8.870   3.827  11.834  0.3579 -1.9973 -1.7357
  374MOL0     H51574   8.824   4.502  12.048  1.4434 -0.5522 -1.8824
  374MOL0     H51575   8.656   4.601  12.191 -1.0049 -0.2388  0.1951
  374MOL0     H51576   8.430   4.347  12.307  0.7643  0.7440  0.8400
  374MOL0     H51577   8.494   4.490  12.394  2.1895 -1.5615 -0.4387
  374MOL0     H51578   8.300   4.550  12.488 -0.1908 -0.4283  0.9808
  374MOL0     H51579   8.196   4.489  12.361  1.1781 -1.7226 -2.5650
  374MOL0     H51580   8.356   4.296  12.519 -0.4276  0.7009  1.9387
  374MOL0     H51581   8.183   4.284  12.457 -1.6151  4.0572 -0.4312
  374MOL0     H51582   8.271   4.438  12.701 -0.3110  0.2732 -2.0931
  374MOL0     H51583   8.193   4.279  12.705  2.8221  0.7768  2.6455
  374MOL0     H51584   8.078   4.554  12.659 -1.3550  0.3645 -0.7770
  374MOL0     H51585   8.038   4.437  12.534 -0.8798 -1.7802  1.2796
  374MOL0     H51586   7.912   4.303  12.723 -0.3695  0.0813  1.1748
  374MOL0     H51587   7.875   4.475  12.731  0.9781  0.9667  0.2051
  374MOL0     H51588   8.078   4.471  12.904 -1.7006  1.3692  1.5769
  374MOL0     H51589   8.038   4.303  12.915 -1.1776 -0.7346  1.2939
  374MOL0     H51590   7.857   4.534  12.962  2.2573 -0.9514 -0.8577
  374MOL0     H51591   7.922   4.423  13.087 -1.4861 -2.5012  0.9725
  374MOL0     H51592   8.352   4.363  12.004 -0.1405  1.9888 -0.2958
  374MOL0     H51593   8.538   4.228  11.897 -0.3896 -0.4127  1.4875
  374MOL0     H51594   9.012   4.327  11.780 -0.3641 -0.1978  1.8906
  374MOL0     H51595   9.226   4.262  11.685 -0.6286 -1.1189 -0.5341
  374MOL0     H51596   8.847   2.395  10.460  2.2339 -0.7528  2.5439
  374MOL0     H51597   8.903   2.373  10.247 -1.5352  1.7676 -1.4215
  374MOL0     H51598   9.268   2.805   9.930 -1.4865 -0.0553 -0.8014
  374MOL0     H51599   9.431   2.767   9.748 -0.0796 -1.7127 -2.2584
  374MOL0     H51600   9.618   2.652   9.703 -1.2349 -1.0119  1.7197
  374MOL0     H51601   9.639   2.485   9.640 -2.6487 -1.3180  0.0317
  374MOL0     H51602   9.708   2.732   9.491 -0.9503 -0.4529  1.2744
  374MOL0     H51603   9.570   2.664   9.419  0.1002 -0.0197 -0.9014
  374MOL0     H51604   9.737   2.437   9.430 -1.1094  0.0127 -0.0962
  374MOL0     H51605   9.749   2.543   9.292  0.8490 -2.6725 -0.3986
  374MOL0     H51606   9.935   2.534   9.539  3.6453 -1.3999  0.4279
  374MOL0     H51607   9.938   2.648   9.397  2.8567 -1.3505  0.1737
  374MOL0     H51608  10.151   2.337   9.231  1.4471  0.2416  0.1423
  374MOL0     H51609   9.320   2.365   9.706 -1.5385  0.5761 -0.5846
  374MOL0     H51610   9.206   2.303   9.985 -1.0833  0.9613  1.6990
  374MOL0     H51611   9.047   2.372   9.945 -0.2449 -3.9235  0.4517
  374MOL0     H51612   9.143   2.283   9.822  1.8666  1.9432 -1.7621
  375MOL0     O51613   7.283   4.558   0.363  0.0288 -0.5018  0.5069
  375MOL0     C51614   7.344   4.610   0.270 -0.6878 -0.4440 -0.6576
  375MOL0     O51615   7.449   4.559   0.193 -0.0332  0.7621  0.3446
  375MOL0     C51616   7.486   4.429   0.219 -0.2115 -0.6552  0.4642
  375MOL0     C51617   7.620   4.396   0.225  0.0988  0.7105  0.1429
  375MOL0     C51618   7.663   4.264   0.225 -0.3930  0.0994  0.1202
  375MOL0     C51619   7.565   4.163   0.198 -0.2281 -0.1433 -0.1308
  375MOL0     O51620   7.614   4.035   0.187 -0.3078  0.6067  0.2559
  375MOL0     C51621   7.519   3.928   0.177  0.9987  0.2417 -0.9929
  375MOL0     C51622   7.590   3.795   0.170  0.4771  0.2764 -0.2084
  375MOL0     C51623   7.710   3.796   0.075  0.2328  0.6236 -0.4626
  375MOL0     C51624   7.674   3.824  -0.074 -0.4761  0.4074 -0.1789
  375MOL0     C51625   7.803   3.851  -0.157  0.9683 -0.5345  0.4905
  375MOL0     C51626   7.881   3.975  -0.101  0.3110  0.6384 -0.3844
  375MOL0     C51627   7.972   4.022  -0.208 -0.3183 -0.0884 -0.1976
  375MOL0     C51628   8.026   4.161  -0.202 -0.4402  0.2081 -0.6246
  375MOL0     N51629   7.924   4.250  -0.257  0.0305  0.9808 -0.6254
  375MOL0     C51630   7.819   4.307  -0.188  0.4819  0.4485 -0.4174
  375MOL0     C51631   7.740   4.368  -0.276  0.4317 -0.2753 -0.3574
  375MOL0     C51632   7.604   4.432  -0.252 -0.0851 -0.7649  0.5226
  375MOL0     C51633   7.520   4.354  -0.158 -0.5588 -0.5419 -0.3520
  375MOL0     C51634   7.485   4.205  -0.200  1.6437 -0.2972  0.4950
  375MOL0     C51635   7.400   4.202  -0.325 -0.3295 -0.4429  0.1393
  375MOL0     O51636   7.291   4.295  -0.308 -0.0105 -0.2067 -0.8878
  375MOL0     C51637   7.192   4.256  -0.212 -0.0279 -0.1113  0.9241
  375MOL0     C51638   7.138   4.357  -0.130 -0.4905  0.0126  0.5175
  375MOL0     C51639   7.051   4.322  -0.023 -1.1823 -0.6592 -0.0516
  375MOL0     C51640   6.993   4.431   0.048  0.7481 -0.6967  0.2276
  375MOL0     C51641   7.007   4.196  -0.005  1.0317 -0.3307  0.1989
  375MOL0     C51642   6.908   4.145   0.090  0.0119  0.0366 -0.3686
  375MOL0     O51643   6.788   4.107   0.043  0.4807 -0.4821  0.3237
  375MOL0     C51644   6.695   4.027   0.103 -1.4028  0.0765  0.7378
  375MOL0     C51645   6.577   4.015   0.027 -0.5140 -0.3559 -0.0844
  375MOL0     C51646   6.470   3.934   0.061  0.0933 -0.6268 -0.1576
  375MOL0     C51647   6.476   3.855   0.178  1.2994 -0.8062 -0.1964
  375MOL0     O51648   6.365   3.796   0.225 -0.4912 -0.0271  0.2704
  375MOL0     C51649   6.379   3.717   0.350  0.8500  0.2102  0.0457
  375MOL0     C51650   6.236   3.696   0.407  0.8959 -0.8530  0.9036
  375MOL0     C51651   6.143   3.824   0.394 -0.9429 -0.4782  0.1058
  375MOL0     C51652   5.995   3.798   0.419 -0.5089 -0.2511  0.8959
  375MOL0     C51653   5.911   3.723   0.310  0.7638 -0.5187 -0.3170
  375MOL0     C51654   5.756   3.739   0.332 -0.2195 -0.4130 -0.4100
  375MOL0     C51655   5.685   3.849   0.251 -0.1357  0.9733  0.1711
  375MOL0     C51656   5.564   3.905   0.332 -0.9650 -1.2034  1.0230
  375MOL0    Cl51657   5.482   3.784   0.413  0.0641 -0.6628  0.4285
  375MOL0     C51658   6.592   3.867   0.256  0.1711 -0.9868  0.1622
  375MOL0     C51659   6.704   3.943   0.211 -0.2939 -0.0729 -0.1272
  375MOL0     O51660   6.945   4.140   0.206  0.6227 -0.0489  0.4799
  375MOL0     C51661   7.065   4.097  -0.081 -1.0775  0.1486 -0.1627
  375MOL0     C51662   7.157   4.132  -0.185  0.1751 -0.2100  0.0290
  375MOL0     N51663   7.798   4.358  -0.395 -0.2422 -0.2199  0.4837
  375MOL0     N51664   7.905   4.279  -0.387 -0.6686 -0.0532 -0.8967
  375MOL0     C51665   7.428   4.199   0.185 -0.4419 -0.0899 -0.4176
  375MOL0     C51666   7.387   4.327   0.202  0.6009  0.3196  0.3889
  375MOL0     C51667   7.304   4.748   0.229  0.9481  0.5721  0.5396
  375MOL0     C51668   7.377   4.824   0.146  0.4896 -0.6949  1.3249
  375MOL0     C51669   7.343   4.944   0.084  0.2811  0.2323  1.3733
  375MOL0     C51670   7.224   5.001   0.119 -0.9226 -0.4532  0.7316
  375MOL0     O51671   7.193   5.112   0.048 -0.0078 -0.9656  0.7317
  375MOL0     C51672   7.075   5.181   0.087 -0.4092  0.5710  0.6978
  375MOL0     C51673   7.061   5.291  -0.019  0.1160 -0.5535  0.2938
  375MOL0     C51674   7.176   5.401   0.004 -1.0130 -0.8566 -0.0036
  375MOL0     C51675   7.147   5.516  -0.081  0.3418 -1.0278  0.2791
  375MOL0     C51676   7.222   5.636  -0.024  0.6371  0.0197 -0.2304
  375MOL0     C51677   7.268   5.740   0.033 -0.1737  0.8985  0.5602
  375MOL0     C51678   7.146   4.933   0.216  0.5128 -0.2222  0.4819
  375MOL0     C51679   7.184   4.807   0.266 -0.0099  0.5829  0.3406
  375MOL0     C51680   7.084   4.750   0.365 -0.3262 -0.5430 -0.2126
  375MOL0     H51681   7.695   4.475   0.232 -1.0700  1.7151  2.3904
  375MOL0     H51682   7.766   4.238   0.204  0.3768  0.6688  2.8948
  375MOL0     H51683   7.447   3.937   0.095 -2.7491 -1.9660  1.6826
  375MOL0     H51684   7.453   3.922   0.265  0.9448 -1.0545 -1.0998
  375MOL0     H51685   7.627   3.772   0.271  2.2615  2.2640 -0.3408
  375MOL0     H51686   7.507   3.727   0.145 -1.7517  2.2848  1.2371
  375MOL0     H51687   7.766   3.880   0.117 -1.1473  1.6010 -0.4999
  375MOL0     H51688   7.777   3.711   0.088  0.7563  0.8975 -1.2713
  375MOL0     H51689   7.622   3.736  -0.114  2.2516 -1.6017  0.3733
  375MOL0     H51690   7.610   3.913  -0.076 -0.4647  0.4246  0.1537
  375MOL0     H51691   7.794   3.839  -0.265  2.7222 -4.5762  0.6239
  375MOL0     H51692   7.864   3.761  -0.147  1.5524 -0.4362 -1.7537
  375MOL0     H51693   7.809   4.055  -0.081 -0.6557  0.1702 -1.8795
  375MOL0     H51694   7.938   3.944  -0.013 -1.7476  0.2875  0.9008
  375MOL0     H51695   7.935   4.016  -0.311  1.0058 -0.1863 -0.6929
  375MOL0     H51696   8.065   3.965  -0.196  0.7670  1.6497 -0.0358
  375MOL0     H51697   8.041   4.183  -0.096  0.0569 -0.0796 -0.6313
  375MOL0     H51698   8.123   4.170  -0.251 -0.1987  0.1278 -0.1710
  375MOL0     H51699   7.790   4.288  -0.085 -0.7511  0.4268 -0.7505
  375MOL0     H51700   7.543   4.449  -0.342  1.4240  0.7934 -0.2832
  375MOL0     H51701   7.619   4.530  -0.206  0.0088  0.4829 -1.9715
  375MOL0     H51702   7.577   4.356  -0.064  0.3429  2.3800 -0.8628
  375MOL0     H51703   7.432   4.411  -0.126  1.0569 -0.1292  3.9711
  375MOL0     H51704   7.575   4.155  -0.236  1.8306  2.2388 -3.1080
  375MOL0     H51705   7.445   4.155  -0.111 -0.5746  2.4616  1.2076
  375MOL0     H51706   7.460   4.244  -0.406 -1.4557  1.3826  0.1980
  375MOL0     H51707   7.368   4.104  -0.360 -2.7243 -0.1121  1.2366
  375MOL0     H51708   7.156   4.461  -0.152 -3.3068  0.2816 -0.8959
  375MOL0     H51709   6.996   4.526  -0.006  0.6905 -0.1683  1.1267
  375MOL0     H51710   7.045   4.454   0.141  0.2425  1.5040  0.0225
  375MOL0     H51711   6.887   4.405   0.062  0.8160 -1.1821 -0.1599
  375MOL0     H51712   6.568   4.075  -0.063 -0.3177 -1.3388 -0.7647
  375MOL0     H51713   6.376   3.932   0.007  0.8206  1.1470 -1.6192
  375MOL0     H51714   6.414   3.615   0.330 -1.7787 -1.0671  1.3567
  375MOL0     H51715   6.427   3.773   0.431 -2.2903  2.0114  0.8305
  375MOL0     H51716   6.187   3.622   0.343 -2.3281  2.6103 -1.0421
  375MOL0     H51717   6.218   3.660   0.509 -3.0215  2.4228  1.6363
  375MOL0     H51718   6.134   3.856   0.289  1.1280  2.9142  0.8074
  375MOL0     H51719   6.179   3.904   0.459 -2.4603  0.4691 -0.1528
  375MOL0     H51720   5.960   3.902   0.424  3.9829  1.4378  3.2334
  375MOL0     H51721   5.987   3.740   0.512 -0.1604 -1.1902  0.3482
  375MOL0     H51722   5.931   3.769   0.213  2.1835  1.4723  0.8295
  375MOL0     H51723   5.942   3.618   0.313  3.9886  0.2548 -1.7351
  375MOL0     H51724   5.730   3.742   0.438  4.0101  3.3758  0.7905
  375MOL0     H51725   5.721   3.639   0.302  2.6529 -0.9911 -2.2053
  375MOL0     H51726   5.664   3.820   0.147 -1.3413  1.1923  0.3405
  375MOL0     H51727   5.764   3.924   0.246  2.8871 -1.9850 -0.5015
  375MOL0     H51728   5.505   3.956   0.255  0.7052 -0.2645  0.3184
  375MOL0     H51729   5.588   3.985   0.402  0.3333  1.0738 -1.8057
  375MOL0     H51730   6.602   3.828   0.357 -0.9279 -1.9703 -0.0938
  375MOL0     H51731   6.796   3.942   0.268 -0.9380 -0.8441  0.9249
  375MOL0     H51732   7.042   3.991  -0.082  2.1234 -0.6691 -1.9863
  375MOL0     H51733   7.180   4.054  -0.256 -0.6431  0.0411 -0.5238
  375MOL0     H51734   7.357   4.116   0.182  1.3725 -1.7038 -2.0681
  375MOL0     H51735   7.282   4.349   0.214  0.7201  0.5226  1.1240
  375MOL0     H51736   7.479   4.792   0.124  0.5640  1.0706 -1.3308
  375MOL0     H51737   7.407   5.007   0.023 -0.4418  0.6902  1.0746
  375MOL0     H51738   6.989   5.113   0.090 -1.1159  1.4432  2.6818
  375MOL0     H51739   7.077   5.213   0.192 -2.3167  1.1131  0.6109
  375MOL0     H51740   6.965   5.343  -0.016  3.2377  6.2795  2.0369
  375MOL0     H51741   7.061   5.253  -0.121 -1.9331  0.3315 -0.0851
  375MOL0     H51742   7.165   5.420   0.111 -1.0389 -0.3114 -0.0984
  375MOL0     H51743   7.278   5.371  -0.022 -0.4326  1.2512 -0.3132
  375MOL0     H51744   7.041   5.538  -0.070  0.4742  1.3910 -2.0681
  375MOL0     H51745   7.177   5.498  -0.185 -0.8736 -2.2622  0.1165
  375MOL0     H51746   7.317   5.827   0.071  1.5424  0.1613  0.1440
  375MOL0     H51747   7.054   4.981   0.249  0.6734  0.1199  0.4344
  375MOL0     H51748   7.052   4.646   0.356  0.7097 -1.0609  1.4997
  375MOL0     H51749   7.128   4.767   0.464  1.7514 -1.4251 -0.9386
  375MOL0     H51750   6.991   4.807   0.360 -2.3950 -3.5810  0.4430
  376MOL0     O51751   2.989   4.875   7.532 -0.1261  0.4788 -1.3049
  376MOL0     C51752   2.917   4.796   7.592 -0.9263  0.6874 -0.5619
  376MOL0     O51753   2.955   4.730   7.708  0.4862  0.8081 -0.8601
  376MOL0     C51754   3.071   4.766   7.772 -0.0045 -0.0794  0.0321
  376MOL0     C51755   3.195   4.780   7.699 -0.8647 -0.1585 -0.2599
  376MOL0     C51756   3.306   4.829   7.769  0.2897  0.1448  0.4440
  376MOL0     C51757   3.305   4.844   7.898  0.2983 -0.1127 -0.0141
  376MOL0     O51758   3.421   4.879   7.964 -0.5062 -0.3564 -0.4294
  376MOL0     C51759   3.494   4.769   8.005 -0.2416  0.1494 -0.2506
  376MOL0     C51760   3.615   4.815   8.093 -0.8700 -1.1360  0.0520
  376MOL0     C51761   3.731   4.887   8.008  0.6786  0.4643  0.2433
  376MOL0     C51762   3.841   4.777   7.967 -0.1031  0.9234 -0.3109
  376MOL0     C51763   3.932   4.827   7.855 -0.5401 -0.6790 -0.2604
  376MOL0     C51764   4.031   4.934   7.907  0.9497 -0.3200  0.0211
  376MOL0     C51765   4.144   4.887   8.013  0.4866  0.5503  1.4870
  376MOL0     C51766   4.115   4.910   8.158 -0.2079 -0.1656 -0.6600
  376MOL0     N51767   4.196   4.809   8.232  0.1169  0.0540  0.0398
  376MOL0     C51768   4.151   4.690   8.270  0.2806 -1.0682 -0.9737
  376MOL0     C51769   4.261   4.607   8.294  1.2730 -0.5105  0.0109
  376MOL0     C51770   4.251   4.460   8.339 -0.6705 -0.7744  0.8049
  376MOL0     C51771   4.138   4.431   8.437  0.9225  0.4690 -0.6503
  376MOL0     C51772   4.171   4.497   8.574 -0.5613 -0.2238  0.0825
  376MOL0     C51773   4.067   4.453   8.678  0.4226  0.0731  0.7601
  376MOL0     O51774   4.061   4.305   8.697 -0.4098 -0.1750 -1.0429
  376MOL0     C51775   3.984   4.250   8.802  0.8698 -1.1620 -0.1028
  376MOL0     C51776   3.964   4.114   8.793 -0.9019  0.2725  0.7323
  376MOL0     C51777   3.908   4.041   8.889 -0.0725 -0.5527  0.1078
  376MOL0     C51778   3.881   3.887   8.867  0.2455 -0.7736 -0.0905
  376MOL0     C51779   3.858   4.103   9.009 -1.0492  0.0735 -0.6802
  376MOL0     C51780   3.795   4.036   9.122 -0.0734 -0.2306  0.6654
  376MOL0     O51781   3.750   4.117   9.211  0.2220  0.1805 -0.2091
  376MOL0     C51782   3.683   4.069   9.314  0.1364 -0.6875  0.4030
  376MOL0     C51783   3.544   4.100   9.317 -1.0776  0.0636  0.4116
  376MOL0     C51784   3.467   4.061   9.421  0.3646 -2.1194 -0.2844
  376MOL0     C51785   3.528   3.985   9.522 -0.2478  0.1162  1.0878
  376MOL0     O51786   3.448   3.970   9.635 -0.6294  0.1033 -0.0380
  376MOL0     C51787   3.410   3.833   9.653 -0.0908 -0.3945 -0.3206
  376MOL0     C51788   3.299   3.768   9.565  0.1881 -0.0673 -0.2844
  376MOL0     C51789   3.163   3.830   9.609  0.4063 -0.7150  0.5851
  376MOL0     C51790   3.047   3.802   9.502  0.9445  0.8572 -0.5883
  376MOL0     C51791   2.915   3.824   9.569  0.1852 -0.8917  0.2813
  376MOL0     C51792   2.787   3.821   9.473 -0.7091 -0.6245  0.0523
  376MOL0     C51793   2.664   3.867   9.553 -0.9167 -0.8323  0.2186
  376MOL0     C51794   2.651   4.021   9.585 -0.6918  0.7756 -0.6470
  376MOL0    Cl51795   2.512   4.038   9.687  0.0785  0.0098  0.3021
  376MOL0     C51796   3.665   3.968   9.529  0.2484 -1.3281 -0.2284
  376MOL0     C51797   3.744   4.006   9.420  0.1228 -0.1902 -0.1887
  376MOL0     O51798   3.786   3.915   9.119  0.4566  0.2014  0.4077
  376MOL0     C51799   3.880   4.244   9.013  0.4805 -0.0334 -0.1745
  376MOL0     C51800   3.941   4.317   8.911  0.1283 -0.6271  0.7305
  376MOL0     N51801   4.368   4.684   8.262 -0.4811  0.0562 -0.3864
  376MOL0     N51802   4.330   4.806   8.237 -1.2075  0.3664  0.0499
  376MOL0     C51803   3.192   4.819   7.975  0.1642 -0.8897  1.0453
  376MOL0     C51804   3.077   4.782   7.914  0.4834  0.1453  0.6230
  376MOL0     C51805   2.781   4.772   7.536  0.5678 -0.0043 -0.0255
  376MOL0     C51806   2.765   4.757   7.395  0.0234 -0.4994 -0.2360
  376MOL0     C51807   2.636   4.734   7.338 -0.1470  0.1547 -1.2243
  376MOL0     C51808   2.526   4.720   7.420 -0.0836  0.0910  0.0600
  376MOL0     O51809   2.403   4.709   7.359 -0.3781 -0.3624 -0.0075
  376MOL0     C51810   2.287   4.662   7.428 -0.6055  0.2660 -0.2909
  376MOL0     C51811   2.308   4.507   7.418 -0.2107  0.5076 -0.2860
  376MOL0     C51812   2.291   4.448   7.561  0.0567  0.0570 -0.2871
  376MOL0     C51813   2.170   4.487   7.648  0.1262  0.7589  0.5527
  376MOL0     C51814   2.039   4.456   7.603 -0.5360  0.6076 -0.1331
  376MOL0     C51815   1.922   4.432   7.590  0.2143 -0.3509  1.1622
  376MOL0     C51816   2.539   4.736   7.557 -1.3521  0.9387 -0.4374
  376MOL0     C51817   2.664   4.765   7.614  0.5454  0.1249  0.1791
  376MOL0     C51818   2.661   4.801   7.754  0.5392 -0.7726  0.1645
  376MOL0     H51819   3.204   4.767   7.592  2.5097  0.2815 -0.1181
  376MOL0     H51820   3.398   4.859   7.720 -0.9433  1.8384 -1.0061
  376MOL0     H51821   3.527   4.703   7.924 -2.8966 -0.9718 -0.5267
  376MOL0     H51822   3.433   4.700   8.064 -0.5010  0.8614  0.3298
  376MOL0     H51823   3.594   4.890   8.169 -0.4972  2.1397 -2.7981
  376MOL0     H51824   3.654   4.744   8.166 -1.5376 -0.1038  1.4625
  376MOL0     H51825   3.682   4.925   7.918  2.9650 -1.1084 -1.8064
  376MOL0     H51826   3.784   4.965   8.062  1.5019  2.3005 -2.9897
  376MOL0     H51827   3.892   4.740   8.056  0.1417  3.7832  0.8698
  376MOL0     H51828   3.796   4.698   7.907 -0.2884  0.7363  0.0707
  376MOL0     H51829   3.874   4.875   7.775  2.0640 -0.6526 -2.2599
  376MOL0     H51830   3.984   4.745   7.804  1.8553  0.1478  0.6845
  376MOL0     H51831   4.087   4.975   7.822  0.2021 -0.6306 -0.6343
  376MOL0     H51832   3.994   5.029   7.947  2.5688  0.4122 -0.1203
  376MOL0     H51833   4.232   4.945   7.984  1.0120 -0.8956  0.0294
  376MOL0     H51834   4.170   4.783   7.993  0.7943  0.2623  3.2109
  376MOL0     H51835   4.148   5.010   8.186  3.2561 -1.2264 -0.4795
  376MOL0     H51836   4.009   4.892   8.182  0.1145 -0.6294  0.5335
  376MOL0     H51837   4.046   4.667   8.277 -0.1336  1.0059  0.2389
  376MOL0     H51838   4.349   4.433   8.378 -0.3609 -2.0436 -0.7437
  376MOL0     H51839   4.247   4.410   8.242  2.2799 -0.8623  0.6379
  376MOL0     H51840   4.042   4.474   8.405  0.1353  1.2960  2.4774
  376MOL0     H51841   4.138   4.322   8.445  3.3393  0.4590  0.0623
  376MOL0     H51842   4.263   4.454   8.614 -2.4904 -2.1177  2.8987
  376MOL0     H51843   4.175   4.604   8.554  1.8634 -0.5002 -1.3360
  376MOL0     H51844   4.090   4.502   8.774  0.9884 -0.7347  1.0504
  376MOL0     H51845   3.968   4.464   8.634  0.1947 -1.6678  0.7517
  376MOL0     H51846   3.999   4.060   8.706 -1.0706  2.4265 -0.7543
  376MOL0     H51847   3.910   3.852   8.768  2.2912 -0.0890  0.2220
  376MOL0     H51848   3.773   3.873   8.874  0.5310 -2.8975  0.6073
  376MOL0     H51849   3.938   3.832   8.942  0.9045 -0.1003 -0.0830
  376MOL0     H51850   3.492   4.148   9.235  0.1211 -1.7368 -1.4891
  376MOL0     H51851   3.365   4.092   9.441  1.3283  1.8522 -0.6022
  376MOL0     H51852   3.503   3.779   9.632  0.8897  2.3315 -4.1397
  376MOL0     H51853   3.378   3.820   9.757 -3.7788 -0.8374 -1.3608
  376MOL0     H51854   3.321   3.775   9.458 -0.2350 -2.0063 -0.5344
  376MOL0     H51855   3.287   3.662   9.587 -2.8348  0.0311 -0.9973
  376MOL0     H51856   3.158   3.939   9.611 -1.7574 -0.7729  0.5936
  376MOL0     H51857   3.125   3.792   9.704 -2.8628  2.4356  0.7375
  376MOL0     H51858   3.048   3.701   9.462 -1.4781  0.7650 -0.5609
  376MOL0     H51859   3.055   3.871   9.418  0.0900 -1.2485 -2.4797
  376MOL0     H51860   2.893   3.744   9.640  3.6359 -1.4541  0.8925
  376MOL0     H51861   2.903   3.919   9.621  0.5372 -1.4610  1.4244
  376MOL0     H51862   2.773   3.719   9.436 -1.4550 -1.8885  3.3791
  376MOL0     H51863   2.815   3.884   9.388  0.2430 -4.2773 -2.5872
  376MOL0     H51864   2.660   3.814   9.649  1.1628 -0.9996  0.2560
  376MOL0     H51865   2.581   3.825   9.495 -0.4096 -0.5699 -0.6990
  376MOL0     H51866   2.651   4.076   9.490 -0.5215  2.4056  0.2457
  376MOL0     H51867   2.737   4.044   9.650 -1.1939 -1.4477  0.9026
  376MOL0     H51868   3.723   3.942   9.617 -2.9238 -0.2968  2.3962
  376MOL0     H51869   3.849   3.978   9.427  0.4401  1.3090  4.1749
  376MOL0     H51870   3.834   4.301   9.094 -0.7943  0.1014 -0.9577
  376MOL0     H51871   3.975   4.418   8.929  0.6681 -0.5422 -0.6717
  376MOL0     H51872   3.205   4.833   8.081 -0.4343  0.9122  0.9141
  376MOL0     H51873   2.987   4.780   7.974  0.3948 -1.3076  0.4959
  376MOL0     H51874   2.840   4.773   7.319  1.0689  3.0490  1.3489
  376MOL0     H51875   2.615   4.744   7.232 -0.2110 -0.5138 -1.2772
  376MOL0     H51876   2.298   4.697   7.531  0.3060 -1.4839  0.2610
  376MOL0     H51877   2.189   4.694   7.391 -0.3691 -0.2085 -1.3671
  376MOL0     H51878   2.411   4.491   7.388  0.3887  0.5176  1.6210
  376MOL0     H51879   2.230   4.474   7.348  0.2259  2.5111 -1.7861
  376MOL0     H51880   2.283   4.341   7.539 -1.8401  0.2813 -0.9440
  376MOL0     H51881   2.381   4.476   7.616  0.1533 -1.5919  0.4608
  376MOL0     H51882   2.190   4.588   7.686  2.4139  0.2790  0.7952
  376MOL0     H51883   2.188   4.421   7.733 -0.3817 -0.1618 -0.0449
  376MOL0     H51884   1.817   4.414   7.588  0.2491 -0.6757 -1.0948
  376MOL0     H51885   2.452   4.738   7.622 -2.4994 -1.7923 -1.7272
  376MOL0     H51886   2.702   4.714   7.805  0.2075 -1.5926 -0.9259
  376MOL0     H51887   2.728   4.885   7.775 -2.3474  1.4290  1.1632
  376MOL0     H51888   2.560   4.827   7.787  0.6718 -3.3757  2.9989
  377MOL0     O51889   7.479   8.474  10.198 -0.2850  0.1322 -0.1812
  377MOL0     C51890   7.559   8.455  10.104  0.0712  0.1213 -1.2509
  377MOL0     O51891   7.638   8.348  10.094  0.0499 -0.2627 -0.2061
  377MOL0     C51892   7.660   8.269  10.204  0.3773  0.6344 -0.0906
  377MOL0     C51893   7.586   8.151  10.231  0.4711 -0.1378  0.2349
  377MOL0     C51894   7.623   8.055  10.330 -0.6024  0.7028  0.0032
  377MOL0     C51895   7.744   8.073  10.391 -0.0730 -0.4067  0.1844
  377MOL0     O51896   7.782   7.961  10.467 -0.2522 -0.5614 -0.6304
  377MOL0     C51897   7.881   7.996  10.568  0.9320  0.3908  0.6730
  377MOL0     C51898   7.927   7.882  10.655  0.2153  0.0597  0.2287
  377MOL0     C51899   8.056   7.905  10.732 -0.0137 -0.5333  0.0998
  377MOL0     C51900   8.051   8.021  10.838 -0.4929 -0.5886 -0.0237
  377MOL0     C51901   8.153   8.135  10.815 -0.6319 -0.0748 -0.3095
  377MOL0     C51902   8.302   8.107  10.848 -0.6046 -0.1458  0.2316
  377MOL0     C51903   8.374   8.242  10.868 -0.6810 -0.1766  0.9659
  377MOL0     C51904   8.394   8.326  10.742  0.1009 -0.8005 -0.4254
  377MOL0     N51905   8.458   8.256  10.627  0.0304 -0.6399  0.0805
  377MOL0     C51906   8.581   8.201  10.632 -0.5003  0.4606 -0.2730
  377MOL0     C51907   8.619   8.171  10.508  0.4675 -0.0222  0.5668
  377MOL0     C51908   8.746   8.091  10.472  0.0608 -0.0777 -0.0746
  377MOL0     C51909   8.855   8.168  10.405  0.4724 -0.2176  0.2955
  377MOL0     C51910   8.805   8.220  10.270  0.0494  0.1048 -0.6580
  377MOL0     C51911   8.924   8.301  10.210 -0.2852  0.5755 -0.1216
  377MOL0     O51912   8.972   8.423  10.284  0.2516  0.9617 -1.0146
  377MOL0     C51913   8.960   8.553  10.252 -1.2360 -0.1981 -0.4541
  377MOL0     C51914   9.005   8.647  10.336  0.9907  0.4847 -0.2717
  377MOL0     C51915   9.008   8.787  10.313 -0.0795 -0.5814 -0.2218
  377MOL0     C51916   9.051   8.879  10.428 -0.2621 -0.0108  0.4123
  377MOL0     C51917   8.978   8.840  10.190  0.3788 -1.0731 -0.7106
  377MOL0     C51918   9.006   8.973  10.147 -0.5739  0.2682  0.4671
  377MOL0     O51919   8.907   9.033  10.070 -0.6819  0.0463 -0.2332
  377MOL0     C51920   8.930   9.134   9.988 -0.6752  0.0468 -0.7635
  377MOL0     C51921   8.821   9.213   9.963  1.1788 -0.0862  0.8124
  377MOL0     C51922   8.823   9.322   9.874  0.1141  0.0378  0.0011
  377MOL0     C51923   8.946   9.342   9.804  0.2666  0.6232  0.2094
  377MOL0     O51924   8.953   9.452   9.717  1.1406 -0.4968 -0.8367
  377MOL0     C51925   9.074   9.503   9.658 -0.4951 -0.8116  0.6044
  377MOL0     C51926   9.051   9.659   9.614 -0.3686 -1.2271 -0.5483
  377MOL0     C51927   8.944   9.667   9.512  0.8466 -0.2476 -0.3016
  377MOL0     C51928   8.932   9.803   9.443 -0.4014  0.1026  0.8974
  377MOL0     C51929   8.802   9.822   9.369 -0.2869  0.7104 -0.0664
  377MOL0     C51930   8.670   9.824   9.458 -0.3255 -0.7468  0.3889
  377MOL0     C51931   8.542   9.835   9.373  0.7504 -0.9467  0.6704
  377MOL0     C51932   8.423   9.917   9.437 -0.1524 -0.4221 -0.3759
  377MOL0    Cl51933   8.273   9.891   9.348 -0.1321  0.1880  0.0195
  377MOL0     C51934   9.055   9.260   9.825  0.2096  0.0753  0.2142
  377MOL0     C51935   9.048   9.162   9.925  0.0147 -0.3409 -0.3281
  377MOL0     O51936   9.116   9.017  10.175 -0.6167  0.5976 -0.5609
  377MOL0     C51937   8.935   8.746  10.094  0.4353 -0.6664  0.1361
  377MOL0     C51938   8.921   8.606  10.127  0.2124  0.2987  0.2097
  377MOL0     N51939   8.521   8.219  10.430  0.0149  1.0695  0.6539
  377MOL0     N51940   8.418   8.263  10.496 -0.2391  0.2689 -0.0519
  377MOL0     C51941   7.810   8.197  10.377  0.5947  0.5602 -0.3108
  377MOL0     C51942   7.770   8.295  10.291  0.0456 -0.1939  0.4047
  377MOL0     C51943   7.550   8.558   9.999 -1.6709 -0.2477  0.3010
  377MOL0     C51944   7.449   8.652   9.991  0.3899  0.7886 -0.2343
  377MOL0     C51945   7.456   8.757   9.914 -0.2393 -0.2324  0.0326
  377MOL0     C51946   7.562   8.782   9.832 -0.5739 -0.1824  0.5602
  377MOL0     O51947   7.569   8.883   9.737 -0.1640 -0.3673 -0.9830
  377MOL0     C51948   7.445   8.948   9.701 -0.2423  0.2297  1.3989
  377MOL0     C51949   7.405   9.060   9.795 -0.4879 -1.0507  0.2927
  377MOL0     C51950   7.253   9.099   9.792 -0.2865 -0.2681  0.9352
  377MOL0     C51951   7.201   9.150   9.652  0.1282 -0.8052 -0.5287
  377MOL0     C51952   7.245   9.292   9.610 -0.7514  0.8711 -0.3638
  377MOL0     C51953   7.261   9.411   9.584 -0.2389  0.2645 -0.0714
  377MOL0     C51954   7.662   8.683   9.830  0.7585 -0.5864 -1.0227
  377MOL0     C51955   7.663   8.563   9.905  0.1517  0.1846 -0.2385
  377MOL0     C51956   7.778   8.469   9.886 -0.8836 -0.1224  0.1494
  377MOL0     H51957   7.499   8.122  10.172 -1.3697  2.6137  1.4037
  377MOL0     H51958   7.569   7.962  10.345  0.0076  0.5901  1.7381
  377MOL0     H51959   7.833   8.070  10.632  2.2028  1.1531  0.7749
  377MOL0     H51960   7.968   8.047  10.524  2.4259 -0.4132  2.5844
  377MOL0     H51961   7.839   7.853  10.713 -1.3592  2.3152 -0.8548
  377MOL0     H51962   7.957   7.800  10.590  2.3412 -0.1475  1.3576
  377MOL0     H51963   8.095   7.814  10.779  0.5525 -1.0259 -1.2766
  377MOL0     H51964   8.121   7.944  10.654  1.0998  2.0767  2.1829
  377MOL0     H51965   7.953   8.070  10.845 -1.5727 -2.6134 -0.0936
  377MOL0     H51966   8.081   7.989  10.938 -0.8578 -0.8774 -0.0079
  377MOL0     H51967   8.122   8.214  10.884  3.0911  0.3154  1.1809
  377MOL0     H51968   8.149   8.180  10.715  0.2920  1.2486  0.2129
  377MOL0     H51969   8.315   8.059  10.945  2.9815 -0.9487 -0.5191
  377MOL0     H51970   8.349   8.036  10.780  1.3128  0.6088  0.7010
  377MOL0     H51971   8.471   8.228  10.917  0.4629  3.6807  0.1289
  377MOL0     H51972   8.308   8.290  10.941 -1.5579 -2.8157  2.0699
  377MOL0     H51973   8.299   8.363  10.703 -0.4456 -1.0874  0.5836
  377MOL0     H51974   8.463   8.408  10.765 -1.3351  0.3222 -0.0187
  377MOL0     H51975   8.625   8.164  10.724 -0.7684  1.7068  0.3725
  377MOL0     H51976   8.709   8.024  10.394  2.2962  0.0283 -1.2854
  377MOL0     H51977   8.795   8.040  10.556  2.8278  0.8122 -1.0417
  377MOL0     H51978   8.874   8.260  10.460  0.7885  0.7827 -1.4104
  377MOL0     H51979   8.950   8.116  10.387  0.3087  0.2865 -2.4793
  377MOL0     H51980   8.770   8.143  10.201 -1.0497  1.1308 -1.2895
  377MOL0     H51981   8.712   8.277  10.281 -0.5582 -1.1360  1.1615
  377MOL0     H51982   9.010   8.235  10.198  2.5238  3.3713  2.6644
  377MOL0     H51983   8.908   8.335  10.107  0.3568  1.5049  0.0691
  377MOL0     H51984   9.036   8.599  10.429  0.5586 -0.2004 -0.4776
  377MOL0     H51985   9.071   8.984  10.408 -3.3026  0.5513 -0.2297
  377MOL0     H51986   9.141   8.842  10.478  0.4988  0.6202 -0.4652
  377MOL0     H51987   8.966   8.880  10.497 -0.6839 -0.9657 -0.0771
  377MOL0     H51988   8.731   9.185  10.017  2.2774 -1.9550  1.7549
  377MOL0     H51989   8.734   9.384   9.865 -1.6546 -1.9284  2.3411
  377MOL0     H51990   9.163   9.503   9.722  2.3129  0.6631 -2.9317
  377MOL0     H51991   9.094   9.442   9.569  1.8764  2.1829 -1.1036
  377MOL0     H51992   9.023   9.720   9.700 -0.6968 -0.4100 -1.2231
  377MOL0     H51993   9.147   9.700   9.583  0.9431 -2.1243  2.0188
  377MOL0     H51994   8.849   9.641   9.558 -0.3348 -0.5448 -2.7714
  377MOL0     H51995   8.966   9.593   9.434 -1.3105  0.2071 -1.3972
  377MOL0     H51996   9.019   9.822   9.380 -0.9938 -0.5214 -0.1376
  377MOL0     H51997   8.934   9.880   9.522 -0.4780  1.9668 -0.8481
  377MOL0     H51998   8.805   9.921   9.322 -2.0143  0.8016 -0.0578
  377MOL0     H51999   8.814   9.752   9.286  1.8725  1.2259 -0.2453
  377MOL0     H52000   8.673   9.913   9.521 -0.4366 -0.7484  0.3967
  377MOL0     H52001   8.662   9.729   9.514 -1.0508 -3.4588 -3.8717
  377MOL0     H52002   8.518   9.737   9.333  0.9514 -0.1930 -1.4327
  377MOL0     H52003   8.567   9.888   9.280  2.1985 -1.8602  0.5088
  377MOL0     H52004   8.437  10.023   9.462 -2.0420 -0.7893  2.8394
  377MOL0     H52005   8.414   9.876   9.538 -0.1946 -3.1688 -1.3956
  377MOL0     H52006   9.147   9.277   9.771 -0.9256  1.6749 -1.3230
  377MOL0     H52007   9.133   9.095   9.927  1.6433  1.5446  3.7666
  377MOL0     H52008   8.905   8.775   9.994  0.5125 -2.5013 -0.4668
  377MOL0     H52009   8.867   8.544  10.057 -0.9606  3.2323 -1.6678
  377MOL0     H52010   7.896   8.223  10.439  1.0410 -0.5182 -0.4558
  377MOL0     H52011   7.836   8.380  10.276 -3.4045  2.3957 -1.5598
  377MOL0     H52012   7.364   8.641  10.057  0.2444  0.0706 -0.5330
  377MOL0     H52013   7.371   8.825   9.915 -0.5613 -0.5978  2.1816
  377MOL0     H52014   7.450   8.983   9.597 -1.9459 -0.0548  1.1884
  377MOL0     H52015   7.358   8.883   9.712 -1.8307  2.2631  1.4450
  377MOL0     H52016   7.458   9.150   9.763  0.3629 -0.8393  2.1264
  377MOL0     H52017   7.443   9.041   9.896  1.4831  0.5073 -0.0813
  377MOL0     H52018   7.202   9.005   9.816  2.5899 -2.3203 -0.4503
  377MOL0     H52019   7.220   9.177   9.862 -2.0946 -0.6191  0.5192
  377MOL0     H52020   7.092   9.145   9.667  0.0187  0.0015 -0.9923
  377MOL0     H52021   7.224   9.077   9.574 -2.9558 -0.3523 -2.0178
  377MOL0     H52022   7.279   9.510   9.549  0.6490 -0.0518 -0.5472
  377MOL0     H52023   7.754   8.706   9.778  2.2203 -1.8991  0.8589
  377MOL0     H52024   7.849   8.493   9.807  0.3294 -0.0830  1.2206
  377MOL0     H52025   7.846   8.466   9.972  2.3221  0.5343 -2.1819
  377MOL0     H52026   7.746   8.366   9.870  0.3862 -0.7158  1.2526
  378MOL0     O52027   8.431   5.888   2.044  0.4492 -0.7917 -0.1163
  378MOL0     C52028   8.328   5.814   2.031 -0.0967 -0.0813  0.7416
  378MOL0     O52029   8.203   5.848   1.986  0.0622 -0.7563  0.2013
  378MOL0     C52030   8.197   5.957   1.906  0.5083 -0.6591  0.3076
  378MOL0     C52031   8.156   5.931   1.773  0.5107 -0.0287 -0.3897
  378MOL0     C52032   8.169   6.025   1.676  0.4583  1.3497  0.1861
  378MOL0     C52033   8.204   6.154   1.701  0.1814  0.4781 -0.9959
  378MOL0     O52034   8.195   6.252   1.605  0.5733  0.6193 -0.5725
  378MOL0     C52035   8.308   6.333   1.586 -0.3164  0.2906 -0.0374
  378MOL0     C52036   8.264   6.463   1.520 -0.0860  0.7225  0.0281
  378MOL0     C52037   8.208   6.443   1.375 -0.5616  0.2777 -0.7137
  378MOL0     C52038   8.191   6.572   1.302  0.6344  0.5748 -0.0621
  378MOL0     C52039   8.053   6.615   1.290 -0.2318 -0.2960  0.3847
  378MOL0     C52040   8.063   6.754   1.220  0.2766  0.3968 -0.4028
  378MOL0     C52041   7.931   6.829   1.246 -0.3075 -0.0126  0.3965
  378MOL0     C52042   7.918   6.964   1.162  0.1586 -0.6953  0.4738
  378MOL0     N52043   7.793   7.011   1.194  0.2042  0.5849  0.0255
  378MOL0     C52044   7.676   6.957   1.157  1.2645  0.1696  0.1896
  378MOL0     C52045   7.586   7.042   1.215 -0.4809 -1.3372  0.4400
  378MOL0     C52046   7.440   7.029   1.203  0.5462  0.2765 -0.6997
  378MOL0     C52047   7.385   7.076   1.066  0.0865 -0.0306 -0.5489
  378MOL0     C52048   7.238   7.053   1.039  0.5865 -0.4800 -0.1881
  378MOL0     C52049   7.138   7.132   1.120 -0.5303 -0.8911  0.5623
  378MOL0     O52050   7.006   7.123   1.065 -0.0015  0.7531  0.4533
  378MOL0     C52051   6.892   7.161   1.144  0.0289 -0.1656  0.7672
  378MOL0     C52052   6.773   7.097   1.120  0.0822 -0.6238  0.2494
  378MOL0     C52053   6.658   7.128   1.186 -0.2270 -0.0516 -0.1456
  378MOL0     C52054   6.531   7.054   1.151  0.4741 -0.0137  0.5439
  378MOL0     C52055   6.663   7.223   1.289 -0.1000  0.3867  1.0934
  378MOL0     C52056   6.556   7.243   1.381 -0.3298  0.2171  0.0052
  378MOL0     O52057   6.596   7.222   1.513  0.4426 -0.1073 -0.0744
  378MOL0     C52058   6.491   7.209   1.599  0.5728  0.1523 -1.2149
  378MOL0     C52059   6.534   7.245   1.726 -0.1606 -0.6453 -0.2383
  378MOL0     C52060   6.444   7.241   1.837 -0.1193  0.5719 -0.1677
  378MOL0     C52061   6.310   7.203   1.818  0.2476  0.0676  0.5147
  378MOL0     O52062   6.203   7.201   1.914  0.2405  0.0459 -0.1170
  378MOL0     C52063   6.239   7.227   2.049  0.0441  0.5634 -0.3198
  378MOL0     C52064   6.152   7.137   2.136  0.6036 -1.0219 -0.9939
  378MOL0     C52065   6.010   7.194   2.145 -0.5937  0.4283 -0.3043
  378MOL0     C52066   5.914   7.082   2.201  0.7184  0.2502  0.0467
  378MOL0     C52067   5.924   7.065   2.354  0.3058  0.0297  0.0080
  378MOL0     C52068   5.852   6.944   2.412 -0.4450 -0.4303  0.1797
  378MOL0     C52069   5.883   6.926   2.561 -0.2697  0.5648 -0.3566
  378MOL0     C52070   5.783   6.813   2.613 -0.1502 -0.2822 -0.7854
  378MOL0    Cl52071   5.799   6.804   2.797 -0.2696 -0.3602 -0.4941
  378MOL0     C52072   6.275   7.159   1.693 -0.2924 -0.8078  0.0033
  378MOL0     C52073   6.363   7.157   1.586  0.6796  0.1185  0.2246
  378MOL0     O52074   6.459   7.297   1.329  0.1198  0.0360 -0.2389
  378MOL0     C52075   6.784   7.290   1.320  1.0875 -0.4687 -0.3904
  378MOL0     C52076   6.901   7.257   1.245 -0.2848  0.8069  1.0140
  378MOL0     N52077   7.652   7.143   1.276 -0.2882  0.6988  0.0307
  378MOL0     N52078   7.776   7.121   1.257  0.2565 -0.4367  0.0512
  378MOL0     C52079   8.236   6.192   1.834  1.6862  0.2836 -0.3279
  378MOL0     C52080   8.232   6.090   1.933  0.6802  0.4052  0.4965
  378MOL0     C52081   8.330   5.681   2.102 -0.8236  0.0605  0.5054
  378MOL0     C52082   8.239   5.666   2.207 -1.2364  0.4953 -0.4492
  378MOL0     C52083   8.234   5.550   2.294 -0.5624 -0.5879  0.0741
  378MOL0     C52084   8.333   5.450   2.268 -0.3659  0.4877  0.0367
  378MOL0     O52085   8.332   5.344   2.356  0.3639  0.3921  0.0240
  378MOL0     C52086   8.408   5.224   2.327  0.6065 -0.0386 -1.0839
  378MOL0     C52087   8.548   5.216   2.386 -0.4395  0.4144 -0.2210
  378MOL0     C52088   8.555   5.193   2.536 -0.1312 -0.9820 -0.6303
  378MOL0     C52089   8.487   5.300   2.630  0.4156  0.8303 -0.0204
  378MOL0     C52090   8.558   5.421   2.615  0.7985 -0.4561  0.9145
  378MOL0     C52091   8.611   5.529   2.598  1.0637  0.0059 -0.4797
  378MOL0     C52092   8.428   5.472   2.162  0.5326  0.0055 -0.2901
  378MOL0     C52093   8.428   5.581   2.075  0.1873 -1.3341 -0.7569
  378MOL0     C52094   8.536   5.585   1.969  0.0855  0.2290 -0.2710
  378MOL0     H52095   8.116   5.832   1.751  0.9933  0.1042 -1.9647
  378MOL0     H52096   8.141   5.991   1.577  1.1351 -0.3073  0.5364
  378MOL0     H52097   8.374   6.280   1.517  1.0691 -2.3403  3.1077
  378MOL0     H52098   8.347   6.372   1.680 -1.7346  2.6008 -0.2964
  378MOL0     H52099   8.186   6.511   1.581  0.2027  2.8773 -1.2363
  378MOL0     H52100   8.348   6.532   1.526  1.2928 -0.9688  1.4033
  378MOL0     H52101   8.273   6.380   1.314 -0.2386 -0.6074  0.4944
  378MOL0     H52102   8.108   6.400   1.386 -0.9583  1.1896 -0.6626
  378MOL0     H52103   8.243   6.658   1.345  1.0897  0.0316  0.4914
  378MOL0     H52104   8.224   6.555   1.199 -0.4115  0.8034 -0.4502
  378MOL0     H52105   8.004   6.624   1.388  0.3832  0.2802  0.6463
  378MOL0     H52106   7.994   6.548   1.227 -1.4570  0.9104  0.1975
  378MOL0     H52107   8.152   6.810   1.248  0.4222  0.0369 -0.1280
  378MOL0     H52108   8.067   6.743   1.112 -3.7812  1.2649 -0.7859
  378MOL0     H52109   7.932   6.866   1.349 -0.8941  0.6468  0.1788
  378MOL0     H52110   7.847   6.764   1.220 -0.0518  0.9926 -3.6250
  378MOL0     H52111   7.990   7.036   1.200  0.1721 -0.1976 -0.4564
  378MOL0     H52112   7.931   6.948   1.054 -2.9683 -0.0376 -0.1103
  378MOL0     H52113   7.656   6.876   1.089 -1.7687  0.4548  0.5970
  378MOL0     H52114   7.400   7.099   1.277  1.9258  0.8947 -0.5027
  378MOL0     H52115   7.405   6.930   1.234  2.2501  0.4748  2.1207
  378MOL0     H52116   7.419   7.180   1.060 -2.1113  0.7477 -0.3091
  378MOL0     H52117   7.436   7.033   0.979 -1.2715  2.2276 -2.5573
  378MOL0     H52118   7.214   7.077   0.935  1.1580  1.7576  0.1507
  378MOL0     H52119   7.227   6.945   1.057  2.9022 -0.5143  1.4018
  378MOL0     H52120   7.142   7.094   1.223 -1.0076  1.1800  1.3938
  378MOL0     H52121   7.179   7.233   1.123  0.1350 -1.0757 -1.1579
  378MOL0     H52122   6.768   7.016   1.048  0.0591 -2.2157  1.9665
  378MOL0     H52123   6.482   7.088   1.059  1.4858 -0.5609 -0.2189
  378MOL0     H52124   6.455   7.068   1.228 -0.2659 -1.6882  0.1619
  378MOL0     H52125   6.557   6.948   1.139 -1.0724 -0.1425 -2.8842
  378MOL0     H52126   6.640   7.267   1.737  0.3422 -1.4508 -2.6335
  378MOL0     H52127   6.483   7.273   1.933 -1.8077  1.0890  0.3920
  378MOL0     H52128   6.340   7.189   2.072  0.4778  2.7466  1.8940
  378MOL0     H52129   6.221   7.333   2.069  1.4598  0.5478  1.3214
  378MOL0     H52130   6.139   7.036   2.094 -5.5423 -1.2693  0.5966
  378MOL0     H52131   6.184   7.131   2.240  0.0505  0.8854 -0.6781
  378MOL0     H52132   5.973   7.198   2.042 -4.1146  0.9314  0.8161
  378MOL0     H52133   6.007   7.288   2.202  0.5607 -0.5642  1.4848
  378MOL0     H52134   5.937   6.982   2.164 -0.2932 -0.7722  1.9945
  378MOL0     H52135   5.810   7.097   2.170 -0.1167 -0.0303  2.4942
  378MOL0     H52136   6.029   7.066   2.385 -0.1892 -0.9252  1.8386
  378MOL0     H52137   5.881   7.161   2.387  2.9603  1.4426 -0.3571
  378MOL0     H52138   5.888   6.858   2.354 -2.6009 -0.9699 -0.4415
  378MOL0     H52139   5.746   6.959   2.391 -1.2382 -2.2455  2.4421
  378MOL0     H52140   5.864   7.015   2.621 -2.6639 -0.8184  1.0844
  378MOL0     H52141   5.985   6.888   2.573 -0.7735 -2.4271 -3.7558
  378MOL0     H52142   5.803   6.712   2.577 -0.6175 -1.7200  2.5476
  378MOL0     H52143   5.679   6.841   2.591 -0.7878 -3.3525 -2.1062
  378MOL0     H52144   6.169   7.144   1.672 -0.6827  0.2297  1.1399
  378MOL0     H52145   6.318   7.118   1.495 -2.3160 -0.9017  1.9845
  378MOL0     H52146   6.785   7.345   1.414 -1.3107  1.4715 -1.3812
  378MOL0     H52147   6.993   7.300   1.283 -0.0028  0.6284  0.5486
  378MOL0     H52148   8.249   6.294   1.870  3.1623  0.4248 -1.1891
  378MOL0     H52149   8.258   6.112   2.036  1.5679  2.4232 -0.0958
  378MOL0     H52150   8.190   5.759   2.234  2.0544  1.5551  2.6852
  378MOL0     H52151   8.169   5.540   2.380  1.0072 -1.0084  1.2526
  378MOL0     H52152   8.355   5.146   2.382 -1.3744  1.8257 -0.2044
  378MOL0     H52153   8.403   5.204   2.220 -1.5133 -2.4537 -0.6267
  378MOL0     H52154   8.596   5.309   2.354 -5.5514  2.2945 -3.7378
  378MOL0     H52155   8.609   5.135   2.344 -0.5974 -0.0572  0.4472
  378MOL0     H52156   8.500   5.100   2.554  1.1353 -1.7084 -0.4229
  378MOL0     H52157   8.658   5.184   2.572  0.0297 -0.2395 -0.8990
  378MOL0     H52158   8.501   5.262   2.731  2.8899 -0.7700 -0.8721
  378MOL0     H52159   8.381   5.299   2.607  0.0165 -0.6273  1.7041
  378MOL0     H52160   8.660   5.619   2.569 -1.3580  0.9828 -1.7650
  378MOL0     H52161   8.510   5.402   2.150  3.8945  3.2570  1.5170
  378MOL0     H52162   8.521   5.501   1.900 -0.5645 -0.2299  0.4145
  378MOL0     H52163   8.532   5.677   1.910 -0.9139  0.1396 -0.3423
  378MOL0     H52164   8.635   5.567   2.012 -1.2283 -0.6142  2.6132
  379MOL0     O52165  10.640   5.212   3.866 -0.7003 -0.6278 -0.4897
  379MOL0     C52166  10.681   5.293   3.944 -0.1394  0.4621 -0.4984
  379MOL0     O52167  10.709   5.432   3.920 -0.1301  0.2429  0.9618
  379MOL0     C52168  10.732   5.469   3.786  0.9150 -0.8155  0.0596
  379MOL0     C52169  10.701   5.607   3.759  1.1983 -0.7320 -0.4190
  379MOL0     C52170  10.732   5.658   3.630  0.2321 -0.8653 -0.5497
  379MOL0     C52171  10.786   5.576   3.530 -0.3687 -1.0798 -0.2764
  379MOL0     O52172  10.801   5.634   3.406  0.4461  0.1696 -0.2031
  379MOL0     C52173  10.866   5.578   3.297  0.1259 -0.1647 -0.5259
  379MOL0     C52174  10.893   5.666   3.182 -0.5382 -0.5647 -0.2821
  379MOL0     C52175  10.973   5.798   3.210 -0.4160  0.3377  0.0898
  379MOL0     C52176  11.070   5.810   3.093 -0.6480  0.8877  0.4644
  379MOL0     C52177  10.997   5.847   2.960  0.2997  0.8050  0.0951
  379MOL0     C52178  11.096   5.847   2.845  0.3876 -0.2762  0.4026
  379MOL0     C52179  11.039   5.890   2.701 -0.2574 -0.9498  0.0557
  379MOL0     C52180  10.901   5.942   2.688  0.2361 -0.2846 -0.3651
  379MOL0     N52181  10.792   5.832   2.710  0.4310  0.0343  0.4133
  379MOL0     C52182  10.687   5.836   2.805 -0.2307  0.0218  0.3205
  379MOL0     C52183  10.633   5.711   2.800  0.0035 -0.2745 -0.3445
  379MOL0     C52184  10.532   5.666   2.900  0.1352 -0.1860  0.5473
  379MOL0     C52185  10.518   5.509   2.904 -0.0392 -0.0898  0.5989
  379MOL0     C52186  10.416   5.469   2.805 -0.0697 -0.6587  0.0649
  379MOL0     C52187  10.373   5.319   2.807 -0.5158  0.1875  0.2148
  379MOL0     O52188  10.278   5.303   2.702 -0.0143 -0.6456 -1.0372
  379MOL0     C52189  10.313   5.213   2.606 -0.1571 -0.0972 -0.2499
  379MOL0     C52190  10.425   5.212   2.526 -0.0199 -0.3402  0.0324
  379MOL0     C52191  10.462   5.105   2.440  1.1882 -0.5791  0.1263
  379MOL0     C52192  10.583   5.147   2.366 -0.1681  0.3061  1.8450
  379MOL0     C52193  10.370   4.997   2.417 -0.2519 -0.2074 -1.0153
  379MOL0     C52194  10.388   4.888   2.322  0.8959 -0.2218 -1.2422
  379MOL0     O52195  10.281   4.804   2.296 -0.2107  0.4340  0.3981
  379MOL0     C52196  10.287   4.706   2.206 -1.3251  0.6169  0.2430
  379MOL0     C52197  10.183   4.613   2.219 -0.9394 -0.4287 -0.0450
  379MOL0     C52198  10.168   4.505   2.125 -0.1654  0.4535 -0.3971
  379MOL0     C52199  10.246   4.503   2.005  0.3898  0.1179 -0.3090
  379MOL0     O52200  10.220   4.424   1.900 -0.2474  0.1362  0.5024
  379MOL0     C52201  10.084   4.414   1.860 -0.0956  0.1205  0.9317
  379MOL0     C52202  10.071   4.339   1.729 -0.7510  0.4839 -0.4345
  379MOL0     C52203   9.964   4.231   1.704 -0.2630 -0.4492  0.3646
  379MOL0     C52204   9.976   4.184   1.556 -0.7920  0.2021  0.6320
  379MOL0     C52205   9.930   4.043   1.514 -0.6548 -0.0345 -0.1023
  379MOL0     C52206   9.792   4.012   1.555  0.2079 -0.5133 -0.3735
  379MOL0     C52207   9.750   3.883   1.486  0.5266  0.4646  0.5172
  379MOL0     C52208   9.665   3.915   1.358 -0.3850 -0.8958  0.2300
  379MOL0    Cl52209   9.726   4.058   1.246 -0.0925 -0.1446  0.3225
  379MOL0     C52210  10.359   4.591   2.002  0.8002 -0.1030 -0.5478
  379MOL0     C52211  10.379   4.694   2.095  0.0936  0.1701  0.1976
  379MOL0     O52212  10.505   4.874   2.284  0.2432  0.1794 -0.3057
  379MOL0     C52213  10.247   4.999   2.487 -0.5175 -0.0702 -0.7601
  379MOL0     C52214  10.230   5.099   2.587 -0.9165  0.7591  0.4254
  379MOL0     N52215  10.692   5.637   2.694 -0.6428  0.4559  0.1170
  379MOL0     N52216  10.789   5.721   2.643 -0.4397 -0.3259  0.1844
  379MOL0     C52217  10.813   5.445   3.562  0.0139 -0.3763 -0.3231
  379MOL0     C52218  10.788   5.395   3.691  0.1488  0.5724  0.5616
  379MOL0     C52219  10.671   5.257   4.088  0.1337  0.3162 -0.3029
  379MOL0     C52220  10.731   5.347   4.183 -0.1873  0.9006 -0.0279
  379MOL0     C52221  10.725   5.320   4.315 -0.5521  0.7619 -0.0458
  379MOL0     C52222  10.676   5.203   4.363 -0.7121  0.2077  1.1741
  379MOL0     O52223  10.699   5.196   4.501  0.4846  0.0263  0.1537
  379MOL0     C52224  10.724   5.063   4.544 -0.2845 -0.3390  0.6053
  379MOL0     C52225  10.595   5.000   4.612  0.3489  0.6129  0.5167
  379MOL0     C52226  10.586   4.843   4.620  0.2338 -0.8870 -0.3294
  379MOL0     C52227  10.720   4.776   4.667  0.6186 -0.5408  0.0373
  379MOL0     C52228  10.783   4.686   4.578  0.2931  0.2175  0.2061
  379MOL0     C52229  10.818   4.606   4.485  1.0857 -0.0618 -0.5590
  379MOL0     C52230  10.612   5.117   4.279 -0.0723  0.1208  0.3071
  379MOL0     C52231  10.610   5.139   4.143  0.1847 -0.4812 -0.1445
  379MOL0     C52232  10.532   5.039   4.063  0.1192  0.4678  1.2182
  379MOL0     H52233  10.650   5.668   3.833  2.4184  0.4925 -0.5513
  379MOL0     H52234  10.725   5.765   3.614  0.6041 -0.6551  0.6114
  379MOL0     H52235  10.817   5.488   3.257  1.2741  0.4757 -3.6090
  379MOL0     H52236  10.967   5.555   3.333 -0.1074  1.5738  1.4139
  379MOL0     H52237  10.944   5.604   3.108  1.4213  2.2866 -1.5095
  379MOL0     H52238  10.800   5.691   3.131 -0.2038 -0.9513 -1.0907
  379MOL0     H52239  10.918   5.892   3.217 -0.7318  0.3057 -1.4749
  379MOL0     H52240  11.032   5.785   3.301  1.1786 -0.7207 -1.0465
  379MOL0     H52241  11.141   5.892   3.110  1.2999 -0.8200  0.9508
  379MOL0     H52242  11.129   5.720   3.075  1.6367  2.0830  1.5479
  379MOL0     H52243  10.944   5.942   2.974 -0.1180  0.4176  1.1882
  379MOL0     H52244  10.918   5.774   2.941  1.7863 -1.3115  1.7484
  379MOL0     H52245  11.176   5.918   2.867 -0.1111  1.0534 -1.7895
  379MOL0     H52246  11.132   5.744   2.832  1.2724  0.1171 -0.3125
  379MOL0     H52247  11.045   5.795   2.646 -0.2494  0.3106 -2.2707
  379MOL0     H52248  11.108   5.963   2.657 -0.6305 -0.0037  0.9958
  379MOL0     H52249  10.894   6.025   2.760 -0.8764  0.4165 -1.2557
  379MOL0     H52250  10.887   5.980   2.587 -3.5899 -1.9582 -0.6251
  379MOL0     H52251  10.660   5.921   2.867 -0.8448 -0.6727  1.0241
  379MOL0     H52252  10.440   5.718   2.873  2.4690  3.5552 -1.0051
  379MOL0     H52253  10.558   5.701   3.000  2.7823  1.6436 -0.6894
  379MOL0     H52254  10.612   5.458   2.880 -1.2544 -1.7962 -0.7660
  379MOL0     H52255  10.505   5.486   3.010  1.6044  0.3882  0.9430
  379MOL0     H52256  10.326   5.529   2.823  0.8405  0.4201  1.2302
  379MOL0     H52257  10.451   5.489   2.703 -0.8996  1.5929  0.1678
  379MOL0     H52258  10.453   5.249   2.782 -2.4466 -1.6263 -1.1782
  379MOL0     H52259  10.321   5.280   2.895  1.1446  0.4534  1.3700
  379MOL0     H52260  10.488   5.299   2.538 -1.5077  0.4596  2.9408
  379MOL0     H52261  10.661   5.070   2.360 -1.3418 -0.8263 -2.2837
  379MOL0     H52262  10.633   5.233   2.411 -1.5194  2.3621 -0.3138
  379MOL0     H52263  10.564   5.175   2.262  2.9985 -1.3725  0.6662
  379MOL0     H52264  10.116   4.629   2.303 -1.8903 -0.6002 -0.7531
  379MOL0     H52265  10.085   4.437   2.143 -0.2648  0.6069 -0.2786
  379MOL0     H52266  10.034   4.351   1.934 -1.5244  1.0325  0.7797
  379MOL0     H52267  10.032   4.510   1.868  0.0882  0.3607 -0.4822
  379MOL0     H52268  10.061   4.419   1.655 -2.9239  0.2136 -0.4829
  379MOL0     H52269  10.171   4.297   1.713 -1.0969 -1.6672  2.2358
  379MOL0     H52270   9.867   4.277   1.727 -0.4191 -0.9973  0.8338
  379MOL0     H52271   9.985   4.153   1.778 -0.4423 -1.6610 -0.8300
  379MOL0     H52272  10.075   4.205   1.515 -1.3533 -0.6274 -1.2935
  379MOL0     H52273   9.911   4.251   1.499 -1.8710 -0.2182  1.3322
  379MOL0     H52274   9.942   4.032   1.406  0.6153  1.1634 -0.1208
  379MOL0     H52275   9.997   3.966   1.555 -1.9239 -1.2929 -0.3353
  379MOL0     H52276   9.725   4.096   1.538  2.2222  1.2715  0.0427
  379MOL0     H52277   9.793   4.007   1.665 -0.4284  2.0034 -0.1947
  379MOL0     H52278   9.688   3.821   1.551  3.5247  0.1705  3.3702
  379MOL0     H52279   9.839   3.825   1.460 -0.9833 -0.9693 -1.7809
  379MOL0     H52280   9.562   3.941   1.385 -0.6244 -1.0128 -0.5517
  379MOL0     H52281   9.652   3.825   1.299 -1.0133 -2.3127  2.4030
  379MOL0     H52282  10.420   4.594   1.912 -1.4362 -1.0275 -2.1978
  379MOL0     H52283  10.467   4.755   2.078  0.0125  0.3382  0.3779
  379MOL0     H52284  10.188   4.910   2.504 -0.0549 -0.2479 -0.0351
  379MOL0     H52285  10.146   5.095   2.656 -0.9162 -0.2516  0.3761
  379MOL0     H52286  10.862   5.382   3.489 -0.9946  0.1410 -1.4803
  379MOL0     H52287  10.801   5.289   3.711 -1.1765  0.1534 -0.6345
  379MOL0     H52288  10.772   5.433   4.131 -1.4187 -0.1290 -2.9005
  379MOL0     H52289  10.755   5.393   4.390 -0.4034  2.6904 -1.8898
  379MOL0     H52290  10.764   4.996   4.468  1.3964  0.0167  1.1421
  379MOL0     H52291  10.804   5.066   4.618  3.5654 -0.6481 -3.1642
  379MOL0     H52292  10.508   5.044   4.563 -0.9642 -1.4057  0.9225
  379MOL0     H52293  10.591   5.041   4.713 -3.1979 -1.3105  1.3096
  379MOL0     H52294  10.513   4.827   4.700 -1.0425  1.7209 -0.8622
  379MOL0     H52295  10.561   4.793   4.526  1.4130  0.5966 -1.4955
  379MOL0     H52296  10.700   4.718   4.758 -1.8689 -0.6472 -0.5149
  379MOL0     H52297  10.800   4.849   4.680 -0.2025  1.3701 -4.2625
  379MOL0     H52298  10.868   4.538   4.418  1.6094  1.0664 -1.3433
  379MOL0     H52299  10.562   5.027   4.316 -0.4181  0.3602  0.4302
  379MOL0     H52300  10.437   5.089   4.040  0.3053 -0.1916 -1.2838
  379MOL0     H52301  10.586   5.005   3.975  2.2591 -1.6571  3.2044
  379MOL0     H52302  10.498   4.946   4.111  0.4628  0.7000  1.9310
  380MOL0     O52303   6.536   4.650   5.928 -0.5138  0.2922  0.2933
  380MOL0     C52304   6.481   4.612   6.030  0.9016 -0.0959 -0.0175
  380MOL0     O52305   6.505   4.670   6.165 -0.6330 -0.3420 -0.5744
  380MOL0     C52306   6.614   4.754   6.181 -1.2120  0.3000  0.9859
  380MOL0     C52307   6.620   4.881   6.113  0.7272 -0.0014 -0.7898
  380MOL0     C52308   6.731   4.967   6.151 -0.1594  0.5027  0.6053
  380MOL0     C52309   6.827   4.927   6.250 -0.1463  0.5817  0.9478
  380MOL0     O52310   6.927   5.014   6.286 -0.3491  0.1524  0.1925
  380MOL0     C52311   7.052   4.959   6.329  0.3907 -1.1250  0.4772
  380MOL0     C52312   7.143   5.074   6.349  0.5752 -0.0834  1.0988
  380MOL0     C52313   7.092   5.175   6.453  0.0033  0.5011  0.3552
  380MOL0     C52314   7.098   5.099   6.596 -0.3334 -0.7756  0.0578
  380MOL0     C52315   7.164   5.196   6.702  0.1308 -0.5064  0.3540
  380MOL0     C52316   7.204   5.126   6.843 -0.0990 -0.0322  1.5095
  380MOL0     C52317   7.096   5.039   6.914 -0.7020  0.8728 -0.2320
  380MOL0     C52318   6.982   5.115   6.975  0.4555 -0.3473  0.4280
  380MOL0     N52319   6.918   5.054   7.095  0.4095  0.3197 -1.1828
  380MOL0     C52320   6.798   5.089   7.136  0.3506 -0.0938  0.5359
  380MOL0     C52321   6.767   4.988   7.227 -0.2223  0.0967  0.2658
  380MOL0     C52322   6.633   4.962   7.287  0.2226 -0.0245  1.7307
  380MOL0     C52323   6.556   4.852   7.199 -0.1322 -0.0488  0.3531
  380MOL0     C52324   6.631   4.721   7.196  0.3441  0.5891 -0.4296
  380MOL0     C52325   6.551   4.608   7.118 -0.7281 -0.2452  0.5781
  380MOL0     O52326   6.651   4.510   7.070  0.4449 -0.8041 -0.5863
  380MOL0     C52327   6.629   4.445   6.954 -0.4989 -0.0510  0.6833
  380MOL0     C52328   6.570   4.498   6.834 -0.3670  0.0192  0.4278
  380MOL0     C52329   6.553   4.416   6.719 -0.0883 -0.0714  0.0460
  380MOL0     C52330   6.488   4.473   6.597 -0.2498 -0.2830 -0.6863
  380MOL0     C52331   6.613   4.284   6.720  0.0485 -0.1588 -0.0648
  380MOL0     C52332   6.622   4.186   6.601  0.8166  0.6626 -0.1431
  380MOL0     O52333   6.726   4.091   6.605 -0.0852 -0.3289 -0.6952
  380MOL0     C52334   6.754   3.999   6.509 -0.2714  0.4639  0.4860
  380MOL0     C52335   6.685   3.969   6.390  0.5834  0.1553 -0.7918
  380MOL0     C52336   6.739   3.866   6.305  0.5947  0.1641 -0.0489
  380MOL0     C52337   6.856   3.791   6.348 -0.4120 -0.6179 -0.0746
  380MOL0     O52338   6.905   3.689   6.285  0.3650 -0.0674 -0.3060
  380MOL0     C52339   6.993   3.731   6.187  0.3055  1.5949  0.3368
  380MOL0     C52340   6.969   3.635   6.078  0.3161 -0.1304  0.5786
  380MOL0     C52341   6.850   3.659   6.001 -0.0086 -0.6049  0.3761
  380MOL0     C52342   6.827   3.553   5.890  0.1922 -0.6015 -0.1879
  380MOL0     C52343   6.940   3.544   5.784  0.4364  0.4200 -0.5547
  380MOL0     C52344   6.970   3.674   5.705  0.1219  0.7649  0.3311
  380MOL0     C52345   6.870   3.702   5.594  0.1323  0.0669 -0.4340
  380MOL0     C52346   6.899   3.626   5.459  0.3368 -0.1066 -0.1351
  380MOL0    Cl52347   7.051   3.676   5.394  0.1105 -0.1044  0.0825
  380MOL0     C52348   6.924   3.828   6.462  0.6388  0.5241  0.3475
  380MOL0     C52349   6.867   3.924   6.546  0.0667  0.2235 -0.6275
  380MOL0     O52350   6.538   4.206   6.511 -0.2123 -0.8793 -0.1960
  380MOL0     C52351   6.675   4.238   6.838  0.0930  0.1347  0.4360
  380MOL0     C52352   6.685   4.316   6.951  0.0969  0.2244 -0.9668
  380MOL0     N52353   6.879   4.906   7.241 -0.0556 -1.0142  0.5658
  380MOL0     N52354   6.965   4.942   7.155  0.3329 -0.1919  0.4842
  380MOL0     C52355   6.807   4.796   6.308 -0.0835  0.1388 -0.4441
  380MOL0     C52356   6.711   4.708   6.265 -0.0055 -0.9455  0.8373
  380MOL0     C52357   6.363   4.523   6.010  0.0278  0.5079  0.4962
  380MOL0     C52358   6.310   4.511   5.870  0.6942 -0.5875 -0.3505
  380MOL0     C52359   6.205   4.424   5.842  0.0705 -0.2462 -0.3303
  380MOL0     C52360   6.133   4.355   5.945  0.7430 -0.6862  0.4515
  380MOL0     O52361   6.027   4.268   5.928  0.3271 -0.6508  0.2766
  380MOL0     C52362   5.970   4.233   5.799 -0.4973 -0.3711 -0.6009
  380MOL0     C52363   5.854   4.128   5.825  0.4516  0.0846  0.4051
  380MOL0     C52364   5.906   3.987   5.874 -0.4727 -0.4814  0.0114
  380MOL0     C52365   5.791   3.885   5.888 -1.5463  0.4242 -0.8482
  380MOL0     C52366   5.691   3.932   5.983 -0.5497  0.3975 -0.4031
  380MOL0     C52367   5.610   3.962   6.074 -0.1093 -1.1724  1.2759
  380MOL0     C52368   6.169   4.389   6.072  0.7049 -0.0714 -0.8330
  380MOL0     C52369   6.286   4.456   6.118  0.2246  0.3908  0.9252
  380MOL0     C52370   6.318   4.456   6.260 -0.4610  0.4061  0.4708
  380MOL0     H52371   6.542   4.902   6.042 -0.7252 -0.4622  0.6132
  380MOL0     H52372   6.742   5.061   6.098  0.3217 -0.4654 -1.0975
  380MOL0     H52373   7.082   4.897   6.244  0.5394 -0.1477 -0.1965
  380MOL0     H52374   7.045   4.892   6.415 -1.0439 -2.5028 -0.6318
  380MOL0     H52375   7.244   5.040   6.372  0.7793 -2.6628 -2.6761
  380MOL0     H52376   7.143   5.112   6.246 -2.7238  2.3967  1.8291
  380MOL0     H52377   7.144   5.272   6.454  0.1483  0.4700 -1.4084
  380MOL0     H52378   6.986   5.193   6.435 -0.8200 -2.5890  1.4597
  380MOL0     H52379   6.995   5.071   6.617 -0.5519 -1.2959 -1.5866
  380MOL0     H52380   7.168   5.015   6.598 -0.5380 -0.9344  1.1756
  380MOL0     H52381   7.103   5.287   6.708 -0.6993 -1.1368  1.8984
  380MOL0     H52382   7.257   5.226   6.653 -0.9298 -0.9085 -2.0233
  380MOL0     H52383   7.291   5.061   6.828  2.6543  3.1433  2.3595
  380MOL0     H52384   7.237   5.213   6.901 -2.0166  0.9059  1.2665
  380MOL0     H52385   7.149   4.990   6.996  1.3211  1.6640 -1.0252
  380MOL0     H52386   7.064   4.962   6.843  3.1618 -1.3521  0.1766
  380MOL0     H52387   7.012   5.213   7.014 -1.8099 -0.0226  1.5631
  380MOL0     H52388   6.899   5.129   6.905  0.7098 -1.6016 -0.1463
  380MOL0     H52389   6.733   5.166   7.096 -1.8786 -3.1380 -2.2323
  380MOL0     H52390   6.577   5.055   7.300  1.2164  0.9280 -0.3479
  380MOL0     H52391   6.649   4.915   7.384 -0.9900 -2.2260  0.9494
  380MOL0     H52392   6.459   4.835   7.246 -0.9764 -0.3215 -1.4156
  380MOL0     H52393   6.536   4.892   7.099  1.6921 -2.0237 -0.8756
  380MOL0     H52394   6.720   4.736   7.134 -0.5728  3.9429 -1.1424
  380MOL0     H52395   6.651   4.699   7.301 -0.8716 -0.7933 -0.4493
  380MOL0     H52396   6.470   4.558   7.173  0.6451 -3.2976  0.0610
  380MOL0     H52397   6.507   4.663   7.035  0.6930  0.3102  0.1745
  380MOL0     H52398   6.519   4.594   6.827 -0.4089 -0.1228 -1.8929
  380MOL0     H52399   6.546   4.457   6.506  1.7389  1.3641  0.1947
  380MOL0     H52400   6.482   4.582   6.613 -2.6109 -0.6183  1.3463
  380MOL0     H52401   6.390   4.427   6.584 -0.5144  0.1476 -0.2672
  380MOL0     H52402   6.603   4.027   6.349  1.4512  0.0965 -2.6732
  380MOL0     H52403   6.683   3.844   6.215  3.3236 -1.3261 -1.4948
  380MOL0     H52404   6.982   3.834   6.152 -2.5285  2.4628  3.2124
  380MOL0     H52405   7.096   3.720   6.221 -0.5224  0.5639  2.7544
  380MOL0     H52406   7.046   3.629   6.000 -2.2320  0.2989 -2.1623
  380MOL0     H52407   6.959   3.539   6.130 -3.3557  1.1991  2.6608
  380MOL0     H52408   6.852   3.751   5.943  4.4101 -1.7260 -1.6734
  380MOL0     H52409   6.763   3.654   6.068  0.0564  3.2266  0.9428
  380MOL0     H52410   6.740   3.589   5.834  1.2352  1.7439 -0.4272
  380MOL0     H52411   6.803   3.452   5.924  2.4141 -2.3552 -3.3583
  380MOL0     H52412   7.034   3.513   5.830 -0.5779  0.1819  1.4899
  380MOL0     H52413   6.912   3.457   5.724  0.9061 -1.0055  1.2042
  380MOL0     H52414   7.073   3.668   5.668 -0.7252  1.0519 -2.2380
  380MOL0     H52415   6.981   3.760   5.772  1.0848  1.8853 -1.2040
  380MOL0     H52416   6.881   3.807   5.566  2.3730  0.3605  1.2190
  380MOL0     H52417   6.766   3.685   5.623  0.6286  2.9085  4.0292
  380MOL0     H52418   6.817   3.640   5.388  0.6564  1.6174 -0.2276
  380MOL0     H52419   6.903   3.520   5.483  0.7335  0.3140  1.7987
  380MOL0     H52420   7.012   3.782   6.506  0.8258  1.8823  1.4959
  380MOL0     H52421   6.907   3.940   6.646  1.1120 -1.4471 -0.7500
  380MOL0     H52422   6.692   4.131   6.842 -1.5700 -0.1977 -0.3651
  380MOL0     H52423   6.741   4.282   7.037  1.0171  3.1872 -0.2884
  380MOL0     H52424   6.868   4.749   6.385  0.9709  2.0563 -0.0608
  380MOL0     H52425   6.690   4.616   6.317 -1.4529 -0.3302  1.4122
  380MOL0     H52426   6.342   4.568   5.783 -1.7419 -1.8855 -2.2365
  380MOL0     H52427   6.166   4.419   5.741 -1.5797 -0.3697  0.2850
  380MOL0     H52428   5.919   4.319   5.754 -1.3013 -0.8353 -0.6014
  380MOL0     H52429   6.044   4.199   5.726  0.2141 -2.2733  0.9363
  380MOL0     H52430   5.804   4.108   5.730  2.0796 -3.6113  0.1458
  380MOL0     H52431   5.777   4.171   5.890 -0.7246 -1.0961 -0.1307
  380MOL0     H52432   5.983   3.952   5.805 -1.4660  0.7772 -1.8350
  380MOL0     H52433   5.962   3.998   5.967  1.8026 -0.2287 -1.3222
  380MOL0     H52434   5.820   3.788   5.930 -0.7291  0.1965 -1.9033
  380MOL0     H52435   5.743   3.863   5.793 -0.8296 -0.2905 -1.0535
  380MOL0     H52436   5.537   3.986   6.150 -1.9565 -2.8946  0.1681
  380MOL0     H52437   6.107   4.344   6.148 -0.7166 -2.8250 -3.4215
  380MOL0     H52438   6.309   4.553   6.308 -1.1724 -0.0509  1.2931
  380MOL0     H52439   6.251   4.388   6.314  0.7007  1.0708  2.8791
  380MOL0     H52440   6.422   4.427   6.276 -0.8015  0.3285  3.0000
  381MOL0     O52441   2.790   6.559   4.390 -0.3338  0.3553  0.4873
  381MOL0     C52442   2.710   6.523   4.474 -0.3309  0.1904  0.5462
  381MOL0     O52443   2.722   6.544   4.602 -0.5323  0.0901 -0.1326
  381MOL0     C52444   2.848   6.573   4.646  1.0000 -0.0559  0.7390
  381MOL0     C52445   2.862   6.707   4.688 -0.1720 -0.5552  0.0205
  381MOL0     C52446   2.982   6.749   4.740 -0.3266 -0.5000 -0.3129
  381MOL0     C52447   3.091   6.658   4.757 -0.7684  0.1017 -0.4180
  381MOL0     O52448   3.210   6.687   4.817  1.1778 -0.0588  0.4208
  381MOL0     C52449   3.246   6.817   4.857  0.2311  0.8349  0.1389
  381MOL0     C52450   3.179   6.864   4.992  0.0951  0.2314 -0.0733
  381MOL0     C52451   3.194   7.012   5.024 -0.6754  0.0756  0.0964
  381MOL0     C52452   3.087   7.068   5.130 -0.6006  0.8611 -0.8027
  381MOL0     C52453   3.067   6.976   5.256 -0.2052  0.6720 -0.1349
  381MOL0     C52454   2.967   7.047   5.354  0.7899 -0.2111  0.2947
  381MOL0     C52455   2.925   6.953   5.470 -0.4427 -0.2682  0.5830
  381MOL0     C52456   2.801   6.871   5.428  1.2352 -0.8844  0.0487
  381MOL0     N52457   2.740   6.775   5.526 -0.9644 -0.0603 -0.0386
  381MOL0     C52458   2.762   6.780   5.663  0.1916 -0.5305 -0.3036
  381MOL0     C52459   2.716   6.658   5.714  0.8890 -0.3436 -0.0399
  381MOL0     C52460   2.723   6.617   5.852 -0.3748 -1.0636  0.0121
  381MOL0     C52461   2.591   6.648   5.928 -1.0050  0.3488  0.1089
  381MOL0     C52462   2.579   6.539   6.028  0.3609  0.6059 -0.2551
  381MOL0     C52463   2.450   6.547   6.109  0.2784  0.6363  0.2422
  381MOL0     O52464   2.471   6.609   6.234 -0.1981  0.3884  0.9024
  381MOL0     C52465   2.515   6.520   6.333  0.1701  0.2608  0.0883
  381MOL0     C52466   2.566   6.390   6.314  0.1220  0.4387  0.3000
  381MOL0     C52467   2.603   6.304   6.421  1.4407 -0.4058 -1.2014
  381MOL0     C52468   2.657   6.171   6.382  0.8749  0.3190  0.4175
  381MOL0     C52469   2.558   6.335   6.548  0.3166 -0.5090 -0.4977
  381MOL0     C52470   2.540   6.233   6.663  0.4445  0.2646  0.5280
  381MOL0     O52471   2.493   6.113   6.626 -0.1532  0.1517 -0.4665
  381MOL0     C52472   2.499   6.023   6.730 -0.3155  0.4724 -0.2486
  381MOL0     C52473   2.626   5.963   6.761  0.5664 -0.5124  0.1709
  381MOL0     C52474   2.644   5.888   6.874 -0.9575  0.2793  0.1098
  381MOL0     C52475   2.534   5.868   6.955 -1.0131  0.1877 -1.1165
  381MOL0     O52476   2.561   5.817   7.082  0.0233 -0.1858  0.4755
  381MOL0     C52477   2.518   5.679   7.095 -0.1468  0.0477 -0.6686
  381MOL0     C52478   2.607   5.573   7.032 -0.7632 -0.3088  0.4893
  381MOL0     C52479   2.759   5.600   7.063  0.8311  0.5384  1.5438
  381MOL0     C52480   2.862   5.500   7.005 -0.0809  0.4164 -0.5082
  381MOL0     C52481   2.844   5.356   7.073 -1.0273 -0.5052 -0.4115
  381MOL0     C52482   2.955   5.251   7.048 -0.0189  0.1877  0.9391
  381MOL0     C52483   2.916   5.126   7.109  0.0390 -0.9240 -0.5886
  381MOL0     C52484   2.822   5.050   7.026  0.0461  0.3021  0.2346
  381MOL0    Cl52485   2.834   4.879   7.070 -0.2484 -0.2025 -0.5423
  381MOL0     C52486   2.414   5.912   6.920  0.1894 -0.0407 -0.7370
  381MOL0     C52487   2.390   5.984   6.808 -0.3888  0.0568 -0.1041
  381MOL0     O52488   2.562   6.261   6.779 -0.0162 -0.5487  0.4136
  381MOL0     C52489   2.508   6.466   6.572  0.1480  0.5678 -0.2972
  381MOL0     C52490   2.483   6.557   6.471 -0.2968 -0.1696 -0.6767
  381MOL0     N52491   2.662   6.590   5.603  0.3847  0.1365  0.3591
  381MOL0     N52492   2.680   6.659   5.497 -0.3358  0.2515  0.6570
  381MOL0     C52493   3.075   6.525   4.713  0.2852 -0.4715  0.4573
  381MOL0     C52494   2.954   6.485   4.654 -0.1074  0.9287 -1.4059
  381MOL0     C52495   2.596   6.453   4.420 -0.3203 -0.0298  0.2522
  381MOL0     C52496   2.490   6.459   4.501  0.0982  0.5369  0.7876
  381MOL0     C52497   2.375   6.401   4.463  0.0178 -0.7017  0.0384
  381MOL0     C52498   2.348   6.350   4.339  0.4648  1.1470  0.2215
  381MOL0     O52499   2.225   6.298   4.310 -0.4667  0.0777  0.0327
  381MOL0     C52500   2.179   6.252   4.186 -0.7981 -0.1311  0.0497
  381MOL0     C52501   2.027   6.308   4.169 -0.4111  1.0452  0.1822
  381MOL0     C52502   1.929   6.222   4.254 -0.4191  1.4057 -0.1316
  381MOL0     C52503   1.785   6.262   4.235  0.3761  0.1216 -0.1550
  381MOL0     C52504   1.743   6.382   4.309 -0.0054 -0.0927  0.5980
  381MOL0     C52505   1.693   6.477   4.366 -0.3839  0.1703  0.6073
  381MOL0     C52506   2.457   6.338   4.253 -1.0318 -0.6927 -0.4057
  381MOL0     C52507   2.584   6.386   4.294 -0.6465 -0.4325  0.1992
  381MOL0     C52508   2.698   6.387   4.187  0.8327 -1.4462 -0.5978
  381MOL0     H52509   2.783   6.779   4.672 -0.5064  0.0842  3.7690
  381MOL0     H52510   2.993   6.853   4.766 -1.9180 -0.3749 -0.0142
  381MOL0     H52511   3.217   6.887   4.777  1.6024 -1.0880 -2.1905
  381MOL0     H52512   3.355   6.826   4.865  0.2263  5.6279 -1.8188
  381MOL0     H52513   3.075   6.836   4.973  0.6925 -2.2522  0.0794
  381MOL0     H52514   3.229   6.802   5.066 -1.0272 -0.1038  0.4192
  381MOL0     H52515   3.289   7.036   5.071 -1.8201 -0.2478  2.7808
  381MOL0     H52516   3.177   7.067   4.931 -2.3823 -0.9741 -0.2609
  381MOL0     H52517   3.119   7.167   5.163  0.5272  1.0861 -2.4245
  381MOL0     H52518   2.993   7.092   5.079 -0.3858  1.4440 -0.9388
  381MOL0     H52519   3.156   6.946   5.312 -0.1983 -0.9946 -0.9480
  381MOL0     H52520   3.037   6.875   5.226  4.0088 -2.3696  4.2155
  381MOL0     H52521   3.020   7.132   5.395  2.3551 -2.6046  3.6912
  381MOL0     H52522   2.873   7.069   5.303 -0.4360 -1.7659  1.7560
  381MOL0     H52523   2.905   7.005   5.564  1.2544 -1.1384  1.4683
  381MOL0     H52524   3.001   6.876   5.488 -0.5051 -0.2934  0.7346
  381MOL0     H52525   2.717   6.939   5.414  2.1124 -0.0901 -1.6770
  381MOL0     H52526   2.822   6.830   5.329  0.9405  0.7335 -0.7153
  381MOL0     H52527   2.807   6.860   5.720 -2.0854  1.3165 -0.9546
  381MOL0     H52528   2.810   6.658   5.904 -0.7852 -1.0511  0.7052
  381MOL0     H52529   2.739   6.509   5.842  2.0785 -0.7221 -0.3721
  381MOL0     H52530   2.590   6.750   5.967  0.2932  0.4521 -0.0743
  381MOL0     H52531   2.511   6.640   5.854 -1.9654 -4.1869  1.3060
  381MOL0     H52532   2.573   6.449   5.967 -0.9517  2.0935 -2.4887
  381MOL0     H52533   2.664   6.541   6.097 -2.0361  3.5896  3.0046
  381MOL0     H52534   2.379   6.612   6.057 -3.2794 -0.4288  3.2555
  381MOL0     H52535   2.412   6.444   6.114  1.3531  0.2675  1.7426
  381MOL0     H52536   2.602   6.366   6.215  1.2771 -0.8604  1.0105
  381MOL0     H52537   2.725   6.175   6.296 -1.9249 -1.7714 -2.1339
  381MOL0     H52538   2.582   6.098   6.350 -1.5844  2.4911  0.7953
  381MOL0     H52539   2.713   6.140   6.470 -0.5975  2.3633  2.1915
  381MOL0     H52540   2.718   5.999   6.715  0.8430 -0.5094  0.7122
  381MOL0     H52541   2.739   5.851   6.909 -0.6579 -0.2650 -1.2128
  381MOL0     H52542   2.513   5.656   7.202 -2.2027 -3.0548 -1.2970
  381MOL0     H52543   2.420   5.658   7.051 -0.2707  1.5967 -1.1790
  381MOL0     H52544   2.583   5.474   7.071 -1.3185 -0.9971 -1.4738
  381MOL0     H52545   2.591   5.570   6.923  2.4053  0.9301 -0.1207
  381MOL0     H52546   2.788   5.601   7.168  2.4933 -1.7828  1.1819
  381MOL0     H52547   2.790   5.695   7.019 -1.4296 -0.5526 -3.1051
  381MOL0     H52548   2.957   5.542   7.038  0.0620  1.2541 -1.9064
  381MOL0     H52549   2.842   5.495   6.898  2.0189  3.6228 -1.1904
  381MOL0     H52550   2.851   5.373   7.180 -0.0907 -1.2795 -0.3423
  381MOL0     H52551   2.744   5.318   7.050 -0.6363 -0.3550 -2.6638
  381MOL0     H52552   3.051   5.282   7.091 -1.2883  5.9747  0.4618
  381MOL0     H52553   2.976   5.251   6.941  0.2732  4.1352  0.8328
  381MOL0     H52554   2.877   5.155   7.207  3.1060  1.3813  0.0953
  381MOL0     H52555   3.008   5.070   7.127  1.6925  2.0638  0.9623
  381MOL0     H52556   2.837   5.066   6.919 -2.3022 -1.7458 -0.4843
  381MOL0     H52557   2.720   5.070   7.059 -0.1060 -1.5028  0.9623
  381MOL0     H52558   2.329   5.903   6.986  0.3832  1.9896 -0.1597
  381MOL0     H52559   2.294   6.027   6.783 -0.0973 -0.2008 -1.7891
  381MOL0     H52560   2.469   6.483   6.672  0.0988 -0.9063 -0.0396
  381MOL0     H52561   2.438   6.655   6.487 -3.0214 -1.1669 -1.7305
  381MOL0     H52562   3.155   6.453   4.722  1.6872  0.9963  0.1652
  381MOL0     H52563   2.957   6.386   4.608  1.6049  1.0523 -1.6316
  381MOL0     H52564   2.474   6.513   4.594 -3.0842  3.4157 -1.1821
  381MOL0     H52565   2.290   6.417   4.529 -0.9083 -1.7489 -0.8531
  381MOL0     H52566   2.250   6.287   4.110  1.1255 -2.3449  0.7168
  381MOL0     H52567   2.180   6.143   4.189 -1.3989 -0.1459 -0.1681
  381MOL0     H52568   1.996   6.314   4.064 -3.0020 -0.9071  0.7360
  381MOL0     H52569   2.024   6.407   4.216 -0.0434  0.4716  1.4341
  381MOL0     H52570   1.944   6.115   4.233 -2.1991  1.1771 -0.3256
  381MOL0     H52571   1.970   6.232   4.355 -1.9743  2.1551  0.4513
  381MOL0     H52572   1.729   6.177   4.274 -1.5984  1.3770 -0.0740
  381MOL0     H52573   1.757   6.279   4.131 -1.9988 -0.1462  0.3842
  381MOL0     H52574   1.651   6.559   4.420  1.2192  2.1978 -1.0299
  381MOL0     H52575   2.431   6.308   4.152 -2.8087 -2.0933  0.4131
  381MOL0     H52576   2.666   6.321   4.106 -1.2833 -1.2100 -0.0055
  381MOL0     H52577   2.714   6.485   4.141  1.0918 -1.4063 -0.4242
  381MOL0     H52578   2.785   6.337   4.230  2.1814  1.8478  0.8325
  382MOL0     O52579   1.220   2.988   0.947  0.7269 -0.4209 -1.1514
  382MOL0     C52580   1.283   2.881   0.960  0.0443  1.0650  0.4385
  382MOL0     O52581   1.295   2.808   1.073  0.4736  0.1978  0.5082
  382MOL0     C52582   1.233   2.832   1.193  0.1345  0.4988 -0.2687
  382MOL0     C52583   1.294   2.768   1.309  1.5585 -0.7394  0.2111
  382MOL0     C52584   1.249   2.771   1.438  0.1674  0.4380  0.0331
  382MOL0     C52585   1.139   2.854   1.463  0.6167  0.5913  0.4500
  382MOL0     O52586   1.080   2.861   1.589  0.1222 -0.5311 -0.1996
  382MOL0     C52587   1.167   2.852   1.702  0.7557  0.6115  0.0998
  382MOL0     C52588   1.110   2.899   1.841 -0.0860  0.2101  0.1442
  382MOL0     C52589   1.194   2.850   1.959  0.6945 -0.0300  0.2949
  382MOL0     C52590   1.133   2.866   2.095 -0.3367 -0.6126 -0.5655
  382MOL0     C52591   1.224   2.839   2.210  1.0140  0.3140 -0.2909
  382MOL0     C52592   1.287   2.698   2.210  0.3576  0.2304 -0.3177
  382MOL0     C52593   1.395   2.671   2.311 -0.3594 -0.8614  1.3170
  382MOL0     C52594   1.331   2.625   2.444 -1.3434  0.7214  0.2047
  382MOL0     N52595   1.430   2.636   2.551 -0.1153 -0.8503  0.2039
  382MOL0     C52596   1.441   2.737   2.644 -0.4593  0.0005  0.3045
  382MOL0     C52597   1.553   2.714   2.722 -0.3832 -0.0468  0.7825
  382MOL0     C52598   1.619   2.792   2.838 -0.4662  0.0739 -0.6411
  382MOL0     C52599   1.534   2.775   2.961 -0.5027 -0.0359 -0.8064
  382MOL0     C52600   1.599   2.851   3.083 -0.2873  0.0132 -0.2420
  382MOL0     C52601   1.503   2.860   3.203  0.1093 -0.2123  0.1083
  382MOL0     O52602   1.392   2.941   3.163 -0.8794  0.4912 -0.0535
  382MOL0     C52603   1.301   2.985   3.261  0.6448  0.5411  0.2915
  382MOL0     C52604   1.196   3.079   3.226 -0.3183 -0.4596 -0.3002
  382MOL0     C52605   1.102   3.142   3.318 -0.5124 -0.2595 -0.0184
  382MOL0     C52606   1.004   3.238   3.250 -0.6565 -0.1580 -0.7759
  382MOL0     C52607   1.110   3.107   3.453 -0.8794  0.6572  0.3873
  382MOL0     C52608   1.030   3.160   3.558  1.0682  0.2192  0.0800
  382MOL0     O52609   0.973   3.078   3.652 -0.1990 -0.1482  0.0968
  382MOL0     C52610   0.877   3.117   3.741 -0.2396 -0.0243  0.9206
  382MOL0     C52611   0.903   3.099   3.871  0.3356  0.5045  0.2635
  382MOL0     C52612   0.816   3.148   3.963  0.5542  0.1849 -1.4743
  382MOL0     C52613   0.696   3.208   3.921 -0.0266  0.5023 -0.0809
  382MOL0     O52614   0.597   3.247   4.011  0.5276  0.1515 -0.3167
  382MOL0     C52615   0.583   3.155   4.120  0.1885 -1.2907 -0.2504
  382MOL0     C52616   0.444   3.183   4.179  0.9497  0.4647  0.6499
  382MOL0     C52617   0.338   3.089   4.111  0.4748  0.1317  0.3667
  382MOL0     C52618   0.325   3.112   3.959 -0.6791 -1.4436  0.2990
  382MOL0     C52619   0.254   2.994   3.893 -0.0334 -0.5094  0.7916
  382MOL0     C52620   0.316   2.856   3.897  0.0905  0.3550  0.8065
  382MOL0     C52621   0.452   2.853   3.824 -0.1364  0.2803 -0.1916
  382MOL0     C52622   0.511   2.725   3.797 -0.5115  0.7200 -0.3708
  382MOL0    Cl52623   0.658   2.727   3.687  0.1622 -0.5060  0.4579
  382MOL0     C52624   0.664   3.216   3.787  0.0968 -0.1437 -0.5307
  382MOL0     C52625   0.754   3.170   3.694 -0.4793  0.3866 -0.7571
  382MOL0     O52626   1.024   3.283   3.568 -0.1055 -0.1205  0.6148
  382MOL0     C52627   1.211   3.006   3.490 -0.7578  0.3335 -0.2816
  382MOL0     C52628   1.293   2.948   3.393  0.3493  0.3218 -0.1194
  382MOL0     N52629   1.605   2.598   2.673  0.6066  0.0007  0.3318
  382MOL0     N52630   1.525   2.540   2.583  0.3199  0.6593 -0.5546
  382MOL0     C52631   1.077   2.925   1.362 -0.4379  1.2088 -0.0613
  382MOL0     C52632   1.124   2.914   1.226  0.1275 -0.2748  0.4927
  382MOL0     C52633   1.351   2.838   0.834  0.2823 -0.0479 -0.4903
  382MOL0     C52634   1.319   2.719   0.778  0.9322  0.8266  0.6601
  382MOL0     C52635   1.383   2.662   0.662 -0.0039  0.6701  0.1307
  382MOL0     C52636   1.492   2.737   0.598 -0.7033 -0.3359  1.1154
  382MOL0     O52637   1.559   2.703   0.482 -0.5025  0.2237  0.6232
  382MOL0     C52638   1.502   2.600   0.397 -0.0977 -0.4101 -0.3908
  382MOL0     C52639   1.387   2.668   0.318 -0.4065 -0.4527 -0.0597
  382MOL0     C52640   1.452   2.754   0.208  0.5551  0.3489  0.9183
  382MOL0     C52641   1.343   2.826   0.124 -0.1703  0.1377  0.3591
  382MOL0     C52642   1.326   2.779  -0.017  0.1840  0.5868 -0.4640
  382MOL0     C52643   1.326   2.738  -0.131  0.2333 -0.8906 -0.0536
  382MOL0     C52644   1.523   2.855   0.656 -0.7341 -0.0847  0.1066
  382MOL0     C52645   1.462   2.912   0.772 -0.9512  0.4672 -0.0541
  382MOL0     C52646   1.509   3.047   0.820 -0.8489 -1.0387  0.1443
  382MOL0     H52647   1.386   2.714   1.290  1.4834 -0.2051 -2.0430
  382MOL0     H52648   1.294   2.700   1.506 -5.0858 -2.4509  1.1002
  382MOL0     H52649   1.260   2.904   1.678  1.7306 -0.8829  0.5136
  382MOL0     H52650   1.190   2.745   1.707 -0.6351  0.3263  0.9240
  382MOL0     H52651   1.086   3.006   1.837 -1.7237 -0.1230 -3.5523
  382MOL0     H52652   1.013   2.849   1.855  1.0672 -1.6592  1.9118
  382MOL0     H52653   1.231   2.748   1.947  3.4241  0.7647  1.1624
  382MOL0     H52654   1.285   2.911   1.962  0.5842  0.3011 -1.7010
  382MOL0     H52655   1.088   2.964   2.114  0.8196 -0.2604  0.5169
  382MOL0     H52656   1.056   2.789   2.104 -1.1174 -0.0911 -2.4739
  382MOL0     H52657   1.165   2.854   2.301 -1.6542 -1.2322 -1.6608
  382MOL0     H52658   1.300   2.916   2.225  1.5896 -0.2677 -0.1806
  382MOL0     H52659   1.210   2.621   2.221 -0.3683  0.8195 -1.1491
  382MOL0     H52660   1.323   2.661   2.113  0.0490 -1.0669  0.0373
  382MOL0     H52661   1.458   2.760   2.323 -0.0509 -0.2785 -3.1176
  382MOL0     H52662   1.462   2.592   2.276  0.1370  0.6042 -1.2940
  382MOL0     H52663   1.241   2.686   2.456 -0.3546  2.5878 -1.2484
  382MOL0     H52664   1.290   2.524   2.439 -3.2417  1.4653 -4.9538
  382MOL0     H52665   1.366   2.812   2.665 -1.3373 -1.2382  1.7766
  382MOL0     H52666   1.620   2.892   2.794  1.9922  1.2073  1.7204
  382MOL0     H52667   1.720   2.754   2.851 -0.4509  0.6006  0.9676
  382MOL0     H52668   1.438   2.822   2.938  0.2888  1.1506 -1.8179
  382MOL0     H52669   1.518   2.670   2.987  2.2101 -0.2489  0.4251
  382MOL0     H52670   1.698   2.814   3.113 -1.4860 -1.2638  2.4351
  382MOL0     H52671   1.612   2.951   3.041 -0.7431  0.8754  1.5764
  382MOL0     H52672   1.470   2.758   3.224 -0.3608 -0.5172 -1.8539
  382MOL0     H52673   1.557   2.906   3.286 -1.4862  0.6654  0.7127
  382MOL0     H52674   1.186   3.110   3.123 -0.8578 -1.0597 -0.4334
  382MOL0     H52675   0.908   3.236   3.302 -0.5549 -1.3897 -0.6082
  382MOL0     H52676   0.996   3.233   3.141 -0.3321  3.5481 -1.0731
  382MOL0     H52677   1.054   3.334   3.265  0.0454 -0.6077 -0.1567
  382MOL0     H52678   0.987   3.041   3.908  0.9437  1.4745  0.4552
  382MOL0     H52679   0.829   3.130   4.069  1.3240 -0.0382 -1.6014
  382MOL0     H52680   0.583   3.050   4.093 -3.8756 -1.3553 -0.5670
  382MOL0     H52681   0.659   3.184   4.193 -1.0491 -2.7738  1.7239
  382MOL0     H52682   0.435   3.169   4.287 -1.2850 -2.5288  0.1972
  382MOL0     H52683   0.414   3.286   4.158 -1.3703  0.0321  1.5274
  382MOL0     H52684   0.240   3.101   4.157  0.6837 -1.3212  1.2864
  382MOL0     H52685   0.368   2.984   4.125 -2.1878 -0.6859  0.4554
  382MOL0     H52686   0.421   3.131   3.912 -0.3339  0.7894  1.7389
  382MOL0     H52687   0.264   3.202   3.945  0.5107 -0.9983 -2.8175
  382MOL0     H52688   0.154   2.986   3.936 -0.7366  0.9846 -0.4304
  382MOL0     H52689   0.224   3.022   3.791 -2.2198 -0.7220  1.3294
  382MOL0     H52690   0.245   2.797   3.837  0.8037 -0.4067  0.6850
  382MOL0     H52691   0.316   2.815   3.998  0.3759 -4.2576 -0.8072
  382MOL0     H52692   0.508   2.913   3.897 -0.2798 -2.3558  2.2353
  382MOL0     H52693   0.440   2.905   3.728 -0.5344 -2.0458 -1.4846
  382MOL0     H52694   0.430   2.658   3.766  0.5853 -1.2586  0.8410
  382MOL0     H52695   0.544   2.690   3.895  1.5580  1.9471 -0.5773
  382MOL0     H52696   0.575   3.262   3.743  0.6377  0.6996 -0.7655
  382MOL0     H52697   0.743   3.172   3.586 -1.0883 -0.0960 -0.7142
  382MOL0     H52698   1.230   2.980   3.593 -0.9126  2.7169  0.3962
  382MOL0     H52699   1.375   2.881   3.419 -0.6802 -0.7731  0.3840
  382MOL0     H52700   1.004   3.004   1.376 -0.2974  1.3086  0.1187
  382MOL0     H52701   1.076   2.971   1.147 -0.7660 -1.8329 -0.1446
  382MOL0     H52702   1.226   2.670   0.806  1.2214 -0.3480 -0.3609
  382MOL0     H52703   1.339   2.570   0.626 -0.5175  0.4515  1.2789
  382MOL0     H52704   1.565   2.553   0.321 -0.6063  0.1553 -1.1775
  382MOL0     H52705   1.463   2.515   0.454 -0.3815  1.5685  2.6219
  382MOL0     H52706   1.320   2.735   0.373  0.1291 -0.1987  0.2923
  382MOL0     H52707   1.318   2.591   0.285  0.2864 -1.3711  0.5859
  382MOL0     H52708   1.516   2.824   0.262  1.2675  0.5635 -0.1600
  382MOL0     H52709   1.508   2.695   0.134 -2.2099  1.2093 -2.0722
  382MOL0     H52710   1.374   2.930   0.114 -2.2471  0.6976 -0.8404
  382MOL0     H52711   1.243   2.836   0.168 -0.7248 -1.3602 -0.4804
  382MOL0     H52712   1.327   2.682  -0.222 -0.7590  0.2698 -0.8148
  382MOL0     H52713   1.608   2.902   0.607 -0.6083 -2.3828 -2.0586
  382MOL0     H52714   1.529   3.106   0.730 -1.9699  0.4340  0.8038
  382MOL0     H52715   1.434   3.104   0.877 -1.8253 -1.4186 -0.7183
  382MOL0     H52716   1.599   3.033   0.880  2.4479  0.3748 -4.0071
  383MOL0     O52717  10.913   2.259   7.761 -0.0254  0.1262 -0.8232
  383MOL0     C52718  10.929   2.381   7.755 -0.0271  0.8116  0.0412
  383MOL0     O52719  10.863   2.464   7.667 -0.0546  0.4212  0.1669
  383MOL0     C52720  10.792   2.402   7.569  0.2029  0.4064  0.0824
  383MOL0     C52721  10.659   2.395   7.578  0.5193 -0.0571  0.4764
  383MOL0     C52722  10.590   2.322   7.476  1.1134  0.5816 -0.7006
  383MOL0     C52723  10.644   2.253   7.366 -2.0276 -0.8365 -0.4642
  383MOL0     O52724  10.585   2.185   7.270  0.3742  0.1214  0.0048
  383MOL0     C52725  10.443   2.175   7.260 -0.9904  0.0932  0.4760
  383MOL0     C52726  10.421   2.093   7.132 -0.4935 -0.1143 -0.8028
  383MOL0     C52727  10.433   1.943   7.158 -0.1743  1.0327 -0.3992
  383MOL0     C52728  10.577   1.884   7.132  0.0636  0.1190  0.2365
  383MOL0     C52729  10.587   1.737   7.166 -0.2750  0.7067  1.4179
  383MOL0     C52730  10.488   1.643   7.102 -0.7753 -0.3080 -0.4681
  383MOL0     C52731  10.519   1.508   7.163 -0.0357  0.7633 -0.4967
  383MOL0     C52732  10.433   1.403   7.100 -0.5609  0.2674  0.3624
  383MOL0     N52733  10.497   1.371   6.964  0.2250 -0.9162 -0.8095
  383MOL0     C52734  10.468   1.433   6.845 -0.7434  0.1181 -0.3747
  383MOL0     C52735  10.557   1.375   6.757  0.3248  1.0275  0.4795
  383MOL0     C52736  10.575   1.399   6.610  0.0243  0.4552 -0.1286
  383MOL0     C52737  10.501   1.288   6.525  0.1051 -0.4085  0.3176
  383MOL0     C52738  10.341   1.290   6.550 -0.6354  0.1979  0.3606
  383MOL0     C52739  10.281   1.155   6.480 -0.5069 -0.6282  0.1314
  383MOL0     O52740  10.281   1.054   6.581  0.2233  0.2415 -1.0311
  383MOL0     C52741  10.245   0.933   6.538  0.3477 -0.9495 -0.8473
  383MOL0     C52742  10.319   0.872   6.432  0.0610 -0.1376  0.6248
  383MOL0     C52743  10.282   0.746   6.389 -0.2680  0.3653  0.3405
  383MOL0     C52744  10.361   0.688   6.269  0.0594  0.5449 -0.4188
  383MOL0     C52745  10.177   0.679   6.446  0.4738  0.6483  0.8092
  383MOL0     C52746  10.145   0.543   6.401  0.8937  0.3828  0.3849
  383MOL0     O52747  10.142   0.520   6.268  0.6596  0.5429 -0.1499
  383MOL0     C52748  10.061   0.425   6.202 -0.6029  0.2009 -0.0955
  383MOL0     C52749  10.079   0.295   6.230  0.0055  0.7434 -0.1076
  383MOL0     C52750   9.991   0.198   6.185 -0.3919 -1.1175  0.9398
  383MOL0     C52751   9.888   0.244   6.097  0.5899 -0.0893 -0.5761
  383MOL0     O52752   9.790   0.171   6.023 -0.1119  0.4080 -0.3238
  383MOL0     C52753   9.742   0.050   6.087 -0.2313 -0.6278  0.0102
  383MOL0     C52754   9.616   0.015   6.019  0.0612  0.9084 -0.2997
  383MOL0     C52755   9.504   0.123   6.054  0.6819 -0.2159  1.0810
  383MOL0     C52756   9.440   0.180   5.914  0.0820  0.5095 -0.5328
  383MOL0     C52757   9.313   0.276   5.937  0.3807  0.0752  0.3822
  383MOL0     C52758   9.266   0.378   5.822  0.6118  0.5317  0.7821
  383MOL0     C52759   9.128   0.439   5.871  0.0318 -0.2820 -0.4810
  383MOL0     C52760   9.152   0.576   5.931 -0.5395  0.4150 -0.1006
  383MOL0    Cl52761   9.286   0.591   6.046 -0.0599 -0.2875  0.2860
  383MOL0     C52762   9.856   0.374   6.080 -0.7362  0.1655  0.8653
  383MOL0     C52763   9.955   0.464   6.125  0.2514  0.0578 -0.6876
  383MOL0     O52764  10.114   0.461   6.493 -1.3644  0.7214  0.5119
  383MOL0     C52765  10.109   0.747   6.556 -0.2892 -0.0239  0.4417
  383MOL0     C52766  10.139   0.872   6.603 -0.6139 -0.1142  0.2730
  383MOL0     N52767  10.638   1.277   6.821 -0.7109 -0.7591  0.6351
  383MOL0     N52768  10.591   1.275   6.946 -0.9500  0.5888 -0.3979
  383MOL0     C52769  10.786   2.260   7.364  0.6086 -0.8742  0.2489
  383MOL0     C52770  10.861   2.346   7.456  0.1264 -0.0476  0.2530
  383MOL0     C52771  11.023   2.436   7.851  0.8234 -0.8785 -0.3373
  383MOL0     C52772  11.098   2.341   7.930 -0.2595 -0.4432 -0.5367
  383MOL0     C52773  11.190   2.384   8.025 -0.4573 -0.2502 -0.1894
  383MOL0     C52774  11.209   2.521   8.050 -0.9332 -0.5111  0.7191
  383MOL0     O52775  11.288   2.566   8.149 -0.5108 -0.3202  0.1858
  383MOL0     C52776  11.227   2.566   8.285 -0.3361  0.1397  0.7339
  383MOL0     C52777  11.326   2.626   8.383  0.0900  0.1475 -0.4050
  383MOL0     C52778  11.330   2.781   8.389 -0.2417 -0.0285  0.6407
  383MOL0     C52779  11.414   2.841   8.502  0.0341 -0.9849 -0.9835
  383MOL0     C52780  11.548   2.822   8.461  0.3439 -0.3244 -0.5123
  383MOL0     C52781  11.661   2.811   8.411  0.7743  0.4252  0.6373
  383MOL0     C52782  11.132   2.619   7.980  0.7033  0.2009 -0.8769
  383MOL0     C52783  11.038   2.575   7.879 -0.3390  1.0163 -0.6017
  383MOL0     C52784  10.973   2.688   7.803 -0.5746  0.6763  0.6648
  383MOL0     H52785  10.605   2.450   7.655  0.0660  1.8705 -1.1516
  383MOL0     H52786  10.481   2.327   7.481  1.1419  0.5825 -0.0439
  383MOL0     H52787  10.415   2.279   7.239  2.6951  0.6650 -2.9919
  383MOL0     H52788  10.409   2.130   7.353  1.8230  1.3764  2.2834
  383MOL0     H52789  10.320   2.110   7.093  0.4163  0.4530 -3.0591
  383MOL0     H52790  10.487   2.129   7.053  2.0534 -0.5034  1.0191
  383MOL0     H52791  10.398   1.909   7.256  2.6434 -3.3462 -0.6350
  383MOL0     H52792  10.365   1.910   7.079  0.8000  0.7431 -1.1330
  383MOL0     H52793  10.610   1.895   7.028  1.5923 -0.3307  0.6400
  383MOL0     H52794  10.643   1.947   7.192 -1.0842 -0.0036  1.6607
  383MOL0     H52795  10.582   1.730   7.275  0.7033 -2.0111  1.3598
  383MOL0     H52796  10.689   1.701   7.145 -1.3573 -1.0344 -1.4458
  383MOL0     H52797  10.382   1.667   7.115 -0.8211 -0.6109 -0.2674
  383MOL0     H52798  10.499   1.657   6.994  0.1953 -0.6710 -0.4302
  383MOL0     H52799  10.503   1.503   7.271  1.5273  2.0249 -0.1659
  383MOL0     H52800  10.623   1.475   7.150 -0.4349 -0.7743  0.0946
  383MOL0     H52801  10.427   1.310   7.158 -1.3448  0.1937  0.1725
  383MOL0     H52802  10.332   1.438   7.077  0.7681  2.1203 -3.6400
  383MOL0     H52803  10.400   1.517   6.836  2.7379  4.3801  5.6841
  383MOL0     H52804  10.682   1.393   6.590  0.0920 -0.6266  0.4938
  383MOL0     H52805  10.544   1.498   6.576  1.1041  0.5435 -0.9081
  383MOL0     H52806  10.509   1.308   6.418 -1.4293  1.6177  0.5274
  383MOL0     H52807  10.539   1.190   6.557 -4.1386 -2.4452 -0.1898
  383MOL0     H52808  10.319   1.286   6.657 -1.1589  0.0199  0.2454
  383MOL0     H52809  10.303   1.383   6.507  2.8415  1.7913  0.3970
  383MOL0     H52810  10.186   1.189   6.439 -1.1705 -1.7290  0.7165
  383MOL0     H52811  10.347   1.139   6.394  0.8741  1.6755  0.6687
  383MOL0     H52812  10.403   0.927   6.390  2.0364 -1.6099  2.3758
  383MOL0     H52813  10.288   0.676   6.189 -0.3583 -0.1094  0.0607
  383MOL0     H52814  10.416   0.594   6.277 -4.1245 -2.0865  0.0644
  383MOL0     H52815  10.434   0.765   6.240 -2.9891  2.8681 -2.6416
  383MOL0     H52816  10.158   0.263   6.298  0.9412 -0.9633 -1.9123
  383MOL0     H52817  10.013   0.093   6.202  1.8562 -0.5414  1.9220
  383MOL0     H52818   9.823  -0.024   6.086  0.2682 -0.1541  1.7671
  383MOL0     H52819   9.714   0.067   6.191 -1.3850  0.7425 -0.4881
  383MOL0     H52820   9.614  -0.006   5.912 -1.9774  0.6406 -0.2487
  383MOL0     H52821   9.589  -0.080   6.067  0.8795  1.0433  0.4476
  383MOL0     H52822   9.539   0.207   6.116 -2.1759  1.2871  0.8109
  383MOL0     H52823   9.425   0.078   6.115 -1.9132 -0.9882 -2.5252
  383MOL0     H52824   9.410   0.102   5.843 -0.2063  0.3761 -0.2676
  383MOL0     H52825   9.519   0.243   5.873 -0.0850  0.6149 -0.6941
  383MOL0     H52826   9.231   0.208   5.961 -1.2110  1.1652 -1.6294
  383MOL0     H52827   9.330   0.340   6.024  3.8181  0.1870 -0.2093
  383MOL0     H52828   9.248   0.321   5.731 -2.8616  1.0591  0.9984
  383MOL0     H52829   9.341   0.455   5.803  2.1765 -0.9703  0.6481
  383MOL0     H52830   9.074   0.384   5.948 -2.1617 -1.5348 -2.7695
  383MOL0     H52831   9.058   0.463   5.790  1.5711  3.0411 -1.0181
  383MOL0     H52832   9.061   0.613   5.980  0.4798  2.2264  0.4845
  383MOL0     H52833   9.160   0.653   5.855  0.6852  0.9362  0.5355
  383MOL0     H52834   9.772   0.389   6.013 -0.2395  0.1020  0.2180
  383MOL0     H52835   9.955   0.568   6.095 -3.1601 -0.5038 -3.3222
  383MOL0     H52836  10.027   0.689   6.597 -0.8295  2.5991  3.4467
  383MOL0     H52837  10.099   0.925   6.690 -0.3742  0.5030  0.0135
  383MOL0     H52838  10.837   2.215   7.279  1.9306 -0.4279  0.7838
  383MOL0     H52839  10.969   2.356   7.447  1.0200 -2.5282  4.9142
  383MOL0     H52840  11.092   2.236   7.907  0.1151 -0.8670  1.1626
  383MOL0     H52841  11.243   2.312   8.086  1.1174  0.7428 -0.3283
  383MOL0     H52842  11.131   2.616   8.294 -1.0552 -1.3929  1.9950
  383MOL0     H52843  11.206   2.460   8.301 -3.1805 -0.0623 -2.9349
  383MOL0     H52844  11.425   2.583   8.366  1.7717  2.6979  1.9467
  383MOL0     H52845  11.286   2.585   8.476 -0.6221 -1.1848 -1.2693
  383MOL0     H52846  11.376   2.811   8.294  1.4581 -0.7569  1.1895
  383MOL0     H52847  11.226   2.812   8.404 -0.4548 -0.1490 -0.4760
  383MOL0     H52848  11.402   2.800   8.602 -0.8834  4.7341  1.6155
  383MOL0     H52849  11.399   2.948   8.518 -0.0937 -1.1187 -0.1994
  383MOL0     H52850  11.762   2.805   8.377  0.4948 -2.0347  0.0303
  383MOL0     H52851  11.163   2.722   7.990  2.4853 -0.4521  1.1988
  383MOL0     H52852  10.999   2.787   7.842  1.4350 -0.3115  2.0422
  383MOL0     H52853  11.011   2.683   7.701 -1.5446  0.5592  0.3000
  383MOL0     H52854  10.864   2.686   7.807 -0.7421  4.2235  4.1277
  384MOL0     O52855   1.487   2.723   1.734 -0.0200  0.0800 -0.2480
  384MOL0     C52856   1.580   2.785   1.791  0.0980  0.0874 -0.3734
  384MOL0     O52857   1.649   2.896   1.750  0.1151 -0.4247  0.1574
  384MOL0     C52858   1.586   2.963   1.660 -0.2599  0.1125 -0.1189
  384MOL0     C52859   1.513   3.077   1.695 -0.8230  0.9371  0.1412
  384MOL0     C52860   1.454   3.163   1.596 -0.6036  0.5569 -0.9475
  384MOL0     C52861   1.475   3.128   1.459  0.5439 -0.2345 -0.6126
  384MOL0     O52862   1.411   3.211   1.368  0.4107 -0.1177  0.1547
  384MOL0     C52863   1.395   3.182   1.232  0.0467 -0.7496  0.4650
  384MOL0     C52864   1.295   3.277   1.168 -0.7352 -1.8119 -0.5239
  384MOL0     C52865   1.170   3.284   1.248  0.8341  0.3473  0.7950
  384MOL0     C52866   1.119   3.418   1.267  0.6661 -0.7219  1.2441
  384MOL0     C52867   0.997   3.420   1.357  0.6782 -0.1986 -0.5280
  384MOL0     C52868   0.875   3.329   1.319 -0.1021 -0.2454 -0.9135
  384MOL0     C52869   0.816   3.379   1.184  0.2083  0.1689 -0.4501
  384MOL0     C52870   0.678   3.320   1.169 -0.3138 -1.2029  0.4307
  384MOL0     N52871   0.650   3.313   1.023  0.2225  1.1878  0.0652
  384MOL0     C52872   0.685   3.199   0.945 -0.0444 -0.6392  0.3676
  384MOL0     C52873   0.612   3.213   0.832  0.2023  1.6055 -0.3267
  384MOL0     C52874   0.622   3.139   0.703  0.2043 -1.1051  0.2437
  384MOL0     C52875   0.561   3.215   0.583 -0.4932 -0.4815 -1.1189
  384MOL0     C52876   0.561   3.140   0.451 -0.5195 -0.4988  0.4882
  384MOL0     C52877   0.460   3.194   0.341 -0.1882 -0.1118 -0.6404
  384MOL0     O52878   0.323   3.158   0.368  1.3331 -1.0021  0.4164
  384MOL0     C52879   0.223   3.226   0.285  0.6038 -0.0362 -0.4220
  384MOL0     C52880   0.106   3.260   0.351 -0.5282 -0.7168  0.3180
  384MOL0     C52881   0.001   3.322   0.284  0.2347 -0.1711  0.8079
  384MOL0     C52882  -0.116   3.353   0.373 -0.5504  0.3542 -0.0050
  384MOL0     C52883   0.021   3.364   0.149 -0.2246  0.5794 -0.4979
  384MOL0     C52884  -0.076   3.446   0.076 -0.3220 -0.1564  0.1254
  384MOL0     O52885  -0.034   3.494  -0.045 -0.5970 -0.1943  0.5465
  384MOL0     C52886  -0.111   3.593  -0.108 -0.2814 -0.4374 -0.5510
  384MOL0     C52887  -0.140   3.709  -0.041 -0.1854 -0.0254  0.1770
  384MOL0     C52888  -0.211   3.812  -0.096 -1.3448 -0.3489 -0.5401
  384MOL0     C52889  -0.255   3.793  -0.226  0.7546 -0.1020  0.0593
  384MOL0     O52890  -0.345   3.879  -0.291  1.0320  0.6389 -0.1398
  384MOL0     C52891  -0.445   3.956  -0.229  0.0648  0.3163  1.0125
  384MOL0     C52892  -0.558   3.886  -0.154  0.5689 -0.3033 -0.5672
  384MOL0     C52893  -0.648   3.802  -0.241 -0.1595  0.3873 -0.9646
  384MOL0     C52894  -0.588   3.661  -0.279  0.0747 -0.1477  1.1634
  384MOL0     C52895  -0.529   3.582  -0.165  0.2119 -0.3288 -0.2660
  384MOL0     C52896  -0.621   3.524  -0.048  0.2009 -0.8217 -0.8454
  384MOL0     C52897  -0.533   3.459   0.062  1.2289 -0.7440 -0.2785
  384MOL0     C52898  -0.612   3.361   0.155  0.1903  0.1227  0.0790
  384MOL0    Cl52899  -0.718   3.477   0.243 -0.1469  0.0072 -0.0021
  384MOL0     C52900  -0.214   3.681  -0.299  0.1049  0.3189  0.2306
  384MOL0     C52901  -0.139   3.579  -0.243  0.1583 -0.6983  0.2887
  384MOL0     O52902  -0.181   3.483   0.129  0.6457 -0.0884  0.2144
  384MOL0     C52903   0.141   3.316   0.079 -0.6245 -0.3947 -0.1693
  384MOL0     C52904   0.240   3.245   0.156 -0.0049 -0.3502 -0.8009
  384MOL0     N52905   0.526   3.323   0.850 -0.8875 -0.7991 -0.3930
  384MOL0     N52906   0.559   3.390   0.962 -0.2438  0.6820  0.3040
  384MOL0     C52907   1.533   3.007   1.427 -0.5045 -0.3165 -0.4290
  384MOL0     C52908   1.573   2.924   1.528 -0.3031  1.0589  0.6240
  384MOL0     C52909   1.633   2.710   1.914  0.1130 -0.0238 -0.6369
  384MOL0     C52910   1.736   2.778   1.983 -0.2251  0.5607  0.1876
  384MOL0     C52911   1.803   2.713   2.092 -0.0177  1.0335  0.5070
  384MOL0     C52912   1.764   2.588   2.140 -0.1692 -0.4947 -0.9463
  384MOL0     O52913   1.832   2.553   2.255 -0.0400  0.8681 -0.2107
  384MOL0     C52914   1.743   2.486   2.350 -0.6586  0.8362 -0.7629
  384MOL0     C52915   1.819   2.400   2.454 -0.2138 -0.0027  0.7250
  384MOL0     C52916   1.897   2.291   2.377  0.2848  0.3287  0.0201
  384MOL0     C52917   1.952   2.176   2.475 -0.5367  0.0156 -0.1654
  384MOL0     C52918   2.082   2.214   2.544  0.1556  0.2671  0.0537
  384MOL0     C52919   2.175   2.223   2.620 -0.7114 -0.4484 -0.2483
  384MOL0     C52920   1.663   2.521   2.065  0.0059 -1.1799 -0.7189
  384MOL0     C52921   1.588   2.579   1.958 -0.3742  0.5386  0.3941
  384MOL0     C52922   1.472   2.492   1.904 -1.1994 -0.0333  0.3168
  384MOL0     H52923   1.502   3.099   1.801  0.4701 -0.7740  0.6710
  384MOL0     H52924   1.394   3.248   1.628  1.4198  1.2749  1.2096
  384MOL0     H52925   1.361   3.078   1.223  5.6135 -2.8778  0.2125
  384MOL0     H52926   1.490   3.199   1.180 -0.1771  1.5727  0.6900
  384MOL0     H52927   1.336   3.376   1.147  3.2174 -2.0491  4.1834
  384MOL0     H52928   1.268   3.239   1.069  0.3822 -0.6613 -1.2922
  384MOL0     H52929   1.100   3.228   1.184  2.5170 -0.6017 -0.2872
  384MOL0     H52930   1.176   3.232   1.343  2.5869 -0.4163  0.3022
  384MOL0     H52931   1.192   3.487   1.309  0.7032  2.4575 -3.3382
  384MOL0     H52932   1.091   3.448   1.165 -1.3764  0.0246  1.9672
  384MOL0     H52933   0.960   3.522   1.367  1.6945  0.1496 -0.2179
  384MOL0     H52934   1.039   3.397   1.456  1.2721 -0.9212 -0.9402
  384MOL0     H52935   0.918   3.229   1.311  0.2420 -0.1606 -0.1781
  384MOL0     H52936   0.795   3.345   1.392  1.2278  0.7262  0.3904
  384MOL0     H52937   0.878   3.343   1.101 -1.4080 -0.7420 -1.3197
  384MOL0     H52938   0.808   3.488   1.180 -1.3597  0.1176  0.4719
  384MOL0     H52939   0.653   3.228   1.223 -2.2714  0.0016  1.7234
  384MOL0     H52940   0.604   3.385   1.218  0.3752 -1.2307  1.5453
  384MOL0     H52941   0.759   3.122   0.963  1.4607  0.9025  1.1100
  384MOL0     H52942   0.560   3.049   0.709 -3.8617  1.1755 -2.6800
  384MOL0     H52943   0.729   3.131   0.680  0.0910  1.7423 -1.7671
  384MOL0     H52944   0.454   3.231   0.601  0.0135  1.9586  0.1685
  384MOL0     H52945   0.604   3.309   0.548 -2.6418 -0.4199 -3.9181
  384MOL0     H52946   0.658   3.146   0.401 -1.4605  0.1110 -1.3945
  384MOL0     H52947   0.545   3.033   0.466 -0.4810 -0.7880 -1.3169
  384MOL0     H52948   0.481   3.300   0.329  2.2558 -0.1770  2.0226
  384MOL0     H52949   0.475   3.147   0.244  0.1197 -0.4352 -0.4368
  384MOL0     H52950   0.097   3.234   0.456 -1.6469  2.7722  1.2026
  384MOL0     H52951  -0.095   3.313   0.472  1.7816  1.3443 -0.0396
  384MOL0     H52952  -0.209   3.311   0.333 -0.0912 -2.3940  1.6214
  384MOL0     H52953  -0.125   3.462   0.380 -0.9109  0.6361 -3.1493
  384MOL0     H52954  -0.100   3.728   0.058 -0.4234 -1.8173  0.6453
  384MOL0     H52955  -0.225   3.913  -0.059  2.8748  0.8129 -1.6109
  384MOL0     H52956  -0.392   4.025  -0.162 -1.6711  1.6675  1.0881
  384MOL0     H52957  -0.487   4.017  -0.310  0.0248  0.6165  1.2576
  384MOL0     H52958  -0.509   3.837  -0.070 -0.9254  0.9375  1.1055
  384MOL0     H52959  -0.615   3.975  -0.128 -0.2033  0.4213 -4.1728
  384MOL0     H52960  -0.668   3.843  -0.341 -0.1684 -4.0288 -2.9891
  384MOL0     H52961  -0.747   3.788  -0.197  0.7160 -1.0433  0.6724
  384MOL0     H52962  -0.516   3.674  -0.360 -0.4680  3.6258  1.1103
  384MOL0     H52963  -0.673   3.604  -0.319  0.0015 -0.6356  1.9926
  384MOL0     H52964  -0.483   3.495  -0.212  0.2647 -0.4005 -0.0794
  384MOL0     H52965  -0.449   3.640  -0.118 -0.6852 -1.4052  2.8282
  384MOL0     H52966  -0.689   3.449  -0.089  0.0051  0.1233 -2.3002
  384MOL0     H52967  -0.693   3.591  -0.001  0.9535 -0.8647  0.4405
  384MOL0     H52968  -0.488   3.532   0.129  1.8065 -1.8805  0.6088
  384MOL0     H52969  -0.448   3.403   0.024  0.9180 -0.6304 -1.1680
  384MOL0     H52970  -0.539   3.312   0.220  3.3257  2.3465 -1.4803
  384MOL0     H52971  -0.664   3.289   0.091  1.5501 -0.0019 -0.9457
  384MOL0     H52972  -0.240   3.656  -0.402 -2.3005 -0.9487  1.0533
  384MOL0     H52973  -0.111   3.491  -0.299  1.3438  0.5981 -1.2295
  384MOL0     H52974   0.152   3.328  -0.028  2.5795 -1.6875 -0.1192
  384MOL0     H52975   0.327   3.214   0.097  0.5946  1.6201 -1.0331
  384MOL0     H52976   1.533   2.969   1.326  1.2464 -1.8527  0.0987
  384MOL0     H52977   1.619   2.830   1.500 -3.1583 -1.0893  2.5510
  384MOL0     H52978   1.762   2.877   1.947  6.0924 -0.1614  1.7468
  384MOL0     H52979   1.883   2.761   2.148 -0.0793 -0.0704  1.5903
  384MOL0     H52980   1.682   2.560   2.403 -2.8947 -1.6031  0.2845
  384MOL0     H52981   1.674   2.415   2.305  0.8697 -1.2839  0.0935
  384MOL0     H52982   1.744   2.363   2.525 -2.1958 -0.2138 -1.3636
  384MOL0     H52983   1.889   2.467   2.505 -1.4135  3.3050 -1.6009
  384MOL0     H52984   1.823   2.249   2.309 -1.6198  1.3111  1.4203
  384MOL0     H52985   1.970   2.339   2.311 -0.1913  2.8337  1.1811
  384MOL0     H52986   1.974   2.088   2.414 -1.2417  1.0321 -1.9578
  384MOL0     H52987   1.867   2.150   2.539 -2.1329  2.2035 -1.2740
  384MOL0     H52988   2.252   2.238   2.693 -1.3738 -2.2837  0.8902
  384MOL0     H52989   1.631   2.424   2.101 -1.6539 -0.7494 -0.9423
  384MOL0     H52990   1.501   2.386   1.908  1.6038  0.6567  0.5765
  384MOL0     H52991   1.386   2.506   1.969  0.1254  2.7663  1.6228
  384MOL0     H52992   1.447   2.513   1.799  0.0469 -2.1041 -0.4666
  385MOL0     O52993   4.995   8.999   3.335 -0.4512  0.1852  0.1708
  385MOL0     C52994   4.952   8.996   3.452 -1.0966  0.5188 -0.3984
  385MOL0     O52995   4.838   9.042   3.489 -0.0207 -0.8906 -0.6297
  385MOL0     C52996   4.736   9.050   3.395 -0.1827 -0.1520 -0.2000
  385MOL0     C52997   4.648   8.945   3.369  0.3459  0.3363 -0.0011
  385MOL0     C52998   4.534   8.963   3.298  0.7378  0.4810 -0.1453
  385MOL0     C52999   4.505   9.083   3.235  0.2174 -0.6012 -0.2246
  385MOL0     O53000   4.386   9.083   3.162 -0.2201 -0.2249  0.4657
  385MOL0     C53001   4.369   9.197   3.084 -0.3776 -0.7317  0.6637
  385MOL0     C53002   4.250   9.165   2.992 -1.2722  0.2301 -0.4018
  385MOL0     C53003   4.200   9.287   2.911  0.3301  0.3069 -0.8490
  385MOL0     C53004   4.172   9.411   2.989  0.1267 -0.3692  0.4154
  385MOL0     C53005   4.161   9.540   2.910 -0.4085 -0.6868  0.1623
  385MOL0     C53006   4.081   9.537   2.786  0.4747  0.4666  0.1125
  385MOL0     C53007   3.933   9.496   2.823  0.3592 -0.3241  0.8190
  385MOL0     C53008   3.845   9.513   2.702 -1.8533 -1.1591  0.6394
  385MOL0     N53009   3.710   9.468   2.739  0.1116  0.3214  0.1935
  385MOL0     C53010   3.616   9.548   2.786  1.3264  0.3257  0.8037
  385MOL0     C53011   3.505   9.472   2.816 -0.6342 -0.0771 -0.2300
  385MOL0     C53012   3.373   9.512   2.874  0.0874  0.0739  1.1452
  385MOL0     C53013   3.282   9.386   2.878 -0.4921 -1.0338  0.7785
  385MOL0     C53014   3.146   9.428   2.921 -0.9703  0.2392 -0.5071
  385MOL0     C53015   3.158   9.481   3.067 -0.5002 -1.1726  0.7801
  385MOL0     O53016   3.145   9.622   3.059 -0.4258 -0.2486  0.6287
  385MOL0     C53017   3.085   9.690   3.164 -0.2248 -0.1076  0.0150
  385MOL0     C53018   3.070   9.651   3.301 -0.3477  0.9981 -0.6355
  385MOL0     C53019   3.029   9.730   3.408  0.3105  0.4722 -0.4934
  385MOL0     C53020   2.993   9.660   3.536  0.2916 -0.9105 -0.4519
  385MOL0     C53021   3.036   9.872   3.387 -0.4150  0.5928  0.1563
  385MOL0     C53022   3.034   9.963   3.500 -0.3243 -0.4515 -0.2956
  385MOL0     O53023   3.071   9.942   3.628  0.8604  0.2935 -0.1960
  385MOL0     C53024   3.038  10.040   3.716 -0.1972  0.2338  0.1680
  385MOL0     C53025   3.148  10.095   3.783 -0.4755 -1.1017 -0.5222
  385MOL0     C53026   3.129  10.217   3.855 -0.7057  0.3160  0.1404
  385MOL0     C53027   3.009  10.286   3.852 -0.4082 -0.7718 -0.1857
  385MOL0     O53028   2.986  10.421   3.887  0.0398  0.8032  0.4041
  385MOL0     C53029   3.107  10.503   3.903 -0.0451  0.0535  0.8635
  385MOL0     C53030   3.058  10.637   3.940  0.7026 -0.4492  0.1536
  385MOL0     C53031   3.173  10.745   3.938 -0.2082 -0.4146  0.2866
  385MOL0     C53032   3.101  10.889   3.936 -0.1763 -1.5362  0.5073
  385MOL0     C53033   3.199  10.999   3.897  0.2634 -0.0568  0.7645
  385MOL0     C53034   3.122  11.136   3.891 -0.8764 -1.3587  0.1355
  385MOL0     C53035   3.220  11.251   3.889 -0.0321 -0.2162  0.0664
  385MOL0     C53036   3.298  11.259   3.756  0.1567 -0.5224  0.0001
  385MOL0    Cl53037   3.206  11.327   3.620  0.2003  0.2412  0.0010
  385MOL0     C53038   2.897  10.215   3.804  0.3213 -0.0986  0.1818
  385MOL0     C53039   2.907  10.089   3.740  0.0444 -1.1120  0.6001
  385MOL0     O53040   2.987  10.072   3.462  0.3086 -0.0336 -0.2956
  385MOL0     C53041   3.045   9.915   3.257  0.1654  0.0163 -0.1069
  385MOL0     C53042   3.061   9.826   3.150  0.4810 -0.6728 -0.6370
  385MOL0     N53043   3.545   9.346   2.786  0.4631  0.6240 -0.5321
  385MOL0     N53044   3.661   9.341   2.730 -0.3581  0.7502  0.3857
  385MOL0     C53045   4.593   9.189   3.252 -0.8410  0.1318 -1.1938
  385MOL0     C53046   4.714   9.171   3.330 -1.0662  0.5618  0.0630
  385MOL0     C53047   5.039   8.947   3.558 -1.1565 -0.6395  0.5099
  385MOL0     C53048   5.177   8.952   3.534 -1.2895  0.0386  1.0392
  385MOL0     C53049   5.267   8.921   3.635  0.1239 -0.6664 -0.5222
  385MOL0     C53050   5.222   8.885   3.755 -0.2308 -0.4275 -0.2569
  385MOL0     O53051   5.303   8.858   3.871  0.2578  0.6156  0.3676
  385MOL0     C53052   5.450   8.881   3.862  0.3764 -0.0750 -0.9229
  385MOL0     C53053   5.494   9.032   3.881 -0.4603  0.1445 -0.2832
  385MOL0     C53054   5.634   9.056   3.828  0.1385  1.2161 -1.0107
  385MOL0     C53055   5.695   9.186   3.876 -0.5874  0.0445 -0.2314
  385MOL0     C53056   5.835   9.195   3.835 -0.0715 -0.2356  0.0657
  385MOL0     C53057   5.954   9.201   3.824  0.1032 -0.4189 -0.2256
  385MOL0     C53058   5.086   8.860   3.774  1.4652  0.0425 -0.1295
  385MOL0     C53059   4.994   8.899   3.679  0.6425 -0.1851  0.4713
  385MOL0     C53060   4.847   8.868   3.709  0.0948 -0.0509 -0.9872
  385MOL0     H53061   4.676   8.847   3.407 -1.8340 -0.9169 -1.4347
  385MOL0     H53062   4.473   8.876   3.275  2.0168  0.2760 -3.2362
  385MOL0     H53063   4.454   9.211   3.016 -1.9593 -0.1647 -1.3091
  385MOL0     H53064   4.348   9.284   3.148 -0.1578 -1.7192  2.1158
  385MOL0     H53065   4.276   9.080   2.927 -2.0298  0.1599 -0.6283
  385MOL0     H53066   4.162   9.129   3.046 -1.4531 -1.8873 -1.9641
  385MOL0     H53067   4.274   9.303   2.832  0.6532 -2.7621 -1.2823
  385MOL0     H53068   4.110   9.268   2.852 -0.4970 -0.3714  0.5680
  385MOL0     H53069   4.073   9.404   3.036 -0.6383  1.8050 -0.7341
  385MOL0     H53070   4.233   9.433   3.077 -2.1540 -0.3839  2.1099
  385MOL0     H53071   4.259   9.562   2.868 -0.9918 -0.7964 -1.2906
  385MOL0     H53072   4.131   9.625   2.971  3.0265  2.5588 -2.2231
  385MOL0     H53073   4.088   9.631   2.731 -3.7399  0.0213 -1.5677
  385MOL0     H53074   4.115   9.464   2.713  0.9415 -0.5711  1.3363
  385MOL0     H53075   3.898   9.559   2.905  0.4895 -0.7920  1.2378
  385MOL0     H53076   3.925   9.391   2.851 -2.9951 -1.0060 -1.9490
  385MOL0     H53077   3.853   9.609   2.651  0.7454 -1.2672  0.7535
  385MOL0     H53078   3.889   9.448   2.626 -0.7904  1.8157 -1.4785
  385MOL0     H53079   3.633   9.653   2.808 -0.2265  0.8344 -0.2430
  385MOL0     H53080   3.314   9.589   2.823 -0.6392 -1.2996 -0.1620
  385MOL0     H53081   3.394   9.553   2.973 -1.7877  0.8656  1.2692
  385MOL0     H53082   3.283   9.341   2.778  0.8833  0.3631  0.1205
  385MOL0     H53083   3.317   9.308   2.946  2.1370  0.0643  0.8331
  385MOL0     H53084   3.103   9.499   2.850  2.0145  0.8484 -1.8395
  385MOL0     H53085   3.082   9.339   2.916 -1.7823  0.8838 -3.4514
  385MOL0     H53086   3.073   9.443   3.124  0.2239 -2.1656  1.2384
  385MOL0     H53087   3.246   9.438   3.116  1.4325 -0.3903 -1.7560
  385MOL0     H53088   3.083   9.548   3.332  0.8485  0.5067 -2.6039
  385MOL0     H53089   2.968   9.555   3.523 -1.4050 -0.8115  1.4703
  385MOL0     H53090   2.900   9.708   3.568  1.9046  2.3862 -0.3160
  385MOL0     H53091   3.067   9.669   3.616  2.7639 -2.4187 -2.4265
  385MOL0     H53092   3.249  10.055   3.790  0.3084  0.8239 -0.3004
  385MOL0     H53093   3.215  10.261   3.904 -0.9577 -0.3310  1.1976
  385MOL0     H53094   3.173  10.471   3.984 -0.2518  0.5789  1.2490
  385MOL0     H53095   3.165  10.513   3.811 -0.5219  1.9445  0.7241
  385MOL0     H53096   2.980  10.662   3.867 -2.2613 -3.4587  2.0321
  385MOL0     H53097   3.004  10.640   4.035 -4.4233  2.3960 -2.4273
  385MOL0     H53098   3.215  10.745   3.837 -1.5222 -0.7614 -0.2869
  385MOL0     H53099   3.247  10.730   4.017  0.9301 -2.1782 -1.0331
  385MOL0     H53100   3.063  10.907   4.037  2.7730 -0.5036  1.5684
  385MOL0     H53101   3.017  10.888   3.866  0.1688  2.4851 -0.1858
  385MOL0     H53102   3.277  10.995   3.973 -1.1242  0.1486  2.2466
  385MOL0     H53103   3.241  10.978   3.798  1.6483  1.6108  0.9368
  385MOL0     H53104   3.054  11.149   3.976  0.6056 -1.0213  1.2995
  385MOL0     H53105   3.066  11.143   3.797 -0.8722  1.2254  0.2573
  385MOL0     H53106   3.281  11.237   3.979 -2.1982 -0.3078  1.6086
  385MOL0     H53107   3.165  11.346   3.888  0.5228  0.1271  0.7500
  385MOL0     H53108   3.337  11.158   3.738  1.4885  0.3936 -2.6845
  385MOL0     H53109   3.393  11.313   3.759  0.5923 -1.3152  1.9999
  385MOL0     H53110   2.799  10.260   3.811  0.3576  1.1023 -4.0906
  385MOL0     H53111   2.822  10.040   3.695 -0.1319  1.6646 -2.4729
  385MOL0     H53112   3.027  10.018   3.229 -1.3195 -0.5838 -1.4981
  385MOL0     H53113   3.068   9.868   3.050  0.5209  0.0130 -0.3513
  385MOL0     H53114   4.561   9.287   3.219 -1.2214  0.3758 -0.1377
  385MOL0     H53115   4.780   9.254   3.356 -0.3089  0.6328 -1.9244
  385MOL0     H53116   5.209   8.996   3.441  3.2364 -2.6357  1.0621
  385MOL0     H53117   5.370   8.956   3.624 -0.1252  0.1435 -0.3603
  385MOL0     H53118   5.495   8.817   3.938 -0.9025 -0.0561 -0.1109
  385MOL0     H53119   5.481   8.833   3.769  0.7505 -1.9617  0.1263
  385MOL0     H53120   5.502   9.042   3.990  1.1663  0.3230 -0.3944
  385MOL0     H53121   5.420   9.104   3.843  1.2273  2.8906  1.2618
  385MOL0     H53122   5.698   8.973   3.859 -2.0100 -0.7990 -1.7144
  385MOL0     H53123   5.613   9.072   3.722 -2.4563  2.6219 -0.3686
  385MOL0     H53124   5.687   9.208   3.983 -0.4008  1.8639 -0.5610
  385MOL0     H53125   5.633   9.264   3.831 -2.3673  0.3209  2.4596
  385MOL0     H53126   6.058   9.202   3.801  0.0871 -0.8548 -0.3301
  385MOL0     H53127   5.044   8.812   3.862 -0.2550  0.9798 -0.3863
  385MOL0     H53128   4.787   8.956   3.736  0.4018 -0.6946  2.2570
  385MOL0     H53129   4.800   8.827   3.619 -0.9560  0.2473 -0.5948
  385MOL0     H53130   4.835   8.799   3.793  0.8060  1.3673  0.3340
  386MOL0     O53131   5.342   8.168   4.705 -0.5597 -0.5739 -0.1910
  386MOL0     C53132   5.416   8.237   4.779 -0.1547 -0.3479 -0.1697
  386MOL0     O53133   5.401   8.260   4.912 -0.5193 -0.0381 -0.0944
  386MOL0     C53134   5.283   8.244   4.979 -0.0999  0.0407  0.2022
  386MOL0     C53135   5.270   8.309   5.099 -0.5999 -0.0050  0.1880
  386MOL0     C53136   5.158   8.302   5.170 -0.1501  0.5968 -1.0172
  386MOL0     C53137   5.051   8.214   5.136  0.6045  0.1219 -0.3537
  386MOL0     O53138   4.928   8.208   5.208 -0.5295  0.4855  0.3533
  386MOL0     C53139   4.949   8.123   5.324 -0.4654 -0.0605  0.4505
  386MOL0     C53140   4.868   8.178   5.445  0.2083  0.6994 -0.0232
  386MOL0     C53141   4.889   8.082   5.562 -0.7359 -0.3187  0.9913
  386MOL0     C53142   4.829   8.113   5.698 -0.6361  0.1497  0.6626
  386MOL0     C53143   4.911   8.205   5.788  0.7038 -0.7303 -0.6120
  386MOL0     C53144   4.945   8.350   5.728 -0.0039  0.3061 -0.1564
  386MOL0     C53145   5.006   8.434   5.841  0.5310  0.8166  0.4879
  386MOL0     C53146   5.064   8.560   5.793  0.5378 -1.1789 -0.0642
  386MOL0     N53147   4.976   8.675   5.835  0.0994  0.4441 -0.4259
  386MOL0     C53148   5.006   8.788   5.899  0.1936 -0.0342 -0.0515
  386MOL0     C53149   4.898   8.864   5.904  0.9743  0.0359 -0.4411
  386MOL0     C53150   4.883   9.000   5.964 -0.2226 -0.7516 -0.0678
  386MOL0     C53151   4.796   9.022   6.087  0.3377 -0.8555 -0.4421
  386MOL0     C53152   4.836   8.930   6.204  0.0830  0.1198 -0.1411
  386MOL0     C53153   4.979   8.947   6.258  0.8942 -1.1973  0.3615
  386MOL0     O53154   5.072   8.841   6.223  0.4485 -0.0975  0.4156
  386MOL0     C53155   5.048   8.724   6.280 -0.5134 -0.0621  0.3534
  386MOL0     C53156   4.975   8.686   6.399 -0.4681  0.0912 -0.2585
  386MOL0     C53157   4.972   8.556   6.458  0.2041 -0.4242 -0.8788
  386MOL0     C53158   4.899   8.533   6.595 -0.7071  0.5707 -0.1385
  386MOL0     C53159   5.040   8.448   6.386  0.2579 -0.4348  0.3489
  386MOL0     C53160   5.038   8.298   6.422  0.2255 -0.6502 -0.5706
  386MOL0     O53161   5.007   8.252   6.555  0.7779  0.0056 -0.3151
  386MOL0     C53162   4.978   8.117   6.561 -0.3219 -0.1209  0.0787
  386MOL0     C53163   5.086   8.033   6.597  0.3578 -0.2226  0.4047
  386MOL0     C53164   5.052   7.905   6.631 -0.1984  0.2274 -0.7158
  386MOL0     C53165   4.926   7.848   6.622  0.4769  0.3245 -1.5278
  386MOL0     O53166   4.898   7.718   6.657  0.0365 -1.4114  0.1405
  386MOL0     C53167   4.782   7.655   6.607 -0.7374 -0.4497 -0.7877
  386MOL0     C53168   4.808   7.501   6.588  0.7020 -0.9145  0.4050
  386MOL0     C53169   4.710   7.440   6.495  0.7736 -0.8372  0.8854
  386MOL0     C53170   4.563   7.455   6.550 -1.1106  0.3594 -0.0159
  386MOL0     C53171   4.461   7.424   6.448  0.1097  0.0606  1.0130
  386MOL0     C53172   4.332   7.357   6.503  0.3261 -0.2672  0.3246
  386MOL0     C53173   4.365   7.218   6.547  0.3297  1.1225  0.1548
  386MOL0     C53174   4.463   7.132   6.454  1.0239  0.4574  0.2564
  386MOL0    Cl53175   4.485   6.970   6.519  0.6422 -0.5433  0.1732
  386MOL0     C53176   4.817   7.935   6.575  0.4011 -0.0984  0.0732
  386MOL0     C53177   4.847   8.069   6.555 -0.5968  1.0095  0.4041
  386MOL0     O53178   5.095   8.225   6.339 -0.2236 -0.1548 -0.4869
  386MOL0     C53179   5.099   8.485   6.264  0.3344 -1.2594  0.2211
  386MOL0     C53180   5.117   8.616   6.219  0.4224 -0.7945  0.1718
  386MOL0     N53181   4.797   8.784   5.848 -0.8128 -0.2339 -0.4738
  386MOL0     N53182   4.847   8.669   5.810 -0.3968 -0.0145  0.1995
  386MOL0     C53183   5.053   8.149   5.010  0.2177 -1.0281 -0.0876
  386MOL0     C53184   5.177   8.161   4.938  0.3087  0.4746  0.5767
  386MOL0     C53185   5.520   8.315   4.700  1.1798 -0.3416  0.2149
  386MOL0     C53186   5.556   8.441   4.744  0.6582  0.4253  0.7566
  386MOL0     C53187   5.671   8.508   4.692 -0.6513  0.1301 -0.0697
  386MOL0     C53188   5.760   8.444   4.607  0.9878 -0.1587 -0.1081
  386MOL0     O53189   5.858   8.504   4.545 -0.6184 -0.3972  0.8996
  386MOL0     C53190   5.992   8.461   4.579 -0.7047  0.1409 -0.6570
  386MOL0     C53191   6.095   8.557   4.532 -0.0876  0.7392  0.2708
  386MOL0     C53192   6.092   8.687   4.611 -0.1732 -0.6373  0.5906
  386MOL0     C53193   6.230   8.762   4.606  0.0714 -0.0342  1.2932
  386MOL0     C53194   6.342   8.683   4.663 -1.0692 -0.1397  0.3116
  386MOL0     C53195   6.419   8.617   4.734  0.7809 -0.5891  0.3851
  386MOL0     C53196   5.721   8.319   4.573  0.2515  0.0845  0.6643
  386MOL0     C53197   5.607   8.260   4.608  1.4227 -0.1015  1.2814
  386MOL0     C53198   5.590   8.128   4.545  0.0068 -0.3148  0.5941
  386MOL0     H53199   5.349   8.370   5.141  1.5850 -3.4786  1.5253
  386MOL0     H53200   5.156   8.356   5.265  0.9425 -2.9498  1.2385
  386MOL0     H53201   5.058   8.122   5.337 -0.1943 -2.3209 -1.4053
  386MOL0     H53202   4.905   8.033   5.282 -0.0133  0.3044 -0.8616
  386MOL0     H53203   4.915   8.274   5.470  3.3051 -0.5654 -0.5262
  386MOL0     H53204   4.760   8.174   5.429  0.5970 -1.1851 -2.8985
  386MOL0     H53205   4.843   7.988   5.531  0.7242  0.0081 -2.5831
  386MOL0     H53206   4.997   8.074   5.579 -0.9289 -0.7049  2.1263
  386MOL0     H53207   4.739   8.169   5.672 -1.0930 -2.2890 -4.4107
  386MOL0     H53208   4.794   8.025   5.753 -2.0221  0.1377 -0.1853
  386MOL0     H53209   5.009   8.163   5.809  2.6336  3.2463 -0.7977
  386MOL0     H53210   4.859   8.211   5.884  5.2060  1.3128  1.9805
  386MOL0     H53211   5.012   8.346   5.642  0.4821  2.5904  0.0470
  386MOL0     H53212   4.850   8.391   5.694 -0.3362  0.9686  1.4705
  386MOL0     H53213   5.092   8.374   5.872  0.6194 -0.0482 -1.3149
  386MOL0     H53214   4.929   8.438   5.919  0.7504 -2.9735  1.1020
  386MOL0     H53215   5.165   8.588   5.825 -0.4477  2.0612  0.5368
  386MOL0     H53216   5.050   8.554   5.685 -1.3552  2.2676 -0.1501
  386MOL0     H53217   5.107   8.810   5.932 -0.4801  1.5166  1.0797
  386MOL0     H53218   4.843   9.061   5.882  2.9758 -1.4166 -2.2853
  386MOL0     H53219   4.985   9.037   5.978 -0.5133  0.6650 -1.3492
  386MOL0     H53220   4.791   9.123   6.129 -1.2922 -0.6284 -1.0981
  386MOL0     H53221   4.693   9.007   6.053  0.2357  0.4439 -0.7450
  386MOL0     H53222   4.767   8.953   6.286  1.5861 -1.9109  1.8253
  386MOL0     H53223   4.813   8.827   6.174  1.5548 -0.3852  0.3986
  386MOL0     H53224   5.017   9.043   6.221  1.0785 -1.5738 -0.4401
  386MOL0     H53225   4.970   8.945   6.367 -1.5598 -0.9567  0.2259
  386MOL0     H53226   4.914   8.763   6.445  0.7308  0.6223  0.4892
  386MOL0     H53227   4.978   8.500   6.663 -2.8544 -1.6758  1.4309
  386MOL0     H53228   4.820   8.457   6.595 -0.8141  0.6826  0.6142
  386MOL0     H53229   4.862   8.623   6.644 -3.1435 -0.5080  0.1199
  386MOL0     H53230   5.189   8.066   6.602  1.8919 -3.5040 -3.3628
  386MOL0     H53231   5.134   7.841   6.661 -0.8219 -1.1513 -1.8354
  386MOL0     H53232   4.692   7.673   6.666 -1.7234 -1.4104 -1.9483
  386MOL0     H53233   4.763   7.681   6.502 -0.1407 -1.7337 -1.2381
  386MOL0     H53234   4.902   7.492   6.533  0.6561 -2.2371  0.5050
  386MOL0     H53235   4.811   7.457   6.688 -0.7651 -0.1952  0.7895
  386MOL0     H53236   4.735   7.337   6.468  1.0991 -0.8333  1.1619
  386MOL0     H53237   4.707   7.490   6.398 -3.3408 -2.9140 -0.2884
  386MOL0     H53238   4.553   7.556   6.591  3.5871  1.4745 -0.9849
  386MOL0     H53239   4.561   7.389   6.637 -2.5853  0.5851  0.1545
  386MOL0     H53240   4.437   7.516   6.393  1.2054  0.0036  0.3955
  386MOL0     H53241   4.513   7.364   6.373  1.7505  3.6187 -0.9266
  386MOL0     H53242   4.258   7.343   6.424  2.2115 -3.1546 -1.1201
  386MOL0     H53243   4.287   7.418   6.582  0.7701  0.2982  0.1439
  386MOL0     H53244   4.272   7.160   6.547 -0.4893  2.3834  0.3974
  386MOL0     H53245   4.417   7.216   6.643  0.0213  3.1734  0.4082
  386MOL0     H53246   4.559   7.185   6.452  0.2997  1.8005 -0.7353
  386MOL0     H53247   4.422   7.135   6.353  2.8677  1.5347 -0.4956
  386MOL0     H53248   4.714   7.902   6.571  0.6613 -1.1442  1.3442
  386MOL0     H53249   4.775   8.144   6.525  1.1383  1.3840 -3.4243
  386MOL0     H53250   5.152   8.410   6.206  3.7491  1.0504  0.0455
  386MOL0     H53251   5.185   8.639   6.138  3.9766  0.2880  3.2285
  386MOL0     H53252   4.967   8.088   4.983  2.4256 -4.5092  0.2020
  386MOL0     H53253   5.192   8.101   4.848 -1.0958  2.0768 -0.8089
  386MOL0     H53254   5.493   8.497   4.813  0.0139  1.7578 -0.8406
  386MOL0     H53255   5.691   8.610   4.720 -2.8549  0.4568  0.5126
  386MOL0     H53256   6.002   8.453   4.687  2.1442  3.8888 -0.4376
  386MOL0     H53257   6.004   8.362   4.533  1.5334  0.9944 -2.1115
  386MOL0     H53258   6.078   8.572   4.425  1.1667 -2.4715 -0.4785
  386MOL0     H53259   6.191   8.505   4.536 -1.0529 -1.0852  0.9820
  386MOL0     H53260   6.017   8.743   4.553 -1.7077 -0.6916  2.4104
  386MOL0     H53261   6.065   8.658   4.713  2.3310 -2.3867  0.8302
  386MOL0     H53262   6.230   8.852   4.668  0.3771  0.4785  0.5706
  386MOL0     H53263   6.256   8.797   4.506  3.2171 -2.1663  1.2147
  386MOL0     H53264   6.479   8.569   4.808 -1.3758 -1.7921  1.4771
  386MOL0     H53265   5.786   8.270   4.501 -2.4731 -0.8601 -1.3245
  386MOL0     H53266   5.568   8.055   4.623 -1.4581 -1.1872 -0.5731
  386MOL0     H53267   5.508   8.130   4.472 -1.0478  1.0717  1.7674
  386MOL0     H53268   5.677   8.082   4.496 -1.4718 -3.8447  0.9703
  387MOL0     O53269   2.048   8.259   4.927 -0.1567 -0.1060  0.4250
  387MOL0     C53270   2.061   8.353   4.850 -0.5355  0.2669  0.8731
  387MOL0     O53271   1.996   8.468   4.861  0.1628 -0.2313  0.0073
  387MOL0     C53272   1.902   8.490   4.954  0.5157 -0.4022 -0.6923
  387MOL0     C53273   1.832   8.396   5.034  0.0921  0.0258 -1.0378
  387MOL0     C53274   1.740   8.437   5.128 -0.4971 -0.0333 -0.1580
  387MOL0     C53275   1.702   8.567   5.148  0.3604  0.2672  0.0555
  387MOL0     O53276   1.631   8.608   5.258 -0.2917 -0.0155 -0.1385
  387MOL0     C53277   1.562   8.738   5.270 -1.0762  0.4043  0.4179
  387MOL0     C53278   1.436   8.723   5.181  0.0879  0.0979 -0.5187
  387MOL0     C53279   1.350   8.844   5.191  0.1045 -1.0999  0.0293
  387MOL0     C53280   1.376   8.928   5.064  0.5444  0.1717 -0.6197
  387MOL0     C53281   1.321   9.075   5.074  0.0397  0.0945 -0.2598
  387MOL0     C53282   1.342   9.150   4.936  0.5123 -1.1510 -0.5703
  387MOL0     C53283   1.322   9.298   4.935  0.1300 -0.3225  0.0995
  387MOL0     C53284   1.358   9.359   4.798  0.3377  0.2527 -0.7775
  387MOL0     N53285   1.498   9.355   4.770  0.0116 -1.3638  0.7263
  387MOL0     C53286   1.557   9.357   4.640  0.5248 -0.4044 -0.4745
  387MOL0     C53287   1.688   9.399   4.661  0.7208 -0.4247  0.3755
  387MOL0     C53288   1.783   9.449   4.560  0.4573  1.0224 -0.1635
  387MOL0     C53289   1.805   9.336   4.452  0.0560  0.1061 -0.1767
  387MOL0     C53290   1.902   9.409   4.354 -0.0103  0.7116 -0.3777
  387MOL0     C53291   1.953   9.322   4.237 -0.9522  0.3376 -0.2309
  387MOL0     O53292   1.879   9.198   4.202 -0.0643  0.1611 -0.5827
  387MOL0     C53293   1.766   9.216   4.131 -0.0783 -0.2720 -0.7977
  387MOL0     C53294   1.728   9.330   4.061  0.1095  0.6909 -0.2070
  387MOL0     C53295   1.596   9.339   4.009 -0.1275 -0.0633 -0.5560
  387MOL0     C53296   1.546   9.471   3.942 -0.0329  0.0914 -1.3641
  387MOL0     C53297   1.513   9.230   4.016 -0.3766 -0.5538 -0.1045
  387MOL0     C53298   1.392   9.217   3.935 -0.0359  0.1595 -1.1655
  387MOL0     O53299   1.274   9.236   4.003 -0.1682  0.6675 -0.2627
  387MOL0     C53300   1.150   9.234   3.940  0.9435  0.6247  0.1258
  387MOL0     C53301   1.105   9.137   3.844 -0.3694  0.1695  0.6553
  387MOL0     C53302   0.985   9.149   3.781 -0.7453  0.1978  0.4757
  387MOL0     C53303   0.890   9.236   3.823 -0.2166 -0.9641  0.2933
  387MOL0     O53304   0.776   9.244   3.757 -0.0691 -0.1121  0.3077
  387MOL0     C53305   0.718   9.375   3.766 -0.7898  0.1438  0.4728
  387MOL0     C53306   0.620   9.393   3.653  0.2099  0.1773 -0.7299
  387MOL0     C53307   0.501   9.300   3.659  0.4353 -0.1859 -0.5651
  387MOL0     C53308   0.414   9.324   3.538  1.2034 -0.0140  0.4444
  387MOL0     C53309   0.275   9.252   3.539 -1.3962  0.3218 -0.1262
  387MOL0     C53310   0.184   9.304   3.432  0.6232  0.3227  0.2633
  387MOL0     C53311   0.071   9.197   3.407 -0.4918 -0.6526  1.3026
  387MOL0     C53312  -0.025   9.241   3.293 -0.4323  0.5509 -0.2951
  387MOL0    Cl53313  -0.086   9.414   3.288 -0.2526 -0.5411 -0.0568
  387MOL0     C53314   0.922   9.320   3.930  0.8318  0.0535  0.0463
  387MOL0     C53315   1.049   9.326   3.982 -0.6073  0.7537  0.0001
  387MOL0     O53316   1.407   9.196   3.821  0.0204  0.1744 -0.0334
  387MOL0     C53317   1.549   9.120   4.100 -0.6231 -0.3771  0.3860
  387MOL0     C53318   1.675   9.116   4.151  0.2824 -0.8560 -0.4084
  387MOL0     N53319   1.711   9.413   4.790  0.5910  0.1574 -0.3251
  387MOL0     N53320   1.604   9.395   4.850 -0.0481  0.1395 -0.0438
  387MOL0     C53321   1.760   8.661   5.057  0.8423 -0.4896 -1.1333
  387MOL0     C53322   1.861   8.623   4.965  0.1403  1.3983  0.0479
  387MOL0     C53323   2.143   8.325   4.724 -0.5532  0.7262 -0.4528
  387MOL0     C53324   2.181   8.437   4.641  0.2151  0.9260  0.2023
  387MOL0     C53325   2.248   8.421   4.519  0.8197 -0.7912 -0.9183
  387MOL0     C53326   2.286   8.299   4.480 -0.8994  0.6497  1.0531
  387MOL0     O53327   2.341   8.275   4.356 -1.0216 -0.1699 -0.6494
  387MOL0     C53328   2.338   8.364   4.251  0.1670 -0.1266 -0.2906
  387MOL0     C53329   2.303   8.295   4.127 -0.4052 -0.4956  0.4576
  387MOL0     C53330   2.323   8.373   3.990  0.1629 -0.3337 -0.3783
  387MOL0     C53331   2.479   8.358   3.958  0.4936  0.7373  0.5989
  387MOL0     C53332   2.510   8.243   3.870  0.4449  0.4607  0.0787
  387MOL0     C53333   2.533   8.153   3.793  0.0653 -0.2801  0.7307
  387MOL0     C53334   2.269   8.188   4.568 -0.3906  0.0681  0.4395
  387MOL0     C53335   2.194   8.197   4.680 -0.2950 -0.1707  0.7511
  387MOL0     C53336   2.163   8.062   4.745 -0.0867 -0.3633 -0.5431
  387MOL0     H53337   1.848   8.289   5.024  1.7732 -0.0757  1.7059
  387MOL0     H53338   1.696   8.364   5.196  0.3353  1.9698  2.7339
  387MOL0     H53339   1.626   8.819   5.235  3.1245 -3.3126 -1.5611
  387MOL0     H53340   1.533   8.769   5.371 -5.3218  0.9095 -0.7564
  387MOL0     H53341   1.472   8.694   5.082  1.6798  1.3252 -0.3446
  387MOL0     H53342   1.378   8.646   5.232 -1.3403  0.8086 -0.9955
  387MOL0     H53343   1.249   8.804   5.195  0.3978 -1.8064  0.5360
  387MOL0     H53344   1.370   8.913   5.273 -1.3191  1.0605 -1.3408
  387MOL0     H53345   1.485   8.929   5.057  0.8934  1.1366  2.8689
  387MOL0     H53346   1.331   8.886   4.974 -0.9224 -1.6189  0.8516
  387MOL0     H53347   1.381   9.125   5.150  0.5300  0.4902 -0.9003
  387MOL0     H53348   1.215   9.076   5.103 -0.3152 -4.3425 -0.7100
  387MOL0     H53349   1.443   9.113   4.915  0.4438 -0.5950 -1.9862
  387MOL0     H53350   1.279   9.095   4.865  4.0945 -2.0587 -3.4102
  387MOL0     H53351   1.379   9.352   5.011 -0.9926 -0.6667  1.2081
  387MOL0     H53352   1.218   9.318   4.960 -0.4993 -5.7660  3.1414
  387MOL0     H53353   1.301   9.309   4.718  0.3206  1.8832 -1.8352
  387MOL0     H53354   1.334   9.466   4.798  0.9435  0.4224  1.2444
  387MOL0     H53355   1.496   9.368   4.551  0.7768  2.1151 -0.4006
  387MOL0     H53356   1.881   9.473   4.604  0.3398  1.5173 -0.1634
  387MOL0     H53357   1.735   9.538   4.517 -2.1908  0.2550  1.0386
  387MOL0     H53358   1.860   9.253   4.498  0.3076 -1.2496 -2.7651
  387MOL0     H53359   1.709   9.307   4.409  0.0199  0.6529 -0.4713
  387MOL0     H53360   1.852   9.494   4.306 -0.5388  2.0824  2.4027
  387MOL0     H53361   1.983   9.459   4.407 -1.3245  0.4285  2.0321
  387MOL0     H53362   1.954   9.382   4.145 -0.5053  0.0402 -0.4247
  387MOL0     H53363   2.055   9.288   4.255 -1.6942 -1.1722  1.3548
  387MOL0     H53364   1.786   9.421   4.050 -1.3285  1.5542 -1.0424
  387MOL0     H53365   1.477   9.522   4.011  3.3820  2.8995  0.3024
  387MOL0     H53366   1.501   9.459   3.843 -1.0758  1.1192 -1.0432
  387MOL0     H53367   1.627   9.543   3.927  0.5160 -0.5632 -1.5692
  387MOL0     H53368   1.179   9.064   3.812 -0.3787  0.3461  0.2236
  387MOL0     H53369   0.967   9.082   3.698  1.3743  1.6668 -1.2759
  387MOL0     H53370   0.671   9.391   3.864 -1.7542  0.7068 -0.0745
  387MOL0     H53371   0.799   9.449   3.762  0.4065 -1.1778 -0.7998
  387MOL0     H53372   0.580   9.495   3.652 -4.2919 -1.2944  0.9830
  387MOL0     H53373   0.665   9.394   3.553 -2.0323  0.4800 -1.8164
  387MOL0     H53374   0.443   9.309   3.752 -0.8063  0.6515 -1.3965
  387MOL0     H53375   0.551   9.203   3.658  2.4751  0.7581  1.2255
  387MOL0     H53376   0.460   9.279   3.449  0.7814 -3.3965  1.7775
  387MOL0     H53377   0.396   9.430   3.518 -1.3688 -0.5744 -0.6196
  387MOL0     H53378   0.282   9.143   3.538  1.8746  0.3157  2.8198
  387MOL0     H53379   0.226   9.293   3.627 -3.9796  2.0138 -2.1976
  387MOL0     H53380   0.237   9.305   3.337 -1.6914  4.3656 -1.2284
  387MOL0     H53381   0.148   9.406   3.450 -1.8876 -0.5175  0.4045
  387MOL0     H53382   0.009   9.178   3.495 -1.9517 -1.1157  0.2184
  387MOL0     H53383   0.116   9.102   3.379 -0.1890 -0.8524  2.4271
  387MOL0     H53384  -0.111   9.175   3.309  0.8130 -1.1182 -0.2548
  387MOL0     H53385   0.025   9.222   3.197  0.2196  0.3448  0.0832
  387MOL0     H53386   0.848   9.389   3.969  0.7986  0.3447 -0.5146
  387MOL0     H53387   1.068   9.401   4.058  3.2562 -1.2332  1.2561
  387MOL0     H53388   1.480   9.044   4.136 -0.3435  0.6094  3.3021
  387MOL0     H53389   1.693   9.029   4.213  1.2323  1.3756  2.6868
  387MOL0     H53390   1.744   8.768   5.057  1.4519 -0.3659 -2.6849
  387MOL0     H53391   1.910   8.699   4.906  3.5970 -0.9325 -0.3698
  387MOL0     H53392   2.144   8.536   4.665 -0.1212  1.3627 -1.9311
  387MOL0     H53393   2.246   8.512   4.461 -1.3262  0.8846  1.5522
  387MOL0     H53394   2.276   8.452   4.271  1.5665  0.5055  1.6125
  387MOL0     H53395   2.442   8.396   4.238  1.2575 -2.9160  0.8018
  387MOL0     H53396   2.199   8.264   4.140 -0.1536 -3.2036 -2.7217
  387MOL0     H53397   2.357   8.200   4.121 -0.8493 -0.6676 -1.2000
  387MOL0     H53398   2.256   8.328   3.916 -0.2814 -3.1094  1.5608
  387MOL0     H53399   2.305   8.480   4.005 -1.4893 -0.4148 -1.5242
  387MOL0     H53400   2.535   8.361   4.052  0.4523 -2.3306  0.7962
  387MOL0     H53401   2.507   8.449   3.904 -0.3050 -0.8241 -2.6653
  387MOL0     H53402   2.537   8.081   3.714  0.9030  0.3610  0.1695
  387MOL0     H53403   2.305   8.094   4.526  2.1584  0.6750  1.0820
  387MOL0     H53404   2.054   8.058   4.750 -0.2664  2.8055  0.6233
  387MOL0     H53405   2.209   7.978   4.693 -0.3423  0.4033 -2.0559
  387MOL0     H53406   2.202   8.052   4.847 -2.1404 -1.0340  0.2315
  388MOL0     O53407   6.801   6.018   1.936  0.7733  0.0402 -0.8092
  388MOL0     C53408   6.913   6.000   1.889 -0.0088  0.0561 -0.3136
  388MOL0     O53409   6.957   5.877   1.847  0.1403  0.2486  1.5439
  388MOL0     C53410   6.852   5.789   1.812  0.3536  0.6654  0.4482
  388MOL0     C53411   6.837   5.737   1.682  0.3991 -0.4655  0.1837
  388MOL0     C53412   6.734   5.649   1.646 -0.2885 -0.1660  0.0588
  388MOL0     C53413   6.647   5.601   1.741 -0.4874  1.0614  0.1876
  388MOL0     O53414   6.547   5.512   1.715 -0.9619 -0.6904 -0.1675
  388MOL0     C53415   6.500   5.494   1.589 -0.5099 -1.1569  0.1487
  388MOL0     C53416   6.416   5.618   1.540  0.9995  0.7903  0.0977
  388MOL0     C53417   6.382   5.593   1.386 -0.6119  0.7034 -0.8298
  388MOL0     C53418   6.314   5.706   1.309 -0.1825  0.4400  0.0698
  388MOL0     C53419   6.170   5.727   1.353 -0.5013  0.1611 -0.1082
  388MOL0     C53420   6.090   5.796   1.246  0.2621 -0.3998 -0.1581
  388MOL0     C53421   6.005   5.920   1.302  0.1661 -0.1036  0.0355
  388MOL0     C53422   6.090   6.045   1.319 -0.2292 -0.7369  0.1145
  388MOL0     N53423   6.031   6.122   1.439  0.3775  0.7508  0.1684
  388MOL0     C53424   6.020   6.073   1.568  0.5390 -0.0915  0.1543
  388MOL0     C53425   5.973   6.167   1.646  0.4847 -0.1959  0.6114
  388MOL0     C53426   5.960   6.152   1.795 -0.0148  0.0310  0.0290
  388MOL0     C53427   5.815   6.154   1.851  0.5621  0.5469  0.4138
  388MOL0     C53428   5.819   6.152   2.004  0.2610  0.6568  0.0857
  388MOL0     C53429   5.772   6.276   2.062  0.3541  0.0341  1.2015
  388MOL0     O53430   5.789   6.279   2.204 -0.2999 -0.3002 -0.2139
  388MOL0     C53431   5.687   6.272   2.294  0.0277 -0.2509  0.0216
  388MOL0     C53432   5.713   6.350   2.407 -0.5270 -0.6357  1.0715
  388MOL0     C53433   5.604   6.368   2.497 -0.2903 -0.0776  0.8564
  388MOL0     C53434   5.638   6.446   2.622  0.4102  0.3142  0.6876
  388MOL0     C53435   5.470   6.337   2.475 -0.7054  0.1438 -0.3057
  388MOL0     C53436   5.358   6.365   2.568 -0.8603 -0.2163  0.1896
  388MOL0     O53437   5.370   6.325   2.696 -0.0044 -0.1314 -0.7496
  388MOL0     C53438   5.270   6.368   2.782  0.4157  0.3154  0.5719
  388MOL0     C53439   5.193   6.272   2.857  0.0421  0.0693 -0.8690
  388MOL0     C53440   5.101   6.318   2.949 -0.6779 -0.5207 -1.0003
  388MOL0     C53441   5.082   6.458   2.986  0.1202 -0.2918  1.1147
  388MOL0     O53442   4.988   6.504   3.076 -0.4990  0.3870  0.4565
  388MOL0     C53443   4.875   6.436   3.110  0.0679  0.4942  0.3260
  388MOL0     C53444   4.766   6.517   3.180  0.1325 -0.4507 -0.4607
  388MOL0     C53445   4.788   6.534   3.328 -0.2215  0.4665 -0.3232
  388MOL0     C53446   4.670   6.612   3.392 -0.8509 -0.0029 -0.2196
  388MOL0     C53447   4.707   6.650   3.536 -0.1272  0.9083 -0.2410
  388MOL0     C53448   4.713   6.522   3.620 -0.0710  0.8776  0.1780
  388MOL0     C53449   4.744   6.559   3.765 -0.6061 -0.7850 -0.0574
  388MOL0     C53450   4.865   6.651   3.782  0.4510 -0.1743 -0.7064
  388MOL0    Cl53451   5.019   6.586   3.710  0.0977 -0.2746  0.0819
  388MOL0     C53452   5.166   6.550   2.921 -1.2504  0.1292 -0.2778
  388MOL0     C53453   5.258   6.513   2.812  0.7240  0.4141 -0.5584
  388MOL0     O53454   5.263   6.419   2.521  1.0763  0.3871 -0.3272
  388MOL0     C53455   5.449   6.265   2.354  0.7270  0.4600 -1.1641
  388MOL0     C53456   5.555   6.235   2.269  0.7421 -1.0021  0.7573
  388MOL0     N53457   5.964   6.281   1.567 -0.4641  0.6412  0.2732
  388MOL0     N53458   6.004   6.257   1.444  0.1539  0.8402 -0.0638
  388MOL0     C53459   6.665   5.646   1.873 -0.4029  1.3612  0.3185
  388MOL0     C53460   6.773   5.727   1.903  0.7274 -0.3034  0.7216
  388MOL0     C53461   7.011   6.108   1.920 -0.4094  0.0485 -0.3171
  388MOL0     C53462   7.145   6.062   1.950  0.1726  0.1743  0.5687
  388MOL0     C53463   7.243   6.158   1.967  0.3327  0.7618 -0.1932
  388MOL0     C53464   7.211   6.288   1.949  0.3647 -0.2497  0.7438
  388MOL0     O53465   7.328   6.363   1.942  0.2571 -0.3282  0.9185
  388MOL0     C53466   7.342   6.463   1.846  0.2826 -0.3627  0.8351
  388MOL0     C53467   7.473   6.552   1.866  0.1436  0.7977 -0.2307
  388MOL0     C53468   7.496   6.645   1.750 -0.7378 -1.6744 -0.1132
  388MOL0     C53469   7.623   6.739   1.778  0.3062 -0.0928 -0.1294
  388MOL0     C53470   7.670   6.808   1.657  0.8200 -0.2769  0.9112
  388MOL0     C53471   7.690   6.868   1.547  1.3173  0.5638 -0.5419
  388MOL0     C53472   7.082   6.338   1.926  0.6181  0.3984 -0.0014
  388MOL0     C53473   6.980   6.249   1.911  0.5624 -0.9756 -1.0600
  388MOL0     C53474   6.846   6.319   1.866 -0.1578  0.2071 -0.4986
  388MOL0     H53475   6.919   5.768   1.619  1.8564 -0.8876  1.7915
  388MOL0     H53476   6.738   5.599   1.550 -1.3623  0.3773 -0.2797
  388MOL0     H53477   6.421   5.418   1.593 -3.8603  2.0805  0.6560
  388MOL0     H53478   6.577   5.461   1.520  0.9240 -2.9784  2.4529
  388MOL0     H53479   6.321   5.629   1.593  1.9116 -0.2354  2.0464
  388MOL0     H53480   6.475   5.708   1.558  0.5008  0.8398  1.6588
  388MOL0     H53481   6.474   5.567   1.333  0.1365  1.7703 -0.0832
  388MOL0     H53482   6.309   5.512   1.376 -0.2661  0.1905  0.5212
  388MOL0     H53483   6.368   5.801   1.315 -1.0078  1.0311 -1.2416
  388MOL0     H53484   6.316   5.690   1.201  1.3502 -0.5538  0.2163
  388MOL0     H53485   6.156   5.782   1.446  0.7238  1.2816 -0.5706
  388MOL0     H53486   6.124   5.628   1.361 -0.0587  0.1060  2.4341
  388MOL0     H53487   6.147   5.833   1.160 -1.7434  0.0030 -1.3910
  388MOL0     H53488   6.026   5.725   1.192  4.7415 -0.9322 -5.7989
  388MOL0     H53489   5.946   5.897   1.391 -1.7431  1.0040 -0.8942
  388MOL0     H53490   5.923   5.947   1.235 -1.8258 -0.5792  2.1545
  388MOL0     H53491   6.192   6.014   1.345 -0.9940 -2.7606  0.9468
  388MOL0     H53492   6.099   6.090   1.220  0.6463 -1.4331 -0.1352
  388MOL0     H53493   6.039   5.967   1.585  0.1588 -0.1507  0.2122
  388MOL0     H53494   6.025   6.225   1.843 -1.6886  2.1939 -0.8125
  388MOL0     H53495   6.010   6.059   1.824 -0.4704  0.1526  1.2621
  388MOL0     H53496   5.755   6.237   1.812 -0.0301  0.4549  1.1001
  388MOL0     H53497   5.776   6.060   1.810  3.9855 -0.8146 -0.0364
  388MOL0     H53498   5.756   6.072   2.045 -1.9774  2.4420  0.3635
  388MOL0     H53499   5.918   6.128   2.043 -0.3783 -0.9780  0.7935
  388MOL0     H53500   5.823   6.361   2.016  2.5363 -0.4335  2.6285
  388MOL0     H53501   5.668   6.274   2.027  0.1511 -4.2317  1.5716
  388MOL0     H53502   5.813   6.382   2.435 -0.4030  0.0822 -0.1300
  388MOL0     H53503   5.709   6.521   2.586 -0.9986  2.7344  2.6101
  388MOL0     H53504   5.683   6.381   2.698  1.1522 -0.7333 -0.6192
  388MOL0     H53505   5.563   6.511   2.669  2.0731  0.2103  3.7792
  388MOL0     H53506   5.202   6.166   2.837 -0.7520 -0.0168 -0.7840
  388MOL0     H53507   5.033   6.248   2.996  0.8672 -0.2476  1.8759
  388MOL0     H53508   4.829   6.385   3.025  2.0443  0.6322 -0.8576
  388MOL0     H53509   4.903   6.350   3.173  0.2834 -2.0370 -2.9761
  388MOL0     H53510   4.765   6.612   3.125 -0.1684 -0.0557  0.2210
  388MOL0     H53511   4.669   6.469   3.168  1.0565 -2.0827 -1.8962
  388MOL0     H53512   4.883   6.584   3.351 -1.3838  2.3557  0.5904
  388MOL0     H53513   4.788   6.431   3.363  0.1615  0.0225 -1.5943
  388MOL0     H53514   4.576   6.559   3.373 -0.2201 -0.5891 -1.8996
  388MOL0     H53515   4.669   6.708   3.339 -0.0780 -0.7315 -1.6146
  388MOL0     H53516   4.800   6.707   3.543 -0.6365  1.5910  1.5136
  388MOL0     H53517   4.634   6.718   3.581 -1.5784 -1.7449  1.7398
  388MOL0     H53518   4.785   6.451   3.578 -0.6750  0.4843 -0.2285
  388MOL0     H53519   4.613   6.477   3.626 -0.1300  1.1034  0.9611
  388MOL0     H53520   4.765   6.462   3.812  2.9967 -0.4869 -0.7400
  388MOL0     H53521   4.665   6.619   3.809  0.5266  1.1516 -0.5595
  388MOL0     H53522   4.875   6.677   3.888  1.4912 -1.6160 -0.4225
  388MOL0     H53523   4.859   6.755   3.746  1.8423 -0.4626 -1.8828
  388MOL0     H53524   5.154   6.654   2.949 -0.3248  0.6703 -1.7332
  388MOL0     H53525   5.320   6.580   2.754  1.2000  0.5046  0.0524
  388MOL0     H53526   5.345   6.235   2.339 -0.1441  2.1244  0.9120
  388MOL0     H53527   5.522   6.196   2.173  4.0568  0.0448 -0.9603
  388MOL0     H53528   6.599   5.617   1.954  0.8518 -0.4556  0.7531
  388MOL0     H53529   6.762   5.763   2.005 -1.5494 -2.2880  1.2840
  388MOL0     H53530   7.176   5.958   1.947  0.9214  0.3473  1.6720
  388MOL0     H53531   7.346   6.126   1.974  0.0364 -1.8683 -4.3331
  388MOL0     H53532   7.355   6.411   1.751  0.2443  0.1210  0.5623
  388MOL0     H53533   7.251   6.524   1.846  0.2892 -0.0831 -2.9877
  388MOL0     H53534   7.557   6.483   1.874  0.2508  0.4138 -3.4366
  388MOL0     H53535   7.467   6.614   1.956  2.3356  1.5318 -0.5385
  388MOL0     H53536   7.523   6.583   1.664 -0.9841 -1.1854 -0.5512
  388MOL0     H53537   7.402   6.698   1.735 -1.0695 -2.0447  0.6247
  388MOL0     H53538   7.707   6.694   1.833  0.4421  1.4828  1.0426
  388MOL0     H53539   7.597   6.816   1.851  4.1697 -0.5489  2.0536
  388MOL0     H53540   7.705   6.919   1.454  2.8849  3.7653  1.2816
  388MOL0     H53541   7.064   6.445   1.924 -0.7155  0.1835 -1.7973
  388MOL0     H53542   6.826   6.293   1.762  0.8502  0.0664 -0.6693
  388MOL0     H53543   6.766   6.270   1.922  1.4927 -0.2024  1.6625
  388MOL0     H53544   6.846   6.427   1.886 -0.4992  0.4131 -1.5726
  389MOL0     O53545  11.499   2.610   4.825 -0.3974  0.1106  0.0877
  389MOL0     C53546  11.422   2.586   4.920 -0.9395 -0.5799 -0.0323
  389MOL0     O53547  11.280   2.550   4.911  0.5211  0.3102 -0.1993
  389MOL0     C53548  11.226   2.537   4.785 -0.2440 -0.3932  0.5998
  389MOL0     C53549  11.282   2.485   4.661  0.3676 -0.1027 -0.5863
  389MOL0     C53550  11.203   2.493   4.547  0.5538 -0.3372  0.7823
  389MOL0     C53551  11.068   2.538   4.544  0.2894 -0.2816  0.0216
  389MOL0     O53552  11.007   2.528   4.424 -0.0374  0.2711 -0.2189
  389MOL0     C53553  10.896   2.611   4.406  0.3809  0.8032  0.9278
  389MOL0     C53554  10.924   2.665   4.267  0.1871  0.2636  0.2649
  389MOL0     C53555  10.866   2.588   4.152  0.3779  1.7649  0.0216
  389MOL0     C53556  10.885   2.675   4.023 -0.5425  0.6987 -0.3757
  389MOL0     C53557  10.861   2.609   3.896  1.1532 -0.3463  0.1915
  389MOL0     C53558  10.712   2.585   3.887  1.0584  0.4263 -0.6474
  389MOL0     C53559  10.669   2.522   3.754  0.5122 -0.0484 -0.0131
  389MOL0     C53560  10.516   2.529   3.733 -0.1878 -1.3297 -0.3847
  389MOL0     N53561  10.475   2.474   3.604 -0.6299 -0.5961 -0.3152
  389MOL0     C53562  10.410   2.359   3.580 -0.0477  0.3221 -0.1165
  389MOL0     C53563  10.425   2.329   3.448  0.8719  0.7500  0.0952
  389MOL0     C53564  10.390   2.206   3.367  0.2254  0.3511  0.3896
  389MOL0     C53565  10.497   2.098   3.396 -0.0018  0.5224 -0.2680
  389MOL0     C53566  10.496   1.977   3.302  0.6861  0.5849  0.5616
  389MOL0     C53567  10.600   1.869   3.347  0.1705 -0.2356 -1.1180
  389MOL0     O53568  10.725   1.946   3.350  0.6414  0.0275 -0.2156
  389MOL0     C53569  10.806   1.939   3.236  0.3984 -0.1308 -0.0811
  389MOL0     C53570  10.853   2.061   3.193 -0.7939  0.0866  0.3098
  389MOL0     C53571  10.953   2.068   3.094  0.3683 -0.1453 -0.0553
  389MOL0     C53572  10.998   2.203   3.056  0.5200  0.1821  0.9124
  389MOL0     C53573  11.006   1.948   3.047 -0.6055 -0.3292  0.7186
  389MOL0     C53574  11.113   1.942   2.936  0.6740 -0.0732 -0.3508
  389MOL0     O53575  11.119   1.819   2.867 -0.5125 -1.0221  0.7877
  389MOL0     C53576  11.214   1.808   2.761  0.8112  0.1713  1.0782
  389MOL0     C53577  11.176   1.816   2.626 -0.1694 -0.5633  0.0518
  389MOL0     C53578  11.271   1.795   2.527  1.1006  0.7798  0.8493
  389MOL0     C53579  11.403   1.758   2.557  0.1011  0.4505 -0.0408
  389MOL0     O53580  11.501   1.763   2.457  0.4465 -0.6799 -0.2756
  389MOL0     C53581  11.583   1.643   2.446 -0.0191  0.2841 -0.0050
  389MOL0     C53582  11.664   1.629   2.314 -0.0341 -0.2083  0.0065
  389MOL0     C53583  11.598   1.522   2.222  0.4454 -0.1681  0.8674
  389MOL0     C53584  11.684   1.498   2.088 -0.0207  0.4537 -0.1876
  389MOL0     C53585  11.831   1.459   2.117  0.2809 -0.0117  0.7696
  389MOL0     C53586  11.839   1.318   2.185  0.3385 -0.7261 -0.9718
  389MOL0     C53587  11.987   1.260   2.171  0.6981 -0.0917 -0.1343
  389MOL0     C53588  11.992   1.136   2.246 -0.1492  0.3399 -0.0975
  389MOL0    Cl53589  12.015   1.178   2.415 -0.3435 -0.0102 -0.5369
  389MOL0     C53590  11.426   1.722   2.685 -0.2669  0.4192 -0.0629
  389MOL0     C53591  11.340   1.749   2.795  0.9395  0.1259 -0.0832
  389MOL0     O53592  11.171   2.042   2.907  0.1164  0.2095  0.0182
  389MOL0     C53593  10.964   1.826   3.093  0.7668  0.0079 -0.0293
  389MOL0     C53594  10.855   1.820   3.184  0.6321  0.4134  0.8873
  389MOL0     N53595  10.511   2.427   3.399 -0.0302  0.4116  0.1421
  389MOL0     N53596  10.541   2.512   3.496  0.3622 -0.2171 -0.2342
  389MOL0     C53597  11.018   2.579   4.671  0.2438 -0.8363  0.6958
  389MOL0     C53598  11.094   2.573   4.779 -0.8977  0.1213 -0.7010
  389MOL0     C53599  11.486   2.601   5.054  0.8608 -0.1118 -0.2912
  389MOL0     C53600  11.465   2.494   5.155 -1.1903 -0.6284 -0.5563
  389MOL0     C53601  11.550   2.497   5.268  0.2070  0.1264 -0.7807
  389MOL0     C53602  11.635   2.606   5.295  0.6219  0.1098 -0.3177
  389MOL0     O53603  11.703   2.606   5.412 -0.7444 -0.2831 -0.7492
  389MOL0     C53604  11.649   2.674   5.525 -0.0007  0.8888  0.3510
  389MOL0     C53605  11.678   2.586   5.644  1.3945  0.2089 -0.3035
  389MOL0     C53606  11.583   2.466   5.643 -0.7535  0.5581 -0.3181
  389MOL0     C53607  11.589   2.387   5.784 -0.4454 -0.1134 -0.0246
  389MOL0     C53608  11.560   2.460   5.908  0.4593 -0.5527  0.0639
  389MOL0     C53609  11.538   2.527   6.006 -0.3619 -0.1078  0.6864
  389MOL0     C53610  11.646   2.704   5.200  0.5815 -0.8404  0.2514
  389MOL0     C53611  11.570   2.709   5.083 -0.0615 -0.5708 -0.7168
  389MOL0     C53612  11.593   2.821   4.996  0.4995 -0.1299 -0.3513
  389MOL0     H53613  11.387   2.459   4.650  0.3667  0.3573 -1.8187
  389MOL0     H53614  11.242   2.469   4.449 -1.1229  0.0401 -0.0169
  389MOL0     H53615  10.902   2.703   4.465  2.9405  1.2059  0.1557
  389MOL0     H53616  10.798   2.564   4.407  0.8123 -0.1186  0.6209
  389MOL0     H53617  10.884   2.767   4.270 -1.9085 -0.5154  0.0567
  389MOL0     H53618  11.033   2.671   4.258  0.4726 -4.3473 -2.3391
  389MOL0     H53619  10.910   2.489   4.133 -2.2233  0.7817 -1.2620
  389MOL0     H53620  10.760   2.582   4.177  0.4799  0.1616  0.1900
  389MOL0     H53621  10.826   2.768   4.025 -2.0021 -0.1785 -1.0283
  389MOL0     H53622  10.991   2.700   4.033 -0.6410  0.7145  0.7090
  389MOL0     H53623  10.919   2.516   3.890  0.7413 -1.1892  5.1903
  389MOL0     H53624  10.888   2.678   3.816  1.9181 -3.0574 -2.0499
  389MOL0     H53625  10.679   2.535   3.979 -0.2413  1.8221 -0.3101
  389MOL0     H53626  10.655   2.678   3.885 -0.3841 -0.4230 -0.1963
  389MOL0     H53627  10.702   2.419   3.748  4.2439  1.0770 -1.3790
  389MOL0     H53628  10.720   2.564   3.666 -3.1086  0.4842 -2.0933
  389MOL0     H53629  10.464   2.471   3.810  1.5174 -2.4521 -0.0301
  389MOL0     H53630  10.485   2.632   3.752  0.3936 -1.1802 -0.2273
  389MOL0     H53631  10.360   2.299   3.656  0.2933  0.0617 -0.0953
  389MOL0     H53632  10.400   2.221   3.259  0.6359  2.5779  0.6985
  389MOL0     H53633  10.288   2.180   3.397 -1.0935  2.8757 -1.4784
  389MOL0     H53634  10.589   2.155   3.385 -0.0397  0.6374 -0.0049
  389MOL0     H53635  10.489   2.065   3.500 -0.1649 -1.2497 -0.8161
  389MOL0     H53636  10.396   1.938   3.323  0.2384  0.2442 -1.8409
  389MOL0     H53637  10.492   2.008   3.197  0.3914  2.7281  1.1547
  389MOL0     H53638  10.563   1.834   3.443 -2.5796  0.1171 -1.9512
  389MOL0     H53639  10.585   1.787   3.277 -0.5094 -1.1186  0.0254
  389MOL0     H53640  10.822   2.148   3.250 -0.3309 -1.8081  3.6818
  389MOL0     H53641  10.986   2.213   2.947 -1.9100 -2.9705  0.7448
  389MOL0     H53642  11.106   2.206   3.072  0.9747 -1.9157 -1.2001
  389MOL0     H53643  10.942   2.282   3.107 -0.9027 -1.2873  1.7072
  389MOL0     H53644  11.072   1.828   2.599 -1.2919 -2.3814  2.9986
  389MOL0     H53645  11.230   1.815   2.428  1.7963 -3.4274 -0.4793
  389MOL0     H53646  11.656   1.651   2.526  0.3915 -0.0244 -0.3477
  389MOL0     H53647  11.530   1.550   2.465  3.6234 -1.1637  4.8370
  389MOL0     H53648  11.669   1.721   2.256 -3.2547  0.0766 -0.0091
  389MOL0     H53649  11.768   1.612   2.344  0.7403  1.2647 -1.6395
  389MOL0     H53650  11.495   1.558   2.210  0.7908  1.9470  3.4247
  389MOL0     H53651  11.587   1.430   2.280 -0.4246 -1.3043 -0.9668
  389MOL0     H53652  11.689   1.586   2.023  1.7700  3.6322  3.8243
  389MOL0     H53653  11.640   1.422   2.023  1.0531  1.8869 -2.7545
  389MOL0     H53654  11.877   1.448   2.019 -0.2001  1.6250  0.3310
  389MOL0     H53655  11.885   1.536   2.174 -2.0791  1.7242  0.8386
  389MOL0     H53656  11.763   1.253   2.142 -0.0549  0.0241 -1.4349
  389MOL0     H53657  11.817   1.333   2.291 -1.4553  0.3812 -1.4560
  389MOL0     H53658  12.065   1.329   2.203 -1.0825  3.3107 -2.4797
  389MOL0     H53659  12.001   1.228   2.067 -1.5987 -0.0422 -0.5142
  389MOL0     H53660  12.068   1.066   2.211 -0.1914 -0.1716  0.7968
  389MOL0     H53661  11.897   1.082   2.232  0.3253 -0.6880  0.4839
  389MOL0     H53662  11.523   1.692   2.724 -0.6219  1.4487  1.6975
  389MOL0     H53663  11.369   1.743   2.899 -0.3871 -1.1085  0.2433
  389MOL0     H53664  11.000   1.731   3.056  0.4424 -0.5879  1.1182
  389MOL0     H53665  10.821   1.719   3.204  1.0814 -0.1348 -0.9480
  389MOL0     H53666  10.919   2.623   4.677  0.4339 -0.1517 -0.7887
  389MOL0     H53667  11.054   2.610   4.873 -0.8201 -3.0718  0.7194
  389MOL0     H53668  11.405   2.406   5.138 -0.3531 -1.2460 -0.3523
  389MOL0     H53669  11.543   2.411   5.334  0.9444 -1.8789 -3.1455
  389MOL0     H53670  11.697   2.771   5.538 -0.9533  1.4249 -0.0976
  389MOL0     H53671  11.544   2.689   5.499  0.0838 -1.3771 -1.7256
  389MOL0     H53672  11.660   2.645   5.734  0.7386  0.4354 -0.5795
  389MOL0     H53673  11.785   2.559   5.640  0.6235 -3.2546 -1.3205
  389MOL0     H53674  11.481   2.500   5.625 -0.1292  0.8986 -3.9073
  389MOL0     H53675  11.620   2.393   5.570  2.2706  3.0566 -1.4779
  389MOL0     H53676  11.690   2.349   5.799 -0.0901  1.0392  0.6569
  389MOL0     H53677  11.528   2.297   5.793 -0.4767  0.1540  3.6907
  389MOL0     H53678  11.517   2.591   6.089  0.7101 -1.2178  1.8438
  389MOL0     H53679  11.708   2.788   5.231  1.6275 -2.1015  1.7473
  389MOL0     H53680  11.639   2.908   5.044 -0.1532  1.3614 -2.2652
  389MOL0     H53681  11.669   2.775   4.933 -0.4960  0.2362 -1.8839
  389MOL0     H53682  11.505   2.855   4.941 -0.3000  0.5965  1.3113
  390MOL0     O53683  10.892   7.009   8.821  0.1621 -0.4246 -0.3822
  390MOL0     C53684  10.791   6.933   8.819 -0.7064  0.4395 -0.2669
  390MOL0     O53685  10.794   6.798   8.772  0.2914 -0.3020  1.0309
  390MOL0     C53686  10.911   6.751   8.723  0.2572  0.1056  0.2937
  390MOL0     C53687  10.916   6.734   8.585 -0.1374 -0.1250  0.2078
  390MOL0     C53688  11.032   6.700   8.518 -0.0235  0.3677 -0.3872
  390MOL0     C53689  11.153   6.692   8.583 -0.5298 -0.1763 -0.7968
  390MOL0     O53690  11.263   6.644   8.511 -0.3932 -0.8474 -0.2096
  390MOL0     C53691  11.345   6.551   8.590 -0.7782  0.6340  0.8169
  390MOL0     C53692  11.492   6.588   8.551  0.5928  0.8943  0.4635
  390MOL0     C53693  11.544   6.715   8.609  0.4199 -0.4748  0.0621
  390MOL0     C53694  11.700   6.715   8.614  0.2662  0.3185  0.1134
  390MOL0     C53695  11.762   6.823   8.710 -0.8783  0.3551 -0.1983
  390MOL0     C53696  11.906   6.798   8.709 -1.1397 -0.0449 -0.0173
  390MOL0     C53697  11.976   6.867   8.828 -0.1804 -0.5710 -0.8130
  390MOL0     C53698  12.127   6.906   8.807  0.4264  0.4979 -0.1288
  390MOL0     N53699  12.215   6.783   8.814  0.2609 -1.0836  0.5043
  390MOL0     C53700  12.274   6.737   8.701 -0.5162 -0.3935 -0.4386
  390MOL0     C53701  12.382   6.666   8.743 -0.4171  0.2117  0.2747
  390MOL0     C53702  12.495   6.609   8.654 -0.9395 -0.0320 -0.0546
  390MOL0     C53703  12.521   6.462   8.667 -0.1324  0.2844 -0.0216
  390MOL0     C53704  12.403   6.369   8.640 -1.3800  0.0508 -0.2631
  390MOL0     C53705  12.436   6.213   8.651  0.9381  0.2785 -1.2089
  390MOL0     O53706  12.527   6.189   8.542  0.2755  0.4463  0.1624
  390MOL0     C53707  12.515   6.096   8.438 -0.4752 -0.5425 -1.6415
  390MOL0     C53708  12.588   6.110   8.326  0.2540 -0.0723 -0.2359
  390MOL0     C53709  12.575   6.033   8.216  0.0806  0.0004  0.0737
  390MOL0     C53710  12.682   6.069   8.113  0.0441 -1.3546 -0.5482
  390MOL0     C53711  12.492   5.924   8.209  0.0558  0.2545  0.7125
  390MOL0     C53712  12.473   5.819   8.109 -0.0684  0.6442  0.7308
  390MOL0     O53713  12.415   5.695   8.149 -0.7298 -0.5718 -0.5374
  390MOL0     C53714  12.401   5.590   8.066 -0.4173 -0.2661 -0.2143
  390MOL0     C53715  12.519   5.520   8.018  0.3628  0.6442  0.0798
  390MOL0     C53716  12.506   5.417   7.918 -0.1293 -1.3957 -0.6618
  390MOL0     C53717  12.385   5.381   7.863  0.5363  0.8659 -0.4301
  390MOL0     O53718  12.384   5.287   7.770 -0.2367 -1.0488  0.4814
  390MOL0     C53719  12.295   5.293   7.656 -1.3881 -0.1497  0.4259
  390MOL0     C53720  12.375   5.318   7.533 -0.7160  0.6120  0.2786
  390MOL0     C53721  12.489   5.214   7.507  0.0775 -0.4593  0.2698
  390MOL0     C53722  12.542   5.234   7.367 -0.0248  0.6193  1.1915
  390MOL0     C53723  12.682   5.169   7.348  0.4878 -0.0278  0.4978
  390MOL0     C53724  12.748   5.220   7.208 -0.6150 -0.4892 -1.2066
  390MOL0     C53725  12.887   5.170   7.190  0.0758  0.2495 -0.9475
  390MOL0     C53726  12.960   5.229   7.086  0.3545 -1.6604  0.1460
  390MOL0    Cl53727  13.118   5.159   7.073  0.0862 -0.0328  0.6076
  390MOL0     C53728  12.273   5.438   7.920  0.6070 -0.7971 -0.0729
  390MOL0     C53729  12.283   5.548   8.006  0.1732 -0.3240  0.1606
  390MOL0     O53730  12.506   5.845   7.991  0.0293 -0.1024 -0.3263
  390MOL0     C53731  12.417   5.896   8.332 -1.4128  0.0174  0.2447
  390MOL0     C53732  12.422   5.988   8.439  0.1971  0.1472  0.2174
  390MOL0     N53733  12.389   6.660   8.887  0.5463 -0.2143  0.0251
  390MOL0     N53734  12.290   6.733   8.927  0.9019  0.0898  0.2815
  390MOL0     C53735  11.142   6.720   8.722 -0.7019 -0.5603 -0.3634
  390MOL0     C53736  11.025   6.742   8.793 -0.8980 -0.3599 -0.3117
  390MOL0     C53737  10.658   6.981   8.865  0.3966 -0.5482  0.0725
  390MOL0     C53738  10.654   7.119   8.913  0.4407  0.3348  0.6237
  390MOL0     C53739  10.532   7.181   8.943 -0.5776 -1.0372 -0.1737
  390MOL0     C53740  10.411   7.123   8.925 -0.0962 -0.5355 -0.4300
  390MOL0     O53741  10.296   7.201   8.936 -0.0864 -0.2416  0.0369
  390MOL0     C53742  10.165   7.148   8.939  0.1343 -0.5517 -0.2110
  390MOL0     C53743  10.104   7.150   8.806  1.0495  0.1116 -0.0715
  390MOL0     C53744  10.056   7.288   8.752 -0.5033 -0.3438 -0.8138
  390MOL0     C53745   9.915   7.308   8.803 -0.3570  0.1725 -0.3729
  390MOL0     C53746   9.816   7.237   8.725 -0.3445  0.2737  0.4842
  390MOL0     C53747   9.732   7.169   8.659  0.5543  0.1235  0.5573
  390MOL0     C53748  10.407   6.992   8.878  0.4902  0.5175 -0.4177
  390MOL0     C53749  10.530   6.920   8.842  0.4127 -0.9715 -0.0424
  390MOL0     C53750  10.510   6.780   8.789  0.7236 -0.5819 -0.5476
  390MOL0     H53751  10.819   6.747   8.537 -0.5095 -3.3231 -0.1316
  390MOL0     H53752  11.030   6.671   8.414 -1.1268  1.7457 -0.7888
  390MOL0     H53753  11.320   6.449   8.563  0.0499  0.1809  1.6926
  390MOL0     H53754  11.328   6.553   8.698 -3.4262 -3.0504  0.6673
  390MOL0     H53755  11.559   6.515   8.598  3.0109  0.5138 -3.1748
  390MOL0     H53756  11.515   6.572   8.445 -0.7443 -2.3553  0.5469
  390MOL0     H53757  11.506   6.807   8.562  1.0642  0.1070  0.6705
  390MOL0     H53758  11.497   6.715   8.707 -1.4823  0.3450 -0.8057
  390MOL0     H53759  11.733   6.615   8.641 -0.9641  0.2198  1.3893
  390MOL0     H53760  11.738   6.728   8.512  1.7123 -0.5598  0.5245
  390MOL0     H53761  11.715   6.804   8.807 -0.8258 -1.2151 -0.4512
  390MOL0     H53762  11.741   6.920   8.664 -0.1923 -1.1391 -4.0719
  390MOL0     H53763  11.921   6.690   8.710 -1.4307 -0.0951  2.0312
  390MOL0     H53764  11.951   6.828   8.614  0.1208 -0.6115  0.3779
  390MOL0     H53765  11.970   6.805   8.918  1.0072  1.1009  0.4862
  390MOL0     H53766  11.925   6.961   8.854  0.7591 -0.4288  0.6621
  390MOL0     H53767  12.125   6.947   8.705 -0.9934 -1.6338 -1.0247
  390MOL0     H53768  12.155   6.967   8.893 -3.2971  1.1238  0.7890
  390MOL0     H53769  12.247   6.752   8.597  0.0659  1.7992 -0.3321
  390MOL0     H53770  12.589   6.661   8.675 -1.1023  1.2926 -2.2646
  390MOL0     H53771  12.476   6.624   8.547 -0.1568 -3.4307 -0.8026
  390MOL0     H53772  12.589   6.448   8.582 -2.6541  0.9777 -2.2997
  390MOL0     H53773  12.553   6.441   8.769  0.8490 -1.8714 -0.7072
  390MOL0     H53774  12.317   6.393   8.703 -0.5997  0.5654  0.6296
  390MOL0     H53775  12.360   6.387   8.541 -0.9470  1.9178 -0.1376
  390MOL0     H53776  12.486   6.187   8.745  1.1091 -2.9184 -2.0589
  390MOL0     H53777  12.346   6.152   8.638  0.5367  0.6381 -0.2006
  390MOL0     H53778  12.652   6.197   8.314 -1.5013  0.9964 -2.5495
  390MOL0     H53779  12.771   6.006   8.125  0.1817 -1.9817 -3.9231
  390MOL0     H53780  12.707   6.175   8.116 -1.5859 -0.9464  2.7565
  390MOL0     H53781  12.645   6.047   8.012 -2.3686 -0.8573  0.1611
  390MOL0     H53782  12.618   5.548   8.053  0.8251 -0.8996  0.0668
  390MOL0     H53783  12.586   5.356   7.876 -0.0027 -2.6202  1.2238
  390MOL0     H53784  12.246   5.196   7.645 -0.9936 -0.2478 -0.5347
  390MOL0     H53785  12.216   5.368   7.665 -0.7906  0.7822 -1.6656
  390MOL0     H53786  12.316   5.312   7.441 -1.9546  1.0830  1.0227
  390MOL0     H53787  12.420   5.415   7.554  2.8673 -1.2077  1.8740
  390MOL0     H53788  12.452   5.115   7.536  1.5237 -0.8434  0.8587
  390MOL0     H53789  12.570   5.233   7.577 -0.2165 -0.8792  0.7278
  390MOL0     H53790  12.548   5.342   7.352  1.5551  0.4413  0.3744
  390MOL0     H53791  12.479   5.183   7.294  1.7253  0.1592 -0.0644
  390MOL0     H53792  12.753   5.183   7.430  2.7474 -3.8026 -0.6031
  390MOL0     H53793  12.674   5.060   7.347  1.7138 -0.1713 -2.2609
  390MOL0     H53794  12.751   5.329   7.207  3.3023 -0.3520  1.5659
  390MOL0     H53795  12.688   5.179   7.126 -1.0942 -2.8515  0.2207
  390MOL0     H53796  12.887   5.062   7.175 -1.8919  0.1638 -0.5996
  390MOL0     H53797  12.943   5.197   7.280 -0.6126 -0.6800 -0.2225
  390MOL0     H53798  12.981   5.335   7.106 -1.3048 -0.7631 -2.3046
  390MOL0     H53799  12.906   5.232   6.991  1.1581 -1.6953 -0.3211
  390MOL0     H53800  12.175   5.403   7.888  0.2817 -0.0440  0.0668
  390MOL0     H53801  12.188   5.593   8.033 -0.0086  0.0241 -1.0210
  390MOL0     H53802  12.347   5.813   8.332 -0.6325 -0.6783 -1.0699
  390MOL0     H53803  12.352   5.964   8.518 -3.2388 -0.1778 -2.6607
  390MOL0     H53804  11.233   6.719   8.782 -0.4407  3.6616 -0.4189
  390MOL0     H53805  11.014   6.750   8.901  0.2586 -1.3902 -0.0996
  390MOL0     H53806  10.739   7.186   8.918 -0.7623  2.1776 -1.6532
  390MOL0     H53807  10.543   7.280   8.984 -0.8658 -1.2246  0.3581
  390MOL0     H53808  10.170   7.052   8.991 -0.1179  0.1534  1.1615
  390MOL0     H53809  10.111   7.204   9.016  2.6669 -0.5032  1.6730
  390MOL0     H53810  10.019   7.082   8.817  0.0774  1.4204  1.0411
  390MOL0     H53811  10.183   7.109   8.744  0.6920 -0.9461  0.1570
  390MOL0     H53812  10.112   7.366   8.803  2.1510 -2.3280 -0.5170
  390MOL0     H53813  10.051   7.313   8.645 -2.1716 -1.0131 -0.9263
  390MOL0     H53814   9.877   7.411   8.795 -3.1788 -0.9041 -3.0556
  390MOL0     H53815   9.902   7.278   8.907 -1.6310  3.2136  0.4469
  390MOL0     H53816   9.667   7.121   8.589 -1.2188  0.3968  1.9446
  390MOL0     H53817  10.308   6.952   8.857  1.0052 -2.5037  2.1803
  390MOL0     H53818  10.566   6.709   8.850  0.9738  1.6979  2.1285
  390MOL0     H53819  10.406   6.747   8.795  1.3626 -2.4464  1.8914
  390MOL0     H53820  10.539   6.775   8.684  0.0858  4.0015 -1.1796
  391MOL0     O53821   4.833   8.597   6.997  0.4755 -0.3440  0.0244
  391MOL0     C53822   4.867   8.482   6.969  0.1637  1.0323  0.1243
  391MOL0     O53823   4.989   8.444   6.913  0.4388 -0.4796 -0.3253
  391MOL0     C53824   5.091   8.532   6.906 -0.2352  0.4326 -0.1121
  391MOL0     C53825   5.096   8.664   6.963  0.0109  0.7517 -0.6640
  391MOL0     C53826   5.206   8.746   6.946  0.4374 -0.0850  0.4969
  391MOL0     C53827   5.317   8.694   6.879  0.3052  0.3766 -0.6299
  391MOL0     O53828   5.443   8.753   6.865  0.2626 -1.0016 -0.2123
  391MOL0     C53829   5.468   8.883   6.917  0.3899 -0.2829 -0.9420
  391MOL0     C53830   5.619   8.924   6.892 -1.0317 -0.3229  1.0929
  391MOL0     C53831   5.652   9.064   6.958  0.0495 -0.0153  0.0765
  391MOL0     C53832   5.801   9.092   6.941  0.2457  1.0592  0.8281
  391MOL0     C53833   5.866   9.171   7.056 -1.0233 -0.2085 -0.2165
  391MOL0     C53834   5.810   9.315   7.072 -0.8743 -0.0269  0.0446
  391MOL0     C53835   5.884   9.399   7.170  0.3029  0.1059  0.6557
  391MOL0     C53836   5.907   9.335   7.308  0.2763  0.8554 -0.7023
  391MOL0     N53837   5.967   9.441   7.390  0.6627  0.4536 -0.5265
  391MOL0     C53838   5.893   9.536   7.454 -0.5075  0.0852 -0.9831
  391MOL0     C53839   5.992   9.620   7.506  0.2899  0.6814  0.8663
  391MOL0     C53840   5.962   9.748   7.580  0.2134  1.1435 -0.0929
  391MOL0     C53841   5.939   9.728   7.734  0.0896 -0.2988 -0.0661
  391MOL0     C53842   6.061   9.659   7.799  0.4335 -0.8536  0.0394
  391MOL0     C53843   6.048   9.642   7.960  0.1485  0.8195  0.0216
  391MOL0     O53844   5.958   9.535   8.005 -0.2052 -0.3452 -0.0129
  391MOL0     C53845   5.937   9.526   8.139  0.9625 -0.6190  0.0990
  391MOL0     C53846   5.912   9.399   8.179 -0.2564 -0.5355  0.4451
  391MOL0     C53847   5.923   9.354   8.314  0.4130 -1.0129  1.0606
  391MOL0     C53848   5.928   9.202   8.326  0.2390  0.0118  0.0535
  391MOL0     C53849   5.942   9.450   8.419  0.4358  0.0206  0.6966
  391MOL0     C53850   5.952   9.422   8.564 -0.4644 -0.3023  1.3055
  391MOL0     O53851   5.981   9.532   8.644  0.2384 -0.6142 -0.6362
  391MOL0     C53852   5.967   9.508   8.783  0.7375 -0.3222  0.2805
  391MOL0     C53853   6.028   9.404   8.849  0.4302 -0.0285 -0.2589
  391MOL0     C53854   6.028   9.403   8.995  0.0972 -0.4163  0.2924
  391MOL0     C53855   5.949   9.496   9.069  0.3907  0.5758 -0.5172
  391MOL0     O53856   5.951   9.505   9.204  0.1487  0.7375  0.8623
  391MOL0     C53857   6.085   9.514   9.264 -0.3883  0.4383  0.1550
  391MOL0     C53858   6.073   9.537   9.416  0.0317  0.7637  0.0054
  391MOL0     C53859   5.975   9.427   9.475 -0.0983 -0.5316  0.5298
  391MOL0     C53860   5.970   9.457   9.624 -0.4572 -0.2065 -0.4065
  391MOL0     C53861   6.080   9.377   9.708  0.3972 -0.6878  0.8770
  391MOL0     C53862   6.089   9.438   9.845  0.2912 -0.8677 -0.5443
  391MOL0     C53863   6.187   9.361   9.927 -0.3017 -0.5260 -0.5060
  391MOL0     C53864   6.201   9.413  10.069  0.3269 -0.0857  0.3965
  391MOL0    Cl53865   6.283   9.312  10.183 -0.4108 -0.0569  0.1379
  391MOL0     C53866   5.888   9.598   9.002 -0.1034 -0.9404 -0.5788
  391MOL0     C53867   5.896   9.606   8.862  0.3299 -0.2042  0.4397
  391MOL0     O53868   5.920   9.312   8.609  0.3836  0.3077  0.7616
  391MOL0     C53869   5.982   9.581   8.371  0.5403 -0.0273  1.0037
  391MOL0     C53870   5.977   9.618   8.238  0.0420 -0.2292 -0.3928
  391MOL0     N53871   6.119   9.575   7.464  0.7129  0.5940 -0.1349
  391MOL0     N53872   6.100   9.459   7.400 -0.9337 -0.6166 -0.9829
  391MOL0     C53873   5.321   8.564   6.830 -0.4372 -0.1883 -0.2390
  391MOL0     C53874   5.207   8.486   6.846 -0.5000 -0.1205 -0.9043
  391MOL0     C53875   4.762   8.366   6.964 -0.6902 -0.2725  1.2959
  391MOL0     C53876   4.797   8.246   6.906  0.2459  0.4150 -0.3216
  391MOL0     C53877   4.706   8.141   6.894 -0.5146  0.3835  0.9748
  391MOL0     C53878   4.575   8.157   6.942  0.4214  0.6635  1.1074
  391MOL0     O53879   4.473   8.064   6.929 -0.1348  0.2487 -0.2024
  391MOL0     C53880   4.519   7.942   6.859 -0.0068 -0.7418  0.0653
  391MOL0     C53881   4.394   7.873   6.823 -0.5627  0.7195 -0.5231
  391MOL0     C53882   4.319   7.844   6.954 -0.0210  0.1008  0.5015
  391MOL0     C53883   4.176   7.804   6.917 -0.4962 -0.4012  0.5588
  391MOL0     C53884   4.131   7.730   7.033  0.4735  0.3173  0.4577
  391MOL0     C53885   4.107   7.651   7.118 -0.0759  0.1712 -0.2377
  391MOL0     C53886   4.545   8.271   7.002 -0.3618  1.0219 -0.3475
  391MOL0     C53887   4.634   8.379   7.020  0.1708  0.6395  0.9976
  391MOL0     C53888   4.580   8.511   7.066 -0.0993  0.2931  0.5181
  391MOL0     H53889   5.019   8.707   7.026  0.4403 -0.9818  1.1304
  391MOL0     H53890   5.197   8.843   6.995  1.3362  1.2900 -1.9106
  391MOL0     H53891   5.423   8.889   7.017 -2.4171  2.1936 -2.1781
  391MOL0     H53892   5.398   8.950   6.867  0.7312 -0.7412 -2.0601
  391MOL0     H53893   5.675   8.850   6.950 -1.0592  1.0431  2.9565
  391MOL0     H53894   5.647   8.928   6.787  0.1595  0.0121  1.4012
  391MOL0     H53895   5.580   9.144   6.937 -0.6113 -0.8049 -0.6953
  391MOL0     H53896   5.637   9.054   7.066 -0.9506  0.6362  0.0122
  391MOL0     H53897   5.853   8.996   6.936 -1.4670  0.1737 -1.7419
  391MOL0     H53898   5.816   9.139   6.843 -1.0876 -0.3793 -0.1105
  391MOL0     H53899   5.974   9.180   7.049 -0.9774 -1.3905 -1.2480
  391MOL0     H53900   5.855   9.109   7.145 -1.5156  2.4665  1.7140
  391MOL0     H53901   5.805   9.359   6.972 -3.3882 -2.1653 -0.9098
  391MOL0     H53902   5.708   9.312   7.113 -0.0176  0.3763  2.3582
  391MOL0     H53903   5.817   9.485   7.181 -1.4138 -1.2329  1.0750
  391MOL0     H53904   5.977   9.433   7.123 -0.1071 -0.1611 -0.3724
  391MOL0     H53905   5.809   9.310   7.350 -0.7786 -0.9850 -3.8960
  391MOL0     H53906   5.965   9.242   7.303 -0.2394  0.5771 -3.6186
  391MOL0     H53907   5.789   9.567   7.462 -0.3989  0.6612 -1.7903
  391MOL0     H53908   5.875   9.791   7.531 -0.0327  0.4232 -0.2991
  391MOL0     H53909   6.044   9.817   7.559 -0.3426  1.1628 -2.4508
  391MOL0     H53910   5.920   9.826   7.779 -1.5080  0.0635 -1.4327
  391MOL0     H53911   5.850   9.665   7.743  0.5719 -0.7543  1.9233
  391MOL0     H53912   6.083   9.565   7.749  2.1014 -0.0716 -0.8112
  391MOL0     H53913   6.152   9.719   7.784  0.2309 -0.6367 -0.3450
  391MOL0     H53914   6.150   9.627   7.997  0.7799 -1.3912 -2.2759
  391MOL0     H53915   6.022   9.740   8.002 -0.5278  1.0643 -0.9345
  391MOL0     H53916   5.900   9.327   8.098  3.4832  0.2432 -0.9999
  391MOL0     H53917   5.877   9.157   8.241  1.8405  3.5707 -3.0852
  391MOL0     H53918   5.886   9.182   8.425  2.0717  0.3846  0.9519
  391MOL0     H53919   6.034   9.177   8.311 -0.1741 -0.2805 -2.9702
  391MOL0     H53920   6.088   9.330   8.798  0.1924  0.6263 -1.5235
  391MOL0     H53921   6.084   9.328   9.049  2.6906  1.2479  0.0764
  391MOL0     H53922   6.132   9.417   9.247  1.4092  1.3761 -0.3887
  391MOL0     H53923   6.145   9.594   9.219  0.4490 -1.4121 -2.2611
  391MOL0     H53924   6.172   9.535   9.463  0.2400  0.1075 -0.4413
  391MOL0     H53925   6.031   9.635   9.436 -0.9465  0.4149 -0.2981
  391MOL0     H53926   6.023   9.331   9.457  2.4008  0.3993  1.8292
  391MOL0     H53927   5.874   9.434   9.432  0.1671 -3.5616 -0.8328
  391MOL0     H53928   5.872   9.421   9.655 -1.0973 -0.6368 -2.7838
  391MOL0     H53929   5.981   9.565   9.637 -1.4699 -0.1406 -0.0788
  391MOL0     H53930   6.039   9.276   9.713  0.9950 -1.0848 -1.1791
  391MOL0     H53931   6.178   9.366   9.660 -1.4422  1.0688 -3.8540
  391MOL0     H53932   5.990   9.438   9.890  1.8592 -0.4030  3.3353
  391MOL0     H53933   6.134   9.537   9.829  0.6558 -1.3561 -2.9476
  391MOL0     H53934   6.284   9.345   9.879  0.2203 -0.2628  0.4342
  391MOL0     H53935   6.149   9.259   9.924 -0.5316 -0.4313 -1.0921
  391MOL0     H53936   6.102   9.435  10.110  0.0757  1.6817 -1.0391
  391MOL0     H53937   6.249   9.510  10.061 -0.0772 -0.0107 -1.7264
  391MOL0     H53938   5.850   9.682   9.059  3.7121  0.2184  0.5829
  391MOL0     H53939   5.865   9.692   8.802  0.8373 -0.7708 -0.6549
  391MOL0     H53940   6.005   9.652   8.450  0.7066  0.9065  0.1360
  391MOL0     H53941   6.006   9.720   8.218 -1.2677  0.3102  0.3162
  391MOL0     H53942   5.409   8.529   6.778 -0.8726  0.9567 -1.8350
  391MOL0     H53943   5.191   8.387   6.806  0.8447 -0.2462 -1.1769
  391MOL0     H53944   4.896   8.240   6.863 -0.0611  1.1023 -1.1651
  391MOL0     H53945   4.747   8.059   6.835  1.5364  2.7489 -1.1057
  391MOL0     H53946   4.562   7.971   6.763 -1.4875 -1.3545 -0.8145
  391MOL0     H53947   4.595   7.893   6.921 -0.4291  1.8072  2.7858
  391MOL0     H53948   4.420   7.780   6.772  0.6921  2.2750 -2.9082
  391MOL0     H53949   4.327   7.935   6.763 -0.0768  0.6540 -1.1418
  391MOL0     H53950   4.366   7.753   6.994 -1.2009 -1.4441 -1.4646
  391MOL0     H53951   4.320   7.920   7.033 -3.9918  1.0640 -0.1789
  391MOL0     H53952   4.171   7.724   6.842  0.1463  0.3561 -0.3058
  391MOL0     H53953   4.115   7.890   6.888 -0.1124 -0.1920  0.3703
  391MOL0     H53954   4.095   7.590   7.206  0.5536  0.5368  0.1029
  391MOL0     H53955   4.447   8.271   7.049  0.2143 -2.1055  1.1437
  391MOL0     H53956   4.554   8.579   6.985 -1.2041  0.9594  1.3921
  391MOL0     H53957   4.481   8.495   7.109 -1.1727  2.4990 -0.9424
  391MOL0     H53958   4.646   8.570   7.130  1.9253  1.4270 -2.4314
  392MOL0     O53959   6.700   1.593   9.645  0.1263  0.4978 -0.3124
  392MOL0     C53960   6.823   1.593   9.644  0.1467  0.4974 -0.8656
  392MOL0     O53961   6.900   1.592   9.536  0.2591  0.5144  1.0394
  392MOL0     C53962   6.833   1.585   9.415 -0.5619  0.1521  0.4658
  392MOL0     C53963   6.800   1.456   9.369  0.5410  0.1620  0.3919
  392MOL0     C53964   6.751   1.437   9.238 -0.4310 -0.5368  0.2782
  392MOL0     C53965   6.742   1.554   9.158  0.4641 -0.6800 -0.3259
  392MOL0     O53966   6.698   1.554   9.030  0.2162 -0.4281 -0.0935
  392MOL0     C53967   6.599   1.465   8.985  0.1815 -0.2358 -0.8187
  392MOL0     C53968   6.476   1.495   9.060 -0.1960  0.5248  0.0351
  392MOL0     C53969   6.373   1.388   9.027 -0.3447  0.5909  0.4558
  392MOL0     C53970   6.228   1.429   9.072 -0.5487 -0.2388  0.0464
  392MOL0     C53971   6.126   1.316   9.051  0.1658 -0.5843  0.5857
  392MOL0     C53972   5.984   1.366   9.066  0.2302  0.2399 -0.0601
  392MOL0     C53973   5.956   1.403   9.207  0.0185  0.7805 -0.4729
  392MOL0     C53974   5.894   1.285   9.293 -0.2161 -0.0655  1.4726
  392MOL0     N53975   5.968   1.156   9.299 -0.2308  0.7829 -0.0747
  392MOL0     C53976   5.948   1.045   9.216 -0.1808 -0.1120  0.3832
  392MOL0     C53977   6.045   0.959   9.259  0.8775  0.2322 -0.2020
  392MOL0     C53978   6.065   0.820   9.204 -0.4855 -0.3795 -0.4548
  392MOL0     C53979   5.976   0.721   9.283  0.2201  0.0505  1.0004
  392MOL0     C53980   5.849   0.683   9.202 -0.2487  0.0970 -0.3037
  392MOL0     C53981   5.748   0.591   9.270  0.4967  0.6859 -0.2328
  392MOL0     O53982   5.610   0.616   9.224  1.2782 -0.0008 -0.2190
  392MOL0     C53983   5.551   0.563   9.110 -0.3817 -0.8087 -0.6075
  392MOL0     C53984   5.624   0.529   8.993  0.5020  0.5125  0.6203
  392MOL0     C53985   5.555   0.526   8.868 -0.0321  0.6422 -0.1811
  392MOL0     C53986   5.652   0.506   8.750  0.3410 -0.0528 -0.1811
  392MOL0     C53987   5.413   0.527   8.869  1.1644 -0.5694 -0.1345
  392MOL0     C53988   5.326   0.523   8.756  0.5002 -0.4269  0.5763
  392MOL0     O53989   5.233   0.629   8.748 -0.5861  0.2852 -0.1458
  392MOL0     C53990   5.134   0.630   8.655  0.1193 -0.1017  0.1462
  392MOL0     C53991   5.019   0.695   8.684  0.0593 -0.8875 -0.7588
  392MOL0     C53992   4.918   0.703   8.593  0.1223  1.0672 -0.2167
  392MOL0     C53993   4.927   0.645   8.467  0.3131  1.0243  0.1741
  392MOL0     O53994   4.812   0.653   8.382 -0.0620 -0.9696 -0.4256
  392MOL0     C53995   4.828   0.628   8.245  0.6213  0.5186  0.6065
  392MOL0     C53996   4.795   0.480   8.209  0.3878  0.8981  0.7731
  392MOL0     C53997   4.654   0.458   8.269 -0.6044 -0.6043  0.4025
  392MOL0     C53998   4.583   0.336   8.211 -0.0490 -0.9637 -0.2392
  392MOL0     C53999   4.540   0.339   8.059  0.9622 -0.0834 -0.0702
  392MOL0     C54000   4.410   0.425   8.043  0.7052  0.2527  0.5624
  392MOL0     C54001   4.366   0.435   7.897 -0.2281 -0.1823 -0.4323
  392MOL0     C54002   4.212   0.460   7.872  0.6870  0.3666 -1.3243
  392MOL0    Cl54003   4.180   0.442   7.690 -0.0153 -0.0954  0.1297
  392MOL0     C54004   5.045   0.573   8.434  0.3242 -0.0182  0.3081
  392MOL0     C54005   5.145   0.573   8.530  0.0655 -0.6083  1.4673
  392MOL0     O54006   5.331   0.423   8.688 -0.1138 -0.4458 -0.1431
  392MOL0     C54007   5.347   0.543   8.994  0.0708  0.1285 -0.0886
  392MOL0     C54008   5.411   0.564   9.112 -0.3639 -0.9428  0.5580
  392MOL0     N54009   6.121   1.006   9.363 -0.2252  0.2765  0.1484
  392MOL0     N54010   6.088   1.129   9.379  0.4473 -0.2727  0.3857
  392MOL0     C54011   6.772   1.678   9.206 -0.7818 -0.0386  0.3656
  392MOL0     C54012   6.817   1.700   9.335 -0.1662  0.5055 -0.3834
  392MOL0     C54013   6.891   1.575   9.773 -0.1452 -0.8947  0.6843
  392MOL0     C54014   7.030   1.583   9.773 -0.1472 -1.5053 -0.3619
  392MOL0     C54015   7.113   1.561   9.883 -0.9697  0.6117 -0.1223
  392MOL0     C54016   7.053   1.560  10.011 -0.6932  0.6854  0.6527
  392MOL0     O54017   7.123   1.543  10.125  0.1534  1.0066 -0.0688
  392MOL0     C54018   7.215   1.642  10.156  0.2662  0.0951  0.4993
  392MOL0     C54019   7.174   1.684  10.298  0.4505 -0.7957  0.0583
  392MOL0     C54020   7.280   1.729  10.391 -0.5811  0.2435 -0.6967
  392MOL0     C54021   7.246   1.706  10.537 -0.0426  1.0964  0.7555
  392MOL0     C54022   7.124   1.760  10.589 -0.6824  0.2632 -0.5995
  392MOL0     C54023   7.018   1.795  10.635 -1.2075  0.4335 -0.5750
  392MOL0     C54024   6.916   1.553  10.011  0.1946  0.6766  0.3378
  392MOL0     C54025   6.832   1.554   9.898 -0.2185 -1.3281 -0.3884
  392MOL0     C54026   6.684   1.552   9.922  0.1661  0.2417  0.1508
  392MOL0     H54027   6.825   1.364   9.421  0.3568 -0.0586  0.0885
  392MOL0     H54028   6.739   1.338   9.195  1.3585 -0.7072  0.1030
  392MOL0     H54029   6.640   1.365   9.000 -0.0302 -0.2612 -0.4003
  392MOL0     H54030   6.578   1.479   8.878  0.7435  1.4421 -0.7400
  392MOL0     H54031   6.493   1.492   9.168 -0.0095  0.0507 -0.0055
  392MOL0     H54032   6.450   1.599   9.038  4.3712  2.9407  4.1027
  392MOL0     H54033   6.377   1.367   8.919  0.0134  0.4029  0.5026
  392MOL0     H54034   6.396   1.288   9.065  1.2425  0.4806 -0.6627
  392MOL0     H54035   6.241   1.452   9.178 -0.8638  2.4241 -0.4291
  392MOL0     H54036   6.197   1.521   9.023 -2.9039 -0.3635  1.1330
  392MOL0     H54037   6.147   1.237   9.124  1.1125  1.4271  2.6000
  392MOL0     H54038   6.141   1.273   8.951  0.5404  0.7151  0.0685
  392MOL0     H54039   5.982   1.461   9.013  3.0007  0.5034  0.1992
  392MOL0     H54040   5.906   1.296   9.035 -0.0138 -0.8054  2.6042
  392MOL0     H54041   5.882   1.484   9.202  0.6215  1.4251  0.7593
  392MOL0     H54042   6.041   1.442   9.263 -1.5957  3.7063  0.1742
  392MOL0     H54043   5.890   1.319   9.396  3.4160  0.6653  1.4919
  392MOL0     H54044   5.793   1.261   9.259 -0.5507 -1.2606  3.2200
  392MOL0     H54045   5.880   1.030   9.133  0.0973 -2.2434  0.4620
  392MOL0     H54046   6.168   0.785   9.204  0.5396  2.0644 -4.0861
  392MOL0     H54047   6.032   0.809   9.100 -1.5929 -1.4522 -0.0174
  392MOL0     H54048   6.031   0.627   9.285  2.3789  1.2467  1.2466
  392MOL0     H54049   5.954   0.759   9.383 -4.3436  1.4925 -0.2989
  392MOL0     H54050   5.801   0.777   9.176  1.5703  1.7862  2.0169
  392MOL0     H54051   5.888   0.641   9.109  1.2490  2.4667 -0.8175
  392MOL0     H54052   5.767   0.484   9.263  0.4535  0.5576  1.3413
  392MOL0     H54053   5.750   0.611   9.378  1.9307 -0.6678  0.0250
  392MOL0     H54054   5.732   0.524   8.982  0.4019 -0.1468 -0.1646
  392MOL0     H54055   5.597   0.475   8.661 -0.6849  0.1227  0.3648
  392MOL0     H54056   5.715   0.419   8.769  1.7201  0.8309 -0.5768
  392MOL0     H54057   5.715   0.593   8.732 -0.7520  0.8220  0.0792
  392MOL0     H54058   5.018   0.749   8.778  0.9681  1.2053 -1.8902
  392MOL0     H54059   4.823   0.754   8.612 -2.2078 -2.6150 -1.0510
  392MOL0     H54060   4.753   0.689   8.195 -2.4179 -3.7064 -0.4806
  392MOL0     H54061   4.929   0.640   8.205  0.3105 -2.2830 -1.3245
  392MOL0     H54062   4.798   0.471   8.100 -3.8274 -0.7746  0.5931
  392MOL0     H54063   4.863   0.409   8.257  0.4268  1.3501  1.4005
  392MOL0     H54064   4.594   0.550   8.262  2.4690  1.8497  2.9299
  392MOL0     H54065   4.670   0.442   8.375  0.8715 -0.1407  0.2615
  392MOL0     H54066   4.504   0.311   8.283 -1.4853 -1.8973 -2.0511
  392MOL0     H54067   4.650   0.251   8.226 -1.0259 -1.5466  1.0745
  392MOL0     H54068   4.620   0.377   7.995  0.5908  3.6993  1.4309
  392MOL0     H54069   4.519   0.236   8.028 -0.7353 -0.4406  2.0388
  392MOL0     H54070   4.422   0.528   8.078  4.8985  0.8009 -1.8493
  392MOL0     H54071   4.326   0.385   8.101 -0.5106  0.9075 -0.6738
  392MOL0     H54072   4.398   0.344   7.847 -4.5992 -1.0118 -2.1333
  392MOL0     H54073   4.422   0.519   7.856  0.4919 -0.9514 -1.0452
  392MOL0     H54074   4.169   0.555   7.906 -0.2885 -0.6893  0.5476
  392MOL0     H54075   4.148   0.380   7.911 -0.1200  0.7550 -1.8227
  392MOL0     H54076   5.053   0.500   8.355  0.4275 -0.0503  0.3480
  392MOL0     H54077   5.227   0.513   8.492 -1.0753 -0.0446 -2.2182
  392MOL0     H54078   5.239   0.540   9.001  0.0490  2.4966  2.0576
  392MOL0     H54079   5.363   0.581   9.208 -0.6019  1.4906  0.0740
  392MOL0     H54080   6.753   1.759   9.137 -0.0476  0.4159  0.6865
  392MOL0     H54081   6.824   1.803   9.369 -2.2661 -0.2083  2.6845
  392MOL0     H54082   7.084   1.611   9.683  1.5094 -0.5288  0.8755
  392MOL0     H54083   7.221   1.563   9.866 -1.0466 -2.5401 -1.7239
  392MOL0     H54084   7.317   1.602  10.154 -0.0257 -0.6374 -0.5169
  392MOL0     H54085   7.219   1.732  10.094 -1.3241  0.9675  1.5951
  392MOL0     H54086   7.129   1.598  10.349  1.6181 -1.3253  0.2470
  392MOL0     H54087   7.093   1.755  10.285 -1.2293 -2.3893  1.3191
  392MOL0     H54088   7.376   1.680  10.370 -0.1738  1.0358 -0.7182
  392MOL0     H54089   7.297   1.835  10.373 -1.5015  0.4483 -0.3805
  392MOL0     H54090   7.333   1.746  10.590  2.3034  3.8768 -4.4119
  392MOL0     H54091   7.247   1.598  10.553 -0.0229  0.6328 -1.8554
  392MOL0     H54092   6.926   1.832  10.675 -0.8995  2.8143 -1.8795
  392MOL0     H54093   6.879   1.544  10.112  0.9306  0.2130  0.5820
  392MOL0     H54094   6.647   1.532  10.023 -0.5315  0.4400 -0.0580
  392MOL0     H54095   6.651   1.651   9.889 -2.7446 -0.8347 -0.5209
  392MOL0     H54096   6.635   1.470   9.869 -0.3032 -0.4992  1.6593
  393MOL0     O54097   8.697   0.697   3.772  0.4809  0.1065  0.0505
  393MOL0     C54098   8.748   0.677   3.663 -0.4191 -0.3313 -0.0817
  393MOL0     O54099   8.854   0.757   3.615 -0.2096 -0.3440  0.5416
  393MOL0     C54100   8.891   0.880   3.671 -0.0663  0.4661  0.8676
  393MOL0     C54101   8.796   0.970   3.724 -0.3710 -0.1849  0.3646
  393MOL0     C54102   8.840   1.098   3.759  0.3935 -1.2531  0.4892
  393MOL0     C54103   8.972   1.144   3.749  0.4259 -0.2348 -1.1907
  393MOL0     O54104   9.012   1.266   3.797  0.1386 -0.2049 -0.8833
  393MOL0     C54105   8.983   1.367   3.699 -0.5612  0.5510 -0.3686
  393MOL0     C54106   8.953   1.500   3.778 -0.1633  0.3071  0.0729
  393MOL0     C54107   9.080   1.589   3.763 -0.4754 -0.5530  0.1513
  393MOL0     C54108   9.061   1.736   3.805  0.5278  0.4561  0.4786
  393MOL0     C54109   9.174   1.818   3.751 -0.1567  0.2556 -0.7034
  393MOL0     C54110   9.161   1.967   3.800 -0.2923  0.7635 -0.1809
  393MOL0     C54111   9.291   2.036   3.780 -0.3573  0.4561 -1.0912
  393MOL0     C54112   9.280   2.174   3.846  0.2335 -0.4070  0.2357
  393MOL0     N54113   9.415   2.237   3.851  0.7108  0.3508  0.8786
  393MOL0     C54114   9.471   2.327   3.763  0.8206 -0.0374  0.3096
  393MOL0     C54115   9.586   2.373   3.822 -0.6226  0.2435  0.1511
  393MOL0     C54116   9.700   2.464   3.766  0.8693 -0.0670 -0.2651
  393MOL0     C54117   9.805   2.386   3.689 -1.0627 -0.0203 -0.1557
  393MOL0     C54118   9.918   2.471   3.641 -1.1353 -0.6098 -0.1628
  393MOL0     C54119   9.999   2.535   3.753 -0.2774 -0.3264  0.2059
  393MOL0     O54120  10.077   2.432   3.810  0.6945 -1.2954 -0.3468
  393MOL0     C54121  10.165   2.466   3.908  0.7906 -0.7775 -0.8351
  393MOL0     C54122  10.207   2.372   3.997 -0.2783 -0.3491  0.7443
  393MOL0     C54123  10.291   2.395   4.100 -0.3319  0.5117 -0.0866
  393MOL0     C54124  10.309   2.276   4.196  0.0566 -0.4243 -0.4900
  393MOL0     C54125  10.353   2.519   4.115  0.3219 -1.4810  0.2413
  393MOL0     C54126  10.460   2.564   4.209 -0.0589 -0.6015 -0.1523
  393MOL0     O54127  10.467   2.704   4.222  0.3425 -0.4947 -0.2078
  393MOL0     C54128  10.557   2.763   4.306  0.4580 -0.3961  0.3291
  393MOL0     C54129  10.574   2.719   4.438 -0.2036  0.2665  0.2314
  393MOL0     C54130  10.654   2.798   4.523  0.0479  0.3814  0.7301
  393MOL0     C54131  10.713   2.924   4.479  0.9240 -0.3463  0.1700
  393MOL0     O54132  10.769   2.999   4.571 -0.6802  0.4641  0.5664
  393MOL0     C54133  10.908   3.030   4.533 -0.0453 -0.0026 -0.0298
  393MOL0     C54134  10.994   3.013   4.661  0.9337 -0.2437 -0.5705
  393MOL0     C54135  11.088   3.132   4.666 -0.3062 -0.4286 -1.1738
  393MOL0     C54136  11.166   3.125   4.799 -0.2698  0.2013  0.4817
  393MOL0     C54137  11.275   3.232   4.793  0.0726 -1.1325  0.0746
  393MOL0     C54138  11.367   3.212   4.912 -0.9378  0.3863 -0.1802
  393MOL0     C54139  11.494   3.291   4.893 -0.0910 -0.5865 -0.3248
  393MOL0     C54140  11.581   3.268   5.010 -0.0220 -0.7023  0.2897
  393MOL0    Cl54141  11.748   3.318   4.964 -0.2430 -0.2421  0.0276
  393MOL0     C54142  10.679   2.969   4.352 -0.2276 -0.0755 -0.4521
  393MOL0     C54143  10.610   2.887   4.264 -0.6188  0.6361  0.1362
  393MOL0     O54144  10.534   2.481   4.260  0.6263 -0.4397  0.5294
  393MOL0     C54145  10.323   2.617   4.011  0.0422  0.6610 -0.0519
  393MOL0     C54146  10.229   2.596   3.909  1.1680  0.3260  0.1741
  393MOL0     N54147   9.588   2.317   3.948 -0.7667  0.4688 -0.3717
  393MOL0     N54148   9.497   2.227   3.956 -0.5209 -0.0688 -0.0714
  393MOL0     C54149   9.061   1.052   3.705  0.3889  0.5605 -0.5656
  393MOL0     C54150   9.029   0.920   3.674  1.2457  0.0104  0.2036
  393MOL0     C54151   8.700   0.572   3.567 -0.3111  0.4987 -0.7454
  393MOL0     C54152   8.769   0.551   3.447  0.8493  0.1124 -0.0702
  393MOL0     C54153   8.725   0.450   3.366 -0.1712 -0.2545  0.0249
  393MOL0     C54154   8.616   0.369   3.395  0.3941  0.0094  0.1398
  393MOL0     O54155   8.579   0.276   3.303 -0.9083  0.2474 -0.0378
  393MOL0     C54156   8.472   0.190   3.326  0.1176 -0.3276 -0.5582
  393MOL0     C54157   8.498   0.065   3.414 -0.6872 -0.2801  0.4885
  393MOL0     C54158   8.598  -0.044   3.355  0.3566  0.1071  0.5001
  393MOL0     C54159   8.741   0.005   3.342 -0.0178  0.6936  0.6268
  393MOL0     C54160   8.825  -0.111   3.304  0.1125  0.1836 -0.1253
  393MOL0     C54161   8.899  -0.199   3.269  0.3427  0.4235  1.4995
  393MOL0     C54162   8.547   0.392   3.517  0.8308 -0.5154  1.4043
  393MOL0     C54163   8.591   0.494   3.599  0.6612  0.0026 -0.7211
  393MOL0     C54164   8.524   0.488   3.740 -0.5251  0.0401 -0.1954
  393MOL0     H54165   8.690   0.948   3.733 -0.0404 -1.8186  0.6475
  393MOL0     H54166   8.766   1.168   3.798  0.7307  0.9944 -2.5124
  393MOL0     H54167   8.897   1.331   3.641 -0.2074  1.0399 -1.2183
  393MOL0     H54168   9.065   1.381   3.628  0.0851 -1.1688 -0.0018
  393MOL0     H54169   8.871   1.551   3.729  2.1927 -0.0588 -4.8683
  393MOL0     H54170   8.933   1.477   3.883 -1.4786  1.7262  0.1566
  393MOL0     H54171   9.152   1.538   3.829 -1.1842 -3.0819 -0.9004
  393MOL0     H54172   9.114   1.590   3.659 -0.5942  2.3862  0.0613
  393MOL0     H54173   8.964   1.765   3.764 -0.7067 -1.1267  2.0898
  393MOL0     H54174   9.066   1.748   3.914  3.0954 -5.3019  1.3638
  393MOL0     H54175   9.179   1.817   3.642  2.3699 -2.1803 -0.6711
  393MOL0     H54176   9.265   1.777   3.795 -1.5836 -2.9874 -0.4639
  393MOL0     H54177   9.077   2.009   3.744 -1.1699  0.5266  0.9147
  393MOL0     H54178   9.144   1.971   3.908  4.4268  2.1424  0.7692
  393MOL0     H54179   9.334   2.038   3.679  1.2102 -0.4114 -0.4750
  393MOL0     H54180   9.355   1.969   3.838 -1.6222 -0.4784 -0.7174
  393MOL0     H54181   9.204   2.243   3.806  1.7759  0.3386 -1.5574
  393MOL0     H54182   9.248   2.161   3.950  1.9882  3.1987  1.4121
  393MOL0     H54183   9.440   2.336   3.659  2.0948 -0.4934 -0.1289
  393MOL0     H54184   9.756   2.516   3.845  2.7458  0.5011 -1.8845
  393MOL0     H54185   9.654   2.548   3.712  2.9349  0.8786 -0.6515
  393MOL0     H54186   9.855   2.311   3.750  2.9874  1.3610 -1.4751
  393MOL0     H54187   9.756   2.338   3.604  0.7254  0.3941 -1.4741
  393MOL0     H54188   9.987   2.421   3.572  1.3047 -0.5081  2.0371
  393MOL0     H54189   9.875   2.553   3.583  0.9069 -1.8752 -3.8008
  393MOL0     H54190  10.069   2.602   3.702  0.6926 -1.3179  0.2140
  393MOL0     H54191   9.935   2.588   3.825  1.4189  1.4058  0.5218
  393MOL0     H54192  10.159   2.275   3.994 -1.9667  0.4151  1.4098
  393MOL0     H54193  10.213   2.235   4.228  0.3636 -1.0091 -0.3061
  393MOL0     H54194  10.362   2.310   4.285 -0.5684 -0.5729 -0.0521
  393MOL0     H54195  10.361   2.190   4.151 -3.2167 -2.5011 -0.6954
  393MOL0     H54196  10.521   2.636   4.483  1.8825 -0.1607  2.0766
  393MOL0     H54197  10.659   2.776   4.629 -0.1649  0.4009  0.7437
  393MOL0     H54198  10.940   2.973   4.445 -3.1577  1.1481 -2.1083
  393MOL0     H54199  10.909   3.134   4.497 -2.1624  0.0812  0.0487
  393MOL0     H54200  10.923   3.015   4.744  1.5515 -0.0070 -0.0382
  393MOL0     H54201  11.044   2.915   4.666  0.3391 -0.5156  0.0905
  393MOL0     H54202  11.022   3.220   4.665  1.8589  1.5076  2.5303
  393MOL0     H54203  11.153   3.143   4.579  1.1084 -3.2623 -0.5869
  393MOL0     H54204  11.204   3.023   4.807 -1.8991 -0.3077  2.6314
  393MOL0     H54205  11.111   3.153   4.889  0.1922  2.0798  0.2260
  393MOL0     H54206  11.338   3.224   4.704  0.4556  0.1582  0.2019
  393MOL0     H54207  11.227   3.331   4.794  2.2115  0.0885 -2.7606
  393MOL0     H54208  11.385   3.104   4.914  0.1877  0.4044 -3.5108
  393MOL0     H54209  11.310   3.234   5.003  1.7519 -2.2569  2.3745
  393MOL0     H54210  11.467   3.396   4.883 -0.5579 -0.9044 -4.1469
  393MOL0     H54211  11.529   3.260   4.794 -2.8986 -2.1698 -0.9051
  393MOL0     H54212  11.589   3.161   5.031  0.6500 -1.0547 -1.5615
  393MOL0     H54213  11.541   3.330   5.091 -3.3218 -0.6015 -1.2524
  393MOL0     H54214  10.712   3.071   4.332  2.1430 -0.9024 -1.0812
  393MOL0     H54215  10.597   2.913   4.159 -2.8580  2.0376  0.7001
  393MOL0     H54216  10.364   2.718   4.010  0.8879  0.3364  0.7189
  393MOL0     H54217  10.208   2.675   3.838 -1.8911  0.6186  1.2477
  393MOL0     H54218   9.168   1.072   3.705  0.6348 -0.6609 -0.4300
  393MOL0     H54219   9.100   0.844   3.641  1.1370  0.1515 -0.3705
  393MOL0     H54220   8.860   0.604   3.417  2.0643 -1.6893  0.2830
  393MOL0     H54221   8.766   0.430   3.267 -2.8675  2.4749 -1.8508
  393MOL0     H54222   8.386   0.241   3.369  1.2393  0.1958  1.1464
  393MOL0     H54223   8.425   0.171   3.228 -3.4243  0.6121  0.7990
  393MOL0     H54224   8.405   0.011   3.433 -1.5129  0.2493 -1.6939
  393MOL0     H54225   8.534   0.100   3.511 -3.2087  0.8855  1.1072
  393MOL0     H54226   8.589  -0.136   3.414 -0.3029  0.6923  1.3222
  393MOL0     H54227   8.564  -0.077   3.256 -0.4283  1.3197  0.3505
  393MOL0     H54228   8.782   0.039   3.438 -2.0880 -2.1382  2.7015
  393MOL0     H54229   8.743   0.095   3.280  0.2752  2.2260  2.7304
  393MOL0     H54230   8.951  -0.281   3.222 -0.0788  0.1954  1.4221
  393MOL0     H54231   8.462   0.327   3.539 -0.0419 -0.6227 -1.7780
  393MOL0     H54232   8.595   0.446   3.813 -0.8276 -0.9484 -0.4556
  393MOL0     H54233   8.471   0.581   3.762 -0.8757 -0.3698  0.7264
  393MOL0     H54234   8.445   0.413   3.730 -0.3969 -0.3903  1.6166
  394MOL0     O54235   2.424  11.404   5.106 -1.2977 -0.9117 -0.4584
  394MOL0     C54236   2.430  11.459   5.220  0.0403  0.0124  0.8748
  394MOL0     O54237   2.374  11.581   5.248  0.3229  0.2328 -0.2393
  394MOL0     C54238   2.312  11.668   5.153 -0.1535  0.4481  0.0537
  394MOL0     C54239   2.223  11.756   5.204  0.2283  0.5223 -0.3487
  394MOL0     C54240   2.138  11.831   5.128 -0.3290  0.0707 -0.2758
  394MOL0     C54241   2.164  11.828   4.991 -0.9506 -0.5945 -1.0834
  394MOL0     O54242   2.106  11.908   4.892  0.4816  0.3822 -0.8416
  394MOL0     C54243   1.966  11.942   4.913  0.5030  0.1447  0.0243
  394MOL0     C54244   1.872  11.826   4.873 -0.7818 -1.0017 -0.6639
  394MOL0     C54245   1.753  11.860   4.788 -0.1676 -0.0884 -0.4684
  394MOL0     C54246   1.771  11.946   4.660  0.0732  0.3892 -0.2003
  394MOL0     C54247   1.644  12.006   4.601 -0.3117  0.2799 -0.2210
  394MOL0     C54248   1.544  11.892   4.550  0.7309  0.6146 -0.2858
  394MOL0     C54249   1.591  11.834   4.420 -0.2608 -0.5619  0.2714
  394MOL0     C54250   1.522  11.893   4.298  0.7544 -1.0065  0.2264
  394MOL0     N54251   1.556  11.824   4.171  0.8854 -0.2023  1.2716
  394MOL0     C54252   1.479  11.734   4.097 -0.1685 -0.6709  0.4627
  394MOL0     C54253   1.560  11.718   3.988 -0.5221  0.4291 -0.3823
  394MOL0     C54254   1.497  11.651   3.872  0.3259 -0.9060 -0.4802
  394MOL0     C54255   1.450  11.769   3.777  0.2947  0.6113 -0.2509
  394MOL0     C54256   1.556  11.855   3.707  0.2375  0.9864 -0.1847
  394MOL0     C54257   1.656  11.765   3.619 -0.0019  0.9157  1.5209
  394MOL0     O54258   1.595  11.707   3.497 -0.1902 -0.0138 -1.3978
  394MOL0     C54259   1.546  11.790   3.399 -0.0555  0.1340  0.3613
  394MOL0     C54260   1.476  11.718   3.297 -0.3002 -0.0989  0.1697
  394MOL0     C54261   1.404  11.782   3.201 -0.7848  0.2387 -0.3808
  394MOL0     C54262   1.316  11.703   3.114 -0.4470 -0.3716  0.8511
  394MOL0     C54263   1.423  11.926   3.187  0.2224 -1.3865 -0.0142
  394MOL0     C54264   1.351  12.009   3.086  0.2298 -0.1537  0.8240
  394MOL0     O54265   1.371  12.148   3.092  0.4406 -0.5286 -0.2153
  394MOL0     C54266   1.303  12.239   3.008  0.0163  0.6077  0.7028
  394MOL0     C54267   1.163  12.234   2.980 -0.3076  0.5886 -0.6634
  394MOL0     C54268   1.105  12.340   2.906  0.1835 -0.0693  0.6449
  394MOL0     C54269   1.188  12.435   2.843  0.6083  0.1505 -0.2273
  394MOL0     O54270   1.151  12.535   2.759  0.5607  0.4794 -0.5867
  394MOL0     C54271   1.020  12.535   2.702 -0.1603  1.0855  0.1013
  394MOL0     C54272   0.928  12.621   2.801  0.1135 -0.1320  0.4240
  394MOL0     C54273   0.816  12.688   2.720 -0.1624 -0.2760 -0.8400
  394MOL0     C54274   0.674  12.627   2.760  0.3280 -0.3813 -0.5440
  394MOL0     C54275   0.648  12.479   2.700 -0.6061 -0.5640  0.2068
  394MOL0     C54276   0.507  12.428   2.710 -0.3620  0.7221  0.6609
  394MOL0     C54277   0.402  12.517   2.779  0.8136 -0.4141 -1.0182
  394MOL0     C54278   0.250  12.492   2.740 -0.2328  0.0050  0.7056
  394MOL0    Cl54279   0.156  12.587   2.857 -0.0045  0.0169  0.4390
  394MOL0     C54280   1.320  12.446   2.879 -0.0314 -0.0834  0.3925
  394MOL0     C54281   1.372  12.352   2.967 -0.4777 -0.8437  1.3145
  394MOL0     O54282   1.271  11.954   3.009 -0.1268 -0.1238  0.6761
  394MOL0     C54283   1.500  11.991   3.277  0.4711 -0.2227 -0.1917
  394MOL0     C54284   1.564  11.928   3.390  0.3192 -1.6174 -0.6947
  394MOL0     N54285   1.678  11.793   3.998  0.1542  0.5958 -0.4546
  394MOL0     N54286   1.673  11.849   4.112 -0.3024  1.1094 -0.2692
  394MOL0     C54287   2.248  11.735   4.935 -0.3757  0.3442  0.4611
  394MOL0     C54288   2.324  11.651   5.016  0.3002 -0.0474 -0.1001
  394MOL0     C54289   2.502  11.387   5.329  0.2152  0.5926 -0.8203
  394MOL0     C54290   2.486  11.447   5.457  0.2977 -0.1753  0.2703
  394MOL0     C54291   2.550  11.388   5.560  0.2930  0.3369  0.4068
  394MOL0     C54292   2.618  11.258   5.558 -0.3280 -0.2964 -1.0676
  394MOL0     O54293   2.681  11.210   5.675  0.9810  0.2661  0.5793
  394MOL0     C54294   2.703  11.061   5.682 -0.2446  0.0848  0.7602
  394MOL0     C54295   2.754  11.024   5.816 -0.1220 -1.1009 -0.5394
  394MOL0     C54296   2.868  10.928   5.810 -0.2797  0.1475  0.1909
  394MOL0     C54297   2.940  10.916   5.946  0.7029  0.4456  0.5462
  394MOL0     C54298   3.008  10.790   5.953 -1.3251 -0.5427 -0.5862
  394MOL0     C54299   3.068  10.681   5.982  0.3231 -0.2835  0.0170
  394MOL0     C54300   2.622  11.194   5.438 -0.8070 -0.4670 -0.2191
  394MOL0     C54301   2.565  11.258   5.329 -0.0443  0.4041  0.0738
  394MOL0     C54302   2.600  11.192   5.199 -0.7624 -0.5645  0.0082
  394MOL0     H54303   2.231  11.766   5.312 -1.9217 -1.7164  0.1132
  394MOL0     H54304   2.066  11.898   5.174 -0.4096  0.9897 -1.6768
  394MOL0     H54305   1.940  12.029   4.851 -1.0762 -1.5476 -1.8307
  394MOL0     H54306   1.946  11.973   5.016 -0.1037 -1.1731  0.3281
  394MOL0     H54307   1.931  11.753   4.817 -0.8882 -1.9071  0.3905
  394MOL0     H54308   1.840  11.780   4.966  1.3736  0.2162  0.7751
  394MOL0     H54309   1.702  11.767   4.763  2.6329 -1.7627 -0.4687
  394MOL0     H54310   1.686  11.915   4.854  1.7125  0.1201  1.4052
  394MOL0     H54311   1.848  12.023   4.671  2.5812 -1.9652 -0.1278
  394MOL0     H54312   1.811  11.880   4.582 -0.3835  2.7858 -2.5926
  394MOL0     H54313   1.672  12.054   4.507 -0.8942 -0.8101 -0.9733
  394MOL0     H54314   1.579  12.073   4.659 -0.6759 -1.2303  1.2049
  394MOL0     H54315   1.543  11.810   4.622  1.0840 -0.0971 -1.0681
  394MOL0     H54316   1.452  11.952   4.543  0.1029 -0.3531 -0.5685
  394MOL0     H54317   1.552  11.732   4.419 -3.4138  0.4872  2.2570
  394MOL0     H54318   1.700  11.837   4.407 -0.1528 -2.7693  0.3507
  394MOL0     H54319   1.413  11.888   4.294  0.8287 -2.5954 -2.6933
  394MOL0     H54320   1.549  11.999   4.298 -1.6787 -0.3066  1.1902
  394MOL0     H54321   1.375  11.705   4.092  0.3232 -2.3378 -2.2650
  394MOL0     H54322   1.419  11.581   3.904 -0.1275 -0.3302 -0.3117
  394MOL0     H54323   1.584  11.591   3.842  1.9423 -0.6796  3.1355
  394MOL0     H54324   1.387  11.730   3.697  1.1715  2.3697 -1.8642
  394MOL0     H54325   1.371  11.825   3.828 -2.3172  0.1038 -3.3997
  394MOL0     H54326   1.518  11.939   3.647  2.9508 -0.1644 -3.9157
  394MOL0     H54327   1.622  11.903   3.780  0.4183 -0.3559  0.5628
  394MOL0     H54328   1.751  11.808   3.586  0.2273 -2.4869 -3.3275
  394MOL0     H54329   1.693  11.682   3.681  1.8913  2.6692  2.8381
  394MOL0     H54330   1.460  11.611   3.296  1.9233 -0.5248  1.7745
  394MOL0     H54331   1.215  11.744   3.115  0.5609  2.3124  2.2055
  394MOL0     H54332   1.296  11.597   3.133  1.7885 -1.1014 -0.5477
  394MOL0     H54333   1.359  11.702   3.013 -0.0761  2.8500  0.8779
  394MOL0     H54334   1.115  12.140   3.006  2.6939 -1.0449 -0.4910
  394MOL0     H54335   1.000  12.335   2.878  0.5997  0.8736 -1.2156
  394MOL0     H54336   1.030  12.592   2.609 -3.3848  2.4945  0.4967
  394MOL0     H54337   0.971  12.438   2.688 -0.9956  1.6940 -1.4105
  394MOL0     H54338   0.893  12.562   2.886 -1.2572 -0.8080 -0.5864
  394MOL0     H54339   0.997  12.698   2.836  0.9246  1.2462 -3.6993
  394MOL0     H54340   0.831  12.674   2.612  0.1039  0.0850 -0.8519
  394MOL0     H54341   0.825  12.793   2.749  0.9884 -1.1564  2.3413
  394MOL0     H54342   0.603  12.701   2.724 -0.9050 -1.1861  0.1651
  394MOL0     H54343   0.664  12.629   2.869 -0.7772 -1.7233 -0.5972
  394MOL0     H54344   0.687  12.451   2.602  0.8847 -0.9292  0.8791
  394MOL0     H54345   0.715  12.414   2.757 -0.1211 -3.0992 -2.9593
  394MOL0     H54346   0.511  12.328   2.754 -1.2580 -0.3659 -1.5792
  394MOL0     H54347   0.472  12.412   2.608 -0.3835  1.3678  0.5635
  394MOL0     H54348   0.419  12.623   2.761  1.7271 -0.7151 -2.0102
  394MOL0     H54349   0.414  12.487   2.883 -5.1227 -2.5330 -0.5292
  394MOL0     H54350   0.220  12.387   2.750  0.2122 -0.3196 -1.0090
  394MOL0     H54351   0.232  12.505   2.633  0.5750 -2.7606  0.1542
  394MOL0     H54352   1.391  12.517   2.838 -1.7736  1.5255  0.0355
  394MOL0     H54353   1.474  12.367   3.001 -0.9591  0.4177  2.2437
  394MOL0     H54354   1.520  12.098   3.272  6.1822 -0.8559  1.9129
  394MOL0     H54355   1.621  11.991   3.458  1.1106 -3.1947  0.1370
  394MOL0     H54356   2.259  11.743   4.828 -3.5057  0.5435  0.0746
  394MOL0     H54357   2.408  11.600   4.971  2.8049  3.7797 -0.2297
  394MOL0     H54358   2.440  11.543   5.476  3.0959  1.3547 -0.1141
  394MOL0     H54359   2.557  11.448   5.650 -1.5049  0.5136  0.4564
  394MOL0     H54360   2.616  11.000   5.654  0.1899 -0.1011 -0.2484
  394MOL0     H54361   2.771  11.035   5.600 -0.8352 -1.5814  0.7671
  394MOL0     H54362   2.670  10.992   5.878 -2.7196 -1.4293 -3.9368
  394MOL0     H54363   2.787  11.117   5.865 -0.9964 -0.5036 -1.0512
  394MOL0     H54364   2.827  10.834   5.771  2.3016 -1.7610  1.7842
  394MOL0     H54365   2.942  10.959   5.736 -1.5814  0.9083 -0.8444
  394MOL0     H54366   2.863  10.914   6.023 -1.2891 -3.6734 -1.2536
  394MOL0     H54367   3.006  10.999   5.973  1.9559  0.6575 -2.7138
  394MOL0     H54368   3.127  10.595   6.008  2.6071  1.6853  1.9202
  394MOL0     H54369   2.671  11.097   5.427  2.9334  0.5895  4.0587
  394MOL0     H54370   2.665  11.255   5.138 -1.8030  1.7446  1.1363
  394MOL0     H54371   2.642  11.093   5.216  1.2536  0.1497 -0.5623
  394MOL0     H54372   2.505  11.188   5.144  1.9423  0.4584 -5.4753
  395MOL0     O54373   2.013  10.985   7.028 -0.1504  0.2041 -0.2816
  395MOL0     C54374   2.117  10.924   7.026 -0.0286  0.4468  0.2206
  395MOL0     O54375   2.238  10.962   6.966  0.4987  0.0265  0.0147
  395MOL0     C54376   2.267  11.087   6.911 -0.2247 -0.1747 -0.2382
  395MOL0     C54377   2.390  11.087   6.849 -0.7145  0.3049 -0.4565
  395MOL0     C54378   2.432  11.202   6.790  0.5653 -0.9223 -0.1467
  395MOL0     C54379   2.349  11.317   6.796 -0.6468 -0.4315  0.2019
  395MOL0     O54380   2.410  11.430   6.733 -0.3434  0.7076 -0.1283
  395MOL0     C54381   2.323  11.523   6.671 -0.6240 -0.5385 -0.7508
  395MOL0     C54382   2.343  11.665   6.736  0.2366 -0.7140 -0.3858
  395MOL0     C54383   2.295  11.682   6.882  0.6824  0.9727  0.5156
  395MOL0     C54384   2.285  11.837   6.925  0.0482  1.2435  0.2702
  395MOL0     C54385   2.342  11.843   7.067 -0.1184 -0.2663  0.3639
  395MOL0     C54386   2.354  11.983   7.138 -0.5573  0.4570  0.3820
  395MOL0     C54387   2.411  11.961   7.285 -1.2793  0.1596  0.1044
  395MOL0     C54388   2.461  12.081   7.355 -0.0107 -0.1128 -0.5168
  395MOL0     N54389   2.545  12.033   7.464  0.6111  0.1061  0.4704
  395MOL0     C54390   2.499  12.005   7.586  0.6540  0.2326 -0.4242
  395MOL0     C54391   2.605  11.954   7.655  0.2766 -0.1026 -0.6148
  395MOL0     C54392   2.603  11.911   7.798 -0.0603  0.3567 -1.2243
  395MOL0     C54393   2.632  12.028   7.890  0.4527 -0.5176 -0.5515
  395MOL0     C54394   2.519  12.131   7.907  1.5005  0.2419  0.1118
  395MOL0     C54395   2.409  12.090   8.010  0.0563  0.4081  0.4143
  395MOL0     O54396   2.452  12.077   8.145 -0.5631 -0.7673 -0.3545
  395MOL0     C54397   2.448  12.190   8.225  0.4587  0.7889  0.2908
  395MOL0     C54398   2.362  12.297   8.229  0.5193  0.0315 -0.7977
  395MOL0     C54399   2.372  12.406   8.326  0.8343  0.6086 -0.2794
  395MOL0     C54400   2.275  12.520   8.314 -0.9514  0.6086  0.0964
  395MOL0     C54401   2.468  12.393   8.429  0.3496  0.2903 -0.4462
  395MOL0     C54402   2.481  12.476   8.556  0.7193 -0.2811  0.6550
  395MOL0     O54403   2.415  12.596   8.539 -0.4544 -0.0993  0.0644
  395MOL0     C54404   2.415  12.684   8.645  0.5511 -0.4623 -0.1939
  395MOL0     C54405   2.474  12.808   8.625  0.2476 -0.7031 -0.4296
  395MOL0     C54406   2.495  12.884   8.737  0.4304 -1.2091 -0.1531
  395MOL0     C54407   2.432  12.854   8.858 -0.7836 -0.0185 -0.9802
  395MOL0     O54408   2.426  12.931   8.978  0.2523  0.4169 -0.2572
  395MOL0     C54409   2.356  13.053   8.960 -0.6841  0.1781 -0.1911
  395MOL0     C54410   2.406  13.162   9.059 -0.1535 -0.2510 -0.1919
  395MOL0     C54411   2.530  13.239   8.994  1.2733  0.0356  0.1268
  395MOL0     C54412   2.480  13.361   8.922  0.3450  0.0458  0.6994
  395MOL0     C54413   2.593  13.453   8.869 -0.2466  0.5912  0.8748
  395MOL0     C54414   2.542  13.588   8.814 -0.2754 -0.4091 -0.3763
  395MOL0     C54415   2.464  13.680   8.912 -0.0777  0.5500  0.2548
  395MOL0     C54416   2.541  13.758   9.015 -0.0658  0.5564  0.3569
  395MOL0    Cl54417   2.534  13.657   9.162  0.4907 -0.2867  0.0874
  395MOL0     C54418   2.363  12.745   8.879  0.4282 -0.1551  0.3388
  395MOL0     C54419   2.364  12.649   8.778  0.3173  0.6144 -0.1667
  395MOL0     O54420   2.562  12.443   8.646 -0.4417  0.7510  0.7835
  395MOL0     C54421   2.554  12.280   8.422  0.5303 -1.2048  0.2909
  395MOL0     C54422   2.535  12.177   8.329  0.4794 -0.4364  0.0888
  395MOL0     N54423   2.717  11.953   7.575 -0.0447 -0.3323 -0.1995
  395MOL0     N54424   2.681  11.999   7.462  1.0385 -0.1639 -0.1696
  395MOL0     C54425   2.226  11.313   6.866 -0.8832 -0.2813  0.0899
  395MOL0     C54426   2.179  11.199   6.919 -0.1834  0.0241  0.5137
  395MOL0     C54427   2.132  10.794   7.098 -0.4689 -0.9518 -0.0197
  395MOL0     C54428   2.046  10.691   7.076  0.4180  0.9818 -0.4219
  395MOL0     C54429   2.060  10.569   7.138 -1.2050 -0.4134 -0.1067
  395MOL0     C54430   2.154  10.555   7.233 -1.0174 -0.5241  0.1293
  395MOL0     O54431   2.146  10.441   7.316  0.7170  0.6601 -0.9758
  395MOL0     C54432   2.189  10.442   7.452 -0.8196 -0.0650  0.6518
  395MOL0     C54433   2.287  10.325   7.451  0.0580  0.0226  0.3286
  395MOL0     C54434   2.217  10.190   7.428  1.1690  0.9020  0.2632
  395MOL0     C54435   2.309  10.072   7.439 -0.4816  0.2430  0.1497
  395MOL0     C54436   2.241   9.965   7.360 -0.0145  0.1017  1.3214
  395MOL0     C54437   2.173   9.898   7.285  0.5360  0.2609 -0.1687
  395MOL0     C54438   2.252  10.656   7.249  0.5043  0.2049  0.3531
  395MOL0     C54439   2.240  10.783   7.192 -0.6471  1.3715 -0.3217
  395MOL0     C54440   2.339  10.888   7.222 -0.2670 -0.4430 -0.3919
  395MOL0     H54441   2.463  11.008   6.866  2.5320  1.2153 -7.2125
  395MOL0     H54442   2.532  11.210   6.751  1.1023  1.9420  1.4996
  395MOL0     H54443   2.219  11.492   6.681 -1.1867 -0.5478 -4.7881
  395MOL0     H54444   2.342  11.538   6.564 -1.3224  3.0401 -0.4877
  395MOL0     H54445   2.449  11.689   6.724 -0.1238  1.3064  0.1179
  395MOL0     H54446   2.293  11.742   6.676  2.1197  1.6360  0.8665
  395MOL0     H54447   2.194  11.639   6.889  1.3974 -0.9387 -0.3360
  395MOL0     H54448   2.354  11.619   6.948  0.0354  1.5947  1.7242
  395MOL0     H54449   2.343  11.898   6.855  2.0394 -0.1007  0.6681
  395MOL0     H54450   2.182  11.870   6.910  0.2109  1.7239  0.1909
  395MOL0     H54451   2.442  11.801   7.077  0.6946  1.0958 -1.3901
  395MOL0     H54452   2.274  11.797   7.140 -2.4965  1.3083 -0.7215
  395MOL0     H54453   2.424  12.052   7.090 -0.6777  3.0110  3.5059
  395MOL0     H54454   2.252  12.024   7.139 -0.7359  0.0119  1.3030
  395MOL0     H54455   2.498  11.896   7.277 -0.4319  1.0763  1.5342
  395MOL0     H54456   2.349  11.904   7.354  1.6421 -2.1830  0.9961
  395MOL0     H54457   2.533  12.134   7.292 -0.0389  0.4406 -0.0947
  395MOL0     H54458   2.381  12.139   7.401 -2.1293 -3.1721 -0.0500
  395MOL0     H54459   2.398  12.021   7.622  1.8856 -1.1525  4.3756
  395MOL0     H54460   2.677  11.832   7.812 -0.0553  0.7635  1.9204
  395MOL0     H54461   2.507  11.874   7.834 -0.2657  2.0917  0.1929
  395MOL0     H54462   2.661  12.004   7.992 -0.5853 -0.0634 -0.1299
  395MOL0     H54463   2.716  12.081   7.845  0.2115 -0.8628 -1.4419
  395MOL0     H54464   2.555  12.229   7.937  0.2418  1.1900 -1.3027
  395MOL0     H54465   2.473  12.144   7.808  1.5623 -0.5562 -0.0264
  395MOL0     H54466   2.328  12.164   8.001  0.4940  0.6216 -2.8374
  395MOL0     H54467   2.368  11.995   7.975  2.4874  0.6679 -3.7332
  395MOL0     H54468   2.285  12.312   8.155  0.4666  2.7640 -0.3025
  395MOL0     H54469   2.203  12.502   8.234 -0.4205 -1.3503  0.0021
  395MOL0     H54470   2.331  12.614   8.303  1.6791 -1.0760 -2.6321
  395MOL0     H54471   2.226  12.532   8.411 -0.6412  1.3918  0.1635
  395MOL0     H54472   2.519  12.831   8.529  0.9303 -2.2899 -0.5261
  395MOL0     H54473   2.549  12.977   8.724 -1.6409 -0.0575 -1.0346
  395MOL0     H54474   2.353  13.083   8.855 -1.8932 -0.1225 -0.2625
  395MOL0     H54475   2.257  13.025   8.996 -0.5529  0.3086  0.2807
  395MOL0     H54476   2.324  13.231   9.082 -0.0302 -1.1568  3.6447
  395MOL0     H54477   2.433  13.122   9.157 -0.1784 -0.9186 -0.4587
  395MOL0     H54478   2.572  13.171   8.919 -0.8004 -2.7148  1.2723
  395MOL0     H54479   2.607  13.268   9.066  2.1048 -2.2470  0.2277
  395MOL0     H54480   2.434  13.408   9.010  0.7162  1.0004  0.4043
  395MOL0     H54481   2.416  13.333   8.838  2.0606 -1.9356 -0.0275
  395MOL0     H54482   2.672  13.468   8.943 -0.3056 -2.1983  1.6181
  395MOL0     H54483   2.631  13.387   8.790 -0.7129 -3.4375  3.6976
  395MOL0     H54484   2.480  13.566   8.727 -1.3235  1.1756 -0.0640
  395MOL0     H54485   2.627  13.645   8.775 -2.5173  3.1151 -0.4633
  395MOL0     H54486   2.386  13.622   8.963 -0.5515  0.4589 -0.5521
  395MOL0     H54487   2.406  13.744   8.845 -0.7008 -1.5921 -1.3635
  395MOL0     H54488   2.498  13.858   9.017  0.8433  0.9478  1.6680
  395MOL0     H54489   2.645  13.775   8.983 -0.5032  1.0753 -0.8833
  395MOL0     H54490   2.299  12.733   8.966  1.4241  3.3571  1.7299
  395MOL0     H54491   2.315  12.555   8.803  0.2276  0.7669  0.2547
  395MOL0     H54492   2.636  12.263   8.491  2.5188 -0.3903 -1.7110
  395MOL0     H54493   2.591  12.087   8.353  3.2191  1.2142  0.2897
  395MOL0     H54494   2.167  11.404   6.874 -0.9130 -0.3008  0.0914
  395MOL0     H54495   2.077  11.197   6.957 -1.8245 -2.3182 -3.3853
  395MOL0     H54496   1.961  10.699   7.008  0.4047  1.6740 -0.3256
  395MOL0     H54497   1.979  10.500   7.115 -1.6047  0.7765 -2.6675
  395MOL0     H54498   2.248  10.528   7.485 -3.2564  1.3031  1.6924
  395MOL0     H54499   2.099  10.451   7.514 -0.4118  0.8320  1.1391
  395MOL0     H54500   2.340  10.315   7.547 -1.9285 -1.0318  1.3898
  395MOL0     H54501   2.350  10.341   7.363 -0.8315  1.2526 -0.1035
  395MOL0     H54502   2.139  10.184   7.504  2.8899  0.3747  2.0945
  395MOL0     H54503   2.177  10.196   7.326 -1.8404 -1.8983  1.1140
  395MOL0     H54504   2.314  10.046   7.545 -3.3174 -4.5870 -0.5922
  395MOL0     H54505   2.411  10.089   7.403 -0.3014 -0.7588  0.1325
  395MOL0     H54506   2.112   9.843   7.216 -2.4019  3.5081 -0.4639
  395MOL0     H54507   2.330  10.629   7.319 -0.6375  1.8604  2.3952
  395MOL0     H54508   2.282  10.979   7.239  1.1581  0.7082 -1.5276
  395MOL0     H54509   2.393  10.859   7.312  1.1535 -0.1352 -1.1196
  395MOL0     H54510   2.405  10.912   7.138 -0.9711  1.6287 -0.3957
  396MOL0     O54511   7.165  11.021   0.120  0.6143  0.0872 -0.6479
  396MOL0     C54512   7.116  11.104   0.199  0.0178  0.8516  0.6458
  396MOL0     O54513   6.979  11.113   0.225 -0.1325  0.2990 -0.7453
  396MOL0     C54514   6.894  11.066   0.130  0.0390 -0.1655 -0.4737
  396MOL0     C54515   6.828  11.159   0.053  0.4010 -0.4265  0.7092
  396MOL0     C54516   6.733  11.117  -0.047 -0.6490  0.7125 -0.5228
  396MOL0     C54517   6.722  10.975  -0.079 -0.1174 -0.5183  0.2392
  396MOL0     O54518   6.634  10.949  -0.179 -0.5332 -0.4251 -0.0946
  396MOL0     C54519   6.602  10.808  -0.221  0.2955 -0.0114 -0.8958
  396MOL0     C54520   6.472  10.802  -0.302  1.1520 -0.6357  0.4710
  396MOL0     C54521   6.481  10.819  -0.458 -0.7159 -0.3403  0.1159
  396MOL0     C54522   6.354  10.792  -0.544  0.2301 -0.1776 -0.0696
  396MOL0     C54523   6.358  10.889  -0.668 -0.3554 -0.3514  0.4423
  396MOL0     C54524   6.225  10.916  -0.739  0.3318 -0.1855 -0.4129
  396MOL0     C54525   6.237  11.020  -0.849  0.5210  0.0166 -0.1220
  396MOL0     C54526   6.314  10.974  -0.974 -1.2819  0.2517 -0.2627
  396MOL0     N54527   6.249  10.865  -1.047  0.0116  0.2392  0.1673
  396MOL0     C54528   6.147  10.872  -1.136 -0.2401  0.6482 -0.3758
  396MOL0     C54529   6.133  10.746  -1.187 -1.4380  0.3214 -0.3079
  396MOL0     C54530   6.026  10.710  -1.290 -0.1095  1.4962 -0.2753
  396MOL0     C54531   5.891  10.693  -1.233 -0.4777 -0.2035  0.1216
  396MOL0     C54532   5.800  10.620  -1.330  0.9841  0.0206 -0.1074
  396MOL0     C54533   5.643  10.635  -1.294  0.5243 -0.4921 -0.0572
  396MOL0     O54534   5.606  10.570  -1.175  0.7120 -0.2774 -0.3307
  396MOL0     C54535   5.467  10.576  -1.143  0.0607 -0.9586 -0.6643
  396MOL0     C54536   5.367  10.615  -1.231 -0.2181  0.7880 -0.3958
  396MOL0     C54537   5.228  10.593  -1.193  0.9679 -0.0896  0.4418
  396MOL0     C54538   5.124  10.628  -1.304 -0.0386  0.6470  0.2118
  396MOL0     C54539   5.198  10.536  -1.070  0.6285  0.1815 -0.5715
  396MOL0     C54540   5.060  10.506  -1.021  0.6787 -0.4274 -0.6289
  396MOL0     O54541   5.041  10.476  -0.886  0.1135  0.3788 -0.6033
  396MOL0     C54542   4.926  10.427  -0.845  0.0587  0.3995  0.0319
  396MOL0     C54543   4.818  10.509  -0.814 -0.3898  0.6801  0.1655
  396MOL0     C54544   4.700  10.452  -0.760 -1.1538  0.3640 -0.5103
  396MOL0     C54545   4.689  10.313  -0.734 -0.9625  0.6826 -0.1010
  396MOL0     O54546   4.567  10.246  -0.698 -0.1951 -0.3249 -0.2691
  396MOL0     C54547   4.481  10.316  -0.606  0.7641 -0.1790 -0.5086
  396MOL0     C54548   4.385  10.217  -0.537 -0.6346 -0.5398 -0.1243
  396MOL0     C54549   4.452  10.157  -0.413 -0.1033 -0.8363  0.0516
  396MOL0     C54550   4.550  10.052  -0.449  0.5306  0.0129  0.6826
  396MOL0     C54551   4.612   9.984  -0.327  0.3562  0.5246 -1.1034
  396MOL0     C54552   4.737   9.902  -0.363  0.0577  0.2323  0.2440
  396MOL0     C54553   4.793   9.806  -0.258  0.5779 -0.6305 -0.2152
  396MOL0     C54554   4.704   9.687  -0.228  0.9366  0.3832  0.4997
  396MOL0    Cl54555   4.668   9.590  -0.374  0.2281  0.1824  0.1353
  396MOL0     C54556   4.801  10.228  -0.768  0.4969  0.0491 -0.9939
  396MOL0     C54557   4.917  10.286  -0.823  0.3917  0.0270 -0.5518
  396MOL0     O54558   4.972  10.489  -1.108 -0.3657  0.1736  0.0868
  396MOL0     C54559   5.301  10.515  -0.977 -0.3558  0.0703  0.1920
  396MOL0     C54560   5.435  10.537  -1.015  0.0002 -0.6856 -1.5358
  396MOL0     N54561   6.223  10.664  -1.120 -0.1946 -0.4380  1.0163
  396MOL0     N54562   6.290  10.736  -1.039 -1.4893  0.5732 -0.5704
  396MOL0     C54563   6.797  10.895  -0.003  0.5566  1.2044  0.4338
  396MOL0     C54564   6.873  10.929   0.105  0.1115  0.0509  1.4144
  396MOL0     C54565   7.211  11.195   0.268 -0.0459  0.4708 -0.2648
  396MOL0     C54566   7.338  11.136   0.304  0.6840 -0.0707 -0.2338
  396MOL0     C54567   7.443  11.208   0.361 -0.2117  0.2001  1.1443
  396MOL0     C54568   7.420  11.341   0.388 -0.0019 -1.3750  0.5116
  396MOL0     O54569   7.524  11.420   0.448  0.2163  0.2718 -0.0188
  396MOL0     C54570   7.562  11.546   0.384 -0.1847  0.0556  0.3876
  396MOL0     C54571   7.703  11.599   0.430  0.0235  0.0601 -0.2703
  396MOL0     C54572   7.813  11.500   0.390 -0.4828  0.2623 -0.3009
  396MOL0     C54573   7.946  11.554   0.367 -0.2129 -1.1401  0.4098
  396MOL0     C54574   8.046  11.451   0.343  0.3056  0.4387 -0.0260
  396MOL0     C54575   8.120  11.355   0.333  0.1273  0.0541  0.0376
  396MOL0     C54576   7.295  11.400   0.359 -0.4015 -0.2466 -0.0049
  396MOL0     C54577   7.191  11.329   0.302  0.7057 -0.5245  0.1691
  396MOL0     C54578   7.068  11.407   0.261  0.7437  0.3684 -0.2682
  396MOL0     H54579   6.850  11.265   0.060 -1.9941  0.1285  0.5414
  396MOL0     H54580   6.676  11.196  -0.095  0.6258  2.1193  0.1924
  396MOL0     H54581   6.573  10.747  -0.135  0.0251  2.3274  0.7632
  396MOL0     H54582   6.688  10.758  -0.265  0.7063 -2.3814  2.3124
  396MOL0     H54583   6.419  10.707  -0.293 -0.9151  0.4591  0.3729
  396MOL0     H54584   6.407  10.885  -0.273  2.3741  0.0686  1.3027
  396MOL0     H54585   6.522  10.919  -0.475  0.9268 -0.8588  0.7704
  396MOL0     H54586   6.555  10.749  -0.497 -0.0251  0.1449  0.5365
  396MOL0     H54587   6.331  10.690  -0.579  1.0029 -0.3043 -0.2329
  396MOL0     H54588   6.270  10.815  -0.478  3.0954 -0.9427  4.3258
  396MOL0     H54589   6.439  10.865  -0.737 -0.3612  3.2631 -1.0674
  396MOL0     H54590   6.389  10.985  -0.626  2.1940 -0.9852  0.1505
  396MOL0     H54591   6.177  10.823  -0.770  1.1370 -0.7409 -0.0033
  396MOL0     H54592   6.163  10.953  -0.656 -1.4653 -0.3730 -1.6187
  396MOL0     H54593   6.282  11.101  -0.790  0.0429 -2.4237  3.9850
  396MOL0     H54594   6.138  11.050  -0.883 -0.1376 -0.3688  1.3692
  396MOL0     H54595   6.334  11.039  -1.059 -3.4172 -1.9059 -2.6057
  396MOL0     H54596   6.406  10.928  -0.938 -0.9300  0.1915 -1.2151
  396MOL0     H54597   6.081  10.956  -1.156  0.3781  0.8555 -1.6248
  396MOL0     H54598   6.055  10.617  -1.340  2.8028  2.3669 -0.4123
  396MOL0     H54599   6.019  10.788  -1.366 -3.0024  1.8771  0.2769
  396MOL0     H54600   5.891  10.644  -1.135 -0.0256 -0.1265  0.1617
  396MOL0     H54601   5.856  10.796  -1.224 -0.5415  0.2432 -3.7281
  396MOL0     H54602   5.803  10.674  -1.425  0.4662 -1.5303 -1.0499
  396MOL0     H54603   5.831  10.516  -1.340 -0.7451 -0.5328 -0.0551
  396MOL0     H54604   5.625  10.742  -1.277  2.3321 -0.1635 -0.0395
  396MOL0     H54605   5.590  10.605  -1.385  1.1583 -1.2272 -0.1987
  396MOL0     H54606   5.389  10.642  -1.334  0.5349 -0.3895 -0.5639
  396MOL0     H54607   5.067  10.538  -1.329 -2.5504  2.0388  0.6489
  396MOL0     H54608   5.180  10.652  -1.395  0.2206 -0.4459  0.0608
  396MOL0     H54609   5.058  10.707  -1.268 -3.0627 -0.4330 -2.4765
  396MOL0     H54610   4.831  10.616  -0.825  2.9508  0.4953  1.3628
  396MOL0     H54611   4.609  10.508  -0.743 -1.7664 -0.8366  0.3755
  396MOL0     H54612   4.548  10.363  -0.534  2.4356 -1.0611 -1.4438
  396MOL0     H54613   4.418  10.387  -0.662 -0.4750 -0.9979 -0.2086
  396MOL0     H54614   4.295  10.265  -0.496 -2.0346 -0.6665 -2.8086
  396MOL0     H54615   4.356  10.134  -0.602 -1.9378 -0.0048 -0.2497
  396MOL0     H54616   4.374  10.121  -0.345 -0.5176  1.7531  1.0450
  396MOL0     H54617   4.508  10.233  -0.357 -1.3718  0.2566 -0.1198
  396MOL0     H54618   4.631  10.110  -0.495 -0.8850  1.1121 -0.5363
  396MOL0     H54619   4.500   9.979  -0.512 -0.1649  2.0053 -1.2121
  396MOL0     H54620   4.645  10.058  -0.254  0.9511 -1.2843  0.5371
  396MOL0     H54621   4.543   9.912  -0.280  2.4078 -0.9923 -0.2793
  396MOL0     H54622   4.815   9.975  -0.383  0.6809 -0.6659 -0.7020
  396MOL0     H54623   4.698   9.852  -0.452 -3.4216  2.1150  0.5234
  396MOL0     H54624   4.818   9.859  -0.166  1.7279 -1.0016 -0.3037
  396MOL0     H54625   4.886   9.764  -0.296  1.0608  1.2619 -1.2459
  396MOL0     H54626   4.609   9.713  -0.182  0.7515 -1.9225  1.5821
  396MOL0     H54627   4.754   9.608  -0.171 -2.6731 -1.3841  1.4908
  396MOL0     H54628   4.783  10.124  -0.742  0.5118  0.7803  2.4316
  396MOL0     H54629   5.000  10.220  -0.847 -1.4731 -2.3336 -0.7769
  396MOL0     H54630   5.283  10.477  -0.876  2.0414 -0.0902  0.6050
  396MOL0     H54631   5.512  10.509  -0.945 -1.7683 -0.8461  0.4612
  396MOL0     H54632   6.796  10.787  -0.014 -2.0848  0.9220  2.3926
  396MOL0     H54633   6.906  10.855   0.177  0.0899 -0.1948  1.1756
  396MOL0     H54634   7.352  11.032   0.277  3.2365  0.1809 -0.0879
  396MOL0     H54635   7.537  11.160   0.385 -1.3665 -1.0975  3.4904
  396MOL0     H54636   7.569  11.540   0.275 -0.0437 -1.5117  0.4589
  396MOL0     H54637   7.492  11.628   0.401  1.7031  2.0414 -0.8524
  396MOL0     H54638   7.699  11.611   0.538 -1.6635  1.3165 -0.4351
  396MOL0     H54639   7.719  11.701   0.392 -3.5930  1.9567  2.6645
  396MOL0     H54640   7.823  11.419   0.463  0.9744 -1.8141 -2.6306
  396MOL0     H54641   7.789  11.436   0.305 -1.5854  0.3581 -0.0769
  396MOL0     H54642   7.987  11.611   0.451 -3.3466 -1.5471  2.3612
  396MOL0     H54643   7.942  11.621   0.280  2.2986  1.6826  2.2510
  396MOL0     H54644   8.207  11.294   0.318  1.3697  1.2676  1.8873
  396MOL0     H54645   7.284  11.506   0.380 -1.4539 -0.6291  1.5867
  396MOL0     H54646   6.974  11.363   0.296  0.6668  0.3897 -0.4405
  396MOL0     H54647   7.081  11.506   0.306  3.0411 -1.5012  3.6935
  396MOL0     H54648   7.060  11.407   0.152 -1.0737  0.3839 -0.1670
  397MOL0     O54649   2.741   8.431   7.942 -0.0774  0.2195  0.3860
  397MOL0     C54650   2.653   8.459   7.856 -0.4952  0.4371 -1.3753
  397MOL0     O54651   2.568   8.565   7.864 -0.6956 -0.0756  0.0269
  397MOL0     C54652   2.570   8.629   7.987  0.4493  0.5688  0.8633
  397MOL0     C54653   2.581   8.569   8.125  0.3317 -0.2880  0.0381
  397MOL0     C54654   2.585   8.652   8.226  0.0968 -0.6372  0.0278
  397MOL0     C54655   2.573   8.788   8.208 -0.1533  0.0502 -0.5006
  397MOL0     O54656   2.567   8.867   8.322 -0.1818  0.0988 -0.9184
  397MOL0     C54657   2.438   8.890   8.379  0.1550  0.1009 -0.4339
  397MOL0     C54658   2.441   8.897   8.529  0.3402 -0.0025  1.1452
  397MOL0     C54659   2.518   8.787   8.593 -0.1544 -0.6284  0.0961
  397MOL0     C54660   2.506   8.798   8.743  0.1712  0.0662  0.2134
  397MOL0     C54661   2.601   8.693   8.804  0.0495  1.0804  0.2253
  397MOL0     C54662   2.741   8.740   8.807  0.2803  0.3659 -0.2495
  397MOL0     C54663   2.842   8.620   8.838 -0.0651 -0.6314  0.2589
  397MOL0     C54664   2.874   8.577   8.984  0.0117 -0.1584  0.1751
  397MOL0     N54665   2.767   8.493   9.051 -0.2289  0.6012  0.5120
  397MOL0     C54666   2.686   8.530   9.152 -0.2291 -0.5237  0.1622
  397MOL0     C54667   2.590   8.434   9.165 -0.0771 -0.3323 -0.8493
  397MOL0     C54668   2.480   8.423   9.271 -1.0506  0.6270 -0.4498
  397MOL0     C54669   2.439   8.277   9.298 -0.3639 -0.3071  0.6507
  397MOL0     C54670   2.548   8.196   9.371 -0.7752  0.1172 -0.4373
  397MOL0     C54671   2.517   8.049   9.352  0.5031 -0.1144  0.8604
  397MOL0     O54672   2.386   8.003   9.400 -0.5916 -0.2106 -0.9722
  397MOL0     C54673   2.320   7.914   9.319  0.5716  0.4286 -0.6992
  397MOL0     C54674   2.223   7.966   9.235 -0.5054  0.0122  0.8461
  397MOL0     C54675   2.130   7.881   9.159  0.1566 -0.4215 -0.8925
  397MOL0     C54676   2.014   7.952   9.092 -0.0239  0.0558  0.2630
  397MOL0     C54677   2.157   7.741   9.144 -0.2723  0.6583  0.3279
  397MOL0     C54678   2.085   7.642   9.070  0.2065 -0.0148  1.1746
  397MOL0     O54679   2.146   7.525   9.024  0.1291  0.1648  0.6674
  397MOL0     C54680   2.063   7.430   8.965 -0.2780 -0.4357 -0.4060
  397MOL0     C54681   2.015   7.431   8.837  0.5452  0.5034 -0.4116
  397MOL0     C54682   1.947   7.313   8.787 -0.4688  0.0120 -1.1721
  397MOL0     C54683   1.911   7.215   8.889  0.5110  0.3378  0.3431
  397MOL0     O54684   1.809   7.119   8.868 -0.7253 -0.3577 -1.1380
  397MOL0     C54685   1.807   7.073   8.726 -0.0512  0.4247 -0.2041
  397MOL0     C54686   1.737   6.944   8.707  0.4203 -0.1350  1.0328
  397MOL0     C54687   1.798   6.837   8.802 -0.4332 -0.0386 -0.1082
  397MOL0     C54688   1.722   6.701   8.788 -1.4784 -0.9145 -0.7280
  397MOL0     C54689   1.793   6.589   8.858 -0.7226  0.0675 -1.3065
  397MOL0     C54690   1.907   6.527   8.769  0.3263  0.0466 -0.0261
  397MOL0     C54691   1.964   6.403   8.842  0.0869  0.9400  0.1121
  397MOL0     C54692   2.096   6.355   8.780 -0.2340  0.4837 -0.3041
  397MOL0    Cl54693   2.237   6.461   8.832 -0.2217 -0.1544 -0.2837
  397MOL0     C54694   1.958   7.221   9.015  0.1858 -0.7130  0.3148
  397MOL0     C54695   2.045   7.323   9.059  0.3740 -0.8937  0.1437
  397MOL0     O54696   1.972   7.668   9.042  0.2914 -0.2156 -0.1171
  397MOL0     C54697   2.282   7.689   9.210 -0.1538 -0.7717  0.7717
  397MOL0     C54698   2.345   7.779   9.302 -0.0598 -0.0776 -0.0849
  397MOL0     N54699   2.603   8.353   9.061  0.6036  0.8823 -0.6624
  397MOL0     N54700   2.707   8.386   8.993 -1.1791 -0.1971 -0.1676
  397MOL0     C54701   2.559   8.850   8.093  0.0490  0.0374  0.3639
  397MOL0     C54702   2.553   8.769   7.977 -0.2708  0.4363 -0.0637
  397MOL0     C54703   2.633   8.374   7.742 -0.7218 -0.2815 -0.1380
  397MOL0     C54704   2.615   8.436   7.619  0.1242 -0.3703  0.3105
  397MOL0     C54705   2.593   8.360   7.503  0.5448 -0.1686  0.2745
  397MOL0     C54706   2.597   8.220   7.501  0.3052 -0.4242  0.9870
  397MOL0     O54707   2.586   8.154   7.379  0.0951 -0.3643  0.5918
  397MOL0     C54708   2.468   8.079   7.363 -0.4907 -1.4913 -0.9483
  397MOL0     C54709   2.343   8.173   7.341  0.3531  0.2986 -0.2314
  397MOL0     C54710   2.217   8.099   7.386 -0.2941  0.4847 -0.6543
  397MOL0     C54711   2.082   8.169   7.367 -0.4540 -0.1132  0.0036
  397MOL0     C54712   2.081   8.261   7.257  0.2023 -0.4983 -0.1257
  397MOL0     C54713   2.077   8.341   7.170 -0.0431 -0.8177 -0.7888
  397MOL0     C54714   2.613   8.162   7.618  0.2948 -0.0086 -0.8106
  397MOL0     C54715   2.626   8.232   7.739  0.7302 -0.8181  0.2229
  397MOL0     C54716   2.638   8.162   7.874 -0.1211  0.2598  0.5674
  397MOL0     H54717   2.583   8.461   8.139  2.6349 -0.2511  0.3125
  397MOL0     H54718   2.590   8.633   8.333 -1.4039  2.5113  0.7964
  397MOL0     H54719   2.365   8.816   8.347  0.8742 -0.1643 -1.5292
  397MOL0     H54720   2.387   8.983   8.352  1.5849  1.0301 -0.0730
  397MOL0     H54721   2.478   8.994   8.565  1.3531 -0.2848  0.8983
  397MOL0     H54722   2.337   8.890   8.561  0.7404  2.1133  3.2086
  397MOL0     H54723   2.486   8.686   8.563 -2.4791  0.3219 -0.8690
  397MOL0     H54724   2.622   8.796   8.561 -0.2366  3.3810  0.4294
  397MOL0     H54725   2.537   8.894   8.785  2.2155 -1.4483  2.4098
  397MOL0     H54726   2.403   8.768   8.766 -0.7005 -0.4080 -3.6639
  397MOL0     H54727   2.592   8.606   8.738  0.0189  0.8046  0.5924
  397MOL0     H54728   2.571   8.653   8.901  0.7514 -1.4911 -0.5519
  397MOL0     H54729   2.769   8.779   8.708 -4.0967 -2.6968 -3.0603
  397MOL0     H54730   2.759   8.819   8.880 -0.0913  0.4144 -0.2078
  397MOL0     H54731   2.939   8.663   8.813 -0.7094  1.5494  1.3088
  397MOL0     H54732   2.814   8.536   8.773  0.9257  0.2401 -1.3599
  397MOL0     H54733   2.970   8.526   8.976  1.7461  2.6098  1.6671
  397MOL0     H54734   2.891   8.662   9.051  1.1635 -0.0146 -0.2774
  397MOL0     H54735   2.691   8.616   9.217  4.6750  0.0064 -0.5268
  397MOL0     H54736   2.390   8.474   9.237 -1.4204  0.1107 -0.2582
  397MOL0     H54737   2.507   8.467   9.368 -0.1409 -3.6973  1.5008
  397MOL0     H54738   2.346   8.271   9.354 -1.5630  0.4918 -1.1533
  397MOL0     H54739   2.412   8.226   9.206  0.1026  2.3584 -1.0812
  397MOL0     H54740   2.637   8.218   9.311  0.1204  0.1440  0.8507
  397MOL0     H54741   2.573   8.224   9.474 -0.3654 -3.5139  0.5779
  397MOL0     H54742   2.506   8.023   9.246 -2.5026 -0.4431  1.1480
  397MOL0     H54743   2.602   7.992   9.390  3.1326  0.1924 -3.7376
  397MOL0     H54744   2.198   8.071   9.244  2.1865  1.2032 -3.1476
  397MOL0     H54745   1.924   7.893   9.114 -0.3325  1.3712  2.9938
  397MOL0     H54746   2.033   7.966   8.986  0.9004 -0.7140  0.3165
  397MOL0     H54747   1.991   8.042   9.152  2.4037  1.0571 -0.2142
  397MOL0     H54748   2.034   7.508   8.763 -1.8961  0.5043 -1.1285
  397MOL0     H54749   1.905   7.315   8.687 -1.8011 -1.6585 -0.7054
  397MOL0     H54750   1.761   7.144   8.656  0.8273 -1.0715 -2.3915
  397MOL0     H54751   1.907   7.056   8.686  0.7605  2.0778  1.0071
  397MOL0     H54752   1.634   6.965   8.739  0.2207 -1.2364  1.1590
  397MOL0     H54753   1.737   6.913   8.602  0.5872  1.7944  0.4159
  397MOL0     H54754   1.811   6.873   8.905 -0.3659  3.9515 -1.3293
  397MOL0     H54755   1.904   6.826   8.779  0.0854  2.6154  0.6190
  397MOL0     H54756   1.707   6.676   8.682  2.4933 -1.5863 -1.2679
  397MOL0     H54757   1.622   6.702   8.834 -1.2685 -1.8804 -0.2218
  397MOL0     H54758   1.846   6.634   8.943 -0.6336  1.6951 -2.1739
  397MOL0     H54759   1.721   6.511   8.882  2.5974 -2.7879  0.2436
  397MOL0     H54760   1.971   6.611   8.739 -0.5842  0.9283  0.4282
  397MOL0     H54761   1.873   6.497   8.669  0.0257 -1.4181  0.4961
  397MOL0     H54762   1.887   6.326   8.855  2.3887 -1.8216 -1.3519
  397MOL0     H54763   2.001   6.453   8.932  1.2035  0.5339 -0.0972
  397MOL0     H54764   2.087   6.366   8.671 -0.2316 -0.0771 -0.3616
  397MOL0     H54765   2.123   6.252   8.803  0.4941  0.9874  1.1961
  397MOL0     H54766   1.926   7.155   9.095  0.0575  0.8105  1.5800
  397MOL0     H54767   2.092   7.326   9.157  1.4935  0.1235 -0.4148
  397MOL0     H54768   2.326   7.590   9.204  2.4040  0.3781 -1.6474
  397MOL0     H54769   2.429   7.736   9.357 -0.6867  2.3451  3.0530
  397MOL0     H54770   2.546   8.957   8.082 -0.7454 -0.0516  0.4014
  397MOL0     H54771   2.536   8.805   7.876 -1.8245  0.1693  0.0826
  397MOL0     H54772   2.635   8.542   7.622 -2.1302  0.0881  1.7448
  397MOL0     H54773   2.579   8.423   7.416 -0.7807 -1.2724 -0.3588
  397MOL0     H54774   2.487   8.006   7.284  0.0582 -0.8820 -1.3888
  397MOL0     H54775   2.463   8.013   7.450 -3.3191 -2.7291 -1.9387
  397MOL0     H54776   2.341   8.205   7.237 -1.9452 -0.9259 -0.6407
  397MOL0     H54777   2.356   8.265   7.399  0.4258 -0.1922  0.5425
  397MOL0     H54778   2.211   8.014   7.318 -1.5281 -1.3229  1.5863
  397MOL0     H54779   2.222   8.072   7.491 -1.2058  0.2342 -0.6715
  397MOL0     H54780   2.062   8.228   7.457 -0.2766  2.3897 -1.4978
  397MOL0     H54781   1.998   8.101   7.350  0.0491 -0.6907 -0.2095
  397MOL0     H54782   2.082   8.415   7.092 -1.8353 -0.2035 -0.3696
  397MOL0     H54783   2.598   8.054   7.628  0.4658  0.1005  0.8783
  397MOL0     H54784   2.740   8.152   7.913 -0.8686 -4.1874  1.9508
  397MOL0     H54785   2.572   8.201   7.951  1.4245  0.6421  1.7632
  397MOL0     H54786   2.613   8.056   7.862  1.7080 -0.2036  0.3988
  398MOL0     O54787   9.532   0.008  11.173 -0.1014  0.1732  1.2652
  398MOL0     C54788   9.467   0.001  11.072  0.2549  0.0475  0.1198
  398MOL0     O54789   9.417   0.105  11.009  0.0542 -0.8654 -0.2881
  398MOL0     C54790   9.407   0.220  11.075  0.7268 -0.0651 -0.0074
  398MOL0     C54791   9.505   0.296  11.117 -0.6721  0.4730  0.2787
  398MOL0     C54792   9.485   0.432  11.154  0.6406 -0.1486  0.0300
  398MOL0     C54793   9.359   0.485  11.157  0.2497  0.1625  0.5669
  398MOL0     O54794   9.335   0.611  11.184 -0.1126 -0.6214  0.3094
  398MOL0     C54795   9.271   0.647  11.310 -0.2572  0.0954  0.2203
  398MOL0     C54796   9.327   0.774  11.377  0.0689  0.2057 -0.5074
  398MOL0     C54797   9.481   0.785  11.391  0.6620 -0.7075  0.8853
  398MOL0     C54798   9.520   0.916  11.468  1.0689  0.7958  0.0225
  398MOL0     C54799   9.664   0.952  11.470 -0.5067  0.4354  0.2585
  398MOL0     C54800   9.693   1.068  11.559 -0.1398 -0.3680 -0.4133
  398MOL0     C54801   9.846   1.090  11.591  0.2490  0.4214  0.2593
  398MOL0     C54802   9.846   1.181  11.716 -0.0125 -0.6575  0.1006
  398MOL0     N54803   9.802   1.122  11.833  0.1555  0.7396 -0.4998
  398MOL0     C54804   9.868   1.025  11.897 -0.1525 -0.0377 -0.4836
  398MOL0     C54805   9.783   0.980  11.994  0.2394 -0.5112 -0.0061
  398MOL0     C54806   9.794   0.875  12.096  0.2962 -1.5379 -0.4120
  398MOL0     C54807   9.694   0.769  12.064 -0.1740 -0.1466 -0.3198
  398MOL0     C54808   9.748   0.632  12.090 -0.5006 -0.4775 -0.5636
  398MOL0     C54809   9.630   0.534  12.066 -0.2718  0.3652 -0.1569
  398MOL0     O54810   9.675   0.404  12.102  0.4680  0.2301  0.1909
  398MOL0     C54811   9.738   0.372  12.221 -0.7100  0.3730 -0.1095
  398MOL0     C54812   9.705   0.428  12.344 -0.2037  0.2518  0.2723
  398MOL0     C54813   9.765   0.394  12.466 -0.7514  0.0036 -0.0349
  398MOL0     C54814   9.726   0.465  12.589  0.3961  0.2676 -1.7604
  398MOL0     C54815   9.868   0.292  12.465 -0.9395  0.1247 -0.5609
  398MOL0     C54816   9.946   0.247  12.581 -0.7897 -0.5241 -0.8780
  398MOL0     O54817   9.990   0.117  12.577  0.2682 -0.5100 -0.0725
  398MOL0     C54818  10.057   0.076  12.681 -0.3084  0.0464  0.3232
  398MOL0     C54819  10.183   0.049  12.661 -0.4510  0.5045  0.2810
  398MOL0     C54820  10.270   0.008  12.765 -0.2634  0.4573  0.4419
  398MOL0     C54821  10.211  -0.026  12.893  0.0233 -0.5620 -0.3877
  398MOL0     O54822  10.280  -0.079  12.996  0.0854  1.0780  0.0717
  398MOL0     C54823  10.418  -0.097  12.992  0.0827 -0.8368 -0.1406
  398MOL0     C54824  10.475  -0.182  13.101 -0.5603 -0.5123 -0.2844
  398MOL0     C54825  10.438  -0.335  13.105  0.1295  0.1342  0.2287
  398MOL0     C54826  10.283  -0.357  13.132  0.4233 -0.5082  0.0376
  398MOL0     C54827  10.258  -0.505  13.112  0.4778  0.1609 -0.1506
  398MOL0     C54828  10.107  -0.528  13.123  0.4160  0.6473 -0.0505
  398MOL0     C54829  10.063  -0.673  13.090 -0.1391  0.2993 -0.4919
  398MOL0     C54830   9.915  -0.706  13.049 -0.5265 -0.9382  1.0034
  398MOL0    Cl54831   9.904  -0.700  12.869  0.1599  0.0854  0.2551
  398MOL0     C54832  10.083   0.000  12.915  0.1448  0.3808  0.6678
  398MOL0     C54833  10.004   0.057  12.810  0.7493 -0.0762  0.6060
  398MOL0     O54834   9.976   0.325  12.670  0.7797  0.3650 -0.5117
  398MOL0     C54835   9.905   0.242  12.332 -0.5849  0.6601 -0.0498
  398MOL0     C54836   9.842   0.283  12.214  0.1954  0.0616 -0.2730
  398MOL0     N54837   9.683   1.076  11.992  0.4593  0.2308 -0.0231
  398MOL0     N54838   9.693   1.157  11.902 -0.1277  0.2290  0.3501
  398MOL0     C54839   9.256   0.402  11.109  0.9094 -0.7704  0.4589
  398MOL0     C54840   9.280   0.269  11.083  0.3776  0.0020 -0.6859
  398MOL0     C54841   9.435  -0.137  11.006  0.5447 -0.5522 -0.0887
  398MOL0     C54842   9.391  -0.130  10.865 -0.0571  0.4123 -0.0725
  398MOL0     C54843   9.355  -0.245  10.799 -0.5443  0.2435  0.3402
  398MOL0     C54844   9.350  -0.364  10.871 -0.5944  0.2892  0.8640
  398MOL0     O54845   9.327  -0.490  10.810  0.7650 -0.2529 -0.3448
  398MOL0     C54846   9.241  -0.499  10.696 -0.3370 -0.1287  0.9401
  398MOL0     C54847   9.094  -0.467  10.736 -0.3942 -0.4342 -0.3562
  398MOL0     C54848   9.054  -0.554  10.863  0.0484 -0.1527  1.1044
  398MOL0     C54849   8.906  -0.548  10.906 -0.0318 -0.3112  0.0573
  398MOL0     C54850   8.880  -0.637  11.015 -0.5670 -0.8941 -0.2278
  398MOL0     C54851   8.857  -0.716  11.100 -0.4934 -0.0364 -0.4621
  398MOL0     C54852   9.400  -0.376  11.000 -0.1897  0.3242 -0.0729
  398MOL0     C54853   9.441  -0.258  11.070 -0.3124 -0.0276  1.2801
  398MOL0     C54854   9.448  -0.264  11.218 -0.0352 -0.2554 -0.1757
  398MOL0     H54855   9.601   0.245  11.126 -2.6122 -3.4894  0.9449
  398MOL0     H54856   9.572   0.494  11.173 -1.0920  2.0036  1.3017
  398MOL0     H54857   9.288   0.556  11.368  0.1307 -0.9153 -1.4177
  398MOL0     H54858   9.165   0.672  11.295  0.0610  1.3889 -0.0270
  398MOL0     H54859   9.289   0.857  11.317 -0.7771  0.6767  0.6601
  398MOL0     H54860   9.272   0.776  11.471  0.4079 -0.3492 -0.2956
  398MOL0     H54861   9.520   0.699  11.446 -1.4788 -3.0989 -1.0800
  398MOL0     H54862   9.533   0.796  11.296 -5.1553 -0.9077 -2.7907
  398MOL0     H54863   9.457   0.990  11.419 -0.0510 -1.5799 -2.4119
  398MOL0     H54864   9.499   0.901  11.574  0.0166  1.6675 -0.0474
  398MOL0     H54865   9.698   0.968  11.368  0.7549  2.8751  0.9817
  398MOL0     H54866   9.708   0.861  11.514 -2.9697 -1.2013 -0.4310
  398MOL0     H54867   9.652   1.161  11.518  1.4062  0.3900 -0.3135
  398MOL0     H54868   9.648   1.043  11.655 -1.5344  2.4766 -0.2184
  398MOL0     H54869   9.891   1.137  11.504 -2.6662 -0.9234 -2.1865
  398MOL0     H54870   9.888   0.991  11.613 -0.5428 -0.7082 -2.8622
  398MOL0     H54871   9.943   1.231  11.722 -0.1531 -0.4068  0.3245
  398MOL0     H54872   9.780   1.265  11.695  1.0096  0.1635  0.1170
  398MOL0     H54873   9.963   0.987  11.860  0.3441  0.3412  0.3860
  398MOL0     H54874   9.772   0.905  12.199  0.3248 -0.5453 -0.6895
  398MOL0     H54875   9.899   0.843  12.096  0.5846 -0.7373 -2.3194
  398MOL0     H54876   9.600   0.775  12.121 -1.2316 -2.2280 -1.6927
  398MOL0     H54877   9.656   0.760  11.962 -0.1980 -1.1463 -0.2354
  398MOL0     H54878   9.833   0.610  12.025  1.6058 -1.8781  2.4131
  398MOL0     H54879   9.799   0.628  12.187 -0.8408  0.8187 -0.3201
  398MOL0     H54880   9.541   0.564  12.122  1.2254  5.9680 -0.1727
  398MOL0     H54881   9.608   0.535  11.959 -1.3486 -0.4699  0.0417
  398MOL0     H54882   9.621   0.496  12.334 -0.4595  0.3225  2.3906
  398MOL0     H54883   9.780   0.558  12.609  1.7314 -1.2142  2.6764
  398MOL0     H54884   9.733   0.400  12.677  2.3538  0.6373 -1.5989
  398MOL0     H54885   9.620   0.488  12.583  0.3229  0.8516  0.7699
  398MOL0     H54886  10.226   0.091  12.570 -1.9499  2.8818  0.5530
  398MOL0     H54887  10.376  -0.005  12.750 -0.3552 -2.7932  1.8949
  398MOL0     H54888  10.446  -0.142  12.896  2.7091 -1.1777  0.7056
  398MOL0     H54889  10.464   0.002  13.001  1.1424 -1.2772 -0.5409
  398MOL0     H54890  10.585  -0.175  13.098 -0.6258  2.0707  0.6098
  398MOL0     H54891  10.441  -0.137  13.195  1.5975  1.6675 -0.4148
  398MOL0     H54892  10.495  -0.379  13.187  1.7073  2.5141  0.5084
  398MOL0     H54893  10.472  -0.388  13.016  1.9772  1.6931 -0.0626
  398MOL0     H54894  10.213  -0.306  13.064 -2.3751 -1.9067  1.6937
  398MOL0     H54895  10.262  -0.314  13.230  0.7637 -0.4843  0.1027
  398MOL0     H54896  10.299  -0.552  13.021  1.4648 -0.1853  0.4614
  398MOL0     H54897  10.307  -0.557  13.194 -2.4751 -2.0355  0.4253
  398MOL0     H54898  10.062  -0.465  13.046  0.2402 -1.3259 -1.6198
  398MOL0     H54899  10.077  -0.487  13.221 -0.4572  0.7312 -0.3433
  398MOL0     H54900  10.073  -0.744  13.172 -1.2564  0.9605  0.2553
  398MOL0     H54901  10.136  -0.711  13.019 -1.4281 -1.2892 -1.0369
  398MOL0     H54902   9.846  -0.638  13.100 -1.8452 -2.6652  1.5865
  398MOL0     H54903   9.887  -0.807  13.077  4.4994 -2.6253  1.0473
  398MOL0     H54904  10.033  -0.030  13.007  0.5118  0.2168  0.8141
  398MOL0     H54905   9.906   0.097  12.833  0.6809  0.8310 -1.1537
  398MOL0     H54906   9.981   0.165  12.330 -0.5462  0.6862 -2.8489
  398MOL0     H54907   9.873   0.238  12.120 -0.6654  0.4263 -0.7401
  398MOL0     H54908   9.156   0.442  11.096  0.8726 -1.3727 -1.2917
  398MOL0     H54909   9.211   0.197  11.041  2.1374 -0.9871 -1.9994
  398MOL0     H54910   9.401  -0.042  10.803  1.8076  0.1410 -0.2103
  398MOL0     H54911   9.338  -0.249  10.692 -0.5129  1.9059  0.2448
  398MOL0     H54912   9.271  -0.422  10.625  3.8332 -2.4998 -0.2570
  398MOL0     H54913   9.243  -0.599  10.650 -4.8442 -0.1104  0.3085
  398MOL0     H54914   9.041  -0.484  10.642  0.4867 -2.9712 -0.4592
  398MOL0     H54915   9.087  -0.360  10.758 -0.2564 -0.9610  2.6879
  398MOL0     H54916   9.069  -0.659  10.837 -0.3070 -0.2611  1.3254
  398MOL0     H54917   9.129  -0.530  10.939  2.2818  1.0083 -1.2889
  398MOL0     H54918   8.848  -0.587  10.822  0.5569  3.7404 -2.5100
  398MOL0     H54919   8.886  -0.445  10.936  2.3209  0.1691  0.1413
  398MOL0     H54920   8.817  -0.793  11.163 -0.3602  0.5334  0.3427
  398MOL0     H54921   9.392  -0.471  11.052 -1.3654  0.4102 -0.0805
  398MOL0     H54922   9.552  -0.262  11.252  0.8082  0.1825 -2.5863
  398MOL0     H54923   9.398  -0.177  11.262  0.0179 -0.2536 -0.1186
  398MOL0     H54924   9.389  -0.346  11.261 -3.2243  0.9540 -1.9196
  399MOL0     O54925   0.951   9.265   4.842 -0.1148  0.3513  0.2571
  399MOL0     C54926   0.890   9.183   4.909  0.2233 -0.3493  0.5868
  399MOL0     O54927   0.778   9.210   4.987 -0.7203 -0.0816 -0.5768
  399MOL0     C54928   0.718   9.334   4.996 -0.4986  0.2753  0.0415
  399MOL0     C54929   0.711   9.423   4.893 -0.4442 -0.9693  0.3174
  399MOL0     C54930   0.647   9.541   4.910 -0.3785 -0.0185  0.4596
  399MOL0     C54931   0.620   9.583   5.038  0.4174  0.4300  1.0855
  399MOL0     O54932   0.562   9.704   5.069 -0.6801 -0.6067 -0.2805
  399MOL0     C54933   0.439   9.738   5.002  0.0413  0.0748  0.0833
  399MOL0     C54934   0.371   9.871   5.041 -0.3530  1.0459  0.4191
  399MOL0     C54935   0.272   9.862   5.161  0.3430  0.9716 -0.3692
  399MOL0     C54936   0.209  10.005   5.191  0.0118  0.0459 -0.4743
  399MOL0     C54937   0.086   9.995   5.286  0.2159 -0.1218  0.1287
  399MOL0     C54938   0.007  10.130   5.305  0.1931  0.4476 -0.6428
  399MOL0     C54939  -0.101  10.118   5.418  0.3947  1.0697 -0.0864
  399MOL0     C54940  -0.234  10.047   5.369 -0.0619  0.0959 -0.6478
  399MOL0     N54941  -0.325  10.138   5.294 -0.2508 -0.4696  0.2600
  399MOL0     C54942  -0.401  10.232   5.353  0.6068 -0.6305 -0.2931
  399MOL0     C54943  -0.485  10.284   5.261  0.1443 -0.1153  0.5995
  399MOL0     C54944  -0.585  10.389   5.260 -0.3552 -0.2097  0.4843
  399MOL0     C54945  -0.672  10.406   5.389 -0.0298 -0.6185 -0.4103
  399MOL0     C54946  -0.779  10.305   5.430  0.4006  0.4850 -0.1923
  399MOL0     C54947  -0.714  10.171   5.476 -0.2945 -0.0252 -0.8133
  399MOL0     O54948  -0.650  10.182   5.607  0.6954 -0.1766 -0.0354
  399MOL0     C54949  -0.550  10.103   5.651 -0.1807 -1.1263  0.3856
  399MOL0     C54950  -0.439  10.159   5.715 -0.4727  0.0894  0.0744
  399MOL0     C54951  -0.323  10.084   5.744  0.0909 -0.5734 -0.3707
  399MOL0     C54952  -0.209  10.151   5.821  0.4172 -0.1498  0.6090
  399MOL0     C54953  -0.324   9.948   5.710  0.2741  0.3358 -0.1819
  399MOL0     C54954  -0.209   9.856   5.741  0.1555 -0.0097 -0.3079
  399MOL0     O54955  -0.151   9.867   5.872 -0.2385 -0.2211 -0.4596
  399MOL0     C54956  -0.037   9.798   5.916 -0.4532 -1.0288 -0.3955
  399MOL0     C54957   0.057   9.729   5.834  0.3475 -0.2744 -0.1770
  399MOL0     C54958   0.143   9.636   5.893  0.1830  0.3784 -0.6051
  399MOL0     C54959   0.139   9.603   6.029 -0.3364 -0.3068 -0.3966
  399MOL0     O54960   0.225   9.508   6.069  0.1055  0.0563  0.1232
  399MOL0     C54961   0.169   9.379   6.111 -0.6163  0.9676  0.6794
  399MOL0     C54962   0.117   9.288   5.995  0.0334 -0.1234  0.3846
  399MOL0     C54963   0.085   9.144   6.036  0.4670  0.6576 -1.0489
  399MOL0     C54964   0.203   9.060   6.084 -0.8585 -0.6509 -0.3523
  399MOL0     C54965   0.171   8.910   6.075  0.0099  0.6896  0.0190
  399MOL0     C54966   0.052   8.850   6.165  0.0161 -0.1707 -0.1759
  399MOL0     C54967   0.054   8.885   6.322  0.8761  0.1769  0.4557
  399MOL0     C54968   0.180   8.836   6.386 -0.5263  0.5940  0.1100
  399MOL0    Cl54969   0.174   8.859   6.562  0.0433  0.0711 -0.0196
  399MOL0     C54970   0.051   9.676   6.108  0.0518 -0.2748 -0.1112
  399MOL0     C54971  -0.037   9.769   6.049 -1.0187 -0.8993 -0.5671
  399MOL0     O54972  -0.177   9.774   5.654  0.4578 -0.7125  0.4459
  399MOL0     C54973  -0.431   9.894   5.639  0.8140 -0.4104 -0.6047
  399MOL0     C54974  -0.542   9.971   5.623  0.5107  1.1112  0.2989
  399MOL0     N54975  -0.464  10.212   5.140  0.7725  0.5616 -0.3678
  399MOL0     N54976  -0.360  10.127   5.155 -0.2325 -0.4900  0.1339
  399MOL0     C54977   0.629   9.494   5.147 -0.4494 -0.0840  0.5630
  399MOL0     C54978   0.677   9.369   5.125 -0.0944 -0.0174  0.7857
  399MOL0     C54979   0.925   9.036   4.910  0.1252 -0.4923 -0.7825
  399MOL0     C54980   0.956   8.978   4.785  0.2993 -0.1435  0.3406
  399MOL0     C54981   0.980   8.844   4.764  0.0457 -0.2457 -0.6219
  399MOL0     C54982   1.005   8.768   4.879 -0.3072 -0.3523 -0.7167
  399MOL0     O54983   1.023   8.636   4.862 -0.5801  0.1929  0.2932
  399MOL0     C54984   1.132   8.580   4.944 -0.3952 -0.0467 -0.8623
  399MOL0     C54985   1.255   8.571   4.867  0.3339  0.3781 -0.9518
  399MOL0     C54986   1.354   8.469   4.922  0.7093 -0.4225  0.3558
  399MOL0     C54987   1.480   8.492   4.833 -0.3052 -0.5055  0.1008
  399MOL0     C54988   1.557   8.380   4.791 -0.6766 -0.5711 -1.3598
  399MOL0     C54989   1.609   8.275   4.756  0.7079  0.5570 -0.3279
  399MOL0     C54990   0.964   8.824   5.012  0.2495  0.6398 -0.1482
  399MOL0     C54991   0.926   8.958   5.028  0.1839  0.1840 -0.5673
  399MOL0     C54992   0.881   9.006   5.164 -0.4757  0.0801 -0.2230
  399MOL0     H54993   0.748   9.390   4.797 -0.4434 -0.3421  0.1024
  399MOL0     H54994   0.612   9.596   4.824 -2.1931  0.0633  1.2082
  399MOL0     H54995   0.361   9.661   5.012 -0.4516  0.6684  0.8735
  399MOL0     H54996   0.458   9.743   4.894  1.4730  3.2147  0.3945
  399MOL0     H54997   0.455   9.940   5.052 -0.8923  1.5738  1.3405
  399MOL0     H54998   0.307   9.892   4.955  2.8422  0.0496 -2.4164
  399MOL0     H54999   0.197   9.783   5.147  0.5258  0.8427 -0.6179
  399MOL0     H55000   0.333   9.839   5.249  2.2400  0.1459 -1.8377
  399MOL0     H55001   0.278  10.082   5.225 -1.4886  0.7643  1.0753
  399MOL0     H55002   0.153  10.026   5.099 -2.4043  0.7714  1.0596
  399MOL0     H55003   0.116   9.959   5.385  1.9697  3.1317  0.9445
  399MOL0     H55004   0.012   9.927   5.244 -2.8679  2.4865  0.9928
  399MOL0     H55005   0.080  10.203   5.340 -0.0221  0.2325  0.2742
  399MOL0     H55006  -0.053  10.144   5.215  0.0760 -3.2648 -1.3044
  399MOL0     H55007  -0.122  10.218   5.458 -2.3830  0.8115 -0.6430
  399MOL0     H55008  -0.057  10.060   5.499 -0.2458  0.9089  0.1525
  399MOL0     H55009  -0.207   9.969   5.297 -3.0728 -1.3932 -0.3000
  399MOL0     H55010  -0.283   9.999   5.454  1.0731  1.0893  0.6171
  399MOL0     H55011  -0.391  10.269   5.455  0.7003 -1.8709  0.1730
  399MOL0     H55012  -0.654  10.389   5.175 -0.2015  0.3361  0.3582
  399MOL0     H55013  -0.534  10.484   5.246 -3.1229  0.8849 -4.3122
  399MOL0     H55014  -0.612  10.418   5.480 -0.8266 -1.5834  0.2587
  399MOL0     H55015  -0.726  10.499   5.370 -0.9028 -1.2848 -1.3161
  399MOL0     H55016  -0.843  10.338   5.512  1.4827  2.0923  0.0375
  399MOL0     H55017  -0.840  10.285   5.341  0.2731 -2.9307  0.5092
  399MOL0     H55018  -0.798  10.103   5.489 -1.6967  2.0579  2.3248
  399MOL0     H55019  -0.646  10.142   5.395  0.2789  1.4728 -0.9081
  399MOL0     H55020  -0.441  10.262   5.747  5.6580  0.2981  0.9469
  399MOL0     H55021  -0.196  10.256   5.790 -2.5315  0.3059  0.6266
  399MOL0     H55022  -0.114  10.101   5.800  0.6434  1.0407 -1.4113
  399MOL0     H55023  -0.219  10.142   5.930  1.3754  0.4171  0.7555
  399MOL0     H55024   0.066   9.740   5.727 -1.4910 -0.2148 -0.3422
  399MOL0     H55025   0.195   9.576   5.819  0.4904  0.9730 -0.8749
  399MOL0     H55026   0.254   9.317   6.139  2.8580  3.8461 -2.4069
  399MOL0     H55027   0.101   9.383   6.196  2.1622  1.1889  3.0540
  399MOL0     H55028   0.027   9.321   5.942 -1.9303 -2.3124  2.1274
  399MOL0     H55029   0.192   9.292   5.915  1.5851 -0.6936  1.7370
  399MOL0     H55030   0.038   9.097   5.949  4.1769  0.5789 -3.2130
  399MOL0     H55031   0.008   9.137   6.113  0.8538  1.7093 -0.5504
  399MOL0     H55032   0.235   9.081   6.187  2.2164 -0.4489 -1.2507
  399MOL0     H55033   0.288   9.087   6.022  0.2313 -0.8971  0.9852
  399MOL0     H55034   0.143   8.885   5.972  2.1988  1.0134 -0.7053
  399MOL0     H55035   0.265   8.857   6.091 -1.4944 -1.7014  1.5910
  399MOL0     H55036   0.041   8.741   6.167 -1.1359 -0.0607  1.8980
  399MOL0     H55037  -0.035   8.904   6.128 -1.0169 -1.1828  0.7040
  399MOL0     H55038  -0.023   8.824   6.370  1.1198 -1.4531 -1.1090
  399MOL0     H55039   0.032   8.991   6.339 -3.6610 -0.5309  0.1973
  399MOL0     H55040   0.260   8.901   6.349  2.2151 -1.1886  2.4205
  399MOL0     H55041   0.203   8.736   6.348  3.6537  0.5668  2.1229
  399MOL0     H55042   0.047   9.657   6.215  2.3340 -0.1165  0.0327
  399MOL0     H55043  -0.105   9.814   6.120 -1.2527 -2.4950  0.2614
  399MOL0     H55044  -0.438   9.793   5.600  1.6856  0.5154 -3.4393
  399MOL0     H55045  -0.630   9.944   5.565  1.3193 -0.8708 -0.1001
  399MOL0     H55046   0.582   9.518   5.242 -2.6571  0.3246 -0.5695
  399MOL0     H55047   0.690   9.293   5.202  0.2080  0.3370  1.0905
  399MOL0     H55048   0.954   9.049   4.703  1.6203 -0.1442  0.2918
  399MOL0     H55049   0.996   8.800   4.666  3.7344  0.0474 -0.2653
  399MOL0     H55050   1.147   8.653   5.024 -1.4274  0.7261 -1.3391
  399MOL0     H55051   1.097   8.490   4.994  0.5008  0.4703  0.7689
  399MOL0     H55052   1.286   8.675   4.855 -0.1341  0.5526 -0.6895
  399MOL0     H55053   1.238   8.535   4.765  2.1498  0.8192 -1.4363
  399MOL0     H55054   1.386   8.489   5.025  1.3293 -0.9477  0.2764
  399MOL0     H55055   1.310   8.369   4.914 -3.7594  1.3992 -0.2285
  399MOL0     H55056   1.549   8.558   4.886  0.4450  0.8147 -2.3417
  399MOL0     H55057   1.454   8.538   4.737 -0.2571 -0.4226  0.1279
  399MOL0     H55058   1.648   8.178   4.731 -0.2417  0.2393 -0.6222
  399MOL0     H55059   0.953   8.752   5.092  1.3990 -0.2381 -0.7442
  399MOL0     H55060   0.907   8.928   5.237  1.2344 -0.0801 -0.9658
  399MOL0     H55061   0.929   9.100   5.190 -0.9130 -0.1500  1.5522
  399MOL0     H55062   0.772   9.012   5.155 -0.7555  2.0382  2.8550
  400MOL0     O55063  10.659   7.775   8.243 -0.5316 -0.2873  0.4356
  400MOL0     C55064  10.662   7.882   8.178  0.1988 -0.6074 -0.2359
  400MOL0     O55065  10.746   7.914   8.077  0.0084  0.3959 -0.5295
  400MOL0     C55066  10.822   7.816   8.018 -0.0920  0.0695 -0.3943
  400MOL0     C55067  10.954   7.800   8.047 -0.7306 -0.1811  0.5649
  400MOL0     C55068  11.041   7.711   7.981 -0.9190  1.5373  0.6087
  400MOL0     C55069  10.980   7.612   7.909 -0.3122  0.1364 -0.3344
  400MOL0     O55070  11.050   7.498   7.880  0.7757 -0.0471  0.0257
  400MOL0     C55071  11.063   7.459   7.738  0.2002 -0.8815  0.0137
  400MOL0     C55072  11.137   7.321   7.740 -0.2744  0.3823 -0.5527
  400MOL0     C55073  11.171   7.263   7.597 -0.1405 -0.3745 -0.0396
  400MOL0     C55074  11.042   7.210   7.525 -0.0581 -1.2016 -0.2420
  400MOL0     C55075  11.000   7.072   7.572  0.3500  0.0129 -0.4125
  400MOL0     C55076  11.069   6.954   7.507 -0.6467  0.0721  0.1555
  400MOL0     C55077  11.062   6.939   7.353  0.5066 -0.8198  0.4794
  400MOL0     C55078  11.169   6.843   7.304  0.5841  0.5144  0.7521
  400MOL0     N55079  11.305   6.913   7.292 -0.1718  0.0733 -0.7476
  400MOL0     C55080  11.337   7.031   7.222  0.5306  0.4063  0.1475
  400MOL0     C55081  11.464   7.055   7.270 -0.5947 -0.0233 -0.7980
  400MOL0     C55082  11.551   7.171   7.235 -0.8726 -0.4938 -0.2223
  400MOL0     C55083  11.510   7.281   7.338  0.2642  0.5092 -0.0108
  400MOL0     C55084  11.565   7.417   7.305 -0.3813  0.8101 -0.2850
  400MOL0     C55085  11.519   7.532   7.393 -0.6335  0.6158  0.0131
  400MOL0     O55086  11.512   7.508   7.533  0.1330  0.7093  0.2878
  400MOL0     C55087  11.489   7.617   7.613 -0.2778  0.9145  0.9528
  400MOL0     C55088  11.382   7.699   7.588  0.6821 -0.2693 -0.0195
  400MOL0     C55089  11.333   7.797   7.684  0.1301  0.6148  0.2982
  400MOL0     C55090  11.203   7.865   7.658  0.7496 -0.3647  0.4907
  400MOL0     C55091  11.411   7.808   7.808  0.7926 -0.5174 -0.1483
  400MOL0     C55092  11.371   7.891   7.923  0.2185  0.3682 -0.3935
  400MOL0     O55093  11.465   7.911   8.017 -0.3614 -0.2578 -0.5020
  400MOL0     C55094  11.427   7.948   8.146  0.3510 -0.0167  1.0898
  400MOL0     C55095  11.460   8.071   8.189  0.2039  0.4234 -1.0801
  400MOL0     C55096  11.441   8.092   8.328 -0.2180 -0.6590  0.0188
  400MOL0     C55097  11.365   8.006   8.405 -0.9375 -0.0996  0.3155
  400MOL0     O55098  11.350   8.035   8.539  0.3989 -0.0699  0.0596
  400MOL0     C55099  11.401   7.939   8.633  0.5392  0.6099  0.2412
  400MOL0     C55100  11.463   8.026   8.744  0.8370 -1.0327 -0.4823
  400MOL0     C55101  11.615   8.061   8.732 -0.3079  0.0536 -0.2697
  400MOL0     C55102  11.671   8.120   8.862 -0.0179 -0.5170  0.1512
  400MOL0     C55103  11.815   8.075   8.884 -0.0248 -0.0235 -1.2686
  400MOL0     C55104  11.884   8.146   8.996  0.0001 -0.3297  0.0941
  400MOL0     C55105  11.797   8.237   9.098 -0.3097  0.1021  0.0730
  400MOL0     C55106  11.879   8.254   9.231  0.5391  0.2402  0.3896
  400MOL0    Cl55107  12.022   8.344   9.201 -0.2084 -0.1947  0.4087
  400MOL0     C55108  11.324   7.875   8.356 -0.6900 -0.0544  1.0421
  400MOL0     C55109  11.360   7.855   8.223  0.5297  0.0602  0.0741
  400MOL0     O55110  11.256   7.948   7.926 -0.1819 -0.2354 -0.5175
  400MOL0     C55111  11.530   7.734   7.818  0.4772 -0.2490  0.4475
  400MOL0     C55112  11.567   7.639   7.724  0.1958  0.0364 -0.8929
  400MOL0     N55113  11.508   6.952   7.353  0.0462  0.4153 -0.1843
  400MOL0     N55114  11.412   6.866   7.376  0.6463 -0.6967  0.4784
  400MOL0     C55115  10.842   7.612   7.874 -0.3590 -0.1830 -0.3486
  400MOL0     C55116  10.768   7.720   7.928 -0.3917 -0.2388 -0.3545
  400MOL0     C55117  10.573   7.994   8.222 -0.7619 -1.3261  0.6142
  400MOL0     C55118  10.617   8.125   8.190  0.5261 -0.5782 -0.2094
  400MOL0     C55119  10.545   8.235   8.243 -0.5328 -0.2322 -0.8409
  400MOL0     C55120  10.443   8.223   8.333 -0.7042 -0.2695  0.0675
  400MOL0     O55121  10.363   8.314   8.394 -0.0763 -0.2581 -0.3059
  400MOL0     C55122  10.309   8.418   8.313 -0.6178  0.5195  0.7521
  400MOL0     C55123  10.193   8.470   8.398 -0.0219  0.8213 -0.5462
  400MOL0     C55124  10.099   8.363   8.444  0.6494 -1.0876  0.2744
  400MOL0     C55125   9.964   8.420   8.481 -0.6962  0.1150 -0.1469
  400MOL0     C55126   9.894   8.462   8.357 -0.4274 -0.1167  0.0061
  400MOL0     C55127   9.846   8.500   8.251  0.6439 -0.5473 -0.6545
  400MOL0     C55128  10.405   8.094   8.366 -0.8097  0.1376 -0.0647
  400MOL0     C55129  10.466   7.978   8.311  0.1806  0.0869 -0.1763
  400MOL0     C55130  10.419   7.842   8.370 -0.4039  0.9389 -0.1517
  400MOL0     H55131  10.994   7.871   8.118 -1.5787  3.7595 -2.4959
  400MOL0     H55132  11.148   7.702   8.001 -0.6687  0.0950 -1.0907
  400MOL0     H55133  11.122   7.531   7.682 -1.4801 -0.9980 -2.0513
  400MOL0     H55134  10.970   7.442   7.683  0.1168 -1.9596  0.4592
  400MOL0     H55135  11.232   7.329   7.794 -1.3567 -2.4971  2.1268
  400MOL0     H55136  11.074   7.249   7.793 -2.9348  2.0312 -1.2792
  400MOL0     H55137  11.212   7.344   7.536  1.9071 -1.7032 -0.5660
  400MOL0     H55138  11.255   7.193   7.590  0.2039  0.1178 -1.3291
  400MOL0     H55139  10.961   7.283   7.533  0.1923 -0.9452 -0.0256
  400MOL0     H55140  11.063   7.197   7.419  3.3372 -0.0044  0.1820
  400MOL0     H55141  10.892   7.062   7.566  0.4441 -3.1709  0.9676
  400MOL0     H55142  11.015   7.064   7.680  1.6349  2.9961 -0.2580
  400MOL0     H55143  11.175   6.964   7.532  0.0207 -0.4427 -2.2225
  400MOL0     H55144  11.035   6.860   7.552 -1.4866 -0.5011 -1.5852
  400MOL0     H55145  11.063   7.033   7.298  3.4670 -0.0584  1.6568
  400MOL0     H55146  10.967   6.890   7.329 -0.7068  1.9734 -0.7549
  400MOL0     H55147  11.183   6.754   7.366 -0.7866 -0.0438  0.3126
  400MOL0     H55148  11.136   6.804   7.206 -0.8620 -2.4955  2.2890
  400MOL0     H55149  11.281   7.096   7.156 -1.1913 -2.3746 -1.3686
  400MOL0     H55150  11.536   7.208   7.133  2.4477  2.3718  0.1756
  400MOL0     H55151  11.653   7.136   7.251 -1.3410 -1.2002  1.4257
  400MOL0     H55152  11.401   7.290   7.329 -0.1995 -2.0544  1.8594
  400MOL0     H55153  11.549   7.257   7.437 -0.3612  1.8731  0.5868
  400MOL0     H55154  11.673   7.410   7.320 -0.4051  0.1131 -0.3906
  400MOL0     H55155  11.555   7.435   7.198  1.7363 -0.6057 -0.7868
  400MOL0     H55156  11.589   7.614   7.380 -0.4791  0.1881 -2.1606
  400MOL0     H55157  11.421   7.551   7.349 -0.4496 -1.7855 -1.5961
  400MOL0     H55158  11.321   7.695   7.498 -0.6133  3.9313  0.4731
  400MOL0     H55159  11.113   7.814   7.695  0.6134  0.1582  0.8844
  400MOL0     H55160  11.196   7.870   7.549  0.0145 -1.0066  0.4947
  400MOL0     H55161  11.206   7.970   7.687 -0.3648  0.2594 -1.4250
  400MOL0     H55162  11.508   8.151   8.134  3.5903  0.4959  1.5955
  400MOL0     H55163  11.470   8.185   8.377 -2.7848  1.0027 -1.3591
  400MOL0     H55164  11.315   7.884   8.673  1.2548 -0.9386 -0.2933
  400MOL0     H55165  11.475   7.874   8.586 -0.7154  0.1735 -1.2368
  400MOL0     H55166  11.406   8.115   8.772 -0.4645 -2.0018  0.0108
  400MOL0     H55167  11.469   7.963   8.833 -2.1002  0.1927  0.7171
  400MOL0     H55168  11.632   8.120   8.642  0.3360  1.4243  0.7246
  400MOL0     H55169  11.674   7.969   8.723  3.2605  2.1512 -0.0689
  400MOL0     H55170  11.615   8.090   8.951  0.5827  1.9560  1.4741
  400MOL0     H55171  11.665   8.229   8.858  1.5160 -0.4604 -2.8362
  400MOL0     H55172  11.822   7.968   8.906  1.6114 -0.0549 -1.7554
  400MOL0     H55173  11.866   8.098   8.790  0.1615  2.0307 -0.7128
  400MOL0     H55174  11.960   8.209   8.949  0.2033 -2.1483 -2.1515
  400MOL0     H55175  11.944   8.068   9.044 -0.1806 -0.3585  0.2747
  400MOL0     H55176  11.714   8.173   9.130  0.0352  0.2594  1.3265
  400MOL0     H55177  11.771   8.337   9.063  0.7953  0.2296 -0.4167
  400MOL0     H55178  11.910   8.156   9.269  1.3303  1.2281  2.4548
  400MOL0     H55179  11.827   8.322   9.298  0.7204  1.9084 -1.0991
  400MOL0     H55180  11.270   7.807   8.422  0.4018 -0.8264  1.1603
  400MOL0     H55181  11.331   7.759   8.180 -0.5163  0.1059  0.6300
  400MOL0     H55182  11.596   7.762   7.899  2.2954  1.3893 -1.4753
  400MOL0     H55183  11.646   7.565   7.729 -1.9050 -2.2292  0.4576
  400MOL0     H55184  10.798   7.536   7.810 -0.4403 -0.0968 -0.3954
  400MOL0     H55185  10.667   7.743   7.894  0.3130  1.5110 -1.3755
  400MOL0     H55186  10.705   8.131   8.127  3.5762 -0.9746  3.5775
  400MOL0     H55187  10.589   8.333   8.232 -2.0641  0.8097  1.5272
  400MOL0     H55188  10.372   8.503   8.284 -0.1645  0.2754  1.0042
  400MOL0     H55189  10.278   8.365   8.222  0.6341 -2.4352  1.9022
  400MOL0     H55190  10.137   8.538   8.333 -0.9922 -0.4537 -1.1015
  400MOL0     H55191  10.231   8.528   8.483 -0.4747  2.8598 -1.6907
  400MOL0     H55192  10.082   8.283   8.371  0.5627  0.2662 -1.2456
  400MOL0     H55193  10.146   8.316   8.531  0.0986 -0.1715  1.0802
  400MOL0     H55194   9.973   8.509   8.545  0.1277  1.0840 -1.5396
  400MOL0     H55195   9.921   8.349   8.552  1.2346  1.7483  2.8997
  400MOL0     H55196   9.816   8.531   8.153 -2.3333  1.0185  0.6172
  400MOL0     H55197  10.316   8.084   8.427 -1.5403 -2.2069 -1.4081
  400MOL0     H55198  10.381   7.782   8.287  0.8092  1.6126 -1.2388
  400MOL0     H55199  10.494   7.780   8.418 -2.1936 -1.6319 -0.5026
  400MOL0     H55200  10.339   7.850   8.444  0.5206 -2.7122  1.4641
  401MOL0     O55201  10.119  10.194   2.946 -0.4785  0.1258 -0.0018
  401MOL0     C55202  10.128  10.169   2.830 -0.3154  0.2905 -0.5058
  401MOL0     O55203  10.097  10.255   2.726 -0.2227 -0.6786 -0.1795
  401MOL0     C55204  10.043  10.374   2.776  0.9960 -0.1564  0.5454
  401MOL0     C55205  10.110  10.465   2.858 -0.9327 -0.6426  0.0118
  401MOL0     C55206  10.051  10.585   2.903  0.9919  0.2314 -0.5435
  401MOL0     C55207   9.913  10.603   2.882 -0.2576 -0.2422  0.3806
  401MOL0     O55208   9.828  10.700   2.926  0.4735 -1.0579 -0.3090
  401MOL0     C55209   9.864  10.759   3.047 -0.2220 -0.0063 -0.4803
  401MOL0     C55210   9.939  10.886   3.037  0.2711  0.9500  1.3514
  401MOL0     C55211   9.980  10.946   3.174  0.0328  0.1379 -0.5161
  401MOL0     C55212  10.053  11.080   3.168  0.6219  0.1398 -0.8460
  401MOL0     C55213  10.114  11.118   3.307  0.1939 -0.6831  0.0327
  401MOL0     C55214  10.159  11.260   3.288 -0.3824  0.6119 -0.2986
  401MOL0     C55215  10.207  11.322   3.411  0.5806  0.6097 -0.1824
  401MOL0     C55216  10.255  11.464   3.382 -0.3375 -0.2262 -0.1333
  401MOL0     N55217  10.279  11.547   3.499  0.2693  0.6054 -0.8025
  401MOL0     C55218  10.181  11.587   3.597 -0.0918  0.0600 -0.5142
  401MOL0     C55219  10.251  11.683   3.663 -0.9002  0.3291 -0.6292
  401MOL0     C55220  10.202  11.786   3.768 -0.3789  0.3476  0.0586
  401MOL0     C55221  10.308  11.802   3.871 -0.0341  0.4521 -0.2135
  401MOL0     C55222  10.294  11.910   3.988  0.6561 -1.6054  0.0920
  401MOL0     C55223  10.429  11.936   4.059  0.1905 -1.1714  0.2410
  401MOL0     O55224  10.476  11.813   4.094 -0.2878  0.3841  0.3949
  401MOL0     C55225  10.591  11.806   4.149 -0.9774 -0.7411 -0.1545
  401MOL0     C55226  10.641  11.680   4.171 -0.4175 -0.7663  0.9210
  401MOL0     C55227  10.763  11.651   4.231  0.3712  0.1301  1.3508
  401MOL0     C55228  10.796  11.503   4.253 -0.8160  1.2936  0.9600
  401MOL0     C55229  10.845  11.762   4.255 -0.8730 -0.1322 -0.0326
  401MOL0     C55230  10.972  11.760   4.327  0.7834 -1.6909  0.3430
  401MOL0     O55231  11.053  11.654   4.306  0.0774  0.2594 -0.5387
  401MOL0     C55232  11.126  11.612   4.417 -0.3728 -0.0913  0.2509
  401MOL0     C55233  11.076  11.611   4.546  0.5645  0.4910  0.4349
  401MOL0     C55234  11.155  11.575   4.654  0.1147  0.2223 -0.5802
  401MOL0     C55235  11.285  11.547   4.639  0.3759  0.2479  0.9045
  401MOL0     O55236  11.361  11.526   4.749 -0.3282 -0.7816 -0.4016
  401MOL0     C55237  11.495  11.485   4.736  0.1516 -0.0832 -0.8093
  401MOL0     C55238  11.544  11.458   4.879  0.9804  0.6286 -0.6313
  401MOL0     C55239  11.663  11.355   4.886 -0.1630  0.2035  0.2805
  401MOL0     C55240  11.718  11.346   5.026  0.1346 -1.1508  0.3647
  401MOL0     C55241  11.624  11.266   5.122  0.7292  0.3764 -0.1668
  401MOL0     C55242  11.689  11.174   5.232  0.0980 -1.7156  0.5235
  401MOL0     C55243  11.807  11.249   5.286 -0.6984 -0.1803 -0.4701
  401MOL0     C55244  11.861  11.180   5.412  0.6516 -0.0026 -0.8474
  401MOL0    Cl55245  11.886  11.007   5.396  0.4605 -0.2010 -0.3125
  401MOL0     C55246  11.345  11.551   4.507  0.0343  0.1242 -0.4096
  401MOL0     C55247  11.261  11.581   4.396 -0.5733 -0.2916  0.6474
  401MOL0     O55248  10.998  11.850   4.406  0.1213 -0.2696  0.7486
  401MOL0     C55249  10.793  11.889   4.230  0.6857 -0.4372 -0.5843
  401MOL0     C55250  10.664  11.916   4.188 -0.0227 -1.0192 -1.0440
  401MOL0     N55251  10.384  11.691   3.616 -0.1148  0.2690 -0.1808
  401MOL0     N55252  10.399  11.605   3.529 -0.4027  1.0163 -0.4540
  401MOL0     C55253   9.839  10.515   2.804  0.8602  1.0361  0.0459
  401MOL0     C55254   9.909  10.403   2.742  0.4924 -0.3353  0.4787
  401MOL0     C55255  10.203  10.050   2.779  0.0023 -0.8113 -0.3873
  401MOL0     C55256  10.259   9.967   2.887 -0.0577 -0.9120  1.2684
  401MOL0     C55257  10.344   9.862   2.862 -1.0087 -0.0977  0.0591
  401MOL0     C55258  10.378   9.835   2.733 -0.3471 -0.2531  0.5065
  401MOL0     O55259  10.483   9.742   2.720 -1.0593  0.1692  0.8116
  401MOL0     C55260  10.542   9.731   2.597 -0.3586  0.8447  0.8603
  401MOL0     C55261  10.663   9.653   2.621 -0.1973 -0.1851 -0.8369
  401MOL0     C55262  10.764   9.719   2.713  0.8846  0.1576  0.8726
  401MOL0     C55263  10.897   9.637   2.726 -0.1151  0.7938 -0.4450
  401MOL0     C55264  10.999   9.672   2.636 -1.7176 -1.2075 -0.0611
  401MOL0     C55265  11.064   9.714   2.538 -0.4637  0.1835 -0.2020
  401MOL0     C55266  10.324   9.903   2.628 -0.2510 -0.2716 -0.1675
  401MOL0     C55267  10.227  10.006   2.643  0.4642  0.0301 -0.1990
  401MOL0     C55268  10.163  10.078   2.521 -0.4780 -0.3561  0.7411
  401MOL0     H55269  10.209  10.444   2.897 -1.4165 -2.5796  0.3353
  401MOL0     H55270  10.113  10.644   2.970  1.9001 -0.0358 -1.1364
  401MOL0     H55271   9.908  10.681   3.110 -1.3598 -2.2906 -2.3727
  401MOL0     H55272   9.773  10.796   3.095  2.5756  5.5553  1.5191
  401MOL0     H55273  10.029  10.880   2.974 -0.3051  2.8054  0.2908
  401MOL0     H55274   9.880  10.946   2.967  1.6920 -0.5006 -1.2642
  401MOL0     H55275   9.887  10.951   3.232 -0.1000  0.3840 -0.7497
  401MOL0     H55276  10.055  10.880   3.218 -0.2313  0.0534 -0.1843
  401MOL0     H55277  10.140  11.089   3.103  3.6270  1.5142  2.9876
  401MOL0     H55278   9.981  11.154   3.133 -0.5570  0.2635  1.6210
  401MOL0     H55279  10.186  11.040   3.336  1.3384  1.2702  2.9952
  401MOL0     H55280  10.034  11.106   3.381  1.8116  0.4352  2.0636
  401MOL0     H55281  10.234  11.271   3.209 -1.5640  0.1761 -1.5276
  401MOL0     H55282  10.072  11.318   3.256  1.1766  3.3310  0.0774
  401MOL0     H55283  10.291  11.260   3.444  2.5726  2.3040 -1.7392
  401MOL0     H55284  10.126  11.320   3.484  2.0967 -2.1941  1.6186
  401MOL0     H55285  10.351  11.459   3.330  0.6825 -3.0892  1.7754
  401MOL0     H55286  10.194  11.518   3.309  1.1045  1.2270 -0.3221
  401MOL0     H55287  10.077  11.559   3.607 -0.0836  0.3047  0.4127
  401MOL0     H55288  10.115  11.746   3.820 -0.9197  3.7360  2.0724
  401MOL0     H55289  10.168  11.884   3.733 -3.9291 -1.0694 -0.9327
  401MOL0     H55290  10.323  11.703   3.915 -0.4311  0.5546  0.1505
  401MOL0     H55291  10.390  11.846   3.812 -1.2604 -0.0142 -2.3879
  401MOL0     H55292  10.254  12.005   3.951 -1.2421 -1.4668  2.3049
  401MOL0     H55293  10.217  11.880   4.060 -1.4872 -3.0399 -2.6210
  401MOL0     H55294  10.501  11.994   4.001 -1.6197 -0.4452 -1.4263
  401MOL0     H55295  10.416  11.997   4.149  3.8983  0.1524  0.0370
  401MOL0     H55296  10.571  11.598   4.162 -0.4480 -0.7408  0.9265
  401MOL0     H55297  10.717  11.431   4.272  0.7281 -0.1202  2.3720
  401MOL0     H55298  10.855  11.486   4.343 -3.5594  0.5752  2.7292
  401MOL0     H55299  10.848  11.474   4.161 -1.0557  1.1468  0.8717
  401MOL0     H55300  10.970  11.634   4.551  0.3473 -0.2233 -0.6055
  401MOL0     H55301  11.109  11.574   4.752  0.6864  0.3926 -0.3133
  401MOL0     H55302  11.509  11.394   4.676  1.5379  1.4203 -2.9126
  401MOL0     H55303  11.575  11.547   4.696  1.0290 -1.7397 -1.7597
  401MOL0     H55304  11.576  11.553   4.923  0.6905  0.0780  0.8321
  401MOL0     H55305  11.468  11.409   4.940  0.8758  0.9693 -0.4812
  401MOL0     H55306  11.743  11.388   4.819 -2.5457  1.4121 -2.1773
  401MOL0     H55307  11.620  11.257   4.861 -0.6892  0.5754 -0.2971
  401MOL0     H55308  11.749  11.439   5.074 -3.3846  1.0786 -1.1927
  401MOL0     H55309  11.804  11.278   5.031 -1.8144 -3.6994  1.5072
  401MOL0     H55310  11.575  11.340   5.186 -0.1419 -0.8928  0.6878
  401MOL0     H55311  11.543  11.215   5.069 -0.0708  0.0925  1.2820
  401MOL0     H55312  11.713  11.081   5.180 -1.0114 -1.1425 -1.0921
  401MOL0     H55313  11.618  11.164   5.315  1.5593 -0.4554  2.0041
  401MOL0     H55314  11.792  11.352   5.319 -1.3896 -1.0109  2.0344
  401MOL0     H55315  11.902  11.248   5.231 -0.2678 -3.4251  0.1138
  401MOL0     H55316  11.779  11.189   5.484  0.0178 -4.1582 -0.8366
  401MOL0     H55317  11.952  11.227   5.449 -0.7293  0.7660  1.8659
  401MOL0     H55318  11.452  11.533   4.501 -0.0677 -0.1811 -1.7277
  401MOL0     H55319  11.295  11.603   4.295  0.2099  3.7197  1.5932
  401MOL0     H55320  10.838  11.983   4.261  1.3973 -1.9561  3.6709
  401MOL0     H55321  10.631  12.019   4.188 -1.6627 -1.4949  0.2320
  401MOL0     H55322   9.731  10.522   2.793  0.4797 -3.3436 -0.6577
  401MOL0     H55323   9.851  10.342   2.674  0.7046  0.4580 -0.4431
  401MOL0     H55324  10.241   9.992   2.991  0.9482 -0.3354  1.3200
  401MOL0     H55325  10.393   9.795   2.932 -0.5240  1.4442  1.2539
  401MOL0     H55326  10.475   9.676   2.530  0.5828 -1.1420  1.4842
  401MOL0     H55327  10.582   9.818   2.545 -2.0823  0.3015 -1.5739
  401MOL0     H55328  10.710   9.632   2.525  5.5119 -1.2249  1.7831
  401MOL0     H55329  10.634   9.553   2.655 -2.3471  0.0617 -1.7854
  401MOL0     H55330  10.788   9.817   2.670 -1.4576 -0.0385 -1.0696
  401MOL0     H55331  10.719   9.715   2.813  1.0365  1.2593  1.0031
  401MOL0     H55332  10.873   9.531   2.716  1.0315  0.3762  0.9131
  401MOL0     H55333  10.937   9.652   2.827  0.5804  1.7094 -0.8481
  401MOL0     H55334  11.121   9.745   2.453 -0.5020 -0.7031 -0.5677
  401MOL0     H55335  10.359   9.862   2.533 -0.8757 -1.4910  0.1081
  401MOL0     H55336  10.221  10.170   2.513 -2.3573  0.8572  0.5475
  401MOL0     H55337  10.177  10.026   2.425 -0.7455  0.9362 -0.0190
  401MOL0     H55338  10.060  10.100   2.549 -0.2993 -2.0259  2.9367
  402MOL0     O55339   6.318  10.907   0.023 -1.2150 -0.1354  0.0238
  402MOL0     C55340   6.237  10.875   0.106  0.8342  0.1309  0.1094
  402MOL0     O55341   6.258  10.844   0.237 -0.1730 -0.1676  0.1276
  402MOL0     C55342   6.390  10.825   0.275  0.6569  0.5426  0.1754
  402MOL0     C55343   6.465  10.727   0.210 -0.1963 -0.8690 -0.2105
  402MOL0     C55344   6.598  10.715   0.250 -0.6392  0.9630  0.2581
  402MOL0     C55345   6.654  10.782   0.358 -0.1781  0.1800  0.0327
  402MOL0     O55346   6.780  10.754   0.405  0.7819 -1.0484 -0.2863
  402MOL0     C55347   6.860  10.851   0.467 -0.3276  0.4482  0.8502
  402MOL0     C55348   7.014  10.801   0.478  0.6282 -0.1480  0.0406
  402MOL0     C55349   7.093  10.895   0.549  0.0229  0.1448  0.0325
  402MOL0     C55350   7.241  10.844   0.571 -0.8591  0.5331  0.0252
  402MOL0     C55351   7.331  10.908   0.689  0.6504  1.1383 -0.1786
  402MOL0     C55352   7.387  11.041   0.655  0.5018  0.1729 -0.5047
  402MOL0     C55353   7.461  11.111   0.776 -0.1208  0.3525 -0.5251
  402MOL0     C55354   7.526  11.244   0.750  0.2819  0.3985 -0.0990
  402MOL0     N55355   7.675  11.240   0.762 -0.1499  0.2073  0.2699
  402MOL0     C55356   7.760  11.194   0.657  0.6831 -0.5610 -1.2412
  402MOL0     C55357   7.880  11.181   0.715  0.2649 -1.1782  0.4839
  402MOL0     C55358   7.979  11.097   0.646 -0.0651 -0.3876 -0.8132
  402MOL0     C55359   8.030  10.990   0.742  0.3754 -0.3996 -0.7955
  402MOL0     C55360   8.135  11.047   0.834  0.3319  0.2144  0.4384
  402MOL0     C55361   8.209  10.950   0.918 -0.0839  0.1099  0.0926
  402MOL0     O55362   8.282  10.862   0.830  0.6180 -0.5316 -0.2951
  402MOL0     C55363   8.353  10.764   0.881  0.1784  0.7083 -0.3250
  402MOL0     C55364   8.382  10.654   0.801 -0.1761 -0.7869  0.2409
  402MOL0     C55365   8.479  10.554   0.840  0.0329  0.9050  0.3944
  402MOL0     C55366   8.513  10.456   0.732 -0.0277 -1.1309  1.0411
  402MOL0     C55367   8.527  10.547   0.974  0.2693 -0.1889  1.3582
  402MOL0     C55368   8.607  10.433   1.038  0.6347 -0.4821 -0.9316
  402MOL0     O55369   8.686  10.469   1.152 -0.2808  0.4644 -0.2407
  402MOL0     C55370   8.759  10.383   1.229  0.8246  0.4580 -0.2093
  402MOL0     C55371   8.846  10.449   1.322  0.0038 -1.6307 -1.1798
  402MOL0     C55372   8.924  10.379   1.409  0.4393  0.3834  0.5317
  402MOL0     C55373   8.932  10.237   1.394  0.2440 -0.1606 -1.0280
  402MOL0     O55374   9.018  10.174   1.474 -0.1673 -0.1401  0.6928
  402MOL0     C55375   9.114  10.111   1.381  0.6548 -0.6457  0.5964
  402MOL0     C55376   9.229  10.062   1.469 -0.1458 -0.0298 -0.2372
  402MOL0     C55377   9.345  10.007   1.381 -0.3755 -0.9277 -0.4793
  402MOL0     C55378   9.479   9.977   1.438  0.2150  0.0559 -0.5683
  402MOL0     C55379   9.560  10.098   1.479  0.5625 -1.0256  0.2041
  402MOL0     C55380   9.587  10.195   1.353  0.1390  0.6943 -0.8042
  402MOL0     C55381   9.685  10.319   1.390  0.0349  0.1542 -0.6838
  402MOL0     C55382   9.743  10.399   1.276  0.2547 -0.1655  0.6009
  402MOL0    Cl55383   9.613  10.511   1.221 -0.1530  0.0475  0.2702
  402MOL0     C55384   8.840  10.162   1.305 -0.5769 -0.4165  0.2635
  402MOL0     C55385   8.765  10.239   1.219  0.0907  0.3038  0.1130
  402MOL0     O55386   8.614  10.328   0.980  0.1271 -0.1600  0.1825
  402MOL0     C55387   8.497  10.665   1.050 -0.3459  0.5414  0.1574
  402MOL0     C55388   8.409  10.770   1.003 -0.2721  1.1014 -0.2936
  402MOL0     N55389   7.861  11.209   0.850 -0.6607 -1.3986 -0.0758
  402MOL0     N55390   7.743  11.255   0.880 -0.7533  0.4596 -1.4822
  402MOL0     C55391   6.574  10.881   0.421  0.2018  0.8276  0.0470
  402MOL0     C55392   6.440  10.891   0.388  0.5697  0.0276 -0.1312
  402MOL0     C55393   6.095  10.841   0.052 -0.9693 -0.9824 -0.3834
  402MOL0     C55394   6.087  10.787  -0.079  0.3692  0.3668  0.1287
  402MOL0     C55395   5.969  10.744  -0.130  1.0746  0.3079  0.8292
  402MOL0     C55396   5.852  10.768  -0.058 -0.0081  0.9343  0.9112
  402MOL0     O55397   5.736  10.697  -0.087  0.6452 -0.0246  0.0660
  402MOL0     C55398   5.770  10.553  -0.089  1.1677  0.7727  0.2295
  402MOL0     C55399   5.666  10.470  -0.008  0.7370 -0.9881 -0.2749
  402MOL0     C55400   5.528  10.492  -0.069 -0.0027  0.3105  0.8792
  402MOL0     C55401   5.430  10.392  -0.009  0.8486  0.5732 -0.1438
  402MOL0     C55402   5.466  10.248  -0.038  0.8500  0.5365  0.3838
  402MOL0     C55403   5.477  10.135  -0.090 -0.6612 -1.8727  0.6972
  402MOL0     C55404   5.854  10.836   0.065  0.3856 -0.3681 -0.5111
  402MOL0     C55405   5.979  10.870   0.117 -0.5230  0.9064 -0.7012
  402MOL0     C55406   5.974  10.932   0.247  0.9200  0.1093 -0.1524
  402MOL0     H55407   6.425  10.657   0.138  1.7079 -1.6074 -0.6052
  402MOL0     H55408   6.655  10.637   0.201  1.0602 -0.3710  3.9564
  402MOL0     H55409   6.825  10.863   0.570 -0.1480  0.0624  0.9604
  402MOL0     H55410   6.863  10.950   0.422  1.8539 -0.6515 -1.6805
  402MOL0     H55411   7.007  10.713   0.543 -2.5100 -0.0442  0.0320
  402MOL0     H55412   7.054  10.772   0.381  2.2121 -1.5561  1.0647
  402MOL0     H55413   7.098  10.992   0.498  0.4700  0.4091  0.5637
  402MOL0     H55414   7.049  10.917   0.647  4.0869 -0.3421  2.1668
  402MOL0     H55415   7.230  10.735   0.583 -2.8078  0.6556 -0.4023
  402MOL0     H55416   7.300  10.853   0.480  0.1200 -0.8993  0.4751
  402MOL0     H55417   7.417  10.840   0.698  1.5902  1.4289 -4.6254
  402MOL0     H55418   7.274  10.903   0.782  0.9229  0.6899 -0.0262
  402MOL0     H55419   7.459  11.023   0.574  1.5146  1.0089  0.1778
  402MOL0     H55420   7.306  11.109   0.629 -0.4264 -0.2380  1.1603
  402MOL0     H55421   7.532  11.044   0.824  0.5611  0.5497 -1.2462
  402MOL0     H55422   7.388  11.133   0.855 -0.9513 -1.7647 -0.6312
  402MOL0     H55423   7.499  11.278   0.650 -0.4476 -2.2127 -0.8518
  402MOL0     H55424   7.495  11.316   0.827  2.0103 -0.4819  1.5013
  402MOL0     H55425   7.726  11.167   0.558 -0.2610 -1.8659 -0.6005
  402MOL0     H55426   8.064  11.155   0.610  0.5867  0.3326  1.6756
  402MOL0     H55427   7.922  11.038   0.574  1.0475  1.8050 -3.6293
  402MOL0     H55428   7.941  10.949   0.791 -1.8028  1.4099 -2.9339
  402MOL0     H55429   8.080  10.916   0.679  1.8209 -1.0383  1.0260
  402MOL0     H55430   8.211  11.091   0.769 -1.3021 -0.9063 -2.4073
  402MOL0     H55431   8.090  11.128   0.892  1.8193  2.1640 -1.0056
  402MOL0     H55432   8.277  11.002   0.986  3.2843 -2.9375 -0.6255
  402MOL0     H55433   8.135  10.903   0.983  1.5293 -2.8885 -0.0714
  402MOL0     H55434   8.345  10.647   0.699  1.4059  0.6121 -0.4690
  402MOL0     H55435   8.616  10.441   0.698 -0.2413 -1.2020  0.4240
  402MOL0     H55436   8.453  10.491   0.647  2.1613 -1.3633 -0.6792
  402MOL0     H55437   8.471  10.362   0.770  2.3912 -2.5185  0.4720
  402MOL0     H55438   8.845  10.557   1.336 -1.2987 -1.7921  0.1798
  402MOL0     H55439   8.979  10.433   1.487  1.1377 -0.1241  0.4030
  402MOL0     H55440   9.077  10.020   1.334  2.2826  0.4945 -3.2745
  402MOL0     H55441   9.149  10.174   1.299 -0.7848 -1.9096 -1.0604
  402MOL0     H55442   9.268  10.140   1.536  0.3939 -0.2821 -0.2486
  402MOL0     H55443   9.178   9.986   1.528 -2.4590 -0.1732 -2.3047
  402MOL0     H55444   9.372  10.082   1.306  0.1876 -0.3266  0.3025
  402MOL0     H55445   9.307   9.931   1.313  0.6066 -0.4643 -1.5704
  402MOL0     H55446   9.528   9.921   1.358  0.7934  2.1520 -1.7417
  402MOL0     H55447   9.473   9.906   1.521 -0.5791  0.2589 -0.4494
  402MOL0     H55448   9.504  10.140   1.563 -0.6757 -2.0835 -0.0507
  402MOL0     H55449   9.650  10.061   1.527  2.1948  1.0449 -1.1104
  402MOL0     H55450   9.495  10.238   1.311 -0.0806 -0.0806 -1.1215
  402MOL0     H55451   9.644  10.128   1.288  1.3680  1.1128 -0.1869
  402MOL0     H55452   9.767  10.264   1.436 -1.9961 -1.4899  1.1691
  402MOL0     H55453   9.643  10.386   1.466 -0.3452 -1.5572  0.6640
  402MOL0     H55454   9.779  10.342   1.190 -1.3868 -1.1852  0.5421
  402MOL0     H55455   9.824  10.463   1.313  1.1354 -2.0579  2.0851
  402MOL0     H55456   8.846  10.055   1.287 -2.4487 -0.1234 -3.0412
  402MOL0     H55457   8.708  10.187   1.143 -0.0714  0.9390 -0.2075
  402MOL0     H55458   8.525  10.672   1.155 -2.4194 -2.0053  0.9937
  402MOL0     H55459   8.388  10.844   1.080  5.4076 -0.2320  3.1974
  402MOL0     H55460   6.606  10.935   0.510 -2.1471 -0.9128  2.1202
  402MOL0     H55461   6.385  10.968   0.442  1.4523  1.0031 -0.5803
  402MOL0     H55462   6.170  10.770  -0.147 -0.6419 -4.1622 -0.2917
  402MOL0     H55463   5.958  10.709  -0.232 -5.0976  1.4484  0.7221
  402MOL0     H55464   5.793  10.523  -0.192  2.0285 -0.8588  0.8608
  402MOL0     H55465   5.856  10.537  -0.023 -1.1631 -2.4321  2.8144
  402MOL0     H55466   5.671  10.504   0.096 -2.0384 -0.6834 -0.1757
  402MOL0     H55467   5.703  10.367  -0.006  3.3748 -0.1251 -0.4942
  402MOL0     H55468   5.480  10.589  -0.054 -0.0616  1.1116 -3.2446
  402MOL0     H55469   5.524  10.481  -0.178  0.7102 -2.8634  1.0970
  402MOL0     H55470   5.326  10.413  -0.036  0.3815 -2.4427 -1.0017
  402MOL0     H55471   5.421  10.401   0.100  1.6233  0.4781 -0.0637
  402MOL0     H55472   5.485  10.039  -0.137  1.0479 -0.0900 -2.9892
  402MOL0     H55473   5.761  10.832   0.121  0.7820 -0.2801  0.1713
  402MOL0     H55474   5.880  10.910   0.299 -0.2969  2.5572 -1.1366
  402MOL0     H55475   6.048  10.903   0.322  1.4997 -2.0174 -1.4448
  402MOL0     H55476   5.987  11.039   0.227  3.1283  0.6279  3.2465
  403MOL0     O55477   1.234   2.543   3.603 -0.9512 -0.4382  0.4741
  403MOL0     C55478   1.334   2.611   3.616 -0.6475  0.3199  0.5918
  403MOL0     O55479   1.346   2.702   3.718 -0.4024  0.4228  0.9415
  403MOL0     C55480   1.259   2.718   3.821  0.8289 -1.2457 -0.7739
  403MOL0     C55481   1.118   2.711   3.798 -0.3346 -0.3220 -0.5006
  403MOL0     C55482   1.026   2.750   3.898  0.4925  0.2028  0.5311
  403MOL0     C55483   1.074   2.800   4.013 -0.6610 -0.0733  0.6843
  403MOL0     O55484   0.990   2.840   4.112  0.2493  0.7693  0.6948
  403MOL0     C55485   0.850   2.805   4.099  0.5544 -0.0090 -0.0576
  403MOL0     C55486   0.756   2.852   4.217  1.1507 -0.1443 -0.0942
  403MOL0     C55487   0.613   2.792   4.199  1.0918  0.5092  0.1910
  403MOL0     C55488   0.529   2.805   4.317  1.0223  0.2749  0.5353
  403MOL0     C55489   0.387   2.730   4.290 -0.1486 -0.2996 -0.3431
  403MOL0     C55490   0.297   2.724   4.418  0.0095  0.1375 -1.0235
  403MOL0     C55491   0.231   2.866   4.432 -0.1508 -0.0294  1.0326
  403MOL0     C55492   0.144   2.882   4.554  0.5176 -0.2543 -0.3956
  403MOL0     N55493   0.122   3.027   4.573  0.7249  0.3641  0.6628
  403MOL0     C55494   0.212   3.117   4.628 -0.1972  0.8935 -0.1240
  403MOL0     C55495   0.157   3.238   4.594 -0.4656  0.6557 -0.1322
  403MOL0     C55496   0.224   3.370   4.614  0.1361  0.7102 -0.2827
  403MOL0     C55497   0.146   3.507   4.633  0.0627 -0.3435  0.8181
  403MOL0     C55498   0.220   3.636   4.662 -0.3625 -1.0316 -0.6887
  403MOL0     C55499   0.115   3.750   4.651 -0.4840 -0.9442 -0.1847
  403MOL0     O55500   0.194   3.871   4.660  0.6254  0.3880 -0.5960
  403MOL0     C55501   0.127   3.971   4.598  0.7557  1.2393  0.3012
  403MOL0     C55502   0.028   4.049   4.670 -0.6616 -0.1626 -0.5398
  403MOL0     C55503  -0.034   4.155   4.611  0.6287  0.2931 -0.1977
  403MOL0     C55504  -0.130   4.237   4.699 -0.2067  0.3454  0.5016
  403MOL0     C55505  -0.021   4.180   4.476  0.0950 -0.4344 -0.0839
  403MOL0     C55506  -0.090   4.290   4.400  0.6646  0.0705 -1.1216
  403MOL0     O55507  -0.020   4.342   4.295  0.1050 -0.8266 -0.4287
  403MOL0     C55508  -0.084   4.395   4.187  0.0273  0.8071 -0.4262
  403MOL0     C55509  -0.134   4.520   4.196 -0.1835 -0.7851 -0.1309
  403MOL0     C55510  -0.178   4.594   4.075  0.0522 -0.1063  0.0378
  403MOL0     C55511  -0.182   4.528   3.947 -0.0210 -0.0410 -0.0836
  403MOL0     O55512  -0.212   4.577   3.825  0.2280  0.1848 -0.0129
  403MOL0     C55513  -0.297   4.699   3.818  0.3202  0.8337 -0.7119
  403MOL0     C55514  -0.371   4.726   3.689 -0.1000  0.1293  0.3200
  403MOL0     C55515  -0.275   4.760   3.576  0.3761 -0.8534  0.1567
  403MOL0     C55516  -0.352   4.778   3.438 -0.3768 -0.4675 -0.9863
  403MOL0     C55517  -0.266   4.831   3.328 -0.2941  0.5131  0.6991
  403MOL0     C55518  -0.173   4.728   3.266  0.3569  0.0267 -0.1488
  403MOL0     C55519  -0.127   4.775   3.134 -0.5339 -0.4576  0.1679
  403MOL0     C55520  -0.034   4.668   3.072  0.8040  0.5567  0.5427
  403MOL0    Cl55521   0.047   4.727   2.921  0.1312 -0.2185 -0.1975
  403MOL0     C55522  -0.145   4.388   3.947  1.4992 -0.9731  0.5817
  403MOL0     C55523  -0.097   4.328   4.064  0.1337 -0.4992 -0.6970
  403MOL0     O55524  -0.209   4.317   4.420 -0.2560 -0.0115  0.0938
  403MOL0     C55525   0.078   4.104   4.410  0.7860  0.9849 -0.1903
  403MOL0     C55526   0.147   4.004   4.472 -0.2195 -0.4171 -0.0857
  403MOL0     N55527   0.031   3.226   4.535 -0.3139  0.4430 -0.0276
  403MOL0     N55528   0.018   3.096   4.519 -0.1853  0.5605 -0.0681
  403MOL0     C55529   1.202   2.809   4.041 -1.4415 -1.0255 -0.3431
  403MOL0     C55530   1.295   2.764   3.950 -1.1327  0.1242  0.9366
  403MOL0     C55531   1.433   2.599   3.511 -0.4500 -0.9293  0.0342
  403MOL0     C55532   1.557   2.656   3.525 -0.6755  0.6518  0.2753
  403MOL0     C55533   1.660   2.637   3.439 -0.6093 -0.1685  0.0279
  403MOL0     C55534   1.649   2.567   3.316  0.2848 -0.5155  0.5884
  403MOL0     O55535   1.760   2.539   3.239  0.2947  0.0694 -0.1393
  403MOL0     C55536   1.749   2.501   3.099 -0.6123  0.1489 -0.6309
  403MOL0     C55537   1.887   2.518   3.029 -0.4359 -0.4686  0.4032
  403MOL0     C55538   1.884   2.467   2.886  0.3087  0.5888 -0.5266
  403MOL0     C55539   2.012   2.495   2.811 -0.1118 -0.1644  0.1064
  403MOL0     C55540   2.128   2.449   2.894 -0.0037  0.5044 -0.1986
  403MOL0     C55541   2.216   2.433   2.977  0.2693 -0.1801  0.3405
  403MOL0     C55542   1.523   2.512   3.295 -0.3612 -1.1859  0.5461
  403MOL0     C55543   1.414   2.524   3.385 -0.4754 -0.4347 -0.3718
  403MOL0     C55544   1.297   2.455   3.330 -0.0858  0.7788  0.2275
  403MOL0     H55545   1.064   2.682   3.708 -0.7611  0.6956 -0.5865
  403MOL0     H55546   0.921   2.732   3.880  0.7527 -2.5150  1.2411
  403MOL0     H55547   0.838   2.697   4.087  0.3502  0.0151 -0.0748
  403MOL0     H55548   0.817   2.859   4.010  1.0110  1.2016  0.4969
  403MOL0     H55549   0.805   2.784   4.288  0.1785 -1.2087 -0.4147
  403MOL0     H55550   0.760   2.959   4.237 -1.2979  0.2306 -1.2753
  403MOL0     H55551   0.558   2.842   4.119 -1.0965  1.0557  1.9533
  403MOL0     H55552   0.605   2.685   4.178 -0.4926  1.0963 -2.7468
  403MOL0     H55553   0.577   2.757   4.403 -0.0097 -0.5965  0.6507
  403MOL0     H55554   0.494   2.902   4.352 -0.3834 -1.0678  3.1681
  403MOL0     H55555   0.400   2.630   4.248 -2.3503  0.6148 -3.6663
  403MOL0     H55556   0.323   2.772   4.211 -0.0991 -0.7406 -0.6198
  403MOL0     H55557   0.218   2.649   4.409 -1.5497  1.7415 -1.3175
  403MOL0     H55558   0.353   2.701   4.508  0.3290 -0.0314 -1.2653
  403MOL0     H55559   0.173   2.885   4.341  0.1765  1.1415  1.0502
  403MOL0     H55560   0.311   2.940   4.436  1.6260 -1.7493 -0.3227
  403MOL0     H55561   0.049   2.828   4.549 -1.0671  1.9129  2.9835
  403MOL0     H55562   0.197   2.851   4.645 -3.3270  2.6142  3.2065
  403MOL0     H55563   0.310   3.094   4.669  0.2640 -1.6488 -2.3176
  403MOL0     H55564   0.294   3.385   4.531 -1.0195  2.1107 -1.0509
  403MOL0     H55565   0.284   3.355   4.705  2.4030 -4.2010 -2.1773
  403MOL0     H55566   0.087   3.512   4.541  0.9472 -1.0194  0.2008
  403MOL0     H55567   0.076   3.500   4.717 -0.7199 -1.1081  0.1303
  403MOL0     H55568   0.260   3.632   4.763  0.4541 -1.1340 -1.0057
  403MOL0     H55569   0.306   3.657   4.596  0.1191  1.2586  0.5494
  403MOL0     H55570   0.057   3.745   4.559 -0.5224  1.6270 -0.3847
  403MOL0     H55571   0.041   3.739   4.731  0.5490 -5.5595  0.3984
  403MOL0     H55572   0.002   4.015   4.770 -5.3985  3.2322 -0.2503
  403MOL0     H55573  -0.234   4.226   4.667 -1.2826 -1.9305  4.1289
  403MOL0     H55574  -0.101   4.342   4.690 -0.0990  0.2128 -0.8852
  403MOL0     H55575  -0.118   4.207   4.803  0.9387  2.2910  0.9992
  403MOL0     H55576  -0.136   4.567   4.294  1.8984  0.6708 -0.7078
  403MOL0     H55577  -0.210   4.698   4.071  0.7511  0.1246  0.3008
  403MOL0     H55578  -0.376   4.697   3.894  2.0944  2.1106  1.3114
  403MOL0     H55579  -0.246   4.792   3.846  0.3615  0.5059  0.3722
  403MOL0     H55580  -0.421   4.636   3.649  2.0114 -0.2863 -1.6392
  403MOL0     H55581  -0.432   4.814   3.706  2.2081  2.0082 -0.5165
  403MOL0     H55582  -0.214   4.670   3.564 -0.3393 -1.5697  1.6749
  403MOL0     H55583  -0.225   4.849   3.614 -1.0668 -0.8877  2.3397
  403MOL0     H55584  -0.433   4.852   3.442  0.1366  0.0797 -0.4262
  403MOL0     H55585  -0.393   4.683   3.404  0.0576 -1.5077  1.1985
  403MOL0     H55586  -0.333   4.853   3.244  1.2305  0.9504 -0.4653
  403MOL0     H55587  -0.202   4.910   3.370  0.7514 -0.9452  1.9642
  403MOL0     H55588  -0.225   4.632   3.256  0.7169  0.0215 -2.5191
  403MOL0     H55589  -0.093   4.712   3.338 -0.7222 -2.3937  0.6327
  403MOL0     H55590  -0.077   4.870   3.153 -0.1203 -0.7898  0.7864
  403MOL0     H55591  -0.204   4.806   3.063 -0.0498 -0.4492 -0.3664
  403MOL0     H55592  -0.086   4.574   3.050  0.3419  1.0755 -0.6331
  403MOL0     H55593   0.044   4.634   3.141 -0.4992 -2.0407  0.8756
  403MOL0     H55594  -0.149   4.324   3.860  1.7834 -3.3319  2.2012
  403MOL0     H55595  -0.073   4.223   4.055 -0.4590 -0.5694 -1.5121
  403MOL0     H55596   0.081   4.125   4.303  1.4802  1.0894 -0.1502
  403MOL0     H55597   0.223   3.937   4.431  1.7326  2.2918 -1.1739
  403MOL0     H55598   1.239   2.826   4.142  8.0444 -2.3434 -2.6097
  403MOL0     H55599   1.398   2.773   3.985 -1.3877  1.5342  1.4037
  403MOL0     H55600   1.575   2.709   3.618 -4.2859 -1.5062  2.4536
  403MOL0     H55601   1.757   2.679   3.466 -0.9041  2.0860 -2.0866
  403MOL0     H55602   1.721   2.396   3.108 -5.6056  1.3717  2.0825
  403MOL0     H55603   1.659   2.537   3.047 -0.4932  1.4570  0.0260
  403MOL0     H55604   1.947   2.445   3.084  1.9379  0.2812 -1.0304
  403MOL0     H55605   1.920   2.622   3.031 -0.6204 -0.3793 -0.6597
  403MOL0     H55606   1.874   2.358   2.893  0.5490  0.5603 -0.6088
  403MOL0     H55607   1.798   2.508   2.832 -1.2763 -0.1924  1.3210
  403MOL0     H55608   2.027   2.603   2.803  0.7548 -0.3428 -0.9940
  403MOL0     H55609   2.001   2.447   2.713 -0.3495  3.1426 -1.6397
  403MOL0     H55610   2.303   2.430   3.040  1.1718 -2.3236 -0.8921
  403MOL0     H55611   1.509   2.467   3.197 -1.3025  1.6259 -0.7164
  403MOL0     H55612   1.290   2.348   3.350 -0.5517  0.5056 -1.3229
  403MOL0     H55613   1.199   2.496   3.355 -2.5807 -4.3574  0.1735
  403MOL0     H55614   1.316   2.449   3.223  0.1206 -2.4063  0.3468
  404MOL0     O55615   4.182   1.577   5.018  0.1484 -0.0581 -0.1094
  404MOL0     C55616   4.189   1.699   5.042 -0.3119  0.0950  0.0687
  404MOL0     O55617   4.086   1.778   5.099 -0.4233  1.3543 -0.0155
  404MOL0     C55618   3.951   1.770   5.061 -0.6964 -0.4372 -0.1551
  404MOL0     C55619   3.886   1.674   4.971  0.1814  0.1208 -0.6251
  404MOL0     C55620   3.746   1.675   4.944  0.4460  0.2964  0.0065
  404MOL0     C55621   3.662   1.777   4.992 -0.9276 -0.3318  0.3541
  404MOL0     O55622   3.527   1.789   4.969 -0.2007  0.1090  0.5701
  404MOL0     C55623   3.469   1.733   4.852  0.4649 -0.3824  0.4428
  404MOL0     C55624   3.325   1.785   4.840 -0.0855 -0.2992  0.6047
  404MOL0     C55625   3.235   1.707   4.933  0.2761 -0.3127  0.0507
  404MOL0     C55626   3.092   1.771   4.930 -0.2094  0.3734 -1.3286
  404MOL0     C55627   3.001   1.742   4.807  0.0723 -0.0471  0.4414
  404MOL0     C55628   2.856   1.804   4.832  0.4641  0.9007  0.1129
  404MOL0     C55629   2.782   1.801   4.708  0.8396 -1.0558 -0.3058
  404MOL0     C55630   2.629   1.810   4.692  0.3999  0.8051 -0.8320
  404MOL0     N55631   2.573   1.915   4.774 -0.5254 -0.9013 -0.4494
  404MOL0     C55632   2.520   1.890   4.898 -0.0329 -0.2225  0.4146
  404MOL0     C55633   2.477   2.016   4.945 -0.5944  0.2142 -0.4961
  404MOL0     C55634   2.402   2.037   5.070 -1.0575  0.7848  0.8119
  404MOL0     C55635   2.381   2.188   5.100  0.3196 -0.5579 -0.0735
  404MOL0     C55636   2.295   2.201   5.222  0.4052 -0.6034 -0.2625
  404MOL0     C55637   2.245   2.349   5.226  0.5880 -0.3977 -0.0450
  404MOL0     O55638   2.348   2.433   5.277 -0.1298  0.8487  1.1712
  404MOL0     C55639   2.331   2.574   5.251  0.1027  0.5039 -0.9579
  404MOL0     C55640   2.219   2.645   5.210  0.4954 -0.5275  0.3467
  404MOL0     C55641   2.222   2.787   5.191  0.1190  0.4070  0.0283
  404MOL0     C55642   2.080   2.842   5.161 -0.4880 -0.3346  0.0348
  404MOL0     C55643   2.344   2.854   5.206 -0.2095  0.1393 -0.9643
  404MOL0     C55644   2.365   2.991   5.173  0.3134 -0.7646 -0.3398
  404MOL0     O55645   2.471   3.050   5.239  0.1089 -0.7915 -0.0708
  404MOL0     C55646   2.461   3.186   5.250 -0.0248  0.3625 -0.2517
  404MOL0     C55647   2.466   3.238   5.378 -0.4848 -0.0858 -1.3258
  404MOL0     C55648   2.453   3.374   5.408  1.1236  0.7585  0.5180
  404MOL0     C55649   2.426   3.466   5.302  0.3553 -0.5582  0.1508
  404MOL0     O55650   2.406   3.605   5.304 -1.0902 -0.1946 -0.5389
  404MOL0     C55651   2.414   3.668   5.429 -0.2870 -0.4931 -0.2048
  404MOL0     C55652   2.556   3.704   5.471  0.4276  0.7703 -0.4196
  404MOL0     C55653   2.544   3.799   5.600 -0.0225 -0.5398 -0.2738
  404MOL0     C55654   2.656   3.785   5.694  0.1288  1.2996  0.5861
  404MOL0     C55655   2.680   3.892   5.795  0.2470 -0.0158 -1.1753
  404MOL0     C55656   2.557   3.959   5.857 -1.3803  0.6298  0.0810
  404MOL0     C55657   2.469   3.860   5.939 -0.6534  0.3280 -0.4719
  404MOL0     C55658   2.324   3.909   5.962  0.9722  0.0821 -0.1370
  404MOL0    Cl55659   2.297   4.043   6.072  0.3513  0.3326 -0.0601
  404MOL0     C55660   2.426   3.415   5.173 -0.1180 -0.4942  0.3726
  404MOL0     C55661   2.454   3.283   5.148 -0.2833 -0.2478  0.5854
  404MOL0     O55662   2.303   3.045   5.080  0.1863  0.3910 -0.0319
  404MOL0     C55663   2.449   2.780   5.267  0.6620  0.0522  0.4922
  404MOL0     C55664   2.445   2.642   5.291 -0.1375  0.7054 -0.4342
  404MOL0     N55665   2.522   2.109   4.851 -0.9011 -0.4184  0.9401
  404MOL0     N55666   2.582   2.048   4.749  0.6395 -0.5660  0.4374
  404MOL0     C55667   3.726   1.874   5.073  0.3252  0.3120 -0.0184
  404MOL0     C55668   3.859   1.868   5.112  0.1810  0.4384  0.4611
  404MOL0     C55669   4.330   1.766   5.032 -0.5168 -1.2346 -0.0869
  404MOL0     C55670   4.357   1.878   5.122 -0.6801  0.1474 -0.2376
  404MOL0     C55671   4.482   1.948   5.117  0.4171 -0.0578 -0.8876
  404MOL0     C55672   4.571   1.908   5.015  0.0587  0.7239 -0.8505
  404MOL0     O55673   4.691   1.973   5.003 -0.2986  0.3520  0.1554
  404MOL0     C55674   4.789   1.918   5.094 -0.4861 -0.3949  0.7816
  404MOL0     C55675   4.840   1.784   5.043 -0.3998 -0.3981 -0.0666
  404MOL0     C55676   4.928   1.788   4.915 -0.5792  0.3641 -0.3310
  404MOL0     C55677   5.071   1.829   4.931  0.0208  0.6372 -0.0372
  404MOL0     C55678   5.150   1.731   5.002  0.6166  0.4845  0.9569
  404MOL0     C55679   5.235   1.668   5.048 -0.2430  0.3704  0.4502
  404MOL0     C55680   4.542   1.813   4.922 -1.7348 -0.1350  0.0824
  404MOL0     C55681   4.422   1.740   4.935 -0.6142  0.3071 -0.3504
  404MOL0     C55682   4.396   1.635   4.828 -0.3378  0.2653 -1.8093
  404MOL0     H55683   3.933   1.587   4.926  2.9755  1.6883 -0.9508
  404MOL0     H55684   3.703   1.595   4.885 -1.7905  2.4541 -1.4995
  404MOL0     H55685   3.455   1.625   4.864  0.5472 -0.4954 -0.4174
  404MOL0     H55686   3.528   1.753   4.763  2.1496 -0.4069  1.5064
  404MOL0     H55687   3.319   1.886   4.882  0.8736 -1.6421  4.4004
  404MOL0     H55688   3.300   1.778   4.734 -1.0446  0.6311  0.7557
  404MOL0     H55689   3.231   1.600   4.910 -2.6963  0.0016 -1.3465
  404MOL0     H55690   3.278   1.726   5.032 -0.9116 -0.2600  0.5737
  404MOL0     H55691   3.051   1.734   5.024 -0.4874  0.7278 -1.3089
  404MOL0     H55692   3.097   1.880   4.941 -1.2249  0.4441 -1.5164
  404MOL0     H55693   3.006   1.633   4.798 -1.5063 -0.5176  3.8036
  404MOL0     H55694   3.049   1.794   4.724 -1.0282  1.7381  0.8895
  404MOL0     H55695   2.798   1.743   4.902  3.1136 -0.1455  1.5452
  404MOL0     H55696   2.869   1.906   4.869  0.6148  0.5453  1.0861
  404MOL0     H55697   2.799   1.697   4.678 -3.4163 -1.3983 -2.1982
  404MOL0     H55698   2.831   1.856   4.627  1.0949 -1.1720 -0.2324
  404MOL0     H55699   2.598   1.831   4.590 -0.6032 -0.5712 -0.8466
  404MOL0     H55700   2.600   1.712   4.731 -0.4436  1.6345  0.7385
  404MOL0     H55701   2.486   1.800   4.948 -1.9591  0.3916  0.3030
  404MOL0     H55702   2.455   1.990   5.154  2.0641  1.1513 -0.7814
  404MOL0     H55703   2.302   1.994   5.060 -0.9659  1.1151 -3.0147
  404MOL0     H55704   2.474   2.242   5.117 -0.1972  1.9621 -3.9565
  404MOL0     H55705   2.335   2.234   5.012  1.3801 -0.4498 -0.5765
  404MOL0     H55706   2.207   2.137   5.208  0.3540 -1.0209  1.6723
  404MOL0     H55707   2.344   2.175   5.317  2.0766 -1.1935 -1.2586
  404MOL0     H55708   2.221   2.396   5.130 -0.5056  1.6974  1.1740
  404MOL0     H55709   2.149   2.371   5.272 -1.3386 -0.3608 -3.7055
  404MOL0     H55710   2.124   2.594   5.198 -0.6692  1.1104  2.1249
  404MOL0     H55711   2.092   2.917   5.082 -0.5999  1.4417  1.6310
  404MOL0     H55712   2.034   2.899   5.242 -0.0123  2.7031 -1.6873
  404MOL0     H55713   2.013   2.768   5.115 -0.4389 -0.2414 -0.1875
  404MOL0     H55714   2.489   3.170   5.459  1.5319  2.7864  0.7109
  404MOL0     H55715   2.446   3.400   5.513 -0.3545  1.4425  0.2780
  404MOL0     H55716   2.354   3.759   5.424 -1.8113 -1.3667  1.3834
  404MOL0     H55717   2.366   3.604   5.503 -1.2542 -2.1170 -2.1359
  404MOL0     H55718   2.612   3.612   5.491  2.1131  2.2846  2.5759
  404MOL0     H55719   2.618   3.750   5.393  0.8960  0.8122 -0.0263
  404MOL0     H55720   2.441   3.777   5.632 -0.8305 -0.8161 -2.8177
  404MOL0     H55721   2.540   3.896   5.550  2.3983 -0.6900 -0.8774
  404MOL0     H55722   2.749   3.773   5.638 -0.9638 -0.7767 -0.9657
  404MOL0     H55723   2.639   3.697   5.756  1.8368  0.5767  0.0889
  404MOL0     H55724   2.736   3.854   5.881  0.8749  1.6720 -0.7966
  404MOL0     H55725   2.746   3.967   5.751  1.5612 -1.4997 -1.8512
  404MOL0     H55726   2.499   3.998   5.773  1.2151  2.5634 -0.9703
  404MOL0     H55727   2.584   4.044   5.920  1.8108 -0.7250  0.7642
  404MOL0     H55728   2.498   3.844   6.043 -1.5084  4.2521  0.5536
  404MOL0     H55729   2.466   3.759   5.898 -2.4865 -0.2449  0.9592
  404MOL0     H55730   2.254   3.828   5.985  0.3325  0.1314 -1.7610
  404MOL0     H55731   2.280   3.946   5.869  0.5883 -2.2709 -0.9580
  404MOL0     H55732   2.434   3.479   5.085  0.0318  3.0772  2.7543
  404MOL0     H55733   2.452   3.264   5.041  1.8918  2.1120  0.0327
  404MOL0     H55734   2.541   2.833   5.289  0.0144  1.1221  0.6819
  404MOL0     H55735   2.532   2.593   5.333 -0.4403  2.4359  2.4529
  404MOL0     H55736   3.657   1.951   5.108  1.1374 -0.1848  2.9179
  404MOL0     H55737   3.908   1.934   5.183  2.3158  1.1835 -1.5634
  404MOL0     H55738   4.296   1.894   5.210  1.4878  1.8352  1.0563
  404MOL0     H55739   4.501   2.014   5.201  0.4617  0.0558 -0.9849
  404MOL0     H55740   4.867   1.990   5.118 -0.4615  0.5809 -1.8616
  404MOL0     H55741   4.737   1.895   5.188 -0.5850 -0.2149  0.7711
  404MOL0     H55742   4.764   1.709   5.019  0.4906 -0.6707 -2.3062
  404MOL0     H55743   4.893   1.736   5.125 -0.1797 -3.2008 -1.7475
  404MOL0     H55744   4.919   1.683   4.885  0.3171 -0.5159  2.2627
  404MOL0     H55745   4.872   1.836   4.834  0.4562 -0.7910 -1.7962
  404MOL0     H55746   5.069   1.926   4.983  1.8298 -0.8733  3.1029
  404MOL0     H55747   5.110   1.850   4.831 -3.2467 -0.3015 -1.6663
  404MOL0     H55748   5.311   1.601   5.083  0.6436  0.5869 -0.9761
  404MOL0     H55749   4.616   1.794   4.845 -0.5718 -0.8355  1.3243
  404MOL0     H55750   4.434   1.658   4.728 -1.5724  3.3545 -1.7088
  404MOL0     H55751   4.435   1.542   4.871  0.8814  1.1828 -0.8191
  404MOL0     H55752   4.289   1.614   4.818 -1.0263  1.4065  1.7403
  405MOL0     O55753  10.099   6.219  11.206 -0.2831  0.4257  0.2203
  405MOL0     C55754   9.976   6.221  11.223 -0.0904  0.3159  0.6823
  405MOL0     O55755   9.905   6.245  11.336 -0.1758  0.3604 -0.0327
  405MOL0     C55756   9.953   6.314  11.444  0.3200 -0.1918 -0.4183
  405MOL0     C55757   9.903   6.285  11.571 -0.1285 -0.4132  0.8002
  405MOL0     C55758   9.932   6.366  11.683  0.4963  0.2664  0.2207
  405MOL0     C55759  10.031   6.467  11.671 -0.2714 -0.2045  0.9627
  405MOL0     O55760  10.042   6.547  11.778  0.7890 -0.1269 -0.4276
  405MOL0     C55761  10.156   6.630  11.765  0.0943  0.3345 -0.0592
  405MOL0     C55762  10.159   6.713  11.888  0.2610  0.1559 -0.4020
  405MOL0     C55763  10.031   6.812  11.900 -0.5859  0.3847  0.6603
  405MOL0     C55764  10.071   6.929  11.989 -0.8916 -0.2436  0.4126
  405MOL0     C55765   9.942   7.009  12.004  0.6426 -1.3471 -0.0390
  405MOL0     C55766   9.966   7.156  12.035 -0.1515 -0.6049  0.6434
  405MOL0     C55767   9.840   7.241  12.032 -1.1365 -0.3559  0.6271
  405MOL0     C55768   9.796   7.307  11.892 -0.4221 -0.5576 -0.4097
  405MOL0     N55769   9.661   7.274  11.854  0.4120  0.6513  0.4965
  405MOL0     C55770   9.596   7.148  11.840  0.9081  0.3735 -0.8877
  405MOL0     C55771   9.495   7.168  11.754  0.6047 -0.1101 -1.4271
  405MOL0     C55772   9.390   7.076  11.694 -0.2735  0.1970  0.4191
  405MOL0     C55773   9.273   7.057  11.796  0.6765  0.8954  0.4432
  405MOL0     C55774   9.141   6.997  11.726 -0.5354  0.3183  0.2084
  405MOL0     C55775   9.167   6.877  11.640 -1.4236 -0.2629 -0.0601
  405MOL0     O55776   9.044   6.809  11.623 -0.1774 -0.0750  0.2254
  405MOL0     C55777   9.006   6.699  11.698  0.1782 -0.4935  0.3238
  405MOL0     C55778   8.895   6.713  11.789 -0.3436 -0.5525  0.4346
  405MOL0     C55779   8.856   6.605  11.870 -0.0555 -0.4344  0.1727
  405MOL0     C55780   8.743   6.630  11.971  0.0833  0.4035  0.0583
  405MOL0     C55781   8.909   6.484  11.837 -0.1295  0.7070  0.0461
  405MOL0     C55782   8.874   6.351  11.905 -0.2182  0.1281 -0.8371
  405MOL0     O55783   8.892   6.239  11.831  0.1197 -0.8741  0.3630
  405MOL0     C55784   8.901   6.114  11.873  0.0091 -0.6640 -0.0112
  405MOL0     C55785   8.885   6.029  11.764  0.6329  0.5905 -0.3874
  405MOL0     C55786   8.881   5.887  11.778 -0.1753  0.5038 -0.5758
  405MOL0     C55787   8.919   5.831  11.898  0.3115 -0.5057  0.3500
  405MOL0     O55788   8.901   5.700  11.929  0.5879 -0.2021 -0.1333
  405MOL0     C55789   8.976   5.617  11.841 -0.4772 -0.2682 -0.8758
  405MOL0     C55790   8.980   5.470  11.888  0.2811  0.1774  0.4267
  405MOL0     C55791   9.108   5.411  11.825 -0.3391 -0.1487 -0.5979
  405MOL0     C55792   9.115   5.266  11.839  0.2352  0.3075  0.1542
  405MOL0     C55793   9.251   5.210  11.790  0.2007  0.1832  0.1818
  405MOL0     C55794   9.271   5.064  11.817  0.0136  0.5919 -0.1950
  405MOL0     C55795   9.415   5.023  11.770  0.8090  0.7846  0.2947
  405MOL0     C55796   9.443   4.866  11.776 -0.2164 -0.1343 -0.2315
  405MOL0    Cl55797   9.613   4.850  11.724 -0.2918  0.3208  0.4317
  405MOL0     C55798   8.930   5.918  12.009 -0.2017  0.3475  0.2355
  405MOL0     C55799   8.914   6.055  11.997 -0.1881  0.4638 -0.5438
  405MOL0     O55800   8.833   6.349  12.025  0.4383  0.1059  0.3293
  405MOL0     C55801   9.004   6.475  11.738 -1.2938  0.0108  0.9465
  405MOL0     C55802   9.061   6.580  11.667  0.8278 -0.0179  0.0277
  405MOL0     N55803   9.493   7.308  11.731  0.1427 -0.4733  0.0392
  405MOL0     N55804   9.594   7.367  11.790 -0.2628 -0.5583 -0.3022
  405MOL0     C55805  10.099   6.476  11.547  0.5339 -0.9550  0.1918
  405MOL0     C55806  10.058   6.401  11.435  0.8913  0.0392  0.0430
  405MOL0     C55807   9.889   6.175  11.113 -0.6249  1.4363 -0.4403
  405MOL0     C55808   9.830   6.041  11.115 -0.1568 -0.2850 -0.6266
  405MOL0     C55809   9.750   5.990  11.022  0.3344  0.3821  0.6147
  405MOL0     C55810   9.726   6.060  10.902  0.5109 -0.0599  0.6761
  405MOL0     O55811   9.645   5.994  10.815 -0.0127 -0.2032  0.3359
  405MOL0     C55812   9.699   5.880  10.747  0.3705  0.2157  0.6278
  405MOL0     C55813   9.603   5.853  10.631  0.7657 -0.3218 -0.4708
  405MOL0     C55814   9.483   5.765  10.663  0.1589  0.5162  0.5460
  405MOL0     C55815   9.351   5.835  10.647  0.4300 -0.1120  0.0589
  405MOL0     C55816   9.234   5.754  10.686 -0.0007  0.0808  0.0946
  405MOL0     C55817   9.141   5.682  10.713 -0.8911  0.0639 -0.9936
  405MOL0     C55818   9.785   6.187  10.890  1.0069  0.3932 -0.5534
  405MOL0     C55819   9.870   6.238  10.994  0.3576 -0.0806  1.2793
  405MOL0     C55820   9.941   6.368  10.973  0.2487 -0.9801 -0.3175
  405MOL0     H55821   9.826   6.208  11.569 -2.8371  2.1153 -1.0991
  405MOL0     H55822   9.878   6.362  11.777 -1.0800  3.3571 -0.4244
  405MOL0     H55823  10.154   6.709  11.689 -0.5404  2.5924  2.1829
  405MOL0     H55824  10.250   6.579  11.744  1.0856  1.5443  1.3309
  405MOL0     H55825  10.152   6.644  11.973 -0.6005 -0.0628 -0.6415
  405MOL0     H55826  10.254   6.767  11.884  0.5574 -0.3697 -0.5480
  405MOL0     H55827  10.022   6.846  11.796  2.0457  0.2604  0.3287
  405MOL0     H55828   9.939   6.760  11.930 -0.6371 -1.0390 -1.7014
  405MOL0     H55829  10.090   6.899  12.092 -0.7453  1.9093  1.0741
  405MOL0     H55830  10.145   6.994  11.942 -2.2867  2.0644  1.2081
  405MOL0     H55831   9.874   6.970  12.080 -2.0589 -1.4877 -2.4013
  405MOL0     H55832   9.898   7.005  11.905 -3.1737  0.8394  1.3538
  405MOL0     H55833  10.000   7.155  12.139  1.7104  0.7584  0.1016
  405MOL0     H55834  10.038   7.207  11.971  0.2291 -2.2567 -0.3083
  405MOL0     H55835   9.857   7.328  12.097  1.2970  0.5198 -1.0335
  405MOL0     H55836   9.771   7.175  12.085  0.6169 -1.8544  1.1434
  405MOL0     H55837   9.825   7.411  11.872  1.3856 -0.9886 -0.2433
  405MOL0     H55838   9.866   7.251  11.829  1.5686 -1.8087  2.6683
  405MOL0     H55839   9.622   7.055  11.891  0.3335 -0.3407 -1.8758
  405MOL0     H55840   9.449   6.993  11.655 -0.5554  0.6774 -1.0739
  405MOL0     H55841   9.351   7.129  11.607  2.3057  0.2143 -0.8262
  405MOL0     H55842   9.311   6.999  11.881 -1.0016  1.9363  1.9873
  405MOL0     H55843   9.263   7.160  11.834  2.7485  0.1741  3.3051
  405MOL0     H55844   9.060   6.975  11.797 -0.4473  0.2161  0.2796
  405MOL0     H55845   9.103   7.070  11.654  1.9209  0.7058 -0.7717
  405MOL0     H55846   9.203   6.895  11.538  3.7313 -4.4361  0.6225
  405MOL0     H55847   9.243   6.818  11.691  0.1986 -0.8455 -2.9427
  405MOL0     H55848   8.846   6.809  11.799 -0.9804 -0.7453 -0.7333
  405MOL0     H55849   8.778   6.656  12.072 -3.3459  0.2477  1.4327
  405MOL0     H55850   8.678   6.543  11.981  0.4590  0.1073 -0.0389
  405MOL0     H55851   8.677   6.710  11.936 -0.2047  0.7126  1.2476
  405MOL0     H55852   8.867   6.079  11.669  0.4809 -0.8967 -1.1738
  405MOL0     H55853   8.862   5.834  11.685  1.3182 -2.6541  0.7504
  405MOL0     H55854   8.934   5.624  11.740 -2.1290 -0.0122 -0.1969
  405MOL0     H55855   9.076   5.662  11.850 -0.7403 -0.0958  1.9747
  405MOL0     H55856   8.977   5.480  11.997 -1.9516  0.5652  0.3747
  405MOL0     H55857   8.896   5.408  11.854  0.3821 -0.6800  1.6743
  405MOL0     H55858   9.195   5.448  11.881  1.6717 -0.9541 -2.9773
  405MOL0     H55859   9.112   5.438  11.718 -0.4862 -0.0613 -0.5826
  405MOL0     H55860   9.033   5.217  11.785 -1.5311  2.5527  0.6691
  405MOL0     H55861   9.105   5.241  11.945 -1.3187 -3.2087 -0.6637
  405MOL0     H55862   9.266   5.206  11.682 -0.1520 -2.4810  0.1843
  405MOL0     H55863   9.329   5.276  11.830  1.0894  1.0903 -2.8293
  405MOL0     H55864   9.199   4.996  11.772 -1.0017  1.9541 -0.7095
  405MOL0     H55865   9.268   5.065  11.926  3.2155  2.4805  0.0080
  405MOL0     H55866   9.492   5.069  11.834  2.7157 -1.7914  0.0295
  405MOL0     H55867   9.430   5.068  11.672 -3.4799  1.4129 -0.2703
  405MOL0     H55868   9.375   4.798  11.724  0.8316 -1.8982  0.5963
  405MOL0     H55869   9.443   4.841  11.883  1.1704  0.8095  0.0053
  405MOL0     H55870   8.936   5.874  12.108  0.9725  0.2305  0.1208
  405MOL0     H55871   8.907   6.117  12.085 -0.6844  0.3757 -0.5172
  405MOL0     H55872   9.049   6.382  11.704  4.1929  2.5444  0.1467
  405MOL0     H55873   9.126   6.565  11.582 -0.4854  0.2244 -1.0534
  405MOL0     H55874  10.182   6.544  11.530  1.5871 -1.6250  2.3544
  405MOL0     H55875  10.103   6.427  11.340  2.8689  0.0779  0.9559
  405MOL0     H55876   9.830   5.992  11.212  0.1249 -1.4030 -1.1818
  405MOL0     H55877   9.706   5.891  11.028  1.0172 -0.0962 -1.4581
  405MOL0     H55878   9.799   5.911  10.715 -1.5468  3.7879 -2.7254
  405MOL0     H55879   9.696   5.794  10.815  0.9876 -1.0247 -0.8592
  405MOL0     H55880   9.651   5.796  10.551  0.1840 -0.8885 -0.4307
  405MOL0     H55881   9.574   5.946  10.581  1.8444  1.8123  2.5397
  405MOL0     H55882   9.482   5.678  10.598 -1.3613  1.4376 -0.7352
  405MOL0     H55883   9.497   5.723  10.763 -1.9738 -1.8337 -0.0424
  405MOL0     H55884   9.336   5.877  10.547  1.4392 -0.9841 -0.4851
  405MOL0     H55885   9.359   5.916  10.720 -1.0573  0.4311 -0.3395
  405MOL0     H55886   9.065   5.611  10.740  1.0156 -1.0567  1.7939
  405MOL0     H55887   9.773   6.247  10.800 -0.3118  0.7000 -0.1831
  405MOL0     H55888  10.040   6.355  10.928  0.3403  0.7886 -0.7303
  405MOL0     H55889   9.892   6.439  10.906 -0.9109 -2.1898 -0.7815
  405MOL0     H55890   9.965   6.418  11.068  1.2278 -0.4588 -0.8228
  406MOL0     O55891   5.913   3.596   6.067  0.4704 -0.3303 -0.5573
  406MOL0     C55892   5.933   3.601   6.187  0.0827 -0.0830 -0.3496
  406MOL0     O55893   6.031   3.670   6.248 -0.3499 -0.2848 -0.2659
  406MOL0     C55894   6.111   3.753   6.171  0.4381  0.1271 -0.3441
  406MOL0     C55895   6.134   3.894   6.195  0.8936 -0.3697  0.0349
  406MOL0     C55896   6.223   3.974   6.131 -0.1115 -0.4452  0.3639
  406MOL0     C55897   6.294   3.916   6.031 -0.0807  0.1928  0.3513
  406MOL0     O55898   6.382   3.988   5.959 -0.0453  0.6373 -0.1450
  406MOL0     C55899   6.422   4.124   5.973 -0.6207 -0.2103 -0.4468
  406MOL0     C55900   6.524   4.125   6.084 -0.2371 -0.2666  0.1829
  406MOL0     C55901   6.608   4.258   6.069 -0.4238  0.0773 -0.7627
  406MOL0     C55902   6.714   4.247   6.178 -0.7474 -0.4832 -0.1781
  406MOL0     C55903   6.821   4.359   6.161  0.6056  0.5981  0.2696
  406MOL0     C55904   6.901   4.406   6.286  0.5716  0.3039  0.2912
  406MOL0     C55905   6.958   4.297   6.365 -0.3633 -0.4263 -0.1788
  406MOL0     C55906   7.056   4.353   6.473 -0.0158 -0.6625  0.2263
  406MOL0     N55907   6.993   4.409   6.592 -0.0088  0.8023  0.7192
  406MOL0     C55908   6.963   4.539   6.604 -0.3410 -0.4796 -0.5549
  406MOL0     C55909   6.938   4.560   6.734  0.5134 -0.7313  0.4567
  406MOL0     C55910   6.894   4.694   6.795  0.3199  0.2912 -0.0763
  406MOL0     C55911   6.780   4.745   6.720  0.4839 -0.7069  0.3724
  406MOL0     C55912   6.717   4.854   6.806  0.1115 -0.0581  0.7825
  406MOL0     C55913   6.599   4.912   6.722 -0.2526 -0.4595  0.6402
  406MOL0     O55914   6.522   5.004   6.811  0.1281  0.5658  1.1009
  406MOL0     C55915   6.567   5.140   6.822 -0.6988 -0.1346  0.2616
  406MOL0     C55916   6.681   5.195   6.748 -0.9302 -0.5836 -0.0469
  406MOL0     C55917   6.713   5.337   6.750 -0.8712  0.9028  1.1869
  406MOL0     C55918   6.816   5.392   6.651 -0.3565  0.3150 -0.4144
  406MOL0     C55919   6.643   5.420   6.843 -0.3673  0.4984 -0.8403
  406MOL0     C55920   6.657   5.564   6.864  0.3576 -0.5948 -0.0925
  406MOL0     O55921   6.635   5.613   7.000 -0.0830  0.0906 -0.6066
  406MOL0     C55922   6.623   5.746   7.030  0.3074  0.2278  0.4574
  406MOL0     C55923   6.531   5.771   7.128 -0.3071  0.1503 -0.3125
  406MOL0     C55924   6.506   5.911   7.168 -0.3539  2.0234  0.3063
  406MOL0     C55925   6.577   6.012   7.113 -0.0765 -0.1895 -0.0016
  406MOL0     O55926   6.552   6.136   7.156  0.1645 -0.4849  0.7448
  406MOL0     C55927   6.642   6.239   7.123 -0.1944 -0.5407  0.5123
  406MOL0     C55928   6.595   6.326   7.003 -0.1661 -1.0672  0.9097
  406MOL0     C55929   6.692   6.427   6.942  0.5447 -0.3917  0.3557
  406MOL0     C55930   6.801   6.339   6.882  0.3971  0.0721 -0.5510
  406MOL0     C55931   6.913   6.422   6.819 -0.1579 -0.6399  0.6112
  406MOL0     C55932   7.003   6.495   6.925  0.3016 -0.0484  0.0692
  406MOL0     C55933   7.110   6.403   6.985  0.7895 -0.4298  0.0980
  406MOL0     C55934   7.188   6.480   7.085  0.3872 -1.1087 -0.0935
  406MOL0    Cl55935   7.295   6.357   7.161  0.4019 -0.0008  0.1183
  406MOL0     C55936   6.653   5.987   6.994  0.4695  0.1470 -0.8549
  406MOL0     C55937   6.678   5.856   6.962 -0.3263  0.1016 -0.4333
  406MOL0     O55938   6.683   5.637   6.767 -0.4812  0.3062 -0.0547
  406MOL0     C55939   6.530   5.361   6.917  0.3572  0.0931 -0.2468
  406MOL0     C55940   6.500   5.231   6.900  0.6685 -0.1769  0.0330
  406MOL0     N55941   6.982   4.447   6.808 -0.0229 -0.2988  0.2540
  406MOL0     N55942   7.007   4.356   6.716  0.5918  1.2366  0.5908
  406MOL0     C55943   6.269   3.785   5.987 -0.0741 -0.1471 -0.0897
  406MOL0     C55944   6.181   3.707   6.062  0.0116 -0.5914  0.6331
  406MOL0     C55945   5.847   3.521   6.278 -0.1181 -0.3051  0.1425
  406MOL0     C55946   5.892   3.497   6.409 -0.3437 -0.2710 -0.9234
  406MOL0     C55947   5.815   3.415   6.492  0.1763  0.1073  0.3462
  406MOL0     C55948   5.702   3.352   6.442  0.7757  0.0122 -0.4245
  406MOL0     O55949   5.641   3.258   6.523  0.0758  0.5619  0.9175
  406MOL0     C55950   5.536   3.321   6.602  0.4262 -0.7742  0.3837
  406MOL0     C55951   5.434   3.211   6.625 -0.3266  0.0681 -1.0103
  406MOL0     C55952   5.367   3.189   6.496  0.2806 -0.2637  1.1551
  406MOL0     C55953   5.432   3.081   6.397  0.4868 -0.1212 -1.0055
  406MOL0     C55954   5.424   2.951   6.466 -0.3482 -0.5917  0.7789
  406MOL0     C55955   5.421   2.834   6.504  0.0792  0.3219 -0.6845
  406MOL0     C55956   5.644   3.381   6.324 -0.1497  0.0637  0.1098
  406MOL0     C55957   5.717   3.465   6.238 -0.0051  0.7042  0.0464
  406MOL0     C55958   5.657   3.495   6.112  0.4780  0.9724  0.8362
  406MOL0     H55959   6.077   3.941   6.274 -0.8267 -0.4858 -1.0724
  406MOL0     H55960   6.229   4.078   6.161 -1.2904 -0.5775  1.1446
  406MOL0     H55961   6.343   4.197   5.991  0.9595  2.1038 -2.2635
  406MOL0     H55962   6.475   4.154   5.882  1.1887  1.6282  1.1045
  406MOL0     H55963   6.476   4.120   6.183  0.3894 -2.8908  0.4423
  406MOL0     H55964   6.599   4.046   6.073  2.4628  2.0542  0.7569
  406MOL0     H55965   6.649   4.271   5.968 -1.6912  2.1271 -1.0520
  406MOL0     H55966   6.556   4.351   6.092  2.6725  1.4129  1.7591
  406MOL0     H55967   6.663   4.249   6.274 -1.2301  0.6727 -0.4288
  406MOL0     H55968   6.769   4.153   6.181  2.2061  1.0608 -1.8250
  406MOL0     H55969   6.768   4.443   6.114 -0.4817  0.8155  1.8241
  406MOL0     H55970   6.890   4.316   6.087 -2.1027 -1.2655 -1.3549
  406MOL0     H55971   6.986   4.470   6.261  0.4273  0.8965  1.2620
  406MOL0     H55972   6.828   4.464   6.344 -1.3988  1.0054 -2.6434
  406MOL0     H55973   7.020   4.237   6.297 -0.4139 -1.3435  0.5750
  406MOL0     H55974   6.883   4.237   6.417  0.2885 -0.4275  0.7746
  406MOL0     H55975   7.136   4.283   6.498  4.2404  3.3634 -0.6577
  406MOL0     H55976   7.116   4.437   6.435  2.7088 -2.6089 -0.0931
  406MOL0     H55977   6.971   4.608   6.521 -0.3775 -1.1650 -1.1451
  406MOL0     H55978   6.984   4.754   6.816 -0.0148 -0.1428  2.9650
  406MOL0     H55979   6.863   4.668   6.896  2.2426 -2.2371 -0.0436
  406MOL0     H55980   6.816   4.798   6.632 -0.0429 -1.1524 -0.1127
  406MOL0     H55981   6.698   4.680   6.689 -1.0921  1.3949 -0.0704
  406MOL0     H55982   6.682   4.797   6.892 -1.5858  2.5292  1.9451
  406MOL0     H55983   6.793   4.930   6.830  2.3313 -2.1515  0.7349
  406MOL0     H55984   6.626   4.958   6.626 -1.9680 -2.2572 -0.7822
  406MOL0     H55985   6.534   4.835   6.680 -0.2411  0.0751 -0.3888
  406MOL0     H55986   6.736   5.138   6.674  1.3241  1.7250 -0.3030
  406MOL0     H55987   6.890   5.450   6.706  0.5534 -1.3835  0.2328
  406MOL0     H55988   6.769   5.458   6.578 -0.1567 -0.6165 -1.4056
  406MOL0     H55989   6.866   5.311   6.597 -2.0751 -1.0947  0.0160
  406MOL0     H55990   6.494   5.687   7.186 -0.6415  0.9570  0.6762
  406MOL0     H55991   6.448   5.929   7.258  0.6514 -2.1070  1.9892
  406MOL0     H55992   6.637   6.317   7.199  1.2727  0.9428 -0.8053
  406MOL0     H55993   6.747   6.208   7.118  1.5867  4.3699  1.6949
  406MOL0     H55994   6.582   6.256   6.920 -0.0010 -1.1038  0.9143
  406MOL0     H55995   6.498   6.374   7.018  1.0305  1.6355  0.5523
  406MOL0     H55996   6.724   6.491   7.025  0.2567 -2.4855  2.1538
  406MOL0     H55997   6.640   6.483   6.864  0.6512 -2.4388 -1.2476
  406MOL0     H55998   6.770   6.278   6.797  3.0259 -0.3585 -1.2937
  406MOL0     H55999   6.838   6.264   6.953  2.1536 -0.2346 -1.7374
  406MOL0     H56000   6.982   6.367   6.756 -1.9044 -2.2675  0.0310
  406MOL0     H56001   6.863   6.503   6.766 -2.2543 -2.3747 -0.1872
  406MOL0     H56002   6.939   6.536   7.003 -1.2745  0.3518 -1.3795
  406MOL0     H56003   7.055   6.583   6.885 -0.0152  0.3750  0.5782
  406MOL0     H56004   7.180   6.366   6.909 -0.9340 -1.4070 -1.0782
  406MOL0     H56005   7.063   6.317   7.033 -1.6562  2.2695  3.0175
  406MOL0     H56006   7.113   6.526   7.150  0.7018  0.5083 -0.8218
  406MOL0     H56007   7.247   6.559   7.037 -0.4806 -0.1921  0.2856
  406MOL0     H56008   6.694   6.073   6.943 -1.3848 -0.2229 -3.1579
  406MOL0     H56009   6.745   5.830   6.881 -0.4805 -1.5371 -0.0794
  406MOL0     H56010   6.466   5.420   6.982 -1.4889 -0.2852 -1.6367
  406MOL0     H56011   6.402   5.199   6.936  0.5925 -0.0114 -0.0231
  406MOL0     H56012   6.328   3.742   5.906 -1.1592 -4.7186  1.2769
  406MOL0     H56013   6.157   3.605   6.034  0.4313 -0.5214  0.0073
  406MOL0     H56014   5.979   3.544   6.453 -0.0853 -2.3689  0.9792
  406MOL0     H56015   5.843   3.399   6.595  0.2575 -1.7033  0.0769
  406MOL0     H56016   5.583   3.347   6.697 -0.5522 -0.5148  0.8082
  406MOL0     H56017   5.499   3.412   6.553 -1.3105 -2.4378 -1.6032
  406MOL0     H56018   5.361   3.231   6.703  0.7146  0.5111 -0.1166
  406MOL0     H56019   5.485   3.119   6.656 -3.2239 -1.8309 -1.4522
  406MOL0     H56020   5.263   3.161   6.515 -0.1360  0.5796  0.1540
  406MOL0     H56021   5.363   3.277   6.432 -0.7261 -2.2958 -1.7544
  406MOL0     H56022   5.540   3.090   6.380  0.5916  0.4786 -0.0923
  406MOL0     H56023   5.388   3.087   6.297 -0.3605  1.3429 -0.5761
  406MOL0     H56024   5.414   2.732   6.537 -0.6621 -0.0810 -2.0228
  406MOL0     H56025   5.549   3.336   6.298 -0.1710  0.5756 -0.7470
  406MOL0     H56026   5.664   3.603   6.097 -0.1500  0.6734 -2.2366
  406MOL0     H56027   5.703   3.434   6.034 -0.3480  0.0056  1.0881
  406MOL0     H56028   5.548   3.481   6.110  0.4101  1.5582 -0.0171
  407MOL0     O56029   8.720   0.076   2.013 -0.0085 -0.5115 -0.2762
  407MOL0     C56030   8.620   0.116   2.075  0.6799 -0.1509 -0.6302
  407MOL0     O56031   8.566   0.242   2.062 -0.9443 -0.9300 -0.3972
  407MOL0     C56032   8.617   0.324   1.967  0.6649  0.0762  0.2769
  407MOL0     C56033   8.552   0.357   1.847 -0.3573 -0.0077  1.0336
  407MOL0     C56034   8.620   0.443   1.758 -0.1195 -0.4069 -0.2435
  407MOL0     C56035   8.742   0.507   1.784 -0.3806 -0.2075 -1.0112
  407MOL0     O56036   8.799   0.614   1.708 -0.2679 -0.4944 -0.1895
  407MOL0     C56037   8.931   0.656   1.739 -0.3559 -0.4056 -0.4110
  407MOL0     C56038   8.988   0.742   1.619 -0.3061 -0.4584  0.2785
  407MOL0     C56039   8.964   0.882   1.650 -0.7004  0.0978 -0.1216
  407MOL0     C56040   9.009   0.967   1.533  0.1383  0.1035 -0.0738
  407MOL0     C56041   8.963   1.117   1.542  0.3697  1.2685 -1.0124
  407MOL0     C56042   9.003   1.218   1.433 -0.3578 -0.5784 -0.3553
  407MOL0     C56043   9.155   1.256   1.433 -0.2292  0.8416 -0.4158
  407MOL0     C56044   9.197   1.351   1.318 -0.3991 -0.2717 -0.9298
  407MOL0     N56045   9.336   1.392   1.336  0.1361  0.3391  0.7646
  407MOL0     C56046   9.397   1.456   1.436 -0.2390 -0.2938 -0.3365
  407MOL0     C56047   9.522   1.485   1.387  1.0903 -0.7080  0.2356
  407MOL0     C56048   9.632   1.549   1.454 -0.6145 -0.0259 -1.7602
  407MOL0     C56049   9.636   1.708   1.458  0.1039 -0.1735 -0.1214
  407MOL0     C56050   9.630   1.760   1.601  1.1551  0.4081  1.4694
  407MOL0     C56051   9.500   1.709   1.669  0.3698  0.3164 -0.1354
  407MOL0     O56052   9.386   1.742   1.588 -0.5138  0.5447 -0.8876
  407MOL0     C56053   9.261   1.692   1.631 -0.0488 -0.1152 -0.1994
  407MOL0     C56054   9.234   1.607   1.745  0.3009  1.2162  0.0297
  407MOL0     C56055   9.106   1.553   1.761 -0.2361  0.1398  0.0259
  407MOL0     C56056   9.071   1.461   1.872  0.1742  0.6836 -0.4091
  407MOL0     C56057   8.997   1.609   1.683 -0.6655 -1.4314 -0.1527
  407MOL0     C56058   8.854   1.561   1.697  0.7377  0.6258 -0.0254
  407MOL0     O56059   8.829   1.435   1.741 -0.2684  0.1657  0.4697
  407MOL0     C56060   8.707   1.399   1.794 -0.0408 -0.2287 -0.5588
  407MOL0     C56061   8.634   1.481   1.871 -0.0709  0.0411  0.3109
  407MOL0     C56062   8.504   1.436   1.928  0.4508  0.4128 -0.0943
  407MOL0     C56063   8.467   1.309   1.895  0.3709 -0.0833 -0.0209
  407MOL0     O56064   8.355   1.270   1.964  0.4369 -0.0079  1.0460
  407MOL0     C56065   8.347   1.134   1.993 -0.5453  0.3836  0.1356
  407MOL0     C56066   8.221   1.117   2.074  0.7938 -0.3392  0.3570
  407MOL0     C56067   8.207   0.990   2.161  1.0047  0.9487  0.3805
  407MOL0     C56068   8.195   0.867   2.069  1.0669  0.8101  0.1257
  407MOL0     C56069   8.190   0.735   2.148 -0.3786 -0.3373  0.2393
  407MOL0     C56070   8.186   0.616   2.050 -1.1475  0.0819  0.0571
  407MOL0     C56071   8.161   0.481   2.125 -0.3466 -0.8036 -0.8314
  407MOL0     C56072   8.141   0.359   2.038 -0.6550  0.0772  0.1566
  407MOL0    Cl56073   8.085   0.219   2.137 -0.0876 -0.1472  0.1641
  407MOL0     C56074   8.536   1.231   1.802 -0.0091  1.1280 -0.0546
  407MOL0     C56075   8.659   1.280   1.749  0.1186  0.4577 -0.2621
  407MOL0     O56076   8.769   1.639   1.675  0.5215 -0.1564 -0.3016
  407MOL0     C56077   9.029   1.690   1.568  0.2858 -0.5981  0.2701
  407MOL0     C56078   9.155   1.732   1.543 -0.7643  0.6196 -0.6754
  407MOL0     N56079   9.529   1.442   1.259 -0.7522  0.3789 -1.2071
  407MOL0     N56080   9.426   1.378   1.232  0.1034  0.2385  0.7999
  407MOL0     C56081   8.798   0.470   1.900 -0.5381 -0.2888 -0.2277
  407MOL0     C56082   8.746   0.378   1.987 -0.4896 -0.0768  0.1948
  407MOL0     C56083   8.534   0.016   2.152  0.3415  0.1594  0.0206
  407MOL0     C56084   8.401   0.057   2.195  0.4841 -0.1716 -1.0929
  407MOL0     C56085   8.325  -0.038   2.267 -0.4000  0.0628 -0.3676
  407MOL0     C56086   8.368  -0.163   2.284 -0.2287 -0.2183  0.1699
  407MOL0     O56087   8.293  -0.269   2.336 -0.1373 -0.6559 -0.2446
  407MOL0     C56088   8.154  -0.263   2.380 -0.1864  0.0515 -0.0140
  407MOL0     C56089   8.063  -0.234   2.259  0.0847  0.7401  1.0241
  407MOL0     C56090   7.924  -0.206   2.298 -0.2127  0.5738 -0.5407
  407MOL0     C56091   7.834  -0.187   2.173  0.3610 -0.4057 -0.9802
  407MOL0     C56092   7.706  -0.133   2.226 -0.0882 -0.1482 -0.7936
  407MOL0     C56093   7.601  -0.093   2.276 -0.4323  0.3639 -0.1546
  407MOL0     C56094   8.495  -0.203   2.242 -0.3559 -0.5465 -0.6422
  407MOL0     C56095   8.580  -0.115   2.172 -0.3607 -0.5664 -0.9109
  407MOL0     C56096   8.717  -0.167   2.135 -0.6865  0.6996 -0.3575
  407MOL0     H56097   8.452   0.333   1.812 -0.9382  0.1757  2.4856
  407MOL0     H56098   8.558   0.480   1.677  0.6564 -1.9128 -1.5822
  407MOL0     H56099   8.994   0.566   1.747  0.8290  0.1688 -2.5517
  407MOL0     H56100   8.949   0.707   1.835 -0.9770 -2.8791  1.1056
  407MOL0     H56101   9.096   0.731   1.600 -0.0628  1.6439  0.1847
  407MOL0     H56102   8.936   0.717   1.526  0.1496  1.1603 -0.4689
  407MOL0     H56103   8.858   0.907   1.661 -0.4947  2.1948 -2.0735
  407MOL0     H56104   9.020   0.912   1.739  0.1955 -1.9179  0.0335
  407MOL0     H56105   9.118   0.977   1.532  0.1981  0.2627  2.1873
  407MOL0     H56106   8.967   0.926   1.441 -0.6237 -0.9120  0.6986
  407MOL0     H56107   9.000   1.173   1.629 -0.1534  1.7545 -1.0950
  407MOL0     H56108   8.854   1.111   1.547  0.4325  0.7762  1.4657
  407MOL0     H56109   8.961   1.172   1.343  0.1163 -0.9675 -0.3836
  407MOL0     H56110   8.941   1.307   1.445 -1.7407 -1.3044 -1.7819
  407MOL0     H56111   9.217   1.166   1.432 -0.2496  0.8218 -1.3321
  407MOL0     H56112   9.168   1.309   1.528 -2.3834 -2.2498  1.7829
  407MOL0     H56113   9.186   1.293   1.226 -0.5602 -1.8180  0.0062
  407MOL0     H56114   9.126   1.434   1.323 -1.5728 -1.1702 -2.1331
  407MOL0     H56115   9.360   1.475   1.537  0.9709  1.8478 -0.2584
  407MOL0     H56116   9.729   1.531   1.407  1.7945  2.2106  1.8918
  407MOL0     H56117   9.652   1.513   1.555  3.3098  1.1332 -1.9486
  407MOL0     H56118   9.730   1.735   1.408  0.2515  0.0312  0.2660
  407MOL0     H56119   9.545   1.732   1.403 -1.8528 -2.9014  1.6854
  407MOL0     H56120   9.721   1.732   1.654  2.0013 -1.0863 -0.6295
  407MOL0     H56121   9.624   1.869   1.597 -5.6547  0.4057  0.1308
  407MOL0     H56122   9.506   1.601   1.680 -0.9551  0.4774  4.1582
  407MOL0     H56123   9.504   1.755   1.768  2.3140  2.2494 -1.0199
  407MOL0     H56124   9.316   1.583   1.813  0.4642 -1.4249 -0.9682
  407MOL0     H56125   9.048   1.362   1.830  0.1835  0.4527  0.1198
  407MOL0     H56126   8.991   1.491   1.940  0.4655 -0.4438  0.4642
  407MOL0     H56127   9.164   1.451   1.929 -0.4950 -1.0807  0.4625
  407MOL0     H56128   8.671   1.581   1.890  1.4369 -0.2583 -0.8889
  407MOL0     H56129   8.442   1.503   1.987  0.3498 -0.4280  0.7791
  407MOL0     H56130   8.326   1.086   1.897  3.0370  1.2097 -1.1944
  407MOL0     H56131   8.431   1.103   2.056  1.9645  3.8545 -1.2065
  407MOL0     H56132   8.213   1.201   2.143 -0.9553 -1.6665  1.8915
  407MOL0     H56133   8.130   1.126   2.014  1.7613  0.3777 -1.0565
  407MOL0     H56134   8.115   1.013   2.217  0.1653  2.2363 -1.4484
  407MOL0     H56135   8.285   0.973   2.236 -0.0947  2.5607  2.0040
  407MOL0     H56136   8.270   0.875   1.990 -0.8692  0.3740 -1.8404
  407MOL0     H56137   8.100   0.877   2.016  1.9979  3.3761 -1.2134
  407MOL0     H56138   8.281   0.729   2.208 -0.6189  1.9398  0.9446
  407MOL0     H56139   8.115   0.730   2.228  0.6962  0.7561  1.3616
  407MOL0     H56140   8.280   0.614   1.994 -2.5351  1.7796 -2.4841
  407MOL0     H56141   8.106   0.628   1.977  0.2990 -1.0901 -1.8227
  407MOL0     H56142   8.074   0.497   2.189  2.8221  0.7997  3.5463
  407MOL0     H56143   8.250   0.468   2.188  2.3327 -0.0210 -4.1186
  407MOL0     H56144   8.231   0.338   1.981 -0.6642 -0.3297  0.2910
  407MOL0     H56145   8.066   0.388   1.964  0.1785 -1.2761 -1.2517
  407MOL0     H56146   8.499   1.137   1.762 -1.2356  1.0689  1.1528
  407MOL0     H56147   8.724   1.225   1.682  2.0234  1.6088  0.5798
  407MOL0     H56148   8.955   1.698   1.489  1.7738 -4.8426 -1.8730
  407MOL0     H56149   9.161   1.782   1.447 -1.5493  1.5215 -0.2662
  407MOL0     H56150   8.893   0.511   1.935 -0.2142 -0.9855 -0.2808
  407MOL0     H56151   8.805   0.353   2.075  3.3680 -0.0282 -2.1468
  407MOL0     H56152   8.366   0.157   2.172  2.1797  0.5951 -0.5301
  407MOL0     H56153   8.225  -0.004   2.292  0.6899  0.6428  4.1661
  407MOL0     H56154   8.140  -0.358   2.433  1.7455  0.2925  1.0292
  407MOL0     H56155   8.144  -0.187   2.458 -1.4228  0.2973 -0.3877
  407MOL0     H56156   8.065  -0.319   2.190  1.7935  0.3048  1.5768
  407MOL0     H56157   8.096  -0.144   2.207  4.4167  0.5794  3.1071
  407MOL0     H56158   7.905  -0.296   2.356  3.4011  0.3502  0.5573
  407MOL0     H56159   7.912  -0.121   2.365 -0.8721 -0.1995  0.3403
  407MOL0     H56160   7.823  -0.273   2.107 -1.2131  0.0977 -1.4150
  407MOL0     H56161   7.882  -0.111   2.111  1.2881 -1.0337 -1.0498
  407MOL0     H56162   7.504  -0.075   2.319 -1.1227 -0.5167 -1.2784
  407MOL0     H56163   8.531  -0.305   2.252  1.3461 -0.3579 -3.6450
  407MOL0     H56164   8.723  -0.267   2.178  3.1981  0.7028 -0.6036
  407MOL0     H56165   8.734  -0.175   2.027  1.6205  3.3278 -0.3007
  407MOL0     H56166   8.805  -0.110   2.165  1.0552 -1.5682 -0.9294
  408MOL0     O56167   4.128   6.128   3.572 -0.4959 -0.0807  0.4637
  408MOL0     C56168   4.070   6.194   3.659 -0.5941  0.4682 -0.1647
  408MOL0     O56169   3.943   6.224   3.659  0.1594 -0.2582 -0.7148
  408MOL0     C56170   3.884   6.228   3.539 -0.5200 -0.2546  0.3410
  408MOL0     C56171   3.888   6.339   3.451 -0.4479  0.6710 -0.2446
  408MOL0     C56172   3.833   6.324   3.325  0.0643 -0.1698  0.0242
  408MOL0     C56173   3.761   6.209   3.298 -0.5164  0.7057 -0.3420
  408MOL0     O56174   3.679   6.204   3.190  0.5795 -0.2368  0.3520
  408MOL0     C56175   3.638   6.328   3.127  0.1393  0.9211  0.3716
  408MOL0     C56176   3.564   6.308   2.987  0.1871 -0.7129 -0.3380
  408MOL0     C56177   3.631   6.200   2.906 -0.1384 -0.3089 -1.0319
  408MOL0     C56178   3.567   6.204   2.764  0.2167  0.1940 -0.3521
  408MOL0     C56179   3.636   6.110   2.664 -0.9351 -0.2760 -0.4226
  408MOL0     C56180   3.632   5.972   2.721  0.0578  0.1046  0.0384
  408MOL0     C56181   3.664   5.845   2.629 -0.1588 -0.2017  0.2018
  408MOL0     C56182   3.813   5.827   2.607  0.2751 -0.9132  0.2937
  408MOL0     N56183   3.829   5.712   2.518  0.4089 -0.0851  0.0055
  408MOL0     C56184   3.801   5.717   2.386 -0.9981 -0.1903  0.1367
  408MOL0     C56185   3.816   5.589   2.343  0.1677  0.1718  0.3482
  408MOL0     C56186   3.805   5.551   2.194 -0.3687 -0.6226  0.1085
  408MOL0     C56187   3.950   5.555   2.129 -0.2455 -0.5805 -0.0698
  408MOL0     C56188   4.010   5.698   2.116  0.1279  0.0940 -0.0699
  408MOL0     C56189   3.954   5.780   2.001 -0.4184  0.5979 -0.4018
  408MOL0     O56190   4.024   5.902   1.988  0.3079 -0.5730 -0.0601
  408MOL0     C56191   3.991   5.991   1.883  0.0934 -0.0612 -0.4134
  408MOL0     C56192   3.897   5.962   1.785  0.1512 -0.6968  0.2749
  408MOL0     C56193   3.881   6.047   1.671  0.5571  0.2058  1.2734
  408MOL0     C56194   3.755   6.003   1.581 -0.2639 -0.0340 -0.0191
  408MOL0     C56195   3.970   6.155   1.650 -0.3103  0.8888  0.4829
  408MOL0     C56196   3.961   6.244   1.535  0.2668 -0.4185  0.2668
  408MOL0     O56197   4.028   6.361   1.549 -0.0478  0.3315  0.0116
  408MOL0     C56198   4.057   6.441   1.442 -0.0876  0.7064  0.0063
  408MOL0     C56199   4.140   6.398   1.337 -0.5794  0.0010 -0.3129
  408MOL0     C56200   4.168   6.480   1.229 -0.1186  1.1407  0.3875
  408MOL0     C56201   4.110   6.607   1.227 -0.2957  0.1374  0.8720
  408MOL0     O56202   4.138   6.696   1.123 -0.3838  0.1933  0.2694
  408MOL0     C56203   4.033   6.737   1.033  0.1556  0.4867 -0.6458
  408MOL0     C56204   4.074   6.868   0.970 -0.4490  0.4272  0.6797
  408MOL0     C56205   3.956   6.968   0.949 -0.2642 -0.4608  0.6288
  408MOL0     C56206   4.003   7.091   0.876 -0.4300  0.2011  1.1737
  408MOL0     C56207   3.885   7.182   0.844  0.5671 -0.0890  0.0674
  408MOL0     C56208   3.913   7.295   0.738 -1.1669  0.3287 -0.3525
  408MOL0     C56209   3.994   7.420   0.780  0.1442  0.7513  0.5091
  408MOL0     C56210   4.060   7.496   0.668  0.2290  0.3143  0.2546
  408MOL0    Cl56211   4.160   7.622   0.740 -0.1953  0.0639  0.0626
  408MOL0     C56212   4.032   6.653   1.331 -0.1375  0.4364  0.0859
  408MOL0     C56213   4.007   6.564   1.440  0.0779 -0.6185 -0.2053
  408MOL0     O56214   3.887   6.223   1.436 -0.0310  0.0068  0.7761
  408MOL0     C56215   4.058   6.184   1.757  0.7081 -0.0365 -0.3017
  408MOL0     C56216   4.076   6.105   1.868 -0.1577 -0.1472  0.9612
  408MOL0     N56217   3.838   5.506   2.454 -0.0799 -1.3792 -0.9436
  408MOL0     N56218   3.847   5.579   2.558  0.5470  0.2565 -0.0790
  408MOL0     C56219   3.773   6.094   3.373 -0.0621  0.6022 -0.1599
  408MOL0     C56220   3.830   6.111   3.492 -1.0286 -0.4006 -0.6321
  408MOL0     C56221   4.145   6.242   3.779 -0.4803  0.4429 -0.5136
  408MOL0     C56222   4.280   6.245   3.763 -0.3532  0.3739 -0.0513
  408MOL0     C56223   4.368   6.290   3.863 -0.2726 -0.2441 -0.0325
  408MOL0     C56224   4.322   6.339   3.982 -0.0715  0.7663  0.0714
  408MOL0     O56225   4.390   6.396   4.078  0.5743  1.0647 -0.6193
  408MOL0     C56226   4.530   6.394   4.075  0.0671 -0.6352  0.7358
  408MOL0     C56227   4.583   6.402   4.225 -0.4867 -0.5689 -0.6735
  408MOL0     C56228   4.719   6.349   4.218 -0.0529 -0.6902 -0.2273
  408MOL0     C56229   4.819   6.437   4.140  0.0270  0.0597  0.5340
  408MOL0     C56230   4.955   6.388   4.173 -0.4787  0.4920 -0.4563
  408MOL0     C56231   5.064   6.347   4.198  0.0986 -0.6976 -0.4347
  408MOL0     C56232   4.185   6.342   3.999  0.8615 -0.2153 -0.7096
  408MOL0     C56233   4.098   6.295   3.901  0.3668  0.5546 -0.0073
  408MOL0     C56234   3.947   6.318   3.918 -0.2491  0.5462 -0.1998
  408MOL0     H56235   3.933   6.429   3.491  0.4992  0.3486 -0.5777
  408MOL0     H56236   3.829   6.410   3.257  1.4856  0.3864  0.6038
  408MOL0     H56237   3.736   6.372   3.103  1.7922 -1.6763  1.8129
  408MOL0     H56238   3.580   6.393   3.192 -2.5268 -0.2171 -0.7335
  408MOL0     H56239   3.461   6.274   2.996 -0.3744 -0.1510 -3.5574
  408MOL0     H56240   3.562   6.406   2.938 -0.2756 -0.6463 -0.1885
  408MOL0     H56241   3.740   6.210   2.901 -0.2241  1.4356 -0.0144
  408MOL0     H56242   3.616   6.099   2.946 -0.1191  0.4158  0.9432
  408MOL0     H56243   3.460   6.180   2.765  0.2670 -0.0355 -0.3478
  408MOL0     H56244   3.571   6.308   2.731  0.2769 -0.0416 -1.1269
  408MOL0     H56245   3.741   6.142   2.665 -0.9846 -0.1126 -0.4988
  408MOL0     H56246   3.592   6.129   2.566 -0.7200  1.5397 -0.1936
  408MOL0     H56247   3.696   5.965   2.809  2.7182 -0.0926 -1.7953
  408MOL0     H56248   3.529   5.952   2.752  1.3599 -1.0522  4.4446
  408MOL0     H56249   3.620   5.853   2.530  1.7738 -0.0576 -0.6838
  408MOL0     H56250   3.626   5.753   2.676  1.7340 -1.1457 -0.0364
  408MOL0     H56251   3.841   5.918   2.551 -1.1536 -1.2501 -1.0391
  408MOL0     H56252   3.875   5.824   2.697  0.7444  0.7275  0.0688
  408MOL0     H56253   3.769   5.801   2.325 -1.9433 -1.2543 -0.8837
  408MOL0     H56254   3.751   5.628   2.138  0.2288 -1.2022 -1.3098
  408MOL0     H56255   3.767   5.450   2.175 -3.2164  0.3437  0.1529
  408MOL0     H56256   4.017   5.498   2.193  2.4154  2.0790 -0.2273
  408MOL0     H56257   3.960   5.510   2.030 -0.4212  0.8341 -0.7561
  408MOL0     H56258   3.997   5.756   2.208  0.9225 -0.2338  0.2640
  408MOL0     H56259   4.115   5.687   2.087 -0.1993 -4.2146 -0.2026
  408MOL0     H56260   3.962   5.724   1.908 -1.2827  0.6211 -0.4962
  408MOL0     H56261   3.849   5.803   2.021 -1.0465 -1.7871 -0.5904
  408MOL0     H56262   3.843   5.869   1.801  0.0595 -1.0191 -1.6276
  408MOL0     H56263   3.773   6.026   1.475  1.4353  1.1341  0.4863
  408MOL0     H56264   3.680   6.068   1.624 -0.7687 -1.7837  1.8721
  408MOL0     H56265   3.743   5.894   1.586  6.1578 -1.1445  0.4387
  408MOL0     H56266   4.186   6.300   1.336  2.4905  1.3246 -1.5543
  408MOL0     H56267   4.221   6.439   1.143  0.2260 -2.0803  1.9719
  408MOL0     H56268   4.019   6.651   0.967 -1.1841 -1.2938  1.7956
  408MOL0     H56269   3.939   6.757   1.085  1.6543  0.7071  2.1545
  408MOL0     H56270   4.147   6.921   1.032 -2.2821  0.9286  2.5324
  408MOL0     H56271   4.123   6.838   0.877 -0.8532  1.0730  0.2486
  408MOL0     H56272   3.910   6.999   1.044 -1.1489  1.4858 -0.3933
  408MOL0     H56273   3.865   6.920   0.912 -0.6797 -0.3082  1.4166
  408MOL0     H56274   4.055   7.059   0.786 -0.5898  1.8685  0.4600
  408MOL0     H56275   4.081   7.150   0.925  0.7642  0.7621 -1.2280
  408MOL0     H56276   3.799   7.127   0.805  1.5518 -1.5074 -0.1651
  408MOL0     H56277   3.848   7.221   0.940 -1.3525  1.6120 -1.2624
  408MOL0     H56278   3.816   7.333   0.705 -1.0253  0.7485 -0.2923
  408MOL0     H56279   3.953   7.249   0.648 -2.2227 -1.7184  0.1538
  408MOL0     H56280   4.073   7.385   0.847 -1.6155 -0.7999  1.9028
  408MOL0     H56281   3.939   7.486   0.848  2.2922  2.1864  0.9303
  408MOL0     H56282   3.992   7.516   0.584  1.4516 -0.1717 -0.8797
  408MOL0     H56283   4.137   7.427   0.633  0.9799  1.2996 -0.0757
  408MOL0     H56284   3.993   6.754   1.325 -1.6918 -0.1323  0.0231
  408MOL0     H56285   3.950   6.603   1.523  1.8797 -0.6627  1.1196
  408MOL0     H56286   4.099   6.285   1.764  2.5030 -0.8316  1.5507
  408MOL0     H56287   4.142   6.125   1.951 -0.8079  1.6813  1.0777
  408MOL0     H56288   3.724   6.002   3.342 -0.5094  1.0178 -0.6864
  408MOL0     H56289   3.844   6.024   3.556 -2.3078 -2.5729 -3.1205
  408MOL0     H56290   4.321   6.216   3.667  0.2616  0.0304  0.3100
  408MOL0     H56291   4.474   6.279   3.845 -0.2566  0.7016 -0.6004
  408MOL0     H56292   4.572   6.307   4.023 -2.2697 -1.9679  0.9292
  408MOL0     H56293   4.563   6.484   4.024  3.6436 -0.1311  3.4882
  408MOL0     H56294   4.521   6.350   4.298  0.2195 -1.1338 -0.4629
  408MOL0     H56295   4.577   6.507   4.257 -2.7039 -1.0226  0.6096
  408MOL0     H56296   4.752   6.359   4.322 -4.5904 -1.6443  1.5528
  408MOL0     H56297   4.720   6.242   4.193 -1.6223 -0.8044  0.0634
  408MOL0     H56298   4.818   6.540   4.175  1.6469  0.1575  0.3642
  408MOL0     H56299   4.803   6.423   4.032  0.3055 -2.1367  0.7303
  408MOL0     H56300   5.161   6.302   4.198 -0.8756 -2.9914  1.5456
  408MOL0     H56301   4.153   6.385   4.094 -1.1675 -1.2612 -0.8441
  408MOL0     H56302   3.923   6.355   4.018 -0.4812 -4.4017  1.8237
  408MOL0     H56303   3.935   6.396   3.842  0.1593  0.5820 -0.2274
  408MOL0     H56304   3.892   6.225   3.901 -0.6161  1.2007 -3.2111
  409MOL0     O56305   0.215   0.661   7.559 -0.1235  0.3983  0.0847
  409MOL0     C56306   0.204   0.596   7.671 -0.1469  0.5932 -0.2251
  409MOL0     O56307   0.092   0.547   7.725 -0.2992 -0.1997 -0.5283
  409MOL0     C56308  -0.020   0.565   7.650 -0.2098  0.4816  0.1773
  409MOL0     C56309  -0.109   0.666   7.689  0.2869 -0.1542  0.5193
  409MOL0     C56310  -0.215   0.709   7.606  0.9802  0.8568 -0.3390
  409MOL0     C56311  -0.243   0.647   7.484 -1.3230  0.0847 -1.0963
  409MOL0     O56312  -0.341   0.707   7.415 -0.6322 -0.2528  0.6829
  409MOL0     C56313  -0.379   0.643   7.298 -0.2232  0.0939  0.8206
  409MOL0     C56314  -0.515   0.696   7.247 -0.5855  0.8440 -0.0136
  409MOL0     C56315  -0.638   0.657   7.328  0.1725  0.2741 -0.3952
  409MOL0     C56316  -0.772   0.707   7.265  0.0503  0.5875 -0.1391
  409MOL0     C56317  -0.837   0.602   7.183  0.4000  0.5220 -0.0432
  409MOL0     C56318  -0.805   0.595   7.037 -0.3606  0.2549 -0.9542
  409MOL0     C56319  -0.888   0.485   6.960 -0.0447  0.2819  0.5653
  409MOL0     C56320  -0.864   0.337   6.998  0.3795  0.0618 -0.1592
  409MOL0     N56321  -0.723   0.306   6.997  0.0786  0.1893 -0.7541
  409MOL0     C56322  -0.649   0.325   6.878 -0.0356  0.4116 -0.8515
  409MOL0     C56323  -0.525   0.329   6.922 -0.6284 -1.0035 -0.3804
  409MOL0     C56324  -0.399   0.320   6.832  0.4062 -0.9205 -0.1064
  409MOL0     C56325  -0.424   0.371   6.692 -0.4761  0.0423 -0.0994
  409MOL0     C56326  -0.410   0.526   6.678 -0.2636 -0.5591  1.4584
  409MOL0     C56327  -0.514   0.569   6.579  1.4621  0.0018 -0.5842
  409MOL0     O56328  -0.486   0.503   6.451  0.2119  0.7315  0.7247
  409MOL0     C56329  -0.587   0.482   6.361 -0.5786 -0.1668  1.0020
  409MOL0     C56330  -0.560   0.391   6.263 -0.9298  0.8027  0.6204
  409MOL0     C56331  -0.645   0.359   6.159 -0.2005 -0.6809  0.4244
  409MOL0     C56332  -0.576   0.264   6.058  0.0500  0.9292  0.9210
  409MOL0     C56333  -0.777   0.426   6.154 -0.7032  0.1949 -0.1978
  409MOL0     C56334  -0.868   0.399   6.037  0.0971 -0.0595 -1.0320
  409MOL0     O56335  -0.943   0.502   5.988  0.5671  0.4264  0.1824
  409MOL0     C56336  -1.045   0.472   5.901 -0.3133  0.3455  0.0746
  409MOL0     C56337  -1.177   0.474   5.954 -0.0331  0.3815  0.2623
  409MOL0     C56338  -1.285   0.449   5.871  0.3963  0.4839  0.8248
  409MOL0     C56339  -1.264   0.414   5.741 -0.1269 -0.4804  0.4624
  409MOL0     O56340  -1.371   0.385   5.662  0.3486 -0.3018  0.4022
  409MOL0     C56341  -1.464   0.286   5.701  0.5216  0.5802  0.6822
  409MOL0     C56342  -1.437   0.163   5.617  0.3418  1.3063  0.7490
  409MOL0     C56343  -1.503   0.032   5.672 -0.7503 -0.8761 -0.0990
  409MOL0     C56344  -1.635   0.031   5.607 -0.5040  0.7081  0.0613
  409MOL0     C56345  -1.706  -0.103   5.649  0.2230 -0.0824  0.1728
  409MOL0     C56346  -1.823  -0.129   5.554 -1.0945 -0.5079  0.6047
  409MOL0     C56347  -1.924  -0.020   5.526  0.3872 -0.3378  0.3197
  409MOL0     C56348  -2.054  -0.050   5.451 -0.5912 -0.4754  0.2276
  409MOL0    Cl56349  -2.158   0.100   5.442 -0.0372 -0.2624  0.3701
  409MOL0     C56350  -1.135   0.419   5.686  0.4524  0.6785 -0.4845
  409MOL0     C56351  -1.019   0.441   5.771  0.4804  0.0376  1.5306
  409MOL0     O56352  -0.865   0.283   5.997 -0.8809  0.3610  0.0932
  409MOL0     C56353  -0.798   0.523   6.248 -0.0147  0.1085  0.5269
  409MOL0     C56354  -0.711   0.550   6.349 -0.1900 -0.1928  0.1130
  409MOL0     N56355  -0.529   0.286   7.061  0.6541  0.1392  0.3894
  409MOL0     N56356  -0.647   0.286   7.106 -0.7045  0.2148 -0.6912
  409MOL0     C56357  -0.150   0.542   7.442  0.2166 -0.0648  0.6271
  409MOL0     C56358  -0.050   0.502   7.530 -0.3752  0.2841  0.0311
  409MOL0     C56359   0.325   0.577   7.742 -0.5913  0.5861 -0.2841
  409MOL0     C56360   0.429   0.515   7.668 -0.2996  0.3845  0.5156
  409MOL0     C56361   0.554   0.505   7.719 -0.8579 -0.6231  0.6060
  409MOL0     C56362   0.583   0.555   7.846 -0.4918 -0.3323 -0.3387
  409MOL0     O56363   0.701   0.515   7.896  0.0358 -0.1033  0.0581
  409MOL0     C56364   0.749   0.566   8.024 -0.1428  0.8529  0.2333
  409MOL0     C56365   0.724   0.464   8.139 -0.9826 -0.7071 -0.7131
  409MOL0     C56366   0.808   0.336   8.112  0.0993  0.3075  0.0230
  409MOL0     C56367   0.791   0.232   8.229  0.0173  0.5168  0.5746
  409MOL0     C56368   0.867   0.107   8.199  0.8016  0.9773  0.7144
  409MOL0     C56369   0.928   0.009   8.176  0.4830 -0.3163  0.7123
  409MOL0     C56370   0.477   0.612   7.922  0.6719  1.0601  0.4193
  409MOL0     C56371   0.353   0.633   7.868 -0.0590 -0.1877  0.1938
  409MOL0     C56372   0.248   0.705   7.941 -0.6363 -0.3115 -0.3514
  409MOL0     H56373  -0.103   0.710   7.787 -0.9335  2.5891 -0.5408
  409MOL0     H56374  -0.288   0.785   7.631  0.2352  0.1349 -0.2669
  409MOL0     H56375  -0.380   0.533   7.302  4.4295 -0.1135  3.2158
  409MOL0     H56376  -0.304   0.672   7.224  0.1418 -0.3594  1.0035
  409MOL0     H56377  -0.517   0.805   7.245 -2.9135  0.8409 -0.8937
  409MOL0     H56378  -0.522   0.670   7.141  1.9973  2.4273 -0.6645
  409MOL0     H56379  -0.640   0.547   7.329 -1.3223  0.2584 -1.7891
  409MOL0     H56380  -0.626   0.696   7.430  0.8573  0.3924 -0.5119
  409MOL0     H56381  -0.842   0.743   7.341 -0.3663 -0.3356 -0.0731
  409MOL0     H56382  -0.752   0.792   7.199 -0.9869  1.4343  0.5946
  409MOL0     H56383  -0.944   0.622   7.190  0.3981 -0.0364  2.0833
  409MOL0     H56384  -0.820   0.500   7.219  0.6177  0.5385 -0.0959
  409MOL0     H56385  -0.825   0.691   6.989  2.5848  1.6663  0.3975
  409MOL0     H56386  -0.697   0.576   7.031 -0.3517 -0.9558  1.5653
  409MOL0     H56387  -0.867   0.498   6.854  2.2076 -0.2241  0.8984
  409MOL0     H56388  -0.996   0.495   6.977 -0.1014  0.0635  0.3213
  409MOL0     H56389  -0.901   0.315   7.098  4.4189 -0.2802  1.4634
  409MOL0     H56390  -0.910   0.276   6.920  2.3792 -2.0473  0.2074
  409MOL0     H56391  -0.689   0.330   6.777 -3.3443 -1.9734  0.1528
  409MOL0     H56392  -0.374   0.214   6.832  1.6368 -0.7241 -3.0085
  409MOL0     H56393  -0.316   0.383   6.867 -0.5942  1.0806 -1.1406
  409MOL0     H56394  -0.352   0.321   6.626 -0.6702  2.3174 -2.2143
  409MOL0     H56395  -0.519   0.331   6.655 -0.3339 -0.6428  0.2576
  409MOL0     H56396  -0.427   0.578   6.773 -0.7662  1.1057  0.4894
  409MOL0     H56397  -0.315   0.554   6.632 -0.5237 -1.7454  0.1254
  409MOL0     H56398  -0.611   0.542   6.620  1.9894  1.6710  2.0396
  409MOL0     H56399  -0.525   0.678   6.569  1.3992 -0.0332 -0.8950
  409MOL0     H56400  -0.472   0.327   6.264 -2.6731 -2.0895 -3.6007
  409MOL0     H56401  -0.489   0.309   6.009  0.7985  0.5570  1.8693
  409MOL0     H56402  -0.649   0.223   5.989 -0.3638  1.1923  1.1916
  409MOL0     H56403  -0.534   0.181   6.116  1.1629 -0.7816 -2.1248
  409MOL0     H56404  -1.200   0.496   6.058  0.3019  1.0196  0.2068
  409MOL0     H56405  -1.380   0.462   5.922 -0.9784  2.0087 -1.8923
  409MOL0     H56406  -1.461   0.259   5.808  1.6004  0.3329  0.6048
  409MOL0     H56407  -1.561   0.326   5.674  0.3286 -1.3131 -1.7112
  409MOL0     H56408  -1.458   0.167   5.509  0.9254 -0.3239  0.5397
  409MOL0     H56409  -1.329   0.151   5.610  0.1995  0.9094 -2.6756
  409MOL0     H56410  -1.502   0.035   5.782  4.1364  1.5686  0.0728
  409MOL0     H56411  -1.445  -0.055   5.639 -0.1361 -1.1489  1.6052
  409MOL0     H56412  -1.621   0.030   5.499  0.4876  0.8125  0.1839
  409MOL0     H56413  -1.698   0.116   5.635 -1.2466  0.3651 -0.5429
  409MOL0     H56414  -1.631  -0.180   5.630 -0.1829 -0.4963  0.2326
  409MOL0     H56415  -1.726  -0.106   5.756  2.6889 -2.0395  0.6682
  409MOL0     H56416  -1.862  -0.220   5.600 -0.1536 -2.2459 -1.7851
  409MOL0     H56417  -1.772  -0.159   5.462 -0.6417 -1.1155  1.0489
  409MOL0     H56418  -1.875   0.064   5.476  0.9564 -0.7717  0.1331
  409MOL0     H56419  -1.960   0.027   5.618 -0.4935  1.2064 -0.7807
  409MOL0     H56420  -2.106  -0.114   5.523 -0.0122  2.2761  3.3524
  409MOL0     H56421  -2.041  -0.099   5.354  4.5291 -1.4120  1.1072
  409MOL0     H56422  -1.117   0.390   5.583 -0.2005  2.0994 -1.0216
  409MOL0     H56423  -0.919   0.417   5.735 -0.6502 -0.1920 -1.7665
  409MOL0     H56424  -0.890   0.579   6.250  0.2971  0.5994  1.5668
  409MOL0     H56425  -0.735   0.618   6.430 -1.2142 -1.4015  0.8506
  409MOL0     H56426  -0.147   0.498   7.343 -0.1836  0.9307  0.1648
  409MOL0     H56427   0.019   0.421   7.508 -2.0807 -1.5964  1.2898
  409MOL0     H56428   0.412   0.497   7.562  2.9911  3.1095 -0.6697
  409MOL0     H56429   0.638   0.459   7.667  0.7904  1.3892  1.3760
  409MOL0     H56430   0.857   0.583   8.014  0.2673 -2.4537 -3.6115
  409MOL0     H56431   0.718   0.668   8.050  1.8422  1.9928 -1.5770
  409MOL0     H56432   0.617   0.446   8.148 -1.3442  1.4277 -0.0769
  409MOL0     H56433   0.749   0.506   8.237 -4.9269  0.9023 -0.2063
  409MOL0     H56434   0.775   0.286   8.020  0.8665 -0.9133  0.3813
  409MOL0     H56435   0.912   0.368   8.103 -0.7769  2.8423 -3.0616
  409MOL0     H56436   0.685   0.206   8.242  0.4919 -0.8306  2.1875
  409MOL0     H56437   0.824   0.277   8.323 -0.1611 -1.3383  1.5664
  409MOL0     H56438   0.976  -0.086   8.159  1.9834  0.4668  0.3265
  409MOL0     H56439   0.502   0.622   8.028 -0.6438 -2.4713  1.1983
  409MOL0     H56440   0.156   0.646   7.935  1.0832 -3.2994  0.4061
  409MOL0     H56441   0.264   0.709   8.049 -1.8504 -1.4574 -0.1114
  409MOL0     H56442   0.234   0.806   7.901 -1.0590 -0.8665 -1.6640
  410MOL0     O56443   9.696   4.718   5.721 -0.5909 -0.7383  1.2836
  410MOL0     C56444   9.791   4.644   5.759  0.1363 -0.9042 -0.3063
  410MOL0     O56445   9.893   4.591   5.689 -0.4075 -0.3106  0.0303
  410MOL0     C56446   9.903   4.597   5.553  0.7847  0.4309  0.4927
  410MOL0     C56447   9.803   4.537   5.473 -0.0812  0.0622  0.8237
  410MOL0     C56448   9.826   4.508   5.337 -0.3543 -0.0417 -0.4461
  410MOL0     C56449   9.934   4.558   5.260 -0.1716  0.0493  0.1375
  410MOL0     O56450   9.931   4.548   5.123 -0.3732  0.4148 -0.0142
  410MOL0     C56451  10.050   4.564   5.047 -0.1081 -0.3049 -0.8059
  410MOL0     C56452  10.085   4.444   4.963 -0.0809 -0.0043 -0.1348
  410MOL0     C56453   9.985   4.424   4.849 -0.1484 -0.5116  0.1836
  410MOL0     C56454  10.039   4.309   4.743  0.0280 -0.9845 -0.4772
  410MOL0     C56455   9.932   4.210   4.695 -0.2155  0.0962  0.7328
  410MOL0     C56456   9.987   4.091   4.606  0.0524 -0.1452  0.3509
  410MOL0     C56457   9.890   3.973   4.615  0.0005  0.2417 -0.4709
  410MOL0     C56458   9.936   3.860   4.520  0.6637 -0.0008  0.1968
  410MOL0     N56459   9.829   3.762   4.499  0.0782 -0.2912  0.8365
  410MOL0     C56460   9.737   3.775   4.403  0.3329 -0.7861  0.2049
  410MOL0     C56461   9.678   3.650   4.401  0.6484  0.2771 -0.6921
  410MOL0     C56462   9.565   3.614   4.311  0.8953  0.2938 -0.1477
  410MOL0     C56463   9.445   3.709   4.338  1.1157  0.7836  0.0437
  410MOL0     C56464   9.304   3.669   4.282 -0.1967 -0.2484 -0.6912
  410MOL0     C56465   9.206   3.790   4.283 -1.0702 -0.3205  0.1943
  410MOL0     O56466   9.267   3.900   4.208  0.1667 -1.0050  0.3928
  410MOL0     C56467   9.215   4.022   4.236  0.8233 -0.5145  0.2103
  410MOL0     C56468   9.296   4.142   4.249  0.1364  0.5753 -0.3182
  410MOL0     C56469   9.227   4.270   4.254  0.5893  0.3233 -0.1044
  410MOL0     C56470   9.323   4.380   4.273  0.4300  0.2838 -0.5013
  410MOL0     C56471   9.086   4.271   4.259 -0.1986  0.1779  0.8174
  410MOL0     C56472   9.000   4.387   4.300 -0.4671 -0.6983 -0.4037
  410MOL0     O56473   8.862   4.364   4.315 -0.5444 -0.2489 -0.3416
  410MOL0     C56474   8.786   4.469   4.363 -1.0597  0.5706 -0.5608
  410MOL0     C56475   8.819   4.555   4.475 -0.5442  1.0809 -0.2016
  410MOL0     C56476   8.729   4.645   4.537 -1.0052 -0.1212 -0.8564
  410MOL0     C56477   8.600   4.661   4.485  0.8535 -0.6728 -0.3838
  410MOL0     O56478   8.500   4.748   4.524  0.2678  0.8624 -0.2764
  410MOL0     C56479   8.526   4.828   4.637 -0.5380  0.2420 -0.1110
  410MOL0     C56480   8.421   4.931   4.655  0.7625  1.7421  0.1144
  410MOL0     C56481   8.465   5.054   4.738 -1.0265  0.0471 -0.4139
  410MOL0     C56482   8.359   5.155   4.761  1.5142  0.4146 -0.3662
  410MOL0     C56483   8.299   5.228   4.636 -0.5307  0.1232  0.5087
  410MOL0     C56484   8.151   5.271   4.662  0.2036  0.0966  0.3041
  410MOL0     C56485   8.121   5.388   4.573 -0.1182  0.7227  0.3520
  410MOL0     C56486   8.154   5.365   4.422 -0.3508 -0.2137  0.5922
  410MOL0    Cl56487   8.140   5.520   4.334  0.0961 -0.0612 -0.1354
  410MOL0     C56488   8.569   4.583   4.374 -0.1972 -0.4540  0.5928
  410MOL0     C56489   8.657   4.483   4.315  0.3641 -0.3888 -0.5893
  410MOL0     O56490   9.061   4.494   4.305  0.1134 -0.8134 -1.3148
  410MOL0     C56491   9.019   4.155   4.220 -0.2998  0.0055 -0.5272
  410MOL0     C56492   9.080   4.035   4.206 -0.3828  0.0432  0.3577
  410MOL0     N56493   9.755   3.561   4.466  0.4538 -1.0324  0.4850
  410MOL0     N56494   9.848   3.631   4.524  0.9755 -0.4684  0.2854
  410MOL0     C56495  10.022   4.631   5.340 -0.5329  0.3058 -0.2812
  410MOL0     C56496  10.016   4.643   5.482 -0.0868  0.8540 -0.3768
  410MOL0     C56497   9.769   4.603   5.893 -0.0709 -0.6391  0.2244
  410MOL0     C56498   9.643   4.559   5.927  0.0800  0.4568 -0.4867
  410MOL0     C56499   9.625   4.491   6.055 -0.5740  0.0150 -0.0439
  410MOL0     C56500   9.732   4.475   6.142  0.2201 -0.3031  0.4998
  410MOL0     O56501   9.717   4.403   6.254  0.1178 -0.0306 -0.8880
  410MOL0     C56502   9.678   4.480   6.382 -0.1869  0.5042 -0.1668
  410MOL0     C56503   9.532   4.512   6.363 -1.0285 -0.1811  0.2939
  410MOL0     C56504   9.477   4.562   6.507  0.6996  0.5982  0.5438
  410MOL0     C56505   9.318   4.558   6.507  0.1631  0.0759 -0.0453
  410MOL0     C56506   9.258   4.424   6.497 -0.3662 -0.2014 -0.2536
  410MOL0     C56507   9.214   4.317   6.493  0.2149  0.3271 -0.3277
  410MOL0     C56508   9.858   4.525   6.107  0.0037  0.1026 -0.9991
  410MOL0     C56509   9.884   4.583   5.980  0.7296  0.1842 -0.4147
  410MOL0     C56510  10.020   4.640   5.952  0.3139  0.2239 -0.0433
  410MOL0     H56511   9.718   4.487   5.518  0.4176 -2.2526 -0.6076
  410MOL0     H56512   9.742   4.453   5.295 -0.7172  1.1261 -1.3244
  410MOL0     H56513  10.132   4.586   5.115 -1.5721 -0.0376  0.9295
  410MOL0     H56514  10.045   4.644   4.972  0.1519  1.5990  1.1383
  410MOL0     H56515  10.184   4.452   4.917 -0.0786 -2.1687 -0.5838
  410MOL0     H56516  10.083   4.352   5.021  3.0175  2.0063  3.5958
  410MOL0     H56517   9.888   4.402   4.894 -0.0720 -2.1207 -0.3762
  410MOL0     H56518   9.972   4.518   4.795  1.7665 -0.7294 -0.7262
  410MOL0     H56519  10.071   4.369   4.657  1.8788  0.7202  1.2840
  410MOL0     H56520  10.128   4.259   4.781 -0.7595 -2.1466 -0.1078
  410MOL0     H56521   9.860   4.263   4.632  0.3955 -0.3179 -0.3305
  410MOL0     H56522   9.869   4.171   4.776 -3.6002 -1.4201 -2.3625
  410MOL0     H56523  10.012   4.124   4.505 -1.6741  3.6120  0.9766
  410MOL0     H56524  10.088   4.070   4.643 -0.3651  0.2622  1.7937
  410MOL0     H56525   9.791   4.013   4.594  0.1523  0.0376 -1.6213
  410MOL0     H56526   9.902   3.935   4.717  1.2684  0.6862 -0.4266
  410MOL0     H56527   9.965   3.900   4.423  1.9626  2.7958  1.6123
  410MOL0     H56528  10.028   3.813   4.557  2.3841  1.4248 -2.0027
  410MOL0     H56529   9.696   3.867   4.362  2.3301  0.2812  0.4971
  410MOL0     H56530   9.537   3.508   4.309 -0.8335  0.7202 -0.7687
  410MOL0     H56531   9.600   3.626   4.208 -1.4428  0.5725 -0.9840
  410MOL0     H56532   9.421   3.717   4.444 -1.6747  0.9188 -0.5246
  410MOL0     H56533   9.483   3.804   4.297  5.5534  0.0050  1.8296
  410MOL0     H56534   9.309   3.625   4.182 -0.3920 -0.3044 -0.6764
  410MOL0     H56535   9.272   3.595   4.356  0.3516  0.9777  0.8341
  410MOL0     H56536   9.118   3.742   4.237 -1.5159  0.9420 -0.3116
  410MOL0     H56537   9.189   3.825   4.385  4.3343 -1.3659  1.7487
  410MOL0     H56538   9.404   4.127   4.245 -0.1475 -1.3467 -3.2332
  410MOL0     H56539   9.415   4.354   4.219 -0.2729  2.8362 -3.2671
  410MOL0     H56540   9.338   4.408   4.377 -3.0695  1.9294 -0.3089
  410MOL0     H56541   9.291   4.458   4.203  1.2747 -0.4097 -1.7134
  410MOL0     H56542   8.916   4.536   4.519 -1.5134 -1.2208  1.0952
  410MOL0     H56543   8.756   4.705   4.623  0.5574  1.0453 -2.1069
  410MOL0     H56544   8.533   4.770   4.730 -1.8360 -3.1453 -1.9410
  410MOL0     H56545   8.617   4.881   4.610 -1.1282  1.0165 -0.6091
  410MOL0     H56546   8.392   4.967   4.556  1.5978  0.6130 -0.5725
  410MOL0     H56547   8.331   4.879   4.686  1.2893 -0.4062 -1.6998
  410MOL0     H56548   8.548   5.111   4.695 -1.2784  1.6499  1.1248
  410MOL0     H56549   8.500   5.024   4.837 -0.1297  1.9280 -0.1114
  410MOL0     H56550   8.391   5.230   4.833  1.7206  1.0122 -1.0694
  410MOL0     H56551   8.286   5.089   4.808  1.8825 -0.3329 -0.8254
  410MOL0     H56552   8.363   5.316   4.628  1.4466 -0.7584  4.2085
  410MOL0     H56553   8.301   5.165   4.547  0.5837 -2.8327  2.4591
  410MOL0     H56554   8.138   5.305   4.765  0.3307 -0.5411  0.5373
  410MOL0     H56555   8.082   5.191   4.635  4.2123 -2.9732 -1.9891
  410MOL0     H56556   8.161   5.483   4.612 -0.8882  1.1259  0.1746
  410MOL0     H56557   8.013   5.405   4.581 -0.2194  0.5419 -0.5465
  410MOL0     H56558   8.084   5.286   4.394 -0.5079 -0.2500  1.0879
  410MOL0     H56559   8.260   5.338   4.416  0.5553  1.8781  4.2435
  410MOL0     H56560   8.480   4.590   4.313  0.9613 -1.1549 -1.2515
  410MOL0     H56561   8.631   4.444   4.217  0.3858  5.5489 -3.4484
  410MOL0     H56562   8.911   4.159   4.221 -0.2858  1.3072  1.6593
  410MOL0     H56563   9.022   3.954   4.161  0.9194  0.6985 -2.7773
  410MOL0     H56564  10.109   4.679   5.295  0.4477 -1.4203 -0.3191
  410MOL0     H56565  10.095   4.694   5.537  0.1879 -1.7708  1.9141
  410MOL0     H56566   9.566   4.551   5.851  1.1539 -1.0657 -1.4690
  410MOL0     H56567   9.527   4.463   6.094 -0.0881  1.3545  2.3158
  410MOL0     H56568   9.695   4.403   6.458  0.9574 -0.0236 -0.9216
  410MOL0     H56569   9.747   4.563   6.396  1.0014 -0.3511 -0.7417
  410MOL0     H56570   9.472   4.423   6.342 -2.1086  0.6173 -0.0758
  410MOL0     H56571   9.516   4.583   6.282 -0.8214  0.8007  1.0891
  410MOL0     H56572   9.506   4.495   6.589  0.6312 -2.8360 -2.0227
  410MOL0     H56573   9.515   4.660   6.536  0.1752  0.3270  2.2701
  410MOL0     H56574   9.287   4.614   6.419 -2.1456 -1.6472 -0.4210
  410MOL0     H56575   9.289   4.601   6.603  1.3179 -1.5302  1.0728
  410MOL0     H56576   9.167   4.220   6.496  1.2350 -0.1489  1.1588
  410MOL0     H56577   9.937   4.519   6.181 -3.1395 -1.0000  2.5993
  410MOL0     H56578  10.058   4.578   5.871 -0.7986 -0.2788 -0.2063
  410MOL0     H56579  10.008   4.744   5.920  0.8124 -0.7918 -4.0028
  410MOL0     H56580  10.080   4.634   6.043 -3.0394 -0.0567  2.3619
  411MOL0     O56581   7.754   4.321   2.558 -0.2035 -0.6931  0.6358
  411MOL0     C56582   7.661   4.356   2.494 -0.8517  0.2553  0.2024
  411MOL0     O56583   7.537   4.367   2.539 -0.0922  0.1641 -0.7977
  411MOL0     C56584   7.512   4.341   2.673 -0.3800  0.6466 -0.0809
  411MOL0     C56585   7.485   4.212   2.724  0.0328 -0.1929  0.5663
  411MOL0     C56586   7.453   4.201   2.856 -0.1037 -0.0713  0.4431
  411MOL0     C56587   7.438   4.314   2.937 -0.1723 -0.2612  0.5725
  411MOL0     O56588   7.401   4.312   3.072  0.4515  0.7906  0.4565
  411MOL0     C56589   7.291   4.236   3.106  1.8221  0.5197  0.8552
  411MOL0     C56590   7.230   4.285   3.243  0.0383 -0.1997  1.0042
  411MOL0     C56591   7.110   4.382   3.224 -0.2660  0.9363  0.3360
  411MOL0     C56592   7.132   4.492   3.119  0.0864  0.2810 -0.2105
  411MOL0     C56593   7.070   4.628   3.161 -0.1778 -0.2728 -0.3072
  411MOL0     C56594   6.919   4.626   3.147  0.2318  0.4175 -0.1037
  411MOL0     C56595   6.857   4.752   3.221 -0.2921 -0.2232 -0.7563
  411MOL0     C56596   6.702   4.742   3.246 -0.8392 -0.4849  0.7938
  411MOL0     N56597   6.627   4.713   3.126  0.7961  0.0345 -0.2852
  411MOL0     C56598   6.573   4.798   3.039  0.6466 -0.6528  0.3702
  411MOL0     C56599   6.518   4.730   2.930  0.0898 -0.4799  1.2408
  411MOL0     C56600   6.446   4.783   2.810  0.6909 -0.3582  0.0726
  411MOL0     C56601   6.293   4.815   2.848  0.2196  0.9996  1.0422
  411MOL0     C56602   6.214   4.857   2.732  0.0214 -0.3250 -0.3323
  411MOL0     C56603   6.061   4.861   2.773 -0.4748 -0.2343 -0.1427
  411MOL0     O56604   6.008   4.722   2.791 -0.0816 -0.2277 -0.4924
  411MOL0     C56605   5.930   4.668   2.693 -0.7632  1.6137 -0.0682
  411MOL0     C56606   5.990   4.603   2.583 -0.6318 -0.6219  0.8671
  411MOL0     C56607   5.915   4.552   2.482  0.6011  0.4596 -0.1113
  411MOL0     C56608   5.986   4.489   2.374  0.2678 -0.7727  0.6311
  411MOL0     C56609   5.776   4.540   2.503  0.5166 -0.2117  0.2280
  411MOL0     C56610   5.692   4.448   2.429  0.8793 -0.1107  0.9847
  411MOL0     O56611   5.572   4.409   2.486  0.1049  0.2774  0.2013
  411MOL0     C56612   5.515   4.305   2.419 -0.0525  0.5558 -0.3005
  411MOL0     C56613   5.569   4.176   2.419  0.7459  0.7502 -0.3090
  411MOL0     C56614   5.511   4.065   2.367  0.1229 -0.7044  0.0223
  411MOL0     C56615   5.386   4.076   2.305 -0.2017 -0.7393  0.2723
  411MOL0     O56616   5.333   3.963   2.245  0.6243  0.1684 -0.3569
  411MOL0     C56617   5.194   3.977   2.201 -0.2945  0.0320  0.6204
  411MOL0     C56618   5.147   3.852   2.141  0.3318 -0.2768 -0.5050
  411MOL0     C56619   5.221   3.824   2.005  0.0236  0.6172  0.0680
  411MOL0     C56620   5.170   3.696   1.947  0.0495 -0.3407  0.3161
  411MOL0     C56621   5.222   3.663   1.807 -0.5438  0.2039 -0.4734
  411MOL0     C56622   5.113   3.673   1.701  0.5466 -0.5824 -0.4670
  411MOL0     C56623   5.155   3.641   1.569 -0.0520 -0.3261 -0.0956
  411MOL0     C56624   5.045   3.621   1.470  0.9714  0.1452  0.2517
  411MOL0    Cl56625   4.955   3.462   1.491 -0.5842 -0.4030  0.3394
  411MOL0     C56626   5.323   4.206   2.309  0.0641  0.1237  0.6359
  411MOL0     C56627   5.390   4.318   2.367  0.3590  0.7264 -0.1973
  411MOL0     O56628   5.720   4.417   2.313 -0.6254 -0.3219 -0.6536
  411MOL0     C56629   5.721   4.597   2.617  0.1905 -0.7490 -0.3218
  411MOL0     C56630   5.797   4.671   2.706  0.8244  0.1768  0.1820
  411MOL0     N56631   6.535   4.600   2.963 -0.2682  1.2129 -0.0406
  411MOL0     N56632   6.601   4.589   3.076 -0.0113 -1.0382 -0.1680
  411MOL0     C56633   7.488   4.438   2.887 -0.0507  0.8878 -0.3029
  411MOL0     C56634   7.523   4.452   2.752  0.3170 -0.0898  0.1474
  411MOL0     C56635   7.682   4.379   2.345 -0.4185 -0.4104 -0.7411
  411MOL0     C56636   7.566   4.433   2.277 -0.5496 -0.5486  0.3602
  411MOL0     C56637   7.572   4.440   2.139 -0.0547 -0.0087  0.1962
  411MOL0     C56638   7.680   4.406   2.056 -1.0617  0.3258  0.1489
  411MOL0     O56639   7.670   4.430   1.927 -0.7256  0.3981  0.2380
  411MOL0     C56640   7.731   4.333   1.837 -0.4912 -0.7645 -0.5276
  411MOL0     C56641   7.658   4.200   1.835 -0.3087 -0.4330  0.1152
  411MOL0     C56642   7.726   4.099   1.732  0.0318 -0.6796  0.4315
  411MOL0     C56643   7.864   4.033   1.776 -0.3116  0.1289 -1.0507
  411MOL0     C56644   7.971   4.125   1.730  0.2182  0.5674 -0.3183
  411MOL0     C56645   8.060   4.191   1.691 -0.5935  0.8717  0.0421
  411MOL0     C56646   7.791   4.374   2.121  0.0450 -0.1768 -1.1618
  411MOL0     C56647   7.794   4.356   2.262  0.3985 -0.1731 -0.4822
  411MOL0     C56648   7.926   4.318   2.317  0.6465  0.0220  0.3961
  411MOL0     H56649   7.493   4.131   2.652 -1.6714 -0.6347  0.8340
  411MOL0     H56650   7.438   4.100   2.892  0.0936 -1.1641 -2.3184
  411MOL0     H56651   7.329   4.134   3.114  1.5260 -0.0022 -2.8087
  411MOL0     H56652   7.211   4.237   3.033  1.3405  1.3466  1.3787
  411MOL0     H56653   7.182   4.203   3.297  0.5354  0.7696  3.0124
  411MOL0     H56654   7.303   4.336   3.307  1.6492  2.9339 -2.9036
  411MOL0     H56655   7.033   4.312   3.190  1.3325 -1.2447  0.9423
  411MOL0     H56656   7.094   4.443   3.313 -2.4640  1.4357 -0.3439
  411MOL0     H56657   7.238   4.514   3.103 -0.0856  0.3657 -1.2984
  411MOL0     H56658   7.085   4.459   3.026  0.3495 -0.1114 -0.2094
  411MOL0     H56659   7.108   4.710   3.099 -2.7725  1.0349 -0.2821
  411MOL0     H56660   7.096   4.646   3.266  0.7311  1.4774 -0.7907
  411MOL0     H56661   6.894   4.631   3.041  2.6398 -0.1555 -0.7583
  411MOL0     H56662   6.874   4.532   3.182  0.8047  0.2179  0.1075
  411MOL0     H56663   6.877   4.843   3.164  0.8243  0.0470  0.0528
  411MOL0     H56664   6.902   4.761   3.320  1.1446 -2.0346 -1.2007
  411MOL0     H56665   6.688   4.654   3.310  2.1948 -1.4329  0.3407
  411MOL0     H56666   6.657   4.832   3.289 -0.6183  1.3946 -2.5576
  411MOL0     H56667   6.573   4.903   3.067  2.7089 -0.9595  1.6747
  411MOL0     H56668   6.466   4.709   2.732 -0.3355 -1.4928  0.8610
  411MOL0     H56669   6.496   4.876   2.781 -1.5389  0.3539 -1.7428
  411MOL0     H56670   6.252   4.729   2.901  2.1011  0.8157  2.2762
  411MOL0     H56671   6.303   4.898   2.917 -0.1824  2.4654 -0.6006
  411MOL0     H56672   6.252   4.951   2.693  0.3565 -0.3283 -0.0192
  411MOL0     H56673   6.231   4.776   2.661  1.9971 -1.1764  0.9837
  411MOL0     H56674   6.045   4.918   2.865 -0.4971 -0.7548  0.1833
  411MOL0     H56675   6.001   4.913   2.698  1.3025 -0.5409 -1.8546
  411MOL0     H56676   6.097   4.581   2.579 -0.6946 -0.9459  0.9623
  411MOL0     H56677   5.949   4.532   2.280 -1.6057 -1.8928  0.8071
  411MOL0     H56678   5.982   4.379   2.377 -1.9441 -0.8591 -1.8295
  411MOL0     H56679   6.093   4.512   2.368 -0.1913  1.4636  0.4635
  411MOL0     H56680   5.665   4.161   2.468  1.5210 -2.5193 -2.4815
  411MOL0     H56681   5.538   3.960   2.371 -0.6204 -1.0084 -1.8465
  411MOL0     H56682   5.124   4.018   2.274  0.1736 -1.4655  1.9616
  411MOL0     H56683   5.208   4.042   2.114  0.5127  0.5685  1.1333
  411MOL0     H56684   5.163   3.765   2.205  2.3049  1.6564  1.8026
  411MOL0     H56685   5.041   3.866   2.118  0.6392 -2.2173 -3.7709
  411MOL0     H56686   5.326   3.809   2.031  0.4759  0.7477 -1.5896
  411MOL0     H56687   5.208   3.909   1.938  2.9464  2.1322  1.2395
  411MOL0     H56688   5.061   3.704   1.953 -0.0699 -0.6306 -1.1301
  411MOL0     H56689   5.193   3.607   2.007 -0.8291  0.3462  1.7122
  411MOL0     H56690   5.311   3.724   1.786 -0.5684 -0.2298 -1.9164
  411MOL0     H56691   5.262   3.562   1.814  2.0241  1.1879  0.2140
  411MOL0     H56692   5.061   3.770   1.703 -2.6521 -2.1328  2.7529
  411MOL0     H56693   5.039   3.601   1.737  2.2173 -0.9694  2.5423
  411MOL0     H56694   5.209   3.547   1.584  2.1246  1.0546  1.2043
  411MOL0     H56695   5.231   3.715   1.543 -2.2005  2.5195  1.0916
  411MOL0     H56696   5.082   3.621   1.367 -0.9143 -2.7757 -0.5432
  411MOL0     H56697   4.972   3.701   1.481 -1.5557 -1.8779 -0.8665
  411MOL0     H56698   5.221   4.218   2.275 -0.5372 -2.2180  1.4145
  411MOL0     H56699   5.368   4.425   2.370  1.9215  1.0832  3.1514
  411MOL0     H56700   5.615   4.588   2.634  0.1695  0.5525  0.3245
  411MOL0     H56701   5.761   4.711   2.800  1.0847  2.0473 -0.4734
  411MOL0     H56702   7.473   4.522   2.955 -1.4427  0.5279 -0.1353
  411MOL0     H56703   7.542   4.544   2.697  0.4860  0.4356  1.0577
  411MOL0     H56704   7.479   4.460   2.337 -0.5622 -1.5631  0.8297
  411MOL0     H56705   7.479   4.468   2.090 -2.3166  0.1109  4.1700
  411MOL0     H56706   7.736   4.385   1.741 -2.0756 -1.9069 -1.2786
  411MOL0     H56707   7.836   4.310   1.855 -0.3614 -0.9844 -1.5206
  411MOL0     H56708   7.558   4.207   1.790 -1.1041 -1.3465  1.6279
  411MOL0     H56709   7.658   4.152   1.933  1.7316 -1.4292 -0.3310
  411MOL0     H56710   7.651   4.020   1.733 -3.7945  2.5105 -2.1739
  411MOL0     H56711   7.724   4.130   1.627 -0.1095 -1.1981  0.2798
  411MOL0     H56712   7.888   3.938   1.727 -0.1374 -0.2676 -0.2283
  411MOL0     H56713   7.855   4.013   1.884 -3.3941 -2.0975 -1.5508
  411MOL0     H56714   8.150   4.241   1.661  1.1582 -1.2066  1.5175
  411MOL0     H56715   7.879   4.351   2.063  0.2511 -3.2250  0.1452
  411MOL0     H56716   7.914   4.216   2.354  1.6467 -0.8888 -1.6172
  411MOL0     H56717   7.995   4.311   2.232  1.1366  3.0166  0.4588
  411MOL0     H56718   7.957   4.395   2.387 -1.4269  1.6629 -0.3887
  412MOL0     O56719   5.831   1.176  10.149  0.1839 -0.1631 -0.4715
  412MOL0     C56720   5.948   1.214  10.122 -0.5279  0.0450  0.5251
  412MOL0     O56721   5.986   1.346  10.129 -0.2941  0.7379 -0.0033
  412MOL0     C56722   5.901   1.451  10.152 -0.0959  0.2903 -0.4339
  412MOL0     C56723   5.874   1.539  10.057 -0.2603 -0.5790  0.7276
  412MOL0     C56724   5.771   1.625  10.068  0.3776 -0.8024  0.7232
  412MOL0     C56725   5.677   1.613  10.174  0.1820 -0.0989  0.2943
  412MOL0     O56726   5.561   1.678  10.188 -0.1743 -0.2775 -0.0748
  412MOL0     C56727   5.503   1.762  10.081 -0.4823 -0.4877  0.2188
  412MOL0     C56728   5.363   1.810  10.111  0.6598 -0.0532  0.3069
  412MOL0     C56729   5.269   1.688  10.124 -0.1032 -0.1482  0.4260
  412MOL0     C56730   5.129   1.737  10.121  0.0891 -0.0240 -0.3795
  412MOL0     C56731   5.036   1.612  10.125  0.0696 -0.0539  0.0871
  412MOL0     C56732   4.896   1.668  10.089  0.1727 -0.8289 -0.3177
  412MOL0     C56733   4.798   1.552  10.070 -0.7763  0.2911 -0.0231
  412MOL0     C56734   4.755   1.480  10.199 -0.8388  0.1213 -0.5524
  412MOL0     N56735   4.623   1.409  10.160 -0.0518  0.2787 -0.3096
  412MOL0     C56736   4.626   1.304  10.067  0.2449 -0.3212  0.1279
  412MOL0     C56737   4.490   1.268  10.077  0.2124  0.3026  0.1219
  412MOL0     C56738   4.424   1.156   9.997 -0.7239 -0.8529 -0.8213
  412MOL0     C56739   4.330   1.212   9.893 -0.2844  0.2957 -0.5088
  412MOL0     C56740   4.402   1.288   9.784  0.7069 -0.4250  0.1002
  412MOL0     C56741   4.311   1.306   9.662 -0.1190 -0.6177 -0.0038
  412MOL0     O56742   4.225   1.420   9.671  0.6868  0.4108 -0.1969
  412MOL0     C56743   4.153   1.454   9.560 -0.2572 -0.2608 -0.2247
  412MOL0     C56744   4.162   1.396   9.435  1.3470  0.1893  0.6235
  412MOL0     C56745   4.083   1.443   9.333  0.8694 -0.7942 -1.2441
  412MOL0     C56746   4.093   1.372   9.197  0.1427 -0.2056 -0.1304
  412MOL0     C56747   3.987   1.545   9.357 -1.0137  0.4048  0.6596
  412MOL0     C56748   3.905   1.611   9.258 -0.7028 -0.7635 -0.4652
  412MOL0     O56749   3.831   1.531   9.187  0.7112 -1.3560  0.3790
  412MOL0     C56750   3.722   1.568   9.097 -0.5363  0.4211 -0.0434
  412MOL0     C56751   3.641   1.454   9.066  0.2790 -0.0170 -0.1493
  412MOL0     C56752   3.546   1.474   8.965 -0.0267 -0.1686 -0.2154
  412MOL0     C56753   3.514   1.598   8.912  0.8418  0.5855  0.1912
  412MOL0     O56754   3.422   1.597   8.809  0.6626  0.4425  0.7310
  412MOL0     C56755   3.467   1.649   8.691  0.0283 -0.9054  0.1636
  412MOL0     C56756   3.352   1.714   8.614 -0.9924 -0.3415  0.4321
  412MOL0     C56757   3.378   1.709   8.468 -0.0221  0.1386  0.3753
  412MOL0     C56758   3.251   1.737   8.377 -0.3894 -0.4203  0.3770
  412MOL0     C56759   3.246   1.680   8.236 -0.2185  0.5824 -0.7750
  412MOL0     C56760   3.344   1.739   8.141  0.1400  0.2920  0.3058
  412MOL0     C56761   3.357   1.672   8.000 -0.5904 -0.1211 -0.3570
  412MOL0     C56762   3.417   1.760   7.891  0.0204 -0.6077 -0.0777
  412MOL0    Cl56763   3.583   1.797   7.921  0.3132  0.1646 -0.0842
  412MOL0     C56764   3.594   1.711   8.943  0.2224 -0.0005 -0.2887
  412MOL0     C56765   3.698   1.695   9.036  0.2893 -0.6932 -0.2642
  412MOL0     O56766   3.886   1.734   9.265  0.1715 -0.3996 -0.4501
  412MOL0     C56767   3.973   1.602   9.486 -0.3072  0.1924  1.0978
  412MOL0     C56768   4.070   1.565   9.579  0.8386 -0.1261  0.5418
  412MOL0     N56769   4.419   1.338  10.171  0.4745 -0.5276  0.2625
  412MOL0     N56770   4.504   1.416  10.229 -0.3244  0.5491  0.2201
  412MOL0     C56771   5.709   1.534  10.284  0.8561  0.4865  0.2344
  412MOL0     C56772   5.828   1.449  10.276  0.3702 -0.3179  0.4588
  412MOL0     C56773   6.061   1.110  10.101  0.5061  0.3444 -0.8240
  412MOL0     C56774   6.169   1.155  10.022 -0.4456  0.0500  0.3073
  412MOL0     C56775   6.267   1.064   9.970  0.3361  0.2704  0.3720
  412MOL0     C56776   6.251   0.928   9.992 -0.5020  0.1313  0.4945
  412MOL0     O56777   6.335   0.826   9.943  0.3913 -0.1641 -0.2546
  412MOL0     C56778   6.427   0.852   9.836 -0.2528 -0.1054  0.1134
  412MOL0     C56779   6.366   0.832   9.695  0.0563 -0.3407  0.0937
  412MOL0     C56780   6.277   0.702   9.689 -0.0661 -0.0031 -0.1298
  412MOL0     C56781   6.230   0.663   9.543 -0.0938 -0.0227  0.0013
  412MOL0     C56782   6.170   0.536   9.550  0.0215  0.1963 -0.1050
  412MOL0     C56783   6.123   0.426   9.540 -0.0565 -0.0323  0.3804
  412MOL0     C56784   6.143   0.884  10.073  0.7699 -0.2925  0.6215
  412MOL0     C56785   6.051   0.974  10.137  0.1278  0.8142  0.1966
  412MOL0     C56786   5.948   0.916  10.231  0.1279 -1.1859  0.5899
  412MOL0     H56787   5.926   1.543   9.961 -2.0075 -1.4131 -0.2983
  412MOL0     H56788   5.738   1.698   9.994 -1.7125 -0.3676  1.9851
  412MOL0     H56789   5.497   1.707   9.987 -0.5157  4.5934 -3.1299
  412MOL0     H56790   5.568   1.849  10.067  2.0057 -2.3900 -0.7327
  412MOL0     H56791   5.349   1.867  10.204  0.2690  0.2561  0.0635
  412MOL0     H56792   5.338   1.875  10.026 -0.2846  0.0637  0.6669
  412MOL0     H56793   5.292   1.621  10.040  1.9795  0.3351  0.5594
  412MOL0     H56794   5.284   1.622  10.210 -2.3463 -2.3086 -0.7114
  412MOL0     H56795   5.116   1.800  10.210  1.9758 -0.8292  0.5206
  412MOL0     H56796   5.117   1.788  10.025 -0.9429 -1.6403 -1.1510
  412MOL0     H56797   5.037   1.573  10.227  1.9957  5.9911  2.9016
  412MOL0     H56798   5.061   1.535  10.052 -2.1160 -2.0163  1.2945
  412MOL0     H56799   4.854   1.732  10.167  3.2866 -1.2901  1.9415
  412MOL0     H56800   4.899   1.721   9.993  0.8051  1.1722  0.7318
  412MOL0     H56801   4.845   1.483  10.000 -0.2017  0.4762  0.1805
  412MOL0     H56802   4.710   1.600  10.025 -0.6072  2.0803  1.4309
  412MOL0     H56803   4.832   1.410  10.232  1.7985  1.4670 -3.3165
  412MOL0     H56804   4.734   1.551  10.280  2.4518  0.5514  0.0310
  412MOL0     H56805   4.712   1.259  10.019  0.7844  1.5371 -0.7455
  412MOL0     H56806   4.375   1.087  10.066 -2.6877 -0.2763 -1.5652
  412MOL0     H56807   4.502   1.095   9.951  3.1980  3.0296 -0.0525
  412MOL0     H56808   4.279   1.125   9.849  0.2971  0.0151 -0.6309
  412MOL0     H56809   4.259   1.269   9.954 -0.1331 -1.1735  1.1125
  412MOL0     H56810   4.430   1.389   9.816 -4.0338  1.8321 -1.9634
  412MOL0     H56811   4.492   1.233   9.755  2.1796  1.2973  1.2156
  412MOL0     H56812   4.370   1.340   9.577 -1.9130  2.4419 -0.1604
  412MOL0     H56813   4.255   1.213   9.649 -1.7350  0.2181  0.7507
  412MOL0     H56814   4.229   1.315   9.408  2.7547  0.9503  1.7251
  412MOL0     H56815   4.072   1.438   9.112  0.5184  1.0557  0.7259
  412MOL0     H56816   4.026   1.286   9.202  0.9777 -0.8608  0.0772
  412MOL0     H56817   4.195   1.332   9.185  0.4425  0.2133  0.8985
  412MOL0     H56818   3.682   1.360   9.104  2.1646  1.7032  2.3781
  412MOL0     H56819   3.494   1.385   8.934 -1.0414 -0.0347  1.0311
  412MOL0     H56820   3.544   1.726   8.705 -1.1748  0.1219  1.3784
  412MOL0     H56821   3.512   1.572   8.627  0.5674 -1.3938  1.1094
  412MOL0     H56822   3.263   1.654   8.639  0.1135 -2.6911 -0.9862
  412MOL0     H56823   3.332   1.818   8.640 -1.0309  0.1355 -1.4309
  412MOL0     H56824   3.420   1.613   8.434 -2.5866 -0.3296 -1.8070
  412MOL0     H56825   3.461   1.780   8.456  1.8361 -0.7279  5.4810
  412MOL0     H56826   3.252   1.847   8.374  0.7391 -0.4248 -2.3128
  412MOL0     H56827   3.166   1.696   8.433  1.8555 -1.8291  2.9793
  412MOL0     H56828   3.251   1.572   8.249 -1.2921  0.6440  0.3476
  412MOL0     H56829   3.149   1.705   8.190 -0.9476 -2.1702 -0.8932
  412MOL0     H56830   3.445   1.748   8.183  0.8260  0.9140 -1.3689
  412MOL0     H56831   3.313   1.843   8.127  1.5934  0.3614 -3.6917
  412MOL0     H56832   3.256   1.641   7.973 -1.2761  0.6956  1.1324
  412MOL0     H56833   3.426   1.588   8.011 -0.7862 -1.2816 -5.4555
  412MOL0     H56834   3.360   1.853   7.878 -0.8222 -1.1866 -0.5786
  412MOL0     H56835   3.416   1.709   7.795  3.1283 -1.2107  0.1070
  412MOL0     H56836   3.583   1.810   8.900  0.2302 -0.6512 -1.8587
  412MOL0     H56837   3.750   1.785   9.067  0.4131 -0.7497 -0.3073
  412MOL0     H56838   3.892   1.664   9.523 -2.0847 -1.4765  0.2025
  412MOL0     H56839   4.063   1.610   9.677 -0.0646  0.2976  0.2881
  412MOL0     H56840   5.634   1.529  10.362  1.6948 -0.8338  0.9997
  412MOL0     H56841   5.850   1.374  10.351  0.5506 -1.2854 -0.5283
  412MOL0     H56842   6.181   1.262  10.006  1.4602 -0.0552  0.6688
  412MOL0     H56843   6.338   1.096   9.895  1.5628 -2.3515  0.2646
  412MOL0     H56844   6.490   0.941   9.843 -1.5555  0.7605  1.5487
  412MOL0     H56845   6.490   0.763   9.849 -0.2366 -0.3085 -1.1843
  412MOL0     H56846   6.433   0.845   9.610  0.1886  3.0763  0.5809
  412MOL0     H56847   6.297   0.915   9.676  0.7940 -0.2843 -2.7104
  412MOL0     H56848   6.333   0.617   9.729 -0.0888  0.7555  1.6000
  412MOL0     H56849   6.195   0.710   9.760  1.0005  2.4572  0.9447
  412MOL0     H56850   6.322   0.662   9.483 -0.5088  4.0346 -1.0264
  412MOL0     H56851   6.163   0.737   9.497  0.1156  0.7419  0.8803
  412MOL0     H56852   6.099   0.322   9.535  0.5631 -0.1212 -2.1690
  412MOL0     H56853   6.132   0.778  10.093 -2.1258 -0.1886  0.0709
  412MOL0     H56854   5.852   0.887  10.187  0.7042 -2.6547  0.2434
  412MOL0     H56855   5.998   0.826  10.269  0.5085 -0.6229  1.4566
  412MOL0     H56856   5.930   0.988  10.311  1.5396 -1.0006  0.7770
  413MOL0     O56857   7.472   5.619   6.498 -0.3596  0.8153 -0.5653
  413MOL0     C56858   7.544   5.640   6.590 -0.6716  0.0149 -0.7433
  413MOL0     O56859   7.599   5.768   6.603 -0.2831  0.7735 -0.5470
  413MOL0     C56860   7.615   5.833   6.485  0.8085  0.2819 -0.6154
  413MOL0     C56861   7.513   5.915   6.440  0.3562 -0.1429  0.5840
  413MOL0     C56862   7.516   5.966   6.307 -0.0329  0.4032  0.5964
  413MOL0     C56863   7.626   5.938   6.221  0.2248 -0.2655 -0.6185
  413MOL0     O56864   7.618   6.004   6.101  0.0965  0.0059  0.2022
  413MOL0     C56865   7.725   5.978   6.010  0.3151 -0.1071  0.1419
  413MOL0     C56866   7.728   6.062   5.877  0.0901  0.2972 -0.0009
  413MOL0     C56867   7.759   6.203   5.915  0.4340  0.3850  0.8318
  413MOL0     C56868   7.784   6.275   5.783  0.5556  0.1935  0.3000
  413MOL0     C56869   7.792   6.421   5.819  0.0722 -0.4537 -0.4220
  413MOL0     C56870   7.815   6.513   5.691 -0.0836  0.4252 -0.0092
  413MOL0     C56871   7.771   6.662   5.725 -0.0299  0.5127 -0.5514
  413MOL0     C56872   7.766   6.727   5.597 -0.5947  0.0358 -0.5883
  413MOL0     N56873   7.710   6.860   5.602  0.5125  0.9254  0.3698
  413MOL0     C56874   7.581   6.881   5.562 -0.1671 -0.4803  1.5081
  413MOL0     C56875   7.559   7.011   5.583 -0.6223  0.5067 -0.4614
  413MOL0     C56876   7.433   7.090   5.580  0.6306  0.7284  0.2534
  413MOL0     C56877   7.326   7.006   5.505 -0.3590  0.9735  0.0217
  413MOL0     C56878   7.196   7.080   5.510 -0.2181  0.1590  0.4396
  413MOL0     C56879   7.124   7.081   5.374 -0.5342  0.1324 -0.0017
  413MOL0     O56880   7.025   7.192   5.383 -0.3311 -0.3595  0.1549
  413MOL0     C56881   6.977   7.238   5.265  0.2201  0.0788 -0.5228
  413MOL0     C56882   6.834   7.251   5.239 -0.2086  0.0299  0.1434
  413MOL0     C56883   6.784   7.290   5.116 -0.3833 -0.1720  0.4147
  413MOL0     C56884   6.633   7.290   5.116 -0.3805  0.5275  0.3520
  413MOL0     C56885   6.872   7.323   5.003  0.7501  0.2873 -0.7359
  413MOL0     C56886   6.823   7.361   4.866 -1.1937 -0.4694 -1.4036
  413MOL0     O56887   6.919   7.370   4.769  0.2565  0.1006  0.0858
  413MOL0     C56888   6.883   7.408   4.643  0.9055  0.4850 -0.9294
  413MOL0     C56889   6.788   7.513   4.618 -0.2366 -0.3497 -0.7692
  413MOL0     C56890   6.766   7.547   4.484  0.8034 -0.2181 -0.4265
  413MOL0     C56891   6.834   7.488   4.374 -0.5177  0.1848 -1.1409
  413MOL0     O56892   6.821   7.541   4.245 -0.3734 -0.3081  0.0325
  413MOL0     C56893   6.929   7.501   4.150  0.6624 -0.5305  0.5229
  413MOL0     C56894   6.915   7.557   4.005 -0.2534 -1.7207  0.5639
  413MOL0     C56895   7.004   7.475   3.913 -0.1013 -0.4995 -0.0694
  413MOL0     C56896   6.990   7.522   3.768 -0.4189  0.6042 -0.4145
  413MOL0     C56897   7.081   7.425   3.680 -1.0238 -0.2949 -0.9776
  413MOL0     C56898   7.237   7.456   3.690 -0.1771  0.0737 -0.7630
  413MOL0     C56899   7.310   7.342   3.609  0.4807 -0.4646 -0.1155
  413MOL0     C56900   7.364   7.237   3.693 -0.1447  1.5973  0.0178
  413MOL0    Cl56901   7.475   7.114   3.613 -0.2896  0.1729 -0.1598
  413MOL0     C56902   6.918   7.379   4.409  1.0671 -0.5460  1.1056
  413MOL0     C56903   6.955   7.352   4.537 -0.4950  0.3499 -0.3257
  413MOL0     O56904   6.707   7.368   4.853  0.7211 -0.1808  0.3757
  413MOL0     C56905   7.008   7.311   5.033  0.3779  0.4320  0.2214
  413MOL0     C56906   7.059   7.270   5.159  1.0775 -0.8316  0.1808
  413MOL0     N56907   7.672   7.054   5.661 -0.7889 -0.4435  0.9053
  413MOL0     N56908   7.767   6.974   5.658  0.8391  0.1952  1.0228
  413MOL0     C56909   7.724   5.852   6.274  0.2325 -0.3176  0.5838
  413MOL0     C56910   7.715   5.799   6.402 -0.7614  0.0367 -0.1910
  413MOL0     C56911   7.572   5.553   6.706  0.1593  0.2569  0.6157
  413MOL0     C56912   7.629   5.599   6.824  0.4028 -0.2203  0.2017
  413MOL0     C56913   7.644   5.507   6.930  0.6896 -0.5095 -0.5358
  413MOL0     C56914   7.615   5.369   6.925 -0.1425  0.1963 -0.2781
  413MOL0     O56915   7.661   5.286   7.024 -0.1106 -0.2288  0.5593
  413MOL0     C56916   7.595   5.162   7.038  0.5685  0.2866 -0.2250
  413MOL0     C56917   7.611   5.120   7.192  0.8531  0.4699  0.5201
  413MOL0     C56918   7.512   5.002   7.223 -1.0387  0.4012 -0.5292
  413MOL0     C56919   7.537   4.957   7.367  0.0462  0.8079  0.9649
  413MOL0     C56920   7.665   4.884   7.388 -0.0810  0.9209  0.0261
  413MOL0     C56921   7.768   4.823   7.420  1.2781 -0.3290 -0.6831
  413MOL0     C56922   7.568   5.322   6.807  1.2255 -0.0775 -0.1974
  413MOL0     C56923   7.548   5.407   6.693 -0.3860 -0.2441  0.7346
  413MOL0     C56924   7.506   5.337   6.563  0.5097 -0.5597  0.6291
  413MOL0     H56925   7.429   5.947   6.502 -0.3640  1.6599 -1.2033
  413MOL0     H56926   7.438   6.031   6.269  2.1806  1.9930 -1.5178
  413MOL0     H56927   7.718   5.873   5.979  2.2084 -1.0835  2.5658
  413MOL0     H56928   7.822   5.985   6.061  0.6347 -0.0118 -0.4722
  413MOL0     H56929   7.802   6.024   5.806  1.7282  2.4859  0.4174
  413MOL0     H56930   7.633   6.060   5.822 -0.9153 -5.4624  1.2432
  413MOL0     H56931   7.674   6.249   5.965  1.9901  3.3221  1.0187
  413MOL0     H56932   7.852   6.209   5.973  1.3921 -0.2930 -0.5713
  413MOL0     H56933   7.878   6.241   5.739 -0.2603  1.3459 -2.6504
  413MOL0     H56934   7.705   6.271   5.707  1.7948 -1.2703 -0.9757
  413MOL0     H56935   7.882   6.430   5.880 -1.0014 -3.0693  1.7131
  413MOL0     H56936   7.707   6.459   5.876  0.6074  1.2254 -0.6552
  413MOL0     H56937   7.921   6.505   5.666 -0.6907  0.4482 -2.9552
  413MOL0     H56938   7.768   6.474   5.601 -0.2275  2.5847 -0.9315
  413MOL0     H56939   7.844   6.712   5.789 -0.5082  3.2605 -1.9999
  413MOL0     H56940   7.669   6.680   5.760  0.1163  0.2948  0.0028
  413MOL0     H56941   7.859   6.744   5.542 -1.5518 -0.8028 -2.5948
  413MOL0     H56942   7.695   6.674   5.532 -2.7010 -0.3054  1.8509
  413MOL0     H56943   7.507   6.810   5.528 -1.6321  0.4900  2.5021
  413MOL0     H56944   7.449   7.187   5.532 -0.9690  1.3014  0.7858
  413MOL0     H56945   7.400   7.103   5.684 -0.0356 -1.7654  0.4136
  413MOL0     H56946   7.354   6.986   5.401  0.6670 -0.2391  0.5057
  413MOL0     H56947   7.302   6.907   5.544 -1.0877  1.4158  0.7182
  413MOL0     H56948   7.128   7.029   5.580  2.3223 -0.8680  2.3028
  413MOL0     H56949   7.210   7.182   5.547 -1.1397  1.1420 -1.7433
  413MOL0     H56950   7.199   7.095   5.296 -0.6387  0.5150 -0.0362
  413MOL0     H56951   7.080   6.982   5.366 -0.0166 -0.0159 -1.1846
  413MOL0     H56952   6.777   7.241   5.330  0.5182 -0.7990  0.5312
  413MOL0     H56953   6.601   7.252   5.213  4.1705 -0.5669  1.6628
  413MOL0     H56954   6.605   7.215   5.041  4.1151  0.5446 -1.6430
  413MOL0     H56955   6.586   7.383   5.081 -0.2325 -0.2494 -2.1330
  413MOL0     H56956   6.746   7.575   4.697 -1.1521 -2.2682  0.3086
  413MOL0     H56957   6.692   7.617   4.449 -1.8837 -2.7210 -0.1269
  413MOL0     H56958   7.024   7.525   4.199  1.3102 -0.8226 -0.5610
  413MOL0     H56959   6.928   7.394   4.127 -2.1364 -0.2729 -1.0683
  413MOL0     H56960   6.815   7.540   3.964 -0.6699 -0.4788  1.0351
  413MOL0     H56961   6.941   7.663   3.996 -0.8965 -1.6330 -0.3374
  413MOL0     H56962   6.992   7.366   3.919 -0.8805 -0.3954  0.4840
  413MOL0     H56963   7.110   7.491   3.932  0.6503 -3.3317 -1.3935
  413MOL0     H56964   7.016   7.627   3.749 -0.8631  0.3210 -2.9784
  413MOL0     H56965   6.884   7.513   3.744 -0.7352 -2.1663  1.5748
  413MOL0     H56966   7.053   7.320   3.690 -0.8080 -0.3298 -0.7602
  413MOL0     H56967   7.052   7.458   3.579 -0.1513  0.6811 -0.9262
  413MOL0     H56968   7.265   7.467   3.795 -3.2129  0.5304  0.1001
  413MOL0     H56969   7.239   7.551   3.637  0.7407  1.0075  0.8675
  413MOL0     H56970   7.406   7.380   3.573  0.9619 -0.1203  1.4623
  413MOL0     H56971   7.255   7.320   3.517  3.7839  0.5766 -2.5574
  413MOL0     H56972   7.289   7.178   3.745  3.2850 -0.9868  2.5083
  413MOL0     H56973   7.413   7.286   3.778 -1.1101  4.6696 -1.0434
  413MOL0     H56974   6.973   7.331   4.328 -2.3114  3.2986 -4.1475
  413MOL0     H56975   7.015   7.267   4.569 -0.9132 -0.7279 -2.2592
  413MOL0     H56976   7.078   7.346   4.958  1.4320 -0.6031  0.6842
  413MOL0     H56977   7.163   7.287   5.181  0.4790  1.8559  1.3378
  413MOL0     H56978   7.809   5.819   6.215 -1.7108 -0.5521 -2.2930
  413MOL0     H56979   7.785   5.726   6.441 -1.4846 -1.5581 -1.7456
  413MOL0     H56980   7.650   5.704   6.840 -1.9722  0.1779  1.1625
  413MOL0     H56981   7.678   5.537   7.028  0.1466  2.3848 -1.1458
  413MOL0     H56982   7.488   5.175   7.019  1.2336  3.0826 -2.9949
  413MOL0     H56983   7.633   5.080   6.977 -0.4885 -0.1528 -0.3183
  413MOL0     H56984   7.592   5.199   7.264 -3.5535 -2.9841  3.7235
  413MOL0     H56985   7.714   5.087   7.206  1.1534  1.0322 -0.2583
  413MOL0     H56986   7.409   5.041   7.231 -1.7405 -1.7055  2.3429
  413MOL0     H56987   7.510   4.922   7.149  0.6002  0.6522 -0.8701
  413MOL0     H56988   7.453   4.899   7.407 -0.5410  0.1340 -1.1133
  413MOL0     H56989   7.550   5.042   7.434 -1.1993  2.6699 -1.0207
  413MOL0     H56990   7.843   4.754   7.451  0.9357 -0.7252 -0.7243
  413MOL0     H56991   7.544   5.220   6.780  0.4633 -0.2574  1.0979
  413MOL0     H56992   7.414   5.374   6.519  0.0487  0.4734  2.3560
  413MOL0     H56993   7.576   5.362   6.483  0.9278 -2.4048  0.3745
  413MOL0     H56994   7.503   5.229   6.579 -0.1407 -0.5650  0.4694
  414MOL0     O56995   1.376   9.415  10.644  0.1402  0.5256 -1.3490
  414MOL0     C56996   1.488   9.394  10.597  0.4806 -0.0138 -0.8554
  414MOL0     O56997   1.575   9.290  10.625  0.1320  0.0634  0.4302
  414MOL0     C56998   1.536   9.183  10.701  0.6939  0.5305 -0.3427
  414MOL0     C56999   1.399   9.132  10.727 -0.1868  0.4247 -0.4674
  414MOL0     C57000   1.390   9.035  10.829  0.4021  0.4653  0.2109
  414MOL0     C57001   1.502   8.986  10.894 -0.7346  0.0401  0.4502
  414MOL0     O57002   1.489   8.895  10.994  0.3072 -0.0993  0.3846
  414MOL0     C57003   1.530   8.761  10.964 -0.1994 -0.6282  0.5105
  414MOL0     C57004   1.539   8.664  11.080 -0.8307  0.3647 -0.7845
  414MOL0     C57005   1.417   8.665  11.161  0.4774  0.1972 -0.0279
  414MOL0     C57006   1.449   8.662  11.313 -0.3639 -0.5380  0.1961
  414MOL0     C57007   1.330   8.654  11.411  0.0067 -0.2198  0.0019
  414MOL0     C57008   1.270   8.517  11.425  0.2303  1.0427  0.4752
  414MOL0     C57009   1.149   8.489  11.331  0.2064 -0.0908  0.2773
  414MOL0     C57010   1.030   8.583  11.343  0.6092  0.0875  0.1404
  414MOL0     N57011   0.909   8.528  11.289  0.6058  1.0789 -0.9141
  414MOL0     C57012   0.875   8.515  11.157  0.2094 -0.2170  0.1095
  414MOL0     C57013   0.749   8.473  11.165  0.2181 -0.2302  0.1686
  414MOL0     C57014   0.679   8.435  11.035  0.0845 -0.0144  0.2248
  414MOL0     C57015   0.529   8.465  11.031  0.0790 -0.5010  0.2662
  414MOL0     C57016   0.490   8.616  11.011 -0.8618 -0.6826  0.1853
  414MOL0     C57017   0.344   8.630  10.974 -1.0145 -0.4624 -0.5197
  414MOL0     O57018   0.297   8.538  10.878 -0.6382  0.3464  0.7377
  414MOL0     C57019   0.161   8.544  10.844 -0.7774  0.2508 -0.5560
  414MOL0     C57020   0.132   8.467  10.737 -0.7797 -0.2768  0.1940
  414MOL0     C57021   0.010   8.460  10.674 -0.7365  0.9058  0.1790
  414MOL0     C57022   0.009   8.365  10.555  0.3236 -0.7491  0.1058
  414MOL0     C57023  -0.088   8.549  10.710  1.5873  0.1289  0.5213
  414MOL0     C57024  -0.229   8.542  10.663 -0.5990 -1.0085  1.0619
  414MOL0     O57025  -0.289   8.666  10.670 -0.8426  0.0880  0.2188
  414MOL0     C57026  -0.417   8.694  10.636 -0.5752  0.4139  0.0803
  414MOL0     C57027  -0.454   8.825  10.680 -0.8517 -0.2476  0.7055
  414MOL0     C57028  -0.585   8.870  10.650 -0.2921  0.5252 -0.9427
  414MOL0     C57029  -0.680   8.798  10.574 -0.4132 -0.5481  0.4007
  414MOL0     O57030  -0.797   8.841  10.532  0.8710 -0.2764 -0.5596
  414MOL0     C57031  -0.789   8.986  10.490  0.5004  0.1723 -0.0916
  414MOL0     C57032  -0.929   9.029  10.449  0.6736 -0.3421 -0.2847
  414MOL0     C57033  -0.993   9.107  10.558  0.2151  0.1262  0.5541
  414MOL0     C57034  -1.139   9.124  10.523 -0.4890  0.3685 -0.2494
  414MOL0     C57035  -1.218   9.190  10.645 -0.0748  0.2708 -0.2169
  414MOL0     C57036  -1.371   9.189  10.607 -0.4383 -0.1629 -0.2738
  414MOL0     C57037  -1.458   9.288  10.703 -0.4197  0.8749 -0.0777
  414MOL0     C57038  -1.474   9.229  10.847 -0.0930 -0.2857  0.0203
  414MOL0    Cl57039  -1.563   9.350  10.950 -0.4823  0.0979  0.3965
  414MOL0     C57040  -0.640   8.670  10.537  0.1519 -0.1729  0.0605
  414MOL0     C57041  -0.512   8.613  10.569  0.2136 -0.4585 -0.0145
  414MOL0     O57042  -0.276   8.436  10.620 -0.0329  0.1404 -0.4573
  414MOL0     C57043  -0.062   8.638  10.821  0.1185 -0.5661 -0.5538
  414MOL0     C57044   0.064   8.628  10.889  0.0768 -0.2872 -0.5604
  414MOL0     N57045   0.703   8.464  11.296 -0.0057 -0.4458  0.0496
  414MOL0     N57046   0.802   8.493  11.370 -0.3777 -0.1864 -0.3176
  414MOL0     C57047   1.622   9.030  10.860 -0.3324 -0.0082  0.6077
  414MOL0     C57048   1.647   9.129  10.767  0.5272 -0.2651 -0.4254
  414MOL0     C57049   1.548   9.506  10.515 -1.0787 -0.6509  0.2032
  414MOL0     C57050   1.681   9.512  10.489  0.3775 -0.3341  0.4002
  414MOL0     C57051   1.732   9.612  10.401 -1.0939  0.8217  0.2084
  414MOL0     C57052   1.657   9.719  10.344 -0.1351  0.9538  0.1743
  414MOL0     O57053   1.728   9.820  10.281  0.6118  0.2488  0.0796
  414MOL0     C57054   1.651   9.943  10.251 -0.1369  0.4097  0.4615
  414MOL0     C57055   1.736  10.059  10.194 -0.5717  1.2883  0.1567
  414MOL0     C57056   1.885  10.062  10.233 -0.6132 -0.6092 -0.1186
  414MOL0     C57057   1.891  10.105  10.386 -0.3992  0.4304 -0.1673
  414MOL0     C57058   2.031  10.144  10.422  0.5353  0.1223 -1.0756
  414MOL0     C57059   2.141  10.182  10.446 -0.3023 -0.9890 -0.1882
  414MOL0     C57060   1.523   9.705  10.363 -0.6557 -0.4823 -0.0899
  414MOL0     C57061   1.470   9.602  10.445  0.7541  0.0171  0.4242
  414MOL0     C57062   1.316   9.595  10.428 -0.1451  0.4548  0.4955
  414MOL0     H57063   1.315   9.180  10.678  0.9259  3.7576  0.6552
  414MOL0     H57064   1.294   8.992  10.858 -0.4384  1.0938 -1.5068
  414MOL0     H57065   1.631   8.767  10.922  0.0699 -3.5858  0.5242
  414MOL0     H57066   1.465   8.712  10.892  0.7359  0.9928 -1.5380
  414MOL0     H57067   1.550   8.564  11.037 -0.8821  0.3083 -0.6697
  414MOL0     H57068   1.617   8.687  11.154 -1.8496  2.3185 -0.2531
  414MOL0     H57069   1.355   8.753  11.141  0.6014 -0.5659 -4.7708
  414MOL0     H57070   1.349   8.584  11.131 -0.2798  1.3057 -1.4179
  414MOL0     H57071   1.523   8.583  11.330 -1.1362 -1.7182 -1.6453
  414MOL0     H57072   1.496   8.756  11.343 -0.9334 -0.7193  1.7563
  414MOL0     H57073   1.256   8.732  11.385  1.1332  0.6847 -0.5829
  414MOL0     H57074   1.374   8.683  11.507 -0.6404  2.3348 -0.3874
  414MOL0     H57075   1.345   8.439  11.408 -0.6495  0.5433 -1.3444
  414MOL0     H57076   1.249   8.504  11.531  2.4034 -1.7329  0.7037
  414MOL0     H57077   1.122   8.385  11.355  0.4007 -0.4183 -0.8468
  414MOL0     H57078   1.180   8.500  11.227  0.3600  0.5440  0.3898
  414MOL0     H57079   1.014   8.604  11.450 -1.5243 -3.7838  0.7665
  414MOL0     H57080   1.051   8.673  11.285 -1.1130  1.7161  1.8789
  414MOL0     H57081   0.933   8.527  11.066  0.1940  0.6986  0.2121
  414MOL0     H57082   0.699   8.329  11.017 -0.5699 -0.6099  2.6689
  414MOL0     H57083   0.731   8.487  10.954  3.4967 -1.3893  1.3817
  414MOL0     H57084   0.480   8.400  10.957 -1.9961 -0.7355  1.7842
  414MOL0     H57085   0.474   8.429  11.118 -2.1804  0.4534 -0.7138
  414MOL0     H57086   0.513   8.674  11.101 -2.7149 -2.3248  1.8149
  414MOL0     H57087   0.537   8.660  10.922 -0.4366  0.4800  0.9570
  414MOL0     H57088   0.285   8.627  11.066 -0.0290  0.5882  0.1691
  414MOL0     H57089   0.338   8.733  10.939 -0.9794 -0.1473  0.3668
  414MOL0     H57090   0.213   8.404  10.703  1.4392  2.1077  0.7119
  414MOL0     H57091  -0.053   8.399  10.471 -0.5686 -1.2214  0.5640
  414MOL0     H57092  -0.024   8.264  10.579  0.4597 -1.1427 -1.2491
  414MOL0     H57093   0.112   8.355  10.519  1.0921  1.4572  1.5089
  414MOL0     H57094  -0.384   8.893  10.727  0.8636 -1.5104  0.0491
  414MOL0     H57095  -0.606   8.968  10.693  2.3621 -0.2706  2.6014
  414MOL0     H57096  -0.750   9.056  10.565 -1.1027  2.8384 -1.6133
  414MOL0     H57097  -0.728   8.992  10.400  1.3928 -1.7085  0.3274
  414MOL0     H57098  -0.911   9.097  10.366 -0.4266  0.7344  0.3222
  414MOL0     H57099  -0.982   8.938  10.418  0.0559 -1.3013  3.1318
  414MOL0     H57100  -0.949   9.206  10.575 -0.7641  0.9272 -1.2992
  414MOL0     H57101  -0.972   9.035  10.638 -0.9541 -3.4849 -2.1609
  414MOL0     H57102  -1.189   9.028  10.511 -0.0303  0.0519  0.3125
  414MOL0     H57103  -1.153   9.182  10.431  1.5949  1.3740  0.0247
  414MOL0     H57104  -1.202   9.133  10.737  0.8174 -1.4555 -1.3902
  414MOL0     H57105  -1.174   9.289  10.658  1.9459 -0.2729 -2.2210
  414MOL0     H57106  -1.414   9.092  10.581 -4.7825  2.5403 -4.8271
  414MOL0     H57107  -1.378   9.247  10.515 -1.3111 -0.9781 -0.7296
  414MOL0     H57108  -1.554   9.315  10.658 -0.3658 -2.5375 -2.6399
  414MOL0     H57109  -1.389   9.372  10.717  1.1735 -0.2425 -0.9061
  414MOL0     H57110  -1.382   9.203  10.899  0.6309  1.8981 -0.0548
  414MOL0     H57111  -1.528   9.135  10.837  1.7355 -1.6123  1.8551
  414MOL0     H57112  -0.709   8.624  10.468 -0.9306  1.9346 -0.3444
  414MOL0     H57113  -0.492   8.513  10.531 -2.1804 -0.2377 -2.0758
  414MOL0     H57114  -0.122   8.721  10.856  1.4587  0.7775 -1.3571
  414MOL0     H57115   0.083   8.696  10.972  0.6999 -0.0679 -0.8797
  414MOL0     H57116   1.711   8.989  10.908 -1.0518  2.1214  4.1656
  414MOL0     H57117   1.749   9.165  10.756  1.4265 -1.8304  2.0310
  414MOL0     H57118   1.746   9.432  10.523 -1.3165 -3.2890 -2.7174
  414MOL0     H57119   1.839   9.600  10.384 -1.0153 -0.7236  1.5856
  414MOL0     H57120   1.576   9.920  10.174  1.1960 -0.4551 -0.6305
  414MOL0     H57121   1.607   9.974  10.346  2.3946  1.5435  1.3375
  414MOL0     H57122   1.682  10.148  10.230 -0.6616  1.6035 -0.7286
  414MOL0     H57123   1.732  10.054  10.085 -0.0973  3.1556  0.0140
  414MOL0     H57124   1.928   9.962  10.220 -0.7140 -0.7615  0.6539
  414MOL0     H57125   1.952  10.126  10.175 -0.8511 -0.1677  0.0894
  414MOL0     H57126   1.852  10.029  10.454  0.5275  1.7845  2.0132
  414MOL0     H57127   1.830  10.195  10.402  1.0857  1.1351  1.9756
  414MOL0     H57128   2.242  10.205  10.474 -0.3825 -1.4939  0.5781
  414MOL0     H57129   1.450   9.772  10.320 -3.5063 -0.8785  3.5838
  414MOL0     H57130   1.273   9.496  10.411 -0.1292  0.9801 -3.5064
  414MOL0     H57131   1.279   9.635  10.523 -3.6345 -0.7332 -0.2076
  414MOL0     H57132   1.273   9.657  10.348 -1.6081  1.9623  2.3443
  415MOL0     O57133   5.303   6.619   0.419  0.1531 -0.0809  0.4030
  415MOL0     C57134   5.215   6.580   0.493 -0.1024 -0.7924 -0.2755
  415MOL0     O57135   5.130   6.665   0.551 -0.3327 -0.7528 -0.6533
  415MOL0     C57136   5.154   6.802   0.555  0.3720 -0.5003  0.8984
  415MOL0     C57137   5.052   6.895   0.564 -0.8447  0.4071  0.2779
  415MOL0     C57138   5.070   7.025   0.577  0.9181 -0.6892 -1.7356
  415MOL0     C57139   5.201   7.087   0.592  1.0000 -0.4719  0.9776
  415MOL0     O57140   5.227   7.212   0.624  0.1056 -0.2044 -0.3873
  415MOL0     C57141   5.129   7.306   0.670  0.2290 -0.6205  0.3292
  415MOL0     C57142   5.175   7.440   0.617  0.0801  0.2708  0.2347
  415MOL0     C57143   5.091   7.560   0.652 -0.2159  0.4862  0.2763
  415MOL0     C57144   5.106   7.602   0.800  0.2471  0.2365  0.3304
  415MOL0     C57145   5.005   7.715   0.827  0.0771 -0.5326 -0.1143
  415MOL0     C57146   4.999   7.769   0.970 -1.2264  0.7796  0.8040
  415MOL0     C57147   4.902   7.892   0.982  0.3455  0.3933  0.4384
  415MOL0     C57148   4.780   7.828   1.054 -0.5179 -0.8582  0.2752
  415MOL0     N57149   4.681   7.927   1.081  0.4135 -0.1271  0.3673
  415MOL0     C57150   4.594   7.995   0.998 -0.4016 -0.7889 -0.2728
  415MOL0     C57151   4.509   8.059   1.072  0.4574  0.1244 -0.0701
  415MOL0     C57152   4.376   8.123   1.036  0.2962 -0.2543  0.4518
  415MOL0     C57153   4.398   8.235   0.932  0.4598  1.1478  0.0523
  415MOL0     C57154   4.326   8.191   0.805  1.0216 -1.2368  0.8363
  415MOL0     C57155   4.282   8.311   0.724  0.3476  0.1512  0.2698
  415MOL0     O57156   4.229   8.277   0.592  0.3116 -0.3453 -0.2602
  415MOL0     C57157   4.218   8.392   0.524  0.0297  0.1953 -0.2244
  415MOL0     C57158   4.108   8.481   0.542 -0.2485  0.4627 -0.2568
  415MOL0     C57159   4.088   8.593   0.462 -0.3494 -0.1314  0.5617
  415MOL0     C57160   3.961   8.672   0.495 -1.4955 -0.9838 -0.2367
  415MOL0     C57161   4.181   8.624   0.355 -0.6480  0.3552 -0.0526
  415MOL0     C57162   4.181   8.747   0.276  0.4689  0.4197 -0.6151
  415MOL0     O57163   4.256   8.738   0.165 -0.5289  0.1429 -0.3944
  415MOL0     C57164   4.261   8.855   0.090 -0.1136 -0.1680 -0.8604
  415MOL0     C57165   4.188   8.875  -0.015  0.9323  0.9111  0.3169
  415MOL0     C57166   4.192   8.999  -0.091  0.2542 -0.7603  0.3167
  415MOL0     C57167   4.272   9.098  -0.046  0.9274 -0.0016 -0.1367
  415MOL0     O57168   4.282   9.212  -0.122 -1.0593  0.0906 -0.0740
  415MOL0     C57169   4.367   9.195  -0.236 -1.0874  0.0270  0.3883
  415MOL0     C57170   4.310   9.131  -0.358 -1.0934 -0.5387 -0.2919
  415MOL0     C57171   4.177   9.201  -0.390  0.2609  0.0034  0.1129
  415MOL0     C57172   4.105   9.116  -0.498  0.1679  0.1836  0.1789
  415MOL0     C57173   3.984   9.188  -0.537  0.3010  0.0221  0.1587
  415MOL0     C57174   3.853   9.153  -0.458  0.5862 -0.2277 -0.1337
  415MOL0     C57175   3.781   9.042  -0.524  1.1171  0.5432  0.2680
  415MOL0     C57176   3.697   8.965  -0.420  0.1257  0.5402 -0.5585
  415MOL0    Cl57177   3.592   8.832  -0.482  0.2769  0.0428  0.1205
  415MOL0     C57178   4.347   9.081   0.072 -0.7477 -0.5140 -0.2625
  415MOL0     C57179   4.348   8.956   0.137  0.5685 -0.0495  1.0248
  415MOL0     O57180   4.130   8.846   0.326  0.2120 -0.6000  0.4043
  415MOL0     C57181   4.291   8.536   0.341  0.7071  0.1151  0.1998
  415MOL0     C57182   4.310   8.424   0.420 -0.4169  0.3258 -0.1008
  415MOL0     N57183   4.539   8.033   1.207 -0.4780  0.3034 -0.7871
  415MOL0     N57184   4.644   7.952   1.212 -0.4632  0.0743  0.3805
  415MOL0     C57185   5.301   6.998   0.599  0.8034 -0.7995  0.4281
  415MOL0     C57186   5.281   6.859   0.578 -0.1337 -0.4030  0.6428
  415MOL0     C57187   5.202   6.443   0.535 -0.5010 -0.3115  0.0799
  415MOL0     C57188   5.184   6.409   0.660 -0.3534  0.3904 -0.5074
  415MOL0     C57189   5.152   6.279   0.709  0.4040  0.0669  0.2025
  415MOL0     C57190   5.125   6.175   0.620  0.4750  0.3649  0.3146
  415MOL0     O57191   5.102   6.050   0.673 -0.4801 -0.2499  0.1427
  415MOL0     C57192   5.064   5.944   0.591 -0.0462  0.9763  0.6377
  415MOL0     C57193   4.999   5.827   0.656  0.8127  0.2050  0.1640
  415MOL0     C57194   5.102   5.748   0.730 -0.2231  0.7909 -0.3436
  415MOL0     C57195   5.052   5.635   0.824 -0.1994 -0.4544  0.6625
  415MOL0     C57196   5.000   5.687   0.946  0.9659 -0.6688  0.8642
  415MOL0     C57197   4.961   5.707   1.063 -0.3036 -0.7014  0.0216
  415MOL0     C57198   5.155   6.203   0.485  0.5295 -1.1331 -0.4458
  415MOL0     C57199   5.198   6.334   0.444  0.0237 -0.8559  0.4626
  415MOL0     C57200   5.216   6.366   0.291 -0.8133  0.1950  0.1521
  415MOL0     H57201   4.953   6.849   0.559 -0.4318 -0.7152  1.6396
  415MOL0     H57202   4.981   7.087   0.571 -0.3849 -2.5387 -2.3620
  415MOL0     H57203   5.129   7.303   0.780 -1.5166  0.8831  0.4184
  415MOL0     H57204   5.026   7.290   0.636  0.7749 -1.4285 -0.9957
  415MOL0     H57205   5.276   7.443   0.659  0.0085  0.0967  0.4197
  415MOL0     H57206   5.177   7.434   0.507  0.6258  2.7792  0.0503
  415MOL0     H57207   5.105   7.632   0.570  2.3337 -2.7193 -2.3775
  415MOL0     H57208   4.990   7.518   0.646 -0.4827  0.0676  4.7790
  415MOL0     H57209   5.089   7.510   0.857  1.9392 -0.5059 -0.3174
  415MOL0     H57210   5.205   7.640   0.825  0.4480 -0.3084  0.3577
  415MOL0     H57211   4.905   7.685   0.796 -1.1479  2.5561  0.4807
  415MOL0     H57212   5.038   7.798   0.764 -0.8673 -0.0232  0.0477
  415MOL0     H57213   4.982   7.679   1.029  1.7811  0.6220  1.6257
  415MOL0     H57214   5.099   7.796   1.006 -0.9180  1.1365 -0.2732
  415MOL0     H57215   4.873   7.923   0.881 -2.5808  0.6772  1.2973
  415MOL0     H57216   4.954   7.967   1.042 -0.0471  1.1633 -0.1759
  415MOL0     H57217   4.742   7.734   1.012  0.6262 -1.4724  0.5797
  415MOL0     H57218   4.809   7.804   1.157  1.7229 -0.0209 -0.1021
  415MOL0     H57219   4.600   7.980   0.891  1.4757  0.4672 -0.4002
  415MOL0     H57220   4.330   8.165   1.125 -2.2877 -2.6894  0.3956
  415MOL0     H57221   4.301   8.050   1.004 -3.8839  3.0390  1.7863
  415MOL0     H57222   4.359   8.323   0.985 -0.1904 -0.5394  2.5068
  415MOL0     H57223   4.503   8.252   0.906  1.1510 -2.2970  0.1953
  415MOL0     H57224   4.402   8.139   0.745  1.0973  1.1704 -1.3269
  415MOL0     H57225   4.242   8.124   0.825 -0.2955  0.3112  0.6477
  415MOL0     H57226   4.199   8.369   0.766 -0.8331 -2.0472  1.1484
  415MOL0     H57227   4.364   8.383   0.724  0.4827  0.0723 -1.9601
  415MOL0     H57228   4.038   8.462   0.623  1.1361  1.2599  1.1854
  415MOL0     H57229   3.939   8.661   0.601  1.6526  0.7106  0.7343
  415MOL0     H57230   3.883   8.633   0.430  0.6946 -3.1376 -1.7617
  415MOL0     H57231   3.962   8.781   0.488  3.5685 -0.7604 -0.0453
  415MOL0     H57232   4.135   8.791  -0.059 -0.7811  1.7563  0.6702
  415MOL0     H57233   4.137   9.013  -0.184  1.1771 -1.2789 -0.3248
  415MOL0     H57234   4.397   9.297  -0.259 -0.0664 -0.6230 -1.3886
  415MOL0     H57235   4.457   9.134  -0.217 -1.6927 -0.5951  1.3443
  415MOL0     H57236   4.365   9.134  -0.452  0.1008 -1.4505  0.3564
  415MOL0     H57237   4.284   9.026  -0.339 -2.4202 -0.5246 -1.8090
  415MOL0     H57238   4.189   9.304  -0.426 -1.2448 -0.0649 -0.6653
  415MOL0     H57239   4.109   9.197  -0.305 -0.1404 -0.8256 -0.2260
  415MOL0     H57240   4.097   9.010  -0.471  2.4683  0.3753  1.9874
  415MOL0     H57241   4.162   9.111  -0.592 -3.1331  2.6111 -2.1832
  415MOL0     H57242   3.995   9.297  -0.533  0.0328  0.0318  0.7971
  415MOL0     H57243   3.960   9.155  -0.638  1.0157 -0.1151  0.0309
  415MOL0     H57244   3.782   9.236  -0.460  1.0251  0.1829  0.9215
  415MOL0     H57245   3.880   9.127  -0.355  1.0819  0.0629 -0.1895
  415MOL0     H57246   3.854   8.971  -0.562  0.6895  0.7194 -0.9175
  415MOL0     H57247   3.712   9.082  -0.599  0.7318  2.9990  1.8082
  415MOL0     H57248   3.631   9.028  -0.359 -1.9570 -0.7648 -1.3320
  415MOL0     H57249   3.765   8.912  -0.353 -1.2638  0.9847  1.2559
  415MOL0     H57250   4.416   9.150   0.119  1.4978 -1.8265 -1.4550
  415MOL0     H57251   4.401   8.949   0.231 -1.8198  3.1056  2.8305
  415MOL0     H57252   4.368   8.559   0.268 -2.6327 -0.4299 -3.8524
  415MOL0     H57253   4.395   8.362   0.394 -2.1315 -1.3810 -2.0132
  415MOL0     H57254   5.406   7.025   0.605  0.6795 -0.4150  0.9463
  415MOL0     H57255   5.369   6.797   0.571  0.0596  0.0466 -2.4637
  415MOL0     H57256   5.200   6.478   0.742 -2.7708 -1.8698  2.1068
  415MOL0     H57257   5.139   6.256   0.815 -0.6822 -1.3583 -0.2083
  415MOL0     H57258   5.001   5.993   0.515  4.1960  5.3588 -0.5553
  415MOL0     H57259   5.141   5.894   0.532 -0.4526  1.5205 -0.3825
  415MOL0     H57260   4.946   5.763   0.584  1.3116 -0.8903  0.7483
  415MOL0     H57261   4.924   5.878   0.717 -0.4343  1.3177 -2.1727
  415MOL0     H57262   5.173   5.706   0.658  2.1007  2.6136  0.7174
  415MOL0     H57263   5.158   5.823   0.788 -1.5223  1.8868 -0.4715
  415MOL0     H57264   5.136   5.568   0.846  1.0748  1.0116  0.4696
  415MOL0     H57265   4.986   5.575   0.762 -0.2517  0.8229 -0.5723
  415MOL0     H57266   4.928   5.716   1.165 -0.0965  1.5932 -0.0528
  415MOL0     H57267   5.122   6.135   0.407  0.2490 -0.6077 -0.7863
  415MOL0     H57268   5.152   6.450   0.262 -0.7388 -0.4657 -2.0861
  415MOL0     H57269   5.320   6.392   0.274 -1.1707  2.0550  0.6280
  415MOL0     H57270   5.187   6.279   0.231  0.6526 -1.6058  1.8799
  416MOL0     O57271   0.383   8.298   9.851 -0.5463  0.1344 -0.0602
  416MOL0     C57272   0.339   8.297   9.737  0.6753 -0.1619  0.2708
  416MOL0     O57273   0.413   8.284   9.625  0.1501  0.3691 -0.0169
  416MOL0     C57274   0.547   8.311   9.644  0.6958 -0.3328  1.1171
  416MOL0     C57275   0.623   8.196   9.644 -0.8051 -0.5456  0.5093
  416MOL0     C57276   0.759   8.216   9.667 -0.1525  0.0365  0.0028
  416MOL0     C57277   0.821   8.339   9.676 -0.5859 -0.8773 -0.4973
  416MOL0     O57278   0.955   8.353   9.688 -0.8211  0.6875  0.5167
  416MOL0     C57279   1.041   8.238   9.677 -0.0433  0.3310  1.0655
  416MOL0     C57280   1.057   8.170   9.820 -0.4381  0.4669  1.1144
  416MOL0     C57281   1.128   8.262   9.924  0.4000  1.4973 -0.1544
  416MOL0     C57282   1.167   8.196  10.059 -0.9241 -0.8861 -0.3281
  416MOL0     C57283   1.240   8.292  10.149  0.5233 -0.5188 -1.1860
  416MOL0     C57284   1.387   8.312  10.093 -0.2451 -0.4183  0.1350
  416MOL0     C57285   1.478   8.362  10.206  0.7491  0.3744  0.5548
  416MOL0     C57286   1.621   8.394  10.169 -0.1042  0.9073 -0.0749
  416MOL0     N57287   1.685   8.422  10.299 -0.6497 -0.5296  0.1130
  416MOL0     C57288   1.708   8.332  10.402 -0.1682  0.1653  0.8921
  416MOL0     C57289   1.812   8.377  10.476  0.9815  0.2745  0.6856
  416MOL0     C57290   1.857   8.324  10.608  0.4277  0.2515  0.8274
  416MOL0     C57291   1.786   8.391  10.726  0.4065 -0.0902  0.0872
  416MOL0     C57292   1.760   8.281  10.830 -0.1737  0.3333  0.1454
  416MOL0     C57293   1.883   8.218  10.902 -0.0687 -0.5626 -0.1249
  416MOL0     O57294   1.971   8.153  10.811  0.7179  0.3430  0.5221
  416MOL0     C57295   1.968   8.010  10.817 -0.1542 -0.9527 -0.2902
  416MOL0     C57296   2.060   7.955  10.908  0.2681 -0.3354  1.0406
  416MOL0     C57297   2.066   7.809  10.931 -0.7249 -0.7202 -0.2101
  416MOL0     C57298   2.185   7.758  11.013  0.0436  0.2498 -0.9764
  416MOL0     C57299   1.965   7.730  10.871  0.4723 -1.1716  0.2762
  416MOL0     C57300   1.962   7.582  10.886  0.3609  0.1320  0.1916
  416MOL0     O57301   1.849   7.529  10.831  0.6829  0.1975 -0.6703
  416MOL0     C57302   1.829   7.395  10.823 -1.4519  0.7095 -0.1790
  416MOL0     C57303   1.846   7.319  10.937  0.4135  0.2730 -0.0696
  416MOL0     C57304   1.841   7.183  10.927 -0.0120  0.3365  0.6104
  416MOL0     C57305   1.832   7.105  10.804 -0.8500 -0.6807  0.3058
  416MOL0     O57306   1.829   6.966  10.791  0.9983 -0.7874 -0.0772
  416MOL0     C57307   1.747   6.905  10.888 -0.3220  0.6865 -1.1491
  416MOL0     C57308   1.703   6.770  10.836 -0.1943 -0.9509  0.8729
  416MOL0     C57309   1.666   6.676  10.949  0.2758 -0.2261 -0.3064
  416MOL0     C57310   1.616   6.538  10.886  0.2906 -0.8839  0.1234
  416MOL0     C57311   1.563   6.433  10.982  0.0411 -0.2289 -0.6343
  416MOL0     C57312   1.632   6.297  10.968 -0.1837  0.0542 -0.0625
  416MOL0     C57313   1.588   6.182  11.056 -0.0651  0.0440 -0.0076
  416MOL0     C57314   1.686   6.063  11.068  1.0806  0.1701  0.4806
  416MOL0    Cl57315   1.686   5.965  10.911 -0.4679  0.0176 -0.0275
  416MOL0     C57316   1.814   7.183  10.689 -0.0300  0.3564  0.2450
  416MOL0     C57317   1.808   7.327  10.702 -0.0839 -0.3942 -0.4335
  416MOL0     O57318   2.053   7.522  10.938  0.4000 -0.4993 -0.1096
  416MOL0     C57319   1.869   7.794  10.794  0.5306  0.3628  1.2750
  416MOL0     C57320   1.866   7.935  10.760 -0.0109  0.5765  0.4183
  416MOL0     N57321   1.867   8.480  10.400  0.3833  0.8177  0.0138
  416MOL0     N57322   1.782   8.510  10.303 -0.6417 -1.4522  0.6913
  416MOL0     C57323   0.740   8.455   9.659  0.1587  0.2095 -0.2485
  416MOL0     C57324   0.603   8.438   9.633  0.1961  0.1625 -0.7612
  416MOL0     C57325   0.186   8.288   9.728  0.1463 -0.5628  0.4117
  416MOL0     C57326   0.130   8.324   9.603  0.1893  0.7549  0.1626
  416MOL0     C57327  -0.014   8.325   9.583 -0.1071  1.0435  0.2763
  416MOL0     C57328  -0.098   8.284   9.689  0.0648 -0.3689  0.2333
  416MOL0     O57329  -0.238   8.295   9.688 -0.1794 -1.0680 -0.4428
  416MOL0     C57330  -0.302   8.309   9.556 -0.2074 -0.1043 -0.6165
  416MOL0     C57331  -0.450   8.255   9.564  0.3908  0.6578 -0.2995
  416MOL0     C57332  -0.525   8.229   9.428 -0.4182  0.0388 -1.1281
  416MOL0     C57333  -0.561   8.356   9.359 -0.5825 -0.2238 -0.4994
  416MOL0     C57334  -0.584   8.325   9.212 -0.0720  0.1803  0.7977
  416MOL0     C57335  -0.600   8.289   9.098  0.3317 -0.7345  0.6866
  416MOL0     C57336  -0.043   8.243   9.807 -0.5865 -0.6472  0.0121
  416MOL0     C57337   0.097   8.244   9.834 -0.2082  0.6065 -0.4732
  416MOL0     C57338   0.132   8.204   9.975  0.1762  0.7215 -0.1378
  416MOL0     H57339   0.587   8.093   9.642  0.8109 -1.1607  1.2001
  416MOL0     H57340   0.819   8.126   9.667 -0.9540 -0.5083 -0.1206
  416MOL0     H57341   1.134   8.276   9.634 -0.7015 -0.0309 -0.7737
  416MOL0     H57342   1.007   8.170   9.599 -2.4167  1.3862  1.0817
  416MOL0     H57343   0.955   8.138   9.841 -0.3665  1.8094  3.9142
  416MOL0     H57344   1.117   8.080   9.805 -0.1987  0.1819  3.3861
  416MOL0     H57345   1.222   8.292   9.877  0.4149 -1.4728 -2.2910
  416MOL0     H57346   1.060   8.346   9.941 -2.2808  0.3306 -3.7705
  416MOL0     H57347   1.081   8.158  10.116 -1.9585 -2.8541 -3.0005
  416MOL0     H57348   1.217   8.102  10.034 -0.7841 -1.2812  1.3229
  416MOL0     H57349   1.246   8.253  10.251 -2.0933  0.9213 -0.3838
  416MOL0     H57350   1.181   8.384  10.140  2.0214  0.6786  0.4606
  416MOL0     H57351   1.422   8.217  10.052 -1.1490 -0.0580 -1.5414
  416MOL0     H57352   1.385   8.383  10.010 -1.6840 -1.7673 -1.0263
  416MOL0     H57353   1.484   8.292  10.289  2.0992  0.7375  0.7883
  416MOL0     H57354   1.434   8.454  10.246  0.6610 -0.6499  2.9450
  416MOL0     H57355   1.669   8.324  10.101  0.6504  1.6982 -0.3635
  416MOL0     H57356   1.633   8.482  10.106  0.7327 -0.5023 -1.9607
  416MOL0     H57357   1.645   8.254  10.444 -1.7449  1.1494  0.4230
  416MOL0     H57358   1.965   8.344  10.615  0.3640  0.1926  2.1695
  416MOL0     H57359   1.840   8.216  10.607  1.5620  0.0560  0.1023
  416MOL0     H57360   1.851   8.468  10.766 -3.5733  4.1842 -0.8220
  416MOL0     H57361   1.696   8.449  10.705  1.3032  1.4915  0.4786
  416MOL0     H57362   1.693   8.315  10.910 -0.1124  3.9887 -1.1738
  416MOL0     H57363   1.709   8.198  10.779 -2.0328  1.0579  0.7280
  416MOL0     H57364   1.939   8.297  10.953  2.2559 -1.2025 -1.5328
  416MOL0     H57365   1.850   8.157  10.986  1.3047  2.4169  2.8033
  416MOL0     H57366   2.122   8.018  10.971 -4.1353  2.2414  3.3434
  416MOL0     H57367   2.155   7.704  11.103  4.1405 -1.0365 -0.2095
  416MOL0     H57368   2.251   7.841  11.038  1.5688 -1.3598  0.6791
  416MOL0     H57369   2.242   7.689  10.949  1.4163 -1.3439  1.7785
  416MOL0     H57370   1.854   7.372  11.032  1.6435  1.6007 -0.8782
  416MOL0     H57371   1.851   7.127  11.020  1.5017  0.9434  0.8527
  416MOL0     H57372   1.809   6.882  10.976 -1.8536 -1.9477 -0.6256
  416MOL0     H57373   1.658   6.963  10.913 -1.6164 -0.2823 -3.2874
  416MOL0     H57374   1.618   6.770  10.768  0.1494 -0.5189  0.4413
  416MOL0     H57375   1.784   6.716  10.786 -1.9345 -1.9065 -1.0320
  416MOL0     H57376   1.583   6.732  10.994  1.6377  2.0899 -0.5217
  416MOL0     H57377   1.747   6.663  11.021  0.9705 -1.3403 -1.2605
  416MOL0     H57378   1.706   6.500  10.838  0.7474 -3.1962  2.5042
  416MOL0     H57379   1.531   6.546  10.818 -0.0654 -3.0146  0.2458
  416MOL0     H57380   1.565   6.465  11.087 -0.6438  1.4611 -1.1082
  416MOL0     H57381   1.458   6.415  10.958  0.3394  1.5213 -3.8071
  416MOL0     H57382   1.735   6.319  10.997 -0.4456  2.1678 -0.5971
  416MOL0     H57383   1.622   6.269  10.863  1.0569 -0.1110 -0.1551
  416MOL0     H57384   1.492   6.143  11.021 -1.4904  1.3987  2.1189
  416MOL0     H57385   1.569   6.230  11.153 -1.2641  2.7520 -1.4475
  416MOL0     H57386   1.652   6.000  11.151 -0.2754  2.5034  1.8135
  416MOL0     H57387   1.785   6.100  11.092  1.5474 -2.1686  2.5956
  416MOL0     H57388   1.795   7.125  10.599 -0.3609 -0.4016  0.7908
  416MOL0     H57389   1.780   7.386  10.616  3.0709  0.7528 -0.8021
  416MOL0     H57390   1.795   7.729  10.749  1.3427 -0.7906  1.5230
  416MOL0     H57391   1.791   7.975  10.692  0.5523 -0.5209 -0.8912
  416MOL0     H57392   0.778   8.557   9.654  2.8867 -0.7408 -0.7370
  416MOL0     H57393   0.533   8.520   9.622 -3.7578 -2.6103  1.0857
  416MOL0     H57394   0.203   8.338   9.524  1.1697 -3.4763  0.0712
  416MOL0     H57395  -0.039   8.341   9.479  1.5075  0.9318 -0.1512
  416MOL0     H57396  -0.299   8.413   9.520 -1.9270  0.1150 -0.2128
  416MOL0     H57397  -0.252   8.242   9.486 -1.6156 -1.0858 -0.7263
  416MOL0     H57398  -0.509   8.309   9.638  0.2651 -0.3603  0.3647
  416MOL0     H57399  -0.423   8.163   9.616 -1.1886  0.8728  0.9904
  416MOL0     H57400  -0.457   8.171   9.364  0.4449 -0.9310  0.5787
  416MOL0     H57401  -0.616   8.171   9.445  0.4229 -0.9879  0.0443
  416MOL0     H57402  -0.482   8.431   9.368 -0.7368  0.0331 -1.2083
  416MOL0     H57403  -0.650   8.392   9.412 -0.3026  0.0439 -0.2127
  416MOL0     H57404  -0.596   8.250   8.998  3.1795  1.0740  0.0021
  416MOL0     H57405  -0.108   8.205   9.885  3.7308 -1.9174  3.3734
  416MOL0     H57406   0.047   8.162  10.030 -0.5161  2.2274 -0.0139
  416MOL0     H57407   0.219   8.138   9.971  0.8151  1.1010  3.8136
  416MOL0     H57408   0.164   8.292  10.030 -2.6636  2.0221 -0.3984
  417MOL0     O57409   2.876   1.411  11.454  0.7522  0.4109 -0.1002
  417MOL0     C57410   2.967   1.475  11.513 -0.1961  1.2670  0.2215
  417MOL0     O57411   2.992   1.605  11.491 -0.0290  0.2843 -0.2523
  417MOL0     C57412   2.893   1.689  11.446  0.0469  0.2602 -0.3162
  417MOL0     C57413   2.860   1.803  11.523 -0.2603 -0.7174  0.5809
  417MOL0     C57414   2.776   1.902  11.465  0.6208 -1.2563  0.2737
  417MOL0     C57415   2.714   1.891  11.340 -0.4717  0.5300 -0.7284
  417MOL0     O57416   2.617   1.981  11.300  0.3694  0.1942 -0.2077
  417MOL0     C57417   2.631   2.122  11.314 -0.3027 -0.0098 -1.1141
  417MOL0     C57418   2.553   2.177  11.204  0.1388 -1.0735 -0.0282
  417MOL0     C57419   2.593   2.150  11.059 -0.0291  0.1399  0.2775
  417MOL0     C57420   2.721   2.204  11.015  0.9640  0.6299 -0.7979
  417MOL0     C57421   2.722   2.349  10.978 -0.2190 -0.0399  0.0067
  417MOL0     C57422   2.871   2.403  10.935  0.3471  0.1017 -0.0569
  417MOL0     C57423   2.848   2.516  10.838  0.0069  0.3603  0.2707
  417MOL0     C57424   2.768   2.632  10.901  0.1088 -0.0400  0.5291
  417MOL0     N57425   2.682   2.689  10.803  0.0868  0.6098  0.0351
  417MOL0     C57426   2.712   2.736  10.680 -0.2068  0.2743 -0.0437
  417MOL0     C57427   2.599   2.814  10.657  0.6740 -0.2343  0.1103
  417MOL0     C57428   2.587   2.894  10.534 -0.1916 -1.0685  0.3142
  417MOL0     C57429   2.627   3.048  10.561  0.7252  0.4106 -0.2434
  417MOL0     C57430   2.558   3.142  10.461 -0.2397  0.5833  0.1331
  417MOL0     C57431   2.591   3.289  10.484 -0.1722  1.7777  1.0962
  417MOL0     O57432   2.520   3.362  10.383 -1.0844 -0.0591  0.4189
  417MOL0     C57433   2.471   3.475  10.442  0.2353 -0.1696 -0.1084
  417MOL0     C57434   2.515   3.602  10.398 -0.3113  0.4431  1.0424
  417MOL0     C57435   2.478   3.713  10.462 -0.6312  0.0621 -0.3754
  417MOL0     C57436   2.552   3.836  10.422 -0.0945  0.1799  1.1774
  417MOL0     C57437   2.383   3.719  10.567  0.0308 -0.7672  0.2973
  417MOL0     C57438   2.341   3.836  10.644 -0.5417 -0.1868  1.0747
  417MOL0     O57439   2.208   3.835  10.678 -0.1699 -0.1214 -0.8485
  417MOL0     C57440   2.162   3.956  10.724 -0.3181  0.6937 -0.1103
  417MOL0     C57441   2.068   4.019  10.644  0.3210 -0.0261 -0.8787
  417MOL0     C57442   1.991   4.128  10.693 -0.9527 -0.2091  0.3114
  417MOL0     C57443   1.997   4.164  10.829 -0.9194 -0.5947  0.6392
  417MOL0     O57444   1.925   4.261  10.889  0.4785 -0.0970 -0.1631
  417MOL0     C57445   1.813   4.308  10.806  0.7478 -0.1398 -0.2810
  417MOL0     C57446   1.708   4.390  10.885  0.3077  0.5360  0.2417
  417MOL0     C57447   1.577   4.393  10.806  0.6577  0.2087  0.8274
  417MOL0     C57448   1.474   4.493  10.859 -0.3076  0.8671 -0.3479
  417MOL0     C57449   1.356   4.505  10.772 -0.4071  0.3060 -0.5350
  417MOL0     C57450   1.254   4.614  10.803 -0.1918 -0.2607 -0.0150
  417MOL0     C57451   1.119   4.573  10.742  0.2680 -0.6072 -0.6753
  417MOL0     C57452   1.001   4.665  10.784 -0.2767  0.4755 -0.2602
  417MOL0    Cl57453   0.848   4.605  10.705 -0.1240  0.0862 -0.4135
  417MOL0     C57454   2.098   4.108  10.911  0.1775 -0.4111 -0.1128
  417MOL0     C57455   2.171   3.997  10.863  0.1490 -0.0658 -0.0548
  417MOL0     O57456   2.419   3.924  10.681 -0.5167 -0.1101 -0.2420
  417MOL0     C57457   2.326   3.592  10.597  0.1919 -0.5975 -0.2440
  417MOL0     C57458   2.369   3.476  10.531  0.6873  0.6728 -0.9545
  417MOL0     N57459   2.494   2.786  10.752 -0.7139 -0.0650  0.2425
  417MOL0     N57460   2.555   2.710  10.837  0.4768  0.7007  1.0689
  417MOL0     C57461   2.751   1.772  11.268  0.0134 -1.1820 -0.1193
  417MOL0     C57462   2.850   1.681  11.308  0.3075 -0.1339 -0.5706
  417MOL0     C57463   3.055   1.397  11.607  0.2731  0.4091 -0.0773
  417MOL0     C57464   3.177   1.466  11.643  0.1009 -0.0371 -0.3394
  417MOL0     C57465   3.268   1.406  11.734  0.5799  0.0648  0.8607
  417MOL0     C57466   3.251   1.271  11.770 -0.4291 -0.3562  0.2258
  417MOL0     O57467   3.335   1.206  11.857  0.2427  0.7610 -0.0532
  417MOL0     C57468   3.428   1.286  11.933  0.3894  0.8099 -0.2054
  417MOL0     C57469   3.511   1.190  12.027  0.1859 -0.6206  0.5293
  417MOL0     C57470   3.601   1.268  12.123  0.5385  1.0271 -0.4166
  417MOL0     C57471   3.693   1.347  12.038 -0.1538  0.1029 -0.7869
  417MOL0     C57472   3.809   1.384  12.121 -0.6651 -0.4231  0.1228
  417MOL0     C57473   3.911   1.414  12.185 -0.1920 -0.5413  0.4614
  417MOL0     C57474   3.137   1.205  11.726  0.1095  0.1544  0.1571
  417MOL0     C57475   3.028   1.268  11.663 -0.1512 -0.2079 -0.6607
  417MOL0     C57476   2.901   1.180  11.636 -0.7658 -0.5197 -1.0425
  417MOL0     H57477   2.889   1.821  11.626 -1.6616 -0.8911  1.0184
  417MOL0     H57478   2.765   1.986  11.534 -0.0601 -2.3014  1.4950
  417MOL0     H57479   2.738   2.143  11.302 -0.5703  1.3650 -1.2649
  417MOL0     H57480   2.600   2.162  11.411  1.4070 -0.6863 -0.2384
  417MOL0     H57481   2.448   2.147  11.207  0.0060 -0.5567  1.8026
  417MOL0     H57482   2.554   2.287  11.205 -1.1840 -1.0477  0.7198
  417MOL0     H57483   2.593   2.041  11.054 -1.5249 -0.1368  3.4765
  417MOL0     H57484   2.511   2.190  10.998 -1.4771 -0.3832  1.7929
  417MOL0     H57485   2.790   2.178  11.095  3.8243  1.6652 -2.7510
  417MOL0     H57486   2.741   2.142  10.927 -0.0462 -1.2733  0.2398
  417MOL0     H57487   2.687   2.404  11.066 -1.8159 -0.7757 -0.1326
  417MOL0     H57488   2.654   2.362  10.893  0.3574 -1.8825 -0.7970
  417MOL0     H57489   2.927   2.414  11.028 -1.5290 -1.4905  1.3439
  417MOL0     H57490   2.916   2.319  10.880 -0.2220 -0.6847  0.6483
  417MOL0     H57491   2.793   2.467  10.757  2.5642 -3.7858  0.7334
  417MOL0     H57492   2.939   2.560  10.797  0.3432 -1.0962 -0.6132
  417MOL0     H57493   2.713   2.593  10.987  0.1327 -1.1431  0.0591
  417MOL0     H57494   2.839   2.711  10.925 -1.6361  1.7412  0.0225
  417MOL0     H57495   2.804   2.749  10.625  2.2555 -0.7606  3.4525
  417MOL0     H57496   2.486   2.880  10.495  0.7572 -1.3660 -2.1888
  417MOL0     H57497   2.645   2.857  10.449  0.5438 -0.7001  0.6395
  417MOL0     H57498   2.585   3.080  10.657 -0.3008  1.3897 -0.9896
  417MOL0     H57499   2.735   3.060  10.576  0.6139 -0.1908  1.1765
  417MOL0     H57500   2.586   3.116  10.358 -0.8513  0.2408  0.0471
  417MOL0     H57501   2.451   3.129  10.477 -0.1871  0.7213  0.5917
  417MOL0     H57502   2.558   3.308  10.586 -0.7863 -1.5103  1.6299
  417MOL0     H57503   2.695   3.313  10.462  0.2144 -0.5443 -0.0427
  417MOL0     H57504   2.583   3.608  10.314 -1.1813 -2.0078  0.0553
  417MOL0     H57505   2.659   3.813  10.423 -0.1608 -0.3112 -0.4817
  417MOL0     H57506   2.563   3.929  10.479  2.9063  2.1837 -2.1985
  417MOL0     H57507   2.524   3.868  10.321  1.0741  0.2413  0.8577
  417MOL0     H57508   2.056   3.990  10.540 -0.9110 -0.1940 -0.7037
  417MOL0     H57509   1.931   4.179  10.618  3.0432  2.2880 -1.5473
  417MOL0     H57510   1.857   4.379  10.735  0.8412 -0.9139 -1.0151
  417MOL0     H57511   1.758   4.223  10.763  0.0661  0.6755 -1.0661
  417MOL0     H57512   1.685   4.347  10.983  0.0772 -1.0168 -0.4535
  417MOL0     H57513   1.752   4.489  10.898  1.5869  0.2104 -1.2936
  417MOL0     H57514   1.539   4.290  10.810 -0.2252  0.3600 -1.8767
  417MOL0     H57515   1.583   4.411  10.698 -3.8684  1.0638  0.5611
  417MOL0     H57516   1.518   4.593  10.859  2.5215 -0.2840 -1.5660
  417MOL0     H57517   1.442   4.474  10.962 -0.3562  3.1786  0.1256
  417MOL0     H57518   1.393   4.504  10.669 -0.0499  1.1955 -0.4195
  417MOL0     H57519   1.297   4.413  10.774 -0.2453  0.1413 -2.1714
  417MOL0     H57520   1.283   4.705  10.749  2.9138 -0.4634  1.1064
  417MOL0     H57521   1.241   4.629  10.910  0.6280 -2.1077  0.3798
  417MOL0     H57522   1.085   4.473  10.770  1.5088 -0.7900  0.2208
  417MOL0     H57523   1.126   4.572  10.632  0.8316  0.4728 -0.6597
  417MOL0     H57524   1.018   4.763  10.739  1.0964  0.2989 -0.1701
  417MOL0     H57525   1.003   4.683  10.892  2.8464 -1.7321  0.1958
  417MOL0     H57526   2.123   4.143  11.011  0.0902  0.4394 -0.3786
  417MOL0     H57527   2.232   3.930  10.923 -1.3163 -2.1058 -0.7535
  417MOL0     H57528   2.252   3.582  10.675 -0.7839 -1.8250 -1.2847
  417MOL0     H57529   2.338   3.378  10.566  0.8510  1.4532  1.5399
  417MOL0     H57530   2.697   1.751  11.176  0.9571 -3.7808 -0.1853
  417MOL0     H57531   2.885   1.598  11.246 -0.2835 -0.5943 -0.2987
  417MOL0     H57532   3.201   1.570  11.619  0.2792 -0.5830 -2.7583
  417MOL0     H57533   3.352   1.469  11.763 -0.9856  2.6662  0.0867
  417MOL0     H57534   3.490   1.334  11.857  0.2430 -0.1536 -0.9537
  417MOL0     H57535   3.367   1.357  11.990 -0.3082 -1.1227  1.5856
  417MOL0     H57536   3.579   1.119  11.979  0.3503  1.3929 -2.5012
  417MOL0     H57537   3.444   1.129  12.089 -1.9005  0.6120 -0.4066
  417MOL0     H57538   3.544   1.336  12.187  0.4646  3.0985 -2.5429
  417MOL0     H57539   3.658   1.204  12.191  1.6709 -0.0631 -2.2899
  417MOL0     H57540   3.647   1.439  12.003 -2.0615 -0.6735 -0.4418
  417MOL0     H57541   3.732   1.286  11.956  0.2513 -0.9509  0.1463
  417MOL0     H57542   3.997   1.439  12.243  0.5398 -2.3361  0.2123
  417MOL0     H57543   3.130   1.104  11.767  1.0138 -0.0478 -0.1715
  417MOL0     H57544   2.817   1.249  11.621  0.1822  1.3673  1.6582
  417MOL0     H57545   2.911   1.113  11.549 -4.3177 -4.6063  1.2792
  417MOL0     H57546   2.871   1.118  11.721 -0.3916 -0.0868 -0.5893
  418MOL0     O57547   2.275   9.409   4.390 -1.3157  0.0390  0.2808
  418MOL0     C57548   2.339   9.305   4.406  0.3726 -0.4490  0.1566
  418MOL0     O57549   2.364   9.202   4.308  0.0497 -0.7217 -0.0239
  418MOL0     C57550   2.352   9.232   4.172  0.9767 -0.9910 -0.3375
  418MOL0     C57551   2.316   9.122   4.089 -0.1623  1.0249  0.2119
  418MOL0     C57552   2.295   9.137   3.960  0.2971 -0.3422  0.4775
  418MOL0     C57553   2.324   9.256   3.897  1.5018 -0.0086 -0.1850
  418MOL0     O57554   2.310   9.273   3.764  0.1761  0.1248 -1.0477
  418MOL0     C57555   2.221   9.186   3.686 -0.4348  0.1484 -0.2790
  418MOL0     C57556   2.223   9.220   3.543 -0.6501  0.2571  0.3033
  418MOL0     C57557   2.090   9.200   3.479  0.3590 -0.5945  1.0820
  418MOL0     C57558   2.104   9.207   3.324  0.7099  0.3132  0.4298
  418MOL0     C57559   2.150   9.086   3.250 -1.3615 -0.3943 -0.3714
  418MOL0     C57560   2.109   9.100   3.098 -0.4797  0.6756 -0.6669
  418MOL0     C57561   2.137   8.977   3.006 -1.1584 -0.9445  0.6440
  418MOL0     C57562   2.096   8.987   2.856  0.0025 -0.7329 -0.5541
  418MOL0     N57563   1.965   9.034   2.834  0.0054  0.8277  0.8701
  418MOL0     C57564   1.859   8.959   2.820 -1.1977  0.3609  0.4065
  418MOL0     C57565   1.758   9.050   2.803  0.1058  0.4713  0.4466
  418MOL0     C57566   1.611   9.020   2.785 -0.1353  0.9433 -0.9465
  418MOL0     C57567   1.587   8.870   2.782 -0.6464  0.0846  0.4980
  418MOL0     C57568   1.426   8.859   2.771 -0.7373 -0.3232 -0.2801
  418MOL0     C57569   1.388   8.716   2.758  0.4496  0.7124  0.1995
  418MOL0     O57570   1.365   8.664   2.894  0.6088 -0.0907  0.2314
  418MOL0     C57571   1.259   8.571   2.919  0.0396 -0.4146 -0.0016
  418MOL0     C57572   1.242   8.546   3.054  1.0027  0.0620  0.1502
  418MOL0     C57573   1.146   8.452   3.095  0.4041 -0.5970 -0.3797
  418MOL0     C57574   1.135   8.433   3.242 -0.2622 -0.4560  0.5362
  418MOL0     C57575   1.070   8.370   2.999 -1.0030  0.4698 -0.0520
  418MOL0     C57576   0.961   8.266   3.034  0.2754  0.6814 -0.1264
  418MOL0     O57577   0.901   8.192   2.937 -0.1687 -0.2754 -0.5007
  418MOL0     C57578   0.803   8.106   2.982  0.1662 -1.1465 -0.0255
  418MOL0     C57579   0.840   7.973   3.011 -0.1399  0.1553  0.1888
  418MOL0     C57580   0.741   7.874   3.021  0.3517 -1.0092  0.0205
  418MOL0     C57581   0.601   7.907   3.020  0.1550 -0.0659 -0.7683
  418MOL0     O57582   0.497   7.826   3.045 -0.0068 -0.3982 -0.2998
  418MOL0     C57583   0.510   7.686   3.017 -0.7297  0.2049 -0.1283
  418MOL0     C57584   0.373   7.624   3.021 -0.0583 -0.0950  0.5230
  418MOL0     C57585   0.290   7.651   3.150  0.1149 -0.4330 -1.1691
  418MOL0     C57586   0.145   7.604   3.137 -1.3481 -0.0212 -0.1591
  418MOL0     C57587   0.050   7.662   3.231  0.4957 -0.5849 -0.2581
  418MOL0     C57588  -0.079   7.585   3.230  0.9497 -0.0456 -0.9357
  418MOL0     C57589  -0.192   7.630   3.323  0.0597 -0.5645  0.2854
  418MOL0     C57590  -0.332   7.586   3.309  0.3408  0.3625  0.1427
  418MOL0    Cl57591  -0.355   7.418   3.346 -0.5730  0.0910 -0.3082
  418MOL0     C57592   0.572   8.041   3.002  0.0863  0.2317  0.0420
  418MOL0     C57593   0.668   8.145   2.990 -0.4907 -0.5180 -0.4631
  418MOL0     O57594   0.934   8.257   3.155  0.6530  0.1993  0.3749
  418MOL0     C57595   1.099   8.400   2.865 -0.1852 -0.1476 -0.0681
  418MOL0     C57596   1.187   8.497   2.821 -0.1583 -0.2072 -1.5325
  418MOL0     N57597   1.807   9.180   2.806 -0.5751 -0.5909 -0.5132
  418MOL0     N57598   1.932   9.165   2.826  0.3360  0.4620 -0.4537
  418MOL0     C57599   2.367   9.365   3.974 -0.6634  0.1588 -0.1463
  418MOL0     C57600   2.379   9.358   4.116  0.5274 -0.2517 -0.3223
  418MOL0     C57601   2.367   9.265   4.548 -0.0699 -0.0230  0.1626
  418MOL0     C57602   2.461   9.161   4.572 -0.3141 -1.0524  0.3105
  418MOL0     C57603   2.497   9.124   4.703 -0.3044 -0.0055  0.6990
  418MOL0     C57604   2.438   9.183   4.810 -0.1638  0.2491  0.4021
  418MOL0     O57605   2.482   9.125   4.927  0.0313 -0.7990 -0.2678
  418MOL0     C57606   2.408   9.158   5.045 -0.8004  0.1244 -0.9535
  418MOL0     C57607   2.505   9.143   5.160 -0.2350  0.2504  0.5235
  418MOL0     C57608   2.645   9.205   5.143  0.0644 -0.4996  0.7722
  418MOL0     C57609   2.741   9.192   5.258  0.1212  0.6680 -0.7394
  418MOL0     C57610   2.789   9.060   5.283  0.7251  0.3120  0.6460
  418MOL0     C57611   2.818   8.942   5.314  0.1138  0.2080  0.0850
  418MOL0     C57612   2.339   9.283   4.792 -1.2772 -0.8319 -0.9221
  418MOL0     C57613   2.302   9.316   4.665  0.6094 -0.8922 -0.4059
  418MOL0     C57614   2.205   9.437   4.667 -0.1559 -0.9933 -0.4042
  418MOL0     H57615   2.296   9.023   4.127 -0.9176  1.0564 -0.0988
  418MOL0     H57616   2.271   9.047   3.904 -1.8699  0.7454 -0.4068
  418MOL0     H57617   2.115   9.194   3.712 -0.2180  0.2785  0.6078
  418MOL0     H57618   2.255   9.082   3.686  0.7861  0.5171  0.7171
  418MOL0     H57619   2.246   9.327   3.545 -0.9725  0.3266  0.2859
  418MOL0     H57620   2.291   9.162   3.480  0.9716  3.3801 -1.0386
  418MOL0     H57621   2.066   9.096   3.503  1.2656 -1.4528 -1.4644
  418MOL0     H57622   2.016   9.270   3.521  2.0172  1.8281  0.1711
  418MOL0     H57623   2.001   9.222   3.289  0.8654 -2.5661 -1.7081
  418MOL0     H57624   2.152   9.301   3.296  0.4432  0.3876  0.2055
  418MOL0     H57625   2.115   8.991   3.291 -0.9389 -0.6369 -0.5640
  418MOL0     H57626   2.259   9.081   3.260 -1.5725 -1.6164  2.1161
  418MOL0     H57627   2.002   9.120   3.086 -0.2176  0.2549 -6.5516
  418MOL0     H57628   2.152   9.186   3.046 -2.6211  0.9706 -2.0854
  418MOL0     H57629   2.090   8.889   3.052  1.1347 -2.0451  1.0235
  418MOL0     H57630   2.243   8.955   3.019 -1.7270 -4.0480  0.7827
  418MOL0     H57631   2.152   9.070   2.811 -4.9331  3.0948 -0.3903
  418MOL0     H57632   2.102   8.886   2.814 -1.6820 -0.8351 -0.5761
  418MOL0     H57633   1.856   8.851   2.830  2.4183  0.3565  4.2530
  418MOL0     H57634   1.572   9.068   2.695  0.8840  1.0056 -1.3764
  418MOL0     H57635   1.566   9.065   2.873  3.1998  2.8016 -0.0195
  418MOL0     H57636   1.626   8.820   2.693 -2.4225 -1.4996  0.5649
  418MOL0     H57637   1.631   8.811   2.864  0.7244 -2.2473 -1.7661
  418MOL0     H57638   1.374   8.901   2.858  1.9307  1.0401  0.7659
  418MOL0     H57639   1.399   8.924   2.687  1.5708 -0.2090 -0.9961
  418MOL0     H57640   1.292   8.717   2.706  0.3969  1.3331  0.2983
  418MOL0     H57641   1.451   8.645   2.703 -2.3554 -2.3903  0.6836
  418MOL0     H57642   1.310   8.604   3.115  2.3235  0.7277 -1.8234
  418MOL0     H57643   1.175   8.334   3.269  0.1888 -0.4020  0.0935
  418MOL0     H57644   1.030   8.446   3.269 -0.9002  4.1450 -2.8956
  418MOL0     H57645   1.179   8.520   3.292 -1.9828  2.0382 -1.9902
  418MOL0     H57646   0.946   7.953   3.004  0.0865  1.4881 -0.5064
  418MOL0     H57647   0.772   7.771   3.036 -0.2869 -1.3883 -1.1395
  418MOL0     H57648   0.553   7.674   2.917  1.8863 -1.0594  1.0473
  418MOL0     H57649   0.577   7.633   3.085  0.5531  2.2212  0.2433
  418MOL0     H57650   0.318   7.669   2.938  1.9709 -0.0179 -0.8351
  418MOL0     H57651   0.383   7.518   2.996  5.3047  0.0170  1.0326
  418MOL0     H57652   0.288   7.758   3.175  0.6299 -0.7658  0.3995
  418MOL0     H57653   0.328   7.600   3.239 -0.2254 -0.6203 -1.1335
  418MOL0     H57654   0.148   7.495   3.145  1.3926 -0.2832 -2.7412
  418MOL0     H57655   0.110   7.625   3.035  1.1892  2.2241 -0.7001
  418MOL0     H57656   0.099   7.657   3.329 -3.2180 -1.3488  1.7543
  418MOL0     H57657   0.022   7.763   3.200  2.5229  0.0332 -0.2195
  418MOL0     H57658  -0.046   7.483   3.255  0.5994 -0.5626 -2.4671
  418MOL0     H57659  -0.117   7.588   3.127  1.6325 -2.7147 -1.3622
  418MOL0     H57660  -0.199   7.738   3.310  2.5979 -0.6410 -3.1949
  418MOL0     H57661  -0.168   7.600   3.426  0.0007 -1.6022  0.0083
  418MOL0     H57662  -0.356   7.608   3.205  0.3249  1.0797  0.2951
  418MOL0     H57663  -0.385   7.647   3.382  0.1103  1.2503 -0.7415
  418MOL0     H57664   0.472   8.083   2.995  0.1371  0.1136 -3.0595
  418MOL0     H57665   0.648   8.251   2.993 -0.5905 -0.5620  0.9683
  418MOL0     H57666   1.052   8.332   2.794  1.0038 -1.1603  0.0790
  418MOL0     H57667   1.198   8.527   2.717 -1.5800 -0.1062 -1.6696
  418MOL0     H57668   2.401   9.456   3.928  3.7379  0.3344  2.8663
  418MOL0     H57669   2.418   9.431   4.185 -1.6582  0.2827  0.4259
  418MOL0     H57670   2.508   9.115   4.486  0.9724 -0.0296  0.4498
  418MOL0     H57671   2.570   9.048   4.728  0.2261  0.0430 -0.6532
  418MOL0     H57672   2.381   9.264   5.039  1.3287  0.6302 -3.1512
  418MOL0     H57673   2.325   9.090   5.067  2.1158 -2.9136  1.6262
  418MOL0     H57674   2.529   9.039   5.185  2.1506  0.7134  0.4045
  418MOL0     H57675   2.450   9.182   5.247 -1.4093 -0.1448 -0.0213
  418MOL0     H57676   2.702   9.163   5.060 -1.6390 -0.7260 -0.3210
  418MOL0     H57677   2.633   9.313   5.130 -1.3709 -0.9457 -2.9902
  418MOL0     H57678   2.696   9.238   5.347 -2.7789  1.0857 -2.2854
  418MOL0     H57679   2.825   9.251   5.223  1.0023 -0.5353 -0.7372
  418MOL0     H57680   2.858   8.844   5.334 -0.8029  0.3621  3.2335
  418MOL0     H57681   2.273   9.323   4.869 -1.6593 -1.5532 -0.8648
  418MOL0     H57682   2.244   9.532   4.630 -0.1144  1.7216  5.4737
  418MOL0     H57683   2.120   9.406   4.605  1.5421 -1.8517 -2.3926
  418MOL0     H57684   2.161   9.460   4.765  0.5134  2.0588 -0.7211
  419MOL0     O57685  10.086   9.124   1.659 -0.1248 -0.5927 -0.0261
  419MOL0     C57686  10.173   9.145   1.745  0.5431  0.3159 -0.1027
  419MOL0     O57687  10.184   9.077   1.862 -0.6991 -0.4386  0.0725
  419MOL0     C57688  10.141   8.950   1.883  0.6165 -0.0110  0.2011
  419MOL0     C57689  10.138   8.863   1.775  1.0533  0.1966 -0.1490
  419MOL0     C57690  10.108   8.731   1.800 -0.2452  1.1548  0.1192
  419MOL0     C57691  10.098   8.676   1.932 -0.3748  1.0137  1.0061
  419MOL0     O57692  10.085   8.540   1.944 -0.5639 -0.0928  0.6731
  419MOL0     C57693  10.094   8.484   2.078 -0.1469 -0.3678  0.2805
  419MOL0     C57694   9.950   8.467   2.119  0.5230  1.8329 -0.6360
  419MOL0     C57695   9.902   8.337   2.049 -0.5707  0.0808 -0.0217
  419MOL0     C57696   9.798   8.373   1.943  0.1806 -0.9951 -0.5360
  419MOL0     C57697   9.740   8.235   1.903 -0.1876 -0.0263 -0.2879
  419MOL0     C57698   9.623   8.253   1.800 -0.6130  0.1953 -0.2252
  419MOL0     C57699   9.567   8.118   1.751  0.1723 -0.2003 -0.1700
  419MOL0     C57700   9.656   8.025   1.669  0.7995 -0.1566 -0.2556
  419MOL0     N57701   9.671   8.061   1.532 -0.8511  0.6507 -0.6944
  419MOL0     C57702   9.618   8.006   1.417  0.1485  0.4119  1.2702
  419MOL0     C57703   9.645   8.106   1.317  0.4776 -0.1247 -0.0693
  419MOL0     C57704   9.605   8.091   1.171 -0.0042 -0.0481  0.8193
  419MOL0     C57705   9.506   8.205   1.131 -0.2839 -0.2886 -0.7788
  419MOL0     C57706   9.587   8.323   1.088  0.3088 -1.0766 -0.6954
  419MOL0     C57707   9.615   8.321   0.939  0.5982 -0.2716 -0.3738
  419MOL0     O57708   9.510   8.331   0.835 -0.1168  0.1809 -0.0644
  419MOL0     C57709   9.530   8.282   0.711 -0.5713  0.8359 -0.2702
  419MOL0     C57710   9.428   8.277   0.623  0.2968 -0.6063 -0.4096
  419MOL0     C57711   9.445   8.237   0.496 -0.3180 -0.3891 -0.9918
  419MOL0     C57712   9.317   8.233   0.415  0.5888 -0.7038  0.6548
  419MOL0     C57713   9.576   8.188   0.450 -0.0628  0.6197 -0.3300
  419MOL0     C57714   9.612   8.134   0.312 -0.3890  0.6574  0.2864
  419MOL0     O57715   9.740   8.083   0.299  0.0742  0.0937 -0.9058
  419MOL0     C57716   9.795   8.048   0.176 -0.3147 -0.3228 -1.5875
  419MOL0     C57717   9.903   7.960   0.188 -0.2596  0.2109  0.9016
  419MOL0     C57718   9.986   7.936   0.076 -0.7100  0.5681 -0.5387
  419MOL0     C57719   9.960   8.003  -0.042 -0.3629  0.0704 -0.6981
  419MOL0     O57720  10.036   7.980  -0.157 -0.0879  0.1438 -0.1016
  419MOL0     C57721  10.079   7.840  -0.185  0.1000  0.9201 -0.6985
  419MOL0     C57722  10.061   7.809  -0.330  0.7527 -0.5735 -0.2271
  419MOL0     C57723   9.917   7.809  -0.364  0.8520 -0.4022 -0.3792
  419MOL0     C57724   9.874   7.915  -0.462 -0.3855 -0.0964 -0.1821
  419MOL0     C57725   9.740   7.910  -0.510 -0.1105  0.0862  0.1478
  419MOL0     C57726   9.707   7.796  -0.605  0.6639  0.8129 -0.6458
  419MOL0     C57727   9.567   7.733  -0.583  1.0785  0.0476 -0.1452
  419MOL0     C57728   9.454   7.848  -0.590  0.1947  0.6514  0.0678
  419MOL0    Cl57729   9.309   7.745  -0.582  0.2125  0.1998 -0.2282
  419MOL0     C57730   9.853   8.097  -0.048  0.5422  0.4624 -0.2817
  419MOL0     C57731   9.773   8.120   0.055  0.1890 -0.3443  0.2926
  419MOL0     O57732   9.527   8.133   0.224  0.0054  1.0927 -0.1478
  419MOL0     C57733   9.681   8.205   0.544 -0.0202  0.0031 -0.3368
  419MOL0     C57734   9.657   8.246   0.677 -0.1916  0.2710  1.0537
  419MOL0     N57735   9.734   8.193   1.378 -0.2677  0.2110 -0.0480
  419MOL0     N57736   9.760   8.160   1.500  0.1476  0.8689  0.1914
  419MOL0     C57737  10.093   8.773   2.030  0.9313  0.2480 -0.4005
  419MOL0     C57738  10.106   8.912   2.013 -0.8541  0.1905  0.4175
  419MOL0     C57739  10.264   9.257   1.721 -0.4052 -0.5675 -0.7913
  419MOL0     C57740  10.309   9.321   1.836 -0.5711 -0.0314 -0.5110
  419MOL0     C57741  10.390   9.426   1.831  0.0400 -0.4769 -0.2386
  419MOL0     C57742  10.412   9.496   1.707 -0.5319 -0.4217 -0.2736
  419MOL0     O57743  10.492   9.604   1.704 -0.5717 -0.7370  0.3455
  419MOL0     C57744  10.444   9.724   1.771 -0.4128  0.1445 -0.3671
  419MOL0     C57745  10.530   9.852   1.737 -0.1923  0.3492 -0.6217
  419MOL0     C57746  10.490   9.982   1.813  0.8976  0.2020  0.5003
  419MOL0     C57747  10.340  10.007   1.814  0.5240 -0.1447  0.0590
  419MOL0     C57748  10.283   9.996   1.673  0.3994 -0.3811 -0.3667
  419MOL0     C57749  10.235   9.997   1.559 -0.4834  0.4690  0.1319
  419MOL0     C57750  10.351   9.445   1.591 -0.4951  0.2666  0.2802
  419MOL0     C57751  10.296   9.315   1.597 -1.0275  0.0133  0.7208
  419MOL0     C57752  10.254   9.247   1.458  0.1142 -0.5164 -0.5052
  419MOL0     H57753  10.147   8.896   1.673 -3.3754  4.3080  0.4412
  419MOL0     H57754  10.113   8.667   1.713  3.2556  2.0184 -0.4759
  419MOL0     H57755  10.161   8.539   2.145 -0.6249 -0.4262  0.8035
  419MOL0     H57756  10.143   8.387   2.085  1.2897  0.4342  2.4836
  419MOL0     H57757   9.957   8.453   2.228  0.0606  0.1800 -0.7910
  419MOL0     H57758   9.889   8.554   2.096 -0.9083  1.2226  0.6286
  419MOL0     H57759   9.981   8.277   2.003 -0.4596 -0.0381  0.3145
  419MOL0     H57760   9.861   8.276   2.130 -0.5956 -2.3414 -1.7587
  419MOL0     H57761   9.720   8.442   1.976 -0.3421  1.1644 -5.4802
  419MOL0     H57762   9.843   8.428   1.859  1.4798  0.8737  1.2620
  419MOL0     H57763   9.701   8.188   1.994 -0.8016 -0.1556 -0.6127
  419MOL0     H57764   9.818   8.165   1.873  0.6155 -0.3229  2.2117
  419MOL0     H57765   9.543   8.304   1.856 -2.7849 -1.9574 -1.1926
  419MOL0     H57766   9.639   8.313   1.710 -2.1147  1.9690  0.6026
  419MOL0     H57767   9.493   8.146   1.675  0.7054 -0.3535 -0.7471
  419MOL0     H57768   9.530   8.060   1.837 -1.4258  0.8711 -0.0842
  419MOL0     H57769   9.752   8.018   1.720 -0.0654 -0.0256  1.4516
  419MOL0     H57770   9.612   7.925   1.669 -0.0593  0.2135 -0.3835
  419MOL0     H57771   9.561   7.914   1.401  1.4810 -0.4256  1.1797
  419MOL0     H57772   9.560   7.994   1.146  0.7303 -0.7708  2.1273
  419MOL0     H57773   9.693   8.086   1.106 -2.5993  1.7090 -3.2298
  419MOL0     H57774   9.444   8.163   1.051 -0.2603  1.3336 -1.6785
  419MOL0     H57775   9.437   8.223   1.214 -1.3545  1.6129 -2.0146
  419MOL0     H57776   9.544   8.417   1.122  1.0732 -0.8312 -0.3926
  419MOL0     H57777   9.683   8.317   1.141  0.4013  2.0323 -0.3427
  419MOL0     H57778   9.690   8.396   0.910 -0.0247 -0.0214 -1.4205
  419MOL0     H57779   9.665   8.224   0.936 -1.4484 -1.6381  3.5014
  419MOL0     H57780   9.330   8.291   0.667  0.0429 -0.9365 -0.8595
  419MOL0     H57781   9.246   8.305   0.457 -0.8346  0.3626 -3.1687
  419MOL0     H57782   9.270   8.135   0.402  2.5533 -1.4990 -1.0135
  419MOL0     H57783   9.348   8.271   0.317 -0.9044  1.7460  1.0445
  419MOL0     H57784   9.922   7.914   0.285  3.7866 -0.8824 -0.2178
  419MOL0     H57785  10.054   7.855   0.097 -0.8134  0.7593  0.5895
  419MOL0     H57786  10.184   7.825  -0.157 -0.1855  1.2270  0.6409
  419MOL0     H57787  10.028   7.766  -0.123  0.3450 -0.9017 -2.5982
  419MOL0     H57788  10.117   7.874  -0.398 -0.2824  1.1983  0.5485
  419MOL0     H57789  10.111   7.713  -0.344  0.1265 -1.2675  1.9062
  419MOL0     H57790   9.863   7.813  -0.269  2.7039  1.4823  0.6887
  419MOL0     H57791   9.891   7.707  -0.394 -4.1858 -0.5166  3.1120
  419MOL0     H57792   9.947   7.915  -0.544  0.4266  2.1784  0.4587
  419MOL0     H57793   9.891   8.017  -0.425 -0.8112  0.1797 -0.7372
  419MOL0     H57794   9.675   7.917  -0.421  0.0146  0.2433  0.2279
  419MOL0     H57795   9.711   8.002  -0.561  0.6174  0.4211  0.3327
  419MOL0     H57796   9.786   7.722  -0.589  2.0677  2.7375  2.0765
  419MOL0     H57797   9.733   7.830  -0.705  2.7493  0.1023 -0.4082
  419MOL0     H57798   9.556   7.679  -0.488  0.0107  1.2967  0.4727
  419MOL0     H57799   9.550   7.670  -0.671 -0.4641  0.4799 -0.1951
  419MOL0     H57800   9.464   7.906  -0.682  1.1870  1.1408  0.4517
  419MOL0     H57801   9.468   7.912  -0.502  1.6904  0.1873  0.2014
  419MOL0     H57802   9.844   8.153  -0.141 -3.5364 -1.2720 -1.1518
  419MOL0     H57803   9.698   8.196   0.036  0.9631  0.1028 -1.1440
  419MOL0     H57804   9.785   8.187   0.517  0.2999 -0.2233  0.9889
  419MOL0     H57805   9.746   8.257   0.738  0.0320  1.3431  0.5571
  419MOL0     H57806  10.057   8.743   2.128 -3.7525 -0.1588 -1.9974
  419MOL0     H57807  10.105   8.987   2.092  0.2279  1.8719 -1.0747
  419MOL0     H57808  10.286   9.285   1.936  0.2677  1.9323  0.4458
  419MOL0     H57809  10.454   9.463   1.910  0.5147 -1.0625 -0.3440
  419MOL0     H57810  10.338   9.745   1.754 -0.9794 -0.1168  2.3766
  419MOL0     H57811  10.456   9.705   1.878  2.8457  0.4963 -0.5582
  419MOL0     H57812  10.524   9.868   1.629 -0.0217  3.5233 -0.2508
  419MOL0     H57813  10.631   9.822   1.764 -1.0560 -0.6540  1.7589
  419MOL0     H57814  10.524   9.968   1.916 -0.3635 -2.3426  0.6345
  419MOL0     H57815  10.542  10.067   1.767 -1.2153  0.6053 -1.3704
  419MOL0     H57816  10.313  10.104   1.858  2.4203  0.4324  0.0711
  419MOL0     H57817  10.299   9.933   1.883  0.3196 -0.2467 -0.1727
  419MOL0     H57818  10.206   9.987   1.456  1.7165  2.6675 -0.8045
  419MOL0     H57819  10.376   9.473   1.489 -1.4394 -1.7062 -0.5340
  419MOL0     H57820  10.289   9.297   1.367  0.7980  0.4329  0.2636
  419MOL0     H57821  10.301   9.148   1.461 -0.6471 -0.8792  2.0395
  419MOL0     H57822  10.147   9.237   1.440 -0.2243  3.1207 -1.1546
  420MOL0     O57823  11.290   3.752   3.387  0.6139 -0.0026  0.7273
  420MOL0     C57824  11.336   3.866   3.415 -0.1458 -0.3737  0.5137
  420MOL0     O57825  11.268   3.984   3.365 -0.6313  0.5977 -0.3007
  420MOL0     C57826  11.143   3.951   3.318 -0.0693 -0.6193  1.0195
  420MOL0     C57827  11.128   3.944   3.173 -0.8983  0.2049 -0.4740
  420MOL0     C57828  11.003   3.921   3.119 -0.0654  0.0558 -0.1019
  420MOL0     C57829  10.898   3.882   3.203  0.1695 -0.0361  0.4738
  420MOL0     O57830  10.773   3.856   3.150 -0.3462  0.7797 -0.0122
  420MOL0     C57831  10.764   3.754   3.047  0.0351  0.1056  0.0069
  420MOL0     C57832  10.613   3.752   3.008  0.3208 -0.6500  0.4986
  420MOL0     C57833  10.574   3.638   2.920 -0.4956  0.1747  0.8452
  420MOL0     C57834  10.556   3.501   2.986 -0.8878 -0.0187  0.1993
  420MOL0     C57835  10.466   3.401   2.905 -0.2508  0.3641  0.4297
  420MOL0     C57836  10.458   3.256   2.978  0.0965  0.4183 -1.1055
  420MOL0     C57837  10.399   3.260   3.117 -0.2910 -0.2909 -0.3297
  420MOL0     C57838  10.359   3.133   3.194 -0.0189  0.3165 -0.4965
  420MOL0     N57839  10.282   3.158   3.320  0.9015  0.1027 -0.1866
  420MOL0     C57840  10.143   3.179   3.322  0.1364  0.0201 -0.6713
  420MOL0     C57841  10.113   3.235   3.441 -0.2626  0.3961 -0.3702
  420MOL0     C57842   9.974   3.260   3.495  0.1611  0.5044  0.6439
  420MOL0     C57843   9.961   3.338   3.629  1.6069  0.2235 -0.2623
  420MOL0     C57844   9.827   3.399   3.650 -0.1106 -0.4114  0.5561
  420MOL0     C57845   9.843   3.530   3.728 -0.7748 -0.8468  0.2485
  420MOL0     O57846   9.729   3.583   3.783  0.5088  0.0369 -0.2582
  420MOL0     C57847   9.753   3.698   3.855 -0.2180 -0.7245 -1.3810
  420MOL0     C57848   9.874   3.775   3.862  0.6036 -0.3128  0.4867
  420MOL0     C57849   9.885   3.879   3.961 -0.1263  1.1650  0.6036
  420MOL0     C57850  10.015   3.940   3.970 -0.2943 -0.8978 -0.1251
  420MOL0     C57851   9.782   3.909   4.048  0.7075 -0.0787 -0.2695
  420MOL0     C57852   9.788   4.022   4.143  0.2159 -0.0892 -0.2120
  420MOL0     O57853   9.678   4.096   4.171 -0.6441  0.2639 -0.3771
  420MOL0     C57854   9.683   4.200   4.254  0.0716  0.2587 -1.3464
  420MOL0     C57855   9.647   4.187   4.390 -0.2045 -0.1381 -0.0296
  420MOL0     C57856   9.646   4.302   4.476 -0.1882 -0.2660  0.4233
  420MOL0     C57857   9.683   4.430   4.427 -0.0885  0.6300  0.7911
  420MOL0     O57858   9.679   4.549   4.492  0.0096 -0.4715 -0.6692
  420MOL0     C57859   9.642   4.537   4.634 -0.3152 -0.2319  0.4543
  420MOL0     C57860   9.630   4.662   4.724  0.3575 -0.1926 -0.2763
  420MOL0     C57861   9.748   4.756   4.715  0.0949 -0.0050 -1.0208
  420MOL0     C57862   9.698   4.905   4.731 -1.4184  0.4176  0.4011
  420MOL0     C57863   9.796   4.992   4.812 -1.2664  0.4437  0.4092
  420MOL0     C57864   9.759   5.140   4.777  0.4286 -1.0506  0.1333
  420MOL0     C57865   9.650   5.205   4.864  0.5198 -0.7051 -0.4514
  420MOL0     C57866   9.698   5.257   5.002 -0.2966 -0.1331  0.4445
  420MOL0    Cl57867   9.557   5.358   5.074  0.4794 -0.0468 -0.1853
  420MOL0     C57868   9.722   4.436   4.288  0.1973  1.2106 -0.1817
  420MOL0     C57869   9.720   4.325   4.202  0.5324  0.0249  1.3237
  420MOL0     O57870   9.903   4.032   4.196 -0.5146 -0.3040 -0.2407
  420MOL0     C57871   9.658   3.843   4.023 -0.6346 -0.3786  0.1907
  420MOL0     C57872   9.644   3.738   3.933  0.0042  0.1066  0.8061
  420MOL0     N57873  10.233   3.255   3.504 -0.7153  0.4070 -1.0424
  420MOL0     N57874  10.330   3.211   3.436  0.7443  0.2739 -0.0609
  420MOL0     C57875  10.918   3.876   3.338 -0.2792  0.1456  0.0021
  420MOL0     C57876  11.035   3.918   3.396  0.4574 -1.1583 -0.2209
  420MOL0     C57877  11.478   3.884   3.461  0.5451  0.3047  1.1632
  420MOL0     C57878  11.535   4.010   3.440 -0.0510  0.0097  0.2248
  420MOL0     C57879  11.671   4.030   3.481  0.2384  0.5004  0.3732
  420MOL0     C57880  11.745   3.926   3.535  0.0886  0.2715  0.9790
  420MOL0     O57881  11.887   3.937   3.551 -0.0215  0.7200  0.2422
  420MOL0     C57882  11.945   4.065   3.589 -0.1202 -0.1894  0.2125
  420MOL0     C57883  12.078   4.060   3.655 -0.3319  1.0808 -0.3888
  420MOL0     C57884  12.073   3.942   3.758  0.0326  0.5500 -0.5132
  420MOL0     C57885  12.212   3.928   3.805 -1.1007 -0.2360 -0.2195
  420MOL0     C57886  12.228   3.814   3.896 -0.0585 -0.4058 -0.1528
  420MOL0     C57887  12.248   3.712   3.954  0.5118  1.0313  0.8832
  420MOL0     C57888  11.689   3.802   3.559  0.2423 -0.3619 -0.3726
  420MOL0     C57889  11.557   3.779   3.527 -0.0927  0.4489 -0.6959
  420MOL0     C57890  11.511   3.632   3.542  0.4747 -0.4350 -0.3095
  420MOL0     H57891  11.214   3.967   3.110 -0.6156  1.1225  0.2282
  420MOL0     H57892  10.991   3.924   3.011  1.5513  1.0260 -0.2898
  420MOL0     H57893  10.794   3.658   3.090 -0.7076  0.0164  0.3379
  420MOL0     H57894  10.832   3.775   2.964 -0.6381 -0.0162 -0.5886
  420MOL0     H57895  10.542   3.740   3.090 -0.4399  1.8598  0.2741
  420MOL0     H57896  10.600   3.849   2.959  1.4079  0.2702  1.9525
  420MOL0     H57897  10.473   3.661   2.886 -1.4899 -2.5595  1.6709
  420MOL0     H57898  10.643   3.625   2.837  0.5753 -3.4847  2.0919
  420MOL0     H57899  10.660   3.467   2.998 -0.1739  1.8464 -0.2956
  420MOL0     H57900  10.510   3.504   3.085 -1.4791  0.5366 -0.0874
  420MOL0     H57901  10.519   3.378   2.812  2.2629 -0.9761  2.0763
  420MOL0     H57902  10.369   3.444   2.878 -1.8617 -2.1205  1.8857
  420MOL0     H57903  10.389   3.192   2.921  1.4500 -1.9528 -0.2482
  420MOL0     H57904  10.559   3.216   2.970  0.4092  1.3563 -1.9536
  420MOL0     H57905  10.305   3.316   3.123 -0.8069 -1.2907  2.2927
  420MOL0     H57906  10.474   3.317   3.173  1.7356  0.2168 -3.3202
  420MOL0     H57907  10.311   3.077   3.114  1.2585  1.1591 -1.9246
  420MOL0     H57908  10.445   3.071   3.221 -0.2177  0.4348  0.4446
  420MOL0     H57909  10.069   3.152   3.247 -0.6809  2.8534 -1.0078
  420MOL0     H57910   9.923   3.164   3.508  2.5184 -0.7286  1.2886
  420MOL0     H57911   9.920   3.312   3.415  2.3298  1.4131 -0.3216
  420MOL0     H57912  10.004   3.284   3.714  0.4227 -1.7612 -0.8676
  420MOL0     H57913  10.030   3.422   3.616 -0.5236  1.7499 -2.7945
  420MOL0     H57914   9.779   3.420   3.554  0.9004 -2.6826 -0.5291
  420MOL0     H57915   9.763   3.331   3.705 -2.0308 -1.1749 -2.3971
  420MOL0     H57916   9.895   3.494   3.817  0.2648 -1.6919 -0.6659
  420MOL0     H57917   9.906   3.594   3.665 -1.3415  0.3012  0.8264
  420MOL0     H57918   9.959   3.759   3.797  1.3497  2.3273  0.6964
  420MOL0     H57919  10.076   3.897   4.049 -0.1055 -0.4684 -0.0387
  420MOL0     H57920  10.014   4.049   3.982 -2.5014 -0.9347  0.4661
  420MOL0     H57921  10.060   3.921   3.872 -2.2723  1.1570 -1.5435
  420MOL0     H57922   9.641   4.087   4.433  1.3451  0.5188  1.8421
  420MOL0     H57923   9.610   4.276   4.576 -2.4399 -3.3936 -1.0400
  420MOL0     H57924   9.541   4.494   4.634  0.0035 -1.0662 -1.3899
  420MOL0     H57925   9.714   4.473   4.686  0.3976  1.5516  1.7873
  420MOL0     H57926   9.537   4.712   4.696 -0.3705 -1.3779 -0.0192
  420MOL0     H57927   9.620   4.628   4.827 -0.7251  1.3239  0.1500
  420MOL0     H57928   9.798   4.732   4.621 -1.6911 -0.2797 -1.9428
  420MOL0     H57929   9.812   4.741   4.803 -2.5793 -1.4792  0.8240
  420MOL0     H57930   9.608   4.915   4.792 -1.8019  0.1095 -0.1036
  420MOL0     H57931   9.683   4.929   4.625 -3.7756 -3.0532 -0.2291
  420MOL0     H57932   9.788   4.973   4.919  5.6646 -1.5893  1.0411
  420MOL0     H57933   9.899   4.973   4.783 -0.6823  2.1781  1.1966
  420MOL0     H57934   9.733   5.145   4.671  2.6498 -1.4784 -0.4849
  420MOL0     H57935   9.852   5.193   4.798 -1.3323  2.3171  0.1416
  420MOL0     H57936   9.579   5.127   4.894  2.5293 -2.3952  0.2293
  420MOL0     H57937   9.609   5.276   4.793  4.2867  2.7396  0.4246
  420MOL0     H57938   9.784   5.325   4.995 -0.7731  0.7264  2.2476
  420MOL0     H57939   9.736   5.181   5.070  5.7606  1.0182 -1.0035
  420MOL0     H57940   9.751   4.535   4.254  1.1322  0.4184 -1.7794
  420MOL0     H57941   9.752   4.337   4.099  1.0981  1.4582  1.6439
  420MOL0     H57942   9.567   3.871   4.076 -2.2378  1.1021 -3.1068
  420MOL0     H57943   9.549   3.686   3.942  0.0550 -0.0482  0.4758
  420MOL0     H57944  10.841   3.830   3.399  0.1364 -0.6694 -0.0830
  420MOL0     H57945  11.042   3.918   3.505  1.1476  0.8565 -0.2091
  420MOL0     H57946  11.470   4.088   3.403 -0.7418 -0.4683  0.4001
  420MOL0     H57947  11.716   4.127   3.465 -0.2141  0.5324 -0.8255
  420MOL0     H57948  11.952   4.128   3.500  2.4645 -2.2275 -1.1638
  420MOL0     H57949  11.883   4.114   3.664 -0.6305 -0.0292 -0.3131
  420MOL0     H57950  12.101   4.155   3.705 -0.3322  0.6678  0.4034
  420MOL0     H57951  12.152   4.040   3.576 -0.2844  1.2909 -0.3983
  420MOL0     H57952  12.003   3.971   3.838  0.6347 -0.6060  0.4601
  420MOL0     H57953  12.032   3.851   3.713 -1.0130  1.0179 -0.5375
  420MOL0     H57954  12.261   4.016   3.849 -0.5006 -1.7125  2.2898
  420MOL0     H57955  12.268   3.894   3.718  1.3898 -0.4226  1.3457
  420MOL0     H57956  12.247   3.615   4.001 -2.1620  0.4979 -0.0657
  420MOL0     H57957  11.745   3.728   3.615 -0.9482 -1.2530 -0.3147
  420MOL0     H57958  11.595   3.564   3.531  1.7906  1.0163  0.3488
  420MOL0     H57959  11.463   3.630   3.640  1.2459  2.9187  0.2850
  420MOL0     H57960  11.434   3.609   3.468  0.4846  3.3340 -1.7554
  421MOL0     O57961   8.684   1.417   4.610  0.0270 -0.5669  0.4548
  421MOL0     C57962   8.636   1.339   4.524 -0.5756  0.3499  0.0881
  421MOL0     O57963   8.624   1.359   4.391  0.5461 -0.5594  0.0064
  421MOL0     C57964   8.661   1.473   4.329  1.4210 -0.9398  0.8099
  421MOL0     C57965   8.769   1.553   4.367 -0.0359 -0.3253 -0.5140
  421MOL0     C57966   8.801   1.655   4.268  0.2380 -0.3969 -1.0050
  421MOL0     C57967   8.746   1.666   4.145  0.1775  0.4632  0.5465
  421MOL0     O57968   8.791   1.765   4.055 -0.5315  0.0326  0.4052
  421MOL0     C57969   8.729   1.890   4.070 -0.0892 -0.5309 -1.0747
  421MOL0     C57970   8.846   1.985   4.056 -0.1665 -0.8139 -0.4270
  421MOL0     C57971   8.807   2.125   4.033  1.1035 -0.4481 -0.3080
  421MOL0     C57972   8.920   2.206   3.970 -0.2355 -0.0729  0.3617
  421MOL0     C57973   8.885   2.355   3.963 -0.5147 -0.0180 -0.1324
  421MOL0     C57974   9.008   2.430   3.926 -0.4041  0.1721 -0.4505
  421MOL0     C57975   8.983   2.581   3.908  0.2549 -0.1672  0.7319
  421MOL0     C57976   9.090   2.653   3.826  0.4432 -0.6812  0.0196
  421MOL0     N57977   9.077   2.607   3.689 -0.4812 -0.2169 -0.8257
  421MOL0     C57978   9.001   2.672   3.595 -0.1696  1.0990 -0.6019
  421MOL0     C57979   8.991   2.581   3.491 -0.0710 -0.1455 -0.2674
  421MOL0     C57980   8.895   2.589   3.377  0.0589  0.3961  0.0006
  421MOL0     C57981   8.763   2.509   3.389  0.2574 -0.5965  0.7687
  421MOL0     C57982   8.657   2.578   3.485  0.0014 -0.0900  0.4682
  421MOL0     C57983   8.558   2.474   3.533 -0.1431  0.5872 -0.1327
  421MOL0     O57984   8.620   2.364   3.594  0.3186 -0.1571  0.4388
  421MOL0     C57985   8.568   2.239   3.595 -0.7754 -0.4575  0.3679
  421MOL0     C57986   8.462   2.193   3.516 -0.3160 -0.0763  0.1310
  421MOL0     C57987   8.411   2.066   3.530 -0.2733 -0.0782 -0.5880
  421MOL0     C57988   8.294   2.037   3.450 -0.4040 -0.4325  0.0147
  421MOL0     C57989   8.477   1.975   3.622 -0.1686 -0.9536 -0.7158
  421MOL0     C57990   8.448   1.830   3.650 -0.0429  0.9417 -0.7766
  421MOL0     O57991   8.545   1.741   3.694 -0.1576  0.4533  0.3150
  421MOL0     C57992   8.505   1.615   3.726  0.6515  0.7177  0.2548
  421MOL0     C57993   8.559   1.499   3.667 -1.0345 -0.2842 -0.3226
  421MOL0     C57994   8.538   1.364   3.710 -0.0440 -1.3070  0.0837
  421MOL0     C57995   8.442   1.343   3.807  0.1171  1.3020 -0.2198
  421MOL0     O57996   8.409   1.216   3.845 -0.2568 -0.0860  0.7662
  421MOL0     C57997   8.411   1.189   3.985 -0.0574  0.0793  0.0246
  421MOL0     C57998   8.388   1.038   4.005  0.1384 -0.0719 -0.4490
  421MOL0     C57999   8.240   1.003   3.984 -0.1617  0.1016  1.4612
  421MOL0     C58000   8.210   0.849   4.007 -0.5732 -0.9303 -0.4178
  421MOL0     C58001   8.062   0.814   3.995 -0.5138 -0.7031  0.2667
  421MOL0     C58002   8.036   0.661   3.986 -0.6966  0.4352 -0.9349
  421MOL0     C58003   7.891   0.632   3.979  0.4939  0.0319  0.1868
  421MOL0     C58004   7.869   0.488   3.956 -0.3962 -0.6307 -0.1407
  421MOL0    Cl58005   7.914   0.385   4.111 -0.1711  0.2457  0.1631
  421MOL0     C58006   8.383   1.459   3.862 -0.2460  0.4831  0.5246
  421MOL0     C58007   8.410   1.588   3.825 -0.1087  0.1141 -0.9334
  421MOL0     O58008   8.329   1.798   3.615 -0.1553 -0.5119  0.0331
  421MOL0     C58009   8.586   2.027   3.701  0.2375  0.5513  0.6735
  421MOL0     C58010   8.629   2.160   3.681 -0.0868 -0.6277 -0.4719
  421MOL0     N58011   9.083   2.478   3.513  0.4064 -0.6579 -0.1448
  421MOL0     N58012   9.139   2.499   3.628  0.5063  0.2752 -0.1254
  421MOL0     C58013   8.642   1.582   4.114 -0.5554  0.0050  0.7105
  421MOL0     C58014   8.595   1.492   4.203  0.4012 -0.1663  0.9318
  421MOL0     C58015   8.590   1.204   4.576  0.1271  0.0489  0.2593
  421MOL0     C58016   8.497   1.123   4.510  0.0316  0.3430 -0.3329
  421MOL0     C58017   8.445   0.997   4.548 -0.2093 -0.0831  1.2832
  421MOL0     C58018   8.500   0.941   4.653  1.1001 -0.4528  0.2129
  421MOL0     O58019   8.473   0.814   4.701  0.5278 -0.5722  0.3702
  421MOL0     C58020   8.391   0.725   4.624 -0.4100  0.3749  0.1459
  421MOL0     C58021   8.491   0.633   4.527 -0.6409  0.2453  0.1364
  421MOL0     C58022   8.409   0.558   4.429 -0.4850  0.8780  0.0865
  421MOL0     C58023   8.360   0.634   4.302 -0.1015  0.1699  0.8705
  421MOL0     C58024   8.457   0.644   4.199 -0.1668 -0.0393  0.6433
  421MOL0     C58025   8.532   0.656   4.099  0.2835 -0.0392 -0.2117
  421MOL0     C58026   8.606   0.996   4.730  0.4493  0.6165  0.4144
  421MOL0     C58027   8.648   1.132   4.695 -0.2431  1.1575  0.4246
  421MOL0     C58028   8.761   1.186   4.782 -0.8882 -0.5622  0.6634
  421MOL0     H58029   8.825   1.546   4.459 -1.8075  1.5052  0.7956
  421MOL0     H58030   8.884   1.721   4.287 -0.0802 -0.4346  0.5910
  421MOL0     H58031   8.694   1.907   4.172 -0.2739  0.5139 -1.3060
  421MOL0     H58032   8.660   1.903   3.986  1.3611 -1.3965 -2.4615
  421MOL0     H58033   8.927   1.972   4.128  1.2682 -1.7953 -2.1307
  421MOL0     H58034   8.911   1.956   3.973 -0.6207 -2.3413 -0.2812
  421MOL0     H58035   8.722   2.119   3.965  0.0984  0.3071  0.8461
  421MOL0     H58036   8.778   2.176   4.125  3.7688  1.1917 -0.2612
  421MOL0     H58037   9.013   2.194   4.027 -1.3790 -1.0255  2.1194
  421MOL0     H58038   8.939   2.177   3.866 -4.9008 -0.6097 -0.5296
  421MOL0     H58039   8.855   2.388   4.063  0.3737  4.3892 -1.1328
  421MOL0     H58040   8.810   2.370   3.884  1.5137  1.8348 -1.8223
  421MOL0     H58041   9.090   2.410   3.996 -0.6332  1.6347  0.2830
  421MOL0     H58042   9.045   2.391   3.831  2.9789  3.8317 -0.8793
  421MOL0     H58043   8.963   2.625   4.006 -1.6826 -2.7782  1.6243
  421MOL0     H58044   8.885   2.590   3.859  0.6547 -2.7308 -0.6929
  421MOL0     H58045   9.063   2.759   3.822 -2.4392 -1.3282 -0.0666
  421MOL0     H58046   9.192   2.639   3.863  1.8434  1.5777 -2.6087
  421MOL0     H58047   8.947   2.764   3.616  0.4279  1.0174  1.4951
  421MOL0     H58048   8.948   2.552   3.288 -1.4954 -1.7103 -0.1196
  421MOL0     H58049   8.874   2.692   3.346 -1.0385 -0.8081 -3.7384
  421MOL0     H58050   8.718   2.497   3.290  0.2300  1.1302  0.5414
  421MOL0     H58051   8.785   2.410   3.430  0.0338 -1.0883 -0.2763
  421MOL0     H58052   8.719   2.623   3.564  0.5470 -0.0181  0.0060
  421MOL0     H58053   8.605   2.658   3.432  0.7173  0.1991  0.1863
  421MOL0     H58054   8.486   2.521   3.601 -0.9800  0.6754 -1.0552
  421MOL0     H58055   8.503   2.444   3.443  0.9719  0.8768 -0.9282
  421MOL0     H58056   8.421   2.256   3.438 -0.7784  0.1520  0.5535
  421MOL0     H58057   8.210   2.013   3.516  0.0243 -2.1012 -0.0136
  421MOL0     H58058   8.313   1.958   3.377 -2.0909  1.9522 -3.2470
  421MOL0     H58059   8.274   2.128   3.392  0.8911 -0.4562 -0.5075
  421MOL0     H58060   8.630   1.514   3.586 -0.9545 -1.1614 -0.4164
  421MOL0     H58061   8.587   1.284   3.655 -0.2378 -1.9784  0.8581
  421MOL0     H58062   8.501   1.216   4.041 -0.7954  0.0991  1.2606
  421MOL0     H58063   8.327   1.236   4.039 -0.4500 -1.5687  0.9289
  421MOL0     H58064   8.450   0.974   3.942  0.4222 -0.8597  0.6120
  421MOL0     H58065   8.407   1.007   4.108  0.0908 -0.8157 -0.6587
  421MOL0     H58066   8.224   1.032   3.880  0.4319  0.0181  1.3394
  421MOL0     H58067   8.186   1.065   4.056  1.7047  0.6768  2.4421
  421MOL0     H58068   8.254   0.839   4.107  1.5709  0.6388 -1.1182
  421MOL0     H58069   8.265   0.780   3.942 -1.9157 -2.7724  0.3028
  421MOL0     H58070   8.018   0.856   4.086 -0.0069  0.7132 -0.1060
  421MOL0     H58071   8.009   0.861   3.911  0.7203 -1.3456 -0.9004
  421MOL0     H58072   8.086   0.600   4.062 -1.6378  0.6356 -0.1410
  421MOL0     H58073   8.080   0.618   3.896 -3.7078 -2.8264 -1.0695
  421MOL0     H58074   7.846   0.693   3.901  3.6614 -0.6441 -2.3801
  421MOL0     H58075   7.837   0.666   4.068 -0.1419  3.2840 -1.3072
  421MOL0     H58076   7.926   0.467   3.865  0.3860  2.4681 -0.4708
  421MOL0     H58077   7.761   0.480   3.940 -0.3105 -1.6009 -0.3212
  421MOL0     H58078   8.310   1.442   3.940 -2.7630  3.0820 -1.0827
  421MOL0     H58079   8.359   1.670   3.873 -0.9548 -0.3275 -1.0692
  421MOL0     H58080   8.637   1.965   3.774  0.1584 -0.5291 -0.1597
  421MOL0     H58081   8.720   2.201   3.723  0.1827  1.4849 -2.8811
  421MOL0     H58082   8.607   1.577   4.011 -0.0128 -1.1771  0.5617
  421MOL0     H58083   8.515   1.430   4.164 -1.9832  3.5226 -0.6702
  421MOL0     H58084   8.452   1.164   4.420 -3.3771 -1.0861  0.5437
  421MOL0     H58085   8.368   0.947   4.490  2.2012 -1.0886 -1.2867
  421MOL0     H58086   8.346   0.653   4.692  3.4798 -3.6605 -1.0575
  421MOL0     H58087   8.309   0.768   4.565  1.1168 -0.0285 -2.4603
  421MOL0     H58088   8.569   0.573   4.576  0.7213  0.9681 -1.0651
  421MOL0     H58089   8.562   0.694   4.471  1.5737  1.4097  3.8647
  421MOL0     H58090   8.465   0.470   4.395 -2.5195 -0.0675 -1.0318
  421MOL0     H58091   8.321   0.515   4.478 -0.3128  0.0405 -0.3095
  421MOL0     H58092   8.330   0.735   4.332 -3.8423 -1.0683  1.9236
  421MOL0     H58093   8.275   0.570   4.274  2.5740 -2.5073 -1.9073
  421MOL0     H58094   8.595   0.654   4.013 -0.0381 -2.4045 -0.4570
  421MOL0     H58095   8.658   0.945   4.811 -0.1979 -1.5529 -0.4571
  421MOL0     H58096   8.809   1.114   4.849 -1.6271 -3.2223 -1.4779
  421MOL0     H58097   8.841   1.215   4.713 -0.0196 -1.2460  1.3545
  421MOL0     H58098   8.724   1.275   4.834 -1.0105  0.8232 -1.6138
  422MOL0     O58099   5.724   3.255   3.428  1.0426 -0.5025  0.3164
  422MOL0     C58100   5.688   3.219   3.313  0.9140 -0.0796 -0.8182
  422MOL0     O58101   5.563   3.245   3.259 -0.5082  0.0427 -0.1992
  422MOL0     C58102   5.479   3.306   3.344  0.5882  0.2438  0.5228
  422MOL0     C58103   5.437   3.226   3.445  1.1328  0.1797 -0.5777
  422MOL0     C58104   5.325   3.258   3.525  0.4730 -1.1721 -0.2383
  422MOL0     C58105   5.259   3.381   3.502 -0.0323 -0.2506  0.2213
  422MOL0     O58106   5.170   3.435   3.593  0.0780 -0.6023 -0.3311
  422MOL0     C58107   5.067   3.347   3.651 -0.0827 -0.9126  0.0292
  422MOL0     C58108   4.995   3.423   3.756  0.2282  0.9759  0.0811
  422MOL0     C58109   5.048   3.414   3.899  0.5369 -0.7973 -0.3751
  422MOL0     C58110   4.940   3.484   3.976  0.0112  0.4038  0.4488
  422MOL0     C58111   4.976   3.462   4.118  0.0600 -0.2688 -0.3883
  422MOL0     C58112   4.854   3.509   4.208 -0.2092  0.3479  0.5839
  422MOL0     C58113   4.878   3.476   4.351 -0.4190  0.4482  0.9531
  422MOL0     C58114   4.757   3.494   4.431  0.8875 -0.3721 -0.5537
  422MOL0     N58115   4.775   3.459   4.574 -0.4513 -0.3482  0.3341
  422MOL0     C58116   4.743   3.544   4.679 -0.8493  0.5873  0.0363
  422MOL0     C58117   4.792   3.474   4.792 -0.1848  0.8906 -0.3921
  422MOL0     C58118   4.786   3.541   4.925  1.5560 -0.1211  0.3645
  422MOL0     C58119   4.741   3.435   5.025 -1.5359  0.3938 -1.0064
  422MOL0     C58120   4.721   3.505   5.158  0.6021  0.3071 -0.3975
  422MOL0     C58121   4.590   3.574   5.181  0.0652  0.1509 -0.4440
  422MOL0     O58122   4.585   3.639   5.309  0.4740 -0.0936  0.5366
  422MOL0     C58123   4.456   3.686   5.345  0.2591  0.4032 -0.1216
  422MOL0     C58124   4.351   3.708   5.254  0.3357  0.4181 -0.0690
  422MOL0     C58125   4.222   3.751   5.303  0.0666 -0.4396 -0.0327
  422MOL0     C58126   4.121   3.756   5.193 -0.3048 -0.4537  0.1685
  422MOL0     C58127   4.208   3.792   5.440  0.6450  0.0264  0.7307
  422MOL0     C58128   4.078   3.835   5.507  0.1047 -0.3810  0.0612
  422MOL0     O58129   4.083   3.949   5.587 -0.1926  0.2647 -0.0604
  422MOL0     C58130   3.959   3.994   5.632  0.0834  0.4499  0.6346
  422MOL0     C58131   3.909   3.949   5.754 -0.0814  0.3075  0.0726
  422MOL0     C58132   3.793   3.996   5.819  0.4661 -0.6884 -0.6101
  422MOL0     C58133   3.726   4.101   5.753  0.7679  0.1104  0.2954
  422MOL0     O58134   3.614   4.170   5.797 -0.2171  0.3154 -0.3367
  422MOL0     C58135   3.526   4.106   5.897 -0.2691  0.4402 -0.2037
  422MOL0     C58136   3.397   4.185   5.894  0.5885 -0.5355  0.5423
  422MOL0     C58137   3.299   4.121   5.980 -0.4715 -0.4045  0.3972
  422MOL0     C58138   3.269   4.196   6.109 -0.0673 -0.8088 -0.3328
  422MOL0     C58139   3.173   4.119   6.207  1.0585  0.4815 -0.5761
  422MOL0     C58140   3.023   4.085   6.149  0.2132 -0.2422 -0.0431
  422MOL0     C58141   2.955   4.207   6.079 -0.4091  0.9264 -0.4103
  422MOL0     C58142   2.817   4.156   6.022 -0.1401 -0.1523  0.8693
  422MOL0    Cl58143   2.707   4.091   6.153 -0.2797 -0.0955  0.8581
  422MOL0     C58144   3.777   4.147   5.627  0.2277 -0.1012  0.6821
  422MOL0     C58145   3.893   4.094   5.565 -0.4289 -0.1665  0.3664
  422MOL0     O58146   3.976   3.764   5.488  0.0263 -0.4576  0.2419
  422MOL0     C58147   4.320   3.783   5.520 -0.4411 -1.0589  0.2017
  422MOL0     C58148   4.443   3.732   5.475 -0.0828  0.6718 -0.0913
  422MOL0     N58149   4.859   3.351   4.763  0.7325 -0.7594  0.2027
  422MOL0     N58150   4.855   3.355   4.627  0.7266 -0.8387 -0.2794
  422MOL0     C58151   5.301   3.461   3.393  0.0327  0.9949  0.5302
  422MOL0     C58152   5.400   3.420   3.309 -0.2975  0.7237  0.4223
  422MOL0     C58153   5.777   3.127   3.236 -0.5625 -0.2481  0.1007
  422MOL0     C58154   5.744   3.091   3.106  0.6608  1.0536  0.7304
  422MOL0     C58155   5.820   3.009   3.026 -1.0468  0.3542  0.2555
  422MOL0     C58156   5.939   2.950   3.076  0.7510  0.3441 -0.3553
  422MOL0     O58157   5.996   2.877   2.982  0.7499 -0.3504 -0.1777
  422MOL0     C58158   6.125   2.830   3.010 -0.5110  0.5621  1.1045
  422MOL0     C58159   6.130   2.686   2.966  0.5305 -0.0558  0.1543
  422MOL0     C58160   6.045   2.582   3.056 -0.7535 -0.0396  0.5475
  422MOL0     C58161   6.087   2.435   3.021  0.0613  0.2378 -0.4923
  422MOL0     C58162   6.013   2.344   3.106  0.0521 -0.0404 -0.1903
  422MOL0     C58163   5.978   2.258   3.190  0.3620 -0.1469  0.5707
  422MOL0     C58164   5.980   2.978   3.209  0.0364 -1.1011  0.5471
  422MOL0     C58165   5.897   3.067   3.292 -1.0868 -0.1552  0.4961
  422MOL0     C58166   5.954   3.095   3.435  0.4909 -0.2871 -0.3585
  422MOL0     H58167   5.491   3.135   3.466 -1.6475 -2.3553 -3.4704
  422MOL0     H58168   5.297   3.196   3.610 -0.6098 -1.8614 -1.0666
  422MOL0     H58169   5.106   3.252   3.687  0.5164 -0.9404 -0.6526
  422MOL0     H58170   5.001   3.318   3.568  0.4616 -0.9173 -0.4118
  422MOL0     H58171   4.984   3.525   3.717  0.8965  1.4800  1.1678
  422MOL0     H58172   4.903   3.365   3.761  0.7083  0.1834 -0.0879
  422MOL0     H58173   5.063   3.316   3.945  2.1452  0.2270  1.3944
  422MOL0     H58174   5.151   3.450   3.899  1.7482 -3.8991  1.2278
  422MOL0     H58175   4.935   3.592   3.960  0.6103  0.7306  2.2440
  422MOL0     H58176   4.843   3.437   3.957 -1.4206  2.9881  0.8868
  422MOL0     H58177   5.065   3.523   4.137 -0.3039 -0.0969  0.8616
  422MOL0     H58178   5.014   3.362   4.144  2.8454  0.9220  0.4390
  422MOL0     H58179   4.833   3.615   4.198  3.3117  1.1253  0.1390
  422MOL0     H58180   4.769   3.447   4.176  1.6535 -1.2361 -1.6174
  422MOL0     H58181   4.960   3.533   4.398 -0.1631  0.2577  0.7415
  422MOL0     H58182   4.887   3.367   4.358 -3.7356  0.1725  3.7460
  422MOL0     H58183   4.713   3.594   4.422 -2.4857 -1.6647 -0.1329
  422MOL0     H58184   4.682   3.419   4.402 -0.3969  0.3953  0.6481
  422MOL0     H58185   4.694   3.640   4.672  0.6273  1.4773  1.3047
  422MOL0     H58186   4.710   3.619   4.934 -0.1742 -1.9605  3.7343
  422MOL0     H58187   4.883   3.590   4.937  0.5464  1.8436  1.0622
  422MOL0     H58188   4.646   3.385   5.002 -1.4132 -0.2799 -0.1259
  422MOL0     H58189   4.821   3.362   5.042 -1.9330  0.3287  0.8314
  422MOL0     H58190   4.724   3.432   5.239  2.2881 -0.7727 -1.3485
  422MOL0     H58191   4.793   3.586   5.175 -2.5028  2.5875  3.2004
  422MOL0     H58192   4.572   3.658   5.113 -1.3749  1.0893  1.0302
  422MOL0     H58193   4.518   3.492   5.177  1.3589 -1.0165 -0.7476
  422MOL0     H58194   4.365   3.690   5.148  0.3409  0.9826 -0.1651
  422MOL0     H58195   4.042   3.826   5.224  0.2907  0.0978  0.4507
  422MOL0     H58196   4.081   3.655   5.182  2.4819 -1.8981  2.1963
  422MOL0     H58197   4.153   3.810   5.103 -3.3598  0.0384 -0.7669
  422MOL0     H58198   3.972   3.878   5.807 -1.9142 -1.6706 -0.2532
  422MOL0     H58199   3.750   3.963   5.913 -0.6642  1.3095 -0.3948
  422MOL0     H58200   3.498   4.005   5.865 -0.7725  0.7834 -0.8829
  422MOL0     H58201   3.586   4.107   5.989 -1.3227 -0.1736  0.5087
  422MOL0     H58202   3.412   4.292   5.914  3.9443  0.2825 -4.4670
  422MOL0     H58203   3.362   4.187   5.790  0.0722  2.9072  0.6490
  422MOL0     H58204   3.321   4.018   6.012 -0.7362  0.1440  2.5157
  422MOL0     H58205   3.214   4.109   5.913  1.4269 -3.5352 -1.7345
  422MOL0     H58206   3.228   4.297   6.092  2.5708  0.3156 -0.4977
  422MOL0     H58207   3.361   4.221   6.163  0.2514  1.3296 -1.7506
  422MOL0     H58208   3.227   4.026   6.225  0.7975  0.0574 -1.8802
  422MOL0     H58209   3.165   4.178   6.299  1.2600 -1.1764  0.5385
  422MOL0     H58210   2.971   4.030   6.228  0.3812  0.0486  0.2745
  422MOL0     H58211   3.038   4.005   6.076 -2.5928 -0.1732 -0.7845
  422MOL0     H58212   3.018   4.237   5.995  1.8891  0.5378  1.0749
  422MOL0     H58213   2.953   4.299   6.138 -1.1871  1.6309 -1.5111
  422MOL0     H58214   2.831   4.079   5.946 -2.4019  0.4695 -0.2700
  422MOL0     H58215   2.769   4.241   5.973  1.5764  0.3018 -0.1240
  422MOL0     H58216   3.723   4.211   5.558  1.7301 -0.7408 -1.1880
  422MOL0     H58217   3.921   4.129   5.466  1.7153  0.0236  0.9957
  422MOL0     H58218   4.324   3.831   5.617  0.6664  0.1339 -0.4080
  422MOL0     H58219   4.535   3.738   5.533  1.5343 -0.4782 -2.3349
  422MOL0     H58220   5.252   3.557   3.376 -2.1785 -0.2910 -0.8256
  422MOL0     H58221   5.432   3.473   3.219 -0.1832  0.2736  0.1926
  422MOL0     H58222   5.654   3.134   3.062  1.4176 -0.2857 -2.4616
  422MOL0     H58223   5.785   2.982   2.927 -1.4870 -2.5177  1.1088
  422MOL0     H58224   6.191   2.884   2.942 -1.0777 -1.4025 -1.1224
  422MOL0     H58225   6.166   2.829   3.112  3.8489 -0.4721 -0.4291
  422MOL0     H58226   6.231   2.644   2.959  0.9200  0.4823  1.9823
  422MOL0     H58227   6.087   2.692   2.866 -1.5032  1.3370  1.0566
  422MOL0     H58228   6.066   2.585   3.163  4.3278  1.7329 -0.2223
  422MOL0     H58229   5.936   2.594   3.044 -0.5019  0.6551 -1.5540
  422MOL0     H58230   6.192   2.417   3.044 -0.1593 -4.1962 -2.0415
  422MOL0     H58231   6.074   2.409   2.916  2.2067 -1.2497 -0.4372
  422MOL0     H58232   5.951   2.192   3.270  2.1668  0.3312  1.6528
  422MOL0     H58233   6.076   2.946   3.249  1.0054 -0.6212 -1.2596
  422MOL0     H58234   5.887   3.064   3.515  1.4798 -1.1472  0.1712
  422MOL0     H58235   6.050   3.048   3.457  0.9410  0.2166 -1.1828
  422MOL0     H58236   5.984   3.201   3.441  3.1697 -0.9074 -1.2795
  423MOL0     O58237   7.366   7.234  11.271  0.3580 -0.4330 -0.3756
  423MOL0     C58238   7.383   7.226  11.395  0.2603 -0.1776  0.0312
  423MOL0     O58239   7.470   7.301  11.459 -0.6838 -0.4694  0.1958
  423MOL0     C58240   7.549   7.389  11.390  0.0861  0.2952 -0.5014
  423MOL0     C58241   7.634   7.361  11.282  0.0791  1.0064  0.5262
  423MOL0     C58242   7.684   7.467  11.211  0.5589  0.7546 -0.1118
  423MOL0     C58243   7.671   7.600  11.246 -0.6520 -0.6881 -0.6612
  423MOL0     O58244   7.742   7.689  11.169 -0.8532 -0.5484 -0.1540
  423MOL0     C58245   7.671   7.803  11.116 -0.2018  0.1694 -0.3957
  423MOL0     C58246   7.756   7.886  11.021 -0.0653  1.0624 -0.0789
  423MOL0     C58247   7.670   7.996  10.962  0.4010 -1.0907 -0.5683
  423MOL0     C58248   7.688   8.129  11.054  0.0738 -0.2837  0.2505
  423MOL0     C58249   7.600   8.250  11.016 -0.1453 -0.3362  0.6593
  423MOL0     C58250   7.698   8.365  10.971  0.3256  0.4771 -0.4186
  423MOL0     C58251   7.611   8.478  10.896 -0.2176  0.3085  0.2769
  423MOL0     C58252   7.705   8.577  10.826 -0.2913 -0.0165 -0.5843
  423MOL0     N58253   7.720   8.711  10.904 -0.9346  0.4743  0.2156
  423MOL0     C58254   7.613   8.798  10.914 -0.3518  1.1727 -0.6205
  423MOL0     C58255   7.660   8.888  10.996 -0.1532  0.0612  0.4771
  423MOL0     C58256   7.588   9.014  11.030 -0.9656 -0.0307 -0.7856
  423MOL0     C58257   7.562   9.111  10.920 -0.6669 -0.1505 -0.4416
  423MOL0     C58258   7.501   9.247  10.964  0.0787  0.9263 -0.0548
  423MOL0     C58259   7.385   9.239  11.077 -0.4574  0.1591 -0.4735
  423MOL0     O58260   7.452   9.218  11.201 -0.6488  0.0223 -0.7250
  423MOL0     C58261   7.518   9.319  11.274  0.2289 -0.5558  0.2378
  423MOL0     C58262   7.591   9.292  11.391  0.9165  0.3817 -1.1359
  423MOL0     C58263   7.656   9.391  11.467 -0.3360  0.7880  0.0096
  423MOL0     C58264   7.737   9.344  11.587  0.6750  0.4825  0.1035
  423MOL0     C58265   7.644   9.521  11.425  0.0080  0.3620  0.4552
  423MOL0     C58266   7.700   9.637  11.504  0.7124  0.8431 -0.2258
  423MOL0     O58267   7.791   9.718  11.448 -0.6136  0.2305  0.0902
  423MOL0     C58268   7.833   9.838  11.494 -0.5283  0.1021 -0.9490
  423MOL0     C58269   7.887   9.927  11.407 -0.3169 -0.9265  0.4473
  423MOL0     C58270   7.911  10.054  11.442 -0.0213 -0.3483  0.0222
  423MOL0     C58271   7.911  10.088  11.579  0.2772  0.9429  0.2986
  423MOL0     O58272   7.945  10.220  11.622 -0.3267  1.1611 -0.3034
  423MOL0     C58273   7.839  10.298  11.679 -1.1790  0.1745  0.8952
  423MOL0     C58274   7.895  10.435  11.694 -0.9513  0.0286 -0.1669
  423MOL0     C58275   7.803  10.530  11.774 -0.2362 -0.5091  0.0139
  423MOL0     C58276   7.674  10.576  11.718  0.5303  0.7896  0.0760
  423MOL0     C58277   7.642  10.709  11.780 -0.1639  1.0444 -0.7511
  423MOL0     C58278   7.505  10.755  11.752  0.5691  0.2027  1.0045
  423MOL0     C58279   7.447  10.747  11.602 -0.3232 -0.0444 -0.6303
  423MOL0     C58280   7.339  10.645  11.584  0.6956  0.3213  1.0056
  423MOL0    Cl58281   7.257  10.660  11.421  0.1317 -0.7270 -0.2767
  423MOL0     C58282   7.867   9.996  11.679  0.7051 -0.9158 -0.1472
  423MOL0     C58283   7.820   9.874  11.636 -0.5016 -0.2409 -0.7173
  423MOL0     O58284   7.648   9.641  11.612  0.0845 -1.0100 -1.0080
  423MOL0     C58285   7.570   9.551  11.311  1.4050 -0.1868  0.6880
  423MOL0     C58286   7.516   9.450  11.226  0.3129  0.1501  0.2805
  423MOL0     N58287   7.792   8.860  11.026 -0.0150 -0.1706  0.2863
  423MOL0     N58288   7.823   8.746  10.978 -0.6018 -0.5805  0.0363
  423MOL0     C58289   7.581   7.627  11.344  0.6036 -0.6517 -0.0324
  423MOL0     C58290   7.520   7.527  11.413 -0.2986 -0.3051  0.8134
  423MOL0     C58291   7.297   7.126  11.471 -0.2288  0.0123 -0.0724
  423MOL0     C58292   7.349   7.059  11.582  0.1764  0.2300 -0.2887
  423MOL0     C58293   7.269   6.974  11.666 -0.1804  0.6395  0.4646
  423MOL0     C58294   7.147   6.939  11.624  0.8961  0.0394  0.7158
  423MOL0     O58295   7.062   6.856  11.685 -0.4621 -0.0178 -0.5085
  423MOL0     C58296   7.116   6.720  11.697  0.3778 -0.6284 -0.3253
  423MOL0     C58297   6.991   6.636  11.750  0.2565  0.1274 -1.2886
  423MOL0     C58298   6.943   6.676  11.889 -0.5299 -0.9284 -0.1513
  423MOL0     C58299   6.829   6.575  11.922 -0.0608 -0.0955  0.6704
  423MOL0     C58300   6.895   6.459  11.986 -0.4972 -0.0958  0.1231
  423MOL0     C58301   6.971   6.368  12.011  1.0933  1.0809 -0.0489
  423MOL0     C58302   7.100   6.987  11.499  0.7079 -0.2522 -0.2602
  423MOL0     C58303   7.163   7.087  11.427  0.1974 -0.1936  0.1916
  423MOL0     C58304   7.080   7.159  11.315 -0.0268  0.4997 -0.1003
  423MOL0     H58305   7.652   7.260  11.245 -0.4915  2.3610 -4.1949
  423MOL0     H58306   7.757   7.435  11.137  0.1281  0.7729 -0.5467
  423MOL0     H58307   7.637   7.872  11.194  0.4078 -2.4671  2.4365
  423MOL0     H58308   7.583   7.761  11.067 -0.0924 -2.3451  1.3611
  423MOL0     H58309   7.837   7.920  11.086  0.2915 -0.8826  0.5794
  423MOL0     H58310   7.789   7.818  10.942 -3.7316 -3.5843  1.8430
  423MOL0     H58311   7.706   8.008  10.859  1.1082 -2.2445 -0.4692
  423MOL0     H58312   7.566   7.964  10.957 -0.8624  2.3570  0.5257
  423MOL0     H58313   7.650   8.090  11.149 -3.2862 -5.2006 -2.6667
  423MOL0     H58314   7.796   8.150  11.048  0.5410 -2.7782 -1.6715
  423MOL0     H58315   7.541   8.287  11.101  2.6645  3.7440  1.1231
  423MOL0     H58316   7.539   8.217  10.931  3.5338 -0.1736 -2.2956
  423MOL0     H58317   7.761   8.410  11.048  1.1756 -0.5201 -0.5112
  423MOL0     H58318   7.765   8.320  10.897 -3.3521  1.3711 -4.7321
  423MOL0     H58319   7.544   8.536  10.961  2.1409  3.1724  0.3682
  423MOL0     H58320   7.563   8.433  10.809  0.8961 -0.2819 -0.0506
  423MOL0     H58321   7.794   8.517  10.804 -1.1922 -0.7586 -2.4650
  423MOL0     H58322   7.655   8.592  10.729  0.9534 -2.3426 -1.6736
  423MOL0     H58323   7.516   8.787  10.867  0.0944 -0.5831 -1.1904
  423MOL0     H58324   7.648   9.077  11.097 -1.4925 -0.8316  0.4882
  423MOL0     H58325   7.503   8.981  11.091 -0.4471  0.4099  0.1983
  423MOL0     H58326   7.637   9.128  10.843 -1.4430  0.5588 -1.0602
  423MOL0     H58327   7.486   9.050  10.870 -1.6573 -1.3005  2.2428
  423MOL0     H58328   7.577   9.319  10.995 -0.3069  0.5461  1.8954
  423MOL0     H58329   7.444   9.296  10.885  0.3782  2.1761  0.4793
  423MOL0     H58330   7.318   9.325  11.082 -0.6463 -0.0435  1.2797
  423MOL0     H58331   7.319   9.155  11.051 -1.3759  1.0111 -0.9669
  423MOL0     H58332   7.591   9.188  11.422  0.9950 -0.1355 -2.7921
  423MOL0     H58333   7.676   9.275  11.648  3.3296 -2.7156 -0.5688
  423MOL0     H58334   7.770   9.431  11.644  3.7502 -0.2087 -0.4889
  423MOL0     H58335   7.824   9.284  11.560 -0.2687 -0.3227 -1.2985
  423MOL0     H58336   7.900   9.883  11.308 -0.5321 -1.2831  0.5764
  423MOL0     H58337   7.937  10.125  11.364  2.4576  2.3322  3.0035
  423MOL0     H58338   7.768  10.297  11.596  1.1456  1.4017 -1.2433
  423MOL0     H58339   7.800  10.253  11.771 -3.1275 -0.0471  0.0260
  423MOL0     H58340   7.988  10.439  11.752  0.5503  0.7731 -2.5049
  423MOL0     H58341   7.923  10.478  11.597  0.3587  0.0866  0.2191
  423MOL0     H58342   7.873  10.614  11.781 -0.1085 -0.5201 -0.9806
  423MOL0     H58343   7.786  10.507  11.880  0.1889 -0.5149  0.0855
  423MOL0     H58344   7.599  10.506  11.756 -2.9627  2.7323 -2.6415
  423MOL0     H58345   7.672  10.572  11.609  2.0461 -1.0493  0.0608
  423MOL0     H58346   7.665  10.706  11.887 -1.5699 -0.8306 -0.4653
  423MOL0     H58347   7.706  10.779  11.724  2.9524 -1.6991 -0.9073
  423MOL0     H58348   7.475  10.848  11.802 -2.4718 -0.6860  1.0480
  423MOL0     H58349   7.446  10.672  11.791 -2.1581  0.8459 -1.4599
  423MOL0     H58350   7.529  10.731  11.531  0.4973 -0.1408  0.3191
  423MOL0     H58351   7.392  10.838  11.578 -0.7046 -0.6281 -2.1048
  423MOL0     H58352   7.266  10.665  11.663  1.0725  1.8136  1.0044
  423MOL0     H58353   7.383  10.545  11.586  0.9972  0.2555 -2.2920
  423MOL0     H58354   7.854  10.029  11.782 -0.6002  0.2395 -0.6506
  423MOL0     H58355   7.768   9.816  11.712  1.0644 -2.6349 -1.3612
  423MOL0     H58356   7.559   9.654  11.279  0.0909 -0.2802  0.8043
  423MOL0     H58357   7.458   9.489  11.143  1.3391  1.6215  0.2169
  423MOL0     H58358   7.548   7.723  11.384 -0.4985 -0.4859 -1.2653
  423MOL0     H58359   7.456   7.550  11.498 -0.4214 -0.4296  0.7545
  423MOL0     H58360   7.453   7.071  11.611  0.5087 -1.7884 -0.5119
  423MOL0     H58361   7.313   6.950  11.762  0.7646  1.7217  0.3355
  423MOL0     H58362   7.151   6.683  11.601 -2.5882 -1.3858 -1.2177
  423MOL0     H58363   7.198   6.728  11.769  0.4093  0.9817 -0.5059
  423MOL0     H58364   7.019   6.530  11.754 -1.0302 -0.1992  1.1585
  423MOL0     H58365   6.912   6.665  11.682  0.0294  1.5443 -0.4567
  423MOL0     H58366   7.024   6.674  11.962 -2.6458  0.0217  2.3734
  423MOL0     H58367   6.903   6.778  11.883  1.6663 -0.0957 -1.8787
  423MOL0     H58368   6.768   6.554  11.834  1.2953  1.3351 -0.6752
  423MOL0     H58369   6.771   6.627  11.999 -1.3585 -2.4968  1.4230
  423MOL0     H58370   7.026   6.276  12.019  1.6207  1.0868 -2.6820
  423MOL0     H58371   7.011   6.933  11.467 -0.1764  0.4696  0.9276
  423MOL0     H58372   6.983   7.190  11.356 -0.3745  0.8515 -1.1657
  423MOL0     H58373   7.121   7.256  11.287 -2.4608  0.7039 -3.5098
  423MOL0     H58374   7.062   7.094  11.229 -0.1151  0.9672 -0.4382
  424MOL0     O58375   1.222   4.777   2.214 -0.2460  0.9530 -0.5086
  424MOL0     C58376   1.161   4.795   2.318 -0.0117  1.0009 -0.7173
  424MOL0     O58377   1.031   4.771   2.341  0.0257  0.1292 -0.6725
  424MOL0     C58378   0.940   4.764   2.234  0.6753 -0.7558  0.0344
  424MOL0     C58379   0.827   4.677   2.244 -1.1038 -0.3753 -0.2784
  424MOL0     C58380   0.736   4.681   2.143  0.1060  0.7628 -0.4251
  424MOL0     C58381   0.745   4.764   2.036  0.6410  0.3990  0.3633
  424MOL0     O58382   0.640   4.756   1.944  0.3458 -0.4216 -0.1711
  424MOL0     C58383   0.651   4.844   1.834 -0.8284 -0.6397 -0.6610
  424MOL0     C58384   0.534   4.849   1.743 -0.4813 -0.3076 -0.1994
  424MOL0     C58385   0.401   4.891   1.808  0.1568  0.1035  0.1803
  424MOL0     C58386   0.384   5.045   1.820  0.9021 -0.4322  0.4769
  424MOL0     C58387   0.248   5.090   1.870 -0.0210  1.1902 -0.6736
  424MOL0     C58388   0.210   5.062   2.018 -0.5418 -0.3381  0.7262
  424MOL0     C58389   0.303   5.132   2.122  0.8913 -0.2158  0.2002
  424MOL0     C58390   0.223   5.171   2.247 -0.8706 -0.6320 -0.8341
  424MOL0     N58391   0.126   5.287   2.238  0.6814  0.4603 -0.0851
  424MOL0     C58392   0.039   5.337   2.327 -1.3469  0.0099  0.2585
  424MOL0     C58393  -0.023   5.437   2.272  0.2692 -0.7112  0.8316
  424MOL0     C58394  -0.130   5.536   2.329 -0.1418 -0.3020  0.0147
  424MOL0     C58395  -0.223   5.473   2.428  0.3811 -0.1117 -0.2666
  424MOL0     C58396  -0.364   5.538   2.461  0.4934  0.0981 -1.7129
  424MOL0     C58397  -0.468   5.440   2.494  0.0248 -0.2314  0.3090
  424MOL0     O58398  -0.424   5.343   2.586  0.5629  0.4355 -0.3619
  424MOL0     C58399  -0.517   5.248   2.614  0.4843 -0.5761 -0.1786
  424MOL0     C58400  -0.575   5.242   2.740  0.6511 -0.2202 -0.2319
  424MOL0     C58401  -0.677   5.141   2.782 -0.2422 -0.1441 -0.0800
  424MOL0     C58402  -0.716   5.135   2.922  0.6969 -0.3781 -0.1176
  424MOL0     C58403  -0.714   5.050   2.681  0.2462 -0.2679  0.2501
  424MOL0     C58404  -0.811   4.939   2.710 -0.4449  0.0314  0.4080
  424MOL0     O58405  -0.765   4.823   2.662  0.4860 -0.5511  0.2841
  424MOL0     C58406  -0.824   4.711   2.688 -0.5784 -0.1929 -0.2126
  424MOL0     C58407  -0.862   4.683   2.818  0.2390  0.4339 -0.3005
  424MOL0     C58408  -0.932   4.566   2.835  0.5098  0.6521 -0.0718
  424MOL0     C58409  -0.982   4.488   2.715  0.0067 -0.3721 -0.4094
  424MOL0     O58410  -1.042   4.368   2.730  0.7346  0.0080  0.4485
  424MOL0     C58411  -1.140   4.341   2.834 -0.7175  0.6311 -0.4263
  424MOL0     C58412  -1.187   4.194   2.853 -1.1859  0.1861 -0.3863
  424MOL0     C58413  -1.281   4.157   2.734  0.1348 -0.2672  0.6899
  424MOL0     C58414  -1.339   4.018   2.765  0.2523  0.2606 -0.4651
  424MOL0     C58415  -1.480   4.031   2.828 -0.0357  0.3637 -0.0371
  424MOL0     C58416  -1.536   3.889   2.856 -0.4338 -0.5710 -0.8160
  424MOL0     C58417  -1.669   3.902   2.926 -0.0174 -0.1028 -0.4840
  424MOL0     C58418  -1.753   3.772   2.945  0.4912 -1.0742  0.4359
  424MOL0    Cl58419  -1.810   3.703   2.795 -0.0187 -0.0455  0.2163
  424MOL0     C58420  -0.942   4.533   2.587 -0.5554  0.2013  0.4749
  424MOL0     C58421  -0.859   4.641   2.573 -0.3455 -0.3360 -0.6262
  424MOL0     O58422  -0.924   4.969   2.749  0.4252  0.1977 -0.3824
  424MOL0     C58423  -0.651   5.048   2.556  0.0045 -0.8972 -1.0885
  424MOL0     C58424  -0.552   5.143   2.524 -0.7688 -0.4125 -0.1164
  424MOL0     N58425   0.020   5.451   2.143 -0.7586  0.3333 -0.6965
  424MOL0     N58426   0.105   5.358   2.122  0.7381  0.4794 -0.7179
  424MOL0     C58427   0.855   4.844   2.017  0.0841 -0.0345  0.1720
  424MOL0     C58428   0.942   4.855   2.118  0.0326 -0.4876  0.4921
  424MOL0     C58429   1.242   4.838   2.435  0.9508  1.2655 -0.8487
  424MOL0     C58430   1.193   4.810   2.567 -0.3842 -1.1879 -0.6636
  424MOL0     C58431   1.265   4.848   2.678  0.2469 -0.0222 -0.1778
  424MOL0     C58432   1.379   4.927   2.665 -0.0602  0.5698  0.2879
  424MOL0     O58433   1.419   4.969   2.793  0.0232 -0.2502  0.5272
  424MOL0     C58434   1.552   5.022   2.809  0.2152  0.2672 -0.0653
  424MOL0     C58435   1.552   5.172   2.782  0.7248  0.2259  0.4721
  424MOL0     C58436   1.693   5.218   2.814 -0.6741 -0.2904 -0.0916
  424MOL0     C58437   1.716   5.361   2.773 -0.4603  0.5023  0.3788
  424MOL0     C58438   1.624   5.450   2.854  0.6042  0.5660 -0.5768
  424MOL0     C58439   1.558   5.521   2.928  0.6533  0.3519  0.4762
  424MOL0     C58440   1.428   4.954   2.541  0.2739 -0.9767  1.4056
  424MOL0     C58441   1.366   4.909   2.422 -0.1825  0.4454 -0.2337
  424MOL0     C58442   1.420   4.954   2.289 -0.5866 -0.0448 -0.0432
  424MOL0     H58443   0.812   4.612   2.330 -0.4768  0.2025  0.2846
  424MOL0     H58444   0.646   4.624   2.165 -0.2355 -0.1507 -3.6400
  424MOL0     H58445   0.745   4.830   1.781 -0.4807  0.2094 -0.2759
  424MOL0     H58446   0.656   4.942   1.881 -1.4936 -0.9033 -0.0059
  424MOL0     H58447   0.552   4.924   1.666 -0.9828 -0.1605 -0.1742
  424MOL0     H58448   0.531   4.746   1.708  1.0603 -2.0529  4.0925
  424MOL0     H58449   0.323   4.855   1.741  0.6326  0.7753 -0.7583
  424MOL0     H58450   0.404   4.851   1.910  0.0093 -0.3613  0.0036
  424MOL0     H58451   0.457   5.085   1.890 -1.4429  2.2067  1.6136
  424MOL0     H58452   0.399   5.086   1.720  3.3702  1.1494  1.4115
  424MOL0     H58453   0.173   5.038   1.808 -1.2384  1.2626  0.6991
  424MOL0     H58454   0.255   5.197   1.851  1.0830  1.2145 -0.2162
  424MOL0     H58455   0.107   5.093   2.034 -1.7806 -1.4914 -3.5293
  424MOL0     H58456   0.214   4.954   2.033  2.4534 -0.3774  0.3406
  424MOL0     H58457   0.332   5.226   2.075 -0.4484 -0.1787 -0.5941
  424MOL0     H58458   0.391   5.068   2.136  3.0043  2.7004  1.2941
  424MOL0     H58459   0.178   5.090   2.305  0.2836 -0.5406  0.2302
  424MOL0     H58460   0.295   5.210   2.319 -3.2186  2.6326 -0.0108
  424MOL0     H58461   0.042   5.312   2.433  3.8900 -0.0935  0.3245
  424MOL0     H58462  -0.189   5.584   2.250  0.6899 -0.2099 -0.5562
  424MOL0     H58463  -0.073   5.610   2.386  1.1947 -0.1184 -1.5266
  424MOL0     H58464  -0.261   5.382   2.381  1.0510 -0.4798 -0.1063
  424MOL0     H58465  -0.175   5.440   2.520  1.2286 -0.9511 -1.0039
  424MOL0     H58466  -0.349   5.583   2.560 -3.4968  2.4400 -1.9685
  424MOL0     H58467  -0.398   5.605   2.382  1.6374  0.5291 -1.8624
  424MOL0     H58468  -0.558   5.496   2.522 -1.7978 -2.6200 -0.5066
  424MOL0     H58469  -0.498   5.388   2.403  0.7117 -2.0301  1.0802
  424MOL0     H58470  -0.550   5.321   2.809  1.6862 -2.8067  2.5589
  424MOL0     H58471  -0.819   5.102   2.937  1.3817 -3.5722 -1.4042
  424MOL0     H58472  -0.711   5.235   2.965 -2.3314 -0.7201  1.2551
  424MOL0     H58473  -0.666   5.060   2.985 -2.7801 -0.9839  2.2003
  424MOL0     H58474  -0.837   4.748   2.901 -3.9904 -0.2598  1.7799
  424MOL0     H58475  -0.944   4.533   2.938 -1.7599  1.3276 -0.0817
  424MOL0     H58476  -1.104   4.384   2.928  1.7260  0.3215 -1.1523
  424MOL0     H58477  -1.224   4.404   2.802 -0.3444  0.9278 -0.8297
  424MOL0     H58478  -1.098   4.130   2.849 -0.2760  1.3938  0.2017
  424MOL0     H58479  -1.226   4.195   2.955  2.7188  0.8972  1.2955
  424MOL0     H58480  -1.226   4.148   2.640 -2.8566 -0.2924 -1.1797
  424MOL0     H58481  -1.355   4.235   2.714  0.7971  0.4960  1.1442
  424MOL0     H58482  -1.273   3.960   2.830 -0.6958  0.1537  0.4278
  424MOL0     H58483  -1.362   3.974   2.668 -1.2079 -0.2110  0.0682
  424MOL0     H58484  -1.484   4.079   2.926 -1.5505 -2.1702  1.2367
  424MOL0     H58485  -1.537   4.098   2.763  1.1957  2.2004  0.6811
  424MOL0     H58486  -1.462   3.841   2.921 -3.0611  0.0306  3.0267
  424MOL0     H58487  -1.549   3.836   2.761 -2.8769 -0.5460 -0.5822
  424MOL0     H58488  -1.725   3.974   2.866  3.7070 -0.2177 -4.5729
  424MOL0     H58489  -1.659   3.951   3.023  1.0942 -1.1200 -0.0616
  424MOL0     H58490  -1.844   3.781   3.005  2.0554 -1.0520  2.9467
  424MOL0     H58491  -1.697   3.706   3.010 -2.0248 -2.9414  0.8539
  424MOL0     H58492  -0.981   4.488   2.497  1.4466 -0.0899 -0.3005
  424MOL0     H58493  -0.837   4.681   2.475 -4.8228 -0.3195 -1.8633
  424MOL0     H58494  -0.691   4.976   2.486 -1.9968 -1.3796  0.4699
  424MOL0     H58495  -0.509   5.133   2.425  0.9573 -0.8863  0.6479
  424MOL0     H58496   0.873   4.910   1.932  1.0025 -1.6540 -0.9302
  424MOL0     H58497   1.023   4.925   2.100 -0.6618  0.6631  1.6639
  424MOL0     H58498   1.104   4.747   2.570 -0.3156 -1.3185 -1.2175
  424MOL0     H58499   1.227   4.816   2.775  2.2175  1.9579  1.3287
  424MOL0     H58500   1.583   4.988   2.908  0.9904 -2.4838 -1.1413
  424MOL0     H58501   1.623   4.971   2.743 -0.5722 -1.0151  0.0282
  424MOL0     H58502   1.481   5.207   2.858  0.8417 -1.2557  1.3048
  424MOL0     H58503   1.522   5.201   2.681  2.8809  1.9848  0.2551
  424MOL0     H58504   1.712   5.206   2.922  4.0581  3.7747 -0.1370
  424MOL0     H58505   1.763   5.156   2.757 -0.1583  1.7862 -1.7968
  424MOL0     H58506   1.696   5.373   2.667 -2.9225 -0.8708  0.6037
  424MOL0     H58507   1.814   5.403   2.796 -0.9683  1.2889  1.2142
  424MOL0     H58508   1.489   5.574   2.990 -1.4941 -2.3171  0.5479
  424MOL0     H58509   1.506   5.028   2.528 -0.3267 -0.3272  1.4062
  424MOL0     H58510   1.345   4.981   2.214  0.8294  0.5557 -1.3112
  424MOL0     H58511   1.484   5.042   2.302  0.9868 -1.2368  0.6540
  424MOL0     H58512   1.494   4.893   2.237 -0.0504 -0.7153  1.4466
  425MOL0     O58513   5.733   5.927   0.924 -0.0658  0.1330  0.1216
  425MOL0     C58514   5.625   5.980   0.912 -0.0963  0.1381 -0.2546
  425MOL0     O58515   5.519   5.916   0.857  0.3377  0.6026 -0.0676
  425MOL0     C58516   5.512   5.771   0.867  0.5647 -0.0826 -0.3039
  425MOL0     C58517   5.468   5.693   0.763 -0.1174 -0.3390 -0.2365
  425MOL0     C58518   5.458   5.557   0.766 -0.4686  0.3953 -0.1584
  425MOL0     C58519   5.485   5.494   0.886 -0.5094 -0.3035 -0.7122
  425MOL0     O58520   5.489   5.359   0.906 -0.6304  0.5309 -0.4701
  425MOL0     C58521   5.491   5.269   0.799 -0.0525 -0.0439  0.2100
  425MOL0     C58522   5.538   5.131   0.848  0.3374 -0.9554  0.6249
  425MOL0     C58523   5.570   5.037   0.723  0.4106 -0.0986 -0.4250
  425MOL0     C58524   5.618   4.901   0.749 -0.8387 -0.3235  0.3104
  425MOL0     C58525   5.564   4.800   0.647  0.4373 -0.3040 -0.2922
  425MOL0     C58526   5.621   4.664   0.665  0.3737  0.7304 -0.5788
  425MOL0     C58527   5.570   4.571   0.547 -0.2719  0.0772 -1.0584
  425MOL0     C58528   5.664   4.517   0.431 -0.1147  0.0345 -0.4459
  425MOL0     N58529   5.719   4.630   0.355 -0.3587  0.3281  0.0634
  425MOL0     C58530   5.843   4.686   0.374  0.3930  0.1434 -0.1422
  425MOL0     C58531   5.847   4.803   0.303  0.8252  0.1814  0.5928
  425MOL0     C58532   5.967   4.892   0.303 -0.3104 -0.1259  0.2203
  425MOL0     C58533   5.942   5.019   0.377  0.3147 -0.0283 -0.1401
  425MOL0     C58534   5.907   4.993   0.531  0.4499 -0.1566  0.4012
  425MOL0     C58535   5.923   5.130   0.604 -0.1070  0.5625  0.5166
  425MOL0     O58536   6.065   5.141   0.606 -0.0374 -1.0379  0.5911
  425MOL0     C58537   6.109   5.270   0.644  0.4003 -0.1102  0.8079
  425MOL0     C58538   6.241   5.285   0.618 -0.1113 -0.5731 -0.1282
  425MOL0     C58539   6.319   5.403   0.648  1.4963 -0.3914 -0.4960
  425MOL0     C58540   6.466   5.404   0.618  0.1222 -0.6505 -0.6189
  425MOL0     C58541   6.242   5.505   0.720 -0.5801  0.1868 -0.4139
  425MOL0     C58542   6.298   5.632   0.778 -0.4929 -0.6111 -0.0179
  425MOL0     O58543   6.208   5.725   0.827 -1.2005 -0.3675  1.0089
  425MOL0     C58544   6.237   5.848   0.887 -0.9552 -0.4649 -0.6519
  425MOL0     C58545   6.148   5.956   0.851 -0.4466 -0.5544 -0.4543
  425MOL0     C58546   6.171   6.084   0.901  0.6701 -0.6543  0.6541
  425MOL0     C58547   6.276   6.108   0.990 -0.4607 -0.3382 -0.7845
  425MOL0     O58548   6.302   6.231   1.047  0.6151  0.9027  0.4162
  425MOL0     C58549   6.207   6.336   1.043 -0.2014 -0.8046  0.3715
  425MOL0     C58550   6.288   6.458   1.083  0.1937  0.0958  0.8150
  425MOL0     C58551   6.219   6.592   1.084 -0.5507 -0.6699 -0.3127
  425MOL0     C58552   6.082   6.598   1.156 -0.5241  0.7650  0.0286
  425MOL0     C58553   6.045   6.741   1.180  0.7522 -0.5581  0.1363
  425MOL0     C58554   5.905   6.795   1.238  0.4139  0.4678  0.6792
  425MOL0     C58555   5.884   6.729   1.380  0.8263  0.0125  0.4275
  425MOL0     C58556   5.731   6.744   1.420 -0.7931  0.0914  1.0049
  425MOL0    Cl58557   5.699   6.905   1.484  0.4058  0.3280 -0.3388
  425MOL0     C58558   6.352   6.001   1.036 -0.0902  0.4007  1.2649
  425MOL0     C58559   6.343   5.870   0.977 -0.6284  0.2675  0.2056
  425MOL0     O58560   6.421   5.639   0.791  0.2391  0.5355  0.5511
  425MOL0     C58561   6.103   5.484   0.746  0.2851  0.6627  0.3311
  425MOL0     C58562   6.035   5.374   0.701 -0.3144  0.4123 -0.0777
  425MOL0     N58563   5.713   4.816   0.246 -0.0471 -0.3492 -0.0196
  425MOL0     N58564   5.646   4.714   0.276  0.1652  0.2031 -0.2734
  425MOL0     C58565   5.534   5.567   1.001 -0.5823 -0.9450 -0.5545
  425MOL0     C58566   5.546   5.707   0.987  1.0364 -0.2889 -0.0394
  425MOL0     C58567   5.595   6.112   0.959 -0.1970 -0.5427 -0.2682
  425MOL0     C58568   5.462   6.154   0.967  0.1732 -0.1411 -0.7804
  425MOL0     C58569   5.433   6.283   1.009  0.9644  0.2716  0.3361
  425MOL0     C58570   5.527   6.377   1.058 -0.0691  0.1769  0.1470
  425MOL0     O58571   5.488   6.509   1.085 -0.8823 -0.1690 -0.5072
  425MOL0     C58572   5.375   6.568   1.021 -0.3477 -0.8040  0.3751
  425MOL0     C58573   5.414   6.718   1.004 -0.5181 -0.3112 -0.1856
  425MOL0     C58574   5.437   6.744   0.853  0.4805 -0.4945  0.0643
  425MOL0     C58575   5.575   6.721   0.802  0.3100  0.9653  0.1593
  425MOL0     C58576   5.649   6.839   0.791 -0.6513  0.8666  0.2194
  425MOL0     C58577   5.706   6.939   0.772 -0.7673  0.0425  0.0994
  425MOL0     C58578   5.658   6.333   1.044 -0.1193  1.0865 -0.4715
  425MOL0     C58579   5.689   6.207   0.996 -0.4388  0.5435 -0.5723
  425MOL0     C58580   5.842   6.179   0.991 -0.3570 -0.1475  0.2717
  425MOL0     H58581   5.457   5.749   0.670  1.7985  2.4673  1.0890
  425MOL0     H58582   5.431   5.503   0.675  0.5714 -0.7746  0.2070
  425MOL0     H58583   5.553   5.310   0.719 -1.6362 -0.4931 -1.2901
  425MOL0     H58584   5.394   5.253   0.751  0.4513 -0.9063 -0.5603
  425MOL0     H58585   5.629   5.148   0.906  1.5103  0.3459 -1.4651
  425MOL0     H58586   5.453   5.085   0.899 -0.5566 -1.9923 -1.6627
  425MOL0     H58587   5.468   5.030   0.683 -0.3486  2.6601  0.7786
  425MOL0     H58588   5.628   5.085   0.644 -3.4520 -0.3356 -3.7591
  425MOL0     H58589   5.728   4.902   0.752 -0.7400 -3.2338  0.6365
  425MOL0     H58590   5.582   4.869   0.848 -2.4848 -0.7221 -0.3973
  425MOL0     H58591   5.587   4.835   0.546 -3.7071 -2.7451 -2.3594
  425MOL0     H58592   5.457   4.785   0.664  0.9943 -2.1199  2.1202
  425MOL0     H58593   5.729   4.677   0.653  0.2930  2.4259  0.3124
  425MOL0     H58594   5.597   4.626   0.764 -0.8621  2.0858 -0.3157
  425MOL0     H58595   5.481   4.614   0.500 -1.9643 -0.3787  1.5190
  425MOL0     H58596   5.539   4.478   0.595  0.1686  0.5217  0.1154
  425MOL0     H58597   5.737   4.458   0.486 -2.2574 -0.4657  2.0531
  425MOL0     H58598   5.605   4.451   0.366  0.1790  1.4082 -2.2066
  425MOL0     H58599   5.925   4.645   0.432  1.1887  1.1210 -0.5399
  425MOL0     H58600   6.001   4.911   0.201 -3.2705  3.1950 -0.3635
  425MOL0     H58601   6.053   4.840   0.346  0.4465 -1.9373 -3.1778
  425MOL0     H58602   6.021   5.094   0.369  0.2856  0.2888  1.9394
  425MOL0     H58603   5.853   5.058   0.328  1.4261  0.8206 -1.5622
  425MOL0     H58604   5.808   4.949   0.537  0.7245 -0.7785  0.3920
  425MOL0     H58605   5.970   4.920   0.581 -0.2006  0.4412  2.1526
  425MOL0     H58606   5.865   5.214   0.564 -0.2025 -0.8267 -2.5418
  425MOL0     H58607   5.891   5.115   0.707 -1.6951 -0.2883 -0.0534
  425MOL0     H58608   6.301   5.206   0.575  1.3497  1.1876 -1.5050
  425MOL0     H58609   6.509   5.336   0.544 -0.6813 -1.6375 -0.1987
  425MOL0     H58610   6.514   5.383   0.714 -0.3880 -0.4850 -0.3229
  425MOL0     H58611   6.500   5.506   0.595  0.7950 -0.3667  1.4538
  425MOL0     H58612   6.076   5.927   0.775 -0.2637 -0.9255 -0.4910
  425MOL0     H58613   6.109   6.169   0.875  2.0022  0.6626  1.5461
  425MOL0     H58614   6.160   6.357   0.946  1.3747  1.1890 -0.0509
  425MOL0     H58615   6.129   6.316   1.116  1.8979 -3.9989  1.9434
  425MOL0     H58616   6.328   6.444   1.184 -0.9743  0.0685  1.2834
  425MOL0     H58617   6.376   6.472   1.019 -0.4571  3.7070  0.5099
  425MOL0     H58618   6.197   6.635   0.986 -5.9022  2.7193  1.8899
  425MOL0     H58619   6.290   6.662   1.128 -1.7159  1.2236 -1.3037
  425MOL0     H58620   6.085   6.544   1.251 -1.7774 -5.8529 -3.0832
  425MOL0     H58621   6.003   6.545   1.102 -0.7483  1.0424  0.0782
  425MOL0     H58622   6.125   6.788   1.238  1.2931 -0.5128 -0.6306
  425MOL0     H58623   6.054   6.781   1.079  2.0809  0.7907  0.7508
  425MOL0     H58624   5.826   6.776   1.165 -0.2547  1.8095  1.0410
  425MOL0     H58625   5.907   6.902   1.259  4.1027  1.2920 -2.5267
  425MOL0     H58626   5.947   6.781   1.453 -0.4038  1.1871  0.7069
  425MOL0     H58627   5.906   6.623   1.364  1.5238  0.4865 -2.2543
  425MOL0     H58628   5.717   6.670   1.500 -2.4089 -1.9904 -1.0842
  425MOL0     H58629   5.658   6.729   1.340 -0.9292 -1.1436  1.3309
  425MOL0     H58630   6.440   6.020   1.096  0.1395  0.3198  0.9566
  425MOL0     H58631   6.418   5.797   1.001  0.3938  1.3599  0.4097
  425MOL0     H58632   6.038   5.562   0.784 -1.5673 -0.2639 -0.7769
  425MOL0     H58633   5.929   5.364   0.723 -0.6070 -3.1160 -2.3183
  425MOL0     H58634   5.560   5.525   1.097  1.5814  1.9060  0.2399
  425MOL0     H58635   5.578   5.760   1.076  2.1654  1.6784 -1.5269
  425MOL0     H58636   5.377   6.094   0.936  1.2494 -0.4047 -3.5678
  425MOL0     H58637   5.329   6.314   1.009  0.4899 -0.8748 -3.4019
  425MOL0     H58638   5.346   6.520   0.927  1.8894  0.9949 -1.3264
  425MOL0     H58639   5.284   6.561   1.081 -0.6047  1.0823  0.2415
  425MOL0     H58640   5.503   6.749   1.061 -0.7813  2.3024 -1.0833
  425MOL0     H58641   5.340   6.786   1.046  0.8996  1.8018 -0.9352
  425MOL0     H58642   5.373   6.682   0.789 -0.9600  1.7715 -0.8264
  425MOL0     H58643   5.412   6.846   0.823  1.3809 -0.4998 -0.7456
  425MOL0     H58644   5.560   6.683   0.700  0.4201  0.4132  0.3445
  425MOL0     H58645   5.623   6.643   0.862 -1.5416 -1.1464 -0.9224
  425MOL0     H58646   5.750   7.034   0.751 -0.6550  0.3828  1.7881
  425MOL0     H58647   5.733   6.407   1.071  1.0131 -0.3730  0.5378
  425MOL0     H58648   5.870   6.144   0.891  1.0221  3.1051 -0.6132
  425MOL0     H58649   5.896   6.274   0.995  1.8547 -1.2047 -1.9712
  425MOL0     H58650   5.883   6.113   1.068  1.2919 -0.6524 -0.9857
  426MOL0     O58651   1.978   8.031   0.897  0.1706  0.9593  0.3771
  426MOL0     C58652   1.866   8.005   0.937  0.1780  0.5465 -0.7666
  426MOL0     O58653   1.835   7.888   1.009  0.4427  0.1901  0.4488
  426MOL0     C58654   1.933   7.836   1.090 -0.1502 -1.2055 -0.4719
  426MOL0     C58655   1.984   7.919   1.190  0.1557 -0.1346  0.1254
  426MOL0     C58656   2.065   7.868   1.290 -0.3249 -0.5310  0.5456
  426MOL0     C58657   2.108   7.738   1.300  0.1441 -0.6461 -0.2342
  426MOL0     O58658   2.195   7.686   1.393 -1.5158  0.5420 -0.3649
  426MOL0     C58659   2.187   7.734   1.527 -0.1590  0.9716  0.3770
  426MOL0     C58660   2.161   7.621   1.617  0.1422  0.1351  0.2677
  426MOL0     C58661   2.020   7.573   1.620  0.2821  0.2630  0.1458
  426MOL0     C58662   1.979   7.491   1.751 -0.4597  0.2956  0.0592
  426MOL0     C58663   1.836   7.429   1.746 -0.6986  0.7398  0.3450
  426MOL0     C58664   1.718   7.524   1.750  0.0756 -0.0134  0.0064
  426MOL0     C58665   1.577   7.461   1.770 -0.7563 -0.0196  0.6657
  426MOL0     C58666   1.457   7.542   1.725 -0.1486 -0.9410  0.5683
  426MOL0     N58667   1.452   7.671   1.800 -0.2477 -0.3692  0.1338
  426MOL0     C58668   1.380   7.673   1.915 -0.1385 -0.7773 -0.4011
  426MOL0     C58669   1.419   7.792   1.968 -0.3763 -0.4143  0.0043
  426MOL0     C58670   1.388   7.842   2.097  0.3607  0.5925 -1.1287
  426MOL0     C58671   1.247   7.805   2.147 -0.6132 -0.6686  0.3882
  426MOL0     C58672   1.142   7.905   2.089  0.0594 -0.0064  0.2163
  426MOL0     C58673   1.191   8.056   2.093  0.4805  0.4784 -0.0931
  426MOL0     O58674   1.082   8.145   2.069 -0.3666 -0.2360 -0.8735
  426MOL0     C58675   0.987   8.155   2.172 -0.2280  0.2557  0.3850
  426MOL0     C58676   1.011   8.152   2.308  0.3542  0.0122 -0.2777
  426MOL0     C58677   0.927   8.197   2.405 -0.5937 -0.5314  0.4900
  426MOL0     C58678   0.985   8.188   2.546 -0.2080 -0.0519 -0.3115
  426MOL0     C58679   0.805   8.259   2.366 -0.3856 -0.3243  0.8435
  426MOL0     C58680   0.700   8.294   2.459 -0.8889  0.5858 -0.8643
  426MOL0     O58681   0.719   8.254   2.592  0.7344 -0.2109 -0.6424
  426MOL0     C58682   0.633   8.303   2.685 -0.7417  0.2995 -0.1264
  426MOL0     C58683   0.525   8.220   2.715  0.1508 -0.5809 -0.2501
  426MOL0     C58684   0.430   8.275   2.807  0.0263  0.7522  0.2266
  426MOL0     C58685   0.443   8.408   2.850 -0.3198 -0.2280  1.0091
  426MOL0     O58686   0.336   8.466   2.914 -0.2376 -0.0524 -0.0157
  426MOL0     C58687   0.347   8.574   3.009 -0.3045 -0.5082 -0.5903
  426MOL0     C58688   0.225   8.596   3.100 -0.9057 -0.0996  0.9386
  426MOL0     C58689   0.259   8.693   3.211 -0.5241  0.5734 -0.0503
  426MOL0     C58690   0.151   8.709   3.322 -0.5547 -0.1753 -0.1716
  426MOL0     C58691   0.106   8.589   3.414  0.1144 -0.2701  0.1849
  426MOL0     C58692  -0.026   8.614   3.486  0.2149 -0.7165  1.4994
  426MOL0     C58693  -0.067   8.484   3.544  0.1884 -0.2580 -0.5452
  426MOL0     C58694   0.001   8.448   3.672  0.0609  0.0084  0.1057
  426MOL0    Cl58695  -0.030   8.567   3.787  0.3442  0.2777  0.4227
  426MOL0     C58696   0.558   8.487   2.819  0.5254  0.1199 -0.7729
  426MOL0     C58697   0.661   8.431   2.735  0.5183 -0.4599 -0.2335
  426MOL0     O58698   0.625   8.380   2.424 -0.7107  0.0067 -0.8068
  426MOL0     C58699   0.769   8.253   2.226  0.4479  0.4950  0.2542
  426MOL0     C58700   0.858   8.208   2.134 -0.4601  0.4812 -1.0017
  426MOL0     N58701   1.508   7.865   1.886  0.5865  0.3844 -0.4455
  426MOL0     N58702   1.530   7.789   1.781  0.0575  0.1906  0.4220
  426MOL0     C58703   2.066   7.656   1.197  1.5779 -0.3365 -0.1051
  426MOL0     C58704   1.977   7.707   1.096  0.5369  1.1134 -0.0618
  426MOL0     C58705   1.748   8.106   0.916 -0.5938 -0.1648  0.5609
  426MOL0     C58706   1.626   8.066   0.966 -0.6873  0.7264  0.4723
  426MOL0     C58707   1.516   8.148   0.954 -0.0187 -1.3313 -0.9871
  426MOL0     C58708   1.521   8.270   0.895  0.3588  0.5129  0.9176
  426MOL0     O58709   1.412   8.355   0.884 -0.3968  0.4438  0.4893
  426MOL0     C58710   1.364   8.351   0.748 -0.2334  0.0460 -0.6120
  426MOL0     C58711   1.219   8.399   0.729  0.3336  0.1174  0.2803
  426MOL0     C58712   1.132   8.324   0.825  0.4704 -1.0575  0.6614
  426MOL0     C58713   0.986   8.365   0.795 -0.5051 -0.4046  0.7969
  426MOL0     C58714   0.907   8.278   0.704  0.7309 -0.3289 -0.1808
  426MOL0     C58715   0.831   8.204   0.643  0.2829  0.1693 -0.4745
  426MOL0     C58716   1.635   8.309   0.835 -0.1055 -0.9370  0.7909
  426MOL0     C58717   1.748   8.233   0.840 -1.0956  0.4940 -0.5055
  426MOL0     C58718   1.868   8.287   0.771  0.0791 -0.5622 -0.2893
  426MOL0     H58719   1.937   8.017   1.187 -1.2745 -0.7351  1.5379
  426MOL0     H58720   2.108   7.941   1.358 -0.2049  0.3314 -0.4454
  426MOL0     H58721   2.103   7.803   1.541 -3.1636 -2.5360  1.2070
  426MOL0     H58722   2.272   7.802   1.540 -0.2027  1.4017 -1.3299
  426MOL0     H58723   2.234   7.541   1.601  0.0687  0.2282 -0.5997
  426MOL0     H58724   2.189   7.653   1.718 -0.1146 -0.8833  0.6809
  426MOL0     H58725   1.961   7.665   1.614  0.8715  0.8206  2.0553
  426MOL0     H58726   1.979   7.514   1.537  0.5914  1.1477 -0.6453
  426MOL0     H58727   2.042   7.402   1.764 -0.1878  0.1786 -1.7375
  426MOL0     H58728   1.992   7.551   1.841  0.2787 -1.2544  1.0243
  426MOL0     H58729   1.822   7.362   1.832  0.6155  0.4747  0.3848
  426MOL0     H58730   1.836   7.372   1.653 -0.5109  1.0606  0.1470
  426MOL0     H58731   1.741   7.601   1.824  2.4251 -0.3079 -0.3269
  426MOL0     H58732   1.719   7.566   1.649  0.2647  1.2384  0.5124
  426MOL0     H58733   1.581   7.439   1.877  2.9685 -0.7782  0.5044
  426MOL0     H58734   1.568   7.363   1.723  0.1656  0.5552 -0.7558
  426MOL0     H58735   1.460   7.561   1.617  2.7601 -2.2799  0.3226
  426MOL0     H58736   1.368   7.481   1.745  1.2311 -2.6305  1.8277
  426MOL0     H58737   1.300   7.615   1.959 -0.6940 -0.0585 -0.4393
  426MOL0     H58738   1.410   7.949   2.084 -0.4183  0.4978 -3.7595
  426MOL0     H58739   1.463   7.811   2.169 -1.2507  0.2577  0.4854
  426MOL0     H58740   1.225   7.700   2.128 -1.5794 -0.5365  0.6973
  426MOL0     H58741   1.236   7.799   2.256 -0.6665 -1.4546  0.3444
  426MOL0     H58742   1.117   7.874   1.987  1.2839 -2.5606  0.6026
  426MOL0     H58743   1.052   7.883   2.147 -0.2124 -1.6160 -0.7367
  426MOL0     H58744   1.252   8.077   2.182 -0.1302  0.5918  0.3038
  426MOL0     H58745   1.270   8.080   2.020  1.0166 -2.1895 -0.4865
  426MOL0     H58746   1.111   8.128   2.343  0.2139  0.8094  0.7343
  426MOL0     H58747   0.950   8.278   2.597 -0.3080 -0.1417 -0.2208
  426MOL0     H58748   1.094   8.194   2.550  0.1833 -3.4413 -2.1434
  426MOL0     H58749   0.939   8.099   2.591 -1.9909  1.8213  1.8414
  426MOL0     H58750   0.513   8.120   2.675 -1.5786 -0.1373 -0.8902
  426MOL0     H58751   0.341   8.214   2.816  1.4062 -1.0996  2.6473
  426MOL0     H58752   0.428   8.538   3.073  0.1700 -0.5372 -1.1971
  426MOL0     H58753   0.379   8.671   2.969  1.9669 -0.3929  1.2997
  426MOL0     H58754   0.155   8.657   3.042  1.4631  1.4789 -0.3753
  426MOL0     H58755   0.181   8.499   3.128 -1.6746 -0.8247 -2.4188
  426MOL0     H58756   0.288   8.791   3.172  1.1893  0.0362 -0.2339
  426MOL0     H58757   0.349   8.642   3.247  1.3356  1.6025 -2.9424
  426MOL0     H58758   0.060   8.739   3.269  1.1667  1.5632 -2.3655
  426MOL0     H58759   0.182   8.791   3.387 -2.7652 -0.0131  0.7455
  426MOL0     H58760   0.096   8.504   3.345 -0.2634 -1.9822  2.2385
  426MOL0     H58761   0.195   8.558   3.470  0.2617 -0.9358 -0.4021
  426MOL0     H58762  -0.092   8.666   3.416  1.3609  1.5752  2.0169
  426MOL0     H58763  -0.023   8.699   3.556  4.4689  1.5665 -1.0249
  426MOL0     H58764  -0.047   8.402   3.475 -0.0562 -0.1239 -0.7787
  426MOL0     H58765  -0.174   8.484   3.569 -0.1926  0.8015 -1.9927
  426MOL0     H58766   0.108   8.439   3.651 -0.3549  0.1162 -2.3083
  426MOL0     H58767  -0.036   8.352   3.709 -0.4483  0.2753  0.3022
  426MOL0     H58768   0.560   8.591   2.849  0.7828  0.6640 -2.5647
  426MOL0     H58769   0.749   8.479   2.694 -0.6993  0.7516 -1.5529
  426MOL0     H58770   0.667   8.276   2.199  1.0239  2.5633 -0.3447
  426MOL0     H58771   0.838   8.226   2.028  2.9289  0.5358 -1.7493
  426MOL0     H58772   2.087   7.550   1.210  1.1279 -0.2485  1.5420
  426MOL0     H58773   1.945   7.630   1.027  0.4884 -1.1039  2.2706
  426MOL0     H58774   1.616   7.967   1.010 -1.4772 -0.0586 -1.4011
  426MOL0     H58775   1.419   8.112   0.989 -1.7453  1.9919 -1.9694
  426MOL0     H58776   1.418   8.421   0.684 -1.6194  1.2942 -0.4852
  426MOL0     H58777   1.385   8.254   0.702 -1.0479  0.5187 -2.0826
  426MOL0     H58778   1.202   8.390   0.622  1.9793 -1.4659  0.1047
  426MOL0     H58779   1.223   8.507   0.746 -1.8256  0.4173 -0.7440
  426MOL0     H58780   1.151   8.217   0.812 -0.1333 -0.9058 -2.0570
  426MOL0     H58781   1.165   8.355   0.925  0.7088  3.6678 -0.6148
  426MOL0     H58782   0.979   8.467   0.757 -0.7941 -0.9746 -0.7690
  426MOL0     H58783   0.940   8.372   0.894  1.5924 -0.4734  1.8283
  426MOL0     H58784   0.788   8.114   0.604 -0.7522 -0.6786  2.3845
  426MOL0     H58785   1.634   8.411   0.796 -0.9780 -1.5967 -1.0273
  426MOL0     H58786   1.873   8.251   0.667 -2.5614  0.4558 -0.8586
  426MOL0     H58787   1.868   8.396   0.767  0.0173 -0.5162  0.8342
  426MOL0     H58788   1.951   8.257   0.835  0.3315  1.3701  0.3588
  427MOL0     O58789   9.332   8.930   8.548  0.2365 -0.2890  0.1200
  427MOL0     C58790   9.388   8.974   8.651  0.4257  0.2325 -1.1241
  427MOL0     O58791   9.476   8.911   8.739 -0.0674 -0.1832  0.5715
  427MOL0     C58792   9.495   8.779   8.705 -0.5816 -0.1623  0.7295
  427MOL0     C58793   9.424   8.679   8.761  0.5713  0.3049 -0.4300
  427MOL0     C58794   9.440   8.547   8.722  0.7692 -0.3012  0.1007
  427MOL0     C58795   9.532   8.513   8.619  1.3481  0.0957 -1.5302
  427MOL0     O58796   9.555   8.391   8.563  0.0669  0.6285  0.2525
  427MOL0     C58797   9.439   8.335   8.494  0.2162  0.3038  0.3035
  427MOL0     C58798   9.386   8.208   8.557 -0.1299  0.9620 -0.0271
  427MOL0     C58799   9.482   8.087   8.538 -0.9050  0.6563  0.2691
  427MOL0     C58800   9.434   7.979   8.642  0.1545  0.0040  0.2623
  427MOL0     C58801   9.527   7.853   8.627 -0.7137 -0.6327 -0.3987
  427MOL0     C58802   9.497   7.753   8.731 -0.1372  0.5932 -0.5282
  427MOL0     C58803   9.595   7.630   8.734  0.4823  0.3740 -0.6528
  427MOL0     C58804   9.548   7.515   8.826  0.1174 -0.3493 -0.5265
  427MOL0     N58805   9.428   7.450   8.775 -0.1240 -0.2132 -0.4769
  427MOL0     C58806   9.300   7.458   8.822 -0.4865 -0.5709  0.7478
  427MOL0     C58807   9.226   7.359   8.766 -0.4469 -0.1337 -0.4123
  427MOL0     C58808   9.076   7.339   8.749 -0.3075  0.9195  0.2488
  427MOL0     C58809   9.008   7.442   8.655  0.8183 -0.1338 -0.4768
  427MOL0     C58810   9.009   7.404   8.508  0.6449 -0.8473  0.6798
  427MOL0     C58811   8.900   7.458   8.412 -0.9673 -0.3405 -0.5337
  427MOL0     O58812   8.772   7.408   8.458  0.3985 -0.5873 -0.4371
  427MOL0     C58813   8.659   7.441   8.391 -0.4780  0.8466 -1.8281
  427MOL0     C58814   8.558   7.351   8.423  0.1323 -0.8662  0.1273
  427MOL0     C58815   8.445   7.367   8.339  0.7738 -0.0160  0.0363
  427MOL0     C58816   8.333   7.268   8.359  0.6862 -0.0162 -0.0655
  427MOL0     C58817   8.427   7.476   8.239  0.2731 -0.2827  0.0292
  427MOL0     C58818   8.307   7.507   8.172 -0.3908  0.0955  0.2008
  427MOL0     O58819   8.193   7.444   8.210  0.2524 -0.3686  0.5677
  427MOL0     C58820   8.093   7.439   8.114 -0.2027  0.1506  1.0143
  427MOL0     C58821   8.030   7.560   8.074  0.5716 -0.7509  0.2734
  427MOL0     C58822   7.926   7.545   7.979 -0.7013 -0.7561  0.4143
  427MOL0     C58823   7.883   7.429   7.926 -0.8753  0.9519 -0.3222
  427MOL0     O58824   7.773   7.428   7.852 -0.2412  0.2007 -0.2118
  427MOL0     C58825   7.768   7.336   7.743 -0.4926  1.0026  0.1642
  427MOL0     C58826   7.709   7.390   7.610  0.4668 -0.1110 -0.5354
  427MOL0     C58827   7.682   7.274   7.517  0.1774  0.6029  0.4207
  427MOL0     C58828   7.785   7.161   7.511 -0.6383 -0.6908 -0.1463
  427MOL0     C58829   7.738   7.041   7.422 -0.0483  0.1877 -0.2596
  427MOL0     C58830   7.691   7.074   7.285 -0.4946 -0.2921 -0.6482
  427MOL0     C58831   7.647   6.949   7.210 -0.2322  0.5335  0.7844
  427MOL0     C58832   7.498   6.915   7.237 -0.7965  0.0504 -0.2888
  427MOL0    Cl58833   7.441   6.801   7.121  0.2910 -0.3888  0.4233
  427MOL0     C58834   7.953   7.306   7.965 -0.4623 -0.3489 -0.5137
  427MOL0     C58835   8.057   7.313   8.053  0.3034  0.2214 -0.2961
  427MOL0     O58836   8.318   7.611   8.099 -0.3014 -0.0249  0.0715
  427MOL0     C58837   8.537   7.567   8.226  0.4387 -0.1048 -0.3093
  427MOL0     C58838   8.654   7.548   8.303  0.1278 -1.0828 -0.8642
  427MOL0     N58839   9.315   7.285   8.679  0.1580 -0.0479 -0.1265
  427MOL0     N58840   9.431   7.346   8.689 -0.0579  0.1786 -0.2224
  427MOL0     C58841   9.595   8.615   8.552 -1.0701 -0.0191 -0.6864
  427MOL0     C58842   9.568   8.751   8.591  0.7311 -0.0388  0.8074
  427MOL0     C58843   9.352   9.108   8.673  0.7072  0.7395  0.2416
  427MOL0     C58844   9.274   9.146   8.786 -0.5386 -0.2860 -0.0742
  427MOL0     C58845   9.245   9.276   8.806  0.3155 -0.9457  0.6542
  427MOL0     C58846   9.272   9.384   8.716 -0.1324  0.0913  0.5444
  427MOL0     O58847   9.233   9.512   8.723  0.1456  0.6013  0.0610
  427MOL0     C58848   9.087   9.523   8.764 -0.9000  0.8334  0.3077
  427MOL0     C58849   8.992   9.474   8.646  0.9917 -0.2929 -0.1698
  427MOL0     C58850   8.842   9.490   8.688  0.2693  0.6789  0.1433
  427MOL0     C58851   8.786   9.629   8.736  1.0246 -0.0576 -0.0581
  427MOL0     C58852   8.843   9.741   8.658  0.9450  0.6210  0.5316
  427MOL0     C58853   8.878   9.829   8.588  0.2436 -0.2329  0.1703
  427MOL0     C58854   9.344   9.342   8.602  0.2568  0.1675 -0.5228
  427MOL0     C58855   9.388   9.207   8.578 -1.0068  0.7966 -0.7180
  427MOL0     C58856   9.473   9.189   8.455  0.4052 -0.7793 -0.9914
  427MOL0     H58857   9.345   8.692   8.835  0.5411 -0.7930 -0.2593
  427MOL0     H58858   9.376   8.463   8.747 -0.1147 -0.0766 -1.3173
  427MOL0     H58859   9.476   8.310   8.394  3.3865  0.0476  1.3962
  427MOL0     H58860   9.359   8.408   8.487  1.7217  1.9355 -0.9056
  427MOL0     H58861   9.369   8.233   8.662 -0.9009 -0.6621  0.2695
  427MOL0     H58862   9.292   8.176   8.511  0.5230 -1.1912  0.0368
  427MOL0     H58863   9.485   8.057   8.433  2.3184 -0.9742  0.7021
  427MOL0     H58864   9.585   8.116   8.560 -0.1720 -0.5596 -1.4101
  427MOL0     H58865   9.427   8.012   8.746 -0.9396  2.2493 -0.4653
  427MOL0     H58866   9.333   7.954   8.609  0.4903  0.6730 -1.3793
  427MOL0     H58867   9.636   7.863   8.627 -0.7822  0.1788 -0.3891
  427MOL0     H58868   9.500   7.818   8.527 -1.7104  0.3195 -0.4819
  427MOL0     H58869   9.504   7.804   8.827  0.2416  3.2768 -1.8826
  427MOL0     H58870   9.393   7.727   8.709 -1.1927  3.4039  0.6166
  427MOL0     H58871   9.694   7.657   8.771  0.0418  0.9570  0.1392
  427MOL0     H58872   9.601   7.599   8.629 -2.7867 -0.5748 -0.6842
  427MOL0     H58873   9.628   7.442   8.842  1.0192  1.0631  2.1077
  427MOL0     H58874   9.538   7.565   8.923  2.9984  3.3567 -1.8826
  427MOL0     H58875   9.259   7.537   8.884  0.7123  2.5207 -2.0652
  427MOL0     H58876   9.036   7.351   8.850  2.0422  2.4328  1.0901
  427MOL0     H58877   9.069   7.239   8.706 -0.8981  0.9119  0.3595
  427MOL0     H58878   8.904   7.447   8.689  0.0943 -1.1933 -2.3797
  427MOL0     H58879   9.059   7.538   8.670  0.8450 -0.1191 -0.6601
  427MOL0     H58880   9.107   7.422   8.461 -0.7560  2.0605 -1.4385
  427MOL0     H58881   9.000   7.297   8.488  2.7580 -0.8198 -0.7154
  427MOL0     H58882   8.912   7.566   8.418 -0.6343 -0.0909 -3.7564
  427MOL0     H58883   8.924   7.425   8.310 -1.1459  2.5350 -1.5867
  427MOL0     H58884   8.582   7.266   8.486  0.3149 -2.2334 -1.6882
  427MOL0     H58885   8.369   7.187   8.423  0.3758  1.1637  1.6895
  427MOL0     H58886   8.291   7.222   8.269  1.5562 -2.6716  0.7748
  427MOL0     H58887   8.258   7.313   8.425 -0.3529 -3.5999  1.4410
  427MOL0     H58888   8.048   7.654   8.125 -1.4795 -0.3183  0.2759
  427MOL0     H58889   7.873   7.638   7.962  3.4715  1.5760 -1.4337
  427MOL0     H58890   7.866   7.299   7.713  0.7461  3.3521  1.0600
  427MOL0     H58891   7.710   7.248   7.773 -1.6103  1.8160  0.4817
  427MOL0     H58892   7.615   7.442   7.630  0.9597  1.5194 -2.1760
  427MOL0     H58893   7.781   7.456   7.559  0.1030 -0.1565 -1.1161
  427MOL0     H58894   7.683   7.317   7.416 -0.1582  1.2290  0.6775
  427MOL0     H58895   7.580   7.235   7.521  0.3996 -0.3956 -1.9745
  427MOL0     H58896   7.797   7.117   7.610 -2.6163  0.2929  0.5748
  427MOL0     H58897   7.886   7.193   7.483  0.0761 -1.0455  1.8727
  427MOL0     H58898   7.816   6.965   7.417  1.3258  1.2839  2.5853
  427MOL0     H58899   7.657   6.987   7.471  1.0670 -1.0857  0.2425
  427MOL0     H58900   7.767   7.127   7.228 -0.0618 -0.0498  0.1476
  427MOL0     H58901   7.608   7.144   7.294 -0.5208 -0.2694 -1.0561
  427MOL0     H58902   7.720   6.869   7.216  0.3219  1.0167  0.5499
  427MOL0     H58903   7.639   6.973   7.104 -0.0847 -0.0107  0.6496
  427MOL0     H58904   7.435   7.002   7.215 -2.2920 -1.7010 -3.5670
  427MOL0     H58905   7.501   6.884   7.342  1.7606  0.4309 -0.2030
  427MOL0     H58906   7.934   7.203   7.937  4.8820 -2.8462  3.3975
  427MOL0     H58907   8.104   7.218   8.076 -0.9364 -0.8494 -2.0087
  427MOL0     H58908   8.546   7.654   8.162 -1.7199  1.1463  0.9742
  427MOL0     H58909   8.734   7.618   8.284  0.4520 -0.5555  1.9559
  427MOL0     H58910   9.671   8.593   8.478  2.8940  0.9310  2.6980
  427MOL0     H58911   9.624   8.836   8.553  0.5938  1.2277  3.2298
  427MOL0     H58912   9.232   9.076   8.859  1.6496 -1.1338  0.4625
  427MOL0     H58913   9.197   9.311   8.897 -0.6525  2.2644 -0.9308
  427MOL0     H58914   9.046   9.476   8.854 -0.9965  0.4698  0.0802
  427MOL0     H58915   9.080   9.631   8.778 -0.7232  1.3986 -3.0548
  427MOL0     H58916   9.003   9.366   8.633 -0.1711 -0.5436  0.7958
  427MOL0     H58917   9.014   9.520   8.549  1.7343  0.7951  0.4967
  427MOL0     H58918   8.785   9.444   8.606  0.1900 -0.7570  0.9787
  427MOL0     H58919   8.824   9.421   8.771 -0.0082  0.2276 -0.2856
  427MOL0     H58920   8.801   9.650   8.842  4.6211 -1.1712 -0.2337
  427MOL0     H58921   8.679   9.624   8.716  1.4940 -1.3037 -2.6158
  427MOL0     H58922   8.914   9.899   8.515  0.9138 -1.4321 -0.6660
  427MOL0     H58923   9.375   9.421   8.534 -0.5045  0.4304 -0.5677
  427MOL0     H58924   9.502   9.085   8.433  0.3999 -0.4322 -2.8152
  427MOL0     H58925   9.425   9.233   8.367  1.9275  2.4633 -0.3249
  427MOL0     H58926   9.563   9.249   8.468 -0.1313  0.8032 -3.8062
  428MOL0     O58927   0.239   7.988   0.115 -0.2744 -0.4327  1.2350
  428MOL0     C58928   0.234   7.895   0.189 -0.3384  0.5001  0.5097
  428MOL0     O58929   0.135   7.791   0.170 -1.0011  0.7624 -0.4836
  428MOL0     C58930   0.043   7.788   0.074 -1.2227  0.6774  0.2915
  428MOL0     C58931  -0.016   7.897   0.015  0.1412 -0.4649  0.1441
  428MOL0     C58932  -0.121   7.885  -0.076  0.1348  0.6420  0.2465
  428MOL0     C58933  -0.174   7.763  -0.113 -0.4728  1.2885  0.6621
  428MOL0     O58934  -0.289   7.745  -0.190 -0.9325 -0.4795 -0.3101
  428MOL0     C58935  -0.337   7.849  -0.261  0.3196 -0.5217 -0.2538
  428MOL0     C58936  -0.457   7.779  -0.337 -0.5925 -0.0008 -0.6806
  428MOL0     C58937  -0.549   7.880  -0.401  0.5797 -0.8188 -0.6727
  428MOL0     C58938  -0.478   7.942  -0.523 -0.1582 -0.0020  0.4888
  428MOL0     C58939  -0.583   8.021  -0.603 -0.1409  0.5444  0.0341
  428MOL0     C58940  -0.699   7.949  -0.667 -0.1052  0.1756  0.1538
  428MOL0     C58941  -0.794   8.064  -0.706  0.6941  0.2972  0.4576
  428MOL0     C58942  -0.853   8.140  -0.592  0.0613  0.1669  0.0772
  428MOL0     N58943  -0.975   8.212  -0.625 -0.1346 -0.1696 -0.5389
  428MOL0     C58944  -0.985   8.349  -0.646 -1.0651 -0.7825  0.4447
  428MOL0     C58945  -1.114   8.372  -0.669 -0.0411 -0.3967  0.4061
  428MOL0     C58946  -1.161   8.510  -0.671  0.1621  0.4494 -0.4290
  428MOL0     C58947  -1.169   8.574  -0.524  0.1056 -0.1385  0.8035
  428MOL0     C58948  -1.309   8.538  -0.468  0.0444 -0.3720 -0.2664
  428MOL0     C58949  -1.333   8.599  -0.331  0.3239 -0.6010 -0.0151
  428MOL0     O58950  -1.327   8.749  -0.327  0.0881  0.5341  0.0396
  428MOL0     C58951  -1.416   8.821  -0.247  1.0902 -0.0990  0.6892
  428MOL0     C58952  -1.446   8.952  -0.274  1.1249  0.3380  1.4704
  428MOL0     C58953  -1.531   9.040  -0.205  0.8178  0.5426 -1.0897
  428MOL0     C58954  -1.536   9.174  -0.250 -1.0158  0.7371  0.3690
  428MOL0     C58955  -1.597   8.987  -0.095  0.4081  0.1682  0.0161
  428MOL0     C58956  -1.679   9.074   0.001 -0.1358 -0.3776 -0.6659
  428MOL0     O58957  -1.788   9.019   0.058  0.2685  0.3240 -0.5551
  428MOL0     C58958  -1.863   9.067   0.164 -0.2800  0.3891  0.0929
  428MOL0     C58959  -1.895   9.208   0.179  0.6125 -0.4244  0.7288
  428MOL0     C58960  -1.968   9.252   0.297  0.6796 -0.3218  1.1959
  428MOL0     C58961  -2.007   9.159   0.398  0.2320 -0.5729  0.3634
  428MOL0     O58962  -2.084   9.191   0.501 -0.2951 -0.8657  0.4273
  428MOL0     C58963  -2.216   9.188   0.467  0.8283 -0.2232 -0.0690
  428MOL0     C58964  -2.283   9.086   0.559 -0.6306  0.0942  0.6994
  428MOL0     C58965  -2.285   9.137   0.706  0.6498  0.2767  0.9925
  428MOL0     C58966  -2.416   9.091   0.770  0.5825  0.3112 -0.8859
  428MOL0     C58967  -2.427   9.106   0.928 -0.3243 -0.6002  0.2152
  428MOL0     C58968  -2.573   9.089   0.972 -0.5419  0.4700 -0.3687
  428MOL0     C58969  -2.589   9.130   1.124  0.3853  0.3024  0.1216
  428MOL0     C58970  -2.729   9.090   1.180 -0.7945  0.8432  0.1597
  428MOL0    Cl58971  -2.852   9.198   1.104  0.3093  0.0164  0.2638
  428MOL0     C58972  -1.965   9.023   0.383  0.2856 -0.6409  0.0057
  428MOL0     C58973  -1.906   8.978   0.267 -0.9473 -0.4696 -0.0529
  428MOL0     O58974  -1.645   9.192   0.021  0.1721 -0.0457 -0.4482
  428MOL0     C58975  -1.573   8.849  -0.064 -0.2018  0.2247 -0.1141
  428MOL0     C58976  -1.490   8.770  -0.142 -0.1757 -0.4063 -0.0728
  428MOL0     N58977  -1.175   8.249  -0.676 -0.6865  0.0679 -0.3227
  428MOL0     N58978  -1.088   8.159  -0.665  0.0604  0.0746 -0.1925
  428MOL0     C58979  -0.111   7.643  -0.057  0.7623 -0.3289 -0.4720
  428MOL0     C58980   0.002   7.659   0.028 -0.0726  0.5496  0.6189
  428MOL0     C58981   0.339   7.883   0.285  0.9707 -0.3979 -1.0602
  428MOL0     C58982   0.385   7.752   0.334 -0.4974 -0.8481  0.8805
  428MOL0     C58983   0.484   7.736   0.430  0.4118 -0.1716  0.9014
  428MOL0     C58984   0.554   7.851   0.471 -0.1571 -0.0476 -1.1388
  428MOL0     O58985   0.654   7.863   0.562 -0.1421  0.4802 -0.2138
  428MOL0     C58986   0.692   7.759   0.650  1.3987  0.4934  0.3853
  428MOL0     C58987   0.834   7.793   0.690 -0.4292 -0.4803  0.6923
  428MOL0     C58988   0.952   7.790   0.593 -0.3681 -0.2243  0.2036
  428MOL0     C58989   1.097   7.821   0.651  1.2337  0.2327  0.0596
  428MOL0     C58990   1.173   7.707   0.704 -0.1431 -0.5128 -0.5252
  428MOL0     C58991   1.233   7.609   0.743  0.1627  0.6660 -0.2794
  428MOL0     C58992   0.525   7.982   0.427 -0.1042  1.3220  0.2341
  428MOL0     C58993   0.412   7.999   0.341  0.0486 -0.1721 -0.9205
  428MOL0     C58994   0.386   8.148   0.320 -0.7388 -0.6538 -0.5986
  428MOL0     H58995   0.022   7.996   0.040 -1.2873 -0.1971  1.3893
  428MOL0     H58996  -0.156   7.975  -0.125 -2.5372  0.8595  2.3389
  428MOL0     H58997  -0.260   7.868  -0.336 -2.1627  1.1301 -2.6147
  428MOL0     H58998  -0.352   7.938  -0.199 -0.5099 -1.2354  0.5841
  428MOL0     H58999  -0.410   7.722  -0.418 -0.9323 -1.7236  0.2794
  428MOL0     H59000  -0.516   7.706  -0.281 -2.1217  2.7534  1.5659
  428MOL0     H59001  -0.636   7.818  -0.425 -0.9096  1.2141 -0.7410
  428MOL0     H59002  -0.587   7.952  -0.329 -2.2919 -0.2706 -2.5551
  428MOL0     H59003  -0.401   8.010  -0.485 -0.9934  0.6982  0.9586
  428MOL0     H59004  -0.436   7.865  -0.589  4.9885  1.9767  1.0496
  428MOL0     H59005  -0.529   8.063  -0.688 -1.3649  1.7138 -0.1914
  428MOL0     H59006  -0.614   8.106  -0.542 -2.1126 -0.4634  0.5196
  428MOL0     H59007  -0.663   7.890  -0.752  4.0216  1.6593  0.6411
  428MOL0     H59008  -0.754   7.877  -0.606  0.7225  0.2981  1.0610
  428MOL0     H59009  -0.881   8.032  -0.763  2.0906  2.5668 -3.2517
  428MOL0     H59010  -0.742   8.127  -0.778 -2.0379  0.5744 -1.4273
  428MOL0     H59011  -0.893   8.071  -0.517  2.5172 -2.3355 -0.7475
  428MOL0     H59012  -0.779   8.201  -0.540  0.8392 -2.4899  2.2883
  428MOL0     H59013  -0.905   8.421  -0.640 -1.4412 -0.3223 -0.0137
  428MOL0     H59014  -1.264   8.518  -0.708 -0.3997 -2.1232  0.4107
  428MOL0     H59015  -1.094   8.563  -0.740  0.0148  0.0680 -0.8704
  428MOL0     H59016  -1.089   8.537  -0.460 -0.2480  0.4547  1.6057
  428MOL0     H59017  -1.150   8.681  -0.534  0.4888 -0.1786  1.0958
  428MOL0     H59018  -1.379   8.571  -0.546  2.5952  0.7387 -2.2203
  428MOL0     H59019  -1.320   8.429  -0.464  1.4376 -0.4997  0.7064
  428MOL0     H59020  -1.430   8.564  -0.295 -1.3261  2.3721 -1.2039
  428MOL0     H59021  -1.259   8.560  -0.260 -1.0929 -3.3902  0.0463
  428MOL0     H59022  -1.394   8.983  -0.363 -1.5522 -0.5739 -0.5448
  428MOL0     H59023  -1.497   9.246  -0.177  0.6501 -0.2906  0.5529
  428MOL0     H59024  -1.641   9.187  -0.277 -0.8456 -3.6212 -3.7307
  428MOL0     H59025  -1.478   9.182  -0.342  1.0816 -1.3627  1.4162
  428MOL0     H59026  -1.867   9.263   0.090  0.5357  1.5446  1.8602
  428MOL0     H59027  -2.007   9.353   0.303  2.6545  0.4771  1.0998
  428MOL0     H59028  -2.262   9.286   0.479 -2.4312 -1.2795 -2.4771
  428MOL0     H59029  -2.225   9.165   0.360  1.6251  0.0008 -0.1966
  428MOL0     H59030  -2.385   9.066   0.525  0.1915  0.0015 -1.9501
  428MOL0     H59031  -2.238   8.987   0.546 -0.6213  0.4035 -2.5095
  428MOL0     H59032  -2.275   9.246   0.703  2.4458  0.1199 -1.2878
  428MOL0     H59033  -2.206   9.097   0.769  0.0158  1.3979  2.5595
  428MOL0     H59034  -2.420   8.985   0.746 -0.1736 -0.5281  2.4335
  428MOL0     H59035  -2.499   9.141   0.720 -0.7947 -0.5614  0.4217
  428MOL0     H59036  -2.364   9.027   0.969  0.3861 -1.2170 -1.9252
  428MOL0     H59037  -2.383   9.204   0.948  1.6876 -0.7924 -2.6024
  428MOL0     H59038  -2.592   8.981   0.962  0.7393  0.2819 -1.0414
  428MOL0     H59039  -2.642   9.141   0.906 -0.5760 -3.1569 -3.5677
  428MOL0     H59040  -2.560   9.235   1.140 -0.2043  0.9225 -2.3544
  428MOL0     H59041  -2.513   9.064   1.167  0.7636  0.4744 -0.2722
  428MOL0     H59042  -2.737   9.112   1.287  0.5570  1.8103  0.0863
  428MOL0     H59043  -2.751   8.983   1.167  2.7926  0.3202 -3.5149
  428MOL0     H59044  -1.994   8.946   0.454  2.0812 -1.2346  0.1427
  428MOL0     H59045  -1.877   8.875   0.252  1.7048 -0.0770  1.6127
  428MOL0     H59046  -1.620   8.803   0.023 -2.0329  1.7880 -0.2111
  428MOL0     H59047  -1.493   8.671  -0.099  0.9244 -0.0661  0.8614
  428MOL0     H59048  -0.141   7.543  -0.084 -1.4298 -0.2219  1.3172
  428MOL0     H59049   0.054   7.569   0.060  1.1060  0.1038 -2.2525
  428MOL0     H59050   0.338   7.666   0.287  0.5383 -1.0035  0.1014
  428MOL0     H59051   0.505   7.642   0.480 -0.3706 -1.8330 -1.6514
  428MOL0     H59052   0.621   7.770   0.732 -1.2720 -1.2288 -1.5207
  428MOL0     H59053   0.675   7.653   0.628 -2.4727  0.7031  1.5690
  428MOL0     H59054   0.861   7.722   0.768 -0.8452 -0.4550  0.8634
  428MOL0     H59055   0.831   7.887   0.745 -0.9226 -0.3263  0.4120
  428MOL0     H59056   0.965   7.684   0.568  0.9387 -0.0805  0.1945
  428MOL0     H59057   0.936   7.853   0.505 -0.8688  3.0573  2.4645
  428MOL0     H59058   1.099   7.895   0.732 -0.7692 -1.0344  1.3395
  428MOL0     H59059   1.141   7.868   0.563  0.8326  0.9158  0.2119
  428MOL0     H59060   1.280   7.517   0.771 -3.2360 -1.4628 -0.9770
  428MOL0     H59061   0.584   8.068   0.455  0.4485  1.2661 -0.7336
  428MOL0     H59062   0.419   8.214   0.401 -3.0378  1.3777 -1.2021
  428MOL0     H59063   0.443   8.172   0.230 -0.3634 -2.3910 -0.8526
  428MOL0     H59064   0.283   8.182   0.310 -0.0282  2.1413  0.3888
  429MOL0     O59065   8.005   0.083   8.901 -0.2037 -0.0436 -0.1020
  429MOL0     C59066   8.039   0.022   8.801 -1.2063  0.5182  0.8342
  429MOL0     O59067   7.971  -0.080   8.736 -0.4889 -0.4661 -0.6774
  429MOL0     C59068   7.838  -0.081   8.757  0.1232  0.4140 -0.6097
  429MOL0     C59069   7.782  -0.147   8.867  0.2261  0.0371 -0.3788
  429MOL0     C59070   7.639  -0.145   8.887  0.5197  0.4937 -0.0913
  429MOL0     C59071   7.557  -0.078   8.792 -0.2786  0.2466 -0.7235
  429MOL0     O59072   7.422  -0.075   8.807  0.0523 -0.8639 -0.3095
  429MOL0     C59073   7.364   0.029   8.887 -0.3748  0.3556 -0.6435
  429MOL0     C59074   7.221   0.053   8.842  1.1645 -0.1915  1.1971
  429MOL0     C59075   7.214   0.071   8.693  0.5587 -0.4907  0.8323
  429MOL0     C59076   7.086   0.127   8.648  1.6630 -0.1324  0.3253
  429MOL0     C59077   7.066   0.108   8.493  0.1599 -0.8759  0.0850
  429MOL0     C59078   7.187   0.150   8.409 -0.0228  0.0051 -0.9433
  429MOL0     C59079   7.189   0.291   8.368  0.0167 -0.5568  1.3042
  429MOL0     C59080   7.321   0.331   8.282  0.6039  0.8593 -0.0028
  429MOL0     N59081   7.441   0.340   8.363  0.0713  0.4597  1.3562
  429MOL0     C59082   7.490   0.453   8.416  0.0460 -0.2606  1.2744
  429MOL0     C59083   7.617   0.416   8.439  0.3060  0.1754  0.9699
  429MOL0     C59084   7.731   0.507   8.503  0.7819  0.4665  0.3426
  429MOL0     C59085   7.783   0.451   8.634 -0.3386 -0.3122 -0.4921
  429MOL0     C59086   7.678   0.371   8.723  0.4861 -0.7211  0.4074
  429MOL0     C59087   7.736   0.312   8.857 -0.2330  0.4732 -0.2780
  429MOL0     O59088   7.775   0.412   8.956  0.4134 -0.1780  0.1560
  429MOL0     C59089   7.878   0.378   9.040 -0.0399 -0.4664  0.4160
  429MOL0     C59090   7.893   0.254   9.106  0.8523 -0.5596  0.4507
  429MOL0     C59091   8.000   0.225   9.191 -0.4718  0.3728 -0.9851
  429MOL0     C59092   8.001   0.079   9.234  0.1020 -0.7056  0.2988
  429MOL0     C59093   8.093   0.329   9.223  0.1856 -1.3247 -0.6806
  429MOL0     C59094   8.190   0.316   9.336 -0.2825 -0.4965 -0.1110
  429MOL0     O59095   8.160   0.217   9.425  1.1813 -0.1493 -0.5380
  429MOL0     C59096   8.228   0.203   9.546 -0.4006 -0.9543  1.2671
  429MOL0     C59097   8.370   0.212   9.550  0.3868 -0.5536 -0.6925
  429MOL0     C59098   8.441   0.178   9.666 -0.9416 -0.1845  0.3164
  429MOL0     C59099   8.368   0.131   9.772  0.6580  1.3012 -0.2013
  429MOL0     O59100   8.426   0.080   9.887  0.2759 -0.2716 -0.3843
  429MOL0     C59101   8.536   0.161   9.945 -0.8614  0.4411 -0.4310
  429MOL0     C59102   8.530   0.165  10.097 -0.0586 -1.0495  0.6451
  429MOL0     C59103   8.426   0.268  10.148  0.2225 -0.5139 -0.4839
  429MOL0     C59104   8.279   0.211  10.174 -0.0247 -0.3499  0.3192
  429MOL0     C59105   8.195   0.330  10.226  0.6359 -0.3577 -0.3279
  429MOL0     C59106   8.066   0.290  10.297 -0.6756 -0.4776  0.2053
  429MOL0     C59107   7.997   0.409  10.370 -0.3649 -0.4456 -0.1694
  429MOL0     C59108   7.847   0.376  10.393 -0.5578  0.1692 -0.2881
  429MOL0    Cl59109   7.808   0.218  10.446 -0.1366  0.5952 -0.3981
  429MOL0     C59110   8.235   0.116   9.770 -0.1892 -0.2093 -0.0417
  429MOL0     C59111   8.157   0.147   9.654 -0.2684  1.0256 -0.4288
  429MOL0     O59112   8.281   0.395   9.346 -0.0786  0.3323 -0.2602
  429MOL0     C59113   8.077   0.455   9.153 -1.4060  0.2746  0.4772
  429MOL0     C59114   7.978   0.475   9.063  0.3105 -0.3019 -0.1974
  429MOL0     N59115   7.629   0.275   8.419  0.0099 -0.3625  0.5671
  429MOL0     N59116   7.521   0.227   8.359 -0.5156  0.0120 -0.3814
  429MOL0     C59117   7.615  -0.015   8.684  0.1034 -1.0893  0.2808
  429MOL0     C59118   7.751  -0.016   8.665  0.2791 -0.4369 -0.1836
  429MOL0     C59119   8.168   0.057   8.727  0.2810  0.4740  0.1106
  429MOL0     C59120   8.241  -0.041   8.660  0.0634  0.4736  0.4364
  429MOL0     C59121   8.369  -0.011   8.604 -0.4710  0.2096 -0.6398
  429MOL0     C59122   8.422   0.113   8.617 -0.1288  0.2082 -0.0893
  429MOL0     O59123   8.543   0.151   8.578 -0.6020 -0.9314 -0.5360
  429MOL0     C59124   8.631   0.050   8.532 -0.0035 -0.2959  0.2055
  429MOL0     C59125   8.778   0.106   8.508  0.1285 -0.2263  0.0421
  429MOL0     C59126   8.866   0.118   8.634  0.7272 -0.6501 -1.3638
  429MOL0     C59127   8.815   0.212   8.747 -0.1909 -0.1292  0.3174
  429MOL0     C59128   8.924   0.267   8.830  0.8537  0.4766 -0.1478
  429MOL0     C59129   9.015   0.307   8.901  0.0204  0.5249 -0.0697
  429MOL0     C59130   8.336   0.212   8.667 -0.2377 -0.7235  0.5030
  429MOL0     C59131   8.207   0.188   8.708  0.4867  0.0168  0.0306
  429MOL0     C59132   8.115   0.300   8.745  0.6830  0.1412 -0.1298
  429MOL0     H59133   7.852  -0.205   8.927 -0.7330 -0.2181  0.5181
  429MOL0     H59134   7.609  -0.199   8.976 -0.0351  0.1173 -0.5066
  429MOL0     H59135   7.419   0.123   8.876  2.3515 -1.0280  0.2223
  429MOL0     H59136   7.369  -0.003   8.991 -1.7362  2.6768  0.1813
  429MOL0     H59137   7.161  -0.030   8.881  0.2509 -0.1785 -0.1284
  429MOL0     H59138   7.180   0.149   8.875 -0.6510  0.5395 -2.6533
  429MOL0     H59139   7.296   0.140   8.671 -1.1607  1.3834 -0.0148
  429MOL0     H59140   7.233  -0.023   8.641 -0.3460 -0.3835  0.2708
  429MOL0     H59141   7.002   0.082   8.701 -0.5465  1.5821 -1.5038
  429MOL0     H59142   7.088   0.234   8.672  0.9752  0.2509 -1.1694
  429MOL0     H59143   6.982   0.169   8.458  1.6274  0.8136 -0.6273
  429MOL0     H59144   7.029   0.009   8.464 -4.9329  0.8181 -0.1824
  429MOL0     H59145   7.289   0.125   8.441 -0.1383  0.3211 -0.3152
  429MOL0     H59146   7.177   0.093   8.316 -0.3489  0.1939 -1.0281
  429MOL0     H59147   7.194   0.352   8.459 -0.1864  0.5565  0.5883
  429MOL0     H59148   7.097   0.318   8.316 -0.2711  1.3074  2.6679
  429MOL0     H59149   7.339   0.275   8.190 -0.0517  0.6736 -0.0265
  429MOL0     H59150   7.296   0.433   8.252  0.3966  0.9054  0.3210
  429MOL0     H59151   7.446   0.553   8.421  1.1930  0.5451 -2.2754
  429MOL0     H59152   7.702   0.612   8.511 -0.8231 -0.0610  2.1403
  429MOL0     H59153   7.812   0.517   8.430 -0.9545 -0.6066 -1.8524
  429MOL0     H59154   7.864   0.382   8.610  0.4807  0.5728 -0.3501
  429MOL0     H59155   7.823   0.535   8.692  0.7302 -0.8566 -0.4122
  429MOL0     H59156   7.592   0.438   8.733  0.9078 -0.3763  2.0809
  429MOL0     H59157   7.645   0.279   8.673 -1.1169 -1.2341  2.2863
  429MOL0     H59158   7.649   0.255   8.889 -0.3508 -0.5033 -2.1557
  429MOL0     H59159   7.812   0.235   8.836 -2.1503 -2.1784  1.7536
  429MOL0     H59160   7.818   0.182   9.077 -3.2018  3.6883 -0.8866
  429MOL0     H59161   7.953   0.020   9.155 -3.1473  2.3758 -0.2759
  429MOL0     H59162   7.945   0.066   9.327 -2.5984 -0.5274 -1.2019
  429MOL0     H59163   8.103   0.044   9.252  1.1673  1.2764 -1.4613
  429MOL0     H59164   8.429   0.242   9.463  2.1136 -3.5746 -0.6729
  429MOL0     H59165   8.547   0.176   9.687 -1.0000  0.6715  0.7344
  429MOL0     H59166   8.636   0.124   9.919 -0.4421  0.6157  0.8730
  429MOL0     H59167   8.527   0.262   9.904  2.4413  0.9795 -0.1116
  429MOL0     H59168   8.497   0.069  10.138 -1.5492 -0.8080  0.0615
  429MOL0     H59169   8.623   0.198  10.143 -0.6508  2.2704 -0.2658
  429MOL0     H59170   8.427   0.358  10.086  4.4821  1.1215  1.5480
  429MOL0     H59171   8.470   0.304  10.242  4.5622 -2.6218 -1.4406
  429MOL0     H59172   8.259   0.123  10.237 -1.7351 -1.3904 -1.5621
  429MOL0     H59173   8.244   0.190  10.072  4.0593  0.6029 -1.4742
  429MOL0     H59174   8.248   0.392  10.300  0.5045  1.1324 -1.4233
  429MOL0     H59175   8.170   0.398  10.144  0.2897 -0.4253 -0.2788
  429MOL0     H59176   8.078   0.205  10.364  1.6160 -0.5127 -0.1615
  429MOL0     H59177   8.007   0.246  10.216  2.6039 -1.9978 -1.5196
  429MOL0     H59178   8.007   0.503  10.314  0.7076 -0.8314 -0.6439
  429MOL0     H59179   8.051   0.417  10.465  1.8536 -2.2990 -1.1737
  429MOL0     H59180   7.790   0.384  10.300  0.0364  0.3252 -0.6425
  429MOL0     H59181   7.822   0.449  10.470  0.0236 -1.6995  1.7737
  429MOL0     H59182   8.180   0.066   9.849  0.6631 -1.1905 -0.0455
  429MOL0     H59183   8.051   0.125   9.649  0.1590 -1.0026 -2.7056
  429MOL0     H59184   8.153   0.532   9.161  1.8352 -2.6082 -0.1216
  429MOL0     H59185   7.987   0.575   9.021 -0.4523 -0.3142 -0.4009
  429MOL0     H59186   7.564   0.037   8.604  1.8200  1.8805  0.9681
  429MOL0     H59187   7.792   0.041   8.582 -3.1061  0.7461 -1.1895
  429MOL0     H59188   8.192  -0.138   8.667 -1.3952  1.0143 -1.5273
  429MOL0     H59189   8.416  -0.090   8.546  1.7957  0.4778  0.7242
  429MOL0     H59190   8.644  -0.029   8.607  0.2606 -2.3071 -1.8596
  429MOL0     H59191   8.591  -0.000   8.444 -0.7499  0.3623  0.1537
  429MOL0     H59192   8.766   0.195   8.445 -0.1433  0.5775  1.1963
  429MOL0     H59193   8.829   0.034   8.444 -0.1147  1.7894 -2.6141
  429MOL0     H59194   8.877   0.022   8.685  1.0000 -0.1549 -0.4629
  429MOL0     H59195   8.965   0.156   8.608  0.9841 -0.2352  0.1103
  429MOL0     H59196   8.747   0.154   8.810  1.2030 -1.8575  0.3136
  429MOL0     H59197   8.768   0.295   8.695  1.8970  0.4394 -0.7774
  429MOL0     H59198   9.084   0.341   8.975 -0.4855  1.3768  0.0206
  429MOL0     H59199   8.372   0.313   8.676 -1.3974 -0.3288  0.9080
  429MOL0     H59200   8.139   0.326   8.849  0.0239  1.9168 -0.3824
  429MOL0     H59201   8.141   0.388   8.685  2.6928 -0.7685 -0.6778
  429MOL0     H59202   8.011   0.267   8.741  1.0039 -1.3577  1.9147
  430MOL0     O59203   3.097   4.839   9.521  1.0842 -0.3228 -0.1287
  430MOL0     C59204   3.076   4.862   9.641 -0.4393 -0.0469 -0.5172
  430MOL0     O59205   3.107   4.783   9.753  0.3733 -0.0591  0.2513
  430MOL0     C59206   3.222   4.708   9.742 -0.1308  0.0747  0.6880
  430MOL0     C59207   3.357   4.769   9.760 -0.1527 -0.1155 -0.6517
  430MOL0     C59208   3.464   4.685   9.764 -0.0069  0.8298 -0.5553
  430MOL0     C59209   3.448   4.545   9.743 -0.8259 -0.3419  0.1795
  430MOL0     O59210   3.567   4.475   9.748  0.3748  0.0829  0.5469
  430MOL0     C59211   3.587   4.362   9.665  0.1663 -0.0331 -0.0499
  430MOL0     C59212   3.725   4.317   9.709  0.4551 -0.1393  0.3933
  430MOL0     C59213   3.827   4.391   9.624 -0.9702 -1.0115 -0.5559
  430MOL0     C59214   3.971   4.338   9.634  0.0120 -0.2076  0.6596
  430MOL0     C59215   4.062   4.422   9.540 -0.4445  0.9555 -0.0746
  430MOL0     C59216   4.019   4.414   9.392 -0.5012 -0.1263 -0.4676
  430MOL0     C59217   4.110   4.511   9.308  0.0151  0.2019 -0.4712
  430MOL0     C59218   4.079   4.662   9.320 -0.9522 -0.4870 -0.1924
  430MOL0     N59219   3.975   4.708   9.228 -0.2378  0.7372  0.8476
  430MOL0     C59220   3.853   4.768   9.252  0.1737 -0.4817  0.1352
  430MOL0     C59221   3.807   4.805   9.127 -0.2614 -0.4043 -0.6069
  430MOL0     C59222   3.667   4.861   9.098  0.1324 -0.7504 -0.0540
  430MOL0     C59223   3.665   4.927   8.962 -0.5360  0.5808 -0.8841
  430MOL0     C59224   3.536   5.002   8.937  0.2074 -0.4562  0.3647
  430MOL0     C59225   3.542   5.085   8.807 -0.2208 -0.1494 -0.0101
  430MOL0     O59226   3.625   5.196   8.807 -0.5500  0.1252 -0.2594
  430MOL0     C59227   3.727   5.210   8.711 -0.4177 -0.5113 -0.0614
  430MOL0     C59228   3.811   5.319   8.737  0.2434  0.1453  0.3905
  430MOL0     C59229   3.923   5.349   8.651  0.4499 -0.1053  0.1730
  430MOL0     C59230   4.020   5.457   8.693  0.0488  0.0684  0.0107
  430MOL0     C59231   3.948   5.262   8.548 -0.2964 -0.7414 -0.1114
  430MOL0     C59232   4.051   5.285   8.448  0.6313 -0.6258 -0.2089
  430MOL0     O59233   4.017   5.322   8.318  0.3807  0.3124  0.7773
  430MOL0     C59234   4.106   5.362   8.219 -0.5430 -0.1036 -0.1984
  430MOL0     C59235   4.234   5.420   8.243 -0.0588 -0.3183 -0.1621
  430MOL0     C59236   4.321   5.440   8.136  0.1293 -1.6397  0.1928
  430MOL0     C59237   4.282   5.407   8.003 -0.5672  0.0045  1.0124
  430MOL0     O59238   4.372   5.428   7.899 -0.4112 -0.2289 -0.8802
  430MOL0     C59239   4.353   5.370   7.771 -0.0481  0.0934 -0.5590
  430MOL0     C59240   4.486   5.356   7.698 -0.2779 -0.1664 -0.8665
  430MOL0     C59241   4.596   5.293   7.785  0.2101 -0.4594  0.9935
  430MOL0     C59242   4.566   5.143   7.820 -0.7014 -0.7364 -0.4639
  430MOL0     C59243   4.516   5.117   7.958  0.4586  0.5897 -0.4813
  430MOL0     C59244   4.618   5.136   8.068  0.3511 -0.0659 -0.6803
  430MOL0     C59245   4.591   5.039   8.188  1.4215  0.7757  0.0170
  430MOL0     C59246   4.536   5.107   8.316 -0.2322 -0.8150  0.1941
  430MOL0    Cl59247   4.663   5.222   8.376  0.4295  0.0519 -0.1473
  430MOL0     C59248   4.149   5.370   7.977  0.1146  0.7328  0.0551
  430MOL0     C59249   4.060   5.361   8.090 -0.2643 -0.1272  0.9127
  430MOL0     O59250   4.171   5.278   8.490 -0.2971  0.4788  0.5030
  430MOL0     C59251   3.871   5.149   8.522 -0.8526  0.4757  0.7110
  430MOL0     C59252   3.767   5.123   8.608  0.6596  0.4609  0.4044
  430MOL0     N59253   3.890   4.753   9.033  1.2295 -0.1433  0.2293
  430MOL0     N59254   3.990   4.703   9.094 -0.2218  0.2096  1.3502
  430MOL0     C59255   3.321   4.488   9.722  1.2212  0.3347  0.4279
  430MOL0     C59256   3.208   4.570   9.724 -0.2852 -0.2858 -0.6706
  430MOL0     C59257   2.995   4.985   9.681 -0.5741  0.1921 -0.2624
  430MOL0     C59258   2.912   4.969   9.796 -0.4963 -0.9209 -0.4653
  430MOL0     C59259   2.857   5.084   9.859 -0.1117 -1.1718  0.1371
  430MOL0     C59260   2.872   5.210   9.789 -0.9339 -0.0918 -0.2293
  430MOL0     O59261   2.824   5.334   9.826 -0.4409 -0.2792  0.2186
  430MOL0     C59262   2.712   5.349   9.914  0.1886  0.5642  0.4920
  430MOL0     C59263   2.589   5.275   9.868 -0.1633  0.4891  0.1097
  430MOL0     C59264   2.448   5.326   9.909 -0.0002 -0.0967  0.3515
  430MOL0     C59265   2.443   5.366  10.056 -0.6777 -0.8381 -0.6140
  430MOL0     C59266   2.310   5.414  10.103  0.4606  0.3012  0.1702
  430MOL0     C59267   2.207   5.445  10.156  0.1699  0.3493 -0.1218
  430MOL0     C59268   2.941   5.215   9.666 -0.1186  0.1879  0.5128
  430MOL0     C59269   3.009   5.109   9.609  0.3766  1.4399  0.2797
  430MOL0     C59270   3.070   5.121   9.474 -0.3079 -0.2988  0.0434
  430MOL0     H59271   3.367   4.872   9.794  1.7223  0.0267 -1.5474
  430MOL0     H59272   3.555   4.729   9.804 -0.7765 -0.2944  2.8133
  430MOL0     H59273   3.583   4.376   9.557 -0.4485 -0.5881 -0.1008
  430MOL0     H59274   3.520   4.286   9.706  0.3567 -0.9360 -1.3646
  430MOL0     H59275   3.737   4.341   9.815  0.9765  1.1446  0.0565
  430MOL0     H59276   3.734   4.210   9.689 -1.9508  0.0094 -2.0925
  430MOL0     H59277   3.790   4.392   9.521  3.5111  1.1251 -2.4059
  430MOL0     H59278   3.826   4.497   9.651  3.8054 -0.8339 -0.2885
  430MOL0     H59279   4.013   4.346   9.734  1.0419  0.4988  0.1886
  430MOL0     H59280   3.972   4.235   9.597 -2.9851 -0.3153  0.5862
  430MOL0     H59281   4.165   4.389   9.556 -1.0544 -1.6045 -0.8698
  430MOL0     H59282   4.066   4.525   9.574  2.8868  0.7808  0.3779
  430MOL0     H59283   4.043   4.312   9.359  4.4166  0.3552  0.8029
  430MOL0     H59284   3.919   4.457   9.384  0.1074  2.7698  4.0487
  430MOL0     H59285   4.109   4.479   9.203 -1.1805 -1.5624  0.0320
  430MOL0     H59286   4.211   4.498   9.346 -0.3621  0.9491  0.8458
  430MOL0     H59287   4.061   4.693   9.424  0.2348 -3.7463  1.1127
  430MOL0     H59288   4.173   4.709   9.291 -1.0569  0.5366  1.0238
  430MOL0     H59289   3.810   4.798   9.347  0.1617  3.3460 -0.9244
  430MOL0     H59290   3.637   4.924   9.182  0.7424 -3.5876  2.4715
  430MOL0     H59291   3.610   4.768   9.094  0.0988 -0.6975 -1.1120
  430MOL0     H59292   3.744   5.002   8.952  1.0965 -0.7779  1.1334
  430MOL0     H59293   3.684   4.848   8.888  3.5489  0.6413 -0.1544
  430MOL0     H59294   3.450   4.937   8.924 -0.2949  0.3888 -0.7339
  430MOL0     H59295   3.518   5.077   9.015  2.0948 -0.8431  1.2349
  430MOL0     H59296   3.567   5.015   8.727  3.3350 -2.1370  2.5373
  430MOL0     H59297   3.437   5.115   8.796 -1.1391 -2.2773  1.9374
  430MOL0     H59298   3.778   5.383   8.818  0.7868  0.6712  0.2086
  430MOL0     H59299   3.996   5.467   8.799  2.7817 -0.9496  0.7996
  430MOL0     H59300   3.999   5.554   8.647 -0.1297  0.7600  1.5149
  430MOL0     H59301   4.126   5.445   8.669 -0.1613  2.6294 -2.9396
  430MOL0     H59302   4.253   5.457   8.343  2.6580 -3.5477  0.6885
  430MOL0     H59303   4.419   5.484   8.155 -0.4948  0.3482 -0.9323
  430MOL0     H59304   4.312   5.269   7.785 -0.1012  0.0773 -0.8286
  430MOL0     H59305   4.285   5.437   7.718 -1.2838 -0.4682  0.2372
  430MOL0     H59306   4.472   5.292   7.611  0.2697 -3.5947  1.3934
  430MOL0     H59307   4.522   5.453   7.662  0.3869 -0.4826 -1.0745
  430MOL0     H59308   4.621   5.356   7.871 -0.7977 -1.0140  1.7111
  430MOL0     H59309   4.694   5.292   7.736 -1.4327 -0.0199 -2.6976
  430MOL0     H59310   4.660   5.089   7.801 -2.3010 -3.2256 -1.8555
  430MOL0     H59311   4.497   5.108   7.742  0.0513  0.0547 -1.5101
  430MOL0     H59312   4.440   5.189   7.990 -0.4682 -0.2508 -0.7574
  430MOL0     H59313   4.475   5.015   7.951  1.3699  0.3015 -2.4280
  430MOL0     H59314   4.616   5.240   8.100  0.6103 -0.0029 -0.8745
  430MOL0     H59315   4.721   5.118   8.038  0.5673  0.7023 -0.3971
  430MOL0     H59316   4.684   4.991   8.219  1.1012 -1.9385 -2.8138
  430MOL0     H59317   4.528   4.951   8.176  1.8694  0.0850  2.2337
  430MOL0     H59318   4.511   5.033   8.392 -0.7639 -0.6282  0.2078
  430MOL0     H59319   4.451   5.169   8.286 -0.9311 -1.0495  1.6466
  430MOL0     H59320   4.114   5.354   7.876 -2.5878 -4.5539  1.4578
  430MOL0     H59321   3.960   5.341   8.053  0.3951  0.1868 -1.2096
  430MOL0     H59322   3.895   5.075   8.446 -1.2603  1.4687 -0.4224
  430MOL0     H59323   3.725   5.023   8.615  2.6969 -0.5499 -0.9675
  430MOL0     H59324   3.304   4.381   9.723  1.3976  0.1961 -2.3519
  430MOL0     H59325   3.107   4.530   9.727 -0.3353 -0.2586 -1.6153
  430MOL0     H59326   2.882   4.881   9.853 -0.3438 -0.0318  1.0474
  430MOL0     H59327   2.803   5.078   9.953 -0.2077 -2.8312  0.0065
  430MOL0     H59328   2.742   5.318  10.015 -0.4021  1.8987  1.1048
  430MOL0     H59329   2.692   5.457   9.911 -2.6108  0.2493  2.9566
  430MOL0     H59330   2.585   5.170   9.899  1.0515  0.4058  0.0062
  430MOL0     H59331   2.592   5.275   9.759 -2.2800  0.5002  0.0044
  430MOL0     H59332   2.422   5.410   9.844 -0.5755 -1.1173 -0.7817
  430MOL0     H59333   2.378   5.246   9.885 -0.1942  0.6254 -1.6676
  430MOL0     H59334   2.532   5.423  10.085  0.3506 -3.2774  1.4539
  430MOL0     H59335   2.464   5.273  10.109 -0.4019 -0.3787  0.0915
  430MOL0     H59336   2.126   5.485  10.213  2.3265  2.0934  1.8910
  430MOL0     H59337   2.954   5.311   9.618  0.0043 -0.1514 -0.1438
  430MOL0     H59338   3.004   5.080   9.396  1.7296 -5.9392  0.8380
  430MOL0     H59339   3.095   5.227   9.461  0.7837  0.0870  4.0588
  430MOL0     H59340   3.157   5.056   9.466 -0.4642 -0.6146  0.8139
  431MOL0     O59341   7.239   0.059   4.977 -0.3246  0.6727 -1.0814
  431MOL0     C59342   7.343   0.117   4.983 -0.9876 -0.0936 -0.0225
  431MOL0     O59343   7.386   0.186   5.088  0.2423 -0.3147 -0.2299
  431MOL0     C59344   7.294   0.207   5.184  0.0434 -0.6135  0.0467
  431MOL0     C59345   7.318   0.148   5.307  0.9209 -0.0146  0.2616
  431MOL0     C59346   7.212   0.150   5.400  0.9772 -0.0450 -0.5317
  431MOL0     C59347   7.090   0.219   5.385  0.2623  0.4449  0.9954
  431MOL0     O59348   6.979   0.226   5.466  0.0463  0.8979 -1.4591
  431MOL0     C59349   6.962   0.157   5.588 -0.3223  0.4123  0.0754
  431MOL0     C59350   6.889   0.232   5.701  0.3747 -0.0733 -0.6226
  431MOL0     C59351   6.812   0.351   5.653  0.4187  0.1314 -0.2798
  431MOL0     C59352   6.734   0.412   5.776  0.0371  0.3035 -0.0730
  431MOL0     C59353   6.610   0.487   5.742  0.0412  0.6056  0.3974
  431MOL0     C59354   6.638   0.623   5.686  0.0917 -0.1779 -0.0945
  431MOL0     C59355   6.516   0.709   5.671  0.5694  0.2965 -0.9636
  431MOL0     C59356   6.556   0.841   5.611  0.1448  0.8564  0.6584
  431MOL0     N59357   6.632   0.925   5.697  0.6843  0.2256 -0.4334
  431MOL0     C59358   6.577   0.991   5.800  1.0458  0.3620  0.0440
  431MOL0     C59359   6.670   1.066   5.854  0.5679 -0.6571 -1.0818
  431MOL0     C59360   6.659   1.159   5.962  0.0971 -0.4862 -0.1344
  431MOL0     C59361   6.644   1.305   5.913 -0.6229  0.0726 -0.4055
  431MOL0     C59362   6.506   1.336   5.852  0.3110  0.2053 -0.0722
  431MOL0     C59363   6.506   1.479   5.818 -0.5425 -0.1321 -0.2427
  431MOL0     O59364   6.615   1.517   5.732  0.8377  0.2655 -0.3936
  431MOL0     C59365   6.582   1.520   5.597  0.4149 -0.3386  0.2143
  431MOL0     C59366   6.591   1.406   5.512 -0.3409  0.1143 -0.2226
  431MOL0     C59367   6.561   1.403   5.379  0.4321  1.1986  0.1123
  431MOL0     C59368   6.576   1.273   5.310 -0.0490  0.9535 -0.0576
  431MOL0     C59369   6.522   1.526   5.314 -0.5244  1.4107 -0.7749
  431MOL0     C59370   6.474   1.532   5.174  0.9828 -0.5802 -0.5549
  431MOL0     O59371   6.450   1.418   5.108  0.2257  0.2259 -0.1485
  431MOL0     C59372   6.388   1.425   4.981  0.5484 -0.5521 -0.2652
  431MOL0     C59373   6.255   1.464   4.954 -1.0120 -0.5672 -0.0169
  431MOL0     C59374   6.222   1.503   4.825  1.0175 -0.2092  0.1237
  431MOL0     C59375   6.310   1.482   4.713 -0.1603  0.2716  0.4425
  431MOL0     O59376   6.267   1.509   4.585 -0.5094  0.0064 -0.6992
  431MOL0     C59377   6.188   1.628   4.563 -0.5199 -0.9986  0.2507
  431MOL0     C59378   6.252   1.758   4.621 -0.4470  0.2366  0.2526
  431MOL0     C59379   6.351   1.838   4.533 -0.3485  1.0447 -1.0395
  431MOL0     C59380   6.476   1.895   4.616 -0.0511 -0.0902 -0.7857
  431MOL0     C59381   6.584   1.980   4.528  0.9113 -0.8961  0.3803
  431MOL0     C59382   6.519   2.109   4.477 -0.2038 -0.3741  0.0094
  431MOL0     C59383   6.616   2.202   4.401  1.0490 -0.6289 -0.1828
  431MOL0     C59384   6.538   2.323   4.337 -0.5414  0.4337 -0.1700
  431MOL0    Cl59385   6.612   2.465   4.277  0.2788  0.1761 -0.3090
  431MOL0     C59386   6.432   1.432   4.726  0.6106  0.1378 -0.2571
  431MOL0     C59387   6.467   1.398   4.867 -0.2172 -0.1676 -0.2192
  431MOL0     O59388   6.455   1.642   5.131 -0.5823  0.2504  0.4301
  431MOL0     C59389   6.511   1.642   5.397 -0.0237  0.3838 -0.6921
  431MOL0     C59390   6.539   1.637   5.540  0.2570 -0.4298  0.5834
  431MOL0     N59391   6.789   1.038   5.789  0.3651  0.1458 -0.5717
  431MOL0     N59392   6.768   0.966   5.688  0.1444  0.1565  0.3620
  431MOL0     C59393   7.079   0.279   5.258  0.4974 -0.0542 -0.5593
  431MOL0     C59394   7.175   0.269   5.158  0.3029  1.2083 -0.8397
  431MOL0     C59395   7.437   0.109   4.872 -0.0870 -0.1538 -0.5187
  431MOL0     C59396   7.548   0.200   4.863 -0.3689  1.2112  0.4326
  431MOL0     C59397   7.632   0.206   4.754 -0.7854  0.3338 -0.6262
  431MOL0     C59398   7.604   0.131   4.636  0.9015 -0.5421 -0.0019
  431MOL0     O59399   7.673   0.156   4.523 -0.7014 -0.7789 -0.3390
  431MOL0     C59400   7.656   0.074   4.409  0.0982  0.2368  0.0462
  431MOL0     C59401   7.735   0.149   4.292  0.3028  0.2174  0.9124
  431MOL0     C59402   7.712   0.098   4.146 -1.1187 -0.9603  0.1111
  431MOL0     C59403   7.842   0.036   4.083  0.7327 -0.1609 -0.1807
  431MOL0     C59404   7.807   0.010   3.939  0.4560 -0.6767 -1.0368
  431MOL0     C59405   7.776  -0.017   3.828  0.9086 -0.3576  0.0771
  431MOL0     C59406   7.517   0.023   4.651 -0.1002 -0.0845  0.3622
  431MOL0     C59407   7.432   0.011   4.767  0.1504  0.1484  0.0991
  431MOL0     C59408   7.334  -0.097   4.754 -0.8508  0.8904 -0.0425
  431MOL0     H59409   7.411   0.097   5.326  0.8631 -0.4493 -0.5732
  431MOL0     H59410   7.234   0.103   5.495 -2.1012  2.1440  1.4654
  431MOL0     H59411   7.059   0.127   5.630  0.0407  0.3100 -0.8253
  431MOL0     H59412   6.908   0.065   5.564  1.4639 -0.5967 -0.3338
  431MOL0     H59413   6.827   0.164   5.760  0.1204  1.8921  1.5288
  431MOL0     H59414   6.961   0.267   5.775  0.0791  1.4560 -1.0093
  431MOL0     H59415   6.870   0.426   5.599  0.4063 -0.4885 -1.1674
  431MOL0     H59416   6.736   0.307   5.587 -0.5013  1.1471  0.0693
  431MOL0     H59417   6.689   0.331   5.834 -4.0055  3.7839  2.1886
  431MOL0     H59418   6.805   0.459   5.844 -0.8159 -1.2380  2.0065
  431MOL0     H59419   6.563   0.504   5.840  2.3460  3.4422  1.1560
  431MOL0     H59420   6.531   0.431   5.692  0.2465  0.3271  0.3798
  431MOL0     H59421   6.716   0.669   5.748  1.6817 -2.6029 -0.1535
  431MOL0     H59422   6.677   0.617   5.584 -0.5867  4.2951 -0.8082
  431MOL0     H59423   6.469   0.729   5.768  0.8141 -1.1722 -0.5241
  431MOL0     H59424   6.442   0.661   5.606 -0.8427 -0.5036  1.1139
  431MOL0     H59425   6.608   0.828   5.515  0.0434  0.8279  0.6067
  431MOL0     H59426   6.475   0.905   5.576 -1.3653  0.5717  3.4157
  431MOL0     H59427   6.475   0.987   5.835  1.2704  0.5869  0.7320
  431MOL0     H59428   6.749   1.151   6.023 -0.6835 -1.3487  0.9564
  431MOL0     H59429   6.572   1.132   6.023 -0.9766 -1.2716 -1.9167
  431MOL0     H59430   6.645   1.374   5.998 -0.3523 -1.3142  0.7615
  431MOL0     H59431   6.729   1.330   5.849 -0.0787  3.2233  1.3460
  431MOL0     H59432   6.493   1.276   5.762 -0.3931  2.2160 -1.3904
  431MOL0     H59433   6.428   1.316   5.926  1.4496  2.6302  1.9272
  431MOL0     H59434   6.410   1.507   5.775 -0.1718  2.5873  0.4986
  431MOL0     H59435   6.496   1.550   5.901  1.8917  1.6773 -1.3679
  431MOL0     H59436   6.624   1.314   5.559 -0.5419 -0.7680 -1.7310
  431MOL0     H59437   6.495   1.202   5.291  4.0707 -3.7816 -2.6183
  431MOL0     H59438   6.644   1.200   5.356 -2.6063 -2.7312 -1.6098
  431MOL0     H59439   6.625   1.279   5.212 -1.7657 -1.3416 -1.1543
  431MOL0     H59440   6.196   1.499   5.038 -0.2239  1.8003 -0.3668
  431MOL0     H59441   6.124   1.550   4.817  1.9029  1.6763  0.1027
  431MOL0     H59442   6.176   1.637   4.455  2.5584  0.4673 -0.0651
  431MOL0     H59443   6.091   1.603   4.606  0.0820 -0.8849  1.7441
  431MOL0     H59444   6.167   1.824   4.640 -0.5660  0.7445 -1.8300
  431MOL0     H59445   6.300   1.725   4.714 -0.5508  1.5939  0.8128
  431MOL0     H59446   6.304   1.927   4.490  0.1784  2.6740  1.5015
  431MOL0     H59447   6.391   1.764   4.464  1.6656 -0.2639  1.3256
  431MOL0     H59448   6.520   1.810   4.669 -0.4187 -0.6357 -1.3495
  431MOL0     H59449   6.430   1.969   4.683  0.6524  0.5347 -0.9737
  431MOL0     H59450   6.677   2.008   4.579 -1.2810  0.9721  3.7913
  431MOL0     H59451   6.628   1.935   4.439  3.5491  0.8818  0.6779
  431MOL0     H59452   6.481   2.165   4.563 -2.0767  0.2307 -1.1633
  431MOL0     H59453   6.427   2.095   4.420 -0.6656 -0.1780  0.6874
  431MOL0     H59454   6.657   2.141   4.320 -1.8966 -2.9977 -0.0678
  431MOL0     H59455   6.696   2.233   4.469  0.3556  0.1546  0.2894
  431MOL0     H59456   6.474   2.351   4.421  1.5302 -0.3699  1.8122
  431MOL0     H59457   6.483   2.284   4.251 -1.1753  1.8775 -0.4493
  431MOL0     H59458   6.497   1.395   4.647 -1.0772  1.5811 -2.4203
  431MOL0     H59459   6.559   1.342   4.882 -0.4066 -0.4423 -0.0902
  431MOL0     H59460   6.481   1.741   5.365 -0.9439  0.6326  0.8041
  431MOL0     H59461   6.525   1.725   5.602  2.8325  0.5499 -0.0928
  431MOL0     H59462   6.992   0.341   5.243  1.1859  1.1476  0.2618
  431MOL0     H59463   7.169   0.302   5.055 -1.3508  3.4635 -0.1003
  431MOL0     H59464   7.577   0.262   4.946  0.0601  2.1161 -0.3706
  431MOL0     H59465   7.715   0.275   4.761 -1.3793  0.9966 -0.0125
  431MOL0     H59466   7.705  -0.024   4.412 -1.2210 -0.4828  4.3496
  431MOL0     H59467   7.551   0.062   4.379  1.0333 -2.7761 -2.6176
  431MOL0     H59468   7.840   0.137   4.318 -0.0585 -2.6456  1.3696
  431MOL0     H59469   7.718   0.257   4.281  0.4605  0.0963 -0.7240
  431MOL0     H59470   7.649   0.010   4.162  0.5507 -2.5362 -1.4352
  431MOL0     H59471   7.673   0.177   4.082  4.9358  2.8785  0.3204
  431MOL0     H59472   7.879  -0.051   4.138 -0.3728 -2.1170 -2.3533
  431MOL0     H59473   7.919   0.113   4.082  0.0219  0.5785  0.2982
  431MOL0     H59474   7.769  -0.038   3.724  5.0355  2.0169 -0.9202
  431MOL0     H59475   7.510  -0.051   4.571 -0.0679 -1.0439  1.2206
  431MOL0     H59476   7.255  -0.072   4.682 -0.3215  0.4588 -0.7943
  431MOL0     H59477   7.393  -0.174   4.703 -2.9001  0.5986 -2.1877
  431MOL0     H59478   7.306  -0.139   4.851  1.2744 -1.3927 -0.3274
  432MOL0     O59479  10.016   2.245   6.440  0.1742  0.0714  0.3575
  432MOL0     C59480  10.008   2.349   6.372 -1.0158  0.4028 -0.7377
  432MOL0     O59481  10.007   2.351   6.235 -0.7939 -0.1030 -0.3864
  432MOL0     C59482  10.024   2.223   6.179  0.6534 -0.3589  0.6319
  432MOL0     C59483  10.133   2.197   6.100 -0.5430  0.1090  0.1973
  432MOL0     C59484  10.148   2.069   6.037 -0.0044  0.2746 -0.4516
  432MOL0     C59485  10.047   1.977   6.040  0.3088 -0.0958 -0.2957
  432MOL0     O59486  10.070   1.864   5.966  0.6752 -0.2866  0.5454
  432MOL0     C59487   9.966   1.796   5.901  0.0116  0.7371  0.2936
  432MOL0     C59488   9.900   1.877   5.788  0.5049  0.5032  1.3116
  432MOL0     C59489   9.998   1.912   5.673 -0.2194 -0.5306 -0.0623
  432MOL0     C59490   9.949   1.924   5.524  0.0998  0.3873 -0.1747
  432MOL0     C59491  10.082   1.916   5.449  0.2525 -0.2823 -0.1548
  432MOL0     C59492  10.064   1.999   5.320  0.0072  0.3698  1.0839
  432MOL0     C59493  10.206   2.033   5.261  0.0027 -0.2060  0.2008
  432MOL0     C59494  10.182   2.125   5.140 -0.2094  0.4885 -0.6099
  432MOL0     N59495  10.129   2.067   5.017 -0.0129 -0.5612  0.2463
  432MOL0     C59496  10.178   2.102   4.891  0.0870  0.1763  0.5375
  432MOL0     C59497  10.114   2.025   4.801 -0.2804  0.3515  0.0273
  432MOL0     C59498  10.132   2.019   4.651 -0.1176 -0.6160  0.2045
  432MOL0     C59499  10.006   1.967   4.582 -0.2864 -0.0917  0.0934
  432MOL0     C59500  10.004   2.040   4.447  0.9116  0.4528 -0.4479
  432MOL0     C59501   9.898   1.967   4.367  1.0497 -0.1545  0.9344
  432MOL0     O59502   9.873   2.047   4.259 -0.5642  0.0362 -0.1682
  432MOL0     C59503   9.834   2.001   4.141 -0.3565 -0.4911  0.0081
  432MOL0     C59504   9.773   1.876   4.130 -0.7303  0.2567 -0.3422
  432MOL0     C59505   9.716   1.827   4.011  0.8428  0.3502 -1.1164
  432MOL0     C59506   9.642   1.699   4.026  1.3288 -0.2356 -0.3517
  432MOL0     C59507   9.702   1.917   3.904  0.7291 -0.6611  0.6323
  432MOL0     C59508   9.638   1.881   3.777  0.0944 -0.6639  1.0198
  432MOL0     O59509   9.706   1.942   3.670  0.5359 -0.3164 -0.7186
  432MOL0     C59510   9.692   1.886   3.550  0.1358 -0.0524  0.2687
  432MOL0     C59511   9.733   1.750   3.527 -0.2551 -0.0742 -0.9852
  432MOL0     C59512   9.751   1.692   3.399  1.1066  0.3806 -0.5162
  432MOL0     C59513   9.706   1.768   3.282 -0.6773  0.2283 -0.9407
  432MOL0     O59514   9.717   1.737   3.158 -0.3465  0.0827  0.1196
  432MOL0     C59515   9.793   1.625   3.118 -0.4846 -0.6397  0.3158
  432MOL0     C59516   9.778   1.621   2.960 -0.2249  0.9065 -0.7479
  432MOL0     C59517   9.801   1.474   2.894 -1.1975 -0.2427 -0.6397
  432MOL0     C59518   9.951   1.423   2.930 -0.5531 -0.9872  0.6515
  432MOL0     C59519   9.962   1.275   2.877 -0.1005  0.1823  0.2161
  432MOL0     C59520   9.906   1.244   2.738 -0.1356 -0.0412  0.7903
  432MOL0     C59521   9.988   1.308   2.628  0.1650 -0.1506  0.6189
  432MOL0     C59522   9.908   1.379   2.527  0.1193 -0.4795 -0.2769
  432MOL0    Cl59523   9.821   1.262   2.421  0.4421 -0.0345 -0.1084
  432MOL0     C59524   9.651   1.895   3.307 -0.5915 -0.0060 -0.7545
  432MOL0     C59525   9.645   1.956   3.435 -1.2997  0.6354  1.1647
  432MOL0     O59526   9.546   1.797   3.768  0.3918  0.0605 -0.5927
  432MOL0     C59527   9.763   2.045   3.913  0.2847 -0.2130 -0.0893
  432MOL0     C59528   9.824   2.083   4.035  0.2787 -0.2824 -0.4628
  432MOL0     N59529  10.007   1.965   4.870  0.0049  1.1160 -1.3742
  432MOL0     N59530  10.012   1.995   4.999 -0.1108 -0.8716 -0.1557
  432MOL0     C59531   9.929   2.007   6.097  0.3496  0.3531 -1.0139
  432MOL0     C59532   9.915   2.127   6.172  0.4027  0.1327 -0.2278
  432MOL0     C59533  10.009   2.485   6.433  0.2460  0.1488 -0.2299
  432MOL0     C59534  10.036   2.603   6.361  0.3848 -0.9935 -1.1787
  432MOL0     C59535  10.033   2.735   6.436  0.4542  0.8250 -0.5747
  432MOL0     C59536   9.996   2.740   6.569 -0.6783 -0.5070  0.0841
  432MOL0     O59537   9.987   2.870   6.621 -0.5423 -0.0899  0.8610
  432MOL0     C59538  10.043   2.895   6.747 -0.2932 -0.0599  0.4127
  432MOL0     C59539  10.007   3.038   6.782 -0.0476  0.0634 -0.3993
  432MOL0     C59540   9.855   3.077   6.771  0.8924 -0.6944 -0.2741
  432MOL0     C59541   9.775   3.014   6.884  0.1502 -0.3627  0.5538
  432MOL0     C59542   9.824   3.077   7.005 -0.5027 -0.4634 -0.0492
  432MOL0     C59543   9.874   3.135   7.104 -1.0382 -0.5388 -0.7435
  432MOL0     C59544   9.959   2.624   6.630 -0.1649 -0.0746  0.4140
  432MOL0     C59545   9.970   2.499   6.569  0.7419  0.6703  0.4146
  432MOL0     C59546   9.902   2.387   6.655 -0.8677 -0.1260 -0.6708
  432MOL0     H59547  10.211   2.273   6.097 -0.0973 -0.3537 -0.1664
  432MOL0     H59548  10.231   2.051   5.969 -0.4910 -2.0815 -0.5146
  432MOL0     H59549   9.881   1.770   5.965 -0.0501  1.8105  0.6666
  432MOL0     H59550  10.013   1.703   5.867 -1.7582  0.2069 -0.8508
  432MOL0     H59551   9.809   1.823   5.759  2.3939 -1.2417 -2.0003
  432MOL0     H59552   9.856   1.973   5.817  0.0495  1.4608 -2.0529
  432MOL0     H59553  10.051   2.005   5.697 -0.1588  0.0139 -2.1557
  432MOL0     H59554  10.071   1.830   5.681 -2.2110 -2.5575 -1.4895
  432MOL0     H59555   9.879   1.842   5.505  0.0779  0.7950 -1.9727
  432MOL0     H59556   9.910   2.026   5.532  1.5560  0.9625 -0.1070
  432MOL0     H59557  10.107   1.809   5.447  2.8673  0.1094  2.8326
  432MOL0     H59558  10.164   1.953   5.512 -0.0032  2.3870 -1.2648
  432MOL0     H59559   9.996   1.939   5.260  0.5385 -1.3510  2.1319
  432MOL0     H59560  10.011   2.090   5.348  0.1003  0.6460  0.3792
  432MOL0     H59561  10.252   1.938   5.233 -1.9514 -0.7466 -1.4720
  432MOL0     H59562  10.265   2.080   5.340  1.7273  0.4678 -1.4127
  432MOL0     H59563  10.117   2.209   5.167 -1.2103  0.2464 -2.1108
  432MOL0     H59564  10.282   2.167   5.124  0.0767 -0.6024 -1.8092
  432MOL0     H59565  10.257   2.173   4.868 -2.6874  2.9060 -1.1999
  432MOL0     H59566  10.224   1.964   4.630 -1.4703 -2.3021 -1.7218
  432MOL0     H59567  10.152   2.120   4.615 -0.4597 -0.5101  0.3106
  432MOL0     H59568  10.006   1.857   4.582 -0.5218 -0.1155 -1.4301
  432MOL0     H59569   9.913   1.994   4.632 -0.4359  1.1800 -0.8253
  432MOL0     H59570   9.982   2.146   4.460  0.4826  0.4770 -1.3355
  432MOL0     H59571  10.102   2.018   4.404  2.1123  0.8577  1.9109
  432MOL0     H59572   9.939   1.873   4.329  0.6748  0.0532 -0.0139
  432MOL0     H59573   9.802   1.935   4.410  1.1842  1.0764  2.2037
  432MOL0     H59574   9.772   1.810   4.216 -0.6449  0.0123 -0.5280
  432MOL0     H59575   9.536   1.720   4.038  1.8265  2.2069  0.4080
  432MOL0     H59576   9.672   1.645   4.116 -2.1107 -0.2090  0.9414
  432MOL0     H59577   9.654   1.635   3.938  1.4572 -0.3357 -0.2624
  432MOL0     H59578   9.745   1.699   3.621 -3.6076  1.4641  0.4333
  432MOL0     H59579   9.779   1.587   3.411 -0.6853  0.0003  0.7207
  432MOL0     H59580   9.897   1.636   3.149  0.0979 -0.5070 -1.5446
  432MOL0     H59581   9.767   1.525   3.154 -2.3525 -0.1514  0.4332
  432MOL0     H59582   9.676   1.652   2.936 -0.9432 -2.2058 -2.2860
  432MOL0     H59583   9.848   1.693   2.915  1.9981 -1.0530 -0.6435
  432MOL0     H59584   9.797   1.483   2.785 -0.3112 -1.1329 -0.7560
  432MOL0     H59585   9.731   1.396   2.926  0.1896 -1.0484  0.5446
  432MOL0     H59586   9.973   1.425   3.037 -2.6192 -1.9791  1.1379
  432MOL0     H59587  10.015   1.490   2.872 -0.3592 -1.4411  0.3280
  432MOL0     H59588  10.067   1.242   2.876 -0.8271 -2.2461  0.1005
  432MOL0     H59589   9.914   1.201   2.942  0.5881 -1.0138 -0.5979
  432MOL0     H59590   9.799   1.260   2.726  0.4294  1.9222 -3.7868
  432MOL0     H59591   9.899   1.136   2.723 -4.2486  0.1453  0.1515
  432MOL0     H59592  10.055   1.236   2.581 -0.1668  0.1012 -0.2623
  432MOL0     H59593  10.057   1.379   2.674  1.5979  0.2765 -2.0034
  432MOL0     H59594   9.980   1.427   2.460  0.5964  0.7921  1.0795
  432MOL0     H59595   9.841   1.459   2.561 -1.7566 -0.8985 -2.7445
  432MOL0     H59596   9.620   1.953   3.221  2.3126 -0.4559 -2.2176
  432MOL0     H59597   9.618   2.061   3.447 -3.3498  0.1975  0.8882
  432MOL0     H59598   9.778   2.105   3.824  0.7190 -0.1525  0.0222
  432MOL0     H59599   9.865   2.183   4.041 -0.7053  0.1209 -0.2811
  432MOL0     H59600   9.844   1.939   6.098 -0.9904  1.9620 -0.4167
  432MOL0     H59601   9.826   2.157   6.226  1.7522  1.8054  1.1596
  432MOL0     H59602  10.071   2.598   6.259  4.0922 -2.3947  0.0141
  432MOL0     H59603  10.059   2.827   6.385 -1.5697  2.6460  1.4573
  432MOL0     H59604  10.009   2.830   6.829 -2.3866  0.1906 -0.1894
  432MOL0     H59605  10.152   2.895   6.738 -0.3508  2.5828 -1.1619
  432MOL0     H59606  10.057   3.101   6.708  0.0054 -0.9842 -1.2817
  432MOL0     H59607  10.064   3.059   6.873  1.2453  4.2160 -1.9281
  432MOL0     H59608   9.852   3.185   6.785 -0.0827 -0.7888  0.3455
  432MOL0     H59609   9.811   3.062   6.672 -0.7390 -2.0276  0.6011
  432MOL0     H59610   9.789   2.906   6.897  3.8649  0.0488  1.2485
  432MOL0     H59611   9.670   3.040   6.870 -0.1435 -0.9279  1.6229
  432MOL0     H59612   9.914   3.189   7.188  0.4341  0.8198 -2.2463
  432MOL0     H59613   9.901   2.635   6.721 -0.8995  1.1893 -0.1725
  432MOL0     H59614   9.970   2.321   6.710 -0.1691 -1.0210 -2.5192
  432MOL0     H59615   9.832   2.432   6.726 -0.5741  0.0204 -0.4726
  432MOL0     H59616   9.834   2.316   6.608 -0.8616 -0.8985  0.4511
  433MOL0     O59617   8.677   4.280   8.244  1.0080 -0.1404  0.0566
  433MOL0     C59618   8.774   4.286   8.318 -0.0154 -0.4002  0.6615
  433MOL0     O59619   8.873   4.193   8.318  0.1779 -0.0336 -0.8527
  433MOL0     C59620   8.861   4.077   8.249 -1.0906 -1.0608  0.5434
  433MOL0     C59621   8.864   3.951   8.307 -0.3389  0.4804 -0.0055
  433MOL0     C59622   8.853   3.831   8.233  0.0761 -0.3631  0.0739
  433MOL0     C59623   8.850   3.840   8.088  0.0604  0.1578 -0.6481
  433MOL0     O59624   8.834   3.724   8.010  1.2867  0.4829 -0.0420
  433MOL0     C59625   8.914   3.715   7.886  0.0974 -0.8542 -0.6937
  433MOL0     C59626   9.026   3.608   7.891 -0.0669  0.4595 -0.5765
  433MOL0     C59627   9.134   3.648   7.999  0.2761  0.8535 -0.3564
  433MOL0     C59628   9.188   3.791   7.975 -0.4880  0.2282  0.2227
  433MOL0     C59629   9.290   3.820   8.072 -0.4232  0.0141  0.0437
  433MOL0     C59630   9.368   3.938   8.039  0.7614  1.0879  0.5714
  433MOL0     C59631   9.279   4.063   8.024 -0.3989 -0.4675 -1.1171
  433MOL0     C59632   9.369   4.190   8.048  0.6671 -0.6030  0.6669
  433MOL0     N59633   9.284   4.317   8.040  0.3147 -0.5621  0.3516
  433MOL0     C59634   9.145   4.338   8.074 -0.5725 -0.6052 -0.0936
  433MOL0     C59635   9.133   4.473   8.057 -0.0397 -0.7206 -0.0095
  433MOL0     C59636   9.023   4.562   8.092 -0.2496  1.4073 -0.6714
  433MOL0     C59637   8.920   4.588   7.982  0.6530 -0.1986  0.0622
  433MOL0     C59638   8.803   4.680   8.035 -0.1412  0.7865 -0.2084
  433MOL0     C59639   8.832   4.831   8.013 -0.3304 -0.1009  0.1611
  433MOL0     O59640   8.952   4.869   8.086 -0.1533  0.0368  0.4662
  433MOL0     C59641   9.030   4.957   8.021  1.2405 -1.8817 -0.0697
  433MOL0     C59642   8.979   5.073   7.961 -0.0324  0.5423  0.1730
  433MOL0     C59643   9.054   5.174   7.901  0.5659 -0.2674 -0.4203
  433MOL0     C59644   8.968   5.290   7.839 -0.1061  0.1087  0.0437
  433MOL0     C59645   9.191   5.162   7.904  0.6715 -0.9100  0.3039
  433MOL0     C59646   9.285   5.262   7.848 -0.1283 -0.9374  0.5812
  433MOL0     O59647   9.412   5.237   7.881  0.5458 -0.6924 -0.4019
  433MOL0     C59648   9.512   5.337   7.859  0.6686 -0.7020 -0.0440
  433MOL0     C59649   9.643   5.295   7.829  0.6708  0.2528  0.7516
  433MOL0     C59650   9.755   5.370   7.841 -0.3505  0.2453 -0.2300
  433MOL0     C59651   9.743   5.507   7.879  0.1040 -0.2319  0.0417
  433MOL0     O59652   9.853   5.593   7.885 -0.2589 -0.7762 -0.1396
  433MOL0     C59653   9.982   5.534   7.901  0.2206 -0.1546 -0.5978
  433MOL0     C59654  10.058   5.620   7.994  0.3767  0.2535 -0.2755
  433MOL0     C59655   9.990   5.615   8.140 -1.6474 -0.2696 -0.2156
  433MOL0     C59656  10.077   5.695   8.236  0.5205  0.4977 -0.2557
  433MOL0     C59657  10.117   5.837   8.196 -0.7010 -0.0772 -0.1070
  433MOL0     C59658  10.006   5.941   8.158 -0.9557  0.1805  0.0015
  433MOL0     C59659  10.047   6.084   8.126 -0.3768 -1.0900 -0.5415
  433MOL0     C59660  10.017   6.182   8.235  0.0342  0.8957 -1.3726
  433MOL0    Cl59661   9.843   6.169   8.280 -0.2233 -0.5299  0.7256
  433MOL0     C59662   9.617   5.557   7.911  0.1786  0.7801  0.5474
  433MOL0     C59663   9.500   5.473   7.899 -0.1204  0.0211 -0.5143
  433MOL0     O59664   9.244   5.354   7.771  0.4300  0.7399 -0.2162
  433MOL0     C59665   9.242   5.048   7.963  0.2621 -0.0546 -0.1015
  433MOL0     C59666   9.168   4.959   8.030  0.0145 -0.9916 -0.9476
  433MOL0     N59667   9.243   4.523   7.986  0.0850  0.5450  0.0828
  433MOL0     N59668   9.326   4.427   7.978 -0.0448 -0.2806 -0.4687
  433MOL0     C59669   8.843   3.969   8.027 -0.3991  1.1698  0.5487
  433MOL0     C59670   8.862   4.087   8.103 -0.0601  0.8739 -0.2648
  433MOL0     C59671   8.767   4.394   8.411 -0.6238 -0.1522  0.1960
  433MOL0     C59672   8.706   4.512   8.368  0.0149 -0.4361  0.5941
  433MOL0     C59673   8.693   4.619   8.449  0.3104  0.2511  0.3480
  433MOL0     C59674   8.728   4.622   8.587 -0.3609  1.1758  0.6241
  433MOL0     O59675   8.706   4.735   8.672  0.5312  0.2152  0.5127
  433MOL0     C59676   8.719   4.721   8.811 -0.6337 -0.1065  0.8706
  433MOL0     C59677   8.674   4.842   8.884 -0.7997 -0.9209 -0.5594
  433MOL0     C59678   8.531   4.902   8.857 -0.2224 -0.1369  0.6041
  433MOL0     C59679   8.478   5.031   8.932 -1.2879 -0.7401  0.4528
  433MOL0     C59680   8.499   5.043   9.072  0.6915 -0.4037 -0.2633
  433MOL0     C59681   8.505   5.054   9.190 -0.0708  0.6448 -0.1389
  433MOL0     C59682   8.793   4.502   8.628  0.3123 -0.6937  0.4681
  433MOL0     C59683   8.817   4.388   8.546 -0.2467 -0.0570  0.4342
  433MOL0     C59684   8.865   4.260   8.607  0.8635 -0.2637 -0.5791
  433MOL0     H59685   8.880   3.947   8.414  1.0185  4.1564  0.0842
  433MOL0     H59686   8.854   3.734   8.281 -1.5620 -0.5975 -0.3112
  433MOL0     H59687   8.942   3.813   7.848  1.6273 -0.3238  1.6175
  433MOL0     H59688   8.838   3.694   7.809 -4.7281  3.0524  2.3553
  433MOL0     H59689   8.970   3.518   7.916 -0.6062  0.2385 -2.4180
  433MOL0     H59690   9.068   3.579   7.794 -2.0285  0.1802 -1.3915
  433MOL0     H59691   9.081   3.647   8.095 -0.9002  4.3918 -0.8079
  433MOL0     H59692   9.224   3.586   7.998  0.9913  1.6243 -5.2066
  433MOL0     H59693   9.239   3.796   7.878 -0.6170  2.8974  0.2471
  433MOL0     H59694   9.113   3.870   7.985  2.6420  3.3481  1.1276
  433MOL0     H59695   9.363   3.739   8.066 -0.8373 -0.3437 -0.2740
  433MOL0     H59696   9.243   3.818   8.170  1.4407  1.5910  1.0441
  433MOL0     H59697   9.425   3.944   8.132  1.2734 -0.1953  0.3598
  433MOL0     H59698   9.425   3.907   7.951 -1.0209 -2.2243  0.4000
  433MOL0     H59699   9.197   4.060   8.097  1.9975 -0.8637  1.7170
  433MOL0     H59700   9.236   4.058   7.923  1.7213  0.4954 -2.1378
  433MOL0     H59701   9.410   4.183   8.149  2.2502 -0.3314  0.0775
  433MOL0     H59702   9.451   4.191   7.975 -0.4243 -2.4406 -0.7025
  433MOL0     H59703   9.061   4.274   8.101 -1.0459 -1.2649 -2.8359
  433MOL0     H59704   9.056   4.662   8.124 -1.5898  1.9173 -0.7863
  433MOL0     H59705   8.972   4.520   8.179  0.5289  4.3256  1.3802
  433MOL0     H59706   8.971   4.620   7.891  0.5514 -0.5916 -0.1355
  433MOL0     H59707   8.872   4.493   7.954 -2.5911  1.5530 -0.8407
  433MOL0     H59708   8.708   4.658   7.986 -1.4079  1.7531  1.6627
  433MOL0     H59709   8.782   4.667   8.142  0.7126  2.2694  0.1666
  433MOL0     H59710   8.817   4.871   7.913 -0.7533  3.6103  1.5477
  433MOL0     H59711   8.752   4.882   8.068  1.7681  3.1259  0.4478
  433MOL0     H59712   8.871   5.072   7.945 -0.1467 -0.9825  0.8933
  433MOL0     H59713   8.858   5.285   7.840 -0.4614  4.2511  1.8449
  433MOL0     H59714   9.014   5.332   7.749  0.9844  2.8201  1.7388
  433MOL0     H59715   8.983   5.380   7.899  2.1534 -0.1443 -0.0841
  433MOL0     H59716   9.665   5.193   7.798 -1.9903  0.4980 -2.4977
  433MOL0     H59717   9.853   5.331   7.817 -0.1743 -0.3644  1.3868
  433MOL0     H59718   9.973   5.435   7.948  0.9487 -0.4041 -0.9544
  433MOL0     H59719  10.033   5.532   7.804 -2.6201 -1.0101 -2.1712
  433MOL0     H59720  10.161   5.581   7.990  0.2852 -0.1588  0.9290
  433MOL0     H59721  10.075   5.721   7.953  1.2882 -1.0706 -3.5129
  433MOL0     H59722   9.985   5.512   8.177  1.7077  0.0231  1.3749
  433MOL0     H59723   9.889   5.659   8.141 -2.5556 -2.2322 -1.0485
  433MOL0     H59724  10.171   5.639   8.242  0.8595  1.1826  1.0730
  433MOL0     H59725  10.032   5.699   8.336 -0.0455  0.6116 -0.5088
  433MOL0     H59726  10.173   5.878   8.280 -0.8340 -1.6929  0.8161
  433MOL0     H59727  10.178   5.840   8.105 -0.6820 -2.5307 -0.2556
  433MOL0     H59728   9.932   5.939   8.239  0.3717 -0.9657  1.2389
  433MOL0     H59729   9.955   5.900   8.071 -2.8292  0.2845  1.0094
  433MOL0     H59730   9.984   6.127   8.047 -3.3587 -0.2956  2.0600
  433MOL0     H59731  10.155   6.095   8.110 -0.0573  3.2131  2.6657
  433MOL0     H59732  10.056   6.282   8.213  4.9834 -0.5389 -0.3879
  433MOL0     H59733  10.074   6.153   8.323 -0.0650  0.0733 -1.5773
  433MOL0     H59734   9.590   5.655   7.949 -0.0219  2.6578 -3.8625
  433MOL0     H59735   9.402   5.499   7.938 -1.0436 -1.7753 -1.4823
  433MOL0     H59736   9.348   5.031   7.977  0.4025  0.7749 -0.1013
  433MOL0     H59737   9.212   4.884   8.094  0.1397  1.1974  1.7556
  433MOL0     H59738   8.840   3.970   7.918 -4.7711  0.9760  0.4942
  433MOL0     H59739   8.886   4.171   8.039 -0.1423  1.0998 -0.0011
  433MOL0     H59740   8.653   4.513   8.273 -0.1272 -3.8287  0.5048
  433MOL0     H59741   8.643   4.712   8.424  1.3659  0.7263 -0.0354
  433MOL0     H59742   8.680   4.627   8.850  2.8104 -1.8029  0.6610
  433MOL0     H59743   8.824   4.706   8.837 -0.9569  0.3234  2.4813
  433MOL0     H59744   8.740   4.928   8.868 -0.7291 -0.3048  2.5229
  433MOL0     H59745   8.676   4.825   8.992  0.3268  1.9440 -0.0421
  433MOL0     H59746   8.522   4.919   8.749  3.9069  1.3013  0.3166
  433MOL0     H59747   8.458   4.826   8.885 -2.3876  2.2214  1.8556
  433MOL0     H59748   8.370   5.044   8.922 -1.3601 -0.9074  0.9629
  433MOL0     H59749   8.526   5.118   8.886  0.0681 -2.2308 -1.0738
  433MOL0     H59750   8.513   5.048   9.297 -3.8022  0.4639  0.2786
  433MOL0     H59751   8.827   4.498   8.731  0.6816 -0.2488  0.3631
  433MOL0     H59752   8.808   4.176   8.566 -1.0123  0.4640  0.4016
  433MOL0     H59753   8.969   4.242   8.578  0.7462  0.2635 -1.3891
  433MOL0     H59754   8.853   4.269   8.715  0.7069 -0.2610 -0.5970
  434MOL0     O59755   7.280   6.784   1.499 -0.2874  0.0239  0.4674
  434MOL0     C59756   7.189   6.840   1.432  0.4459  0.0000 -0.2269
  434MOL0     O59757   7.145   6.798   1.315  0.1117  0.0123 -0.3168
  434MOL0     C59758   7.179   6.673   1.271 -0.5192 -0.1789 -0.2164
  434MOL0     C59759   7.079   6.585   1.224  0.2349  0.5994  0.1062
  434MOL0     C59760   7.102   6.452   1.178 -0.4429  0.8395 -0.2145
  434MOL0     C59761   7.234   6.413   1.161 -1.1271 -0.5498 -0.2819
  434MOL0     O59762   7.277   6.288   1.127  0.2121 -0.2942 -0.5570
  434MOL0     C59763   7.181   6.184   1.111  0.1659 -1.1645 -0.4129
  434MOL0     C59764   7.154   6.167   0.962  0.8614  0.3404  0.6629
  434MOL0     C59765   7.283   6.187   0.868 -0.5255  0.2169  0.2321
  434MOL0     C59766   7.245   6.179   0.724  0.7706  0.1850 -0.0167
  434MOL0     C59767   7.343   6.239   0.620 -0.2210  0.1301 -0.2743
  434MOL0     C59768   7.489   6.187   0.638  0.2687  0.0981  0.6201
  434MOL0     C59769   7.589   6.252   0.539 -0.5654  0.2971 -0.0523
  434MOL0     C59770   7.652   6.380   0.600  0.0234  0.7486 -0.3618
  434MOL0     N59771   7.752   6.357   0.701 -0.2314 -0.1865  0.3235
  434MOL0     C59772   7.737   6.324   0.836 -0.9534 -0.1158 -0.0040
  434MOL0     C59773   7.868   6.332   0.876  0.0182  0.4370 -0.0289
  434MOL0     C59774   7.905   6.320   1.021  0.2739 -0.3812  0.0662
  434MOL0     C59775   8.002   6.194   1.039  1.2463 -0.1994  0.7649
  434MOL0     C59776   7.975   6.150   1.186 -0.3095  0.1160  0.6508
  434MOL0     C59777   8.081   6.040   1.216  0.7258 -0.2218  0.1756
  434MOL0     O59778   8.206   6.112   1.259  0.1595  0.2448 -1.0730
  434MOL0     C59779   8.320   6.031   1.255 -0.2406 -0.0730 -2.0430
  434MOL0     C59780   8.322   5.898   1.222 -0.3498 -0.1068 -0.0379
  434MOL0     C59781   8.439   5.823   1.202  0.2005 -0.5728 -0.2863
  434MOL0     C59782   8.410   5.684   1.151  0.3300 -0.3966  1.0843
  434MOL0     C59783   8.571   5.882   1.244 -0.2229  0.1994  0.7133
  434MOL0     C59784   8.697   5.807   1.229 -0.0265  0.8409  0.3318
  434MOL0     O59785   8.812   5.866   1.285 -0.0270  0.3489 -0.2052
  434MOL0     C59786   8.935   5.810   1.308  0.8467 -0.3082 -0.2524
  434MOL0     C59787   8.996   5.703   1.241  0.2008  0.6769  0.6585
  434MOL0     C59788   9.119   5.648   1.274 -0.0406  0.2113  0.0447
  434MOL0     C59789   9.187   5.713   1.377  1.1013 -0.1440 -0.5800
  434MOL0     O59790   9.307   5.654   1.421  0.0323  0.0744 -0.4925
  434MOL0     C59791   9.371   5.715   1.540  0.0001  0.6270  0.9757
  434MOL0     C59792   9.493   5.638   1.578 -0.1850 -0.3263  0.3322
  434MOL0     C59793   9.553   5.683   1.713 -0.4943 -0.5964  0.2555
  434MOL0     C59794   9.598   5.838   1.709 -0.9104  0.4623  0.4507
  434MOL0     C59795   9.627   5.876   1.856  0.4344 -0.9657  0.0215
  434MOL0     C59796   9.675   6.019   1.860  0.5801 -0.2591 -0.4376
  434MOL0     C59797   9.711   6.052   2.008 -0.3305 -0.0299 -0.0658
  434MOL0     C59798   9.840   5.986   2.058  0.1002 -0.1927 -0.1990
  434MOL0    Cl59799   9.900   6.046   2.217 -0.5091 -0.7746 -0.1032
  434MOL0     C59800   9.132   5.824   1.446  0.2376 -0.3991  0.0864
  434MOL0     C59801   9.005   5.868   1.408 -0.2035  0.5846  0.3965
  434MOL0     O59802   8.695   5.688   1.185  0.0297 -0.0092  0.3355
  434MOL0     C59803   8.559   6.008   1.291 -0.2831 -0.4429  0.8835
  434MOL0     C59804   8.438   6.084   1.300 -0.6825 -0.5020 -0.3782
  434MOL0     N59805   7.959   6.364   0.779  0.8787 -0.2454 -0.1410
  434MOL0     N59806   7.885   6.379   0.666  0.4295  0.5571 -0.9340
  434MOL0     C59807   7.338   6.494   1.202  0.6599  0.0753  1.0338
  434MOL0     C59808   7.311   6.625   1.257 -0.0844  0.2073 -0.0942
  434MOL0     C59809   7.132   6.954   1.485  0.5264  0.4024  0.2707
  434MOL0     C59810   7.217   7.049   1.541 -1.1285 -0.4515  0.0667
  434MOL0     C59811   7.174   7.176   1.587 -0.0835  0.0139  0.5690
  434MOL0     C59812   7.035   7.198   1.584  0.0723 -0.0953  0.6126
  434MOL0     O59813   6.998   7.319   1.626 -0.5713  0.1453 -0.3256
  434MOL0     C59814   6.941   7.335   1.755 -0.4168  0.0193 -0.4557
  434MOL0     C59815   7.056   7.305   1.861  0.4698 -0.1783 -0.1079
  434MOL0     C59816   7.026   7.368   1.995  0.0756  1.0421 -0.0313
  434MOL0     C59817   6.889   7.312   2.063  0.0658 -0.1119  0.3351
  434MOL0     C59818   6.911   7.318   2.205  0.3708 -0.0840  0.4460
  434MOL0     C59819   6.917   7.318   2.324 -0.5807  0.2145 -0.8516
  434MOL0     C59820   6.942   7.102   1.544 -0.4084 -0.0734 -0.2800
  434MOL0     C59821   6.997   6.989   1.478  0.9031 -0.8978  0.3416
  434MOL0     C59822   6.894   6.893   1.419  1.2233 -0.8844  0.3270
  434MOL0     H59823   6.975   6.617   1.229  0.6786  1.9320  1.9634
  434MOL0     H59824   7.015   6.394   1.150 -0.1054 -0.1960  0.8207
  434MOL0     H59825   7.086   6.191   1.165  1.1048 -1.8935  1.4330
  434MOL0     H59826   7.235   6.095   1.145  1.6986  1.3310  4.6937
  434MOL0     H59827   7.125   6.062   0.953 -0.5218  0.5405  2.3680
  434MOL0     H59828   7.074   6.232   0.925 -0.7528 -2.2938 -0.7835
  434MOL0     H59829   7.334   6.283   0.881  3.9599 -1.9008  0.2543
  434MOL0     H59830   7.359   6.110   0.882 -1.7909 -1.8016 -2.7605
  434MOL0     H59831   7.227   6.073   0.705 -1.7216  0.8534 -1.9443
  434MOL0     H59832   7.145   6.217   0.704  0.3303 -0.4946  0.8443
  434MOL0     H59833   7.344   6.349   0.623  1.9243  0.1424  1.8330
  434MOL0     H59834   7.317   6.210   0.518 -0.2958  1.1425 -0.5597
  434MOL0     H59835   7.519   6.203   0.742 -2.5771 -0.3615  1.5990
  434MOL0     H59836   7.492   6.079   0.620  0.2294 -0.3234  2.7754
  434MOL0     H59837   7.530   6.287   0.454 -2.7775  1.1689  1.7334
  434MOL0     H59838   7.667   6.182   0.509  1.0721  2.8495 -2.2288
  434MOL0     H59839   7.697   6.441   0.521  0.0186  0.1214 -0.8561
  434MOL0     H59840   7.571   6.441   0.641 -0.6034  2.8143 -4.1869
  434MOL0     H59841   7.647   6.305   0.893 -1.4535 -0.9913 -1.0595
  434MOL0     H59842   7.813   6.321   1.079  1.9245 -1.7039  2.9012
  434MOL0     H59843   7.962   6.405   1.058  2.2308 -2.3438  1.8182
  434MOL0     H59844   7.992   6.117   0.961 -0.4568  0.9282 -0.1838
  434MOL0     H59845   8.108   6.219   1.037  1.6787 -1.9048  0.7764
  434MOL0     H59846   8.008   6.237   1.245  1.2301  0.9430 -1.3104
  434MOL0     H59847   7.876   6.120   1.220 -1.5506  0.6787 -2.1707
  434MOL0     H59848   8.055   5.979   1.303 -1.4109  1.0428  0.4878
  434MOL0     H59849   8.085   5.973   1.130 -0.8606  1.3770 -1.2424
  434MOL0     H59850   8.228   5.852   1.194  0.1889 -0.7444 -0.8543
  434MOL0     H59851   8.446   5.620   1.232  4.1918 -2.7222 -2.1263
  434MOL0     H59852   8.476   5.662   1.067  0.0996 -2.3394  1.3697
  434MOL0     H59853   8.303   5.674   1.131  0.3749  1.2719 -0.2294
  434MOL0     H59854   8.931   5.650   1.172  0.2290 -2.1311  2.6037
  434MOL0     H59855   9.161   5.552   1.248  1.1524  0.4023  1.1473
  434MOL0     H59856   9.390   5.819   1.513 -0.0053  0.5576  0.6928
  434MOL0     H59857   9.299   5.704   1.622 -2.2492  1.0535 -0.8258
  434MOL0     H59858   9.471   5.531   1.587 -1.0524 -0.2287 -0.3849
  434MOL0     H59859   9.558   5.635   1.490  1.9119 -0.7963  1.8230
  434MOL0     H59860   9.637   5.617   1.737  0.2655  0.9000  2.0132
  434MOL0     H59861   9.485   5.685   1.798 -1.9909  1.6843 -0.9065
  434MOL0     H59862   9.512   5.900   1.681 -1.4304 -0.4830 -0.0940
  434MOL0     H59863   9.670   5.843   1.626  0.0393  3.3577  1.3139
  434MOL0     H59864   9.543   5.872   1.926  0.7892 -1.3888  0.4302
  434MOL0     H59865   9.703   5.807   1.894  0.1881 -0.5169  1.3755
  434MOL0     H59866   9.602   6.092   1.826  0.3760  0.4870  1.4531
  434MOL0     H59867   9.769   6.026   1.804  2.0403 -1.7246  1.6332
  434MOL0     H59868   9.627   6.023   2.071 -0.1585  0.6085  0.4797
  434MOL0     H59869   9.719   6.161   2.015 -1.5846  0.2758 -2.5362
  434MOL0     H59870   9.916   6.003   1.981  2.5721 -1.9741  1.6779
  434MOL0     H59871   9.843   5.876   2.058 -0.3799 -0.3177 -3.4866
  434MOL0     H59872   9.185   5.866   1.531  0.8092 -0.3571 -0.2785
  434MOL0     H59873   8.964   5.958   1.453  0.1596  1.2271 -0.5162
  434MOL0     H59874   8.649   6.058   1.325 -0.6433  0.0598  1.1052
  434MOL0     H59875   8.436   6.192   1.300 -2.1480 -0.5165 -0.0186
  434MOL0     H59876   7.437   6.448   1.201 -0.5016 -2.7240 -1.6886
  434MOL0     H59877   7.396   6.684   1.290  0.2737 -0.6378  0.5158
  434MOL0     H59878   7.322   7.022   1.547 -0.1775  2.8445  0.0348
  434MOL0     H59879   7.236   7.249   1.639 -0.9044  0.5850  0.7564
  434MOL0     H59880   6.903   7.438   1.759  2.0968  1.1655 -2.8162
  434MOL0     H59881   6.850   7.275   1.767 -1.3568  1.3759 -0.4816
  434MOL0     H59882   7.152   7.345   1.827 -1.2191  3.0061 -1.5250
  434MOL0     H59883   7.069   7.197   1.876 -1.4250 -0.4753 -0.4217
  434MOL0     H59884   7.112   7.360   2.062  1.0365  0.2922 -1.2952
  434MOL0     H59885   7.008   7.475   1.987 -0.2130  0.9456 -0.7199
  434MOL0     H59886   6.870   7.208   2.035 -3.0569  0.1919  0.9327
  434MOL0     H59887   6.797   7.365   2.038  0.0668 -0.3235 -0.1172
  434MOL0     H59888   6.916   7.325   2.431 -0.1105  2.6447 -0.9650
  434MOL0     H59889   6.835   7.119   1.548 -0.2637  1.2315 -1.4069
  434MOL0     H59890   6.888   6.929   1.316  1.3318  1.1031  0.9613
  434MOL0     H59891   6.919   6.787   1.414 -1.6826 -1.5712 -2.3923
  434MOL0     H59892   6.797   6.905   1.468  2.1467  0.9412  1.8233
  435MOL0     O59893   6.066   9.310  10.522  0.5040 -0.0812  0.6487
  435MOL0     C59894   5.987   9.332  10.429 -0.8504  0.5263 -0.8254
  435MOL0     O59895   5.959   9.452  10.385  0.0770  0.3717 -0.1679
  435MOL0     C59896   6.019   9.560  10.447  0.6478  0.6962  0.0968
  435MOL0     C59897   5.943   9.634  10.539  1.0642  0.2142  0.2325
  435MOL0     C59898   5.982   9.755  10.589 -0.7411 -0.2023 -0.0939
  435MOL0     C59899   6.113   9.800  10.568  0.0959  0.2691 -0.4005
  435MOL0     O59900   6.165   9.924  10.612 -0.4916  0.6092 -0.1456
  435MOL0     C59901   6.067  10.015  10.671 -0.5246 -0.4927  0.8202
  435MOL0     C59902   6.061   9.995  10.825  0.1971  0.9450  0.3570
  435MOL0     C59903   6.010  10.114  10.906  0.7199 -0.1005  0.3767
  435MOL0     C59904   6.081  10.246  10.894 -0.1156 -0.1312  0.7810
  435MOL0     C59905   6.189  10.252  10.998 -0.4920 -0.2752 -0.0814
  435MOL0     C59906   6.273  10.379  11.000 -0.4814  0.9683  0.3688
  435MOL0     C59907   6.345  10.399  11.130  0.2163 -0.0229  0.2066
  435MOL0     C59908   6.490  10.336  11.128 -0.7871 -0.4496  0.8392
  435MOL0     N59909   6.555  10.318  11.258 -0.1931 -0.0452  0.2333
  435MOL0     C59910   6.604  10.410  11.346 -0.4390 -0.0706 -0.3282
  435MOL0     C59911   6.616  10.338  11.452 -0.7250  0.0388 -0.0348
  435MOL0     C59912   6.678  10.389  11.576 -0.3792  0.6544  0.3477
  435MOL0     C59913   6.796  10.294  11.621  0.3714 -0.2082 -0.2143
  435MOL0     C59914   6.914  10.282  11.523  0.6178 -0.1141 -0.6156
  435MOL0     C59915   7.009  10.396  11.513  0.3185 -0.3719  0.4084
  435MOL0     O59916   7.038  10.438  11.649 -0.5202 -0.0291  0.5412
  435MOL0     C59917   7.139  10.379  11.725 -0.2884  0.1870 -0.0252
  435MOL0     C59918   7.243  10.309  11.674  0.3459 -0.2733  0.8570
  435MOL0     C59919   7.352  10.264  11.751  0.0736  0.9000 -0.4693
  435MOL0     C59920   7.435  10.154  11.691  0.2523  0.2103 -0.4535
  435MOL0     C59921   7.364  10.302  11.895  0.7030  1.1283  1.3429
  435MOL0     C59922   7.465  10.245  11.989 -0.6019 -0.0382  0.0529
  435MOL0     O59923   7.454  10.271  12.123 -0.4837 -0.8158  0.0454
  435MOL0     C59924   7.539  10.204  12.205 -0.3129 -0.6920  0.0382
  435MOL0     C59925   7.553  10.062  12.209  0.1957 -1.0158  0.6195
  435MOL0     C59926   7.637   9.997  12.303  0.6671 -0.4239 -0.6898
  435MOL0     C59927   7.731  10.072  12.373  0.6157  0.0492  1.2705
  435MOL0     O59928   7.823  10.005  12.452  0.1416 -0.5753 -0.4816
  435MOL0     C59929   7.794   9.877  12.526  0.3205  0.6540 -0.2413
  435MOL0     C59930   7.804   9.884  12.675 -0.6245 -0.6315  0.1123
  435MOL0     C59931   7.732   9.773  12.750 -0.6118 -0.3397  0.3290
  435MOL0     C59932   7.721   9.811  12.894  0.7760 -0.0458 -0.8315
  435MOL0     C59933   7.664   9.700  12.984  0.1674 -0.6291 -0.8112
  435MOL0     C59934   7.775   9.605  13.017 -0.7824 -1.0739 -0.8722
  435MOL0     C59935   7.727   9.524  13.132 -0.4194  0.9440  0.2873
  435MOL0     C59936   7.826   9.408  13.165  0.8098  0.3810 -0.3928
  435MOL0    Cl59937   7.983   9.465  13.238 -0.1006  0.0741  0.4703
  435MOL0     C59938   7.732  10.206  12.354  0.2143 -0.0556 -1.0911
  435MOL0     C59939   7.639  10.273  12.268 -0.4016  0.5748 -0.3728
  435MOL0     O59940   7.560  10.187  11.942 -0.4435  0.3409  0.4494
  435MOL0     C59941   7.256  10.382  11.939  0.5862  0.4162 -0.3550
  435MOL0     C59942   7.141  10.423  11.857  0.3075  1.1181 -0.1371
  435MOL0     N59943   6.592  10.206  11.436  0.5844 -0.3257 -1.0207
  435MOL0     N59944   6.554  10.194  11.318  0.4664 -0.1608 -0.2951
  435MOL0     C59945   6.197   9.719  10.484  0.3249  1.0788  0.9732
  435MOL0     C59946   6.142   9.606  10.420 -0.9308  0.2439  0.0535
  435MOL0     C59947   5.922   9.221  10.373 -0.8994 -1.0708  0.0700
  435MOL0     C59948   5.984   9.100  10.330 -0.0282 -0.1661 -0.0632
  435MOL0     C59949   5.914   8.991  10.284  0.1009 -0.5251  0.4740
  435MOL0     C59950   5.774   8.991  10.279  0.9275  0.5591  0.3793
  435MOL0     O59951   5.692   8.882  10.244  0.5023 -0.6694  0.3204
  435MOL0     C59952   5.758   8.760  10.210 -0.9403 -0.7830 -0.1554
  435MOL0     C59953   5.675   8.647  10.177  0.3039  0.8348 -0.4067
  435MOL0     C59954   5.580   8.618  10.294  0.2754  1.2261  0.2521
  435MOL0     C59955   5.463   8.510  10.252 -0.4072 -0.0567 -0.3173
  435MOL0     C59956   5.402   8.451  10.369 -0.1943  0.3756 -0.8589
  435MOL0     C59957   5.357   8.384  10.460  0.0811  0.5997  0.3192
  435MOL0     C59958   5.711   9.105  10.320 -0.5803 -0.2161 -0.5401
  435MOL0     C59959   5.781   9.223  10.356  0.5508 -0.3082 -0.3164
  435MOL0     C59960   5.687   9.327  10.405  0.3470 -0.1340  0.0153
  435MOL0     H59961   5.838   9.608  10.536  0.6210  1.4055  2.8485
  435MOL0     H59962   5.913   9.803  10.657  1.0147 -0.8921  2.3053
  435MOL0     H59963   5.968  10.023  10.626  0.1128  1.4105 -0.4156
  435MOL0     H59964   6.103  10.118  10.656 -1.7984  0.8575  5.4346
  435MOL0     H59965   6.000   9.907  10.847 -0.2795  0.1012 -3.5443
  435MOL0     H59966   6.163   9.978  10.860 -0.7928  0.3724  3.1833
  435MOL0     H59967   5.907  10.137  10.874 -0.0701 -0.4388  2.5183
  435MOL0     H59968   6.003  10.079  11.009  0.1073  0.5440  0.5698
  435MOL0     H59969   6.133  10.269  10.801  2.1059 -1.0000  1.7156
  435MOL0     H59970   6.008  10.325  10.913 -1.5886 -1.1103 -0.5792
  435MOL0     H59971   6.261  10.174  10.972 -0.8596 -1.2641  1.7598
  435MOL0     H59972   6.135  10.239  11.092 -1.8158 -1.1155 -0.9249
  435MOL0     H59973   6.352  10.364  10.924 -2.6320  2.3506 -2.3256
  435MOL0     H59974   6.211  10.466  10.978  1.0576  1.7558 -1.1014
  435MOL0     H59975   6.290  10.344  11.208  1.5198 -1.6699  0.0250
  435MOL0     H59976   6.348  10.507  11.148 -3.0652  0.5455 -1.8527
  435MOL0     H59977   6.492  10.238  11.078  1.5754  0.5540 -1.2321
  435MOL0     H59978   6.548  10.405  11.067  1.2200 -0.2937  2.7930
  435MOL0     H59979   6.612  10.518  11.342  0.8001 -0.1898 -2.4312
  435MOL0     H59980   6.602  10.389  11.655 -1.9511  2.7169 -1.0300
  435MOL0     H59981   6.717  10.489  11.554  1.7478 -0.5988 -2.1089
  435MOL0     H59982   6.820  10.316  11.726  2.1886  0.6033 -0.7572
  435MOL0     H59983   6.750  10.195  11.623 -0.6902  0.2576  2.4778
  435MOL0     H59984   6.973  10.192  11.544  1.1988  0.6040  1.0347
  435MOL0     H59985   6.851  10.268  11.435 -0.8714  0.6576  0.2882
  435MOL0     H59986   7.093  10.392  11.443 -0.2969 -1.3406 -0.3016
  435MOL0     H59987   6.953  10.480  11.470  1.2730  0.2477  0.3379
  435MOL0     H59988   7.251  10.281  11.569 -0.1842 -0.8450  0.9692
  435MOL0     H59989   7.537  10.192  11.682  0.3272 -0.2702 -2.2149
  435MOL0     H59990   7.395  10.140  11.590 -2.1132  2.2719  0.1073
  435MOL0     H59991   7.438  10.067  11.757  1.2075  0.0175 -0.7393
  435MOL0     H59992   7.488   9.996  12.153 -0.7682  0.3496  0.0789
  435MOL0     H59993   7.635   9.889  12.309  1.6542 -0.6602 -3.3000
  435MOL0     H59994   7.695   9.832  12.510 -0.3389  2.1659 -0.6650
  435MOL0     H59995   7.877   9.812  12.500  1.7329  1.8690  1.0362
  435MOL0     H59996   7.911   9.875  12.700 -1.4168 -2.4634  3.6177
  435MOL0     H59997   7.765   9.979  12.710 -2.0496 -0.2716 -2.2562
  435MOL0     H59998   7.798   9.690  12.723 -2.8072 -1.2873 -2.8277
  435MOL0     H59999   7.633   9.751  12.708 -0.0039  1.9642 -2.6926
  435MOL0     H60000   7.654   9.896  12.908 -1.8534 -2.1233 -0.0707
  435MOL0     H60001   7.818   9.833  12.941  1.3314 -1.4761 -1.2516
  435MOL0     H60002   7.630   9.748  13.076  0.4767 -0.8019 -0.6096
  435MOL0     H60003   7.581   9.646  12.937  2.4906 -3.4608 -1.9359
  435MOL0     H60004   7.873   9.650  13.036 -1.8430  0.8723  0.3428
  435MOL0     H60005   7.788   9.546  12.927 -0.4451 -2.1124 -0.1626
  435MOL0     H60006   7.631   9.475  13.111 -0.1129  1.4327 -2.7167
  435MOL0     H60007   7.721   9.591  13.218  0.4846 -0.3257  1.3877
  435MOL0     H60008   7.841   9.343  13.079 -1.9236 -2.8633  1.3183
  435MOL0     H60009   7.774   9.350  13.242  0.6234  2.1097  0.8424
  435MOL0     H60010   7.799  10.265  12.415 -0.6030  0.0123 -0.2311
  435MOL0     H60011   7.647  10.381  12.271  2.1195  0.4662 -0.8879
  435MOL0     H60012   7.272  10.420  12.039  2.3022 -0.4184 -0.2681
  435MOL0     H60013   7.068  10.495  11.895  2.1685  2.7922  0.4243
  435MOL0     H60014   6.296   9.755  10.456 -1.1131  5.2117  0.4672
  435MOL0     H60015   6.210   9.558  10.350 -0.0323 -1.7593  2.1760
  435MOL0     H60016   6.091   9.098  10.310 -0.0365  1.9887 -0.5659
  435MOL0     H60017   5.967   8.900  10.257  0.0184 -0.2955 -0.5236
  435MOL0     H60018   5.798   8.785  10.112  1.3868  0.8268  1.1011
  435MOL0     H60019   5.840   8.737  10.279 -1.1522  0.1237  0.4160
  435MOL0     H60020   5.736   8.560  10.151 -2.1542 -0.9199 -0.7180
  435MOL0     H60021   5.627   8.677  10.083  0.3469 -0.8239 -0.9833
  435MOL0     H60022   5.635   8.583  10.382  1.8028  0.2977 -1.0143
  435MOL0     H60023   5.537   8.715  10.322 -1.3038  0.0708  2.1072
  435MOL0     H60024   5.516   8.424  10.208  1.5131  0.1728  1.3974
  435MOL0     H60025   5.389   8.553  10.184 -1.2586  1.6033  1.5877
  435MOL0     H60026   5.309   8.316  10.528  1.5765 -1.2321 -0.3863
  435MOL0     H60027   5.607   9.083  10.340 -0.3815  0.3599  1.3078
  435MOL0     H60028   5.585   9.291  10.418  0.5635 -1.3390 -1.3230
  435MOL0     H60029   5.722   9.350  10.506  0.1794 -1.6747  0.4550
  435MOL0     H60030   5.681   9.420  10.348  0.4992  0.4992  1.0084
  436MOL0     O60031   0.239   2.080   0.205  0.0642 -0.1013 -0.1561
  436MOL0     C60032   0.324   2.005   0.254 -0.7075 -0.0643  1.2325
  436MOL0     O60033   0.315   1.966   0.385  0.3496  0.6907  0.2041
  436MOL0     C60034   0.197   1.968   0.448  0.1717 -0.3493 -0.0017
  436MOL0     C60035   0.097   1.874   0.446  0.0719 -0.0167 -0.0700
  436MOL0     C60036  -0.021   1.884   0.531 -0.3877  0.1477  0.0400
  436MOL0     C60037  -0.030   1.987   0.622 -0.1960  0.3849  0.6592
  436MOL0     O60038  -0.138   1.990   0.714  0.3340  0.2562  0.1967
  436MOL0     C60039  -0.257   2.046   0.663 -0.0637 -1.0254 -0.2121
  436MOL0     C60040  -0.375   2.029   0.763 -0.5776  0.5978 -0.1177
  436MOL0     C60041  -0.377   1.882   0.800 -0.2526 -0.3091  1.1434
  436MOL0     C60042  -0.495   1.863   0.889 -0.3978 -1.0877 -1.0751
  436MOL0     C60043  -0.476   1.922   1.031  0.9029 -0.9587 -0.9672
  436MOL0     C60044  -0.620   1.900   1.093 -0.0357  0.6087 -0.6129
  436MOL0     C60045  -0.632   1.958   1.231  1.2600  0.5194  1.0029
  436MOL0     C60046  -0.560   1.879   1.338  0.6249  0.1015 -0.2719
  436MOL0     N60047  -0.581   1.907   1.481 -0.3007 -0.2056  0.1652
  436MOL0     C60048  -0.685   1.977   1.533  0.7049  0.0505  0.2742
  436MOL0     C60049  -0.657   1.989   1.670 -0.6864  1.0444  0.5139
  436MOL0     C60050  -0.756   2.034   1.766 -0.0152  0.5466  0.2256
  436MOL0     C60051  -0.711   2.173   1.804  0.2700  0.4167  0.5176
  436MOL0     C60052  -0.837   2.232   1.861  0.4025 -0.1232 -0.5394
  436MOL0     C60053  -0.826   2.385   1.908  0.3440  0.0372 -0.4504
  436MOL0     O60054  -0.848   2.470   1.793  0.0339 -0.1065  0.8498
  436MOL0     C60055  -0.981   2.493   1.759 -0.4055  0.0181  0.0007
  436MOL0     C60056  -1.009   2.608   1.687  0.1248  0.2567  0.2995
  436MOL0     C60057  -1.132   2.677   1.682  0.7786 -0.4565  0.3553
  436MOL0     C60058  -1.127   2.821   1.631 -0.3901  0.4027  0.1535
  436MOL0     C60059  -1.240   2.612   1.723 -0.3312 -0.7658  0.2366
  436MOL0     C60060  -1.366   2.693   1.725  0.0642 -0.5586  0.5445
  436MOL0     O60061  -1.421   2.710   1.600 -0.0241  0.0956  0.1250
  436MOL0     C60062  -1.546   2.761   1.603  0.6786  1.2790  0.5965
  436MOL0     C60063  -1.630   2.682   1.520  1.3095 -0.5326 -0.6618
  436MOL0     C60064  -1.764   2.722   1.506  0.0759  1.2622 -0.0947
  436MOL0     C60065  -1.810   2.838   1.573 -0.4623 -0.2695  1.2213
  436MOL0     O60066  -1.933   2.898   1.563 -0.3950 -0.2335 -0.7383
  436MOL0     C60067  -2.044   2.809   1.518  1.0504  0.2176 -0.3341
  436MOL0     C60068  -2.178   2.878   1.555 -0.4489  0.8532  0.2988
  436MOL0     C60069  -2.218   2.891   1.691 -0.4435  0.4319 -0.3954
  436MOL0     C60070  -2.360   2.946   1.701  0.6371 -0.5233 -0.7159
  436MOL0     C60071  -2.424   2.917   1.842 -0.5596  0.0277  0.3682
  436MOL0     C60072  -2.576   2.885   1.842  0.1740 -0.0269 -0.1488
  436MOL0     C60073  -2.678   3.000   1.818 -0.6531  1.0015  0.2420
  436MOL0     C60074  -2.826   2.950   1.826  0.8600 -0.4874  0.0555
  436MOL0    Cl60075  -2.910   2.989   1.673 -0.1629 -0.2595 -0.1360
  436MOL0     C60076  -1.720   2.926   1.643 -0.0927  0.0828 -0.4910
  436MOL0     C60077  -1.591   2.881   1.663  0.0661  0.1824 -0.0752
  436MOL0     O60078  -1.422   2.718   1.834 -0.3463 -0.0146  0.4154
  436MOL0     C60079  -1.224   2.485   1.778  0.0730 -0.9269 -1.4721
  436MOL0     C60080  -1.097   2.431   1.806 -0.5016 -0.2691  0.1836
  436MOL0     N60081  -0.536   1.928   1.688 -0.3333 -0.1238 -0.2456
  436MOL0     N60082  -0.489   1.890   1.580  0.1791 -0.7306  0.1952
  436MOL0     C60083   0.073   2.092   0.630 -0.0043 -0.0618  0.4444
  436MOL0     C60084   0.180   2.079   0.539 -0.8831 -0.5118  0.2609
  436MOL0     C60085   0.449   1.993   0.174  0.3227 -0.1500  0.4952
  436MOL0     C60086   0.508   2.111   0.125 -0.5896  0.8211  0.5822
  436MOL0     C60087   0.628   2.105   0.042  0.2981 -0.1758  0.0762
  436MOL0     C60088   0.678   1.981   0.013 -0.2864 -0.8125  0.4049
  436MOL0     O60089   0.793   1.984  -0.057  0.5955  0.1135  0.0704
  436MOL0     C60090   0.848   1.862  -0.123  0.9227 -0.3101 -0.6119
  436MOL0     C60091   0.928   1.910  -0.245  0.3076  0.0527 -0.4189
  436MOL0     C60092   1.056   1.987  -0.221 -0.0747  0.2724 -0.6554
  436MOL0     C60093   1.135   1.939  -0.100 -0.2436 -0.3647 -0.2383
  436MOL0     C60094   1.188   1.809  -0.132 -0.2031 -0.6285 -0.7909
  436MOL0     C60095   1.220   1.703  -0.177  0.5253 -0.5239  0.2437
  436MOL0     C60096   0.612   1.862   0.049  0.5762  0.2726 -1.5509
  436MOL0     C60097   0.497   1.868   0.134 -0.4799 -0.4967  0.0300
  436MOL0     C60098   0.418   1.740   0.156  0.0981 -0.7319 -0.4095
  436MOL0     H60099   0.111   1.797   0.371 -0.3259  0.1387 -0.3037
  436MOL0     H60100  -0.103   1.814   0.543 -1.5759  2.0121  5.7036
  436MOL0     H60101  -0.280   2.017   0.560 -0.1720 -2.5479  0.2160
  436MOL0     H60102  -0.244   2.153   0.646  1.7248 -1.1389  0.2196
  436MOL0     H60103  -0.356   2.083   0.856 -0.7999  0.3517  0.0689
  436MOL0     H60104  -0.466   2.070   0.717 -0.4408 -0.0885 -1.0321
  436MOL0     H60105  -0.384   1.823   0.708 -0.9969 -0.7934  1.5050
  436MOL0     H60106  -0.285   1.859   0.855  0.4859 -0.8385 -0.2420
  436MOL0     H60107  -0.580   1.914   0.843 -4.2754 -3.3350  2.9506
  436MOL0     H60108  -0.515   1.757   0.899  0.7607 -1.2341 -0.0392
  436MOL0     H60109  -0.460   2.030   1.032 -0.3288 -0.7039  2.3214
  436MOL0     H60110  -0.392   1.883   1.089  0.1710  0.0732  0.8917
  436MOL0     H60111  -0.686   1.953   1.025  0.4488 -0.0301 -1.6150
  436MOL0     H60112  -0.651   1.796   1.104  1.0202  0.4930  2.3447
  436MOL0     H60113  -0.741   1.962   1.237  0.7614 -1.8713 -2.9978
  436MOL0     H60114  -0.584   2.055   1.250 -1.9485  1.7891  3.6365
  436MOL0     H60115  -0.571   1.771   1.324 -0.1151 -0.0215  1.0290
  436MOL0     H60116  -0.457   1.908   1.315 -0.0438  1.1725 -2.1195
  436MOL0     H60117  -0.776   2.008   1.481  0.6497  2.0869  1.4536
  436MOL0     H60118  -0.758   1.960   1.846 -0.3382 -2.6301 -2.4765
  436MOL0     H60119  -0.856   2.035   1.722 -0.1649 -0.8991  0.4818
  436MOL0     H60120  -0.629   2.179   1.877  1.6655 -2.6927 -0.6370
  436MOL0     H60121  -0.683   2.224   1.711 -1.3208  1.1074  0.3882
  436MOL0     H60122  -0.918   2.222   1.787  0.4578 -1.6092 -0.4201
  436MOL0     H60123  -0.851   2.183   1.957  1.4992 -0.8460 -0.7365
  436MOL0     H60124  -0.898   2.397   1.990 -0.3443 -4.8219 -0.0189
  436MOL0     H60125  -0.728   2.410   1.949 -0.1539 -0.4343  1.0855
  436MOL0     H60126  -0.918   2.652   1.646  1.2182  0.3818  2.6570
  436MOL0     H60127  -1.047   2.827   1.557 -1.3440  1.8784 -0.7851
  436MOL0     H60128  -1.100   2.877   1.722 -0.6976  1.2231 -0.2543
  436MOL0     H60129  -1.217   2.865   1.590  1.1897  2.9796 -0.8026
  436MOL0     H60130  -1.597   2.588   1.477  2.1988 -0.8842  0.7134
  436MOL0     H60131  -1.817   2.671   1.426 -0.7729  2.2731 -0.1968
  436MOL0     H60132  -2.046   2.787   1.411 -3.6409  2.3050 -0.8922
  436MOL0     H60133  -2.051   2.708   1.561 -2.7432 -0.3660 -1.9531
  436MOL0     H60134  -2.162   2.976   1.509 -1.1981  1.5524  1.4782
  436MOL0     H60135  -2.253   2.824   1.498  0.4523 -0.5024  0.3407
  436MOL0     H60136  -2.150   2.958   1.745 -1.7771  2.3569 -0.9652
  436MOL0     H60137  -2.200   2.793   1.735  1.3331  1.7203  1.9657
  436MOL0     H60138  -2.422   2.890   1.631 -1.9593 -1.8819  2.4488
  436MOL0     H60139  -2.367   3.053   1.677 -0.3857  0.1544  2.1864
  436MOL0     H60140  -2.368   2.834   1.885 -1.4771  0.1159  1.7859
  436MOL0     H60141  -2.412   3.004   1.908  3.3832 -0.0361 -0.0353
  436MOL0     H60142  -2.596   2.848   1.943 -3.1165 -0.5932 -0.8866
  436MOL0     H60143  -2.590   2.800   1.774  2.3963 -2.1141  1.8234
  436MOL0     H60144  -2.653   3.031   1.716  0.1478 -1.6059 -0.4319
  436MOL0     H60145  -2.667   3.086   1.885 -1.4203 -0.2253  2.0381
  436MOL0     H60146  -2.875   3.024   1.889 -2.3783 -0.6470 -2.0215
  436MOL0     H60147  -2.847   2.849   1.860 -1.7224 -0.7979 -2.1451
  436MOL0     H60148  -1.758   3.019   1.683  0.8742  1.2985 -2.2936
  436MOL0     H60149  -1.518   2.932   1.726 -0.6377  1.6395 -0.3909
  436MOL0     H60150  -1.319   2.435   1.794  0.4266 -1.1697 -0.0723
  436MOL0     H60151  -1.093   2.348   1.876 -1.1003  1.1394  1.9406
  436MOL0     H60152   0.053   2.174   0.698 -4.5703 -0.5253 -0.0032
  436MOL0     H60153   0.258   2.154   0.538  0.4048 -1.7645  1.1548
  436MOL0     H60154   0.459   2.205   0.148 -2.1432  1.2384 -3.5478
  436MOL0     H60155   0.685   2.184  -0.005 -0.6373 -0.6972 -2.0300
  436MOL0     H60156   0.912   1.805  -0.054  0.6206 -0.5813 -0.5487
  436MOL0     H60157   0.770   1.790  -0.149 -0.9691  1.6021 -0.4544
  436MOL0     H60158   0.856   1.977  -0.292  0.2138  0.9890  0.9989
  436MOL0     H60159   0.946   1.829  -0.317  3.1942 -1.4851  1.8165
  436MOL0     H60160   1.118   1.981  -0.311 -2.0724  0.0953 -2.0809
  436MOL0     H60161   1.039   2.094  -0.208  1.6846  0.4243  0.8504
  436MOL0     H60162   1.067   1.944  -0.014  0.0231  0.9147 -0.0698
  436MOL0     H60163   1.223   2.005  -0.091 -0.0601 -0.1840 -2.6984
  436MOL0     H60164   1.242   1.603  -0.208 -1.4675 -1.2060  0.8829
  436MOL0     H60165   0.648   1.762   0.027  1.1427 -0.0808  0.6746
  436MOL0     H60166   0.381   1.727   0.258  0.4447  0.6729 -0.0839
  436MOL0     H60167   0.326   1.733   0.097 -1.1182  0.1140  1.3032
  436MOL0     H60168   0.478   1.655   0.121 -0.0755 -0.7558 -0.6584
  437MOL0     O60169   5.185   8.399   1.248  0.4609  0.4092 -0.7872
  437MOL0     C60170   5.270   8.411   1.162  0.2706  0.1227  0.4133
  437MOL0     O60171   5.362   8.508   1.155 -0.8494 -1.2611 -0.2230
  437MOL0     C60172   5.337   8.636   1.216  0.3275  0.3240  0.0661
  437MOL0     C60173   5.419   8.735   1.153  0.4884  0.2317 -1.2462
  437MOL0     C60174   5.422   8.867   1.202  0.0011  0.1468 -0.4020
  437MOL0     C60175   5.348   8.897   1.316 -1.2448 -0.2032  0.0067
  437MOL0     O60176   5.356   9.022   1.365  0.5073 -0.0481 -0.0776
  437MOL0     C60177   5.489   9.072   1.388  0.4298  0.0127  0.4390
  437MOL0     C60178   5.488   9.199   1.466  0.1295  0.6377 -0.1203
  437MOL0     C60179   5.630   9.254   1.495  0.5835  0.3717 -0.7150
  437MOL0     C60180   5.619   9.401   1.554 -0.4813  0.8573 -0.2621
  437MOL0     C60181   5.741   9.463   1.617  0.6009 -1.3823 -0.1857
  437MOL0     C60182   5.698   9.596   1.685 -0.1646 -1.8188  1.0163
  437MOL0     C60183   5.815   9.685   1.707 -0.4374  0.0429 -0.2220
  437MOL0     C60184   5.857   9.744   1.572 -0.1490 -0.9722  0.5858
  437MOL0     N60185   5.981   9.820   1.581 -0.1863 -0.6691  0.1616
  437MOL0     C60186   6.009   9.931   1.663  0.3860 -0.4408 -0.6585
  437MOL0     C60187   6.130   9.979   1.616  0.6628  0.2499  0.6615
  437MOL0     C60188   6.201  10.103   1.643 -0.4701  0.4450 -0.0569
  437MOL0     C60189   6.357  10.109   1.604  0.0019  0.5981  0.1025
  437MOL0     C60190   6.439  10.013   1.706 -0.0519 -0.0832 -0.8102
  437MOL0     C60191   6.586  10.038   1.706  0.2958  0.2190  0.0338
  437MOL0     O60192   6.614  10.174   1.756  0.4040  0.1027 -0.3839
  437MOL0     C60193   6.644  10.197   1.889  0.5137 -0.6411 -0.4955
  437MOL0     C60194   6.701  10.323   1.914 -0.1093 -0.5866 -1.4212
  437MOL0     C60195   6.723  10.351   2.049 -0.7182 -0.5309 -0.6151
  437MOL0     C60196   6.760  10.498   2.080  0.1104 -0.4728  0.0746
  437MOL0     C60197   6.717  10.262   2.153  0.5521  1.3690  0.3593
  437MOL0     C60198   6.746  10.292   2.297 -0.4637  0.6280  1.1755
  437MOL0     O60199   6.643  10.303   2.390  0.1020 -0.3133 -0.1281
  437MOL0     C60200   6.664  10.268   2.519 -0.3893 -0.0336 -0.0179
  437MOL0     C60201   6.710  10.365   2.611  0.4381 -0.0983  0.2695
  437MOL0     C60202   6.749  10.334   2.738  1.3661  0.1746  0.1961
  437MOL0     C60203   6.740  10.195   2.777 -0.5897  0.6197  0.4078
  437MOL0     O60204   6.766  10.141   2.898 -0.4713 -0.0996 -0.9470
  437MOL0     C60205   6.793  10.243   2.997 -0.1960  0.5117  0.0023
  437MOL0     C60206   6.818  10.191   3.147  0.0444 -0.0170  0.5712
  437MOL0     C60207   6.945  10.099   3.150  0.2956 -1.0062  0.6775
  437MOL0     C60208   6.942  10.004   3.270  0.3933 -0.6606  0.2476
  437MOL0     C60209   7.082   9.929   3.271  0.5167 -0.6300 -0.0606
  437MOL0     C60210   7.062   9.785   3.308 -0.1896  0.0503 -0.2988
  437MOL0     C60211   7.189   9.701   3.300 -0.4089  0.6108  0.0945
  437MOL0     C60212   7.284   9.716   3.428 -0.5152 -0.5640 -0.2981
  437MOL0    Cl60213   7.174   9.702   3.580  0.0734 -0.3864 -0.3650
  437MOL0     C60214   6.699  10.104   2.691  0.9482 -0.0477 -0.6798
  437MOL0     C60215   6.658  10.137   2.558  0.6947  0.6032 -0.5269
  437MOL0     O60216   6.866  10.305   2.321  0.6847 -0.0867 -0.2168
  437MOL0     C60217   6.674  10.127   2.122 -0.7053 -0.2076 -0.1182
  437MOL0     C60218   6.632  10.096   1.990 -0.1608  0.1522 -0.2895
  437MOL0     N60219   6.171   9.898   1.512  0.2365  0.4355 -0.5048
  437MOL0     N60220   6.083   9.803   1.492 -0.7238 -0.0590  0.2513
  437MOL0     C60221   5.263   8.802   1.372 -0.4454  1.1774  0.4954
  437MOL0     C60222   5.254   8.670   1.328 -0.2177  0.6806  1.0915
  437MOL0     C60223   5.279   8.302   1.057  0.3066 -0.6044  0.2366
  437MOL0     C60224   5.317   8.337   0.921 -0.4758  0.3037 -0.9824
  437MOL0     C60225   5.292   8.250   0.811 -0.2716  0.0806  0.2066
  437MOL0     C60226   5.237   8.127   0.837  0.3402  0.3004  0.6424
  437MOL0     O60227   5.209   8.034   0.737  0.2425 -0.5450  0.5613
  437MOL0     C60228   5.298   8.019   0.627 -0.4464  0.2775 -0.5099
  437MOL0     C60229   5.249   7.905   0.545  0.0698 -0.4677 -0.6570
  437MOL0     C60230   5.341   7.894   0.430  0.0570  0.4777  0.6849
  437MOL0     C60231   5.284   7.771   0.355  0.2791  0.3954  0.6849
  437MOL0     C60232   5.344   7.745   0.223  0.0437 -0.3649 -1.0579
  437MOL0     C60233   5.398   7.727   0.115  0.2617  0.2093  0.6122
  437MOL0     C60234   5.202   8.087   0.966  0.4795 -0.1687 -0.5113
  437MOL0     C60235   5.223   8.174   1.076 -0.3399  0.3299  0.3464
  437MOL0     C60236   5.208   8.108   1.211 -0.5888  0.9621  0.6001
  437MOL0     H60237   5.482   8.709   1.069  0.0709  0.7603 -1.7378
  437MOL0     H60238   5.487   8.936   1.150  0.4320 -0.7454 -1.0648
  437MOL0     H60239   5.535   9.096   1.292 -2.2400  1.5162 -0.5572
  437MOL0     H60240   5.536   8.992   1.446 -1.2260 -0.9889  0.4584
  437MOL0     H60241   5.421   9.271   1.418  1.7721  0.6054 -2.6714
  437MOL0     H60242   5.450   9.182   1.567  0.6348  0.5648  0.0587
  437MOL0     H60243   5.674   9.195   1.575  0.4321  2.0120  0.6469
  437MOL0     H60244   5.700   9.246   1.411  0.5639 -0.7022 -0.6389
  437MOL0     H60245   5.595   9.460   1.465 -2.4247 -0.7366 -0.9036
  437MOL0     H60246   5.534   9.420   1.620  0.1069  1.0871  0.4300
  437MOL0     H60247   5.813   9.481   1.537 -0.4676  1.1301 -0.6790
  437MOL0     H60248   5.790   9.397   1.689  1.4804  0.5767  1.0842
  437MOL0     H60249   5.630   9.639   1.610 -0.1107 -2.6296  0.4948
  437MOL0     H60250   5.634   9.584   1.773  0.1692 -2.0614  1.2253
  437MOL0     H60251   5.905   9.631   1.737 -1.2324 -2.8779 -2.5970
  437MOL0     H60252   5.795   9.781   1.754  0.2852  0.8841 -1.5556
  437MOL0     H60253   5.862   9.664   1.497  1.0721 -0.2478 -0.1443
  437MOL0     H60254   5.781   9.813   1.533  2.6403  0.3920 -3.0178
  437MOL0     H60255   5.942   9.974   1.736  2.0285 -0.9196  1.2020
  437MOL0     H60256   6.190  10.122   1.750 -0.4880  1.1702 -0.1811
  437MOL0     H60257   6.163  10.183   1.579  1.5069  1.3106 -0.2322
  437MOL0     H60258   6.373  10.065   1.505  0.1993 -0.4974  0.6088
  437MOL0     H60259   6.397  10.210   1.604  3.4079 -0.6137  0.3191
  437MOL0     H60260   6.396  10.016   1.807  1.0901 -0.1502 -0.3092
  437MOL0     H60261   6.417   9.909   1.681  0.2743 -0.4254  0.2670
  437MOL0     H60262   6.622   9.958   1.771 -0.4645  0.8476  1.2926
  437MOL0     H60263   6.620  10.026   1.603 -2.6147  0.1711 -1.0209
  437MOL0     H60264   6.715  10.392   1.833  2.9013 -1.3007 -1.6093
  437MOL0     H60265   6.844  10.506   2.149  0.1547  1.5169 -0.1470
  437MOL0     H60266   6.673  10.546   2.127  0.6079  0.5181  0.0120
  437MOL0     H60267   6.785  10.552   1.988 -1.5261  0.1816 -0.0238
  437MOL0     H60268   6.708  10.464   2.566 -3.5049  0.7368  1.8069
  437MOL0     H60269   6.776  10.412   2.808 -1.9727  2.3711 -0.7221
  437MOL0     H60270   6.881  10.302   2.970 -0.6610  2.7051  2.7188
  437MOL0     H60271   6.708  10.310   3.005 -0.5074  0.3369 -1.6292
  437MOL0     H60272   6.823  10.286   3.201 -1.2286  0.2882  0.1870
  437MOL0     H60273   6.734  10.136   3.190 -0.0103 -0.4450 -0.0524
  437MOL0     H60274   7.033  10.163   3.161  1.7016 -3.0258  1.8760
  437MOL0     H60275   6.952  10.039   3.059 -1.6325 -1.2597  0.6632
  437MOL0     H60276   6.861   9.932   3.255  0.1329  0.0087 -2.0914
  437MOL0     H60277   6.930  10.055   3.366  0.0596  0.1999 -0.2357
  437MOL0     H60278   7.136   9.924   3.176  0.3273  1.2067 -0.2966
  437MOL0     H60279   7.148   9.974   3.346 -1.7311  0.2784  1.5023
  437MOL0     H60280   6.986   9.738   3.244  2.2048 -0.9678 -2.5693
  437MOL0     H60281   7.011   9.785   3.405 -0.1997 -2.0360 -0.2574
  437MOL0     H60282   7.245   9.713   3.207  3.2230 -3.8890  1.3505
  437MOL0     H60283   7.145   9.600   3.291 -2.0111  1.3813 -1.4309
  437MOL0     H60284   7.343   9.809   3.421 -1.5442  0.1033 -0.3176
  437MOL0     H60285   7.369   9.647   3.438 -0.0787  0.2734  2.6120
  437MOL0     H60286   6.700  10.000   2.721 -0.5655  0.8118  2.8436
  437MOL0     H60287   6.632  10.062   2.484 -2.4166 -0.3008  1.3131
  437MOL0     H60288   6.699  10.063   2.206  0.3151 -0.3227 -0.4892
  437MOL0     H60289   6.599   9.995   1.968  1.8286 -0.7445  0.5897
  437MOL0     H60290   5.198   8.825   1.456 -0.8735 -0.6150  0.7006
  437MOL0     H60291   5.180   8.604   1.372  0.5884 -2.6185 -2.0283
  437MOL0     H60292   5.352   8.435   0.892 -3.2300  1.9403  0.7733
  437MOL0     H60293   5.325   8.273   0.711 -0.0793 -1.1801 -0.0459
  437MOL0     H60294   5.291   8.109   0.564 -2.7200  1.6095  1.4276
  437MOL0     H60295   5.399   7.996   0.661 -0.7564  2.2118  1.9940
  437MOL0     H60296   5.149   7.926   0.508  0.7317  2.8784 -0.8290
  437MOL0     H60297   5.242   7.818   0.610 -1.7404 -0.0982 -0.3297
  437MOL0     H60298   5.336   7.979   0.360  2.5074 -0.5889 -0.9175
  437MOL0     H60299   5.442   7.868   0.461  0.3245  1.2720  0.5126
  437MOL0     H60300   5.177   7.781   0.334  0.5608 -0.3550 -1.3234
  437MOL0     H60301   5.302   7.682   0.417 -0.0665 -0.4428 -0.3921
  437MOL0     H60302   5.446   7.706   0.022 -0.9586 -2.9047  0.5567
  437MOL0     H60303   5.166   7.985   0.964 -0.7652  0.2300  0.4441
  437MOL0     H60304   5.110   8.138   1.248 -0.9502 -0.7769  1.1806
  437MOL0     H60305   5.202   7.999   1.203 -0.4190  1.0003 -0.1880
  437MOL0     H60306   5.296   8.134   1.271  0.1281  1.0335 -0.4559
  438MOL0     O60307  10.309   4.139   7.140 -0.5660  0.9588 -0.3017
  438MOL0     C60308  10.329   4.112   7.259  0.1081  0.2957  1.0203
  438MOL0     O60309  10.289   3.999   7.320  0.2674 -0.6826  0.0510
  438MOL0     C60310  10.205   3.912   7.252 -0.2144  0.3100 -0.7359
  438MOL0     C60311  10.073   3.936   7.275 -0.0782  1.0977  1.0777
  438MOL0     C60312   9.988   3.848   7.204 -0.1271 -0.1846  0.2591
  438MOL0     C60313  10.031   3.739   7.141 -1.1366 -0.2233 -0.6499
  438MOL0     O60314   9.937   3.664   7.083  0.2793  0.8208  1.2325
  438MOL0     C60315   9.835   3.598   7.169  0.5882 -0.9937 -0.0338
  438MOL0     C60316   9.693   3.578   7.105  0.3531  0.2990 -0.1067
  438MOL0     C60317   9.684   3.478   6.989  0.0386  0.2507 -0.2553
  438MOL0     C60318   9.537   3.480   6.934 -0.0497  0.8279 -0.5964
  438MOL0     C60319   9.514   3.427   6.797 -0.5058 -0.2637  0.2739
  438MOL0     C60320   9.539   3.284   6.780 -0.9779 -1.3149 -0.4828
  438MOL0     C60321   9.552   3.243   6.642  0.0298 -0.0918  0.2884
  438MOL0     C60322   9.458   3.309   6.539 -0.2293  0.3587 -0.5089
  438MOL0     N60323   9.319   3.253   6.551 -0.0649  0.4539  0.6630
  438MOL0     C60324   9.220   3.289   6.462 -1.1177  1.0472 -0.2320
  438MOL0     C60325   9.104   3.264   6.513 -0.0092  0.8602 -1.1489
  438MOL0     C60326   8.977   3.285   6.444 -0.5434  0.0069  0.0285
  438MOL0     C60327   8.893   3.165   6.424 -0.0267  0.9423 -0.5372
  438MOL0     C60328   8.765   3.204   6.351 -0.1360  0.0161 -0.9105
  438MOL0     C60329   8.684   3.071   6.313 -1.1301 -0.2971 -0.4723
  438MOL0     O60330   8.634   3.069   6.176 -0.3877  0.6157 -0.4882
  438MOL0     C60331   8.566   2.956   6.154  0.8484 -0.4686  0.3706
  438MOL0     C60332   8.619   2.872   6.061 -0.8657  0.0148  0.1891
  438MOL0     C60333   8.555   2.757   6.021  0.1473 -1.3300 -0.5074
  438MOL0     C60334   8.607   2.684   5.901 -0.2840 -0.2355 -0.0900
  438MOL0     C60335   8.436   2.722   6.088 -0.3987  0.8855 -0.1451
  438MOL0     C60336   8.363   2.593   6.067 -0.7578 -0.5530 -0.4962
  438MOL0     O60337   8.233   2.604   6.084  0.7413 -0.1533 -0.6622
  438MOL0     C60338   8.152   2.494   6.071 -0.1333 -0.6726 -0.5358
  438MOL0     C60339   8.117   2.413   6.184 -0.1746 -0.4141 -0.4870
  438MOL0     C60340   8.042   2.300   6.156  0.4567  0.5416  0.4810
  438MOL0     C60341   7.994   2.255   6.027  0.3315  1.7248 -0.0053
  438MOL0     O60342   7.915   2.142   5.998 -0.6156  0.2152 -0.3824
  438MOL0     C60343   7.845   2.073   6.105  0.0157 -0.4056  0.2719
  438MOL0     C60344   7.899   1.944   6.155 -0.8336 -0.7028 -0.7201
  438MOL0     C60345   8.053   1.968   6.192  0.7344 -0.9683  0.7270
  438MOL0     C60346   8.107   1.822   6.205 -1.0374 -0.4532  0.4100
  438MOL0     C60347   8.259   1.820   6.215 -0.5084  0.2953 -0.4910
  438MOL0     C60348   8.328   1.856   6.087  1.4290 -0.0484 -0.4335
  438MOL0     C60349   8.475   1.841   6.104 -0.5896 -0.0445 -0.0113
  438MOL0     C60350   8.545   1.867   5.965  0.3430 -0.6391 -0.9156
  438MOL0    Cl60351   8.516   1.731   5.856  0.3599 -0.1133 -0.6830
  438MOL0     C60352   8.036   2.334   5.922 -0.5036  0.7198  0.1811
  438MOL0     C60353   8.108   2.453   5.942  0.0041 -0.0452 -0.0389
  438MOL0     O60354   8.430   2.496   6.041  0.0249 -1.0206 -0.0414
  438MOL0     C60355   8.386   2.800   6.194 -0.1254 -0.5860  1.2816
  438MOL0     C60356   8.453   2.928   6.220 -0.3857  0.9645 -0.5157
  438MOL0     N60357   9.126   3.225   6.648  0.4196 -0.0558 -0.2666
  438MOL0     N60358   9.256   3.226   6.670 -0.4930  0.5207  0.9853
  438MOL0     C60359  10.169   3.717   7.125  0.2914  0.7134 -0.6920
  438MOL0     C60360  10.265   3.806   7.193  0.1105  0.0499  0.5904
  438MOL0     C60361  10.368   4.227   7.340 -0.0672  0.3241  0.2288
  438MOL0     C60362  10.329   4.354   7.302 -1.3401  0.2814  1.3171
  438MOL0     C60363  10.374   4.462   7.376  0.2772  0.0940 -0.2609
  438MOL0     C60364  10.427   4.447   7.505  0.0109 -0.8276 -0.5383
  438MOL0     O60365  10.448   4.563   7.576 -0.0500  0.8156  0.1654
  438MOL0     C60366  10.540   4.570   7.677 -0.3335 -0.1516  0.0419
  438MOL0     C60367  10.487   4.585   7.818 -0.1506  0.7511  0.2948
  438MOL0     C60368  10.477   4.442   7.866  0.0867  0.6657 -0.5789
  438MOL0     C60369  10.427   4.455   8.004  0.1329 -0.4048 -0.2949
  438MOL0     C60370  10.525   4.505   8.109  0.4162  0.2344 -0.2626
  438MOL0     C60371  10.576   4.530   8.217 -0.2866 -0.1912  1.2321
  438MOL0     C60372  10.476   4.319   7.538 -0.6567 -0.3207  0.2056
  438MOL0     C60373  10.449   4.209   7.456  0.4988 -0.7351  0.1362
  438MOL0     C60374  10.536   4.090   7.497 -0.0472  0.1146 -0.0232
  438MOL0     H60375  10.031   4.016   7.335  2.3273  3.7550 -0.5767
  438MOL0     H60376   9.883   3.877   7.209  0.0806  0.3918  1.4576
  438MOL0     H60377   9.831   3.663   7.256  1.2933  0.9294 -1.3808
  438MOL0     H60378   9.876   3.502   7.201 -0.0766 -1.9874 -1.9548
  438MOL0     H60379   9.612   3.565   7.176  0.2247  0.5600 -0.2045
  438MOL0     H60380   9.666   3.674   7.059  2.0813 -0.2397 -2.4853
  438MOL0     H60381   9.745   3.512   6.904 -0.3447  0.0590 -0.6123
  438MOL0     H60382   9.719   3.381   7.025  2.6024  1.5304  0.9374
  438MOL0     H60383   9.466   3.439   7.007  1.1617  2.8270  1.9105
  438MOL0     H60384   9.502   3.584   6.930  1.1528  1.2178 -1.6075
  438MOL0     H60385   9.592   3.476   6.738  0.0974 -0.7775  0.6464
  438MOL0     H60386   9.412   3.454   6.765  0.2595  1.1053 -1.1735
  438MOL0     H60387   9.636   3.262   6.825  0.0000 -2.6066 -3.0359
  438MOL0     H60388   9.461   3.220   6.823 -1.3770 -1.6248 -1.6268
  438MOL0     H60389   9.544   3.135   6.626  0.7153 -0.1037 -0.0302
  438MOL0     H60390   9.652   3.276   6.611 -0.3009 -1.1031 -2.0934
  438MOL0     H60391   9.463   3.418   6.548  0.9785  0.5635 -2.9041
  438MOL0     H60392   9.501   3.290   6.440  2.2016  0.3971  0.4732
  438MOL0     H60393   9.239   3.319   6.360  0.0216  0.2771 -0.2589
  438MOL0     H60394   9.010   3.319   6.345  0.0556 -3.6004 -1.1987
  438MOL0     H60395   8.914   3.358   6.494  0.7475 -0.8235  3.0665
  438MOL0     H60396   8.949   3.098   6.358  0.8883  1.7315 -0.5885
  438MOL0     H60397   8.878   3.104   6.513 -0.4987  0.9011 -0.6424
  438MOL0     H60398   8.707   3.262   6.423 -3.4475 -0.7846 -2.7251
  438MOL0     H60399   8.770   3.265   6.261 -3.1340  0.2422 -1.0080
  438MOL0     H60400   8.748   2.983   6.329 -0.9626  0.1012  1.3158
  438MOL0     H60401   8.599   3.070   6.381 -2.3673 -0.4170 -1.9742
  438MOL0     H60402   8.722   2.891   6.031  0.8428 -2.0906  4.0322
  438MOL0     H60403   8.624   2.576   5.900  2.6302  0.1269  0.3709
  438MOL0     H60404   8.703   2.725   5.868 -0.4925  0.6237  0.3279
  438MOL0     H60405   8.535   2.699   5.820 -0.1244 -1.9476 -0.5976
  438MOL0     H60406   8.161   2.434   6.280  0.6849 -0.5466 -0.8430
  438MOL0     H60407   8.012   2.251   6.248 -0.5987  2.8070  1.4273
  438MOL0     H60408   7.830   2.125   6.199  2.0536 -2.6519  1.9822
  438MOL0     H60409   7.743   2.063   6.068  0.0694 -0.5029  0.1435
  438MOL0     H60410   7.837   1.916   6.241  1.2221  4.2341  2.7983
  438MOL0     H60411   7.876   1.869   6.079 -2.2096  0.4066 -1.4527
  438MOL0     H60412   8.070   2.022   6.286  2.7528  1.3179 -0.8389
  438MOL0     H60413   8.107   2.027   6.118  0.4120 -0.4165  0.9313
  438MOL0     H60414   8.073   1.762   6.120 -0.7983 -2.8905  1.9029
  438MOL0     H60415   8.078   1.773   6.299  3.3567 -1.1979  1.6455
  438MOL0     H60416   8.296   1.886   6.293 -0.5784 -0.4406  0.1759
  438MOL0     H60417   8.271   1.718   6.254 -1.6883  0.7076  1.0097
  438MOL0     H60418   8.303   1.957   6.052 -0.0395  0.0571  0.8264
  438MOL0     H60419   8.279   1.802   6.006 -0.9925  0.2120  0.7776
  438MOL0     H60420   8.490   1.736   6.128 -0.0688  0.3116  1.3070
  438MOL0     H60421   8.526   1.901   6.180  2.4677 -1.3061 -0.9236
  438MOL0     H60422   8.651   1.892   5.976 -0.3289  1.7402  1.1547
  438MOL0     H60423   8.507   1.954   5.911  2.1495 -1.0096 -2.8997
  438MOL0     H60424   8.013   2.312   5.818  3.2511  1.2747 -0.9138
  438MOL0     H60425   8.128   2.514   5.855 -0.0151  1.1973  0.8066
  438MOL0     H60426   8.292   2.772   6.241 -0.2570  0.5294  1.7006
  438MOL0     H60427   8.417   3.004   6.288 -2.0049  0.3664 -0.6532
  438MOL0     H60428  10.196   3.631   7.065 -0.7116  0.5740 -0.9604
  438MOL0     H60429  10.373   3.812   7.188 -0.0196  2.6724 -1.6548
  438MOL0     H60430  10.268   4.368   7.213  1.0269  0.7501 -0.3320
  438MOL0     H60431  10.338   4.560   7.345  1.8295  1.1160  0.9849
  438MOL0     H60432  10.617   4.493   7.662 -1.9280 -1.9790  0.7792
  438MOL0     H60433  10.583   4.668   7.653  1.1699 -1.0745 -1.2785
  438MOL0     H60434  10.389   4.633   7.819 -2.5511 -3.6709  1.6278
  438MOL0     H60435  10.546   4.645   7.887 -1.2101 -0.3543  2.2239
  438MOL0     H60436  10.412   4.393   7.793  2.0494  1.2620 -2.8739
  438MOL0     H60437  10.570   4.385   7.851  0.6629  1.7740 -1.4170
  438MOL0     H60438  10.409   4.352   8.035 -0.6943 -0.0017  0.6403
  438MOL0     H60439  10.331   4.507   7.997  1.3585  2.9904  3.4986
  438MOL0     H60440  10.611   4.565   8.313  2.3549 -2.0213  1.0540
  438MOL0     H60441  10.535   4.305   7.628 -4.0199  0.1095  2.6433
  438MOL0     H60442  10.506   4.062   7.598  1.9289  2.3207  1.2673
  438MOL0     H60443  10.528   4.011   7.421 -1.9728 -1.3373  1.5773
  438MOL0     H60444  10.639   4.123   7.504 -0.8647  2.4978  2.7905
  439MOL0     O60445   0.898   2.892   8.913  0.2771 -0.1163  0.6281
  439MOL0     C60446   0.990   2.854   8.844 -0.1412  0.1893 -0.3473
  439MOL0     O60447   0.992   2.729   8.792  0.0515 -0.3607  0.1930
  439MOL0     C60448   0.894   2.632   8.806  0.1371 -0.0148 -0.7317
  439MOL0     C60449   0.901   2.564   8.923 -0.4383 -0.0500 -0.1633
  439MOL0     C60450   0.821   2.452   8.951 -0.3796  0.0778 -0.2394
  439MOL0     C60451   0.729   2.416   8.852 -0.6790  1.0216  0.4861
  439MOL0     O60452   0.643   2.302   8.880  0.2658 -0.7115 -0.3569
  439MOL0     C60453   0.591   2.229   8.766 -0.3828  0.2259 -0.9002
  439MOL0     C60454   0.501   2.125   8.825 -0.0262 -0.1390 -0.6483
  439MOL0     C60455   0.586   2.028   8.912  0.1371  0.1849 -0.1222
  439MOL0     C60456   0.486   1.925   8.975 -0.7622  0.3634 -0.8521
  439MOL0     C60457   0.570   1.842   9.072  0.4944  0.0397  0.5152
  439MOL0     C60458   0.495   1.708   9.091  0.7042 -1.0916 -0.0551
  439MOL0     C60459   0.404   1.717   9.212  0.7446 -0.4722 -0.1186
  439MOL0     C60460   0.325   1.592   9.241  0.3512 -0.1046 -0.6851
  439MOL0     N60461   0.250   1.610   9.358  0.4637 -0.2617 -0.1336
  439MOL0     C60462   0.310   1.606   9.478  0.7239 -0.5409 -0.9333
  439MOL0     C60463   0.200   1.619   9.565  0.0635 -0.4387 -0.7402
  439MOL0     C60464   0.214   1.649   9.714  0.2378 -0.0283  0.3586
  439MOL0     C60465   0.160   1.539   9.806  0.1603 -0.0702  0.1375
  439MOL0     C60466   0.216   1.397   9.776 -0.2852  0.2167  0.7282
  439MOL0     C60467   0.166   1.284   9.861 -0.2169  0.3735 -0.3479
  439MOL0     O60468   0.184   1.316  10.004  0.2168  0.9790 -0.2955
  439MOL0     C60469   0.082   1.269  10.084  0.3112  0.2156  0.2117
  439MOL0     C60470   0.032   1.150  10.087 -0.5285 -0.3110  1.1291
  439MOL0     C60471  -0.092   1.122  10.159 -0.3780  0.1220  0.3732
  439MOL0     C60472  -0.142   0.981  10.145  0.4770  1.0911  0.0797
  439MOL0     C60473  -0.146   1.213  10.253 -0.2361 -0.6377  0.2843
  439MOL0     C60474  -0.264   1.193  10.339  0.0126 -0.0693  0.6523
  439MOL0     O60475  -0.303   1.305  10.398  0.4722  0.3672 -0.6886
  439MOL0     C60476  -0.401   1.306  10.492 -0.7056  0.6407 -0.4521
  439MOL0     C60477  -0.516   1.366  10.465 -0.5940 -0.1199  0.2574
  439MOL0     C60478  -0.631   1.381  10.553  0.4711 -0.5203  0.0129
  439MOL0     C60479  -0.620   1.311  10.679 -0.0811 -0.8831  0.8720
  439MOL0     O60480  -0.725   1.312  10.763 -0.0105  0.2536  0.2363
  439MOL0     C60481  -0.684   1.323  10.898  0.5412  0.9904  1.0978
  439MOL0     C60482  -0.808   1.344  10.977  0.2228  0.8907 -0.9020
  439MOL0     C60483  -0.893   1.212  10.988  1.1087 -0.7388 -0.9852
  439MOL0     C60484  -1.010   1.227  11.083 -0.5438  0.2576  0.3703
  439MOL0     C60485  -1.111   1.113  11.103 -1.1924 -0.4323 -0.3383
  439MOL0     C60486  -1.204   1.082  10.984  0.1000 -0.2295 -0.3408
  439MOL0     C60487  -1.324   1.005  11.048  0.6576 -0.6090 -0.6858
  439MOL0     C60488  -1.439   0.993  10.945 -0.9407  0.1218 -0.1314
  439MOL0    Cl60489  -1.421   0.816  10.880 -0.1280  0.1923  0.2648
  439MOL0     C60490  -0.513   1.220  10.691 -0.5558 -0.6673  0.4883
  439MOL0     C60491  -0.397   1.224  10.606  0.9357 -0.2002  0.6121
  439MOL0     O60492  -0.331   1.089  10.335  0.2309  0.2913 -1.1504
  439MOL0     C60493  -0.074   1.346  10.257  0.2414 -0.1389  0.3408
  439MOL0     C60494   0.030   1.366  10.169 -0.2125  1.1185 -0.5262
  439MOL0     N60495   0.082   1.614   9.490  0.3587 -0.0369  0.2833
  439MOL0     N60496   0.117   1.614   9.366  0.2036  0.0573  0.5629
  439MOL0     C60497   0.710   2.498   8.737  0.7781  0.0611  0.4556
  439MOL0     C60498   0.802   2.600   8.719  0.2246  0.2329  0.4581
  439MOL0     C60499   1.096   2.952   8.813  0.5815 -0.4056 -0.0729
  439MOL0     C60500   1.077   3.086   8.836  0.6111 -0.2518  1.1768
  439MOL0     C60501   1.171   3.179   8.811  0.4974  0.0862 -0.0872
  439MOL0     C60502   1.300   3.150   8.766  1.5330  0.2650  0.6098
  439MOL0     O60503   1.396   3.239   8.732  0.1867 -0.8034 -0.1717
  439MOL0     C60504   1.400   3.373   8.769  0.3180  0.4486  0.1733
  439MOL0     C60505   1.538   3.422   8.726 -0.0758  0.4635  0.7846
  439MOL0     C60506   1.589   3.555   8.781  0.1205  0.1977  0.1506
  439MOL0     C60507   1.539   3.685   8.724 -0.4433 -0.0005 -0.4901
  439MOL0     C60508   1.544   3.701   8.580  0.4493  0.7672 -1.0343
  439MOL0     C60509   1.553   3.729   8.466  0.1747  0.3804 -0.0731
  439MOL0     C60510   1.326   3.005   8.733 -0.1953 -0.1092 -0.7040
  439MOL0     C60511   1.219   2.911   8.758 -1.7130 -0.5506  0.9252
  439MOL0     C60512   1.264   2.768   8.748  0.4376 -0.5717 -0.6314
  439MOL0     H60513   0.983   2.591   8.988 -1.2418 -0.4079  1.0283
  439MOL0     H60514   0.827   2.396   9.043  1.2577 -0.9294 -0.9059
  439MOL0     H60515   0.674   2.179   8.714  0.8641 -2.8423  3.4851
  439MOL0     H60516   0.530   2.294   8.704  0.6537  0.3359 -1.8428
  439MOL0     H60517   0.425   2.179   8.882  1.0503 -1.7797  2.5578
  439MOL0     H60518   0.468   2.075   8.733  2.0561 -2.6042 -0.1763
  439MOL0     H60519   0.662   1.977   8.854  0.6032  0.0942  0.5598
  439MOL0     H60520   0.632   2.083   8.994  1.5683 -0.1528 -0.6800
  439MOL0     H60521   0.409   1.976   9.034 -0.7902 -0.0300 -0.5444
  439MOL0     H60522   0.449   1.867   8.890 -1.0407 -0.8853  0.0959
  439MOL0     H60523   0.589   1.894   9.166  1.8435 -0.7988  0.7326
  439MOL0     H60524   0.666   1.819   9.023  1.1134  4.5891 -0.9057
  439MOL0     H60525   0.432   1.685   9.004 -1.2345  0.5033  0.8438
  439MOL0     H60526   0.567   1.628   9.112  2.4397  0.7114  1.2030
  439MOL0     H60527   0.330   1.787   9.173  2.7974  2.2788  0.5716
  439MOL0     H60528   0.448   1.761   9.302 -0.7627 -1.2417  1.0184
  439MOL0     H60529   0.261   1.564   9.158 -1.6338  0.0104  0.7382
  439MOL0     H60530   0.404   1.518   9.252  1.7354  1.0239 -2.4189
  439MOL0     H60531   0.417   1.596   9.493  0.2802 -1.1332  2.5420
  439MOL0     H60532   0.149   1.735   9.729  0.2776 -0.2170  1.6640
  439MOL0     H60533   0.315   1.677   9.743  1.7745  0.0397 -4.1922
  439MOL0     H60534   0.189   1.566   9.908 -1.6633 -3.2125  1.6516
  439MOL0     H60535   0.052   1.549   9.791 -0.0766  3.1296  2.7761
  439MOL0     H60536   0.190   1.370   9.673  1.7417  1.7168 -0.2643
  439MOL0     H60537   0.325   1.392   9.783 -0.1874  2.0137  0.8337
  439MOL0     H60538   0.064   1.250   9.840 -0.8253  1.7414  0.2710
  439MOL0     H60539   0.221   1.192   9.840  0.7571 -0.0782  3.4957
  439MOL0     H60540   0.093   1.079  10.032  0.3245 -0.0773  1.7484
  439MOL0     H60541  -0.111   0.939  10.049  0.9652 -0.2456  0.7963
  439MOL0     H60542  -0.251   0.982  10.139  0.4653 -0.2739 -0.4443
  439MOL0     H60543  -0.113   0.907  10.220  1.1937  1.7119  0.4221
  439MOL0     H60544  -0.531   1.401  10.363 -3.0994 -1.4702  0.0579
  439MOL0     H60545  -0.718   1.441  10.527  2.5550  2.7218 -0.0249
  439MOL0     H60546  -0.633   1.230  10.928 -0.9184 -0.1994  0.0587
  439MOL0     H60547  -0.608   1.399  10.915  0.9328  0.1571  3.5490
  439MOL0     H60548  -0.779   1.367  11.080  1.6287 -2.5782 -0.3646
  439MOL0     H60549  -0.867   1.428  10.940 -2.3171  0.4936  1.8753
  439MOL0     H60550  -0.835   1.124  11.016  0.8895 -1.3835 -2.4441
  439MOL0     H60551  -0.940   1.184  10.893 -1.0654  1.8015 -0.7645
  439MOL0     H60552  -1.066   1.315  11.050  0.9656  1.1436  0.0334
  439MOL0     H60553  -0.972   1.265  11.179  0.7383 -0.3393  0.1251
  439MOL0     H60554  -1.056   1.021  11.124 -2.3946 -0.7973  1.4044
  439MOL0     H60555  -1.163   1.143  11.194  1.8621  1.4450  0.8964
  439MOL0     H60556  -1.157   1.021  10.907 -0.5029 -2.5189  1.0101
  439MOL0     H60557  -1.239   1.178  10.944  0.0943  1.1466  2.7207
  439MOL0     H60558  -1.365   1.060  11.133 -2.6293 -2.2824 -1.0265
  439MOL0     H60559  -1.296   0.906  11.084 -0.9752 -0.3295  1.5798
  439MOL0     H60560  -1.422   1.072  10.871 -0.1052 -0.3351 -0.4482
  439MOL0     H60561  -1.537   1.002  10.994 -1.2974 -0.5486 -0.7052
  439MOL0     H60562  -0.504   1.149  10.772  2.8107  0.9788  1.7635
  439MOL0     H60563  -0.316   1.157  10.633  1.4409  0.8730  1.8680
  439MOL0     H60564  -0.095   1.426  10.327  2.2568 -1.3480  2.4939
  439MOL0     H60565   0.090   1.457  10.175  1.7354 -0.2065  2.0101
  439MOL0     H60566   0.630   2.463   8.671  1.9067  1.0440 -1.5417
  439MOL0     H60567   0.806   2.673   8.638 -1.0919  0.2205  0.3627
  439MOL0     H60568   0.983   3.129   8.870  2.0497  2.6636  1.7411
  439MOL0     H60569   1.128   3.276   8.831 -1.9377 -0.8288 -0.4983
  439MOL0     H60570   1.323   3.423   8.710  0.5442  1.3424  0.6062
  439MOL0     H60571   1.384   3.391   8.876 -0.4007  1.8318 -0.1379
  439MOL0     H60572   1.558   3.408   8.619  1.9188 -3.7018  1.5261
  439MOL0     H60573   1.613   3.350   8.759  0.5664  0.5355 -0.4587
  439MOL0     H60574   1.560   3.571   8.886  0.6937 -1.3472  0.5591
  439MOL0     H60575   1.698   3.563   8.776  0.0824  5.9034  1.0727
  439MOL0     H60576   1.601   3.766   8.764  1.1229 -0.1215 -2.4765
  439MOL0     H60577   1.432   3.694   8.745 -1.4370  1.8659 -5.1514
  439MOL0     H60578   1.575   3.758   8.365  0.8768  0.4119  0.0824
  439MOL0     H60579   1.423   2.973   8.695  0.4207 -0.2491  0.8855
  439MOL0     H60580   1.251   2.722   8.846 -0.9788 -1.7032 -1.3223
  439MOL0     H60581   1.202   2.708   8.681 -0.0427 -0.3770 -0.3685
  439MOL0     H60582   1.370   2.752   8.725  0.6549 -0.7855  0.4519
  440MOL0     O60583   5.970   2.376  10.757  0.3462  0.0752 -0.6907
  440MOL0     C60584   5.947   2.281  10.684 -0.4341 -0.3141 -0.4873
  440MOL0     O60585   5.835   2.196  10.689  0.4653 -0.3450 -0.1150
  440MOL0     C60586   5.766   2.195  10.809  0.2224  0.6363  0.2193
  440MOL0     C60587   5.818   2.139  10.924 -0.1422  0.1536  0.9769
  440MOL0     C60588   5.747   2.128  11.046  0.0086  0.8717  0.2656
  440MOL0     C60589   5.619   2.176  11.055  0.3279 -0.3546 -0.3409
  440MOL0     O60590   5.534   2.177  11.164  0.1460 -0.8098  0.3492
  440MOL0     C60591   5.522   2.073  11.250  0.4068  0.4027  0.0233
  440MOL0     C60592   5.458   2.126  11.378 -0.2966  0.3092  0.9313
  440MOL0     C60593   5.540   2.245  11.437  0.4919 -0.2627 -0.7459
  440MOL0     C60594   5.681   2.196  11.473  0.2520 -0.5245 -0.2799
  440MOL0     C60595   5.761   2.308  11.521 -0.3511 -0.3680  0.3777
  440MOL0     C60596   5.906   2.258  11.540  0.0955  0.5237  0.2109
  440MOL0     C60597   6.002   2.376  11.574  0.0856 -0.0993 -0.7726
  440MOL0     C60598   6.118   2.336  11.664 -0.0380 -0.3201  0.0467
  440MOL0     N60599   6.221   2.257  11.606 -0.1002 -0.3346 -0.7322
  440MOL0     C60600   6.337   2.308  11.569 -0.2831 -0.3612  0.1909
  440MOL0     C60601   6.402   2.212  11.502 -0.5760 -0.0112  0.8512
  440MOL0     C60602   6.533   2.216  11.431  1.0176 -0.3101 -0.4707
  440MOL0     C60603   6.635   2.168  11.534  0.1077  0.4425  0.3553
  440MOL0     C60604   6.780   2.171  11.475  0.9046  0.2283 -0.8414
  440MOL0     C60605   6.814   2.314  11.459 -0.5568 -0.5484 -0.0738
  440MOL0     O60606   6.954   2.334  11.486  0.0574  0.9362 -0.3538
  440MOL0     C60607   7.021   2.447  11.465 -0.3738  0.1473  0.0223
  440MOL0     C60608   6.971   2.571  11.410 -0.3452 -0.7016 -0.3039
  440MOL0     C60609   7.048   2.696  11.405  0.5269  0.8531 -0.6102
  440MOL0     C60610   6.970   2.812  11.346 -0.3935  0.3492  0.3545
  440MOL0     C60611   7.182   2.695  11.450  0.4159 -0.1575 -0.5236
  440MOL0     C60612   7.271   2.813  11.456  0.3874  1.0171  0.5388
  440MOL0     O60613   7.364   2.808  11.561 -0.3311 -0.0181  0.3454
  440MOL0     C60614   7.446   2.922  11.566  0.3882  0.2364  0.0309
  440MOL0     C60615   7.408   3.061  11.608 -0.8065  0.6615 -0.0125
  440MOL0     C60616   7.506   3.162  11.628  0.2485  0.4554  0.4824
  440MOL0     C60617   7.639   3.130  11.595  0.6882  0.1266  0.4848
  440MOL0     O60618   7.735   3.224  11.593 -0.2567 -0.0435 -0.0160
  440MOL0     C60619   7.838   3.229  11.697  0.9107  0.4686  0.5444
  440MOL0     C60620   7.891   3.368  11.721 -0.2051 -0.4176 -0.1618
  440MOL0     C60621   8.002   3.421  11.617 -0.2084 -1.1352 -0.4651
  440MOL0     C60622   8.045   3.564  11.651  0.7122  0.1486  0.0615
  440MOL0     C60623   8.172   3.604  11.579 -0.1019 -0.4651  0.3710
  440MOL0     C60624   8.210   3.744  11.636 -0.0857 -0.2364  0.2293
  440MOL0     C60625   8.361   3.773  11.612 -0.9522 -0.4649  0.6657
  440MOL0     C60626   8.381   3.923  11.598 -0.5698 -0.4210  0.5453
  440MOL0    Cl60627   8.345   3.967  11.421 -0.3339  0.1769 -0.1295
  440MOL0     C60628   7.673   2.999  11.567 -0.0132 -0.8837 -1.0987
  440MOL0     C60629   7.585   2.904  11.556  0.5770 -0.1675 -0.0972
  440MOL0     O60630   7.263   2.907  11.375 -0.1501 -0.4608  0.6553
  440MOL0     C60631   7.233   2.567  11.493 -0.1344  0.8476 -1.7552
  440MOL0     C60632   7.160   2.445  11.495 -0.5577  1.0705 -0.5274
  440MOL0     N60633   6.315   2.103  11.489 -0.8773 -0.1341 -0.0523
  440MOL0     N60634   6.210   2.134  11.547  0.3589 -0.5861  0.3214
  440MOL0     C60635   5.566   2.241  10.938  0.1454 -0.2721  0.1567
  440MOL0     C60636   5.638   2.252  10.817 -0.5545 -0.0950 -0.1550
  440MOL0     C60637   6.041   2.274  10.567  0.8135  0.1708 -0.2000
  440MOL0     C60638   5.995   2.209  10.449  0.8955  0.0535 -0.2309
  440MOL0     C60639   6.075   2.208  10.340  0.2991 -0.1473 -0.1640
  440MOL0     C60640   6.201   2.268  10.341  0.7416  0.5958 -0.0138
  440MOL0     O60641   6.266   2.240  10.229  0.0747  0.2286 -0.0943
  440MOL0     C60642   6.398   2.287  10.202  0.6964  0.8278  0.1020
  440MOL0     C60643   6.453   2.208  10.086 -0.0890  0.9121 -0.8586
  440MOL0     C60644   6.589   2.265  10.060 -0.4580  0.6762  0.0970
  440MOL0     C60645   6.661   2.177   9.959 -0.5616 -0.4132 -0.3882
  440MOL0     C60646   6.790   2.237   9.945  0.2022  0.0711 -0.5255
  440MOL0     C60647   6.903   2.288   9.958  0.0003  0.6604 -0.5625
  440MOL0     C60648   6.251   2.323  10.456 -0.3308 -0.0263 -0.7073
  440MOL0     C60649   6.169   2.340  10.566  0.1529 -0.0687  0.4046
  440MOL0     C60650   6.227   2.409  10.681 -0.0051  0.7441  0.0882
  440MOL0     H60651   5.916   2.094  10.910  0.0796  0.1413  2.4315
  440MOL0     H60652   5.786   2.074  11.132 -0.1068 -0.2381 -0.3635
  440MOL0     H60653   5.621   2.028  11.259  0.1268 -0.0973  0.7166
  440MOL0     H60654   5.460   1.999  11.199  1.1687  0.2231 -0.6755
  440MOL0     H60655   5.354   2.157  11.369  0.3071  2.8435  2.0796
  440MOL0     H60656   5.445   2.054  11.459 -2.7364 -0.1711  0.2071
  440MOL0     H60657   5.541   2.336  11.376 -0.8579  1.9175  2.2089
  440MOL0     H60658   5.487   2.275  11.528 -2.2016  0.3637 -2.4040
  440MOL0     H60659   5.684   2.122  11.553  1.3912 -0.9861 -0.7271
  440MOL0     H60660   5.732   2.151  11.388  2.2562  0.8519  0.1363
  440MOL0     H60661   5.720   2.348  11.614 -0.2129 -1.1536  0.7812
  440MOL0     H60662   5.746   2.385  11.444 -2.2420 -1.5108 -0.4529
  440MOL0     H60663   5.907   2.189  11.625 -1.2015  0.8467  0.5135
  440MOL0     H60664   5.950   2.212  11.451  2.1426  2.5534  0.0691
  440MOL0     H60665   5.944   2.459  11.614  2.9891  1.2325  1.0605
  440MOL0     H60666   6.044   2.408  11.478  0.4406 -1.6705 -1.1720
  440MOL0     H60667   6.167   2.422  11.712 -2.0726  0.5666  0.6411
  440MOL0     H60668   6.090   2.282  11.755  2.3136  1.7244  2.1430
  440MOL0     H60669   6.376   2.408  11.589 -1.3158  0.6362 -2.4282
  440MOL0     H60670   6.529   2.322  11.404 -1.6280 -0.0560  0.6150
  440MOL0     H60671   6.538   2.145  11.348 -1.1859 -3.9975  2.2390
  440MOL0     H60672   6.639   2.241  11.616 -1.3848  1.9159 -0.8304
  440MOL0     H60673   6.604   2.068  11.566 -1.8500  1.3240  1.3693
  440MOL0     H60674   6.851   2.122  11.543 -1.4124  0.0333  1.6013
  440MOL0     H60675   6.796   2.125  11.377  0.2599 -2.2172  0.1227
  440MOL0     H60676   6.783   2.326  11.355 -0.3216 -1.1073 -0.2136
  440MOL0     H60677   6.764   2.392  11.518  1.9819  2.2760 -1.3745
  440MOL0     H60678   6.864   2.574  11.390 -1.0514 -4.0080  2.0711
  440MOL0     H60679   6.866   2.792  11.318 -0.5627  2.1234 -0.3951
  440MOL0     H60680   7.026   2.833  11.254  0.8915  0.7954  1.2091
  440MOL0     H60681   6.979   2.902  11.407  0.8516  0.9405 -0.6668
  440MOL0     H60682   7.307   3.095  11.630 -1.6153 -1.9621  0.6495
  440MOL0     H60683   7.486   3.263  11.661  1.7663  0.8232  0.3348
  440MOL0     H60684   7.793   3.199  11.792 -1.4265  2.2664  0.0807
  440MOL0     H60685   7.920   3.162  11.667  0.1553 -0.1595 -0.1536
  440MOL0     H60686   7.811   3.443  11.728  1.1016  0.9756  0.3394
  440MOL0     H60687   7.942   3.379  11.817  3.3266  3.2810 -2.1594
  440MOL0     H60688   7.962   3.402  11.517  0.3371  0.8651 -1.1223
  440MOL0     H60689   8.090   3.358  11.632 -0.0348 -0.4473  1.9000
  440MOL0     H60690   8.055   3.578  11.759  1.3294  0.6998 -0.0597
  440MOL0     H60691   7.982   3.639  11.602 -1.4604 -0.5147  1.6558
  440MOL0     H60692   8.253   3.533  11.600  2.3518  0.8248 -3.5368
  440MOL0     H60693   8.160   3.608  11.471 -3.0391 -2.8265  0.4978
  440MOL0     H60694   8.191   3.750  11.743  0.7891 -0.7143  0.4203
  440MOL0     H60695   8.154   3.831  11.601 -2.5584 -0.4247  3.3161
  440MOL0     H60696   8.394   3.720  11.523  0.9109 -0.5553  1.3694
  440MOL0     H60697   8.424   3.735  11.693 -0.1703  2.3060  1.4889
  440MOL0     H60698   8.488   3.939  11.609 -0.2592 -0.4701 -1.8055
  440MOL0     H60699   8.309   3.980  11.659 -0.7726 -0.5140  0.3940
  440MOL0     H60700   7.778   2.973  11.558  0.2696  0.1793 -0.9873
  440MOL0     H60701   7.628   2.806  11.537  0.8923 -0.1629  0.5807
  440MOL0     H60702   7.331   2.559  11.539  1.5195  1.0686 -4.9552
  440MOL0     H60703   7.200   2.354  11.538  0.7707  2.7525  2.0707
  440MOL0     H60704   5.467   2.284  10.947  0.2958  0.4898 -1.4888
  440MOL0     H60705   5.588   2.295  10.730 -0.9237 -0.1920  0.0068
  440MOL0     H60706   5.896   2.165  10.454  0.0918  1.5960 -1.5069
  440MOL0     H60707   6.030   2.168  10.250 -1.3055  1.2022 -0.0063
  440MOL0     H60708   6.385   2.393  10.179 -1.5536  1.1895  2.5360
  440MOL0     H60709   6.464   2.275  10.288  0.5260  0.4480  0.1849
  440MOL0     H60710   6.381   2.220  10.005 -3.3996 -0.5861  1.5931
  440MOL0     H60711   6.462   2.100  10.102  1.1370  1.3083  1.5579
  440MOL0     H60712   6.570   2.361  10.012 -1.9456 -0.7994 -2.4569
  440MOL0     H60713   6.650   2.281  10.150 -0.4060  0.7596  0.0453
  440MOL0     H60714   6.601   2.176   9.868 -4.0665  3.1840  1.5642
  440MOL0     H60715   6.664   2.075   9.999  1.4954 -0.5958 -0.8731
  440MOL0     H60716   6.997   2.337   9.975 -0.6718  1.9206 -0.3876
  440MOL0     H60717   6.350   2.366  10.454  1.5209 -3.6277  1.6961
  440MOL0     H60718   6.167   2.497  10.707 -0.0034  1.3969 -1.9423
  440MOL0     H60719   6.231   2.343  10.769  2.9587 -0.1977 -0.6420
  440MOL0     H60720   6.328   2.445  10.657  1.2360 -2.3788  0.1264
  441MOL0     O60721   2.258   0.716   4.797  0.2350  0.0265 -0.4308
  441MOL0     C60722   2.369   0.669   4.834  0.8221 -0.8728  0.5735
  441MOL0     O60723   2.427   0.689   4.956  0.3163  0.1368  0.4504
  441MOL0     C60724   2.339   0.738   5.047 -0.1673 -0.7015 -0.2626
  441MOL0     C60725   2.248   0.649   5.097  0.2929  0.5995  0.1537
  441MOL0     C60726   2.142   0.685   5.186 -1.1598  0.0693 -0.3268
  441MOL0     C60727   2.130   0.818   5.235  0.6250 -0.0850  0.0910
  441MOL0     O60728   2.027   0.864   5.310 -1.0462  0.0613 -0.0788
  441MOL0     C60729   1.923   0.766   5.352 -0.5585  0.0474  0.2783
  441MOL0     C60730   1.826   0.841   5.435  0.0996 -0.7848  0.6440
  441MOL0     C60731   1.882   0.891   5.572 -0.3705 -0.6097 -0.8992
  441MOL0     C60732   1.784   0.981   5.646 -0.7220 -0.5791 -0.4468
  441MOL0     C60733   1.838   1.049   5.772  0.2451 -0.2019  0.2006
  441MOL0     C60734   1.719   1.131   5.843 -0.8027 -1.5649  0.1035
  441MOL0     C60735   1.785   1.250   5.921 -0.0799  0.5959  0.0554
  441MOL0     C60736   1.862   1.199   6.049 -0.3930 -0.5871  0.4381
  441MOL0     N60737   1.893   1.325   6.120 -0.7063  0.9839 -0.3940
  441MOL0     C60738   1.804   1.387   6.199  0.6606  0.0353 -0.2403
  441MOL0     C60739   1.865   1.458   6.291  0.9193  0.2578  0.8678
  441MOL0     C60740   1.800   1.554   6.393  0.5762  0.4802  0.0870
  441MOL0     C60741   1.731   1.674   6.328  0.1346 -0.2554 -0.2075
  441MOL0     C60742   1.656   1.754   6.444  0.3001 -0.3082  0.2232
  441MOL0     C60743   1.640   1.904   6.400  0.3083  0.5096 -0.5167
  441MOL0     O60744   1.525   1.914   6.308 -0.3180 -0.5937  0.5740
  441MOL0     C60745   1.535   2.038   6.248 -0.4651  0.1862  0.2696
  441MOL0     C60746   1.522   2.035   6.107 -0.6651 -0.2639 -0.4137
  441MOL0     C60747   1.515   2.152   6.034  0.6468 -0.3973 -0.1947
  441MOL0     C60748   1.514   2.135   5.879 -0.4426  1.0153  0.1468
  441MOL0     C60749   1.513   2.277   6.103 -0.9342  0.1815 -0.5123
  441MOL0     C60750   1.493   2.411   6.029  0.5411 -0.1373  0.0769
  441MOL0     O60751   1.518   2.522   6.102 -0.0757  0.2446 -0.3866
  441MOL0     C60752   1.477   2.643   6.071 -1.2166  0.8325  0.4609
  441MOL0     C60753   1.359   2.689   6.118 -0.6519  0.0841  0.7334
  441MOL0     C60754   1.314   2.815   6.081 -0.4600  0.1846  0.8658
  441MOL0     C60755   1.401   2.902   6.009 -0.2282 -0.4329  0.5920
  441MOL0     O60756   1.370   3.028   5.974 -0.7833  0.2694  0.4466
  441MOL0     C60757   1.297   3.109   6.065  0.1504  0.5007  0.8132
  441MOL0     C60758   1.394   3.221   6.089 -0.3725 -0.0750 -0.7045
  441MOL0     C60759   1.347   3.317   6.193  0.7525 -0.3525 -0.6369
  441MOL0     C60760   1.449   3.427   6.231 -0.1184 -0.0046 -0.8222
  441MOL0     C60761   1.596   3.400   6.283  0.2759 -0.2265  0.4039
  441MOL0     C60762   1.680   3.524   6.305  0.6421  0.5407 -0.1300
  441MOL0     C60763   1.823   3.501   6.318  0.1924  0.4275 -0.3532
  441MOL0     C60764   1.898   3.477   6.183 -0.6434  0.0526 -0.2179
  441MOL0    Cl60765   2.058   3.431   6.232  0.1975 -0.4493 -0.0942
  441MOL0     C60766   1.512   2.845   5.954 -0.8313 -0.5559  0.8043
  441MOL0     C60767   1.547   2.715   5.977 -0.1540  0.6773 -0.3382
  441MOL0     O60768   1.441   2.419   5.918 -0.3180  0.3595 -0.0334
  441MOL0     C60769   1.532   2.277   6.240 -0.0039  0.9033  0.1935
  441MOL0     C60770   1.542   2.160   6.319  0.0896  0.1308 -0.3705
  441MOL0     N60771   2.002   1.426   6.283  1.3679 -0.1270  0.8372
  441MOL0     N60772   2.011   1.347   6.184  0.2197 -0.4121  0.0045
  441MOL0     C60773   2.209   0.916   5.165 -0.1853  0.4173 -0.6315
  441MOL0     C60774   2.311   0.874   5.082 -0.7799 -0.1336 -0.9460
  441MOL0     C60775   2.432   0.581   4.727 -0.2239  0.0612 -0.7378
  441MOL0     C60776   2.394   0.595   4.593  0.2439  0.8083  0.5556
  441MOL0     C60777   2.446   0.506   4.495  0.4833 -0.0561 -0.0591
  441MOL0     C60778   2.522   0.397   4.533  0.6133 -0.1208  0.0613
  441MOL0     O60779   2.563   0.305   4.435 -0.7826 -0.9065 -0.3531
  441MOL0     C60780   2.458   0.244   4.348 -0.2093  0.1071  0.0852
  441MOL0     C60781   2.454   0.093   4.380  0.4077 -0.1842 -0.0945
  441MOL0     C60782   2.356   0.026   4.289  0.1902  0.7916  1.2031
  441MOL0     C60783   2.351  -0.124   4.314 -0.1226 -1.0515  0.3487
  441MOL0     C60784   2.486  -0.182   4.296 -0.3581 -1.0291 -0.7855
  441MOL0     C60785   2.596  -0.224   4.285  0.8202  0.6088 -0.7563
  441MOL0     C60786   2.550   0.379   4.657  0.4458  0.2031 -1.0753
  441MOL0     C60787   2.509   0.462   4.766  0.2662 -1.3273 -0.1196
  441MOL0     C60788   2.539   0.429   4.915 -1.0333 -0.0541 -0.7554
  441MOL0     H60789   2.260   0.547   5.062 -1.2912  0.5898 -0.4263
  441MOL0     H60790   2.076   0.607   5.223  1.3287 -0.9445  2.4112
  441MOL0     H60791   1.961   0.686   5.416 -1.6874 -2.7477 -2.3268
  441MOL0     H60792   1.875   0.733   5.260  0.6262  0.0506 -0.3532
  441MOL0     H60793   1.800   0.926   5.370  0.7742  0.4251  1.9234
  441MOL0     H60794   1.736   0.783   5.457  0.0458 -0.8842  0.1773
  441MOL0     H60795   1.910   0.807   5.636  2.3355  1.1388  0.3970
  441MOL0     H60796   1.977   0.939   5.547 -0.2643  0.4608  1.3240
  441MOL0     H60797   1.726   1.044   5.578 -0.0435  0.1957 -0.3260
  441MOL0     H60798   1.712   0.908   5.684 -1.0621 -0.1159 -0.2041
  441MOL0     H60799   1.909   1.123   5.735 -2.8289  2.9255 -0.0337
  441MOL0     H60800   1.877   0.980   5.847  0.5015  1.8383  2.0769
  441MOL0     H60801   1.647   1.168   5.770 -0.1388  0.1462  0.2799
  441MOL0     H60802   1.668   1.069   5.918 -0.0508 -1.9877  0.2864
  441MOL0     H60803   1.701   1.317   5.947  0.5480  1.1864  0.6175
  441MOL0     H60804   1.864   1.302   5.867  0.5463 -1.8645 -1.5432
  441MOL0     H60805   1.800   1.137   6.114  0.0669 -0.2894  1.1710
  441MOL0     H60806   1.953   1.143   6.029  2.0138  3.8032 -2.7080
  441MOL0     H60807   1.701   1.390   6.164 -0.5292 -3.3069  2.3841
  441MOL0     H60808   1.872   1.587   6.469 -1.0929  1.3514  1.3552
  441MOL0     H60809   1.724   1.489   6.438  2.2453 -3.2600 -1.9885
  441MOL0     H60810   1.802   1.740   6.277  0.2632  0.6644  1.1040
  441MOL0     H60811   1.651   1.646   6.260  0.2304  0.6459 -0.7127
  441MOL0     H60812   1.560   1.705   6.463  0.6485 -1.0735  0.0513
  441MOL0     H60813   1.720   1.745   6.532 -0.2655 -0.0152  0.6799
  441MOL0     H60814   1.642   1.976   6.483  0.7329  0.9007 -0.8612
  441MOL0     H60815   1.733   1.938   6.354  1.7471 -1.0996  1.0531
  441MOL0     H60816   1.514   1.936   6.064  2.6479 -0.4432 -0.9049
  441MOL0     H60817   1.565   2.041   5.856 -1.1033  0.8641 -0.7324
  441MOL0     H60818   1.561   2.218   5.825 -0.8571  1.1829  0.0407
  441MOL0     H60819   1.409   2.129   5.849 -0.1522 -0.0302 -0.7237
  441MOL0     H60820   1.299   2.632   6.188 -0.6282  1.7760  2.1850
  441MOL0     H60821   1.213   2.851   6.096  0.3656  1.5093  4.1482
  441MOL0     H60822   1.199   3.145   6.031 -0.3253 -1.2882  0.1782
  441MOL0     H60823   1.299   3.064   6.165  1.2964 -1.5333 -0.0782
  441MOL0     H60824   1.485   3.177   6.131 -0.7439 -3.1583 -2.7354
  441MOL0     H60825   1.419   3.282   6.002  0.2407  0.3417 -0.2439
  441MOL0     H60826   1.338   3.252   6.280  0.5340  1.1246  0.4877
  441MOL0     H60827   1.248   3.358   6.170 -0.9332 -1.8981  3.0837
  441MOL0     H60828   1.409   3.482   6.317  1.3255 -0.9213  0.4921
  441MOL0     H60829   1.451   3.509   6.158 -1.3762  0.3937 -0.4404
  441MOL0     H60830   1.580   3.331   6.366  2.2570  0.0465  1.0659
  441MOL0     H60831   1.645   3.353   6.197 -1.3333 -0.0544 -0.6447
  441MOL0     H60832   1.658   3.544   6.410  1.2937  2.2793 -0.2944
  441MOL0     H60833   1.663   3.607   6.235  0.6941  0.5807 -0.0946
  441MOL0     H60834   1.845   3.406   6.366  0.7814  0.2835 -0.8957
  441MOL0     H60835   1.864   3.588   6.370  0.7648 -0.2720  0.3863
  441MOL0     H60836   1.897   3.574   6.133 -1.1747 -0.8686 -2.0833
  441MOL0     H60837   1.852   3.402   6.119  1.9302 -2.2075  0.3613
  441MOL0     H60838   1.574   2.898   5.883 -2.2092  0.3103  0.2152
  441MOL0     H60839   1.642   2.676   5.942 -0.3515 -0.2515  0.1229
  441MOL0     H60840   1.525   2.373   6.292 -0.8546 -0.3121  2.4569
  441MOL0     H60841   1.536   2.177   6.426 -0.0435  1.3933 -0.5677
  441MOL0     H60842   2.186   1.016   5.202 -3.0288 -1.1021  2.1515
  441MOL0     H60843   2.378   0.946   5.034  1.0399  0.0908  1.7196
  441MOL0     H60844   2.320   0.668   4.564 -0.2926  0.3258  0.6919
  441MOL0     H60845   2.411   0.505   4.392 -2.3899 -1.3214  0.8228
  441MOL0     H60846   2.364   0.300   4.356 -1.0766 -1.0693 -1.4034
  441MOL0     H60847   2.482   0.262   4.243 -1.5764  3.7632  0.2435
  441MOL0     H60848   2.425   0.086   4.485  1.6791  1.7484  0.4333
  441MOL0     H60849   2.555   0.053   4.374  1.0903  1.4960 -0.4736
  441MOL0     H60850   2.262   0.080   4.301  0.1908  1.7645 -2.2176
  441MOL0     H60851   2.393   0.029   4.186 -2.1682 -1.7746  0.1710
  441MOL0     H60852   2.277  -0.169   4.248  2.0316 -1.2550 -2.0708
  441MOL0     H60853   2.310  -0.134   4.415 -2.2181 -0.8066 -0.4426
  441MOL0     H60854   2.693  -0.271   4.284  0.5596  0.0358 -2.7087
  441MOL0     H60855   2.610   0.292   4.683 -0.0431 -0.5435 -2.3696
  441MOL0     H60856   2.590   0.509   4.971  0.8091 -3.2976  2.6891
  441MOL0     H60857   2.448   0.405   4.969 -0.6792  1.6464  0.7003
  441MOL0     H60858   2.605   0.342   4.925  0.6444  1.1718 -0.6419
  442MOL0     O60859   1.591  11.137   4.238  0.5170  0.2226  0.1307
  442MOL0     C60860   1.691  11.089   4.171 -0.0026  1.1081  0.2054
  442MOL0     O60861   1.719  10.960   4.137 -0.4106  0.6033 -0.2838
  442MOL0     C60862   1.615  10.872   4.172 -0.5322 -0.0983 -0.2928
  442MOL0     C60863   1.552  10.794   4.079 -0.0358  0.0743 -0.4084
  442MOL0     C60864   1.461  10.689   4.100 -0.6783 -1.1070 -0.5088
  442MOL0     C60865   1.424  10.669   4.237 -0.9796  0.3850 -0.1076
  442MOL0     O60866   1.317  10.588   4.254  0.5476 -0.7826  0.0975
  442MOL0     C60867   1.234  10.634   4.359 -0.3706 -0.0909 -0.3597
  442MOL0     C60868   1.105  10.558   4.343 -1.4080 -0.3013  0.1838
  442MOL0     C60869   1.020  10.569   4.220  0.5630  0.2550  0.4624
  442MOL0     C60870   0.891  10.494   4.249 -0.8540  0.0867  0.1176
  442MOL0     C60871   0.779  10.592   4.293  0.3149 -0.1669 -0.6960
  442MOL0     C60872   0.676  10.520   4.386  0.2638 -0.0094 -0.7518
  442MOL0     C60873   0.612  10.414   4.305  0.5269 -0.0124 -0.6643
  442MOL0     C60874   0.488  10.375   4.389  0.7389  0.3101 -0.1537
  442MOL0     N60875   0.404  10.265   4.328  0.0399 -0.6154 -0.3837
  442MOL0     C60876   0.372  10.141   4.384 -0.4946 -0.5004  0.8207
  442MOL0     C60877   0.292  10.080   4.298  0.4023  0.1636 -0.6684
  442MOL0     C60878   0.238   9.936   4.294  0.7010 -0.7223 -0.7673
  442MOL0     C60879   0.085   9.919   4.280  0.1250  0.5699 -0.3836
  442MOL0     C60880   0.049   9.758   4.278  0.3512 -1.4956 -0.4233
  442MOL0     C60881  -0.103   9.725   4.280  0.0220 -0.0725 -0.9630
  442MOL0     O60882  -0.150   9.756   4.413 -0.6865  0.0071 -0.3781
  442MOL0     C60883  -0.279   9.728   4.459  0.6380 -0.3632 -0.0178
  442MOL0     C60884  -0.320   9.771   4.590  0.8089 -0.5730 -0.2575
  442MOL0     C60885  -0.458   9.763   4.628 -1.3020 -1.0505 -0.2986
  442MOL0     C60886  -0.495   9.835   4.758  0.2496 -0.6246 -0.5501
  442MOL0     C60887  -0.556   9.713   4.529 -0.5371 -0.5350 -0.4422
  442MOL0     C60888  -0.695   9.678   4.556 -0.2705  0.7882  0.4023
  442MOL0     O60889  -0.770   9.633   4.445  0.2102 -0.5374 -0.3583
  442MOL0     C60890  -0.897   9.602   4.475  0.0233 -0.1703  0.7110
  442MOL0     C60891  -1.004   9.688   4.436 -0.0839 -0.1542 -0.0711
  442MOL0     C60892  -1.138   9.646   4.463 -0.6959  0.0062  0.3587
  442MOL0     C60893  -1.169   9.529   4.528  0.2990 -0.1059 -0.2105
  442MOL0     O60894  -1.305   9.499   4.538 -0.7961 -0.5270  0.2261
  442MOL0     C60895  -1.357   9.468   4.660  0.2668 -0.0902 -0.2968
  442MOL0     C60896  -1.464   9.355   4.647 -0.7271  0.0733  0.0440
  442MOL0     C60897  -1.588   9.383   4.556 -0.4684 -0.6420 -0.2254
  442MOL0     C60898  -1.677   9.493   4.609 -0.7215 -0.4668  0.0161
  442MOL0     C60899  -1.828   9.481   4.579  0.3959 -0.2359 -1.0915
  442MOL0     C60900  -1.870   9.455   4.427  0.2595 -0.6636 -0.6802
  442MOL0     C60901  -2.023   9.449   4.433 -0.9770  1.1881  0.3138
  442MOL0     C60902  -2.081   9.408   4.299  0.3417  0.3879  0.4145
  442MOL0    Cl60903  -2.042   9.516   4.163  0.3622  0.4029  0.4096
  442MOL0     C60904  -1.061   9.453   4.580 -0.1479  0.6221  0.5833
  442MOL0     C60905  -0.927   9.488   4.556 -0.8861 -0.0772 -0.1819
  442MOL0     O60906  -0.738   9.692   4.666  0.2726 -0.7845  0.1774
  442MOL0     C60907  -0.502   9.657   4.417 -1.4097 -0.0663  0.3675
  442MOL0     C60908  -0.368   9.672   4.366  0.3349 -0.2316  0.0542
  442MOL0     N60909   0.283  10.159   4.182 -0.0600  0.5081  0.1176
  442MOL0     N60910   0.353  10.266   4.202  0.7122 -0.2671  0.5228
  442MOL0     C60911   1.491  10.738   4.340 -0.2507 -0.0142 -0.6299
  442MOL0     C60912   1.588  10.834   4.303  0.8797  0.1289  0.7134
  442MOL0     C60913   1.790  11.178   4.103 -0.1982  0.1296  0.5681
  442MOL0     C60914   1.735  11.293   4.035 -1.5492 -0.3658  0.6521
  442MOL0     C60915   1.812  11.385   3.960  0.2911 -0.9382 -0.3126
  442MOL0     C60916   1.955  11.372   3.972 -0.0047  0.7582 -0.0149
  442MOL0     O60917   2.048  11.453   3.912  0.2825  0.0733  0.3937
  442MOL0     C60918   2.038  11.592   3.963  0.0818  0.0008  0.9155
  442MOL0     C60919   2.137  11.655   3.863  0.1260  0.3380 -0.5570
  442MOL0     C60920   2.148  11.803   3.902 -0.1510  0.2118 -1.0160
  442MOL0     C60921   2.034  11.886   3.841 -0.4032  0.5100 -0.2373
  442MOL0     C60922   2.060  12.034   3.845  0.2205  0.2150  0.6454
  442MOL0     C60923   2.077  12.152   3.843 -0.6968 -0.0932  0.1126
  442MOL0     C60924   2.006  11.261   4.031  0.1948  0.2852 -0.1326
  442MOL0     C60925   1.934  11.167   4.096 -0.5922  1.5525  0.7826
  442MOL0     C60926   2.010  11.047   4.139 -0.7958  0.0681 -0.2376
  442MOL0     H60927   1.558  10.822   3.975  3.0199  0.3923 -0.2244
  442MOL0     H60928   1.400  10.648   4.020 -1.3929  1.9713 -1.6936
  442MOL0     H60929   1.209  10.741   4.354 -0.9753 -0.2871 -2.0019
  442MOL0     H60930   1.271  10.612   4.460 -0.0924 -0.4136 -0.5331
  442MOL0     H60931   1.128  10.458   4.380 -0.7562  0.3895  1.7435
  442MOL0     H60932   1.045  10.604   4.422  0.0046  2.1524 -0.0355
  442MOL0     H60933   1.016  10.677   4.198 -1.2880  0.0049 -0.5919
  442MOL0     H60934   1.071  10.514   4.140 -2.8931 -1.6596 -0.5944
  442MOL0     H60935   0.870  10.445   4.154  0.9432  0.2070 -0.3736
  442MOL0     H60936   0.897  10.413   4.322 -1.0246  0.5583  0.6624
  442MOL0     H60937   0.739  10.653   4.212  2.5693  0.1522 -1.6358
  442MOL0     H60938   0.828  10.662   4.361 -0.2271  1.0615 -1.5273
  442MOL0     H60939   0.710  10.481   4.483 -1.8374 -4.3727 -1.5501
  442MOL0     H60940   0.604  10.599   4.408 -0.9592 -0.7459 -2.0136
  442MOL0     H60941   0.675  10.325   4.305  0.2574 -0.2093  0.0323
  442MOL0     H60942   0.582  10.448   4.205 -1.6010 -0.9803 -0.3984
  442MOL0     H60943   0.515  10.346   4.491  0.2776  0.8395  0.1252
  442MOL0     H60944   0.426  10.460   4.417  1.5570  0.3367  1.7481
  442MOL0     H60945   0.396  10.106   4.484  2.9865 -0.3938  0.1455
  442MOL0     H60946   0.270   9.895   4.390 -1.9499  0.9861  0.9775
  442MOL0     H60947   0.282   9.878   4.212  0.0650 -0.5545 -1.2318
  442MOL0     H60948   0.026   9.966   4.360 -3.6856 -0.8588 -2.1390
  442MOL0     H60949   0.067   9.963   4.182 -0.9176 -0.5358 -0.7088
  442MOL0     H60950   0.105   9.726   4.190  1.6996  0.7536 -0.4790
  442MOL0     H60951   0.088   9.712   4.369 -0.0391 -2.5663 -0.7912
  442MOL0     H60952  -0.150   9.785   4.201  2.0622  1.4198 -1.1365
  442MOL0     H60953  -0.113   9.618   4.263 -1.5342 -0.5321  2.1819
  442MOL0     H60954  -0.245   9.808   4.658  0.0528 -1.5474  1.1381
  442MOL0     H60955  -0.563   9.775   4.820  0.3000  0.0720  0.2000
  442MOL0     H60956  -0.548   9.926   4.732 -3.4441 -1.0294  4.1091
  442MOL0     H60957  -0.417   9.867   4.828 -0.1251 -0.1239 -0.3595
  442MOL0     H60958  -0.992   9.788   4.396  0.7193 -0.5661 -0.8750
  442MOL0     H60959  -1.225   9.704   4.432 -2.1200 -0.4731  3.1304
  442MOL0     H60960  -1.277   9.428   4.723  1.4998  0.5767 -1.3692
  442MOL0     H60961  -1.397   9.563   4.696  1.3703  0.2026  0.2171
  442MOL0     H60962  -1.426   9.256   4.622  2.4224  1.1022  0.2221
  442MOL0     H60963  -1.507   9.342   4.747  0.8877 -0.1686  0.7420
  442MOL0     H60964  -1.649   9.294   4.539  0.1748 -1.0950 -0.1801
  442MOL0     H60965  -1.551   9.419   4.460 -0.8476  1.0831  0.2327
  442MOL0     H60966  -1.644   9.583   4.556 -0.3532 -0.4752  0.2211
  442MOL0     H60967  -1.666   9.498   4.718 -1.3183 -2.7517  0.2426
  442MOL0     H60968  -1.871   9.398   4.636  0.6159  0.5696  0.3107
  442MOL0     H60969  -1.881   9.569   4.617  1.2664  1.0272 -2.7028
  442MOL0     H60970  -1.826   9.363   4.387 -0.9743 -2.0722  1.0585
  442MOL0     H60971  -1.846   9.539   4.362 -0.8593  1.1933  1.2052
  442MOL0     H60972  -2.073   9.544   4.456  2.1933  3.1331 -0.2528
  442MOL0     H60973  -2.045   9.372   4.507 -2.5862 -1.5615 -2.7521
  442MOL0     H60974  -2.190   9.399   4.312  0.1437 -1.6448 -1.9703
  442MOL0     H60975  -2.043   9.310   4.269  0.5683  0.2648  1.0781
  442MOL0     H60976  -1.088   9.364   4.637 -1.4277 -0.1846 -1.1785
  442MOL0     H60977  -0.844   9.432   4.597 -2.4011 -2.9164 -0.7576
  442MOL0     H60978  -0.563   9.603   4.345  1.3818 -1.5617 -1.0548
  442MOL0     H60979  -0.343   9.634   4.268  2.6820  1.2054 -0.0032
  442MOL0     H60980   1.468  10.712   4.443 -2.3146 -0.0354 -1.0475
  442MOL0     H60981   1.652  10.883   4.377  3.7756 -0.3968 -1.2871
  442MOL0     H60982   1.627  11.303   4.031 -1.5298  0.2386 -3.4489
  442MOL0     H60983   1.753  11.461   3.911 -0.9262 -1.5136  0.2328
  442MOL0     H60984   1.933  11.618   3.949  0.1606 -0.7348 -1.3026
  442MOL0     H60985   2.064  11.594   4.070 -1.1784  0.6188  1.2302
  442MOL0     H60986   2.124  11.634   3.756  1.2636  0.5801 -0.7593
  442MOL0     H60987   2.239  11.621   3.886  0.7618  1.4936 -1.4866
  442MOL0     H60988   2.139  11.815   4.010 -1.8776  0.9431 -1.2073
  442MOL0     H60989   2.245  11.850   3.879 -1.2102  3.1576 -0.0224
  442MOL0     H60990   1.943  11.852   3.891 -1.0158  1.2587 -0.8083
  442MOL0     H60991   2.034  11.856   3.736 -0.5829  3.1311 -1.0693
  442MOL0     H60992   2.091  12.257   3.834  1.1845 -0.3925 -1.2272
  442MOL0     H60993   2.114  11.250   4.030  0.6033  2.8050  2.2524
  442MOL0     H60994   1.971  10.997   4.228 -2.1012  0.1944 -0.7058
  442MOL0     H60995   2.005  10.982   4.051 -1.6709  0.8013 -0.7534
  442MOL0     H60996   2.116  11.067   4.154 -0.7787 -0.0041 -0.2625
  443MOL0     O60997   3.795   1.951   0.678 -0.2984 -0.2374  0.3669
  443MOL0     C60998   3.773   1.836   0.702  0.3704  0.4744  0.0700
  443MOL0     O60999   3.862   1.743   0.758  0.5349 -0.0816 -0.1158
  443MOL0     C61000   3.981   1.788   0.814  0.6469 -0.0784 -0.3483
  443MOL0     C61001   3.982   1.890   0.913  0.0630  0.3643  0.2781
  443MOL0     C61002   4.105   1.919   0.963  0.2567 -0.2757 -0.0619
  443MOL0     C61003   4.220   1.848   0.933 -0.4699  1.4991 -0.0901
  443MOL0     O61004   4.334   1.865   1.007 -0.4481 -0.7281  0.3408
  443MOL0     C61005   4.450   1.908   0.944 -0.3163  0.1943  0.2654
  443MOL0     C61006   4.557   1.888   1.045 -0.1400 -0.3006 -0.3636
  443MOL0     C61007   4.691   1.853   0.981 -0.1819 -0.1576  0.4797
  443MOL0     C61008   4.799   1.900   1.072  0.1667  0.3266  0.0255
  443MOL0     C61009   4.941   1.854   1.044  0.1482 -0.1707  0.5914
  443MOL0     C61010   5.001   1.923   0.925 -0.8581 -0.0166 -0.3895
  443MOL0     C61011   5.146   1.877   0.905 -0.0581 -0.6303 -0.4539
  443MOL0     C61012   5.246   1.890   1.021 -0.1135 -0.6818  0.1415
  443MOL0     N61013   5.376   1.832   0.985 -0.0711 -0.8472  0.4614
  443MOL0     C61014   5.450   1.843   0.864 -0.4837  0.0156 -0.9684
  443MOL0     C61015   5.556   1.763   0.882  0.0803 -0.1940 -0.1208
  443MOL0     C61016   5.666   1.745   0.780 -0.2197 -0.3851 -0.7927
  443MOL0     C61017   5.789   1.820   0.811  0.2171 -0.4427  0.7638
  443MOL0     C61018   5.906   1.762   0.727 -0.0211 -1.0902 -0.2231
  443MOL0     C61019   6.037   1.826   0.774  0.2117 -0.0049 -0.0686
  443MOL0     O61020   6.141   1.778   0.696  0.2551  0.1642  0.5453
  443MOL0     C61021   6.271   1.787   0.730  0.8092  0.7589 -0.2197
  443MOL0     C61022   6.314   1.858   0.842 -0.1187 -0.1623 -0.1215
  443MOL0     C61023   6.454   1.873   0.870 -0.6916 -0.7167  0.0046
  443MOL0     C61024   6.492   1.938   0.997 -1.8514  0.3525  0.5911
  443MOL0     C61025   6.548   1.802   0.786  0.2290  0.1665 -0.0417
  443MOL0     C61026   6.702   1.800   0.809  0.9679  0.4649  0.2067
  443MOL0     O61027   6.777   1.718   0.729 -0.0335  0.9461 -0.5655
  443MOL0     C61028   6.913   1.703   0.754  0.5554 -0.3059 -0.1859
  443MOL0     C61029   6.991   1.720   0.645 -0.9138  0.0593  0.0571
  443MOL0     C61030   7.138   1.730   0.662 -0.2313 -0.0050 -0.6312
  443MOL0     C61031   7.193   1.719   0.794 -0.1303 -0.8251  0.9831
  443MOL0     O61032   7.324   1.760   0.804  0.4711 -0.1025 -0.6536
  443MOL0     C61033   7.416   1.686   0.888  0.5387 -0.4831 -0.1103
  443MOL0     C61034   7.505   1.593   0.806 -0.0030  0.7992 -0.5205
  443MOL0     C61035   7.557   1.474   0.889 -0.4324  0.3466  0.6733
  443MOL0     C61036   7.648   1.393   0.798  0.5192 -0.3625 -0.2109
  443MOL0     C61037   7.701   1.272   0.853  0.0391  1.1311  0.8671
  443MOL0     C61038   7.590   1.157   0.866  0.0081 -0.0774 -0.8824
  443MOL0     C61039   7.659   1.028   0.904 -0.0426  0.4997  0.6853
  443MOL0     C61040   7.572   0.918   0.977 -0.4101  1.0018 -1.0272
  443MOL0    Cl61041   7.443   0.844   0.876 -0.1130  0.1912 -0.0555
  443MOL0     C61042   7.106   1.689   0.894 -0.6650  0.6954 -0.5995
  443MOL0     C61043   6.971   1.678   0.882  0.3902  0.5297 -0.1857
  443MOL0     O61044   6.741   1.856   0.910  0.3916 -0.2732  0.0986
  443MOL0     C61045   6.508   1.744   0.666  0.5504 -0.3730  0.3991
  443MOL0     C61046   6.366   1.728   0.647  0.3623 -0.2854  0.0271
  443MOL0     N61047   5.550   1.700   1.004 -0.1712  0.0037 -0.3816
  443MOL0     N61048   5.441   1.740   1.064 -0.5026  0.2540  0.3834
  443MOL0     C61049   4.210   1.752   0.837  1.0972  0.3110 -0.3464
  443MOL0     C61050   4.095   1.725   0.769  0.4564  0.8400 -0.7947
  443MOL0     C61051   3.641   1.789   0.667 -0.4136  0.1485 -0.3944
  443MOL0     C61052   3.569   1.743   0.773  0.7821 -0.8282 -0.6311
  443MOL0     C61053   3.456   1.661   0.754  0.8724 -0.6468  0.6412
  443MOL0     C61054   3.410   1.642   0.625 -0.0501 -0.2718 -0.7628
  443MOL0     O61055   3.295   1.576   0.595 -0.1555 -0.5649  0.3451
  443MOL0     C61056   3.220   1.503   0.703 -0.4401  0.2761  0.9914
  443MOL0     C61057   3.129   1.405   0.650  0.8250 -0.3805 -0.6434
  443MOL0     C61058   3.063   1.442   0.522  0.3032  0.2980 -0.3847
  443MOL0     C61059   2.983   1.335   0.459  0.3827  0.9133 -0.1646
  443MOL0     C61060   2.879   1.291   0.559  0.2944 -0.2569  0.1875
  443MOL0     C61061   2.773   1.264   0.617 -0.8374  0.1632 -0.0855
  443MOL0     C61062   3.477   1.693   0.517 -0.1591 -0.5418 -0.6605
  443MOL0     C61063   3.593   1.767   0.532 -0.4334 -0.3296 -0.7271
  443MOL0     C61064   3.672   1.793   0.410  0.0591  0.2696  0.0996
  443MOL0     H61065   3.894   1.949   0.936 -0.7351 -0.8842  0.5070
  443MOL0     H61066   4.119   1.987   1.046 -1.6375  1.8364 -1.3703
  443MOL0     H61067   4.443   2.012   0.913  2.2657  0.9487  1.9349
  443MOL0     H61068   4.464   1.845   0.856  0.8683 -1.1604  1.3693
  443MOL0     H61069   4.561   1.974   1.113 -1.1628 -1.9396  1.8557
  443MOL0     H61070   4.539   1.799   1.105  3.0671 -0.1946  0.9517
  443MOL0     H61071   4.698   1.745   0.961  0.1526 -0.0525  0.0070
  443MOL0     H61072   4.703   1.903   0.884  0.0611  0.6166  0.9031
  443MOL0     H61073   4.807   2.008   1.085  1.4226  0.3268 -0.5770
  443MOL0     H61074   4.770   1.852   1.165  1.5355 -1.5016 -0.4350
  443MOL0     H61075   4.954   1.746   1.029  3.2051  0.2445 -0.2208
  443MOL0     H61076   4.999   1.877   1.134  1.1080  2.9083 -0.7128
  443MOL0     H61077   4.949   1.898   0.832 -0.9032  4.5750 -1.8267
  443MOL0     H61078   4.987   2.029   0.945 -2.2084  0.2481 -2.5079
  443MOL0     H61079   5.187   1.940   0.825  0.6352 -2.2373 -1.4320
  443MOL0     H61080   5.139   1.775   0.865 -4.0511 -0.3423 -0.8558
  443MOL0     H61081   5.275   1.995   1.030 -2.2425 -0.0690  0.4040
  443MOL0     H61082   5.214   1.854   1.120  2.6726 -1.1824  0.9549
  443MOL0     H61083   5.429   1.897   0.772 -2.0725 -2.1767 -2.0011
  443MOL0     H61084   5.633   1.776   0.681 -3.1902  1.9081  0.7511
  443MOL0     H61085   5.687   1.638   0.772  2.3507  0.0057 -0.0030
  443MOL0     H61086   5.775   1.928   0.798  0.0651 -0.7427 -2.3174
  443MOL0     H61087   5.808   1.801   0.917  1.5810 -1.0246  0.4287
  443MOL0     H61088   5.920   1.654   0.732 -0.3107 -1.0951  0.5573
  443MOL0     H61089   5.876   1.784   0.624 -2.7466 -0.6136  0.5923
  443MOL0     H61090   6.037   1.935   0.786 -4.0579 -0.1146  3.8431
  443MOL0     H61091   6.044   1.790   0.877 -1.9524  0.8885  0.4523
  443MOL0     H61092   6.252   1.901   0.920  3.8947  2.8494  1.8084
  443MOL0     H61093   6.544   1.868   1.063  2.3678  0.6442 -2.0817
  443MOL0     H61094   6.404   1.981   1.045 -1.5196  0.1796  1.3645
  443MOL0     H61095   6.558   2.024   0.985 -1.5177 -0.1345 -1.3809
  443MOL0     H61096   6.945   1.716   0.547  1.3050 -1.6771 -1.0109
  443MOL0     H61097   7.201   1.758   0.578  1.8919 -0.2323  0.8188
  443MOL0     H61098   7.478   1.761   0.939  0.1990 -1.9002  2.5778
  443MOL0     H61099   7.365   1.630   0.966 -0.4273  2.4526  1.5304
  443MOL0     H61100   7.438   1.560   0.726 -3.3913  1.1325  1.9308
  443MOL0     H61101   7.592   1.651   0.773  0.4767  0.0264 -0.6219
  443MOL0     H61102   7.485   1.403   0.932  0.0437 -1.4860 -1.3457
  443MOL0     H61103   7.616   1.513   0.973  1.6266 -2.2602  0.5576
  443MOL0     H61104   7.727   1.462   0.768  0.1967  0.3574  0.5557
  443MOL0     H61105   7.588   1.369   0.710  0.1786 -0.4541  0.0449
  443MOL0     H61106   7.784   1.247   0.786 -0.7942  2.6799 -0.8165
  443MOL0     H61107   7.750   1.279   0.950  0.5895 -1.2825  0.8265
  443MOL0     H61108   7.520   1.130   0.786 -0.9519  0.7267 -0.3458
  443MOL0     H61109   7.532   1.182   0.956 -1.0455 -2.9920 -0.6628
  443MOL0     H61110   7.737   1.057   0.975  1.7237 -1.6498 -0.2548
  443MOL0     H61111   7.700   0.985   0.812 -0.1648 -1.5086  1.5088
  443MOL0     H61112   7.524   0.966   1.062 -0.4064 -3.5312  1.8313
  443MOL0     H61113   7.625   0.833   1.019 -2.7553 -0.4071 -0.7864
  443MOL0     H61114   7.125   1.679   1.000 -3.9589 -0.0408  0.0354
  443MOL0     H61115   6.911   1.663   0.971  0.8867 -1.2529 -0.1085
  443MOL0     H61116   6.567   1.716   0.579 -2.6406  1.0456 -2.4499
  443MOL0     H61117   6.330   1.678   0.557 -1.2358  3.4784 -1.6587
  443MOL0     H61118   4.298   1.689   0.826 -0.2355 -1.8215  0.4552
  443MOL0     H61119   4.092   1.649   0.692  1.7418 -1.7663  1.5199
  443MOL0     H61120   3.612   1.751   0.872  0.9993  1.4953 -0.8605
  443MOL0     H61121   3.397   1.630   0.839 -1.5572  1.0044 -0.3384
  443MOL0     H61122   3.298   1.454   0.762  0.7175  4.0273  2.9124
  443MOL0     H61123   3.166   1.568   0.773  0.4146  1.7739  0.3186
  443MOL0     H61124   3.065   1.370   0.733  0.3293 -1.2452 -1.3717
  443MOL0     H61125   3.203   1.326   0.636  2.7445  1.0316  0.8546
  443MOL0     H61126   3.006   1.535   0.531  0.2517  0.8405 -4.2967
  443MOL0     H61127   3.136   1.476   0.447  1.4484 -0.6963  0.2574
  443MOL0     H61128   3.056   1.254   0.454 -0.0098  0.4941  0.6946
  443MOL0     H61129   2.927   1.360   0.368 -1.4954 -0.5005  0.5308
  443MOL0     H61130   2.688   1.239   0.678  0.0061  1.2403  1.6012
  443MOL0     H61131   3.435   1.683   0.418 -2.0037 -2.4716  0.2567
  443MOL0     H61132   3.687   1.703   0.350 -3.2090  0.7727 -1.6829
  443MOL0     H61133   3.622   1.863   0.343 -0.9278 -0.3753  0.1477
  443MOL0     H61134   3.769   1.844   0.421 -0.1257  1.0836 -1.7146
  444MOL0     O61135   4.863   8.688   8.945  0.5642  0.1034  0.1905
  444MOL0     C61136   4.774   8.763   8.916 -0.0530 -0.0072  0.3377
  444MOL0     O61137   4.744   8.790   8.790 -0.5278  0.8973 -0.2846
  444MOL0     C61138   4.834   8.761   8.692 -0.9767  0.0775 -0.6034
  444MOL0     C61139   4.979   8.783   8.706  0.4627  0.8352  0.0481
  444MOL0     C61140   5.068   8.746   8.606 -0.0614 -0.4451  0.6257
  444MOL0     C61141   5.019   8.690   8.489  0.0310 -0.1235  0.4452
  444MOL0     O61142   5.105   8.638   8.392  0.4200 -0.0071 -0.6260
  444MOL0     C61143   5.125   8.498   8.417 -0.8300 -0.2604 -0.6844
  444MOL0     C61144   5.260   8.472   8.497 -1.1907  0.2645 -0.0421
  444MOL0     C61145   5.373   8.516   8.408  0.3514 -0.0672  0.0720
  444MOL0     C61146   5.513   8.475   8.463  0.5955  0.3868 -0.0696
  444MOL0     C61147   5.628   8.480   8.360 -0.2136 -0.8842  0.4782
  444MOL0     C61148   5.760   8.480   8.425  0.2113  0.0420 -0.3675
  444MOL0     C61149   5.874   8.493   8.320  0.3847 -0.8249  0.1971
  444MOL0     C61150   6.008   8.503   8.387 -0.2239 -0.2266  0.2926
  444MOL0     N61151   6.113   8.468   8.292  0.4276  0.3220  0.2182
  444MOL0     C61152   6.220   8.392   8.329 -0.2473  0.0518  0.2751
  444MOL0     C61153   6.312   8.402   8.224  0.7450 -0.3804  0.1013
  444MOL0     C61154   6.453   8.345   8.234 -0.8751 -0.6280  0.6273
  444MOL0     C61155   6.539   8.454   8.321  0.1963 -0.3315  0.1073
  444MOL0     C61156   6.688   8.428   8.309 -0.4589 -0.0317 -0.5486
  444MOL0     C61157   6.760   8.522   8.405 -1.7281  0.1442 -0.6249
  444MOL0     O61158   6.716   8.665   8.393 -0.2825  0.0639 -0.2694
  444MOL0     C61159   6.781   8.754   8.462  0.5300  0.2118 -0.0410
  444MOL0     C61160   6.738   8.881   8.439 -0.1622 -1.1396 -0.4941
  444MOL0     C61161   6.791   8.991   8.515 -0.0632 -0.7849  0.1312
  444MOL0     C61162   6.726   9.127   8.500  0.7947 -1.2845 -0.6110
  444MOL0     C61163   6.907   8.961   8.603 -0.5961  0.7547  0.0276
  444MOL0     C61164   6.979   9.062   8.695 -0.0080 -0.3280 -0.4326
  444MOL0     O61165   7.110   9.019   8.731  0.4791  0.0766  0.0913
  444MOL0     C61166   7.169   9.081   8.835  0.3858 -1.5897 -0.5385
  444MOL0     C61167   7.293   9.159   8.836 -0.0594  0.4928  0.2533
  444MOL0     C61168   7.354   9.191   8.954 -0.0659 -0.2783 -0.8070
  444MOL0     C61169   7.298   9.164   9.079 -0.2342 -0.7636 -0.2157
  444MOL0     O61170   7.372   9.199   9.188 -0.6123  0.3038 -0.2087
  444MOL0     C61171   7.301   9.294   9.273  0.1567 -0.6730  0.0732
  444MOL0     C61172   7.265   9.433   9.215  0.4061 -0.2736  0.1205
  444MOL0     C61173   7.393   9.505   9.160  0.0883 -1.3439 -0.3983
  444MOL0     C61174   7.482   9.570   9.276  0.7356 -0.2735  0.9613
  444MOL0     C61175   7.604   9.639   9.209 -0.2835 -0.7589 -0.8760
  444MOL0     C61176   7.725   9.660   9.295 -0.0571  0.3973  0.8124
  444MOL0     C61177   7.801   9.753   9.221 -0.1754 -0.2631  0.2380
  444MOL0     C61178   7.937   9.778   9.281  0.3915  0.2302 -0.3379
  444MOL0    Cl61179   7.925   9.803   9.449  0.1442 -0.3176  0.2348
  444MOL0     C61180   7.178   9.094   9.083 -0.3358  0.3928 -0.8048
  444MOL0     C61181   7.111   9.047   8.967 -0.7335  0.9130  0.0762
  444MOL0     O61182   6.925   9.172   8.720 -0.6067 -0.4714  0.5452
  444MOL0     C61183   6.962   8.825   8.600 -0.1496 -0.2357  0.1895
  444MOL0     C61184   6.890   8.731   8.546 -0.3443 -1.3166  0.2253
  444MOL0     N61185   6.254   8.484   8.127  0.2079  0.9050  0.7579
  444MOL0     N61186   6.142   8.531   8.176  0.2804 -0.9152 -0.3734
  444MOL0     C61187   4.880   8.663   8.473 -0.1416  0.6359 -0.7121
  444MOL0     C61188   4.792   8.700   8.572 -0.0520 -0.1257  0.0706
  444MOL0     C61189   4.682   8.807   9.021 -1.0877 -0.4688 -0.4089
  444MOL0     C61190   4.555   8.844   8.974  0.0858 -0.2281 -0.0984
  444MOL0     C61191   4.473   8.918   9.060  1.2047  0.6071  0.5644
  444MOL0     C61192   4.502   8.929   9.199  0.0494  0.3477  0.1453
  444MOL0     O61193   4.410   8.992   9.271  0.0871  0.2516 -0.1736
  444MOL0     C61194   4.460   9.083   9.373  0.3534  1.4306  0.0022
  444MOL0     C61195   4.350   9.199   9.369  0.2937 -0.4563  0.0359
  444MOL0     C61196   4.202   9.145   9.380  0.2949  0.3156 -2.0610
  444MOL0     C61197   4.111   9.184   9.507 -1.2071  1.0794  0.1169
  444MOL0     C61198   4.079   9.077   9.600 -1.2211 -0.1603 -0.4249
  444MOL0     C61199   4.070   9.015   9.708  0.3156 -0.3713  0.6000
  444MOL0     C61200   4.623   8.889   9.252  0.5090  1.1099  0.7566
  444MOL0     C61201   4.711   8.820   9.159  0.1830  0.2115 -0.0723
  444MOL0     C61202   4.842   8.766   9.215 -0.2994  0.1167 -0.0182
  444MOL0     H61203   5.019   8.822   8.799 -0.9375 -1.4600  1.7412
  444MOL0     H61204   5.176   8.757   8.615  0.0364 -1.1794  0.4478
  444MOL0     H61205   5.131   8.449   8.319 -0.1197 -2.6096  0.4693
  444MOL0     H61206   5.036   8.458   8.467  0.9002 -3.5127  0.0296
  444MOL0     H61207   5.253   8.527   8.592  1.6838 -0.8307  0.9207
  444MOL0     H61208   5.278   8.365   8.511 -1.8009  0.3758  1.9771
  444MOL0     H61209   5.359   8.467   8.311  2.1170 -2.4681  0.9365
  444MOL0     H61210   5.357   8.624   8.400  0.9779  0.0077 -0.1883
  444MOL0     H61211   5.523   8.560   8.531  1.5178  0.0034  0.2958
  444MOL0     H61212   5.531   8.381   8.515  1.7444  1.1973  1.0764
  444MOL0     H61213   5.616   8.573   8.304  0.5132 -1.9635 -1.5759
  444MOL0     H61214   5.625   8.392   8.295  4.3313  0.5916 -2.1240
  444MOL0     H61215   5.759   8.574   8.480 -2.6249 -0.3919  0.4760
  444MOL0     H61216   5.788   8.402   8.495  0.8836  2.3956  2.1589
  444MOL0     H61217   5.851   8.584   8.264  0.1209  1.1718  3.3270
  444MOL0     H61218   5.864   8.402   8.259  1.0800 -1.3754  0.8806
  444MOL0     H61219   6.020   8.604   8.426  1.4724 -0.3171  0.0935
  444MOL0     H61220   6.006   8.424   8.462 -2.5051 -2.1096 -1.5841
  444MOL0     H61221   6.216   8.347   8.427 -1.3971 -0.8055 -0.1350
  444MOL0     H61222   6.487   8.340   8.130 -0.9499 -0.9367  0.6182
  444MOL0     H61223   6.453   8.246   8.280  0.2963 -1.0498 -0.2382
  444MOL0     H61224   6.518   8.558   8.293  1.9147 -0.1502 -0.6416
  444MOL0     H61225   6.507   8.448   8.426 -3.4960 -0.9098 -0.9124
  444MOL0     H61226   6.712   8.324   8.333 -0.5369 -0.0033 -0.3473
  444MOL0     H61227   6.715   8.448   8.205  0.3101  1.8426 -0.0273
  444MOL0     H61228   6.754   8.483   8.507 -0.2537 -0.7385 -0.8466
  444MOL0     H61229   6.862   8.509   8.368 -2.0979 -1.0671 -1.2490
  444MOL0     H61230   6.659   8.901   8.366  0.5064 -0.2614 -0.9918
  444MOL0     H61231   6.788   9.209   8.465 -3.7597  1.7379 -2.5486
  444MOL0     H61232   6.684   9.164   8.595 -0.9649 -0.8895 -1.5057
  444MOL0     H61233   6.644   9.122   8.428 -2.4147  0.6936  2.5588
  444MOL0     H61234   7.336   9.174   8.737 -1.6749 -0.4689 -0.6439
  444MOL0     H61235   7.454   9.234   8.960 -0.3591  0.3961 -0.6357
  444MOL0     H61236   7.212   9.241   9.310  1.0641 -0.6618  2.4391
  444MOL0     H61237   7.363   9.316   9.360 -0.7038  2.3563  0.0534
  444MOL0     H61238   7.199   9.406   9.131 -2.1023  1.1283  1.5180
  444MOL0     H61239   7.197   9.489   9.279 -1.3406  0.9185 -2.5964
  444MOL0     H61240   7.348   9.586   9.102 -2.1863 -2.2135  0.0547
  444MOL0     H61241   7.447   9.444   9.087  3.9924  1.2669  0.0016
  444MOL0     H61242   7.520   9.499   9.351  4.8943  1.3948  0.7118
  444MOL0     H61243   7.420   9.643   9.330 -2.8533 -1.6309 -0.9601
  444MOL0     H61244   7.631   9.571   9.127 -0.8402 -2.1282  0.0440
  444MOL0     H61245   7.569   9.734   9.168  0.1298 -0.6335 -0.9534
  444MOL0     H61246   7.769   9.562   9.315 -1.0338  0.0948  1.5914
  444MOL0     H61247   7.685   9.703   9.388  0.3465  2.0364  0.2443
  444MOL0     H61248   7.744   9.846   9.211 -0.3167 -0.4473 -0.8226
  444MOL0     H61249   7.819   9.717   9.119  0.1207  1.9896 -0.5636
  444MOL0     H61250   7.978   9.864   9.228 -1.4105  0.8046 -0.8854
  444MOL0     H61251   8.007   9.695   9.270  1.1196  0.8183 -0.2251
  444MOL0     H61252   7.135   9.068   9.179  1.5822 -1.3595 -0.3425
  444MOL0     H61253   7.023   8.985   8.974 -1.2217  1.0592 -3.2091
  444MOL0     H61254   7.047   8.790   8.658 -1.2518 -3.3099  0.1075
  444MOL0     H61255   6.933   8.633   8.565 -1.8733 -1.6726  2.1657
  444MOL0     H61256   4.846   8.613   8.383  0.4043  0.7358 -0.9745
  444MOL0     H61257   4.685   8.685   8.557  0.1955  0.1000 -2.2505
  444MOL0     H61258   4.526   8.824   8.871  4.6085  0.0986 -1.6572
  444MOL0     H61259   4.383   8.958   9.014  1.3130 -1.2939 -1.4617
  444MOL0     H61260   4.466   9.038   9.473  4.4167 -2.0062 -1.4623
  444MOL0     H61261   4.564   9.115   9.365  0.6064  0.4199 -1.2029
  444MOL0     H61262   4.351   9.228   9.264  1.1326  1.2698  0.4672
  444MOL0     H61263   4.369   9.281   9.439  0.3733 -0.0428 -0.4694
  444MOL0     H61264   4.149   9.184   9.293 -0.6577  0.9945 -1.2034
  444MOL0     H61265   4.191   9.037   9.370  1.0434 -0.2151  1.4886
  444MOL0     H61266   4.023   9.235   9.468 -0.3951  4.2708  2.0687
  444MOL0     H61267   4.170   9.259   9.561  0.0290  0.9731 -1.0315
  444MOL0     H61268   4.085   8.955   9.795 -1.4783  0.4148  1.4931
  444MOL0     H61269   4.649   8.882   9.357 -2.3371 -2.0099  1.4427
  444MOL0     H61270   4.858   8.780   9.323 -2.9545 -2.1279  0.7729
  444MOL0     H61271   4.847   8.660   9.189 -0.9486 -0.5064  2.1621
  444MOL0     H61272   4.926   8.812   9.162 -1.0543 -1.2382 -2.5503
  445MOL0     O61273   1.544   9.383   2.290 -0.2920 -0.3382 -0.1209
  445MOL0     C61274   1.628   9.454   2.353 -0.4005 -0.1871 -0.1288
  445MOL0     O61275   1.611   9.538   2.456  0.2033 -0.0547  0.0734
  445MOL0     C61276   1.489   9.592   2.481  0.3461  0.5757 -0.3835
  445MOL0     C61277   1.490   9.722   2.519 -0.8486 -0.4316  0.1317
  445MOL0     C61278   1.378   9.796   2.538 -0.0353  0.4647  0.2573
  445MOL0     C61279   1.253   9.737   2.530 -0.8891  0.8393  0.1172
  445MOL0     O61280   1.135   9.793   2.556 -0.1328  0.5395 -0.8528
  445MOL0     C61281   1.108   9.927   2.509 -0.1634 -0.2353  0.5874
  445MOL0     C61282   0.957   9.963   2.541 -0.2059  0.1305 -0.0954
  445MOL0     C61283   0.920  10.109   2.527 -0.0231  1.2742  0.3669
  445MOL0     C61284   0.774  10.136   2.563  1.0093 -0.3833 -0.0344
  445MOL0     C61285   0.747  10.282   2.528 -0.2898 -0.3027  0.7999
  445MOL0     C61286   0.605  10.322   2.587  0.6848 -0.4787 -0.2817
  445MOL0     C61287   0.575  10.475   2.570 -0.2444  0.7420 -0.7078
  445MOL0     C61288   0.433  10.511   2.625 -0.0473  0.4267 -0.0313
  445MOL0     N61289   0.322  10.417   2.596  0.8710 -0.7763 -0.4506
  445MOL0     C61290   0.247  10.426   2.481  0.5182  0.1393  0.6800
  445MOL0     C61291   0.162  10.316   2.489 -0.4902 -1.2117 -0.0504
  445MOL0     C61292   0.062  10.276   2.384 -0.2267  0.2317 -0.7889
  445MOL0     C61293   0.035  10.398   2.295  0.6915 -0.5577  0.3661
  445MOL0     C61294  -0.091  10.379   2.211 -0.0594  0.1206 -0.5973
  445MOL0     C61295  -0.221  10.442   2.292 -0.5350  0.5682 -0.8173
  445MOL0     O61296  -0.343  10.438   2.216  0.3811  0.0745 -0.0666
  445MOL0     C61297  -0.411  10.322   2.198 -0.5273  0.5104  0.3050
  445MOL0     C61298  -0.385  10.193   2.247  0.4143  0.1664  0.1261
  445MOL0     C61299  -0.481  10.081   2.225  0.1753  0.3497  0.0898
  445MOL0     C61300  -0.444   9.948   2.284 -0.1840 -0.3246  0.3719
  445MOL0     C61301  -0.597  10.105   2.139  0.0833 -0.0515 -0.7973
  445MOL0     C61302  -0.697  10.005   2.110 -0.1150  0.0605 -0.1562
  445MOL0     O61303  -0.729   9.921   2.209 -0.0304  0.3533 -0.5401
  445MOL0     C61304  -0.837   9.838   2.197 -0.7623 -0.7476 -0.4337
  445MOL0     C61305  -0.956   9.906   2.182  0.1666  0.5967 -0.2898
  445MOL0     C61306  -1.079   9.842   2.210 -0.1554  0.4303 -0.2737
  445MOL0     C61307  -1.076   9.700   2.229  0.3135  0.3933  0.3712
  445MOL0     O61308  -1.193   9.636   2.261  0.4090 -0.1000 -0.0669
  445MOL0     C61309  -1.194   9.493   2.238  0.9220 -0.0667  0.9051
  445MOL0     C61310  -1.336   9.449   2.239 -0.1566  0.8279 -0.5515
  445MOL0     C61311  -1.393   9.481   2.379 -0.0338 -0.7179 -0.0001
  445MOL0     C61312  -1.527   9.411   2.417 -0.6819 -0.3740  0.4174
  445MOL0     C61313  -1.665   9.481   2.369  0.0745  0.9193 -0.0470
  445MOL0     C61314  -1.687   9.618   2.447 -0.4072  0.3351  0.4475
  445MOL0     C61315  -1.784   9.714   2.369  0.4751  0.7567 -0.1884
  445MOL0     C61316  -1.819   9.853   2.434  0.0881 -1.1856  0.1746
  445MOL0    Cl61317  -1.686   9.965   2.429 -0.2073 -0.3259  0.3047
  445MOL0     C61318  -0.955   9.633   2.243 -0.2973 -0.5574 -0.3929
  445MOL0     C61319  -0.833   9.703   2.229  0.0725 -0.4587 -0.2538
  445MOL0     O61320  -0.742  10.000   1.993 -0.7862 -0.0479 -0.0447
  445MOL0     C61321  -0.608  10.231   2.083 -0.1951 -0.3795  0.0907
  445MOL0     C61322  -0.529  10.340   2.117 -0.1761 -0.9898  0.5167
  445MOL0     N61323   0.195  10.247   2.605  0.5074 -0.8331  0.2982
  445MOL0     N61324   0.281  10.315   2.670 -0.1091 -0.7780 -0.7757
  445MOL0     C61325   1.242   9.599   2.504 -0.1349  0.3579 -0.9798
  445MOL0     C61326   1.360   9.523   2.477 -0.2346 -0.0071 -0.4364
  445MOL0     C61327   1.758   9.451   2.301 -0.3804 -0.3896 -0.2105
  445MOL0     C61328   1.787   9.498   2.164 -0.9467  0.1165 -0.4756
  445MOL0     C61329   1.916   9.505   2.117  0.2509  0.8454  0.1438
  445MOL0     C61330   2.015   9.471   2.208 -0.7151  0.4962 -0.3136
  445MOL0     O61331   2.147   9.494   2.175 -0.2600 -0.0763 -0.3402
  445MOL0     C61332   2.196   9.480   2.047 -0.2413  0.0684  1.5917
  445MOL0     C61333   2.168   9.344   1.979 -1.0726  0.1194  0.0893
  445MOL0     C61334   2.241   9.225   2.048 -0.7968 -0.3070 -0.3675
  445MOL0     C61335   2.151   9.100   2.075 -0.1227 -0.5738  0.1390
  445MOL0     C61336   2.236   8.984   2.110 -0.8042 -0.5127  1.3596
  445MOL0     C61337   2.330   8.912   2.127  0.4745  0.9475 -1.1952
  445MOL0     C61338   1.994   9.404   2.328  0.2700 -1.1488 -0.5690
  445MOL0     C61339   1.863   9.405   2.380 -0.0787  0.3300  0.2129
  445MOL0     C61340   1.845   9.352   2.518  0.3437 -0.0267 -0.2613
  445MOL0     H61341   1.581   9.780   2.532 -3.1779  3.7891 -0.6739
  445MOL0     H61342   1.387   9.904   2.551  0.8017  0.9196 -3.2041
  445MOL0     H61343   1.114   9.929   2.400 -2.5018 -0.5880  0.4025
  445MOL0     H61344   1.176  10.002   2.550  1.3311  0.3050 -2.5614
  445MOL0     H61345   0.884   9.892   2.501  0.2714 -0.8434  0.6932
  445MOL0     H61346   0.956   9.945   2.649  3.1860  1.1671  0.2292
  445MOL0     H61347   0.982  10.169   2.594 -0.7775 -0.2697  2.5830
  445MOL0     H61348   0.945  10.127   2.422 -1.4800  1.0309 -0.0447
  445MOL0     H61349   0.696  10.073   2.519 -1.0982  1.2067  1.2753
  445MOL0     H61350   0.770  10.107   2.668 -2.8289 -0.7469 -0.1401
  445MOL0     H61351   0.735  10.289   2.419  1.0026 -1.2909  0.5711
  445MOL0     H61352   0.825  10.353   2.557 -0.9530  2.4792 -3.2607
  445MOL0     H61353   0.528  10.264   2.535  0.2460  0.4731 -0.7103
  445MOL0     H61354   0.630  10.301   2.692  1.7097 -1.2221 -0.6510
  445MOL0     H61355   0.577  10.491   2.462 -0.3946 -0.8268 -0.9629
  445MOL0     H61356   0.650  10.537   2.620 -0.5688  0.5439  0.0458
  445MOL0     H61357   0.448  10.516   2.733  0.8855  1.6197 -0.1950
  445MOL0     H61358   0.416  10.612   2.587  0.2696 -0.7291 -3.6572
  445MOL0     H61359   0.265  10.491   2.397  3.6127 -0.9431  0.3673
  445MOL0     H61360  -0.032  10.248   2.432  0.2150 -1.1735 -0.6762
  445MOL0     H61361   0.097  10.203   2.309 -1.5595  0.2117 -1.4191
  445MOL0     H61362   0.027  10.494   2.347  3.2921 -0.3702  0.5667
  445MOL0     H61363   0.123  10.408   2.231  1.3517  0.1165  1.3538
  445MOL0     H61364  -0.083  10.454   2.132  0.6545  0.7175  0.0254
  445MOL0     H61365  -0.088  10.276   2.173  2.3999 -1.0329  2.3061
  445MOL0     H61366  -0.240  10.390   2.386 -0.4527 -0.9059 -1.5731
  445MOL0     H61367  -0.198  10.545   2.320 -2.3957  0.0884  3.0872
  445MOL0     H61368  -0.300  10.174   2.312 -0.7336 -3.7334  0.7345
  445MOL0     H61369  -0.518   9.909   2.355 -0.6555 -0.2084 -0.0504
  445MOL0     H61370  -0.341   9.961   2.318  0.0322 -0.2417 -0.3168
  445MOL0     H61371  -0.440   9.873   2.205  3.4932  0.7106 -0.6004
  445MOL0     H61372  -0.952  10.014   2.169  0.4407  0.4615 -1.3751
  445MOL0     H61373  -1.170   9.901   2.215  0.9559  2.4536 -2.1033
  445MOL0     H61374  -1.138   9.462   2.149  0.5213  0.4907  0.4455
  445MOL0     H61375  -1.140   9.446   2.321  1.9367  1.1414  0.9712
  445MOL0     H61376  -1.396   9.484   2.154  0.6257 -1.1598 -1.9994
  445MOL0     H61377  -1.345   9.341   2.231 -2.1390  0.6503  2.4388
  445MOL0     H61378  -1.415   9.589   2.376  0.3049 -0.6763 -1.0770
  445MOL0     H61379  -1.322   9.452   2.457 -0.2190 -2.0654 -0.3129
  445MOL0     H61380  -1.529   9.406   2.526 -0.9940  1.5105  0.5392
  445MOL0     H61381  -1.532   9.311   2.373 -1.0941  0.6471 -2.0208
  445MOL0     H61382  -1.654   9.500   2.262  1.9482  1.9129  0.2839
  445MOL0     H61383  -1.754   9.418   2.380 -1.1081  2.5563  0.2337
  445MOL0     H61384  -1.591   9.671   2.455 -1.1819  2.7703 -3.5316
  445MOL0     H61385  -1.732   9.601   2.545  0.8244  0.9785  1.1532
  445MOL0     H61386  -1.881   9.663   2.368  0.1163  1.1296  3.3807
  445MOL0     H61387  -1.748   9.729   2.267  1.1497  2.1988  0.2430
  445MOL0     H61388  -1.854   9.846   2.538 -0.2083  2.9087  0.4842
  445MOL0     H61389  -1.902   9.890   2.374 -0.5504 -0.8468  1.2360
  445MOL0     H61390  -0.936   9.533   2.281 -0.3677 -0.1424  0.7733
  445MOL0     H61391  -0.737   9.653   2.239  0.8852  1.2265  0.9786
  445MOL0     H61392  -0.687  10.244   2.009 -0.5270  2.3190  0.8413
  445MOL0     H61393  -0.566  10.438   2.090  2.8193  1.0518  3.1265
  445MOL0     H61394   1.145   9.550   2.499 -1.2060  2.3026 -0.2285
  445MOL0     H61395   1.344   9.417   2.464 -2.4510  0.1363  0.7657
  445MOL0     H61396   1.709   9.542   2.103  0.4844  4.2067  0.3420
  445MOL0     H61397   1.925   9.566   2.028 -4.4430  1.5731 -0.1036
  445MOL0     H61398   2.151   9.560   1.986 -4.0759 -0.5307  3.3584
  445MOL0     H61399   2.305   9.486   2.043  0.0811 -3.9051  0.3904
  445MOL0     H61400   2.197   9.348   1.874 -2.3710  1.2029 -0.2549
  445MOL0     H61401   2.062   9.318   1.971 -0.5603 -2.1322  0.2027
  445MOL0     H61402   2.324   9.194   1.984 -2.3174 -1.1656 -2.0270
  445MOL0     H61403   2.275   9.267   2.143 -0.8160  0.9558 -0.9008
  445MOL0     H61404   2.086   9.087   1.989 -1.1248 -1.1323  0.9529
  445MOL0     H61405   2.084   9.122   2.159 -1.1437 -2.2809 -0.1840
  445MOL0     H61406   2.402   8.834   2.141  0.8762  1.3157 -1.2010
  445MOL0     H61407   2.083   9.374   2.382  0.8697  1.4721  0.0286
  445MOL0     H61408   1.815   9.434   2.583  3.2196 -0.0829  1.3249
  445MOL0     H61409   1.759   9.285   2.523  2.0593 -2.5119 -1.4839
  445MOL0     H61410   1.940   9.310   2.554  0.9936  0.6062 -1.1847
  446MOL0     O61411   9.324   8.773   0.766  0.2535 -0.5570  0.0479
  446MOL0     C61412   9.332   8.691   0.680  0.2145  0.8165  0.3554
  446MOL0     O61413   9.227   8.608   0.636 -0.6444  0.6541 -0.6119
  446MOL0     C61414   9.109   8.638   0.698 -0.7014  0.2745  0.0462
  446MOL0     C61415   9.082   8.604   0.831 -0.1381  0.2043  0.0998
  446MOL0     C61416   8.977   8.657   0.898  0.3685 -0.2807  0.3150
  446MOL0     C61417   8.894   8.749   0.837  0.1861  0.3822  0.4051
  446MOL0     O61418   8.772   8.791   0.893  0.0517 -0.3937  0.2916
  446MOL0     C61419   8.704   8.737   1.001  0.0755  0.2428 -0.0081
  446MOL0     C61420   8.587   8.832   1.034 -0.2881  0.6505  0.8762
  446MOL0     C61421   8.477   8.815   0.929 -0.3442  0.4462  0.0630
  446MOL0     C61422   8.355   8.890   0.979 -0.0369  0.1401 -0.3770
  446MOL0     C61423   8.248   8.909   0.869 -0.3594  0.3736  0.0456
  446MOL0     C61424   8.180   8.772   0.829 -0.4767 -1.2498 -0.6862
  446MOL0     C61425   8.060   8.785   0.739 -0.1531 -0.1852 -0.2405
  446MOL0     C61426   7.991   8.640   0.733 -0.0142 -0.0094 -0.9858
  446MOL0     N61427   7.895   8.627   0.615  0.7342  0.2906 -0.1286
  446MOL0     C61428   7.901   8.699   0.489 -0.3401 -0.7847 -0.8652
  446MOL0     C61429   7.779   8.688   0.430 -0.2694 -0.0201 -0.2420
  446MOL0     C61430   7.728   8.755   0.312 -0.6497  0.5944 -1.0101
  446MOL0     C61431   7.604   8.837   0.340  0.0912 -0.1524  0.3475
  446MOL0     C61432   7.628   8.960   0.431  0.0724 -0.2019 -0.2716
  446MOL0     C61433   7.509   9.056   0.439 -0.1851 -0.5454  0.4662
  446MOL0     O61434   7.393   8.983   0.492 -1.5323 -0.1723  0.7163
  446MOL0     C61435   7.415   8.946   0.620  0.5272 -0.1343  0.3574
  446MOL0     C61436   7.396   9.042   0.728 -0.4193 -0.0021  0.2559
  446MOL0     C61437   7.399   9.011   0.866  1.0076  0.8559 -0.0853
  446MOL0     C61438   7.367   9.119   0.973 -0.0178  0.8973 -0.3327
  446MOL0     C61439   7.421   8.872   0.902  0.1461 -0.1422 -0.4065
  446MOL0     C61440   7.425   8.820   1.048 -0.1084 -0.1081  0.2303
  446MOL0     O61441   7.480   8.697   1.059 -0.3289  0.5130 -0.0553
  446MOL0     C61442   7.506   8.654   1.186 -0.8452  0.5630  0.7007
  446MOL0     C61443   7.465   8.522   1.219 -0.3886  0.3548 -0.1672
  446MOL0     C61444   7.494   8.464   1.344 -0.6187 -0.1002  0.6500
  446MOL0     C61445   7.569   8.539   1.439  0.1605 -0.0730  0.7029
  446MOL0     O61446   7.597   8.494   1.564 -0.3142 -0.1769  0.0222
  446MOL0     C61447   7.598   8.347   1.579  0.1772 -0.5078 -0.6546
  446MOL0     C61448   7.629   8.299   1.725 -0.9281 -0.4681 -0.2287
  446MOL0     C61449   7.779   8.293   1.759  0.3100  0.7421 -0.2592
  446MOL0     C61450   7.863   8.431   1.756 -0.0284  0.9805 -0.2841
  446MOL0     C61451   7.816   8.516   1.879 -0.7405 -0.1325  0.7287
  446MOL0     C61452   7.912   8.643   1.895  0.6328 -0.3119  0.3238
  446MOL0     C61453   7.874   8.742   1.783 -0.1952 -0.4961 -0.2824
  446MOL0     C61454   7.955   8.870   1.789  0.3879 -0.1997  0.6028
  446MOL0    Cl61455   7.889   8.979   1.658 -0.1303  0.0061 -0.2650
  446MOL0     C61456   7.604   8.664   1.407  0.0977  0.3091 -0.3131
  446MOL0     C61457   7.585   8.722   1.278  0.2522 -0.2721 -0.9405
  446MOL0     O61458   7.378   8.886   1.143 -0.4393 -0.1572  0.8079
  446MOL0     C61459   7.443   8.785   0.796  0.6083  0.2730  0.1416
  446MOL0     C61460   7.438   8.819   0.663  0.7242 -0.3983  0.9029
  446MOL0     N61461   7.708   8.602   0.519 -0.3103  0.0040  0.3225
  446MOL0     N61462   7.768   8.568   0.627 -0.2886  0.2125  0.5400
  446MOL0     C61463   8.918   8.766   0.698  0.2064 -0.0551 -0.6438
  446MOL0     C61464   9.031   8.719   0.630  0.4602  0.5945  0.5046
  446MOL0     C61465   9.468   8.683   0.615  0.7304  0.1261 -0.6571
  446MOL0     C61466   9.472   8.615   0.489 -0.5805 -0.1963 -0.6685
  446MOL0     C61467   9.588   8.606   0.410  0.0105  0.2347  0.0711
  446MOL0     C61468   9.698   8.687   0.448  0.2807 -0.0440 -0.4708
  446MOL0     O61469   9.811   8.704   0.382  0.5061 -0.5471 -0.1942
  446MOL0     C61470   9.828   8.651   0.253  0.6162  0.2748 -0.2558
  446MOL0     C61471   9.842   8.495   0.246  0.1994  0.2967  0.5088
  446MOL0     C61472   9.960   8.431   0.309 -0.9673 -0.9869  0.3726
  446MOL0     C61473  10.085   8.467   0.236 -0.2775 -0.4138  0.5826
  446MOL0     C61474  10.099   8.423   0.090 -0.3912 -0.0068 -1.1486
  446MOL0     C61475  10.117   8.371  -0.020 -0.2628  0.8862  0.2442
  446MOL0     C61476   9.697   8.743   0.577  0.4473 -0.0640  0.2585
  446MOL0     C61477   9.584   8.737   0.663  0.3458 -0.5399  0.1068
  446MOL0     C61478   9.603   8.809   0.802  0.2112 -0.1010 -0.0257
  446MOL0     H61479   9.157   8.537   0.871  1.2679  2.6304  1.7895
  446MOL0     H61480   8.962   8.638   1.004  0.6584  0.8780  0.5792
  446MOL0     H61481   8.779   8.730   1.081 -3.3965 -1.5214  3.4364
  446MOL0     H61482   8.671   8.635   0.984 -0.5267  0.5555 -0.7381
  446MOL0     H61483   8.545   8.807   1.132  0.5760 -0.0799  1.0741
  446MOL0     H61484   8.622   8.935   1.032  3.4796 -0.4574  1.0234
  446MOL0     H61485   8.506   8.843   0.827  4.7177 -1.6323  0.6131
  446MOL0     H61486   8.458   8.708   0.912 -1.9566  1.0718 -2.5441
  446MOL0     H61487   8.310   8.832   1.060  1.2032 -1.2630 -0.6608
  446MOL0     H61488   8.383   8.988   1.019  2.8267 -0.7756  0.1127
  446MOL0     H61489   8.301   8.943   0.780  0.0043 -1.8152 -0.6355
  446MOL0     H61490   8.172   8.981   0.900 -0.9686  1.2234 -3.0503
  446MOL0     H61491   8.249   8.703   0.780  0.8610  0.4530 -1.3207
  446MOL0     H61492   8.140   8.730   0.922 -0.7760 -0.6984 -0.5580
  446MOL0     H61493   8.101   8.810   0.640  1.0385 -1.1545 -0.0140
  446MOL0     H61494   7.987   8.858   0.776  0.7423  0.5457  0.1162
  446MOL0     H61495   8.069   8.566   0.712  0.5651  1.1298 -3.2119
  446MOL0     H61496   7.941   8.620   0.828 -0.8619  2.0219 -0.9564
  446MOL0     H61497   7.983   8.759   0.451 -0.6633  1.2635  1.4231
  446MOL0     H61498   7.705   8.674   0.243 -1.3232  0.2355 -0.3869
  446MOL0     H61499   7.806   8.820   0.271 -1.5266 -1.1249 -6.1093
  446MOL0     H61500   7.580   8.876   0.241  1.1604  2.1049  0.9198
  446MOL0     H61501   7.532   8.769   0.387 -1.0105  0.5424 -0.3096
  446MOL0     H61502   7.673   8.937   0.528 -1.2763  0.0070  0.4292
  446MOL0     H61503   7.712   9.012   0.384  0.2313 -1.1249 -1.0285
  446MOL0     H61504   7.531   9.152   0.487  1.2657 -0.2828 -0.6288
  446MOL0     H61505   7.496   9.086   0.334  1.4321  0.0699  0.4023
  446MOL0     H61506   7.360   9.141   0.703  0.0601  0.1593  0.1957
  446MOL0     H61507   7.342   9.216   0.929 -1.9845  0.5116 -0.1411
  446MOL0     H61508   7.450   9.119   1.045 -1.9412 -2.0113  2.1550
  446MOL0     H61509   7.285   9.082   1.035  1.8973 -0.3350  1.5912
  446MOL0     H61510   7.398   8.470   1.151 -2.1983  1.1916  0.8870
  446MOL0     H61511   7.443   8.370   1.361  0.6703 -0.8147  0.6840
  446MOL0     H61512   7.496   8.315   1.556 -0.3703  0.1390  0.7579
  446MOL0     H61513   7.671   8.304   1.510  2.0629 -0.9630  1.4819
  446MOL0     H61514   7.583   8.379   1.783 -0.7957  1.4847 -2.6728
  446MOL0     H61515   7.583   8.202   1.746 -0.0430 -1.1705 -1.4037
  446MOL0     H61516   7.834   8.228   1.692  0.6526 -1.1327  1.7323
  446MOL0     H61517   7.798   8.251   1.858  1.5057 -1.7494 -1.4529
  446MOL0     H61518   7.841   8.486   1.664 -0.8552  1.2841  0.0823
  446MOL0     H61519   7.968   8.402   1.754 -1.2880 -4.7096 -1.0755
  446MOL0     H61520   7.715   8.544   1.849 -0.2928 -0.6038 -1.3858
  446MOL0     H61521   7.830   8.450   1.965  0.2085 -3.7753 -1.9720
  446MOL0     H61522   8.014   8.609   1.876  1.7725  1.7356  2.3893
  446MOL0     H61523   7.900   8.685   1.995 -2.5572  0.5056 -0.2618
  446MOL0     H61524   7.767   8.765   1.788 -0.5986 -2.3561  0.3247
  446MOL0     H61525   7.896   8.699   1.685 -0.7602 -1.2947 -0.0590
  446MOL0     H61526   8.059   8.840   1.779  0.3806  0.5209 -2.4470
  446MOL0     H61527   7.932   8.920   1.884 -0.8569 -0.4051  0.4344
  446MOL0     H61528   7.663   8.721   1.478  2.3587  0.0609 -1.9089
  446MOL0     H61529   7.632   8.819   1.264  1.7953 -0.7859  0.3675
  446MOL0     H61530   7.482   8.687   0.822  1.6336 -0.3063 -3.0724
  446MOL0     H61531   7.449   8.751   0.579 -1.4838  0.0127  0.2145
  446MOL0     H61532   8.837   8.822   0.653 -1.6976 -1.2226  1.1171
  446MOL0     H61533   9.051   8.745   0.527 -0.7267  0.9632  0.3530
  446MOL0     H61534   9.394   8.546   0.459  0.1967 -2.8024  2.7067
  446MOL0     H61535   9.570   8.549   0.320  0.6879 -4.1473  2.4208
  446MOL0     H61536   9.746   8.677   0.186  1.2021 -1.9415 -1.9795
  446MOL0     H61537   9.919   8.697   0.214  1.3714  0.2184  1.3524
  446MOL0     H61538   9.847   8.456   0.144  2.4342  0.3328  0.5715
  446MOL0     H61539   9.749   8.450   0.283  0.2841  0.1655  0.5614
  446MOL0     H61540   9.966   8.461   0.414 -2.9393 -3.7008  1.3837
  446MOL0     H61541   9.933   8.326   0.298 -1.9195 -0.6421 -0.8461
  446MOL0     H61542  10.177   8.429   0.281 -0.9459 -1.3407  1.2173
  446MOL0     H61543  10.107   8.574   0.227  0.8788 -0.7962 -1.7878
  446MOL0     H61544  10.132   8.320  -0.113  0.2882 -1.7739  1.6723
  446MOL0     H61545   9.782   8.802   0.608  1.2835  0.8834 -3.3556
  446MOL0     H61546   9.539   8.897   0.812 -0.4771 -0.6109  0.1294
  446MOL0     H61547   9.578   8.732   0.876  1.4931 -3.0351 -2.4220
  446MOL0     H61548   9.708   8.840   0.801  0.0284  0.9921 -4.1483
  447MOL0     O61549   7.484   2.577   0.650 -0.1846  0.5558 -0.2403
  447MOL0     C61550   7.587   2.513   0.630 -0.4742 -0.9089 -0.0402
  447MOL0     O61551   7.708   2.585   0.605  0.3648  1.1365 -0.8047
  447MOL0     C61552   7.697   2.717   0.585  0.1539 -0.7251  0.8879
  447MOL0     C61553   7.678   2.759   0.451  0.3696  0.0056 -1.2888
  447MOL0     C61554   7.661   2.895   0.424 -0.2193  0.5725  0.3574
  447MOL0     C61555   7.651   2.992   0.522 -0.0408 -0.7107  0.9894
  447MOL0     O61556   7.637   3.124   0.489  0.0886 -0.4658  0.4392
  447MOL0     C61557   7.600   3.212   0.599 -0.2097  0.2191  0.1405
  447MOL0     C61558   7.570   3.361   0.557 -1.2917 -0.4692  0.2154
  447MOL0     C61559   7.510   3.386   0.427  0.0814 -0.0472  0.0561
  447MOL0     C61560   7.395   3.495   0.410 -0.5821 -0.6018 -0.9258
  447MOL0     C61561   7.352   3.507   0.267 -1.2891 -0.1884 -1.1447
  447MOL0     C61562   7.246   3.399   0.228 -0.5435  1.3366  0.9542
  447MOL0     C61563   7.218   3.379   0.080  0.3315  0.1993  0.0398
  447MOL0     C61564   7.087   3.299   0.052 -0.1914  0.2287  0.0972
  447MOL0     N61565   7.062   3.295  -0.091 -0.6075 -0.2996  0.2583
  447MOL0     C61566   7.056   3.179  -0.158  0.0553  0.3028  0.8263
  447MOL0     C61567   6.985   3.212  -0.268  0.3565 -0.7064 -1.0532
  447MOL0     C61568   6.990   3.122  -0.393 -0.6402 -0.0255 -0.4490
  447MOL0     C61569   6.887   3.185  -0.492  0.0724  0.1622  0.3175
  447MOL0     C61570   6.876   3.100  -0.617  0.1655  0.6365  0.7967
  447MOL0     C61571   6.785   2.988  -0.628 -0.1513 -0.2818  0.3772
  447MOL0     O61572   6.804   2.904  -0.510 -0.2397 -0.1153  0.0561
  447MOL0     C61573   6.758   2.777  -0.511  0.4391  0.1192  0.0872
  447MOL0     C61574   6.633   2.752  -0.551 -0.2790  1.2540 -0.0848
  447MOL0     C61575   6.568   2.626  -0.558  0.1091 -0.4080  0.5538
  447MOL0     C61576   6.426   2.625  -0.610  0.2542 -0.0556 -1.8182
  447MOL0     C61577   6.652   2.514  -0.539  0.1355  0.1040  0.4149
  447MOL0     C61578   6.615   2.373  -0.575 -0.3064 -0.0190  0.6608
  447MOL0     O61579   6.659   2.280  -0.498 -0.0665 -0.6200 -0.0189
  447MOL0     C61580   6.683   2.157  -0.553 -1.0531  0.1139 -0.3856
  447MOL0     C61581   6.695   2.116  -0.694  1.1252 -0.2314 -0.3252
  447MOL0     C61582   6.706   1.981  -0.719 -1.2920  0.0667  0.5013
  447MOL0     C61583   6.741   1.884  -0.620  0.1754  0.3141  0.4491
  447MOL0     O61584   6.765   1.751  -0.657 -0.6114 -0.1225  0.6005
  447MOL0     C61585   6.756   1.639  -0.563  0.0261 -0.0896  0.4080
  447MOL0     C61586   6.910   1.610  -0.511  0.5161  0.4894 -0.1757
  447MOL0     C61587   6.913   1.565  -0.363 -0.2588 -0.3765 -0.5705
  447MOL0     C61588   6.866   1.417  -0.333  0.2841  0.5603  0.1281
  447MOL0     C61589   6.982   1.339  -0.283  0.0201 -0.5845  0.8584
  447MOL0     C61590   6.954   1.195  -0.260  0.0481  0.5660  0.1477
  447MOL0     C61591   6.870   1.186  -0.122  0.1845 -0.1245  0.0180
  447MOL0     C61592   6.882   1.052  -0.065  0.0995 -0.4933 -0.0682
  447MOL0    Cl61593   6.741   1.032   0.049 -0.0833 -0.6346 -0.3509
  447MOL0     C61594   6.751   1.927  -0.490 -0.8763  0.3347 -0.3105
  447MOL0     C61595   6.717   2.057  -0.461 -0.2759  0.5037 -0.6495
  447MOL0     O61596   6.534   2.358  -0.661  0.6483 -0.1442 -0.3356
  447MOL0     C61597   6.782   2.538  -0.501  0.0968 -0.4359 -0.7206
  447MOL0     C61598   6.837   2.665  -0.482  0.2551 -0.4212 -0.2085
  447MOL0     N61599   6.948   3.348  -0.264  0.2229  0.2361 -0.0678
  447MOL0     N61600   7.003   3.394  -0.159 -0.6778 -0.5718 -0.2230
  447MOL0     C61601   7.668   2.944   0.652  0.3488  0.2698 -0.3258
  447MOL0     C61602   7.674   2.813   0.685 -0.3903  0.2668 -0.0429
  447MOL0     C61603   7.601   2.368   0.662 -0.2627 -0.0797 -0.0857
  447MOL0     C61604   7.730   2.309   0.651 -0.3844  0.3916  0.0105
  447MOL0     C61605   7.755   2.182   0.706 -0.1921  0.0783 -0.1824
  447MOL0     C61606   7.650   2.116   0.762 -0.1874  0.6645  0.7158
  447MOL0     O61607   7.663   1.988   0.810 -0.1760  0.0724 -0.8025
  447MOL0     C61608   7.722   1.969   0.938  0.3899  0.0129  0.0285
  447MOL0     C61609   7.830   1.855   0.923  0.0754  0.8995  0.1558
  447MOL0     C61610   7.899   1.828   1.054 -0.0629 -0.5689  0.4505
  447MOL0     C61611   7.862   1.688   1.121  0.4972 -0.2133 -0.2604
  447MOL0     C61612   7.924   1.576   1.045 -0.1593 -0.3286 -0.2799
  447MOL0     C61613   7.989   1.504   0.984  0.0677 -0.0585  1.1181
  447MOL0     C61614   7.518   2.164   0.750 -0.5407  0.2738 -0.7486
  447MOL0     C61615   7.489   2.292   0.699  0.1638 -0.2410  0.3204
  447MOL0     C61616   7.346   2.340   0.701 -0.6443 -0.8611  0.3242
  447MOL0     H61617   7.684   2.683   0.374 -1.1466  0.3676 -1.8013
  447MOL0     H61618   7.669   2.919   0.318  2.8130 -1.2137  0.0784
  447MOL0     H61619   7.682   3.219   0.671 -0.5816 -1.0605  0.7241
  447MOL0     H61620   7.509   3.180   0.651 -0.7650  1.4011 -0.0841
  447MOL0     H61621   7.509   3.406   0.637  0.6000 -0.5509  1.7910
  447MOL0     H61622   7.666   3.412   0.551 -1.1293 -0.9301 -1.7719
  447MOL0     H61623   7.590   3.408   0.356 -0.0720 -0.8887 -0.3983
  447MOL0     H61624   7.475   3.289   0.388  0.7550 -0.5819  0.7448
  447MOL0     H61625   7.306   3.473   0.470 -1.2258 -0.0168 -1.6519
  447MOL0     H61626   7.430   3.595   0.437 -2.0916 -0.3021  0.0531
  447MOL0     H61627   7.433   3.494   0.194 -1.2011 -0.6374 -0.9671
  447MOL0     H61628   7.307   3.606   0.251  1.0579  1.8532  3.1885
  447MOL0     H61629   7.280   3.301   0.264  1.0491  1.2171 -0.7901
  447MOL0     H61630   7.155   3.433   0.278 -0.8692 -0.8102  1.9768
  447MOL0     H61631   7.304   3.335   0.028 -1.9801 -3.0186 -1.3983
  447MOL0     H61632   7.199   3.476   0.033 -1.8625  0.2714  0.9557
  447MOL0     H61633   7.105   3.200   0.093 -0.5145 -0.5406 -1.5394
  447MOL0     H61634   7.003   3.333   0.113 -0.8949 -0.9563 -0.1883
  447MOL0     H61635   7.103   3.085  -0.132  0.7118  0.8068  1.4909
  447MOL0     H61636   6.945   3.030  -0.353  2.9673 -1.7273  0.1253
  447MOL0     H61637   7.088   3.099  -0.436 -0.0518  0.7688  0.4327
  447MOL0     H61638   6.787   3.177  -0.447  0.2198 -0.0560  0.6097
  447MOL0     H61639   6.906   3.292  -0.505 -0.2921  0.4652  2.0391
  447MOL0     H61640   6.868   3.173  -0.698  0.1979 -0.2687 -0.0278
  447MOL0     H61641   6.975   3.063  -0.643 -0.0749  0.2821  0.3746
  447MOL0     H61642   6.678   3.009  -0.638  0.3105  1.3612 -2.2074
  447MOL0     H61643   6.820   2.925  -0.710  6.1428 -1.0045  3.0767
  447MOL0     H61644   6.569   2.839  -0.566 -2.0459 -0.0739 -0.7216
  447MOL0     H61645   6.400   2.719  -0.660 -2.4088 -0.6223 -1.6296
  447MOL0     H61646   6.361   2.606  -0.525  0.9735 -0.6480 -1.3925
  447MOL0     H61647   6.412   2.546  -0.685 -0.1953 -2.7705  0.9419
  447MOL0     H61648   6.690   2.186  -0.777  2.9322 -1.1588 -1.2498
  447MOL0     H61649   6.709   1.952  -0.823  1.0422  0.4840  0.3916
  447MOL0     H61650   6.695   1.671  -0.478  1.1193  2.1668  0.4048
  447MOL0     H61651   6.704   1.547  -0.591 -0.7226 -0.6726  3.3859
  447MOL0     H61652   6.953   1.528  -0.569 -1.0353 -1.0933  0.8420
  447MOL0     H61653   6.970   1.700  -0.529  0.2514  1.1156  1.8263
  447MOL0     H61654   6.841   1.631  -0.313 -0.8573  0.2515 -2.1686
  447MOL0     H61655   7.008   1.590  -0.316  1.4468 -1.3068 -3.3095
  447MOL0     H61656   6.824   1.380  -0.427 -0.8019  3.2250 -0.5296
  447MOL0     H61657   6.786   1.408  -0.259 -3.1232  1.8965 -3.0497
  447MOL0     H61658   7.059   1.356  -0.359 -2.6911  1.6193 -1.6274
  447MOL0     H61659   7.020   1.381  -0.189 -0.0922  0.6370  0.3740
  447MOL0     H61660   7.047   1.138  -0.257 -1.2241 -1.5813  0.9526
  447MOL0     H61661   6.893   1.155  -0.341 -0.7441  2.1825 -0.1112
  447MOL0     H61662   6.762   1.192  -0.139  0.5018 -1.1742 -2.9788
  447MOL0     H61663   6.903   1.265  -0.054 -2.4031  2.1428 -1.2047
  447MOL0     H61664   6.972   1.028  -0.008  1.6492 -1.2429 -2.6796
  447MOL0     H61665   6.872   0.981  -0.148  1.4111 -3.1029  1.8557
  447MOL0     H61666   6.781   1.859  -0.411 -2.0863  0.8077  0.5860
  447MOL0     H61667   6.709   2.074  -0.354 -1.6968  1.1996 -0.8456
  447MOL0     H61668   6.838   2.450  -0.470  3.2252  1.5435 -0.3088
  447MOL0     H61669   6.941   2.690  -0.466 -0.4371  1.2157  2.2503
  447MOL0     H61670   7.635   3.011   0.731  0.3499  0.8631 -0.8118
  447MOL0     H61671   7.680   2.777   0.788 -1.4918 -0.6603 -0.2801
  447MOL0     H61672   7.807   2.370   0.605 -0.3617  0.4664  0.1465
  447MOL0     H61673   7.856   2.144   0.694  0.8833  1.7105  2.6237
  447MOL0     H61674   7.756   2.068   0.972 -1.3515  0.9769 -0.8569
  447MOL0     H61675   7.645   1.938   1.009 -1.2217 -0.7949 -1.9937
  447MOL0     H61676   7.901   1.896   0.850  0.1022  1.4228  0.4683
  447MOL0     H61677   7.786   1.761   0.888 -1.7620  1.9405 -0.4983
  447MOL0     H61678   8.007   1.835   1.038 -0.3493  0.5669 -1.3361
  447MOL0     H61679   7.886   1.907   1.128 -1.2408 -0.3728  0.0620
  447MOL0     H61680   7.753   1.685   1.128  0.5674  0.5030  1.5844
  447MOL0     H61681   7.893   1.685   1.226 -0.0685 -0.9830 -0.1057
  447MOL0     H61682   8.055   1.432   0.941 -0.5376 -0.6738  1.2111
  447MOL0     H61683   7.446   2.095   0.793  1.2658 -1.8477 -0.9449
  447MOL0     H61684   7.337   2.390   0.798  2.3270 -0.0744  0.2925
  447MOL0     H61685   7.320   2.406   0.618 -1.4660  0.7693  1.8226
  447MOL0     H61686   7.281   2.252   0.703  0.9110 -2.0900 -0.4501
  448MOL0     O61687   5.418   5.152   5.630 -0.3008 -0.5367  0.0052
  448MOL0     C61688   5.497   5.076   5.566 -0.0081  0.6140  0.2280
  448MOL0     O61689   5.526   5.086   5.428  0.4503 -1.2949  0.1735
  448MOL0     C61690   5.470   5.201   5.373  0.1444  0.5710 -0.3130
  448MOL0     C61691   5.351   5.214   5.293 -0.1737 -0.3282  0.4956
  448MOL0     C61692   5.291   5.334   5.268  0.5193 -0.8887  0.2687
  448MOL0     C61693   5.362   5.446   5.300 -0.4351  0.3227  0.1180
  448MOL0     O61694   5.319   5.571   5.269 -0.4087  1.1120 -0.1395
  448MOL0     C61695   5.178   5.592   5.258  0.6375  0.5006  0.6301
  448MOL0     C61696   5.136   5.740   5.265  0.6973  0.5340 -0.5769
  448MOL0     C61697   4.982   5.742   5.299 -0.8279  0.2605 -0.3449
  448MOL0     C61698   4.901   5.720   5.166  1.3743 -1.1419  0.0079
  448MOL0     C61699   4.758   5.686   5.194  0.2751  0.9644 -0.5552
  448MOL0     C61700   4.662   5.787   5.262 -0.1136  0.0185 -0.5686
  448MOL0     C61701   4.517   5.744   5.274  0.2723  0.5248  0.6852
  448MOL0     C61702   4.433   5.858   5.329 -0.8577  0.1820  0.0756
  448MOL0     N61703   4.305   5.815   5.385 -0.0323 -0.1545 -0.1170
  448MOL0     C61704   4.199   5.765   5.316  0.0144 -0.1168 -0.1832
  448MOL0     C61705   4.112   5.711   5.408 -0.2782 -1.1660 -0.3432
  448MOL0     C61706   3.981   5.646   5.390  0.2762 -0.2158 -0.1361
  448MOL0     C61707   3.977   5.499   5.437  0.3367 -0.2290  0.3929
  448MOL0     C61708   4.044   5.411   5.328  0.7153  1.0331  0.0365
  448MOL0     C61709   4.198   5.416   5.310 -0.3742  0.4026 -0.3805
  448MOL0     O61710   4.264   5.378   5.431  0.6741 -0.1817 -0.3241
  448MOL0     C61711   4.399   5.379   5.432  0.8223  0.7342 -0.7041
  448MOL0     C61712   4.485   5.340   5.333 -0.3077  0.4299  0.2754
  448MOL0     C61713   4.632   5.348   5.341  0.1947 -0.2085  0.1639
  448MOL0     C61714   4.698   5.313   5.217 -0.4983 -0.7245 -0.9951
  448MOL0     C61715   4.698   5.385   5.465  0.1267  0.4690 -0.5455
  448MOL0     C61716   4.843   5.390   5.479 -0.9862 -0.6274 -0.1671
  448MOL0     O61717   4.887   5.465   5.588  0.5039 -0.3004  0.8921
  448MOL0     C61718   5.019   5.483   5.622  0.8287  0.0217 -0.7988
  448MOL0     C61719   5.043   5.602   5.690  0.2615  0.3185  0.1338
  448MOL0     C61720   5.174   5.636   5.733 -0.0572 -0.0531  0.1061
  448MOL0     C61721   5.282   5.555   5.704 -0.4220 -0.4358 -0.3694
  448MOL0     O61722   5.407   5.598   5.749  0.7623 -0.4950  0.3323
  448MOL0     C61723   5.502   5.494   5.754  0.2113 -0.4946 -0.1497
  448MOL0     C61724   5.633   5.544   5.807  0.2289  0.4892 -0.0360
  448MOL0     C61725   5.740   5.444   5.803 -0.2896  0.6402  0.4761
  448MOL0     C61726   5.874   5.504   5.826  0.3556  0.5959  0.0566
  448MOL0     C61727   5.983   5.403   5.807 -0.5550 -0.2493 -0.5861
  448MOL0     C61728   6.117   5.480   5.826 -0.0548  0.3377 -0.7043
  448MOL0     C61729   6.226   5.375   5.846  0.5913  1.0543  0.2104
  448MOL0     C61730   6.368   5.424   5.818 -1.1400 -0.1940 -0.3882
  448MOL0    Cl61731   6.486   5.320   5.890  0.1515  0.5896  0.1652
  448MOL0     C61732   5.246   5.431   5.646 -0.0214  0.3407  0.7691
  448MOL0     C61733   5.123   5.392   5.598  0.1163 -0.3994  0.0994
  448MOL0     O61734   4.918   5.341   5.392  0.4033 -0.6625 -0.1956
  448MOL0     C61735   4.604   5.415   5.569 -0.1315 -0.1942  0.6383
  448MOL0     C61736   4.465   5.421   5.548 -0.7567  0.4504  0.4819
  448MOL0     N61737   4.170   5.747   5.534  0.7587 -0.4825  0.5632
  448MOL0     N61738   4.281   5.806   5.519 -0.5071  0.1227 -0.5130
  448MOL0     C61739   5.488   5.439   5.362 -0.3122  0.3113  0.5853
  448MOL0     C61740   5.539   5.317   5.405 -0.0397 -2.0182 -0.8132
  448MOL0     C61741   5.563   4.950   5.632 -0.3920  0.1960  0.4157
  448MOL0     C61742   5.628   4.857   5.553 -0.0564  0.0874  1.2332
  448MOL0     C61743   5.676   4.737   5.612 -0.5410 -0.1460  0.7205
  448MOL0     C61744   5.673   4.710   5.748  0.0434  0.5337 -0.1776
  448MOL0     O61745   5.732   4.592   5.788 -0.9656 -0.1538 -0.0164
  448MOL0     C61746   5.731   4.573   5.934  0.0970 -0.1098  0.4444
  448MOL0     C61747   5.594   4.530   6.000 -0.2917  0.2535  0.3332
  448MOL0     C61748   5.553   4.384   5.978 -0.5581 -0.5076  1.0458
  448MOL0     C61749   5.503   4.311   6.116 -0.0985 -0.8625  1.1582
  448MOL0     C61750   5.384   4.387   6.174  0.4814 -0.1462  0.4778
  448MOL0     C61751   5.276   4.429   6.203 -0.9157 -0.0798 -0.2069
  448MOL0     C61752   5.624   4.813   5.833  0.2788  0.6516  0.7975
  448MOL0     C61753   5.566   4.935   5.772 -0.1620  0.2748  0.4776
  448MOL0     C61754   5.545   5.048   5.872 -0.9155 -0.3516 -0.5931
  448MOL0     H61755   5.309   5.117   5.268 -1.5935  0.6432 -1.1147
  448MOL0     H61756   5.204   5.345   5.204  2.1853 -0.0859 -1.9791
  448MOL0     H61757   5.131   5.536   5.340  0.3696  1.2786  1.0222
  448MOL0     H61758   5.152   5.559   5.157  2.6606 -1.5186  0.6755
  448MOL0     H61759   5.187   5.781   5.352  0.5084 -0.7011  0.1338
  448MOL0     H61760   5.164   5.779   5.167 -0.4169  0.4293 -0.9524
  448MOL0     H61761   4.967   5.659   5.367  0.5072  2.1119  2.4017
  448MOL0     H61762   4.939   5.836   5.336  0.9971  0.3737  1.6878
  448MOL0     H61763   4.908   5.807   5.100 -1.4015  1.6602  3.0408
  448MOL0     H61764   4.940   5.631   5.115 -0.9430 -2.2842  0.1024
  448MOL0     H61765   4.749   5.590   5.245  2.0064  1.7071  1.2410
  448MOL0     H61766   4.723   5.672   5.091  2.5732  0.3891 -1.3175
  448MOL0     H61767   4.696   5.818   5.361 -3.0012  2.1550 -0.1472
  448MOL0     H61768   4.674   5.877   5.201 -0.6558 -0.0017 -0.7130
  448MOL0     H61769   4.507   5.665   5.349  1.0813  1.3095  1.6436
  448MOL0     H61770   4.479   5.719   5.175  0.8477 -0.4950  0.7079
  448MOL0     H61771   4.485   5.922   5.401 -1.9352  1.5432 -0.3259
  448MOL0     H61772   4.410   5.923   5.245 -3.3782 -1.7028 -0.8071
  448MOL0     H61773   4.188   5.762   5.209 -0.5759 -0.4911 -0.1114
  448MOL0     H61774   3.954   5.660   5.285  1.1914  2.5406 -0.0835
  448MOL0     H61775   3.904   5.695   5.450  0.0422 -1.4684  0.6046
  448MOL0     H61776   4.033   5.473   5.527  1.0079 -0.7514 -0.1532
  448MOL0     H61777   3.875   5.468   5.461  0.9579 -2.8663 -0.0724
  448MOL0     H61778   4.014   5.305   5.329  2.7073  0.3959 -1.4261
  448MOL0     H61779   3.994   5.433   5.234 -0.4338 -3.3622 -0.6223
  448MOL0     H61780   4.224   5.350   5.226  3.0749 -0.3650  1.1167
  448MOL0     H61781   4.230   5.516   5.281  1.2527  0.1229  0.3040
  448MOL0     H61782   4.433   5.293   5.249 -5.1640  0.1963  3.0188
  448MOL0     H61783   4.623   5.321   5.138 -3.4652 -0.5238  1.6511
  448MOL0     H61784   4.736   5.211   5.226 -0.2644 -0.5912 -0.3951
  448MOL0     H61785   4.777   5.382   5.185 -0.7172  1.1698  2.1620
  448MOL0     H61786   4.956   5.656   5.726 -1.2998 -0.8386 -1.6679
  448MOL0     H61787   5.207   5.715   5.800  2.0054 -1.1157  0.4118
  448MOL0     H61788   5.461   5.420   5.824 -0.4846 -0.0595 -0.0962
  448MOL0     H61789   5.520   5.447   5.657  1.5687  2.3696 -1.4078
  448MOL0     H61790   5.663   5.629   5.745 -2.6144 -0.4483 -3.0076
  448MOL0     H61791   5.612   5.578   5.909 -0.1630  1.5726 -0.4660
  448MOL0     H61792   5.723   5.395   5.707 -1.2122 -0.8205  1.3433
  448MOL0     H61793   5.723   5.361   5.873 -0.2253  1.8086  1.9296
  448MOL0     H61794   5.878   5.546   5.927 -0.2547  2.1545 -0.5353
  448MOL0     H61795   5.889   5.584   5.753 -0.8897 -1.2665 -2.3931
  448MOL0     H61796   5.983   5.321   5.880 -0.7108  0.6187  0.4048
  448MOL0     H61797   5.970   5.353   5.711 -3.8589 -3.1892  1.1346
  448MOL0     H61798   6.114   5.530   5.923 -0.9541 -0.5749 -0.2435
  448MOL0     H61799   6.141   5.551   5.746 -1.5773  0.4374 -1.1029
  448MOL0     H61800   6.210   5.301   5.767 -1.8862  1.5990  0.1064
  448MOL0     H61801   6.219   5.323   5.942 -0.1651  1.2903  0.2863
  448MOL0     H61802   6.384   5.530   5.840 -0.0758 -0.3407 -0.4037
  448MOL0     H61803   6.385   5.424   5.710  0.5545  3.0636 -0.2567
  448MOL0     H61804   5.322   5.353   5.637  0.4554  0.8749  0.0383
  448MOL0     H61805   5.116   5.301   5.539 -1.1445  1.3356 -2.6438
  448MOL0     H61806   4.635   5.437   5.671  0.9437 -1.6597  0.6558
  448MOL0     H61807   4.399   5.453   5.629 -0.7926 -3.0829  2.0582
  448MOL0     H61808   5.537   5.529   5.397 -1.8517  1.4935 -0.1763
  448MOL0     H61809   5.631   5.321   5.463  0.5883 -0.3156 -1.8324
  448MOL0     H61810   5.639   4.855   5.445 -3.0055 -3.8645  0.7976
  448MOL0     H61811   5.719   4.663   5.545  0.8137  0.1802  1.2024
  448MOL0     H61812   5.800   4.490   5.947  1.1642  0.7735  0.5685
  448MOL0     H61813   5.763   4.663   5.988 -2.2072  0.9539  0.1679
  448MOL0     H61814   5.513   4.599   5.973 -0.7275  0.2268  1.5409
  448MOL0     H61815   5.597   4.547   6.107 -2.8729 -3.5405  1.2165
  448MOL0     H61816   5.476   4.378   5.901  1.5733 -2.8350 -1.1177
  448MOL0     H61817   5.637   4.332   5.932 -1.8538  0.2079 -2.4166
  448MOL0     H61818   5.587   4.315   6.186  0.5456  1.1010  0.3493
  448MOL0     H61819   5.472   4.210   6.089 -0.7160 -0.7939  1.6035
  448MOL0     H61820   5.172   4.447   6.220 -1.5267 -3.1092 -0.1516
  448MOL0     H61821   5.630   4.808   5.941 -2.4654 -0.4538  0.9650
  448MOL0     H61822   5.570   5.142   5.822  0.0280 -0.7852 -0.9762
  448MOL0     H61823   5.445   5.041   5.915  0.8183 -1.2611  3.9113
  448MOL0     H61824   5.625   5.041   5.947 -0.8196  3.0157 -0.2474
  449MOL0     O61825   0.406   0.238   0.608 -0.0094  0.0506 -0.0758
  449MOL0     C61826   0.304   0.292   0.576  0.0081 -0.1788  0.5869
  449MOL0     O61827   0.211   0.351   0.654 -0.0484  0.1821 -0.7594
  449MOL0     C61828   0.248   0.379   0.788  0.3708  0.3825  0.0862
  449MOL0     C61829   0.370   0.447   0.815 -0.7666 -0.0221 -0.1201
  449MOL0     C61830   0.390   0.495   0.943 -0.6079  0.0235  0.2529
  449MOL0     C61831   0.302   0.467   1.047  0.1236 -0.5729  0.1099
  449MOL0     O61832   0.329   0.508   1.179  0.4525  0.3990  0.4524
  449MOL0     C61833   0.331   0.649   1.210 -1.0758 -0.5215  0.6958
  449MOL0     C61834   0.196   0.718   1.202 -0.2456 -0.4300  0.6974
  449MOL0     C61835   0.095   0.670   1.303  0.0370 -0.3352 -0.6872
  449MOL0     C61836   0.126   0.740   1.438  0.4807  0.3359  0.7913
  449MOL0     C61837   0.025   0.694   1.541  0.6325 -0.5220  0.3574
  449MOL0     C61838   0.052   0.747   1.686  0.6409 -0.0745  0.4820
  449MOL0     C61839  -0.048   0.695   1.780 -0.4345 -0.7800 -0.3357
  449MOL0     C61840  -0.064   0.776   1.907  0.5411 -0.5882  0.4475
  449MOL0     N61841   0.053   0.788   1.988  0.2598  0.9844  0.1096
  449MOL0     C61842   0.102   0.689   2.076  0.0562 -1.0340 -0.1627
  449MOL0     C61843   0.235   0.729   2.086  0.0021 -0.4208 -0.8117
  449MOL0     C61844   0.348   0.647   2.147 -0.3451 -0.6713 -0.2492
  449MOL0     C61845   0.312   0.503   2.191  0.2322  0.6077 -0.8833
  449MOL0     C61846   0.296   0.398   2.073 -0.1076 -0.4241 -0.4327
  449MOL0     C61847   0.238   0.262   2.120 -0.8634 -0.1403  0.2878
  449MOL0     O61848   0.128   0.273   2.204 -0.7707 -0.3982 -0.0319
  449MOL0     C61849   0.004   0.320   2.150  0.2755  0.5450  0.7711
  449MOL0     C61850  -0.054   0.293   2.022  0.0386 -0.0850  0.1825
  449MOL0     C61851  -0.185   0.327   1.989 -0.1104  0.3698 -0.1981
  449MOL0     C61852  -0.233   0.293   1.849 -0.2440  0.1760  0.3692
  449MOL0     C61853  -0.275   0.396   2.075 -0.1816 -0.0385 -0.0281
  449MOL0     C61854  -0.407   0.439   2.044 -0.0380 -0.8310  0.2753
  449MOL0     O61855  -0.447   0.565   2.089 -0.2819  0.4006 -0.5663
  449MOL0     C61856  -0.576   0.601   2.055  0.5190 -0.2677  0.7867
  449MOL0     C61857  -0.688   0.535   2.097  0.4701 -0.2789 -0.7367
  449MOL0     C61858  -0.809   0.586   2.051  0.3052  0.7071 -0.5865
  449MOL0     C61859  -0.825   0.694   1.969 -0.8196  0.3219 -0.2765
  449MOL0     O61860  -0.951   0.738   1.934 -0.1031  0.0498 -0.5771
  449MOL0     C61861  -1.003   0.663   1.822 -0.0159 -0.0888  1.2690
  449MOL0     C61862  -1.145   0.735   1.797 -0.3196  1.2388  0.4008
  449MOL0     C61863  -1.238   0.722   1.915  1.1878  0.5027 -0.3282
  449MOL0     C61864  -1.259   0.581   1.964  0.0654  0.4019  0.1598
  449MOL0     C61865  -1.369   0.565   2.074 -0.5010  0.6341  0.3803
  449MOL0     C61866  -1.425   0.417   2.084 -0.5807  0.1507  1.1914
  449MOL0     C61867  -1.475   0.382   2.222 -0.3014 -0.7205 -0.1374
  449MOL0     C61868  -1.603   0.450   2.249  0.0779 -0.1344  0.6690
  449MOL0    Cl61869  -1.657   0.388   2.413 -0.1293  0.1676 -0.0735
  449MOL0     C61870  -0.719   0.772   1.955 -0.3415 -0.1629 -0.1095
  449MOL0     C61871  -0.591   0.729   1.987  0.9404 -0.1242 -0.1657
  449MOL0     O61872  -0.472   0.363   1.982  0.3778 -0.5235  0.3275
  449MOL0     C61873  -0.200   0.449   2.187 -0.5655  0.4793 -0.2425
  449MOL0     C61874  -0.071   0.402   2.228  0.3108 -0.7619  0.4541
  449MOL0     N61875   0.265   0.832   1.994 -0.4366  0.3602 -0.7255
  449MOL0     N61876   0.155   0.863   1.936 -0.1905  0.3277  0.0688
  449MOL0     C61877   0.197   0.388   1.021 -0.0719 -0.4296  1.0429
  449MOL0     C61878   0.167   0.341   0.895 -0.0871  0.5198  0.1699
  449MOL0     C61879   0.284   0.308   0.429  0.7405  0.5754  0.6001
  449MOL0     C61880   0.144   0.318   0.392 -0.1765  0.8036  0.6713
  449MOL0     C61881   0.103   0.324   0.261 -0.7100  0.4559  0.6036
  449MOL0     C61882   0.207   0.323   0.164 -1.3827  0.0619 -0.0387
  449MOL0     O61883   0.155   0.320   0.041 -0.1107  0.0728  0.0513
  449MOL0     C61884   0.246   0.295  -0.068  0.6116  0.0514  0.6753
  449MOL0     C61885   0.160   0.285  -0.199 -0.5804  0.9770 -0.7241
  449MOL0     C61886   0.075   0.408  -0.215  0.8503 -0.1590  1.1886
  449MOL0     C61887   0.030   0.441  -0.358 -0.5094 -0.5479  0.1516
  449MOL0     C61888   0.133   0.508  -0.431 -0.1774 -0.3852 -0.0768
  449MOL0     C61889   0.227   0.565  -0.483 -0.1862  0.5300 -0.3704
  449MOL0     C61890   0.350   0.312   0.196 -0.5948  0.0399  0.6964
  449MOL0     C61891   0.378   0.296   0.327 -0.3967 -0.5740  0.9887
  449MOL0     C61892   0.526   0.262   0.345  0.8111 -0.1605 -1.2305
  449MOL0     H61893   0.444   0.478   0.743 -0.5819 -1.7876 -0.7500
  449MOL0     H61894   0.477   0.561   0.942  0.9242 -1.8205 -2.8573
  449MOL0     H61895   0.403   0.700   1.146  0.7445 -1.8874  1.5812
  449MOL0     H61896   0.369   0.658   1.312  1.9180 -0.9250 -0.2767
  449MOL0     H61897   0.215   0.825   1.195 -0.5389 -0.4353 -0.2729
  449MOL0     H61898   0.152   0.690   1.106 -0.9959 -2.0284  1.4681
  449MOL0     H61899   0.005   0.710   1.256  1.3989  0.2402 -2.9610
  449MOL0     H61900   0.088   0.561   1.313  0.1561 -0.3042 -0.2789
  449MOL0     H61901   0.228   0.714   1.469  0.0130  1.5116  3.6525
  449MOL0     H61902   0.117   0.849   1.436  2.1235  0.4866 -0.7210
  449MOL0     H61903   0.014   0.585   1.545 -1.4229 -0.3249  2.6322
  449MOL0     H61904  -0.074   0.734   1.519 -0.0441 -0.6674  2.8652
  449MOL0     H61905   0.157   0.722   1.703  0.3025 -2.7348 -0.8447
  449MOL0     H61906   0.055   0.856   1.676  0.7816 -0.1843 -0.8981
  449MOL0     H61907  -0.011   0.597   1.811 -0.5840 -0.1726  1.9267
  449MOL0     H61908  -0.144   0.669   1.734 -0.9104 -4.5817  2.3403
  449MOL0     H61909  -0.084   0.880   1.882  1.9945 -0.0273  1.4837
  449MOL0     H61910  -0.147   0.724   1.957 -1.3218 -0.2259 -2.0566
  449MOL0     H61911   0.056   0.603   2.124 -2.1983  0.8327  1.2543
  449MOL0     H61912   0.400   0.707   2.222 -2.2808 -0.8415  1.3364
  449MOL0     H61913   0.405   0.631   2.056 -0.1366 -0.1208 -0.2203
  449MOL0     H61914   0.388   0.457   2.255 -2.1017 -1.1598  0.7922
  449MOL0     H61915   0.215   0.512   2.241 -0.1828  1.6301 -1.8208
  449MOL0     H61916   0.227   0.433   1.995 -1.9378  1.8616  2.0006
  449MOL0     H61917   0.393   0.379   2.028 -0.4090 -0.8466 -0.9107
  449MOL0     H61918   0.202   0.202   2.035 -1.7032 -1.2971  1.4199
  449MOL0     H61919   0.322   0.205   2.162 -0.3047 -0.8737 -1.7040
  449MOL0     H61920   0.022   0.239   1.966  0.1438  0.8669 -0.6286
  449MOL0     H61921  -0.287   0.380   1.811  1.3727  1.1199  0.1753
  449MOL0     H61922  -0.295   0.203   1.858  0.4028 -0.1840  1.4047
  449MOL0     H61923  -0.139   0.277   1.796  0.6198  0.9501  1.6025
  449MOL0     H61924  -0.702   0.440   2.147  0.2964 -0.1543 -0.5481
  449MOL0     H61925  -0.898   0.527   2.069 -0.4759  1.8924 -0.4263
  449MOL0     H61926  -0.949   0.661   1.728 -3.8390  0.3136 -1.1741
  449MOL0     H61927  -1.021   0.559   1.853 -0.9389 -0.0318  0.9747
  449MOL0     H61928  -1.136   0.840   1.768  2.1110  0.5571 -1.6742
  449MOL0     H61929  -1.187   0.680   1.713 -1.8201  0.9447  1.3175
  449MOL0     H61930  -1.335   0.744   1.869 -0.3388 -1.8267  1.5194
  449MOL0     H61931  -1.231   0.784   2.005 -2.4115  1.4366 -0.5507
  449MOL0     H61932  -1.164   0.541   2.001  0.4668 -0.2396 -1.4837
  449MOL0     H61933  -1.286   0.519   1.878  0.7792 -0.8905  0.8354
  449MOL0     H61934  -1.320   0.587   2.169 -2.3468  1.2935  1.2429
  449MOL0     H61935  -1.458   0.628   2.062 -0.4812  0.2506 -2.4279
  449MOL0     H61936  -1.348   0.343   2.059  1.2524  2.0326  1.0284
  449MOL0     H61937  -1.503   0.392   2.012  0.0616  4.0964 -1.1634
  449MOL0     H61938  -1.410   0.410   2.306 -1.9149  5.1012 -0.3486
  449MOL0     H61939  -1.490   0.274   2.230 -0.4905 -0.7044 -0.2724
  449MOL0     H61940  -1.684   0.427   2.179 -1.3348 -0.2993  2.2793
  449MOL0     H61941  -1.601   0.559   2.238 -1.6561 -0.3708 -4.0350
  449MOL0     H61942  -0.724   0.873   1.918 -0.8107  0.6884  2.0795
  449MOL0     H61943  -0.510   0.798   1.966  1.7016 -0.2671  2.0244
  449MOL0     H61944  -0.242   0.505   2.270  2.2374 -1.1718  2.5291
  449MOL0     H61945  -0.032   0.437   2.323  1.7394  1.7222 -0.9359
  449MOL0     H61946   0.136   0.347   1.101 -1.2052 -0.6240  0.0952
  449MOL0     H61947   0.094   0.262   0.881  0.4255  0.1499 -0.5298
  449MOL0     H61948   0.071   0.308   0.472 -0.3478  0.1267  0.4343
  449MOL0     H61949   0.001   0.335   0.224 -0.8168 -2.9647 -0.4979
  449MOL0     H61950   0.313   0.381  -0.082 -0.6199  0.8568 -0.4777
  449MOL0     H61951   0.295   0.198  -0.058  2.8897  0.9354 -1.0331
  449MOL0     H61952   0.090   0.201  -0.194 -1.1725  1.4872 -0.2318
  449MOL0     H61953   0.224   0.264  -0.285 -1.3892  0.1124 -1.1321
  449MOL0     H61954  -0.019   0.392  -0.161 -1.1467 -0.7666 -2.2050
  449MOL0     H61955   0.117   0.502  -0.178  1.7803  0.2724 -0.8249
  449MOL0     H61956  -0.066   0.494  -0.354  0.1031  0.7702 -1.5286
  449MOL0     H61957   0.017   0.349  -0.417 -0.0081 -0.2280 -0.4633
  449MOL0     H61958   0.308   0.624  -0.520  0.0263 -0.0282 -0.8060
  449MOL0     H61959   0.421   0.312   0.114 -1.1072 -2.0990  0.1832
  449MOL0     H61960   0.566   0.349   0.398  1.2528 -0.0895 -1.6728
  449MOL0     H61961   0.540   0.175   0.409 -1.8313  0.6233  0.5735
  449MOL0     H61962   0.580   0.256   0.250 -0.8275  3.3496 -2.5770
  450MOL0     O61963  10.312   9.126   7.167  0.4840 -0.6686 -0.0336
  450MOL0     C61964  10.395   9.176   7.242  0.2110 -0.0063  0.6350
  450MOL0     O61965  10.420   9.311   7.238 -0.7911  0.6563 -1.3893
  450MOL0     C61966  10.340   9.390   7.154  0.4775  0.7440 -0.3857
  450MOL0     C61967  10.380   9.413   7.021 -0.4628  1.0045 -0.7348
  450MOL0     C61968  10.324   9.511   6.944 -1.2057 -0.4198 -0.1102
  450MOL0     C61969  10.206   9.580   6.991 -0.6743 -1.0071  0.0353
  450MOL0     O61970  10.150   9.685   6.920 -0.1451 -0.3499 -0.2520
  450MOL0     C61971  10.024   9.678   6.856 -0.6614  0.0414  1.0376
  450MOL0     C61972  10.003   9.779   6.749  0.7151 -0.5517  0.3533
  450MOL0     C61973   9.883   9.738   6.659  0.1972  1.1138 -0.5929
  450MOL0     C61974   9.861   9.833   6.549  0.1831 -0.5684  0.8101
  450MOL0     C61975   9.925   9.775   6.419  0.3788  0.5010  0.0078
  450MOL0     C61976   9.933   9.863   6.293 -0.1018  0.3387 -0.5383
  450MOL0     C61977   9.784   9.895   6.236 -0.5623 -0.5937  0.7192
  450MOL0     C61978   9.782  10.012   6.138 -0.6047  0.9883  0.0407
  450MOL0     N61979   9.835  10.141   6.200 -0.6488 -0.5880  0.4835
  450MOL0     C61980   9.755  10.237   6.256 -0.0680 -0.2274 -0.8525
  450MOL0     C61981   9.833  10.348   6.283 -0.2698 -0.1273  0.2834
  450MOL0     C61982   9.768  10.469   6.356 -0.3887 -0.3326  0.2516
  450MOL0     C61983   9.834  10.590   6.300  0.9304 -0.0895 -0.1910
  450MOL0     C61984   9.951  10.647   6.375 -0.3207  0.4021  1.0160
  450MOL0     C61985   9.919  10.700   6.511  0.6562 -0.0175  0.1484
  450MOL0     O61986   9.790  10.767   6.518 -0.8608  0.4465 -0.2487
  450MOL0     C61987   9.758  10.844   6.630  0.2934 -0.0537  1.2171
  450MOL0     C61988   9.634  10.904   6.651 -0.3820 -0.0629  0.4883
  450MOL0     C61989   9.592  10.960   6.777 -0.7300  0.5837  0.8774
  450MOL0     C61990   9.448  10.996   6.770  0.4261  0.0244 -0.2739
  450MOL0     C61991   9.685  10.971   6.882  0.7515  0.6557 -0.5876
  450MOL0     C61992   9.654  11.018   7.017 -0.2114 -0.6032 -0.3545
  450MOL0     O61993   9.744  11.002   7.113  0.1305 -0.1921 -0.4570
  450MOL0     C61994   9.712  11.054   7.235 -0.2686  0.2219  1.3740
  450MOL0     C61995   9.628  10.989   7.334  0.2961 -0.2872  0.3089
  450MOL0     C61996   9.590  11.047   7.450 -0.1799  0.7344 -0.0680
  450MOL0     C61997   9.623  11.174   7.473 -0.0246 -1.0050 -0.7379
  450MOL0     O61998   9.567  11.250   7.570  0.2492  0.4346 -0.0815
  450MOL0     C61999   9.498  11.201   7.682  0.6512 -0.4070 -0.2711
  450MOL0     C62000   9.479  11.306   7.787  0.5689  0.1292 -0.1133
  450MOL0     C62001   9.595  11.344   7.881  0.0412  0.1359 -0.2849
  450MOL0     C62002   9.558  11.445   7.983  0.0206  0.3665 -0.6026
  450MOL0     C62003   9.672  11.480   8.079 -0.0730  0.5521 -0.1067
  450MOL0     C62004   9.650  11.616   8.155  0.7949  0.5348 -0.6041
  450MOL0     C62005   9.519  11.621   8.243  0.6866  0.4795 -0.3325
  450MOL0     C62006   9.514  11.756   8.321 -0.9282  0.5186 -0.4263
  450MOL0    Cl62007   9.440  11.889   8.240  0.2620  0.2497  0.0487
  450MOL0     C62008   9.704  11.242   7.385 -0.2529  0.0058 -0.5657
  450MOL0     C62009   9.746  11.184   7.271 -0.6070 -0.3570  0.8080
  450MOL0     O62010   9.546  11.075   7.035  0.0298  0.5365  0.2196
  450MOL0     C62011   9.811  10.919   6.854 -0.2138  0.4968 -0.2186
  450MOL0     C62012   9.844  10.852   6.739 -0.2036 -0.5025  0.2318
  450MOL0     N62013   9.956  10.323   6.230  0.3259 -0.7088 -0.0357
  450MOL0     N62014   9.959  10.198   6.188 -0.0692  0.1429 -0.6723
  450MOL0     C62015  10.163   9.546   7.115  0.6258 -0.7552  0.5559
  450MOL0     C62016  10.224   9.454   7.200  0.0471  0.8495 -0.2216
  450MOL0     C62017  10.476   9.083   7.324 -0.4915  0.3046  0.4399
  450MOL0     C62018  10.450   8.943   7.330 -0.1102 -0.4330 -0.0539
  450MOL0     C62019  10.536   8.850   7.397  1.1136  0.7392 -0.1247
  450MOL0     C62020  10.646   8.892   7.471  0.3584  0.0374 -0.2861
  450MOL0     O62021  10.728   8.806   7.547  0.1720 -0.0304 -0.0605
  450MOL0     C62022  10.711   8.667   7.540  0.4382  0.9909 -0.5046
  450MOL0     C62023  10.737   8.598   7.676 -0.2219 -0.5414  0.3110
  450MOL0     C62024  10.690   8.677   7.790 -0.6401 -0.1041  0.2379
  450MOL0     C62025  10.678   8.578   7.910 -0.0854 -0.5270  0.8586
  450MOL0     C62026  10.631   8.644   8.030  0.5302  0.0608  0.1397
  450MOL0     C62027  10.587   8.708   8.124  0.0082  0.3354 -1.1663
  450MOL0     C62028  10.680   9.028   7.466  0.2733 -0.1128 -1.0648
  450MOL0     C62029  10.597   9.122   7.390 -0.1505  0.8511 -0.0738
  450MOL0     C62030  10.649   9.259   7.386 -0.1492  0.5283  0.1086
  450MOL0     H62031  10.455   9.342   6.991 -0.3872 -0.5108  2.6191
  450MOL0     H62032  10.347   9.534   6.841  0.3250  0.4024  0.3909
  450MOL0     H62033   9.953   9.707   6.934 -0.9999  5.7795 -0.9670
  450MOL0     H62034   9.992   9.582   6.815 -2.4404 -0.0807  2.5889
  450MOL0     H62035   9.976   9.874   6.795 -0.8280  1.8840 -4.8419
  450MOL0     H62036  10.094   9.790   6.689 -1.0336  0.6861 -2.2497
  450MOL0     H62037   9.881   9.634   6.626 -1.9185  1.7318 -2.7162
  450MOL0     H62038   9.798   9.749   6.728 -0.8041 -0.6185 -1.4816
  450MOL0     H62039   9.757   9.861   6.529  0.6813  0.3513 -0.6843
  450MOL0     H62040   9.907   9.929   6.575  0.9220 -0.8106  0.4200
  450MOL0     H62041   9.868   9.684   6.398  0.5659  0.4674 -0.3596
  450MOL0     H62042  10.030   9.746   6.432  0.1195 -0.8170 -0.6195
  450MOL0     H62043   9.987   9.956   6.314 -1.7842  1.7225 -1.8914
  450MOL0     H62044   9.988   9.808   6.216  2.6380  1.5139  0.4639
  450MOL0     H62045   9.709   9.911   6.314 -1.0214 -0.7097  0.3083
  450MOL0     H62046   9.744   9.811   6.177 -2.5551  2.3718 -2.6042
  450MOL0     H62047   9.837   9.977   6.050  0.8435 -1.7477  1.8719
  450MOL0     H62048   9.683  10.025   6.095  0.2338  0.8013 -2.0932
  450MOL0     H62049   9.649  10.238   6.281 -0.0622  1.7393 -0.7761
  450MOL0     H62050   9.792  10.456   6.462  1.6374  4.0672  0.5822
  450MOL0     H62051   9.661  10.481   6.342 -0.7671  0.6222  3.2408
  450MOL0     H62052   9.876  10.568   6.202  3.3797 -0.4187  0.8526
  450MOL0     H62053   9.762  10.671   6.288  0.1186 -0.2843  2.6146
  450MOL0     H62054  10.029  10.571   6.388  1.8054  2.2491 -0.1231
  450MOL0     H62055   9.984  10.734   6.317 -2.5001 -0.5724 -1.8878
  450MOL0     H62056   9.918  10.619   6.584 -0.1620  0.4047  0.6255
  450MOL0     H62057  10.001  10.769   6.532 -0.6624  2.0907 -1.2092
  450MOL0     H62058   9.565  10.909   6.568  2.2948 -1.2869 -2.0172
  450MOL0     H62059   9.416  11.000   6.665  2.2328  0.8271 -0.8295
  450MOL0     H62060   9.430  11.091   6.820  0.7040 -1.0662  2.0456
  450MOL0     H62061   9.390  10.923   6.829  2.5582 -0.8417  0.8573
  450MOL0     H62062   9.605  10.883   7.323 -0.1271 -0.6582  3.7074
  450MOL0     H62063   9.525  11.003   7.526  0.8293  1.6248  1.3650
  450MOL0     H62064   9.398  11.180   7.642  1.3356 -0.2543 -2.1800
  450MOL0     H62065   9.539  11.115   7.734  1.0264  0.2335  0.5210
  450MOL0     H62066   9.435  11.397   7.746 -1.3152 -0.6110  0.1402
  450MOL0     H62067   9.393  11.270   7.845  0.0825 -2.8098 -2.4080
  450MOL0     H62068   9.667  11.391   7.812 -2.1162 -3.4312 -5.6881
  450MOL0     H62069   9.652  11.258   7.918 -1.6765 -0.7735  0.3262
  450MOL0     H62070   9.466  11.410   8.031 -0.1196  2.7999  1.0570
  450MOL0     H62071   9.524  11.539   7.938 -0.8962 -0.5631 -1.9776
  450MOL0     H62072   9.685  11.400   8.152  1.1579 -1.2093 -2.1445
  450MOL0     H62073   9.768  11.483   8.027  0.2130  1.9436  0.4534
  450MOL0     H62074   9.645  11.700   8.085  0.0168  0.0963 -1.0891
  450MOL0     H62075   9.736  11.626   8.222  0.5236 -1.9569  0.2159
  450MOL0     H62076   9.515  11.543   8.320 -4.2525  1.2200  0.4676
  450MOL0     H62077   9.439  11.606   8.170 -0.5101 -2.5549  1.4111
  450MOL0     H62078   9.618  11.779   8.346  0.0244 -2.9479 -0.7029
  450MOL0     H62079   9.459  11.741   8.414 -0.5518 -0.7200 -0.3849
  450MOL0     H62080   9.728  11.344   7.415  1.5195 -0.1048 -1.4780
  450MOL0     H62081   9.807  11.246   7.206 -4.4136  0.5314 -2.3056
  450MOL0     H62082   9.877  10.916   6.940  1.8938 -3.2289 -1.7309
  450MOL0     H62083   9.945  10.813   6.741 -0.0789 -0.1938  2.5954
  450MOL0     H62084  10.074   9.600   7.144 -2.5567 -0.8166 -6.8448
  450MOL0     H62085  10.183   9.423   7.295  1.6535  1.0439  0.5739
  450MOL0     H62086  10.372   8.899   7.269 -0.0567  2.4077 -2.4517
  450MOL0     H62087  10.512   8.745   7.381  3.3016 -0.0744  1.5985
  450MOL0     H62088  10.610   8.642   7.508 -0.0942  4.2250 -1.7860
  450MOL0     H62089  10.774   8.621   7.463 -1.6240  1.6958 -2.7419
  450MOL0     H62090  10.843   8.573   7.678 -0.4371 -2.1559 -2.2495
  450MOL0     H62091  10.683   8.503   7.669  0.6093 -0.9236 -1.7474
  450MOL0     H62092  10.762   8.759   7.794 -1.4377  0.6311 -0.1566
  450MOL0     H62093  10.588   8.711   7.768 -1.2027 -1.8869 -0.1063
  450MOL0     H62094  10.770   8.519   7.921  1.1936  1.1668 -0.1294
  450MOL0     H62095  10.602   8.507   7.877  0.6685 -2.7034  3.4296
  450MOL0     H62096  10.560   8.762   8.212  1.3003 -0.0756 -0.4915
  450MOL0     H62097  10.764   9.065   7.524 -1.0182  3.3389 -1.1350
  450MOL0     H62098  10.579   9.329   7.431  1.9415  1.8268  1.5565
  450MOL0     H62099  10.741   9.262   7.446  0.1647 -2.2806 -0.0971
  450MOL0     H62100  10.678   9.292   7.285 -1.2722  1.7887  0.1759
  451MOL0     O62101   4.948   4.097   0.359  0.2143  0.6015 -0.4007
  451MOL0     C62102   5.059   4.059   0.402  0.1360  0.2710 -0.3268
  451MOL0     O62103   5.119   3.937   0.381 -0.0615  0.3157 -0.7447
  451MOL0     C62104   5.065   3.852   0.282  1.3360 -0.0085 -0.6803
  451MOL0     C62105   5.070   3.714   0.306  0.5626 -0.3425  0.2212
  451MOL0     C62106   5.013   3.618   0.227  0.2790 -0.6066  0.1240
  451MOL0     C62107   4.966   3.656   0.099 -0.2626  0.7981 -0.2675
  451MOL0     O62108   4.918   3.573  -0.007 -0.1310  0.7003 -0.4673
  451MOL0     C62109   4.923   3.431   0.024  0.1198  0.0343 -0.1152
  451MOL0     C62110   4.883   3.359  -0.106 -0.5733  0.2481 -0.6574
  451MOL0     C62111   4.884   3.208  -0.081 -0.1865 -0.1205 -0.2016
  451MOL0     C62112   4.906   3.136  -0.213  0.3707  0.6532 -0.0776
  451MOL0     C62113   4.889   2.985  -0.190  0.1048  0.7703 -0.5324
  451MOL0     C62114   4.898   2.889  -0.309  0.7139  0.4076 -0.7728
  451MOL0     C62115   5.043   2.892  -0.355 -1.4253  0.2573  0.4107
  451MOL0     C62116   5.163   2.831  -0.265  0.4430  0.7100  0.1184
  451MOL0     N62117   5.134   2.688  -0.237  0.4699 -0.3151  0.6747
  451MOL0     C62118   5.114   2.588  -0.328 -0.0834  0.0228 -0.2671
  451MOL0     C62119   5.126   2.471  -0.264 -0.2267 -0.1099 -0.7892
  451MOL0     C62120   5.134   2.328  -0.313 -0.7138  0.0635 -0.7378
  451MOL0     C62121   5.155   2.323  -0.459 -0.5575  0.1300  0.4216
  451MOL0     C62122   5.195   2.179  -0.510  0.2538  0.4645  0.4444
  451MOL0     C62123   5.082   2.076  -0.495 -0.2554  0.3411 -0.1553
  451MOL0     O62124   5.124   1.960  -0.576  0.6737  0.7073  0.9086
  451MOL0     C62125   5.054   1.845  -0.565 -0.2267  0.2625  0.4255
  451MOL0     C62126   5.113   1.721  -0.618 -0.2454 -0.6691 -0.2031
  451MOL0     C62127   5.058   1.589  -0.605 -0.8963  0.3679 -0.4198
  451MOL0     C62128   5.143   1.467  -0.644 -0.5427 -0.9134 -0.3367
  451MOL0     C62129   4.925   1.579  -0.552 -0.0012  1.1115 -0.9541
  451MOL0     C62130   4.864   1.449  -0.513  0.5071 -0.1442  0.2175
  451MOL0     O62131   4.775   1.456  -0.413  0.1716 -0.4409  0.1774
  451MOL0     C62132   4.675   1.363  -0.387 -0.1678 -0.8068  0.0621
  451MOL0     C62133   4.656   1.320  -0.262 -0.2364 -0.0700 -0.5445
  451MOL0     C62134   4.564   1.221  -0.238  0.6675  0.6522 -0.0121
  451MOL0     C62135   4.474   1.178  -0.339  0.7853 -0.4760  0.2630
  451MOL0     O62136   4.370   1.089  -0.306 -0.0440 -0.3764 -0.0781
  451MOL0     C62137   4.230   1.119  -0.339  0.6266 -0.2280  0.0429
  451MOL0     C62138   4.131   1.079  -0.229  0.0343  0.4180 -0.0453
  451MOL0     C62139   4.164   1.125  -0.086  0.3105  0.1187  0.9283
  451MOL0     C62140   4.266   1.028  -0.021  1.1543 -0.9169 -0.5050
  451MOL0     C62141   4.264   1.029   0.131 -1.4258 -0.0927  0.0290
  451MOL0     C62142   4.372   0.929   0.198 -0.3464  0.4972  0.6966
  451MOL0     C62143   4.514   0.973   0.167  0.4060  1.0430 -1.0200
  451MOL0     C62144   4.599   0.912   0.267 -0.0380  0.0472 -0.5565
  451MOL0    Cl62145   4.559   0.732   0.271  0.2391 -0.5160 -0.1903
  451MOL0     C62146   4.499   1.227  -0.464 -0.2692 -0.1340 -0.0758
  451MOL0     C62147   4.603   1.309  -0.491  0.0393 -0.6786  0.3798
  451MOL0     O62148   4.869   1.360  -0.600 -0.3160 -0.3233 -0.0638
  451MOL0     C62149   4.859   1.701  -0.512  0.0236 -0.3664  0.3266
  451MOL0     C62150   4.922   1.827  -0.526 -0.1556  0.0908  0.9875
  451MOL0     N62151   5.140   2.513  -0.122  0.1801  0.6340 -0.0164
  451MOL0     N62152   5.139   2.637  -0.110 -0.5655 -1.0040  1.0858
  451MOL0     C62153   4.971   3.793   0.064 -0.3456  0.3290  0.3059
  451MOL0     C62154   5.016   3.891   0.156  0.8113  0.2730 -0.1533
  451MOL0     C62155   5.128   4.176   0.475 -0.5147  1.4656 -0.2239
  451MOL0     C62156   5.270   4.167   0.479 -0.3987  0.6411 -0.0096
  451MOL0     C62157   5.352   4.244   0.554  0.3746  0.0261  0.1710
  451MOL0     C62158   5.287   4.319   0.655  0.3778 -0.4592 -0.4558
  451MOL0     O62159   5.359   4.397   0.751  0.5226  0.6618 -0.0702
  451MOL0     C62160   5.365   4.338   0.879 -0.8566  0.4466  0.0295
  451MOL0     C62161   5.465   4.420   0.971 -0.2248  0.3600 -1.4579
  451MOL0     C62162   5.445   4.387   1.116  0.5546 -0.3340 -0.6600
  451MOL0     C62163   5.538   4.481   1.200 -0.4878 -0.1190 -0.4601
  451MOL0     C62164   5.680   4.425   1.179 -0.3598 -1.0400 -0.1815
  451MOL0     C62165   5.795   4.410   1.167 -0.4860  0.1124 -0.0131
  451MOL0     C62166   5.144   4.341   0.649  1.2351  0.4973  0.2203
  451MOL0     C62167   5.061   4.258   0.568 -0.0153 -0.8259  0.3491
  451MOL0     C62168   4.905   4.260   0.591  0.1741 -0.2470 -0.1662
  451MOL0     H62169   5.132   3.678   0.387 -0.7954  1.4014  2.1444
  451MOL0     H62170   5.009   3.512   0.247 -2.5806 -0.6704 -0.3975
  451MOL0     H62171   4.850   3.418   0.104  2.7367 -0.6617  2.3189
  451MOL0     H62172   5.025   3.402   0.052 -0.2126 -1.4673 -0.4027
  451MOL0     H62173   4.781   3.385  -0.135  0.7758  5.4535 -1.6580
  451MOL0     H62174   4.945   3.387  -0.192  1.1993 -2.4228 -0.3993
  451MOL0     H62175   4.940   3.179   0.008 -1.1001 -0.6690  0.2035
  451MOL0     H62176   4.778   3.195  -0.058 -0.3387  0.1382 -0.7320
  451MOL0     H62177   4.831   3.161  -0.288  0.5957  3.7362  0.5665
  451MOL0     H62178   5.006   3.154  -0.254 -0.1444  1.4138 -1.0481
  451MOL0     H62179   4.792   2.973  -0.140  0.3329 -0.3088 -0.3170
  451MOL0     H62180   4.969   2.948  -0.124 -0.2586  0.5797 -0.1984
  451MOL0     H62181   4.879   2.787  -0.273 -2.4364 -0.0113 -3.1502
  451MOL0     H62182   4.824   2.913  -0.385 -1.6982 -0.7479  1.0588
  451MOL0     H62183   5.075   2.994  -0.380 -1.8877  0.8291  2.0068
  451MOL0     H62184   5.043   2.842  -0.451  2.7396 -1.5666  1.1614
  451MOL0     H62185   5.259   2.838  -0.316 -1.2708 -0.6065 -3.6487
  451MOL0     H62186   5.175   2.881  -0.169  0.9478 -0.1558  0.5216
  451MOL0     H62187   5.124   2.580  -0.436  0.1578 -1.6888 -0.1520
  451MOL0     H62188   5.050   2.264  -0.285 -1.2998  0.8582 -0.6451
  451MOL0     H62189   5.225   2.285  -0.269  0.6074  1.4369 -1.9842
  451MOL0     H62190   5.068   2.357  -0.515 -1.1382 -1.9410 -0.0097
  451MOL0     H62191   5.237   2.384  -0.499 -2.0422 -0.5911 -4.2661
  451MOL0     H62192   5.228   2.196  -0.613  2.0359  0.3192  0.9539
  451MOL0     H62193   5.294   2.153  -0.471 -0.6462  0.3220  2.7688
  451MOL0     H62194   5.059   2.039  -0.394  1.5256 -0.1894  0.1028
  451MOL0     H62195   4.992   2.126  -0.530 -0.1932 -0.1856 -1.0966
  451MOL0     H62196   5.214   1.734  -0.654 -0.2027 -0.4786 -0.0189
  451MOL0     H62197   5.250   1.488  -0.631 -0.7535  0.4789 -0.7411
  451MOL0     H62198   5.112   1.451  -0.747 -5.9346  2.0520  0.4609
  451MOL0     H62199   5.111   1.378  -0.590 -1.8596 -0.7848 -0.8812
  451MOL0     H62200   4.706   1.374  -0.182 -0.1119 -0.3506 -0.4311
  451MOL0     H62201   4.538   1.190  -0.137  1.4354 -0.7744 -0.2333
  451MOL0     H62202   4.205   1.223  -0.359  5.1049  1.0502 -0.0380
  451MOL0     H62203   4.213   1.064  -0.433  1.6990  2.0584 -1.5830
  451MOL0     H62204   4.045   1.132  -0.269 -1.4385 -3.3512 -2.4849
  451MOL0     H62205   4.097   0.975  -0.237  0.9162  0.2864 -3.4419
  451MOL0     H62206   4.073   1.129  -0.024  1.3853  2.0338  2.4893
  451MOL0     H62207   4.196   1.230  -0.089 -0.3456  0.3105 -2.5073
  451MOL0     H62208   4.369   1.049  -0.051  1.7756 -1.7126  0.9350
  451MOL0     H62209   4.228   0.928  -0.045  0.9497 -1.0457  0.2953
  451MOL0     H62210   4.277   1.131   0.169  0.1105  0.3133 -1.4691
  451MOL0     H62211   4.164   0.996   0.160 -0.7760  0.0028  2.6217
  451MOL0     H62212   4.346   0.838   0.143  1.5307 -0.6773  1.6555
  451MOL0     H62213   4.343   0.904   0.300  1.5093 -3.2224  0.4744
  451MOL0     H62214   4.536   1.080   0.163  2.4248  0.8366  1.5386
  451MOL0     H62215   4.542   0.921   0.075 -1.2061 -2.4936  0.3257
  451MOL0     H62216   4.587   0.961   0.364 -0.4547  1.8014 -1.4561
  451MOL0     H62217   4.700   0.932   0.229  1.5700  0.0367  3.2380
  451MOL0     H62218   4.453   1.168  -0.543  0.2087 -1.3480  0.5256
  451MOL0     H62219   4.616   1.345  -0.592  0.4726 -0.8538  0.3697
  451MOL0     H62220   4.763   1.707  -0.462 -0.3648  2.2753 -0.5803
  451MOL0     H62221   4.860   1.909  -0.491 -5.2692 -2.4772 -1.1565
  451MOL0     H62222   4.926   3.828  -0.029  0.1464 -1.8126 -0.7989
  451MOL0     H62223   5.011   3.996   0.130 -4.5265  0.4984  0.6091
  451MOL0     H62224   5.310   4.098   0.405 -1.9281 -1.4401  0.9900
  451MOL0     H62225   5.459   4.239   0.543  0.8616 -0.4441  3.8161
  451MOL0     H62226   5.266   4.347   0.924 -1.4454  2.1391 -1.5159
  451MOL0     H62227   5.406   4.237   0.867 -2.1016  0.0727 -1.4120
  451MOL0     H62228   5.439   4.525   0.955 -0.2975  0.2805 -1.8817
  451MOL0     H62229   5.570   4.402   0.944  0.4834  0.1057  1.1606
  451MOL0     H62230   5.342   4.412   1.142  1.2973  0.4547  1.7930
  451MOL0     H62231   5.468   4.282   1.136  1.5374 -0.5155 -2.5215
  451MOL0     H62232   5.511   4.473   1.305 -0.3091 -1.6562 -0.5131
  451MOL0     H62233   5.525   4.583   1.162  0.5692 -0.8213 -2.9330
  451MOL0     H62234   5.901   4.398   1.170 -0.2469  2.0247  0.4394
  451MOL0     H62235   5.113   4.405   0.730 -0.0415 -3.3380  3.0560
  451MOL0     H62236   4.859   4.330   0.521 -1.6384 -3.1681 -2.1208
  451MOL0     H62237   4.856   4.163   0.585  0.4491 -0.3044 -1.8006
  451MOL0     H62238   4.888   4.307   0.689 -0.9161 -1.0337  0.0333
  452MOL0     O62239   9.545  10.897   9.508 -0.1560 -0.0854  0.4485
  452MOL0     C62240   9.454  10.818   9.464 -0.2021 -0.7980 -0.6558
  452MOL0     O62241   9.433  10.802   9.336  0.1457 -0.2657  1.1419
  452MOL0     C62242   9.517  10.863   9.240  0.6274  0.9958  1.1103
  452MOL0     C62243   9.606  10.785   9.161  0.1015 -0.0353 -0.1242
  452MOL0     C62244   9.697  10.848   9.070 -1.2692 -0.5348 -0.1572
  452MOL0     C62245   9.707  10.991   9.073  0.2763 -0.4469 -0.9163
  452MOL0     O62246   9.797  11.061   9.000 -0.3180 -0.0882  0.3000
  452MOL0     C62247   9.839  11.018   8.859  0.3988 -0.1257 -0.9949
  452MOL0     C62248   9.821  11.139   8.772  0.0705  0.0643 -0.1825
  452MOL0     C62249   9.665  11.183   8.773  0.1749 -0.3075 -0.3087
  452MOL0     C62250   9.587  11.080   8.699  0.6602  0.4787  0.6838
  452MOL0     C62251   9.442  11.143   8.667 -0.4835  0.1803 -0.0719
  452MOL0     C62252   9.347  11.028   8.624 -0.3733  0.1110 -0.2324
  452MOL0     C62253   9.251  10.993   8.741 -0.7018  0.3600  0.1347
  452MOL0     C62254   9.334  10.927   8.852  0.4714  0.7793 -0.7641
  452MOL0     N62255   9.247  10.902   8.974 -0.4747 -0.5997  0.1233
  452MOL0     C62256   9.211  10.997   9.061  0.3638  0.1700  0.6069
  452MOL0     C62257   9.110  10.948   9.131 -0.2769  0.5208 -0.0614
  452MOL0     C62258   9.039  11.032   9.231 -0.3718  0.3602 -0.8494
  452MOL0     C62259   9.113  11.034   9.363 -0.3861 -0.3608 -0.3170
  452MOL0     C62260   9.021  11.096   9.471 -0.3939  0.0450  0.3095
  452MOL0     C62261   9.090  11.066   9.601 -0.3431  0.1163  0.0149
  452MOL0     O62262   9.226  11.117   9.598  0.5336 -0.4548  0.5945
  452MOL0     C62263   9.274  11.120   9.720 -0.3937 -0.1336 -0.3882
  452MOL0     C62264   9.314  11.242   9.768  0.6671  0.2186 -0.1306
  452MOL0     C62265   9.368  11.263   9.895  0.2255 -0.6310  0.0940
  452MOL0     C62266   9.388  11.406   9.929  0.0566 -0.6655 -1.4074
  452MOL0     C62267   9.394  11.156   9.987  1.1445  0.6181  0.9558
  452MOL0     C62268   9.467  11.166  10.116 -0.9148  0.7012  0.3266
  452MOL0     O62269   9.544  11.273  10.142  0.4969  0.0631 -0.0957
  452MOL0     C62270   9.607  11.314  10.264 -0.8011  0.3602  0.3852
  452MOL0     C62271   9.703  11.412  10.267  0.1995  0.6781 -0.5514
  452MOL0     C62272   9.740  11.468  10.393  1.3546  0.3646  0.8630
  452MOL0     C62273   9.698  11.422  10.518 -0.3976  0.3001 -0.1776
  452MOL0     O62274   9.749  11.488  10.623 -0.2185 -0.2671  0.1851
  452MOL0     C62275   9.718  11.435  10.754  0.0274  0.4735 -0.6737
  452MOL0     C62276   9.768  11.530  10.866  0.6899 -0.4836  1.6232
  452MOL0     C62277   9.924  11.526  10.868  0.4205  0.3698  0.0695
  452MOL0     C62278   9.984  11.632  10.951 -0.5792 -0.0306  0.6573
  452MOL0     C62279  10.139  11.644  10.937 -0.0746 -0.7014 -0.0017
  452MOL0     C62280  10.166  11.759  10.843  1.3361 -0.3268 -0.4470
  452MOL0     C62281  10.321  11.773  10.840  0.2940 -0.2126  0.2939
  452MOL0     C62282  10.362  11.891  10.750  0.8312 -0.6599 -0.1820
  452MOL0    Cl62283  10.282  12.044  10.783  0.0620  0.3647  0.0255
  452MOL0     C62284   9.613  11.314  10.516  0.0210  0.5041  0.9213
  452MOL0     C62285   9.569  11.267  10.391  0.6157  0.1338 -0.4215
  452MOL0     O62286   9.462  11.069  10.194  0.6589  0.0236 -0.0501
  452MOL0     C62287   9.357  11.030   9.933 -0.2197  0.1882 -0.1487
  452MOL0     C62288   9.301  11.013   9.807  0.3319 -0.1389  0.1880
  452MOL0     N62289   9.079  10.817   9.087  0.2901 -2.2289  0.5032
  452MOL0     N62290   9.158  10.797   8.991 -0.0458 -0.3393  0.3261
  452MOL0     C62291   9.603  11.064   9.135 -0.0644 -0.1098 -0.3611
  452MOL0     C62292   9.505  10.998   9.214 -0.0218 -0.2374 -0.5112
  452MOL0     C62293   9.405  10.724   9.568 -0.5303  0.4137  0.4153
  452MOL0     C62294   9.453  10.737   9.700  0.1612  0.4775 -0.8979
  452MOL0     C62295   9.419  10.633   9.791  0.6483  0.1601 -0.2693
  452MOL0     C62296   9.330  10.530   9.761 -0.9664  0.0423  0.7941
  452MOL0     O62297   9.294  10.421   9.840 -0.7138  0.6219 -0.4500
  452MOL0     C62298   9.284  10.443   9.983 -0.6882 -0.2669 -0.0135
  452MOL0     C62299   9.228  10.314  10.055 -0.3322  0.8233 -0.3371
  452MOL0     C62300   9.073  10.326  10.074  0.0877 -0.5616 -0.4965
  452MOL0     C62301   9.020  10.193  10.134 -0.1337  0.2589 -0.2122
  452MOL0     C62302   8.888  10.221  10.187 -0.2000 -0.0522 -0.2608
  452MOL0     C62303   8.782  10.216  10.247  1.2135  0.5081  1.1997
  452MOL0     C62304   9.271  10.530   9.635 -0.8384 -0.8959  0.0556
  452MOL0     C62305   9.307  10.625   9.533 -0.1201 -0.2983  0.4670
  452MOL0     C62306   9.238  10.608   9.403  0.2656 -0.0988  0.9558
  452MOL0     H62307   9.602  10.676   9.166  2.0259 -0.3310 -2.6837
  452MOL0     H62308   9.756  10.779   9.010 -1.7095 -1.4328  0.4222
  452MOL0     H62309   9.789  10.930   8.818  0.5896 -0.4121 -0.6234
  452MOL0     H62310   9.946  10.999   8.866  0.3246 -0.8067 -1.6266
  452MOL0     H62311   9.883  11.225   8.798  0.2009 -0.3051  0.7639
  452MOL0     H62312   9.866  11.125   8.674  1.4053 -0.0332  0.4293
  452MOL0     H62313   9.625  11.198   8.874 -2.2102 -3.5282 -0.6360
  452MOL0     H62314   9.662  11.275   8.715  3.9067 -1.0722 -2.0259
  452MOL0     H62315   9.636  11.061   8.604 -0.4296  0.9285  0.0080
  452MOL0     H62316   9.570  10.994   8.765  0.5124  1.3812  1.8675
  452MOL0     H62317   9.444  11.214   8.585  0.1436  0.6441  0.3344
  452MOL0     H62318   9.405  11.201   8.752 -0.0871  0.4933 -0.1127
  452MOL0     H62319   9.283  11.067   8.544 -1.0926 -1.1084 -0.2774
  452MOL0     H62320   9.409  10.949   8.581 -2.6583 -0.8577 -1.9690
  452MOL0     H62321   9.164  10.939   8.703  1.2575 -1.3025 -2.4216
  452MOL0     H62322   9.210  11.086   8.779  0.2385  0.4917  0.8574
  452MOL0     H62323   9.392  10.841   8.818 -1.0753 -1.5563  2.0710
  452MOL0     H62324   9.405  11.005   8.885 -0.8152  2.0560 -0.9193
  452MOL0     H62325   9.256  11.095   9.071 -1.1824  1.1140 -1.0297
  452MOL0     H62326   8.938  10.991   9.242  0.0394 -0.3764  0.3708
  452MOL0     H62327   9.016  11.137   9.209 -2.9947  0.3889  1.4215
  452MOL0     H62328   9.139  10.932   9.391  0.6466  0.3456  1.5129
  452MOL0     H62329   9.203  11.096   9.358  0.6210 -1.6664  0.7913
  452MOL0     H62330   9.007  11.201   9.444 -0.2855 -0.4695 -1.9462
  452MOL0     H62331   8.919  11.057   9.482 -0.5634  0.0428 -1.1329
  452MOL0     H62332   9.030  11.105   9.684 -2.8765 -1.0456 -1.1382
  452MOL0     H62333   9.081  10.960   9.627 -3.1637  0.8315  2.5871
  452MOL0     H62334   9.305  11.324   9.698  2.5556 -0.4418 -1.2225
  452MOL0     H62335   9.489  11.444   9.911  0.0374  0.0547 -0.0972
  452MOL0     H62336   9.342  11.418  10.028 -0.4703  0.7553 -1.7989
  452MOL0     H62337   9.329  11.475   9.869 -1.4241 -1.0445 -0.4539
  452MOL0     H62338   9.740  11.466  10.181  0.0683 -2.0157 -2.4224
  452MOL0     H62339   9.797  11.560  10.396  0.9954  0.6328 -0.1374
  452MOL0     H62340   9.610  11.428  10.767 -0.1320 -1.3477 -2.5005
  452MOL0     H62341   9.756  11.336  10.778 -0.7963  0.4096  0.4409
  452MOL0     H62342   9.719  11.625  10.843 -0.9148 -1.1595  2.1191
  452MOL0     H62343   9.733  11.479  10.956 -1.0784 -0.5366  0.9350
  452MOL0     H62344   9.964  11.533  10.767 -0.2999 -2.9378 -0.5714
  452MOL0     H62345   9.960  11.432  10.912  2.1511  0.8321 -0.2920
  452MOL0     H62346   9.961  11.608  11.055  1.4399 -3.0615  0.5368
  452MOL0     H62347   9.932  11.723  10.922 -0.5135  0.4555  2.0181
  452MOL0     H62348  10.188  11.669  11.031  0.7614 -1.6206 -0.1743
  452MOL0     H62349  10.180  11.551  10.896 -0.0932  0.0316 -1.8092
  452MOL0     H62350  10.129  11.854  10.882  1.8622  0.2160 -1.2359
  452MOL0     H62351  10.119  11.743  10.746 -1.1815  0.1370  0.6333
  452MOL0     H62352  10.362  11.685  10.790 -0.3705  0.0189 -0.6973
  452MOL0     H62353  10.371  11.778  10.937 -0.4419  0.3223  0.6564
  452MOL0     H62354  10.341  11.862  10.646  1.6156 -0.7327 -0.3267
  452MOL0     H62355  10.467  11.917  10.767  0.4306  1.5394 -0.7633
  452MOL0     H62356   9.580  11.274  10.611 -0.4371 -0.8293  0.2250
  452MOL0     H62357   9.500  11.184  10.398  0.1844  0.4649 -0.6588
  452MOL0     H62358   9.381  10.934   9.978  1.4638 -1.4316 -4.0781
  452MOL0     H62359   9.276  10.916   9.766  1.3107  0.5593 -2.2888
  452MOL0     H62360   9.606  11.172   9.127  2.1912 -0.0788  0.1942
  452MOL0     H62361   9.441  11.060   9.276  0.0991  0.7566 -1.3533
  452MOL0     H62362   9.525  10.814   9.727  1.3798 -0.9254 -0.0082
  452MOL0     H62363   9.448  10.634   9.896 -2.2594 -0.7651  0.6636
  452MOL0     H62364   9.378  10.478  10.027  0.0934  0.3522 -2.0736
  452MOL0     H62365   9.213  10.524  10.004 -1.2402 -0.7371 -0.0554
  452MOL0     H62366   9.273  10.301  10.154 -1.0052  1.0709  0.0069
  452MOL0     H62367   9.257  10.231   9.990 -0.9049  1.9986 -2.1721
  452MOL0     H62368   9.059  10.416  10.135 -2.1579 -0.9370 -0.3959
  452MOL0     H62369   9.014  10.339   9.983  0.6839 -0.2602 -0.8490
  452MOL0     H62370   9.075  10.150  10.219 -4.0733 -1.6668  1.6328
  452MOL0     H62371   9.022  10.117  10.055  0.1066  1.1809 -1.1137
  452MOL0     H62372   8.689  10.223  10.301  0.5952 -1.5751  0.4801
  452MOL0     H62373   9.204  10.452   9.598 -4.2722  1.6020  0.5363
  452MOL0     H62374   9.151  10.543   9.417  0.1240  0.0536  0.7812
  452MOL0     H62375   9.195  10.699   9.359  0.6167 -1.2934 -2.0732
  452MOL0     H62376   9.301  10.562   9.327 -1.0185 -0.1831 -0.0901
  453MOL0     O62377   8.354   8.929   7.400 -0.4788  0.4619 -0.0198
  453MOL0     C62378   8.384   8.932   7.520  0.2755 -1.1391  0.1388
  453MOL0     O62379   8.477   9.013   7.577 -0.7481 -0.2475  0.7490
  453MOL0     C62380   8.501   9.130   7.501  0.3607  0.4835  0.4086
  453MOL0     C62381   8.564   9.127   7.378  0.8286  0.9506  1.0796
  453MOL0     C62382   8.572   9.247   7.305 -0.8317  1.0636 -0.7958
  453MOL0     C62383   8.544   9.369   7.365  0.6596 -0.3851  0.2402
  453MOL0     O62384   8.577   9.489   7.296  0.5021  0.3790  0.6471
  453MOL0     C62385   8.479   9.595   7.295  0.1968  0.3611 -0.3491
  453MOL0     C62386   8.484   9.653   7.156 -0.0996  0.8363 -0.0124
  453MOL0     C62387   8.474   9.549   7.034 -0.1335 -0.8606 -0.5867
  453MOL0     C62388   8.335   9.554   6.965  0.4089 -0.7192  0.4439
  453MOL0     C62389   8.317   9.441   6.859 -0.1978 -0.4894 -0.2369
  453MOL0     C62390   8.320   9.291   6.925  0.6400 -0.4717  0.4263
  453MOL0     C62391   8.303   9.191   6.810 -0.3155 -0.6298 -0.0327
  453MOL0     C62392   8.336   9.052   6.864  0.8151 -0.4834 -0.5316
  453MOL0     N62393   8.486   9.035   6.879  1.1947 -0.0314  0.1824
  453MOL0     C62394   8.575   9.017   6.775 -0.6870 -0.0499  0.1540
  453MOL0     C62395   8.688   8.981   6.842 -0.0206 -0.1228 -0.3450
  453MOL0     C62396   8.825   8.949   6.784 -0.8349 -0.1416 -0.5369
  453MOL0     C62397   8.849   8.797   6.790  0.0403  0.0634 -0.4311
  453MOL0     C62398   8.767   8.729   6.680 -0.1705  0.3015 -0.8978
  453MOL0     C62399   8.796   8.587   6.653 -0.1157 -0.1060 -1.0592
  453MOL0     O62400   8.713   8.540   6.539  0.8175  0.9672 -0.2070
  453MOL0     C62401   8.708   8.405   6.519  0.3940  0.7637  0.5948
  453MOL0     C62402   8.800   8.313   6.574  0.5769  0.2622 -0.2773
  453MOL0     C62403   8.792   8.174   6.537  0.1478 -0.7265 -0.3512
  453MOL0     C62404   8.897   8.090   6.606 -0.3728 -0.4241 -0.0053
  453MOL0     C62405   8.696   8.130   6.444 -0.4368  0.4029  0.4112
  453MOL0     C62406   8.688   7.986   6.398 -0.5834  0.0051 -0.0462
  453MOL0     O62407   8.811   7.920   6.396  1.1561  0.3120  0.1190
  453MOL0     C62408   8.816   7.792   6.338  0.2470  0.3260  0.2881
  453MOL0     C62409   8.827   7.776   6.196  0.3398  0.7645  0.0555
  453MOL0     C62410   8.841   7.649   6.140  0.3050 -0.1911  0.4039
  453MOL0     C62411   8.844   7.526   6.217 -0.6981  0.0909  0.0700
  453MOL0     O62412   8.878   7.402   6.162  0.1214 -0.0990 -0.3443
  453MOL0     C62413   8.902   7.283   6.244 -0.2736 -1.1297 -0.7841
  453MOL0     C62414   8.954   7.188   6.135  0.5279  0.4304 -0.1512
  453MOL0     C62415   8.995   7.052   6.203  0.3437  0.1406  0.1163
  453MOL0     C62416   9.028   6.936   6.109 -0.1244  0.5714 -0.2445
  453MOL0     C62417   9.029   6.806   6.192  0.6878  0.2914 -0.3713
  453MOL0     C62418   9.082   6.693   6.100  0.3796  0.4178 -0.4446
  453MOL0     C62419   9.117   6.556   6.172  0.1167 -0.1593 -0.6713
  453MOL0     C62420   9.191   6.468   6.074 -0.3565 -0.6899  0.6207
  453MOL0    Cl62421   9.345   6.536   6.034 -0.4465 -0.3588  0.0865
  453MOL0     C62422   8.843   7.541   6.352  0.9511 -0.1089  0.2100
  453MOL0     C62423   8.823   7.668   6.409  0.1148 -1.3892  0.2160
  453MOL0     O62424   8.581   7.939   6.367  0.1097  0.5778  0.2166
  453MOL0     C62425   8.603   8.220   6.401  0.1668  0.2138  0.7272
  453MOL0     C62426   8.610   8.347   6.435  0.7749 -0.7083 -0.3769
  453MOL0     N62427   8.663   8.976   6.980 -0.3579  0.5103  0.1207
  453MOL0     N62428   8.544   9.006   6.999  0.5614  0.2443 -0.6891
  453MOL0     C62429   8.482   9.372   7.494 -0.0644 -0.3257 -0.6796
  453MOL0     C62430   8.458   9.253   7.553  0.3181  0.2497  0.0347
  453MOL0     C62431   8.326   8.824   7.610 -0.4094 -0.2162  0.3667
  453MOL0     C62432   8.324   8.689   7.567 -0.4545 -1.1592  0.5868
  453MOL0     C62433   8.253   8.603   7.642 -0.4001  0.6020  0.0448
  453MOL0     C62434   8.200   8.639   7.767 -0.1640  0.0183  0.7673
  453MOL0     O62435   8.138   8.550   7.845  0.6295 -0.1501 -0.5653
  453MOL0     C62436   8.027   8.486   7.773 -0.3019  1.2065 -0.0888
  453MOL0     C62437   7.981   8.369   7.860  0.8729 -0.2998 -0.4870
  453MOL0     C62438   7.927   8.431   7.993  0.0083  0.7086  0.6765
  453MOL0     C62439   7.784   8.490   7.975  0.3309  0.5510  0.1465
  453MOL0     C62440   7.735   8.530   8.109  0.1180  1.0594  0.0632
  453MOL0     C62441   7.702   8.584   8.206  0.1681 -0.8186 -1.2700
  453MOL0     C62442   8.222   8.761   7.822 -0.6713 -0.2766 -0.1993
  453MOL0     C62443   8.277   8.859   7.745  0.3982  0.3935 -0.7277
  453MOL0     C62444   8.273   8.996   7.803  0.3330 -1.0926  0.4823
  453MOL0     H62445   8.591   9.028   7.343 -2.7461  0.5212 -0.8795
  453MOL0     H62446   8.618   9.233   7.208  0.4228 -0.7266 -0.0048
  453MOL0     H62447   8.494   9.673   7.370 -4.2377  1.7221 -0.5726
  453MOL0     H62448   8.380   9.554   7.319  0.7721  0.3638  2.3346
  453MOL0     H62449   8.416   9.739   7.147 -0.3468  0.7905  1.3015
  453MOL0     H62450   8.588   9.686   7.146  0.0384  0.6416  0.7522
  453MOL0     H62451   8.547   9.578   6.958 -2.0928  1.1341 -1.8116
  453MOL0     H62452   8.491   9.448   7.072 -2.1313 -1.3883 -0.9708
  453MOL0     H62453   8.253   9.548   7.036  0.4325  0.8517  0.6355
  453MOL0     H62454   8.329   9.648   6.910  0.7588 -0.9061  0.0801
  453MOL0     H62455   8.395   9.433   6.783 -0.5985 -2.3192 -0.5207
  453MOL0     H62456   8.222   9.456   6.807 -0.9015 -3.6770 -0.0966
  453MOL0     H62457   8.419   9.287   6.971  2.7478 -0.1489 -3.6539
  453MOL0     H62458   8.244   9.285   7.003 -0.2854 -0.1620 -0.4303
  453MOL0     H62459   8.370   9.209   6.725  1.0765 -2.2206  0.6730
  453MOL0     H62460   8.199   9.191   6.775 -1.5626  2.0366  3.1658
  453MOL0     H62461   8.282   9.040   6.958 -2.8405 -0.0770 -2.3911
  453MOL0     H62462   8.290   8.976   6.800 -4.5869 -0.1253  2.2958
  453MOL0     H62463   8.571   9.039   6.669 -0.6529  1.9014  0.5315
  453MOL0     H62464   8.895   8.991   6.856 -2.1331  1.2035 -0.0103
  453MOL0     H62465   8.835   8.997   6.686 -0.1201  1.0701  0.1046
  453MOL0     H62466   8.953   8.783   6.759  0.1448 -0.6882  0.2078
  453MOL0     H62467   8.840   8.747   6.887  2.0302 -0.4947 -0.4859
  453MOL0     H62468   8.664   8.741   6.715  0.1783 -0.9864  0.6383
  453MOL0     H62469   8.791   8.781   6.587  0.8558  1.5651  0.0362
  453MOL0     H62470   8.902   8.570   6.630 -0.1001  0.3805 -1.3648
  453MOL0     H62471   8.770   8.535   6.746 -2.1427  0.3180 -1.3363
  453MOL0     H62472   8.876   8.338   6.647  1.7741 -2.1402 -0.6204
  453MOL0     H62473   8.958   8.037   6.533 -0.1057  2.1112 -1.7505
  453MOL0     H62474   8.847   8.032   6.684 -0.7147 -0.2947 -0.1268
  453MOL0     H62475   8.974   8.153   6.653  0.2538 -0.7490 -0.5714
  453MOL0     H62476   8.833   7.863   6.131  2.1042  3.0530  3.0089
  453MOL0     H62477   8.836   7.634   6.032  5.2224  1.2191 -0.2430
  453MOL0     H62478   8.974   7.309   6.322 -0.6467  1.8927 -1.3334
  453MOL0     H62479   8.817   7.228   6.285 -0.6609 -0.8587 -1.2019
  453MOL0     H62480   8.872   7.176   6.063 -1.5123  2.8821  1.5462
  453MOL0     H62481   9.038   7.230   6.080  2.1595 -1.9179  0.4075
  453MOL0     H62482   8.916   7.025   6.275  0.2677 -0.6751 -0.2615
  453MOL0     H62483   9.086   7.070   6.260  1.4898 -3.4792 -0.3226
  453MOL0     H62484   9.129   6.950   6.069 -0.1629 -1.2101 -1.0817
  453MOL0     H62485   8.961   6.923   6.023  1.2281 -0.6350 -1.1713
  453MOL0     H62486   9.084   6.811   6.286  0.2493  0.9889 -0.1424
  453MOL0     H62487   8.928   6.781   6.225  0.9801  1.0418  1.1778
  453MOL0     H62488   9.167   6.733   6.044 -0.7682  2.7883 -0.6028
  453MOL0     H62489   9.007   6.681   6.022  0.0922  4.0464 -0.9080
  453MOL0     H62490   9.018   6.514   6.192  0.0359 -0.7268 -2.1330
  453MOL0     H62491   9.184   6.576   6.256  0.5552 -0.5591 -0.9235
  453MOL0     H62492   9.126   6.457   5.987  0.5010 -2.8746  0.1876
  453MOL0     H62493   9.187   6.372   6.126 -2.2760 -0.8560  0.2295
  453MOL0     H62494   8.868   7.461   6.421  1.7211 -0.0581 -0.0055
  453MOL0     H62495   8.813   7.690   6.515  0.0422 -0.6497  0.0592
  453MOL0     H62496   8.532   8.189   6.325  2.9068 -4.0311 -0.4246
  453MOL0     H62497   8.537   8.412   6.388  0.0515 -1.3195 -0.1174
  453MOL0     H62498   8.453   9.465   7.541 -1.1656 -1.6479  1.4005
  453MOL0     H62499   8.416   9.244   7.653  0.4907 -2.4476 -0.0609
  453MOL0     H62500   8.364   8.662   7.470 -0.5695 -0.7442  0.4219
  453MOL0     H62501   8.268   8.509   7.590  0.0725 -0.5340  2.1426
  453MOL0     H62502   7.949   8.561   7.754 -1.8798 -0.4090 -0.2775
  453MOL0     H62503   8.038   8.446   7.672  0.2992  0.9536  0.0754
  453MOL0     H62504   8.051   8.290   7.888  0.9232 -0.0767  0.0309
  453MOL0     H62505   7.909   8.322   7.792  1.6871 -0.4497 -1.2589
  453MOL0     H62506   7.927   8.357   8.074 -1.4436  2.7895  2.7290
  453MOL0     H62507   7.994   8.513   8.020  0.9465 -0.5977  2.5963
  453MOL0     H62508   7.720   8.414   7.930  2.4724 -1.2483 -0.0071
  453MOL0     H62509   7.783   8.579   7.910 -0.0612  0.5293  0.1209
  453MOL0     H62510   7.685   8.637   8.297  0.8075 -2.4376 -0.1791
  453MOL0     H62511   8.193   8.778   7.925 -2.7964 -2.0509 -0.4273
  453MOL0     H62512   8.225   9.066   7.734 -0.2129 -2.3145 -0.4155
  453MOL0     H62513   8.220   8.995   7.899  1.5782 -7.0680  1.4728
  453MOL0     H62514   8.369   9.043   7.824 -0.1149  0.5069 -0.8815
  454MOL0     O62515  11.109   6.647   0.601 -0.1325 -0.1414 -0.6011
  454MOL0     C62516  11.043   6.683   0.507  0.4627  1.1806 -0.2441
  454MOL0     O62517  11.082   6.763   0.406 -0.0726 -0.7274 -0.3910
  454MOL0     C62518  11.220   6.782   0.396  0.0337 -0.0104 -0.2254
  454MOL0     C62519  11.271   6.902   0.437 -0.0415  0.6358  0.6232
  454MOL0     C62520  11.404   6.936   0.419 -0.3818 -0.0271  0.4986
  454MOL0     C62521  11.498   6.840   0.373  0.6155 -0.0515  0.6772
  454MOL0     O62522  11.629   6.869   0.373  0.3661 -0.3774  0.2525
  454MOL0     C62523  11.729   6.771   0.389 -0.1488  0.8759 -0.2359
  454MOL0     C62524  11.868   6.831   0.418 -0.4700  1.0720 -0.2702
  454MOL0     C62525  11.900   6.909   0.298 -0.0794  0.7341  0.6415
  454MOL0     C62526  12.054   6.935   0.305 -0.0288  0.8366  0.4317
  454MOL0     C62527  12.110   7.052   0.230  0.2385 -0.1682  0.7163
  454MOL0     C62528  12.106   7.030   0.079  0.4731 -0.4705  1.4423
  454MOL0     C62529  12.129   7.149  -0.022  0.3698 -0.0184 -0.2057
  454MOL0     C62530  12.272   7.147  -0.070 -0.0056  0.3919  0.5069
  454MOL0     N62531  12.311   7.272  -0.136  0.1804 -0.4167 -0.5476
  454MOL0     C62532  12.292   7.303  -0.267  0.3011  0.1425  0.1665
  454MOL0     C62533  12.339   7.426  -0.285  0.3239  0.0195 -1.2303
  454MOL0     C62534  12.347   7.491  -0.422  1.3056 -0.6424 -0.9604
  454MOL0     C62535  12.304   7.641  -0.425  0.0823  0.3437 -0.3839
  454MOL0     C62536  12.211   7.682  -0.539  0.4990  0.4624 -0.3093
  454MOL0     C62537  12.079   7.591  -0.546 -0.6170  0.1334 -0.4411
  454MOL0     O62538  11.966   7.663  -0.504  0.1889 -0.0088  0.9158
  454MOL0     C62539  11.849   7.667  -0.577 -0.0752  0.1750  0.4245
  454MOL0     C62540  11.735   7.711  -0.504 -0.5180 -0.0843 -0.6841
  454MOL0     C62541  11.618   7.737  -0.571  0.6459  0.8985  0.9809
  454MOL0     C62542  11.507   7.790  -0.484 -0.1224  0.7779 -0.1660
  454MOL0     C62543  11.609   7.706  -0.706  0.7894 -0.0757 -0.7593
  454MOL0     C62544  11.477   7.724  -0.779 -0.0892  0.5567  0.1269
  454MOL0     O62545  11.414   7.842  -0.768 -0.1255  0.4042  0.5593
  454MOL0     C62546  11.295   7.868  -0.838  0.5304  0.2991 -0.2302
  454MOL0     C62547  11.268   7.995  -0.889  0.8028  0.5228  0.4410
  454MOL0     C62548  11.141   8.021  -0.950 -0.1458 -0.2252 -0.8501
  454MOL0     C62549  11.053   7.920  -0.986 -0.4334  0.2346 -0.8050
  454MOL0     O62550  10.942   7.962  -1.053  0.5031  0.0049 -0.0120
  454MOL0     C62551  10.824   7.874  -1.061 -0.0895  0.4868  1.3185
  454MOL0     C62552  10.711   7.953  -1.122  0.9920 -0.1561 -0.3944
  454MOL0     C62553  10.731   7.993  -1.264  1.1066 -0.7633 -0.6527
  454MOL0     C62554  10.659   8.132  -1.298  0.0798  0.1507  0.5404
  454MOL0     C62555  10.510   8.128  -1.273  0.4473  0.6449  0.3028
  454MOL0     C62556  10.482   8.214  -1.150  0.1302 -0.5207  0.4321
  454MOL0     C62557  10.333   8.216  -1.120 -0.8869 -0.1893 -0.2425
  454MOL0     C62558  10.289   8.301  -0.993 -0.2080 -0.1382 -0.0339
  454MOL0    Cl62559  10.110   8.335  -0.985  0.0672  0.7105  0.5036
  454MOL0     C62560  11.081   7.794  -0.940  0.1845  1.2956  0.2639
  454MOL0     C62561  11.192   7.773  -0.849  1.1929  0.2932  0.1293
  454MOL0     O62562  11.441   7.629  -0.851 -0.3831  0.0905  0.1841
  454MOL0     C62563  11.712   7.660  -0.780 -0.5239 -0.5183  0.1268
  454MOL0     C62564  11.837   7.637  -0.716 -0.8935 -0.2962  0.6835
  454MOL0     N62565  12.397   7.470  -0.170  0.4104 -0.0298 -0.2982
  454MOL0     N62566  12.383   7.375  -0.083  0.2336  0.1963 -0.0589
  454MOL0     C62567  11.448   6.713   0.330 -0.0963 -0.4360  0.4340
  454MOL0     C62568  11.313   6.691   0.346 -0.0617 -0.1392  0.4234
  454MOL0     C62569  10.902   6.643   0.515 -0.0776 -0.7761 -1.3048
  454MOL0     C62570  10.818   6.749   0.476 -0.3540  0.0421 -0.7639
  454MOL0     C62571  10.680   6.712   0.462 -0.5611  0.3327  0.2812
  454MOL0     C62572  10.631   6.577   0.473 -1.5267 -0.3001 -0.2522
  454MOL0     O62573  10.498   6.563   0.457  0.2332 -1.7397  0.4896
  454MOL0     C62574  10.432   6.439   0.419  0.2484 -0.2474  0.0941
  454MOL0     C62575  10.481   6.394   0.276  0.3992 -0.0803 -0.9834
  454MOL0     C62576  10.410   6.264   0.214  0.2417 -0.3823  0.6921
  454MOL0     C62577  10.476   6.242   0.075  0.2160 -0.5528 -0.4656
  454MOL0     C62578  10.433   6.345  -0.039  0.5798 -1.0238 -0.5975
  454MOL0     C62579  10.396   6.418  -0.126  0.1260  0.6758  0.4290
  454MOL0     C62580  10.718   6.480   0.512 -1.4955  0.2518 -0.0044
  454MOL0     C62581  10.857   6.509   0.538 -0.8782  1.0481 -0.2687
  454MOL0     C62582  10.963   6.397   0.555 -0.2199 -0.4306 -0.0595
  454MOL0     H62583  11.197   6.970   0.480 -3.0927 -1.6801 -0.5848
  454MOL0     H62584  11.439   7.031   0.458 -2.5688  0.3401  1.7198
  454MOL0     H62585  11.730   6.708   0.299 -0.1315 -0.5485  0.7290
  454MOL0     H62586  11.714   6.704   0.475  2.9691 -0.7891 -0.8484
  454MOL0     H62587  11.875   6.896   0.505  0.5693  0.7778 -0.1183
  454MOL0     H62588  11.934   6.746   0.436 -1.6574 -1.0161 -4.4486
  454MOL0     H62589  11.871   6.860   0.205  1.9564 -0.9779  0.8264
  454MOL0     H62590  11.839   7.000   0.292  0.0712  0.7697 -0.7475
  454MOL0     H62591  12.075   6.956   0.410 -0.6457  0.4989  0.6246
  454MOL0     H62592  12.109   6.847   0.268 -1.2496 -0.1641  0.9170
  454MOL0     H62593  12.213   7.076   0.257 -0.3814  0.2203  2.9319
  454MOL0     H62594  12.031   7.122   0.258  0.6694 -0.0663  1.7096
  454MOL0     H62595  12.172   6.945   0.060 -0.4226 -1.4752  2.7383
  454MOL0     H62596  12.004   6.997   0.057  0.8320 -1.7213  1.6267
  454MOL0     H62597  12.108   7.235   0.042 -0.4796 -0.5838  0.3057
  454MOL0     H62598  12.055   7.150  -0.103 -0.7925 -2.9959  0.6727
  454MOL0     H62599  12.345   7.126   0.009  0.4134 -2.5214 -0.5214
  454MOL0     H62600  12.293   7.073  -0.147  2.5887  1.6571 -0.1272
  454MOL0     H62601  12.258   7.231  -0.341  1.2899  0.8039 -0.9582
  454MOL0     H62602  12.298   7.437  -0.503 -0.9523  0.6938 -0.5597
  454MOL0     H62603  12.452   7.483  -0.453  1.5043 -1.0375 -0.2108
  454MOL0     H62604  12.234   7.665  -0.344  1.4527  0.7888  0.7157
  454MOL0     H62605  12.392   7.705  -0.423  0.5062 -0.2460  0.2260
  454MOL0     H62606  12.170   7.782  -0.549  0.4744  0.4286 -0.5412
  454MOL0     H62607  12.275   7.674  -0.628  0.0657 -2.4606 -0.4731
  454MOL0     H62608  12.068   7.537  -0.641 -0.5716 -2.0637  0.7265
  454MOL0     H62609  12.075   7.512  -0.471 -2.0382 -0.8730 -1.4984
  454MOL0     H62610  11.754   7.749  -0.404 -0.2891  0.1987 -0.8327
  454MOL0     H62611  11.537   7.796  -0.379 -1.2330  2.1461  0.0901
  454MOL0     H62612  11.415   7.734  -0.500 -1.4639  1.9212  2.8570
  454MOL0     H62613  11.493   7.894  -0.514  1.3225  2.0135  3.0278
  454MOL0     H62614  11.323   8.084  -0.861 -0.7982  0.8744  2.7961
  454MOL0     H62615  11.115   8.122  -0.978 -0.0313  0.4221  1.2642
  454MOL0     H62616  10.847   7.778  -1.110 -0.0672  0.9321  0.4355
  454MOL0     H62617  10.785   7.857  -0.960 -0.4265  0.2088  1.1449
  454MOL0     H62618  10.619   7.894  -1.116 -0.9986  2.8032  0.5274
  454MOL0     H62619  10.689   8.040  -1.059  1.0449  0.2273 -0.8918
  454MOL0     H62620  10.694   7.923  -1.338  1.4427  1.3941 -3.0061
  454MOL0     H62621  10.836   8.016  -1.283  1.3961 -0.9995  0.5542
  454MOL0     H62622  10.676   8.145  -1.405 -0.0022  0.6567  0.5853
  454MOL0     H62623  10.716   8.212  -1.249 -1.2496  2.0947 -0.9372
  454MOL0     H62624  10.454   8.172  -1.357 -1.9319  0.7489  1.8375
  454MOL0     H62625  10.479   8.026  -1.249  0.5619  0.4235 -0.4576
  454MOL0     H62626  10.523   8.314  -1.160 -0.9353 -0.2443 -1.6398
  454MOL0     H62627  10.530   8.163  -1.065 -0.7848  0.3319  1.4940
  454MOL0     H62628  10.300   8.113  -1.105 -0.3273 -0.4230 -0.5493
  454MOL0     H62629  10.294   8.256  -1.214 -0.5599 -0.2606 -0.4116
  454MOL0     H62630  10.333   8.401  -1.001 -2.2278  0.6740 -2.6544
  454MOL0     H62631  10.322   8.232  -0.916  1.9652  0.0883 -0.7037
  454MOL0     H62632  11.009   7.715  -0.957 -0.9702  2.2867  0.4493
  454MOL0     H62633  11.202   7.678  -0.796  0.7297  0.6067  0.7920
  454MOL0     H62634  11.706   7.646  -0.888  2.2714 -0.3782 -0.1283
  454MOL0     H62635  11.921   7.609  -0.780 -1.4287  1.0614 -0.6710
  454MOL0     H62636  11.513   6.640   0.283  1.6314  0.2118  1.6590
  454MOL0     H62637  11.277   6.592   0.320 -0.3278 -0.4137  1.7603
  454MOL0     H62638  10.849   6.850   0.455 -0.9419 -0.0741 -2.3408
  454MOL0     H62639  10.600   6.776   0.427 -1.0858 -1.1466 -1.4216
  454MOL0     H62640  10.448   6.356   0.488  1.2424  1.3599  1.8929
  454MOL0     H62641  10.326   6.463   0.410  0.3621  0.6757  1.0106
  454MOL0     H62642  10.587   6.370   0.285  0.5613  0.5426 -1.1600
  454MOL0     H62643  10.481   6.479   0.207 -0.4924  0.4587 -0.3380
  454MOL0     H62644  10.422   6.175   0.276  0.4345  0.0290  1.2467
  454MOL0     H62645  10.305   6.291   0.201 -0.6066 -3.6823 -0.2411
  454MOL0     H62646  10.431   6.146   0.047 -2.2968  0.3776  0.1262
  454MOL0     H62647  10.586   6.234   0.078  0.0871 -3.2333 -0.0376
  454MOL0     H62648  10.369   6.487  -0.204  3.6692 -0.0143 -1.6649
  454MOL0     H62649  10.681   6.382   0.539  0.2812 -0.8465 -1.2995
  454MOL0     H62650  10.917   6.299   0.544 -2.3952  0.7520 -3.1219
  454MOL0     H62651  11.037   6.397   0.474 -0.6174  0.6990 -0.4587
  454MOL0     H62652  11.005   6.399   0.656 -3.0507  3.1157  1.2803
  455MOL0     O62653   3.577   9.237   8.864 -0.0410 -0.6863 -0.3535
  455MOL0     C62654   3.645   9.147   8.901 -0.1486  0.4731 -0.7176
  455MOL0     O62655   3.665   9.102   9.028 -0.1406 -0.1000 -1.0431
  455MOL0     C62656   3.632   9.174   9.144 -0.1791 -0.4420 -0.1057
  455MOL0     C62657   3.541   9.277   9.154  0.2127  0.6370  0.1044
  455MOL0     C62658   3.507   9.334   9.281  0.3542  0.4358  0.6475
  455MOL0     C62659   3.575   9.299   9.402  0.6094  0.1365  1.2444
  455MOL0     O62660   3.563   9.356   9.528 -0.0193  0.5487  0.7009
  455MOL0     C62661   3.466   9.458   9.542 -0.4605 -0.5202 -0.0507
  455MOL0     C62662   3.499   9.604   9.510  0.2408  0.2375  0.3420
  455MOL0     C62663   3.620   9.663   9.590  0.1007 -0.0375  0.0328
  455MOL0     C62664   3.626   9.816   9.574 -0.4881 -0.1799 -0.7236
  455MOL0     C62665   3.734   9.880   9.667 -0.1466  0.5100  0.9959
  455MOL0     C62666   3.736  10.034   9.671  0.0758  0.5760 -0.6866
  455MOL0     C62667   3.611  10.067   9.752  0.3040 -0.0472 -0.5050
  455MOL0     C62668   3.604  10.218   9.788 -0.1435 -1.1854 -0.8164
  455MOL0     N62669   3.536  10.220   9.912  0.1239 -0.0714  0.8087
  455MOL0     C62670   3.400  10.234   9.925  0.1613 -0.8204  0.7895
  455MOL0     C62671   3.376  10.225  10.060  0.2138 -1.3681  0.7887
  455MOL0     C62672   3.242  10.247  10.121  0.4510 -0.9869 -0.0306
  455MOL0     C62673   3.152  10.136  10.099  0.6575 -0.0452  0.4823
  455MOL0     C62674   3.018  10.165  10.164 -0.5469  0.6507  0.4203
  455MOL0     C62675   2.908  10.072  10.121 -0.0339 -0.1825 -0.1313
  455MOL0     O62676   2.889   9.955  10.203 -0.0859  0.3428 -0.0353
  455MOL0     C62677   2.805   9.948  10.310  0.7257 -0.6732  0.1099
  455MOL0     C62678   2.724  10.052  10.352 -0.3137 -0.4270 -0.6188
  455MOL0     C62679   2.641  10.038  10.459  0.9207  0.4533  0.5494
  455MOL0     C62680   2.554  10.164  10.482  0.0716  0.6585 -0.0547
  455MOL0     C62681   2.626   9.923  10.536 -0.7869 -0.5970 -0.5332
  455MOL0     C62682   2.552   9.909  10.670 -0.2902 -0.9188  0.5449
  455MOL0     O62683   2.496   9.792  10.703  0.1127 -0.4898  0.0348
  455MOL0     C62684   2.477   9.769  10.838 -0.6949  0.4879  0.2612
  455MOL0     C62685   2.588   9.760  10.924 -0.2959  0.2539  1.1243
  455MOL0     C62686   2.581   9.738  11.063 -0.0078  0.2476  0.2906
  455MOL0     C62687   2.451   9.741  11.117  0.0232 -0.9556 -0.6184
  455MOL0     O62688   2.431   9.707  11.250  0.0824  0.0775 -0.5565
  455MOL0     C62689   2.507   9.801  11.340  0.0252  0.8029 -0.5017
  455MOL0     C62690   2.571   9.724  11.455 -0.4144  0.2832  0.7266
  455MOL0     C62691   2.477   9.704  11.576  0.5407  0.3210 -0.6568
  455MOL0     C62692   2.367   9.599  11.538  0.9756  0.9951 -0.7887
  455MOL0     C62693   2.294   9.530  11.652  0.7470 -0.1276  0.2621
  455MOL0     C62694   2.179   9.618  11.698 -0.4425 -1.0513  0.4314
  455MOL0     C62695   2.212   9.685  11.835 -0.1040  0.6225 -0.0327
  455MOL0     C62696   2.163   9.831  11.855  0.3759 -0.8675 -0.0348
  455MOL0    Cl62697   2.215   9.941  11.718  0.0247  0.5496 -0.2481
  455MOL0     C62698   2.344   9.761  11.036  0.3413 -0.2351  1.0061
  455MOL0     C62699   2.359   9.772  10.903  0.2529  0.4468 -0.5722
  455MOL0     O62700   2.550  10.013  10.733 -0.3967  0.1816  0.2428
  455MOL0     C62701   2.712   9.819  10.489 -1.1395 -0.9954 -0.7944
  455MOL0     C62702   2.797   9.829  10.374 -0.1841 -0.6726  0.1747
  455MOL0     N62703   3.500  10.216  10.123  0.2853 -0.1980  0.4905
  455MOL0     N62704   3.593  10.228  10.038 -0.6020 -0.3779 -0.5596
  455MOL0     C62705   3.665   9.188   9.385 -0.2192  0.2933  0.0701
  455MOL0     C62706   3.692   9.124   9.266  0.8264 -1.0001  0.8174
  455MOL0     C62707   3.699   9.055   8.803 -0.0358 -0.2167  0.7203
  455MOL0     C62708   3.667   8.920   8.810 -1.1655 -0.2739  0.2705
  455MOL0     C62709   3.716   8.836   8.708 -0.1303  0.1858 -0.0401
  455MOL0     C62710   3.788   8.884   8.602  0.5881 -0.0617  0.7145
  455MOL0     O62711   3.828   8.808   8.492 -0.0075 -0.6927 -0.4947
  455MOL0     C62712   3.861   8.666   8.513 -0.8585  0.0921 -0.7621
  455MOL0     C62713   3.976   8.625   8.605 -0.7310  1.4048 -0.1916
  455MOL0     C62714   3.975   8.471   8.636  0.3052 -0.3604 -0.0313
  455MOL0     C62715   3.920   8.420   8.765 -0.1159  0.0523  0.7320
  455MOL0     C62716   3.771   8.406   8.756 -0.4014  0.8717  0.4069
  455MOL0     C62717   3.649   8.386   8.763  0.0185  0.1770  0.6016
  455MOL0     C62718   3.811   9.025   8.595  0.6330  0.1331 -0.0139
  455MOL0     C62719   3.778   9.107   8.696  0.9166 -0.8927 -0.8211
  455MOL0     C62720   3.820   9.248   8.678 -0.4287 -0.3273  0.0081
  455MOL0     H62721   3.487   9.326   9.074 -1.3369  1.8603  1.8196
  455MOL0     H62722   3.431   9.412   9.281  1.0112  1.1049 -0.7124
  455MOL0     H62723   3.448   9.454   9.650  2.3585 -2.0253  0.4479
  455MOL0     H62724   3.377   9.431   9.484 -1.8422  5.5709 -1.4691
  455MOL0     H62725   3.519   9.615   9.403  0.0442 -1.6968  0.0638
  455MOL0     H62726   3.412   9.669   9.521  0.1949  0.5303 -1.4358
  455MOL0     H62727   3.616   9.631   9.695  0.5911 -0.3738 -0.0480
  455MOL0     H62728   3.706   9.615   9.543 -1.1502 -0.4384 -1.9526
  455MOL0     H62729   3.648   9.835   9.468  2.0463 -0.3299 -0.2821
  455MOL0     H62730   3.526   9.853   9.598 -0.8982 -2.2997  1.1363
  455MOL0     H62731   3.828   9.837   9.629 -1.1232  0.7654 -1.9799
  455MOL0     H62732   3.711   9.852   9.770  0.1629  0.3574  1.0237
  455MOL0     H62733   3.833  10.055   9.716 -0.3283 -0.4256  0.7581
  455MOL0     H62734   3.739  10.077   9.571 -0.6320  0.3683 -0.8053
  455MOL0     H62735   3.610  10.010   9.846  0.6346 -3.4874 -2.4176
  455MOL0     H62736   3.516  10.054   9.699 -0.0376  3.0434 -0.8572
  455MOL0     H62737   3.704  10.257   9.810 -1.4789  1.6715  0.7745
  455MOL0     H62738   3.554  10.277   9.711 -2.2826 -1.5393  0.2338
  455MOL0     H62739   3.322  10.246   9.850 -1.3743  0.7750  2.5341
  455MOL0     H62740   3.202  10.338  10.076  0.8219  0.3908  2.2982
  455MOL0     H62741   3.247  10.261  10.229 -2.0037  0.3356 -0.0159
  455MOL0     H62742   3.142  10.118   9.992 -1.1304 -1.0486  0.7708
  455MOL0     H62743   3.194  10.041  10.133 -0.8507 -1.2259 -0.7938
  455MOL0     H62744   3.025  10.171  10.273  0.8612 -1.5561  0.5224
  455MOL0     H62745   2.979  10.262  10.132 -2.0035  0.2207  0.8297
  455MOL0     H62746   2.815  10.130  10.127 -0.8092 -1.4531  0.9730
  455MOL0     H62747   2.937  10.042  10.020  2.0840  2.8327 -0.5338
  455MOL0     H62748   2.732  10.152  10.310 -1.2991 -2.0570 -5.3782
  455MOL0     H62749   2.454  10.122  10.467  0.5186 -0.7445  0.8439
  455MOL0     H62750   2.564  10.256  10.422 -1.3829  1.4413  0.8504
  455MOL0     H62751   2.570  10.200  10.584  3.0800 -1.0556  0.1953
  455MOL0     H62752   2.682   9.753  10.869  2.0867  0.1066  4.8225
  455MOL0     H62753   2.673   9.722  11.119 -1.9231  0.9244  3.9175
  455MOL0     H62754   2.573   9.871  11.289  3.1101 -0.3141  1.6551
  455MOL0     H62755   2.432   9.861  11.394  1.5925 -0.9740  4.1521
  455MOL0     H62756   2.600   9.628  11.410 -0.7250  0.2633  0.5645
  455MOL0     H62757   2.658   9.780  11.491 -0.7638 -0.7529  3.4247
  455MOL0     H62758   2.430   9.797  11.609 -2.0100 -0.4916 -1.7867
  455MOL0     H62759   2.532   9.682  11.667 -2.0672 -1.1045  0.6867
  455MOL0     H62760   2.403   9.516  11.478  1.1196  1.0838 -0.8251
  455MOL0     H62761   2.291   9.649  11.476  0.1714  0.9385  0.1167
  455MOL0     H62762   2.257   9.435  11.612  1.4997 -0.2492 -0.1756
  455MOL0     H62763   2.374   9.508  11.723  1.9351  0.5958 -0.8036
  455MOL0     H62764   2.092   9.551  11.698 -0.3918 -1.1204  0.7745
  455MOL0     H62765   2.149   9.698  11.629 -0.2267  1.0782  2.6780
  455MOL0     H62766   2.319   9.685  11.859 -0.5305 -0.0178  2.1387
  455MOL0     H62767   2.168   9.618  11.909  0.7274 -0.2483 -0.3119
  455MOL0     H62768   2.203   9.863  11.952 -3.2037  0.0436  1.3073
  455MOL0     H62769   2.054   9.828  11.861 -0.0987  0.7157 -4.2970
  455MOL0     H62770   2.248   9.763  11.086 -0.6799 -2.1604 -0.7364
  455MOL0     H62771   2.275   9.780  10.834  1.1291 -1.1747 -1.8919
  455MOL0     H62772   2.699   9.725  10.542 -2.4139 -0.1074  0.5535
  455MOL0     H62773   2.877   9.767  10.336 -0.8510  0.0078 -2.5706
  455MOL0     H62774   3.715   9.148   9.473 -2.3257 -2.0818  0.3227
  455MOL0     H62775   3.760   9.040   9.262  0.9625 -0.8454 -0.5487
  455MOL0     H62776   3.609   8.880   8.892  1.0905  0.2844  2.2637
  455MOL0     H62777   3.682   8.734   8.708  0.6443 -0.2180 -3.6998
  455MOL0     H62778   3.769   8.615   8.543  0.5063 -1.9838  0.1367
  455MOL0     H62779   3.890   8.626   8.415  2.9552 -2.1263  1.0119
  455MOL0     H62780   3.978   8.684   8.698 -1.2067 -0.5049  1.0903
  455MOL0     H62781   4.070   8.646   8.552  0.1438 -1.8096 -0.1214
  455MOL0     H62782   3.930   8.419   8.551  1.2563  0.6495 -1.1924
  455MOL0     H62783   4.082   8.450   8.636  0.3569 -0.0997 -0.2362
  455MOL0     H62784   3.939   8.506   8.830 -0.7362  0.7681 -0.0169
  455MOL0     H62785   3.965   8.325   8.794 -2.5820 -1.1665  0.7394
  455MOL0     H62786   3.542   8.382   8.765  0.0457 -1.1726  2.9056
  455MOL0     H62787   3.838   9.068   8.499  1.3642 -0.0080  0.1249
  455MOL0     H62788   3.921   9.259   8.637 -0.0469 -3.5061 -0.1866
  455MOL0     H62789   3.754   9.288   8.600 -0.7458 -0.5089  0.1834
  455MOL0     H62790   3.810   9.307   8.769  0.8859  0.4952 -0.3499
  456MOL0     O62791   6.745   8.447   0.553  0.0816 -0.4274 -0.2063
  456MOL0     C62792   6.697   8.363   0.626  0.6708 -0.2868 -0.1812
  456MOL0     O62793   6.714   8.355   0.765 -0.1516  0.3574  0.1351
  456MOL0     C62794   6.794   8.451   0.824 -0.2969  0.3450 -0.0826
  456MOL0     C62795   6.935   8.455   0.798 -0.6154 -1.1164  0.9752
  456MOL0     C62796   7.013   8.525   0.889 -0.5303  0.0792  0.3194
  456MOL0     C62797   6.958   8.600   0.995  0.2240 -0.0483 -0.5258
  456MOL0     O62798   7.045   8.675   1.065 -0.3336  0.0024 -0.2668
  456MOL0     C62799   7.123   8.603   1.162  0.8772  0.6052 -0.7825
  456MOL0     C62800   7.109   8.647   1.305  0.3563  0.0391 -0.2327
  456MOL0     C62801   6.976   8.677   1.353  0.1125  0.7670 -0.1204
  456MOL0     C62802   6.972   8.750   1.492 -0.7970 -0.3901 -0.0189
  456MOL0     C62803   6.837   8.785   1.553  1.0423  0.1486  0.5775
  456MOL0     C62804   6.857   8.848   1.689  1.2624 -0.1026  0.1274
  456MOL0     C62805   6.854   9.008   1.682  0.1807 -0.3899  0.2227
  456MOL0     C62806   6.910   9.087   1.815  1.4832  1.0369  0.5561
  456MOL0     N62807   7.057   9.092   1.816 -0.1772 -0.1241  0.3187
  456MOL0     C62808   7.141   9.029   1.726  0.9008  0.4916 -1.5002
  456MOL0     C62809   7.266   9.068   1.753  0.7663  0.3096 -0.2120
  456MOL0     C62810   7.385   9.024   1.667 -0.5789  0.2348 -0.0512
  456MOL0     C62811   7.436   9.119   1.551 -0.0322  0.2987 -0.0910
  456MOL0     C62812   7.555   9.038   1.483  0.1074 -0.8089 -0.6485
  456MOL0     C62813   7.605   9.115   1.364 -0.3973 -0.6290  0.1330
  456MOL0     O62814   7.729   9.069   1.322 -1.1334  1.2657  0.5151
  456MOL0     C62815   7.767   9.124   1.197 -0.0945 -0.3216 -0.0742
  456MOL0     C62816   7.853   9.228   1.197 -0.1363  0.3019 -0.7668
  456MOL0     C62817   7.900   9.276   1.070 -0.1691  0.1239  0.5579
  456MOL0     C62818   7.994   9.394   1.089  0.9305 -0.1412  0.9575
  456MOL0     C62819   7.850   9.221   0.945  0.3541 -0.7474 -0.9783
  456MOL0     C62820   7.901   9.266   0.809  0.9671  0.9279 -0.2027
  456MOL0     O62821   7.869   9.177   0.710  0.4451 -0.5822 -0.2821
  456MOL0     C62822   7.909   9.212   0.584 -0.3407  0.3609  0.4039
  456MOL0     C62823   7.828   9.269   0.488  0.8055  0.7064 -0.7917
  456MOL0     C62824   7.872   9.327   0.372 -0.6329 -0.4965  0.2857
  456MOL0     C62825   8.010   9.320   0.343  0.0518  0.1701  0.5861
  456MOL0     O62826   8.060   9.366   0.218 -0.2138  0.2515 -0.0226
  456MOL0     C62827   8.031   9.506   0.178  0.7179  1.8562  0.4147
  456MOL0     C62828   8.116   9.604   0.256 -0.6359  1.1364 -0.3010
  456MOL0     C62829   8.112   9.741   0.198 -1.0144 -0.5725 -0.4230
  456MOL0     C62830   8.236   9.826   0.255 -0.4881 -0.1886  1.0051
  456MOL0     C62831   8.372   9.774   0.222  0.3396  0.7572  0.3539
  456MOL0     C62832   8.485   9.859   0.261 -0.1155 -0.2025  0.5676
  456MOL0     C62833   8.610   9.792   0.213 -0.8906 -0.5972 -0.1077
  456MOL0     C62834   8.740   9.817   0.296 -0.4911 -1.6395 -0.3827
  456MOL0    Cl62835   8.732   9.995   0.337  0.2968  0.4915  0.2676
  456MOL0     C62836   8.090   9.246   0.430 -0.1594 -0.1103  0.0835
  456MOL0     C62837   8.043   9.195   0.552  0.7369  0.6544  0.2234
  456MOL0     O62838   7.923   9.384   0.795 -0.6336  0.2571  0.7973
  456MOL0     C62839   7.764   9.110   0.953  0.2567  0.1754  0.7087
  456MOL0     C62840   7.730   9.061   1.075  0.9524  0.4610  0.0039
  456MOL0     N62841   7.268   9.140   1.868  0.4846 -0.3238 -0.8551
  456MOL0     N62842   7.139   9.157   1.904 -0.6539 -0.1666 -0.0759
  456MOL0     C62843   6.813   8.594   1.016 -0.4638  0.2295 -0.8048
  456MOL0     C62844   6.736   8.522   0.927  0.6350  1.0368  0.3170
  456MOL0     C62845   6.623   8.248   0.560 -0.3440  0.0763 -0.6213
  456MOL0     C62846   6.593   8.143   0.644 -0.4392  0.4007 -0.5030
  456MOL0     C62847   6.533   8.027   0.596  0.8662  0.1729 -0.0217
  456MOL0     C62848   6.503   8.013   0.460  0.3172  0.6669 -0.3347
  456MOL0     O62849   6.441   7.900   0.406  0.9285 -0.1713 -0.2870
  456MOL0     C62850   6.299   7.905   0.375  0.2958 -0.4222 -0.2128
  456MOL0     C62851   6.216   7.942   0.496  0.0566  0.7146  0.4257
  456MOL0     C62852   6.209   7.811   0.584 -0.2830 -0.2296 -0.0861
  456MOL0     C62853   6.124   7.835   0.716 -0.8982 -0.2802 -0.1109
  456MOL0     C62854   5.985   7.815   0.677  0.1004  0.6971 -0.0610
  456MOL0     C62855   5.870   7.822   0.646 -0.1117  0.3251 -0.5651
  456MOL0     C62856   6.528   8.127   0.379  0.4719  0.4857 -0.6039
  456MOL0     C62857   6.580   8.244   0.426  0.2570  0.3365  1.2747
  456MOL0     C62858   6.562   8.361   0.337  0.9539 -0.2493  0.3252
  456MOL0     H62859   6.989   8.383   0.738 -0.0747  1.6204 -2.1399
  456MOL0     H62860   7.120   8.516   0.871 -0.5703  0.3069 -0.0379
  456MOL0     H62861   7.230   8.606   1.142  0.4902  0.7952 -3.0679
  456MOL0     H62862   7.088   8.500   1.175  1.4587  0.4770 -0.2016
  456MOL0     H62863   7.157   8.575   1.372  1.7097 -0.7610 -1.9855
  456MOL0     H62864   7.161   8.743   1.306 -1.3531  1.3080 -5.2267
  456MOL0     H62865   6.922   8.733   1.276 -1.8359  1.5383  1.7131
  456MOL0     H62866   6.921   8.585   1.375  0.0940  0.5200 -1.1332
  456MOL0     H62867   7.036   8.697   1.564 -1.6456 -2.4245 -0.7004
  456MOL0     H62868   7.017   8.847   1.467 -0.1562 -0.4807  0.7261
  456MOL0     H62869   6.782   8.691   1.561  0.7903  0.1843 -0.5676
  456MOL0     H62870   6.774   8.850   1.492 -1.6412 -1.3589  1.5938
  456MOL0     H62871   6.773   8.818   1.753  0.3989 -0.1668 -0.9963
  456MOL0     H62872   6.948   8.826   1.746  2.0834  3.3159  0.3996
  456MOL0     H62873   6.751   9.045   1.676  1.2724  2.8357 -0.3538
  456MOL0     H62874   6.915   9.046   1.600 -0.3963  1.8937  0.7772
  456MOL0     H62875   6.870   9.188   1.798 -0.1330  0.5430  1.2202
  456MOL0     H62876   6.877   9.036   1.906  1.3465  1.0004  0.4861
  456MOL0     H62877   7.120   8.972   1.636 -1.3338  0.5234 -1.0602
  456MOL0     H62878   7.356   8.928   1.623 -0.6759  0.8971 -1.4960
  456MOL0     H62879   7.463   9.005   1.741 -1.6738 -0.6536  0.9168
  456MOL0     H62880   7.352   9.126   1.482  0.0172 -0.4076 -0.2222
  456MOL0     H62881   7.454   9.222   1.586 -1.0047  1.1456 -1.9359
  456MOL0     H62882   7.647   9.026   1.541  1.9084 -4.0208 -3.7864
  456MOL0     H62883   7.534   8.935   1.454  1.2339 -0.4350 -3.1563
  456MOL0     H62884   7.534   9.100   1.282 -0.5489  0.7845 -0.0112
  456MOL0     H62885   7.620   9.221   1.387 -0.5959 -0.9475  1.8685
  456MOL0     H62886   7.888   9.268   1.291 -0.7098  0.3392 -0.5685
  456MOL0     H62887   8.080   9.382   1.022 -1.3456 -0.6962 -2.0344
  456MOL0     H62888   8.032   9.404   1.192  1.8616  2.2596  0.4559
  456MOL0     H62889   7.947   9.490   1.066  1.8259 -0.5291 -3.2442
  456MOL0     H62890   7.720   9.272   0.494  0.6841 -1.7818 -0.7670
  456MOL0     H62891   7.804   9.359   0.293  0.0499 -0.2155 -0.2094
  456MOL0     H62892   8.032   9.514   0.069 -3.0967  3.1961  0.3216
  456MOL0     H62893   7.929   9.542   0.196  1.0887  2.3082  1.7522
  456MOL0     H62894   8.074   9.606   0.357  0.5992 -1.0018  0.2904
  456MOL0     H62895   8.215   9.559   0.261 -1.3297 -0.5248 -0.7982
  456MOL0     H62896   8.026   9.797   0.236 -0.6668 -0.7265  0.6299
  456MOL0     H62897   8.121   9.744   0.089  0.3123 -1.3039 -0.3487
  456MOL0     H62898   8.236   9.836   0.364 -0.8957 -1.5814  1.1469
  456MOL0     H62899   8.221   9.925   0.209 -0.9341  0.6615  2.9064
  456MOL0     H62900   8.373   9.678   0.275  0.0205  0.7205  0.2965
  456MOL0     H62901   8.365   9.753   0.115 -1.4173  0.9568  0.3969
  456MOL0     H62902   8.490   9.852   0.370  0.5967 -3.0802  0.4339
  456MOL0     H62903   8.459   9.957   0.219  0.5282 -0.1996  0.1546
  456MOL0     H62904   8.619   9.841   0.115 -3.0385 -0.0931 -0.1136
  456MOL0     H62905   8.603   9.684   0.197 -0.0072 -0.3836 -2.2047
  456MOL0     H62906   8.831   9.814   0.236  0.5188  2.1603  0.6694
  456MOL0     H62907   8.764   9.756   0.384  2.0615  0.1701  0.2854
  456MOL0     H62908   8.194   9.232   0.405 -0.0735  1.6310 -0.7339
  456MOL0     H62909   8.107   9.149   0.626  0.8795  0.2935 -0.1252
  456MOL0     H62910   7.720   9.055   0.870 -0.7269  1.2143  0.5095
  456MOL0     H62911   7.677   8.966   1.078 -0.1923  1.0747 -0.2993
  456MOL0     H62912   6.770   8.658   1.092  2.4751  0.2367  1.0040
  456MOL0     H62913   6.630   8.505   0.947  0.3331  2.0258 -0.3438
  456MOL0     H62914   6.620   8.151   0.748  1.1223  1.7028 -0.9708
  456MOL0     H62915   6.499   7.940   0.651  1.6031  0.9476  1.7242
  456MOL0     H62916   6.281   7.977   0.294 -2.8601  1.3709  1.8722
  456MOL0     H62917   6.275   7.804   0.341  3.3607 -1.1723 -0.3843
  456MOL0     H62918   6.112   7.967   0.470 -0.0786 -0.0189  0.2431
  456MOL0     H62919   6.257   8.027   0.551  1.9152 -0.4964  0.9700
  456MOL0     H62920   6.175   7.723   0.529 -1.0148 -0.9218  1.4186
  456MOL0     H62921   6.315   7.794   0.607 -0.7487 -0.8950  1.7102
  456MOL0     H62922   6.128   7.936   0.756 -2.0395 -1.0550  2.1257
  456MOL0     H62923   6.148   7.767   0.799 -0.2654  1.1904  0.9665
  456MOL0     H62924   5.766   7.837   0.625 -0.4710 -1.1432  0.0510
  456MOL0     H62925   6.520   8.111   0.272  1.6574 -2.2218 -0.3739
  456MOL0     H62926   6.530   8.454   0.385 -0.6582 -0.1672 -0.8375
  456MOL0     H62927   6.662   8.388   0.302  1.0661 -1.1649 -0.0797
  456MOL0     H62928   6.509   8.330   0.246 -0.8440 -0.5121  1.4128
  457MOL0     O62929   8.977  11.471   5.853  0.0808 -0.1284 -0.1182
  457MOL0     C62930   8.936  11.470   5.970  1.0128  0.2022  0.4681
  457MOL0     O62931   8.813  11.515   5.995 -0.0010  0.0023 -0.3701
  457MOL0     C62932   8.753  11.600   5.905 -0.3645  0.2027 -0.4667
  457MOL0     C62933   8.823  11.717   5.867  0.3932 -0.7150 -0.9248
  457MOL0     C62934   8.743  11.819   5.809  1.2112  0.4148  0.2068
  457MOL0     C62935   8.619  11.788   5.751 -0.2101  0.6236 -0.3046
  457MOL0     O62936   8.534  11.879   5.691 -0.2928 -0.0629 -0.5526
  457MOL0     C62937   8.545  12.026   5.710 -0.3398  0.1586 -0.6423
  457MOL0     C62938   8.538  12.093   5.566  1.0557 -0.1514  0.5800
  457MOL0     C62939   8.541  12.243   5.562  0.8917 -0.5709  0.7055
  457MOL0     C62940   8.408  12.307   5.603  0.1711  0.3479 -0.4491
  457MOL0     C62941   8.426  12.432   5.698  0.1444  0.4300 -0.7477
  457MOL0     C62942   8.490  12.399   5.836 -0.7078 -0.1719 -0.7143
  457MOL0     C62943   8.555  12.525   5.903 -0.1886 -0.0336 -0.5521
  457MOL0     C62944   8.708  12.525   5.883  0.0537 -0.7003  1.0075
  457MOL0     N62945   8.795  12.470   5.993 -0.0762  0.4094  0.2415
  457MOL0     C62946   8.800  12.523   6.113  0.2388  0.4258 -0.3452
  457MOL0     C62947   8.879  12.436   6.190 -0.1811 -1.2323  0.9569
  457MOL0     C62948   8.927  12.478   6.328  0.9730 -0.0215  0.6874
  457MOL0     C62949   8.873  12.384   6.428 -0.1560 -0.0056 -0.8556
  457MOL0     C62950   8.959  12.259   6.465  0.5821 -0.5083 -0.4375
  457MOL0     C62951   8.894  12.198   6.595 -1.0768 -0.3055  0.6233
  457MOL0     O62952   8.781  12.126   6.550  0.3187  0.7478 -0.7506
  457MOL0     C62953   8.685  12.077   6.632 -0.3761  0.7919 -0.8715
  457MOL0     C62954   8.562  12.046   6.566 -0.4144  1.0317  0.1666
  457MOL0     C62955   8.454  11.997   6.638  0.5318  0.1189  0.1109
  457MOL0     C62956   8.318  11.991   6.572  0.0808 -0.2563  0.5946
  457MOL0     C62957   8.466  11.977   6.777 -0.2414  0.7778 -1.0486
  457MOL0     C62958   8.351  11.938   6.868 -0.2626 -0.2338  0.0240
  457MOL0     O62959   8.228  11.996   6.846  0.0816  0.5270  0.0743
  457MOL0     C62960   8.110  11.972   6.922  0.1651 -0.9038  0.9380
  457MOL0     C62961   8.021  12.082   6.943  0.0819  1.2578 -0.1441
  457MOL0     C62962   7.915  12.082   7.029  0.5034  0.6613 -0.7661
  457MOL0     C62963   7.879  11.967   7.099 -0.8630 -0.1475  0.8664
  457MOL0     O62964   7.767  11.967   7.183  0.4468 -0.6332  0.4291
  457MOL0     C62965   7.690  11.846   7.193 -0.3574  0.3512  0.7278
  457MOL0     C62966   7.600  11.818   7.073  0.2511  0.0565  0.1402
  457MOL0     C62967   7.474  11.908   7.092  0.6251 -0.1972  0.2625
  457MOL0     C62968   7.381  11.894   6.960 -0.4930 -0.1291  0.4065
  457MOL0     C62969   7.446  11.974   6.846  0.1602 -0.2330 -0.6171
  457MOL0     C62970   7.433  12.126   6.870 -0.2717  0.2822  1.2056
  457MOL0     C62971   7.463  12.212   6.741  0.2048 -0.5248  0.1157
  457MOL0     C62972   7.383  12.346   6.754 -0.4657 -0.3642  0.2544
  457MOL0    Cl62973   7.344  12.405   6.597  0.2112 -0.1414 -0.3039
  457MOL0     C62974   7.970  11.860   7.086  0.0123  0.3352 -0.6479
  457MOL0     C62975   8.077  11.859   6.992  0.8255  0.2667 -0.0329
  457MOL0     O62976   8.377  11.871   6.967  0.7075  0.0901 -0.6771
  457MOL0     C62977   8.600  11.997   6.840  0.7739  0.3700 -0.1964
  457MOL0     C62978   8.705  12.038   6.762  0.0229 -0.1938  0.1123
  457MOL0     N62979   8.921  12.330   6.105  0.2206 -0.2913  0.2785
  457MOL0     N62980   8.871  12.355   5.986  0.1430 -0.7712 -0.6404
  457MOL0     C62981   8.569  11.665   5.779  0.1696  0.4462 -0.0108
  457MOL0     C62982   8.634  11.567   5.856  1.6910  0.2288 -0.8674
  457MOL0     C62983   9.018  11.402   6.076  0.1249 -0.0872 -0.1272
  457MOL0     C62984   8.962  11.377   6.198  0.4693 -0.5894 -1.1955
  457MOL0     C62985   9.020  11.302   6.302  0.5651 -0.8362 -0.1258
  457MOL0     C62986   9.145  11.255   6.279 -0.1906  1.2128  0.7145
  457MOL0     O62987   9.193  11.177   6.383 -0.5856 -0.6426 -0.2817
  457MOL0     C62988   9.333  11.130   6.389  0.6023  0.7776 -0.0878
  457MOL0     C62989   9.419  11.257   6.423 -1.1613  1.2519  0.1433
  457MOL0     C62990   9.571  11.241   6.404 -0.4068  0.1927  0.2630
  457MOL0     C62991   9.655  11.374   6.406 -0.5977 -0.0954 -0.3101
  457MOL0     C62992   9.642  11.443   6.533  1.0553  0.1853  0.5968
  457MOL0     C62993   9.653  11.512   6.634  0.2776  0.4146 -0.8362
  457MOL0     C62994   9.209  11.280   6.153  0.3155  0.2244  0.6825
  457MOL0     C62995   9.149  11.355   6.052 -0.1198  0.8253  0.4175
  457MOL0     C62996   9.236  11.379   5.933  0.3503  0.1705 -0.2845
  457MOL0     H62997   8.925  11.725   5.903  1.1271 -3.8702 -1.9715
  457MOL0     H62998   8.782  11.920   5.797  0.8307  0.4925 -0.4580
  457MOL0     H62999   8.638  12.056   5.759 -0.2757  0.5336 -0.9805
  457MOL0     H63000   8.464  12.059   5.776  1.4370  0.0812  1.6715
  457MOL0     H63001   8.635  12.065   5.525  0.9577 -0.8857  0.8346
  457MOL0     H63002   8.455  12.049   5.510 -0.0952 -1.8377  3.3845
  457MOL0     H63003   8.622  12.269   5.630  1.2335 -0.4704  0.2618
  457MOL0     H63004   8.572  12.290   5.469 -1.5985  0.2835  0.2321
  457MOL0     H63005   8.351  12.340   5.516 -1.5285  3.0228  1.5371
  457MOL0     H63006   8.353  12.230   5.659  1.3545 -2.4006 -2.7749
  457MOL0     H63007   8.332  12.481   5.724  0.1461 -0.3461  0.8238
  457MOL0     H63008   8.477  12.511   5.642 -1.6713  1.5571 -0.9017
  457MOL0     H63009   8.412  12.358   5.901  1.0238 -1.0401  0.9138
  457MOL0     H63010   8.570  12.325   5.825  0.9713  1.0734  2.1828
  457MOL0     H63011   8.543  12.518   6.012  2.2800 -0.2527 -0.2341
  457MOL0     H63012   8.498  12.614   5.875 -0.5719 -0.9201 -2.8430
  457MOL0     H63013   8.737  12.456   5.803 -2.1548 -2.4611  1.6455
  457MOL0     H63014   8.747  12.627   5.868 -2.2366  0.0297 -0.5013
  457MOL0     H63015   8.762  12.619   6.144  1.2146  0.6277  0.2587
  457MOL0     H63016   8.893  12.579   6.349 -1.4931 -0.2508 -1.5850
  457MOL0     H63017   9.037  12.474   6.328  0.9519 -1.0276  0.2807
  457MOL0     H63018   8.843  12.445   6.514  1.6395  2.1455 -1.6624
  457MOL0     H63019   8.785  12.334   6.385  0.6565 -3.5758  1.2328
  457MOL0     H63020   8.965  12.191   6.380  2.3097 -1.0064  0.0461
  457MOL0     H63021   9.062  12.286   6.491  1.1875 -1.6845 -1.5295
  457MOL0     H63022   8.970  12.129   6.632 -0.8979 -0.0069  0.8214
  457MOL0     H63023   8.870  12.267   6.677 -0.3891 -0.6755  1.1511
  457MOL0     H63024   8.548  12.076   6.462 -5.6434  1.2140  0.6688
  457MOL0     H63025   8.258  12.065   6.625 -2.3315 -1.4526 -0.3024
  457MOL0     H63026   8.267  11.897   6.596 -0.4769 -0.2201 -0.3840
  457MOL0     H63027   8.315  12.005   6.464 -0.4337 -0.6433  0.5531
  457MOL0     H63028   8.039  12.164   6.874 -2.4992  0.9980 -1.2335
  457MOL0     H63029   7.855  12.171   7.046 -0.1665  0.0208  0.3531
  457MOL0     H63030   7.763  11.766   7.206 -0.3369 -0.1111 -1.7202
  457MOL0     H63031   7.634  11.853   7.287  0.8690 -1.2911  1.6204
  457MOL0     H63032   7.663  11.841   6.987  0.3721 -0.3171  0.1263
  457MOL0     H63033   7.574  11.713   7.056 -0.9289  0.6644 -2.5006
  457MOL0     H63034   7.495  12.011   7.121 -0.9986  0.0507  0.6657
  457MOL0     H63035   7.414  11.875   7.177 -0.4959  2.8164  0.7858
  457MOL0     H63036   7.275  11.912   6.979 -0.2693 -0.0444  1.6270
  457MOL0     H63037   7.381  11.791   6.924 -3.5650 -0.7357  1.8038
  457MOL0     H63038   7.552  11.949   6.843  0.2720  0.2376 -0.6849
  457MOL0     H63039   7.407  11.947   6.747 -1.4735  2.9818 -1.0078
  457MOL0     H63040   7.507  12.153   6.946  0.7741  0.3340  0.1946
  457MOL0     H63041   7.336  12.144   6.916 -0.8281 -0.6947  0.4508
  457MOL0     H63042   7.409  12.165   6.659 -0.7727  1.3520 -0.3673
  457MOL0     H63043   7.566  12.229   6.706 -0.2396  2.0625 -0.0988
  457MOL0     H63044   7.453  12.417   6.798  2.3727 -1.7672 -1.6985
  457MOL0     H63045   7.294  12.332   6.816  1.1649 -1.0799  2.5900
  457MOL0     H63046   7.960  11.767   7.141  0.5302 -0.6273 -2.1159
  457MOL0     H63047   8.124  11.764   6.973  1.0580  0.7427 -2.0298
  457MOL0     H63048   8.607  11.980   6.947  0.2979 -1.6152 -0.4510
  457MOL0     H63049   8.805  12.032   6.803 -0.4293 -5.2785  1.1676
  457MOL0     H63050   8.475  11.631   5.737  1.5910  2.1323 -5.3069
  457MOL0     H63051   8.573  11.481   5.880 -2.5849  3.7361  2.3447
  457MOL0     H63052   8.859  11.409   6.212 -0.3909 -3.9024  1.2297
  457MOL0     H63053   8.961  11.289   6.391  1.2099  2.4204  0.9217
  457MOL0     H63054   9.339  11.048   6.460 -2.0723  0.1722 -0.4373
  457MOL0     H63055   9.368  11.080   6.298 -0.4234  1.9427 -1.1740
  457MOL0     H63056   9.407  11.275   6.531  2.4350 -0.8759  1.0653
  457MOL0     H63057   9.385  11.345   6.368 -2.1617 -0.0035 -1.3275
  457MOL0     H63058   9.611  11.170   6.477 -1.0945 -0.4701  0.0107
  457MOL0     H63059   9.575  11.204   6.302  4.1121  0.4172  0.1818
  457MOL0     H63060   9.623  11.438   6.323 -2.8129 -1.3974 -0.5561
  457MOL0     H63061   9.754  11.347   6.367 -0.5925 -0.9877  0.2748
  457MOL0     H63062   9.661  11.562   6.729 -0.3888 -0.5394 -0.2706
  457MOL0     H63063   9.315  11.256   6.147  0.1362 -0.3878 -0.1314
  457MOL0     H63064   9.338  11.340   5.943  0.3491 -0.2534 -1.7927
  457MOL0     H63065   9.182  11.340   5.847 -1.0576  1.3168  0.0388
  457MOL0     H63066   9.250  11.487   5.923 -0.7762  0.4585  0.9866
  458MOL0     O63067   0.108   3.625   8.491  0.9261 -0.3061 -0.2680
  458MOL0     C63068   0.028   3.710   8.541 -0.1798  0.2787  0.2674
  458MOL0     O63069   0.019   3.741   8.670 -0.5594  0.7407 -0.3903
  458MOL0     C63070   0.123   3.697   8.754 -0.4223  1.0200  0.1896
  458MOL0     C63071   0.153   3.562   8.787 -0.3098 -0.5620  0.6523
  458MOL0     C63072   0.245   3.529   8.882  0.0494 -0.3292 -0.2065
  458MOL0     C63073   0.318   3.630   8.953 -0.6046 -0.5851  0.9039
  458MOL0     O63074   0.410   3.596   9.043  0.1026  0.1899  0.3843
  458MOL0     C63075   0.371   3.610   9.177  0.1270 -0.2254  0.5382
  458MOL0     C63076   0.450   3.518   9.267 -0.7077  0.4224 -0.5897
  458MOL0     C63077   0.577   3.583   9.315 -0.9844  0.4467 -0.3704
  458MOL0     C63078   0.559   3.680   9.432 -0.7480 -0.1324  0.3066
  458MOL0     C63079   0.689   3.678   9.520 -0.1739 -0.5984 -0.3791
  458MOL0     C63080   0.808   3.733   9.438 -0.7333 -0.3882  0.1714
  458MOL0     C63081   0.934   3.761   9.517 -0.5747 -0.3320  0.0417
  458MOL0     C63082   0.909   3.885   9.606 -0.3252  0.4073  0.0540
  458MOL0     N63083   1.029   3.921   9.680 -0.7414 -0.0390  0.0934
  458MOL0     C63084   1.117   3.825   9.745  0.9328 -0.4865 -0.5507
  458MOL0     C63085   1.214   3.909   9.783  0.2864  0.6498  0.1811
  458MOL0     C63086   1.324   3.869   9.877  0.0069  0.9195  0.0422
  458MOL0     C63087   1.465   3.910   9.821 -0.1703 -0.1391  0.1305
  458MOL0     C63088   1.581   3.867   9.903  0.0251 -1.7543 -0.1014
  458MOL0     C63089   1.583   3.717   9.944 -0.1037 -0.1920 -0.3096
  458MOL0     O63090   1.699   3.692  10.026  0.8330 -0.3127  0.1023
  458MOL0     C63091   1.697   3.709  10.164 -0.6817  0.7661  0.1720
  458MOL0     C63092   1.821   3.672  10.220 -0.1738 -0.5440  0.3490
  458MOL0     C63093   1.837   3.664  10.359 -0.4296  0.1691  0.1654
  458MOL0     C63094   1.968   3.611  10.403 -0.8285 -0.8402 -0.2345
  458MOL0     C63095   1.734   3.703  10.442 -0.3021 -0.2111 -0.0958
  458MOL0     C63096   1.747   3.704  10.588 -0.2192 -1.0647  0.9529
  458MOL0     O63097   1.639   3.759  10.655  0.4612 -0.0002  0.1061
  458MOL0     C63098   1.641   3.827  10.772 -1.2684  0.0736 -0.3134
  458MOL0     C63099   1.518   3.847  10.837 -0.0260 -0.3831 -0.7358
  458MOL0     C63100   1.518   3.919  10.959  0.3292  0.3328 -0.9111
  458MOL0     C63101   1.639   3.980  11.008  0.7054  0.2210  1.0678
  458MOL0     O63102   1.624   4.061  11.118  0.6003  0.2240  0.1132
  458MOL0     C63103   1.745   4.096  11.187 -0.2065 -0.0674 -0.3872
  458MOL0     C63104   1.703   4.173  11.319  0.1656  0.4746  0.0232
  458MOL0     C63105   1.630   4.303  11.280 -0.2751  0.2604 -0.8171
  458MOL0     C63106   1.719   4.431  11.303 -0.6170  0.7311  0.1174
  458MOL0     C63107   1.678   4.564  11.238  0.3217 -0.1422  0.2006
  458MOL0     C63108   1.538   4.596  11.268  0.5583  0.4641  0.5456
  458MOL0     C63109   1.500   4.730  11.194  0.1769  0.0554  0.4228
  458MOL0     C63110   1.560   4.849  11.268  0.0377  0.5246 -0.3686
  458MOL0    Cl63111   1.478   4.864  11.420 -0.3823 -0.4495 -0.2344
  458MOL0     C63112   1.759   3.961  10.939 -0.1845  0.8064  0.6256
  458MOL0     C63113   1.758   3.882  10.824  0.5698  0.9020  0.5835
  458MOL0     O63114   1.839   3.649  10.651 -0.0522 -0.1653  0.2611
  458MOL0     C63115   1.613   3.736  10.384  0.6184  0.6747 -0.2626
  458MOL0     C63116   1.599   3.753  10.249 -0.0940 -0.3088 -0.3498
  458MOL0     N63117   1.198   4.035   9.739 -0.2464  0.3902  0.3157
  458MOL0     N63118   1.094   4.040   9.681  0.3344  0.5289  0.4616
  458MOL0     C63119   0.307   3.764   8.905  0.4978  1.1907  0.2394
  458MOL0     C63120   0.205   3.796   8.814 -0.4811  0.0428  0.2514
  458MOL0     C63121  -0.084   3.764   8.459 -0.3499  0.4718 -0.1378
  458MOL0     C63122  -0.143   3.883   8.499  0.3946 -0.1927  0.1234
  458MOL0     C63123  -0.244   3.951   8.435  0.4305 -0.4740  0.6451
  458MOL0     C63124  -0.295   3.888   8.321 -0.7322  0.2620 -0.5907
  458MOL0     O63125  -0.398   3.950   8.264  0.2234 -0.2312 -0.4265
  458MOL0     C63126  -0.415   3.979   8.128  0.8566 -0.2182  0.8613
  458MOL0     C63127  -0.304   4.056   8.070 -0.9749  0.7945  0.1572
  458MOL0     C63128  -0.304   4.200   8.107 -0.3618 -1.0301  0.1109
  458MOL0     C63129  -0.171   4.278   8.090 -0.6007 -0.0759 -0.6173
  458MOL0     C63130  -0.126   4.320   7.952 -0.2016  0.6601  0.0273
  458MOL0     C63131  -0.089   4.349   7.839  0.0767  0.0437  0.5065
  458MOL0     C63132  -0.253   3.759   8.282 -0.5682  0.5484  0.5746
  458MOL0     C63133  -0.144   3.698   8.345 -0.8796  0.4390 -0.4085
  458MOL0     C63134  -0.090   3.567   8.284  0.5228  0.8219 -0.6524
  458MOL0     H63135   0.085   3.490   8.742  1.3284 -0.3067 -2.5165
  458MOL0     H63136   0.260   3.425   8.911 -1.7103 -0.9184 -1.2739
  458MOL0     H63137   0.270   3.569   9.181 -0.7885  1.2511 -3.2664
  458MOL0     H63138   0.368   3.715   9.205  1.0842  0.1579 -0.7046
  458MOL0     H63139   0.384   3.501   9.352 -0.0825 -0.1765 -0.2097
  458MOL0     H63140   0.460   3.420   9.220 -0.1642 -1.0701  2.4042
  458MOL0     H63141   0.654   3.509   9.338 -0.3640  1.4386  0.7828
  458MOL0     H63142   0.617   3.641   9.231 -2.7635  1.4086 -0.6136
  458MOL0     H63143   0.539   3.781   9.397  1.2490 -0.1182 -0.9392
  458MOL0     H63144   0.481   3.642   9.499 -1.1168 -1.3915 -0.7750
  458MOL0     H63145   0.711   3.579   9.561  2.9642  0.6098  1.1507
  458MOL0     H63146   0.658   3.751   9.595  0.7253  0.1332 -0.7066
  458MOL0     H63147   0.836   3.658   9.364 -1.2005 -4.5372  3.7508
  458MOL0     H63148   0.781   3.824   9.384 -0.7392 -0.8594 -0.6283
  458MOL0     H63149   1.017   3.784   9.450 -0.2368 -1.3047  0.1172
  458MOL0     H63150   0.976   3.680   9.577 -0.7609 -0.1477  0.4248
  458MOL0     H63151   0.874   3.967   9.544 -0.3782  0.1796 -0.2218
  458MOL0     H63152   0.835   3.849   9.678  0.4111  1.2559  1.2650
  458MOL0     H63153   1.111   3.722   9.777  2.0875 -0.6665 -0.8487
  458MOL0     H63154   1.325   3.760   9.869 -0.5425  0.9193 -0.0167
  458MOL0     H63155   1.315   3.907   9.979  1.7221  1.8143 -0.0901
  458MOL0     H63156   1.474   3.869   9.720  0.5855 -0.4607  0.3260
  458MOL0     H63157   1.471   4.019   9.810  0.1480 -0.3644 -2.7081
  458MOL0     H63158   1.669   3.900   9.848 -1.0478  1.5243 -0.0795
  458MOL0     H63159   1.578   3.931   9.992  0.7156  1.3408 -2.1513
  458MOL0     H63160   1.494   3.705  10.007  0.2493  3.1967  1.0624
  458MOL0     H63161   1.589   3.652   9.857  2.0941  1.8145 -1.8006
  458MOL0     H63162   1.895   3.632  10.152  0.3869  0.1011  0.5651
  458MOL0     H63163   1.966   3.541  10.487  2.4471 -0.8369 -0.0071
  458MOL0     H63164   2.035   3.693  10.431  1.1156 -1.7007 -2.0465
  458MOL0     H63165   2.026   3.578  10.316 -0.5423  0.7023 -0.6710
  458MOL0     H63166   1.427   3.799  10.804 -0.6018  1.4718 -1.9635
  458MOL0     H63167   1.423   3.929  11.010  1.0929 -1.3581  0.9970
  458MOL0     H63168   1.800   4.006  11.214 -1.0485  0.0182  1.8083
  458MOL0     H63169   1.807   4.158  11.121 -0.8031  0.8141 -0.1380
  458MOL0     H63170   1.643   4.111  11.386 -1.0360  0.1097 -1.3218
  458MOL0     H63171   1.777   4.210  11.390 -0.9576  2.8048  0.0678
  458MOL0     H63172   1.545   4.329  11.344 -0.0687 -2.7917  0.9101
  458MOL0     H63173   1.577   4.285  11.186 -3.3844  0.5204  0.7449
  458MOL0     H63174   1.824   4.414  11.276 -1.0069  0.9199 -1.6592
  458MOL0     H63175   1.716   4.449  11.411  3.4406  3.6527 -0.0054
  458MOL0     H63176   1.734   4.645  11.285  0.6406  0.9030 -1.8516
  458MOL0     H63177   1.710   4.558  11.134  0.0407  0.1041  0.0986
  458MOL0     H63178   1.513   4.602  11.374 -2.8299 -1.4545  0.0109
  458MOL0     H63179   1.467   4.528  11.220 -0.8860  3.7911 -2.4975
  458MOL0     H63180   1.391   4.739  11.197 -0.0898 -2.3787  0.2414
  458MOL0     H63181   1.533   4.720  11.091 -0.0894 -0.3628  0.3767
  458MOL0     H63182   1.544   4.944  11.217  0.4024  0.5040 -0.5266
  458MOL0     H63183   1.666   4.832  11.291  0.0902  2.1271  0.7094
  458MOL0     H63184   1.854   4.009  10.964 -0.2661  0.7451  1.0677
  458MOL0     H63185   1.850   3.876  10.768  0.7062 -1.3019  0.9361
  458MOL0     H63186   1.526   3.751  10.447  0.0836 -0.7877 -0.6101
  458MOL0     H63187   1.503   3.775  10.203  0.3267  0.2723 -0.9500
  458MOL0     H63188   0.348   3.847   8.962 -2.2675 -0.5518  5.4827
  458MOL0     H63189   0.186   3.903   8.805 -0.6580  0.2131  2.1599
  458MOL0     H63190  -0.116   3.932   8.592 -1.0765  0.0549  0.4510
  458MOL0     H63191  -0.278   4.046   8.474 -1.1016 -0.3703 -0.8220
  458MOL0     H63192  -0.418   3.883   8.077 -1.2600  0.0338  0.4013
  458MOL0     H63193  -0.511   4.029   8.107  1.7117  0.7243 -1.0152
  458MOL0     H63194  -0.299   4.046   7.962 -1.3294  1.8602  0.0286
  458MOL0     H63195  -0.213   4.012   8.111  0.0580  1.6539 -1.1496
  458MOL0     H63196  -0.394   4.243   8.063  0.1246  1.4070  1.3361
  458MOL0     H63197  -0.329   4.207   8.213  0.8515 -2.0002  0.4986
  458MOL0     H63198  -0.100   4.211   8.141 -2.0353 -1.4483 -0.3599
  458MOL0     H63199  -0.165   4.371   8.148  1.4314 -0.9491  0.6901
  458MOL0     H63200  -0.061   4.378   7.740 -1.3462 -1.6145 -0.4289
  458MOL0     H63201  -0.307   3.710   8.201  3.8374 -0.0788 -2.3562
  458MOL0     H63202   0.018   3.556   8.301  0.1691  1.4139  2.5663
  458MOL0     H63203  -0.157   3.491   8.325 -0.9953  2.4231 -0.0160
  458MOL0     H63204  -0.116   3.572   8.178 -1.2840 -4.9469 -0.8518
  459MOL0     O63205   3.550   9.842   3.658 -0.3592 -0.1625  0.2352
  459MOL0     C63206   3.662   9.808   3.615 -0.0960  0.1365 -0.7192
  459MOL0     O63207   3.780   9.855   3.665  0.2683  0.6592  0.0253
  459MOL0     C63208   3.789   9.948   3.759 -0.5107  0.2629 -0.2491
  459MOL0     C63209   3.689  10.032   3.812  0.5877  0.1419 -0.7505
  459MOL0     C63210   3.713  10.125   3.910 -0.1819  0.2431 -1.1388
  459MOL0     C63211   3.845  10.145   3.956  0.5184  0.8738  0.2357
  459MOL0     O63212   3.885  10.253   4.035  0.2411  0.7147 -0.3465
  459MOL0     C63213   3.824  10.257   4.162 -0.0562  0.4156  0.1441
  459MOL0     C63214   3.930  10.331   4.249 -0.0153  0.6431 -0.1251
  459MOL0     C63215   3.883  10.329   4.385  0.8807 -0.1989  0.0164
  459MOL0     C63216   4.001  10.390   4.473 -1.0321  0.9182  0.1831
  459MOL0     C63217   3.998  10.355   4.617  0.2397  0.4958  0.0420
  459MOL0     C63218   3.866  10.387   4.679  0.0211 -0.5159  0.1014
  459MOL0     C63219   3.855  10.335   4.819  0.6368 -0.0754 -0.7053
  459MOL0     C63220   3.720  10.305   4.888  0.1080  0.3612  0.4962
  459MOL0     N63221   3.619  10.410   4.876  0.9951 -0.1275 -1.1953
  459MOL0     C63222   3.511  10.413   4.785 -0.0925  0.3553 -0.6841
  459MOL0     C63223   3.429  10.514   4.823  0.5243 -1.1246 -1.4068
  459MOL0     C63224   3.304  10.556   4.738 -0.8860  0.8860  0.4468
  459MOL0     C63225   3.331  10.696   4.683  0.0550  0.0532 -0.0483
  459MOL0     C63226   3.453  10.710   4.587  0.4281  0.3502 -0.4553
  459MOL0     C63227   3.584  10.752   4.668  0.7850  0.1681  0.3518
  459MOL0     O63228   3.689  10.772   4.576  0.2146  0.0597 -0.5226
  459MOL0     C63229   3.817  10.750   4.612  0.5543 -0.1276 -0.3767
  459MOL0     C63230   3.901  10.756   4.506 -0.1774  0.3096  0.0172
  459MOL0     C63231   4.040  10.744   4.523  0.9206  0.1042  0.1935
  459MOL0     C63232   4.125  10.734   4.390  0.7313  0.1590 -0.2769
  459MOL0     C63233   4.096  10.741   4.647  0.0412 -0.0495 -1.0484
  459MOL0     C63234   4.238  10.728   4.679  0.0254  0.7544 -0.1559
  459MOL0     O63235   4.301  10.626   4.610 -0.3280  0.2028 -0.0580
  459MOL0     C63236   4.429  10.607   4.639  0.6892 -0.3148 -0.5881
  459MOL0     C63237   4.507  10.606   4.528  0.3874  0.5586  0.4337
  459MOL0     C63238   4.648  10.599   4.530 -0.6719 -0.4324  0.0281
  459MOL0     C63239   4.710  10.582   4.653  0.0441  0.5801 -1.2751
  459MOL0     O63240   4.845  10.579   4.675  0.1259 -0.2765 -0.4720
  459MOL0     C63241   4.907  10.702   4.632 -0.0942 -0.5174  0.4830
  459MOL0     C63242   5.053  10.720   4.682  0.2445 -0.2596  0.4744
  459MOL0     C63243   5.129  10.593   4.678 -0.4019  0.6226 -0.1490
  459MOL0     C63244   5.282  10.626   4.670  0.2437  0.6163  0.4908
  459MOL0     C63245   5.334  10.684   4.799 -0.0915 -0.6634  0.4860
  459MOL0     C63246   5.483  10.696   4.779  0.3793 -0.1768  0.3693
  459MOL0     C63247   5.538  10.753   4.903 -0.6617  0.0228  0.0334
  459MOL0     C63248   5.694  10.768   4.873  0.7407  0.0431 -0.1790
  459MOL0    Cl63249   5.769  10.838   5.024  0.3440  0.3047  0.7271
  459MOL0     C63250   4.627  10.571   4.770  0.1364  0.3651  0.0294
  459MOL0     C63251   4.485  10.577   4.763  0.3840 -0.8783 -0.1030
  459MOL0     O63252   4.290  10.793   4.773 -0.7581 -0.9364  0.1874
  459MOL0     C63253   4.013  10.740   4.759 -0.1746 -0.2272  0.5586
  459MOL0     C63254   3.873  10.743   4.743  1.5270 -0.1385 -0.0362
  459MOL0     N63255   3.481  10.583   4.931  0.0113  0.7078 -0.3848
  459MOL0     N63256   3.587  10.516   4.972 -0.0658  0.4458  0.2166
  459MOL0     C63257   3.938  10.055   3.908 -0.3955  0.2151 -0.4414
  459MOL0     C63258   3.912   9.964   3.802 -0.2628 -0.1852 -0.7829
  459MOL0     C63259   3.670   9.711   3.500 -0.7423  0.4826 -0.3112
  459MOL0     C63260   3.797   9.672   3.463  0.5304 -0.1338 -0.9393
  459MOL0     C63261   3.812   9.593   3.345  0.0423 -0.3524  0.1676
  459MOL0     C63262   3.700   9.554   3.271  0.1844  0.1804  1.0920
  459MOL0     O63263   3.723   9.473   3.164 -0.2031 -1.0160 -0.0578
  459MOL0     C63264   3.625   9.359   3.150  0.0164  0.0523 -0.5075
  459MOL0     C63265   3.690   9.246   3.057  0.2118 -1.1264 -0.2655
  459MOL0     C63266   3.800   9.186   3.141 -0.5140  0.1550  1.1647
  459MOL0     C63267   3.839   9.048   3.087  0.1485  0.4766 -0.6904
  459MOL0     C63268   3.918   8.979   3.191  0.6483 -0.5225 -0.3459
  459MOL0     C63269   3.986   8.922   3.272 -0.6176  0.3324 -0.1080
  459MOL0     C63270   3.574   9.595   3.306  0.1915 -0.0582  0.8448
  459MOL0     C63271   3.561   9.676   3.416  0.2681 -0.6755  0.2488
  459MOL0     C63272   3.416   9.715   3.442  0.6746  0.0468  0.4732
  459MOL0     H63273   3.583  10.021   3.793  0.9525 -2.5285 -1.7065
  459MOL0     H63274   3.633  10.183   3.954 -1.2068 -1.1605 -1.0650
  459MOL0     H63275   3.791  10.160   4.202 -0.5474  0.0299 -1.1427
  459MOL0     H63276   3.735  10.321   4.166  0.6554  1.4246  0.1336
  459MOL0     H63277   4.026  10.279   4.240  0.6446  1.9189 -0.6829
  459MOL0     H63278   3.956  10.430   4.211  0.2996  0.0776 -1.4272
  459MOL0     H63279   3.789  10.385   4.387  0.5852 -0.4274 -2.8913
  459MOL0     H63280   3.862  10.227   4.418  0.2454 -0.4145 -1.0115
  459MOL0     H63281   4.096  10.359   4.429 -2.4475 -0.0505 -2.3979
  459MOL0     H63282   3.984  10.498   4.467 -0.1061  1.0555 -0.1754
  459MOL0     H63283   4.080  10.416   4.656  2.7222 -1.1629 -2.1728
  459MOL0     H63284   4.020  10.248   4.618 -0.6052  0.3203  0.7097
  459MOL0     H63285   3.852  10.495   4.679 -1.8462 -0.6481 -3.3195
  459MOL0     H63286   3.778  10.348   4.628 -1.9606 -1.7654  4.0130
  459MOL0     H63287   3.907  10.411   4.878  0.5033 -0.0511 -0.6187
  459MOL0     H63288   3.914  10.243   4.823 -0.3266 -0.6844 -0.2298
  459MOL0     H63289   3.686  10.213   4.840  1.7584 -0.5524  0.9990
  459MOL0     H63290   3.725  10.280   4.994 -1.0745 -0.9845  0.2679
  459MOL0     H63291   3.492  10.354   4.696 -1.7515  1.0918 -0.8475
  459MOL0     H63292   3.211  10.549   4.795 -1.5106  0.2197 -0.6171
  459MOL0     H63293   3.289  10.498   4.646  3.1654  2.0423 -1.1882
  459MOL0     H63294   3.243  10.716   4.621  1.1619 -1.8294 -2.3903
  459MOL0     H63295   3.331  10.773   4.760 -1.5081  1.5606 -1.4711
  459MOL0     H63296   3.463  10.608   4.549 -3.0160 -0.7042  1.1291
  459MOL0     H63297   3.434  10.786   4.511 -1.1470 -3.3526 -4.1152
  459MOL0     H63298   3.564  10.849   4.714  1.9546 -0.0411  1.3449
  459MOL0     H63299   3.602  10.675   4.744 -1.5105 -1.9901 -1.1507
  459MOL0     H63300   3.876  10.767   4.401  3.1584 -0.3032 -0.9591
  459MOL0     H63301   4.211  10.799   4.411  1.6948 -1.7732  2.3228
  459MOL0     H63302   4.068  10.778   4.307 -0.5264  2.8272  1.8230
  459MOL0     H63303   4.152  10.632   4.362  1.3290  0.1144  0.4173
  459MOL0     H63304   4.480  10.612   4.423  1.2329  0.6468  0.2180
  459MOL0     H63305   4.716  10.588   4.446  0.7356 -0.9116  1.1913
  459MOL0     H63306   4.915  10.701   4.523 -2.4159 -0.0564  0.2667
  459MOL0     H63307   4.850  10.789   4.667 -1.5829 -0.1299 -2.5750
  459MOL0     H63308   5.100  10.800   4.624 -1.4495  0.4463  0.0154
  459MOL0     H63309   5.059  10.760   4.783  0.3929  2.0218 -0.3776
  459MOL0     H63310   5.106  10.542   4.584 -1.2885  0.6067  0.0676
  459MOL0     H63311   5.100  10.528   4.761 -3.8541 -1.5413 -2.7253
  459MOL0     H63312   5.291  10.697   4.587 -1.9370 -0.2338 -0.5507
  459MOL0     H63313   5.337  10.534   4.652  2.5737  2.1333 -0.6661
  459MOL0     H63314   5.300  10.785   4.824  2.0927  1.9749 -5.3452
  459MOL0     H63315   5.300  10.617   4.878  0.2557 -2.2599 -0.6741
  459MOL0     H63316   5.506  10.773   4.704 -2.7879  2.4835  1.8514
  459MOL0     H63317   5.527  10.598   4.764 -1.3947 -1.1909  1.4456
  459MOL0     H63318   5.522  10.679   4.982 -2.1361  0.1464 -0.1311
  459MOL0     H63319   5.488  10.848   4.923 -2.2492 -0.3453 -1.9718
  459MOL0     H63320   5.723  10.836   4.792  0.4163  0.1864 -0.1743
  459MOL0     H63321   5.731  10.666   4.856  2.2916  0.0067  2.7788
  459MOL0     H63322   4.678  10.543   4.861 -0.0468 -0.2665 -0.0587
  459MOL0     H63323   4.418  10.572   4.848 -2.3809  1.5742 -1.9640
  459MOL0     H63324   4.049  10.736   4.862 -0.6978  0.6120  0.7838
  459MOL0     H63325   3.812  10.740   4.833  2.5278 -0.9074  0.6515
  459MOL0     H63326   4.038  10.058   3.951 -0.3363 -3.1744 -0.0583
  459MOL0     H63327   3.996   9.906   3.766  0.4949 -1.1532  2.2775
  459MOL0     H63328   3.886   9.697   3.520  1.2797 -1.4196 -1.4894
  459MOL0     H63329   3.914   9.566   3.320  0.1682  0.6418 -0.4225
  459MOL0     H63330   3.597   9.319   3.247  2.2991 -1.2596 -0.3166
  459MOL0     H63331   3.535   9.399   3.104 -0.2517  1.2986  1.0046
  459MOL0     H63332   3.732   9.286   2.964 -0.2752  0.9738  0.3654
  459MOL0     H63333   3.612   9.173   3.032  0.3451 -1.5133  0.4198
  459MOL0     H63334   3.889   9.248   3.142  1.2966 -2.2182 -0.4273
  459MOL0     H63335   3.768   9.175   3.245  3.3785  2.3585  2.7644
  459MOL0     H63336   3.896   9.056   2.994  3.4579  1.3469  1.2439
  459MOL0     H63337   3.747   8.991   3.075 -0.2135  0.8669  0.1172
  459MOL0     H63338   4.042   8.873   3.349  0.1928  1.2593 -0.0832
  459MOL0     H63339   3.491   9.553   3.251  1.2712 -1.5458  0.2863
  459MOL0     H63340   3.351   9.703   3.354 -0.7853  2.9573  1.0260
  459MOL0     H63341   3.377   9.661   3.529  3.5614 -0.5055  1.5084
  459MOL0     H63342   3.405   9.821   3.466 -1.0073 -0.4687  2.2646
  460MOL0     O63343   8.926   1.904   5.579  0.1142 -0.7019 -0.4126
  460MOL0     C63344   8.982   1.994   5.530  0.0276 -0.3945  0.1114
  460MOL0     O63345   8.990   2.015   5.394  0.2314 -0.2245  0.0113
  460MOL0     C63346   8.959   1.920   5.291  0.7243  0.1218 -0.2278
  460MOL0     C63347   8.935   1.785   5.316 -0.3381  0.4523 -0.9710
  460MOL0     C63348   8.887   1.706   5.218 -0.5265  0.0870 -0.2714
  460MOL0     C63349   8.875   1.753   5.085 -0.1814 -0.0103 -0.3237
  460MOL0     O63350   8.842   1.680   4.977  0.4737  0.2064  0.4137
  460MOL0     C63351   8.829   1.535   4.986  0.9309 -0.5309 -0.0017
  460MOL0     C63352   8.687   1.491   5.049 -0.9920 -1.2904 -0.7363
  460MOL0     C63353   8.576   1.579   4.988 -0.3928  0.0669  0.7748
  460MOL0     C63354   8.425   1.568   5.026  0.1571  0.5111 -0.4984
  460MOL0     C63355   8.354   1.447   4.961 -0.8560 -0.4771  0.0404
  460MOL0     C63356   8.316   1.495   4.818 -0.3435  0.1447 -0.1333
  460MOL0     C63357   8.215   1.402   4.758  1.0234 -1.0418 -0.1284
  460MOL0     C63358   8.265   1.265   4.752  0.7058 -0.3339  0.1763
  460MOL0     N63359   8.168   1.179   4.681  0.5909 -0.5713 -0.2586
  460MOL0     C63360   8.138   1.051   4.725 -0.9854  0.5988 -0.0626
  460MOL0     C63361   8.063   1.000   4.627 -0.6270  1.1449  0.6313
  460MOL0     C63362   7.997   0.861   4.616 -0.7392  0.3038 -0.6714
  460MOL0     C63363   7.995   0.796   4.476  0.7299 -0.1505  0.3167
  460MOL0     C63364   7.973   0.640   4.487 -0.0951  0.3243  0.2157
  460MOL0     C63365   7.887   0.589   4.369 -0.0989  0.1557 -0.3267
  460MOL0     O63366   7.764   0.654   4.338 -0.1433  0.2629 -0.7148
  460MOL0     C63367   7.672   0.635   4.441 -0.6193  0.2617  0.8474
  460MOL0     C63368   7.608   0.748   4.490 -0.3468  0.1031  0.4950
  460MOL0     C63369   7.519   0.731   4.602 -0.7815  0.3106  0.0427
  460MOL0     C63370   7.477   0.858   4.665  0.5948 -0.5962  0.8334
  460MOL0     C63371   7.481   0.597   4.640  0.8022 -0.6935  0.4639
  460MOL0     C63372   7.383   0.588   4.749  0.1414  0.4061  0.1138
  460MOL0     O63373   7.266   0.652   4.719  0.0058 -0.1019 -0.7689
  460MOL0     C63374   7.179   0.669   4.830 -0.3447 -0.0329  0.2918
  460MOL0     C63375   7.098   0.565   4.856  0.2340  0.2712  0.5294
  460MOL0     C63376   7.018   0.569   4.967 -0.1815 -0.4276  0.6403
  460MOL0     C63377   7.020   0.679   5.050  0.4334  0.4956  0.5015
  460MOL0     O63378   6.952   0.682   5.164  0.0653 -0.8270 -1.1326
  460MOL0     C63379   6.821   0.733   5.140 -0.6209 -0.4158 -0.7036
  460MOL0     C63380   6.736   0.714   5.258  0.2492 -0.2363  0.3214
  460MOL0     C63381   6.703   0.565   5.288  0.1330 -0.1774  0.3810
  460MOL0     C63382   6.618   0.494   5.179 -0.5383 -0.4380 -0.0586
  460MOL0     C63383   6.543   0.366   5.234 -0.0583 -0.0811 -0.5256
  460MOL0     C63384   6.641   0.254   5.281 -0.1679 -0.6216 -0.2380
  460MOL0     C63385   6.570   0.132   5.343 -0.2260 -0.4254 -0.7268
  460MOL0     C63386   6.442   0.151   5.425  0.1781 -0.2013  0.3056
  460MOL0    Cl63387   6.422   0.008   5.535 -0.3726 -0.3034 -0.7059
  460MOL0     C63388   7.097   0.792   5.013  0.3144 -0.0207  0.2422
  460MOL0     C63389   7.179   0.785   4.900  0.6099 -0.7264 -0.2267
  460MOL0     O63390   7.418   0.529   4.851 -0.7400 -0.4273 -0.4985
  460MOL0     C63391   7.534   0.489   4.577  0.0678 -0.2712  0.1127
  460MOL0     C63392   7.634   0.503   4.479  0.7962  0.4960  0.0585
  460MOL0     N63393   8.042   1.095   4.535 -0.2548  0.1408  0.2073
  460MOL0     N63394   8.098   1.208   4.568  0.1104 -0.2773  0.0322
  460MOL0     C63395   8.905   1.882   5.055  0.0191 -1.0104 -0.1740
  460MOL0     C63396   8.937   1.970   5.161 -0.0330  0.1785 -0.0160
  460MOL0     C63397   9.015   2.110   5.606 -0.7546 -0.4025  0.4030
  460MOL0     C63398   9.136   2.176   5.583  0.6072 -0.4641 -0.1404
  460MOL0     C63399   9.186   2.269   5.671 -0.3143 -0.4795  0.4924
  460MOL0     C63400   9.115   2.311   5.778  0.5052  0.6422 -0.0887
  460MOL0     O63401   9.163   2.400   5.871 -1.0320 -0.4620 -0.3122
  460MOL0     C63402   9.163   2.541   5.828 -1.0101 -0.1577  1.2452
  460MOL0     C63403   9.288   2.622   5.884  0.2282  0.1333  0.1289
  460MOL0     C63404   9.260   2.774   5.854 -0.8955  0.2417 -0.7471
  460MOL0     C63405   9.364   2.862   5.915 -0.6270 -0.6210 -0.3566
  460MOL0     C63406   9.501   2.849   5.861 -0.1493  0.6919  0.9350
  460MOL0     C63407   9.611   2.826   5.799 -0.4205 -0.1529  0.1108
  460MOL0     C63408   8.993   2.253   5.796  0.0336  0.8172 -0.1138
  460MOL0     C63409   8.933   2.159   5.707 -0.5129  0.2535  0.0423
  460MOL0     C63410   8.795   2.115   5.745 -0.2156  0.2318  0.7522
  460MOL0     H63411   8.955   1.741   5.413  2.2911  0.0932 -1.5904
  460MOL0     H63412   8.862   1.603   5.243  0.2212 -0.0559 -0.0832
  460MOL0     H63413   8.917   1.503   5.043  0.6806  1.3769  1.5424
  460MOL0     H63414   8.843   1.490   4.887 -0.2443  1.6279 -1.2070
  460MOL0     H63415   8.680   1.384   5.026 -0.7501 -1.3521 -0.5235
  460MOL0     H63416   8.681   1.494   5.158 -2.4448 -2.1639 -0.7749
  460MOL0     H63417   8.607   1.683   5.006 -0.2952 -0.0554  1.3191
  460MOL0     H63418   8.569   1.573   4.879 -2.5107 -1.4951  0.9311
  460MOL0     H63419   8.428   1.554   5.134  0.9902 -0.9626 -0.6853
  460MOL0     H63420   8.370   1.659   5.002  2.9858  2.1688 -1.1178
  460MOL0     H63421   8.266   1.413   5.016 -1.2900 -0.0630 -0.3909
  460MOL0     H63422   8.423   1.362   4.964  0.8510  0.7693  4.6926
  460MOL0     H63423   8.272   1.595   4.813 -1.7317 -0.4664 -0.8792
  460MOL0     H63424   8.398   1.494   4.746 -1.7133  4.2512 -2.0676
  460MOL0     H63425   8.195   1.428   4.653  2.4494 -0.5957 -0.3159
  460MOL0     H63426   8.122   1.414   4.814  1.0018 -0.5572 -0.2682
  460MOL0     H63427   8.362   1.268   4.702  0.4286  0.3850 -0.3283
  460MOL0     H63428   8.287   1.222   4.851  0.6925 -1.4314 -0.2863
  460MOL0     H63429   8.176   0.987   4.804 -2.0341 -1.6612 -1.2855
  460MOL0     H63430   7.893   0.872   4.649 -0.3438  0.4028  0.6088
  460MOL0     H63431   8.051   0.808   4.696  0.3693  5.6606  2.6417
  460MOL0     H63432   7.914   0.844   4.421  1.0033 -0.1341 -0.0747
  460MOL0     H63433   8.092   0.812   4.428 -0.1615  0.9278 -1.1971
  460MOL0     H63434   8.072   0.592   4.482  0.9723  1.6393  4.6368
  460MOL0     H63435   7.916   0.611   4.575 -2.4284 -0.1728 -1.3669
  460MOL0     H63436   7.952   0.594   4.281 -1.1175 -1.6549 -1.2269
  460MOL0     H63437   7.867   0.483   4.384  0.9669 -0.1423 -0.8977
  460MOL0     H63438   7.636   0.848   4.459  1.2171 -0.6424 -0.6521
  460MOL0     H63439   7.383   0.899   4.625  1.4616 -0.8901 -1.6733
  460MOL0     H63440   7.544   0.942   4.645  2.1677 -1.7518  1.1410
  460MOL0     H63441   7.469   0.851   4.774  0.7627 -0.4189  0.8571
  460MOL0     H63442   7.101   0.472   4.799  2.2020 -2.0468  4.0433
  460MOL0     H63443   6.950   0.490   5.000  3.1612 -3.4982  0.7659
  460MOL0     H63444   6.836   0.841   5.128 -0.9198 -0.3405 -0.4179
  460MOL0     H63445   6.769   0.692   5.053 -3.3803  1.0110  0.1548
  460MOL0     H63446   6.787   0.758   5.344  0.9865  0.1292 -0.2972
  460MOL0     H63447   6.644   0.771   5.239  1.9348  2.3293 -0.5743
  460MOL0     H63448   6.651   0.568   5.384 -0.2203 -1.0512  0.2242
  460MOL0     H63449   6.791   0.505   5.313  1.4625  1.3450 -0.4770
  460MOL0     H63450   6.676   0.459   5.093  1.6664  0.0685  1.1627
  460MOL0     H63451   6.542   0.562   5.140 -0.3258 -1.3539 -2.2038
  460MOL0     H63452   6.482   0.394   5.320 -1.9608 -1.6261 -1.2733
  460MOL0     H63453   6.483   0.321   5.154  0.6691 -0.6222 -0.7741
  460MOL0     H63454   6.707   0.291   5.360 -0.4451 -1.2528  0.2935
  460MOL0     H63455   6.702   0.222   5.196 -0.0463 -0.7033 -0.1200
  460MOL0     H63456   6.644   0.095   5.415  1.7912  1.4023 -1.7425
  460MOL0     H63457   6.553   0.052   5.270  4.2273 -1.1206 -1.3126
  460MOL0     H63458   6.356   0.167   5.359  0.5245  0.8190  0.0864
  460MOL0     H63459   6.449   0.249   5.473 -0.1439  1.3631 -2.5768
  460MOL0     H63460   7.076   0.887   5.062 -2.4731 -0.9218  1.0135
  460MOL0     H63461   7.245   0.864   4.867 -0.7848  0.8259  0.5120
  460MOL0     H63462   7.502   0.387   4.596  2.1789 -1.5136 -2.4464
  460MOL0     H63463   7.674   0.413   4.435 -3.6078 -1.8942  0.3345
  460MOL0     H63464   8.898   1.918   4.953 -1.0279 -1.1895 -0.1729
  460MOL0     H63465   8.943   2.077   5.146 -0.9078  0.7072  2.8089
  460MOL0     H63466   9.197   2.145   5.499 -0.6337  1.9477 -2.0410
  460MOL0     H63467   9.293   2.288   5.669 -0.2987  0.0179 -3.9232
  460MOL0     H63468   9.171   2.539   5.719 -3.0164 -2.4039  1.0531
  460MOL0     H63469   9.073   2.594   5.858 -1.0659  0.5732 -0.1196
  460MOL0     H63470   9.380   2.589   5.835  3.0777  2.2037  3.6434
  460MOL0     H63471   9.300   2.601   5.990 -2.0172  0.8491  0.5822
  460MOL0     H63472   9.260   2.792   5.746  1.7190  0.9935 -0.6765
  460MOL0     H63473   9.164   2.793   5.904 -0.8443  1.2070 -0.9986
  460MOL0     H63474   9.358   2.848   6.023  2.2381 -1.3078 -0.2060
  460MOL0     H63475   9.331   2.960   5.881  1.5862  0.8620  1.4123
  460MOL0     H63476   9.705   2.802   5.752 -1.0349 -1.5705 -0.4325
  460MOL0     H63477   8.950   2.289   5.889  1.7700  3.1092 -0.0989
  460MOL0     H63478   8.722   2.135   5.665  2.9360  1.3030 -2.1216
  460MOL0     H63479   8.799   2.009   5.772 -0.9950  0.6695  2.7162
  460MOL0     H63480   8.756   2.167   5.833  0.4306  2.0774  0.0044
  461MOL0     O63481  11.401  11.314   4.239 -0.3025  0.2427  1.2364
  461MOL0     C63482  11.291  11.266   4.253  0.7302  0.5331 -0.7319
  461MOL0     O63483  11.186  11.268   4.172  0.0819  0.3246  0.5945
  461MOL0     C63484  11.209  11.353   4.058 -0.3382 -0.9459 -0.5134
  461MOL0     C63485  11.279  11.299   3.955  0.3078  0.2209  0.9052
  461MOL0     C63486  11.321  11.369   3.846  0.6211  0.4143  0.3514
  461MOL0     C63487  11.273  11.499   3.822  0.0813  0.5895 -0.3725
  461MOL0     O63488  11.310  11.585   3.719 -0.2334  0.1943  0.2274
  461MOL0     C63489  11.331  11.520   3.587  0.0258  0.2320 -0.4297
  461MOL0     C63490  11.297  11.624   3.482  0.4139  0.0761 -0.3810
  461MOL0     C63491  11.142  11.651   3.485  0.5255 -0.3079  0.4934
  461MOL0     C63492  11.079  11.736   3.373  1.3500  0.3991  0.0599
  461MOL0     C63493  10.936  11.755   3.399  0.5716 -0.8138 -1.2473
  461MOL0     C63494  10.872  11.875   3.327 -1.0361 -0.1015 -0.1961
  461MOL0     C63495  10.729  11.927   3.379 -0.7847  0.0910  0.4742
  461MOL0     C63496  10.678  12.060   3.320  0.5630  0.4383 -0.2112
  461MOL0     N63497  10.781  12.163   3.331 -0.0737 -0.2530  0.5206
  461MOL0     C63498  10.809  12.231   3.445  0.7144  0.5879  0.4227
  461MOL0     C63499  10.888  12.331   3.404  0.3618 -0.2138  0.3330
  461MOL0     C63500  10.936  12.449   3.479 -0.9456 -0.2826 -0.0553
  461MOL0     C63501  11.079  12.479   3.437  0.1522 -0.0014  0.1810
  461MOL0     C63502  11.117  12.627   3.481  0.7252  0.5658  0.6881
  461MOL0     C63503  11.266  12.645   3.488 -0.2953  0.4583  0.6484
  461MOL0     O63504  11.337  12.608   3.365 -0.7376  0.6093  0.2808
  461MOL0     C63505  11.475  12.634   3.362  0.7220 -0.8006  0.2318
  461MOL0     C63506  11.545  12.689   3.467  0.4098  0.0629 -0.3800
  461MOL0     C63507  11.683  12.709   3.471  0.3767 -0.3472 -0.4729
  461MOL0     C63508  11.745  12.749   3.605 -0.1843  0.1859 -0.2623
  461MOL0     C63509  11.747  12.686   3.352 -0.9388  1.6682 -0.2840
  461MOL0     C63510  11.890  12.693   3.346 -0.6987 -0.6524 -0.2112
  461MOL0     O63511  11.957  12.614   3.260 -0.7593 -0.0494  0.0587
  461MOL0     C63512  12.089  12.628   3.254 -0.2218 -0.3833 -0.8300
  461MOL0     C63513  12.146  12.698   3.150 -0.4301 -0.9452  0.2110
  461MOL0     C63514  12.284  12.732   3.147 -0.4713  0.1873  0.1615
  461MOL0     C63515  12.368  12.683   3.246 -0.0392  0.3777  0.5884
  461MOL0     O63516  12.501  12.716   3.234 -0.7282  0.1589 -0.5721
  461MOL0     C63517  12.601  12.631   3.298  0.9555 -0.5217  0.0591
  461MOL0     C63518  12.727  12.714   3.312  0.7235  0.3838  0.6478
  461MOL0     C63519  12.782  12.785   3.186  0.3940 -0.2103 -0.8048
  461MOL0     C63520  12.920  12.847   3.205  0.6382 -0.7963 -0.0900
  461MOL0     C63521  12.991  12.869   3.065 -0.1582  0.1804  0.6854
  461MOL0     C63522  13.137  12.903   3.075 -0.4835  0.5423  0.0039
  461MOL0     C63523  13.182  12.947   2.937  0.5437 -0.1676  0.3872
  461MOL0     C63524  13.332  12.957   2.926 -0.7483 -0.1036  0.0818
  461MOL0    Cl63525  13.381  13.119   2.998 -0.1676 -0.1577 -0.4106
  461MOL0     C63526  12.309  12.601   3.356  0.5450 -0.1407 -1.5874
  461MOL0     C63527  12.173  12.575   3.359  0.3326 -0.1779 -0.1796
  461MOL0     O63528  11.945  12.780   3.411 -0.4727 -0.1917  0.4658
  461MOL0     C63529  11.682  12.642   3.234  1.7523  0.2483 -0.0644
  461MOL0     C63530  11.544  12.611   3.242  0.2893  0.4721 -0.0869
  461MOL0     N63531  10.918  12.315   3.265 -0.6028  1.0201 -1.3578
  461MOL0     N63532  10.850  12.218   3.227 -0.4529 -0.0714 -0.4621
  461MOL0     C63533  11.203  11.559   3.920 -0.2251 -0.5005 -0.7823
  461MOL0     C63534  11.173  11.485   4.037 -0.2885  0.2484 -0.3471
  461MOL0     C63535  11.280  11.226   4.401  0.1491  0.0685  0.3280
  461MOL0     C63536  11.148  11.214   4.451  0.5644 -0.8199 -0.0812
  461MOL0     C63537  11.110  11.182   4.581 -0.3244  0.0188 -0.1394
  461MOL0     C63538  11.222  11.161   4.665  0.4660  0.7020 -0.0876
  461MOL0     O63539  11.189  11.123   4.789 -0.0689 -0.5643  0.3440
  461MOL0     C63540  11.228  11.218   4.890  0.3060 -0.9733  0.1324
  461MOL0     C63541  11.099  11.296   4.926  0.4750 -0.5262 -0.4955
  461MOL0     C63542  11.134  11.394   5.044  0.1611  0.4932 -1.2530
  461MOL0     C63543  11.008  11.452   5.110  0.9588 -0.6382  0.8017
  461MOL0     C63544  10.942  11.542   5.021  0.2207  0.1968  0.7883
  461MOL0     C63545  10.877  11.606   4.947  0.5933 -0.6047 -0.3982
  461MOL0     C63546  11.352  11.158   4.621 -0.3687 -1.2744 -0.5259
  461MOL0     C63547  11.385  11.193   4.485 -0.8187 -0.1187 -0.1462
  461MOL0     C63548  11.539  11.183   4.447  0.5037 -0.0558  0.4226
  461MOL0     H63549  11.318  11.198   3.963 -0.2343 -0.2003 -1.1528
  461MOL0     H63550  11.375  11.317   3.767 -4.0988 -2.9401 -1.0949
  461MOL0     H63551  11.269  11.430   3.578 -1.9657  1.6553 -2.0502
  461MOL0     H63552  11.437  11.495   3.581  0.1139  0.2016  0.9584
  461MOL0     H63553  11.345  11.718   3.510  1.6536 -1.0038  1.2993
  461MOL0     H63554  11.326  11.591   3.382 -0.0400  3.1779 -1.6605
  461MOL0     H63555  11.089  11.556   3.498  0.5361 -0.4058 -0.1754
  461MOL0     H63556  11.141  11.707   3.579  1.5537  1.1018 -0.2901
  461MOL0     H63557  11.137  11.829   3.366  1.1394  0.4487 -1.2535
  461MOL0     H63558  11.085  11.693   3.273 -3.0151  1.9318 -1.0602
  461MOL0     H63559  10.924  11.757   3.508 -0.9831 -2.6193 -1.3128
  461MOL0     H63560  10.884  11.661   3.378  0.1584 -0.8203 -0.2613
  461MOL0     H63561  10.941  11.955   3.356  2.7969 -2.7766 -1.2314
  461MOL0     H63562  10.888  11.850   3.222  3.2457 -1.8026  0.7012
  461MOL0     H63563  10.726  11.943   3.487 -3.5214 -0.4396  0.5579
  461MOL0     H63564  10.650  11.852   3.368 -0.6318 -0.2548  1.5776
  461MOL0     H63565  10.642  12.043   3.218 -0.3439 -0.6835  0.2801
  461MOL0     H63566  10.580  12.086   3.360  0.1031  1.3927 -1.8444
  461MOL0     H63567  10.752  12.223   3.537 -0.7715  1.0704 -0.4135
  461MOL0     H63568  10.938  12.437   3.588 -0.6478  0.1532 -0.0055
  461MOL0     H63569  10.867  12.529   3.452 -1.8121 -1.3720 -1.1801
  461MOL0     H63570  11.154  12.418   3.488  1.1688 -0.3971 -1.6965
  461MOL0     H63571  11.102  12.465   3.331  0.1727 -0.0577  0.1926
  461MOL0     H63572  11.084  12.702   3.408 -0.2192 -2.2311 -1.9530
  461MOL0     H63573  11.084  12.651   3.583  0.5237  0.5861  0.6180
  461MOL0     H63574  11.270  12.751   3.517  0.0815  1.3352 -2.2975
  461MOL0     H63575  11.296  12.581   3.572 -0.5165 -3.1629 -1.8184
  461MOL0     H63576  11.485  12.710   3.556 -1.1883 -0.5620 -1.2671
  461MOL0     H63577  11.673  12.728   3.684 -1.0401 -1.3578 -1.3927
  461MOL0     H63578  11.767  12.856   3.604  2.0969 -0.2061 -2.4805
  461MOL0     H63579  11.836  12.697   3.639  2.6741  4.9080  0.1563
  461MOL0     H63580  12.082  12.707   3.063  1.9809  0.1742 -1.5314
  461MOL0     H63581  12.325  12.779   3.058  2.3042 -0.3659  1.0586
  461MOL0     H63582  12.563  12.617   3.399  0.8338  1.9714  0.4364
  461MOL0     H63583  12.619  12.551   3.225  2.2714  2.4114 -3.1421
  461MOL0     H63584  12.699  12.787   3.388 -3.9720 -1.3547  0.9171
  461MOL0     H63585  12.801  12.649   3.361  2.3279  1.2144 -0.5834
  461MOL0     H63586  12.719  12.870   3.160  1.6682  0.6576 -1.1713
  461MOL0     H63587  12.782  12.713   3.103  0.1417 -0.3152 -0.7147
  461MOL0     H63588  12.989  12.782   3.260  2.0153 -0.1618 -1.0084
  461MOL0     H63589  12.913  12.947   3.249 -1.3639  0.3478 -2.7359
  461MOL0     H63590  12.979  12.779   3.003  2.8229  1.0482 -1.3422
  461MOL0     H63591  12.940  12.947   3.008  3.7760  1.6877 -1.1366
  461MOL0     H63592  13.181  12.809   3.109 -1.7025  0.5680  1.7556
  461MOL0     H63593  13.162  12.990   3.137 -1.7766  1.5629 -0.8705
  461MOL0     H63594  13.125  13.028   2.890  0.0232 -1.9791 -2.4069
  461MOL0     H63595  13.148  12.867   2.870  0.4570  2.2627 -2.7381
  461MOL0     H63596  13.362  12.964   2.821  5.3943 -0.2475  1.4624
  461MOL0     H63597  13.372  12.871   2.980 -1.7818 -0.5015  0.2419
  461MOL0     H63598  12.354  12.545   3.438  0.6239 -2.6694 -3.2380
  461MOL0     H63599  12.125  12.521   3.439  1.1051 -2.9099 -1.4420
  461MOL0     H63600  11.743  12.626   3.146  0.3819  1.8939 -1.3880
  461MOL0     H63601  11.486  12.574   3.158 -1.2011  0.8590  0.7313
  461MOL0     H63602  11.187  11.665   3.901 -2.5075 -0.4858  0.8824
  461MOL0     H63603  11.144  11.544   4.124  1.5557  2.6112 -1.2140
  461MOL0     H63604  11.072  11.244   4.380  2.5446 -1.2961 -2.5491
  461MOL0     H63605  11.008  11.158   4.613  0.8530 -3.3889  1.6307
  461MOL0     H63606  11.275  11.171   4.977 -0.4474 -0.4023  0.8634
  461MOL0     H63607  11.300  11.285   4.841  0.2840 -1.3087 -0.3595
  461MOL0     H63608  11.021  11.229   4.962 -1.3676  1.6916 -0.0786
  461MOL0     H63609  11.073  11.354   4.837 -2.7093  1.8003  1.7106
  461MOL0     H63610  11.177  11.329   5.121 -2.3619  0.0893 -0.0660
  461MOL0     H63611  11.209  11.466   5.011  0.6705 -0.1375 -1.4902
  461MOL0     H63612  11.026  11.505   5.204 -1.0473 -4.3786  3.5254
  461MOL0     H63613  10.939  11.371   5.135 -0.6776 -0.2699 -2.0631
  461MOL0     H63614  10.815  11.666   4.884  1.8627  1.6054  0.3377
  461MOL0     H63615  11.425  11.120   4.691  0.9567  0.6768 -0.7691
  461MOL0     H63616  11.599  11.185   4.538 -1.6553 -3.6182  2.1546
  461MOL0     H63617  11.561  11.085   4.404 -1.4378 -1.4409  2.4004
  461MOL0     H63618  11.575  11.253   4.371 -1.3806 -1.4390 -1.9073
  462MOL0     O63619   3.864   0.823   6.991 -0.2297  0.3316 -0.3643
  462MOL0     C63620   3.867   0.811   7.114 -0.7339  0.1374  0.2822
  462MOL0     O63621   3.764   0.804   7.198 -0.3542 -0.0351 -0.5629
  462MOL0     C63622   3.635   0.846   7.160 -0.9205 -0.1462  0.3288
  462MOL0     C63623   3.614   0.951   7.069  0.2315  0.1914  0.2371
  462MOL0     C63624   3.481   0.992   7.045 -0.7269  0.2779  0.3220
  462MOL0     C63625   3.365   0.916   7.089 -0.4983 -1.1454  0.0232
  462MOL0     O63626   3.235   0.966   7.061  0.3050 -0.4940 -0.3627
  462MOL0     C63627   3.119   0.910   7.120  0.9321  0.1125  0.1330
  462MOL0     C63628   2.997   1.004   7.103 -1.2750  0.3289 -0.6138
  462MOL0     C63629   2.869   0.935   7.142 -0.5198 -0.2423 -1.0795
  462MOL0     C63630   2.835   0.961   7.282  0.7184 -0.0549 -0.5547
  462MOL0     C63631   2.707   0.879   7.309  0.7302  0.5557 -1.1158
  462MOL0     C63632   2.636   0.925   7.441 -0.6707 -0.4360 -0.3344
  462MOL0     C63633   2.723   0.949   7.571  0.9695  0.2967  0.7410
  462MOL0     C63634   2.787   0.819   7.610  0.5669  0.3309 -0.5665
  462MOL0     N63635   2.842   0.836   7.746 -0.5574 -0.9279  0.0617
  462MOL0     C63636   2.963   0.896   7.773  0.3812 -0.0303  0.5475
  462MOL0     C63637   2.969   0.906   7.912 -0.3240  0.2107  0.1264
  462MOL0     C63638   3.086   0.964   7.986 -0.2605 -0.4824 -0.4674
  462MOL0     C63639   3.214   0.869   7.966 -0.6415 -0.3633  0.2219
  462MOL0     C63640   3.327   0.926   7.878  1.3349  0.0612 -0.4468
  462MOL0     C63641   3.416   1.029   7.951  0.2935  0.5603 -0.2809
  462MOL0     O63642   3.517   1.071   7.862 -0.2232  0.1096 -0.4896
  462MOL0     C63643   3.640   1.011   7.876  0.4208  0.1490  0.0606
  462MOL0     C63644   3.739   1.092   7.852  0.2878 -0.5252  0.8901
  462MOL0     C63645   3.875   1.057   7.858  0.4289  0.9199  0.5136
  462MOL0     C63646   3.981   1.170   7.819  0.1270 -0.3685  0.4448
  462MOL0     C63647   3.914   0.933   7.899  0.3144  0.5138  0.0561
  462MOL0     C63648   4.050   0.884   7.939 -0.4413  0.1038  0.7967
  462MOL0     O63649   4.157   0.937   7.874 -0.1868 -0.9007  0.3470
  462MOL0     C63650   4.285   0.889   7.896  0.8708  0.1050  0.6664
  462MOL0     C63651   4.373   0.927   7.793  0.5327 -0.1447 -0.2752
  462MOL0     C63652   4.510   0.900   7.798 -0.0272 -0.6329  0.2970
  462MOL0     C63653   4.565   0.827   7.908  0.3565 -0.5857  0.1045
  462MOL0     O63654   4.703   0.808   7.926 -0.0421  0.0286 -0.2235
  462MOL0     C63655   4.797   0.880   7.856  0.4157  0.3825  0.4013
  462MOL0     C63656   4.945   0.852   7.913  0.9825 -0.1812 -0.0384
  462MOL0     C63657   5.060   0.860   7.821 -0.1167  0.2820 -0.6601
  462MOL0     C63658   5.200   0.833   7.886 -0.4356  0.5011  0.9149
  462MOL0     C63659   5.310   0.874   7.783  0.8679  0.3544 -0.0381
  462MOL0     C63660   5.312   1.026   7.752 -0.1599  0.2920 -0.6791
  462MOL0     C63661   5.444   1.070   7.688  0.2098  0.3250 -0.6199
  462MOL0     C63662   5.467   1.030   7.543 -0.9683  0.2655 -0.3094
  462MOL0    Cl63663   5.395   1.162   7.434 -0.4044  0.1024 -0.0363
  462MOL0     C63664   4.475   0.785   8.007 -0.0024 -0.0633 -0.4106
  462MOL0     C63665   4.339   0.809   7.998  0.3402 -0.7831  0.2160
  462MOL0     O63666   4.059   0.804   8.035 -0.1092 -0.1436  0.2698
  462MOL0     C63667   3.807   0.848   7.929 -0.3273  0.4328 -0.4161
  462MOL0     C63668   3.675   0.890   7.932  0.4024  0.7802 -0.7499
  462MOL0     N63669   2.850   0.868   7.966  0.0696 -0.1788  0.0923
  462MOL0     N63670   2.784   0.822   7.865 -0.5758 -0.4288 -0.0573
  462MOL0     C63671   3.392   0.801   7.166 -0.6005 -0.6320  0.4841
  462MOL0     C63672   3.525   0.770   7.204 -0.1393  0.2207  0.6938
  462MOL0     C63673   3.999   0.762   7.151 -0.1679 -0.7891 -0.3145
  462MOL0     C63674   4.000   0.668   7.247 -0.0535 -0.5808  0.2719
  462MOL0     C63675   4.120   0.601   7.279 -0.2700 -0.0975  0.1581
  462MOL0     C63676   4.238   0.642   7.220 -0.0667 -0.5075  0.4305
  462MOL0     O63677   4.352   0.565   7.245  0.0232 -0.0087  0.0404
  462MOL0     C63678   4.368   0.443   7.171 -0.0115 -0.2138  0.4294
  462MOL0     C63679   4.479   0.363   7.227 -0.0333  0.6672 -0.1960
  462MOL0     C63680   4.465   0.318   7.377 -0.6162 -0.3551 -0.0386
  462MOL0     C63681   4.337   0.238   7.415  0.1960 -0.0162 -0.0724
  462MOL0     C63682   4.347   0.090   7.377  0.5051  0.1939  0.4813
  462MOL0     C63683   4.333  -0.018   7.319  0.0933  0.2693 -0.8476
  462MOL0     C63684   4.243   0.756   7.128  0.5324  0.5681 -0.2427
  462MOL0     C63685   4.126   0.812   7.089 -0.4123 -0.8102  0.0372
  462MOL0     C63686   4.120   0.931   7.004  0.4906  0.4108  0.1812
  462MOL0     H63687   3.701   1.009   7.040  1.6177 -0.3101  3.0217
  462MOL0     H63688   3.474   1.063   6.963  1.6772  0.8284  0.5049
  462MOL0     H63689   3.136   0.886   7.225 -0.6187  2.3074  0.9719
  462MOL0     H63690   3.083   0.819   7.071  0.7507  1.6287 -2.7611
  462MOL0     H63691   3.010   1.089   7.171 -1.6795 -0.5235  0.5611
  462MOL0     H63692   2.994   1.047   7.003  2.9851 -0.7700 -1.4194
  462MOL0     H63693   2.786   0.973   7.083 -1.5550 -1.4434 -0.4496
  462MOL0     H63694   2.880   0.828   7.122  0.8643  0.4217 -4.6327
  462MOL0     H63695   2.911   0.927   7.352 -0.2829 -2.2164 -0.4337
  462MOL0     H63696   2.814   1.067   7.303 -0.0588  0.0191 -1.5666
  462MOL0     H63697   2.721   0.771   7.312  0.0687  0.4354 -1.9782
  462MOL0     H63698   2.640   0.906   7.227 -1.0941 -1.4525 -0.3746
  462MOL0     H63699   2.582   1.017   7.421 -0.7891 -0.4814 -0.2235
  462MOL0     H63700   2.556   0.857   7.472 -0.5211  0.4704  2.2327
  462MOL0     H63701   2.662   0.997   7.649 -1.4309  0.8390 -1.3307
  462MOL0     H63702   2.803   1.017   7.540  3.1581 -2.7099 -0.6572
  462MOL0     H63703   2.722   0.732   7.615  2.7473 -1.3279  1.2469
  462MOL0     H63704   2.869   0.784   7.545  1.5477 -0.8737  1.2354
  462MOL0     H63705   3.034   0.916   7.694  1.1005 -0.6714  1.0210
  462MOL0     H63706   3.054   0.961   8.091  0.4267 -0.8970 -0.2657
  462MOL0     H63707   3.108   1.070   7.971  2.9969 -0.7473  1.5866
  462MOL0     H63708   3.272   0.842   8.055  0.7577  0.6910 -0.3391
  462MOL0     H63709   3.186   0.773   7.922  0.5319  0.5511 -2.7219
  462MOL0     H63710   3.393   0.847   7.841  1.4846  0.1926 -0.4563
  462MOL0     H63711   3.274   0.966   7.792  0.0415  3.6044  1.7851
  462MOL0     H63712   3.356   1.117   7.979 -0.0714  0.2615 -0.1188
  462MOL0     H63713   3.463   0.974   8.032  0.1874 -0.3392 -0.8225
  462MOL0     H63714   3.710   1.186   7.807  0.7828 -1.9423 -2.7667
  462MOL0     H63715   4.076   1.177   7.873  0.9334 -1.6049 -0.7415
  462MOL0     H63716   3.936   1.270   7.812  1.5166  0.1849 -1.4798
  462MOL0     H63717   3.999   1.144   7.714 -1.6221 -1.8084  0.4626
  462MOL0     H63718   4.327   0.986   7.715 -1.4245  0.3305  1.1473
  462MOL0     H63719   4.571   0.942   7.719 -4.3541 -0.5505 -3.3564
  462MOL0     H63720   4.782   0.845   7.753  1.7992 -0.9141  0.6086
  462MOL0     H63721   4.774   0.986   7.863 -3.2121 -0.2180 -0.2585
  462MOL0     H63722   4.949   0.917   8.001  0.9373 -0.0170 -0.1568
  462MOL0     H63723   4.947   0.750   7.953  2.6056  0.7708  2.5752
  462MOL0     H63724   5.060   0.965   7.789 -1.1201 -0.4697 -3.4054
  462MOL0     H63725   5.047   0.790   7.739  0.8078  0.3640 -0.8897
  462MOL0     H63726   5.208   0.731   7.923  0.1051  1.2105  2.9269
  462MOL0     H63727   5.210   0.895   7.976 -0.5181  1.6735  0.1447
  462MOL0     H63728   5.404   0.843   7.830  1.1967 -0.1108 -0.9783
  462MOL0     H63729   5.294   0.813   7.694  2.0283 -0.5602  0.3433
  462MOL0     H63730   5.296   1.078   7.847 -0.2336  1.3104 -1.2381
  462MOL0     H63731   5.232   1.046   7.680 -0.4954  0.6992 -0.2001
  462MOL0     H63732   5.520   1.035   7.759 -1.8406 -1.9536  0.5987
  462MOL0     H63733   5.446   1.178   7.701  1.6930  0.3036 -0.5552
  462MOL0     H63734   5.408   0.945   7.508 -0.5155 -0.1644 -0.0376
  462MOL0     H63735   5.574   1.013   7.531 -0.2718  3.9003 -0.3527
  462MOL0     H63736   4.515   0.740   8.098 -1.7469 -2.5823 -0.7674
  462MOL0     H63737   4.273   0.772   8.076  0.1222  0.2958  0.5581
  462MOL0     H63738   3.817   0.748   7.971  0.4047  0.6373 -0.0851
  462MOL0     H63739   3.599   0.822   7.968  1.7787 -0.6039 -0.3605
  462MOL0     H63740   3.322   0.737   7.220  0.0569 -0.5513  1.4617
  462MOL0     H63741   3.553   0.692   7.273 -1.4889 -2.5569 -1.6868
  462MOL0     H63742   3.911   0.624   7.290 -1.1058  0.9752 -0.2385
  462MOL0     H63743   4.106   0.515   7.345 -0.7443 -0.7645 -0.7746
  462MOL0     H63744   4.274   0.389   7.183 -0.9299  1.5024  1.3201
  462MOL0     H63745   4.389   0.447   7.064  4.3121 -3.2415  0.9198
  462MOL0     H63746   4.571   0.423   7.229 -0.0908  0.7643 -0.4322
  462MOL0     H63747   4.505   0.274   7.169 -2.2212  0.9038 -1.6415
  462MOL0     H63748   4.562   0.271   7.400  0.7648  2.0559 -0.6260
  462MOL0     H63749   4.447   0.417   7.418 -1.3886 -0.1885 -0.7699
  462MOL0     H63750   4.253   0.287   7.364  0.2890  0.1143 -0.1014
  462MOL0     H63751   4.315   0.242   7.522  0.4842  2.0982 -0.0397
  462MOL0     H63752   4.317  -0.113   7.272 -0.9723 -0.4389  0.8456
  462MOL0     H63753   4.345   0.783   7.101  1.8114 -3.3024  0.1309
  462MOL0     H63754   4.053   1.005   7.049  0.9548  0.9636 -0.0307
  462MOL0     H63755   4.216   0.982   6.995  2.4670 -2.5805  2.4677
  462MOL0     H63756   4.073   0.913   6.907  0.3023  1.1277  0.1384
  463MOL0     O63757   3.448   5.632   6.386 -0.1675 -0.0617  0.5743
  463MOL0     C63758   3.465   5.667   6.272 -0.1468  0.1248  0.1205
  463MOL0     O63759   3.577   5.635   6.198  0.2665  0.3808  0.2439
  463MOL0     C63760   3.689   5.573   6.259  0.6055  0.0085 -0.2697
  463MOL0     C63761   3.739   5.609   6.381 -0.7819 -1.0101  0.4837
  463MOL0     C63762   3.843   5.546   6.427 -0.4596 -0.6014 -0.0427
  463MOL0     C63763   3.915   5.450   6.351  0.0211 -0.0183 -0.7328
  463MOL0     O63764   4.036   5.393   6.384 -0.2219 -0.5322 -0.1794
  463MOL0     C63765   4.046   5.355   6.525  0.2409 -0.6530  1.1299
  463MOL0     C63766   4.141   5.237   6.533 -0.1807 -0.0394  1.2193
  463MOL0     C63767   4.160   5.187   6.674  0.1893  0.2010 -0.1030
  463MOL0     C63768   4.268   5.255   6.743 -0.8363 -0.1903 -0.7687
  463MOL0     C63769   4.253   5.250   6.901 -0.0498 -0.2344  0.8744
  463MOL0     C63770   4.373   5.297   6.972  0.0292 -0.1271 -1.0639
  463MOL0     C63771   4.429   5.437   6.928  0.2270 -0.2524  0.1721
  463MOL0     C63772   4.539   5.496   7.020 -0.5627 -0.2425 -1.6892
  463MOL0     N63773   4.486   5.496   7.157  0.5303 -0.6474  0.4940
  463MOL0     C63774   4.428   5.615   7.208  0.0467  0.1791 -0.9534
  463MOL0     C63775   4.415   5.574   7.340 -0.3669 -0.6469  0.8720
  463MOL0     C63776   4.341   5.649   7.445  0.0225 -0.4492 -0.3591
  463MOL0     C63777   4.200   5.673   7.395 -0.0519 -0.2438  0.4832
  463MOL0     C63778   4.131   5.536   7.410 -0.2990  0.3688 -0.5060
  463MOL0     C63779   3.993   5.531   7.354  0.0129 -0.3716 -0.2837
  463MOL0     O63780   3.922   5.642   7.420 -0.0748 -0.2107  0.3382
  463MOL0     C63781   3.792   5.653   7.442 -0.7814 -1.0397 -0.0057
  463MOL0     C63782   3.767   5.781   7.494 -0.2864 -0.3882 -0.0863
  463MOL0     C63783   3.640   5.823   7.533 -0.4148  0.1565  1.0406
  463MOL0     C63784   3.625   5.967   7.562 -0.4680  0.5399 -0.9603
  463MOL0     C63785   3.537   5.731   7.512 -0.0023  0.1036  0.1229
  463MOL0     C63786   3.395   5.769   7.535 -0.7660 -0.4950  0.5229
  463MOL0     O63787   3.324   5.676   7.615 -0.2887  0.6004 -0.2811
  463MOL0     C63788   3.193   5.716   7.632  0.4921  0.3705  0.5910
  463MOL0     C63789   3.159   5.825   7.714  0.2025  0.4927  0.6889
  463MOL0     C63790   3.034   5.867   7.740 -0.0967  0.9856  0.4580
  463MOL0     C63791   2.929   5.784   7.694  0.7281  0.6041 -0.4785
  463MOL0     O63792   2.794   5.822   7.714  0.0302 -0.6108  0.0646
  463MOL0     C63793   2.701   5.715   7.717  0.4505  0.3355 -0.3100
  463MOL0     C63794   2.550   5.762   7.747  0.2157 -0.4608 -0.5793
  463MOL0     C63795   2.533   5.869   7.856  1.1027 -1.2150 -0.2375
  463MOL0     C63796   2.388   5.868   7.905  0.2333  0.1931  0.0780
  463MOL0     C63797   2.360   5.983   8.008 -0.6459  0.1364 -0.3315
  463MOL0     C63798   2.373   6.114   7.938  0.1436 -0.2688  0.4523
  463MOL0     C63799   2.356   6.230   8.038 -0.1762  0.2730  0.2770
  463MOL0     C63800   2.272   6.332   7.959  0.2444 -0.9005 -0.9498
  463MOL0    Cl63801   2.191   6.451   8.072 -0.0645 -0.5230 -0.7775
  463MOL0     C63802   2.956   5.675   7.607 -0.6455 -0.7054  0.2598
  463MOL0     C63803   3.085   5.646   7.569  0.5873 -0.7117  0.0694
  463MOL0     O63804   3.350   5.869   7.477  0.3251 -0.2273  0.3303
  463MOL0     C63805   3.559   5.603   7.469  0.0760 -0.0340 -0.1563
  463MOL0     C63806   3.692   5.561   7.431  0.1686 -1.0500 -0.3266
  463MOL0     N63807   4.461   5.442   7.362  0.4156  0.5489 -0.0414
  463MOL0     N63808   4.499   5.402   7.254 -0.1533  0.5571 -0.0880
  463MOL0     C63809   3.865   5.410   6.231  0.4802  0.4595 -0.3039
  463MOL0     C63810   3.749   5.469   6.182  0.1627 -1.1069 -0.6081
  463MOL0     C63811   3.361   5.740   6.202 -1.0745 -0.1698  0.9818
  463MOL0     C63812   3.318   5.698   6.075  0.0131 -0.3966 -0.2509
  463MOL0     C63813   3.211   5.761   6.015  0.8402  0.2146  0.4925
  463MOL0     C63814   3.140   5.861   6.077  0.6691 -0.1302  0.7091
  463MOL0     O63815   3.044   5.936   6.015  0.2451  0.3549  0.1318
  463MOL0     C63816   2.915   5.949   6.077  0.1239 -0.9847  0.6204
  463MOL0     C63817   2.839   5.809   6.088 -0.5574 -0.8164 -0.0006
  463MOL0     C63818   2.827   5.757   5.956  0.0960 -0.0052  0.7758
  463MOL0     C63819   2.696   5.673   5.917 -0.3217 -0.5484 -0.8317
  463MOL0     C63820   2.693   5.636   5.777 -0.1443 -0.5504  0.2895
  463MOL0     C63821   2.686   5.620   5.658  0.4205  0.3149 -0.2797
  463MOL0     C63822   3.185   5.901   6.207 -0.5089 -0.0543 -0.0145
  463MOL0     C63823   3.295   5.845   6.273 -0.1485  0.3467  0.6157
  463MOL0     C63824   3.317   5.893   6.419  0.3761 -0.0620  0.4282
  463MOL0     H63825   3.684   5.684   6.438  0.5764  0.5665 -0.2016
  463MOL0     H63826   3.876   5.575   6.527 -1.3698 -5.5541  1.9654
  463MOL0     H63827   3.950   5.319   6.564 -0.7728 -0.5091 -1.0860
  463MOL0     H63828   4.076   5.433   6.596 -2.0852 -0.9400  2.5419
  463MOL0     H63829   4.101   5.154   6.474  2.0959  0.4867 -1.2597
  463MOL0     H63830   4.238   5.262   6.489 -1.5195  0.4175 -1.6760
  463MOL0     H63831   4.066   5.188   6.730  0.6637 -2.5388  0.9197
  463MOL0     H63832   4.185   5.081   6.664 -0.6566 -0.3873  2.9953
  463MOL0     H63833   4.365   5.213   6.714 -1.0895  0.4604 -2.6335
  463MOL0     H63834   4.274   5.360   6.716  0.5673  0.0476  0.3354
  463MOL0     H63835   4.239   5.144   6.921 -4.2942 -0.2053 -0.7757
  463MOL0     H63836   4.169   5.310   6.939 -2.5669 -0.8552 -3.0730
  463MOL0     H63837   4.355   5.309   7.079  1.0891  1.5031 -1.0325
  463MOL0     H63838   4.442   5.212   6.968  0.8745  0.0914  3.5096
  463MOL0     H63839   4.356   5.519   6.921  2.0127  1.3360 -0.7165
  463MOL0     H63840   4.465   5.430   6.825  2.7708  0.0103  0.9784
  463MOL0     H63841   4.623   5.426   7.029  0.4100  1.1325  1.2198
  463MOL0     H63842   4.578   5.595   6.997  0.6217  0.2214  1.7038
  463MOL0     H63843   4.401   5.706   7.156  1.1101 -0.5721 -2.9035
  463MOL0     H63844   4.395   5.737   7.481  0.6301  0.9597 -4.2172
  463MOL0     H63845   4.347   5.582   7.532  0.0808 -0.0106 -0.0260
  463MOL0     H63846   4.160   5.746   7.466 -1.7691  3.1948 -3.5589
  463MOL0     H63847   4.190   5.709   7.292 -0.0990  0.7332  0.8219
  463MOL0     H63848   4.189   5.460   7.357  2.6538 -0.4688  3.4990
  463MOL0     H63849   4.132   5.509   7.516 -3.6260  0.9767 -0.2239
  463MOL0     H63850   3.992   5.548   7.246 -1.4231  1.5971 -0.0083
  463MOL0     H63851   3.948   5.433   7.367 -1.7821  0.4393 -0.0851
  463MOL0     H63852   3.844   5.857   7.502 -0.2315 -0.5689  1.3131
  463MOL0     H63853   3.578   6.025   7.483  1.4334  3.5777 -0.0202
  463MOL0     H63854   3.723   6.015   7.567 -1.4185  2.4474  1.6901
  463MOL0     H63855   3.574   5.981   7.659  1.2119  0.3287 -0.0102
  463MOL0     H63856   3.237   5.866   7.778  1.6892 -2.4714  0.9206
  463MOL0     H63857   3.001   5.949   7.803  0.4714  1.6853 -0.1469
  463MOL0     H63858   2.692   5.659   7.623 -0.5183  0.9508 -0.6066
  463MOL0     H63859   2.735   5.639   7.788 -1.2785 -0.3059 -0.0997
  463MOL0     H63860   2.507   5.794   7.651  0.4560  4.4408  0.6498
  463MOL0     H63861   2.502   5.674   7.790  1.4439  0.3140  2.6288
  463MOL0     H63862   2.577   5.967   7.837  1.2276 -0.6682  2.5238
  463MOL0     H63863   2.597   5.844   7.940  1.6496  1.2992  0.1538
  463MOL0     H63864   2.377   5.778   7.966  2.0565  1.5218  2.5650
  463MOL0     H63865   2.314   5.874   7.825  2.2442  0.5868 -1.8395
  463MOL0     H63866   2.256   5.972   8.043 -0.1432  1.9114  1.9128
  463MOL0     H63867   2.425   5.989   8.096 -3.2061 -2.4057  1.9441
  463MOL0     H63868   2.312   6.115   7.847  1.3601 -0.5284 -0.3960
  463MOL0     H63869   2.474   6.129   7.899  0.7874  2.0440  2.6789
  463MOL0     H63870   2.456   6.266   8.066  0.0068  0.2980 -0.3884
  463MOL0     H63871   2.301   6.202   8.128 -1.4354  0.3353 -0.4630
  463MOL0     H63872   2.195   6.281   7.901  1.3904  1.4226 -4.8454
  463MOL0     H63873   2.335   6.378   7.883 -0.6929  0.3835 -0.9785
  463MOL0     H63874   2.887   5.604   7.564  0.3855 -1.6760  0.1440
  463MOL0     H63875   3.112   5.575   7.492  1.5826 -0.0355 -0.2195
  463MOL0     H63876   3.476   5.533   7.459 -2.0796  2.6523 -3.4532
  463MOL0     H63877   3.713   5.460   7.396  4.2274 -0.1027 -1.0966
  463MOL0     H63878   3.907   5.332   6.168  0.2011 -0.1079  0.1998
  463MOL0     H63879   3.698   5.444   6.090  0.5819  0.6381 -1.3605
  463MOL0     H63880   3.360   5.619   6.014  0.0085  2.0917 -3.7745
  463MOL0     H63881   3.173   5.722   5.921  0.8406  1.1151  0.0999
  463MOL0     H63882   2.912   5.996   6.176 -2.2099  0.6928 -0.1710
  463MOL0     H63883   2.845   6.012   6.022  0.5974  0.1636  1.2924
  463MOL0     H63884   2.737   5.834   6.119 -1.3246  0.2927 -3.0283
  463MOL0     H63885   2.875   5.746   6.169 -0.2090  0.4454  0.8628
  463MOL0     H63886   2.830   5.847   5.894 -2.0809  0.9925  2.0034
  463MOL0     H63887   2.914   5.694   5.935  1.6112  2.8039 -2.1787
  463MOL0     H63888   2.606   5.733   5.932 -0.1968 -0.2400 -1.2846
  463MOL0     H63889   2.699   5.581   5.976  0.9015 -1.2404 -1.9036
  463MOL0     H63890   2.652   5.609   5.557 -2.3048 -0.4482  0.6224
  463MOL0     H63891   3.133   5.981   6.258  0.0736  0.3838 -0.1110
  463MOL0     H63892   3.290   5.808   6.483  1.4779 -0.6191  0.1650
  463MOL0     H63893   3.420   5.913   6.447  0.7659 -1.7037  0.2629
  463MOL0     H63894   3.248   5.977   6.435 -1.1971 -0.6127 -2.7309
  464MOL0     O63895   0.147   9.061  10.728  0.0298  0.1161 -0.3584
  464MOL0     C63896   0.092   9.084  10.838  0.7534 -0.3352 -0.0564
  464MOL0     O63897  -0.015   9.163  10.866 -0.3697 -1.2282  0.5897
  464MOL0     C63898  -0.089   9.220  10.762  0.1658  0.1858 -0.2969
  464MOL0     C63899  -0.072   9.353  10.740  0.0624  0.4210  0.1377
  464MOL0     C63900  -0.160   9.411  10.639 -0.4611 -0.4531  0.8819
  464MOL0     C63901  -0.239   9.325  10.559  0.0101  0.3083  0.4346
  464MOL0     O63902  -0.301   9.386  10.455 -0.4200 -0.1039 -0.2227
  464MOL0     C63903  -0.385   9.294  10.373 -0.2023 -0.3533  0.1761
  464MOL0     C63904  -0.447   9.363  10.247 -0.1712 -1.2624  0.6283
  464MOL0     C63905  -0.551   9.468  10.301 -0.8988  0.5954 -0.7018
  464MOL0     C63906  -0.688   9.403  10.322  0.2986 -0.0894 -0.2603
  464MOL0     C63907  -0.791   9.513  10.330 -0.2385  0.1978 -0.8150
  464MOL0     C63908  -0.922   9.443  10.376 -0.2555 -0.0423 -0.0449
  464MOL0     C63909  -1.039   9.541  10.346  0.1996  0.3128 -0.2096
  464MOL0     C63910  -1.026   9.658  10.427  0.0570  0.1335 -0.0905
  464MOL0     N63911  -1.024   9.633  10.572  0.3695  0.2651 -0.7174
  464MOL0     C63912  -1.141   9.612  10.648 -0.2718 -0.6505  0.0230
  464MOL0     C63913  -1.099   9.589  10.773  0.1687  0.0807 -0.3075
  464MOL0     C63914  -1.181   9.545  10.890  0.4234  0.1339  0.5624
  464MOL0     C63915  -1.118   9.415  10.961 -0.1611  0.0874  0.1811
  464MOL0     C63916  -1.192   9.377  11.088 -0.4302 -0.5963  0.9028
  464MOL0     C63917  -1.143   9.236  11.135 -0.3401 -0.6684  0.2333
  464MOL0     O63918  -1.150   9.136  11.028 -0.1727 -0.0022  0.1926
  464MOL0     C63919  -1.067   9.027  11.037  0.3733  0.7336  0.5935
  464MOL0     C63920  -1.048   8.964  11.158  0.1502 -1.0053  0.1807
  464MOL0     C63921  -0.955   8.860  11.172 -0.3222  0.3795 -0.1123
  464MOL0     C63922  -0.942   8.798  11.310  0.5876 -0.2821  0.5942
  464MOL0     C63923  -0.896   8.811  11.054 -0.5777  0.7055  0.5173
  464MOL0     C63924  -0.800   8.694  11.044  0.0148  0.3082 -0.8586
  464MOL0     O63925  -0.736   8.661  10.930  0.8675 -0.2184  0.1350
  464MOL0     C63926  -0.635   8.566  10.931 -0.8292  0.1086 -1.5514
  464MOL0     C63927  -0.522   8.575  11.020 -0.3030  0.3068  0.0798
  464MOL0     C63928  -0.420   8.481  11.016  0.1509  0.6844 -0.2548
  464MOL0     C63929  -0.424   8.371  10.920 -0.1145  0.0631  0.3652
  464MOL0     O63930  -0.342   8.263  10.916 -0.0096 -0.5740  0.3696
  464MOL0     C63931  -0.205   8.283  10.971  0.4560  0.4766 -0.9215
  464MOL0     C63932  -0.111   8.189  10.897 -0.1989 -0.3278  1.2364
  464MOL0     C63933   0.015   8.167  10.973 -0.7737  0.5361  0.1556
  464MOL0     C63934   0.129   8.098  10.892 -0.2478 -0.1075 -0.6143
  464MOL0     C63935   0.271   8.116  10.955  0.1167 -0.1034 -0.8202
  464MOL0     C63936   0.373   8.051  10.870 -0.9119  0.3946  0.6235
  464MOL0     C63937   0.514   8.105  10.889  0.5649  0.9068 -0.3013
  464MOL0     C63938   0.623   8.032  10.818  0.1443  0.3438  0.5594
  464MOL0    Cl63939   0.782   8.037  10.886 -0.4703  0.2744  0.1497
  464MOL0     C63940  -0.532   8.370  10.831 -0.2299  0.2143 -0.1393
  464MOL0     C63941  -0.621   8.475  10.830  0.6915 -0.4224 -0.6234
  464MOL0     O63942  -0.788   8.630  11.145  0.2277  0.6505 -0.0594
  464MOL0     C63943  -0.907   8.883  10.937  0.4762  0.1714 -0.0230
  464MOL0     C63944  -0.995   8.991  10.928 -0.0958 -0.5143  0.5499
  464MOL0     N63945  -0.970   9.633  10.775 -0.1735 -0.3360 -0.5200
  464MOL0     N63946  -0.920   9.649  10.660  0.4264 -0.4287  0.5197
  464MOL0     C63947  -0.239   9.182  10.588 -0.8176  0.1874  0.2062
  464MOL0     C63948  -0.170   9.128  10.687 -0.4472  0.5710  0.6045
  464MOL0     C63949   0.168   9.043  10.962 -0.0302  0.0538  0.1560
  464MOL0     C63950   0.087   9.036  11.078 -0.0567  0.1975  0.4180
  464MOL0     C63951   0.140   9.006  11.204 -0.1534  0.8811 -0.1860
  464MOL0     C63952   0.275   8.968  11.214  0.9244  0.2333 -0.7771
  464MOL0     O63953   0.322   8.921  11.335 -0.4848 -0.0495  0.1806
  464MOL0     C63954   0.270   8.792  11.374  0.0994 -0.2546 -0.1223
  464MOL0     C63955   0.384   8.708  11.435 -0.6498  0.6167  0.1367
  464MOL0     C63956   0.324   8.575  11.488 -0.5005  0.1605  0.8961
  464MOL0     C63957   0.424   8.514  11.593 -0.0847  0.2640 -0.6704
  464MOL0     C63958   0.429   8.570  11.725 -0.3771 -0.0990  0.6032
  464MOL0     C63959   0.447   8.623  11.838 -0.2735 -0.0790  0.3026
  464MOL0     C63960   0.359   8.975  11.104  0.2936 -0.4638  0.9995
  464MOL0     C63961   0.303   9.016  10.977 -0.2813 -0.6391 -0.3485
  464MOL0     C63962   0.390   9.007  10.857 -0.2454 -0.7842  0.1993
  464MOL0     H63963   0.009   9.403  10.792  1.0656  0.0559 -1.0223
  464MOL0     H63964  -0.169   9.518  10.625 -0.5329 -0.3833  1.4443
  464MOL0     H63965  -0.455   9.243  10.441  1.1528 -1.5165  0.7451
  464MOL0     H63966  -0.326   9.217  10.325 -0.6744  0.8344 -2.4576
  464MOL0     H63967  -0.365   9.408  10.191 -2.2412 -1.0141 -2.4055
  464MOL0     H63968  -0.496   9.301  10.172  0.5380  1.5449 -2.3424
  464MOL0     H63969  -0.525   9.515  10.397 -0.1951 -0.4368 -0.3622
  464MOL0     H63970  -0.557   9.545  10.225  0.3889 -0.0153 -1.4579
  464MOL0     H63971  -0.711   9.348  10.230 -1.1810  4.6123 -3.0283
  464MOL0     H63972  -0.686   9.343  10.414  0.2058 -2.4298 -1.6845
  464MOL0     H63973  -0.800   9.559  10.231 -3.3378  2.8157  0.5173
  464MOL0     H63974  -0.761   9.585  10.407  2.7700 -1.0000 -0.7141
  464MOL0     H63975  -0.957   9.352  10.325  0.9059 -0.1356 -0.6959
  464MOL0     H63976  -0.917   9.422  10.483  0.0130 -2.2648 -0.4582
  464MOL0     H63977  -1.130   9.485  10.369  0.5261 -0.5700 -0.9905
  464MOL0     H63978  -1.034   9.577  10.243 -1.9910  2.7791  0.4624
  464MOL0     H63979  -0.937   9.713  10.394  0.6523 -1.5505 -1.4251
  464MOL0     H63980  -1.114   9.721  10.413 -2.8441 -4.0864 -3.2411
  464MOL0     H63981  -1.239   9.600  10.602  0.1501  0.1317 -1.1296
  464MOL0     H63982  -1.281   9.520  10.853 -2.0886  4.4979  3.5368
  464MOL0     H63983  -1.176   9.634  10.954  0.6644  1.8148 -1.6789
  464MOL0     H63984  -1.127   9.340  10.883 -5.7727 -1.0759  1.5297
  464MOL0     H63985  -1.011   9.418  10.985 -0.3564 -0.2043  1.1401
  464MOL0     H63986  -1.180   9.451  11.167 -0.1143  0.0343  0.2729
  464MOL0     H63987  -1.298   9.370  11.064  0.3249  0.5265 -3.7346
  464MOL0     H63988  -1.038   9.244  11.165  0.7697 -2.3602 -2.8172
  464MOL0     H63989  -1.209   9.212  11.219 -1.0334 -0.5136 -0.2526
  464MOL0     H63990  -1.094   9.002  11.249  0.4513  2.5837 -0.9815
  464MOL0     H63991  -0.958   8.867  11.393  1.6195  1.1196 -0.3246
  464MOL0     H63992  -0.845   8.752  11.330  0.7842 -0.5541 -0.8415
  464MOL0     H63993  -1.029   8.733  11.303 -1.1466  1.9990 -0.0225
  464MOL0     H63994  -0.508   8.657  11.089 -3.1181  1.1717 -0.2917
  464MOL0     H63995  -0.332   8.503  11.076  1.5337  1.9351 -2.5843
  464MOL0     H63996  -0.167   8.386  10.975 -1.7071  1.3087  1.8992
  464MOL0     H63997  -0.219   8.247  11.073 -0.5307 -0.5294 -1.3822
  464MOL0     H63998  -0.161   8.092  10.891  0.1418 -0.4478  0.1372
  464MOL0     H63999  -0.078   8.228  10.800 -1.6308 -3.9224 -0.8976
  464MOL0     H64000  -0.001   8.116  11.068 -0.2970  2.6139  1.4158
  464MOL0     H64001   0.056   8.263  11.004 -0.1696  0.0915  0.7540
  464MOL0     H64002   0.134   8.124  10.786  3.3014  0.2748 -0.4668
  464MOL0     H64003   0.108   7.991  10.895  3.7013 -1.0149  2.6135
  464MOL0     H64004   0.278   8.224  10.967 -2.8171  0.2031 -1.2297
  464MOL0     H64005   0.279   8.072  11.055 -0.1260  1.4003 -0.1049
  464MOL0     H64006   0.357   8.063  10.762  0.8518 -1.6990  0.0501
  464MOL0     H64007   0.367   7.945  10.897 -3.4593  0.8280  2.1010
  464MOL0     H64008   0.539   8.107  10.996 -0.7791 -1.4653  0.1078
  464MOL0     H64009   0.499   8.207  10.852 -1.9992  0.5010 -0.5069
  464MOL0     H64010   0.635   8.078  10.719  0.4300 -1.3997 -0.2648
  464MOL0     H64011   0.594   7.927  10.809  1.0407  0.0656  0.7989
  464MOL0     H64012  -0.550   8.284  10.767 -2.5935  0.2565  0.3848
  464MOL0     H64013  -0.694   8.472  10.750  0.7486  0.6556 -0.7262
  464MOL0     H64014  -0.867   8.843  10.844  1.5168  0.9772  0.0564
  464MOL0     H64015  -1.012   9.050  10.838  0.6102  1.1849  1.4966
  464MOL0     H64016  -0.283   9.109  10.521  1.0749 -1.1052  0.2736
  464MOL0     H64017  -0.169   9.022  10.711  0.0642  0.4677  0.1595
  464MOL0     H64018  -0.021   9.049  11.084 -0.1607 -0.4108 -0.0377
  464MOL0     H64019   0.086   9.002  11.298 -2.2261  0.9188 -1.3202
  464MOL0     H64020   0.184   8.809  11.440  0.2814  1.4708 -0.2721
  464MOL0     H64021   0.224   8.749  11.285  1.8184  0.4786 -1.4327
  464MOL0     H64022   0.428   8.764  11.518 -1.7158  1.9256 -0.1534
  464MOL0     H64023   0.467   8.694  11.365 -0.1173 -0.4311  0.9545
  464MOL0     H64024   0.228   8.588  11.540 -0.8555 -0.0376  0.3011
  464MOL0     H64025   0.299   8.506  11.406 -2.2302 -2.7776  3.6532
  464MOL0     H64026   0.526   8.514  11.554 -0.9248  2.3950 -3.0839
  464MOL0     H64027   0.405   8.409  11.618  2.3360  0.1786  1.1197
  464MOL0     H64028   0.470   8.672  11.931 -0.4630 -2.2941  1.5932
  464MOL0     H64029   0.465   8.949  11.108  0.4840 -0.2330 -1.2635
  464MOL0     H64030   0.416   9.107  10.821 -2.0046 -0.0075  0.9239
  464MOL0     H64031   0.485   8.960  10.881  1.1232  1.5459 -0.2838
  464MOL0     H64032   0.339   8.950  10.779 -3.2508 -1.8500  2.7314
  465MOL0     O64033   0.422   5.548   6.025  0.6788  0.2121 -0.1690
  465MOL0     C64034   0.402   5.619   6.116 -0.8979 -0.3987  0.2725
  465MOL0     O64035   0.461   5.608   6.238  1.1298 -0.2462 -0.6690
  465MOL0     C64036   0.558   5.507   6.254 -0.3184  0.0147  0.4236
  465MOL0     C64037   0.691   5.527   6.296 -0.3428 -0.5254  0.2535
  465MOL0     C64038   0.779   5.421   6.311  0.4206 -0.2518 -0.6589
  465MOL0     C64039   0.730   5.289   6.302  0.3229 -0.8947  0.0955
  465MOL0     O64040   0.796   5.171   6.311  0.2033 -0.5113  0.8832
  465MOL0     C64041   0.941   5.163   6.290  0.0130 -0.4067  0.4611
  465MOL0     C64042   0.979   5.013   6.251 -0.6018  0.3514  0.3332
  465MOL0     C64043   0.885   4.946   6.150  0.1602  0.3904  0.1367
  465MOL0     C64044   0.897   4.795   6.162 -0.4643  0.2025  0.7752
  465MOL0     C64045   0.804   4.723   6.064  0.4213 -0.6108 -0.0454
  465MOL0     C64046   0.811   4.576   6.085 -0.6299 -0.4231 -0.1223
  465MOL0     C64047   0.715   4.502   5.996  0.9540  0.6199 -0.5087
  465MOL0     C64048   0.567   4.518   6.033  0.0764 -0.4605  0.2439
  465MOL0     N64049   0.480   4.424   5.963 -0.1105  0.1162 -0.9525
  465MOL0     C64050   0.493   4.285   5.981  0.0069  0.5433 -0.7546
  465MOL0     C64051   0.396   4.226   5.907  0.4211  0.0622  0.0399
  465MOL0     C64052   0.373   4.071   5.904  0.9556 -0.4130 -0.1470
  465MOL0     C64053   0.441   3.999   5.791 -0.7983 -0.4646  0.4057
  465MOL0     C64054   0.382   3.854   5.786 -0.5071  0.0621  0.0603
  465MOL0     C64055   0.431   3.781   5.672  0.0526 -0.3502  0.0311
  465MOL0     O64056   0.434   3.638   5.691 -0.6168 -0.2441  0.5433
  465MOL0     C64057   0.318   3.570   5.703 -0.6802  0.3548 -0.4767
  465MOL0     C64058   0.273   3.550   5.835 -0.4805  0.9444 -0.7581
  465MOL0     C64059   0.159   3.479   5.868 -0.4170  0.0334 -0.5713
  465MOL0     C64060   0.138   3.467   6.023 -0.5293  0.4051 -0.0221
  465MOL0     C64061   0.081   3.424   5.762  0.6050 -0.6803  0.2187
  465MOL0     C64062  -0.055   3.375   5.795  0.1643  0.3008  0.3375
  465MOL0     O64063  -0.164   3.418   5.725 -0.0231  0.0344  1.0005
  465MOL0     C64064  -0.284   3.357   5.763 -0.6465 -0.0433 -0.5590
  465MOL0     C64065  -0.348   3.282   5.667  0.5621 -0.8397  0.5908
  465MOL0     C64066  -0.468   3.216   5.707  0.1221  0.3450  0.1325
  465MOL0     C64067  -0.526   3.227   5.831 -0.2537  0.1281  0.1217
  465MOL0     O64068  -0.638   3.172   5.875  0.3049  0.8859  0.6435
  465MOL0     C64069  -0.681   3.059   5.800  0.3486 -0.8666 -1.4920
  465MOL0     C64070  -0.795   2.991   5.879 -0.2345 -0.1370 -0.0917
  465MOL0     C64071  -0.931   3.066   5.858 -0.5779  0.2718 -0.0227
  465MOL0     C64072  -0.929   3.191   5.943  0.6546  0.2429 -0.0403
  465MOL0     C64073  -1.064   3.242   6.002 -0.0201 -0.2425 -0.0004
  465MOL0     C64074  -1.120   3.342   5.898 -0.5430  0.0166 -0.5633
  465MOL0     C64075  -1.247   3.404   5.951 -0.0934  0.7942 -0.9374
  465MOL0     C64076  -1.331   3.467   5.836  0.7438  0.1404 -0.5855
  465MOL0    Cl64077  -1.481   3.564   5.888 -0.4247 -0.3468  0.0104
  465MOL0     C64078  -0.452   3.305   5.924  0.2029  1.3286  0.4832
  465MOL0     C64079  -0.336   3.363   5.891  0.9818 -0.6343  0.9024
  465MOL0     O64080  -0.056   3.307   5.894  0.2379 -0.9895 -0.5162
  465MOL0     C64081   0.124   3.450   5.626 -0.6766  0.0912  0.2311
  465MOL0     C64082   0.237   3.533   5.602  0.5558 -0.8725  0.0922
  465MOL0     N64083   0.332   4.326   5.836  0.0975 -1.0214  0.4958
  465MOL0     N64084   0.386   4.448   5.870  0.0886 -0.1160  0.2602
  465MOL0     C64085   0.598   5.269   6.270 -1.1803  0.2702 -0.1313
  465MOL0     C64086   0.514   5.371   6.242 -0.0390 -0.3786 -0.2702
  465MOL0     C64087   0.330   5.747   6.098 -0.9120 -0.1876  0.3060
  465MOL0     C64088   0.410   5.856   6.129 -0.7413  0.8336  0.9470
  465MOL0     C64089   0.364   5.988   6.119  0.1201  0.6090  0.0214
  465MOL0     C64090   0.234   6.007   6.078  0.2748  0.6712 -0.1374
  465MOL0     O64091   0.194   6.133   6.066  0.3968 -0.1569 -0.1226
  465MOL0     C64092   0.064   6.159   6.124  0.8423  0.0146  0.2964
  465MOL0     C64093   0.061   6.311   6.156  0.6728  0.3922  0.0792
  465MOL0     C64094  -0.075   6.359   6.191  0.3319  0.1069 -0.7725
  465MOL0     C64095  -0.081   6.491   6.272  0.1427 -0.1173 -0.3087
  465MOL0     C64096  -0.219   6.506   6.316  0.9616 -0.7657  0.5819
  465MOL0     C64097  -0.328   6.542   6.354  0.1249  0.3261 -0.3943
  465MOL0     C64098   0.161   5.893   6.042 -0.2640  0.2471  0.7755
  465MOL0     C64099   0.206   5.766   6.046 -0.0598  0.9399 -0.7511
  465MOL0     C64100   0.108   5.655   6.007  0.2997  0.4023  0.0363
  465MOL0     H64101   0.718   5.632   6.307 -1.2364 -0.0149 -1.8818
  465MOL0     H64102   0.883   5.441   6.336  0.1568  3.7113 -2.0925
  465MOL0     H64103   1.006   5.201   6.369  0.3758 -0.9618  0.4387
  465MOL0     H64104   0.961   5.228   6.205 -3.4820 -1.1926 -1.1242
  465MOL0     H64105   1.083   5.019   6.219 -1.4527 -1.3428 -3.2560
  465MOL0     H64106   0.985   4.956   6.344  0.9989  0.4224  0.2928
  465MOL0     H64107   0.779   4.963   6.176  0.5246  0.3112  1.7941
  465MOL0     H64108   0.896   4.972   6.044 -2.0112 -1.0286 -0.5185
  465MOL0     H64109   0.997   4.762   6.135 -0.4676  2.0126 -1.8850
  465MOL0     H64110   0.859   4.773   6.262 -2.3240  1.4474  0.4080
  465MOL0     H64111   0.823   4.747   5.959  2.7083  4.0515  1.1781
  465MOL0     H64112   0.699   4.747   6.086  0.1684 -0.3537 -1.4516
  465MOL0     H64113   0.912   4.547   6.056 -0.3509  1.2775 -1.0057
  465MOL0     H64114   0.797   4.551   6.191 -0.0777  1.1611  0.3581
  465MOL0     H64115   0.739   4.396   5.987  2.7648  0.8086  1.2547
  465MOL0     H64116   0.727   4.552   5.900  0.9449  1.6796  0.0247
  465MOL0     H64117   0.554   4.503   6.141 -3.3129 -2.0210 -0.2465
  465MOL0     H64118   0.543   4.621   6.008  3.3087  0.3220 -0.0042
  465MOL0     H64119   0.562   4.233   6.047 -0.7972  0.8607  0.3440
  465MOL0     H64120   0.266   4.051   5.921  1.0791  0.9361  2.9073
  465MOL0     H64121   0.433   4.030   5.985  3.5444  1.7449 -0.8146
  465MOL0     H64122   0.433   4.059   5.699 -1.1444  1.8996  1.8870
  465MOL0     H64123   0.544   3.994   5.826 -0.5664  0.6132 -0.0711
  465MOL0     H64124   0.414   3.802   5.877  2.7408  0.0146 -0.9748
  465MOL0     H64125   0.273   3.862   5.789 -0.4739  0.8274 -0.4950
  465MOL0     H64126   0.368   3.809   5.586  0.9911  2.8387  0.2571
  465MOL0     H64127   0.532   3.818   5.657 -0.4663  0.9603 -0.3804
  465MOL0     H64128   0.333   3.587   5.918  1.4220 -0.2642 -1.5486
  465MOL0     H64129   0.047   3.520   6.050 -1.3533 -0.0321 -1.8170
  465MOL0     H64130   0.224   3.508   6.077 -0.6933  4.8706 -2.6581
  465MOL0     H64131   0.133   3.360   6.048 -1.7096  0.9768  2.4969
  465MOL0     H64132  -0.325   3.262   5.564 -1.6409  0.4440 -0.2310
  465MOL0     H64133  -0.529   3.175   5.626 -1.4154 -2.5994  2.5793
  465MOL0     H64134  -0.715   3.094   5.703 -2.2553 -0.4722 -0.4968
  465MOL0     H64135  -0.597   2.989   5.788  1.4409  0.0007  0.4995
  465MOL0     H64136  -0.804   2.893   5.831  1.5569 -0.0532 -0.6453
  465MOL0     H64137  -0.765   2.982   5.983 -0.0310 -0.6858 -0.1978
  465MOL0     H64138  -1.010   2.997   5.889 -0.4853 -0.3179 -1.0691
  465MOL0     H64139  -0.951   3.095   5.754 -2.2363  3.3944  1.0399
  465MOL0     H64140  -0.879   3.269   5.885  2.6033 -0.9540 -0.0595
  465MOL0     H64141  -0.860   3.183   6.028  0.6497  2.9545  0.3107
  465MOL0     H64142  -1.140   3.165   6.018 -0.7010  0.1173 -1.3143
  465MOL0     H64143  -1.035   3.286   6.098  1.8008  0.1238 -0.6861
  465MOL0     H64144  -1.137   3.295   5.801 -0.2846  0.6173 -0.9030
  465MOL0     H64145  -1.046   3.423   5.890  0.2235 -0.8289 -2.9363
  465MOL0     H64146  -1.225   3.475   6.032 -1.4371 -0.3646  0.5112
  465MOL0     H64147  -1.305   3.334   6.013  1.5255 -0.4212 -0.7269
  465MOL0     H64148  -1.353   3.384   5.768  4.1378 -0.6636 -0.9017
  465MOL0     H64149  -1.262   3.519   5.769  0.0214 -3.4795 -4.6051
  465MOL0     H64150  -0.492   3.319   6.024 -2.5767 -0.2010 -0.3095
  465MOL0     H64151  -0.285   3.428   5.962  2.6657  0.0859 -0.8746
  465MOL0     H64152   0.051   3.417   5.552 -3.0089  3.2029  0.9139
  465MOL0     H64153   0.267   3.562   5.502 -4.0880  1.4763 -0.9045
  465MOL0     H64154   0.564   5.168   6.248  2.4054 -0.8569 -1.2375
  465MOL0     H64155   0.408   5.360   6.224 -0.5943 -1.6292  3.0629
  465MOL0     H64156   0.512   5.832   6.157  0.2370 -2.1759 -3.9451
  465MOL0     H64157   0.420   6.076   6.148 -0.8129  0.6172  1.9473
  465MOL0     H64158  -0.026   6.132   6.067  0.8404 -1.4635  0.9462
  465MOL0     H64159   0.060   6.103   6.218 -2.5464 -0.6615 -0.0938
  465MOL0     H64160   0.096   6.367   6.069 -0.9212 -1.1205 -1.6270
  465MOL0     H64161   0.119   6.319   6.249 -0.9032  3.1683  0.9228
  465MOL0     H64162  -0.123   6.379   6.095  1.3999  0.5334 -1.2254
  465MOL0     H64163  -0.127   6.275   6.239  1.0131 -1.1152 -2.1000
  465MOL0     H64164  -0.050   6.577   6.213  0.7486  1.9794  2.8170
  465MOL0     H64165  -0.020   6.485   6.363  1.6289 -1.6998 -1.3416
  465MOL0     H64166  -0.434   6.549   6.371  0.1853 -1.6712  1.1510
  465MOL0     H64167   0.070   5.902   5.984  1.3384 -2.9530 -2.6667
  465MOL0     H64168   0.093   5.587   6.091  3.7930 -0.2873  0.2574
  465MOL0     H64169   0.013   5.708   5.999 -0.1457 -0.3524  0.2178
  465MOL0     H64170   0.130   5.593   5.920 -0.3881  2.4906 -1.7153
  466MOL0     O64171   6.038   3.187   5.269  0.0518 -0.1280  0.5206
  466MOL0     C64172   5.969   3.203   5.372  0.2396 -0.2305 -0.4690
  466MOL0     O64173   5.862   3.289   5.382  0.6380  0.5854 -0.0197
  466MOL0     C64174   5.844   3.388   5.293 -0.8728  1.3814 -0.2806
  466MOL0     C64175   5.755   3.365   5.191 -0.6383 -0.6875 -0.5917
  466MOL0     C64176   5.722   3.467   5.104 -0.0293  0.3773 -0.3113
  466MOL0     C64177   5.765   3.604   5.126 -0.5387  0.7864  0.0715
  466MOL0     O64178   5.744   3.714   5.052  0.1114  0.4353 -0.1056
  466MOL0     C64179   5.663   3.697   4.936 -0.4689 -1.1012 -0.3866
  466MOL0     C64180   5.755   3.643   4.824  0.3393 -1.1958 -0.1783
  466MOL0     C64181   5.692   3.626   4.684 -0.6775 -0.2324  0.1803
  466MOL0     C64182   5.571   3.543   4.678  0.6575  0.8692  0.2334
  466MOL0     C64183   5.531   3.518   4.537 -0.1361  0.7100 -0.0074
  466MOL0     C64184   5.393   3.460   4.546 -0.1436 -0.9682  0.9419
  466MOL0     C64185   5.358   3.399   4.405 -0.3639  0.0211  0.1884
  466MOL0     C64186   5.222   3.329   4.417  0.3538 -0.2532  1.0546
  466MOL0     N64187   5.234   3.208   4.497 -0.1099 -0.8764 -0.1980
  466MOL0     C64188   5.180   3.184   4.615 -0.9342 -0.2245 -0.5300
  466MOL0     C64189   5.221   3.059   4.651 -0.1642 -0.1845  0.9892
  466MOL0     C64190   5.216   2.994   4.783 -0.0270 -0.5117 -0.2753
  466MOL0     C64191   5.305   3.053   4.892 -0.2744 -0.4952 -0.9707
  466MOL0     C64192   5.457   3.070   4.874 -0.1870  0.4658  0.9954
  466MOL0     C64193   5.519   3.165   4.979 -0.5396 -0.8801 -0.1854
  466MOL0     O64194   5.524   3.114   5.115  0.1645  0.0672 -0.1778
  466MOL0     C64195   5.598   3.001   5.129  0.0928  0.2102  0.3827
  466MOL0     C64196   5.731   2.978   5.082  0.1839 -0.0389  0.7878
  466MOL0     C64197   5.800   2.864   5.119  0.5542  0.1987 -0.4410
  466MOL0     C64198   5.936   2.847   5.073 -1.2548 -0.3396  0.4235
  466MOL0     C64199   5.730   2.759   5.192  0.4238 -0.6054  0.2489
  466MOL0     C64200   5.795   2.621   5.218  0.4145  0.7359 -0.3055
  466MOL0     O64201   5.720   2.536   5.289 -0.5515  0.0505  0.6621
  466MOL0     C64202   5.738   2.400   5.291  0.6362  1.3815 -0.5198
  466MOL0     C64203   5.791   2.323   5.187  0.2278  0.2360  0.2211
  466MOL0     C64204   5.795   2.180   5.185  0.2904  0.1519 -0.0892
  466MOL0     C64205   5.738   2.112   5.302  0.8753 -0.7613  0.3383
  466MOL0     O64206   5.737   1.979   5.320  0.4135  0.5687  0.2333
  466MOL0     C64207   5.795   1.901   5.208 -0.9527 -1.0570 -0.7754
  466MOL0     C64208   5.727   1.762   5.207  0.1618  0.9495 -0.8850
  466MOL0     C64209   5.801   1.675   5.103  0.3634  0.0159  0.0221
  466MOL0     C64210   5.756   1.527   5.139  0.3942 -0.0553 -0.3138
  466MOL0     C64211   5.828   1.438   5.036 -0.1889  0.6739  0.2401
  466MOL0     C64212   5.779   1.293   5.058  0.4224 -0.4203  0.6828
  466MOL0     C64213   5.864   1.186   4.995  0.2742  0.2111  1.0140
  466MOL0     C64214   5.845   1.178   4.846  1.3282  0.6658  0.3580
  466MOL0    Cl64215   5.947   1.297   4.755 -0.6088  0.1492  0.2095
  466MOL0     C64216   5.673   2.195   5.404 -0.1363  1.1282 -0.4442
  466MOL0     C64217   5.680   2.334   5.397  1.0217 -0.1049 -0.5096
  466MOL0     O64218   5.896   2.584   5.151 -0.0286  0.1016 -0.4278
  466MOL0     C64219   5.609   2.785   5.234  0.2396 -0.3931 -0.7035
  466MOL0     C64220   5.533   2.903   5.207  0.1889 -0.4588 -0.2342
  466MOL0     N64221   5.292   3.004   4.543  0.6667 -0.5083 -0.3861
  466MOL0     N64222   5.300   3.097   4.458  0.4198  0.6897 -0.2990
  466MOL0     C64223   5.853   3.618   5.234 -0.5352 -0.3570  0.4083
  466MOL0     C64224   5.893   3.513   5.313  0.4153 -0.8654  0.4438
  466MOL0     C64225   5.992   3.108   5.484 -0.1332  0.1653  0.2630
  466MOL0     C64226   6.122   3.074   5.523  0.2167  0.6681 -0.0354
  466MOL0     C64227   6.134   2.984   5.626 -0.3321  0.4821 -0.1625
  466MOL0     C64228   6.030   2.927   5.703  0.6530 -0.0068  0.0820
  466MOL0     O64229   6.075   2.861   5.813  0.1430  0.2101 -0.6008
  466MOL0     C64230   5.983   2.796   5.898 -0.3276  0.1814 -0.1601
  466MOL0     C64231   6.066   2.706   5.992 -0.3981 -0.9781  0.3390
  466MOL0     C64232   6.133   2.798   6.101  0.3074 -0.9246 -0.1963
  466MOL0     C64233   6.210   2.713   6.205 -0.2030  0.2913 -0.1567
  466MOL0     C64234   6.316   2.638   6.140 -0.2295  0.0278 -0.0358
  466MOL0     C64235   6.389   2.583   6.063  0.6218  0.2974 -0.1087
  466MOL0     C64236   5.897   2.948   5.663 -0.0264  0.3332  0.1635
  466MOL0     C64237   5.883   3.028   5.541 -0.2914  0.0297  0.2788
  466MOL0     C64238   5.747   3.024   5.475 -0.6177  0.2070 -0.5043
  466MOL0     H64239   5.716   3.264   5.181 -4.5710  0.4800  0.9270
  466MOL0     H64240   5.663   3.455   5.014  0.7025 -1.0538 -0.6325
  466MOL0     H64241   5.630   3.798   4.913  1.8663 -0.3797 -0.8742
  466MOL0     H64242   5.578   3.628   4.942 -0.3965 -1.1218  0.4767
  466MOL0     H64243   5.838   3.714   4.821 -2.0436  1.9889  1.9155
  466MOL0     H64244   5.798   3.546   4.853  2.7307  0.5311  2.6743
  466MOL0     H64245   5.679   3.726   4.641  0.3269  1.2726  3.1486
  466MOL0     H64246   5.766   3.573   4.622  1.2794  0.7706  1.5533
  466MOL0     H64247   5.594   3.449   4.730  2.3098  0.5007 -1.0789
  466MOL0     H64248   5.492   3.600   4.728 -0.8301  1.4438 -2.5805
  466MOL0     H64249   5.593   3.445   4.484 -1.2268  1.4014 -2.4106
  466MOL0     H64250   5.522   3.609   4.476  0.2452  0.7438 -0.0163
  466MOL0     H64251   5.391   3.377   4.618  1.0417 -0.7571  1.2407
  466MOL0     H64252   5.321   3.534   4.584 -0.2400 -1.5725  1.9785
  466MOL0     H64253   5.444   3.340   4.372 -0.8032  0.0264 -1.0197
  466MOL0     H64254   5.350   3.474   4.325  1.7598 -0.4953 -0.5875
  466MOL0     H64255   5.152   3.399   4.464 -1.9297  0.5697 -3.0768
  466MOL0     H64256   5.184   3.298   4.319  2.4267 -0.0831  0.1536
  466MOL0     H64257   5.127   3.250   4.683 -0.7952 -1.7371  1.1231
  466MOL0     H64258   5.246   2.890   4.765  2.0074 -0.6606  3.0380
  466MOL0     H64259   5.114   2.991   4.822  0.4313  2.9343  1.5480
  466MOL0     H64260   5.266   3.154   4.909  0.4267 -0.6229  2.0953
  466MOL0     H64261   5.288   2.998   4.985 -4.3107 -2.9646 -2.9086
  466MOL0     H64262   5.510   2.975   4.890  0.5410  1.1003  2.5437
  466MOL0     H64263   5.465   3.120   4.777  0.1277  1.2135  1.4075
  466MOL0     H64264   5.623   3.190   4.957 -1.2071 -0.1792 -2.8914
  466MOL0     H64265   5.468   3.259   4.955 -1.3024 -1.8405 -2.6547
  466MOL0     H64266   5.788   3.043   5.017 -0.0146 -1.5496 -0.9914
  466MOL0     H64267   5.980   2.942   5.044  3.5700 -2.0309  1.2043
  466MOL0     H64268   5.937   2.778   4.987 -0.4646  0.2635 -0.0712
  466MOL0     H64269   6.010   2.805   5.142  2.2116 -0.2743 -2.8807
  466MOL0     H64270   5.832   2.360   5.093 -2.6904 -0.6108 -1.5193
  466MOL0     H64271   5.837   2.132   5.097 -1.8348  0.4257 -1.3544
  466MOL0     H64272   5.763   1.946   5.114  2.2578  0.0656 -1.4424
  466MOL0     H64273   5.903   1.906   5.219 -1.0310 -0.9639  0.0070
  466MOL0     H64274   5.744   1.715   5.305  0.6788  1.2517 -0.8221
  466MOL0     H64275   5.622   1.761   5.179  0.4261  1.6197 -1.9554
  466MOL0     H64276   5.909   1.691   5.098  0.2396  0.7437 -0.4131
  466MOL0     H64277   5.754   1.716   5.013  0.7057  0.4681  0.0437
  466MOL0     H64278   5.648   1.518   5.126  0.5700  0.4281 -2.5254
  466MOL0     H64279   5.774   1.494   5.242 -0.1265  3.8685  1.2128
  466MOL0     H64280   5.806   1.463   4.932  1.0153 -0.1218 -0.2208
  466MOL0     H64281   5.935   1.434   5.058 -0.3771  0.6236  1.1823
  466MOL0     H64282   5.680   1.280   5.012 -0.0433 -0.5581  1.7104
  466MOL0     H64283   5.766   1.266   5.163 -0.4276  0.4817  0.8265
  466MOL0     H64284   5.849   1.094   5.053  0.2567 -0.8182 -0.5553
  466MOL0     H64285   5.965   1.217   5.024 -0.9156  2.9207  2.5752
  466MOL0     H64286   5.742   1.205   4.821  1.4345 -0.8405 -1.8902
  466MOL0     H64287   5.860   1.070   4.835  2.4239  0.3665  3.6559
  466MOL0     H64288   5.607   2.152   5.479 -1.5162  1.0005 -1.6862
  466MOL0     H64289   5.622   2.383   5.474 -1.8632 -1.3660 -1.7317
  466MOL0     H64290   5.562   2.717   5.305 -1.4821 -0.6491 -2.0265
  466MOL0     H64291   5.439   2.928   5.255 -0.5027  0.6406 -2.0748
  466MOL0     H64292   5.880   3.716   5.273 -0.7945  0.1143 -0.5694
  466MOL0     H64293   5.965   3.547   5.388 -0.6767  1.2918  0.5839
  466MOL0     H64294   6.214   3.112   5.480  0.0602 -0.9547 -1.9350
  466MOL0     H64295   6.231   2.977   5.675 -0.9184 -0.3861  0.8952
  466MOL0     H64296   5.907   2.860   5.944  1.6796  0.5819  2.8594
  466MOL0     H64297   5.920   2.745   5.824 -1.3673  1.3889 -0.1373
  466MOL0     H64298   6.133   2.646   5.930 -1.1494 -0.9360 -0.5307
  466MOL0     H64299   6.005   2.638   6.052  1.5687 -1.9325  1.3560
  466MOL0     H64300   6.200   2.865   6.047 -1.5603 -0.9652 -2.7751
  466MOL0     H64301   6.058   2.858   6.153  1.0187  0.0483 -0.2571
  466MOL0     H64302   6.148   2.632   6.244  3.0104 -2.2454  0.0971
  466MOL0     H64303   6.251   2.774   6.286  0.2761  2.2420 -1.7691
  466MOL0     H64304   6.427   2.519   5.986 -1.9535 -3.1597  1.2068
  466MOL0     H64305   5.805   2.904   5.700 -0.1955 -0.5543 -1.2200
  466MOL0     H64306   5.677   2.957   5.527  2.5971 -4.6983 -1.8526
  466MOL0     H64307   5.693   3.119   5.469 -0.2154  0.5269  0.7047
  466MOL0     H64308   5.758   2.989   5.372 -0.3996  1.8606 -1.0780
  467MOL0     O64309   9.939   5.726   5.927 -0.2915 -0.2752  0.0465
  467MOL0     C64310  10.009   5.663   6.009 -0.3615 -0.5139 -0.1656
  467MOL0     O64311  10.123   5.716   6.059 -0.2654  0.5319 -0.1718
  467MOL0     C64312  10.202   5.815   6.000 -0.1465 -1.0752  1.4290
  467MOL0     C64313  10.217   5.925   6.081  0.1868 -0.1686  0.1493
  467MOL0     C64314  10.291   6.031   6.033 -0.2833  0.4463  0.3038
  467MOL0     C64315  10.363   6.024   5.914 -0.8057  0.0520 -0.2084
  467MOL0     O64316  10.452   6.123   5.873  0.3180 -0.3354  0.4326
  467MOL0     C64317  10.416   6.189   5.749  0.7916  1.4597  0.9272
  467MOL0     C64318  10.537   6.238   5.678  0.3799  0.1999 -0.4015
  467MOL0     C64319  10.628   6.119   5.648 -0.0502  0.7974  0.0040
  467MOL0     C64320  10.760   6.179   5.633 -0.5239 -0.5170  1.3784
  467MOL0     C64321  10.871   6.082   5.593  0.4339 -0.4973  0.3204
  467MOL0     C64322  10.925   6.008   5.717  0.2412  0.2858  0.4259
  467MOL0     C64323  11.041   5.910   5.692  0.0614  0.4631 -0.1849
  467MOL0     C64324  11.071   5.830   5.819  0.1421  0.0400 -0.1845
  467MOL0     N64325  11.136   5.911   5.922 -0.2348 -0.2033  0.4468
  467MOL0     C64326  11.085   5.936   6.045 -0.0309 -0.4999  1.1770
  467MOL0     C64327  11.188   5.988   6.116  0.0773  0.7731 -0.0454
  467MOL0     C64328  11.187   6.000   6.264 -0.0514 -0.4795 -0.0127
  467MOL0     C64329  11.168   5.855   6.327 -0.2643 -0.7572  0.2479
  467MOL0     C64330  11.288   5.768   6.309  0.0956  0.0976  0.0751
  467MOL0     C64331  11.295   5.624   6.370  0.9728 -0.7137 -0.1861
  467MOL0     O64332  11.411   5.559   6.331 -0.2692  0.3668 -0.0210
  467MOL0     C64333  11.482   5.479   6.416  0.5502 -0.7331 -0.2660
  467MOL0     C64334  11.438   5.422   6.535 -0.3255  0.7177 -0.1530
  467MOL0     C64335  11.528   5.361   6.615  0.6396 -0.7127  0.2101
  467MOL0     C64336  11.491   5.332   6.761 -0.7145  0.4636  0.1969
  467MOL0     C64337  11.651   5.323   6.558 -0.8276  0.3145  1.1382
  467MOL0     C64338  11.754   5.248   6.638  0.0848  0.1881  0.2851
  467MOL0     O64339  11.880   5.293   6.618 -0.0197  0.4232  0.2714
  467MOL0     C64340  11.999   5.234   6.656  0.4435  0.1274 -0.0207
  467MOL0     C64341  12.119   5.311   6.647  0.7078  0.3198 -0.1952
  467MOL0     C64342  12.238   5.262   6.703 -0.2180  0.5106  0.3112
  467MOL0     C64343  12.242   5.128   6.757 -0.1381 -1.1948  1.3592
  467MOL0     O64344  12.353   5.088   6.813 -0.2837  0.3802  1.1837
  467MOL0     C64345  12.342   4.975   6.895 -0.1032  0.5152  0.1380
  467MOL0     C64346  12.439   4.975   7.011  0.3489  0.4768  0.4332
  467MOL0     C64347  12.462   4.829   7.060  0.3996 -0.3255  0.3206
  467MOL0     C64348  12.368   4.798   7.174  0.1588 -0.5349 -0.4640
  467MOL0     C64349  12.348   4.647   7.186 -0.1336 -0.7494  0.6039
  467MOL0     C64350  12.478   4.564   7.216 -0.2655 -0.0656 -0.1208
  467MOL0     C64351  12.441   4.417   7.218  0.5113  1.1871 -0.0886
  467MOL0     C64352  12.540   4.329   7.301  0.1294  0.1730  1.0518
  467MOL0    Cl64353  12.492   4.164   7.307  0.4487  0.1378 -0.2292
  467MOL0     C64354  12.128   5.043   6.737  0.4764 -0.5422  0.6224
  467MOL0     C64355  12.009   5.096   6.691 -0.3822 -0.5955  0.6304
  467MOL0     O64356  11.714   5.161   6.718  0.4240  0.2634  0.6844
  467MOL0     C64357  11.701   5.383   6.436  0.0466 -0.4969  0.0955
  467MOL0     C64358  11.619   5.471   6.371  0.8947 -0.1433  0.1704
  467MOL0     N64359  11.299   6.008   6.038  0.3299  1.2542 -0.3505
  467MOL0     N64360  11.273   5.950   5.920  0.1881 -0.0965 -0.1102
  467MOL0     C64361  10.347   5.906   5.836 -0.1433  0.0978 -0.0285
  467MOL0     C64362  10.269   5.798   5.878  0.1748 -0.2991 -0.1541
  467MOL0     C64363   9.961   5.531   6.062 -0.1449  0.0763  0.5972
  467MOL0     C64364  10.060   5.459   6.122 -0.3114  0.2188  0.7019
  467MOL0     C64365  10.035   5.330   6.173 -0.3234 -0.2203 -0.0779
  467MOL0     C64366   9.915   5.272   6.153  0.4346 -0.5504  0.4527
  467MOL0     O64367   9.894   5.143   6.201  0.3036 -0.0414  0.2303
  467MOL0     C64368   9.802   5.049   6.133  0.0713 -0.1051 -0.2053
  467MOL0     C64369   9.739   4.963   6.237  0.0439 -0.1513  0.4040
  467MOL0     C64370   9.658   4.845   6.184 -0.5875  0.0335  0.6496
  467MOL0     C64371   9.548   4.882   6.083 -0.2705  0.4746 -0.4338
  467MOL0     C64372   9.438   4.963   6.141  0.6524 -0.6915 -0.0393
  467MOL0     C64373   9.357   5.027   6.193 -0.0080  0.5425 -0.0303
  467MOL0     C64374   9.814   5.349   6.093 -0.6482 -0.7231  0.4422
  467MOL0     C64375   9.834   5.480   6.047  0.2476  0.2455 -0.0239
  467MOL0     C64376   9.716   5.555   5.991 -0.4545 -0.2258 -0.1040
  467MOL0     H64377  10.173   5.918   6.180  1.2877 -4.2106  0.5487
  467MOL0     H64378  10.312   6.116   6.097  0.3612  2.1069 -1.9832
  467MOL0     H64379  10.349   6.273   5.773  0.8096  2.0868 -1.0735
  467MOL0     H64380  10.369   6.118   5.681  0.3706  2.5508  0.0470
  467MOL0     H64381  10.515   6.312   5.601  1.8636 -0.7663 -1.8274
  467MOL0     H64382  10.592   6.293   5.756  1.8219 -3.8733  1.7658
  467MOL0     H64383  10.629   6.042   5.725  0.7197  0.9629  0.1670
  467MOL0     H64384  10.592   6.077   5.553  0.2355  2.4261 -0.8593
  467MOL0     H64385  10.750   6.240   5.542 -0.2894 -1.3651  0.7683
  467MOL0     H64386  10.789   6.242   5.718  0.6529 -0.2437  0.8062
  467MOL0     H64387  10.957   6.143   5.560 -0.2467  0.8429  0.9265
  467MOL0     H64388  10.829   6.010   5.522 -2.5035  1.7614 -0.4786
  467MOL0     H64389  10.955   6.091   5.781 -1.5700  1.9494 -0.7735
  467MOL0     H64390  10.844   5.950   5.763  0.0188 -2.5268 -3.0735
  467MOL0     H64391  11.134   5.965   5.673  0.7364 -0.3052  0.7611
  467MOL0     H64392  11.008   5.852   5.605 -0.9876  2.5873 -1.2700
  467MOL0     H64393  10.976   5.787   5.852  1.7936 -3.1031  0.9403
  467MOL0     H64394  11.146   5.755   5.792  1.2905  0.4338  1.7167
  467MOL0     H64395  10.983   5.908   6.071 -1.8613  0.0403 -4.2000
  467MOL0     H64396  11.102   6.063   6.294 -0.3825 -1.4222  1.1055
  467MOL0     H64397  11.279   6.051   6.294  0.9881 -2.2611 -0.0162
  467MOL0     H64398  11.134   5.860   6.431 -1.4636 -2.8611  0.0269
  467MOL0     H64399  11.094   5.800   6.267  3.0848 -1.9769 -3.1698
  467MOL0     H64400  11.303   5.757   6.202 -1.7496  2.0460 -0.4625
  467MOL0     H64401  11.375   5.825   6.344  1.1315 -0.1793 -1.9264
  467MOL0     H64402  11.311   5.635   6.478 -0.6618 -3.4758  0.4105
  467MOL0     H64403  11.204   5.567   6.353  0.7884 -0.2138 -0.8998
  467MOL0     H64404  11.341   5.452   6.574  0.4196  3.3863 -0.1053
  467MOL0     H64405  11.404   5.388   6.797 -3.6008 -3.6306  0.3382
  467MOL0     H64406  11.576   5.340   6.830 -0.8457  2.6316  0.1627
  467MOL0     H64407  11.461   5.226   6.767 -2.2375  0.9072  1.1616
  467MOL0     H64408  12.125   5.409   6.601  4.0748  1.9786  3.1976
  467MOL0     H64409  12.327   5.323   6.693 -0.6267  1.1286  0.4114
  467MOL0     H64410  12.241   4.964   6.936  0.1843  0.6393  0.8969
  467MOL0     H64411  12.364   4.891   6.828  0.8275  0.8903 -0.0379
  467MOL0     H64412  12.530   5.006   6.959  0.6948 -1.2547 -0.0710
  467MOL0     H64413  12.418   5.052   7.085  1.3081  1.4877 -0.3237
  467MOL0     H64414  12.568   4.834   7.090  0.8924  1.3742 -1.4973
  467MOL0     H64415  12.443   4.754   6.983 -1.7260 -0.1298  0.5943
  467MOL0     H64416  12.268   4.837   7.154 -1.0187 -1.8315  2.3228
  467MOL0     H64417  12.400   4.844   7.268 -5.1599  2.1968  0.3568
  467MOL0     H64418  12.275   4.627   7.266 -0.2747  1.9600  1.2611
  467MOL0     H64419  12.293   4.614   7.098 -1.7852  2.0306  0.4694
  467MOL0     H64420  12.495   4.595   7.320 -2.0784 -0.5458  0.3531
  467MOL0     H64421  12.559   4.588   7.147 -0.7143  4.3964  0.6149
  467MOL0     H64422  12.428   4.383   7.115 -0.5876 -0.4739  0.5655
  467MOL0     H64423  12.347   4.409   7.273  0.6613 -1.5583 -0.1151
  467MOL0     H64424  12.548   4.371   7.401  0.5271  0.2904  0.9753
  467MOL0     H64425  12.637   4.333   7.249  0.9071 -2.2291  2.1848
  467MOL0     H64426  12.138   4.936   6.753 -0.9857 -1.1854 -2.2175
  467MOL0     H64427  11.925   5.028   6.683 -0.1274 -0.8155 -0.2167
  467MOL0     H64428  11.799   5.359   6.396 -0.8427  1.4697 -3.7273
  467MOL0     H64429  11.663   5.531   6.292  1.5030 -0.9950 -0.1461
  467MOL0     H64430  10.402   5.899   5.744  1.7768  2.6142  0.8314
  467MOL0     H64431  10.280   5.706   5.821  1.4328 -0.5834  0.5215
  467MOL0     H64432  10.165   5.481   6.134  0.7455 -4.3683  1.7606
  467MOL0     H64433  10.133   5.297   6.206  0.3854 -0.1242 -1.9727
  467MOL0     H64434   9.728   5.099   6.071 -0.1558  2.0383  1.6593
  467MOL0     H64435   9.864   4.980   6.074  2.8026  0.8734  1.3068
  467MOL0     H64436   9.676   5.019   6.307  0.3845 -0.7355  1.2073
  467MOL0     H64437   9.809   4.903   6.295  0.7872  1.8921  1.7208
  467MOL0     H64438   9.726   4.771   6.140  1.2928 -0.6110  4.2539
  467MOL0     H64439   9.609   4.790   6.265 -3.2920 -0.7119 -1.3624
  467MOL0     H64440   9.518   4.781   6.053  2.2152 -0.3695 -0.3235
  467MOL0     H64441   9.577   4.925   5.987 -2.9761 -0.0657 -1.5969
  467MOL0     H64442   9.292   5.103   6.233 -0.7116  0.7213 -1.4440
  467MOL0     H64443   9.712   5.316   6.076 -0.3404 -1.1549 -0.6030
  467MOL0     H64444   9.710   5.558   5.882 -2.1890 -1.8029 -0.0999
  467MOL0     H64445   9.631   5.504   6.036 -0.2777 -0.7264 -0.3273
  467MOL0     H64446   9.717   5.657   6.029  1.6399 -0.2394  0.0283
  468MOL0     O64447   8.427   9.786   1.607 -0.0572  0.4229 -0.4747
  468MOL0     C64448   8.409   9.886   1.533  0.4080  0.2943 -0.2680
  468MOL0     O64449   8.459  10.010   1.561 -0.1765 -0.4791  0.1818
  468MOL0     C64450   8.515  10.023   1.685 -0.2809 -0.6329 -0.6192
  468MOL0     C64451   8.454  10.037   1.808 -0.2262 -0.4475  0.0602
  468MOL0     C64452   8.527  10.048   1.926  0.4943 -0.0327  0.8840
  468MOL0     C64453   8.663  10.038   1.927 -0.2819 -0.5214 -0.1027
  468MOL0     O64454   8.751  10.066   2.033  0.0327  0.3071  0.6305
  468MOL0     C64455   8.703  10.043   2.164  0.9180 -0.2247 -0.2841
  468MOL0     C64456   8.641  10.165   2.235 -0.4850  0.8351 -0.0504
  468MOL0     C64457   8.623  10.146   2.384  0.5247  1.0755 -0.2438
  468MOL0     C64458   8.483  10.069   2.406 -0.3010  0.5079 -0.0835
  468MOL0     C64459   8.427  10.067   2.550  0.1287  0.4408 -0.3865
  468MOL0     C64460   8.534  10.050   2.668 -0.4806  0.6031  0.2249
  468MOL0     C64461   8.473  10.082   2.802  0.1324 -0.0031  0.3823
  468MOL0     C64462   8.367   9.980   2.851 -0.0370 -0.0851  0.2916
  468MOL0     N64463   8.365   9.840   2.803 -0.1056  0.0514  0.9937
  468MOL0     C64464   8.283   9.779   2.710  0.1259 -0.0251  0.7558
  468MOL0     C64465   8.302   9.654   2.738  0.2829  0.4607 -0.4074
  468MOL0     C64466   8.231   9.539   2.675  0.2665  0.1137 -0.4963
  468MOL0     C64467   8.110   9.569   2.578 -0.3609  0.4090  0.4180
  468MOL0     C64468   7.984   9.646   2.635  0.0057 -0.1314 -1.1213
  468MOL0     C64469   7.899   9.739   2.546 -0.1409 -0.5222 -0.0308
  468MOL0     O64470   7.990   9.839   2.502 -0.2998 -0.6701  0.3877
  468MOL0     C64471   7.985   9.877   2.376  0.5017 -0.6759  0.3075
  468MOL0     C64472   7.863   9.903   2.310  0.1254  0.7139  0.0923
  468MOL0     C64473   7.862   9.957   2.182  0.6959  0.5450 -0.5932
  468MOL0     C64474   7.720   9.983   2.122 -0.1949  0.2726 -0.4546
  468MOL0     C64475   7.976  10.001   2.120  0.9125 -0.9368  0.3799
  468MOL0     C64476   7.991  10.042   1.976  0.2189  0.0318 -0.2544
  468MOL0     O64477   7.885  10.014   1.893  0.0583 -0.8016  0.4082
  468MOL0     C64478   7.897  10.040   1.762  0.3843  0.2535  0.4255
  468MOL0     C64479   7.806  10.135   1.708 -0.6768 -0.7221 -0.6902
  468MOL0     C64480   7.805  10.154   1.572 -0.0880 -0.3037  0.5541
  468MOL0     C64481   7.909  10.108   1.483  0.5965 -1.2874  0.8180
  468MOL0     O64482   7.894  10.144   1.356  0.5884  0.5435  0.4351
  468MOL0     C64483   8.017  10.154   1.278 -0.0884 -0.1124  0.7814
  468MOL0     C64484   7.995  10.258   1.167  0.6207  0.6175 -0.3422
  468MOL0     C64485   8.123  10.269   1.083 -0.6508  0.3725 -1.0713
  468MOL0     C64486   8.133  10.347   0.948 -0.4076 -1.2566  1.0748
  468MOL0     C64487   8.077  10.493   0.963 -0.1336  0.2329  0.5586
  468MOL0     C64488   8.066  10.566   0.827  0.0521  0.9016 -0.0060
  468MOL0     C64489   7.930  10.540   0.766 -0.7135 -0.4859 -0.7901
  468MOL0     C64490   7.913  10.607   0.624  1.6479  0.6143  0.5999
  468MOL0    Cl64491   7.747  10.573   0.570 -0.1063  0.0614 -0.2239
  468MOL0     C64492   8.002  10.035   1.542 -0.4698 -0.0446 -0.8414
  468MOL0     C64493   7.997   9.995   1.678 -0.4570  0.5267  0.4115
  468MOL0     O64494   8.101  10.088   1.944 -0.4977  0.1591 -0.6779
  468MOL0     C64495   8.095  10.001   2.201  0.7500 -0.1197 -0.2158
  468MOL0     C64496   8.101   9.927   2.323 -0.5533  0.3125 -0.6514
  468MOL0     N64497   8.401   9.632   2.834  0.1692  0.0207  0.0376
  468MOL0     N64498   8.428   9.754   2.881  0.4005 -0.5797  0.2661
  468MOL0     C64499   8.730  10.021   1.807  0.1856  0.0240 -0.4732
  468MOL0     C64500   8.656  10.010   1.686  0.9223  0.5673  0.3699
  468MOL0     C64501   8.338   9.851   1.406 -0.2197 -0.0881 -0.3707
  468MOL0     C64502   8.241   9.744   1.411  0.3406 -0.4079  0.0873
  468MOL0     C64503   8.170   9.708   1.299 -1.7522  0.9443  0.3132
  468MOL0     C64504   8.190   9.763   1.179 -0.1367 -0.5606  0.4155
  468MOL0     O64505   8.120   9.715   1.070 -0.5184  0.7053 -0.2044
  468MOL0     C64506   8.183   9.743   0.941 -0.3458 -0.2566 -0.4108
  468MOL0     C64507   8.133   9.644   0.837  0.1605 -0.0431  0.6602
  468MOL0     C64508   8.201   9.663   0.696 -0.4010  0.3904  0.2115
  468MOL0     C64509   8.340   9.595   0.675  0.3419 -0.0518 -0.7971
  468MOL0     C64510   8.340   9.455   0.709 -0.1928  0.0971 -0.1413
  468MOL0     C64511   8.341   9.333   0.738 -0.3765 -0.2731 -0.2955
  468MOL0     C64512   8.292   9.864   1.178 -0.3569  1.2164  0.3571
  468MOL0     C64513   8.365   9.914   1.281  1.0235  0.0758  0.1214
  468MOL0     C64514   8.473  10.024   1.246 -0.1152  0.5046 -1.3523
  468MOL0     H64515   8.347  10.053   1.812  0.0552  1.6432  0.2175
  468MOL0     H64516   8.471  10.072   2.016  2.0216  1.9107  1.3857
  468MOL0     H64517   8.784   9.994   2.219  1.6229 -0.6225 -1.6189
  468MOL0     H64518   8.626   9.964   2.166  0.7240 -0.0952 -1.6287
  468MOL0     H64519   8.709  10.247   2.212  1.2940  0.5454  3.4689
  468MOL0     H64520   8.548  10.195   2.186 -0.7159 -0.6691 -0.5942
  468MOL0     H64521   8.706  10.083   2.419  0.1734  1.8816  2.1862
  468MOL0     H64522   8.617  10.234   2.448 -1.6707 -1.3028  3.1369
  468MOL0     H64523   8.411  10.111   2.336 -0.2170 -1.3655 -1.3875
  468MOL0     H64524   8.502   9.964   2.380  0.3136  0.0358  2.0787
  468MOL0     H64525   8.347   9.992   2.555 -0.0481  0.5078 -1.8676
  468MOL0     H64526   8.390  10.168   2.570  0.9386  0.1315  3.6214
  468MOL0     H64527   8.565   9.946   2.684  1.4300  1.1187  0.1153
  468MOL0     H64528   8.621  10.116   2.660 -0.6362  0.8079  0.2078
  468MOL0     H64529   8.434  10.184   2.794  0.2872 -0.0560 -1.6801
  468MOL0     H64530   8.546  10.096   2.882 -1.2447 -1.3591  1.9624
  468MOL0     H64531   8.376   9.985   2.960  2.5220 -1.0719  0.1952
  468MOL0     H64532   8.268  10.018   2.824  0.5520  0.2812 -1.4481
  468MOL0     H64533   8.198   9.813   2.652 -1.8898 -2.1828  2.2617
  468MOL0     H64534   8.195   9.493   2.768  1.3391 -0.4638 -0.3420
  468MOL0     H64535   8.302   9.475   2.622  0.3573 -0.4444  0.2750
  468MOL0     H64536   8.148   9.605   2.482 -0.1778 -2.3913 -0.6220
  468MOL0     H64537   8.079   9.467   2.555 -4.1485  1.3120  0.8474
  468MOL0     H64538   7.919   9.564   2.666  0.8076 -1.2342 -2.2603
  468MOL0     H64539   8.028   9.695   2.722 -0.5206 -1.4400 -0.0792
  468MOL0     H64540   7.847   9.684   2.467 -2.2295  0.2946  0.7020
  468MOL0     H64541   7.820   9.789   2.603 -0.7705 -1.1055 -0.3748
  468MOL0     H64542   7.765   9.877   2.349 -0.0738  1.7616  0.3355
  468MOL0     H64543   7.715  10.076   2.065 -0.7271 -1.4602 -3.4394
  468MOL0     H64544   7.642   9.970   2.198 -1.1522  1.2545 -1.2434
  468MOL0     H64545   7.692   9.904   2.051  0.9466  0.0552 -0.6881
  468MOL0     H64546   7.733  10.174   1.778  0.0875 -1.5940  0.6354
  468MOL0     H64547   7.720  10.210   1.532  1.3495  1.4142 -0.2587
  468MOL0     H64548   8.109  10.190   1.324 -0.0080  4.3186 -2.2876
  468MOL0     H64549   8.043  10.057   1.234  1.8949  0.5862  0.2829
  468MOL0     H64550   7.916  10.219   1.103 -0.2844  1.2249  0.3870
  468MOL0     H64551   7.962  10.348   1.218 -2.4327 -0.0627 -0.9154
  468MOL0     H64552   8.141  10.168   1.046  1.8697  1.0010 -1.7282
  468MOL0     H64553   8.206  10.298   1.148 -1.5573 -1.6089  1.1151
  468MOL0     H64554   8.073  10.290   0.876 -0.4428  0.2334 -0.1349
  468MOL0     H64555   8.228  10.366   0.897 -0.1518  2.2499  2.5706
  468MOL0     H64556   7.978  10.499   1.010  0.1678  3.0750  0.9882
  468MOL0     H64557   8.158  10.533   1.026  2.1134 -1.6851 -0.9590
  468MOL0     H64558   8.140  10.528   0.756 -1.7610 -0.5875 -1.2005
  468MOL0     H64559   8.078  10.673   0.846  0.6239  0.9728 -0.7219
  468MOL0     H64560   7.857  10.592   0.830 -0.6052  1.2759 -2.0075
  468MOL0     H64561   7.907  10.434   0.760 -0.6503 -0.5812  0.5114
  468MOL0     H64562   7.984  10.559   0.556 -0.0799 -1.2497 -0.0045
  468MOL0     H64563   7.922  10.716   0.626 -2.0369  1.0350 -0.1349
  468MOL0     H64564   8.086  10.001   1.482  1.3640  1.5130  0.7319
  468MOL0     H64565   8.074   9.932   1.722  1.1687  1.1378 -1.3874
  468MOL0     H64566   8.188  10.045   2.165  2.0141 -0.3885  2.5237
  468MOL0     H64567   8.186   9.922   2.389 -2.9606  0.0201  2.6451
  468MOL0     H64568   8.839  10.026   1.801  0.1225  0.2621 -1.7214
  468MOL0     H64569   8.711  10.002   1.593  1.3493 -3.9723  0.7849
  468MOL0     H64570   8.217   9.692   1.504 -1.0250  0.8429  0.4718
  468MOL0     H64571   8.113   9.616   1.298  1.3012 -1.1109 -0.2424
  468MOL0     H64572   8.159   9.838   0.894  1.4650 -0.2747 -1.4392
  468MOL0     H64573   8.291   9.752   0.953 -0.5229 -1.3237  3.4392
  468MOL0     H64574   8.026   9.658   0.820  0.2761 -1.3066 -1.4840
  468MOL0     H64575   8.154   9.540   0.865  0.0652 -0.4638 -0.7394
  468MOL0     H64576   8.136   9.638   0.612  1.1605  0.3344 -1.0216
  468MOL0     H64577   8.209   9.769   0.670 -1.5413  0.6125  0.6881
  468MOL0     H64578   8.424   9.643   0.727  1.8048 -0.7341 -2.4079
  468MOL0     H64579   8.355   9.603   0.567 -2.9231  1.2740 -1.2641
  468MOL0     H64580   8.355   9.228   0.754  2.2293 -0.2520 -1.8308
  468MOL0     H64581   8.317   9.911   1.083 -0.4892 -1.0892 -0.9032
  468MOL0     H64582   8.521  10.055   1.340 -1.9041  0.6609 -0.4514
  468MOL0     H64583   8.544   9.988   1.172  1.5549  2.2423 -0.6902
  468MOL0     H64584   8.428  10.114   1.204 -2.5398 -0.1496 -0.3047
  469MOL0     O64585   9.231  10.189  11.127  0.1255 -0.0549  0.1251
  469MOL0     C64586   9.328  10.261  11.150  0.2528 -0.1902  0.0161
  469MOL0     O64587   9.423  10.292  11.060 -0.0257 -0.1244 -0.0721
  469MOL0     C64588   9.423  10.230  10.934  0.8404 -0.4401  0.4340
  469MOL0     C64589   9.417  10.090  10.913  0.3692 -0.3122 -0.7983
  469MOL0     C64590   9.419  10.036  10.791  0.1244  0.8310 -0.2678
  469MOL0     C64591   9.437  10.110  10.675 -0.6300 -0.7495  0.0503
  469MOL0     O64592   9.459  10.080  10.544  0.4644  0.4880 -0.2296
  469MOL0     C64593   9.443   9.935  10.511 -0.6780 -0.4931  0.1127
  469MOL0     C64594   9.428   9.910  10.360 -0.4951  0.2620 -0.4925
  469MOL0     C64595   9.377   9.766  10.322  0.3433 -1.3357 -0.0487
  469MOL0     C64596   9.355   9.756  10.170  0.4740 -0.3953 -0.1234
  469MOL0     C64597   9.277   9.631  10.141  0.3244 -0.1136  0.2362
  469MOL0     C64598   9.195   9.639  10.006  0.7660 -0.0466  0.3548
  469MOL0     C64599   9.072   9.742  10.017 -1.5520  0.5219 -0.3733
  469MOL0     C64600   8.925   9.700  10.037 -0.7953  0.4178  0.0640
  469MOL0     N64601   8.841   9.790   9.959 -0.6018  0.7837  0.5890
  469MOL0     C64602   8.802   9.922   9.984 -0.1699 -0.1923  0.0467
  469MOL0     C64603   8.716   9.960   9.884 -0.6244  1.0666 -0.2660
  469MOL0     C64604   8.664  10.102   9.876 -0.3146  0.8001  0.2606
  469MOL0     C64605   8.569  10.099   9.754  0.4162  0.0854  0.5022
  469MOL0     C64606   8.478  10.227   9.758 -0.2979 -0.2028  0.2336
  469MOL0     C64607   8.385  10.227   9.636  0.2135  0.0163  0.1019
  469MOL0     O64608   8.295  10.334   9.649 -0.1503 -0.3752 -0.2033
  469MOL0     C64609   8.180  10.322   9.573 -1.0075  0.9679  0.2461
  469MOL0     C64610   8.164  10.250   9.458 -0.6482  0.3288 -0.2903
  469MOL0     C64611   8.044  10.261   9.380 -0.2900 -0.0077 -0.0378
  469MOL0     C64612   8.032  10.185   9.247 -0.7846 -0.0937  0.0099
  469MOL0     C64613   7.942  10.351   9.420 -0.3061 -0.7043 -0.4445
  469MOL0     C64614   7.818  10.359   9.347 -0.5636 -0.6997 -0.3476
  469MOL0     O64615   7.749  10.479   9.354 -0.2711  0.4087 -0.0441
  469MOL0     C64616   7.648  10.485   9.268  0.8385 -0.4872 -0.5773
  469MOL0     C64617   7.517  10.468   9.304 -0.0974 -0.1952  0.3097
  469MOL0     C64618   7.415  10.474   9.208  1.1205  0.2050  0.4294
  469MOL0     C64619   7.452  10.499   9.074  0.8210 -0.1267 -0.7389
  469MOL0     O64620   7.347  10.508   8.985 -0.0705 -0.6747  0.0161
  469MOL0     C64621   7.379  10.520   8.838  0.6495 -0.2859  0.1542
  469MOL0     C64622   7.387  10.380   8.776  0.0999 -0.0660 -0.3614
  469MOL0     C64623   7.408  10.394   8.622 -0.8719  0.6695 -0.1989
  469MOL0     C64624   7.389  10.256   8.571  0.5822 -0.5723  0.4166
  469MOL0     C64625   7.426  10.250   8.418 -0.2249  0.5366  0.6005
  469MOL0     C64626   7.311  10.291   8.330 -0.9304  1.0217  1.0629
  469MOL0     C64627   7.308  10.238   8.185  0.2966  0.1970 -0.3447
  469MOL0     C64628   7.204  10.305   8.103 -0.0782  0.1439 -0.6934
  469MOL0    Cl64629   7.261  10.471   8.078 -0.0132 -0.0060 -0.5703
  469MOL0     C64630   7.585  10.519   9.039  0.3515 -0.5210  0.2710
  469MOL0     C64631   7.685  10.517   9.136  0.0161 -0.3006 -0.3147
  469MOL0     O64632   7.772  10.266   9.287  0.5197  0.4492 -0.5309
  469MOL0     C64633   7.957  10.413   9.543 -0.1812  1.3117  0.5045
  469MOL0     C64634   8.077  10.396   9.621 -0.1718 -0.3240 -0.3739
  469MOL0     N64635   8.710   9.851   9.795 -0.0026  0.6779  0.4505
  469MOL0     N64636   8.780   9.752   9.835  0.0299  0.1206 -0.2858
  469MOL0     C64637   9.437  10.253  10.696  0.5731  0.0901  0.2063
  469MOL0     C64638   9.436  10.315  10.823  0.0655 -0.2491 -0.7782
  469MOL0     C64639   9.343  10.311  11.291  0.1365  0.9627  0.5327
  469MOL0     C64640   9.456  10.389  11.312  0.9647 -0.3116 -0.2771
  469MOL0     C64641   9.465  10.450  11.432 -0.2486  0.3178 -0.0795
  469MOL0     C64642   9.394  10.417  11.538  0.1239 -0.2040 -0.8549
  469MOL0     O64643   9.407  10.477  11.662  0.3183 -0.0365  0.3844
  469MOL0     C64644   9.513  10.571  11.680  0.0789  0.2303 -0.2910
  469MOL0     C64645   9.531  10.616  11.828 -1.0421  0.1691  0.1972
  469MOL0     C64646   9.597  10.756  11.825 -0.3920 -0.9512  0.3197
  469MOL0     C64647   9.644  10.808  11.967  0.4207  0.1631 -0.2048
  469MOL0     C64648   9.780  10.770  12.009  0.1240  1.2438  0.1508
  469MOL0     C64649   9.896  10.730  12.028 -0.8320 -0.8938 -0.8216
  469MOL0     C64650   9.283  10.330  11.524  0.5937  0.0344 -0.0601
  469MOL0     C64651   9.253  10.279  11.397 -0.5316  0.8424 -0.7877
  469MOL0     C64652   9.132  10.200  11.382 -0.4959  0.3306 -0.0719
  469MOL0     H64653   9.400  10.033  11.004  1.4851  2.9055  1.6358
  469MOL0     H64654   9.388   9.933  10.777 -1.9669  1.2101  1.1283
  469MOL0     H64655   9.349   9.908  10.560 -1.7253  2.7937  0.1405
  469MOL0     H64656   9.522   9.880  10.563 -1.4976 -1.3275  0.4944
  469MOL0     H64657   9.364   9.987  10.316 -0.8996  0.7158  0.8371
  469MOL0     H64658   9.520   9.934  10.306 -1.8976  1.8206 -2.3533
  469MOL0     H64659   9.436   9.685  10.364  0.0688 -1.0615  0.8870
  469MOL0     H64660   9.283   9.753  10.377  0.3853 -1.9169 -0.1073
  469MOL0     H64661   9.319   9.851  10.130 -1.0985  0.2454  2.5691
  469MOL0     H64662   9.454   9.745  10.126  1.3418 -0.6025  1.7857
  469MOL0     H64663   9.209   9.612  10.225  1.2362 -2.6806  0.4775
  469MOL0     H64664   9.341   9.543  10.150  0.9993  0.4909  1.6422
  469MOL0     H64665   9.264   9.676   9.931  1.5713 -0.0240  1.0943
  469MOL0     H64666   9.166   9.535   9.988  1.5700 -0.2423  0.1882
  469MOL0     H64667   9.081   9.785   9.917 -1.5500 -1.7956 -1.4338
  469MOL0     H64668   9.090   9.815  10.096 -2.0373  0.4077 -0.1521
  469MOL0     H64669   8.921   9.598   9.996 -0.4214  0.1148  0.7486
  469MOL0     H64670   8.893   9.697  10.142 -1.8721 -1.0863 -0.2665
  469MOL0     H64671   8.830   9.982  10.070 -2.1370 -0.8820  1.2237
  469MOL0     H64672   8.736  10.182   9.861 -0.1957  0.9028  1.3033
  469MOL0     H64673   8.593  10.123   9.957 -2.0731 -0.6245 -0.8244
  469MOL0     H64674   8.628  10.113   9.663  1.7935 -2.2238  0.9696
  469MOL0     H64675   8.517  10.004   9.739 -0.5248  0.5553  0.7388
  469MOL0     H64676   8.418  10.220   9.850 -2.3772 -0.2320 -1.0472
  469MOL0     H64677   8.539  10.317   9.766  3.0570 -2.4252  1.7055
  469MOL0     H64678   8.445  10.228   9.545  0.6772  0.9185  0.4009
  469MOL0     H64679   8.329  10.135   9.619  1.3063 -0.6095 -0.2360
  469MOL0     H64680   8.251  10.205   9.412  0.0037  0.4035  0.8654
  469MOL0     H64681   8.014  10.262   9.172  1.2684  2.6779  2.1260
  469MOL0     H64682   7.957  10.106   9.251 -0.4103 -0.4091  2.1591
  469MOL0     H64683   8.120  10.129   9.214 -1.6314 -1.5151  0.1051
  469MOL0     H64684   7.494  10.441   9.407  1.1259  2.3559  1.3563
  469MOL0     H64685   7.313  10.443   9.230  1.8017 -2.5683  0.0304
  469MOL0     H64686   7.290  10.548   8.781  1.0867 -2.4964 -1.7799
  469MOL0     H64687   7.464  10.582   8.810 -1.0589  3.2139  2.1392
  469MOL0     H64688   7.470  10.314   8.805 -0.0784 -1.2320 -2.3181
  469MOL0     H64689   7.294  10.329   8.804  1.0999 -0.3040  2.9424
  469MOL0     H64690   7.509  10.433   8.608 -0.6840 -0.2798 -1.6105
  469MOL0     H64691   7.347  10.468   8.568  1.0254  0.8601 -2.1882
  469MOL0     H64692   7.285  10.225   8.586 -0.4624  1.3733 -1.9902
  469MOL0     H64693   7.460  10.187   8.617  1.3581 -0.2836 -0.3236
  469MOL0     H64694   7.506  10.323   8.405 -0.8062  1.1113  0.2238
  469MOL0     H64695   7.466  10.151   8.393  0.1236  0.5667  1.0353
  469MOL0     H64696   7.306  10.400   8.324 -0.3648  0.9896 -3.9493
  469MOL0     H64697   7.222  10.244   8.374 -0.9768 -1.1145 -1.1073
  469MOL0     H64698   7.272  10.135   8.177  1.6589 -0.3140 -0.0914
  469MOL0     H64699   7.406  10.255   8.139  1.2563 -0.7967  1.2390
  469MOL0     H64700   7.103  10.305   8.145 -0.2280 -1.7537 -0.9564
  469MOL0     H64701   7.204  10.253   8.007  1.2356  1.1951 -1.2896
  469MOL0     H64702   7.619  10.520   8.936 -0.5449 -0.0551 -0.0261
  469MOL0     H64703   7.790  10.528   9.109  0.1294  4.2269  1.1658
  469MOL0     H64704   7.875  10.470   9.586 -1.8153 -0.4393 -0.1080
  469MOL0     H64705   8.097  10.466   9.702  0.3689  1.5133 -2.0353
  469MOL0     H64706   9.457  10.313  10.607 -1.9354 -0.1496 -0.5805
  469MOL0     H64707   9.458  10.420  10.841  2.3114 -1.1004  2.3550
  469MOL0     H64708   9.533  10.396  11.235  0.1231 -0.4785 -1.1504
  469MOL0     H64709   9.551  10.516  11.436  2.1082 -2.5138 -0.2346
  469MOL0     H64710   9.594  10.510  11.639 -0.3912 -1.4198  1.1544
  469MOL0     H64711   9.485  10.662  11.626  1.5336  0.6703 -0.3411
  469MOL0     H64712   9.593  10.549  11.889  0.9389  1.5873 -0.1560
  469MOL0     H64713   9.438  10.619  11.885 -0.2944 -1.4895  1.6017
  469MOL0     H64714   9.687  10.762  11.764 -0.3480  0.4271  0.4995
  469MOL0     H64715   9.521  10.829  11.795  2.0654  0.6252 -2.5555
  469MOL0     H64716   9.575  10.774  12.045  4.2033 -3.1016  2.0564
  469MOL0     H64717   9.639  10.916  11.983  0.8723  0.5662 -2.4185
  469MOL0     H64718   9.997  10.706  12.054 -0.6935  0.6969  0.3300
  469MOL0     H64719   9.221  10.308  11.610  0.3732 -1.9495 -0.6868
  469MOL0     H64720   9.165  10.105  11.338  0.8679  0.4917  0.5501
  469MOL0     H64721   9.079  10.184  11.476  2.2499 -2.5450  1.1591
  469MOL0     H64722   9.059  10.237  11.310 -1.9511 -2.9149 -0.4369
  470MOL0     O64723   8.045   1.739   2.292  0.4439  0.3910 -0.5803
  470MOL0     C64724   8.135   1.701   2.223 -0.4821  0.3060  0.7746
  470MOL0     O64725   8.262   1.765   2.219 -0.7605  0.4625 -0.3376
  470MOL0     C64726   8.285   1.874   2.295 -0.2887  0.0955 -0.7264
  470MOL0     C64727   8.280   1.859   2.433  0.0380 -0.5304 -0.3637
  470MOL0     C64728   8.307   1.973   2.515  0.0693  0.0110  0.2866
  470MOL0     C64729   8.361   2.089   2.456  0.0079 -0.1352 -0.3328
  470MOL0     O64730   8.391   2.196   2.532  0.2109  0.4530 -0.0813
  470MOL0     C64731   8.278   2.277   2.572  0.7101  0.2647  0.3184
  470MOL0     C64732   8.253   2.271   2.722  1.3264 -0.5719 -0.1610
  470MOL0     C64733   8.139   2.366   2.765 -0.1727 -0.1378  0.3163
  470MOL0     C64734   8.131   2.383   2.917  0.7692  0.6276 -0.5370
  470MOL0     C64735   8.007   2.463   2.960 -0.1279  0.4084 -0.5143
  470MOL0     C64736   7.883   2.366   2.985  0.3629 -0.1159  0.3043
  470MOL0     C64737   7.760   2.455   3.027  0.5485  0.5252  0.7556
  470MOL0     C64738   7.761   2.488   3.177  0.5361  0.1747  0.4922
  470MOL0     N64739   7.688   2.394   3.259 -0.2770  0.1164 -0.6945
  470MOL0     C64740   7.553   2.376   3.275  0.0159  0.6011  0.6599
  470MOL0     C64741   7.540   2.293   3.381 -0.3661 -1.0296  0.0989
  470MOL0     C64742   7.412   2.244   3.437 -0.1330 -0.5058  0.2191
  470MOL0     C64743   7.360   2.313   3.566  0.9728  0.4340 -0.6697
  470MOL0     C64744   7.352   2.462   3.552  0.0876  0.2429  1.2529
  470MOL0     C64745   7.276   2.530   3.659 -0.5900  0.2147 -0.4609
  470MOL0     O64746   7.290   2.666   3.651  0.1141  0.2499 -0.2430
  470MOL0     C64747   7.232   2.738   3.751 -0.1806 -0.5383  0.5997
  470MOL0     C64748   7.288   2.864   3.776 -0.9051 -0.9923  0.4261
  470MOL0     C64749   7.233   2.951   3.874  0.0101 -0.1774  0.4639
  470MOL0     C64750   7.289   3.083   3.870 -0.6462 -0.2715 -0.2164
  470MOL0     C64751   7.126   2.907   3.960 -0.5778  0.2100  0.2687
  470MOL0     C64752   7.074   2.994   4.063 -1.2874  0.6153  0.7404
  470MOL0     O64753   6.942   2.966   4.092  0.0247  1.3322  0.2126
  470MOL0     C64754   6.873   3.051   4.171  0.4948  0.5434  0.0228
  470MOL0     C64755   6.787   2.972   4.245 -0.0459  0.6064  0.2345
  470MOL0     C64756   6.706   3.030   4.342  0.9821  0.3186  1.1822
  470MOL0     C64757   6.698   3.171   4.345 -0.1926  0.2352  0.2856
  470MOL0     O64758   6.612   3.239   4.429 -0.3246  1.2153  0.4844
  470MOL0     C64759   6.589   3.183   4.561 -0.7939  0.1174 -0.8187
  470MOL0     C64760   6.610   3.314   4.649  0.1636  0.9602 -0.0276
  470MOL0     C64761   6.570   3.292   4.793  1.5206 -0.5179 -0.1724
  470MOL0     C64762   6.667   3.205   4.866  0.3611 -0.4990 -0.7642
  470MOL0     C64763   6.784   3.286   4.929  0.5495  0.8404 -0.3013
  470MOL0     C64764   6.745   3.386   5.046 -0.3617  0.2968  0.3549
  470MOL0     C64765   6.863   3.471   5.091 -0.0265 -0.3633 -0.2711
  470MOL0     C64766   7.012   3.421   5.100  0.1850 -0.3312 -0.0406
  470MOL0    Cl64767   7.026   3.279   5.205  0.2963 -0.0861  0.0983
  470MOL0     C64768   6.789   3.249   4.272 -0.4262  0.4609  0.1714
  470MOL0     C64769   6.879   3.187   4.183  1.0477  0.4379  0.2891
  470MOL0     O64770   7.145   3.079   4.120 -0.2803 -0.5780  0.3362
  470MOL0     C64771   7.073   2.775   3.938 -0.8675 -0.8110  0.6735
  470MOL0     C64772   7.129   2.697   3.836  0.0682 -0.1951 -0.1577
  470MOL0     N64773   7.665   2.270   3.430  0.2606 -0.7641 -0.7100
  470MOL0     N64774   7.755   2.329   3.357  0.2729  0.0366 -0.6678
  470MOL0     C64775   8.383   2.094   2.322 -0.9793  0.7559  0.5581
  470MOL0     C64776   8.351   1.981   2.241 -0.8067 -0.7069  0.5073
  470MOL0     C64777   8.120   1.590   2.123 -0.2710  0.7245 -0.5360
  470MOL0     C64778   8.157   1.611   1.991  1.3652  0.6904 -0.0660
  470MOL0     C64779   8.126   1.526   1.886 -0.1363  0.5125  0.1191
  470MOL0     C64780   8.068   1.406   1.915 -0.4512  0.0596 -0.8681
  470MOL0     O64781   8.045   1.307   1.831 -0.3390  0.3996 -0.7561
  470MOL0     C64782   8.095   1.302   1.695  0.4375 -0.2155 -0.7547
  470MOL0     C64783   8.052   1.170   1.618 -0.4552 -0.8808  0.0966
  470MOL0     C64784   7.909   1.112   1.638  1.1979 -0.1994 -0.5536
  470MOL0     C64785   7.803   1.176   1.557  0.0227  0.5563  0.3195
  470MOL0     C64786   7.822   1.183   1.415 -0.1852 -0.5802  0.8387
  470MOL0     C64787   7.839   1.204   1.289  0.3067 -0.1019 -1.0418
  470MOL0     C64788   8.028   1.372   2.050 -0.1711  0.2289 -0.1475
  470MOL0     C64789   8.049   1.464   2.149  0.3644 -0.6934 -0.2784
  470MOL0     C64790   8.006   1.429   2.292  0.0543  0.1726  0.2958
  470MOL0     H64791   8.247   1.765   2.475  1.2345  0.0311  2.0090
  470MOL0     H64792   8.284   1.966   2.621 -0.2630 -0.6690  0.1719
  470MOL0     H64793   8.190   2.240   2.520  0.7099 -1.3634  1.3925
  470MOL0     H64794   8.302   2.380   2.546  0.7676  1.3788  4.1522
  470MOL0     H64795   8.237   2.169   2.758 -0.2597 -0.2049  0.2935
  470MOL0     H64796   8.348   2.302   2.765  0.3746 -0.1439  1.7311
  470MOL0     H64797   8.168   2.458   2.714 -2.5468 -0.5558 -2.0492
  470MOL0     H64798   8.039   2.346   2.726 -1.0591  3.4859  0.3347
  470MOL0     H64799   8.124   2.287   2.968 -1.2319  0.3994 -1.1796
  470MOL0     H64800   8.221   2.423   2.965  0.4464  1.8570 -0.9116
  470MOL0     H64801   7.969   2.527   2.879 -0.6420 -0.0742 -0.6576
  470MOL0     H64802   8.028   2.528   3.045  0.7369  1.2718 -1.3602
  470MOL0     H64803   7.855   2.314   2.893 -0.4210 -0.0985  0.5320
  470MOL0     H64804   7.906   2.290   3.060 -0.1320  0.6099  1.2085
  470MOL0     H64805   7.671   2.399   2.996  0.2175  0.6595  1.4513
  470MOL0     H64806   7.757   2.546   2.966  1.4880 -0.0324 -0.1703
  470MOL0     H64807   7.865   2.503   3.208  0.1418  2.0712  0.9790
  470MOL0     H64808   7.712   2.585   3.184 -0.2149  0.0259 -1.8434
  470MOL0     H64809   7.472   2.405   3.209 -0.2138  1.3136  1.2429
  470MOL0     H64810   7.427   2.139   3.465  2.2033  0.1550  1.7146
  470MOL0     H64811   7.340   2.243   3.354  1.4149  1.4392 -1.2523
  470MOL0     H64812   7.258   2.281   3.590  1.0837  0.1684 -0.5511
  470MOL0     H64813   7.423   2.287   3.651 -0.5815 -2.7549 -0.3558
  470MOL0     H64814   7.455   2.495   3.566 -0.2594  1.4542  1.0430
  470MOL0     H64815   7.313   2.485   3.452  1.0227  1.1113  1.0714
  470MOL0     H64816   7.180   2.494   3.620  1.2473 -3.3732 -2.2458
  470MOL0     H64817   7.297   2.500   3.762  2.5237  3.3870  0.0109
  470MOL0     H64818   7.374   2.893   3.716 -0.8997 -4.4778 -1.4822
  470MOL0     H64819   7.206   3.152   3.887 -1.9000 -1.3791 -1.6091
  470MOL0     H64820   7.325   3.107   3.770  0.6589 -1.3381 -0.0261
  470MOL0     H64821   7.377   3.105   3.931  0.3890 -0.3334 -1.6368
  470MOL0     H64822   6.769   2.866   4.233 -2.6583  1.1470 -1.1815
  470MOL0     H64823   6.628   2.969   4.387 -0.8963  1.7531  0.0069
  470MOL0     H64824   6.483   3.157   4.551 -0.3128 -2.8232  0.4769
  470MOL0     H64825   6.638   3.093   4.600 -4.3437 -1.5589  0.2010
  470MOL0     H64826   6.716   3.340   4.642  0.4652 -0.1693  0.0306
  470MOL0     H64827   6.553   3.404   4.627 -0.6896  0.9138  1.8314
  470MOL0     H64828   6.476   3.239   4.781  1.0842  0.1907  0.0831
  470MOL0     H64829   6.549   3.393   4.830 -2.5917 -0.4178 -2.2188
  470MOL0     H64830   6.702   3.128   4.797 -0.4597 -0.6626 -1.0120
  470MOL0     H64831   6.617   3.158   4.951  1.6403 -1.1177 -0.3391
  470MOL0     H64832   6.860   3.219   4.969  0.2151  1.5093  1.5400
  470MOL0     H64833   6.840   3.352   4.862  2.4076 -0.4613 -0.0788
  470MOL0     H64834   6.704   3.340   5.137  0.9921 -5.7854 -1.6118
  470MOL0     H64835   6.680   3.464   5.006  1.0834  2.1018  1.3675
  470MOL0     H64836   6.854   3.493   5.198  2.4272  3.8235 -0.7353
  470MOL0     H64837   6.861   3.563   5.032  0.0888  0.0567  0.3734
  470MOL0     H64838   7.086   3.497   5.125 -0.3148  0.3970 -0.6995
  470MOL0     H64839   7.042   3.386   5.001  0.5048 -0.4428  0.0960
  470MOL0     H64840   6.784   3.354   4.299 -0.0388  0.0925  1.7677
  470MOL0     H64841   6.955   3.229   4.119 -0.2143 -0.9014 -2.2372
  470MOL0     H64842   6.997   2.726   3.999  1.4762 -0.8634  3.7636
  470MOL0     H64843   7.085   2.599   3.825 -1.9208  0.6387 -0.0212
  470MOL0     H64844   8.428   2.180   2.274 -3.8602  2.4451  0.6321
  470MOL0     H64845   8.367   1.976   2.133  2.0575 -0.2299  0.8170
  470MOL0     H64846   8.209   1.701   1.959  0.5173  1.6893  1.2689
  470MOL0     H64847   8.153   1.559   1.786  2.5979 -0.3451  0.4886
  470MOL0     H64848   8.062   1.387   1.635  1.6733  0.1037 -1.0147
  470MOL0     H64849   8.203   1.286   1.702  0.5054  0.4654  0.0135
  470MOL0     H64850   8.131   1.097   1.642  4.0954  3.1109 -1.1740
  470MOL0     H64851   8.079   1.178   1.513  2.2376 -0.4344  0.7499
  470MOL0     H64852   7.892   1.005   1.625  2.3513 -0.5393  0.4576
  470MOL0     H64853   7.877   1.131   1.741 -2.2837  2.5864 -1.9532
  470MOL0     H64854   7.785   1.277   1.594  0.1692  1.5950 -2.2637
  470MOL0     H64855   7.713   1.114   1.561  0.5889 -0.4038 -1.1228
  470MOL0     H64856   7.873   1.220   1.189  5.2286 -2.0628  0.0041
  470MOL0     H64857   7.986   1.276   2.078  1.7425  0.0580  2.3983
  470MOL0     H64858   8.044   1.329   2.317  0.9363 -0.0705 -1.8044
  470MOL0     H64859   8.028   1.504   2.368  2.4014 -0.2785  0.1158
  470MOL0     H64860   7.897   1.427   2.299  0.1026 -0.0104  1.0129
  471MOL0     O64861   8.530   7.818   0.898  0.7089 -0.2866  0.1894
  471MOL0     C64862   8.415   7.805   0.948  0.1171 -0.2189  0.0461
  471MOL0     O64863   8.388   7.777   1.081  0.1800 -0.7298 -0.4428
  471MOL0     C64864   8.473   7.735   1.179 -0.2716 -0.0754 -0.3188
  471MOL0     C64865   8.419   7.717   1.310 -0.4526 -0.1795  0.3265
  471MOL0     C64866   8.493   7.654   1.416 -0.3843 -0.1826 -0.0323
  471MOL0     C64867   8.627   7.611   1.398 -0.5478  0.8086  0.3957
  471MOL0     O64868   8.714   7.541   1.487  0.4616 -0.1600 -0.3164
  471MOL0     C64869   8.672   7.443   1.584  0.9285 -0.1910  0.2930
  471MOL0     C64870   8.636   7.302   1.514 -0.6839 -0.6039 -0.3485
  471MOL0     C64871   8.751   7.262   1.414 -0.3216 -0.0650 -0.9707
  471MOL0     C64872   8.743   7.110   1.377 -0.2119  0.1301 -0.0210
  471MOL0     C64873   8.874   7.061   1.314  0.8529 -0.1715  1.2053
  471MOL0     C64874   8.863   6.908   1.286 -0.1863  0.1976 -0.4643
  471MOL0     C64875   8.792   6.870   1.157  0.4672 -0.1589 -0.1278
  471MOL0     C64876   8.849   6.925   1.025 -0.2028 -0.5527 -0.5619
  471MOL0     N64877   8.976   6.870   0.976  0.7037  0.3130  0.2872
  471MOL0     C64878   8.989   6.733   0.943  1.2842 -0.4802 -0.1339
  471MOL0     C64879   9.094   6.727   0.865 -1.0708  0.0910  0.6034
  471MOL0     C64880   9.143   6.600   0.813  0.0250 -0.0229  0.0985
  471MOL0     C64881   9.254   6.550   0.901  0.4202  0.2748  0.2818
  471MOL0     C64882   9.329   6.417   0.837 -0.7315  0.2744 -0.1002
  471MOL0     C64883   9.221   6.307   0.813 -0.0815 -0.6955 -0.2510
  471MOL0     O64884   9.288   6.182   0.828  0.2895  0.2780  0.4986
  471MOL0     C64885   9.324   6.101   0.718  0.1101 -0.0907  1.0920
  471MOL0     C64886   9.276   6.100   0.591 -0.6422 -1.1901  0.9472
  471MOL0     C64887   9.317   6.017   0.488 -0.2425  0.1748 -0.5593
  471MOL0     C64888   9.238   6.031   0.355  0.6192 -0.2096 -0.1343
  471MOL0     C64889   9.410   5.905   0.526 -0.0354 -0.9989  0.0871
  471MOL0     C64890   9.449   5.806   0.430  0.3598  1.5809 -0.4631
  471MOL0     O64891   9.543   5.709   0.469  0.2586  0.1075 -0.1061
  471MOL0     C64892   9.608   5.635   0.376  0.7075 -0.0768  0.5147
  471MOL0     C64893   9.543   5.536   0.293  0.0189  0.0701 -0.4449
  471MOL0     C64894   9.619   5.473   0.194 -0.5440  0.2569  0.5351
  471MOL0     C64895   9.762   5.494   0.186  0.1889  0.3999 -0.1603
  471MOL0     O64896   9.845   5.415   0.112 -0.2066  0.0635  0.5181
  471MOL0     C64897   9.794   5.294   0.043 -0.8304 -0.3265 -0.4510
  471MOL0     C64898   9.918   5.193   0.021  0.7306  0.2689 -0.4848
  471MOL0     C64899  10.016   5.250  -0.075  0.6711  0.6594  0.1947
  471MOL0     C64900  10.131   5.138  -0.078  0.2925 -0.7793  0.0995
  471MOL0     C64901  10.243   5.196  -0.154 -0.0813  0.2191 -0.4036
  471MOL0     C64902  10.238   5.164  -0.303 -0.6839 -0.1233 -0.0019
  471MOL0     C64903  10.349   5.235  -0.378 -0.0238 -0.0001  0.0677
  471MOL0     C64904  10.300   5.265  -0.526 -0.7237 -0.5597 -0.2914
  471MOL0    Cl64905  10.456   5.319  -0.611 -0.2108 -0.0933  0.5101
  471MOL0     C64906   9.816   5.595   0.259 -0.1560  0.0501  0.4679
  471MOL0     C64907   9.738   5.671   0.347  0.2799 -0.8665  0.3895
  471MOL0     O64908   9.378   5.796   0.328  0.3075 -0.2609 -0.3854
  471MOL0     C64909   9.463   5.910   0.655  0.1063 -0.3382 -0.8197
  471MOL0     C64910   9.414   6.003   0.748 -0.4270  0.9931  0.3087
  471MOL0     N64911   9.143   6.854   0.855  0.4025 -0.5142  0.2155
  471MOL0     N64912   9.077   6.940   0.920  0.0754 -0.4279 -0.0938
  471MOL0     C64913   8.684   7.633   1.265  0.1751 -0.5384 -0.2109
  471MOL0     C64914   8.612   7.703   1.167  0.2413 -0.0463 -1.0293
  471MOL0     C64915   8.306   7.858   0.857  0.4143 -0.6108  1.0955
  471MOL0     C64916   8.340   7.841   0.716 -0.2662 -0.3602 -1.0406
  471MOL0     C64917   8.253   7.893   0.623 -1.0686 -0.1056  0.2660
  471MOL0     C64918   8.127   7.948   0.655 -0.4433 -0.3835 -0.2917
  471MOL0     O64919   8.047   7.998   0.555 -1.1068 -0.3379  0.0752
  471MOL0     C64920   7.923   8.071   0.594  0.3583 -0.3173 -0.0956
  471MOL0     C64921   7.874   8.160   0.478 -0.4625  0.0050 -0.7265
  471MOL0     C64922   7.750   8.238   0.526 -0.5012 -0.0630  0.1152
  471MOL0     C64923   7.624   8.145   0.528  0.7030 -0.1815  0.0068
  471MOL0     C64924   7.498   8.216   0.572  0.2198 -0.3105  0.1984
  471MOL0     C64925   7.399   8.266   0.640 -0.0735  0.2732  0.4449
  471MOL0     C64926   8.099   7.972   0.792  0.2660  0.4988  0.0914
  471MOL0     C64927   8.185   7.916   0.891 -0.1460  0.0284 -0.4950
  471MOL0     C64928   8.151   7.945   1.031 -0.0765  0.3928  1.1194
  471MOL0     H64929   8.314   7.733   1.335  0.0572  1.6471  1.4498
  471MOL0     H64930   8.438   7.625   1.505 -0.8511  0.6445 -0.0391
  471MOL0     H64931   8.586   7.481   1.641  0.9065 -1.6878  1.3025
  471MOL0     H64932   8.754   7.425   1.654  0.5477 -2.7306  0.1663
  471MOL0     H64933   8.613   7.213   1.575  1.3472  0.4562  2.1669
  471MOL0     H64934   8.544   7.321   1.457 -0.9969  1.2189  0.6734
  471MOL0     H64935   8.749   7.331   1.329  4.2688  0.7623 -0.6556
  471MOL0     H64936   8.848   7.273   1.463  0.6930  3.8947 -3.4176
  471MOL0     H64937   8.755   7.055   1.471 -3.1399 -1.9444 -0.7264
  471MOL0     H64938   8.647   7.083   1.332 -0.7940  1.0148  0.6507
  471MOL0     H64939   8.951   7.083   1.389  0.6087  2.0701  0.8684
  471MOL0     H64940   8.899   7.113   1.222  1.7276 -1.6061  0.5954
  471MOL0     H64941   8.966   6.871   1.283 -0.0899  0.4675 -0.4856
  471MOL0     H64942   8.818   6.854   1.370 -3.7869  0.9680 -1.7236
  471MOL0     H64943   8.684   6.884   1.168 -0.0589 -2.8010 -1.2585
  471MOL0     H64944   8.790   6.761   1.160 -0.8143 -0.1276  1.8367
  471MOL0     H64945   8.780   6.897   0.945  1.3385 -1.9398 -1.4559
  471MOL0     H64946   8.854   7.034   1.031 -3.0958 -0.2509 -1.9477
  471MOL0     H64947   8.915   6.654   0.952  0.2938  0.2255 -1.6282
  471MOL0     H64948   9.185   6.607   0.712  3.6452  2.5760  1.5871
  471MOL0     H64949   9.057   6.532   0.811 -1.7781  2.1329 -0.7542
  471MOL0     H64950   9.323   6.634   0.913  0.3696  0.3960 -0.2732
  471MOL0     H64951   9.215   6.515   0.997  2.3026 -2.4727  0.1522
  471MOL0     H64952   9.388   6.427   0.746  0.6366 -0.9774  0.5982
  471MOL0     H64953   9.394   6.376   0.916 -0.7141 -0.6308 -0.5773
  471MOL0     H64954   9.139   6.322   0.885 -0.7841 -2.2686 -0.6818
  471MOL0     H64955   9.176   6.327   0.715 -2.0413 -2.5849  0.1767
  471MOL0     H64956   9.194   6.167   0.567  2.0899  2.9823  2.2231
  471MOL0     H64957   9.172   6.118   0.363  0.4506 -0.4206  0.9909
  471MOL0     H64958   9.167   5.948   0.361  0.0946  0.1983 -0.5562
  471MOL0     H64959   9.290   6.038   0.260 -0.5673  1.4960 -0.7060
  471MOL0     H64960   9.438   5.506   0.299  0.1040 -0.1089  0.3161
  471MOL0     H64961   9.567   5.398   0.134  0.9552 -1.4875  1.3111
  471MOL0     H64962   9.725   5.249   0.116  1.1462 -1.1507  1.0038
  471MOL0     H64963   9.746   5.319  -0.052 -0.5445  0.0368 -0.4998
  471MOL0     H64964   9.966   5.182   0.119  0.2668 -1.3382 -0.4116
  471MOL0     H64965   9.885   5.094  -0.012 -2.2713  0.1756  2.2663
  471MOL0     H64966  10.049   5.344  -0.030 -3.1994  1.4673  1.7319
  471MOL0     H64967   9.972   5.260  -0.175 -1.4965  0.1160  1.0410
  471MOL0     H64968  10.091   5.044  -0.117  0.5885 -0.3805 -1.2078
  471MOL0     H64969  10.165   5.125   0.025  2.8402 -0.3541 -0.6038
  471MOL0     H64970  10.253   5.303  -0.132 -1.1661  0.2912 -0.2300
  471MOL0     H64971  10.336   5.154  -0.115 -0.2742 -1.7411 -1.8777
  471MOL0     H64972  10.140   5.203  -0.331 -0.7593  0.2704  0.7956
  471MOL0     H64973  10.226   5.058  -0.328 -1.6691 -0.1387  0.4843
  471MOL0     H64974  10.425   5.157  -0.386 -2.3332 -2.9863  3.5622
  471MOL0     H64975  10.384   5.326  -0.329  0.4834 -1.4417  2.5997
  471MOL0     H64976  10.223   5.343  -0.532  1.1120  1.2956 -1.2309
  471MOL0     H64977  10.263   5.173  -0.573  0.1583 -0.3267 -1.5114
  471MOL0     H64978   9.921   5.620   0.251 -0.4808  1.4655  0.3941
  471MOL0     H64979   9.794   5.748   0.399  0.6787 -0.3356 -0.7878
  471MOL0     H64980   9.529   5.826   0.674  0.5478 -0.0823 -1.2333
  471MOL0     H64981   9.450   5.987   0.849  2.2381 -1.5685 -0.8945
  471MOL0     H64982   8.788   7.606   1.252  1.6208  3.7492  0.7859
  471MOL0     H64983   8.658   7.735   1.074  2.7867 -0.4705  0.0167
  471MOL0     H64984   8.430   7.793   0.680 -0.6190 -1.9439  0.1082
  471MOL0     H64985   8.275   7.885   0.517  0.8202 -1.9277  0.7259
  471MOL0     H64986   7.854   7.989   0.616 -0.7207  0.1783 -1.5288
  471MOL0     H64987   7.933   8.139   0.679 -0.9779 -0.5834  0.2932
  471MOL0     H64988   7.861   8.103   0.385  2.4357 -2.9942  0.5015
  471MOL0     H64989   7.945   8.243   0.467  1.1586 -1.3081 -0.5278
  471MOL0     H64990   7.781   8.274   0.625 -4.2007 -2.0241  2.2053
  471MOL0     H64991   7.732   8.328   0.466 -2.6382  0.5453  1.5482
  471MOL0     H64992   7.648   8.059   0.592  2.0727  1.4475  1.7967
  471MOL0     H64993   7.598   8.121   0.425  1.2827  3.1902 -1.0505
  471MOL0     H64994   7.323   8.323   0.689 -0.6212  0.2007 -0.3041
  471MOL0     H64995   8.006   8.019   0.820 -1.0898 -0.8137 -1.9425
  471MOL0     H64996   8.164   7.850   1.084 -0.4934 -0.1493  0.2764
  471MOL0     H64997   8.213   8.021   1.079 -0.1089 -0.7793  3.1484
  471MOL0     H64998   8.044   7.960   1.048 -0.6415 -1.4551 -0.4828
  472MOL0     O64999   9.541   3.838   6.642 -0.4852  0.8231 -0.3767
  472MOL0     C65000   9.484   3.855   6.747  0.9651 -0.1912 -0.2822
  472MOL0     O65001   9.538   3.933   6.849  0.4658  0.1872  0.0033
  472MOL0     C65002   9.652   4.007   6.828 -0.5267 -0.7199 -0.4362
  472MOL0     C65003   9.775   3.939   6.850  0.3914 -0.3881  0.3050
  472MOL0     C65004   9.898   4.004   6.861 -0.3047 -0.0640  0.7056
  472MOL0     C65005   9.911   4.139   6.847 -0.0288 -0.0698 -0.2181
  472MOL0     O65006  10.033   4.203   6.839  0.3575 -0.5723  0.0427
  472MOL0     C65007  10.154   4.128   6.863  0.0613 -0.1672 -0.1459
  472MOL0     C65008  10.196   4.052   6.740  0.4293 -0.3199  0.2850
  472MOL0     C65009  10.342   4.012   6.757 -0.6419  0.5791  1.0144
  472MOL0     C65010  10.380   3.894   6.657 -0.3574 -0.4440 -0.1270
  472MOL0     C65011  10.353   3.921   6.509 -0.4265  0.9678 -0.3680
  472MOL0     C65012  10.384   3.820   6.400 -0.7636  0.4525  0.8788
  472MOL0     C65013  10.314   3.687   6.418  0.9328 -0.0049  0.1679
  472MOL0     C65014  10.300   3.615   6.289 -0.6575 -1.0116  0.7002
  472MOL0     N65015  10.232   3.492   6.289  0.5667 -0.0194  0.0168
  472MOL0     C65016  10.102   3.474   6.250  0.7412 -0.1719 -0.3989
  472MOL0     C65017  10.085   3.339   6.285 -0.6451  0.3363 -0.6346
  472MOL0     C65018   9.954   3.285   6.280  0.1746 -0.3697  0.0016
  472MOL0     C65019   9.952   3.135   6.244 -0.8896  0.2426  0.9356
  472MOL0     C65020   9.813   3.072   6.192 -0.4873  0.4874  0.4546
  472MOL0     C65021   9.812   2.923   6.167 -0.2561  0.6637  0.3908
  472MOL0     O65022   9.918   2.887   6.078 -0.8473  0.2963 -0.2690
  472MOL0     C65023   9.900   2.768   6.012  0.1913 -0.2346  0.2058
  472MOL0     C65024   9.814   2.663   6.047  0.9899  0.4566  0.4629
  472MOL0     C65025   9.784   2.549   5.966  0.8444  0.3695  0.0544
  472MOL0     C65026   9.709   2.442   6.038  0.1558 -0.4425 -0.2494
  472MOL0     C65027   9.860   2.537   5.842  0.1358  1.3311 -0.0693
  472MOL0     C65028   9.853   2.414   5.765 -1.0137  0.3941  0.4572
  472MOL0     O65029   9.743   2.338   5.778  0.0484  0.6254 -0.3709
  472MOL0     C65030   9.704   2.257   5.673 -0.1309  0.3388 -0.8457
  472MOL0     C65031   9.658   2.129   5.691  0.0776  1.0802 -0.3724
  472MOL0     C65032   9.603   2.057   5.585 -0.5146  0.5692  0.3341
  472MOL0     C65033   9.589   2.113   5.455 -0.6816  0.6541  0.1503
  472MOL0     O65034   9.553   2.042   5.348 -0.3093 -0.8912  0.7986
  472MOL0     C65035   9.656   1.947   5.314  0.1349 -1.0120 -0.1941
  472MOL0     C65036   9.640   1.882   5.175 -0.6081 -0.0676  0.2628
  472MOL0     C65037   9.631   1.985   5.071  0.4218  0.4935  0.1838
  472MOL0     C65038   9.677   1.933   4.936  0.2160  0.3558  0.4185
  472MOL0     C65039   9.611   1.812   4.878  0.9410  0.2177  0.4189
  472MOL0     C65040   9.675   1.778   4.745 -0.2875 -0.1798  0.1331
  472MOL0     C65041   9.600   1.670   4.646 -0.2497 -0.5301 -0.9128
  472MOL0     C65042   9.698   1.615   4.554 -0.8838  0.5055  0.3731
  472MOL0    Cl65043   9.606   1.548   4.414  0.0263 -0.2331  0.3396
  472MOL0     C65044   9.633   2.243   5.441 -0.0960 -0.2853  0.1544
  472MOL0     C65045   9.693   2.316   5.548  0.8898 -0.1916 -0.4490
  472MOL0     O65046   9.952   2.382   5.693 -0.7784  0.0605  0.2564
  472MOL0     C65047   9.950   2.643   5.810 -0.2241 -0.0493  0.2391
  472MOL0     C65048   9.969   2.761   5.887  0.5869  0.6337  0.4667
  472MOL0     N65049  10.209   3.268   6.317 -0.0342 -0.0624 -0.6907
  472MOL0     N65050  10.291   3.367   6.318  0.0976 -0.2597 -0.4003
  472MOL0     C65051   9.791   4.206   6.823 -0.2098 -0.5089 -0.1885
  472MOL0     C65052   9.664   4.147   6.816 -0.8188 -0.0075 -0.2876
  472MOL0     C65053   9.349   3.788   6.759 -0.8278 -0.5668 -0.0202
  472MOL0     C65054   9.317   3.700   6.660  0.4260 -0.6015 -0.0588
  472MOL0     C65055   9.198   3.627   6.667 -0.0936 -0.4115  0.1209
  472MOL0     C65056   9.108   3.648   6.768 -0.8498  0.2674 -0.4865
  472MOL0     O65057   8.983   3.597   6.773 -0.3200  0.4859  0.6603
  472MOL0     C65058   8.984   3.452   6.782  0.1525  0.2677  0.6030
  472MOL0     C65059   8.867   3.405   6.871 -0.1223 -0.6176  0.0387
  472MOL0     C65060   8.840   3.248   6.858  1.0975  0.1413  0.0227
  472MOL0     C65061   8.713   3.191   6.923  0.4779 -0.2974  0.8720
  472MOL0     C65062   8.700   3.212   7.062  0.4717 -0.8270 -0.0767
  472MOL0     C65063   8.681   3.236   7.182 -0.0080 -0.6808 -0.6697
  472MOL0     C65064   9.143   3.731   6.870  0.0400  0.9189 -0.0762
  472MOL0     C65065   9.266   3.788   6.874 -0.2906 -0.9047 -1.0996
  472MOL0     C65066   9.300   3.863   6.997  0.7037 -0.4711 -0.2318
  472MOL0     H65067   9.775   3.830   6.851  0.7471 -0.3883  0.3002
  472MOL0     H65068   9.984   3.945   6.891 -0.9906 -2.4836 -1.7449
  472MOL0     H65069  10.156   4.054   6.943  2.8787  0.6854  0.6762
  472MOL0     H65070  10.238   4.191   6.893  2.3073 -2.5592 -1.0723
  472MOL0     H65071  10.135   3.962   6.737 -0.8779  0.3826  2.8165
  472MOL0     H65072  10.187   4.107   6.646 -0.2412  0.1910  0.6412
  472MOL0     H65073  10.408   4.099   6.747 -0.2164  0.2276  0.7527
  472MOL0     H65074  10.365   3.996   6.863  2.9239 -0.0635  0.2781
  472MOL0     H65075  10.487   3.877   6.671 -0.0574  1.8909  0.8833
  472MOL0     H65076  10.326   3.803   6.687 -0.4680 -0.0945  0.7644
  472MOL0     H65077  10.411   4.007   6.476 -1.5994  2.2779  0.8377
  472MOL0     H65078  10.246   3.944   6.501 -0.5912  0.1157 -0.8777
  472MOL0     H65079  10.362   3.864   6.302 -0.5311 -0.9787  0.1612
  472MOL0     H65080  10.490   3.796   6.396 -1.2184 -1.8930  1.0935
  472MOL0     H65081  10.213   3.705   6.454 -0.1974 -4.1528 -0.4180
  472MOL0     H65082  10.367   3.634   6.498  1.6687  0.6825  0.1473
  472MOL0     H65083  10.261   3.691   6.221  1.1291 -0.5150  0.1673
  472MOL0     H65084  10.405   3.600   6.261 -1.3530 -2.8703 -1.2229
  472MOL0     H65085  10.016   3.528   6.213 -1.6933 -1.2915  3.0554
  472MOL0     H65086   9.897   3.343   6.208  0.1775  1.6404  1.5280
  472MOL0     H65087   9.909   3.301   6.378  0.2799  1.9252 -0.2680
  472MOL0     H65088  10.030   3.112   6.171  2.0013  0.7758  3.6362
  472MOL0     H65089   9.983   3.075   6.331  1.9697  1.9276  1.2090
  472MOL0     H65090   9.730   3.100   6.256  0.2842  1.7080  0.9438
  472MOL0     H65091   9.799   3.118   6.093  0.7900 -1.8098 -0.8917
  472MOL0     H65092   9.829   2.869   6.261 -0.8595 -1.1459 -0.4895
  472MOL0     H65093   9.713   2.887   6.135 -0.1953  0.8625 -0.0223
  472MOL0     H65094   9.771   2.665   6.147  0.7000 -4.3335  0.6989
  472MOL0     H65095   9.712   2.446   6.148 -1.9966  0.4664 -0.1758
  472MOL0     H65096   9.720   2.339   6.004  2.6195 -0.1135 -0.6561
  472MOL0     H65097   9.606   2.467   6.010  0.0468 -0.6968 -0.0761
  472MOL0     H65098   9.657   2.088   5.791 -0.3795 -1.6265 -1.3945
  472MOL0     H65099   9.587   1.952   5.606 -0.1196  0.6916  1.2947
  472MOL0     H65100   9.748   2.005   5.316 -0.9972  0.8229  0.8407
  472MOL0     H65101   9.683   1.872   5.389 -0.5597  1.7248  3.0310
  472MOL0     H65102   9.724   1.814   5.163  0.0660  0.6771  0.7135
  472MOL0     H65103   9.547   1.823   5.174 -2.8596  3.1685  1.8696
  472MOL0     H65104   9.679   2.078   5.101  2.8012 -0.6481  0.1295
  472MOL0     H65105   9.526   2.009   5.054  0.6144  1.4934  0.3440
  472MOL0     H65106   9.782   1.900   4.941 -0.3240 -1.4881  0.4115
  472MOL0     H65107   9.670   2.010   4.859 -4.3685 -0.0314  0.2049
  472MOL0     H65108   9.613   1.721   4.939 -3.8395 -1.3600 -1.3131
  472MOL0     H65109   9.507   1.843   4.859 -0.8333 -5.0703 -0.1104
  472MOL0     H65110   9.774   1.734   4.761  1.2498  3.0771  0.3802
  472MOL0     H65111   9.692   1.864   4.680 -0.9470 -1.8743 -2.4269
  472MOL0     H65112   9.514   1.716   4.597  0.5437 -1.8076 -3.6582
  472MOL0     H65113   9.562   1.580   4.696 -2.5896  0.3077 -1.0612
  472MOL0     H65114   9.761   1.538   4.599 -0.4105  0.5912 -0.1375
  472MOL0     H65115   9.762   1.693   4.513  0.2484 -0.1334  0.8846
  472MOL0     H65116   9.648   2.287   5.343 -1.5704 -0.7476 -0.2959
  472MOL0     H65117   9.723   2.416   5.519  1.8904  0.3775  2.2382
  472MOL0     H65118  10.018   2.646   5.726  0.3583  0.8492  0.7322
  472MOL0     H65119  10.026   2.845   5.849  1.1799  0.3383  0.7005
  472MOL0     H65120   9.798   4.314   6.812 -0.3830 -0.5648 -0.9116
  472MOL0     H65121   9.576   4.210   6.809 -2.0330 -1.2383  2.5783
  472MOL0     H65122   9.373   3.677   6.570  1.3022 -1.4225  0.6795
  472MOL0     H65123   9.168   3.550   6.597 -1.5810 -0.1847  0.4791
  472MOL0     H65124   8.976   3.410   6.681 -0.6533  1.0320  0.3298
  472MOL0     H65125   9.075   3.408   6.822  0.7788  1.6050  0.6922
  472MOL0     H65126   8.779   3.460   6.838 -1.7348 -2.4085  1.1189
  472MOL0     H65127   8.878   3.440   6.974 -5.0535  1.4063  0.1538
  472MOL0     H65128   8.820   3.214   6.757 -3.0104  2.0171  0.0159
  472MOL0     H65129   8.928   3.200   6.902  1.5845 -0.1544 -1.2455
  472MOL0     H65130   8.712   3.083   6.905 -0.8379 -0.3385  1.1172
  472MOL0     H65131   8.624   3.235   6.876  1.6649  1.9869  0.6386
  472MOL0     H65132   8.658   3.281   7.276 -0.6831 -2.5689  0.1155
  472MOL0     H65133   9.064   3.756   6.940 -2.1765  2.6447 -2.9549
  472MOL0     H65134   9.239   3.855   7.087  1.6620 -1.6499  0.3440
  472MOL0     H65135   9.394   3.824   7.038  0.4140  1.2235  2.2478
  472MOL0     H65136   9.314   3.967   6.965 -0.0672  0.1161  1.2512
  473MOL0     O65137   1.806  10.426  10.563 -0.2015 -0.6513  0.0727
  473MOL0     C65138   1.828  10.509  10.471 -0.6606  0.1322 -1.5466
  473MOL0     O65139   1.730  10.578  10.408  0.1171 -0.5083  0.2482
  473MOL0     C65140   1.600  10.553  10.437 -0.0096  0.0508 -0.4157
  473MOL0     C65141   1.517  10.466  10.367 -0.1977 -0.6464 -0.0430
  473MOL0     C65142   1.375  10.460  10.408  0.6049 -0.3000 -0.3264
  473MOL0     C65143   1.320  10.547  10.501  0.1757  0.1503  0.2115
  473MOL0     O65144   1.185  10.526  10.542 -0.4597  0.0426 -0.1726
  473MOL0     C65145   1.136  10.570  10.673 -0.3734  0.0758  0.8439
  473MOL0     C65146   1.057  10.466  10.745  0.4737  0.7937  0.3318
  473MOL0     C65147   1.139  10.346  10.798 -0.1172  0.5795  0.2048
  473MOL0     C65148   1.119  10.205  10.732 -0.1737  0.1799 -0.3934
  473MOL0     C65149   1.231  10.103  10.750  1.0379  0.2152 -0.0057
  473MOL0     C65150   1.205   9.973  10.692  0.1917  0.6244 -0.1666
  473MOL0     C65151   1.165   9.973  10.555 -0.4534  0.5961 -0.3174
  473MOL0     C65152   1.287  10.017  10.464 -0.4990  0.2497 -0.0812
  473MOL0     N65153   1.248   9.999  10.319 -0.1125 -0.0600  0.3309
  473MOL0     C65154   1.169   9.893  10.272 -0.6421 -0.1486  1.1139
  473MOL0     C65155   1.223   9.867  10.146 -0.1215  0.1951  0.3939
  473MOL0     C65156   1.182   9.761  10.060  0.2330  0.0989 -0.3884
  473MOL0     C65157   1.232   9.785   9.917  0.0943 -0.4214  0.5435
  473MOL0     C65158   1.186   9.669   9.832 -0.3792  1.2211 -0.5811
  473MOL0     C65159   1.272   9.655   9.697 -0.3648  0.0598 -0.2064
  473MOL0     O65160   1.230   9.758   9.603  0.6185 -0.0949 -0.1934
  473MOL0     C65161   1.316   9.865   9.567 -0.0075 -0.0555 -0.2051
  473MOL0     C65162   1.439   9.896   9.620 -0.8329  0.3332 -0.0856
  473MOL0     C65163   1.512  10.008   9.597  0.1936  0.2896  0.1320
  473MOL0     C65164   1.651  10.015   9.663 -0.0655  0.6910  0.4542
  473MOL0     C65165   1.455  10.107   9.503 -1.4386  0.0358 -0.0475
  473MOL0     C65166   1.537  10.218   9.454 -0.6991  0.3125 -0.8518
  473MOL0     O65167   1.610  10.272   9.549  0.5554 -0.3818 -0.3830
  473MOL0     C65168   1.654  10.399   9.531 -0.2170 -0.6720  0.1799
  473MOL0     C65169   1.576  10.517   9.531  0.6865  0.1947  1.7210
  473MOL0     C65170   1.645  10.634   9.507 -0.4979 -0.7952 -1.5680
  473MOL0     C65171   1.787  10.645   9.467 -0.0914  0.4965 -0.8754
  473MOL0     O65172   1.845  10.759   9.433 -0.6524  1.0782 -1.3640
  473MOL0     C65173   1.830  10.870   9.517  0.4921 -0.1131 -1.0795
  473MOL0     C65174   1.945  10.954   9.473  0.0578 -0.2116  0.2763
  473MOL0     C65175   2.073  10.924   9.533  0.0237 -0.3270 -0.6966
  473MOL0     C65176   2.189  11.010   9.478 -0.3583  0.3361  0.6441
  473MOL0     C65177   2.306  11.019   9.586  0.2492  0.5545  0.5387
  473MOL0     C65178   2.432  11.079   9.520  0.1727 -1.0782  0.0644
  473MOL0     C65179   2.467  11.208   9.592  0.6647 -0.4787  0.2664
  473MOL0     C65180   2.610  11.254   9.567  0.9286  0.6064  0.3869
  473MOL0    Cl65181   2.633  11.428   9.615  0.2937 -0.0535 -0.0342
  473MOL0     C65182   1.858  10.526   9.471  0.0699 -1.0117 -0.0419
  473MOL0     C65183   1.786  10.406   9.484  0.6058  0.3364 -0.8621
  473MOL0     O65184   1.518  10.272   9.340  0.5415  0.5642 -0.2384
  473MOL0     C65185   1.328  10.076   9.444 -0.3782  0.3824  0.1190
  473MOL0     C65186   1.271   9.950   9.472  0.0650 -0.3854  0.2608
  473MOL0     N65187   1.329   9.955  10.124 -0.0631 -0.1280  0.1464
  473MOL0     N65188   1.348  10.026  10.231 -0.1761 -0.1139 -0.3585
  473MOL0     C65189   1.394  10.635  10.564 -0.7475  0.5428  0.1393
  473MOL0     C65190   1.531  10.627  10.534  0.0210 -0.0369  0.2356
  473MOL0     C65191   1.969  10.533  10.436  0.2751 -0.0190 -0.2647
  473MOL0     C65192   1.989  10.599  10.312 -1.0562 -0.0680 -0.3485
  473MOL0     C65193   2.119  10.622  10.264 -1.3467 -0.3921 -0.3717
  473MOL0     C65194   2.228  10.574  10.329  0.5756  0.4500  0.2674
  473MOL0     O65195   2.349  10.604  10.277 -0.6317 -0.2482 -0.9228
  473MOL0     C65196   2.413  10.497  10.201 -0.1849 -1.4041  0.4120
  473MOL0     C65197   2.343  10.471  10.068 -1.1193  0.1898  0.6247
  473MOL0     C65198   2.436  10.411   9.970 -0.4757  0.0713 -0.9683
  473MOL0     C65199   2.349  10.365   9.844  0.3117 -0.7766 -0.9056
  473MOL0     C65200   2.324  10.478   9.758 -0.3977 -0.5303 -0.1647
  473MOL0     C65201   2.312  10.578   9.694 -0.9940  0.2680 -0.0661
  473MOL0     C65202   2.211  10.505  10.449  0.4028 -0.2893 -0.1843
  473MOL0     C65203   2.085  10.493  10.511 -0.9819  0.2788 -0.0970
  473MOL0     C65204   2.081  10.436  10.649 -0.5773  0.3906  0.9469
  473MOL0     H65205   1.564  10.403  10.292  0.2732 -1.6255  1.0381
  473MOL0     H65206   1.297  10.415  10.347  1.5459  0.2802 -2.0168
  473MOL0     H65207   1.069  10.652  10.645 -0.6201 -0.2833  0.3635
  473MOL0     H65208   1.209  10.620  10.737  1.9475 -1.4912 -0.4432
  473MOL0     H65209   1.013  10.526  10.824  0.2864  0.1885  0.6945
  473MOL0     H65210   0.962  10.437  10.700  0.6970 -1.7487  1.3079
  473MOL0     H65211   1.243  10.375  10.780 -0.2828 -1.0070 -4.6120
  473MOL0     H65212   1.119  10.337  10.905  0.5815  1.6065  0.4288
  473MOL0     H65213   1.028  10.164  10.777  0.4903 -0.3273  0.4972
  473MOL0     H65214   1.100  10.216  10.625  0.2807 -0.1967 -0.5154
  473MOL0     H65215   1.259  10.090  10.855 -2.2755 -0.1304  0.9557
  473MOL0     H65216   1.317  10.147  10.698  3.1681 -1.2590  2.0815
  473MOL0     H65217   1.296   9.921  10.725 -1.1567 -0.5029  2.0805
  473MOL0     H65218   1.126   9.917  10.744  1.5047 -2.5531 -1.3158
  473MOL0     H65219   1.077  10.037  10.545 -0.8228  0.3820  1.2595
  473MOL0     H65220   1.142   9.868  10.533 -0.1922  1.1709 -3.8527
  473MOL0     H65221   1.290  10.125  10.474  3.2794  0.6475 -3.1847
  473MOL0     H65222   1.381   9.966  10.489  0.9300  2.2669 -1.0576
  473MOL0     H65223   1.100   9.825  10.321  2.9367 -1.9749  4.1914
  473MOL0     H65224   1.073   9.748  10.062  0.3001 -0.4694 -0.2873
  473MOL0     H65225   1.212   9.661  10.093 -0.2802  0.1397  0.2183
  473MOL0     H65226   1.181   9.877   9.885  2.4530  0.1510 -2.0004
  473MOL0     H65227   1.339   9.810   9.918  0.3991 -1.6456  2.2127
  473MOL0     H65228   1.192   9.579   9.894 -4.7670  2.2114  1.7146
  473MOL0     H65229   1.078   9.669   9.813 -1.0761 -3.0423  2.0416
  473MOL0     H65230   1.376   9.666   9.726 -0.1008  1.4679 -1.5480
  473MOL0     H65231   1.250   9.555   9.657  0.4067  0.3143 -1.2870
  473MOL0     H65232   1.490   9.826   9.686  2.6089  0.3578 -2.4782
  473MOL0     H65233   1.660   9.919   9.716 -0.5918 -0.8389 -2.0498
  473MOL0     H65234   1.635  10.092   9.739 -1.8172 -0.2259  1.0916
  473MOL0     H65235   1.735  10.027   9.594  1.0133 -0.7424  1.4723
  473MOL0     H65236   1.472  10.509   9.561  0.4445 -0.6126  0.7490
  473MOL0     H65237   1.584  10.723   9.518 -0.9271 -1.4336  4.6670
  473MOL0     H65238   1.735  10.921   9.499 -2.1993 -3.2731  2.5875
  473MOL0     H65239   1.840  10.850   9.624 -1.7591  1.1392 -0.5622
  473MOL0     H65240   1.948  10.959   9.363  5.8995 -0.3577  0.1607
  473MOL0     H65241   1.919  11.054   9.509  4.4443  0.8293  1.1028
  473MOL0     H65242   2.093  10.817   9.527 -1.2124 -0.5671 -0.6860
  473MOL0     H65243   2.058  10.940   9.640 -0.0308 -1.4876 -0.5262
  473MOL0     H65244   2.152  11.113   9.473  0.4466  0.6547  1.0744
  473MOL0     H65245   2.227  10.959   9.389  1.3482 -1.9814  2.5731
  473MOL0     H65246   2.270  11.072   9.675  0.8129 -1.6474  2.1795
  473MOL0     H65247   2.327  10.921   9.630 -0.3334  0.8671  1.5460
  473MOL0     H65248   2.398  11.106   9.419 -2.3348 -0.9350  0.8663
  473MOL0     H65249   2.516  11.013   9.499 -0.3878 -1.0255 -2.7297
  473MOL0     H65250   2.457  11.212   9.700 -1.6889  1.5187  0.0609
  473MOL0     H65251   2.407  11.288   9.548  1.2049 -1.1452 -1.8073
  473MOL0     H65252   2.635  11.242   9.461 -3.3898  0.5918 -0.8541
  473MOL0     H65253   2.688  11.197   9.617  1.8848  0.1221 -1.5550
  473MOL0     H65254   1.966  10.536   9.461 -0.0758 -0.8815 -2.0471
  473MOL0     H65255   1.837  10.311   9.471  0.6454 -0.0461  1.6579
  473MOL0     H65256   1.283  10.141   9.370 -1.4380 -2.5662 -2.0079
  473MOL0     H65257   1.179   9.925   9.420  0.0283  1.0120 -0.3967
  473MOL0     H65258   1.370  10.717  10.631  0.8482  1.5708 -0.4770
  473MOL0     H65259   1.588  10.709  10.577  1.1636 -0.8212  0.2591
  473MOL0     H65260   1.902  10.616  10.249 -0.4548  0.1919 -1.1274
  473MOL0     H65261   2.142  10.694  10.187  1.4962 -0.6487  0.0935
  473MOL0     H65262   2.518  10.517  10.177 -0.2601  0.1508  1.2732
  473MOL0     H65263   2.418  10.403  10.257  2.4532 -0.2802  2.2607
  473MOL0     H65264   2.324  10.572  10.030  3.0030  0.0134 -2.6922
  473MOL0     H65265   2.253  10.413  10.089 -1.9915  1.1294 -0.3588
  473MOL0     H65266   2.515  10.479   9.935 -2.7696  3.5967  0.2126
  473MOL0     H65267   2.477  10.316  10.005 -0.7812  0.1123 -0.4922
  473MOL0     H65268   2.258  10.322   9.886 -0.0483  0.1681 -0.7100
  473MOL0     H65269   2.407  10.295   9.783  1.2269 -0.4485 -0.4397
  473MOL0     H65270   2.329  10.674   9.649  2.6939  0.2948  1.0906
  473MOL0     H65271   2.302  10.463  10.491  0.4144  1.3593  1.5695
  473MOL0     H65272   2.174  10.453  10.704 -0.4383 -0.8545  1.1271
  473MOL0     H65273   2.000  10.493  10.695  0.3210  1.5861  1.0949
  473MOL0     H65274   2.064  10.328  10.644  0.6737  0.2246 -0.5178
  474MOL0     O65275   1.019   1.792   7.133 -0.3031 -0.7943 -0.3694
  474MOL0     C65276   0.923   1.865   7.144  0.4696 -0.5638  0.7261
  474MOL0     O65277   0.864   1.889   7.267  0.5165 -1.2048  0.3199
  474MOL0     C65278   0.929   1.840   7.374  0.0579  0.9206 -0.1851
  474MOL0     C65279   0.989   1.933   7.463 -0.9581  0.0651 -0.5691
  474MOL0     C65280   1.064   1.899   7.572  0.0363  0.8067 -0.0566
  474MOL0     C65281   1.081   1.760   7.611 -0.3174  0.1617  0.4533
  474MOL0     O65282   1.154   1.740   7.723 -0.2506  0.3127  0.6615
  474MOL0     C65283   1.288   1.695   7.708  0.2041 -1.8145 -0.2325
  474MOL0     C65284   1.362   1.741   7.838  0.6291  0.3818  0.4116
  474MOL0     C65285   1.509   1.698   7.840  0.1105 -1.3563 -0.3074
  474MOL0     C65286   1.572   1.768   7.957 -0.1500 -0.0698 -0.5353
  474MOL0     C65287   1.719   1.767   7.974  0.0770  0.0396  0.0528
  474MOL0     C65288   1.782   1.865   7.875  0.4004  0.1162  0.8681
  474MOL0     C65289   1.771   2.019   7.915 -0.5344  0.1404  0.7304
  474MOL0     C65290   1.732   2.095   7.776 -0.1805  1.7074 -0.7961
  474MOL0     N65291   1.586   2.066   7.760 -1.0153 -0.3721 -0.3023
  474MOL0     C65292   1.487   2.146   7.823 -0.2684 -0.2756  0.4644
  474MOL0     C65293   1.374   2.121   7.742 -1.1794 -0.3786  0.2073
  474MOL0     C65294   1.243   2.191   7.750 -0.4516 -0.0011  0.0240
  474MOL0     C65295   1.178   2.143   7.880 -0.6993 -0.2811 -0.1418
  474MOL0     C65296   1.021   2.158   7.872 -0.0142  0.3349  0.1061
  474MOL0     C65297   0.966   2.302   7.863 -0.4121 -0.7799 -0.2228
  474MOL0     O65298   0.830   2.311   7.858  0.6186 -0.1593  0.3907
  474MOL0     C65299   0.760   2.299   7.738  0.8879  0.1747  0.1683
  474MOL0     C65300   0.621   2.302   7.746 -0.2660  0.9700 -0.6928
  474MOL0     C65301   0.532   2.297   7.639 -1.1311  0.0758 -0.9635
  474MOL0     C65302   0.390   2.327   7.670  0.4171 -0.4880 -0.4737
  474MOL0     C65303   0.589   2.290   7.507  0.3677  0.2311 -0.0419
  474MOL0     C65304   0.501   2.297   7.373 -0.5425  0.1985  0.3976
  474MOL0     O65305   0.415   2.393   7.366  0.0646 -0.3845  0.2691
  474MOL0     C65306   0.319   2.416   7.262 -0.4400 -0.3354  0.2363
  474MOL0     C65307   0.335   2.392   7.127  0.5116 -0.0929 -0.1256
  474MOL0     C65308   0.233   2.412   7.036  0.5704 -0.3090  0.4348
  474MOL0     C65309   0.107   2.472   7.076  0.0346 -0.8364 -1.1768
  474MOL0     O65310   0.005   2.505   6.988 -0.2151  0.1895 -0.7548
  474MOL0     C65311  -0.013   2.435   6.868 -0.2552  0.2300  0.2257
  474MOL0     C65312  -0.075   2.297   6.899  0.1236  0.7003  0.8443
  474MOL0     C65313  -0.206   2.318   6.975  0.1763  0.3342  0.4419
  474MOL0     C65314  -0.269   2.183   6.993  0.1992 -0.0327  0.2419
  474MOL0     C65315  -0.406   2.210   7.051 -0.0161  0.1885  0.3098
  474MOL0     C65316  -0.479   2.078   7.086 -0.9362  0.4400  0.1758
  474MOL0     C65317  -0.394   2.000   7.198  0.6840  0.7487 -0.2725
  474MOL0     C65318  -0.475   1.899   7.272 -0.5865  0.1979  0.1296
  474MOL0    Cl65319  -0.508   1.772   7.156 -0.3365  0.1844  0.3358
  474MOL0     C65320   0.102   2.513   7.209  0.0869  0.7191  0.3493
  474MOL0     C65321   0.203   2.473   7.304  0.6966  0.0077 -1.0634
  474MOL0     O65322   0.531   2.233   7.275  0.1929  0.3609 -0.3849
  474MOL0     C65323   0.728   2.283   7.499  0.9290  0.7352  0.6636
  474MOL0     C65324   0.813   2.288   7.607 -0.2510 -0.0898  0.0473
  474MOL0     N65325   1.412   2.024   7.647  0.6998  0.0653 -0.0757
  474MOL0     N65326   1.539   1.998   7.656  0.2489 -0.8873 -0.0171
  474MOL0     C65327   1.026   1.658   7.524 -0.8416  0.0517  0.1964
  474MOL0     C65328   0.950   1.703   7.411  0.2549 -0.0564  0.0067
  474MOL0     C65329   0.873   1.923   7.018  0.1722  0.3913  0.1906
  474MOL0     C65330   0.738   1.955   7.005 -0.5029 -0.7681 -0.1759
  474MOL0     C65331   0.688   1.999   6.888  0.4737 -0.6598 -0.2450
  474MOL0     C65332   0.766   2.018   6.776 -0.4326 -0.9604  0.0841
  474MOL0     O65333   0.709   2.068   6.665 -0.5433 -0.1560  0.7402
  474MOL0     C65334   0.796   2.121   6.560  1.3685 -0.0848  0.3282
  474MOL0     C65335   0.713   2.236   6.501 -0.6488 -0.3732  0.2904
  474MOL0     C65336   0.731   2.258   6.346  0.6413 -0.4132  0.1305
  474MOL0     C65337   0.621   2.351   6.309  0.5317 -0.5142 -0.6240
  474MOL0     C65338   0.617   2.475   6.383 -0.1115 -0.4941  0.3796
  474MOL0     C65339   0.604   2.589   6.431  0.5656  0.7339 -0.7296
  474MOL0     C65340   0.898   1.973   6.791 -0.6526 -0.7532 -0.5053
  474MOL0     C65341   0.955   1.936   6.903 -0.0741 -0.9179 -1.2960
  474MOL0     C65342   1.097   1.886   6.884 -0.3726 -0.3337  0.7643
  474MOL0     H65343   0.980   2.038   7.438 -1.1620  0.5057  1.2512
  474MOL0     H65344   1.115   1.966   7.641 -2.0353  1.8341  0.5361
  474MOL0     H65345   1.333   1.732   7.615 -1.4679 -3.5945 -1.8569
  474MOL0     H65346   1.289   1.586   7.714 -0.7638 -1.8672 -0.7615
  474MOL0     H65347   1.343   1.848   7.851 -2.6586  0.1446 -1.3438
  474MOL0     H65348   1.316   1.691   7.924 -0.5146 -1.0364 -0.9578
  474MOL0     H65349   1.512   1.590   7.860  2.0232 -0.9006  2.4503
  474MOL0     H65350   1.561   1.726   7.748 -0.0690 -1.5215 -0.4588
  474MOL0     H65351   1.538   1.871   7.967  0.8264  0.0851  1.8396
  474MOL0     H65352   1.532   1.727   8.050 -0.3076  1.2921  0.0165
  474MOL0     H65353   1.757   1.665   7.963  0.3132  0.0726  0.5670
  474MOL0     H65354   1.737   1.805   8.074  0.7228  0.4097 -0.1966
  474MOL0     H65355   1.885   1.828   7.874  0.1187 -0.9940 -2.8856
  474MOL0     H65356   1.738   1.851   7.775 -0.3205 -0.9919  1.3244
  474MOL0     H65357   1.876   2.046   7.933  0.3605 -1.6964 -1.1854
  474MOL0     H65358   1.703   2.044   7.996 -2.3421 -1.6044 -0.1736
  474MOL0     H65359   1.764   2.199   7.785  0.0578  1.6899 -1.3698
  474MOL0     H65360   1.796   2.041   7.705 -1.4938 -1.7679  0.4301
  474MOL0     H65361   1.502   2.216   7.905  0.9289 -1.0055  0.8937
  474MOL0     H65362   1.177   2.159   7.669  2.5945  0.3480 -2.7900
  474MOL0     H65363   1.236   2.300   7.747  1.2820  0.1663  1.0015
  474MOL0     H65364   1.212   2.041   7.900  2.5706  1.2673  3.4813
  474MOL0     H65365   1.217   2.209   7.957 -0.4022  0.4263 -0.8871
  474MOL0     H65366   0.990   2.104   7.782  3.1152 -0.6779 -0.4772
  474MOL0     H65367   0.966   2.117   7.957 -1.6887  1.4165 -0.4000
  474MOL0     H65368   1.012   2.365   7.940 -0.2639  0.4048 -1.2501
  474MOL0     H65369   1.006   2.349   7.773 -1.6210  0.1442 -0.2973
  474MOL0     H65370   0.591   2.326   7.848 -0.4612 -0.3917 -0.4070
  474MOL0     H65371   0.320   2.293   7.593 -2.0360 -0.0148  1.4426
  474MOL0     H65372   0.369   2.434   7.677  1.5615  0.0003 -3.2604
  474MOL0     H65373   0.354   2.272   7.758 -0.8812 -1.5157 -1.5942
  474MOL0     H65374   0.427   2.342   7.099  0.1809 -1.4679  1.1151
  474MOL0     H65375   0.261   2.389   6.933 -0.0989  0.0607  0.1630
  474MOL0     H65376  -0.076   2.484   6.793  0.2327  0.7810  0.1742
  474MOL0     H65377   0.082   2.427   6.814 -0.5507  0.8106 -0.3925
  474MOL0     H65378  -0.091   2.252   6.800  1.6930  1.0463  0.4135
  474MOL0     H65379  -0.001   2.227   6.940 -0.2077 -0.9240 -1.1282
  474MOL0     H65380  -0.265   2.397   6.928 -2.7073 -1.2910  1.0807
  474MOL0     H65381  -0.180   2.360   7.072 -2.5859  0.5775  1.1488
  474MOL0     H65382  -0.217   2.109   7.054 -0.7652 -0.8890  0.0569
  474MOL0     H65383  -0.282   2.148   6.890  0.1671  1.2832 -0.2163
  474MOL0     H65384  -0.412   2.267   7.144 -0.6200  2.0620 -0.8450
  474MOL0     H65385  -0.449   2.270   6.971 -0.6769 -0.3829  0.2255
  474MOL0     H65386  -0.494   2.011   7.001  1.2586 -1.7255  1.3752
  474MOL0     H65387  -0.578   2.092   7.130 -1.0125  0.6496 -0.0607
  474MOL0     H65388  -0.370   2.082   7.267 -0.3007  1.3228 -0.5809
  474MOL0     H65389  -0.303   1.949   7.167  3.1299  3.3086  2.0462
  474MOL0     H65390  -0.572   1.943   7.299 -1.9498 -1.4026 -1.8225
  474MOL0     H65391  -0.421   1.867   7.361 -0.3352 -1.1241 -0.4830
  474MOL0     H65392   0.017   2.570   7.246  0.2016  2.1205 -1.4296
  474MOL0     H65393   0.203   2.503   7.408  1.5149  1.3215 -1.4228
  474MOL0     H65394   0.777   2.278   7.402 -1.4950 -0.4838 -0.5896
  474MOL0     H65395   0.920   2.291   7.591 -0.3084  1.7002 -0.2817
  474MOL0     H65396   1.039   1.553   7.548 -2.6573 -0.0545  0.8809
  474MOL0     H65397   0.900   1.635   7.343 -1.8288  2.5725 -1.2847
  474MOL0     H65398   0.682   1.940   7.096 -0.6389 -0.2267 -0.1685
  474MOL0     H65399   0.582   2.022   6.890  0.6899  0.5640 -1.3599
  474MOL0     H65400   0.891   2.156   6.602  0.8942  1.0566  0.5089
  474MOL0     H65401   0.809   2.047   6.481  3.4000  0.0060  0.5286
  474MOL0     H65402   0.749   2.328   6.547 -3.5070  1.8034 -1.5422
  474MOL0     H65403   0.610   2.221   6.533 -0.9359  1.2811  0.2261
  474MOL0     H65404   0.831   2.299   6.327  1.8216 -2.9515  0.4266
  474MOL0     H65405   0.718   2.167   6.287  0.4508  2.1244 -4.0933
  474MOL0     H65406   0.529   2.296   6.331  0.5391 -0.5080 -0.5764
  474MOL0     H65407   0.631   2.374   6.203  0.9675 -3.3267 -1.2488
  474MOL0     H65408   0.581   2.679   6.484 -0.1553 -0.0964  0.4163
  474MOL0     H65409   0.947   1.954   6.695  0.9426 -1.0329  0.3218
  474MOL0     H65410   1.166   1.899   6.968 -1.2174 -0.0306  1.4275
  474MOL0     H65411   1.094   1.785   6.842 -0.6642  0.7905 -2.1356
  474MOL0     H65412   1.142   1.953   6.810 -2.1243  1.7561  1.4590
  475MOL0     O65413   7.731   6.853   8.278 -0.4290  0.4988 -0.8646
  475MOL0     C65414   7.769   6.876   8.398  0.3894  0.4685  1.0613
  475MOL0     O65415   7.835   6.784   8.473  0.5768 -0.6017 -0.0463
  475MOL0     C65416   7.855   6.666   8.402 -0.1290 -0.6396 -1.1575
  475MOL0     C65417   7.791   6.548   8.445  0.1156  0.8285  0.3669
  475MOL0     C65418   7.843   6.423   8.402 -0.8762 -0.2258  0.7302
  475MOL0     C65419   7.961   6.404   8.330  0.2404 -0.3750 -0.6552
  475MOL0     O65420   8.013   6.279   8.299 -0.0582 -0.0610 -0.1701
  475MOL0     C65421   8.041   6.265   8.159  0.4224 -0.2106  0.5278
  475MOL0     C65422   8.068   6.116   8.131  0.2915 -0.1867  0.3120
  475MOL0     C65423   8.092   6.086   7.983 -0.0358 -0.1781 -0.0450
  475MOL0     C65424   8.111   5.932   7.981  0.5750  0.4624  0.2274
  475MOL0     C65425   8.252   5.873   8.008 -0.5011 -0.0390  0.6141
  475MOL0     C65426   8.289   5.769   7.892  0.8879 -0.6449 -0.9540
  475MOL0     C65427   8.429   5.702   7.914 -0.2507  0.4537 -0.6060
  475MOL0     C65428   8.415   5.573   8.007  0.0212 -0.4406  0.4040
  475MOL0     N65429   8.544   5.530   8.063  0.0322  0.1809  0.0196
  475MOL0     C65430   8.599   5.585   8.175  0.7974 -0.0895 -0.4795
  475MOL0     C65431   8.730   5.549   8.182  0.5726 -0.1378 -0.2808
  475MOL0     C65432   8.832   5.575   8.297  0.8815  0.0314  0.4456
  475MOL0     C65433   8.966   5.506   8.284 -0.3415 -0.5837 -0.4374
  475MOL0     C65434   8.961   5.352   8.318 -0.6193  0.1627  0.0613
  475MOL0     C65435   9.095   5.280   8.294 -0.0918 -0.5661 -0.1443
  475MOL0     O65436   9.181   5.337   8.392 -0.4413 -0.0270  0.5596
  475MOL0     C65437   9.306   5.283   8.418  0.4538 -0.1201 -0.7500
  475MOL0     C65438   9.387   5.246   8.317 -0.9888  0.1286  0.4340
  475MOL0     C65439   9.519   5.197   8.334  0.6181  0.3741  0.5303
  475MOL0     C65440   9.592   5.146   8.209 -0.4264  0.6321  0.4741
  475MOL0     C65441   9.569   5.187   8.467 -0.3263 -0.5525  0.2887
  475MOL0     C65442   9.706   5.143   8.511 -0.0571  1.2216 -0.3141
  475MOL0     O65443   9.714   5.097   8.636  0.7058  1.1465 -0.9059
  475MOL0     C65444   9.826   5.038   8.687 -0.5018  0.6979 -0.5871
  475MOL0     C65445   9.963   5.070   8.659  0.9915  0.3800  0.2632
  475MOL0     C65446  10.070   5.007   8.731 -0.4382 -0.1697  0.2001
  475MOL0     C65447  10.036   4.917   8.833 -1.1928 -0.0623  0.2222
  475MOL0     O65448  10.130   4.855   8.912 -0.4368 -0.0648 -0.1791
  475MOL0     C65449  10.270   4.858   8.870  0.5759  0.3347  0.3945
  475MOL0     C65450  10.364   4.968   8.932 -1.7639  0.6095 -0.0003
  475MOL0     C65451  10.360   4.983   9.084 -0.6909 -0.0616 -0.0370
  475MOL0     C65452  10.462   4.906   9.162  0.1133 -0.7102  0.6335
  475MOL0     C65453  10.451   4.753   9.127 -0.8696  0.3584  0.4035
  475MOL0     C65454  10.530   4.669   9.231 -0.9346  0.0658  0.0404
  475MOL0     C65455  10.487   4.707   9.375 -0.3719 -0.0615 -0.9149
  475MOL0     C65456  10.504   4.594   9.480 -0.6216 -1.3533  0.8289
  475MOL0    Cl65457  10.495   4.668   9.641  0.6991  0.3269  0.0153
  475MOL0     C65458   9.908   4.875   8.846  0.5244 -0.2415  0.0769
  475MOL0     C65459   9.800   4.947   8.786 -0.6322  0.6960 -0.2747
  475MOL0     O65460   9.804   5.149   8.442 -0.7759  0.1794  0.7238
  475MOL0     C65461   9.483   5.226   8.569 -0.5012  0.7477 -0.9765
  475MOL0     C65462   9.354   5.274   8.552 -0.1993  0.6491  0.2148
  475MOL0     N65463   8.748   5.451   8.083 -0.5819 -0.5851 -0.3828
  475MOL0     N65464   8.635   5.445   8.014 -0.0550 -0.4699  0.5059
  475MOL0     C65465   8.020   6.523   8.281 -0.6037 -0.5890  0.2449
  475MOL0     C65466   7.970   6.651   8.320 -0.2027  0.5477 -0.8890
  475MOL0     C65467   7.761   7.009   8.458 -0.1899 -0.5190  0.2340
  475MOL0     C65468   7.821   7.028   8.585  0.0050 -0.5657 -0.0148
  475MOL0     C65469   7.845   7.162   8.619  0.0800 -0.9013 -0.1331
  475MOL0     C65470   7.802   7.264   8.542 -0.1543 -0.2075  0.0472
  475MOL0     O65471   7.820   7.390   8.586  0.0111  0.4976 -0.2913
  475MOL0     C65472   7.924   7.466   8.518  0.9039  0.3415 -0.1212
  475MOL0     C65473   8.061   7.433   8.564 -0.1742  0.0492 -1.0395
  475MOL0     C65474   8.099   7.450   8.717  0.5869  0.3765 -0.2420
  475MOL0     C65475   8.248   7.443   8.742  0.4842  0.2659  1.3941
  475MOL0     C65476   8.326   7.531   8.658  0.0517 -0.5606 -0.0184
  475MOL0     C65477   8.398   7.583   8.573  0.9942 -0.8184 -0.4479
  475MOL0     C65478   7.719   7.244   8.434  0.3912 -0.2051  1.5099
  475MOL0     C65479   7.698   7.114   8.384 -0.0537  0.3094 -1.0420
  475MOL0     C65480   7.608   7.108   8.263 -0.1024  0.6309 -0.6445
  475MOL0     H65481   7.704   6.549   8.510  0.8521  2.9688  1.4234
  475MOL0     H65482   7.781   6.336   8.421  1.9912 -2.7579 -0.5995
  475MOL0     H65483   8.122   6.328   8.121 -0.7878  1.0721  0.0022
  475MOL0     H65484   7.954   6.298   8.102  0.9990  0.8037  0.2166
  475MOL0     H65485   8.162   6.098   8.185 -0.7489 -2.6341  1.4575
  475MOL0     H65486   7.991   6.064   8.189  1.3891  1.3665  3.4307
  475MOL0     H65487   7.993   6.099   7.940 -0.7267  0.6491  1.7159
  475MOL0     H65488   8.161   6.147   7.924 -0.0859  1.9025  1.9075
  475MOL0     H65489   8.032   5.879   8.033  0.5943 -1.7051 -1.7883
  475MOL0     H65490   8.087   5.903   7.878 -1.0749  1.0630  0.4233
  475MOL0     H65491   8.248   5.829   8.108 -0.5513  2.7013  1.8828
  475MOL0     H65492   8.326   5.953   8.017 -0.0341  0.3950 -4.2799
  475MOL0     H65493   8.213   5.691   7.882 -0.2371  0.5576 -2.2649
  475MOL0     H65494   8.288   5.828   7.800  0.2551 -0.5398 -0.8896
  475MOL0     H65495   8.489   5.778   7.966 -0.5930  0.7449 -0.6375
  475MOL0     H65496   8.486   5.680   7.823 -0.2434  2.1321 -1.0346
  475MOL0     H65497   8.345   5.595   8.088 -1.5928  0.4710 -1.1730
  475MOL0     H65498   8.368   5.497   7.944 -2.6438  2.5562 -1.5592
  475MOL0     H65499   8.552   5.645   8.252  0.4059 -0.0739 -0.7277
  475MOL0     H65500   8.788   5.559   8.396 -0.1870  0.8358  0.1172
  475MOL0     H65501   8.844   5.684   8.293 -0.9156  0.2304 -0.4719
  475MOL0     H65502   9.004   5.523   8.183 -0.1625 -3.1546 -0.8813
  475MOL0     H65503   9.029   5.549   8.363 -0.2591 -0.6190 -0.4834
  475MOL0     H65504   8.931   5.330   8.421  0.1528  0.5463  0.3829
  475MOL0     H65505   8.876   5.309   8.266 -3.0333  0.7412  3.2153
  475MOL0     H65506   9.077   5.175   8.316  0.6760 -0.3120  2.0148
  475MOL0     H65507   9.115   5.308   8.191 -0.2345  2.1544  0.4863
  475MOL0     H65508   9.349   5.256   8.216  5.0833 -0.5829 -2.3898
  475MOL0     H65509   9.613   5.040   8.225  1.8195  1.0755  0.7966
  475MOL0     H65510   9.689   5.192   8.192 -0.6588  0.2443 -2.4515
  475MOL0     H65511   9.542   5.149   8.112  1.2352 -1.9259 -0.5529
  475MOL0     H65512   9.983   5.138   8.577 -2.0561  0.6741 -0.3658
  475MOL0     H65513  10.171   5.042   8.709 -0.4830 -1.9494 -3.6855
  475MOL0     H65514  10.309   4.766   8.914 -1.8391  0.3094  2.7224
  475MOL0     H65515  10.278   4.850   8.761  0.4930  0.0497  0.4100
  475MOL0     H65516  10.465   4.940   8.900 -2.1187 -0.1705 -0.4855
  475MOL0     H65517  10.334   5.060   8.880  2.0609  2.0408  0.0293
  475MOL0     H65518  10.259   4.950   9.110 -1.7610  0.9774 -2.6034
  475MOL0     H65519  10.374   5.086   9.118  0.0947 -0.4188  0.7636
  475MOL0     H65520  10.448   4.936   9.266  2.8360 -1.2473  1.2490
  475MOL0     H65521  10.563   4.938   9.132 -0.1270  2.1970  2.5490
  475MOL0     H65522  10.348   4.718   9.134  0.0880 -2.3629  3.7904
  475MOL0     H65523  10.484   4.739   9.023 -0.5341 -0.7612  0.6455
  475MOL0     H65524  10.637   4.681   9.217 -0.3042 -3.2871  1.2303
  475MOL0     H65525  10.498   4.566   9.217 -2.9752  0.7737 -1.0056
  475MOL0     H65526  10.382   4.734   9.366 -0.2896 -0.2003 -2.6768
  475MOL0     H65527  10.549   4.793   9.402 -2.1517  1.4443 -1.3990
  475MOL0     H65528  10.596   4.536   9.473  1.9083  2.0216  2.8929
  475MOL0     H65529  10.416   4.532   9.462 -1.0309 -0.2838 -1.1780
  475MOL0     H65530   9.886   4.810   8.930  0.9948 -1.3589 -0.6388
  475MOL0     H65531   9.696   4.926   8.812  0.0001 -3.1919 -0.3782
  475MOL0     H65532   9.508   5.215   8.674  3.0933  0.7890 -1.6876
  475MOL0     H65533   9.291   5.306   8.634 -0.4254 -0.4726  0.4934
  475MOL0     H65534   8.113   6.511   8.226 -0.1593 -0.6623  1.0047
  475MOL0     H65535   8.007   6.742   8.275  1.8253  0.1934 -0.0563
  475MOL0     H65536   7.858   6.949   8.649 -1.5307 -1.4831 -0.2059
  475MOL0     H65537   7.891   7.185   8.715  1.3702  1.8739 -1.3044
  475MOL0     H65538   7.913   7.447   8.411  0.0967 -1.1291  0.1864
  475MOL0     H65539   7.908   7.574   8.518  2.6528  0.6374 -0.8167
  475MOL0     H65540   8.133   7.482   8.497  0.2691 -0.8669 -1.2576
  475MOL0     H65541   8.070   7.324   8.553 -2.7762 -0.3550  0.1665
  475MOL0     H65542   8.064   7.545   8.759 -1.3199  0.6260 -2.2004
  475MOL0     H65543   8.065   7.359   8.767  0.5777  0.2033 -0.5603
  475MOL0     H65544   8.268   7.338   8.717  0.1918  0.4044  0.5532
  475MOL0     H65545   8.267   7.477   8.844 -2.1859  5.7939  0.4185
  475MOL0     H65546   8.437   7.625   8.483  5.8777 -1.1390  1.2041
  475MOL0     H65547   7.667   7.320   8.376  1.8979  0.7111  1.3178
  475MOL0     H65548   7.673   7.109   8.175  1.5097 -0.6995  0.4704
  475MOL0     H65549   7.562   7.010   8.278 -0.3073  0.8188  0.0147
  475MOL0     H65550   7.531   7.182   8.243  1.7569  2.2712 -2.1428
  476MOL0     O65551   1.748   5.327  10.922 -0.0979  0.0410 -0.2132
  476MOL0     C65552   1.826   5.410  10.870  0.0511  0.1145 -0.2090
  476MOL0     O65553   1.803   5.513  10.788 -1.2423  0.0135  0.1265
  476MOL0     C65554   1.678   5.547  10.763  0.5550 -0.3244  0.4576
  476MOL0     C65555   1.569   5.457  10.731  0.0601  0.4423 -1.9291
  476MOL0     C65556   1.435   5.503  10.719 -0.1633  0.4769  0.0348
  476MOL0     C65557   1.418   5.643  10.716 -0.0327  0.6842 -0.9755
  476MOL0     O65558   1.286   5.677  10.709  0.4023  0.3163 -0.2047
  476MOL0     C65559   1.243   5.814  10.693  0.7249  0.8255 -0.8594
  476MOL0     C65560   1.248   5.859  10.545  0.1594  0.1869  0.8971
  476MOL0     C65561   1.201   6.006  10.520 -0.1920  0.5489 -0.0550
  476MOL0     C65562   1.299   6.113  10.582  0.5605 -0.9388  0.2502
  476MOL0     C65563   1.266   6.252  10.536  0.4360 -0.6598 -0.7092
  476MOL0     C65564   1.346   6.368  10.599  0.3734  0.6361 -0.8950
  476MOL0     C65565   1.329   6.511  10.533 -0.2740  1.0800  0.4613
  476MOL0     C65566   1.386   6.511  10.387 -0.2422 -0.3886 -0.2803
  476MOL0     N65567   1.276   6.536  10.293 -0.7417 -0.0995  0.2022
  476MOL0     C65568   1.208   6.653  10.272 -0.7370 -1.2246  0.0182
  476MOL0     C65569   1.119   6.614  10.174 -0.6295  1.0976  0.2986
  476MOL0     C65570   0.998   6.700  10.131  0.4637  0.3118 -1.1541
  476MOL0     C65571   1.058   6.807  10.037 -0.0531  0.7805  0.7829
  476MOL0     C65572   0.958   6.861   9.936 -0.2130  0.9347 -0.4047
  476MOL0     C65573   1.031   6.966   9.856  0.4387 -0.5133  0.2092
  476MOL0     O65574   0.928   7.035   9.782  0.6223  0.6495  0.2619
  476MOL0     C65575   0.959   7.129   9.694 -0.5909 -0.9687 -0.1230
  476MOL0     C65576   0.858   7.181   9.620  0.6195  0.3592 -0.0426
  476MOL0     C65577   0.871   7.291   9.534 -0.0390  0.8313  0.0053
  476MOL0     C65578   0.750   7.322   9.443 -0.6004 -0.6831 -0.0443
  476MOL0     C65579   1.005   7.339   9.512 -0.2985  0.3423  0.1333
  476MOL0     C65580   1.045   7.442   9.416  0.4980 -0.4403  0.9184
  476MOL0     O65581   1.175   7.467   9.391  0.7780 -0.2183 -0.0776
  476MOL0     C65582   1.209   7.571   9.311 -0.5080 -0.3962 -0.0982
  476MOL0     C65583   1.309   7.544   9.220 -0.3020 -0.8366 -0.5401
  476MOL0     C65584   1.341   7.638   9.125  0.1276 -0.0740  0.7452
  476MOL0     C65585   1.295   7.765   9.138  0.7540 -0.0078 -0.3099
  476MOL0     O65586   1.333   7.860   9.051 -0.7397  1.1391 -0.3441
  476MOL0     C65587   1.451   7.829   8.972 -0.4937 -0.0892  0.5251
  476MOL0     C65588   1.503   7.964   8.909 -0.7773  0.0585 -0.1232
  476MOL0     C65589   1.648   7.937   8.854  0.0468 -0.1699  0.0251
  476MOL0     C65590   1.626   7.890   8.705 -0.6235  0.4951 -0.2104
  476MOL0     C65591   1.776   7.858   8.654 -0.6091  0.4074 -0.1936
  476MOL0     C65592   1.782   7.798   8.511  0.1375 -0.4225 -0.0117
  476MOL0     C65593   1.921   7.813   8.441  0.0747 -0.2473 -1.5001
  476MOL0     C65594   2.021   7.701   8.476 -0.1478  0.8697 -0.2465
  476MOL0    Cl65595   1.972   7.549   8.377  0.3097 -0.1606 -0.4978
  476MOL0     C65596   1.200   7.791   9.243 -0.3894 -0.4839 -0.3842
  476MOL0     C65597   1.156   7.691   9.322  0.5403 -0.0095 -0.3789
  476MOL0     O65598   0.954   7.479   9.344  0.0862 -0.0815 -0.3841
  476MOL0     C65599   1.113   7.280   9.589  0.9395 -0.0715 -0.2669
  476MOL0     C65600   1.087   7.176   9.674 -0.5824 -0.1634 -0.4349
  476MOL0     N65601   1.129   6.472  10.144  0.8171  0.1944  0.0168
  476MOL0     N65602   1.220   6.428  10.221  0.6561 -0.1672 -0.2267
  476MOL0     C65603   1.523   5.731  10.721 -0.1641 -0.4487 -0.3737
  476MOL0     C65604   1.653   5.684  10.739 -0.1133  0.1875  0.5091
  476MOL0     C65605   1.964   5.415  10.930 -0.4312  0.3763  0.5262
  476MOL0     C65606   2.015   5.303  10.987 -0.4453  0.3741  1.1740
  476MOL0     C65607   2.147   5.284  11.038 -0.2930  0.0925  0.3500
  476MOL0     C65608   2.232   5.396  11.039 -0.2067  0.3229  0.1333
  476MOL0     O65609   2.357   5.378  11.090 -0.5307 -0.2330  0.5857
  476MOL0     C65610   2.438   5.500  11.118  0.4863  0.6443  0.7054
  476MOL0     C65611   2.392   5.579  11.242 -0.7659  0.4632 -0.5099
  476MOL0     C65612   2.507   5.671  11.294  0.0175 -0.2514 -0.4074
  476MOL0     C65613   2.551   5.783  11.196 -0.1568  0.3259 -0.5716
  476MOL0     C65614   2.633   5.887  11.260  0.8811  0.2069 -0.2346
  476MOL0     C65615   2.704   5.983  11.299  0.0982  0.4567  0.0209
  476MOL0     C65616   2.181   5.516  10.985  0.2161 -0.0736 -0.6821
  476MOL0     C65617   2.048   5.528  10.930 -0.3550 -0.3265 -0.8208
  476MOL0     C65618   2.007   5.664  10.874  0.2308 -0.7187  0.0299
  476MOL0     H65619   1.596   5.353  10.717  0.1781  0.1944 -0.0420
  476MOL0     H65620   1.351   5.438  10.698  1.8616 -1.8082 -1.5062
  476MOL0     H65621   1.302   5.871  10.766 -0.2161 -1.0897  1.5519
  476MOL0     H65622   1.136   5.815  10.718  0.3753 -2.4123 -1.8052
  476MOL0     H65623   1.351   5.848  10.511 -0.0738  0.9216 -0.0928
  476MOL0     H65624   1.184   5.787  10.494 -1.7179  0.6741  2.4244
  476MOL0     H65625   1.188   6.026  10.414 -0.1638  0.1110 -0.1436
  476MOL0     H65626   1.103   6.021  10.567 -1.7972 -2.2667 -2.2343
  476MOL0     H65627   1.296   6.108  10.691 -2.3844  0.6339  0.3541
  476MOL0     H65628   1.405   6.096  10.559  0.3922 -0.2306 -1.1883
  476MOL0     H65629   1.164   6.284  10.561  1.1703  4.0349 -2.7219
  476MOL0     H65630   1.265   6.260  10.427  2.9505  5.7033 -0.6955
  476MOL0     H65631   1.306   6.374  10.700 -0.4427  0.6838 -1.2173
  476MOL0     H65632   1.452   6.342  10.591  1.1998  2.7811  1.6856
  476MOL0     H65633   1.402   6.573  10.585  3.7921 -2.3197 -0.6130
  476MOL0     H65634   1.225   6.543  10.541 -1.2637 -0.3017 -3.9099
  476MOL0     H65635   1.464   6.583  10.362  0.5569 -1.3928 -0.7831
  476MOL0     H65636   1.441   6.418  10.369  0.1930  0.0048 -1.0141
  476MOL0     H65637   1.231   6.748  10.320 -1.5009 -1.5475  1.0735
  476MOL0     H65638   0.945   6.739  10.218  1.1863 -1.3111  0.0818
  476MOL0     H65639   0.934   6.640  10.066  0.8154  1.5277 -2.6680
  476MOL0     H65640   1.109   6.885  10.096  2.6188  0.4280 -0.9150
  476MOL0     H65641   1.139   6.754   9.986  0.5639  4.2492 -2.2937
  476MOL0     H65642   0.933   6.777   9.870 -2.4237  0.3441  1.0906
  476MOL0     H65643   0.873   6.906   9.987 -0.1715 -0.3337  0.8481
  476MOL0     H65644   1.095   7.026   9.921  2.5418  0.2864 -2.4219
  476MOL0     H65645   1.098   6.912   9.789  2.5417 -0.3655  2.0707
  476MOL0     H65646   0.763   7.130   9.620  0.7107 -0.0152  2.9061
  476MOL0     H65647   0.657   7.283   9.485 -2.5916  1.5348 -2.0872
  476MOL0     H65648   0.755   7.285   9.340 -0.6294  1.1199 -0.7194
  476MOL0     H65649   0.725   7.428   9.438  1.0625 -0.3195 -2.8063
  476MOL0     H65650   1.359   7.448   9.210  4.3343  1.1965  0.5404
  476MOL0     H65651   1.386   7.592   9.037 -2.7334 -1.1800 -0.2632
  476MOL0     H65652   1.526   7.793   9.043 -0.6506 -2.0199 -0.2380
  476MOL0     H65653   1.447   7.749   8.897  1.0832  1.3612 -1.2006
  476MOL0     H65654   1.433   7.995   8.831 -0.4432  0.1273 -0.3963
  476MOL0     H65655   1.499   8.049   8.977  0.8843  1.3621 -1.5630
  476MOL0     H65656   1.693   7.863   8.920 -1.6638  0.3644  1.9041
  476MOL0     H65657   1.698   8.034   8.861 -0.1931 -0.1803  2.9588
  476MOL0     H65658   1.578   7.952   8.629 -1.9205 -1.9181 -1.4949
  476MOL0     H65659   1.572   7.795   8.701 -2.0741  1.3111 -2.4835
  476MOL0     H65660   1.836   7.950   8.656 -3.7549  3.0923 -5.8821
  476MOL0     H65661   1.810   7.776   8.718  0.4642  0.6228 -0.4744
  476MOL0     H65662   1.707   7.854   8.456 -0.4070  0.4105  1.5235
  476MOL0     H65663   1.751   7.693   8.508 -0.6417 -0.2971  2.1901
  476MOL0     H65664   1.967   7.910   8.463 -1.0344  0.1535 -0.8505
  476MOL0     H65665   1.896   7.816   8.334 -0.8946  2.0962 -1.2894
  476MOL0     H65666   2.016   7.678   8.583 -3.6479 -0.4733 -0.5680
  476MOL0     H65667   2.125   7.731   8.460  0.7324 -1.4648  0.7101
  476MOL0     H65668   1.157   7.890   9.250  0.7407  0.3065 -3.0412
  476MOL0     H65669   1.086   7.702   9.403 -0.1612 -0.5985 -0.8890
  476MOL0     H65670   1.210   7.308   9.549  1.9081 -2.3679  0.3200
  476MOL0     H65671   1.178   7.143   9.722  0.7112 -0.2995 -2.8546
  476MOL0     H65672   1.508   5.838  10.711  0.3181 -0.2239  1.1160
  476MOL0     H65673   1.736   5.754  10.742  0.1483 -0.1319  0.8796
  476MOL0     H65674   1.954   5.213  10.988 -0.0254  0.0416 -0.2542
  476MOL0     H65675   2.174   5.187  11.079 -1.4428  0.9439  3.3921
  476MOL0     H65676   2.543   5.475  11.136  1.1700  1.0835 -2.2556
  476MOL0     H65677   2.439   5.563  11.029  0.2863 -0.8408 -0.3723
  476MOL0     H65678   2.360   5.526  11.332 -1.7761  1.5048 -0.2455
  476MOL0     H65679   2.318   5.649  11.205  1.0988  3.8721  1.7023
  476MOL0     H65680   2.464   5.727  11.378 -2.0273  2.4022 -2.9956
  476MOL0     H65681   2.593   5.608  11.319 -1.8084 -1.9313  2.0981
  476MOL0     H65682   2.466   5.833  11.148  0.4521  0.4814 -1.5084
  476MOL0     H65683   2.612   5.740  11.116  1.4783  0.6207  0.4879
  476MOL0     H65684   2.764   6.059  11.347 -1.9797  2.5777 -0.5444
  476MOL0     H65685   2.250   5.600  10.979  0.6753 -0.5322 -2.2107
  476MOL0     H65686   1.917   5.700  10.924 -0.1249  3.5635 -3.1340
  476MOL0     H65687   2.079   5.742  10.901  0.8823 -1.3794  0.2628
  476MOL0     H65688   1.995   5.671  10.766 -0.5225  0.9931  0.2047
  477MOL0     O65689   8.483   7.950   2.072  0.1790  0.7439 -0.1710
  477MOL0     C65690   8.518   8.027   1.981 -0.0154 -0.2146  0.4434
  477MOL0     O65691   8.464   8.144   1.951  0.0358 -0.4409 -0.4638
  477MOL0     C65692   8.358   8.197   2.020  0.8275  0.5611  0.2344
  477MOL0     C65693   8.241   8.236   1.954 -0.1217  0.3296  0.0301
  477MOL0     C65694   8.132   8.293   2.023 -0.8063  0.6746  0.7375
  477MOL0     C65695   8.139   8.304   2.161 -0.0919  0.5561  0.2662
  477MOL0     O65696   8.020   8.348   2.226 -0.6775  0.8764  0.0119
  477MOL0     C65697   8.034   8.398   2.364 -0.6443  0.1092  0.0795
  477MOL0     C65698   7.920   8.477   2.422  0.3840  0.3036 -0.2832
  477MOL0     C65699   7.916   8.627   2.382 -0.8108  0.3262  0.0454
  477MOL0     C65700   7.810   8.709   2.446 -0.4011  0.2272  0.3580
  477MOL0     C65701   7.749   8.825   2.358 -0.6252  0.4925 -0.1082
  477MOL0     C65702   7.622   8.877   2.419 -0.4050 -0.0044 -0.2930
  477MOL0     C65703   7.644   8.915   2.570  0.8142 -0.6467  0.3425
  477MOL0     C65704   7.514   8.947   2.637 -0.9553  0.8638 -0.5374
  477MOL0     N65705   7.426   8.834   2.654 -0.4142  0.2936 -0.1570
  477MOL0     C65706   7.456   8.715   2.711  0.4451  0.9495  0.0635
  477MOL0     C65707   7.339   8.648   2.712  0.1737  0.0062 -0.1295
  477MOL0     C65708   7.320   8.502   2.745 -1.0111 -0.0888 -0.2468
  477MOL0     C65709   7.197   8.489   2.837  1.3779  0.6393 -0.4530
  477MOL0     C65710   7.097   8.373   2.802 -0.0126  0.6399 -0.4112
  477MOL0     C65711   7.012   8.329   2.918  0.2724  0.2462 -0.1518
  477MOL0     O65712   7.093   8.248   3.007  0.6475 -0.0354 -1.0754
  477MOL0     C65713   7.070   8.111   3.006  0.4607 -0.1834 -0.1765
  477MOL0     C65714   7.010   8.035   2.901 -0.6816 -0.0696  0.0266
  477MOL0     C65715   6.989   7.901   2.928 -0.7673  0.1184  0.1169
  477MOL0     C65716   6.923   7.818   2.811 -0.4595  0.0354 -0.3774
  477MOL0     C65717   7.048   7.841   3.043  0.4548  0.2273  0.2845
  477MOL0     C65718   7.043   7.695   3.071  0.0241  0.5176  0.3317
  477MOL0     O65719   7.125   7.652   3.179 -0.4892 -0.3028  0.0899
  477MOL0     C65720   7.104   7.522   3.216 -1.5383 -0.1704 -0.5668
  477MOL0     C65721   7.205   7.430   3.183  0.4173 -0.1368  0.3254
  477MOL0     C65722   7.203   7.297   3.237  0.5917  0.6913  0.3053
  477MOL0     C65723   7.087   7.257   3.310  0.2099  0.9275  0.1024
  477MOL0     O65724   7.071   7.128   3.370 -0.8473  0.3918 -0.1331
  477MOL0     C65725   7.181   7.041   3.327 -0.1272  0.1976 -0.1682
  477MOL0     C65726   7.156   6.898   3.397 -0.1959 -0.1932 -0.1168
  477MOL0     C65727   7.154   6.896   3.554  0.6400 -0.6818 -0.4615
  477MOL0     C65728   7.175   6.763   3.632 -0.3391  0.4690  0.4903
  477MOL0     C65729   7.177   6.779   3.786 -0.1386 -0.6179 -0.7599
  477MOL0     C65730   7.189   6.649   3.850  0.7271  0.1082  0.1225
  477MOL0     C65731   7.158   6.667   4.008 -0.6729 -0.5954 -0.0529
  477MOL0     C65732   7.208   6.529   4.066 -1.3474 -0.4259  0.4978
  477MOL0    Cl65733   7.392   6.524   4.078 -0.0825  0.0950 -0.0191
  477MOL0     C65734   6.988   7.355   3.332  0.5995 -0.0584  0.2866
  477MOL0     C65735   6.996   7.489   3.294  0.2898  0.8067  0.3164
  477MOL0     O65736   6.960   7.620   3.018  0.3390 -0.1386  0.8097
  477MOL0     C65737   7.119   7.918   3.142 -0.2041 -0.7548  0.5892
  477MOL0     C65738   7.124   8.056   3.119  1.1872  0.0131 -0.0993
  477MOL0     N65739   7.238   8.708   2.650 -0.3168 -0.0283 -0.3353
  477MOL0     N65740   7.285   8.833   2.633 -0.8943  0.4650  0.8266
  477MOL0     C65741   8.260   8.272   2.227 -0.1394  0.9178  0.5649
  477MOL0     C65742   8.361   8.210   2.156 -0.0162 -0.5984 -0.7831
  477MOL0     C65743   8.626   7.977   1.884  0.8229  0.1211  0.2496
  477MOL0     C65744   8.687   8.079   1.798  0.8189 -0.2548  0.2970
  477MOL0     C65745   8.769   8.046   1.692 -0.2032 -0.1658 -0.5969
  477MOL0     C65746   8.808   7.914   1.666 -0.4686  0.0912 -0.0796
  477MOL0     O65747   8.894   7.868   1.569  0.1174 -0.9398  0.2090
  477MOL0     C65748   8.951   7.956   1.465 -0.4349  0.4304 -0.3298
  477MOL0     C65749   9.077   8.036   1.508 -0.3980 -0.0201 -0.4940
  477MOL0     C65750   9.065   8.127   1.631 -0.1173 -0.1967 -0.4254
  477MOL0     C65751   9.203   8.170   1.676 -0.6494 -0.3154  0.8594
  477MOL0     C65752   9.279   8.245   1.578 -0.1404  0.2078  0.3083
  477MOL0     C65753   9.352   8.303   1.495 -0.0629 -0.1258 -0.9319
  477MOL0     C65754   8.756   7.817   1.753 -0.5032  0.7019 -0.3647
  477MOL0     C65755   8.673   7.844   1.861  0.3572 -0.3720  0.1960
  477MOL0     C65756   8.629   7.730   1.947  0.3172 -0.0781  0.6920
  477MOL0     H65757   8.236   8.224   1.846 -0.7664 -1.8254  0.2702
  477MOL0     H65758   8.038   8.313   1.973 -0.2430  1.1759 -0.1357
  477MOL0     H65759   8.118   8.467   2.365 -1.7407  1.4699  0.5949
  477MOL0     H65760   8.055   8.307   2.421  1.6477 -0.4727 -1.5418
  477MOL0     H65761   7.827   8.427   2.392 -0.6409  2.4819 -0.9194
  477MOL0     H65762   7.922   8.467   2.531  0.9325  0.1862 -0.3023
  477MOL0     H65763   8.004   8.691   2.381 -0.9162  0.5275 -2.6054
  477MOL0     H65764   7.881   8.605   2.281 -4.4284 -0.5377  1.3063
  477MOL0     H65765   7.722   8.649   2.473 -0.3977  0.5135  1.0317
  477MOL0     H65766   7.842   8.750   2.542 -2.3685 -0.3745  1.3420
  477MOL0     H65767   7.748   8.786   2.256  0.9471  0.0784  0.0103
  477MOL0     H65768   7.817   8.910   2.343  0.6627 -0.5964 -0.7248
  477MOL0     H65769   7.587   8.968   2.369  0.9627  0.6784 -0.0664
  477MOL0     H65770   7.553   8.793   2.412 -1.6342  0.8937  0.6770
  477MOL0     H65771   7.704   9.006   2.571 -0.4962  0.2574 -0.2302
  477MOL0     H65772   7.683   8.832   2.630 -1.6395 -0.9546  1.6602
  477MOL0     H65773   7.534   8.998   2.732  2.2379 -1.7811  0.3548
  477MOL0     H65774   7.461   9.026   2.583  0.1201 -0.8861 -4.4886
  477MOL0     H65775   7.552   8.675   2.739  0.2526  0.5385  0.1492
  477MOL0     H65776   7.398   8.453   2.803 -1.9712 -0.6575  0.5822
  477MOL0     H65777   7.318   8.447   2.650  0.4104  2.8030 -2.1179
  477MOL0     H65778   7.231   8.456   2.936  1.7132  0.0764 -0.7529
  477MOL0     H65779   7.148   8.585   2.853  0.4861 -0.1854  2.3326
  477MOL0     H65780   7.035   8.410   2.720  1.6934  1.5785 -1.3378
  477MOL0     H65781   7.151   8.289   2.757 -0.4071  0.5211 -0.6685
  477MOL0     H65782   6.981   8.420   2.969  3.3226  0.7145  1.0510
  477MOL0     H65783   6.920   8.278   2.887  0.2055  0.9079 -1.1155
  477MOL0     H65784   6.976   8.073   2.805 -2.7532 -3.6287 -0.8089
  477MOL0     H65785   6.901   7.882   2.725  0.7211 -0.5648 -1.1515
  477MOL0     H65786   6.824   7.788   2.845 -1.3663  3.6804  0.6387
  477MOL0     H65787   6.981   7.732   2.777 -2.0298 -0.3914 -2.1038
  477MOL0     H65788   7.293   7.461   3.128 -1.9308  4.8330 -1.1780
  477MOL0     H65789   7.283   7.232   3.205  0.8298  0.5334  1.2088
  477MOL0     H65790   7.189   7.032   3.218 -0.1155 -2.6184 -0.0125
  477MOL0     H65791   7.282   7.073   3.354 -1.4447  2.7432  2.1756
  477MOL0     H65792   7.060   6.866   3.354 -0.5155 -0.4750  0.7958
  477MOL0     H65793   7.219   6.815   3.364 -0.0228 -1.4350  3.0497
  477MOL0     H65794   7.058   6.931   3.595  1.2230  0.4329 -0.0013
  477MOL0     H65795   7.241   6.960   3.574  0.2803  0.0889 -1.2817
  477MOL0     H65796   7.268   6.721   3.592  1.4422  4.5393 -0.1500
  477MOL0     H65797   7.100   6.692   3.597  1.7371 -0.7273 -1.8498
  477MOL0     H65798   7.261   6.840   3.818 -0.3654 -0.3477 -0.6784
  477MOL0     H65799   7.077   6.815   3.812 -1.0636 -3.0979 -0.5329
  477MOL0     H65800   7.284   6.596   3.835 -0.0698 -1.9014  1.7878
  477MOL0     H65801   7.105   6.585   3.821  0.2591  0.0153  1.6442
  477MOL0     H65802   7.051   6.680   4.024 -0.8525 -0.8324 -0.9734
  477MOL0     H65803   7.213   6.746   4.060  0.1948 -0.5866 -0.9446
  477MOL0     H65804   7.180   6.450   3.996 -2.2662  1.2374 -1.1236
  477MOL0     H65805   7.168   6.508   4.165  2.2153 -0.2073  2.1135
  477MOL0     H65806   6.899   7.328   3.388 -1.2652  0.5494 -2.2027
  477MOL0     H65807   6.923   7.564   3.320 -2.2132 -1.5476  0.4248
  477MOL0     H65808   7.174   7.884   3.229  0.4172  0.9089  0.8932
  477MOL0     H65809   7.177   8.123   3.186  0.9721  0.9534 -0.8349
  477MOL0     H65810   8.268   8.284   2.334 -1.1334 -0.7859  0.8629
  477MOL0     H65811   8.448   8.179   2.213  0.6381 -3.6041 -3.1199
  477MOL0     H65812   8.658   8.178   1.832  0.4791 -0.2971  0.1359
  477MOL0     H65813   8.800   8.130   1.632  1.2346 -0.2710 -0.0347
  477MOL0     H65814   8.981   7.897   1.379 -2.4028 -0.5030 -0.4266
  477MOL0     H65815   8.882   8.027   1.418  0.6698 -0.0757 -2.8809
  477MOL0     H65816   9.117   8.106   1.434  1.2579  2.5517  2.6239
  477MOL0     H65817   9.152   7.958   1.521 -1.8942 -1.1395  2.2192
  477MOL0     H65818   9.006   8.213   1.598 -2.2897 -1.5765 -0.3465
  477MOL0     H65819   9.012   8.079   1.714  0.5813  1.8242  1.2727
  477MOL0     H65820   9.247   8.074   1.703 -1.4577  0.0572  3.8042
  477MOL0     H65821   9.204   8.238   1.762  0.9575 -0.2070  0.7822
  477MOL0     H65822   9.416   8.349   1.422 -1.1009  2.4133 -0.3627
  477MOL0     H65823   8.780   7.717   1.719 -0.5011  0.1742  1.0843
  477MOL0     H65824   8.528   7.696   1.923 -0.1739 -0.1515  2.6283
  477MOL0     H65825   8.695   7.646   1.924 -1.0444 -0.5877 -1.6771
  477MOL0     H65826   8.624   7.756   2.054  0.2899 -2.2034  1.2580
  478MOL0     O65827   5.442   0.868   1.622 -0.5915  0.6280 -0.0397
  478MOL0     C65828   5.403   0.951   1.543 -0.3512  0.3183  0.0125
  478MOL0     O65829   5.437   0.961   1.410  0.4475  0.5898 -0.4787
  478MOL0     C65830   5.535   0.879   1.365 -0.5836  0.3549  0.3070
  478MOL0     C65831   5.655   0.840   1.425  0.0540 -0.2289 -0.4760
  478MOL0     C65832   5.742   0.756   1.351 -0.3309 -0.0833 -0.3751
  478MOL0     C65833   5.703   0.703   1.230 -0.3496  0.2629  0.3345
  478MOL0     O65834   5.783   0.625   1.149  1.0266 -0.0926  0.9012
  478MOL0     C65835   5.928   0.631   1.157  0.3366  0.7179 -0.0296
  478MOL0     C65836   5.990   0.759   1.106  0.0916 -1.0191  0.0844
  478MOL0     C65837   6.118   0.726   1.029 -0.2622  0.1980  0.3206
  478MOL0     C65838   6.097   0.662   0.891  0.2152 -0.1596 -0.2817
  478MOL0     C65839   6.222   0.675   0.810 -0.0918  0.4993 -0.1131
  478MOL0     C65840   6.205   0.636   0.671 -0.3450  0.7161  0.7445
  478MOL0     C65841   6.337   0.597   0.605  0.4343  0.6399 -0.3425
  478MOL0     C65842   6.452   0.697   0.608  1.3412  0.4112 -0.5195
  478MOL0     N65843   6.562   0.631   0.529  0.1382  0.1263 -0.2901
  478MOL0     C65844   6.594   0.661   0.396 -0.2882  0.1709 -0.9940
  478MOL0     C65845   6.680   0.564   0.363 -1.0803  0.0541  0.6724
  478MOL0     C65846   6.756   0.552   0.231 -0.0696 -0.3214  0.0024
  478MOL0     C65847   6.679   0.484   0.114  0.7989 -0.5612 -0.4672
  478MOL0     C65848   6.579   0.584   0.048  0.1241 -0.1592 -0.4655
  478MOL0     C65849   6.434   0.579   0.102 -1.2468 -0.3248  0.5815
  478MOL0     O65850   6.386   0.709   0.060 -0.5011  0.1054  0.4785
  478MOL0     C65851   6.286   0.765   0.141  0.8437 -0.4217  0.7306
  478MOL0     C65852   6.315   0.873   0.224 -0.2493 -0.4285 -0.1311
  478MOL0     C65853   6.224   0.926   0.322 -0.2621  0.4111 -0.1586
  478MOL0     C65854   6.274   1.043   0.410  0.5072 -0.1586  0.0110
  478MOL0     C65855   6.098   0.844   0.340 -0.4926  0.0910 -0.4781
  478MOL0     C65856   6.014   0.876   0.457  0.4001  0.4657 -0.3703
  478MOL0     O65857   5.883   0.833   0.428  0.1037 -0.9250 -0.1370
  478MOL0     C65858   5.793   0.856   0.532 -0.7944 -0.3830  0.6586
  478MOL0     C65859   5.728   0.977   0.522  0.7537  0.0100  0.4646
  478MOL0     C65860   5.624   0.992   0.609  0.9067 -0.4920  0.0574
  478MOL0     C65861   5.594   0.911   0.722 -0.9018  0.6058  0.1525
  478MOL0     O65862   5.495   0.918   0.813  0.3055 -0.6662  0.1926
  478MOL0     C65863   5.467   1.043   0.870 -0.2931 -0.2865 -0.4428
  478MOL0     C65864   5.540   1.042   1.002 -0.1155 -0.4311 -0.2212
  478MOL0     C65865   5.561   1.185   1.058  0.0699 -0.3042  0.6675
  478MOL0     C65866   5.655   1.180   1.174  0.4714  0.5366  0.1073
  478MOL0     C65867   5.664   1.316   1.237  0.7764 -0.3664 -0.9786
  478MOL0     C65868   5.715   1.429   1.159  0.4778  0.2574 -0.9309
  478MOL0     C65869   5.836   1.388   1.064  0.4873 -0.0061  0.6806
  478MOL0     C65870   5.889   1.508   0.999 -0.8252 -0.5613  0.1779
  478MOL0    Cl65871   6.015   1.463   0.897 -0.1154 -0.1797  0.6933
  478MOL0     C65872   5.662   0.789   0.728 -0.2409 -0.1145 -0.7998
  478MOL0     C65873   5.768   0.762   0.637  0.8975 -0.0639 -0.7369
  478MOL0     O65874   6.052   0.908   0.569  0.3522  0.2564 -0.4888
  478MOL0     C65875   6.070   0.739   0.250  0.2359 -0.3893 -0.2129
  478MOL0     C65876   6.166   0.699   0.155  0.5822 -0.7270 -0.2216
  478MOL0     N65877   6.699   0.491   0.476 -0.1944  0.3920  0.0290
  478MOL0     N65878   6.621   0.514   0.571  0.1002  0.2273  0.1636
  478MOL0     C65879   5.580   0.726   1.178  0.5225  0.0040  0.5652
  478MOL0     C65880   5.498   0.806   1.253  0.1867 -0.4960  0.1213
  478MOL0     C65881   5.284   1.029   1.574 -0.0303 -1.1864 -0.8057
  478MOL0     C65882   5.199   0.966   1.665 -0.1255 -0.0361 -0.0806
  478MOL0     C65883   5.082   1.032   1.697 -0.0134 -0.7018 -0.6106
  478MOL0     C65884   5.053   1.157   1.654  0.0077 -0.9022 -0.6875
  478MOL0     O65885   4.936   1.210   1.702 -0.1585 -0.5302  0.1349
  478MOL0     C65886   4.885   1.335   1.661  0.8929 -0.0807  0.1399
  478MOL0     C65887   4.735   1.330   1.658 -0.8921 -0.6196 -0.4071
  478MOL0     C65888   4.651   1.227   1.579  0.7502  0.0430  0.6249
  478MOL0     C65889   4.657   1.081   1.614 -0.3358 -0.0424  0.0459
  478MOL0     C65890   4.643   1.058   1.757 -0.0791  0.0690  0.8322
  478MOL0     C65891   4.618   1.027   1.871  0.7549  0.2482 -0.3519
  478MOL0     C65892   5.139   1.227   1.571 -0.1691  0.1041  0.3206
  478MOL0     C65893   5.261   1.163   1.532 -0.7198  0.0310 -0.2360
  478MOL0     C65894   5.367   1.248   1.454 -0.3722  0.5477  0.7620
  478MOL0     H65895   5.693   0.892   1.513 -1.2077 -0.1418  0.0316
  478MOL0     H65896   5.840   0.726   1.387 -1.8045 -2.3271  2.1357
  478MOL0     H65897   5.963   0.562   1.080  2.8369  1.1649  0.6214
  478MOL0     H65898   5.972   0.602   1.253  0.9838 -1.7693 -1.0021
  478MOL0     H65899   5.914   0.814   1.050 -0.4115  3.6722  4.5741
  478MOL0     H65900   6.021   0.827   1.186 -0.8085 -1.0081  0.4329
  478MOL0     H65901   6.177   0.817   1.013 -1.8165  1.7507  2.6901
  478MOL0     H65902   6.172   0.663   1.099 -2.1764 -0.9245  0.8544
  478MOL0     H65903   6.076   0.555   0.897 -0.6519 -0.0987 -1.6577
  478MOL0     H65904   6.018   0.718   0.839 -0.1369 -0.3405  0.0557
  478MOL0     H65905   6.295   0.608   0.857 -2.1787 -1.1360  0.9520
  478MOL0     H65906   6.253   0.780   0.818 -3.3002  1.4914  0.7837
  478MOL0     H65907   6.130   0.557   0.665 -1.5688  1.9263 -1.1382
  478MOL0     H65908   6.160   0.717   0.613  1.2130  0.8050 -0.3939
  478MOL0     H65909   6.307   0.568   0.504 -0.0221  0.4403 -0.1532
  478MOL0     H65910   6.377   0.508   0.653 -0.3559  1.8574  2.9098
  478MOL0     H65911   6.415   0.786   0.558 -0.7420 -0.1263 -0.0393
  478MOL0     H65912   6.481   0.717   0.712  1.9193 -1.3152 -0.3171
  478MOL0     H65913   6.559   0.744   0.336  2.0122  1.5587 -0.5403
  478MOL0     H65914   6.846   0.491   0.241  0.7376  0.6987 -0.7411
  478MOL0     H65915   6.797   0.650   0.201  1.4881 -0.3235  1.9239
  478MOL0     H65916   6.752   0.448   0.040  1.6136 -1.8653  0.9041
  478MOL0     H65917   6.628   0.397   0.156 -2.7700  1.6500  0.2044
  478MOL0     H65918   6.627   0.682   0.048  0.6298 -0.4007 -1.1368
  478MOL0     H65919   6.565   0.558  -0.058  0.7642  2.2568 -1.1962
  478MOL0     H65920   6.373   0.499   0.060  1.9163 -2.3946 -0.4407
  478MOL0     H65921   6.428   0.557   0.209 -1.5768 -0.4437  0.5400
  478MOL0     H65922   6.413   0.918   0.209 -0.7491  0.6893 -0.1582
  478MOL0     H65923   6.322   1.003   0.500  1.1047  1.0198  0.2245
  478MOL0     H65924   6.191   1.112   0.430 -0.7726 -1.2316 -1.2731
  478MOL0     H65925   6.359   1.097   0.369  0.5629 -0.1217  0.1763
  478MOL0     H65926   5.740   1.045   0.439 -0.1157  1.9815  1.8768
  478MOL0     H65927   5.567   1.084   0.607  3.0501  0.9294 -1.7755
  478MOL0     H65928   5.506   1.127   0.812  3.0565  0.4728  2.5494
  478MOL0     H65929   5.360   1.055   0.886 -0.4973  0.7358 -2.3575
  478MOL0     H65930   5.469   1.000   1.073 -1.1369  2.0643  0.3333
  478MOL0     H65931   5.634   0.987   1.002  0.6610  0.4671 -4.4788
  478MOL0     H65932   5.465   1.224   1.094  0.8543  2.5006  0.0249
  478MOL0     H65933   5.596   1.263   0.990 -0.3352  1.4075  2.3249
  478MOL0     H65934   5.755   1.154   1.138  0.8240  2.1467 -0.1488
  478MOL0     H65935   5.621   1.115   1.255  0.6090  1.7464  1.1610
  478MOL0     H65936   5.564   1.335   1.277  0.3489 -2.5275 -0.9178
  478MOL0     H65937   5.731   1.302   1.322 -0.1872 -1.3131 -0.3523
  478MOL0     H65938   5.741   1.511   1.226 -3.7310 -0.7984  2.4407
  478MOL0     H65939   5.645   1.470   1.086  2.2335  0.3755 -2.6360
  478MOL0     H65940   5.810   1.314   0.987  3.8929 -1.5261  0.8019
  478MOL0     H65941   5.914   1.337   1.122  0.6445 -0.1406  0.3488
  478MOL0     H65942   5.931   1.582   1.067 -1.9130  0.9715 -0.7500
  478MOL0     H65943   5.818   1.567   0.939 -1.6574 -3.4718 -1.9388
  478MOL0     H65944   5.649   0.723   0.813 -0.5618  2.2331  1.0868
  478MOL0     H65945   5.825   0.670   0.638  0.1002 -0.5875 -1.6495
  478MOL0     H65946   5.969   0.698   0.255 -0.7733  1.7494 -1.2723
  478MOL0     H65947   6.125   0.622   0.091 -2.8723  0.5458  0.2495
  478MOL0     H65948   5.547   0.686   1.083 -1.4092  0.6200  0.9310
  478MOL0     H65949   5.398   0.808   1.210  0.6593  1.4779 -1.0052
  478MOL0     H65950   5.207   0.865   1.704  2.1994 -0.8411 -2.3466
  478MOL0     H65951   5.019   0.981   1.769 -0.5848  1.3463  0.3915
  478MOL0     H65952   4.910   1.420   1.725 -0.9993  1.5739 -1.1767
  478MOL0     H65953   4.919   1.350   1.558  0.3104 -1.4781 -0.2850
  478MOL0     H65954   4.708   1.433   1.632 -0.2915 -1.3421 -4.5377
  478MOL0     H65955   4.697   1.319   1.760  5.0026  0.5504  2.2850
  478MOL0     H65956   4.546   1.254   1.593  0.0448 -3.2172  2.8080
  478MOL0     H65957   4.671   1.246   1.473  1.2203 -1.3556  0.4309
  478MOL0     H65958   4.752   1.040   1.577 -0.3538  3.0388 -4.1835
  478MOL0     H65959   4.581   1.032   1.553  2.7280 -2.0405 -2.4934
  478MOL0     H65960   4.583   1.015   1.972 -0.3184  1.3742 -0.5581
  478MOL0     H65961   5.118   1.328   1.537  3.4571  2.1896  3.4135
  478MOL0     H65962   5.334   1.248   1.350 -2.9349  1.4010  1.5062
  478MOL0     H65963   5.359   1.345   1.505  0.5718 -0.6955  3.4580
  478MOL0     H65964   5.472   1.226   1.473  0.1339  0.6046 -1.6592
  479MOL0     O65965   7.883   7.935   2.154  0.1084 -1.0970  0.9592
  479MOL0     C65966   7.856   7.937   2.276 -0.5626  0.0678 -0.5395
  479MOL0     O65967   7.737   7.972   2.334  0.4071 -0.7084  0.7898
  479MOL0     C65968   7.640   8.012   2.238 -0.3116 -0.5723 -0.4315
  479MOL0     C65969   7.554   7.925   2.171 -0.7821 -0.2000 -0.6849
  479MOL0     C65970   7.463   7.969   2.076 -0.2886 -0.0679  0.4865
  479MOL0     C65971   7.458   8.103   2.036  0.2194  0.8140 -0.0459
  479MOL0     O65972   7.359   8.146   1.950  0.0637 -0.4467 -0.2646
  479MOL0     C65973   7.229   8.095   1.984  0.6895 -0.2555  0.3337
  479MOL0     C65974   7.124   8.198   1.955  0.4846  0.3077 -0.3493
  479MOL0     C65975   7.016   8.214   2.064 -1.1562  0.4241 -0.0911
  479MOL0     C65976   7.103   8.265   2.192  0.8958  0.1760  0.1427
  479MOL0     C65977   7.008   8.329   2.294  0.0537  0.6244 -0.7352
  479MOL0     C65978   6.961   8.471   2.255  0.3619 -0.5645 -0.1967
  479MOL0     C65979   6.870   8.525   2.365  0.2326  0.5196 -0.0950
  479MOL0     C65980   6.897   8.678   2.403  0.2224  0.2335  0.1292
  479MOL0     N65981   6.856   8.770   2.296  0.8307  0.3706 -0.2204
  479MOL0     C65982   6.730   8.809   2.262 -0.7947  0.3662 -0.9632
  479MOL0     C65983   6.741   8.893   2.153 -0.1369  0.4130 -0.1031
  479MOL0     C65984   6.631   8.966   2.087  0.8543 -0.0692 -0.4464
  479MOL0     C65985   6.502   8.881   2.059 -0.0987 -0.2016  0.3713
  479MOL0     C65986   6.548   8.763   1.963 -0.1420  0.0099  1.1483
  479MOL0     C65987   6.429   8.674   1.933 -0.1066  0.2560 -0.9824
  479MOL0     O65988   6.325   8.739   1.861  0.1595 -0.6152 -0.0212
  479MOL0     C65989   6.350   8.746   1.736 -0.0298 -0.3528 -0.0755
  479MOL0     C65990   6.373   8.872   1.681 -0.1021  0.8642  0.0896
  479MOL0     C65991   6.383   8.888   1.535 -0.2059  0.4222  0.3188
  479MOL0     C65992   6.397   9.026   1.478  0.1861 -0.3159 -0.0363
  479MOL0     C65993   6.384   8.774   1.450  0.7730 -0.3880 -0.0964
  479MOL0     C65994   6.392   8.777   1.301 -0.3854  0.0128 -0.8920
  479MOL0     O65995   6.369   8.885   1.240 -0.2533 -0.3924  0.5050
  479MOL0     C65996   6.398   8.888   1.106 -0.0305  0.0238 -0.6857
  479MOL0     C65997   6.524   8.929   1.057 -0.2090  0.2264 -0.5880
  479MOL0     C65998   6.542   8.929   0.924  0.0676 -0.2607 -0.3474
  479MOL0     C65999   6.446   8.905   0.833  0.7386  0.8577 -0.2639
  479MOL0     O66000   6.468   8.904   0.701 -0.7020 -0.3896  0.4232
  479MOL0     C66001   6.550   8.795   0.661  0.3006 -0.1721 -0.3897
  479MOL0     C66002   6.593   8.818   0.512  0.6362 -0.6501 -0.4158
  479MOL0     C66003   6.473   8.790   0.422 -0.5071 -0.0071  0.0797
  479MOL0     C66004   6.526   8.783   0.273 -0.4962  0.5302 -0.9688
  479MOL0     C66005   6.429   8.738   0.163 -0.7967 -0.0273  1.6166
  479MOL0     C66006   6.510   8.722   0.030  0.1323  0.1773  1.2486
  479MOL0     C66007   6.415   8.664  -0.086  0.6939 -0.6277 -0.5415
  479MOL0     C66008   6.480   8.684  -0.214 -0.3179 -0.7826  0.3238
  479MOL0    Cl66009   6.513   8.859  -0.258 -0.1444 -0.1509 -0.6401
  479MOL0     C66010   6.324   8.866   0.890 -0.5369  0.2877  0.9188
  479MOL0     C66011   6.297   8.867   1.028  0.0976  0.8531  0.4869
  479MOL0     O66012   6.427   8.677   1.253 -0.1466  0.0098  0.0432
  479MOL0     C66013   6.372   8.648   1.517  0.8229 -0.4946  0.2597
  479MOL0     C66014   6.356   8.644   1.651 -0.0076  0.5446  0.2029
  479MOL0     N66015   6.878   8.903   2.132 -0.5176 -0.9937 -0.6390
  479MOL0     N66016   6.939   8.826   2.208 -0.1143  0.4330  0.2703
  479MOL0     C66017   7.536   8.202   2.104 -0.1056  0.1757 -0.3348
  479MOL0     C66018   7.627   8.148   2.198 -0.0524 -0.5421  0.8719
  479MOL0     C66019   7.980   7.932   2.362  0.4448 -1.1317 -0.0420
  479MOL0     C66020   8.105   7.954   2.295 -0.3906 -0.1483 -0.5178
  479MOL0     C66021   8.224   7.961   2.377 -0.2757 -0.3293  0.0144
  479MOL0     C66022   8.223   7.941   2.514  0.1294  0.4807  0.6130
  479MOL0     O66023   8.331   7.927   2.590 -0.2168  0.1784 -0.9523
  479MOL0     C66024   8.426   8.032   2.580 -0.0664  0.1409  0.1352
  479MOL0     C66025   8.565   7.983   2.539  0.7810 -0.4807 -0.0158
  479MOL0     C66026   8.667   8.093   2.564  0.4873  0.3626  0.1599
  479MOL0     C66027   8.799   8.020   2.545  1.2513 -0.6258  0.3834
  479MOL0     C66028   8.913   8.111   2.547  0.7422  0.0901  0.1344
  479MOL0     C66029   9.002   8.192   2.543  0.6992 -1.2939  0.3614
  479MOL0     C66030   8.100   7.919   2.576 -0.5702  0.7222  0.1231
  479MOL0     C66031   7.979   7.911   2.500 -0.1245 -0.1392 -0.1432
  479MOL0     C66032   7.852   7.864   2.572  0.3490  0.8349 -0.2727
  479MOL0     H66033   7.565   7.819   2.193  2.6225  0.4081  1.3877
  479MOL0     H66034   7.401   7.886   2.043  0.8753  0.6266 -4.1843
  479MOL0     H66035   7.230   8.055   2.086  1.5507 -0.3646  0.2859
  479MOL0     H66036   7.202   8.015   1.915 -0.0468 -0.3369  0.7083
  479MOL0     H66037   7.175   8.290   1.925 -2.3031  1.6221 -1.4389
  479MOL0     H66038   7.084   8.178   1.855  0.3501  1.0249 -0.4423
  479MOL0     H66039   6.944   8.289   2.030 -1.1474  0.8945  0.9100
  479MOL0     H66040   6.976   8.114   2.082  4.1828 -2.0879 -0.1175
  479MOL0     H66041   7.151   8.181   2.243 -3.9302 -1.7016  2.2749
  479MOL0     H66042   7.185   8.331   2.164  2.5033 -2.3440 -1.5200
  479MOL0     H66043   7.057   8.341   2.391 -0.2456  0.9137 -0.6180
  479MOL0     H66044   6.926   8.259   2.309  0.1086  0.9126  1.1372
  479MOL0     H66045   7.041   8.544   2.243 -2.5193  2.5793 -2.5351
  479MOL0     H66046   6.901   8.476   2.163  2.0618 -1.3103 -1.3908
  479MOL0     H66047   6.902   8.468   2.452 -0.4913  1.0497  0.5308
  479MOL0     H66048   6.762   8.514   2.357 -0.0028 -1.1214  3.6906
  479MOL0     H66049   6.846   8.693   2.498 -1.3866 -1.8352 -0.3372
  479MOL0     H66050   7.005   8.689   2.414  0.2652  0.9013 -0.7715
  479MOL0     H66051   6.644   8.777   2.320  1.8972  0.0878  3.3139
  479MOL0     H66052   6.675   8.998   1.992  0.3721 -1.1944 -1.0721
  479MOL0     H66053   6.591   9.045   2.150  3.9161 -0.1665  1.8607
  479MOL0     H66054   6.459   8.842   2.152  0.8515 -1.2783  0.3797
  479MOL0     H66055   6.425   8.943   2.012  1.1872  1.0289 -0.2113
  479MOL0     H66056   6.585   8.800   1.867  4.3724 -1.3214  2.1117
  479MOL0     H66057   6.628   8.704   2.008  1.7658 -1.1076 -3.2423
  479MOL0     H66058   6.476   8.588   1.885  0.1160 -1.8218  2.6043
  479MOL0     H66059   6.387   8.640   2.028 -2.4880  0.7748 -1.7747
  479MOL0     H66060   6.381   8.960   1.744  0.0914  0.2177  0.9824
  479MOL0     H66061   6.488   9.031   1.416  2.2326 -1.8985  2.6058
  479MOL0     H66062   6.404   9.097   1.560  1.0103  1.3990 -1.5353
  479MOL0     H66063   6.308   9.042   1.416 -1.3894 -1.2126  1.8848
  479MOL0     H66064   6.606   8.956   1.122  0.7825  0.3016 -1.8446
  479MOL0     H66065   6.632   8.979   0.889  1.2849 -1.1551  1.3886
  479MOL0     H66066   6.639   8.772   0.721  0.9593 -1.5293 -1.8344
  479MOL0     H66067   6.486   8.707   0.662  1.4430 -1.0457 -1.0133
  479MOL0     H66068   6.626   8.921   0.496  1.2570 -1.0329 -1.7463
  479MOL0     H66069   6.668   8.740   0.494  0.2923 -1.5788  1.8828
  479MOL0     H66070   6.403   8.874   0.422  1.5078  1.7479  0.7071
  479MOL0     H66071   6.422   8.695   0.445 -4.3537  1.5692 -1.0311
  479MOL0     H66072   6.602   8.704   0.276 -2.0291 -0.9908 -0.2769
  479MOL0     H66073   6.570   8.881   0.251  4.2958 -1.5051 -1.6468
  479MOL0     H66074   6.378   8.650   0.202  0.9037 -1.7814  0.0304
  479MOL0     H66075   6.347   8.805   0.134  1.1609  1.1227 -1.7950
  479MOL0     H66076   6.587   8.645   0.039 -0.7421 -1.4445 -2.8139
  479MOL0     H66077   6.549   8.820   0.000  0.1028 -0.1412  0.1047
  479MOL0     H66078   6.316   8.710  -0.089  1.1420  0.3176 -1.4401
  479MOL0     H66079   6.413   8.555  -0.084  3.4578 -0.9226 -3.9652
  479MOL0     H66080   6.412   8.634  -0.283  0.5722 -0.0992 -1.0983
  479MOL0     H66081   6.574   8.628  -0.218  1.9296  2.7413 -2.3378
  479MOL0     H66082   6.236   8.843   0.831 -1.2595  1.9064  1.3289
  479MOL0     H66083   6.194   8.854   1.059 -0.2235  0.9837 -0.4867
  479MOL0     H66084   6.368   8.557   1.457 -1.0806 -1.0321  1.1204
  479MOL0     H66085   6.329   8.546   1.690  0.0483  0.3120 -0.3422
  479MOL0     H66086   7.538   8.309   2.083  2.6406 -0.0807 -1.9136
  479MOL0     H66087   7.707   8.209   2.239 -1.2504  1.3177  0.5528
  479MOL0     H66088   8.110   7.956   2.186 -2.3582  3.3459 -0.6818
  479MOL0     H66089   8.318   7.973   2.324  1.1013  0.6514  2.5204
  479MOL0     H66090   8.399   8.111   2.509 -0.4321  0.9289  1.1109
  479MOL0     H66091   8.430   8.080   2.678  0.7716 -2.6163  1.5536
  479MOL0     H66092   8.579   7.976   2.430 -0.6453  1.1233 -0.3515
  479MOL0     H66093   8.578   7.887   2.589 -2.9882 -0.9977  0.2709
  479MOL0     H66094   8.650   8.174   2.492  1.6633  0.5523  0.0737
  479MOL0     H66095   8.672   8.120   2.670 -0.5856 -1.9643  0.8734
  479MOL0     H66096   8.799   7.961   2.453  0.5413 -2.1325  1.3147
  479MOL0     H66097   8.800   7.958   2.635 -1.1782  1.8022  2.2945
  479MOL0     H66098   9.088   8.254   2.529  1.8510 -3.0623 -1.0138
  479MOL0     H66099   8.099   7.916   2.684  0.0624 -2.9750  0.1776
  479MOL0     H66100   7.872   7.809   2.664 -0.5414 -0.0221 -0.5683
  479MOL0     H66101   7.796   7.958   2.569  2.6170  2.2185 -1.5470
  479MOL0     H66102   7.792   7.788   2.521 -0.3252  1.0955  0.1068
  480MOL0     O66103  10.353   8.645   0.367 -0.2864  0.3614 -0.1684
  480MOL0     C66104  10.314   8.759   0.387 -0.0583  0.0271  0.3615
  480MOL0     O66105  10.265   8.811   0.505  0.7508 -0.4504 -0.4861
  480MOL0     C66106  10.215   8.709   0.592 -0.2648 -1.4346  1.3292
  480MOL0     C66107  10.296   8.629   0.674 -0.4649 -0.1140 -0.1786
  480MOL0     C66108  10.239   8.533   0.753  0.0230  0.1640  0.0877
  480MOL0     C66109  10.098   8.511   0.747  0.0417 -0.0754 -1.0530
  480MOL0     O66110  10.027   8.429   0.835  0.0342 -0.4228 -0.2517
  480MOL0     C66111  10.080   8.408   0.965  0.2440  0.1997  0.5770
  480MOL0     C66112   9.970   8.340   1.035 -0.2036  0.8988  0.2190
  480MOL0     C66113  10.026   8.274   1.162 -0.2917 -0.3528  0.2132
  480MOL0     C66114  10.072   8.369   1.268 -0.6295  0.0996  0.5820
  480MOL0     C66115  10.096   8.296   1.399 -0.0978  0.0134 -0.1216
  480MOL0     C66116  10.139   8.399   1.515 -0.6543  0.9528 -0.3676
  480MOL0     C66117  10.219   8.339   1.639  0.3489 -0.0051  0.6592
  480MOL0     C66118  10.125   8.266   1.739  0.7432 -0.5118 -0.6655
  480MOL0     N66119  10.146   8.121   1.734 -0.2463 -0.3030 -0.1725
  480MOL0     C66120  10.124   8.042   1.619 -0.3663 -0.0936 -0.6249
  480MOL0     C66121  10.163   7.915   1.657 -0.2988 -0.2541  2.0266
  480MOL0     C66122  10.153   7.788   1.571  0.5347 -0.0843  0.2970
  480MOL0     C66123  10.042   7.798   1.462 -0.1436 -1.0631 -1.1052
  480MOL0     C66124   9.899   7.801   1.517 -0.5249  0.5736  0.5103
  480MOL0     C66125   9.847   7.678   1.586 -0.2899 -0.6455 -0.1663
  480MOL0     O66126   9.715   7.696   1.638 -0.6892  0.0184 -0.2590
  480MOL0     C66127   9.688   7.601   1.738 -0.0317  0.0956  0.1373
  480MOL0     C66128   9.588   7.634   1.825 -0.2741  0.4013  0.6037
  480MOL0     C66129   9.542   7.555   1.933 -0.5896  0.1576 -0.5052
  480MOL0     C66130   9.435   7.608   2.027  0.2751 -0.3320 -0.5477
  480MOL0     C66131   9.598   7.428   1.954  1.3000 -0.3150  0.5826
  480MOL0     C66132   9.575   7.334   2.067 -0.1579 -0.2506  0.3456
  480MOL0     O66133   9.553   7.207   2.032  0.5198 -0.0965  0.1526
  480MOL0     C66134   9.489   7.115   2.100 -0.3376  0.2518 -0.1650
  480MOL0     C66135   9.358   7.111   2.130  0.0556 -0.4038 -0.4699
  480MOL0     C66136   9.300   7.001   2.193 -0.1854  0.5931  1.3399
  480MOL0     C66137   9.380   6.888   2.231  0.0178  0.4358  0.2887
  480MOL0     O66138   9.312   6.785   2.292  0.6744 -0.1423 -0.2090
  480MOL0     C66139   9.332   6.760   2.433 -1.7104  0.3549 -0.0583
  480MOL0     C66140   9.242   6.855   2.504  0.4295 -1.6299  0.3037
  480MOL0     C66141   9.089   6.815   2.490  0.4134 -0.7158  0.8350
  480MOL0     C66142   9.048   6.700   2.582 -0.3154 -0.5184 -0.4698
  480MOL0     C66143   8.930   6.634   2.509  0.2023 -0.0560  0.3282
  480MOL0     C66144   8.864   6.523   2.590  0.4121 -1.1334  0.8270
  480MOL0     C66145   8.949   6.400   2.588  0.3418  0.6514 -0.2922
  480MOL0     C66146   8.907   6.293   2.677  0.3467  0.4147 -0.5148
  480MOL0    Cl66147   9.024   6.167   2.664 -0.1202  0.4255  0.0158
  480MOL0     C66148   9.518   6.887   2.193 -0.5939 -0.3195  0.3093
  480MOL0     C66149   9.571   7.005   2.130 -0.1392  0.2096  0.6265
  480MOL0     O66150   9.559   7.385   2.176 -0.5417 -0.5616 -0.1051
  480MOL0     C66151   9.701   7.390   1.868  0.0299 -0.0563  0.1226
  480MOL0     C66152   9.742   7.465   1.755  0.2843 -0.6453 -0.4469
  480MOL0     N66153  10.180   7.917   1.798  0.7117  0.7558 -0.0942
  480MOL0     N66154  10.189   8.036   1.832  0.1234 -0.7120  0.1079
  480MOL0     C66155  10.017   8.591   0.657 -0.2840 -0.0158 -0.2774
  480MOL0     C66156  10.077   8.682   0.574 -0.7701 -0.8904  0.4457
  480MOL0     C66157  10.327   8.857   0.273  0.7416 -0.2957 -0.0737
  480MOL0     C66158  10.296   8.993   0.305  0.4728 -0.1928  0.2215
  480MOL0     C66159  10.299   9.098   0.212  0.9958  0.7617 -0.7579
  480MOL0     C66160  10.322   9.071   0.085  0.5973  0.2334 -0.1083
  480MOL0     O66161  10.317   9.161  -0.018  0.0866  0.4097 -0.6776
  480MOL0     C66162  10.296   9.303   0.010  0.7453 -0.0129  0.0070
  480MOL0     C66163  10.378   9.382  -0.085  1.4259 -0.8988 -0.3976
  480MOL0     C66164  10.374   9.532  -0.042  0.5330 -0.6790 -0.2770
  480MOL0     C66165  10.464   9.636  -0.103  0.2151  0.1519 -0.3349
  480MOL0     C66166  10.420   9.769  -0.064 -0.4110  0.3625  0.0888
  480MOL0     C66167  10.400   9.887  -0.028  0.4011 -0.1518  0.4640
  480MOL0     C66168  10.344   8.931   0.050 -0.9311 -1.1184  0.4282
  480MOL0     C66169  10.358   8.828   0.140 -0.3573 -0.3101  0.0544
  480MOL0     C66170  10.390   8.690   0.085 -0.7291  0.7146  0.3135
  480MOL0     H66171  10.404   8.630   0.678 -0.4866  0.5682  3.2366
  480MOL0     H66172  10.302   8.468   0.812 -2.1202 -1.3578  0.8510
  480MOL0     H66173  10.102   8.497   1.024  1.3995 -0.2451  0.8530
  480MOL0     H66174  10.168   8.342   0.965  1.2350  1.4807  0.8896
  480MOL0     H66175   9.896   8.418   1.056 -2.3641 -1.2251  0.9184
  480MOL0     H66176   9.923   8.266   0.970 -1.6490  1.6637  0.3435
  480MOL0     H66177   9.947   8.214   1.208  1.8357 -0.2172  4.5374
  480MOL0     H66178  10.108   8.205   1.142  1.4522  1.5011  0.7382
  480MOL0     H66179  10.171   8.403   1.235 -0.0960 -1.6548  0.2455
  480MOL0     H66180   9.999   8.448   1.286  0.5470  1.4049 -0.1667
  480MOL0     H66181  10.173   8.219   1.391 -1.5980 -1.6883  1.1580
  480MOL0     H66182  10.003   8.246   1.424 -0.5564 -1.0386 -3.4450
  480MOL0     H66183  10.201   8.473   1.464 -1.0576  1.6248  0.1033
  480MOL0     H66184  10.046   8.448   1.548 -3.3661 -3.0649 -1.2397
  480MOL0     H66185  10.257   8.431   1.684  1.2670  0.8404 -1.6638
  480MOL0     H66186  10.300   8.276   1.601 -0.3172  0.7508 -2.2618
  480MOL0     H66187  10.145   8.286   1.844 -2.7287  0.9131 -0.1509
  480MOL0     H66188  10.019   8.281   1.720  0.3090  1.7363  2.8410
  480MOL0     H66189  10.079   8.069   1.524  0.9334  2.6635 -0.5484
  480MOL0     H66190  10.140   7.707   1.644  1.2014 -1.3832 -0.9810
  480MOL0     H66191  10.246   7.784   1.513  1.1668 -1.1983  1.3309
  480MOL0     H66192  10.060   7.889   1.404  4.2251 -0.1880  1.1980
  480MOL0     H66193  10.036   7.711   1.395  0.4730 -1.6643 -0.4058
  480MOL0     H66194   9.885   7.892   1.577 -2.0631  1.9996 -1.8338
  480MOL0     H66195   9.842   7.813   1.424  0.4165  0.2393 -0.1228
  480MOL0     H66196   9.846   7.595   1.515  1.0947 -0.5140 -0.3500
  480MOL0     H66197   9.916   7.640   1.662 -1.8566 -2.9978  0.1687
  480MOL0     H66198   9.547   7.735   1.830 -2.3338 -0.2379 -1.3036
  480MOL0     H66199   9.361   7.670   1.975  0.7679  1.2850  0.5815
  480MOL0     H66200   9.483   7.664   2.108  1.3922 -0.7376 -0.9189
  480MOL0     H66201   9.377   7.526   2.070  1.8013 -1.7342 -1.0958
  480MOL0     H66202   9.301   7.197   2.097 -1.0605 -1.2942 -0.9380
  480MOL0     H66203   9.192   7.008   2.200 -0.2263  0.4912  0.7872
  480MOL0     H66204   9.299   6.661   2.466  1.7077 -1.1064 -0.5744
  480MOL0     H66205   9.434   6.764   2.471 -1.5779  1.5783 -0.5114
  480MOL0     H66206   9.270   6.860   2.610  1.9549  2.0533 -0.1209
  480MOL0     H66207   9.262   6.953   2.459  1.1320 -1.6555  0.5578
  480MOL0     H66208   9.066   6.795   2.385  0.8091  1.6576  0.2313
  480MOL0     H66209   9.022   6.897   2.517 -0.6288 -1.1243 -0.4417
  480MOL0     H66210   9.016   6.738   2.679 -0.7296  2.8319 -1.7951
  480MOL0     H66211   9.119   6.621   2.606 -1.4217 -1.1648  0.8387
  480MOL0     H66212   8.864   6.720   2.498  1.2554  0.4683 -2.5142
  480MOL0     H66213   8.949   6.604   2.406  0.0273  1.3191 -0.1144
  480MOL0     H66214   8.766   6.516   2.542 -0.1168  1.2649  1.4216
  480MOL0     H66215   8.846   6.566   2.690 -0.1013  1.4835 -0.2934
  480MOL0     H66216   9.052   6.417   2.620  0.4575  1.6783 -1.1457
  480MOL0     H66217   8.942   6.347   2.492 -0.2090 -2.0081  1.1317
  480MOL0     H66218   8.807   6.260   2.647  0.4614  0.1634 -0.6285
  480MOL0     H66219   8.905   6.331   2.780  1.6415  1.6350 -0.9166
  480MOL0     H66220   9.592   6.812   2.215 -0.1462  0.4185  1.4476
  480MOL0     H66221   9.674   7.006   2.098 -0.2880  0.4441  0.1391
  480MOL0     H66222   9.758   7.298   1.869  3.1632  1.5949 -3.4739
  480MOL0     H66223   9.820   7.427   1.690 -0.9393 -3.4137 -0.4252
  480MOL0     H66224   9.912   8.564   0.648  0.3178 -3.3258  1.3584
  480MOL0     H66225  10.039   8.747   0.496  0.3779 -1.1147 -0.3391
  480MOL0     H66226  10.287   9.024   0.409  0.3772 -0.5866  0.3335
  480MOL0     H66227  10.261   9.189   0.258 -2.6723 -1.1475  0.3621
  480MOL0     H66228  10.193   9.337   0.022  1.7101  2.7385  1.1711
  480MOL0     H66229  10.342   9.329   0.106 -0.0215  2.7847 -0.3042
  480MOL0     H66230  10.337   9.369  -0.185  0.7370  0.1420 -0.2648
  480MOL0     H66231  10.474   9.329  -0.081 -0.3316 -4.4445 -0.5966
  480MOL0     H66232  10.272   9.570  -0.051  0.8146  0.5962  1.2956
  480MOL0     H66233  10.387   9.535   0.067 -0.2203 -2.1713 -0.1236
  480MOL0     H66234  10.444   9.626  -0.210  0.4075 -0.6846 -0.2992
  480MOL0     H66235  10.571   9.619  -0.094  0.3274  0.8420 -0.3392
  480MOL0     H66236  10.366   9.986  -0.008  0.4453  1.1232 -4.5922
  480MOL0     H66237  10.346   8.927  -0.058  0.2554  0.5463  0.3432
  480MOL0     H66238  10.387   8.682  -0.024  0.5427 -1.0632  0.3531
  480MOL0     H66239  10.481   8.657   0.136 -2.3063 -0.0987  2.7512
  480MOL0     H66240  10.318   8.624   0.133 -2.4979  3.0409  1.0176
  481MOL0     O66241   7.548   2.927   1.016 -0.0649 -0.2843 -0.8264
  481MOL0     C66242   7.575   2.932   1.139 -0.1297 -0.3390 -0.0630
  481MOL0     O66243   7.671   2.863   1.203 -1.1530 -0.5498  0.8028
  481MOL0     C66244   7.730   2.758   1.144  0.1848  0.3716  0.2349
  481MOL0     C66245   7.866   2.737   1.194  0.9368 -0.1697 -0.1170
  481MOL0     C66246   7.946   2.625   1.144 -0.0995 -0.1554 -1.0243
  481MOL0     C66247   7.895   2.551   1.031 -0.0599  0.0324  0.5339
  481MOL0     O66248   7.962   2.444   0.966  0.0133 -1.6022 -0.2277
  481MOL0     C66249   7.983   2.335   1.059 -0.5927  0.6648 -0.5715
  481MOL0     C66250   8.028   2.206   1.004 -0.7303 -0.5314  1.0371
  481MOL0     C66251   8.178   2.216   0.964 -0.2945 -0.3259 -0.7454
  481MOL0     C66252   8.222   2.090   0.887 -0.0526  0.8615 -0.5329
  481MOL0     C66253   8.366   2.109   0.840  0.0935 -0.2343 -0.0248
  481MOL0     C66254   8.476   2.145   0.951 -0.2395 -0.1322 -0.3217
  481MOL0     C66255   8.474   2.045   1.069 -0.0077 -0.1707  0.9569
  481MOL0     C66256   8.589   2.071   1.169  0.5576  0.2407 -0.0131
  481MOL0     N66257   8.595   2.210   1.210  0.1229  0.6299 -0.3856
  481MOL0     C66258   8.508   2.274   1.291 -0.6312  0.4907 -0.4703
  481MOL0     C66259   8.569   2.390   1.324 -0.6090  0.0545 -0.4082
  481MOL0     C66260   8.540   2.472   1.438 -0.2378  0.3555  0.2688
  481MOL0     C66261   8.423   2.564   1.402 -0.4881  0.1800  0.0305
  481MOL0     C66262   8.368   2.644   1.516 -0.8554  0.5175 -0.3792
  481MOL0     C66263   8.330   2.555   1.643  0.4112  0.2084  0.3375
  481MOL0     O66264   8.289   2.426   1.627 -0.3202 -0.5591  0.2427
  481MOL0     C66265   8.171   2.398   1.562  0.1912  0.2762  0.8280
  481MOL0     C66266   8.149   2.264   1.535  0.3257  0.3224  0.4307
  481MOL0     C66267   8.037   2.214   1.483  0.0990  0.2489 -0.2709
  481MOL0     C66268   8.030   2.065   1.480 -0.7656  0.0520  0.2180
  481MOL0     C66269   7.939   2.290   1.428  0.0271  0.4185 -0.6023
  481MOL0     C66270   7.817   2.236   1.360 -0.2918 -0.3992 -0.7432
  481MOL0     O66271   7.703   2.314   1.365 -0.5528  0.0478 -0.6053
  481MOL0     C66272   7.591   2.282   1.297 -1.1933 -0.0306  0.7176
  481MOL0     C66273   7.534   2.154   1.302  0.6657  0.0312 -1.0404
  481MOL0     C66274   7.416   2.127   1.233  0.5964  0.5917  0.2738
  481MOL0     C66275   7.363   2.223   1.139  0.4298 -0.0110  0.1103
  481MOL0     O66276   7.265   2.209   1.048  0.7392  1.1001  0.1459
  481MOL0     C66277   7.197   2.079   1.039  0.3871 -0.5506 -0.0287
  481MOL0     C66278   7.072   2.095   0.957 -0.9260 -0.2983  0.2428
  481MOL0     C66279   6.963   2.171   1.030  0.7390 -0.3887  0.3540
  481MOL0     C66280   6.846   2.186   0.930  0.3649 -0.8047 -0.5601
  481MOL0     C66281   6.727   2.268   1.003  0.2548 -1.1603  0.5201
  481MOL0     C66282   6.615   2.280   0.895 -0.4622 -0.4732 -0.0688
  481MOL0     C66283   6.474   2.312   0.961 -0.4586  0.0805  0.7893
  481MOL0     C66284   6.381   2.377   0.858  0.2080 -0.0640 -0.4156
  481MOL0    Cl66285   6.295   2.250   0.772 -0.2847 -0.2846  0.3096
  481MOL0     C66286   7.414   2.350   1.149 -1.1962 -0.2393  0.8273
  481MOL0     C66287   7.541   2.383   1.215  0.6164  0.1295  0.2196
  481MOL0     O66288   7.837   2.139   1.287 -0.5884  0.4713 -0.6035
  481MOL0     C66289   7.947   2.426   1.467  0.1645  0.5528 -0.3724
  481MOL0     C66290   8.059   2.479   1.532  0.0052 -0.4204  1.1034
  481MOL0     N66291   8.693   2.388   1.261  0.0420  0.3239  0.1400
  481MOL0     N66292   8.709   2.283   1.194  0.2708  0.4370  0.0645
  481MOL0     C66293   7.769   2.578   0.985 -0.8101 -1.1538 -0.2372
  481MOL0     C66294   7.684   2.675   1.034  0.6725 -0.6260  0.8403
  481MOL0     C66295   7.498   3.030   1.224 -0.2238  0.2538  0.8495
  481MOL0     C66296   7.374   3.079   1.166 -0.3442  0.6468 -1.1374
  481MOL0     C66297   7.291   3.166   1.228  0.2326  0.4086 -0.2132
  481MOL0     C66298   7.318   3.203   1.358 -0.7542  0.7922  0.1912
  481MOL0     O66299   7.228   3.267   1.435  0.3297 -0.5806  0.4635
  481MOL0     C66300   7.090   3.288   1.393 -0.6075 -0.6431 -0.0016
  481MOL0     C66301   6.993   3.298   1.504 -0.5235  0.4709  0.5459
  481MOL0     C66302   6.883   3.391   1.461 -0.8373 -0.1567  0.2804
  481MOL0     C66303   6.782   3.401   1.572  0.2477 -0.7413  0.2716
  481MOL0     C66304   6.741   3.279   1.645 -0.5119  0.8951  0.3969
  481MOL0     C66305   6.698   3.177   1.696 -0.5123 -0.7229  0.2805
  481MOL0     C66306   7.444   3.172   1.414  0.5965 -0.8392  0.2737
  481MOL0     C66307   7.532   3.085   1.347  0.0224 -0.3605 -0.2183
  481MOL0     C66308   7.666   3.061   1.404 -0.6036  0.2998 -0.0643
  481MOL0     H66309   7.902   2.800   1.274  2.0406  1.6624 -1.9652
  481MOL0     H66310   8.030   2.598   1.207 -0.7436  0.4592  0.1227
  481MOL0     H66311   7.883   2.314   1.098 -1.0084 -3.7760 -3.3271
  481MOL0     H66312   8.055   2.371   1.133 -0.3963 -0.1064 -0.3870
  481MOL0     H66313   8.010   2.125   1.076  5.9855 -0.6703  3.2567
  481MOL0     H66314   7.969   2.194   0.913 -1.4875 -0.5381  1.5212
  481MOL0     H66315   8.192   2.307   0.906 -1.4639  0.8110  0.6704
  481MOL0     H66316   8.233   2.237   1.056 -1.1934 -1.6347  0.1312
  481MOL0     H66317   8.225   1.997   0.946 -0.7727  0.2708 -1.3964
  481MOL0     H66318   8.164   2.076   0.796  0.8121 -0.6912 -0.8817
  481MOL0     H66319   8.356   2.202   0.784  1.4256  0.3584  0.6910
  481MOL0     H66320   8.396   2.031   0.769  0.2414 -1.4693  1.3394
  481MOL0     H66321   8.577   2.150   0.908  0.6791  0.1548  1.7454
  481MOL0     H66322   8.458   2.241   0.998 -0.9076  0.0575 -0.9409
  481MOL0     H66323   8.482   1.941   1.036  2.6942 -0.9765  3.6746
  481MOL0     H66324   8.376   2.059   1.116  0.2113  1.1304  1.0752
  481MOL0     H66325   8.572   2.009   1.257 -0.3681 -1.7127 -1.4919
  481MOL0     H66326   8.688   2.042   1.133  1.7645  1.9103  1.8060
  481MOL0     H66327   8.415   2.234   1.330  0.6257 -0.6000  1.5871
  481MOL0     H66328   8.628   2.534   1.455 -1.4096  1.5481  2.3489
  481MOL0     H66329   8.514   2.418   1.529 -2.3046  0.8897  0.0378
  481MOL0     H66330   8.452   2.628   1.318 -0.5919  3.0111  2.0103
  481MOL0     H66331   8.349   2.489   1.373  1.0980 -1.2869 -0.3929
  481MOL0     H66332   8.435   2.727   1.538 -0.1779  0.1571 -1.0476
  481MOL0     H66333   8.273   2.692   1.491 -1.4051  0.6558  1.7670
  481MOL0     H66334   8.420   2.553   1.705  0.6280  0.7022  0.0472
  481MOL0     H66335   8.249   2.604   1.697  1.5601  1.3381  1.1134
  481MOL0     H66336   8.220   2.185   1.558 -1.9173 -1.4436  1.7018
  481MOL0     H66337   7.927   2.034   1.495 -0.1134 -2.6812 -0.4988
  481MOL0     H66338   8.093   2.022   1.558  0.5887  0.9313 -0.3387
  481MOL0     H66339   8.047   2.027   1.379  0.0397 -2.7099  1.3214
  481MOL0     H66340   7.576   2.085   1.375  2.2103  0.6794 -1.3016
  481MOL0     H66341   7.378   2.026   1.229 -4.2172  2.0532  1.8461
  481MOL0     H66342   7.271   2.017   0.988  2.7563  2.9478 -1.2569
  481MOL0     H66343   7.163   2.047   1.138  2.5194  1.9540  1.6343
  481MOL0     H66344   7.108   2.147   0.868 -0.5855 -1.3021 -0.2302
  481MOL0     H66345   7.026   2.001   0.924 -2.4759 -0.1116  1.7369
  481MOL0     H66346   6.999   2.264   1.075  0.2519  0.4251 -0.8725
  481MOL0     H66347   6.932   2.105   1.112  1.5071 -1.2474 -0.0219
  481MOL0     H66348   6.813   2.090   0.890  0.6402 -1.5569  0.9839
  481MOL0     H66349   6.883   2.250   0.849  0.9003  0.9555  1.0061
  481MOL0     H66350   6.690   2.205   1.085 -0.3913 -5.0822 -2.4895
  481MOL0     H66351   6.751   2.371   1.030 -0.6191 -0.0475 -2.5244
  481MOL0     H66352   6.593   2.185   0.844 -2.3054  0.3076 -0.8130
  481MOL0     H66353   6.656   2.345   0.817  1.4948  1.9434  2.7930
  481MOL0     H66354   6.487   2.384   1.043 -1.7524  0.5354  0.6221
  481MOL0     H66355   6.426   2.219   0.991 -2.5110  0.4642 -1.0639
  481MOL0     H66356   6.419   2.452   0.788  2.1271  0.2372  0.8383
  481MOL0     H66357   6.299   2.426   0.911  0.0265 -1.1058  0.3115
  481MOL0     H66358   7.371   2.416   1.074  0.3101 -1.3819 -1.1248
  481MOL0     H66359   7.604   2.470   1.207  2.7508 -1.2684  1.0767
  481MOL0     H66360   7.865   2.497   1.457  1.6940  2.6633  1.0991
  481MOL0     H66361   8.064   2.576   1.579  2.7228 -0.0114  0.1605
  481MOL0     H66362   7.739   2.510   0.906 -3.1720  1.3418 -1.6708
  481MOL0     H66363   7.580   2.695   1.009  0.1687 -2.8272  0.9584
  481MOL0     H66364   7.349   3.050   1.064 -3.6814 -0.6329 -0.0604
  481MOL0     H66365   7.204   3.199   1.173  0.9731  1.2390 -0.9296
  481MOL0     H66366   7.097   3.382   1.338  1.7776  0.1617  1.5059
  481MOL0     H66367   7.041   3.216   1.327 -2.0125 -1.2481  1.6173
  481MOL0     H66368   7.039   3.341   1.593  0.8109 -1.3009  0.7676
  481MOL0     H66369   6.953   3.198   1.528 -0.1135  0.3469  0.7138
  481MOL0     H66370   6.920   3.490   1.435  0.9051 -0.9716 -0.5367
  481MOL0     H66371   6.834   3.360   1.369  1.0702  0.5897 -1.0507
  481MOL0     H66372   6.687   3.446   1.539  0.9929 -0.3442 -1.4045
  481MOL0     H66373   6.820   3.462   1.655 -0.7968  0.3572 -0.0187
  481MOL0     H66374   6.645   3.108   1.759  2.8674 -2.7927  1.1079
  481MOL0     H66375   7.487   3.216   1.503  2.6721  0.5324 -1.3048
  481MOL0     H66376   7.670   2.959   1.443 -3.0395  0.1245 -0.1283
  481MOL0     H66377   7.740   3.070   1.324 -1.2544 -3.4398 -1.2862
  481MOL0     H66378   7.687   3.132   1.484  3.2765  0.0339 -0.6418
  482MOL0     O66379  10.026  11.466   8.174  0.2495  1.2874 -0.1373
  482MOL0     C66380  10.056  11.547   8.256  1.2316  0.4592  0.4814
  482MOL0     O66381  10.156  11.643   8.234  0.6809 -0.3116  0.5237
  482MOL0     C66382  10.258  11.615   8.152 -0.2084 -0.2760 -0.8919
  482MOL0     C66383  10.309  11.731   8.086  0.3730 -0.3064 -0.1548
  482MOL0     C66384  10.421  11.735   8.009 -0.1334  0.8570  0.5512
  482MOL0     C66385  10.487  11.614   7.975 -0.4707 -0.1346 -0.0777
  482MOL0     O66386  10.598  11.610   7.895 -0.3551  0.3792 -0.5048
  482MOL0     C66387  10.580  11.587   7.749  0.1660 -0.4039 -0.5607
  482MOL0     C66388  10.614  11.716   7.668 -0.0623  0.3650  0.1766
  482MOL0     C66389  10.586  11.694   7.519  0.2366  0.4143 -1.0495
  482MOL0     C66390  10.709  11.638   7.463 -0.3796  0.1757 -0.0561
  482MOL0     C66391  10.673  11.587   7.316  0.2639 -0.9355 -0.2442
  482MOL0     C66392  10.786  11.507   7.254 -0.3382  0.0226 -0.5200
  482MOL0     C66393  10.779  11.498   7.100  0.4372  0.7593 -0.2242
  482MOL0     C66394  10.920  11.478   7.056  0.2209 -0.3087 -0.0691
  482MOL0     N66395  10.916  11.464   6.907  0.4268  0.3342  0.1189
  482MOL0     C66396  10.910  11.344   6.835 -0.5725  0.4876 -0.0157
  482MOL0     C66397  10.903  11.374   6.702 -0.0187 -0.5192  0.0233
  482MOL0     C66398  10.926  11.275   6.597  0.4824 -0.3716  0.6244
  482MOL0     C66399  11.046  11.181   6.632  0.0893  0.9164 -0.4848
  482MOL0     C66400  11.171  11.271   6.659 -0.0661  0.0628 -0.9848
  482MOL0     C66401  11.294  11.180   6.636  1.0628 -0.1551  1.4201
  482MOL0     O66402  11.294  11.058   6.716 -0.0619 -0.2470  1.0517
  482MOL0     C66403  11.335  10.944   6.648 -0.4739 -1.2065 -0.3954
  482MOL0     C66404  11.257  10.832   6.658 -0.3345  0.6597 -0.4938
  482MOL0     C66405  11.301  10.712   6.597  0.3368 -1.5316 -0.0607
  482MOL0     C66406  11.216  10.592   6.639  0.6387 -0.1338  0.5346
  482MOL0     C66407  11.419  10.705   6.525  0.8134  0.2898 -0.2089
  482MOL0     C66408  11.469  10.581   6.464 -0.6035 -0.3735  0.0514
  482MOL0     O66409  11.574  10.589   6.367 -0.0449  0.2140 -0.1004
  482MOL0     C66410  11.581  10.485   6.285 -0.0991 -0.0484 -0.0168
  482MOL0     C66411  11.660  10.371   6.314 -0.0110 -0.1170 -0.0821
  482MOL0     C66412  11.651  10.258   6.227 -0.6865 -0.8455 -0.0849
  482MOL0     C66413  11.577  10.260   6.115 -0.8278  0.2026  0.1682
  482MOL0     O66414  11.588  10.155   6.026 -0.0944 -0.2749 -0.0274
  482MOL0     C66415  11.720  10.098   5.986  0.7361 -0.6630 -0.1154
  482MOL0     C66416  11.736  10.098   5.832  0.8574 -0.7298 -0.0993
  482MOL0     C66417  11.741  10.250   5.785 -0.3719 -0.6252  0.5470
  482MOL0     C66418  11.794  10.243   5.641  0.7271  0.1160  0.4175
  482MOL0     C66419  11.837  10.379   5.583 -0.9500 -0.8847 -0.5527
  482MOL0     C66420  11.903  10.396   5.445  0.0083 -0.4185 -0.0933
  482MOL0     C66421  12.027  10.499   5.452 -1.0185  0.2730  0.4417
  482MOL0     C66422  12.007  10.647   5.475 -0.2890 -0.7453 -0.7297
  482MOL0    Cl66423  12.152  10.699   5.566 -0.1851 -0.0897 -0.1503
  482MOL0     C66424  11.502  10.370   6.079  0.0727  0.1177 -0.3147
  482MOL0     C66425  11.500  10.483   6.165 -0.3912 -0.6927  0.0692
  482MOL0     O66426  11.415  10.478   6.498  0.1469 -0.3773 -0.1395
  482MOL0     C66427  11.494  10.819   6.507 -0.0648  0.1971  0.4563
  482MOL0     C66428  11.453  10.939   6.569 -0.1018 -0.9241 -0.8222
  482MOL0     N66429  10.898  11.513   6.693  0.2347  0.0645 -0.0262
  482MOL0     N66430  10.912  11.559   6.814 -0.8594 -0.4711 -0.4714
  482MOL0     C66431  10.440  11.500   8.041  0.9312  0.5568 -0.2393
  482MOL0     C66432  10.326  11.497   8.123 -0.0762 -0.8925 -0.2329
  482MOL0     C66433   9.978  11.541   8.383  0.6560 -0.3831  0.1706
  482MOL0     C66434   9.868  11.449   8.395  0.2089  0.6608  0.1774
  482MOL0     C66435   9.795  11.450   8.515 -0.2253 -0.2595  0.0348
  482MOL0     C66436   9.820  11.533   8.619  0.3041 -0.1435  0.0242
  482MOL0     O66437   9.749  11.513   8.738  0.5162 -0.3447 -0.1503
  482MOL0     C66438   9.769  11.597   8.855 -0.9729  0.5766  0.0207
  482MOL0     C66439   9.873  11.536   8.940 -0.4386  1.1174  0.5348
  482MOL0     C66440   9.883  11.604   9.082  0.9175 -0.2981 -0.0264
  482MOL0     C66441   9.760  11.583   9.186 -0.4822  0.4259 -0.4000
  482MOL0     C66442   9.795  11.671   9.300 -0.7513  0.2485  0.0265
  482MOL0     C66443   9.828  11.750   9.390 -1.1016 -0.1415 -0.5619
  482MOL0     C66444   9.919  11.631   8.603 -0.0077  0.0151  0.1047
  482MOL0     C66445   9.999  11.637   8.490 -0.2048  0.0896  0.8620
  482MOL0     C66446  10.119  11.746   8.488  0.7791  0.1597  0.2938
  482MOL0     H66447  10.256  11.822   8.110  0.3796 -0.7681  1.8050
  482MOL0     H66448  10.467  11.824   7.966  3.2336 -2.2979 -3.1461
  482MOL0     H66449  10.483  11.538   7.737  1.6544 -3.2583 -2.2091
  482MOL0     H66450  10.653  11.512   7.717  0.7110  0.4613 -1.3825
  482MOL0     H66451  10.548  11.795   7.707 -0.3524  0.5400 -0.6436
  482MOL0     H66452  10.715  11.751   7.691  0.6054 -1.4548  0.1145
  482MOL0     H66453  10.499  11.627   7.509  0.6254 -0.1354 -0.8157
  482MOL0     H66454  10.552  11.788   7.475 -2.7238  0.1521  0.3846
  482MOL0     H66455  10.784  11.716   7.454 -0.1702 -0.0209 -0.0349
  482MOL0     H66456  10.749  11.554   7.522 -1.7541 -0.7875 -0.4369
  482MOL0     H66457  10.654  11.670   7.248 -1.3049 -1.2357 -0.2157
  482MOL0     H66458  10.580  11.530   7.326  0.9065 -1.5937  4.0085
  482MOL0     H66459  10.882  11.553   7.280  1.0490 -2.6839 -0.4500
  482MOL0     H66460  10.776  11.404   7.291 -1.9574  0.0890 -0.7262
  482MOL0     H66461  10.731  11.586   7.057  0.1684  0.3298 -0.8198
  482MOL0     H66462  10.718  11.410   7.079 -1.2667  0.4316  4.7688
  482MOL0     H66463  10.980  11.565   7.082  1.8370 -1.2055 -0.6358
  482MOL0     H66464  10.971  11.398   7.110  3.0431 -0.8729 -3.2592
  482MOL0     H66465  10.924  11.251   6.890  3.2864  1.0479  0.2238
  482MOL0     H66466  10.950  11.332   6.507  3.5999  0.6408  1.9624
  482MOL0     H66467  10.840  11.210   6.579 -1.5506  2.4799 -0.8161
  482MOL0     H66468  11.036  11.103   6.708 -0.4315  1.9147  0.5017
  482MOL0     H66469  11.064  11.111   6.550 -0.1328 -0.1150  0.3161
  482MOL0     H66470  11.170  11.352   6.585 -0.9662 -0.1420 -1.2023
  482MOL0     H66471  11.167  11.307   6.762  1.1920 -3.8018  0.5823
  482MOL0     H66472  11.284  11.142   6.534 -0.5926  0.1107  1.4455
  482MOL0     H66473  11.389  11.232   6.644  2.7770 -2.5392 -1.2237
  482MOL0     H66474  11.171  10.835   6.725  2.0955  1.5684  2.8317
  482MOL0     H66475  11.174  10.529   6.561 -0.1004 -1.4104  1.9097
  482MOL0     H66476  11.121  10.626   6.682 -0.4846 -1.7485 -0.5700
  482MOL0     H66477  11.269  10.536   6.717  1.4088  1.2808  1.0643
  482MOL0     H66478  11.727  10.378   6.399  0.6057  1.8950 -0.6776
  482MOL0     H66479  11.722  10.176   6.237 -0.7537 -0.9516 -0.4820
  482MOL0     H66480  11.805  10.140   6.041  1.4847 -2.7689  0.4214
  482MOL0     H66481  11.712   9.991   6.008 -1.0623 -0.6558 -0.5892
  482MOL0     H66482  11.827  10.043   5.805  1.7195  1.1250 -1.1790
  482MOL0     H66483  11.655  10.047   5.778  3.2931 -1.9976 -2.8892
  482MOL0     H66484  11.825  10.304   5.831  1.9232  0.4175 -4.1687
  482MOL0     H66485  11.646  10.304   5.790  0.0324  0.3258 -1.0237
  482MOL0     H66486  11.713  10.214   5.573  0.3124  1.6755  0.1972
  482MOL0     H66487  11.875  10.169   5.638 -1.7080 -2.8905  2.8840
  482MOL0     H66488  11.756  10.453   5.587  0.3004  0.4680  2.2933
  482MOL0     H66489  11.917  10.401   5.654 -1.4494  1.3510 -0.5948
  482MOL0     H66490  11.831  10.440   5.376 -1.3833 -0.6682  1.1578
  482MOL0     H66491  11.936  10.295   5.420  2.6746 -0.5763  3.2452
  482MOL0     H66492  12.080  10.476   5.359 -3.3266  2.2050 -1.4789
  482MOL0     H66493  12.095  10.464   5.531  0.6876  0.6684 -0.7837
  482MOL0     H66494  11.914  10.665   5.530  0.5387  0.0435  0.4723
  482MOL0     H66495  11.994  10.699   5.380  0.3492 -0.6368 -0.7619
  482MOL0     H66496  11.455  10.362   5.982  1.6601 -0.2124 -1.0954
  482MOL0     H66497  11.431  10.563   6.138 -2.2846 -2.2824 -0.0211
  482MOL0     H66498  11.581  10.815   6.443 -0.8541  0.4985 -0.6609
  482MOL0     H66499  11.511  11.030   6.555 -1.8665  0.1672 -1.3500
  482MOL0     H66500  10.486  11.402   8.031  0.5685  0.2751  0.7660
  482MOL0     H66501  10.296  11.401   8.166 -2.8235 -0.2071 -0.4385
  482MOL0     H66502   9.844  11.382   8.312  1.0118 -0.7151  1.0288
  482MOL0     H66503   9.703  11.394   8.525 -1.8881  2.1174 -0.7319
  482MOL0     H66504   9.794  11.700   8.829  0.9000  0.4315  1.0817
  482MOL0     H66505   9.675  11.592   8.910 -0.7832  1.5859  0.4544
  482MOL0     H66506   9.967  11.541   8.885 -0.1798  0.3045  0.8737
  482MOL0     H66507   9.849  11.430   8.955  1.0857  0.6753  0.0054
  482MOL0     H66508   9.973  11.574   9.135 -0.2773 -1.5920  1.3766
  482MOL0     H66509   9.888  11.710   9.058 -0.9857 -0.0641  0.4183
  482MOL0     H66510   9.759  11.480   9.223  0.4460  0.5103 -0.1136
  482MOL0     H66511   9.664  11.613   9.143  0.3768  2.8149 -0.7775
  482MOL0     H66512   9.858  11.813   9.471  1.3578  1.2188 -2.3941
  482MOL0     H66513   9.937  11.701   8.683  0.6207  1.0630 -0.9201
  482MOL0     H66514  10.096  11.828   8.419 -3.3048 -0.1589  0.9906
  482MOL0     H66515  10.125  11.795   8.586 -0.7376 -0.4707  0.7287
  482MOL0     H66516  10.216  11.702   8.466  0.4956 -1.4601  2.0645
  483MOL0     O66517   2.650   8.316   9.920 -0.3252  0.0030 -0.1064
  483MOL0     C66518   2.562   8.393   9.955 -0.1569 -0.3649 -0.0903
  483MOL0     O66519   2.550   8.449  10.074 -0.5509 -0.0557 -0.1449
  483MOL0     C66520   2.602   8.397  10.188 -0.1299  0.2506 -0.3530
  483MOL0     C66521   2.682   8.468  10.282  0.3654 -0.2007 -0.6256
  483MOL0     C66522   2.738   8.406  10.391  0.8284 -0.8170  0.8104
  483MOL0     C66523   2.712   8.275  10.420  0.5089 -0.1610  0.7661
  483MOL0     O66524   2.759   8.231  10.541 -0.0782  0.7104 -1.0514
  483MOL0     C66525   2.717   8.104  10.596  0.9341 -1.4069 -0.8124
  483MOL0     C66526   2.585   8.120  10.674  0.6519  0.7023  0.1585
  483MOL0     C66527   2.530   7.996  10.741  0.2224 -0.5657  0.2193
  483MOL0     C66528   2.500   7.879  10.661 -0.2960 -0.3592 -1.0772
  483MOL0     C66529   2.427   7.901  10.531 -0.2613 -0.2906  0.1175
  483MOL0     C66530   2.294   7.971  10.555  0.6138 -0.3915 -0.6088
  483MOL0     C66531   2.194   7.932  10.445 -0.5176  1.3769  0.1695
  483MOL0     C66532   2.060   8.019  10.445 -0.1961 -0.1993 -0.4094
  483MOL0     N66533   1.942   7.960  10.373  0.2983 -0.3698 -0.6594
  483MOL0     C66534   1.931   7.825  10.352  0.7505  1.0035  0.1787
  483MOL0     C66535   1.808   7.823  10.295 -0.2473 -0.1150  0.1265
  483MOL0     C66536   1.742   7.693  10.254 -0.5531 -0.2352 -0.6036
  483MOL0     C66537   1.610   7.662  10.317 -0.6883  0.7620 -0.9176
  483MOL0     C66538   1.551   7.521  10.279  0.2769 -0.7212  0.1463
  483MOL0     C66539   1.498   7.441  10.392  0.2109  0.1368 -0.9970
  483MOL0     O66540   1.589   7.330  10.426 -0.5705 -0.0823 -0.3361
  483MOL0     C66541   1.527   7.230  10.496 -0.3528 -0.5476  1.4575
  483MOL0     C66542   1.539   7.104  10.426  0.1311 -0.8405 -0.3699
  483MOL0     C66543   1.492   6.991  10.490  0.1598  0.2247 -0.8443
  483MOL0     C66544   1.510   6.872  10.405 -0.4484  0.0085 -0.8523
  483MOL0     C66545   1.424   6.998  10.617  0.8292  0.3786 -0.3296
  483MOL0     C66546   1.350   6.884  10.669  0.7101 -0.3958 -0.1501
  483MOL0     O66547   1.312   6.890  10.805 -0.3408 -0.2670  0.0664
  483MOL0     C66548   1.232   6.795  10.860 -0.0328  0.3347 -0.7815
  483MOL0     C66549   1.122   6.844  10.928  0.3443 -0.2972 -0.1201
  483MOL0     C66550   1.034   6.748  10.992 -0.7584 -0.2503 -0.6807
  483MOL0     C66551   1.055   6.608  10.986  0.3410 -0.1612  0.1040
  483MOL0     O66552   0.987   6.511  11.056 -0.6855 -0.0615  0.2830
  483MOL0     C66553   0.912   6.549  11.172 -0.3525 -0.5278  0.7101
  483MOL0     C66554   0.838   6.429  11.231 -0.5084 -0.6415 -0.2734
  483MOL0     C66555   0.750   6.356  11.121 -0.6883  0.3286  0.6204
  483MOL0     C66556   0.640   6.275  11.183 -0.9419 -0.4338  0.1013
  483MOL0     C66557   0.697   6.170  11.273 -0.4975 -0.9052 -0.2570
  483MOL0     C66558   0.596   6.073  11.323 -0.2037 -0.0434  0.4377
  483MOL0     C66559   0.476   6.141  11.396 -0.0438 -0.5311  0.0099
  483MOL0     C66560   0.382   6.042  11.455  0.2988 -0.3717 -0.1500
  483MOL0    Cl66561   0.231   6.112  11.519 -0.1761  0.0044  0.1661
  483MOL0     C66562   1.156   6.562  10.906 -0.1564  0.5746 -0.4190
  483MOL0     C66563   1.249   6.647  10.848 -0.0316  0.2292 -0.1083
  483MOL0     O66564   1.302   6.803  10.584  0.0651 -0.5933 -0.0006
  483MOL0     C66565   1.422   7.123  10.685 -0.1564 -1.0509  0.2711
  483MOL0     C66566   1.477   7.237  10.626  0.0119  0.2351  0.6612
  483MOL0     N66567   1.755   7.943  10.268  0.0596  0.7911 -0.3453
  483MOL0     N66568   1.849   8.032  10.306 -0.1416  0.3325 -0.1415
  483MOL0     C66569   2.651   8.195  10.323  0.5055 -0.7471 -1.0494
  483MOL0     C66570   2.599   8.259  10.209  0.2654 -0.6128  0.6819
  483MOL0     C66571   2.459   8.422   9.847 -0.0161  0.4805 -0.2369
  483MOL0     C66572   2.422   8.324   9.751 -0.1654 -0.1420  0.3156
  483MOL0     C66573   2.316   8.338   9.656  0.8519  0.6797 -0.0553
  483MOL0     C66574   2.253   8.463   9.651 -0.0993  0.6393  0.2755
  483MOL0     O66575   2.152   8.505   9.566 -0.6411  0.5050  0.3518
  483MOL0     C66576   2.083   8.407   9.499 -0.1289 -0.3392 -0.4372
  483MOL0     C66577   1.977   8.473   9.409 -0.9767  1.2641 -0.1429
  483MOL0     C66578   1.885   8.359   9.372  0.1056  0.2323  0.8655
  483MOL0     C66579   1.778   8.386   9.261 -0.4352  0.2608 -1.0378
  483MOL0     C66580   1.656   8.300   9.260  0.3051  0.7402 -0.5038
  483MOL0     C66581   1.544   8.245   9.243  0.1681 -0.1396 -0.4855
  483MOL0     C66582   2.290   8.556   9.741 -0.6980 -0.0353 -0.9195
  483MOL0     C66583   2.384   8.544   9.841 -0.2030 -0.5962 -0.3613
  483MOL0     C66584   2.404   8.663   9.915 -0.3868 -0.9470  0.3299
  483MOL0     H66585   2.696   8.574  10.268 -0.4671 -0.3378 -2.9744
  483MOL0     H66586   2.793   8.459  10.469  1.5352 -2.3093  1.3570
  483MOL0     H66587   2.789   8.067  10.671  0.9384 -1.2237 -0.7249
  483MOL0     H66588   2.712   8.028  10.517 -1.2391 -1.3530 -0.7777
  483MOL0     H66589   2.612   8.191  10.754  0.7833 -0.8552  1.5497
  483MOL0     H66590   2.515   8.162  10.601 -0.7067 -1.2215  0.2817
  483MOL0     H66591   2.590   7.972  10.829 -0.4584 -0.3569  0.7557
  483MOL0     H66592   2.444   8.034  10.797  1.8089  1.3735  1.5052
  483MOL0     H66593   2.585   7.819  10.630  0.5252 -0.0071  0.4189
  483MOL0     H66594   2.442   7.810  10.722  2.4680 -2.2007 -0.3696
  483MOL0     H66595   2.421   7.807  10.476 -2.0329  0.7647 -1.6486
  483MOL0     H66596   2.478   7.972  10.464 -3.4850  0.5763 -1.6494
  483MOL0     H66597   2.235   7.931  10.638  2.7714 -2.2127  0.1797
  483MOL0     H66598   2.309   8.077  10.578  1.3676 -0.8400  1.1701
  483MOL0     H66599   2.173   7.825  10.450 -0.6518  1.2885 -1.4744
  483MOL0     H66600   2.233   7.951  10.344 -3.1286  2.5469 -0.7044
  483MOL0     H66601   2.032   8.033  10.550 -0.4340  0.6214 -0.5744
  483MOL0     H66602   2.075   8.120  10.404 -0.9380  0.5545  1.0951
  483MOL0     H66603   1.985   7.740  10.391  0.4817  0.5043 -0.5069
  483MOL0     H66604   1.814   7.612  10.269 -1.5247 -1.1163 -0.5518
  483MOL0     H66605   1.733   7.701  10.145 -1.2066  0.8373 -0.4919
  483MOL0     H66606   1.637   7.648  10.422 -0.2343  1.4288 -0.9457
  483MOL0     H66607   1.544   7.748  10.301  1.9750  3.8332  2.9210
  483MOL0     H66608   1.470   7.546  10.209  2.1306  0.9355 -1.5597
  483MOL0     H66609   1.628   7.465  10.224 -1.2897 -2.4975 -0.3281
  483MOL0     H66610   1.481   7.515  10.471  0.8519  2.7516 -3.1632
  483MOL0     H66611   1.396   7.407  10.371 -0.1396 -0.9579  1.9560
  483MOL0     H66612   1.574   7.122  10.325  1.6636  0.4726  0.3371
  483MOL0     H66613   1.524   6.785  10.470 -0.7443 -0.5402 -1.5093
  483MOL0     H66614   1.602   6.880  10.347  1.4268 -0.8763  1.8264
  483MOL0     H66615   1.432   6.862  10.329 -2.3248  2.7488  0.5454
  483MOL0     H66616   1.100   6.950  10.931 -0.8912 -0.5205 -0.7239
  483MOL0     H66617   0.934   6.778  11.023 -1.8283 -5.2624  1.8018
  483MOL0     H66618   0.980   6.587  11.249 -2.3231 -0.0164  2.2971
  483MOL0     H66619   0.837   6.621  11.138  1.3874  0.7187 -0.6470
  483MOL0     H66620   0.906   6.350  11.265 -1.4340 -1.7690 -0.9587
  483MOL0     H66621   0.775   6.471  11.310 -2.4466 -0.5423 -1.7946
  483MOL0     H66622   0.815   6.280  11.077 -0.7250  0.1247  0.9143
  483MOL0     H66623   0.716   6.424  11.042 -0.6697  0.1089  0.4228
  483MOL0     H66624   0.577   6.226  11.108 -1.7088  0.8967 -0.1572
  483MOL0     H66625   0.579   6.350  11.235  0.0761 -0.1981  0.9834
  483MOL0     H66626   0.776   6.104  11.235 -0.3026 -0.7144 -0.1841
  483MOL0     H66627   0.742   6.210  11.364  0.2342 -0.9056 -0.6026
  483MOL0     H66628   0.642   5.998  11.387 -0.6242 -0.5008  0.2093
  483MOL0     H66629   0.562   6.015  11.236 -3.4048  0.5650  1.1460
  483MOL0     H66630   0.419   6.199  11.322  1.0238  0.4812 -0.0384
  483MOL0     H66631   0.521   6.205  11.473  4.7634 -3.3548 -0.0710
  483MOL0     H66632   0.438   5.987  11.531  1.3150  2.8037  1.5598
  483MOL0     H66633   0.370   5.984  11.363  3.3776  2.4410 -2.5622
  483MOL0     H66634   1.178   6.458  10.886 -1.6766 -0.1430  1.3277
  483MOL0     H66635   1.334   6.617  10.788 -0.1697  0.5955 -0.4855
  483MOL0     H66636   1.375   7.139  10.782 -1.7451 -1.0279 -0.4740
  483MOL0     H66637   1.471   7.326  10.688  2.9248 -0.9425  2.8825
  483MOL0     H66638   2.630   8.089  10.329  0.0132 -0.6325 -0.6448
  483MOL0     H66639   2.551   8.192  10.138 -1.9585  0.8715  0.6721
  483MOL0     H66640   2.493   8.242   9.755  0.4632  0.4255  0.8444
  483MOL0     H66641   2.285   8.267   9.580 -0.1054 -0.1300  1.0667
  483MOL0     H66642   2.141   8.331   9.446 -0.8389 -3.4272  2.8408
  483MOL0     H66643   2.027   8.348   9.572 -2.3353  0.8874 -1.0514
  483MOL0     H66644   2.031   8.498   9.317  1.3743 -1.2239  0.3927
  483MOL0     H66645   1.923   8.549   9.465 -1.9703 -0.8816  2.0058
  483MOL0     H66646   1.941   8.274   9.331 -1.8203  0.4381 -2.4998
  483MOL0     H66647   1.833   8.317   9.458  0.2316  1.9852  1.8497
  483MOL0     H66648   1.833   8.352   9.172  1.4152 -3.7942  1.3748
  483MOL0     H66649   1.762   8.494   9.270  1.6240  0.5468  6.6379
  483MOL0     H66650   1.451   8.192   9.229  0.1877 -0.3657  0.1932
  483MOL0     H66651   2.241   8.652   9.725  1.9985  1.2096 -2.2235
  483MOL0     H66652   2.404   8.752   9.852  1.1582 -0.8445  0.4219
  483MOL0     H66653   2.319   8.683   9.980 -3.2944  4.6232 -4.1906
  483MOL0     H66654   2.498   8.670   9.971 -0.4696 -1.8619  0.5906
  484MOL0     O66655   2.118   1.283   2.660  0.5863 -0.3106  0.2504
  484MOL0     C66656   2.029   1.319   2.586 -0.4101 -0.0494  0.4804
  484MOL0     O66657   2.019   1.438   2.522  0.0497 -0.3076 -0.0938
  484MOL0     C66658   2.108   1.537   2.551 -0.3804  0.4951 -0.3532
  484MOL0     C66659   2.234   1.519   2.497  0.4651 -0.3070  0.2807
  484MOL0     C66660   2.334   1.623   2.514  0.8626  0.6514  0.7978
  484MOL0     C66661   2.298   1.741   2.582 -0.4709 -0.7430 -0.4661
  484MOL0     O66662   2.398   1.830   2.604  0.2111 -0.4338  0.5592
  484MOL0     C66663   2.401   1.903   2.730 -0.1293 -0.7974 -0.2447
  484MOL0     C66664   2.497   2.027   2.732 -0.4937  1.6311  0.1618
  484MOL0     C66665   2.641   1.978   2.705  0.6285  0.0855 -0.6994
  484MOL0     C66666   2.695   1.892   2.819 -1.4986  0.7850 -0.3969
  484MOL0     C66667   2.850   1.879   2.800  0.1571  0.4716  0.0553
  484MOL0     C66668   2.905   1.734   2.801  0.5651  0.0372  0.0964
  484MOL0     C66669   2.947   1.677   2.938  0.4689  0.6010 -0.1888
  484MOL0     C66670   2.851   1.664   3.048  0.9993 -0.5137 -0.2820
  484MOL0     N66671   2.913   1.633   3.177  0.3953  1.0159 -0.0230
  484MOL0     C66672   2.938   1.518   3.246  1.0568  0.3375 -0.4114
  484MOL0     C66673   3.001   1.555   3.357  0.3069  0.3815 -0.8076
  484MOL0     C66674   3.012   1.482   3.489  0.2718 -0.2555  0.2535
  484MOL0     C66675   2.934   1.565   3.605 -0.5669  0.0935 -0.2144
  484MOL0     C66676   2.918   1.479   3.730 -0.6911  0.6840 -0.7419
  484MOL0     C66677   2.837   1.563   3.840  0.0037  0.0597  0.3238
  484MOL0     O66678   2.900   1.685   3.860 -0.7549 -0.1012  0.8573
  484MOL0     C66679   2.874   1.765   3.961  0.1343  0.1841 -0.1873
  484MOL0     C66680   2.824   1.719   4.080  1.5841 -0.1669  0.9683
  484MOL0     C66681   2.793   1.802   4.183 -0.6578  0.3184  0.0354
  484MOL0     C66682   2.745   1.735   4.313 -0.0311 -0.4159 -0.0339
  484MOL0     C66683   2.798   1.942   4.167  0.0534 -0.3559  0.0014
  484MOL0     C66684   2.750   2.039   4.267  0.5523 -0.5179  0.5131
  484MOL0     O66685   2.802   2.170   4.264 -0.7542  0.1471 -0.7910
  484MOL0     C66686   2.764   2.271   4.345  0.1918  0.8624 -0.7647
  484MOL0     C66687   2.726   2.251   4.477  0.0542  0.0600  0.2348
  484MOL0     C66688   2.690   2.353   4.561  0.0624 -0.2055  0.5527
  484MOL0     C66689   2.689   2.481   4.507 -0.4427 -0.4073 -0.6057
  484MOL0     O66690   2.651   2.594   4.580  0.3274  0.8112 -0.0388
  484MOL0     C66691   2.575   2.582   4.703  1.0384 -0.0708 -0.0145
  484MOL0     C66692   2.658   2.603   4.829  0.2764  0.1505  0.7987
  484MOL0     C66693   2.715   2.750   4.837  0.1459  0.2687 -0.4309
  484MOL0     C66694   2.644   2.827   4.942 -0.0731  0.4458  0.5168
  484MOL0     C66695   2.698   2.966   4.977 -0.0948 -0.2335 -0.1632
  484MOL0     C66696   2.716   3.048   4.850 -0.3913 -0.1109  1.0241
  484MOL0     C66697   2.727   3.196   4.876  1.0135 -0.7777  0.2178
  484MOL0     C66698   2.694   3.282   4.750 -0.3144  0.2087  0.1415
  484MOL0    Cl66699   2.531   3.252   4.697  0.1250  0.0236 -0.5165
  484MOL0     C66700   2.737   2.512   4.378  0.3265  0.3174  0.8740
  484MOL0     C66701   2.764   2.403   4.296 -0.5407 -1.0279  0.2929
  484MOL0     O66702   2.655   2.007   4.332 -0.5458  0.0638 -0.0389
  484MOL0     C66703   2.846   1.993   4.047 -0.2105  1.2676 -0.3663
  484MOL0     C66704   2.883   1.897   3.947  0.5370 -0.5588  0.1062
  484MOL0     N66705   3.027   1.687   3.349  0.0526 -0.1921 -0.2236
  484MOL0     N66706   2.971   1.730   3.246  0.0291 -0.5152 -0.4074
  484MOL0     C66707   2.171   1.759   2.639 -0.6400  0.8390 -0.6590
  484MOL0     C66708   2.074   1.652   2.618 -1.0702  0.8262  0.5464
  484MOL0     C66709   1.909   1.230   2.576  0.7120 -0.2535  0.5891
  484MOL0     C66710   1.865   1.168   2.698  0.1922 -0.3415  0.0055
  484MOL0     C66711   1.748   1.090   2.699  0.3211 -0.0371  0.0847
  484MOL0     C66712   1.685   1.056   2.579  0.4366  0.0926 -0.1428
  484MOL0     O66713   1.567   0.970   2.583 -0.4217  0.6186 -0.0194
  484MOL0     C66714   1.491   0.938   2.465  0.0519  0.0283 -0.1356
  484MOL0     C66715   1.385   0.836   2.494  0.1481  0.3345 -0.4562
  484MOL0     C66716   1.335   0.786   2.359  0.2098  0.9612  0.3096
  484MOL0     C66717   1.240   0.897   2.304  0.8151  0.0570  0.3305
  484MOL0     C66718   1.311   0.997   2.224 -0.4918  0.6240 -0.2921
  484MOL0     C66719   1.356   1.084   2.149  0.8253 -0.4832  0.4159
  484MOL0     C66720   1.736   1.106   2.455 -0.8286  0.2926 -0.0641
  484MOL0     C66721   1.844   1.201   2.454 -0.6459  0.1365  0.1008
  484MOL0     C66722   1.913   1.220   2.323  0.0591 -0.3407 -0.1660
  484MOL0     H66723   2.259   1.424   2.450  0.1284 -0.6748  0.8449
  484MOL0     H66724   2.436   1.616   2.480  0.7925 -0.4696  0.7826
  484MOL0     H66725   2.405   1.835   2.816 -2.1027 -0.8823 -0.1798
  484MOL0     H66726   2.304   1.952   2.743 -0.8826 -2.0671 -0.9353
  484MOL0     H66727   2.462   2.088   2.648  2.6058  1.4857 -1.3814
  484MOL0     H66728   2.497   2.084   2.825 -1.6233  0.1995  1.0758
  484MOL0     H66729   2.650   1.928   2.609  1.7821  1.9215 -1.6035
  484MOL0     H66730   2.699   2.071   2.706 -1.7911  1.7224 -0.2519
  484MOL0     H66731   2.684   1.943   2.916 -0.0487  2.8799 -1.2707
  484MOL0     H66732   2.644   1.796   2.816  1.0126 -0.6186 -0.9736
  484MOL0     H66733   2.910   1.923   2.880 -1.1170 -0.9278  1.8358
  484MOL0     H66734   2.881   1.931   2.708 -1.2194  1.5756  0.1786
  484MOL0     H66735   2.822   1.672   2.765 -0.5536 -0.0649  2.6325
  484MOL0     H66736   2.987   1.735   2.729  0.0908  1.1989 -0.4481
  484MOL0     H66737   3.034   1.741   2.957  1.6157 -1.0468  0.3461
  484MOL0     H66738   2.987   1.576   2.927 -0.9495  0.1041 -0.8927
  484MOL0     H66739   2.796   1.756   3.070 -1.4537 -1.6870 -1.1592
  484MOL0     H66740   2.783   1.582   3.025  1.5875 -1.9203  2.5996
  484MOL0     H66741   2.892   1.421   3.238  0.6342  0.2529  2.1883
  484MOL0     H66742   3.118   1.473   3.512  0.1704  1.1744  1.3613
  484MOL0     H66743   2.978   1.378   3.474 -1.1623  0.2796 -0.4367
  484MOL0     H66744   2.996   1.654   3.622 -0.0345 -0.5519  1.3797
  484MOL0     H66745   2.830   1.587   3.579 -0.4291 -0.0639 -0.9326
  484MOL0     H66746   2.867   1.386   3.704  0.1805 -0.0678  0.1681
  484MOL0     H66747   3.016   1.459   3.773 -1.5329  1.7090  1.8597
  484MOL0     H66748   2.731   1.576   3.817 -0.0149  0.1325  0.4469
  484MOL0     H66749   2.839   1.492   3.923  1.5064 -1.5415 -1.0183
  484MOL0     H66750   2.819   1.613   4.103 -0.6428  0.2306  2.7698
  484MOL0     H66751   2.797   1.639   4.314  1.5830  0.4230  2.0053
  484MOL0     H66752   2.637   1.717   4.317 -0.5273  2.2684  0.8841
  484MOL0     H66753   2.772   1.790   4.403 -0.6573  1.2517 -0.8118
  484MOL0     H66754   2.730   2.148   4.511 -0.9595  0.2285  0.8749
  484MOL0     H66755   2.658   2.339   4.664  2.8645  4.1451  2.3144
  484MOL0     H66756   2.492   2.653   4.700 -1.1590 -2.5171 -1.4339
  484MOL0     H66757   2.518   2.489   4.707  0.9553 -0.0236 -0.0775
  484MOL0     H66758   2.604   2.577   4.921 -0.2391 -0.9780  0.1996
  484MOL0     H66759   2.738   2.531   4.815 -0.7002 -0.5050 -2.0923
  484MOL0     H66760   2.714   2.809   4.745 -0.1389  3.6813  1.5880
  484MOL0     H66761   2.812   2.732   4.886 -1.1571 -0.1070  2.1994
  484MOL0     H66762   2.639   2.759   5.028 -0.3901 -0.3623 -0.1230
  484MOL0     H66763   2.538   2.838   4.916 -0.6875  0.3591  2.7569
  484MOL0     H66764   2.632   3.026   5.040 -1.6866 -2.0555  0.0055
  484MOL0     H66765   2.798   2.956   5.019 -0.0418  2.0748  0.4071
  484MOL0     H66766   2.630   3.030   4.784  0.8847  0.7413 -0.9658
  484MOL0     H66767   2.811   3.016   4.807 -0.9717 -0.0437 -0.3582
  484MOL0     H66768   2.831   3.218   4.902  1.2421 -1.5709  0.0135
  484MOL0     H66769   2.669   3.232   4.961  2.6728  2.1176  0.2555
  484MOL0     H66770   2.770   3.255   4.676  0.6818  2.8917  0.0896
  484MOL0     H66771   2.723   3.385   4.775  3.5791 -0.9015  0.9997
  484MOL0     H66772   2.735   2.612   4.335 -2.8344 -0.0755 -0.1577
  484MOL0     H66773   2.805   2.415   4.196  3.4995 -1.1949  1.7283
  484MOL0     H66774   2.859   2.098   4.023 -2.2759  1.4708 -0.7288
  484MOL0     H66775   2.894   1.955   3.856 -4.1036  1.6254  0.6731
  484MOL0     H66776   2.135   1.848   2.689  1.5601  3.2438 -3.0376
  484MOL0     H66777   1.974   1.662   2.659 -2.2666 -1.6639 -1.4629
  484MOL0     H66778   1.922   1.182   2.789  1.2394 -2.1631 -0.3173
  484MOL0     H66779   1.717   1.057   2.798 -0.3969  3.7917  1.2775
  484MOL0     H66780   1.436   1.029   2.442 -1.2296  0.1841  2.9997
  484MOL0     H66781   1.561   0.897   2.391  0.4035 -0.1947  0.3126
  484MOL0     H66782   1.308   0.870   2.565  0.3509  2.0619 -1.0279
  484MOL0     H66783   1.436   0.749   2.535  0.3376  0.5778 -0.1688
  484MOL0     H66784   1.428   0.753   2.311  0.9647  1.2352  1.5424
  484MOL0     H66785   1.277   0.694   2.369  0.1424  0.7594 -1.5825
  484MOL0     H66786   1.181   0.942   2.385  1.9504 -3.7299  3.5851
  484MOL0     H66787   1.162   0.859   2.238 -1.9977  1.7261  2.4380
  484MOL0     H66788   1.391   1.150   2.072  2.2393 -1.8411 -0.1514
  484MOL0     H66789   1.697   1.068   2.361 -1.9768  0.4804  0.3206
  484MOL0     H66790   1.999   1.151   2.319 -1.0964 -1.8287 -0.3236
  484MOL0     H66791   1.849   1.195   2.238  0.2008 -0.4736 -0.2368
  484MOL0     H66792   1.951   1.321   2.309 -0.5398 -0.0893  0.0038
  485MOL0     O66793   4.209   7.748   8.940  0.7552 -1.0922 -0.3940
  485MOL0     C66794   4.230   7.648   8.881 -1.0122 -0.3613 -0.7602
  485MOL0     O66795   4.268   7.644   8.753 -0.0560 -0.2964 -0.0185
  485MOL0     C66796   4.225   7.748   8.674  0.0381 -0.6558  0.4331
  485MOL0     C66797   4.112   7.827   8.695  0.0910 -0.6648  0.1302
  485MOL0     C66798   4.082   7.942   8.612 -0.7956 -0.2798 -0.1054
  485MOL0     C66799   4.163   7.977   8.503 -0.1323 -0.3746  0.6488
  485MOL0     O66800   4.133   8.086   8.424  0.6405 -0.5765  0.7166
  485MOL0     C66801   4.021   8.176   8.440  0.3329  0.4386 -0.0373
  485MOL0     C66802   3.890   8.123   8.400  0.8666  0.1214  0.0588
  485MOL0     C66803   3.758   8.204   8.449 -0.0465 -0.4324 -0.0790
  485MOL0     C66804   3.637   8.157   8.368  0.1870 -0.1407 -0.0407
  485MOL0     C66805   3.501   8.206   8.422  0.3983  0.0943 -0.5954
  485MOL0     C66806   3.479   8.358   8.430 -0.4977  0.1430  0.3000
  485MOL0     C66807   3.331   8.380   8.474 -0.0862  0.3271 -0.2670
  485MOL0     C66808   3.289   8.526   8.490 -0.5537 -0.3698 -0.5819
  485MOL0     N66809   3.302   8.580   8.627  0.3694 -0.5447  0.3922
  485MOL0     C66810   3.256   8.515   8.741  0.6576 -0.6513 -1.1941
  485MOL0     C66811   3.301   8.600   8.836 -0.6963 -0.4938 -0.0676
  485MOL0     C66812   3.285   8.593   8.980  0.4419 -1.2461 -0.1540
  485MOL0     C66813   3.408   8.532   9.050 -0.8195  0.9269 -0.3773
  485MOL0     C66814   3.541   8.610   9.032 -0.1500  0.1207  0.2995
  485MOL0     C66815   3.646   8.557   9.125  0.1797  0.5817 -0.0504
  485MOL0     O66816   3.681   8.423   9.088  0.3748  0.6861  0.8047
  485MOL0     C66817   3.808   8.377   9.120 -0.0668  0.0970 -0.0155
  485MOL0     C66818   3.856   8.256   9.065 -0.6488 -0.2502 -1.2406
  485MOL0     C66819   3.987   8.209   9.097 -0.2326  0.0085 -0.4049
  485MOL0     C66820   4.027   8.075   9.033  0.2799 -0.6044  0.3442
  485MOL0     C66821   4.081   8.282   9.182  0.6649  0.3287  1.0973
  485MOL0     C66822   4.230   8.251   9.204  0.1594 -0.6663  0.9264
  485MOL0     O66823   4.288   8.313   9.309  0.4774 -0.0239 -0.0736
  485MOL0     C66824   4.425   8.324   9.316 -0.5615  0.2577  1.0173
  485MOL0     C66825   4.472   8.450   9.298 -0.0675  0.2052  0.1893
  485MOL0     C66826   4.609   8.476   9.301  0.1109  0.6793  0.4771
  485MOL0     C66827   4.700   8.377   9.323  0.1926  0.2484  0.9291
  485MOL0     O66828   4.829   8.413   9.335 -0.1921  0.9665 -0.5463
  485MOL0     C66829   4.904   8.377   9.211  0.0920  0.2846 -0.6993
  485MOL0     C66830   5.063   8.380   9.230  0.4129 -0.3520  0.3539
  485MOL0     C66831   5.124   8.343   9.091 -0.3359  0.1442 -0.8189
  485MOL0     C66832   5.101   8.444   8.981 -0.5800 -1.0989  0.8994
  485MOL0     C66833   5.174   8.416   8.844 -0.6850 -0.2232  0.0151
  485MOL0     C66834   5.167   8.259   8.813  0.3590  0.7103  0.2363
  485MOL0     C66835   5.025   8.208   8.787  0.2697  0.4836 -0.6358
  485MOL0     C66836   4.965   8.275   8.666  0.7408  0.3316 -0.4719
  485MOL0    Cl66837   5.025   8.204   8.507 -0.2039  0.2583 -0.3538
  485MOL0     C66838   4.650   8.243   9.321  0.0920  0.2749  0.2079
  485MOL0     C66839   4.513   8.213   9.313 -0.3156  0.1859  0.3846
  485MOL0     O66840   4.283   8.172   9.131  0.6313 -0.4996  0.0361
  485MOL0     C66841   4.031   8.400   9.236  1.0689 -0.5689  0.1846
  485MOL0     C66842   3.899   8.448   9.206  1.0642 -0.4465 -0.4054
  485MOL0     N66843   3.387   8.699   8.780  0.0117 -0.3299  0.8532
  485MOL0     N66844   3.385   8.684   8.654 -0.3517  0.3313 -0.5463
  485MOL0     C66845   4.268   7.895   8.477 -0.9743  0.2054  0.4950
  485MOL0     C66846   4.306   7.781   8.563 -0.0374 -0.9083 -0.4675
  485MOL0     C66847   4.193   7.521   8.935 -0.3389 -0.1803  0.2536
  485MOL0     C66848   4.099   7.434   8.875  0.0579  0.9922  0.6386
  485MOL0     C66849   4.092   7.302   8.927 -0.0677  0.2121  0.9004
  485MOL0     C66850   4.174   7.255   9.035  0.2928  0.4297 -0.1653
  485MOL0     O66851   4.160   7.128   9.069 -0.0881 -0.0027  0.3482
  485MOL0     C66852   4.218   7.073   9.185  0.6206 -0.1933 -0.8065
  485MOL0     C66853   4.347   7.004   9.143  0.1776 -0.0638 -0.1735
  485MOL0     C66854   4.435   6.967   9.260  1.1017 -0.0925  0.1651
  485MOL0     C66855   4.544   6.882   9.194 -0.0680 -0.1888  0.1391
  485MOL0     C66856   4.621   6.823   9.309  0.0038  0.2895 -0.3102
  485MOL0     C66857   4.694   6.772   9.391  0.6779 -0.2433 -0.3480
  485MOL0     C66858   4.249   7.351   9.099  0.1638 -1.0410  0.1698
  485MOL0     C66859   4.256   7.483   9.058 -0.7215  0.8214  0.3093
  485MOL0     C66860   4.341   7.583   9.143  0.1295 -0.2581  0.1150
  485MOL0     H66861   4.040   7.810   8.775  1.2373  2.3917  1.9858
  485MOL0     H66862   3.993   8.000   8.633 -0.0121  0.5137  1.1978
  485MOL0     H66863   4.036   8.277   8.400  0.0440  0.5189  0.0531
  485MOL0     H66864   3.997   8.184   8.547  0.8081 -1.3367  0.2341
  485MOL0     H66865   3.892   8.122   8.290  0.9544  2.0604 -0.0011
  485MOL0     H66866   3.884   8.021   8.437  1.5180  0.1119  0.1359
  485MOL0     H66867   3.743   8.191   8.556  0.8931  1.0771  0.2811
  485MOL0     H66868   3.779   8.311   8.434  3.0171 -0.6410  1.8640
  485MOL0     H66869   3.658   8.205   8.272 -1.4593  3.8625  1.3702
  485MOL0     H66870   3.633   8.049   8.349  1.5358  0.0587 -1.7191
  485MOL0     H66871   3.507   8.167   8.524  1.6425  0.9479 -0.3185
  485MOL0     H66872   3.418   8.159   8.368 -0.4471  1.2986 -0.3935
  485MOL0     H66873   3.546   8.405   8.502  2.7486  1.5496 -3.3277
  485MOL0     H66874   3.491   8.406   8.333 -2.3999  2.8181  1.2778
  485MOL0     H66875   3.333   8.325   8.569  0.2575 -0.7614 -0.8830
  485MOL0     H66876   3.261   8.332   8.406 -1.0384 -0.7035  1.3765
  485MOL0     H66877   3.361   8.585   8.433  1.4016 -0.6998  1.4147
  485MOL0     H66878   3.184   8.538   8.463 -1.1453  1.2162  2.0549
  485MOL0     H66879   3.201   8.424   8.758  1.8872 -1.0795  0.8605
  485MOL0     H66880   3.196   8.539   9.012  0.0963 -0.9323 -0.5752
  485MOL0     H66881   3.271   8.697   9.011  3.1393 -0.8249 -0.0868
  485MOL0     H66882   3.390   8.530   9.158  0.4321 -0.8663 -0.1537
  485MOL0     H66883   3.418   8.435   9.001  0.3097  1.6239 -1.5921
  485MOL0     H66884   3.571   8.588   8.930 -2.2069 -3.6690  0.3132
  485MOL0     H66885   3.523   8.716   9.048  0.3358  0.1875  0.4280
  485MOL0     H66886   3.736   8.619   9.118  0.0468  0.5579 -2.9634
  485MOL0     H66887   3.601   8.555   9.225 -0.4388 -1.0754 -0.3281
  485MOL0     H66888   3.793   8.208   8.991 -4.1319 -1.2631  2.0573
  485MOL0     H66889   3.942   8.027   8.984  1.9949 -1.2264 -2.1590
  485MOL0     H66890   4.069   8.012   9.112  2.0414 -1.2403 -1.0315
  485MOL0     H66891   4.101   8.103   8.957  1.4472 -0.6175  1.4426
  485MOL0     H66892   4.401   8.532   9.289  0.5830  0.8396  0.7116
  485MOL0     H66893   4.635   8.581   9.299 -0.0949  0.7651  1.6402
  485MOL0     H66894   4.883   8.273   9.184  2.2925 -0.4723  0.2870
  485MOL0     H66895   4.879   8.451   9.134 -2.8199 -0.5935 -0.7348
  485MOL0     H66896   5.101   8.479   9.254 -1.6715  1.2717 -2.4376
  485MOL0     H66897   5.096   8.302   9.299  3.2321  1.3388  1.0497
  485MOL0     H66898   5.098   8.239   9.070  1.6463 -1.0417  1.9131
  485MOL0     H66899   5.231   8.328   9.108 -0.4485 -0.5921 -0.7121
  485MOL0     H66900   5.127   8.544   9.015 -1.4868 -0.4226 -0.3024
  485MOL0     H66901   4.993   8.452   8.960 -0.2487  0.8433 -0.3345
  485MOL0     H66902   5.133   8.481   8.766  2.1350  1.1276 -0.4651
  485MOL0     H66903   5.280   8.440   8.855 -0.2236 -1.1464 -1.9663
  485MOL0     H66904   5.214   8.196   8.889 -0.0381  0.6360  0.4221
  485MOL0     H66905   5.225   8.252   8.720 -0.4218  1.9807 -0.3721
  485MOL0     H66906   4.965   8.225   8.878  0.2566 -0.4657 -0.4570
  485MOL0     H66907   5.028   8.100   8.772  1.4391  0.7157 -2.3595
  485MOL0     H66908   4.965   8.385   8.666  2.6463  0.4019 -2.5889
  485MOL0     H66909   4.858   8.255   8.673  0.6424  1.4213  3.2698
  485MOL0     H66910   4.706   8.155   9.352 -0.4336 -0.2580 -0.3278
  485MOL0     H66911   4.467   8.114   9.320 -2.3592  0.8385 -2.0723
  485MOL0     H66912   4.112   8.453   9.285  1.4180 -2.4410  1.7745
  485MOL0     H66913   3.868   8.538   9.258  1.5736  0.1426 -1.1112
  485MOL0     H66914   4.334   7.909   8.392  1.7121  1.1025  2.5940
  485MOL0     H66915   4.392   7.720   8.538 -0.5608 -2.6189  1.6128
  485MOL0     H66916   4.049   7.461   8.782  1.5229  0.0330 -0.4819
  485MOL0     H66917   4.023   7.241   8.869 -0.3428 -0.4560  1.9105
  485MOL0     H66918   4.237   7.150   9.261  2.5168 -0.5484 -0.8764
  485MOL0     H66919   4.151   7.002   9.235  2.1867  0.3946  2.3876
  485MOL0     H66920   4.396   7.074   9.075 -1.2915  1.0628 -0.1327
  485MOL0     H66921   4.315   6.918   9.084 -0.5808  0.2595 -0.2518
  485MOL0     H66922   4.473   7.059   9.305 -0.1891  0.2338  0.6327
  485MOL0     H66923   4.381   6.907   9.333 -1.9283  2.6480  0.3779
  485MOL0     H66924   4.612   6.932   9.124 -0.3993 -1.3609 -1.0570
  485MOL0     H66925   4.505   6.797   9.137  2.6581  0.0406 -2.3154
  485MOL0     H66926   4.771   6.744   9.460 -0.3654  0.6404  1.2129
  485MOL0     H66927   4.304   7.332   9.191  0.8401  1.1878  0.2852
  485MOL0     H66928   4.402   7.651   9.083  0.4501 -1.6644 -1.2306
  485MOL0     H66929   4.264   7.635   9.200 -0.8739 -1.7439  0.1868
  485MOL0     H66930   4.399   7.523   9.214 -0.0156 -2.8923 -1.8191
  486MOL0     O66931   3.357   2.125   7.048  0.3055  0.4002  0.3057
  486MOL0     C66932   3.256   2.182   7.019  0.1255 -0.0947  0.1924
  486MOL0     O66933   3.216   2.303   7.063 -0.5345 -0.1534 -0.3683
  486MOL0     C66934   3.284   2.362   7.165 -0.0472 -0.0518 -0.7206
  486MOL0     C66935   3.333   2.294   7.275  0.2920  0.3870 -0.5129
  486MOL0     C66936   3.379   2.370   7.389 -0.3788  0.9951 -0.1705
  486MOL0     C66937   3.392   2.512   7.388 -0.1102  0.3213 -0.4725
  486MOL0     O66938   3.443   2.591   7.489  0.0715 -0.1439 -0.6713
  486MOL0     C66939   3.428   2.543   7.625 -0.8132 -0.0639 -0.4039
  486MOL0     C66940   3.448   2.663   7.718  0.0995  0.4523  0.6883
  486MOL0     C66941   3.400   2.633   7.863 -0.3810 -0.4816  0.0208
  486MOL0     C66942   3.521   2.577   7.941 -0.2544 -0.1817 -0.3166
  486MOL0     C66943   3.497   2.529   8.079 -0.5345 -0.1706 -0.7764
  486MOL0     C66944   3.467   2.378   8.077  0.2314  0.4863 -0.3037
  486MOL0     C66945   3.465   2.341   8.222  0.5325 -0.9065 -0.5140
  486MOL0     C66946   3.589   2.298   8.285  0.2690  0.2933 -0.5410
  486MOL0     N66947   3.626   2.159   8.252  0.2126  0.0611  0.4030
  486MOL0     C66948   3.758   2.125   8.267 -0.3142  0.5006  0.2992
  486MOL0     C66949   3.757   1.989   8.255 -0.3045  1.1459 -0.0483
  486MOL0     C66950   3.879   1.902   8.263  0.0316 -0.7040  1.2045
  486MOL0     C66951   3.957   1.883   8.138 -0.2568 -0.8614  0.2632
  486MOL0     C66952   4.045   1.755   8.143  0.0760 -0.5745 -0.4723
  486MOL0     C66953   4.152   1.763   8.029  0.1817 -0.0467  0.3671
  486MOL0     O66954   4.256   1.850   8.074  0.3782  0.4447  0.6575
  486MOL0     C66955   4.338   1.912   7.982  0.4049  0.8570 -0.2731
  486MOL0     C66956   4.416   2.018   8.016  0.9986  0.2320 -0.1301
  486MOL0     C66957   4.509   2.079   7.928 -0.6238 -0.6169  1.0695
  486MOL0     C66958   4.592   2.190   7.984 -0.1366  0.8727 -0.5357
  486MOL0     C66959   4.506   2.037   7.795  0.5034 -0.5067  0.3922
  486MOL0     C66960   4.584   2.108   7.700  0.1499 -0.3726  0.2784
  486MOL0     O66961   4.641   2.032   7.606 -0.1716 -0.4825  0.5560
  486MOL0     C66962   4.723   2.088   7.512  0.1919 -0.5101  0.9303
  486MOL0     C66963   4.851   2.128   7.548 -0.1363 -0.3691  0.3620
  486MOL0     C66964   4.934   2.189   7.454  0.1352  0.4590 -0.4969
  486MOL0     C66965   4.887   2.214   7.327  0.9407  0.4938  1.5551
  486MOL0     O66966   4.952   2.285   7.234  0.0554  0.1142  0.4689
  486MOL0     C66967   5.093   2.279   7.218 -0.1043  0.2232 -0.2896
  486MOL0     C66968   5.129   2.140   7.173 -0.0506 -0.1786 -0.3666
  486MOL0     C66969   5.266   2.135   7.127  0.2495 -0.3970 -0.1621
  486MOL0     C66970   5.315   1.995   7.099 -0.6079  0.8051  0.2006
  486MOL0     C66971   5.452   2.000   7.033  0.1961 -0.2898 -0.2449
  486MOL0     C66972   5.563   2.057   7.119  0.5585  0.2564  0.1613
  486MOL0     C66973   5.711   2.046   7.071  0.0505  1.0663  0.1786
  486MOL0     C66974   5.729   2.141   6.956  0.2694 -1.0245  0.3722
  486MOL0    Cl66975   5.763   2.309   7.008  0.2508  0.0489 -0.2299
  486MOL0     C66976   4.761   2.178   7.294  0.4960  0.1143 -0.3717
  486MOL0     C66977   4.678   2.112   7.383 -0.4331  0.0443 -0.9401
  486MOL0     O66978   4.582   2.232   7.706  0.2848  0.5392  0.1485
  486MOL0     C66979   4.423   1.930   7.757  0.1657  0.0577 -0.7421
  486MOL0     C66980   4.345   1.866   7.850  0.4082  0.1572  0.0800
  486MOL0     N66981   3.628   1.939   8.233  0.4984 -0.7472 -0.1019
  486MOL0     N66982   3.547   2.044   8.243 -0.0098 -0.0277 -0.0575
  486MOL0     C66983   3.335   2.573   7.280 -0.1156 -0.1802 -0.5345
  486MOL0     C66984   3.287   2.500   7.173  0.1675  0.3481 -0.1280
  486MOL0     C66985   3.152   2.116   6.931 -0.3558 -0.3483 -0.3932
  486MOL0     C66986   3.058   2.192   6.853  0.7376 -0.4480 -0.6032
  486MOL0     C66987   2.949   2.139   6.777  0.3613  0.6114  0.0914
  486MOL0     C66988   2.923   2.005   6.777 -0.4452 -0.4844  1.1090
  486MOL0     O66989   2.831   1.951   6.696 -0.8603  0.2461 -0.3603
  486MOL0     C66990   2.855   1.979   6.555 -0.2518  0.4749  0.0051
  486MOL0     C66991   2.963   1.885   6.499  0.4089  0.0587  0.2316
  486MOL0     C66992   2.929   1.743   6.520 -0.1723 -0.1111 -0.7283
  486MOL0     C66993   3.020   1.641   6.449 -0.4242  0.1326  0.3943
  486MOL0     C66994   3.007   1.642   6.307 -0.0460 -0.2750  0.2212
  486MOL0     C66995   2.989   1.657   6.186  0.5282 -0.3731 -0.2426
  486MOL0     C66996   2.991   1.928   6.869 -0.5617 -0.0301 -0.5506
  486MOL0     C66997   3.108   1.973   6.944 -0.6153 -0.9535 -0.1271
  486MOL0     C66998   3.171   1.889   7.050  0.0091 -0.2371 -0.0554
  486MOL0     H66999   3.334   2.186   7.276  1.1156  0.3483 -2.1128
  486MOL0     H67000   3.409   2.325   7.483 -1.0592  3.5414  1.3441
  486MOL0     H67001   3.496   2.460   7.644  1.5493  2.1966  1.6311
  486MOL0     H67002   3.325   2.507   7.638 -1.4935  2.2784  1.1422
  486MOL0     H67003   3.552   2.695   7.709 -0.1402  0.7861 -1.5452
  486MOL0     H67004   3.393   2.748   7.677 -2.1047 -1.0583  0.3064
  486MOL0     H67005   3.351   2.719   7.909  0.7182  0.6096 -0.8028
  486MOL0     H67006   3.330   2.549   7.859 -0.4075 -0.4001 -3.0536
  486MOL0     H67007   3.567   2.500   7.878  0.5124  0.9934 -1.2291
  486MOL0     H67008   3.588   2.663   7.942 -1.8894  1.1435 -0.0972
  486MOL0     H67009   3.411   2.581   8.124  1.1025  3.7066 -1.6484
  486MOL0     H67010   3.585   2.553   8.140 -1.2479 -0.0683  0.2410
  486MOL0     H67011   3.368   2.360   8.034  0.5120 -0.0076 -0.7578
  486MOL0     H67012   3.545   2.318   8.029  1.0207 -0.6823  2.2492
  486MOL0     H67013   3.390   2.263   8.235  0.6542 -0.8300  0.8270
  486MOL0     H67014   3.427   2.421   8.286 -1.3034 -0.6368 -1.8807
  486MOL0     H67015   3.665   2.359   8.236 -0.0180 -0.4764 -1.9987
  486MOL0     H67016   3.594   2.314   8.393  2.9157 -0.3309 -0.4889
  486MOL0     H67017   3.848   2.185   8.282  0.3037 -0.2042 -0.4867
  486MOL0     H67018   3.851   1.809   8.313  0.2658  0.2848  3.2787
  486MOL0     H67019   3.936   1.959   8.337 -2.9608 -0.1513  3.2646
  486MOL0     H67020   3.896   1.871   8.048  1.8592 -1.4100 -1.1839
  486MOL0     H67021   4.015   1.975   8.128 -4.0987  1.8212  0.7276
  486MOL0     H67022   4.085   1.733   8.242 -0.2611  0.5373 -0.0729
  486MOL0     H67023   3.979   1.668   8.132  1.6031 -1.6757 -1.2010
  486MOL0     H67024   4.191   1.664   8.002 -1.0493  0.7392 -5.5668
  486MOL0     H67025   4.098   1.808   7.945 -0.8709  2.1611  2.1330
  486MOL0     H67026   4.403   2.054   8.117  0.7812 -0.7518  0.2011
  486MOL0     H67027   4.694   2.168   7.950 -0.0113 -0.9061  0.8460
  486MOL0     H67028   4.599   2.191   8.093  2.3337  0.0805 -0.6171
  486MOL0     H67029   4.558   2.287   7.945 -0.0795  1.2894  0.4290
  486MOL0     H67030   4.884   2.115   7.650  1.1269  0.7676  0.1141
  486MOL0     H67031   5.026   2.231   7.494 -1.1346  0.4030  2.8337
  486MOL0     H67032   5.121   2.354   7.144  2.4897  0.8715  1.1918
  486MOL0     H67033   5.141   2.293   7.316 -0.2589 -3.0410  0.3652
  486MOL0     H67034   5.135   2.073   7.260 -0.8050  0.6960  0.3784
  486MOL0     H67035   5.059   2.102   7.098  1.2950 -1.6096 -0.9465
  486MOL0     H67036   5.328   2.186   7.202 -1.0590  0.4175  0.3923
  486MOL0     H67037   5.268   2.189   7.032  1.4886 -2.0622 -1.1499
  486MOL0     H67038   5.252   1.949   7.022  1.0918 -0.2049 -0.6391
  486MOL0     H67039   5.318   1.939   7.193 -0.7550  5.8281  3.5814
  486MOL0     H67040   5.477   1.897   7.005 -3.5452 -1.8071  1.2780
  486MOL0     H67041   5.452   2.068   6.947  2.8120  2.5107  1.7603
  486MOL0     H67042   5.559   2.002   7.213 -1.0911  1.8249  1.0553
  486MOL0     H67043   5.542   2.160   7.149 -0.3719  0.4660 -1.1210
  486MOL0     H67044   5.729   1.949   7.025  2.5247  1.2981  0.4915
  486MOL0     H67045   5.789   2.059   7.148 -0.6618 -0.0655  1.1267
  486MOL0     H67046   5.642   2.134   6.890  0.7748  0.5819 -0.5198
  486MOL0     H67047   5.814   2.094   6.905  2.2464 -3.1348  5.0813
  486MOL0     H67048   4.706   2.190   7.201  0.7344 -2.0789 -0.8351
  486MOL0     H67049   4.573   2.087   7.366 -0.5513 -0.2524  0.1364
  486MOL0     H67050   4.411   1.899   7.653  0.2718  0.4220 -0.8658
  486MOL0     H67051   4.289   1.783   7.809  1.8427 -0.1777 -1.3039
  486MOL0     H67052   3.340   2.681   7.266  0.2847 -0.0527  0.4937
  486MOL0     H67053   3.236   2.548   7.091  2.4052 -0.1836 -1.9179
  486MOL0     H67054   3.073   2.299   6.865 -2.8964  0.0458  0.8152
  486MOL0     H67055   2.867   2.197   6.735 -1.6247 -0.5093  2.1648
  486MOL0     H67056   2.765   1.950   6.500  0.3332 -1.0159 -0.2305
  486MOL0     H67057   2.876   2.084   6.532 -2.3152  1.3648  1.8660
  486MOL0     H67058   3.053   1.912   6.556  1.3063 -2.5685  0.2148
  486MOL0     H67059   2.979   1.907   6.394  0.3129 -0.2967  0.1405
  486MOL0     H67060   2.941   1.715   6.626 -4.0155 -2.5432 -0.7363
  486MOL0     H67061   2.826   1.718   6.491 -1.0521  0.5776  1.5188
  486MOL0     H67062   2.980   1.542   6.474  1.4196 -1.3074 -1.9841
  486MOL0     H67063   3.121   1.655   6.488  0.0575 -1.3558 -0.2816
  486MOL0     H67064   2.954   1.673   6.086 -3.1652 -0.4364  0.8863
  486MOL0     H67065   2.961   1.825   6.882  2.9010 -1.5965 -3.2572
  486MOL0     H67066   3.269   1.850   7.020  0.2826 -2.5403  3.2102
  486MOL0     H67067   3.185   1.932   7.149 -0.4886  0.2880 -0.2127
  486MOL0     H67068   3.112   1.799   7.074  3.1768 -1.8431  2.5142
  487MOL0     O67069   3.999   6.115  11.359 -1.1205 -0.7659 -0.0062
  487MOL0     C67070   3.994   6.231  11.328  0.5087  1.2262  0.4301
  487MOL0     O67071   3.971   6.272  11.201  0.1964 -0.5293 -1.1351
  487MOL0     C67072   3.970   6.177  11.108  0.1981 -1.0281  0.8115
  487MOL0     C67073   4.068   6.146  11.017  0.5792 -0.0904  0.1059
  487MOL0     C67074   4.050   6.049  10.914  0.6491  0.2345 -0.2683
  487MOL0     C67075   3.918   6.003  10.893  0.1736 -0.2298  0.1846
  487MOL0     O67076   3.889   5.920  10.790  0.8659  0.0546  0.2945
  487MOL0     C67077   3.881   5.782  10.837 -0.8810 -0.6097  0.1404
  487MOL0     C67078   4.016   5.710  10.812 -1.2945 -0.0976  0.3861
  487MOL0     C67079   4.038   5.653  10.665  0.0216 -0.0351  0.2586
  487MOL0     C67080   4.114   5.739  10.566 -0.1248 -0.6370 -0.4619
  487MOL0     C67081   4.263   5.736  10.604  0.8189 -0.0060  0.3263
  487MOL0     C67082   4.344   5.799  10.485  0.0953  0.6580 -0.6862
  487MOL0     C67083   4.498   5.803  10.512  0.1412  0.4700 -0.6205
  487MOL0     C67084   4.561   5.668  10.469 -0.5803  0.2048  0.6730
  487MOL0     N67085   4.717   5.673  10.500  0.2983 -0.4221 -0.1917
  487MOL0     C67086   4.763   5.651  10.622  0.6118  0.0454  0.0864
  487MOL0     C67087   4.898   5.677  10.623 -0.1109 -0.2603 -0.9175
  487MOL0     C67088   4.986   5.668  10.748 -0.1686 -0.4377  0.7370
  487MOL0     C67089   5.029   5.533  10.798 -0.7480  0.6200  0.6413
  487MOL0     C67090   5.053   5.529  10.946 -0.2805 -0.7582 -0.5033
  487MOL0     C67091   5.193   5.568  10.978 -0.3520  0.8721  0.7587
  487MOL0     O67092   5.206   5.689  10.916  0.1085 -0.0932  0.5216
  487MOL0     C67093   5.320   5.755  10.934 -0.0392 -0.9665  1.0883
  487MOL0     C67094   5.326   5.877  10.859  0.5860 -0.3018 -0.7388
  487MOL0     C67095   5.432   5.968  10.864 -1.5566  0.0559  0.6700
  487MOL0     C67096   5.442   6.083  10.763 -0.2732  0.9396 -0.4685
  487MOL0     C67097   5.540   5.940  10.953  0.1268  0.8323  0.1452
  487MOL0     C67098   5.648   6.043  10.995  0.0892  0.0540 -0.0873
  487MOL0     O67099   5.625   6.175  10.967 -0.0469  0.2305 -0.1061
  487MOL0     C67100   5.727   6.256  10.990 -0.3270  1.1452 -1.0149
  487MOL0     C67101   5.847   6.245  10.911 -0.0819  0.9676  0.5554
  487MOL0     C67102   5.957   6.333  10.929 -0.1251  0.4903  0.1597
  487MOL0     C67103   5.946   6.447  11.011 -1.4874  0.2207 -0.2163
  487MOL0     O67104   6.036   6.553  11.017  0.6368 -0.2165 -0.1651
  487MOL0     C67105   6.162   6.542  10.959 -0.5894 -0.3721  0.4678
  487MOL0     C67106   6.177   6.594  10.821  0.0185  0.0682  0.5226
  487MOL0     C67107   6.196   6.747  10.808  0.2523 -0.6083 -0.8364
  487MOL0     C67108   6.081   6.838  10.862 -0.4545  0.4128 -0.4145
  487MOL0     C67109   5.960   6.798  10.782 -0.3257  0.0366 -0.1772
  487MOL0     C67110   5.850   6.898  10.803 -0.1317 -1.2252  0.2898
  487MOL0     C67111   5.890   7.046  10.757  0.4942  1.0073 -0.3785
  487MOL0     C67112   5.770   7.136  10.803  0.2132 -0.0464  0.7951
  487MOL0    Cl67113   5.621   7.114  10.711 -0.3666 -0.4821 -0.2926
  487MOL0     C67114   5.833   6.457  11.085  0.4816  0.1984  0.1858
  487MOL0     C67115   5.721   6.366  11.083  0.3219  0.5356  0.8096
  487MOL0     O67116   5.746   5.999  11.053  0.2796 -0.5882  0.6541
  487MOL0     C67117   5.541   5.819  11.016 -0.2885  0.3327 -0.3071
  487MOL0     C67118   5.426   5.729  11.018  0.3312  0.6642 -0.6720
  487MOL0     N67119   4.929   5.709  10.493 -0.1710  0.3165  0.1952
  487MOL0     N67120   4.825   5.687  10.427  1.1598 -0.2586 -0.2418
  487MOL0     C67121   3.811   6.042  10.973 -1.0317 -1.5748  0.4289
  487MOL0     C67122   3.844   6.125  11.084 -0.8252  1.1118  0.5169
  487MOL0     C67123   4.009   6.343  11.434  0.0691  0.3189 -0.3018
  487MOL0     C67124   3.956   6.465  11.411  0.9239  0.2756 -0.5538
  487MOL0     C67125   3.957   6.564  11.504  0.4987 -0.3213  0.3548
  487MOL0     C67126   4.014   6.549  11.627 -0.1214  0.2535  0.2511
  487MOL0     O67127   3.997   6.652  11.705 -0.0796 -0.5486 -0.1895
  487MOL0     C67128   3.982   6.629  11.843  0.0818  0.9503  0.1716
  487MOL0     C67129   3.882   6.737  11.890  0.1537  0.5770 -0.5817
  487MOL0     C67130   3.853   6.717  12.032 -0.1845  0.9402  0.1167
  487MOL0     C67131   3.755   6.814  12.103  0.3921  0.8497  0.5685
  487MOL0     C67132   3.713   6.744  12.229 -0.1832  0.3262 -0.2846
  487MOL0     C67133   3.662   6.681  12.320  0.6608 -0.3861  0.4737
  487MOL0     C67134   4.051   6.418  11.656 -0.4214 -0.5341  0.6097
  487MOL0     C67135   4.064   6.322  11.556 -0.5965 -0.0835 -0.8588
  487MOL0     C67136   4.145   6.211  11.599 -0.3179 -0.0705  0.0717
  487MOL0     H67137   4.163   6.198  11.028  1.3723 -1.9472  3.9979
  487MOL0     H67138   4.129   6.010  10.851 -0.4657 -2.0042 -0.3809
  487MOL0     H67139   3.797   5.731  10.790 -1.9100  2.3813 -1.5448
  487MOL0     H67140   3.863   5.794  10.945  0.7022  2.7361  0.1336
  487MOL0     H67141   4.097   5.770  10.853 -1.6865  1.8529 -1.5146
  487MOL0     H67142   4.016   5.616  10.867 -1.1395  0.9760  2.3064
  487MOL0     H67143   4.079   5.552  10.658  1.2398  0.5083 -0.7700
  487MOL0     H67144   3.940   5.628  10.625 -1.8513  1.7481  3.2728
  487MOL0     H67145   4.109   5.699  10.465 -0.0269 -0.3724 -0.5731
  487MOL0     H67146   4.068   5.839  10.571  2.2419  0.4893  0.6937
  487MOL0     H67147   4.291   5.631  10.601 -1.4277 -0.7037 -3.6564
  487MOL0     H67148   4.287   5.783  10.700  3.6784  0.0593 -0.3489
  487MOL0     H67149   4.323   5.753  10.388 -1.6444  1.0974 -0.5663
  487MOL0     H67150   4.321   5.904  10.465 -1.8422  0.9457  2.3685
  487MOL0     H67151   4.516   5.819  10.618  1.2218  0.0488 -0.7333
  487MOL0     H67152   4.552   5.871  10.445  2.1946 -1.1907 -0.7237
  487MOL0     H67153   4.521   5.583  10.524  0.8422 -1.5953 -0.9128
  487MOL0     H67154   4.544   5.651  10.362  1.3666 -0.8316  0.4810
  487MOL0     H67155   4.714   5.611  10.710  0.0036 -1.2851 -0.8227
  487MOL0     H67156   4.930   5.714  10.830 -0.3647  1.5945 -0.4666
  487MOL0     H67157   5.086   5.711  10.735  1.2102 -3.0312  1.9758
  487MOL0     H67158   4.939   5.472  10.788 -1.3851  0.9421  3.5248
  487MOL0     H67159   5.110   5.481  10.745 -0.3124  0.3518  1.5466
  487MOL0     H67160   4.991   5.602  10.997  0.5878  2.7296 -3.9469
  487MOL0     H67161   5.032   5.426  10.976 -0.9332 -0.5145 -0.1320
  487MOL0     H67162   5.193   5.568  11.087 -4.4218 -0.2646  0.9201
  487MOL0     H67163   5.252   5.492  10.925 -1.6618  0.8664 -0.7963
  487MOL0     H67164   5.240   5.906  10.800 -0.4015  3.4905  2.1546
  487MOL0     H67165   5.533   6.093  10.704 -0.5241  1.1761 -0.8221
  487MOL0     H67166   5.436   6.175  10.821  0.7742  0.1413  0.9658
  487MOL0     H67167   5.354   6.087  10.697 -0.2810  2.0052 -0.4078
  487MOL0     H67168   5.851   6.163  10.840  0.3520  1.6933 -0.2775
  487MOL0     H67169   6.040   6.333  10.859  0.3730 -0.0596  0.7426
  487MOL0     H67170   6.223   6.611  11.018 -0.0128  2.5981 -3.1853
  487MOL0     H67171   6.207   6.443  10.970  0.3963 -0.5071 -3.3462
  487MOL0     H67172   6.263   6.549  10.771 -1.9515  0.0431 -3.1555
  487MOL0     H67173   6.085   6.562  10.771  0.1213  2.3285 -1.2520
  487MOL0     H67174   6.193   6.774  10.702  0.7839 -2.9032 -1.4973
  487MOL0     H67175   6.293   6.778  10.848 -0.1915  2.3588 -1.8488
  487MOL0     H67176   6.112   6.943  10.857  1.1641 -0.0356 -0.2231
  487MOL0     H67177   6.078   6.822  10.970 -1.0591  1.5454 -0.2519
  487MOL0     H67178   5.988   6.800  10.676  2.1024 -1.7905  0.3676
  487MOL0     H67179   5.914   6.703  10.809  1.4313 -0.5898  0.6964
  487MOL0     H67180   5.838   6.908  10.912  3.7446  1.5942  0.7022
  487MOL0     H67181   5.761   6.873  10.746 -0.7037  0.8107  0.2281
  487MOL0     H67182   5.905   7.069  10.651 -0.7705  1.3235 -0.5174
  487MOL0     H67183   5.975   7.089  10.810  1.0523 -0.1640 -0.3024
  487MOL0     H67184   5.800   7.241  10.789 -0.0777 -0.1268 -0.5644
  487MOL0     H67185   5.750   7.111  10.908 -0.2150 -1.1115  0.4715
  487MOL0     H67186   5.810   6.551  11.136  1.1906  1.8802 -2.3859
  487MOL0     H67187   5.630   6.381  11.141  0.6809  0.7223  1.3345
  487MOL0     H67188   5.624   5.804  11.084 -1.3400  1.7635  1.3709
  487MOL0     H67189   5.417   5.634  11.071 -2.0416  0.7898 -0.7420
  487MOL0     H67190   3.707   6.014  10.954 -1.2863  0.3442 -1.3224
  487MOL0     H67191   3.767   6.162  11.151  0.0604 -1.4478  3.1727
  487MOL0     H67192   3.905   6.482  11.317 -1.5049 -0.5058  0.5389
  487MOL0     H67193   3.922   6.660  11.467  2.4774 -0.4440 -2.1647
  487MOL0     H67194   3.937   6.531  11.861 -0.5958  1.5923  2.2577
  487MOL0     H67195   4.081   6.643  11.887 -0.4386  1.6452  1.1622
  487MOL0     H67196   3.793   6.731  11.827  0.9919 -1.4130 -1.6736
  487MOL0     H67197   3.921   6.838  11.871 -1.2622  1.1729 -0.4373
  487MOL0     H67198   3.812   6.616  12.044  1.1310  0.4636  0.8724
  487MOL0     H67199   3.945   6.705  12.090  1.2419  0.6364 -2.1085
  487MOL0     H67200   3.663   6.836  12.049 -0.2767 -3.3994 -0.3940
  487MOL0     H67201   3.807   6.909  12.121 -0.8620  1.4692  1.0513
  487MOL0     H67202   3.613   6.631  12.402 -3.3871  2.8542  0.3985
  487MOL0     H67203   4.093   6.395  11.754  3.1678 -2.8538 -1.2519
  487MOL0     H67204   4.087   6.118  11.597  1.2103 -1.1995 -4.4020
  487MOL0     H67205   4.227   6.201  11.527 -0.4998 -1.9856  0.0800
  487MOL0     H67206   4.195   6.223  11.695  2.1443 -1.0053 -1.0120
  488MOL0     O67207   3.544   4.175   4.711  0.7881 -1.1886 -0.7746
  488MOL0     C67208   3.528   4.123   4.605 -0.0871  0.5611  0.9271
  488MOL0     O67209   3.582   3.994   4.573  0.8512 -0.4075 -0.0060
  488MOL0     C67210   3.704   3.972   4.616 -0.6327 -0.8961 -0.8151
  488MOL0     C67211   3.828   4.040   4.570 -0.2323 -0.1255  0.5064
  488MOL0     C67212   3.955   3.993   4.612 -0.7909 -0.1168 -0.7355
  488MOL0     C67213   3.956   3.892   4.711 -0.6948  0.0495 -0.2284
  488MOL0     O67214   4.079   3.867   4.759 -0.5752  0.9215 -0.1415
  488MOL0     C67215   4.110   3.737   4.816 -0.2056  0.6752  0.1849
  488MOL0     C67216   4.265   3.710   4.826 -0.4593  0.6094  0.0451
  488MOL0     C67217   4.343   3.678   4.701  0.1702  0.7182 -0.5500
  488MOL0     C67218   4.285   3.535   4.634  0.2469 -0.4457 -0.1622
  488MOL0     C67219   4.403   3.469   4.552  0.4607 -0.2592 -0.3354
  488MOL0     C67220   4.358   3.338   4.474  0.2616 -0.0506 -0.1447
  488MOL0     C67221   4.314   3.220   4.559 -0.3923 -0.3124 -0.2126
  488MOL0     C67222   4.414   3.178   4.671 -0.4216  0.8719 -0.9017
  488MOL0     N67223   4.361   3.142   4.803  0.3593  0.5109 -0.6717
  488MOL0     C67224   4.371   3.215   4.920 -0.0863 -0.3106 -1.5642
  488MOL0     C67225   4.319   3.142   5.018 -0.1424  0.0524  0.3067
  488MOL0     C67226   4.320   3.192   5.160 -0.3557  0.6922 -0.2024
  488MOL0     C67227   4.219   3.299   5.202 -0.2535  0.9449 -0.3556
  488MOL0     C67228   4.061   3.272   5.185 -0.3551 -0.3506  0.9874
  488MOL0     C67229   4.004   3.269   5.036 -0.2173  0.3385  0.3966
  488MOL0     O67230   4.007   3.402   4.969 -0.6308 -0.0824 -0.5488
  488MOL0     C67231   3.919   3.415   4.868  0.3614 -0.1507  0.1225
  488MOL0     C67232   3.964   3.388   4.738 -0.1508 -0.1104  0.1553
  488MOL0     C67233   3.874   3.416   4.628  0.4945 -0.4653  0.1550
  488MOL0     C67234   3.925   3.387   4.496 -0.3419  0.3138  0.0996
  488MOL0     C67235   3.744   3.470   4.647 -0.5722  0.2165  0.7878
  488MOL0     C67236   3.650   3.497   4.541  0.7319  0.3357  0.9822
  488MOL0     O67237   3.555   3.593   4.568 -0.8412  0.0571  0.3019
  488MOL0     C67238   3.473   3.632   4.465  0.3529 -0.3683 -0.0183
  488MOL0     C67239   3.345   3.578   4.444  0.5903 -0.9102  0.7350
  488MOL0     C67240   3.265   3.629   4.344  0.0558  0.0635  0.1436
  488MOL0     C67241   3.295   3.737   4.257 -0.0198 -0.2109  0.2797
  488MOL0     O67242   3.211   3.787   4.162  0.8870 -0.6282 -0.2829
  488MOL0     C67243   3.258   3.795   4.035  0.3571  0.2278  0.2714
  488MOL0     C67244   3.136   3.790   3.930 -0.7037  0.0483 -0.4843
  488MOL0     C67245   3.066   3.925   3.933 -0.7767  0.5600 -0.5577
  488MOL0     C67246   2.946   3.929   3.843  0.4139  0.5338 -0.0318
  488MOL0     C67247   2.866   4.068   3.841 -0.7503  0.4798 -0.1267
  488MOL0     C67248   2.939   4.173   3.756 -0.0702  0.7198 -0.9469
  488MOL0     C67249   2.842   4.291   3.727  0.4137  0.3365  1.0517
  488MOL0     C67250   2.739   4.266   3.609  0.2203 -0.7626 -0.6667
  488MOL0    Cl67251   2.822   4.287   3.453 -0.1450  0.2461 -0.2056
  488MOL0     C67252   3.432   3.783   4.282  0.2037 -0.4864  0.6636
  488MOL0     C67253   3.514   3.736   4.387 -0.5800 -0.0828  0.6659
  488MOL0     O67254   3.658   3.437   4.428 -0.1524 -0.1762 -0.2518
  488MOL0     C67255   3.711   3.495   4.778  0.7303  0.8468  0.8183
  488MOL0     C67256   3.799   3.480   4.888  0.4069 -0.0754 -0.9942
  488MOL0     N67257   4.260   3.031   4.956 -0.3360 -1.1933 -0.4248
  488MOL0     N67258   4.288   3.031   4.830  0.4087 -0.3814 -0.4398
  488MOL0     C67259   3.846   3.830   4.757 -0.0246  1.6646  0.9408
  488MOL0     C67260   3.718   3.861   4.706 -0.4613 -0.6171 -0.1556
  488MOL0     C67261   3.437   4.178   4.498 -0.0403 -0.4102 -0.0205
  488MOL0     C67262   3.349   4.094   4.425  0.2104 -0.1727  0.8672
  488MOL0     C67263   3.250   4.143   4.344 -0.1390  0.3015  0.0127
  488MOL0     C67264   3.229   4.273   4.339  0.2253  0.1007  0.1145
  488MOL0     O67265   3.132   4.341   4.264 -0.9868  0.3788  0.4270
  488MOL0     C67266   3.012   4.270   4.242  0.5036  0.5660  0.8957
  488MOL0     C67267   2.896   4.366   4.211  0.6303 -0.3592 -0.3713
  488MOL0     C67268   2.909   4.453   4.085  0.4446 -0.0314  0.9819
  488MOL0     C67269   2.763   4.486   4.044  0.1431  0.9362 -0.0392
  488MOL0     C67270   2.762   4.568   3.928  0.2506 -0.1949 -0.7121
  488MOL0     C67271   2.765   4.614   3.823 -0.9552  0.4057  0.1647
  488MOL0     C67272   3.306   4.360   4.412 -0.5438 -0.7754  0.9909
  488MOL0     C67273   3.423   4.318   4.472 -0.5127 -0.0827 -0.0675
  488MOL0     C67274   3.515   4.419   4.524  0.1138 -0.0904 -0.2110
  488MOL0     H67275   3.814   4.123   4.501 -2.1075  1.6551  2.8476
  488MOL0     H67276   4.047   4.045   4.589 -1.1059  0.9375  0.3009
  488MOL0     H67277   4.065   3.657   4.755  2.3170 -0.6792 -0.0304
  488MOL0     H67278   4.082   3.719   4.920  0.9258 -3.6022 -0.0589
  488MOL0     H67279   4.303   3.795   4.884 -1.9395  1.1830  0.2048
  488MOL0     H67280   4.272   3.618   4.884  0.5181 -0.8489 -2.2463
  488MOL0     H67281   4.326   3.745   4.617 -4.6031  0.0746 -0.3832
  488MOL0     H67282   4.449   3.675   4.730 -0.7397  4.1212  4.4480
  488MOL0     H67283   4.257   3.465   4.713  0.9809  0.3748  0.8617
  488MOL0     H67284   4.206   3.551   4.560 -0.2994  0.7526  0.6531
  488MOL0     H67285   4.482   3.443   4.622 -1.7234 -0.2443  2.3100
  488MOL0     H67286   4.440   3.535   4.473  2.0654 -1.8102 -0.9448
  488MOL0     H67287   4.282   3.369   4.401  0.4965 -2.0805 -1.3356
  488MOL0     H67288   4.440   3.291   4.418 -0.7334 -0.8947 -0.9434
  488MOL0     H67289   4.318   3.140   4.485  1.9202 -0.9100  0.4956
  488MOL0     H67290   4.215   3.241   4.603  0.1502 -0.2933  1.0572
  488MOL0     H67291   4.464   3.093   4.623 -2.3250  0.1106 -1.6347
  488MOL0     H67292   4.493   3.251   4.689  1.3750 -1.5079  1.7920
  488MOL0     H67293   4.409   3.316   4.935  1.0977 -1.0487  0.8139
  488MOL0     H67294   4.420   3.232   5.178  0.2379 -0.4256 -0.9634
  488MOL0     H67295   4.315   3.102   5.222  3.1549 -1.2240 -2.4200
  488MOL0     H67296   4.239   3.335   5.303  3.2831  0.8067 -0.9072
  488MOL0     H67297   4.249   3.388   5.146 -0.1456  1.9500  1.2305
  488MOL0     H67298   4.038   3.178   5.235 -2.0607  0.7337  2.3297
  488MOL0     H67299   4.008   3.347   5.244 -0.7317  0.1922 -0.0020
  488MOL0     H67300   4.069   3.196   4.988 -0.8276  0.1039 -0.0790
  488MOL0     H67301   3.901   3.234   5.044 -0.1924 -0.0977 -0.9175
  488MOL0     H67302   4.066   3.356   4.718 -1.0026 -0.4228 -5.1790
  488MOL0     H67303   4.027   3.352   4.508 -0.6820  0.1605  3.2278
  488MOL0     H67304   3.927   3.474   4.430 -1.8932 -0.5492 -1.1659
  488MOL0     H67305   3.879   3.304   4.441  1.7414 -0.6054 -0.3328
  488MOL0     H67306   3.307   3.509   4.518 -0.9619 -2.6845 -1.5950
  488MOL0     H67307   3.166   3.587   4.331 -0.3569  1.4442 -1.6504
  488MOL0     H67308   3.321   3.880   4.008  1.0705 -0.9511 -2.0350
  488MOL0     H67309   3.314   3.704   4.012 -0.4298 -0.9147  2.5958
  488MOL0     H67310   3.180   3.784   3.830  0.3315 -0.7350 -0.0031
  488MOL0     H67311   3.060   3.720   3.965 -1.4866  0.5808 -1.0777
  488MOL0     H67312   3.142   4.001   3.909 -1.4211  1.3442 -0.1900
  488MOL0     H67313   3.046   3.945   4.039  1.2931 -3.2292  0.7275
  488MOL0     H67314   2.875   3.855   3.882  1.3169 -2.1853 -3.0697
  488MOL0     H67315   2.968   3.907   3.738  2.2314 -0.6357  0.5410
  488MOL0     H67316   2.774   4.043   3.786 -0.2508  2.7868 -2.1623
  488MOL0     H67317   2.840   4.102   3.942  2.1110 -0.1687  0.9267
  488MOL0     H67318   2.970   4.121   3.665  2.5363  0.7121 -0.1366
  488MOL0     H67319   3.035   4.204   3.799 -0.0342 -2.6009  1.8421
  488MOL0     H67320   2.905   4.376   3.700 -1.2558  1.7585  1.4384
  488MOL0     H67321   2.784   4.312   3.818 -3.9338 -5.3570  0.1487
  488MOL0     H67322   2.656   4.331   3.635  0.7400  0.0740 -1.0516
  488MOL0     H67323   2.685   4.171   3.617 -0.9593  0.0696  2.6156
  488MOL0     H67324   3.484   3.858   4.221  0.1421  1.3015  2.6843
  488MOL0     H67325   3.614   3.779   4.385 -0.0762 -1.1736 -2.3178
  488MOL0     H67326   3.609   3.532   4.782 -0.0284  0.0904 -4.2663
  488MOL0     H67327   3.767   3.496   4.991 -0.0983 -2.4885 -0.7077
  488MOL0     H67328   3.848   3.753   4.833 -1.0671 -0.4238 -1.0402
  488MOL0     H67329   3.637   3.795   4.734  0.3819 -0.3732  3.3758
  488MOL0     H67330   3.360   3.988   4.447 -2.9159 -1.5812 -3.1279
  488MOL0     H67331   3.200   4.067   4.284 -1.6356 -0.0812  1.6685
  488MOL0     H67332   3.027   4.216   4.148 -0.1419 -2.7101  2.5483
  488MOL0     H67333   2.991   4.198   4.322  1.7164 -0.2870  0.4720
  488MOL0     H67334   2.886   4.434   4.297 -0.0881 -1.3635  0.3551
  488MOL0     H67335   2.806   4.307   4.222  0.0138  1.0016  3.5979
  488MOL0     H67336   2.971   4.540   4.107  1.4640 -0.7853  1.1763
  488MOL0     H67337   2.965   4.397   4.010 -1.0684 -1.3772  0.7870
  488MOL0     H67338   2.718   4.549   4.122 -0.1679  0.3887  0.2373
  488MOL0     H67339   2.703   4.394   4.038  2.6866 -0.7075 -1.9460
  488MOL0     H67340   2.787   4.645   3.723 -1.0154  0.4206  0.1555
  488MOL0     H67341   3.284   4.466   4.410 -2.4322 -1.1483 -0.1172
  488MOL0     H67342   3.618   4.388   4.505 -0.5899 -1.8945 -1.3294
  488MOL0     H67343   3.504   4.513   4.469 -2.7939 -0.6316 -0.7162
  488MOL0     H67344   3.493   4.436   4.629  3.5984  3.3208  0.2155
  489MOL0     O67345  10.744  11.084  10.155  0.2215 -0.3726  0.1424
  489MOL0     C67346  10.629  11.076  10.189  0.0522  0.2322  0.4478
  489MOL0     O67347  10.580  11.102  10.321  0.0303  0.4788 -0.2408
  489MOL0     C67348  10.653  11.184  10.407 -0.9158  0.5132  0.5849
  489MOL0     C67349  10.625  11.161  10.542  0.7517 -0.7163 -0.3576
  489MOL0     C67350  10.691  11.239  10.640  0.2168  0.5515  0.2624
  489MOL0     C67351  10.786  11.329  10.603 -1.5141 -0.2829 -0.1851
  489MOL0     O67352  10.873  11.391  10.699  0.1356 -0.1722 -0.4251
  489MOL0     C67353  10.901  11.308  10.819 -0.5950  0.5561 -0.4440
  489MOL0     C67354  11.003  11.377  10.910  0.0581  0.3555  0.5912
  489MOL0     C67355  11.044  11.287  11.034 -0.6987 -0.2358  0.3651
  489MOL0     C67356  11.169  11.201  11.020 -0.4740  0.5196  0.3076
  489MOL0     C67357  11.238  11.156  11.157 -0.3746 -0.0876  0.2950
  489MOL0     C67358  11.160  11.057  11.237 -0.1223  0.1866  0.0588
  489MOL0     C67359  11.176  11.088  11.384  0.0390  0.1847  0.3221
  489MOL0     C67360  11.134  10.966  11.476 -0.1108 -0.2317  0.4343
  489MOL0     N67361  10.992  10.929  11.455 -0.5698 -0.0669 -0.1066
  489MOL0     C67362  10.939  10.830  11.371  0.0693  0.7266 -0.7380
  489MOL0     C67363  10.808  10.829  11.388  0.1269  0.5100 -0.2465
  489MOL0     C67364  10.697  10.752  11.332 -0.5021  0.6407  0.1612
  489MOL0     C67365  10.603  10.686  11.416 -0.0459  0.3399  0.0177
  489MOL0     C67366  10.667  10.636  11.546  0.3374  0.2579  0.0926
  489MOL0     C67367  10.608  10.498  11.605 -0.4432  0.2275 -0.5746
  489MOL0     O67368  10.476  10.514  11.653 -0.2589 -0.4080  0.0861
  489MOL0     C67369  10.429  10.407  11.729  0.2370  1.0539  0.0078
  489MOL0     C67370  10.316  10.433  11.805 -0.9548 -0.2960  0.1394
  489MOL0     C67371  10.253  10.339  11.880  0.2237  0.8838 -0.4385
  489MOL0     C67372  10.107  10.368  11.946 -0.5629  0.4236 -0.9483
  489MOL0     C67373  10.306  10.206  11.879  0.3521 -0.0560 -0.2063
  489MOL0     C67374  10.241  10.099  11.950 -0.1596 -0.0491 -0.6454
  489MOL0     O67375  10.104  10.075  11.933  0.0564 -0.5400 -0.4004
  489MOL0     C67376  10.044   9.964  11.992 -0.5892 -0.7163  0.1212
  489MOL0     C67377  10.086   9.902  12.109  0.0341  0.7068 -0.9024
  489MOL0     C67378  10.018   9.789  12.147  0.0279 -0.4328 -0.4828
  489MOL0     C67379   9.905   9.743  12.086  0.7134 -0.6726  0.5052
  489MOL0     O67380   9.849   9.626  12.127  0.6799 -0.1900  0.3044
  489MOL0     C67381   9.713   9.600  12.098  0.9358 -1.4835  0.1600
  489MOL0     C67382   9.665   9.467  12.152 -0.6536  0.1956 -0.3167
  489MOL0     C67383   9.662   9.479  12.304  0.5340  0.0546 -0.4765
  489MOL0     C67384   9.561   9.370  12.364 -0.5025  0.3797 -1.0324
  489MOL0     C67385   9.579   9.341  12.519  0.2789 -0.0962  0.0793
  489MOL0     C67386   9.450   9.314  12.592 -0.4074 -0.2612 -0.0317
  489MOL0     C67387   9.469   9.231  12.718 -0.1540  0.1600  0.5802
  489MOL0     C67388   9.329   9.209  12.782 -0.2340  0.4117 -0.4577
  489MOL0    Cl67389   9.233   9.355  12.796 -0.1900 -0.2326 -0.2093
  489MOL0     C67390   9.851   9.817  11.975  0.0261 -0.2210 -0.4447
  489MOL0     C67391   9.924   9.926  11.926  0.0975  0.7702  0.1256
  489MOL0     O67392  10.322  10.022  11.997  0.1017 -0.3704 -0.8093
  489MOL0     C67393  10.421  10.168  11.806 -0.5833 -0.0843 -0.6771
  489MOL0     C67394  10.483  10.269  11.728  0.1407 -0.2592 -0.3203
  489MOL0     N67395  10.781  10.915  11.492 -0.8399 -0.3895  0.5948
  489MOL0     N67396  10.895  10.972  11.534 -0.2702  1.0103  0.1598
  489MOL0     C67397  10.803  11.364  10.468 -0.0972  0.4578  0.2261
  489MOL0     C67398  10.732  11.292  10.369  0.2419  0.2805  0.8474
  489MOL0     C67399  10.532  11.029  10.082 -0.7083 -0.5040 -0.4179
  489MOL0     C67400  10.398  11.051  10.113 -1.6347 -0.9144  0.1246
  489MOL0     C67401  10.296  11.007  10.029  0.7831  0.4461 -0.3493
  489MOL0     C67402  10.325  10.960   9.902  0.6480  0.2378 -0.4232
  489MOL0     O67403  10.227  10.906   9.824  0.8637  0.1930  0.2313
  489MOL0     C67404  10.114  10.986   9.785 -0.3220  0.2463  0.6468
  489MOL0     C67405  10.070  10.993   9.636  0.4553  0.1016  0.4508
  489MOL0     C67406  10.106  10.869   9.553  0.3262 -1.2085  0.1435
  489MOL0     C67407  10.068  10.869   9.406 -0.2516  0.1872 -1.1476
  489MOL0     C67408  10.069  10.737   9.345 -0.3284 -0.2734 -1.0694
  489MOL0     C67409  10.092  10.636   9.283 -0.3160 -0.3815 -0.9491
  489MOL0     C67410  10.463  10.935   9.873 -0.4458  0.3189 -1.1444
  489MOL0     C67411  10.567  10.968   9.962 -0.2624  0.1910 -0.5245
  489MOL0     C67412  10.711  10.952   9.915  0.1255 -0.1756 -0.4827
  489MOL0     H67413  10.546  11.091  10.568  2.3295 -2.8632 -1.1028
  489MOL0     H67414  10.684  11.211  10.744  0.5406 -2.0561 -0.3513
  489MOL0     H67415  10.938  11.207  10.796 -0.6463 -0.1032  2.1142
  489MOL0     H67416  10.819  11.299  10.890  3.0124  0.5430  4.1726
  489MOL0     H67417  11.088  11.415  10.853 -1.6349  0.3958 -2.0949
  489MOL0     H67418  10.951  11.466  10.948 -1.9935 -1.3003  1.9243
  489MOL0     H67419  11.020  11.339  11.127 -1.9212 -1.9782  1.0764
  489MOL0     H67420  10.964  11.213  11.033 -1.4846  0.4076 -3.8866
  489MOL0     H67421  11.147  11.113  10.959  1.8003  1.2697 -1.7707
  489MOL0     H67422  11.239  11.261  10.961 -1.0628  2.1278  1.1875
  489MOL0     H67423  11.226  11.247  11.217 -2.9424  1.3886 -2.2015
  489MOL0     H67424  11.343  11.131  11.136 -0.5158 -0.4408 -0.0126
  489MOL0     H67425  11.057  11.088  11.219  0.4806  1.2060 -1.8319
  489MOL0     H67426  11.162  10.953  11.204  1.5505  0.6009 -1.2463
  489MOL0     H67427  11.109  11.173  11.401 -1.6369 -0.8243 -0.9351
  489MOL0     H67428  11.279  11.109  11.416 -0.5990 -0.4981  3.0952
  489MOL0     H67429  11.186  10.875  11.444 -1.1875 -0.5624 -0.4246
  489MOL0     H67430  11.161  10.994  11.578  0.6451 -0.0569  0.1974
  489MOL0     H67431  10.992  10.775  11.294  1.2499  0.7646  0.0249
  489MOL0     H67432  10.747  10.672  11.278  0.8314  0.7482  1.1777
  489MOL0     H67433  10.648  10.813  11.255 -1.3433  1.9786  1.6772
  489MOL0     H67434  10.530  10.763  11.444  1.6284  2.1103 -0.2875
  489MOL0     H67435  10.552  10.607  11.361 -0.9924 -2.2249  4.1053
  489MOL0     H67436  10.774  10.616  11.538  1.0372  2.9159  1.7664
  489MOL0     H67437  10.666  10.720  11.616  4.1502  0.8025 -0.3117
  489MOL0     H67438  10.598  10.427  11.523 -6.2339  1.1238 -1.0279
  489MOL0     H67439  10.677  10.460  11.681 -1.1582 -0.2135 -0.1344
  489MOL0     H67440  10.286  10.537  11.797  0.3920  0.2199  1.3727
  489MOL0     H67441  10.103  10.477  11.947  1.3055  0.5291  1.0414
  489MOL0     H67442  10.099  10.335  12.049 -3.8205  1.2285 -0.8303
  489MOL0     H67443  10.027  10.333  11.880  1.0268 -1.9919 -1.7325
  489MOL0     H67444  10.167   9.949  12.164 -0.6238 -1.0067  1.7426
  489MOL0     H67445  10.050   9.738  12.238  1.1227 -1.3709 -1.3630
  489MOL0     H67446   9.655   9.682  12.143  0.0218 -0.7653 -2.1743
  489MOL0     H67447   9.686   9.601  11.992  2.4368 -0.2703 -0.2448
  489MOL0     H67448   9.569   9.433  12.112 -0.9824  1.8554 -0.9754
  489MOL0     H67449   9.732   9.388  12.116 -0.9305 -0.5732  0.8051
  489MOL0     H67450   9.622   9.576  12.335 -0.0635 -0.5722  0.8148
  489MOL0     H67451   9.764   9.483  12.343 -0.1653 -0.2508  1.4905
  489MOL0     H67452   9.579   9.274  12.316  0.7810  0.9105 -1.6451
  489MOL0     H67453   9.457   9.401  12.352 -0.5701  0.2260 -0.8360
  489MOL0     H67454   9.641   9.252  12.529 -0.2283 -0.3705  0.8836
  489MOL0     H67455   9.636   9.412  12.578  2.0030 -1.5418  0.2140
  489MOL0     H67456   9.383   9.268  12.519  1.8402 -0.7089 -1.9089
  489MOL0     H67457   9.401   9.407  12.623 -1.4039 -0.4477 -0.9913
  489MOL0     H67458   9.532   9.300  12.776  1.6286 -1.7006  0.9657
  489MOL0     H67459   9.526   9.140  12.701  0.0389  0.2560  0.7085
  489MOL0     H67460   9.347   9.155  12.876  0.3394 -0.2567 -0.9449
  489MOL0     H67461   9.263   9.132  12.740 -2.1800  2.0366 -0.5313
  489MOL0     H67462   9.766   9.777  11.921  1.5311 -0.8026 -2.5157
  489MOL0     H67463   9.874   9.970  11.840 -3.1579 -1.4809  0.6675
  489MOL0     H67464  10.449  10.063  11.798  2.3302  0.3308  2.2357
  489MOL0     H67465  10.562  10.236  11.661  0.4447  1.2028 -0.7136
  489MOL0     H67466  10.883  11.436  10.450 -0.2607  0.4368 -0.6281
  489MOL0     H67467  10.760  11.306  10.265 -0.6894 -1.2957  0.3618
  489MOL0     H67468  10.380  11.091  10.212  0.4460  0.0333  0.1737
  489MOL0     H67469  10.191  11.001  10.054  1.0439  2.0299  1.3739
  489MOL0     H67470  10.029  10.937   9.832 -3.0831  1.4222 -2.7409
  489MOL0     H67471  10.115  11.088   9.826  0.2765  1.3685 -1.9438
  489MOL0     H67472  10.106  11.082   9.583 -1.7893  0.4196 -0.6786
  489MOL0     H67473   9.961  11.004   9.639  0.3225 -0.9315 -0.1312
  489MOL0     H67474  10.211  10.841   9.565  0.6678  0.9757  3.5490
  489MOL0     H67475  10.046  10.791   9.600 -1.3805 -0.5081 -0.7750
  489MOL0     H67476  10.138  10.933   9.352 -0.4729  0.8420 -0.6656
  489MOL0     H67477   9.963  10.893   9.390 -1.1349  0.1529  3.2133
  489MOL0     H67478  10.115  10.544   9.233  1.4686  0.3380 -1.5469
  489MOL0     H67479  10.482  10.881   9.781 -3.1188 -0.4651 -1.3164
  489MOL0     H67480  10.715  10.884   9.829 -3.4253 -1.1745 -0.0210
  489MOL0     H67481  10.770  11.043   9.906 -0.1892 -0.0919 -2.2670
  489MOL0     H67482  10.756  10.894   9.996 -0.0481  2.3692  1.5477
  490MOL0     O67483   7.179   3.523   2.831 -0.0568  0.2887  0.3284
  490MOL0     C67484   7.120   3.435   2.885  0.4494 -0.2400  0.7672
  490MOL0     O67485   6.995   3.448   2.937 -0.0840  0.0371  0.6196
  490MOL0     C67486   6.954   3.584   2.943 -0.4033  0.2146  0.4128
  490MOL0     C67487   7.011   3.665   3.044  0.9210 -0.0408 -0.3764
  490MOL0     C67488   6.986   3.801   3.044 -0.2841  0.4194  0.5021
  490MOL0     C67489   6.899   3.854   2.945 -0.8606 -0.0080 -0.6318
  490MOL0     O67490   6.862   3.989   2.953  0.1358  0.0240  0.0235
  490MOL0     C67491   6.736   4.033   2.904  0.5551  0.4816  0.6760
  490MOL0     C67492   6.719   4.182   2.911  0.7314 -0.1530  0.2013
  490MOL0     C67493   6.721   4.240   3.059  0.5350 -0.0942  0.2117
  490MOL0     C67494   6.582   4.239   3.117  0.0609  0.6237 -0.3383
  490MOL0     C67495   6.575   4.293   3.257 -0.4662  0.4210  0.0806
  490MOL0     C67496   6.428   4.281   3.307 -0.8241 -0.5228  1.3373
  490MOL0     C67497   6.411   4.304   3.454  0.0475  0.3588  0.1466
  490MOL0     C67498   6.479   4.436   3.500 -0.5476 -0.2134  0.2488
  490MOL0     N67499   6.432   4.474   3.633  0.4889  0.3507 -0.0188
  490MOL0     C67500   6.519   4.482   3.748 -0.1771 -0.1394  0.7944
  490MOL0     C67501   6.442   4.518   3.849 -0.3882  0.3883  0.0093
  490MOL0     C67502   6.474   4.519   3.997 -0.9703 -0.2202 -0.4961
  490MOL0     C67503   6.499   4.662   4.061  0.3206 -0.0202  0.2422
  490MOL0     C67504   6.585   4.771   3.980  0.7357  0.6396 -0.2553
  490MOL0     C67505   6.588   4.909   4.044  0.4837  0.3701 -0.0348
  490MOL0     O67506   6.459   4.980   4.028 -1.2420  0.1785 -0.2451
  490MOL0     C67507   6.443   5.089   4.101 -0.3360 -0.9687 -1.0368
  490MOL0     C67508   6.331   5.168   4.078 -0.5315 -0.0396 -0.0113
  490MOL0     C67509   6.302   5.289   4.147  0.4132  0.0308 -0.2934
  490MOL0     C67510   6.174   5.363   4.116  0.7953 -0.1263 -0.5020
  490MOL0     C67511   6.386   5.320   4.263  0.1689  0.1071  0.6875
  490MOL0     C67512   6.359   5.431   4.356  0.6833  0.0217 -0.2880
  490MOL0     O67513   6.321   5.543   4.293 -0.4415  0.1694 -0.0506
  490MOL0     C67514   6.285   5.657   4.358 -0.0301  0.2332 -0.8330
  490MOL0     C67515   6.293   5.695   4.498  0.3799  0.3158  0.4287
  490MOL0     C67516   6.251   5.817   4.539 -0.1040  0.1194  0.0324
  490MOL0     C67517   6.184   5.906   4.454  0.6629  0.2913 -0.2193
  490MOL0     O67518   6.128   6.024   4.490 -0.0952  0.2960 -1.3905
  490MOL0     C67519   6.088   6.041   4.630 -0.2982 -0.6255  0.6147
  490MOL0     C67520   6.019   6.165   4.649  0.0964  0.2152  0.3099
  490MOL0     C67521   6.102   6.291   4.610 -0.9535  0.8420  1.2654
  490MOL0     C67522   6.004   6.413   4.615 -1.1030 -0.2257  0.1373
  490MOL0     C67523   5.968   6.458   4.760 -0.0539 -0.5994 -0.3301
  490MOL0     C67524   5.927   6.598   4.744  0.5643  0.4120  0.2519
  490MOL0     C67525   5.906   6.676   4.884  0.2618 -0.1044 -0.6818
  490MOL0     C67526   5.805   6.606   4.981  0.4209 -0.7050 -0.6474
  490MOL0    Cl67527   5.801   6.697   5.134 -0.1067 -0.1662 -0.3761
  490MOL0     C67528   6.178   5.873   4.317 -0.0785  0.2840  0.1882
  490MOL0     C67529   6.221   5.750   4.271 -0.5100 -0.0600  0.3241
  490MOL0     O67530   6.372   5.415   4.473 -0.7891 -0.4231 -0.6267
  490MOL0     C67531   6.500   5.238   4.290  0.4055 -0.0662 -0.5484
  490MOL0     C67532   6.530   5.134   4.205  0.8652  1.4986  0.3089
  490MOL0     N67533   6.317   4.548   3.799  0.0252 -0.5048  0.8085
  490MOL0     N67534   6.308   4.513   3.675  0.3312  0.3870 -0.4089
  490MOL0     C67535   6.839   3.764   2.847  0.9320  0.3339 -0.3738
  490MOL0     C67536   6.862   3.629   2.847 -0.0515  0.4803  0.3168
  490MOL0     C67537   7.186   3.294   2.889  0.5932  0.5420  0.3772
  490MOL0     C67538   7.181   3.222   2.768  0.7278  0.6585 -0.5606
  490MOL0     C67539   7.231   3.088   2.769 -0.5129 -0.2953 -0.3874
  490MOL0     C67540   7.290   3.032   2.887 -0.1830  0.5343  0.3283
  490MOL0     O67541   7.353   2.908   2.901 -0.3866  0.2996  0.1404
  490MOL0     C67542   7.378   2.825   2.788 -0.2898 -0.1968 -0.1863
  490MOL0     C67543   7.247   2.748   2.739 -1.9217  0.3553  0.6599
  490MOL0     C67544   7.268   2.689   2.594  0.4357 -0.5646 -0.2911
  490MOL0     C67545   7.180   2.567   2.567 -0.4289 -0.1390 -0.6250
  490MOL0     C67546   7.207   2.446   2.644 -1.0010  0.4454  0.0451
  490MOL0     C67547   7.243   2.351   2.710 -0.3552 -0.7678 -0.1523
  490MOL0     C67548   7.302   3.113   2.997 -0.5172 -1.1628  0.3147
  490MOL0     C67549   7.246   3.240   3.007  0.3838 -0.4021  0.1178
  490MOL0     C67550   7.247   3.322   3.132 -0.0877 -0.0073 -1.2935
  490MOL0     H67551   7.080   3.616   3.111  1.0283  0.8612  0.1933
  490MOL0     H67552   7.030   3.874   3.112 -0.7718  0.7860  0.4259
  490MOL0     H67553   6.653   3.976   2.947  1.1768  1.1635  2.9117
  490MOL0     H67554   6.738   4.013   2.797 -1.3498 -1.1226  0.8845
  490MOL0     H67555   6.805   4.229   2.862 -1.1229  1.8543 -1.3622
  490MOL0     H67556   6.621   4.216   2.876  1.6068  1.6134 -0.6837
  490MOL0     H67557   6.793   4.172   3.105  1.1325 -0.0535 -0.6281
  490MOL0     H67558   6.762   4.341   3.052  2.8349 -1.0587 -2.1508
  490MOL0     H67559   6.505   4.300   3.067 -0.7171  1.0146  1.2583
  490MOL0     H67560   6.555   4.133   3.115 -1.2591  0.9444 -1.4265
  490MOL0     H67561   6.604   4.399   3.258  3.7047 -0.5061 -2.4574
  490MOL0     H67562   6.632   4.222   3.318  0.5498 -1.1784 -2.5893
  490MOL0     H67563   6.359   4.346   3.253  0.5733 -0.2467 -0.1946
  490MOL0     H67564   6.399   4.178   3.283 -0.2655 -0.8290  1.9183
  490MOL0     H67565   6.460   4.222   3.507 -0.1120  0.2890  0.1885
  490MOL0     H67566   6.303   4.308   3.474  0.2757 -1.5895  2.1478
  490MOL0     H67567   6.586   4.413   3.493 -0.6465 -0.7441  0.4398
  490MOL0     H67568   6.468   4.520   3.430  1.7027 -2.0433 -2.5733
  490MOL0     H67569   6.621   4.446   3.747  0.1976  0.8238 -1.6996
  490MOL0     H67570   6.562   4.459   4.021 -1.4969 -0.6024  0.5180
  490MOL0     H67571   6.397   4.473   4.058  0.0238 -0.9664  0.2170
  490MOL0     H67572   6.402   4.709   4.075  0.1611 -0.8270  2.0077
  490MOL0     H67573   6.537   4.651   4.162 -0.6357  0.9657  0.7334
  490MOL0     H67574   6.690   4.741   3.984  0.5830  0.2301  0.9986
  490MOL0     H67575   6.546   4.766   3.878  2.3571  0.8920 -0.9207
  490MOL0     H67576   6.602   4.887   4.151 -1.4587 -0.9923  0.0085
  490MOL0     H67577   6.671   4.967   4.003 -1.2997  0.8484 -3.2697
  490MOL0     H67578   6.265   5.132   3.999  1.7129 -0.6764 -1.7297
  490MOL0     H67579   6.125   5.328   4.025  1.2260  1.0336 -1.2040
  490MOL0     H67580   6.203   5.467   4.099 -0.4301  0.5253  1.1176
  490MOL0     H67581   6.107   5.352   4.202  1.5308 -0.4571  0.0489
  490MOL0     H67582   6.346   5.638   4.574  3.7904 -0.6444 -2.3455
  490MOL0     H67583   6.246   5.841   4.645  0.6086  0.3159  0.0245
  490MOL0     H67584   6.026   5.958   4.663  1.6926 -2.7314 -0.6553
  490MOL0     H67585   6.171   6.034   4.701 -2.1295  0.8924  3.0576
  490MOL0     H67586   5.929   6.170   4.588  0.5898  2.6302 -0.3003
  490MOL0     H67587   5.997   6.163   4.757  0.8182 -3.0947  0.4981
  490MOL0     H67588   6.135   6.276   4.506  0.6623 -0.5861  1.9384
  490MOL0     H67589   6.197   6.310   4.662  0.3188 -1.3281 -0.0923
  490MOL0     H67590   5.927   6.415   4.537 -0.6928  1.2852 -0.2461
  490MOL0     H67591   6.071   6.491   4.579 -1.2961  1.4573  3.0836
  490MOL0     H67592   5.890   6.399   4.808  0.5290 -1.1620 -0.0483
  490MOL0     H67593   6.043   6.441   4.838 -1.7398 -2.6734  0.9504
  490MOL0     H67594   5.835   6.598   4.684  1.2964 -1.3386 -0.9485
  490MOL0     H67595   6.003   6.650   4.686 -1.1823 -0.7009 -3.3735
  490MOL0     H67596   5.868   6.778   4.871 -0.5516 -0.1191  1.2603
  490MOL0     H67597   6.009   6.682   4.918  0.3593 -0.5903 -0.8836
  490MOL0     H67598   5.846   6.507   5.002 -0.9563 -1.1857 -0.1133
  490MOL0     H67599   5.707   6.594   4.935  0.4378  0.8091 -1.1493
  490MOL0     H67600   6.128   5.938   4.246  2.8162  2.3777 -0.1092
  490MOL0     H67601   6.225   5.730   4.164 -0.7997  0.3253  0.2392
  490MOL0     H67602   6.570   5.257   4.371 -3.1639  1.2997  2.5539
  490MOL0     H67603   6.617   5.075   4.229  0.7209  0.2605 -2.0006
  490MOL0     H67604   6.767   3.806   2.776  0.7296 -0.7602 -0.8274
  490MOL0     H67605   6.819   3.558   2.777  1.9858 -0.0974 -0.3938
  490MOL0     H67606   7.135   3.273   2.684  2.0617  0.6142 -1.3440
  490MOL0     H67607   7.226   3.029   2.678 -0.3655 -0.6581 -0.1636
  490MOL0     H67608   7.418   2.882   2.703 -2.9061 -0.7949 -1.9341
  490MOL0     H67609   7.463   2.762   2.814 -1.3275 -0.6456  2.4088
  490MOL0     H67610   7.164   2.817   2.721 -2.2087  0.4530  2.2194
  490MOL0     H67611   7.224   2.676   2.818 -2.9993  1.1787  1.1226
  490MOL0     H67612   7.228   2.766   2.527 -0.3038  0.9573  1.7824
  490MOL0     H67613   7.372   2.669   2.565  2.0555  0.2840  4.1043
  490MOL0     H67614   7.194   2.541   2.461  0.3463  0.0204 -0.5674
  490MOL0     H67615   7.074   2.593   2.575 -0.3391  0.3496 -0.9417
  490MOL0     H67616   7.288   2.269   2.763 -0.1810 -0.0931  0.7824
  490MOL0     H67617   7.344   3.080   3.092 -1.5399  1.0338  1.6398
  490MOL0     H67618   7.244   3.428   3.103  1.6647  0.6543  0.6352
  490MOL0     H67619   7.170   3.284   3.199 -2.7061  0.7738 -3.7167
  490MOL0     H67620   7.347   3.324   3.178  0.0305  1.7559 -1.5406
  491MOL0     O67621   1.700   2.911  10.001  0.1225  0.4483 -0.6579
  491MOL0     C67622   1.617   2.856   9.918 -0.1090 -0.2076 -0.0510
  491MOL0     O67623   1.639   2.734   9.848  0.0476  0.0710 -0.1446
  491MOL0     C67624   1.771   2.691   9.862 -0.3950 -0.3417  0.4167
  491MOL0     C67625   1.801   2.607   9.974 -0.3119 -0.2729 -0.0271
  491MOL0     C67626   1.929   2.546   9.978  0.9036 -0.3397 -0.6878
  491MOL0     C67627   2.029   2.571   9.884  0.3809  0.6812  0.8558
  491MOL0     O67628   2.155   2.528   9.908  0.7048 -0.0287  0.2489
  491MOL0     C67629   2.193   2.418   9.823  1.0079  0.1475 -0.4007
  491MOL0     C67630   2.345   2.398   9.817  0.1785  0.0335  0.5560
  491MOL0     C67631   2.410   2.378   9.958  0.8158 -0.5022 -0.1934
  491MOL0     C67632   2.551   2.347   9.938 -0.1597 -0.2047 -0.0529
  491MOL0     C67633   2.614   2.303  10.065 -0.7433  0.0621  0.0689
  491MOL0     C67634   2.558   2.183  10.140  0.2700  0.1839 -0.3027
  491MOL0     C67635   2.539   2.054  10.049  0.6249  0.6663  0.4399
  491MOL0     C67636   2.687   1.985  10.024  0.7740  0.2262 -0.4152
  491MOL0     N67637   2.659   1.848   9.973  0.3073  0.1892  0.6413
  491MOL0     C67638   2.631   1.823   9.841 -0.1687 -0.4200 -0.1051
  491MOL0     C67639   2.624   1.687   9.835  0.6236 -0.2691 -1.0512
  491MOL0     C67640   2.582   1.618   9.711  0.4408  0.8781 -0.0308
  491MOL0     C67641   2.688   1.527   9.650 -0.3825  0.7066  0.0847
  491MOL0     C67642   2.653   1.482   9.507  1.3910  0.1296 -0.2725
  491MOL0     C67643   2.570   1.355   9.508  0.3308  0.1431  0.5678
  491MOL0     O67644   2.535   1.321   9.379  0.0461 -0.1220  0.8177
  491MOL0     C67645   2.512   1.189   9.355  0.0782  0.2773 -0.1211
  491MOL0     C67646   2.529   1.141   9.224  0.9918  0.2493  1.0735
  491MOL0     C67647   2.506   1.007   9.178 -0.3903 -0.1613  0.6435
  491MOL0     C67648   2.559   0.975   9.032 -0.1415  0.0586  0.1448
  491MOL0     C67649   2.436   0.924   9.274  0.4587 -0.0224 -0.4596
  491MOL0     C67650   2.392   0.789   9.243  1.4515 -0.7072  0.5191
  491MOL0     O67651   2.297   0.719   9.318 -0.1985  0.0057  0.5454
  491MOL0     C67652   2.289   0.583   9.322  0.1950  0.2340  0.1267
  491MOL0     C67653   2.253   0.501   9.209 -0.3334  0.1050 -0.1012
  491MOL0     C67654   2.258   0.361   9.222  0.6273 -0.9072 -0.3152
  491MOL0     C67655   2.302   0.295   9.335  0.0114  0.4598  0.0918
  491MOL0     O67656   2.281   0.163   9.354  0.2303 -0.2931 -0.0762
  491MOL0     C67657   2.388   0.078   9.302 -0.6823  0.2266  0.7860
  491MOL0     C67658   2.371  -0.062   9.351 -0.0490  0.3528  0.0834
  491MOL0     C67659   2.266  -0.152   9.285  0.9509 -0.0067 -0.4280
  491MOL0     C67660   2.229  -0.128   9.136  0.0688  0.5715  0.0989
  491MOL0     C67661   2.136  -0.236   9.060  0.4104  0.4068  0.1072
  491MOL0     C67662   2.108  -0.199   8.912  0.7102 -0.0498  0.0866
  491MOL0     C67663   2.063  -0.059   8.888  0.2940  0.8542  0.1507
  491MOL0     C67664   1.941  -0.027   8.973 -0.2873  0.1490  0.9894
  491MOL0    Cl67665   1.930   0.146   8.975 -0.5819 -0.3937  0.3107
  491MOL0     C67666   2.339   0.377   9.446  0.6048  0.8314  0.3148
  491MOL0     C67667   2.337   0.519   9.433 -0.4927 -0.3456 -0.4761
  491MOL0     O67668   2.447   0.744   9.142  0.2383  0.1120  0.4170
  491MOL0     C67669   2.392   0.985   9.398 -0.5299  0.9042  0.5286
  491MOL0     C67670   2.441   1.108   9.445  0.1523 -0.6010 -0.3614
  491MOL0     N67671   2.649   1.635   9.963  0.0904  0.5859  0.4395
  491MOL0     N67672   2.676   1.731  10.045  1.5778  0.2922  0.3738
  491MOL0     C67673   2.002   2.647   9.776 -0.2136 -1.1505  0.4832
  491MOL0     C67674   1.869   2.700   9.758 -0.4098  0.0531  0.1173
  491MOL0     C67675   1.476   2.908   9.916  0.1288  0.2388  0.1869
  491MOL0     C67676   1.391   2.902   9.804  0.4896 -0.5169  0.3407
  491MOL0     C67677   1.266   2.966   9.800 -1.4599 -0.0521 -0.6016
  491MOL0     C67678   1.218   3.033   9.915 -0.4111 -0.0092 -0.2912
  491MOL0     O67679   1.097   3.097   9.902  0.4240  0.3889  0.4016
  491MOL0     C67680   1.016   3.136  10.014  0.1505 -0.6495 -0.7793
  491MOL0     C67681   1.052   3.284  10.053 -0.8658 -0.2215 -0.3624
  491MOL0     C67682   0.976   3.320  10.197 -0.5260  0.5802  0.1767
  491MOL0     C67683   0.925   3.464  10.204 -0.5068  0.0204  0.3153
  491MOL0     C67684   0.829   3.507  10.099 -0.0739 -0.2943 -0.4614
  491MOL0     C67685   0.748   3.564  10.028 -0.6275 -0.0956  1.2165
  491MOL0     C67686   1.290   3.034  10.031 -1.7182  0.5813 -0.3803
  491MOL0     C67687   1.419   2.975  10.035  0.4816  0.3802  0.4874
  491MOL0     C67688   1.485   2.970  10.170  0.2945  0.1865  0.8327
  491MOL0     H67689   1.729   2.586  10.052 -0.3829 -1.2738 -0.3408
  491MOL0     H67690   1.960   2.495  10.068  2.0155 -0.1005 -0.9249
  491MOL0     H67691   2.163   2.424   9.718  0.3922  1.6742 -0.1660
  491MOL0     H67692   2.141   2.338   9.875 -2.0464  3.0630  1.4219
  491MOL0     H67693   2.361   2.318   9.744  1.1840  0.7932 -0.0809
  491MOL0     H67694   2.386   2.491   9.777  2.1574 -1.1628 -0.3382
  491MOL0     H67695   2.404   2.477  10.004  0.1549 -0.3296 -0.6269
  491MOL0     H67696   2.353   2.300  10.010 -1.3097  2.6559  2.6361
  491MOL0     H67697   2.565   2.270   9.861  1.1728  1.8139 -1.9636
  491MOL0     H67698   2.607   2.437   9.912 -2.1661  1.2092  0.3603
  491MOL0     H67699   2.610   2.382  10.141 -3.1344  0.9227 -0.8460
  491MOL0     H67700   2.717   2.277  10.042 -1.2665 -1.6123 -0.5870
  491MOL0     H67701   2.635   2.153  10.211  1.5992 -0.4026 -1.9074
  491MOL0     H67702   2.462   2.209  10.185  0.2153 -0.9580  0.2744
  491MOL0     H67703   2.499   2.085   9.953  1.7987  0.8524  0.0033
  491MOL0     H67704   2.474   1.975  10.089  1.1630  0.5817  1.1772
  491MOL0     H67705   2.765   2.036   9.967  0.3161  0.3535 -0.9436
  491MOL0     H67706   2.724   1.966  10.125 -3.6777 -2.8011  0.9510
  491MOL0     H67707   2.620   1.889   9.756  0.1462 -2.9680 -2.2507
  491MOL0     H67708   2.557   1.694   9.636  1.8011  1.0016 -0.3749
  491MOL0     H67709   2.494   1.558   9.737  1.1159  0.2102  0.7699
  491MOL0     H67710   2.785   1.575   9.635 -0.0661 -0.6294 -2.7274
  491MOL0     H67711   2.713   1.436   9.705  1.0748  0.8361 -0.3186
  491MOL0     H67712   2.591   1.562   9.468  1.5672  1.4914  2.0605
  491MOL0     H67713   2.739   1.471   9.439  0.3171  1.1217 -1.8469
  491MOL0     H67714   2.622   1.274   9.559 -0.1530 -0.6873 -0.2092
  491MOL0     H67715   2.478   1.386   9.558 -2.5595 -1.7561 -3.0164
  491MOL0     H67716   2.563   1.214   9.153  0.0082 -1.8003 -1.6839
  491MOL0     H67717   2.467   0.937   8.987 -0.7192  0.0850  1.2608
  491MOL0     H67718   2.632   0.894   9.035 -2.2105 -1.9895 -1.0942
  491MOL0     H67719   2.600   1.064   8.983 -0.1959 -0.0866 -0.1645
  491MOL0     H67720   2.220   0.545   9.115 -2.1258  0.9847  0.8732
  491MOL0     H67721   2.226   0.298   9.140  0.7903 -2.4959  0.7862
  491MOL0     H67722   2.379   0.068   9.194 -1.0190  0.8161  0.7563
  491MOL0     H67723   2.488   0.115   9.328 -0.1019  0.9485 -2.1389
  491MOL0     H67724   2.471  -0.105   9.342 -0.7189 -1.0444 -0.8351
  491MOL0     H67725   2.357  -0.053   9.460  0.7641 -1.1129  0.3332
  491MOL0     H67726   2.167  -0.145   9.332  0.0606 -0.6356 -2.1331
  491MOL0     H67727   2.286  -0.259   9.296  1.1420 -0.0122 -0.8167
  491MOL0     H67728   2.324  -0.121   9.083  0.0785 -0.8345 -0.1013
  491MOL0     H67729   2.188  -0.027   9.132 -0.6012  0.3224  0.5732
  491MOL0     H67730   2.192  -0.330   9.066 -0.1250  0.0374  6.6845
  491MOL0     H67731   2.040  -0.252   9.110  0.1645 -0.8200 -0.6994
  491MOL0     H67732   2.046  -0.276   8.866  2.0908  0.5835 -3.0903
  491MOL0     H67733   2.190  -0.216   8.842 -0.0089 -3.1073 -0.1788
  491MOL0     H67734   2.055  -0.043   8.780  4.8422 -0.4471 -0.6192
  491MOL0     H67735   2.148   0.006   8.910  0.4379  0.4029  0.9794
  491MOL0     H67736   1.963  -0.060   9.075  2.7651 -2.4570 -0.3119
  491MOL0     H67737   1.851  -0.068   8.928 -0.5591  0.9565  0.7910
  491MOL0     H67738   2.362   0.342   9.546 -0.5792  2.2182  1.1162
  491MOL0     H67739   2.369   0.572   9.522 -0.8834 -1.0174  0.0771
  491MOL0     H67740   2.317   0.927   9.450 -0.5502 -2.4831 -2.8049
  491MOL0     H67741   2.419   1.146   9.544  1.3472  1.8920 -0.9609
  491MOL0     H67742   2.078   2.668   9.701  0.9610 -2.1373  1.3444
  491MOL0     H67743   1.835   2.751   9.669 -0.0334 -1.4212 -0.9180
  491MOL0     H67744   1.419   2.864   9.706  0.3067  0.7661 -0.2207
  491MOL0     H67745   1.213   2.962   9.705  1.1090  0.7924 -2.1657
  491MOL0     H67746   0.908   3.128   9.996 -0.5787 -1.8044  3.1391
  491MOL0     H67747   1.045   3.064  10.091  2.0491  3.6036  2.9881
  491MOL0     H67748   1.000   3.340   9.975 -1.4495 -3.3228 -2.3889
  491MOL0     H67749   1.157   3.302  10.080 -1.7995  1.0676  2.8356
  491MOL0     H67750   0.882   3.264  10.206 -0.9867  1.2857 -0.0976
  491MOL0     H67751   1.034   3.299  10.286 -0.1229 -1.9246 -0.5898
  491MOL0     H67752   1.011   3.531  10.217 -1.2667  1.2637 -0.8365
  491MOL0     H67753   0.884   3.465  10.306 -1.0898 -2.5255  0.1662
  491MOL0     H67754   0.683   3.619   9.962  0.8138 -0.1658 -0.3340
  491MOL0     H67755   1.258   3.088  10.119  1.0993  2.7748 -0.5446
  491MOL0     H67756   1.544   2.879  10.177 -2.2439 -1.7795 -1.1423
  491MOL0     H67757   1.558   3.051  10.175  0.3409  0.4059 -1.7016
  491MOL0     H67758   1.405   2.948  10.241  0.8837 -4.1861  0.4216
  492MOL0     O67759   6.059   2.297   9.455  0.4238  0.1991 -0.2556
  492MOL0     C67760   6.039   2.173   9.473 -0.7033  0.2200 -0.6215
  492MOL0     O67761   5.956   2.102   9.393 -0.5335 -0.6279 -0.4185
  492MOL0     C67762   5.925   2.158   9.271 -0.3348  0.1084 -0.1350
  492MOL0     C67763   5.792   2.204   9.241  0.4833 -0.3609  0.0202
  492MOL0     C67764   5.760   2.237   9.108 -0.5514  0.0533 -0.6350
  492MOL0     C67765   5.858   2.236   9.005  0.7560  0.8890  0.0249
  492MOL0     O67766   5.814   2.270   8.881 -0.8259  0.7694 -0.0029
  492MOL0     C67767   5.840   2.172   8.777 -0.4312  0.0373  0.1450
  492MOL0     C67768   5.758   2.212   8.659  0.0011 -0.2768  0.7460
  492MOL0     C67769   5.761   2.096   8.561  0.0928 -0.7630 -0.5647
  492MOL0     C67770   5.673   2.128   8.449 -0.1655 -0.1098  1.3351
  492MOL0     C67771   5.709   2.036   8.334  0.2977 -0.0651  0.0772
  492MOL0     C67772   5.585   1.991   8.257 -1.0470 -0.6350  0.9035
  492MOL0     C67773   5.636   1.894   8.152  0.0769 -0.9762 -0.2584
  492MOL0     C67774   5.510   1.874   8.066 -1.3156  1.0226 -0.6139
  492MOL0     N67775   5.510   1.753   7.988  0.8466 -0.0948  0.0314
  492MOL0     C67776   5.394   1.675   7.970 -0.2903 -0.4599 -0.2512
  492MOL0     C67777   5.446   1.557   7.929  0.2786  0.3060 -0.4179
  492MOL0     C67778   5.349   1.442   7.904  0.3708 -0.8974  0.4781
  492MOL0     C67779   5.316   1.425   7.759 -0.1776  0.4339  0.2441
  492MOL0     C67780   5.272   1.558   7.683  0.5635 -0.0027 -0.5045
  492MOL0     C67781   5.228   1.539   7.535  0.4770 -0.0743  0.3223
  492MOL0     O67782   5.243   1.667   7.473  0.1786  0.0274 -0.1432
  492MOL0     C67783   5.145   1.690   7.382 -0.0836 -0.2617  1.0193
  492MOL0     C67784   5.136   1.604   7.272  0.2610 -0.3760 -0.1111
  492MOL0     C67785   5.051   1.622   7.169 -0.0694  0.4884 -0.1543
  492MOL0     C67786   5.076   1.547   7.047 -0.2931  0.5036  0.7980
  492MOL0     C67787   4.963   1.734   7.171 -0.4787  0.2609 -0.4027
  492MOL0     C67788   4.859   1.754   7.078 -0.6055  0.0947 -0.8392
  492MOL0     O67789   4.829   1.886   7.045  0.0530  0.9914 -0.2555
  492MOL0     C67790   4.719   1.919   6.978  0.6666  0.3997 -0.1925
  492MOL0     C67791   4.603   1.843   6.970 -1.0075  0.6638  0.0104
  492MOL0     C67792   4.501   1.892   6.885 -0.3921  1.3146  0.3465
  492MOL0     C67793   4.504   2.018   6.820 -0.3660  1.4627 -0.1882
  492MOL0     O67794   4.413   2.065   6.734  0.3236 -0.4243 -0.6543
  492MOL0     C67795   4.318   1.975   6.679  0.6510 -0.3935 -0.1976
  492MOL0     C67796   4.222   2.067   6.610 -0.4114 -0.2415 -0.8711
  492MOL0     C67797   4.134   2.008   6.513 -0.0521  0.0184  0.3742
  492MOL0     C67798   4.052   2.122   6.457  0.4586 -0.4361  0.0785
  492MOL0     C67799   3.970   2.083   6.334  0.5504  0.0154  0.9008
  492MOL0     C67800   3.859   2.192   6.302  0.6610 -0.2626  0.3199
  492MOL0     C67801   3.905   2.316   6.227 -0.2331 -0.1851 -0.8510
  492MOL0     C67802   3.808   2.431   6.238 -0.9447  0.0666 -0.1309
  492MOL0    Cl67803   3.803   2.481   6.408  0.3120  0.2744  0.4038
  492MOL0     C67804   4.619   2.093   6.836  0.7996  0.6443  0.8077
  492MOL0     C67805   4.721   2.042   6.908 -0.4438  0.2296  0.4783
  492MOL0     O67806   4.809   1.649   7.031  0.6254  0.3432 -0.3690
  492MOL0     C67807   4.972   1.817   7.285 -0.2792  0.9610  0.7210
  492MOL0     C67808   5.061   1.796   7.392  0.2444 -0.1244 -0.4237
  492MOL0     N67809   5.589   1.565   7.914  0.7518  0.0765  0.1708
  492MOL0     N67810   5.618   1.680   7.946 -0.1597 -0.3739  1.1721
  492MOL0     C67811   5.986   2.205   9.031  0.6065  0.4352 -0.8245
  492MOL0     C67812   6.017   2.160   9.160 -0.3330 -0.9252 -0.6780
  492MOL0     C67813   6.109   2.092   9.573  0.0599 -0.4027 -0.0404
  492MOL0     C67814   6.076   1.964   9.606  0.0409  0.4913  0.0756
  492MOL0     C67815   6.160   1.884   9.692  0.6083  0.1377 -0.0628
  492MOL0     C67816   6.263   1.936   9.761 -0.3329 -0.3152  0.6276
  492MOL0     O67817   6.334   1.868   9.854  0.4338 -0.5372  0.2232
  492MOL0     C67818   6.381   1.740   9.813  0.3924 -0.0783  0.6344
  492MOL0     C67819   6.321   1.639   9.907  0.3341 -0.2808  0.5996
  492MOL0     C67820   6.365   1.673  10.058  0.0288 -0.9912  0.2799
  492MOL0     C67821   6.293   1.562  10.132  0.1307  0.4992  0.0794
  492MOL0     C67822   6.325   1.574  10.271  0.6562 -0.7265 -0.7311
  492MOL0     C67823   6.335   1.598  10.386 -0.3485 -0.8019  0.1384
  492MOL0     C67824   6.290   2.063   9.733 -0.1264 -0.2221 -0.6111
  492MOL0     C67825   6.213   2.145   9.651  0.1540 -0.0151  0.0815
  492MOL0     C67826   6.274   2.284   9.630 -0.5669  0.0855 -0.4232
  492MOL0     H67827   5.717   2.198   9.319 -1.5997 -2.0711 -1.9746
  492MOL0     H67828   5.658   2.254   9.078 -2.1066 -4.5826  1.1180
  492MOL0     H67829   5.838   2.072   8.820  2.4522  0.5447  1.7480
  492MOL0     H67830   5.944   2.189   8.747 -0.5798  2.0580  0.6025
  492MOL0     H67831   5.656   2.218   8.697 -0.9326  2.3599 -1.8354
  492MOL0     H67832   5.787   2.309   8.618  1.2879 -2.2809 -3.7471
  492MOL0     H67833   5.865   2.092   8.527  0.3978 -3.2113  0.4001
  492MOL0     H67834   5.732   2.004   8.614 -0.4477 -0.1969  0.1311
  492MOL0     H67835   5.570   2.106   8.477 -0.8228  1.5088  0.3440
  492MOL0     H67836   5.687   2.232   8.418  1.7498 -1.0660 -1.4237
  492MOL0     H67837   5.761   1.956   8.388  2.2396  2.1220  1.6568
  492MOL0     H67838   5.783   2.082   8.267 -1.4788  1.8457 -0.6655
  492MOL0     H67839   5.518   1.945   8.329 -1.8602  0.2973  0.7709
  492MOL0     H67840   5.537   2.072   8.202  1.4059  0.0268 -0.4498
  492MOL0     H67841   5.664   1.793   8.183  0.0893 -1.1132 -0.7071
  492MOL0     H67842   5.726   1.928   8.101  1.5038  1.9589  3.7082
  492MOL0     H67843   5.416   1.876   8.121 -1.3687 -1.1167 -0.5595
  492MOL0     H67844   5.506   1.951   7.988 -0.4993 -0.2554 -1.9893
  492MOL0     H67845   5.292   1.691   8.002 -0.1233 -2.4207  1.4869
  492MOL0     H67846   5.260   1.465   7.963  1.0106  0.6804  0.8891
  492MOL0     H67847   5.387   1.350   7.952 -0.1814 -1.3449  0.0657
  492MOL0     H67848   5.401   1.381   7.706 -1.3641 -2.0066  0.2265
  492MOL0     H67849   5.235   1.352   7.753  1.2366 -1.1761 -0.0051
  492MOL0     H67850   5.187   1.600   7.737  0.9208 -1.7165  1.5206
  492MOL0     H67851   5.361   1.621   7.690 -1.0696  2.4877 -0.9349
  492MOL0     H67852   5.298   1.479   7.476 -0.5303 -2.0099  1.0066
  492MOL0     H67853   5.135   1.483   7.522  0.8907 -0.7241  0.1391
  492MOL0     H67854   5.200   1.516   7.266 -0.7215 -1.0059 -2.0935
  492MOL0     H67855   5.064   1.614   6.961  0.8581  3.0226  2.4843
  492MOL0     H67856   5.005   1.467   7.023 -0.1837  1.0415 -1.6258
  492MOL0     H67857   5.178   1.509   7.037 -0.0910  1.1530  0.2693
  492MOL0     H67858   4.592   1.754   7.030  2.0811  0.8939  1.0842
  492MOL0     H67859   4.431   1.818   6.848  0.2496  1.0856 -0.4456
  492MOL0     H67860   4.365   1.905   6.609 -1.0922 -2.2741  0.3984
  492MOL0     H67861   4.259   1.914   6.748 -0.7837 -2.7519 -3.2773
  492MOL0     H67862   4.160   2.113   6.687 -0.0659 -1.5581  0.2281
  492MOL0     H67863   4.285   2.143   6.563 -0.5844  2.5664  2.9505
  492MOL0     H67864   4.066   1.938   6.561 -1.4696  1.6737  0.8653
  492MOL0     H67865   4.184   1.964   6.426  0.7815  1.0547  0.3103
  492MOL0     H67866   4.115   2.198   6.410 -0.5112  0.8035  0.7224
  492MOL0     H67867   3.987   2.173   6.529  0.1452  4.0095 -2.9704
  492MOL0     H67868   4.038   2.065   6.251  0.7605  0.8662  0.8867
  492MOL0     H67869   3.914   1.994   6.365 -0.8923 -0.1063 -1.7505
  492MOL0     H67870   3.801   2.214   6.393 -0.9621  1.2696 -1.0069
  492MOL0     H67871   3.791   2.140   6.234  1.3624  0.5799 -1.0821
  492MOL0     H67872   3.936   2.278   6.129  3.0098 -0.4756  0.1579
  492MOL0     H67873   3.998   2.355   6.270  0.6154 -1.5551 -1.3598
  492MOL0     H67874   3.712   2.398   6.198 -0.5492  0.2490 -1.2698
  492MOL0     H67875   3.836   2.513   6.171 -2.8289  0.9586  0.0877
  492MOL0     H67876   4.640   2.189   6.792  3.1431 -0.7533 -1.3531
  492MOL0     H67877   4.813   2.097   6.928  1.3300 -3.1410  2.5398
  492MOL0     H67878   4.898   1.897   7.285 -2.2714 -0.5743 -3.3079
  492MOL0     H67879   5.065   1.864   7.477  0.1355 -1.3438  0.5795
  492MOL0     H67880   6.056   2.190   8.949 -1.3947  1.8600 -2.9251
  492MOL0     H67881   6.113   2.123   9.196 -0.5955 -1.9014 -0.9653
  492MOL0     H67882   5.987   1.925   9.559 -3.4288  4.7536  2.2568
  492MOL0     H67883   6.134   1.781   9.713 -3.7423  1.3046  1.2525
  492MOL0     H67884   6.367   1.711   9.709  0.5512  3.3735 -0.4878
  492MOL0     H67885   6.490   1.753   9.823  0.4225  0.8741 -0.6581
  492MOL0     H67886   6.368   1.545   9.875  0.0050 -0.6856  1.2822
  492MOL0     H67887   6.216   1.634   9.879  1.3474 -1.2014 -3.8747
  492MOL0     H67888   6.473   1.673  10.074  0.2483  2.6451 -0.2401
  492MOL0     H67889   6.320   1.767  10.092  1.6349  0.2813 -0.9313
  492MOL0     H67890   6.331   1.465  10.097  1.2115  0.7879  0.4046
  492MOL0     H67891   6.184   1.564  10.132  0.0092 -0.9416  2.9871
  492MOL0     H67892   6.328   1.626  10.489 -1.4009  0.1869 -0.1865
  492MOL0     H67893   6.361   2.118   9.793 -1.0590  1.8426 -1.3308
  492MOL0     H67894   6.374   2.296   9.671 -0.2350 -1.1732 -0.8257
  492MOL0     H67895   6.288   2.299   9.522 -0.2009  0.1685 -0.3627
  492MOL0     H67896   6.200   2.357   9.665 -0.0118 -0.0700  1.1353
  493MOL0     O67897   1.672   8.667   0.909 -0.1384  0.0832  0.6171
  493MOL0     C67898   1.652   8.667   1.028  1.2052  1.2082  0.0973
  493MOL0     O67899   1.732   8.614   1.127 -0.6586  0.6207 -0.4144
  493MOL0     C67900   1.858   8.560   1.101  0.0074  0.4770 -0.7952
  493MOL0     C67901   1.866   8.426   1.131 -0.6782 -0.4253 -0.1316
  493MOL0     C67902   1.977   8.354   1.104  0.2261 -0.4863  0.4410
  493MOL0     C67903   2.087   8.420   1.065 -0.3026  0.3419  0.6280
  493MOL0     O67904   2.204   8.358   1.056 -0.7721  0.2311 -0.9149
  493MOL0     C67905   2.249   8.265   1.159 -0.4504 -0.1884  0.0211
  493MOL0     C67906   2.400   8.280   1.204 -0.6169 -0.6035  0.7389
  493MOL0     C67907   2.442   8.210   1.334 -0.0399 -0.1536  0.1686
  493MOL0     C67908   2.384   8.270   1.457  0.3780  0.3933 -0.3495
  493MOL0     C67909   2.446   8.214   1.586 -0.0788 -0.0625  0.4982
  493MOL0     C67910   2.399   8.304   1.704 -0.1129 -0.6272 -0.1648
  493MOL0     C67911   2.438   8.250   1.839  0.7426 -0.3774 -0.2556
  493MOL0     C67912   2.581   8.203   1.857  0.0006  0.1705  0.1985
  493MOL0     N67913   2.615   8.169   1.990 -0.4254  0.3718  0.5314
  493MOL0     C67914   2.534   8.109   2.083 -0.4702  0.6134 -0.3470
  493MOL0     C67915   2.596   8.145   2.201 -0.1592 -1.3696  0.4200
  493MOL0     C67916   2.531   8.123   2.339  0.2079  0.3286  0.3019
  493MOL0     C67917   2.626   8.169   2.457 -0.5439 -0.2916  0.4813
  493MOL0     C67918   2.749   8.064   2.484 -0.4344  0.0228 -0.0475
  493MOL0     C67919   2.834   8.124   2.594 -0.1371 -0.3898  0.5973
  493MOL0     O67920   2.904   8.019   2.658  0.4903 -0.4071 -0.6393
  493MOL0     C67921   3.042   8.027   2.666 -0.0316  0.1815  0.4645
  493MOL0     C67922   3.102   7.934   2.761  0.4080 -0.2473  0.0603
  493MOL0     C67923   3.236   7.926   2.787  0.5447 -0.0967  0.6031
  493MOL0     C67924   3.275   7.830   2.896 -0.2800 -0.2845 -0.1340
  493MOL0     C67925   3.323   8.008   2.707  0.2654  0.8182 -1.2678
  493MOL0     C67926   3.462   8.024   2.748 -0.1090  0.5391 -0.2696
  493MOL0     O67927   3.530   8.121   2.667 -0.0992  0.2847  0.3589
  493MOL0     C67928   3.665   8.145   2.669  0.6002 -0.3172 -0.2105
  493MOL0     C67929   3.702   8.278   2.702  0.0950  1.1647  0.5286
  493MOL0     C67930   3.836   8.317   2.712 -0.2339  0.4014 -0.2226
  493MOL0     C67931   3.940   8.238   2.681 -0.6080  0.8578  0.2292
  493MOL0     O67932   4.072   8.287   2.686  0.0329  0.2677 -0.0675
  493MOL0     C67933   4.188   8.201   2.676  0.4108  0.3561 -0.1046
  493MOL0     C67934   4.205   8.114   2.803 -1.0448  0.3896  0.3532
  493MOL0     C67935   4.337   8.164   2.882 -0.7891  0.8078 -0.2005
  493MOL0     C67936   4.362   8.076   2.998 -0.6951 -0.1420 -0.4420
  493MOL0     C67937   4.509   8.109   3.041  0.2719  0.8508 -0.2730
  493MOL0     C67938   4.562   8.066   3.182  0.2884 -0.2708  0.1824
  493MOL0     C67939   4.624   7.927   3.157  0.5746 -0.1784 -0.2015
  493MOL0     C67940   4.631   7.861   3.296  0.6296  0.3982  0.1932
  493MOL0    Cl67941   4.483   7.756   3.312 -0.2623  0.3472 -0.3374
  493MOL0     C67942   3.901   8.100   2.659  0.0346  0.4171  0.2671
  493MOL0     C67943   3.770   8.051   2.659 -0.2557 -0.4683 -0.0282
  493MOL0     O67944   3.525   7.931   2.807  0.2271 -0.3990 -0.6109
  493MOL0     C67945   3.278   8.095   2.609  0.3785  0.0048 -0.6742
  493MOL0     C67946   3.131   8.098   2.580 -0.3550  0.4707 -0.1651
  493MOL0     N67947   2.694   8.235   2.175 -0.3994  0.1840 -0.3312
  493MOL0     N67948   2.701   8.254   2.051  0.2290  0.3455 -0.1769
  493MOL0     C67949   2.092   8.553   1.042 -0.4020  0.3019  0.4195
  493MOL0     C67950   1.969   8.623   1.053 -1.1670 -0.2977  0.3697
  493MOL0     C67951   1.510   8.691   1.071  0.0575 -0.6257 -0.0796
  493MOL0     C67952   1.397   8.661   0.991 -0.0801 -0.0024 -0.3761
  493MOL0     C67953   1.269   8.690   1.050  0.4609  0.5213 -0.2132
  493MOL0     C67954   1.253   8.763   1.165  1.1930  0.0598  0.8887
  493MOL0     O67955   1.130   8.797   1.217 -0.1284 -0.0690  0.2954
  493MOL0     C67956   1.020   8.798   1.131  0.2400  0.0284  0.9752
  493MOL0     C67957   0.915   8.896   1.189  0.5386 -0.0224  0.3978
  493MOL0     C67958   0.963   9.037   1.219  0.5299  0.5715  1.1157
  493MOL0     C67959   0.876   9.105   1.324 -0.5727 -0.3864  0.2373
  493MOL0     C67960   0.743   9.118   1.271  0.3335 -0.4790  0.3506
  493MOL0     C67961   0.632   9.131   1.216 -0.9141  0.4120  0.1075
  493MOL0     C67962   1.365   8.785   1.242  0.5032 -0.0761 -0.5721
  493MOL0     C67963   1.489   8.751   1.194 -0.2825 -0.7759 -0.8659
  493MOL0     C67964   1.605   8.811   1.285  0.0428  0.3448  0.1583
  493MOL0     H67965   1.778   8.375   1.169 -1.2213  1.8904  1.9879
  493MOL0     H67966   1.979   8.247   1.123  1.8209 -0.6617 -0.5674
  493MOL0     H67967   2.229   8.160   1.136  0.9248 -0.0884 -1.8417
  493MOL0     H67968   2.188   8.284   1.247 -1.3199 -3.0254  0.1361
  493MOL0     H67969   2.460   8.250   1.117 -0.7683  2.8282 -0.7066
  493MOL0     H67970   2.432   8.385   1.211  1.2420 -1.1883  1.8122
  493MOL0     H67971   2.406   8.108   1.319 -1.8656  0.5527 -0.5432
  493MOL0     H67972   2.551   8.213   1.335  0.0931  4.5453 -1.0233
  493MOL0     H67973   2.394   8.378   1.443  1.7428  0.1525 -1.4253
  493MOL0     H67974   2.277   8.249   1.454  0.3513  0.6187 -1.8564
  493MOL0     H67975   2.555   8.221   1.577 -0.1131  1.1529  0.8318
  493MOL0     H67976   2.410   8.112   1.596 -1.8126  0.6431  1.9533
  493MOL0     H67977   2.430   8.407   1.688 -1.2362 -0.4520 -1.3673
  493MOL0     H67978   2.290   8.308   1.698 -0.0294  1.0047 -1.2687
  493MOL0     H67979   2.372   8.163   1.846  0.5823 -0.2332  0.0433
  493MOL0     H67980   2.404   8.329   1.907 -1.5493 -0.2152 -1.4810
  493MOL0     H67981   2.597   8.116   1.792 -0.8613  0.3312 -0.2440
  493MOL0     H67982   2.651   8.271   1.809  0.1183 -1.0147 -1.3885
  493MOL0     H67983   2.439   8.059   2.068 -0.8638  0.7024  1.5600
  493MOL0     H67984   2.522   8.014   2.341  1.3601  0.2342  1.3778
  493MOL0     H67985   2.435   8.176   2.340 -0.2113 -0.4093  0.1231
  493MOL0     H67986   2.654   8.271   2.432 -0.1465 -0.7149 -0.8872
  493MOL0     H67987   2.578   8.182   2.554  1.4304  0.2112  1.4377
  493MOL0     H67988   2.719   7.962   2.512  1.9781 -1.2407 -1.7597
  493MOL0     H67989   2.815   8.049   2.399  2.4633  2.3718  1.6052
  493MOL0     H67990   2.906   8.194   2.553 -1.0501  1.5357  2.1067
  493MOL0     H67991   2.777   8.183   2.667  1.1880  1.8255 -0.0687
  493MOL0     H67992   3.041   7.861   2.812  0.5184 -0.6320 -0.3438
  493MOL0     H67993   3.350   7.762   2.855  2.4886  2.4112 -0.0053
  493MOL0     H67994   3.191   7.775   2.939 -1.7337  0.9893 -1.2299
  493MOL0     H67995   3.323   7.887   2.977  0.1707  1.3096 -1.4822
  493MOL0     H67996   3.637   8.364   2.717 -0.6905  1.3296 -2.8926
  493MOL0     H67997   3.868   8.417   2.740 -0.0271  0.3024 -0.1088
  493MOL0     H67998   4.194   8.126   2.597 -0.8680 -2.1324  1.9882
  493MOL0     H67999   4.272   8.266   2.654  0.1943  0.1256 -1.6885
  493MOL0     H68000   4.117   8.118   2.867 -2.6790 -2.5340 -1.4666
  493MOL0     H68001   4.214   8.010   2.770  4.0354  0.8345 -0.5410
  493MOL0     H68002   4.327   8.272   2.898 -0.1589  0.6225  1.8108
  493MOL0     H68003   4.423   8.140   2.820 -1.0410  0.0453 -0.2666
  493MOL0     H68004   4.361   7.968   2.978  1.2149  0.2086 -3.0287
  493MOL0     H68005   4.305   8.107   3.086  1.2938  0.2806  0.7905
  493MOL0     H68006   4.576   8.080   2.960 -0.0552  1.5879 -0.8141
  493MOL0     H68007   4.533   8.216   3.043  3.2333  0.2895 -0.8266
  493MOL0     H68008   4.475   8.051   3.246  0.1035 -1.0720 -0.2466
  493MOL0     H68009   4.636   8.131   3.229  1.0742 -1.2397  0.3324
  493MOL0     H68010   4.723   7.931   3.109 -0.4878 -1.7089 -2.7196
  493MOL0     H68011   4.559   7.866   3.093 -0.5616  2.0576 -1.2952
  493MOL0     H68012   4.641   7.933   3.377 -0.3033  2.6281 -1.5930
  493MOL0     H68013   4.726   7.806   3.297  0.0464 -0.7713 -1.8268
  493MOL0     H68014   3.979   8.027   2.643  0.1578 -0.4618  3.9250
  493MOL0     H68015   3.764   7.943   2.642  1.4633 -0.9255  1.8587
  493MOL0     H68016   3.335   8.171   2.557  0.1950  0.0381 -0.8270
  493MOL0     H68017   3.101   8.154   2.492  1.8262  2.5704  0.3009
  493MOL0     H68018   2.185   8.602   1.018 -1.3459  1.4001 -1.1919
  493MOL0     H68019   1.968   8.727   1.024  1.4262  1.0781  4.3285
  493MOL0     H68020   1.406   8.612   0.895 -0.0354  0.6341 -0.7021
  493MOL0     H68021   1.174   8.664   1.004 -1.6364  3.4415  2.0376
  493MOL0     H68022   1.044   8.823   1.027 -0.6014 -1.5568  0.3666
  493MOL0     H68023   0.980   8.697   1.120 -2.8830  1.3688 -1.6513
  493MOL0     H68024   0.889   8.845   1.282 -0.5480 -0.0136  0.1095
  493MOL0     H68025   0.832   8.888   1.118  0.1456  0.6119  0.7796
  493MOL0     H68026   1.063   9.030   1.265  2.2166 -0.4603 -2.3638
  493MOL0     H68027   0.961   9.105   1.133  0.4666  0.2649  0.8747
  493MOL0     H68028   0.914   9.204   1.350 -2.3216  0.1578  0.8814
  493MOL0     H68029   0.877   9.054   1.421  1.6268  1.6575  1.3801
  493MOL0     H68030   0.544   9.147   1.157  1.6036  4.7093 -3.1137
  493MOL0     H68031   1.356   8.821   1.344  1.5739  0.9015 -0.8035
  493MOL0     H68032   1.682   8.738   1.313  0.9971  1.0714 -0.5175
  493MOL0     H68033   1.656   8.896   1.238  2.8945 -1.0830  0.4339
  493MOL0     H68034   1.567   8.844   1.383 -2.1658 -0.1699 -0.4668
  494MOL0     O68035  11.387   0.127   5.100  0.3051  0.5900  0.0311
  494MOL0     C68036  11.498   0.178   5.117  0.4854 -0.4023  0.2199
  494MOL0     O68037  11.553   0.277   5.039 -0.1265  0.2126  0.0491
  494MOL0     C68038  11.512   0.320   4.918  0.7607 -0.3048 -0.1347
  494MOL0     C68039  11.394   0.281   4.850  1.0626 -0.0705  0.3578
  494MOL0     C68040  11.367   0.331   4.720 -1.0799 -0.4068 -0.0683
  494MOL0     C68041  11.469   0.403   4.650 -0.7016 -0.0090 -0.5045
  494MOL0     O68042  11.461   0.451   4.526  0.4598 -0.3745  0.1778
  494MOL0     C68043  11.331   0.467   4.464 -0.5968 -0.5804  0.7028
  494MOL0     C68044  11.276   0.594   4.505  0.1534 -1.1637  0.6232
  494MOL0     C68045  11.157   0.646   4.424 -0.9813 -0.0721 -0.7979
  494MOL0     C68046  11.082   0.740   4.512  0.2440 -0.1925 -0.1681
  494MOL0     C68047  10.962   0.807   4.448 -0.0365  1.0023  0.2498
  494MOL0     C68048  10.998   0.901   4.330  0.4878 -0.5345  0.5545
  494MOL0     C68049  10.886   0.927   4.235  0.0978  0.6457 -0.2103
  494MOL0     C68050  10.832   0.819   4.136 -1.0220  0.0009 -0.1351
  494MOL0     N68051  10.943   0.772   4.047  0.9676 -0.6537  0.5733
  494MOL0     C68052  11.012   0.655   4.072 -0.6085 -0.1894 -0.4391
  494MOL0     C68053  11.086   0.633   3.961 -0.0140 -0.0288 -0.0314
  494MOL0     C68054  11.197   0.527   3.946  0.1274 -0.0721  0.3105
  494MOL0     C68055  11.160   0.419   3.830  0.0948 -0.6167 -0.5246
  494MOL0     C68056  11.115   0.477   3.688 -0.3200  0.6147 -0.4877
  494MOL0     C68057  11.224   0.564   3.628 -0.7069  0.0989  0.6216
  494MOL0     O68058  11.337   0.475   3.613 -0.2732  0.5723 -0.6525
  494MOL0     C68059  11.459   0.518   3.584  0.3050 -0.4137 -0.4572
  494MOL0     C68060  11.485   0.644   3.535  0.4731  0.4762 -0.5483
  494MOL0     C68061  11.613   0.686   3.522  0.7697 -0.2475  1.3690
  494MOL0     C68062  11.623   0.835   3.493  0.7084  0.4719  0.6107
  494MOL0     C68063  11.721   0.601   3.563  0.1385 -0.2922  0.3268
  494MOL0     C68064  11.861   0.659   3.559 -0.7696  0.3076  0.4109
  494MOL0     O68065  11.947   0.591   3.637  0.3384 -0.5400 -0.1526
  494MOL0     C68066  12.067   0.652   3.664 -0.0288 -0.2808 -0.4585
  494MOL0     C68067  12.102   0.786   3.670  0.1838 -0.1828 -0.6134
  494MOL0     C68068  12.243   0.819   3.673 -0.8856 -0.1630  0.3446
  494MOL0     C68069  12.346   0.720   3.676 -0.4513  0.2409  0.5875
  494MOL0     O68070  12.473   0.753   3.687 -0.4115 -0.3041  0.0767
  494MOL0     C68071  12.521   0.891   3.712  0.1750  0.0108 -0.9902
  494MOL0     C68072  12.671   0.905   3.679  0.9151 -0.0144  0.3305
  494MOL0     C68073  12.742   1.026   3.741 -0.2080  0.2768 -0.1696
  494MOL0     C68074  12.731   1.154   3.669  0.0727 -0.3628 -0.2504
  494MOL0     C68075  12.793   1.276   3.753  0.7839 -0.0562  0.6468
  494MOL0     C68076  12.762   1.405   3.677  0.1347  0.5558 -0.8947
  494MOL0     C68077  12.808   1.524   3.761 -0.4423 -0.2257  0.0538
  494MOL0     C68078  12.745   1.651   3.705  0.1144  0.0944 -1.0657
  494MOL0    Cl68079  12.791   1.766   3.837  0.1613 -0.1779  0.4397
  494MOL0     C68080  12.310   0.591   3.668  0.4995  0.0049 -0.3323
  494MOL0     C68081  12.174   0.557   3.662 -0.5880 -0.1596 -0.1167
  494MOL0     O68082  11.893   0.746   3.475  0.4310 -0.1589 -1.0948
  494MOL0     C68083  11.693   0.473   3.605 -0.3093  0.9082  0.3251
  494MOL0     C68084  11.562   0.429   3.606 -0.0627  0.3605  1.0940
  494MOL0     N68085  11.077   0.748   3.875  0.6994  0.7223 -0.4396
  494MOL0     N68086  10.986   0.823   3.929  0.8154  0.0637  0.2900
  494MOL0     C68087  11.578   0.449   4.728  0.4169 -0.5449  0.0420
  494MOL0     C68088  11.605   0.410   4.858  1.1034 -0.2786  0.3953
  494MOL0     C68089  11.584   0.127   5.223 -0.0417 -0.6498 -0.1229
  494MOL0     C68090  11.723   0.135   5.208  0.0211 -0.3464  0.1647
  494MOL0     C68091  11.818   0.102   5.308 -1.1017  0.2604  0.5621
  494MOL0     C68092  11.773   0.037   5.422  0.0775 -0.4593  0.3840
  494MOL0     O68093  11.852  -0.001   5.525  0.4686 -0.2355 -0.3679
  494MOL0     C68094  11.991  -0.018   5.504  0.2891  0.0182 -0.0252
  494MOL0     C68095  12.065  -0.076   5.628  1.0731 -0.9555  0.5601
  494MOL0     C68096  12.216  -0.046   5.608 -0.0002  0.8667  1.0669
  494MOL0     C68097  12.294  -0.151   5.698  0.4094 -0.3524 -0.0463
  494MOL0     C68098  12.310  -0.118   5.842 -0.4476 -0.0886 -0.7667
  494MOL0     C68099  12.325  -0.082   5.964 -0.3065  0.3750  0.1478
  494MOL0     C68100  11.642   0.006   5.427 -0.2535  0.3828 -0.6311
  494MOL0     C68101  11.541   0.052   5.342  0.3615  0.8870 -0.5842
  494MOL0     C68102  11.396   0.013   5.379  0.1207 -0.4372  0.5410
  494MOL0     H68103  11.330   0.205   4.894 -0.7689  0.1515 -1.7222
  494MOL0     H68104  11.276   0.304   4.668 -1.2068 -0.5098  0.2014
  494MOL0     H68105  11.259   0.389   4.492 -1.7830 -0.1401 -0.9829
  494MOL0     H68106  11.337   0.461   4.355 -0.9055 -0.9024  0.6986
  494MOL0     H68107  11.250   0.585   4.611  0.6439  0.3550  0.8916
  494MOL0     H68108  11.346   0.677   4.492 -2.0799  0.6761 -0.3126
  494MOL0     H68109  11.189   0.699   4.334 -1.9123  2.8910  0.4910
  494MOL0     H68110  11.087   0.565   4.402  1.4220 -2.2542 -0.8980
  494MOL0     H68111  11.037   0.684   4.595 -2.2990 -0.3304 -1.5472
  494MOL0     H68112  11.155   0.818   4.540  1.8518 -0.5790 -2.9327
  494MOL0     H68113  10.902   0.850   4.528 -0.4130 -0.3922  0.7465
  494MOL0     H68114  10.898   0.728   4.408  0.6609 -0.0604  1.1728
  494MOL0     H68115  11.036   0.998   4.361  0.6149  0.1418 -1.5322
  494MOL0     H68116  11.076   0.859   4.265  0.7300  0.6356  0.0653
  494MOL0     H68117  10.938   0.992   4.165  3.3766 -4.5241 -3.2447
  494MOL0     H68118  10.808   0.971   4.297 -1.0066 -1.5322  0.0371
  494MOL0     H68119  10.789   0.730   4.182 -1.7757  1.1761  1.5187
  494MOL0     H68120  10.753   0.855   4.069  1.1595  0.5924 -2.5633
  494MOL0     H68121  11.012   0.591   4.160 -1.0158 -1.9664 -1.6730
  494MOL0     H68122  11.209   0.473   4.041 -2.1764  0.7215  1.1173
  494MOL0     H68123  11.293   0.572   3.919  1.7073 -2.9657  0.6792
  494MOL0     H68124  11.241   0.347   3.815  1.8623  1.1508  0.0939
  494MOL0     H68125  11.083   0.354   3.872 -0.3014  1.3548  2.0253
  494MOL0     H68126  11.105   0.385   3.630  3.0206 -2.0747  2.7231
  494MOL0     H68127  11.022   0.534   3.699  0.7809  1.8857  4.1776
  494MOL0     H68128  11.187   0.591   3.528  1.0965 -1.6291 -0.6098
  494MOL0     H68129  11.244   0.660   3.676 -0.3500  1.0881 -1.3661
  494MOL0     H68130  11.414   0.726   3.524  2.5844  2.2820 -1.3942
  494MOL0     H68131  11.705   0.889   3.541 -0.3899  1.4221  1.5006
  494MOL0     H68132  11.529   0.880   3.528  0.4435 -0.3484  0.9747
  494MOL0     H68133  11.627   0.856   3.386 -3.4996 -1.5645 -0.1838
  494MOL0     H68134  12.025   0.862   3.680 -0.6491 -0.8622 -1.6277
  494MOL0     H68135  12.277   0.922   3.664  2.7124 -1.2834 -0.7697
  494MOL0     H68136  12.461   0.962   3.654 -0.9793 -1.0136 -1.0987
  494MOL0     H68137  12.498   0.927   3.813 -4.4332  1.3244 -2.2439
  494MOL0     H68138  12.720   0.810   3.701 -0.0623 -0.4198  0.8382
  494MOL0     H68139  12.675   0.903   3.570 -1.5916 -3.7640  0.1172
  494MOL0     H68140  12.847   1.002   3.757  0.0997  1.4916 -0.3187
  494MOL0     H68141  12.694   1.034   3.839 -2.1476 -1.7984 -0.8457
  494MOL0     H68142  12.628   1.175   3.640  0.7894 -0.0175 -2.8538
  494MOL0     H68143  12.794   1.152   3.579  0.3736 -2.2278 -0.0380
  494MOL0     H68144  12.763   1.292   3.856  0.1211 -1.1802  0.6402
  494MOL0     H68145  12.902   1.267   3.760  0.6760 -0.8600  1.5427
  494MOL0     H68146  12.655   1.409   3.656 -0.0013  2.6867 -0.0051
  494MOL0     H68147  12.825   1.405   3.588  1.0034 -0.0736 -0.3077
  494MOL0     H68148  12.917   1.531   3.767 -0.4155 -0.6706  0.1162
  494MOL0     H68149  12.770   1.524   3.864  0.3798 -0.9573  0.3692
  494MOL0     H68150  12.637   1.637   3.702  0.3777 -2.2458 -0.8939
  494MOL0     H68151  12.779   1.687   3.607  0.2154  1.7717 -0.4569
  494MOL0     H68152  12.373   0.503   3.656  1.6488  0.9582 -1.6280
  494MOL0     H68153  12.166   0.452   3.637  0.0737 -0.2332 -0.0415
  494MOL0     H68154  11.782   0.412   3.619  2.9395  4.7359 -1.8380
  494MOL0     H68155  11.537   0.327   3.632 -2.5183 -0.0149 -2.0655
  494MOL0     H68156  11.661   0.507   4.687 -1.2535  2.3301  0.4454
  494MOL0     H68157  11.696   0.448   4.902  0.8373  2.6980 -1.3628
  494MOL0     H68158  11.764   0.167   5.112 -3.3688  0.5063 -1.1253
  494MOL0     H68159  11.924   0.114   5.288 -1.0725  2.7627  1.7890
  494MOL0     H68160  12.001  -0.083   5.416 -0.8675  0.0183 -0.1771
  494MOL0     H68161  12.043   0.076   5.486  1.8501 -0.3199  2.3881
  494MOL0     H68162  12.039  -0.181   5.642  2.3280 -2.2866 -4.7058
  494MOL0     H68163  12.038  -0.012   5.712  1.9033 -1.8117  1.4937
  494MOL0     H68164  12.249  -0.064   5.506  0.8024 -1.8705  1.7179
  494MOL0     H68165  12.241   0.056   5.637 -0.6832  1.0864  0.8969
  494MOL0     H68166  12.393  -0.169   5.656 -0.5901 -0.6369 -2.4351
  494MOL0     H68167  12.248  -0.250   5.689 -0.1499 -0.1182  0.1933
  494MOL0     H68168  12.329  -0.035   6.060 -1.0940  3.5393 -1.2520
  494MOL0     H68169  11.608  -0.055   5.510 -0.7675  1.6175  0.0928
  494MOL0     H68170  11.394  -0.043   5.473 -1.6902 -0.2356  0.6594
  494MOL0     H68171  11.323   0.092   5.397  1.1368  0.1381  2.4420
  494MOL0     H68172  11.357  -0.051   5.300 -1.9870  1.1642  0.1717
  495MOL0     O68173   7.402   9.727   5.399 -0.1539 -0.8115 -0.0553
  495MOL0     C68174   7.427   9.809   5.315  0.4630  0.0321 -0.2841
  495MOL0     O68175   7.350   9.827   5.201  0.2121 -0.3751 -0.1768
  495MOL0     C68176   7.258   9.742   5.147 -0.1249  0.6907 -0.3290
  495MOL0     C68177   7.246   9.605   5.169 -0.0193 -0.0023 -0.3432
  495MOL0     C68178   7.162   9.518   5.091 -0.8859  0.1553 -0.3168
  495MOL0     C68179   7.072   9.568   5.003  0.0293 -0.0473 -0.4849
  495MOL0     O68180   6.998   9.502   4.912  0.9927 -0.6213 -0.4519
  495MOL0     C68181   6.870   9.489   4.973 -0.4365  0.5785  0.3683
  495MOL0     C68182   6.858   9.390   5.085 -0.8315 -0.5569 -0.5405
  495MOL0     C68183   6.706   9.347   5.110 -0.7742  0.4941 -0.0649
  495MOL0     C68184   6.613   9.450   5.174 -1.3366 -0.8587  1.0199
  495MOL0     C68185   6.511   9.392   5.267  0.3810 -0.3612  0.2526
  495MOL0     C68186   6.401   9.497   5.298  0.8984 -0.1646 -0.1454
  495MOL0     C68187   6.451   9.630   5.355  0.2798  0.0161  0.3180
  495MOL0     C68188   6.536   9.639   5.489  0.0531 -0.1402 -0.2984
  495MOL0     N68189   6.682   9.643   5.475 -0.7561  0.2873 -0.4310
  495MOL0     C68190   6.764   9.730   5.420  0.4315 -1.0323  0.0224
  495MOL0     C68191   6.884   9.686   5.423 -0.2193  0.8505  0.1730
  495MOL0     C68192   7.000   9.760   5.373 -0.0810 -0.3006 -0.0151
  495MOL0     C68193   7.048   9.875   5.460  0.1412 -0.2025  0.2672
  495MOL0     C68194   6.950  10.000   5.478 -1.3646  0.6147  0.5182
  495MOL0     C68195   6.942  10.105   5.364  0.1411  0.5424  0.0070
  495MOL0     O68196   6.859  10.060   5.252  1.2456 -0.4047 -0.5601
  495MOL0     C68197   6.728  10.053   5.277  0.0370  0.0624  0.8847
  495MOL0     C68198   6.648  10.001   5.173  0.0133 -0.2175 -0.1213
  495MOL0     C68199   6.509   9.975   5.192  0.9979  0.0304 -0.3410
  495MOL0     C68200   6.445   9.920   5.057  0.2739  0.1866 -1.1412
  495MOL0     C68201   6.436  10.003   5.315  0.5445 -0.3730  0.1888
  495MOL0     C68202   6.298   9.955   5.341 -0.3930  0.1530 -0.9981
  495MOL0     O68203   6.236   9.895   5.243  0.5783 -0.2571 -0.0367
  495MOL0     C68204   6.098   9.874   5.257 -0.0679  0.4798  0.1697
  495MOL0     C68205   6.064   9.740   5.266 -0.5150  0.1292  0.6925
  495MOL0     C68206   5.931   9.711   5.280 -0.4698  0.4311 -0.3091
  495MOL0     C68207   5.836   9.807   5.306 -0.1549 -0.6455  0.0400
  495MOL0     O68208   5.702   9.796   5.338 -0.2643  0.5444  0.7546
  495MOL0     C68209   5.647   9.663   5.329 -0.2206  0.7555  0.2674
  495MOL0     C68210   5.499   9.687   5.339  0.2198  0.1864 -0.2829
  495MOL0     C68211   5.429   9.564   5.325  0.2341  0.3677  0.3981
  495MOL0     C68212   5.284   9.596   5.288 -0.2788  0.7073 -0.3801
  495MOL0     C68213   5.182   9.475   5.282  0.0422 -0.0540  0.1121
  495MOL0     C68214   5.108   9.436   5.416 -0.5948  0.6013  0.1992
  495MOL0     C68215   4.990   9.339   5.383  0.3139  0.2576  0.0150
  495MOL0     C68216   4.875   9.349   5.491  0.9175  0.0024 -0.1586
  495MOL0    Cl68217   4.926   9.285   5.646  0.1588 -0.1937  0.0643
  495MOL0     C68218   5.872   9.942   5.305 -0.2808 -0.7485  0.8294
  495MOL0     C68219   6.004   9.973   5.280  1.2517 -0.9781  0.1022
  495MOL0     O68220   6.259   9.967   5.449 -0.5908  0.8036 -0.6945
  495MOL0     C68221   6.521  10.055   5.416 -0.4688  0.5118 -0.0684
  495MOL0     C68222   6.656  10.084   5.394 -0.0884  0.4765  0.0970
  495MOL0     N68223   6.886   9.572   5.493  0.5249  0.8479 -0.0875
  495MOL0     N68224   6.768   9.541   5.517  0.7784  0.3815  1.0933
  495MOL0     C68225   7.076   9.702   4.986  1.1394 -0.7026 -1.0611
  495MOL0     C68226   7.154   9.792   5.064  0.0757 -0.4479  0.3341
  495MOL0     C68227   7.550   9.892   5.319 -0.0849 -0.3871 -0.3524
  495MOL0     C68228   7.551  10.009   5.240 -0.9106 -0.2626 -0.4083
  495MOL0     C68229   7.659  10.102   5.233  0.2730 -0.0827 -0.8208
  495MOL0     C68230   7.779  10.071   5.301 -0.4115 -0.0005  0.3969
  495MOL0     O68231   7.882  10.162   5.301  0.8399  0.2620 -0.6813
  495MOL0     C68232   8.006  10.114   5.348 -0.4004 -0.0308 -0.5743
  495MOL0     C68233   8.104  10.231   5.324 -0.4813 -0.1408  0.3655
  495MOL0     C68234   8.250  10.201   5.343 -0.5976 -0.7118  0.0842
  495MOL0     C68235   8.332  10.330   5.370 -0.5099 -0.7399  0.1736
  495MOL0     C68236   8.287  10.450   5.284 -0.2905  0.0358 -0.1020
  495MOL0     C68237   8.238  10.548   5.227  0.7270 -0.4130  0.5237
  495MOL0     C68238   7.778   9.955   5.387  0.2433 -0.3053  0.1081
  495MOL0     C68239   7.664   9.865   5.398 -0.8205 -0.7759  0.6845
  495MOL0     C68240   7.673   9.749   5.489  0.3936 -1.3861  0.1855
  495MOL0     H68241   7.302   9.551   5.245  0.2079  0.8569  0.1117
  495MOL0     H68242   7.168   9.410   5.098  0.8501  0.3110  3.1116
  495MOL0     H68243   6.810   9.451   4.890  0.8096  1.9389 -1.2073
  495MOL0     H68244   6.828   9.588   4.993  0.9251  1.0792  0.8429
  495MOL0     H68245   6.930   9.310   5.068 -1.0571 -0.6928 -0.8570
  495MOL0     H68246   6.894   9.444   5.174 -4.0615  0.8777  0.0369
  495MOL0     H68247   6.667   9.316   5.013 -1.9065 -0.7397  0.7607
  495MOL0     H68248   6.709   9.263   5.181  1.6484  0.5093 -0.0393
  495MOL0     H68249   6.686   9.510   5.229  2.8196 -1.1174 -3.5504
  495MOL0     H68250   6.578   9.521   5.100  1.3875 -0.3762  0.0569
  495MOL0     H68251   6.568   9.367   5.357  2.4414 -0.2054 -0.9668
  495MOL0     H68252   6.452   9.314   5.218 -1.8577  0.4770  1.4695
  495MOL0     H68253   6.352   9.526   5.204 -3.5535  3.7113  2.9027
  495MOL0     H68254   6.324   9.448   5.358 -1.8484 -1.7893 -4.5012
  495MOL0     H68255   6.363   9.694   5.354  1.1589  1.2602 -0.5567
  495MOL0     H68256   6.518   9.680   5.285  2.7715 -2.7543  0.5134
  495MOL0     H68257   6.517   9.740   5.526  2.3048  1.2766 -2.7053
  495MOL0     H68258   6.506   9.565   5.564  1.9536  0.3154  0.9674
  495MOL0     H68259   6.744   9.821   5.364  1.3202 -2.3142 -2.5288
  495MOL0     H68260   6.981   9.791   5.270 -0.2500  2.7420  0.8490
  495MOL0     H68261   7.078   9.683   5.366  0.4399 -0.3330  3.8979
  495MOL0     H68262   7.064   9.833   5.559  0.3224  2.1771  1.3183
  495MOL0     H68263   7.135   9.927   5.417 -0.6556  1.8259  1.0203
  495MOL0     H68264   6.851   9.963   5.507 -1.5855  1.4868  0.9237
  495MOL0     H68265   6.994  10.047   5.566 -1.6540  1.4362  0.2310
  495MOL0     H68266   6.905  10.197   5.413 -0.3983 -0.3231  1.2906
  495MOL0     H68267   7.044  10.112   5.327 -0.9123  1.5972 -3.0653
  495MOL0     H68268   6.699   9.978   5.080 -2.4813 -1.9355 -1.2132
  495MOL0     H68269   6.401   9.821   5.067  2.0197 -0.4269  1.4780
  495MOL0     H68270   6.518   9.912   4.975  0.7876  0.3561 -0.7123
  495MOL0     H68271   6.365   9.992   5.041 -1.7963 -1.6593  0.2752
  495MOL0     H68272   6.137   9.661   5.248  1.4024  1.9437  0.0715
  495MOL0     H68273   5.905   9.606   5.291 -1.8786  0.8708  0.9952
  495MOL0     H68274   5.679   9.616   5.235 -0.4566  2.7663 -0.8801
  495MOL0     H68275   5.662   9.596   5.414 -0.5399  0.6618  0.2511
  495MOL0     H68276   5.486   9.734   5.437 -0.4289  1.8151 -1.1064
  495MOL0     H68277   5.472   9.754   5.256 -0.2024  0.9545  0.4603
  495MOL0     H68278   5.444   9.494   5.407  0.8662  2.7941  2.4914
  495MOL0     H68279   5.482   9.512   5.244 -2.4921  1.9833 -2.6838
  495MOL0     H68280   5.276   9.645   5.191 -3.2603 -1.4416 -1.3767
  495MOL0     H68281   5.246   9.674   5.355 -3.6632  1.0380 -2.4309
  495MOL0     H68282   5.115   9.519   5.207  1.3448  4.2205  1.1432
  495MOL0     H68283   5.225   9.388   5.232 -4.0405 -1.3839 -1.4633
  495MOL0     H68284   5.057   9.519   5.467 -4.7135 -0.4912 -1.7047
  495MOL0     H68285   5.174   9.387   5.488 -1.0623  1.2989  1.1363
  495MOL0     H68286   5.013   9.232   5.388 -2.8997 -0.5467 -0.2589
  495MOL0     H68287   4.954   9.365   5.283 -1.2290  1.1372  0.7563
  495MOL0     H68288   4.789   9.286   5.465 -0.4949  2.5072 -1.9274
  495MOL0     H68289   4.843   9.453   5.497  0.5133 -0.1227 -0.1296
  495MOL0     H68290   5.801  10.021   5.328 -1.3263 -0.1859 -3.3518
  495MOL0     H68291   6.049  10.072   5.283 -1.0269  0.1125 -0.0283
  495MOL0     H68292   6.481  10.065   5.517 -0.3448  1.4211 -0.1039
  495MOL0     H68293   6.711  10.123   5.480 -0.5310  0.9817  0.1525
  495MOL0     H68294   6.998   9.730   4.916  1.6048 -0.4396 -1.4728
  495MOL0     H68295   7.127   9.896   5.048 -2.8753 -0.8549  1.9559
  495MOL0     H68296   7.472  10.043   5.174 -0.4881  0.5382 -0.5265
  495MOL0     H68297   7.656  10.184   5.163  1.2906  0.8185  0.1518
  495MOL0     H68298   7.999  10.091   5.455 -0.6346 -0.5114 -0.6916
  495MOL0     H68299   8.037  10.021   5.301  3.4350  1.7074 -1.9403
  495MOL0     H68300   8.081  10.314   5.391 -0.3780 -0.6652  1.0628
  495MOL0     H68301   8.091  10.266   5.221  0.8134 -1.6982 -0.3703
  495MOL0     H68302   8.265  10.131   5.425  0.6887  0.0572  0.5449
  495MOL0     H68303   8.287  10.158   5.250 -0.9602 -0.4007 -0.2076
  495MOL0     H68304   8.434  10.315   5.333 -0.6382 -2.6659  0.5134
  495MOL0     H68305   8.332  10.370   5.472 -2.1243 -0.6350  0.1452
  495MOL0     H68306   8.211  10.630   5.164 -1.0375 -0.8429  0.6605
  495MOL0     H68307   7.862   9.943   5.454  1.2254  1.5465 -0.7142
  495MOL0     H68308   7.601   9.761   5.570 -0.5797  0.6307 -0.9028
  495MOL0     H68309   7.661   9.660   5.428 -0.9782 -0.8216 -0.4030
  495MOL0     H68310   7.774   9.744   5.531  0.3775  1.5556  0.7817
  496MOL0     O68311   9.158   2.809   4.188 -0.9676 -0.8953  0.1744
  496MOL0     C68312   9.209   2.698   4.194  0.0140  0.1640 -0.2766
  496MOL0     O68313   9.332   2.668   4.138  0.8330  0.9405  0.1152
  496MOL0     C68314   9.398   2.767   4.069  0.4375  0.4653 -0.4434
  496MOL0     C68315   9.464   2.716   3.960 -0.1467 -0.5358  0.4941
  496MOL0     C68316   9.541   2.806   3.877  0.3640 -0.0812 -0.2255
  496MOL0     C68317   9.563   2.940   3.924 -0.7567  0.0558 -0.6844
  496MOL0     O68318   9.652   3.025   3.856  0.5944 -0.6266  0.1848
  496MOL0     C68319   9.748   2.966   3.772  0.2743 -0.0111  0.3517
  496MOL0     C68320   9.860   2.897   3.838  0.2188 -0.0820 -0.9244
  496MOL0     C68321   9.942   2.997   3.920 -0.3746  0.2966 -0.2926
  496MOL0     C68322  10.064   2.930   3.989  0.6613  1.1228  0.2975
  496MOL0     C68323  10.122   3.022   4.094 -1.0794 -0.2408  0.1723
  496MOL0     C68324  10.263   2.983   4.148  1.1811 -1.1432 -0.9028
  496MOL0     C68325  10.316   3.091   4.249 -0.1701  0.7590  0.2857
  496MOL0     C68326  10.237   3.085   4.379  0.2456  0.0060 -0.9182
  496MOL0     N68327  10.310   3.131   4.496  0.7537 -0.7478 -1.4082
  496MOL0     C68328  10.392   3.052   4.576  0.5544 -0.0174  0.5504
  496MOL0     C68329  10.398   3.110   4.705 -0.3759  0.1498  0.3319
  496MOL0     C68330  10.469   3.061   4.835 -0.6249  0.3034  0.3146
  496MOL0     C68331  10.620   3.079   4.838  0.2867 -0.7626  0.2565
  496MOL0     C68332  10.658   3.115   4.977  0.1475 -0.4298 -0.0694
  496MOL0     C68333  10.810   3.135   5.005 -0.7224 -0.1979  0.6413
  496MOL0     O68334  10.834   3.177   5.142  0.0302 -0.1431 -0.0598
  496MOL0     C68335  10.963   3.177   5.177  0.0920 -0.4726 -0.0298
  496MOL0     C68336  11.023   3.300   5.219  0.8831 -0.1646 -0.0147
  496MOL0     C68337  11.153   3.306   5.264 -0.3579  0.0103  0.4209
  496MOL0     C68338  11.208   3.446   5.302 -0.1451  0.6921 -0.9584
  496MOL0     C68339  11.230   3.186   5.269 -0.1372 -0.2753  1.0994
  496MOL0     C68340  11.373   3.180   5.316 -0.6023  0.1112  0.7509
  496MOL0     O68341  11.404   3.054   5.365  0.1137  0.0108 -0.4877
  496MOL0     C68342  11.520   3.041   5.441  0.5866  0.6127 -0.7960
  496MOL0     C68343  11.647   3.071   5.397 -0.0301 -0.3548 -0.3655
  496MOL0     C68344  11.753   3.057   5.482 -0.5726 -0.6942 -0.0830
  496MOL0     C68345  11.738   3.018   5.619 -0.3841 -0.5510  0.2123
  496MOL0     O68346  11.840   2.998   5.705 -0.0607  0.0624  0.0411
  496MOL0     C68347  11.971   3.017   5.658 -0.0524 -0.7397  0.3397
  496MOL0     C68348  12.011   3.160   5.653 -0.1359 -0.4912  0.2400
  496MOL0     C68349  11.989   3.242   5.783  0.5438  0.7555  0.9843
  496MOL0     C68350  12.076   3.200   5.903 -0.0876 -0.7365 -0.1013
  496MOL0     C68351  12.017   3.228   6.042  1.0108 -0.1439 -0.0249
  496MOL0     C68352  12.069   3.155   6.158  0.0826 -0.5564  0.1726
  496MOL0     C68353  12.189   3.219   6.222 -0.1420  0.3217 -0.2505
  496MOL0     C68354  12.211   3.155   6.365  0.1621 -0.9825 -0.6631
  496MOL0    Cl68355  12.173   2.980   6.355 -0.4427  0.0907 -0.4357
  496MOL0     C68356  11.610   2.994   5.662 -0.2725 -0.0582  0.5256
  496MOL0     C68357  11.493   3.011   5.577  0.4977 -0.7288 -1.0874
  496MOL0     O68358  11.450   3.277   5.312 -0.2107  0.0364  0.4284
  496MOL0     C68359  11.168   3.068   5.237  0.7664  0.4928 -0.7135
  496MOL0     C68360  11.033   3.060   5.184  0.2449 -0.6211 -0.3003
  496MOL0     N68361  10.311   3.219   4.700 -0.3560  0.6268  0.5859
  496MOL0     N68362  10.275   3.241   4.577 -0.3692 -0.3180  0.5166
  496MOL0     C68363   9.500   2.976   4.042  0.3693 -0.2121 -0.5949
  496MOL0     C68364   9.416   2.892   4.118 -1.7430 -0.9998 -0.7684
  496MOL0     C68365   9.118   2.588   4.228  0.1477  0.6717  0.2952
  496MOL0     C68366   8.982   2.616   4.273  0.3406 -0.2532  0.2851
  496MOL0     C68367   8.894   2.514   4.319  0.7515  0.4098 -0.5866
  496MOL0     C68368   8.938   2.377   4.321 -0.6966  0.1886  0.3284
  496MOL0     O68369   8.873   2.261   4.363 -0.1583 -0.0483 -0.2497
  496MOL0     C68370   8.739   2.273   4.415 -0.3823  0.9801 -0.0192
  496MOL0     C68371   8.717   2.153   4.508  0.5093  1.3778  0.5627
  496MOL0     C68372   8.686   2.026   4.424 -0.0715  0.5771  0.1592
  496MOL0     C68373   8.576   1.936   4.477  0.8055 -0.2031 -0.4337
  496MOL0     C68374   8.605   1.890   4.610  0.0152  0.6117 -0.4487
  496MOL0     C68375   8.615   1.848   4.719 -0.4483 -0.1468 -0.7907
  496MOL0     C68376   9.073   2.354   4.278 -0.2235  0.1891  0.5341
  496MOL0     C68377   9.164   2.456   4.237  0.2773  0.8059 -0.1166
  496MOL0     C68378   9.306   2.414   4.213 -0.3792 -0.1936 -0.3331
  496MOL0     H68379   9.455   2.614   3.926  1.2243 -1.0632  1.6117
  496MOL0     H68380   9.578   2.761   3.786  1.3031 -2.7309  1.3484
  496MOL0     H68381   9.785   3.051   3.715 -2.1864  1.0008  0.1318
  496MOL0     H68382   9.709   2.890   3.704 -1.2343 -1.4969  2.6996
  496MOL0     H68383   9.823   2.814   3.898  1.8281 -0.4339 -0.3581
  496MOL0     H68384   9.932   2.860   3.764 -0.6483  2.0667 -2.9821
  496MOL0     H68385   9.967   3.084   3.859 -1.6320 -0.1827 -1.5573
  496MOL0     H68386   9.872   3.036   3.995  0.4447  1.8364 -0.2781
  496MOL0     H68387  10.042   2.833   4.034  3.1974  1.9520  3.8398
  496MOL0     H68388  10.129   2.921   3.901  1.0930  0.4197  0.6728
  496MOL0     H68389  10.055   3.037   4.179 -0.6788  3.4903  0.0018
  496MOL0     H68390  10.145   3.119   4.050  1.3447 -0.8802 -0.1646
  496MOL0     H68391  10.269   2.891   4.207  0.3617 -1.2815 -1.0255
  496MOL0     H68392  10.337   2.973   4.068  2.7180  0.2191  0.2678
  496MOL0     H68393  10.313   3.195   4.216 -0.6776  1.1654  1.5575
  496MOL0     H68394  10.421   3.059   4.252 -0.8271 -1.6909 -0.3359
  496MOL0     H68395  10.146   3.144   4.370 -1.4836 -2.6214 -1.6217
  496MOL0     H68396  10.198   2.984   4.390  0.4880 -0.1674 -1.6008
  496MOL0     H68397  10.421   2.951   4.548 -2.6340 -0.7289 -0.7169
  496MOL0     H68398  10.447   2.955   4.850 -0.2292  0.2584  0.6106
  496MOL0     H68399  10.426   3.130   4.908 -0.3594  0.6550  0.1396
  496MOL0     H68400  10.668   2.982   4.822 -0.8985 -1.3958  0.4183
  496MOL0     H68401  10.668   3.157   4.779 -0.7786  0.4530  0.9267
  496MOL0     H68402  10.607   3.210   4.996  2.6336  0.9596  0.0274
  496MOL0     H68403  10.625   3.055   5.062 -0.3381  0.3192  0.2857
  496MOL0     H68404  10.852   3.039   4.974 -3.2317 -0.5974 -1.9344
  496MOL0     H68405  10.846   3.221   4.948 -1.5022 -0.3976 -0.1790
  496MOL0     H68406  10.953   3.383   5.219 -2.2205 -2.5603 -0.4474
  496MOL0     H68407  11.246   3.434   5.404 -0.8275  1.0040 -0.6602
  496MOL0     H68408  11.127   3.518   5.316 -0.7482  0.0472 -1.0577
  496MOL0     H68409  11.287   3.489   5.240 -0.0476  1.6301 -0.2063
  496MOL0     H68410  11.664   3.118   5.301  0.8499 -1.2380 -0.6598
  496MOL0     H68411  11.845   3.097   5.438 -2.3097  0.2835 -3.1754
  496MOL0     H68412  12.035   2.976   5.736 -0.1242  1.4598  1.6202
  496MOL0     H68413  11.979   2.968   5.560 -2.7273  2.0840 -1.4747
  496MOL0     H68414  12.118   3.153   5.632 -0.3547 -1.5088 -0.6360
  496MOL0     H68415  11.960   3.217   5.576 -2.2761  0.1863  2.0424
  496MOL0     H68416  11.885   3.242   5.815 -0.0482 -0.0737 -0.8096
  496MOL0     H68417  12.012   3.342   5.746  0.3390 -0.0615 -1.5885
  496MOL0     H68418  12.147   3.283   5.894 -1.5099  0.4556 -0.8694
  496MOL0     H68419  12.121   3.100   5.900  0.2874 -0.5563 -0.9557
  496MOL0     H68420  12.004   3.334   6.065 -3.0351 -0.7840  1.3439
  496MOL0     H68421  11.913   3.197   6.029  1.3128 -1.2237  0.0807
  496MOL0     H68422  12.099   3.055   6.126  1.4063 -0.9126  2.2737
  496MOL0     H68423  11.984   3.145   6.227  0.1843 -1.5802  0.1664
  496MOL0     H68424  12.183   3.328   6.225  1.6069  0.4426  1.6196
  496MOL0     H68425  12.276   3.192   6.162  0.7647  2.9185 -0.2125
  496MOL0     H68426  12.150   3.200   6.444 -2.7744  0.1414 -3.3480
  496MOL0     H68427  12.317   3.171   6.387  0.1355  2.1963 -2.2810
  496MOL0     H68428  11.606   2.969   5.767  3.3610 -3.1170  0.1110
  496MOL0     H68429  11.394   2.981   5.609  1.4437 -1.6171  1.3184
  496MOL0     H68430  11.220   2.973   5.235 -1.1699 -0.6252 -2.5030
  496MOL0     H68431  10.995   2.966   5.147  2.0021 -0.6816 -2.1095
  496MOL0     H68432   9.530   3.074   4.079  0.1255 -0.1899 -0.4542
  496MOL0     H68433   9.362   2.930   4.204 -0.7831  0.1738 -0.6513
  496MOL0     H68434   8.950   2.719   4.262  2.4842  0.4542  0.2300
  496MOL0     H68435   8.793   2.539   4.349  1.6655  2.1553  1.2212
  496MOL0     H68436   8.718   2.355   4.484 -0.3693 -0.1830  1.4243
  496MOL0     H68437   8.667   2.291   4.335 -2.7171 -2.3732  1.0964
  496MOL0     H68438   8.628   2.171   4.569  1.3595 -2.7831  3.3901
  496MOL0     H68439   8.793   2.137   4.584 -2.3200  0.2062  3.3248
  496MOL0     H68440   8.642   2.065   4.332 -1.5702 -0.8823  0.1906
  496MOL0     H68441   8.770   1.963   4.392 -0.0990  2.1635 -3.4269
  496MOL0     H68442   8.558   1.848   4.415 -1.6762 -0.2034  0.1673
  496MOL0     H68443   8.496   2.010   4.486  1.0929  0.1798 -0.9776
  496MOL0     H68444   8.642   1.806   4.813 -0.1484 -1.7191 -1.5423
  496MOL0     H68445   9.108   2.252   4.284 -2.4802 -0.9928 -3.3780
  496MOL0     H68446   9.386   2.469   4.263 -0.9854 -1.6386  2.4874
  496MOL0     H68447   9.330   2.310   4.236 -1.1793 -0.5815 -1.1770
  496MOL0     H68448   9.312   2.431   4.106 -2.2125 -2.1617 -0.8331
  497MOL0     O68449   3.735   8.875  10.749 -0.4989 -0.0164 -0.0795
  497MOL0     C68450   3.761   8.837  10.632  0.7613  0.2870 -0.1790
  497MOL0     O68451   3.732   8.714  10.579 -0.2053  0.3447 -0.4635
  497MOL0     C68452   3.636   8.643  10.642  0.1894  0.5353  0.7351
  497MOL0     C68453   3.671   8.519  10.688 -0.2270  0.5926  0.1216
  497MOL0     C68454   3.579   8.436  10.755 -1.1622 -1.0547 -0.5341
  497MOL0     C68455   3.449   8.477  10.772 -0.3444  0.2031 -0.4366
  497MOL0     O68456   3.361   8.378  10.816 -0.3797 -0.1361 -1.0152
  497MOL0     C68457   3.330   8.388  10.953 -0.7834  0.1825 -0.3493
  497MOL0     C68458   3.251   8.259  10.986  1.0042  1.1676  0.6287
  497MOL0     C68459   3.245   8.235  11.136  0.9651  0.0372 -0.6592
  497MOL0     C68460   3.166   8.109  11.174  0.2472  1.3010 -0.4364
  497MOL0     C68461   3.228   7.975  11.124  0.6810  0.3406 -0.4727
  497MOL0     C68462   3.320   7.921  11.229 -0.2863 -0.3029  0.1446
  497MOL0     C68463   3.417   7.814  11.179  0.2535  0.4505 -0.4615
  497MOL0     C68464   3.513   7.741  11.281 -0.3304  0.1026  0.6675
  497MOL0     N68465   3.445   7.658  11.382  0.0631 -0.4077  0.1674
  497MOL0     C68466   3.331   7.583  11.368  0.9584  0.0537  0.3683
  497MOL0     C68467   3.320   7.519  11.491 -0.4367  0.1680  0.4800
  497MOL0     C68468   3.207   7.430  11.544  0.6254  0.2385  0.5139
  497MOL0     C68469   3.189   7.291  11.470  0.1044  0.1292 -0.3158
  497MOL0     C68470   3.130   7.191  11.572  0.6591  0.1994 -0.1947
  497MOL0     C68471   3.153   7.047  11.519 -0.0146 -0.4140  0.8663
  497MOL0     O68472   3.114   6.960  11.624  0.1727  0.6078  0.3944
  497MOL0     C68473   3.105   6.824  11.596 -1.4761  0.0121  0.0923
  497MOL0     C68474   3.152   6.767  11.473  0.2878  0.0045  0.3358
  497MOL0     C68475   3.145   6.629  11.453  0.3264 -0.4285  0.1262
  497MOL0     C68476   3.238   6.581  11.334  0.6654  0.9065 -0.0496
  497MOL0     C68477   3.073   6.544  11.546 -1.1295  0.2369 -0.2385
  497MOL0     C68478   3.058   6.398  11.531 -1.1073  0.1735  0.3705
  497MOL0     O68479   3.147   6.326  11.619 -0.1162 -0.4866  0.6735
  497MOL0     C68480   3.184   6.198  11.578 -0.8380  0.0208  0.5650
  497MOL0     C68481   3.197   6.164  11.445 -0.6074  0.8385 -0.5493
  497MOL0     C68482   3.267   6.044  11.406  0.1664  0.4741 -0.3604
  497MOL0     C68483   3.311   5.952  11.499 -0.1151  0.5543  0.3174
  497MOL0     O68484   3.386   5.844  11.454  0.2352 -0.4297  0.6216
  497MOL0     C68485   3.459   5.754  11.545  0.1901  0.2140  0.7202
  497MOL0     C68486   3.462   5.618  11.485  0.0109  0.0085 -0.3674
  497MOL0     C68487   3.330   5.547  11.508  0.5138  0.3554  0.9292
  497MOL0     C68488   3.359   5.399  11.462 -0.0377  0.1985  0.8400
  497MOL0     C68489   3.236   5.307  11.468  1.5851 -0.9604 -0.7961
  497MOL0     C68490   3.170   5.305  11.609 -0.3013  0.4658 -0.1044
  497MOL0     C68491   3.063   5.204  11.611 -0.1465 -0.0782 -0.9602
  497MOL0     C68492   2.988   5.198  11.740 -0.1693 -0.1975 -1.1124
  497MOL0    Cl68493   2.919   5.034  11.764  0.7327 -0.1519  0.0367
  497MOL0     C68494   3.306   5.988  11.636 -0.3263  0.7376  1.4320
  497MOL0     C68495   3.241   6.106  11.675  1.4735 -0.1123  0.6957
  497MOL0     O68496   2.983   6.348  11.447  0.5780 -0.2716 -0.2773
  497MOL0     C68497   3.023   6.601  11.662  0.0767  0.6154  0.3097
  497MOL0     C68498   3.040   6.740  11.688 -0.3878  0.7528  0.3258
  497MOL0     N68499   3.432   7.551  11.565 -0.2116 -0.9314 -0.6470
  497MOL0     N68500   3.509   7.620  11.493  0.1742 -0.3168  0.1970
  497MOL0     C68501   3.406   8.598  10.721 -0.1688  0.8060  0.9177
  497MOL0     C68502   3.503   8.685  10.666 -0.3683 -0.1391 -0.2490
  497MOL0     C68503   3.810   8.942  10.546  0.3440 -0.0964 -0.5802
  497MOL0     C68504   3.883   9.046  10.605 -0.4649 -0.8194 -0.8550
  497MOL0     C68505   3.928   9.142  10.521 -0.6013  0.0333  0.4645
  497MOL0     C68506   3.906   9.144  10.384 -0.6826 -0.5125 -0.1543
  497MOL0     O68507   3.952   9.231  10.289  0.1960  0.4142  0.5030
  497MOL0     C68508   4.078   9.288  10.314 -0.2719 -0.8247  0.8681
  497MOL0     C68509   4.052   9.434  10.311  0.2866 -0.6757 -0.0333
  497MOL0     C68510   4.157   9.525  10.264 -0.4128  0.0060 -0.7980
  497MOL0     C68511   4.226   9.594  10.379 -0.4978  0.3488 -0.1414
  497MOL0     C68512   4.309   9.501  10.454  0.2077 -0.0838 -0.1639
  497MOL0     C68513   4.384   9.429  10.520  0.5328 -0.5163 -0.0674
  497MOL0     C68514   3.822   9.046  10.334 -0.0449 -0.3473  0.0454
  497MOL0     C68515   3.777   8.942  10.411 -0.8140 -1.6058  0.1857
  497MOL0     C68516   3.687   8.848  10.346 -0.8088  0.0605 -0.5837
  497MOL0     H68517   3.775   8.490  10.677 -0.3393  0.2973 -0.1751
  497MOL0     H68518   3.603   8.334  10.785 -4.0539 -1.2906  1.4271
  497MOL0     H68519   3.282   8.482  10.980  1.8633  1.8987 -1.1647
  497MOL0     H68520   3.428   8.390  11.001 -0.5901  0.5669 -0.7508
  497MOL0     H68521   3.145   8.279  10.963  0.5062  1.8782  3.2104
  497MOL0     H68522   3.292   8.172  10.936 -1.6133  0.4016 -0.3847
  497MOL0     H68523   3.348   8.231  11.174  0.9056 -1.8852 -0.6393
  497MOL0     H68524   3.202   8.324  11.184  1.3736  0.7413 -1.5628
  497MOL0     H68525   3.148   8.109  11.282  1.1129 -0.1447 -0.2718
  497MOL0     H68526   3.070   8.103  11.123 -0.2318  0.2525  0.5459
  497MOL0     H68527   3.283   7.989  11.031  2.9774 -0.1026  0.7400
  497MOL0     H68528   3.148   7.903  11.102  1.2231  0.4977 -3.3429
  497MOL0     H68529   3.380   8.002  11.270 -0.1502 -1.1667  1.7466
  497MOL0     H68530   3.266   7.867  11.308  2.9754 -1.3929  1.8192
  497MOL0     H68531   3.482   7.858  11.104  1.2363  0.2435  0.2356
  497MOL0     H68532   3.349   7.739  11.138 -0.9794 -0.2068  2.4673
  497MOL0     H68533   3.579   7.676  11.223  0.2506 -0.8941  2.3884
  497MOL0     H68534   3.580   7.819  11.317 -1.2711  2.7668 -2.8138
  497MOL0     H68535   3.261   7.587  11.285 -1.5204  0.0792  2.3360
  497MOL0     H68536   3.111   7.482  11.534 -0.8558 -2.7188 -2.8435
  497MOL0     H68537   3.222   7.417  11.652 -3.6633  0.7451  1.3600
  497MOL0     H68538   3.121   7.306  11.386  2.1035  1.1191 -1.8628
  497MOL0     H68539   3.282   7.256  11.425 -0.0393  1.7282 -1.9589
  497MOL0     H68540   3.177   7.193  11.671  0.1348  2.2940  0.0477
  497MOL0     H68541   3.025   7.218  11.587 -0.1921 -2.8096  0.0319
  497MOL0     H68542   3.090   7.028  11.432 -0.0066  0.6463  0.6169
  497MOL0     H68543   3.260   7.032  11.499  0.2580  0.2913  1.7377
  497MOL0     H68544   3.216   6.818  11.402  4.8184 -1.0312  3.2278
  497MOL0     H68545   3.217   6.477  11.307 -5.0777  2.1790 -1.9051
  497MOL0     H68546   3.343   6.599  11.360  1.2301  4.1296 -3.6359
  497MOL0     H68547   3.219   6.635  11.241  0.3224  0.5355 -0.1982
  497MOL0     H68548   3.167   6.227  11.362 -1.7739 -0.5089 -1.2036
  497MOL0     H68549   3.295   6.025  11.304 -0.8302 -2.6110 -0.1719
  497MOL0     H68550   3.561   5.791  11.557  0.1766  1.7031 -2.8276
  497MOL0     H68551   3.409   5.742  11.642 -2.6242 -3.0590 -0.9040
  497MOL0     H68552   3.503   5.617  11.383 -2.3502 -3.2166 -1.4583
  497MOL0     H68553   3.538   5.559  11.537  2.2732  0.8638 -2.4695
  497MOL0     H68554   3.248   5.597  11.456  2.1417  3.1984  0.8743
  497MOL0     H68555   3.302   5.553  11.614  0.7753 -0.2935  1.0390
  497MOL0     H68556   3.452   5.365  11.508  1.6648  2.4870 -0.6690
  497MOL0     H68557   3.401   5.405  11.362  3.3636  0.1286  2.1451
  497MOL0     H68558   3.157   5.350  11.406 -0.6289  0.3846  2.6412
  497MOL0     H68559   3.267   5.214  11.420  0.4787 -2.1690  0.6984
  497MOL0     H68560   3.117   5.401  11.616 -2.6481 -0.5866 -2.1418
  497MOL0     H68561   3.249   5.293  11.683  2.2156 -1.9959 -2.9505
  497MOL0     H68562   3.113   5.111  11.581  0.6189  0.4067 -1.2205
  497MOL0     H68563   2.985   5.234  11.541 -1.2330 -0.4685  0.0454
  497MOL0     H68564   2.911   5.276  11.730  1.1401  1.0791 -1.5368
  497MOL0     H68565   3.053   5.223  11.824  0.3161  0.3473 -1.6459
  497MOL0     H68566   3.367   5.936  11.709  4.4550  4.4489  0.5594
  497MOL0     H68567   3.231   6.131  11.780  1.7527  0.7453  0.5203
  497MOL0     H68568   2.964   6.537  11.726 -0.0530 -0.7135 -1.0914
  497MOL0     H68569   2.987   6.782  11.772  1.4072  3.3802  0.2615
  497MOL0     H68570   3.302   8.622  10.736 -0.3143 -0.1609  1.5878
  497MOL0     H68571   3.486   8.790  10.644  0.1697  0.1983  0.8690
  497MOL0     H68572   3.897   9.050  10.712  0.7829  0.6866 -1.0421
  497MOL0     H68573   3.977   9.232  10.556  0.1008 -0.8953  1.9659
  497MOL0     H68574   4.133   9.256  10.403  2.1068  0.5343 -0.0194
  497MOL0     H68575   4.150   9.271  10.233  0.7143  1.9498  1.0438
  497MOL0     H68576   4.018   9.468  10.410  2.6710 -1.2748  1.0442
  497MOL0     H68577   3.970   9.445  10.239 -1.9492 -1.7383  2.2009
  497MOL0     H68578   4.225   9.469  10.199 -0.2326 -0.6420 -0.0666
  497MOL0     H68579   4.114   9.603  10.201 -3.1479  1.7258  2.8503
  497MOL0     H68580   4.153   9.626  10.453 -0.1232 -0.1802  0.4722
  497MOL0     H68581   4.285   9.678  10.343 -0.3776 -0.6286 -2.3876
  497MOL0     H68582   4.457   9.374  10.576 -0.3070 -3.4124 -1.6352
  497MOL0     H68583   3.783   9.038  10.233  0.0830  0.3705 -0.0681
  497MOL0     H68584   3.656   8.883  10.247 -2.3650  2.3108  0.6109
  497MOL0     H68585   3.733   8.750  10.330 -0.5236  0.4850 -2.8043
  497MOL0     H68586   3.592   8.842  10.400 -1.2138  2.7520 -0.8454
  498MOL0     O68587  10.273   4.903   3.420  0.3171 -0.2491  0.3389
  498MOL0     C68588  10.264   4.786   3.467 -0.1257 -0.0865  0.4426
  498MOL0     O68589  10.172   4.699   3.426  0.0760  0.4798 -0.1612
  498MOL0     C68590  10.068   4.724   3.339 -0.7611 -0.1637  1.8308
  498MOL0     C68591  10.064   4.816   3.239 -0.5211 -0.0134  0.3782
  498MOL0     C68592   9.956   4.828   3.144 -0.6323  0.7301 -0.1660
  498MOL0     C68593   9.855   4.725   3.142 -0.1866 -0.4927 -0.2421
  498MOL0     O68594   9.760   4.693   3.040  0.9734  1.0337 -0.5437
  498MOL0     C68595   9.725   4.807   2.954  0.2265  0.1320  0.3874
  498MOL0     C68596   9.581   4.802   2.925  0.7002  0.7196 -0.7398
  498MOL0     C68597   9.538   4.674   2.858  1.5380  0.4578  0.6126
  498MOL0     C68598   9.507   4.692   2.711  0.4378 -0.9153 -0.1377
  498MOL0     C68599   9.420   4.579   2.647 -0.0184 -0.3412  0.5992
  498MOL0     C68600   9.509   4.460   2.592  0.3226 -0.8432 -0.2614
  498MOL0     C68601   9.426   4.363   2.507 -0.5577 -0.6972  0.6126
  498MOL0     C68602   9.336   4.273   2.591  0.1280 -0.2987  0.4780
  498MOL0     N68603   9.271   4.185   2.492 -0.2072  1.1456 -0.5984
  498MOL0     C68604   9.138   4.197   2.463  0.3028 -0.2863 -0.0954
  498MOL0     C68605   9.117   4.130   2.341  0.6638  0.2341 -0.5549
  498MOL0     C68606   8.992   4.107   2.273  0.2422  0.6605  0.6207
  498MOL0     C68607   8.856   4.128   2.346 -0.1003 -1.4543  0.6540
  498MOL0     C68608   8.756   4.188   2.245  0.4159 -0.7329 -0.1711
  498MOL0     C68609   8.728   4.095   2.130 -0.5873 -0.6844  0.5710
  498MOL0     O68610   8.673   3.971   2.168  0.5484  0.3606  0.2387
  498MOL0     C68611   8.539   3.973   2.153 -0.5164 -1.2398 -0.6317
  498MOL0     C68612   8.480   3.934   2.039 -0.7262 -0.4829 -0.2023
  498MOL0     C68613   8.345   3.930   2.027 -0.1556  1.1604 -0.5534
  498MOL0     C68614   8.290   3.901   1.882 -0.1024  0.6568 -0.2606
  498MOL0     C68615   8.264   3.942   2.141  0.5653  0.5757  0.2504
  498MOL0     C68616   8.114   3.927   2.141  0.4461  0.4581 -0.5954
  498MOL0     O68617   8.051   3.940   2.257 -0.0614  0.4316  0.5098
  498MOL0     C68618   7.921   3.898   2.266  0.3001 -0.1984 -0.3902
  498MOL0     C68619   7.825   3.973   2.188 -0.5296  0.0006  0.6157
  498MOL0     C68620   7.695   3.946   2.174  0.9181 -0.1446 -0.1519
  498MOL0     C68621   7.641   3.850   2.261 -0.4180 -0.1550 -0.7926
  498MOL0     O68622   7.510   3.812   2.260 -0.2108 -0.5141 -0.6692
  498MOL0     C68623   7.465   3.701   2.330  0.4850  0.8353 -0.2218
  498MOL0     C68624   7.339   3.628   2.272  0.1953  1.5546 -0.0296
  498MOL0     C68625   7.230   3.730   2.260  0.9584  0.8685 -0.5024
  498MOL0     C68626   7.095   3.667   2.277 -0.5966  0.0158  0.5767
  498MOL0     C68627   6.990   3.768   2.230  0.6957 -0.3386  0.1417
  498MOL0     C68628   6.839   3.731   2.271  0.4754  0.3226  0.7590
  498MOL0     C68629   6.743   3.840   2.223  0.0027 -0.2725 -0.8888
  498MOL0     C68630   6.729   3.861   2.069 -0.2385  0.0706 -0.1471
  498MOL0    Cl68631   6.610   4.001   2.066  0.0948  0.0154 -0.0062
  498MOL0     C68632   7.730   3.781   2.348 -0.3901 -0.0473  0.8901
  498MOL0     C68633   7.869   3.799   2.352  0.7441 -0.4095 -0.1777
  498MOL0     O68634   8.060   3.895   2.036 -0.6481 -0.3825 -0.3089
  498MOL0     C68635   8.326   3.971   2.259 -0.0079 -0.3103  0.7305
  498MOL0     C68636   8.458   4.002   2.259 -0.6081 -0.3776  0.3970
  498MOL0     N68637   9.240   4.083   2.300 -0.6502  0.5237 -0.6105
  498MOL0     N68638   9.327   4.117   2.390 -0.3504 -0.2375  0.2261
  498MOL0     C68639   9.868   4.635   3.239  0.2817  0.9239  0.3270
  498MOL0     C68640   9.963   4.639   3.343  0.5808  0.6324 -0.9331
  498MOL0     C68641  10.337   4.743   3.591 -0.7087 -0.0278 -1.4945
  498MOL0     C68642  10.347   4.603   3.622  0.7503 -1.1859  1.1627
  498MOL0     C68643  10.402   4.563   3.736 -1.5256 -0.7533  0.8925
  498MOL0     C68644  10.475   4.654   3.818 -0.5968  0.0200  0.3254
  498MOL0     O68645  10.522   4.592   3.935 -0.0078  0.3285  0.4300
  498MOL0     C68646  10.610   4.669   4.023 -0.6940 -0.4370 -1.2510
  498MOL0     C68647  10.689   4.566   4.096 -0.8117 -0.5176 -0.2507
  498MOL0     C68648  10.792   4.486   4.021 -0.2120  0.9768  0.5900
  498MOL0     C68649  10.943   4.527   4.010  0.3401 -0.1267 -0.4311
  498MOL0     C68650  11.009   4.478   4.136 -0.6158 -0.4576  0.1073
  498MOL0     C68651  11.079   4.449   4.231 -0.1053 -0.4278  0.6052
  498MOL0     C68652  10.484   4.793   3.780  0.2910  0.5907 -0.1106
  498MOL0     C68653  10.412   4.839   3.667  0.1736 -0.9950  0.0678
  498MOL0     C68654  10.424   5.003   3.639  1.0677  0.1190 -0.4201
  498MOL0     H68655  10.137   4.891   3.210 -1.5694  0.4172 -1.3271
  498MOL0     H68656   9.965   4.913   3.076  0.2278  0.8514  0.0908
  498MOL0     H68657   9.777   4.806   2.858 -2.0606 -1.6418 -0.9372
  498MOL0     H68658   9.738   4.902   3.007 -0.5088  2.4897 -3.2840
  498MOL0     H68659   9.526   4.819   3.017  2.6803  1.8478  0.2854
  498MOL0     H68660   9.575   4.888   2.858 -0.8762  0.7525 -0.5841
  498MOL0     H68661   9.599   4.585   2.874  3.6108  1.4231 -1.4717
  498MOL0     H68662   9.445   4.660   2.915  3.3874 -2.2650  3.2943
  498MOL0     H68663   9.444   4.781   2.694 -1.0208 -1.6914  0.9714
  498MOL0     H68664   9.602   4.712   2.661 -0.9851 -0.0340 -2.7295
  498MOL0     H68665   9.365   4.622   2.564 -1.6263 -1.5801  0.9672
  498MOL0     H68666   9.335   4.552   2.711  0.0250 -0.9849  0.3980
  498MOL0     H68667   9.589   4.502   2.530 -1.5238  0.4690 -1.8679
  498MOL0     H68668   9.551   4.417   2.683  2.1291  1.4226  0.0794
  498MOL0     H68669   9.485   4.297   2.443 -3.3904 -0.7383 -2.1911
  498MOL0     H68670   9.369   4.427   2.439  2.5983  3.4074  1.4004
  498MOL0     H68671   9.398   4.210   2.655 -1.0378 -1.1471  0.8133
  498MOL0     H68672   9.256   4.330   2.641  0.2518  0.0873  0.2441
  498MOL0     H68673   9.059   4.248   2.517  0.1825  1.9065 -2.1378
  498MOL0     H68674   8.984   4.008   2.228  1.5002  1.2281 -0.9414
  498MOL0     H68675   8.997   4.187   2.198  0.3553  1.9913  1.9824
  498MOL0     H68676   8.816   4.032   2.379 -1.1514 -1.0121  0.7022
  498MOL0     H68677   8.848   4.194   2.433 -2.6076 -0.5904 -0.1708
  498MOL0     H68678   8.660   4.224   2.283 -1.1692 -4.1416 -0.5972
  498MOL0     H68679   8.800   4.279   2.204 -2.3632 -0.1135 -2.0499
  498MOL0     H68680   8.648   4.144   2.075 -3.3798 -3.5495  1.7218
  498MOL0     H68681   8.818   4.080   2.069  0.8246 -2.9957  2.9556
  498MOL0     H68682   8.547   3.927   1.954  0.9679  1.0510  0.9195
  498MOL0     H68683   8.367   3.873   1.809 -1.1022 -1.3474 -0.6337
  498MOL0     H68684   8.236   3.991   1.850 -2.1309  0.1061  1.3715
  498MOL0     H68685   8.218   3.818   1.881  0.8985 -0.2404 -0.3386
  498MOL0     H68686   7.861   4.068   2.150 -2.3939  1.1065  1.4623
  498MOL0     H68687   7.629   3.997   2.105  1.6696  1.1993  0.0973
  498MOL0     H68688   7.543   3.624   2.323  1.2202  1.5855 -0.4030
  498MOL0     H68689   7.447   3.721   2.436 -0.5644  2.7372 -0.7109
  498MOL0     H68690   7.364   3.584   2.175  0.9352  0.7004  0.5308
  498MOL0     H68691   7.308   3.543   2.333 -2.6452  2.1103 -0.5609
  498MOL0     H68692   7.250   3.776   2.163 -0.1731  2.2603 -0.1158
  498MOL0     H68693   7.228   3.813   2.332 -0.8046  0.7529 -0.3909
  498MOL0     H68694   7.074   3.627   2.376 -3.1289 -3.6180 -1.1745
  498MOL0     H68695   7.076   3.580   2.213  0.3544  0.4285 -0.2951
  498MOL0     H68696   7.007   3.864   2.281 -0.9436 -0.3332  0.7206
  498MOL0     H68697   6.997   3.779   2.121  0.8894 -0.2192  0.1648
  498MOL0     H68698   6.821   3.720   2.379  0.5649 -2.2918  0.5565
  498MOL0     H68699   6.807   3.630   2.245 -3.4289  1.2572  1.3296
  498MOL0     H68700   6.771   3.935   2.270  0.4660 -1.1431  0.6748
  498MOL0     H68701   6.640   3.829   2.260 -0.3913  3.3495 -0.5143
  498MOL0     H68702   6.696   3.771   2.017  1.0790 -0.4188 -0.1752
  498MOL0     H68703   6.831   3.889   2.041 -1.3030  1.2665 -3.2487
  498MOL0     H68704   7.704   3.704   2.421  0.6866 -1.0860  0.2184
  498MOL0     H68705   7.926   3.748   2.429  3.6328  0.7120 -1.4388
  498MOL0     H68706   8.264   3.995   2.345 -0.0615 -0.5577  0.7598
  498MOL0     H68707   8.486   4.038   2.358 -0.9825  0.1510  0.3192
  498MOL0     H68708   9.793   4.557   3.244 -0.4590  1.6585  1.0551
  498MOL0     H68709   9.973   4.559   3.417 -0.3661  2.2042  0.9828
  498MOL0     H68710  10.291   4.528   3.567  0.3623  0.1723 -0.3562
  498MOL0     H68711  10.386   4.458   3.758 -2.1088 -1.2247 -1.4854
  498MOL0     H68712  10.679   4.737   3.972  0.7144 -0.0244  1.0549
  498MOL0     H68713  10.551   4.733   4.089 -1.0131 -1.6546 -0.3045
  498MOL0     H68714  10.625   4.489   4.142  1.1596 -1.1400  1.6384
  498MOL0     H68715  10.735   4.624   4.176  0.0990 -1.1904 -0.2788
  498MOL0     H68716  10.804   4.386   4.063  2.4445  0.4413 -1.2314
  498MOL0     H68717  10.749   4.467   3.922 -2.0531  0.5223  1.4287
  498MOL0     H68718  10.944   4.636   4.006 -4.8290  0.1966  0.4287
  498MOL0     H68719  10.989   4.481   3.922 -0.5021  2.2381 -2.2014
  498MOL0     H68720  11.133   4.434   4.322 -0.3830  1.8267  1.1915
  498MOL0     H68721  10.551   4.861   3.833  0.6945 -0.0387  0.1889
  498MOL0     H68722  10.461   5.060   3.726 -1.0854  3.4083 -1.4404
  498MOL0     H68723  10.466   5.011   3.539 -3.5086 -2.2355 -2.8262
  498MOL0     H68724  10.319   5.034   3.629  0.3541 -1.6099  1.1247
  499MOL0     O68725   1.696   7.804   4.856  0.2581 -0.1635 -0.0010
  499MOL0     C68726   1.582   7.854   4.850 -0.4147 -0.9030 -0.7701
  499MOL0     O68727   1.487   7.825   4.758  0.4224  0.5092 -0.6083
  499MOL0     C68728   1.523   7.742   4.657  0.1652 -0.6255 -0.0633
  499MOL0     C68729   1.468   7.624   4.629 -0.1877  0.0908 -0.4176
  499MOL0     C68730   1.503   7.557   4.515 -0.3744 -0.2061 -0.4744
  499MOL0     C68731   1.604   7.603   4.425  0.4343  0.1825  0.0557
  499MOL0     O68732   1.663   7.524   4.326  0.5909  0.5144  0.0651
  499MOL0     C68733   1.595   7.406   4.294 -0.1028 -1.6701  0.7381
  499MOL0     C68734   1.643   7.345   4.161 -0.3246  0.0001  0.2892
  499MOL0     C68735   1.596   7.437   4.037  0.0372 -0.6481  0.5017
  499MOL0     C68736   1.613   7.353   3.908 -0.8157  0.7502  0.4982
  499MOL0     C68737   1.606   7.440   3.773 -0.4120  0.0527 -0.6001
  499MOL0     C68738   1.635   7.339   3.658 -0.0855  0.0518  0.1259
  499MOL0     C68739   1.654   7.406   3.529 -0.1686 -0.1054  0.0727
  499MOL0     C68740   1.704   7.315   3.408  0.3187  0.3544  0.2837
  499MOL0     N68741   1.620   7.249   3.314  0.3081  0.3692 -0.5130
  499MOL0     C68742   1.532   7.153   3.350  0.0386 -0.6913 -0.2860
  499MOL0     C68743   1.468   7.123   3.233  0.5271 -0.6568  0.5382
  499MOL0     C68744   1.357   7.028   3.199  0.7714  1.4503 -0.1829
  499MOL0     C68745   1.238   7.015   3.303  0.1913 -0.0579 -1.0062
  499MOL0     C68746   1.123   6.925   3.263 -0.5069  0.4216  0.0268
  499MOL0     C68747   1.053   6.974   3.135 -0.6498 -0.3269 -0.1641
  499MOL0     O68748   1.068   7.117   3.100 -0.1657  0.1771 -0.0088
  499MOL0     C68749   1.106   7.160   2.974 -0.3976 -0.1651  0.7056
  499MOL0     C68750   1.157   7.293   2.965 -0.0055  0.4444  0.3038
  499MOL0     C68751   1.180   7.348   2.837 -1.1635  0.3864  0.1103
  499MOL0     C68752   1.274   7.463   2.837  0.5376  0.1634  0.4422
  499MOL0     C68753   1.136   7.279   2.723 -0.0844 -0.4867  0.1353
  499MOL0     C68754   1.148   7.337   2.586  1.1252 -0.8894  0.1064
  499MOL0     O68755   1.093   7.265   2.490  0.0249 -0.0696  0.1269
  499MOL0     C68756   1.103   7.320   2.361 -0.4079 -0.5417 -0.6292
  499MOL0     C68757   0.981   7.334   2.281 -0.6574  0.5931  0.9063
  499MOL0     C68758   0.993   7.380   2.152  0.2001  0.6173  0.2566
  499MOL0     C68759   1.115   7.405   2.093  0.3299 -0.7209 -0.1904
  499MOL0     O68760   1.133   7.454   1.968 -0.3353  0.4766 -0.1012
  499MOL0     C68761   1.092   7.376   1.850  0.2074 -0.5908 -0.5207
  499MOL0     C68762   0.995   7.461   1.769  0.0888 -0.2348  0.5891
  499MOL0     C68763   1.077   7.559   1.677  0.1181 -0.7414 -0.1103
  499MOL0     C68764   0.987   7.654   1.603 -0.0803 -0.1587 -0.6171
  499MOL0     C68765   1.061   7.739   1.511  0.2031  0.5397  0.0998
  499MOL0     C68766   1.161   7.840   1.575 -0.1869  0.2073 -0.0458
  499MOL0     C68767   1.103   7.915   1.698  0.0505  0.7095  0.1270
  499MOL0     C68768   1.072   8.053   1.675 -0.2946 -0.1239  1.0063
  499MOL0    Cl68769   0.938   8.063   1.537  0.1690 -0.1473  0.3849
  499MOL0     C68770   1.235   7.372   2.161  0.1704 -1.1575 -0.2188
  499MOL0     C68771   1.223   7.332   2.297 -0.7615 -0.0501 -0.0874
  499MOL0     O68772   1.196   7.449   2.572 -0.2339  1.2980  0.8485
  499MOL0     C68773   1.083   7.151   2.735 -0.4831 -0.0603 -0.2745
  499MOL0     C68774   1.072   7.094   2.861  1.3738 -0.6754 -0.8330
  499MOL0     N68775   1.519   7.197   3.131 -0.5550  0.6564 -0.0209
  499MOL0     N68776   1.619   7.264   3.178  0.0323  0.2628 -0.2403
  499MOL0     C68777   1.662   7.721   4.454  0.1886 -0.4209  0.3598
  499MOL0     C68778   1.622   7.794   4.569 -0.2780 -0.2195 -0.4264
  499MOL0     C68779   1.548   7.968   4.954 -0.2365  0.9539  1.1725
  499MOL0     C68780   1.416   8.028   4.937 -0.1516  0.2350  0.9403
  499MOL0     C68781   1.377   8.120   5.027  0.8994  0.7205 -0.8234
  499MOL0     C68782   1.449   8.170   5.127 -0.1588 -0.2412  0.5418
  499MOL0     O68783   1.409   8.269   5.215  0.3471  0.0005 -0.0901
  499MOL0     C68784   1.272   8.252   5.269  0.7613 -0.4466  0.1376
  499MOL0     C68785   1.190   8.388   5.267 -0.2342  0.0224  0.5176
  499MOL0     C68786   1.045   8.356   5.323 -0.0262 -0.1238  0.4340
  499MOL0     C68787   0.961   8.476   5.286 -0.2250 -1.3409 -0.2732
  499MOL0     C68788   1.016   8.593   5.357  0.6164 -0.2371 -0.2283
  499MOL0     C68789   1.063   8.695   5.405  1.0690  0.2389 -0.2201
  499MOL0     C68790   1.580   8.121   5.145 -0.0250  0.4474  0.3741
  499MOL0     C68791   1.633   8.021   5.058  1.0761  0.1642  0.5654
  499MOL0     C68792   1.774   7.976   5.077 -0.5264 -0.2223 -0.0934
  499MOL0     H68793   1.399   7.583   4.701 -1.3785  1.4874 -0.7101
  499MOL0     H68794   1.472   7.453   4.514  2.4326 -1.1651  0.8256
  499MOL0     H68795   1.492   7.422   4.261 -0.0631 -0.0342  1.3331
  499MOL0     H68796   1.591   7.327   4.370 -1.6177 -2.5648 -0.2204
  499MOL0     H68797   1.751   7.331   4.172 -0.1658  1.2962  0.5544
  499MOL0     H68798   1.595   7.248   4.155 -1.4200  0.4748  1.2148
  499MOL0     H68799   1.489   7.456   4.042  0.2792  1.1501 -0.4459
  499MOL0     H68800   1.650   7.532   4.044 -0.5577  0.0463 -2.8053
  499MOL0     H68801   1.716   7.317   3.918 -0.1453  1.6303 -2.3140
  499MOL0     H68802   1.554   7.262   3.919  0.8286 -0.0990  3.9843
  499MOL0     H68803   1.681   7.520   3.779 -0.2910 -0.0990  0.0685
  499MOL0     H68804   1.511   7.489   3.750 -0.1024  0.3376 -1.3017
  499MOL0     H68805   1.727   7.281   3.673  0.8567 -0.2006 -4.7702
  499MOL0     H68806   1.557   7.263   3.654 -0.4368  0.4515 -1.7625
  499MOL0     H68807   1.725   7.488   3.546 -0.1891  0.3902 -1.9002
  499MOL0     H68808   1.563   7.461   3.503  0.1812  1.3788  1.8066
  499MOL0     H68809   1.767   7.377   3.343 -0.8830 -0.4817 -1.7601
  499MOL0     H68810   1.767   7.234   3.446 -0.9786 -0.8669 -0.0793
  499MOL0     H68811   1.505   7.102   3.442 -1.5118 -2.2781 -1.5348
  499MOL0     H68812   1.402   6.930   3.183 -2.9812 -0.1242 -2.5317
  499MOL0     H68813   1.314   7.067   3.106 -0.6760 -2.6188 -1.4231
  499MOL0     H68814   1.275   6.957   3.389  3.1361 -1.7949 -3.2372
  499MOL0     H68815   1.199   7.110   3.338 -0.4356 -1.2243  1.7026
  499MOL0     H68816   1.158   6.823   3.244 -0.1801  0.7088 -0.9821
  499MOL0     H68817   1.038   6.931   3.332  0.2867  0.9700  0.9995
  499MOL0     H68818   1.102   6.932   3.047 -0.3965 -0.0274 -0.1683
  499MOL0     H68819   0.946   6.951   3.134 -0.5446 -1.0004  1.5255
  499MOL0     H68820   1.179   7.345   3.058  0.0692  3.5800 -1.3090
  499MOL0     H68821   1.310   7.482   2.938  2.2346  0.6660 -0.2151
  499MOL0     H68822   1.224   7.550   2.794  4.1130  0.6973 -3.3235
  499MOL0     H68823   1.356   7.435   2.770  0.5146  0.1769  0.4083
  499MOL0     H68824   0.879   7.323   2.316 -0.2929 -2.0889  1.3859
  499MOL0     H68825   0.904   7.392   2.091  0.2520 -0.0531  0.0388
  499MOL0     H68826   1.186   7.361   1.796  0.8214 -2.7495  0.9927
  499MOL0     H68827   1.049   7.280   1.879  0.8351  0.1666  3.6910
  499MOL0     H68828   0.928   7.407   1.701  0.7329 -0.8815  0.4460
  499MOL0     H68829   0.936   7.525   1.836 -0.8361  0.2232 -0.6310
  499MOL0     H68830   1.134   7.498   1.607  1.1255  1.3098 -1.1686
  499MOL0     H68831   1.146   7.623   1.732 -0.0932 -2.3271  2.1409
  499MOL0     H68832   0.914   7.710   1.661  0.7551  1.0127 -0.6624
  499MOL0     H68833   0.922   7.585   1.548 -1.2852  1.3098 -1.1091
  499MOL0     H68834   1.120   7.681   1.439  0.1454 -0.9596  1.1960
  499MOL0     H68835   0.985   7.791   1.452 -0.3744 -0.8419 -0.4433
  499MOL0     H68836   1.196   7.906   1.496  0.9850 -1.3633 -0.9063
  499MOL0     H68837   1.250   7.783   1.605 -0.4185  1.0247  2.4318
  499MOL0     H68838   1.180   7.917   1.777 -0.4489  0.7407  0.6180
  499MOL0     H68839   1.017   7.857   1.732  0.7484 -0.1212  0.5580
  499MOL0     H68840   1.161   8.109   1.643 -0.6153  0.8585  1.7740
  499MOL0     H68841   1.049   8.106   1.768  0.8678  2.8511 -0.2648
  499MOL0     H68842   1.331   7.389   2.115 -1.6671  0.5777 -3.8586
  499MOL0     H68843   1.306   7.298   2.358 -1.3321 -1.0976  0.1240
  499MOL0     H68844   1.053   7.093   2.648  0.6951 -3.4036  1.3574
  499MOL0     H68845   1.022   6.998   2.868  0.8822 -0.3730 -0.1037
  499MOL0     H68846   1.740   7.749   4.382  2.0861 -2.4565  1.4972
  499MOL0     H68847   1.665   7.892   4.588  1.9250 -1.6511  3.0034
  499MOL0     H68848   1.354   8.005   4.851 -2.2758  0.0901  2.4462
  499MOL0     H68849   1.279   8.152   4.992  0.4267 -1.7604 -1.9673
  499MOL0     H68850   1.222   8.187   5.196 -0.5435 -0.0439  0.6424
  499MOL0     H68851   1.274   8.198   5.364  1.2966  0.9590  0.9484
  499MOL0     H68852   1.183   8.441   5.171  0.7754 -0.8384 -0.0559
  499MOL0     H68853   1.238   8.448   5.344  0.1311  1.5863 -0.8887
  499MOL0     H68854   1.014   8.262   5.275  0.5165 -1.0717  1.8595
  499MOL0     H68855   1.051   8.337   5.430 -4.2064  2.6024  1.3636
  499MOL0     H68856   0.857   8.456   5.316  0.9012 -3.5429  2.6971
  499MOL0     H68857   0.965   8.499   5.179 -0.7409 -1.7773 -0.3899
  499MOL0     H68858   1.102   8.783   5.453 -1.5663  0.0962  2.4926
  499MOL0     H68859   1.636   8.156   5.231 -0.7498  0.3802  0.8852
  499MOL0     H68860   1.826   8.007   4.986 -1.7393  2.6092  0.0650
  499MOL0     H68861   1.829   8.021   5.160 -0.7114 -2.4139  1.2799
  499MOL0     H68862   1.790   7.868   5.086  3.1565  0.1495 -0.6459
  500MOL0     O68863  11.249   3.289   8.874 -0.2119  0.3770  0.6462
  500MOL0     C68864  11.354   3.299   8.815  0.0067  0.6683  0.4616
  500MOL0     O68865  11.375   3.369   8.697  0.0870 -0.1810 -0.3127
  500MOL0     C68866  11.268   3.400   8.622 -0.7184  1.3757  0.1430
  500MOL0     C68867  11.178   3.308   8.575  0.2982  1.0412 -0.1896
  500MOL0     C68868  11.069   3.350   8.502  0.0572  0.6917 -0.4584
  500MOL0     C68869  11.055   3.484   8.464 -1.1412 -0.3762 -0.1249
  500MOL0     O68870  10.954   3.509   8.372  0.1270  0.4636 -0.0036
  500MOL0     C68871  10.911   3.642   8.361  0.2060 -0.1720  0.3442
  500MOL0     C68872  10.790   3.656   8.274 -0.3534  0.0400 -0.1409
  500MOL0     C68873  10.822   3.706   8.127  0.2394  0.6817 -0.6613
  500MOL0     C68874  10.943   3.620   8.065  0.1562 -0.8721 -0.5702
  500MOL0     C68875  10.935   3.645   7.911  0.3488 -0.0312 -0.8373
  500MOL0     C68876  11.053   3.578   7.846 -0.6729  0.1164  0.2635
  500MOL0     C68877  11.035   3.453   7.775  0.2143 -0.6452  0.6974
  500MOL0     C68878  10.995   3.356   7.876  0.0327 -0.3090  0.6903
  500MOL0     N68879  11.094   3.318   7.969 -0.4349  0.4670  0.6417
  500MOL0     C68880  11.232   3.307   7.960  0.8509 -0.1652  0.2654
  500MOL0     C68881  11.272   3.249   8.077  0.7904 -0.7694  0.6009
  500MOL0     C68882  11.412   3.237   8.112  1.1824 -0.1749  0.5361
  500MOL0     C68883  11.452   3.094   8.104 -0.5033 -1.0289 -0.1364
  500MOL0     C68884  11.606   3.077   8.128  0.1526 -0.0184 -0.0367
  500MOL0     C68885  11.671   3.154   8.244 -0.5186 -0.3606  1.0646
  500MOL0     O68886  11.817   3.143   8.232 -0.6151 -0.1362 -0.2194
  500MOL0     C68887  11.899   3.198   8.332 -0.1976  0.9618  0.1881
  500MOL0     C68888  12.038   3.174   8.313 -0.1709 -0.7205 -0.2397
  500MOL0     C68889  12.130   3.226   8.407  0.5785 -0.7239 -0.3584
  500MOL0     C68890  12.280   3.203   8.373  0.3504  0.1956  0.1832
  500MOL0     C68891  12.079   3.289   8.529 -0.1729  0.1501  0.4005
  500MOL0     C68892  12.172   3.338   8.637 -0.0203  0.0440 -0.7830
  500MOL0     O68893  12.156   3.292   8.760  0.1751 -0.1083 -1.0498
  500MOL0     C68894  12.241   3.324   8.867 -0.3461  0.0098 -0.0646
  500MOL0     C68895  12.281   3.221   8.955  0.1594 -0.0137  0.0796
  500MOL0     C68896  12.350   3.257   9.080  0.1414 -0.8027 -0.0935
  500MOL0     C68897  12.381   3.385   9.104 -0.2954 -0.2967  0.4066
  500MOL0     O68898  12.460   3.416   9.218 -0.2037 -0.5830  0.1149
  500MOL0     C68899  12.599   3.449   9.190  0.5895  0.0390 -0.2335
  500MOL0     C68900  12.693   3.353   9.267  0.7828  0.9541  0.3044
  500MOL0     C68901  12.833   3.413   9.276 -0.0421 -0.4815  0.1680
  500MOL0     C68902  12.934   3.297   9.279 -0.0814  0.0745 -0.8955
  500MOL0     C68903  12.935   3.194   9.403 -0.3476  0.1121  1.0438
  500MOL0     C68904  12.908   3.250   9.538 -1.1914 -1.0044  0.2899
  500MOL0     C68905  13.023   3.348   9.581  0.0208  0.3180  0.5507
  500MOL0     C68906  12.976   3.443   9.686 -0.7428  0.4683 -0.1419
  500MOL0    Cl68907  12.927   3.610   9.609 -0.6206  0.4892 -0.6112
  500MOL0     C68908  12.339   3.488   9.013  0.4312 -0.4138  0.5039
  500MOL0     C68909  12.268   3.455   8.897 -0.1646 -0.4855 -0.0964
  500MOL0     O68910  12.263   3.413   8.607  0.1446 -0.9136 -0.6868
  500MOL0     C68911  11.940   3.299   8.551 -0.5199  0.2966  0.8741
  500MOL0     C68912  11.846   3.266   8.451  0.0321 -0.4219 -0.5789
  500MOL0     N68913  11.162   3.242   8.159  0.4138 -0.1958 -0.8754
  500MOL0     N68914  11.058   3.280   8.091 -0.5222  0.1711  0.5042
  500MOL0     C68915  11.144   3.584   8.518  0.0777 -0.4698  1.0434
  500MOL0     C68916  11.250   3.536   8.594  0.0365  0.1448  0.4456
  500MOL0     C68917  11.473   3.226   8.870 -0.0365  0.0474  1.0943
  500MOL0     C68918  11.532   3.139   8.773 -1.5864  0.3845  0.3990
  500MOL0     C68919  11.644   3.058   8.813  0.1023  0.3766 -0.1766
  500MOL0     C68920  11.705   3.082   8.942  0.1722  0.6779  0.9539
  500MOL0     O68921  11.823   3.016   8.966 -0.1145  0.2477  0.5875
  500MOL0     C68922  11.941   3.107   8.982  0.5630  0.8390 -0.4467
  500MOL0     C68923  11.965   3.117   9.133 -0.6527 -0.9518 -0.2185
  500MOL0     C68924  11.963   2.990   9.218  0.3969  0.1636 -0.4562
  500MOL0     C68925  12.092   2.924   9.237 -0.2614  0.7147 -0.8640
  500MOL0     C68926  12.117   2.815   9.139  0.0414 -0.1868 -0.3401
  500MOL0     C68927  12.135   2.719   9.062  0.5625  0.3199 -0.8075
  500MOL0     C68928  11.644   3.171   9.024  0.6042  0.1299  0.6388
  500MOL0     C68929  11.530   3.243   8.992  0.0977 -0.6278 -0.1542
  500MOL0     C68930  11.449   3.314   9.088 -0.7171  0.2626 -1.7760
  500MOL0     H68931  11.192   3.208   8.614  0.0908  0.8807 -0.5204
  500MOL0     H68932  10.991   3.282   8.470  2.0463 -1.3514 -1.2975
  500MOL0     H68933  10.990   3.704   8.316 -0.0570 -0.0349  0.0707
  500MOL0     H68934  10.881   3.678   8.460 -2.6307 -0.0683 -0.4658
  500MOL0     H68935  10.741   3.559   8.277 -1.9188  0.7887 -0.3166
  500MOL0     H68936  10.722   3.734   8.312 -1.0843 -0.5817 -0.1592
  500MOL0     H68937  10.740   3.693   8.056  2.4326 -0.2701 -3.2017
  500MOL0     H68938  10.832   3.814   8.143 -2.0362  0.8242  0.1726
  500MOL0     H68939  11.039   3.652   8.106  0.3500  1.3943 -2.5240
  500MOL0     H68940  10.941   3.515   8.095  0.9828 -0.2592  1.8690
  500MOL0     H68941  10.936   3.754   7.895 -1.1080  0.5225  2.1228
  500MOL0     H68942  10.839   3.607   7.873  0.5725 -0.5655 -0.8684
  500MOL0     H68943  11.098   3.644   7.771 -4.2577  5.4831  2.1674
  500MOL0     H68944  11.137   3.578   7.917 -1.7441 -0.7557  1.5919
  500MOL0     H68945  11.114   3.419   7.707 -0.3924  0.3974 -0.5870
  500MOL0     H68946  10.950   3.470   7.708  0.9480 -1.7199 -0.5707
  500MOL0     H68947  10.904   3.396   7.922  0.5579  1.9047 -0.0718
  500MOL0     H68948  10.959   3.270   7.819  0.1066  0.0864  0.0403
  500MOL0     H68949  11.296   3.341   7.879  2.2072  0.8675  1.7059
  500MOL0     H68950  11.425   3.279   8.212  0.9822 -0.2978  0.6155
  500MOL0     H68951  11.483   3.289   8.047  3.3109 -4.0324 -0.5242
  500MOL0     H68952  11.397   3.039   8.182  0.1115 -0.2474  0.8808
  500MOL0     H68953  11.420   3.052   8.008 -1.1879 -0.7773 -0.0247
  500MOL0     H68954  11.636   2.973   8.108 -1.3676 -0.0981 -2.2020
  500MOL0     H68955  11.663   3.119   8.044 -0.3422 -0.2081 -0.4692
  500MOL0     H68956  11.638   3.257   8.235  0.2949 -0.2052 -0.5277
  500MOL0     H68957  11.649   3.111   8.342  0.8737 -0.2398  1.4505
  500MOL0     H68958  12.074   3.127   8.222  0.5147  1.7816 -1.3549
  500MOL0     H68959  12.310   3.297   8.326 -0.0685  1.0786  1.5868
  500MOL0     H68960  12.277   3.122   8.300 -1.1498  0.8130 -0.4911
  500MOL0     H68961  12.354   3.180   8.450 -0.9991  1.0172  1.8104
  500MOL0     H68962  12.263   3.117   8.929  0.1267  0.5551 -2.4425
  500MOL0     H68963  12.389   3.174   9.139  0.1406 -1.8536 -1.5111
  500MOL0     H68964  12.626   3.445   9.084  2.4744 -1.6809  0.2495
  500MOL0     H68965  12.612   3.552   9.223  0.2709  0.5991 -1.7697
  500MOL0     H68966  12.666   3.333   9.371 -0.5475  1.4041  0.0696
  500MOL0     H68967  12.684   3.262   9.208 -2.7615  0.4621  1.3715
  500MOL0     H68968  12.841   3.474   9.366 -0.8739  1.2190 -0.8457
  500MOL0     H68969  12.847   3.477   9.188  1.7114 -3.4151 -1.8478
  500MOL0     H68970  13.040   3.326   9.283 -0.8012  2.8456 -0.3348
  500MOL0     H68971  12.911   3.244   9.186  0.1542  1.0527 -1.5199
  500MOL0     H68972  12.855   3.122   9.380  0.9154 -0.6277 -1.3785
  500MOL0     H68973  13.028   3.137   9.397  1.8288  3.3223  1.5318
  500MOL0     H68974  12.925   3.181   9.621  5.1645 -0.6440 -0.2166
  500MOL0     H68975  12.805   3.285   9.550 -0.4390  1.2996  0.5488
  500MOL0     H68976  13.050   3.403   9.491 -0.1942 -1.6165 -0.7592
  500MOL0     H68977  13.103   3.283   9.618  0.8943  0.5132 -0.9216
  500MOL0     H68978  13.053   3.461   9.762 -0.0463  0.1846 -0.7678
  500MOL0     H68979  12.891   3.393   9.734  0.4615 -2.8747 -1.2256
  500MOL0     H68980  12.355   3.591   9.042 -2.2015 -0.0679  0.9672
  500MOL0     H68981  12.230   3.532   8.832 -1.4557 -0.7080  0.3627
  500MOL0     H68982  11.904   3.357   8.635 -0.6575  0.6774  0.5562
  500MOL0     H68983  11.743   3.294   8.465 -0.8477 -2.9678 -1.3349
  500MOL0     H68984  11.134   3.690   8.500 -1.3310 -0.7972 -0.3652
  500MOL0     H68985  11.323   3.607   8.631  0.5167 -0.7738  1.3174
  500MOL0     H68986  11.500   3.119   8.672  2.4977 -1.8794 -0.6732
  500MOL0     H68987  11.686   2.983   8.747 -0.2291 -2.5257  2.6966
  500MOL0     H68988  12.024   3.060   8.928 -0.5017  0.7853 -2.1460
  500MOL0     H68989  11.916   3.203   8.937  0.2893  1.1360  0.3314
  500MOL0     H68990  11.893   3.185   9.180 -0.0010  0.2835 -0.9276
  500MOL0     H68991  12.058   3.174   9.138  0.5037 -2.6910 -1.2166
  500MOL0     H68992  11.928   3.020   9.317 -0.9882 -1.7258 -0.3227
  500MOL0     H68993  11.887   2.919   9.186  2.8980 -2.8246 -0.1789
  500MOL0     H68994  12.088   2.889   9.341 -2.5650  2.2924 -0.3375
  500MOL0     H68995  12.183   2.984   9.227  0.8845 -0.6997  0.4503
  500MOL0     H68996  12.158   2.631   9.005  0.9222 -0.0047 -0.1661
  500MOL0     H68997  11.691   3.169   9.122  2.7263  1.5774 -0.2587
  500MOL0     H68998  11.512   3.331   9.175  3.1568 -1.4471 -3.9728
  500MOL0     H68999  11.407   3.409   9.054  0.5482  1.6567  0.3283
  500MOL0     H69000  11.358   3.256   9.109 -0.6143 -0.5991 -3.4945
  501MOL0     O69001   8.171   2.342   4.999  0.7749 -1.0416 -0.0093
  501MOL0     C69002   8.200   2.236   5.059  0.3000  0.7816  0.1412
  501MOL0     O69003   8.331   2.182   5.071 -0.5226  0.0044 -0.1709
  501MOL0     C69004   8.432   2.251   5.014  0.5993  0.3415  0.7154
  501MOL0     C69005   8.508   2.183   4.910  0.1738 -0.7387 -0.0168
  501MOL0     C69006   8.615   2.259   4.844 -0.3592 -0.3303 -0.1452
  501MOL0     C69007   8.653   2.390   4.870  0.7635  0.1433  0.2433
  501MOL0     O69008   8.766   2.457   4.827  0.6766 -0.0535  0.1236
  501MOL0     C69009   8.855   2.411   4.723 -0.3453  0.5724  0.1745
  501MOL0     C69010   8.998   2.432   4.764 -0.6127 -0.5504  0.7607
  501MOL0     C69011   9.027   2.589   4.793  0.4219  1.1220  0.9397
  501MOL0     C69012   9.172   2.609   4.815  0.3711  0.3862 -0.7364
  501MOL0     C69013   9.213   2.763   4.819  0.0156  0.0056  0.1411
  501MOL0     C69014   9.365   2.777   4.847  0.3445  0.1427 -1.1135
  501MOL0     C69015   9.408   2.916   4.815  0.6401  0.1096  0.6557
  501MOL0     C69016   9.337   3.024   4.898  0.6277 -0.8235  0.5866
  501MOL0     N69017   9.348   3.160   4.832  0.9744  0.0464  0.1823
  501MOL0     C69018   9.456   3.244   4.844  0.5612  0.0509  0.6212
  501MOL0     C69019   9.424   3.371   4.798  0.0109  0.4999 -0.9599
  501MOL0     C69020   9.527   3.486   4.780 -0.8779  0.9023 -0.2295
  501MOL0     C69021   9.457   3.615   4.805 -0.5162  0.6851 -0.0953
  501MOL0     C69022   9.551   3.723   4.872 -0.0831  0.3861 -0.1329
  501MOL0     C69023   9.634   3.807   4.777 -0.1444  0.4705 -0.1124
  501MOL0     O69024   9.544   3.868   4.678  0.2648 -0.1518 -0.0826
  501MOL0     C69025   9.469   3.979   4.704  0.5149 -1.2493 -1.0828
  501MOL0     C69026   9.445   4.056   4.821 -0.0504 -0.0687 -0.4047
  501MOL0     C69027   9.363   4.170   4.827 -0.1440  0.1960  0.7141
  501MOL0     C69028   9.344   4.222   4.962  0.4849  0.1005 -1.4182
  501MOL0     C69029   9.305   4.231   4.720 -0.8319  0.0875  0.6225
  501MOL0     C69030   9.217   4.346   4.719  1.0093  0.3841  1.0764
  501MOL0     O69031   9.279   4.463   4.717 -0.3441 -0.1164 -0.3936
  501MOL0     C69032   9.196   4.578   4.713  0.0568  0.2502 -0.0200
  501MOL0     C69033   9.191   4.648   4.595  0.1771 -0.2519  0.0054
  501MOL0     C69034   9.116   4.765   4.585 -0.8677  0.1338 -0.2913
  501MOL0     C69035   9.041   4.805   4.694  0.1796  0.2495  1.0755
  501MOL0     O69036   8.951   4.906   4.676 -0.6925  0.3479  0.5031
  501MOL0     C69037   8.965   5.012   4.773  0.6039  1.3476 -0.6656
  501MOL0     C69038   8.841   5.022   4.862 -0.0458 -0.2867  0.6186
  501MOL0     C69039   8.850   5.120   4.985  0.4515  0.5985  0.9780
  501MOL0     C69040   8.877   5.260   4.940  0.1297  1.1809 -0.2335
  501MOL0     C69041   8.862   5.357   5.062 -0.5662  0.9715 -0.0385
  501MOL0     C69042   8.858   5.492   4.999 -0.6515  0.0247  0.4945
  501MOL0     C69043   8.903   5.607   5.094 -0.3754 -0.4817 -0.4146
  501MOL0     C69044   8.922   5.757   5.043  0.1350  0.7100  0.1225
  501MOL0    Cl69045   8.760   5.812   4.991  0.1003  0.3036 -0.1458
  501MOL0     C69046   9.052   4.741   4.814 -0.6254  0.1100 -0.0789
  501MOL0     C69047   9.136   4.632   4.830 -1.2635 -0.5364 -0.4483
  501MOL0     O69048   9.098   4.327   4.699  0.4051  0.3312  0.0092
  501MOL0     C69049   9.313   4.152   4.602 -0.4160  0.0052 -0.1521
  501MOL0     C69050   9.399   4.045   4.592 -0.0153 -0.8688 -0.6366
  501MOL0     N69051   9.291   3.367   4.774 -0.0201  0.3432 -0.1149
  501MOL0     N69052   9.246   3.248   4.802 -0.1255  1.0259 -0.2244
  501MOL0     C69053   8.567   2.452   4.964 -0.5855 -0.1760  0.5721
  501MOL0     C69054   8.463   2.384   5.038 -0.1924 -0.0342 -0.6320
  501MOL0     C69055   8.075   2.163   5.113 -0.7681 -0.4581 -0.1503
  501MOL0     C69056   8.098   2.054   5.195 -0.0995  0.4324 -0.5865
  501MOL0     C69057   7.984   1.979   5.242  0.2208 -0.8434  0.7047
  501MOL0     C69058   7.859   2.004   5.203  1.1874  0.5819 -0.5664
  501MOL0     O69059   7.760   1.927   5.253  0.1880  0.1048  0.3520
  501MOL0     C69060   7.633   1.932   5.201 -0.2065 -0.5557  0.8159
  501MOL0     C69061   7.542   1.815   5.229 -0.4426  1.1527 -0.8351
  501MOL0     C69062   7.412   1.817   5.147 -0.6442 -0.1108 -0.0269
  501MOL0     C69063   7.422   1.764   5.002 -0.0707 -0.8863  0.0570
  501MOL0     C69064   7.287   1.753   4.945  0.4359 -0.1425 -0.2502
  501MOL0     C69065   7.175   1.724   4.902  0.3111 -0.6325 -1.0150
  501MOL0     C69066   7.845   2.096   5.099  0.0988  0.3227 -0.4876
  501MOL0     C69067   7.952   2.173   5.051 -0.3172  0.3873  1.1908
  501MOL0     C69068   7.906   2.252   4.923  0.5722 -0.0273 -0.4910
  501MOL0     H69069   8.491   2.083   4.872 -2.8839 -0.0018 -0.8337
  501MOL0     H69070   8.674   2.200   4.776  2.8784  0.7945  1.4933
  501MOL0     H69071   8.834   2.475   4.637 -0.7844 -0.8555 -0.8177
  501MOL0     H69072   8.840   2.306   4.697 -0.6340  0.4301  0.8792
  501MOL0     H69073   9.021   2.377   4.856  0.2635  0.0788  0.9310
  501MOL0     H69074   9.055   2.389   4.681 -1.5514 -0.1018 -0.1230
  501MOL0     H69075   9.002   2.644   4.702  2.5809  0.1936 -0.3007
  501MOL0     H69076   8.960   2.636   4.866 -1.2251  2.2721 -1.2135
  501MOL0     H69077   9.199   2.573   4.915 -2.2386 -0.4890 -0.2593
  501MOL0     H69078   9.214   2.558   4.728 -2.3872 -0.1305 -1.8738
  501MOL0     H69079   9.148   2.805   4.895 -2.2888  0.9105 -2.1865
  501MOL0     H69080   9.188   2.796   4.718 -0.7094  1.2595  0.7190
  501MOL0     H69081   9.390   2.748   4.950 -0.1819 -2.9037 -1.7500
  501MOL0     H69082   9.415   2.695   4.794  0.6236 -1.5332  1.4956
  501MOL0     H69083   9.388   2.926   4.708  0.6074 -1.1215  0.5385
  501MOL0     H69084   9.517   2.924   4.825  0.6002  0.2060  1.0239
  501MOL0     H69085   9.230   3.007   4.917 -0.1009  1.6979 -0.7703
  501MOL0     H69086   9.399   3.027   4.988  1.9959 -1.7907 -0.2907
  501MOL0     H69087   9.559   3.227   4.874 -0.5410 -2.0340  3.8506
  501MOL0     H69088   9.575   3.478   4.682 -0.5772 -2.7567  0.0662
  501MOL0     H69089   9.601   3.462   4.857 -3.6205 -0.4343  2.2217
  501MOL0     H69090   9.410   3.661   4.717  1.6913  1.5861 -0.8781
  501MOL0     H69091   9.385   3.592   4.884 -0.9452  3.4591  0.4174
  501MOL0     H69092   9.495   3.787   4.940 -1.7418  1.0722 -2.0442
  501MOL0     H69093   9.629   3.668   4.927 -0.0104  0.7555  0.1364
  501MOL0     H69094   9.699   3.873   4.835 -1.1011  1.0353  0.3463
  501MOL0     H69095   9.684   3.730   4.718 -1.2391 -1.6457  1.5800
  501MOL0     H69096   9.490   4.014   4.911  1.0914  1.9711  0.0524
  501MOL0     H69097   9.439   4.266   4.993  0.7789 -2.6657  2.3057
  501MOL0     H69098   9.329   4.147   5.040 -0.8148  0.2744 -1.4673
  501MOL0     H69099   9.257   4.285   4.983  0.9143 -0.7238  4.6367
  501MOL0     H69100   9.248   4.601   4.515  3.9290 -1.2708  3.0020
  501MOL0     H69101   9.097   4.825   4.496 -2.2523 -0.3322 -0.3438
  501MOL0     H69102   9.055   5.002   4.834 -0.2429 -2.0983  0.2252
  501MOL0     H69103   8.963   5.104   4.714 -3.6390  2.7881  1.3779
  501MOL0     H69104   8.763   5.050   4.792 -2.0621 -1.8020  2.1307
  501MOL0     H69105   8.808   4.923   4.895  1.6526 -2.1211 -2.6978
  501MOL0     H69106   8.930   5.082   5.049  0.2538 -2.4076 -0.3848
  501MOL0     H69107   8.754   5.136   5.034  0.7221  0.6412  1.4911
  501MOL0     H69108   8.805   5.287   4.862  0.7564 -0.0227 -1.2622
  501MOL0     H69109   8.976   5.277   4.897  1.0334  1.5889  1.8738
  501MOL0     H69110   8.774   5.335   5.124  0.0634  0.8156  0.8196
  501MOL0     H69111   8.941   5.336   5.135  1.0007  3.3747 -0.9324
  501MOL0     H69112   8.757   5.517   4.967 -1.1366  0.7596  2.4529
  501MOL0     H69113   8.927   5.483   4.914 -1.5151 -2.4384 -0.0160
  501MOL0     H69114   9.000   5.582   5.137 -0.6159  3.4682  3.0139
  501MOL0     H69115   8.844   5.616   5.186  0.9048 -0.4041  0.4213
  501MOL0     H69116   8.987   5.764   4.956  1.6382  0.8900  1.2340
  501MOL0     H69117   8.969   5.818   5.120 -0.6687  2.2280 -0.5406
  501MOL0     H69118   9.008   4.783   4.904  2.8761 -1.1932  2.4761
  501MOL0     H69119   9.146   4.582   4.925  0.2986 -1.3730 -1.0214
  501MOL0     H69120   9.276   4.192   4.508  3.8362 -1.5344 -2.7936
  501MOL0     H69121   9.421   4.000   4.496  2.5269 -2.2132  0.4808
  501MOL0     H69122   8.590   2.557   4.980 -2.0846  0.2584 -0.0152
  501MOL0     H69123   8.402   2.453   5.094  1.9908  1.9427 -0.5376
  501MOL0     H69124   8.202   2.041   5.222  0.6807  0.4061 -3.2696
  501MOL0     H69125   7.992   1.906   5.322 -1.5423  1.0072  2.7070
  501MOL0     H69126   7.582   2.026   5.225 -0.0746 -0.4407  0.6479
  501MOL0     H69127   7.634   1.937   5.092 -6.8353 -0.4553  0.3554
  501MOL0     H69128   7.526   1.820   5.337  0.0421  1.3757 -0.7695
  501MOL0     H69129   7.592   1.720   5.208 -1.4811  0.6731 -1.1735
  501MOL0     H69130   7.339   1.765   5.209  1.2767 -0.7950  1.8186
  501MOL0     H69131   7.365   1.915   5.156  0.1472  0.2050  0.8237
  501MOL0     H69132   7.477   1.670   4.987  0.0120 -0.6392 -1.3392
  501MOL0     H69133   7.473   1.840   4.943 -1.7545 -1.2600 -2.0209
  501MOL0     H69134   7.083   1.689   4.860 -0.2015  1.1635 -1.5050
  501MOL0     H69135   7.745   2.115   5.061  0.3902  1.8745 -0.5373
  501MOL0     H69136   7.799   2.236   4.906  0.4578 -0.8612  0.8439
  501MOL0     H69137   7.927   2.359   4.934 -0.5914  0.4888 -2.6725
  501MOL0     H69138   7.960   2.194   4.849  0.8239 -2.9145  1.7700
  502MOL0     O69139   0.696   8.832   9.724  0.3063  0.5521  0.9951
  502MOL0     C69140   0.590   8.808   9.784 -0.3389  0.3197  0.4217
  502MOL0     O69141   0.472   8.768   9.723 -0.1875  0.4073 -0.2858
  502MOL0     C69142   0.357   8.744   9.794 -0.5668  0.3249  0.9541
  502MOL0     C69143   0.347   8.630   9.875  0.1518  0.0911 -0.0460
  502MOL0     C69144   0.212   8.590   9.908 -0.2246  0.5297 -0.1673
  502MOL0     C69145   0.094   8.664   9.880 -0.4967  0.0877  0.1928
  502MOL0     O69146  -0.045   8.637   9.918 -0.6385 -0.5709 -0.4576
  502MOL0     C69147  -0.066   8.544  10.016 -0.4813 -0.1469 -0.3087
  502MOL0     C69148  -0.205   8.550  10.073  0.9465 -0.3630  0.5724
  502MOL0     C69149  -0.237   8.459  10.186  1.0756 -0.0567  0.3722
  502MOL0     C69150  -0.186   8.309  10.172 -0.7191 -0.7827 -0.1630
  502MOL0     C69151  -0.265   8.216  10.267  0.4399  1.1845  0.0768
  502MOL0     C69152  -0.203   8.071  10.279 -0.5909  0.2514 -0.0315
  502MOL0     C69153  -0.045   8.063  10.327  0.3419  0.3143 -0.6192
  502MOL0     C69154   0.007   7.924  10.381 -0.0750  0.2824  0.3623
  502MOL0     N69155   0.015   7.815  10.279  0.5758  0.2827  0.0439
  502MOL0     C69156  -0.070   7.703  10.270 -0.4244 -0.5750 -0.1612
  502MOL0     C69157  -0.017   7.634  10.168  1.6273 -0.5101 -0.1897
  502MOL0     C69158  -0.078   7.507  10.132  0.8375  0.8670  0.7898
  502MOL0     C69159  -0.150   7.519   9.994 -0.1613  0.2671 -0.2522
  502MOL0     C69160  -0.224   7.388   9.958 -0.4489 -0.5238 -0.8822
  502MOL0     C69161  -0.330   7.393   9.845  0.5538 -0.4925  0.2872
  502MOL0     O69162  -0.438   7.485   9.881  0.8631 -0.2127 -0.1636
  502MOL0     C69163  -0.541   7.430   9.967  0.0694 -0.0769  0.3235
  502MOL0     C69164  -0.654   7.516  10.007 -0.5926  0.1585 -0.4900
  502MOL0     C69165  -0.762   7.471  10.087 -0.5415  0.9985 -1.0670
  502MOL0     C69166  -0.858   7.580  10.123  0.3321  0.4295 -0.7472
  502MOL0     C69167  -0.759   7.338  10.129  0.5976 -0.1730 -0.7878
  502MOL0     C69168  -0.868   7.279  10.214 -0.6978  0.4987  0.4429
  502MOL0     O69169  -0.840   7.193  10.311 -0.0553 -0.3048  0.5595
  502MOL0     C69170  -0.945   7.162  10.395 -0.4291 -0.9465  0.4974
  502MOL0     C69171  -1.008   7.031  10.403 -0.7858  0.1166  0.1370
  502MOL0     C69172  -1.095   6.996  10.498 -0.0096  1.3142  0.2017
  502MOL0     C69173  -1.135   7.102  10.586 -0.1865  0.2155 -0.2854
  502MOL0     O69174  -1.244   7.073  10.669 -0.2746  0.2897  0.6714
  502MOL0     C69175  -1.347   7.168  10.665  0.2397  0.7306 -0.0022
  502MOL0     C69176  -1.443   7.141  10.552  0.7849  0.2726 -0.2054
  502MOL0     C69177  -1.488   6.993  10.546 -0.3435  0.5152  0.1596
  502MOL0     C69178  -1.585   6.943  10.643 -0.1648 -0.2839 -0.3179
  502MOL0     C69179  -1.626   6.799  10.607  0.8834  0.5314 -0.2597
  502MOL0     C69180  -1.525   6.696  10.564  0.9101 -0.3091 -0.4994
  502MOL0     C69181  -1.605   6.567  10.551  0.4860  0.7142 -0.7840
  502MOL0     C69182  -1.505   6.449  10.513 -0.5764 -0.2264 -0.9774
  502MOL0    Cl69183  -1.415   6.410  10.652 -0.0252 -0.2412  0.3214
  502MOL0     C69184  -1.074   7.222  10.591 -0.6038  0.3099  0.2451
  502MOL0     C69185  -0.981   7.248  10.490 -0.3500  0.4935 -0.1584
  502MOL0     O69186  -0.981   7.308  10.182  0.0931 -0.3243 -0.0723
  502MOL0     C69187  -0.652   7.258  10.099 -0.2701  0.0893  0.0472
  502MOL0     C69188  -0.550   7.295  10.007 -0.1551  0.7991  0.5516
  502MOL0     N69189   0.064   7.716  10.099 -1.1697 -1.2804 -0.1053
  502MOL0     N69190   0.096   7.827  10.170  0.6556  0.3888 -0.1671
  502MOL0     C69191   0.120   8.768   9.797  0.1855  0.1478  0.1917
  502MOL0     C69192   0.246   8.812   9.758  0.6063  0.1404  0.2395
  502MOL0     C69193   0.603   8.815   9.933  0.7575  0.2457  0.4285
  502MOL0     C69194   0.665   8.714  10.010  0.5986  0.1216 -0.8876
  502MOL0     C69195   0.654   8.730  10.151 -0.6905 -0.4473  0.3793
  502MOL0     C69196   0.594   8.828  10.220 -0.0152 -0.4693  1.0187
  502MOL0     O69197   0.603   8.845  10.352  0.6902 -0.4519 -0.4516
  502MOL0     C69198   0.509   8.922  10.429  0.8694 -0.3189  0.1296
  502MOL0     C69199   0.584   8.959  10.559  0.3663 -0.3851  0.6738
  502MOL0     C69200   0.704   9.054  10.542 -0.6523 -0.5451  0.8354
  502MOL0     C69201   0.668   9.201  10.534  0.1632 -0.3015  0.2490
  502MOL0     C69202   0.645   9.254  10.674 -0.6219 -0.8873 -0.5236
  502MOL0     C69203   0.594   9.301  10.768  0.3692 -0.2660  0.3729
  502MOL0     C69204   0.528   8.918  10.129  0.2682 -0.8313 -0.3664
  502MOL0     C69205   0.531   8.913   9.992  0.0340  0.1606  0.4110
  502MOL0     C69206   0.473   9.032   9.903  0.0586 -0.8395 -0.7320
  502MOL0     H69207   0.430   8.562   9.893 -0.5139 -0.7222  0.0637
  502MOL0     H69208   0.206   8.506   9.977 -1.9733  1.8646  1.4194
  502MOL0     H69209   0.004   8.559  10.099 -0.2023 -1.0889 -0.3598
  502MOL0     H69210  -0.038   8.445   9.978  2.0336  1.5082 -3.2073
  502MOL0     H69211  -0.217   8.652  10.113  1.4893  1.6913 -3.9246
  502MOL0     H69212  -0.273   8.535   9.989 -0.0692 -0.9377  1.4654
  502MOL0     H69213  -0.206   8.502  10.282 -3.0983  2.1344  0.9509
  502MOL0     H69214  -0.345   8.468  10.199  1.1920  0.1724  1.1833
  502MOL0     H69215  -0.192   8.276  10.067 -2.3886 -1.0649 -0.0069
  502MOL0     H69216  -0.082   8.293  10.201 -0.6787  0.3585  0.3419
  502MOL0     H69217  -0.372   8.209  10.246  0.5157 -2.3418  0.1767
  502MOL0     H69218  -0.260   8.260  10.367  0.3015  1.7595 -0.1716
  502MOL0     H69219  -0.248   8.016  10.362 -0.0522  0.6846  0.5563
  502MOL0     H69220  -0.201   8.025  10.180  2.0930 -0.1317  0.1093
  502MOL0     H69221  -0.030   8.136  10.408 -3.4653  1.7596 -1.0137
  502MOL0     H69222   0.017   8.098  10.244 -0.0806  0.4782 -0.8710
  502MOL0     H69223   0.111   7.943  10.405  0.5856 -0.1143 -1.8891
  502MOL0     H69224  -0.053   7.902  10.470  2.5364  0.8278  2.3803
  502MOL0     H69225  -0.140   7.670  10.347 -1.7645 -0.2311 -1.1976
  502MOL0     H69226  -0.152   7.475  10.206  1.3950 -0.7588  0.6782
  502MOL0     H69227   0.003   7.435  10.125 -0.4815 -0.7439  1.3717
  502MOL0     H69228  -0.218   7.604   9.993 -1.2546 -0.5759 -1.3775
  502MOL0     H69229  -0.067   7.546   9.927  2.5761 -1.5252  2.1590
  502MOL0     H69230  -0.152   7.309   9.933 -0.7031  0.1942 -4.3907
  502MOL0     H69231  -0.285   7.360  10.044 -0.0343 -0.5845 -0.6075
  502MOL0     H69232  -0.287   7.444   9.758  2.1474  3.3665  3.0192
  502MOL0     H69233  -0.369   7.294   9.821 -2.7962  1.6026 -4.5732
  502MOL0     H69234  -0.649   7.621   9.982  0.2102  0.5132  1.0499
  502MOL0     H69235  -0.884   7.582  10.229  0.8545 -0.9769 -0.5822
  502MOL0     H69236  -0.945   7.568  10.057  0.1803  0.4036 -0.5459
  502MOL0     H69237  -0.808   7.676  10.105  1.2024  0.6460  2.2841
  502MOL0     H69238  -0.985   6.961  10.324 -2.2397 -1.3800  0.9702
  502MOL0     H69239  -1.156   6.907  10.506 -0.0629  1.2911 -0.4189
  502MOL0     H69240  -1.402   7.165  10.760 -0.6655 -1.3933 -0.5477
  502MOL0     H69241  -1.311   7.271  10.663 -0.5593  1.0262  0.2636
  502MOL0     H69242  -1.533   7.200  10.576  1.5792  0.6271  2.1954
  502MOL0     H69243  -1.396   7.181  10.462  2.6739  2.8073  1.7484
  502MOL0     H69244  -1.396   6.934  10.546 -1.2501 -1.0252  2.2496
  502MOL0     H69245  -1.539   6.987  10.450  0.3234 -1.2602 -0.1150
  502MOL0     H69246  -1.669   7.013  10.651  0.7394  1.1989 -2.6747
  502MOL0     H69247  -1.543   6.941  10.744  0.5380  3.1095 -0.4091
  502MOL0     H69248  -1.669   6.761  10.700  2.9995 -2.6906 -0.4758
  502MOL0     H69249  -1.691   6.811  10.519  1.2885 -0.7519 -0.7481
  502MOL0     H69250  -1.452   6.683  10.644  0.3236 -0.1648  0.0668
  502MOL0     H69251  -1.481   6.710  10.465  0.2024 -1.3584 -0.9900
  502MOL0     H69252  -1.670   6.576  10.463 -1.4755  0.1371  0.5254
  502MOL0     H69253  -1.671   6.534  10.632 -0.5122  0.7301 -1.5636
  502MOL0     H69254  -1.439   6.478  10.431  0.8561  2.8077  1.0670
  502MOL0     H69255  -1.564   6.359  10.491 -2.9744  0.7352  1.0002
  502MOL0     H69256  -1.091   7.299  10.665 -0.4188  1.5324 -0.9395
  502MOL0     H69257  -0.938   7.347  10.499 -3.4188  2.3827 -3.4763
  502MOL0     H69258  -0.647   7.157  10.138  2.0445  0.3353  0.5290
  502MOL0     H69259  -0.471   7.222   9.994 -1.6813 -1.0043  0.9836
  502MOL0     H69260   0.031   8.818   9.760  1.5965  3.2934  0.7500
  502MOL0     H69261   0.252   8.878   9.672 -0.5986  1.2999  1.0019
  502MOL0     H69262   0.710   8.626   9.967  1.4910  0.5110 -0.7855
  502MOL0     H69263   0.694   8.663  10.226 -3.8633 -2.4090  0.5183
  502MOL0     H69264   0.489   9.022  10.390  2.0573  1.0873  2.8101
  502MOL0     H69265   0.421   8.864  10.459  1.4400 -0.1445  2.2786
  502MOL0     H69266   0.618   8.867  10.609 -0.4457 -0.2307  1.5351
  502MOL0     H69267   0.509   9.008  10.621 -1.0524 -0.9934 -0.5036
  502MOL0     H69268   0.776   9.041  10.623 -0.9683  1.7701  1.5706
  502MOL0     H69269   0.743   9.025  10.444 -1.7466  2.3071 -0.5758
  502MOL0     H69270   0.577   9.221  10.476 -0.0158  1.8146  1.1500
  502MOL0     H69271   0.746   9.263  10.489 -2.4935  3.8799  0.8009
  502MOL0     H69272   0.566   9.334  10.866  3.2236  5.3269 -0.2979
  502MOL0     H69273   0.474   9.004  10.168 -2.9139 -0.7880 -4.2057
  502MOL0     H69274   0.539   9.061   9.821 -1.4870  2.2152 -1.0439
  502MOL0     H69275   0.372   9.021   9.861  0.2455  2.2947 -2.2916
  502MOL0     H69276   0.489   9.114   9.973  0.6798 -0.0705 -1.7542
  503MOL0     O69277   7.097   9.020   4.629  0.1696  0.5256 -0.0944
  503MOL0     C69278   7.191   9.085   4.588 -0.3065  0.4354 -0.6668
  503MOL0     O69279   7.176   9.195   4.500  0.2614  0.2603 -1.1930
  503MOL0     C69280   7.057   9.210   4.442 -0.6584  0.9570  0.5768
  503MOL0     C69281   7.035   9.170   4.310 -0.2829  0.9542  0.4111
  503MOL0     C69282   6.912   9.188   4.253 -0.3252 -0.2223 -0.1663
  503MOL0     C69283   6.817   9.260   4.322 -0.6591  0.0508 -0.3824
  503MOL0     O69284   6.702   9.311   4.276  0.4119 -0.2820  0.0159
  503MOL0     C69285   6.652   9.273   4.151 -0.1797 -0.2850 -0.2621
  503MOL0     C69286   6.522   9.345   4.122 -0.2237 -0.0095 -0.1794
  503MOL0     C69287   6.400   9.283   4.188  0.1529 -0.9475  0.1063
  503MOL0     C69288   6.366   9.154   4.122 -0.4137  0.5015  0.3834
  503MOL0     C69289   6.243   9.083   4.176  0.4407  0.1658  0.5346
  503MOL0     C69290   6.172   8.992   4.067 -0.1397  0.4228  0.7916
  503MOL0     C69291   6.094   8.869   4.106 -0.9506 -0.3097  0.5689
  503MOL0     C69292   6.020   8.862   4.240 -0.2277  0.1818 -0.3890
  503MOL0     N69293   5.870   8.859   4.227  0.4125 -0.5092  0.3361
  503MOL0     C69294   5.804   8.748   4.273 -0.1372  0.2225 -0.3645
  503MOL0     C69295   5.680   8.768   4.222 -0.1701 -0.9868 -0.4601
  503MOL0     C69296   5.573   8.701   4.303 -0.0913 -1.1710 -0.3056
  503MOL0     C69297   5.503   8.598   4.210 -0.4636 -0.3006 -0.3810
  503MOL0     C69298   5.589   8.471   4.165  0.7044 -0.8547  0.6974
  503MOL0     C69299   5.502   8.376   4.078  0.1911 -1.0316 -0.4449
  503MOL0     O69300   5.468   8.456   3.964 -0.3966 -0.2272  0.0423
  503MOL0     C69301   5.354   8.415   3.888 -0.5131 -0.9337 -0.1567
  503MOL0     C69302   5.270   8.300   3.906  0.1396 -0.2742  0.6383
  503MOL0     C69303   5.153   8.288   3.824  0.0000 -0.1444  0.0605
  503MOL0     C69304   5.069   8.162   3.853 -0.0265 -0.6874 -0.1276
  503MOL0     C69305   5.129   8.390   3.724  1.1856  0.3370  0.3451
  503MOL0     C69306   5.012   8.399   3.640 -0.4534 -0.2990  1.3628
  503MOL0     O69307   5.034   8.441   3.509  0.0886  0.2869  0.5373
  503MOL0     C69308   4.928   8.500   3.438 -0.4963  0.3792 -0.7013
  503MOL0     C69309   4.800   8.447   3.431 -0.1128  0.3665 -0.9062
  503MOL0     C69310   4.702   8.496   3.350  0.6849 -0.6343  0.5466
  503MOL0     C69311   4.724   8.619   3.279 -0.4926  0.0462  0.2890
  503MOL0     O69312   4.644   8.676   3.180 -0.1764  0.6391  0.5637
  503MOL0     C69313   4.694   8.690   3.043  0.2585  0.1277 -0.6850
  503MOL0     C69314   4.574   8.716   2.953  0.4401  0.3575  0.0843
  503MOL0     C69315   4.473   8.603   2.938  0.1867 -0.1627 -0.2966
  503MOL0     C69316   4.333   8.651   2.888 -0.1663 -0.2320  0.8758
  503MOL0     C69317   4.336   8.702   2.740 -0.0462 -0.2220  0.4725
  503MOL0     C69318   4.199   8.682   2.673  0.2345  0.7071  0.4321
  503MOL0     C69319   4.092   8.759   2.731 -0.4414 -0.1309  0.0136
  503MOL0     C69320   3.959   8.722   2.665  0.4122  0.3298  0.0639
  503MOL0    Cl69321   3.822   8.787   2.762 -0.3262  0.2681 -0.3319
  503MOL0     C69322   4.853   8.679   3.296 -0.0092 -0.4975  0.1830
  503MOL0     C69323   4.953   8.615   3.374 -0.3407  0.1457 -0.3009
  503MOL0     O69324   4.902   8.361   3.686 -0.0774 -0.2314 -0.0551
  503MOL0     C69325   5.220   8.495   3.707  0.6343  0.2404 -0.4240
  503MOL0     C69326   5.324   8.503   3.788 -0.5183 -0.1698  0.3477
  503MOL0     N69327   5.677   8.878   4.141  0.1136 -0.0772 -0.4199
  503MOL0     N69328   5.793   8.936   4.147 -1.1352 -0.9597  0.6644
  503MOL0     C69329   6.843   9.294   4.457  1.1299 -0.3685 -0.0643
  503MOL0     C69330   6.964   9.273   4.521  0.1675 -0.1643  0.0434
  503MOL0     C69331   7.321   9.043   4.637 -0.8279 -0.7384  0.4347
  503MOL0     C69332   7.340   8.903   4.648  0.4100  0.6100  0.8332
  503MOL0     C69333   7.456   8.840   4.680  0.2770  0.1192 -0.0394
  503MOL0     C69334   7.566   8.917   4.708 -0.6449  0.1750  0.1597
  503MOL0     O69335   7.693   8.874   4.756 -0.5868 -1.6034 -0.7560
  503MOL0     C69336   7.722   8.732   4.774  0.4820 -0.7724 -0.0828
  503MOL0     C69337   7.758   8.660   4.651  0.3845  0.0225 -0.3374
  503MOL0     C69338   7.793   8.507   4.669  0.2175  0.4502 -0.0802
  503MOL0     C69339   7.659   8.449   4.702  0.3423  0.3224  0.7795
  503MOL0     C69340   7.667   8.373   4.833  0.1145  0.1671 -0.2515
  503MOL0     C69341   7.670   8.314   4.941  0.1372  0.8663  0.1809
  503MOL0     C69342   7.561   9.052   4.690  1.0867  0.6004  0.1330
  503MOL0     C69343   7.436   9.119   4.658  0.3848 -0.5907  0.2053
  503MOL0     C69344   7.434   9.259   4.635  0.6997 -0.5310  0.7972
  503MOL0     H69345   7.121   9.131   4.256  0.3683  2.5074  0.2730
  503MOL0     H69346   6.895   9.156   4.151 -2.1751 -0.1739  0.0917
  503MOL0     H69347   6.632   9.166   4.137  0.8059 -0.3249 -1.4661
  503MOL0     H69348   6.725   9.298   4.075  0.0565  1.5215  0.5052
  503MOL0     H69349   6.538   9.449   4.151  0.8018 -0.7538  2.0972
  503MOL0     H69350   6.506   9.331   4.014  0.7303 -1.3242 -0.1711
  503MOL0     H69351   6.414   9.280   4.297  0.4969 -1.1381  0.0605
  503MOL0     H69352   6.318   9.352   4.171  0.6397 -0.5267 -0.5646
  503MOL0     H69353   6.351   9.169   4.015 -0.4087 -0.6287  0.2124
  503MOL0     H69354   6.445   9.077   4.123 -2.2869 -1.6299 -2.1139
  503MOL0     H69355   6.178   9.162   4.214  1.3734  0.3936  1.6800
  503MOL0     H69356   6.265   9.012   4.256  0.3433 -2.2014 -1.3993
  503MOL0     H69357   6.114   9.056   4.000  1.0225 -0.0850 -0.7401
  503MOL0     H69358   6.258   8.958   4.007 -1.0884  0.8502 -0.8645
  503MOL0     H69359   6.162   8.783   4.105  2.9109  2.5004 -0.8376
  503MOL0     H69360   6.020   8.856   4.026 -0.9499  1.3036  0.2813
  503MOL0     H69361   6.058   8.775   4.293  0.0886  0.7684  0.3738
  503MOL0     H69362   6.045   8.952   4.297  2.0853  0.6726 -2.0562
  503MOL0     H69363   5.830   8.671   4.344 -1.6939 -1.5142 -1.5660
  503MOL0     H69364   5.500   8.777   4.332  1.1601  0.1460 -0.5311
  503MOL0     H69365   5.622   8.667   4.394  0.9254 -0.6791 -0.6564
  503MOL0     H69366   5.418   8.556   4.266 -3.2651  4.2417 -0.7034
  503MOL0     H69367   5.466   8.651   4.122 -4.0421 -1.8222 -0.0003
  503MOL0     H69368   5.670   8.500   4.098  0.3845 -0.7510  0.3496
  503MOL0     H69369   5.640   8.412   4.242  3.2474 -2.1683 -1.7942
  503MOL0     H69370   5.555   8.283   4.052  0.7932 -1.0576  0.8107
  503MOL0     H69371   5.410   8.353   4.133 -0.5028  0.7880 -0.7786
  503MOL0     H69372   5.279   8.215   3.974  2.2299 -0.4457  0.2085
  503MOL0     H69373   5.025   8.154   3.953 -0.9068 -0.7128 -0.5119
  503MOL0     H69374   5.120   8.066   3.843 -0.7020 -0.9503 -1.2417
  503MOL0     H69375   4.994   8.151   3.774 -0.3651 -1.4472  0.2960
  503MOL0     H69376   4.775   8.354   3.481 -0.9658 -1.2321 -3.9918
  503MOL0     H69377   4.615   8.433   3.336  0.2870  0.4523 -2.6618
  503MOL0     H69378   4.765   8.774   3.040 -0.1530  0.5322  0.3897
  503MOL0     H69379   4.747   8.598   3.018  3.6284  0.8131  2.8869
  503MOL0     H69380   4.521   8.802   2.994 -3.6618 -0.6995 -2.4444
  503MOL0     H69381   4.605   8.748   2.853  1.1393 -3.4489 -1.0750
  503MOL0     H69382   4.460   8.551   3.034  2.2062  0.5130  0.3884
  503MOL0     H69383   4.507   8.525   2.869  1.5129  0.3397 -0.2389
  503MOL0     H69384   4.294   8.727   2.957  0.8844  0.4245  0.7760
  503MOL0     H69385   4.268   8.564   2.899 -0.1606 -0.3469  0.0318
  503MOL0     H69386   4.363   8.807   2.728 -0.0460 -0.1166  1.3698
  503MOL0     H69387   4.402   8.637   2.681 -1.4216 -0.2044 -1.1911
  503MOL0     H69388   4.172   8.576   2.670  0.6999  0.5849  0.5263
  503MOL0     H69389   4.200   8.711   2.567 -2.0829 -0.7106 -0.0465
  503MOL0     H69390   4.108   8.867   2.724  1.8285 -0.4927 -1.4534
  503MOL0     H69391   4.080   8.730   2.835 -0.5299 -0.8644 -0.1962
  503MOL0     H69392   3.950   8.614   2.648  1.0111  0.4475 -1.0576
  503MOL0     H69393   3.953   8.760   2.563  0.1888 -2.5850 -1.1180
  503MOL0     H69394   4.874   8.775   3.250 -5.1048  1.8327  1.9559
  503MOL0     H69395   5.048   8.664   3.394 -0.8863  0.6315  1.2254
  503MOL0     H69396   5.199   8.580   3.643  2.5501  1.1886  0.1202
  503MOL0     H69397   5.395   8.584   3.773 -0.6186  0.0049  0.8030
  503MOL0     H69398   6.765   9.350   4.507  0.4601 -1.8457  0.5747
  503MOL0     H69399   6.972   9.294   4.627  1.5839  0.1228 -0.1058
  503MOL0     H69400   7.262   8.831   4.626  1.2205  0.8327 -4.1241
  503MOL0     H69401   7.456   8.736   4.708  2.9178 -0.0632 -0.5069
  503MOL0     H69402   7.807   8.728   4.843  0.3508 -1.7262  0.0313
  503MOL0     H69403   7.640   8.686   4.830  1.1852 -0.7128  1.0329
  503MOL0     H69404   7.854   8.692   4.608  0.7165 -3.0017 -2.1832
  503MOL0     H69405   7.678   8.679   4.578 -0.0847  1.8368  0.6026
  503MOL0     H69406   7.827   8.476   4.570 -0.9525  3.6535 -1.6524
  503MOL0     H69407   7.869   8.491   4.746  0.7736  1.4280 -0.4057
  503MOL0     H69408   7.636   8.379   4.620 -0.7662 -0.9528  2.1214
  503MOL0     H69409   7.576   8.520   4.706  0.0219 -0.0705  1.1900
  503MOL0     H69410   7.692   8.247   5.022 -0.8221 -1.7111 -1.5607
  503MOL0     H69411   7.658   9.099   4.697  1.9959 -0.9832 -1.0924
  503MOL0     H69412   7.448   9.279   4.529  0.4284 -4.0422 -0.0201
  503MOL0     H69413   7.345   9.311   4.672 -0.5791  0.2176 -2.9547
  503MOL0     H69414   7.519   9.296   4.694  0.5915 -0.6626  1.0385
  504MOL0     O69415   8.192   7.323   3.840 -0.6091  0.1234 -0.0537
  504MOL0     C69416   8.155   7.205   3.819 -0.1673  0.3097 -0.3224
  504MOL0     O69417   8.023   7.161   3.829 -1.1958 -0.7870  0.0282
  504MOL0     C69418   7.926   7.255   3.832  0.6879 -0.5360  0.5385
  504MOL0     C69419   7.831   7.244   3.734 -0.0799  0.8425  0.5140
  504MOL0     C69420   7.716   7.329   3.726 -1.0160 -0.5240  0.0415
  504MOL0     C69421   7.692   7.423   3.831  0.2624  0.2873  0.2739
  504MOL0     O69422   7.570   7.497   3.816 -1.0241 -0.1564 -0.0202
  504MOL0     C69423   7.590   7.642   3.802  0.7987  0.3250 -0.1628
  504MOL0     C69424   7.467   7.693   3.876  0.2335  0.7595  0.1699
  504MOL0     C69425   7.424   7.830   3.825  1.0955 -0.6183  0.4292
  504MOL0     C69426   7.417   7.936   3.944  0.5537 -0.2889  0.9177
  504MOL0     C69427   7.377   8.076   3.900 -0.1481  0.5070  0.5862
  504MOL0     C69428   7.314   8.158   4.012  1.2103 -0.3730  0.1843
  504MOL0     C69429   7.289   8.303   3.967  0.2615  0.2194 -0.1844
  504MOL0     C69430   7.412   8.377   3.902 -0.4826  0.1174  0.2812
  504MOL0     N69431   7.406   8.530   3.906 -0.4894  0.4658  0.4791
  504MOL0     C69432   7.305   8.605   3.862  0.5612 -0.3586 -0.2987
  504MOL0     C69433   7.357   8.729   3.857 -0.8812 -0.3033  0.1018
  504MOL0     C69434   7.298   8.865   3.804  0.4226  0.6286  0.7036
  504MOL0     C69435   7.372   8.897   3.676 -0.1937  0.0812 -0.5019
  504MOL0     C69436   7.301   9.009   3.591 -0.0777  0.1585 -0.4659
  504MOL0     C69437   7.414   9.074   3.505 -0.8092  0.1279  0.0612
  504MOL0     O69438   7.493   9.161   3.584  0.2992 -0.2349 -0.2176
  504MOL0     C69439   7.532   9.277   3.529 -1.2698 -0.0160  0.2405
  504MOL0     C69440   7.596   9.371   3.618 -0.3767  0.4436 -0.3370
  504MOL0     C69441   7.664   9.484   3.572  0.2861 -0.4245  0.2107
  504MOL0     C69442   7.714   9.586   3.672  0.4430 -0.4148 -0.5196
  504MOL0     C69443   7.654   9.515   3.432  0.7516 -0.3210 -0.5989
  504MOL0     C69444   7.715   9.636   3.367  0.1536 -0.5671  0.5980
  504MOL0     O69445   7.839   9.675   3.424 -0.4135 -0.3209  0.0292
  504MOL0     C69446   7.899   9.782   3.361 -0.7434 -0.3054 -0.4249
  504MOL0     C69447   7.900   9.903   3.426 -0.6237  0.0051 -0.3795
  504MOL0     C69448   7.952  10.016   3.365  0.8058  0.4136  0.7289
  504MOL0     C69449   7.987  10.009   3.230 -0.1550 -0.0593  0.1896
  504MOL0     O69450   8.023  10.119   3.156  0.2795 -0.0058  0.4099
  504MOL0     C69451   8.022  10.249   3.216  0.5053  0.4375  0.3763
  504MOL0     C69452   8.095  10.352   3.138 -0.1551 -0.2666 -0.9311
  504MOL0     C69453   8.243  10.328   3.100  0.0454  0.1995 -0.2895
  504MOL0     C69454   8.327  10.408   3.198  0.7331 -0.0952  0.2090
  504MOL0     C69455   8.475  10.367   3.182  0.2639 -0.3489 -1.0077
  504MOL0     C69456   8.566  10.466   3.264  0.5977  0.4241 -0.0191
  504MOL0     C69457   8.711  10.421   3.264  0.5397 -0.3724  0.2735
  504MOL0     C69458   8.797  10.484   3.375  0.0476 -0.3601 -0.2892
  504MOL0    Cl69459   8.746  10.656   3.399 -0.4573  0.0239 -0.4150
  504MOL0     C69460   7.994   9.889   3.166  0.2516 -0.1126  0.5201
  504MOL0     C69461   7.950   9.770   3.226  0.6633 -0.0407 -0.3660
  504MOL0     O69462   7.659   9.693   3.272 -0.0573  1.1312  0.2027
  504MOL0     C69463   7.599   9.414   3.350 -0.3446  0.0935 -0.3215
  504MOL0     C69464   7.546   9.295   3.390 -0.7607  0.0737  0.0427
  504MOL0     N69465   7.496   8.722   3.884  0.4155  0.8376 -1.0510
  504MOL0     N69466   7.512   8.605   3.944 -0.1240  0.0202  0.6845
  504MOL0     C69467   7.790   7.438   3.931  0.0912 -0.9727 -0.6568
  504MOL0     C69468   7.905   7.354   3.936  0.6645  0.2138  0.2934
  504MOL0     C69469   8.259   7.098   3.805  0.8439  0.2811 -0.7291
  504MOL0     C69470   8.394   7.128   3.826  0.2209 -0.3809  1.4476
  504MOL0     C69471   8.501   7.038   3.801  0.9102 -0.6469  0.1396
  504MOL0     C69472   8.478   6.905   3.757 -0.5227  0.0342 -0.5504
  504MOL0     O69473   8.593   6.836   3.723 -0.7069  0.1984 -0.1272
  504MOL0     C69474   8.596   6.712   3.653 -0.1986  0.5732  0.4500
  504MOL0     C69475   8.725   6.683   3.576 -0.7244  0.4909 -0.3075
  504MOL0     C69476   8.838   6.665   3.671  0.2591 -0.2206  0.3726
  504MOL0     C69477   8.965   6.699   3.610 -0.2154  0.7610  0.3023
  504MOL0     C69478   8.994   6.828   3.545  0.7553 -0.4110  0.3279
  504MOL0     C69479   9.004   6.935   3.488 -0.7088 -0.1625 -0.5996
  504MOL0     C69480   8.346   6.872   3.724 -0.1351 -0.5264  0.5104
  504MOL0     C69481   8.237   6.961   3.749  0.0687 -0.8388 -1.1857
  504MOL0     C69482   8.105   6.915   3.718 -0.4439  0.5463  0.3151
  504MOL0     H69483   7.835   7.168   3.657 -0.7087  3.2447 -2.0479
  504MOL0     H69484   7.638   7.320   3.652 -4.2795 -0.9947  3.2473
  504MOL0     H69485   7.588   7.677   3.699  1.3057  1.2089  0.1134
  504MOL0     H69486   7.683   7.674   3.849  1.0206  0.0007 -0.3762
  504MOL0     H69487   7.377   7.632   3.873 -1.3634  2.8732  1.6581
  504MOL0     H69488   7.493   7.690   3.982  0.9632 -1.9107 -0.0264
  504MOL0     H69489   7.485   7.859   3.739  0.7629 -4.9047 -1.4738
  504MOL0     H69490   7.318   7.819   3.799  1.1243 -0.5002  0.2656
  504MOL0     H69491   7.336   7.906   4.011 -0.8841  0.4034 -0.4330
  504MOL0     H69492   7.512   7.938   3.997  1.0716 -3.2841  0.3061
  504MOL0     H69493   7.311   8.070   3.813 -0.9827 -3.1891  1.3128
  504MOL0     H69494   7.475   8.118   3.879 -0.3490  0.9262  0.4688
  504MOL0     H69495   7.217   8.115   4.039  1.5485 -1.5915 -0.4815
  504MOL0     H69496   7.376   8.157   4.102  2.1721  1.7214 -0.4118
  504MOL0     H69497   7.266   8.364   4.055  1.5435 -1.2028  1.1914
  504MOL0     H69498   7.211   8.287   3.892  3.4226 -1.7371 -3.3572
  504MOL0     H69499   7.500   8.327   3.943 -0.4514 -0.5666 -0.5787
  504MOL0     H69500   7.420   8.352   3.795  1.4628 -1.4636  0.7424
  504MOL0     H69501   7.206   8.567   3.840 -1.0390  3.0994  0.3370
  504MOL0     H69502   7.306   8.947   3.876 -2.9164  2.2440 -0.5262
  504MOL0     H69503   7.192   8.852   3.780  0.7853  0.0472 -0.6968
  504MOL0     H69504   7.456   8.951   3.722 -1.1124  0.9329  0.2408
  504MOL0     H69505   7.404   8.810   3.619  0.2147 -1.1435  1.4894
  504MOL0     H69506   7.231   8.953   3.529 -0.7147  1.8566 -1.3618
  504MOL0     H69507   7.261   9.085   3.658  3.6348  0.6627  1.4308
  504MOL0     H69508   7.468   8.991   3.458  1.4948 -0.4058  3.2892
  504MOL0     H69509   7.362   9.138   3.434  0.2132  2.8122  1.5798
  504MOL0     H69510   7.592   9.327   3.717 -3.0510  3.7299  1.1975
  504MOL0     H69511   7.683   9.550   3.771  0.2142  0.1154 -0.3956
  504MOL0     H69512   7.662   9.681   3.663 -1.2819 -1.0073  1.9496
  504MOL0     H69513   7.822   9.602   3.664  0.2265  1.3123 -0.3605
  504MOL0     H69514   7.866   9.893   3.529 -2.0613 -1.3642 -0.9284
  504MOL0     H69515   7.956  10.105   3.427  1.1851  1.2290 -0.4240
  504MOL0     H69516   7.918  10.280   3.228 -0.6853 -1.9505 -2.4358
  504MOL0     H69517   8.073  10.254   3.312  0.4001  0.7059  0.4193
  504MOL0     H69518   8.038  10.368   3.046 -1.0819  1.2358 -0.1344
  504MOL0     H69519   8.087  10.440   3.203  0.7484 -1.1026  0.3520
  504MOL0     H69520   8.265  10.367   3.001 -2.0078  3.5920  0.4123
  504MOL0     H69521   8.264  10.221   3.108 -3.9923 -0.6188  2.6514
  504MOL0     H69522   8.281  10.382   3.294 -1.6928  0.6283 -0.6966
  504MOL0     H69523   8.320  10.517   3.192 -0.0997 -0.0299  1.7138
  504MOL0     H69524   8.494  10.265   3.218 -1.5701  0.7071  3.7147
  504MOL0     H69525   8.515  10.392   3.084  4.1372  1.7769  0.8788
  504MOL0     H69526   8.527  10.467   3.366 -0.8051 -0.4492 -0.5207
  504MOL0     H69527   8.556  10.565   3.218  0.6888  0.5572  0.2471
  504MOL0     H69528   8.768  10.442   3.173 -0.2204  0.0715 -0.1104
  504MOL0     H69529   8.714  10.312   3.266  2.7306 -0.3616 -0.4426
  504MOL0     H69530   8.900  10.476   3.338  0.3904 -0.4021  0.6514
  504MOL0     H69531   8.785  10.416   3.459 -2.9863  2.0370  1.3915
  504MOL0     H69532   8.035   9.893   3.066 -1.0917  1.0765 -0.0269
  504MOL0     H69533   7.948   9.675   3.173  0.7587  0.1925 -0.7839
  504MOL0     H69534   7.594   9.433   3.243  1.8083 -0.5854 -0.5975
  504MOL0     H69535   7.518   9.222   3.314  2.4758 -1.8509  0.5019
  504MOL0     H69536   7.782   7.521   3.999  1.5498  0.2277 -1.8837
  504MOL0     H69537   7.980   7.392   4.004  0.4184  1.5918 -0.1840
  504MOL0     H69538   8.423   7.229   3.855 -2.6039 -0.0114  3.4129
  504MOL0     H69539   8.603   7.071   3.822  0.3717  1.7646 -0.6720
  504MOL0     H69540   8.576   6.635   3.728  0.6941  2.0188  2.2520
  504MOL0     H69541   8.520   6.726   3.575 -0.4735  1.8237  0.9129
  504MOL0     H69542   8.748   6.769   3.513  0.9609  1.5477  1.6053
  504MOL0     H69543   8.723   6.601   3.503  1.7356  1.8391 -2.0357
  504MOL0     H69544   8.825   6.734   3.755 -1.8694  0.2706 -0.3171
  504MOL0     H69545   8.835   6.564   3.713  0.4042 -0.1649  0.5185
  504MOL0     H69546   8.988   6.617   3.541 -0.8961  2.0053 -1.4671
  504MOL0     H69547   9.043   6.691   3.686  1.1118  1.8917 -0.8837
  504MOL0     H69548   9.008   7.037   3.456 -3.5155  0.3875  0.4962
  504MOL0     H69549   8.328   6.777   3.676 -0.5629 -0.5224  0.6534
  504MOL0     H69550   8.111   6.808   3.699 -2.1033 -0.3110  3.7837
  504MOL0     H69551   8.044   6.913   3.810 -1.4878 -2.8967 -0.3044
  504MOL0     H69552   8.060   6.977   3.640 -0.8376 -0.7496 -0.5212
  505MOL0     O69553   6.371   1.669  11.175  0.5930  0.4415 -0.7165
  505MOL0     C69554   6.395   1.560  11.220 -0.9541 -0.2341  0.4258
  505MOL0     O69555   6.377   1.442  11.152 -0.4840 -0.3522 -0.9055
  505MOL0     C69556   6.305   1.450  11.036 -0.5699 -1.2763  0.2680
  505MOL0     C69557   6.362   1.432  10.912  1.1782 -0.3404  0.8336
  505MOL0     C69558   6.288   1.456  10.795 -0.2680 -0.1743 -0.2586
  505MOL0     C69559   6.158   1.499  10.802 -0.5435 -0.1810 -0.1236
  505MOL0     O69560   6.081   1.514  10.685 -0.0832 -0.2611  0.1571
  505MOL0     C69561   6.083   1.391  10.599  1.2858 -0.2463 -0.3895
  505MOL0     C69562   5.964   1.303  10.651 -0.1232 -0.0093  0.3451
  505MOL0     C69563   5.943   1.168  10.573 -0.2512  0.1292  0.1054
  505MOL0     C69564   5.827   1.088  10.634 -0.7758  0.4859  0.0644
  505MOL0     C69565   5.832   0.933  10.599  0.1322 -1.3891  0.5186
  505MOL0     C69566   5.728   0.875  10.688  0.5270 -0.2819 -0.7052
  505MOL0     C69567   5.719   0.725  10.660 -0.1950 -0.5176  0.5858
  505MOL0     C69568   5.636   0.687  10.543 -0.0135 -0.0490 -0.2506
  505MOL0     N69569   5.496   0.703  10.577 -0.1483 -0.0364  0.8383
  505MOL0     C69570   5.417   0.610  10.646 -1.1856 -0.4025  0.1168
  505MOL0     C69571   5.297   0.667  10.651 -0.1695  0.3045 -0.3868
  505MOL0     C69572   5.159   0.613  10.704  0.9473  0.5338  0.0513
  505MOL0     C69573   5.140   0.460  10.688  0.5189 -0.0988 -0.7104
  505MOL0     C69574   5.173   0.428  10.543  0.0106 -0.1330  0.2732
  505MOL0     C69575   5.087   0.301  10.493  0.1170 -0.1918 -0.4486
  505MOL0     O69576   5.108   0.187  10.567 -0.0322 -0.1700 -0.6515
  505MOL0     C69577   5.031   0.073  10.545 -0.0647 -0.0906 -1.0324
  505MOL0     C69578   5.046  -0.025  10.645 -0.2015  0.8748  0.4257
  505MOL0     C69579   4.993  -0.160  10.620 -0.3649 -0.0720 -0.3041
  505MOL0     C69580   5.012  -0.269  10.724  0.1420  0.4016  1.5439
  505MOL0     C69581   4.911  -0.179  10.505  0.2857  0.3071 -0.3937
  505MOL0     C69582   4.845  -0.303  10.465  0.4913  0.8418 -0.0431
  505MOL0     O69583   4.711  -0.287  10.422 -0.2224 -0.2322  0.1917
  505MOL0     C69584   4.623  -0.385  10.397 -0.5518  0.4497 -0.5419
  505MOL0     C69585   4.641  -0.514  10.444 -0.0518 -0.4586  0.1152
  505MOL0     C69586   4.544  -0.600  10.407 -0.0775  0.5370 -0.1856
  505MOL0     C69587   4.431  -0.575  10.328 -0.5539  0.0162 -0.1685
  505MOL0     O69588   4.347  -0.683  10.304 -0.0613  0.1377 -0.1734
  505MOL0     C69589   4.256  -0.673  10.190 -0.0976  0.0488 -0.4722
  505MOL0     C69590   4.181  -0.804  10.181  0.6683 -0.3391 -0.4193
  505MOL0     C69591   4.072  -0.828  10.282  0.4481  0.9691 -0.3036
  505MOL0     C69592   4.007  -0.961  10.265 -0.6928  0.4103  0.1614
  505MOL0     C69593   3.933  -1.005  10.390  0.6496  0.4572 -0.4090
  505MOL0     C69594   3.832  -1.118  10.356 -0.6938 -0.0396  0.2288
  505MOL0     C69595   3.817  -1.207  10.474  0.3717  0.5960  0.2369
  505MOL0     C69596   3.716  -1.311  10.430 -0.0674 -0.3835 -0.2441
  505MOL0    Cl69597   3.695  -1.428  10.555  0.1564 -0.2466 -0.4238
  505MOL0     C69598   4.407  -0.436  10.294  0.3069 -0.1466 -0.2536
  505MOL0     C69599   4.514  -0.348  10.326  0.3669  0.4198 -0.2694
  505MOL0     O69600   4.915  -0.404  10.479  0.0367  0.9950  0.3782
  505MOL0     C69601   4.880  -0.065  10.420  0.3202  0.2958 -0.6950
  505MOL0     C69602   4.944   0.054  10.434  0.4003 -0.2067  0.4066
  505MOL0     N69603   5.297   0.783  10.581  0.0950  0.1086 -0.1128
  505MOL0     N69604   5.416   0.797  10.530 -0.2968 -0.1757 -0.9274
  505MOL0     C69605   6.101   1.514  10.927 -0.3697  0.0213  0.6047
  505MOL0     C69606   6.170   1.487  11.042 -0.0397 -0.4513 -0.1921
  505MOL0     C69607   6.467   1.550  11.353  0.3905 -0.0786 -0.5069
  505MOL0     C69608   6.524   1.423  11.385  0.4240 -0.7441 -0.5467
  505MOL0     C69609   6.559   1.380  11.514  0.5542 -0.1797  0.2231
  505MOL0     C69610   6.569   1.482  11.611 -0.2157  0.0488 -1.0498
  505MOL0     O69611   6.598   1.479  11.755  0.4584  0.6351 -0.1854
  505MOL0     C69612   6.618   1.354  11.816  0.2744  0.2041 -0.6198
  505MOL0     C69613   6.597   1.364  11.961 -0.0483  0.0636 -0.2335
  505MOL0     C69614   6.446   1.400  11.993 -0.1081 -0.4343  0.3323
  505MOL0     C69615   6.406   1.363  12.138 -0.9567  0.3462 -0.2724
  505MOL0     C69616   6.260   1.359  12.144  0.2732 -0.6842 -0.0147
  505MOL0     C69617   6.140   1.361  12.157 -0.4825 -0.4326  0.8493
  505MOL0     C69618   6.517   1.603  11.581  0.4367 -0.6004  0.0174
  505MOL0     C69619   6.466   1.643  11.461  0.3435 -0.1524 -0.0731
  505MOL0     C69620   6.392   1.777  11.446  0.0446  0.6055  0.6214
  505MOL0     H69621   6.466   1.400  10.904  2.2442  3.1574 -1.2902
  505MOL0     H69622   6.325   1.439  10.695 -3.5981 -0.3325 -1.5898
  505MOL0     H69623   6.170   1.327  10.587  0.6854 -1.0214 -0.7226
  505MOL0     H69624   6.063   1.426  10.497 -1.2273  0.9133  0.4048
  505MOL0     H69625   5.979   1.285  10.758 -0.1519  2.1834  0.7549
  505MOL0     H69626   5.877   1.367  10.635  0.6257  1.0460  0.3935
  505MOL0     H69627   5.935   1.182  10.465 -1.8233  2.2220  0.4238
  505MOL0     H69628   6.034   1.107  10.580 -0.0150 -0.2771 -4.0150
  505MOL0     H69629   5.815   1.106  10.741  0.8033 -2.3518  0.8133
  505MOL0     H69630   5.736   1.128  10.588 -0.5364 -2.3251 -3.3270
  505MOL0     H69631   5.934   0.894  10.604  0.5673 -0.3262  0.3842
  505MOL0     H69632   5.792   0.921  10.498  0.6146 -0.1266  0.1488
  505MOL0     H69633   5.751   0.891  10.794 -1.9466 -0.1549 -0.1219
  505MOL0     H69634   5.632   0.928  10.681  2.0472  3.6283  3.5017
  505MOL0     H69635   5.685   0.670  10.749  1.9586  1.6841  2.9609
  505MOL0     H69636   5.823   0.692  10.650  1.0976  3.5070 -1.4580
  505MOL0     H69637   5.666   0.727  10.446 -1.4309 -2.2308 -1.6713
  505MOL0     H69638   5.669   0.584  10.527 -3.6361 -1.1268 -1.6641
  505MOL0     H69639   5.453   0.519  10.693 -1.0785  1.0322  3.0324
  505MOL0     H69640   5.081   0.674  10.659  0.7022 -1.6249 -2.6836
  505MOL0     H69641   5.146   0.632  10.811 -0.2023  2.9369 -0.4446
  505MOL0     H69642   5.200   0.393  10.750 -1.1197 -2.1973 -1.2555
  505MOL0     H69643   5.036   0.428  10.705  0.4743 -1.2156 -2.7163
  505MOL0     H69644   5.142   0.518  10.490 -2.5830 -0.5864  0.8814
  505MOL0     H69645   5.280   0.412  10.528 -0.0391  0.4091 -0.7870
  505MOL0     H69646   4.982   0.329  10.484  0.6380  2.2437  0.3978
  505MOL0     H69647   5.118   0.275  10.392  2.3726 -2.4575  0.7065
  505MOL0     H69648   5.097  -0.001  10.738 -2.1558  2.2130  1.2399
  505MOL0     H69649   5.054  -0.222  10.814 -0.7920 -0.3043  2.3819
  505MOL0     H69650   5.073  -0.349  10.682 -1.1291 -0.3938  1.1708
  505MOL0     H69651   4.917  -0.316  10.752  0.2029 -0.2050  0.7372
  505MOL0     H69652   4.726  -0.537  10.508 -0.7343 -1.9569  0.5184
  505MOL0     H69653   4.562  -0.703  10.436 -2.0800  0.8556  2.6203
  505MOL0     H69654   4.181  -0.597  10.213 -0.9706 -1.7996  3.5912
  505MOL0     H69655   4.305  -0.657  10.093  0.2500 -0.2515 -0.3469
  505MOL0     H69656   4.134  -0.818  10.083  0.3565  1.1206 -0.4982
  505MOL0     H69657   4.254  -0.885  10.190 -0.0460 -1.1575 -1.6190
  505MOL0     H69658   3.996  -0.750  10.275  0.7037  1.2939  0.4342
  505MOL0     H69659   4.118  -0.820  10.381  0.4580  0.8761 -0.3012
  505MOL0     H69660   4.074  -1.043  10.238 -2.3425 -1.4712  1.4722
  505MOL0     H69661   3.929  -0.963  10.188  0.1242  1.1862 -0.7165
  505MOL0     H69662   3.997  -1.048  10.467 -0.8007  1.8188  1.6427
  505MOL0     H69663   3.868  -0.924  10.424 -1.1269 -2.0663  2.8447
  505MOL0     H69664   3.866  -1.188  10.279 -1.2917  0.9585 -0.9588
  505MOL0     H69665   3.738  -1.087  10.310 -2.0367 -5.8043 -1.7922
  505MOL0     H69666   3.779  -1.145  10.556  0.3976 -0.1754  0.8363
  505MOL0     H69667   3.906  -1.257  10.512 -2.0314 -3.1623  1.4554
  505MOL0     H69668   3.749  -1.366  10.342  1.1633 -0.5190  0.2828
  505MOL0     H69669   3.624  -1.265  10.394  1.7320  2.7458 -1.2582
  505MOL0     H69670   4.318  -0.415  10.235 -0.4418  1.7725  1.4476
  505MOL0     H69671   4.504  -0.241  10.310  2.4657  0.5266 -1.1136
  505MOL0     H69672   4.810  -0.076  10.338 -3.3022  4.6749  1.3607
  505MOL0     H69673   4.922   0.130  10.360 -0.4791 -0.6751  0.1703
  505MOL0     H69674   5.994   1.531  10.934 -0.8053 -0.7159 -2.7142
  505MOL0     H69675   6.125   1.484  11.140  1.4610  1.3814  0.5943
  505MOL0     H69676   6.528   1.350  11.304 -2.0639 -0.7293 -0.7545
  505MOL0     H69677   6.569   1.275  11.536 -0.9191 -0.8543 -1.9797
  505MOL0     H69678   6.545   1.279  11.786  0.6169 -2.0532  3.4763
  505MOL0     H69679   6.716   1.311  11.794 -1.2296 -3.1857 -1.3117
  505MOL0     H69680   6.663   1.435  12.010 -1.5081  0.2919  1.4923
  505MOL0     H69681   6.613   1.266  12.008 -0.0808 -1.0355 -2.3902
  505MOL0     H69682   6.420   1.504  11.971  0.5895 -0.6699 -1.8315
  505MOL0     H69683   6.387   1.343  11.921 -0.0998 -0.1759  0.1213
  505MOL0     H69684   6.452   1.430  12.212  1.6129 -2.1496  0.6119
  505MOL0     H69685   6.445   1.263  12.158 -0.0490  0.2791 -2.1214
  505MOL0     H69686   6.036   1.369  12.184 -0.7543 -1.2468  0.1011
  505MOL0     H69687   6.511   1.668  11.668  0.4572 -1.5138  0.7100
  505MOL0     H69688   6.368   1.824  11.542  1.4099 -1.4562  2.0557
  505MOL0     H69689   6.461   1.842  11.391 -0.5487  0.5980 -0.1362
  505MOL0     H69690   6.305   1.770  11.381  1.9144 -2.3525 -1.8444
  506MOL0     O69691   8.151   3.903   5.267  0.2990  0.0158  0.4585
  506MOL0     C69692   8.054   3.902   5.343  0.3017  0.1760  0.1448
  506MOL0     O69693   8.047   3.856   5.470 -0.2457 -0.1854  0.3352
  506MOL0     C69694   8.149   3.786   5.519  0.3243  0.2631 -0.5733
  506MOL0     C69695   8.108   3.673   5.596 -0.3360 -0.6384 -0.7892
  506MOL0     C69696   8.190   3.581   5.655 -0.7802  0.4455 -1.0029
  506MOL0     C69697   8.326   3.606   5.646  0.8958 -0.0302  0.0048
  506MOL0     O69698   8.403   3.507   5.701 -0.1761  0.6135  0.0254
  506MOL0     C69699   8.470   3.411   5.620  0.0361 -0.9139 -0.7760
  506MOL0     C69700   8.488   3.285   5.704  0.1986 -0.2559  0.4519
  506MOL0     C69701   8.402   3.167   5.651  0.0026  0.6669 -0.4302
  506MOL0     C69702   8.444   3.039   5.717  0.4623 -0.8120 -1.7181
  506MOL0     C69703   8.348   2.927   5.694 -0.0911 -0.2671 -0.0585
  506MOL0     C69704   8.219   2.950   5.758  0.1613 -0.0233  0.1755
  506MOL0     C69705   8.134   2.833   5.719 -0.5102 -0.0630 -0.3319
  506MOL0     C69706   8.009   2.814   5.807 -0.1946 -1.1587  0.1308
  506MOL0     N69707   7.902   2.742   5.741 -0.0476  1.0624 -0.4149
  506MOL0     C69708   7.918   2.617   5.686  0.9390  0.6703  0.5801
  506MOL0     C69709   7.788   2.580   5.663  0.5213  0.3073 -0.0125
  506MOL0     C69710   7.746   2.445   5.610 -0.3394 -0.3597  0.8973
  506MOL0     C69711   7.597   2.412   5.639  0.6616 -0.1079  0.2794
  506MOL0     C69712   7.547   2.310   5.535  0.3358  0.9164 -0.2370
  506MOL0     C69713   7.651   2.197   5.522 -0.7215  0.5357  0.3508
  506MOL0     O69714   7.663   2.119   5.641 -0.4031  0.5531  0.1124
  506MOL0     C69715   7.567   2.034   5.692  0.6016  0.1551  0.2884
  506MOL0     C69716   7.448   1.991   5.616 -0.3317  0.5934  0.1922
  506MOL0     C69717   7.364   1.893   5.671 -0.1378 -0.5119 -0.1629
  506MOL0     C69718   7.248   1.851   5.578  0.1702 -0.6773 -0.0827
  506MOL0     C69719   7.379   1.861   5.803  0.3685  0.1333 -0.0012
  506MOL0     C69720   7.280   1.776   5.874 -0.2364 -0.6724  0.5312
  506MOL0     O69721   7.237   1.669   5.804  0.0654  0.1610  0.0813
  506MOL0     C69722   7.146   1.590   5.870  0.9897  0.6525 -0.1270
  506MOL0     C69723   7.014   1.632   5.911  0.1309  0.2239 -0.0148
  506MOL0     C69724   6.935   1.552   5.987  0.7137  0.6169  0.4524
  506MOL0     C69725   6.977   1.433   6.042 -1.0211 -0.0625  0.6662
  506MOL0     O69726   6.887   1.353   6.102  0.0030 -0.6330 -0.0547
  506MOL0     C69727   6.887   1.351   6.240  0.0616 -0.1189  0.2220
  506MOL0     C69728   6.936   1.226   6.302  0.3939  1.1980  1.3591
  506MOL0     C69729   6.971   1.230   6.447 -0.4933 -0.2904 -0.7145
  506MOL0     C69730   7.063   1.103   6.494  0.4617 -0.8792  0.3477
  506MOL0     C69731   7.085   1.091   6.647 -0.3233 -0.0104  0.1681
  506MOL0     C69732   7.190   1.182   6.706 -0.3082 -0.5586  0.3220
  506MOL0     C69733   7.175   1.221   6.856 -0.4683 -0.5017 -0.1899
  506MOL0     C69734   7.265   1.341   6.881 -0.3051  0.1671 -0.6791
  506MOL0    Cl69735   7.434   1.289   6.885 -0.4551  0.0915  0.1599
  506MOL0     C69736   7.103   1.382   6.006 -0.1831 -0.1068  0.5443
  506MOL0     C69737   7.188   1.460   5.919  1.1758 -0.4092  0.1354
  506MOL0     O69738   7.252   1.813   5.990  0.4277  0.1659  0.0841
  506MOL0     C69739   7.491   1.907   5.878  0.4862  0.3222 -0.0373
  506MOL0     C69740   7.584   1.993   5.823 -1.3696  0.4335  0.1740
  506MOL0     N69741   7.705   2.687   5.678 -0.4331 -0.0870 -0.0012
  506MOL0     N69742   7.769   2.787   5.714 -0.1184 -0.5424 -0.8390
  506MOL0     C69743   8.373   3.713   5.576 -0.1470 -1.5468 -1.3222
  506MOL0     C69744   8.289   3.803   5.496 -0.1656 -0.6881 -0.5697
  506MOL0     C69745   7.931   3.965   5.289 -0.5171 -0.1218  0.5896
  506MOL0     C69746   7.824   3.980   5.379 -0.1435 -0.8398  0.4542
  506MOL0     C69747   7.704   4.049   5.340  0.0875 -0.1620  0.1772
  506MOL0     C69748   7.687   4.098   5.209  0.1892  0.1934  0.4939
  506MOL0     O69749   7.564   4.150   5.174 -0.1026  0.1207 -0.3870
  506MOL0     C69750   7.516   4.140   5.046  0.6491 -0.1559 -0.0796
  506MOL0     C69751   7.448   4.000   5.030  0.5023  0.1235  0.5944
  506MOL0     C69752   7.378   3.974   4.908 -0.5530  0.9927  0.7810
  506MOL0     C69753   7.331   3.824   4.897 -0.2686  0.2483  0.2377
  506MOL0     C69754   7.429   3.736   4.837 -0.4304  1.0210  0.2727
  506MOL0     C69755   7.509   3.652   4.795  0.1009  0.3463 -0.3994
  506MOL0     C69756   7.792   4.068   5.115  0.2374  0.2397  0.1929
  506MOL0     C69757   7.913   3.997   5.149 -0.2972  1.1637 -0.4932
  506MOL0     C69758   8.001   3.943   5.040  0.3310  0.9447  0.9840
  506MOL0     H69759   8.003   3.653   5.612  0.1534 -1.4189  2.1397
  506MOL0     H69760   8.171   3.489   5.709  1.7800 -1.6647 -3.3945
  506MOL0     H69761   8.565   3.452   5.585 -0.2746  0.1992 -0.3581
  506MOL0     H69762   8.410   3.391   5.532 -0.8435  0.5684 -0.5408
  506MOL0     H69763   8.593   3.256   5.697 -0.1148 -1.7674  1.5026
  506MOL0     H69764   8.460   3.299   5.809  0.3866 -2.7031  0.8807
  506MOL0     H69765   8.298   3.198   5.663 -0.4140 -0.9130  0.2287
  506MOL0     H69766   8.424   3.142   5.547 -0.8111 -0.3273 -0.3790
  506MOL0     H69767   8.547   3.017   5.689  2.4992  3.5767  1.1382
  506MOL0     H69768   8.454   3.054   5.825 -1.4043 -4.3231 -0.8777
  506MOL0     H69769   8.400   2.835   5.725  0.7431  1.0064  2.6245
  506MOL0     H69770   8.331   2.934   5.586  0.1265  2.0030  0.0115
  506MOL0     H69771   8.224   2.961   5.866 -0.3816  1.8870  0.0417
  506MOL0     H69772   8.168   3.042   5.726  1.8539  0.6609 -0.6721
  506MOL0     H69773   8.200   2.745   5.717  1.5341  1.3046  1.6288
  506MOL0     H69774   8.109   2.855   5.615 -0.8262  2.3907  0.2122
  506MOL0     H69775   8.024   2.750   5.894  0.6592 -2.2947 -0.8224
  506MOL0     H69776   7.968   2.915   5.819  3.7586  0.7429 -0.7652
  506MOL0     H69777   8.000   2.547   5.670 -1.0980 -2.5630  3.0715
  506MOL0     H69778   7.807   2.362   5.646 -1.9775 -3.3510 -2.5690
  506MOL0     H69779   7.762   2.444   5.502  2.3071 -0.2195  1.2346
  506MOL0     H69780   7.586   2.381   5.743  2.1791  2.3347  1.2466
  506MOL0     H69781   7.531   2.498   5.643  0.5400 -0.2507  2.1987
  506MOL0     H69782   7.452   2.262   5.560  0.8927 -0.2838 -0.3552
  506MOL0     H69783   7.522   2.359   5.441 -1.3179 -0.7490 -0.7338
  506MOL0     H69784   7.626   2.129   5.439  1.2844  0.0064  0.1031
  506MOL0     H69785   7.750   2.239   5.499 -1.3005  1.8038  0.1259
  506MOL0     H69786   7.426   2.028   5.516  2.7018 -0.5708 -1.0010
  506MOL0     H69787   7.149   1.841   5.623 -0.0512  3.2967  0.6469
  506MOL0     H69788   7.286   1.749   5.561 -2.2634 -1.0855 -4.4505
  506MOL0     H69789   7.242   1.902   5.482 -5.4402 -0.7894 -0.1147
  506MOL0     H69790   6.987   1.737   5.902  1.3709  0.4334 -1.8820
  506MOL0     H69791   6.845   1.588   6.036 -1.1501 -0.6468 -1.8796
  506MOL0     H69792   6.940   1.443   6.267 -3.2514  3.2704 -3.5162
  506MOL0     H69793   6.782   1.354   6.271 -0.2601  0.2568 -0.8811
  506MOL0     H69794   6.864   1.144   6.298  3.5016 -1.7637  1.3191
  506MOL0     H69795   7.015   1.187   6.237  0.8739  1.3504  1.8436
  506MOL0     H69796   6.878   1.229   6.503  0.1775  0.7353  0.4820
  506MOL0     H69797   7.017   1.327   6.470 -0.1457 -0.8003  0.8390
  506MOL0     H69798   7.157   1.128   6.445 -0.2459 -0.3603 -0.7623
  506MOL0     H69799   7.045   1.005   6.449  1.2827 -0.1196 -1.7877
  506MOL0     H69800   6.988   1.121   6.688 -0.8751 -0.9482 -0.4186
  506MOL0     H69801   7.100   0.987   6.674 -0.8591 -0.1491 -0.0502
  506MOL0     H69802   7.176   1.271   6.643 -0.2078 -2.1059 -2.0125
  506MOL0     H69803   7.293   1.153   6.682  0.5231  2.9488 -1.1279
  506MOL0     H69804   7.211   1.138   6.918 -0.6264 -0.1512  0.3771
  506MOL0     H69805   7.069   1.241   6.871 -0.9945 -2.3418 -1.0680
  506MOL0     H69806   7.247   1.372   6.984 -3.1858 -0.8008 -0.8117
  506MOL0     H69807   7.247   1.428   6.816 -1.7263 -1.1019 -2.0655
  506MOL0     H69808   7.129   1.284   6.044  5.4872 -0.6401 -3.4513
  506MOL0     H69809   7.288   1.419   5.912  0.4883 -2.3511  1.0032
  506MOL0     H69810   7.497   1.874   5.981  0.5858  2.8478  0.8338
  506MOL0     H69811   7.668   2.028   5.884  0.4576 -2.9435 -0.1564
  506MOL0     H69812   8.481   3.723   5.581 -0.3534  0.3861  0.3542
  506MOL0     H69813   8.334   3.876   5.429 -0.1139  1.3462  1.5479
  506MOL0     H69814   7.846   3.965   5.485  1.6976 -0.5076  0.1628
  506MOL0     H69815   7.628   4.074   5.413 -1.5542 -2.7708 -0.5021
  506MOL0     H69816   7.448   4.224   5.033  2.3533  1.0579 -1.5810
  506MOL0     H69817   7.592   4.154   4.968  0.3385 -1.1736 -0.5823
  506MOL0     H69818   7.376   4.004   5.113  0.3378 -1.3866  0.5388
  506MOL0     H69819   7.521   3.922   5.054 -0.0013 -0.4083  0.4153
  506MOL0     H69820   7.293   4.043   4.911  0.5299  2.3423  2.4729
  506MOL0     H69821   7.436   3.994   4.818  0.2045  1.4452  1.3524
  506MOL0     H69822   7.238   3.815   4.841 -2.5068 -0.6583  3.7865
  506MOL0     H69823   7.318   3.782   4.997 -0.8428 -0.2270 -0.0321
  506MOL0     H69824   7.589   3.599   4.747 -0.7023 -1.5254  0.2319
  506MOL0     H69825   7.790   4.100   5.011 -2.2731 -1.2841 -0.3337
  506MOL0     H69826   8.019   3.837   5.058 -1.2084  0.2610 -1.1634
  506MOL0     H69827   7.958   3.958   4.941  0.5542 -1.7609  0.4122
  506MOL0     H69828   8.102   3.984   5.049  1.8338 -2.5283  1.5420
  507MOL0     O69829   7.356   5.044  10.342 -0.7765  0.5479  0.5089
  507MOL0     C69830   7.302   5.154  10.348 -0.5034  0.4313  0.0790
  507MOL0     O69831   7.333   5.251  10.442  0.3874 -0.2609 -0.7843
  507MOL0     C69832   7.415   5.215  10.545  0.4500  0.0406  0.0406
  507MOL0     C69833   7.378   5.119  10.641  0.7921 -0.2414  0.0588
  507MOL0     C69834   7.457   5.100  10.751 -0.4480  0.5097  0.1704
  507MOL0     C69835   7.580   5.168  10.768  0.2284  0.4657 -0.1013
  507MOL0     O69836   7.672   5.148  10.872  0.2884 -0.0623  0.6411
  507MOL0     C69837   7.663   5.045  10.971 -0.1080  0.4301 -0.5232
  507MOL0     C69838   7.571   5.091  11.088  1.3207 -0.8313 -0.9382
  507MOL0     C69839   7.645   5.190  11.168 -0.2875 -0.7295  0.2178
  507MOL0     C69840   7.555   5.242  11.277 -0.0980  0.4974  0.2219
  507MOL0     C69841   7.627   5.303  11.404 -0.1910  0.5902  0.1915
  507MOL0     C69842   7.721   5.420  11.383  0.2086  0.1506 -0.6999
  507MOL0     C69843   7.636   5.545  11.334 -0.4400  0.6720  0.5765
  507MOL0     C69844   7.551   5.615  11.438 -0.2130  0.3262  0.1499
  507MOL0     N69845   7.633   5.652  11.556 -0.7685  0.0641 -0.4090
  507MOL0     C69846   7.737   5.741  11.545  0.1978 -0.1268 -0.4022
  507MOL0     C69847   7.807   5.732  11.666  0.2129 -0.2253 -0.3705
  507MOL0     C69848   7.915   5.816  11.735  0.6971  0.2496  0.3616
  507MOL0     C69849   7.919   5.960  11.676 -0.1737 -0.6885  0.0961
  507MOL0     C69850   7.809   6.043  11.742  0.7359  0.0567  1.0305
  507MOL0     C69851   7.832   6.197  11.716  0.3413  0.5219  0.6506
  507MOL0     O69852   7.727   6.263  11.779  0.6245 -0.2416  0.7854
  507MOL0     C69853   7.714   6.402  11.769 -0.2349 -0.0777 -0.3232
  507MOL0     C69854   7.589   6.460  11.787  0.1545  0.8742 -0.8390
  507MOL0     C69855   7.567   6.600  11.779 -0.4289 -0.0634 -0.1200
  507MOL0     C69856   7.426   6.643  11.808 -0.4604 -0.4985  0.3004
  507MOL0     C69857   7.669   6.681  11.739  0.1964  0.4125 -0.1726
  507MOL0     C69858   7.652   6.830  11.749 -0.3821 -0.2522  0.3605
  507MOL0     O69859   7.768   6.896  11.768  0.6805 -0.3521  0.2813
  507MOL0     C69860   7.770   7.026  11.768 -0.0290 -1.0250  0.3874
  507MOL0     C69861   7.721   7.109  11.668  0.2858  0.1986  0.4665
  507MOL0     C69862   7.719   7.251  11.693  0.2361  0.7888 -0.2117
  507MOL0     C69863   7.776   7.319  11.801  0.5830 -0.7030  0.1374
  507MOL0     O69864   7.782   7.459  11.816  0.2114  0.1195  0.4235
  507MOL0     C69865   7.674   7.537  11.763  0.3837 -0.8381 -0.3070
  507MOL0     C69866   7.693   7.688  11.781 -0.8802 -0.5200 -0.8788
  507MOL0     C69867   7.565   7.747  11.838  0.2373  0.3423 -0.3701
  507MOL0     C69868   7.510   7.843  11.730 -0.6031  0.2631  0.6765
  507MOL0     C69869   7.421   7.950  11.787  0.0977  0.5008  0.2419
  507MOL0     C69870   7.416   8.082  11.698 -0.4505 -0.0387  0.2236
  507MOL0     C69871   7.326   8.057  11.585  0.2478  0.0232 -0.6169
  507MOL0     C69872   7.330   8.153  11.467  0.4502  0.5802 -0.2736
  507MOL0    Cl69873   7.493   8.138  11.378 -0.0629 -0.4027 -0.5084
  507MOL0     C69874   7.846   7.233  11.886 -0.0762 -0.5490 -0.3064
  507MOL0     C69875   7.837   7.093  11.876  0.8316 -0.3391 -0.9527
  507MOL0     O69876   7.546   6.881  11.728  0.0272  0.0149  0.3467
  507MOL0     C69877   7.789   6.622  11.713  0.3631  0.0138  0.1278
  507MOL0     C69878   7.817   6.487  11.739 -0.3758 -0.5842  0.1947
  507MOL0     N69879   7.746   5.623  11.741  0.8188 -0.1499  0.2262
  507MOL0     N69880   7.648   5.580  11.671  0.0452 -0.0096  0.5448
  507MOL0     C69881   7.629   5.247  10.656 -0.3344  0.3312 -0.1345
  507MOL0     C69882   7.535   5.287  10.561 -1.0045  0.4481 -0.1815
  507MOL0     C69883   7.219   5.216  10.232 -0.4546 -0.0703  0.9059
  507MOL0     C69884   7.185   5.348  10.233  0.6781 -0.4404 -0.4029
  507MOL0     C69885   7.120   5.414  10.127  0.4094  0.2647 -0.7716
  507MOL0     C69886   7.079   5.348  10.014  0.3165  1.2290  0.4478
  507MOL0     O69887   7.025   5.421   9.907 -0.2067 -0.1301  0.8783
  507MOL0     C69888   6.959   5.356   9.799 -0.3803  0.2288  0.7500
  507MOL0     C69889   6.910   5.463   9.706  0.0007 -0.5747  0.0389
  507MOL0     C69890   7.017   5.546   9.638  0.1926  0.1591  0.9104
  507MOL0     C69891   6.982   5.694   9.639 -0.0932 -1.0168 -0.1084
  507MOL0     C69892   7.004   5.770   9.764 -0.4224 -0.0309 -0.0834
  507MOL0     C69893   7.027   5.824   9.867 -0.3701 -0.0242  0.1804
  507MOL0     C69894   7.106   5.208  10.013 -0.8561 -0.1844  0.1469
  507MOL0     C69895   7.174   5.145  10.114 -0.5088  0.7345 -0.0691
  507MOL0     C69896   7.203   4.995  10.098  0.2402  1.3712 -0.4878
  507MOL0     H69897   7.289   5.057  10.643 -2.6716  4.0745  4.7320
  507MOL0     H69898   7.431   5.027  10.827 -0.6592 -1.9355 -2.1302
  507MOL0     H69899   7.769   5.038  10.996  0.0992 -0.6930 -1.6158
  507MOL0     H69900   7.615   4.955  10.930 -0.0973 -0.5728  1.5461
  507MOL0     H69901   7.483   5.141  11.046 -0.4427 -2.3460  0.7938
  507MOL0     H69902   7.536   5.010  11.152  0.3391  0.4933  0.2756
  507MOL0     H69903   7.735   5.152  11.218  0.1648  1.9640  1.6035
  507MOL0     H69904   7.673   5.278  11.110 -1.2824  0.4747  1.4979
  507MOL0     H69905   7.484   5.313  11.234 -1.2465 -0.6820  0.1213
  507MOL0     H69906   7.480   5.169  11.306 -0.7550  0.6741 -0.9508
  507MOL0     H69907   7.677   5.216  11.447 -0.3146 -0.3455 -1.4965
  507MOL0     H69908   7.545   5.342  11.466  0.4410  2.9690 -0.3423
  507MOL0     H69909   7.772   5.449  11.475 -1.4291  2.4908 -0.4403
  507MOL0     H69910   7.799   5.389  11.312 -0.0564 -2.6311  0.1167
  507MOL0     H69911   7.566   5.514  11.256  2.1281 -2.3358 -0.7605
  507MOL0     H69912   7.703   5.617  11.285  0.0324 -1.0465 -1.4717
  507MOL0     H69913   7.502   5.706  11.401 -1.5160  0.2114  1.5271
  507MOL0     H69914   7.469   5.548  11.464 -2.9090  1.9696 -3.2611
  507MOL0     H69915   7.772   5.812  11.471 -0.4180 -1.6117 -2.2098
  507MOL0     H69916   8.008   5.760  11.733  0.6129  0.1248 -1.4494
  507MOL0     H69917   7.897   5.817  11.843 -2.7455 -0.6264 -0.0896
  507MOL0     H69918   8.019   6.000  11.700  0.0817 -2.0527  1.5209
  507MOL0     H69919   7.912   5.966  11.567 -1.4881  3.0766  0.2322
  507MOL0     H69920   7.714   6.009  11.700  1.7196  1.2080 -2.3968
  507MOL0     H69921   7.806   6.021  11.850  1.6250  0.5340  1.1619
  507MOL0     H69922   7.929   6.221  11.759  1.1241  1.1561 -1.3631
  507MOL0     H69923   7.842   6.220  11.609  0.8333  1.0413  0.8009
  507MOL0     H69924   7.512   6.384  11.797  0.8581  0.4073  1.8310
  507MOL0     H69925   7.363   6.571  11.860 -1.0375 -0.6696 -0.6048
  507MOL0     H69926   7.380   6.670  11.712  4.7537  2.0957 -1.8293
  507MOL0     H69927   7.433   6.721  11.884 -2.3663 -1.2263  1.3054
  507MOL0     H69928   7.689   7.068  11.573  1.2946  3.7945 -1.6356
  507MOL0     H69929   7.676   7.301  11.606 -0.5160  0.2001 -0.1875
  507MOL0     H69930   7.659   7.518  11.656  0.7638  0.5155 -0.6184
  507MOL0     H69931   7.591   7.500  11.825 -0.6403  0.3663 -0.9041
  507MOL0     H69932   7.765   7.690  11.864 -2.6075 -2.6858  0.7693
  507MOL0     H69933   7.739   7.732  11.692 -1.3117 -0.6515 -1.1667
  507MOL0     H69934   7.594   7.816  11.918  0.4770  0.9289 -0.9601
  507MOL0     H69935   7.492   7.678  11.882 -2.0349  2.3509 -0.7750
  507MOL0     H69936   7.469   7.783  11.649  0.3965  0.5941 -0.0926
  507MOL0     H69937   7.585   7.902  11.677 -0.0326 -2.2529 -1.5088
  507MOL0     H69938   7.327   7.895  11.800  0.2151  0.6639  1.9588
  507MOL0     H69939   7.441   7.973  11.892 -2.4933 -0.7138  1.0874
  507MOL0     H69940   7.511   8.121  11.661  0.0282  0.4132  1.8353
  507MOL0     H69941   7.366   8.167  11.746 -2.9026  0.0156 -2.1588
  507MOL0     H69942   7.225   8.062  11.627  0.2832  1.1914 -0.6593
  507MOL0     H69943   7.350   7.955  11.553 -1.3524 -0.5432 -0.1290
  507MOL0     H69944   7.321   8.254  11.506 -0.5798  0.5268 -0.3467
  507MOL0     H69945   7.238   8.151  11.408  0.8733  3.5807 -1.1993
  507MOL0     H69946   7.899   7.273  11.972 -2.0851  0.0452  0.7261
  507MOL0     H69947   7.876   7.036  11.960 -0.3584 -1.9137 -1.4105
  507MOL0     H69948   7.872   6.685  11.681  1.2867 -1.6652 -0.9555
  507MOL0     H69949   7.919   6.451  11.734  0.0189  0.5808 -0.4185
  507MOL0     H69950   7.718   5.306  10.671  0.6754 -1.1883  0.0488
  507MOL0     H69951   7.565   5.355  10.482 -2.6551  0.9569 -0.4056
  507MOL0     H69952   7.207   5.401  10.325 -1.8355 -1.6478  0.9781
  507MOL0     H69953   7.095   5.519  10.131  0.4386  0.3097 -1.7154
  507MOL0     H69954   7.023   5.297   9.733  1.0442 -1.3060  3.3323
  507MOL0     H69955   6.879   5.286   9.824  0.5827 -1.7787 -1.3984
  507MOL0     H69956   6.844   5.531   9.759 -0.1412  0.8463 -1.8610
  507MOL0     H69957   6.843   5.420   9.631 -1.6909  1.6861  0.1352
  507MOL0     H69958   7.115   5.527   9.683  1.0476  0.0464 -0.9258
  507MOL0     H69959   7.033   5.514   9.535  5.8037 -0.4120  1.6722
  507MOL0     H69960   6.877   5.708   9.610  0.2975 -1.6476 -1.9652
  507MOL0     H69961   7.044   5.747   9.566 -0.4650 -0.5808 -0.1147
  507MOL0     H69962   7.065   5.860   9.960  0.6239  1.5007 -0.7645
  507MOL0     H69963   7.087   5.139   9.931  2.5465 -0.9561 -0.1509
  507MOL0     H69964   7.137   4.933  10.159  1.5674 -2.3570 -2.5777
  507MOL0     H69965   7.195   4.953   9.998  1.2967 -2.1742  0.7751
  507MOL0     H69966   7.303   4.965  10.129  0.1826  2.2569  0.6307
  508MOL0     O69967   0.771   0.398   9.688  0.4362 -0.0970  0.5362
  508MOL0     C69968   0.666   0.332   9.663 -0.7356 -0.7554  0.0947
  508MOL0     O69969   0.673   0.209   9.604  0.4308 -0.8110 -0.0222
  508MOL0     C69970   0.796   0.170   9.580 -0.1241  0.6875  0.4127
  508MOL0     C69971   0.882   0.099   9.672 -0.1556 -0.4613  0.0600
  508MOL0     C69972   0.999   0.048   9.633 -0.4091 -0.1990  0.5079
  508MOL0     C69973   1.047   0.056   9.506 -0.4114 -0.1718  0.5922
  508MOL0     O69974   1.182   0.024   9.470  0.2007  0.2748 -0.0313
  508MOL0     C69975   1.246   0.091   9.358  0.0208 -0.0628  1.2405
  508MOL0     C69976   1.404   0.062   9.348  0.3984  0.1275 -0.6681
  508MOL0     C69977   1.474   0.111   9.227  0.8996  0.9820  0.3081
  508MOL0     C69978   1.438   0.038   9.096  0.2443 -0.0509 -0.3490
  508MOL0     C69979   1.546   0.069   8.995  0.1858 -0.3759 -0.3300
  508MOL0     C69980   1.525   0.006   8.850 -0.1986 -0.0610 -0.0132
  508MOL0     C69981   1.514  -0.144   8.855  0.1439 -0.5928  0.1138
  508MOL0     C69982   1.536  -0.226   8.727 -1.6152  0.7834 -0.5747
  508MOL0     N69983   1.663  -0.184   8.659 -0.1740  0.4172  0.2892
  508MOL0     C69984   1.795  -0.237   8.677  0.3440 -0.6589  0.2221
  508MOL0     C69985   1.867  -0.187   8.572  0.6912  0.1165  0.2438
  508MOL0     C69986   2.004  -0.240   8.557 -0.0790  0.5727  0.2663
  508MOL0     C69987   2.094  -0.137   8.492  0.5332 -0.5304 -0.6892
  508MOL0     C69988   2.210  -0.201   8.424 -0.1062 -0.0931  0.3542
  508MOL0     C69989   2.321  -0.106   8.383  0.0935 -0.5744  0.0678
  508MOL0     O69990   2.371  -0.038   8.506  0.2920 -0.1727  0.3749
  508MOL0     C69991   2.460   0.063   8.473 -0.1886 -0.1481  0.8022
  508MOL0     C69992   2.514   0.111   8.348  0.3958 -0.9448  0.9696
  508MOL0     C69993   2.607   0.216   8.339  0.0503  0.4184  0.8248
  508MOL0     C69994   2.635   0.272   8.210  0.7270  0.3772 -0.7180
  508MOL0     C69995   2.660   0.263   8.460  0.3644  0.3267 -1.3411
  508MOL0     C69996   2.767   0.363   8.468  0.1782  0.3574  0.9333
  508MOL0     O69997   2.870   0.348   8.367  0.6522  0.3209  0.5155
  508MOL0     C69998   2.965   0.450   8.358 -0.4358  0.1287 -0.1718
  508MOL0     C69999   2.987   0.520   8.240  0.1931  0.5728  0.3575
  508MOL0     C70000   3.078   0.626   8.233  1.0787 -0.9496 -0.5101
  508MOL0     C70001   3.149   0.670   8.346  1.1728 -0.4556  0.2180
  508MOL0     O70002   3.245   0.768   8.321 -0.5351  0.7145  0.4872
  508MOL0     C70003   3.324   0.804   8.442 -0.0045 -0.0730 -0.0750
  508MOL0     C70004   3.418   0.926   8.408 -0.0843  0.4291  0.1343
  508MOL0     C70005   3.551   0.877   8.352  0.0807  0.1391  0.7178
  508MOL0     C70006   3.641   0.997   8.334  0.6195  0.4700 -0.3233
  508MOL0     C70007   3.785   0.944   8.334  0.5185 -0.5808  0.2559
  508MOL0     C70008   3.878   1.065   8.351 -0.9334  0.2886  0.2830
  508MOL0     C70009   3.868   1.170   8.231  0.1252  0.5092  0.9469
  508MOL0     C70010   3.965   1.282   8.228 -0.4725 -0.7541  0.9662
  508MOL0    Cl70011   3.884   1.422   8.146 -0.1296  0.0085 -0.6548
  508MOL0     C70012   3.134   0.598   8.471  0.5035 -0.9169 -0.2471
  508MOL0     C70013   3.039   0.487   8.473 -0.0219 -0.2393 -0.6825
  508MOL0     O70014   2.758   0.454   8.547  0.3425 -0.1042 -1.0031
  508MOL0     C70015   2.615   0.205   8.583  0.3581 -0.9598  0.3348
  508MOL0     C70016   2.507   0.117   8.591 -0.0095  0.0122 -0.0887
  508MOL0     N70017   1.788  -0.116   8.484  0.6515 -0.0715  0.2939
  508MOL0     N70018   1.672  -0.104   8.548  1.1065 -0.2447 -0.2600
  508MOL0     C70019   0.971   0.126   9.414  0.3118  0.6219 -0.6226
  508MOL0     C70020   0.840   0.173   9.446 -0.9936  1.4906 -0.1128
  508MOL0     C70021   0.534   0.391   9.697  0.2293  0.5248  0.9577
  508MOL0     C70022   0.423   0.302   9.698 -0.1548  0.4388  0.6119
  508MOL0     C70023   0.297   0.342   9.727  0.1264 -0.6879  0.5021
  508MOL0     C70024   0.273   0.482   9.759 -0.7027  0.1060  0.0630
  508MOL0     O70025   0.155   0.548   9.780 -0.0373  0.5418 -0.1839
  508MOL0     C70026   0.032   0.477   9.783  0.2552  0.0503 -0.3012
  508MOL0     C70027  -0.012   0.441   9.635  0.5155 -0.7665  0.1278
  508MOL0     C70028  -0.101   0.571   9.606  0.6428 -0.3682  1.4682
  508MOL0     C70029  -0.122   0.592   9.460  0.4192  0.3639 -0.2351
  508MOL0     C70030  -0.180   0.719   9.434  0.5986 -0.3579  0.3128
  508MOL0     C70031  -0.219   0.820   9.390  0.3997  0.2468 -0.6581
  508MOL0     C70032   0.380   0.566   9.756 -0.6420 -0.3106 -1.2687
  508MOL0     C70033   0.509   0.522   9.725 -0.4704 -0.2225 -0.5870
  508MOL0     C70034   0.616   0.625   9.708 -0.8935 -0.8302  0.1878
  508MOL0     H70035   0.843   0.090   9.773  0.0586  1.7947  0.3794
  508MOL0     H70036   1.063   0.010   9.712 -0.5892 -3.0232 -0.6142
  508MOL0     H70037   1.218   0.197   9.365  0.5739  0.0047  2.8026
  508MOL0     H70038   1.196   0.062   9.265  1.8541  2.4560 -0.6624
  508MOL0     H70039   1.444   0.110   9.438 -0.6977 -1.7333  0.8872
  508MOL0     H70040   1.419  -0.046   9.356 -0.2617  0.0229 -0.7962
  508MOL0     H70041   1.444   0.214   9.203 -0.8968  0.3525 -0.2826
  508MOL0     H70042   1.581   0.115   9.247  0.9531  2.1701 -0.1434
  508MOL0     H70043   1.438  -0.070   9.115 -2.9249  0.1710  1.5480
  508MOL0     H70044   1.340   0.074   9.064  0.3585  2.2058  1.5519
  508MOL0     H70045   1.644   0.037   9.032 -0.6604 -1.6732  0.8865
  508MOL0     H70046   1.546   0.178   8.984 -4.3063 -0.0898  0.8647
  508MOL0     H70047   1.431   0.032   8.801  0.9065 -0.7240 -2.6459
  508MOL0     H70048   1.607   0.036   8.785 -0.6798 -1.8807 -1.5431
  508MOL0     H70049   1.414  -0.169   8.892 -0.5965 -0.2467 -1.5577
  508MOL0     H70050   1.595  -0.169   8.923  1.6322 -0.3718 -1.4894
  508MOL0     H70051   1.554  -0.326   8.768  4.5618  1.8496  0.3731
  508MOL0     H70052   1.456  -0.215   8.654 -0.0184  2.0892 -2.2316
  508MOL0     H70053   1.826  -0.296   8.762 -0.7453  1.0914  1.9275
  508MOL0     H70054   1.998  -0.324   8.487  0.8018 -0.0517  0.9131
  508MOL0     H70055   2.047  -0.275   8.652 -2.3359  0.1255  1.1788
  508MOL0     H70056   2.043  -0.077   8.417 -1.8810 -0.5586  0.7876
  508MOL0     H70057   2.131  -0.074   8.573  1.6612 -2.4662  0.3860
  508MOL0     H70058   2.247  -0.283   8.486  1.3491  1.8125  2.1823
  508MOL0     H70059   2.171  -0.254   8.337  3.4665 -3.2425  0.4397
  508MOL0     H70060   2.410  -0.155   8.344  0.7503  0.9657 -0.4596
  508MOL0     H70061   2.274  -0.035   8.315 -3.8977  0.6830  3.6549
  508MOL0     H70062   2.482   0.063   8.256  1.7139 -1.8492  0.9512
  508MOL0     H70063   2.696   0.204   8.150  1.9619  2.0364 -1.4220
  508MOL0     H70064   2.689   0.367   8.212  2.2347 -0.4439  0.6590
  508MOL0     H70065   2.538   0.300   8.167  0.4359  0.7084  0.1281
  508MOL0     H70066   2.915   0.506   8.160  0.1570 -3.9452  0.9437
  508MOL0     H70067   3.091   0.675   8.137 -2.2666 -1.7478 -1.5280
  508MOL0     H70068   3.259   0.819   8.528 -0.6026 -1.6967 -0.2139
  508MOL0     H70069   3.382   0.716   8.471 -3.7393 -2.8011 -0.2089
  508MOL0     H70070   3.368   0.977   8.325 -0.6125  4.1207  2.4711
  508MOL0     H70071   3.433   0.986   8.498 -0.1502  0.3584  0.1928
  508MOL0     H70072   3.537   0.842   8.249 -0.1946  1.7684  0.1690
  508MOL0     H70073   3.579   0.793   8.417 -0.2549  0.6157  1.4964
  508MOL0     H70074   3.636   1.057   8.425  3.8591  0.2984  0.0785
  508MOL0     H70075   3.617   1.066   8.253 -0.0467 -2.6911 -3.0137
  508MOL0     H70076   3.796   0.879   8.422 -5.4506 -0.2795  1.6625
  508MOL0     H70077   3.816   0.881   8.251 -0.5169 -3.0835  1.6528
  508MOL0     H70078   3.978   1.032   8.378 -1.2701 -1.9601 -0.9497
  508MOL0     H70079   3.858   1.117   8.445 -0.8760  2.2090 -0.6982
  508MOL0     H70080   3.771   1.216   8.250 -1.3803 -1.7755 -0.7454
  508MOL0     H70081   3.880   1.124   8.132  3.7354  0.7004  1.1638
  508MOL0     H70082   4.061   1.258   8.180 -1.3747 -1.6663 -0.4610
  508MOL0     H70083   3.995   1.293   8.332 -1.8372 -1.3853  1.4521
  508MOL0     H70084   3.201   0.611   8.555 -1.8608  0.8107  1.5100
  508MOL0     H70085   3.019   0.427   8.562  1.1685 -2.5590 -1.8951
  508MOL0     H70086   2.661   0.237   8.676 -0.6533  1.7058  0.0015
  508MOL0     H70087   2.479   0.074   8.687  1.0344  2.3102  1.3169
  508MOL0     H70088   0.998   0.149   9.312 -0.8505 -0.2823 -1.1508
  508MOL0     H70089   0.771   0.228   9.383 -1.9107 -0.8449 -1.2788
  508MOL0     H70090   0.439   0.204   9.653 -2.3239  0.9260 -1.4000
  508MOL0     H70091   0.229   0.258   9.721  1.3891 -1.6556 -0.9616
  508MOL0     H70092   0.055   0.378   9.823 -1.5877 -0.4622 -0.4164
  508MOL0     H70093  -0.047   0.521   9.844  1.8628  2.9418 -0.1561
  508MOL0     H70094  -0.076   0.353   9.644 -0.8863  0.0176 -1.5468
  508MOL0     H70095   0.072   0.420   9.569 -0.6041 -1.2243 -1.1953
  508MOL0     H70096  -0.190   0.589   9.666 -0.1117 -0.5275  0.4200
  508MOL0     H70097  -0.045   0.658   9.644 -0.4339  1.4863 -0.8996
  508MOL0     H70098  -0.207   0.529   9.436 -0.4651  2.0929 -1.8408
  508MOL0     H70099  -0.045   0.558   9.390 -1.1145  2.0578 -2.9144
  508MOL0     H70100  -0.233   0.916   9.345 -1.3673  0.4427  0.2381
  508MOL0     H70101   0.359   0.664   9.798 -4.0209 -1.4907  0.1490
  508MOL0     H70102   0.679   0.631   9.797 -0.5873 -0.1922 -0.0672
  508MOL0     H70103   0.671   0.603   9.616 -0.1747 -0.6464  0.5688
  508MOL0     H70104   0.574   0.726   9.700  2.7485  0.9941  2.0452
  509MOL0     O70105  10.575   0.147   9.802 -0.5485  1.7285 -0.7401
  509MOL0     C70106  10.503   0.075   9.873  0.6070 -1.1419  0.0195
  509MOL0     O70107  10.505  -0.060   9.873  0.2101 -0.0654 -0.2001
  509MOL0     C70108  10.579  -0.128   9.782  0.1246 -0.1534 -0.2928
  509MOL0     C70109  10.548  -0.104   9.643 -0.2706 -0.4821 -0.0030
  509MOL0     C70110  10.625  -0.173   9.549 -0.1673  0.2232  0.6193
  509MOL0     C70111  10.722  -0.267   9.591  0.6450  0.0772 -0.0537
  509MOL0     O70112  10.788  -0.342   9.495  0.0639 -0.2934  0.4020
  509MOL0     C70113  10.803  -0.488   9.522  0.8656  0.9711  0.4154
  509MOL0     C70114  10.671  -0.565   9.542 -0.1771 -0.4926 -0.1328
  509MOL0     C70115  10.612  -0.583   9.402  0.3493  0.2513 -0.0621
  509MOL0     C70116  10.485  -0.681   9.402 -0.5753 -0.8914  0.4896
  509MOL0     C70117  10.450  -0.715   9.254 -0.3269 -0.7135  1.1550
  509MOL0     C70118  10.415  -0.595   9.163  1.3238  0.2032 -0.2340
  509MOL0     C70119  10.357  -0.623   9.024 -0.4779 -0.5995  0.8321
  509MOL0     C70120  10.215  -0.672   9.025  0.1926 -0.1329 -0.1783
  509MOL0     N70121  10.157  -0.701   8.898  0.2069 -0.0826 -0.1116
  509MOL0     C70122  10.079  -0.814   8.872 -0.3241  0.2005  0.7266
  509MOL0     C70123  10.060  -0.809   8.735  0.0163 -0.0179  0.2887
  509MOL0     C70124   9.988  -0.897   8.635 -0.4612 -0.5096 -0.2044
  509MOL0     C70125  10.065  -1.032   8.611  0.3466 -0.2289 -0.5236
  509MOL0     C70126  10.025  -1.092   8.484 -1.3006  0.1639  0.0290
  509MOL0     C70127  10.105  -1.227   8.474  0.3725  0.4998 -0.3587
  509MOL0     O70128  10.085  -1.296   8.350 -0.0549 -0.7477  0.0878
  509MOL0     C70129  10.133  -1.425   8.331  0.6227  0.0756 -0.2486
  509MOL0     C70130  10.194  -1.455   8.207  0.6856  0.2238  0.7318
  509MOL0     C70131  10.227  -1.587   8.164 -1.1659 -0.2929 -0.4470
  509MOL0     C70132  10.280  -1.617   8.027 -0.0420 -0.8301 -0.2637
  509MOL0     C70133  10.247  -1.680   8.270  0.3983  0.6048 -0.0552
  509MOL0     C70134  10.323  -1.803   8.244 -0.1405  0.5691  0.4588
  509MOL0     O70135  10.449  -1.788   8.285  0.8384 -0.1922  0.6538
  509MOL0     C70136  10.515  -1.903   8.320 -0.1368 -0.0350 -0.0986
  509MOL0     C70137  10.616  -1.956   8.234  0.4919 -0.9897  0.5938
  509MOL0     C70138  10.703  -2.053   8.283  0.9973 -0.3245  0.0437
  509MOL0     C70139  10.690  -2.104   8.417 -0.4683 -0.0532  0.5707
  509MOL0     O70140  10.770  -2.203   8.469 -0.2708  0.1368 -0.1088
  509MOL0     C70141  10.758  -2.236   8.610 -0.7790  0.1641 -0.9582
  509MOL0     C70142  10.825  -2.368   8.625 -0.6568  0.2964  0.4992
  509MOL0     C70143  10.961  -2.353   8.559 -0.1856  0.0924 -0.3336
  509MOL0     C70144  11.041  -2.477   8.587  1.0472  0.0212 -0.2519
  509MOL0     C70145  11.182  -2.474   8.531 -0.4076 -0.0601  0.6625
  509MOL0     C70146  11.283  -2.576   8.604  0.1864 -0.2809  0.3991
  509MOL0     C70147  11.416  -2.598   8.530 -0.0105 -0.5836  0.8394
  509MOL0     C70148  11.534  -2.643   8.615  0.6258 -0.0920 -0.9032
  509MOL0    Cl70149  11.687  -2.658   8.532 -0.1376 -0.2139 -0.0540
  509MOL0     C70150  10.595  -2.037   8.501  0.0320  0.2132 -0.1818
  509MOL0     C70151  10.500  -1.950   8.446 -0.7874 -0.0646 -0.3907
  509MOL0     O70152  10.288  -1.883   8.165 -0.5196  0.0494 -0.5192
  509MOL0     C70153  10.195  -1.646   8.397 -0.2085 -0.3039  0.0812
  509MOL0     C70154  10.139  -1.524   8.428 -0.0719 -0.5121 -0.7979
  509MOL0     N70155  10.120  -0.699   8.690 -0.1168 -0.8760 -0.4760
  509MOL0     N70156  10.182  -0.634   8.788 -0.8506 -1.3535  0.3572
  509MOL0     C70157  10.753  -0.289   9.721  0.3419 -0.3681 -0.3087
  509MOL0     C70158  10.684  -0.217   9.819  0.2449  0.1446  1.0013
  509MOL0     C70159  10.416   0.138   9.986  0.0893  0.2022  0.3361
  509MOL0     C70160  10.365   0.273   9.969 -0.1977  0.2266 -0.5167
  509MOL0     C70161  10.277   0.334  10.056  0.6665  0.0352 -0.2444
  509MOL0     C70162  10.243   0.264  10.171  0.5974 -1.0365  0.4311
  509MOL0     O70163  10.152   0.330  10.260  0.0393  0.0419  0.0451
  509MOL0     C70164  10.122   0.270  10.386  0.8077  0.5680  0.1682
  509MOL0     C70165  10.032   0.349  10.480  0.7881 -0.7132  0.5033
  509MOL0     C70166  10.059   0.500  10.477  0.7689  0.3276  0.5746
  509MOL0     C70167   9.996   0.579  10.363  0.2035 -0.6218 -0.3385
  509MOL0     C70168   9.850   0.593  10.388  1.1739  0.2374 -0.8118
  509MOL0     C70169   9.731   0.594  10.421 -0.4323 -1.0827  0.7900
  509MOL0     C70170  10.296   0.135  10.196  0.9742  1.1646 -0.3045
  509MOL0     C70171  10.381   0.076  10.108  0.5076 -0.3290 -0.4712
  509MOL0     C70172  10.436  -0.062  10.156  0.0552 -0.1668 -0.3414
  509MOL0     H70173  10.462  -0.040   9.625  0.6581  1.5678  2.3028
  509MOL0     H70174  10.610  -0.167   9.442  4.1964  1.0111 -0.1394
  509MOL0     H70175  10.875  -0.487   9.605  0.6729  1.6292  0.5877
  509MOL0     H70176  10.853  -0.544   9.443  0.9277  2.4494 -0.6328
  509MOL0     H70177  10.683  -0.661   9.594 -1.2100 -0.0434  0.9823
  509MOL0     H70178  10.592  -0.511   9.595  0.2131 -1.5683  1.6313
  509MOL0     H70179  10.584  -0.483   9.367  1.5386  0.7144  0.2726
  509MOL0     H70180  10.691  -0.625   9.338 -0.4443 -0.3777 -0.6599
  509MOL0     H70181  10.513  -0.772   9.456 -2.1923 -1.9556 -0.3521
  509MOL0     H70182  10.408  -0.622   9.452  1.5807  1.7031  0.9658
  509MOL0     H70183  10.358  -0.773   9.261 -1.0897  0.4082  0.5981
  509MOL0     H70184  10.530  -0.774   9.209 -0.0943  0.2904  0.2002
  509MOL0     H70185  10.344  -0.532   9.218  0.4972 -0.0746 -0.9715
  509MOL0     H70186  10.503  -0.533   9.145  0.9747  0.9298  0.4669
  509MOL0     H70187  10.411  -0.708   8.980 -0.4972  0.3169 -1.0460
  509MOL0     H70188  10.369  -0.532   8.965  2.7197 -0.6348  1.2344
  509MOL0     H70189  10.227  -0.769   9.075 -0.2945  0.5776  1.3667
  509MOL0     H70190  10.145  -0.625   9.095 -1.2310 -2.1173 -0.1587
  509MOL0     H70191  10.054  -0.901   8.933  1.1446 -0.9496 -0.2485
  509MOL0     H70192   9.993  -0.838   8.543  3.3159 -1.3728 -0.7182
  509MOL0     H70193   9.882  -0.914   8.655 -0.7046 -2.4591 -2.7075
  509MOL0     H70194  10.171  -1.005   8.611  0.2703  0.2868  1.8982
  509MOL0     H70195  10.035  -1.092   8.696 -5.6471  4.7285  1.5685
  509MOL0     H70196   9.915  -1.090   8.478 -1.3359 -0.1389  0.4992
  509MOL0     H70197  10.063  -1.019   8.413  1.4010 -1.8978 -0.8110
  509MOL0     H70198  10.211  -1.211   8.496  0.3770  0.3140 -0.2433
  509MOL0     H70199  10.070  -1.292   8.554  2.7311 -1.3461 -0.7338
  509MOL0     H70200  10.195  -1.376   8.133 -0.4912 -1.5031 -1.2063
  509MOL0     H70201  10.388  -1.601   8.019 -0.1126 -0.0020  0.2996
  509MOL0     H70202  10.222  -1.547   7.966  0.7435 -0.4156 -0.5550
  509MOL0     H70203  10.259  -1.719   7.996 -3.4278 -1.4140  3.2301
  509MOL0     H70204  10.630  -1.908   8.138 -2.1259 -0.3936  0.4163
  509MOL0     H70205  10.788  -2.077   8.220  2.8404  3.3808  0.8421
  509MOL0     H70206  10.812  -2.175   8.682 -2.3842 -1.7581  2.0692
  509MOL0     H70207  10.657  -2.242   8.650 -0.2377  2.6263  1.0332
  509MOL0     H70208  10.832  -2.392   8.732  0.8190 -1.8970 -0.0102
  509MOL0     H70209  10.773  -2.453   8.580  0.0434  0.8574 -1.4557
  509MOL0     H70210  11.014  -2.267   8.602 -0.0748  0.3677 -0.9995
  509MOL0     H70211  10.961  -2.334   8.451  2.8445  3.2402  0.0088
  509MOL0     H70212  10.986  -2.562   8.546  1.9380  0.7133 -3.0502
  509MOL0     H70213  11.052  -2.495   8.695 -2.9615  0.5198  0.3921
  509MOL0     H70214  11.174  -2.498   8.424 -1.8583 -3.1138  1.3384
  509MOL0     H70215  11.228  -2.375   8.540 -0.5873  0.1232 -0.2923
  509MOL0     H70216  11.243  -2.676   8.621 -2.2877  0.8772  2.1147
  509MOL0     H70217  11.309  -2.536   8.702  3.2128  0.0520 -0.4607
  509MOL0     H70218  11.439  -2.505   8.477 -0.8865 -1.2281 -0.7317
  509MOL0     H70219  11.405  -2.677   8.455  3.5050  0.0869 -0.5692
  509MOL0     H70220  11.496  -2.739   8.652  2.4028 -0.2763  0.6134
  509MOL0     H70221  11.548  -2.570   8.696  1.6846 -0.4413 -0.7597
  509MOL0     H70222  10.571  -2.056   8.605 -3.4709  1.8101 -0.5360
  509MOL0     H70223  10.414  -1.905   8.495 -1.2324 -0.6584 -0.6143
  509MOL0     H70224  10.206  -1.704   8.488 -1.0100  1.9359  1.7248
  509MOL0     H70225  10.103  -1.504   8.528  0.0638  3.2495 -1.3348
  509MOL0     H70226  10.805  -0.377   9.756 -0.8448 -0.9545  0.0232
  509MOL0     H70227  10.710  -0.240   9.922 -0.1740 -0.8004  0.9032
  509MOL0     H70228  10.387   0.328   9.877  1.3579 -3.8353 -2.8431
  509MOL0     H70229  10.241   0.436  10.047  0.1222 -0.2458 -1.5209
  509MOL0     H70230  10.081   0.170  10.371 -0.0782  0.8105  0.9306
  509MOL0     H70231  10.208   0.256  10.452 -0.9023 -0.9873  2.1965
  509MOL0     H70232  10.043   0.305  10.580 -2.4088 -1.0256  0.8272
  509MOL0     H70233   9.926   0.343  10.456  0.6929  0.1902  0.6681
  509MOL0     H70234  10.030   0.553  10.569  1.6461 -1.3250  1.8502
  509MOL0     H70235  10.165   0.523  10.463  0.8462 -0.3775 -0.0085
  509MOL0     H70236  10.007   0.530  10.266  0.6458  0.9990 -1.1349
  509MOL0     H70237  10.043   0.677  10.364  2.2587 -1.5338  1.5097
  509MOL0     H70238   9.632   0.617  10.455 -1.3823  0.1792 -2.4843
  509MOL0     H70239  10.276   0.088  10.292 -2.5933  0.4952 -1.2370
  509MOL0     H70240  10.436  -0.073  10.265 -0.9125  0.3859 -0.2791
  509MOL0     H70241  10.376  -0.139  10.106  0.6400 -0.2653 -0.9071
  509MOL0     H70242  10.541  -0.069  10.126 -0.5953  0.6016 -3.1228
  510MOL0     O70243   1.660  11.036   1.171  1.0051 -0.7530  0.7473
  510MOL0     C70244   1.559  11.007   1.241 -0.0445  0.1973  0.7285
  510MOL0     O70245   1.563  10.940   1.366 -0.4795 -0.4645  1.1470
  510MOL0     C70246   1.674  10.873   1.406  0.6292  0.4461  0.2274
  510MOL0     C70247   1.687  10.863   1.546 -0.1877 -0.1242 -0.0277
  510MOL0     C70248   1.787  10.792   1.610 -0.4902  0.2665  0.2793
  510MOL0     C70249   1.886  10.732   1.529 -0.1558 -0.2026 -0.0528
  510MOL0     O70250   1.983  10.647   1.576  0.0674 -0.1398 -0.0317
  510MOL0     C70251   1.961  10.564   1.694  0.2403 -0.1098  0.8151
  510MOL0     C70252   2.048  10.618   1.801 -1.0741  0.2242  0.5039
  510MOL0     C70253   2.199  10.620   1.774 -0.2772  0.1209 -0.3900
  510MOL0     C70254   2.274  10.642   1.906 -0.2799  0.2811  0.2365
  510MOL0     C70255   2.286  10.787   1.949  0.8075 -0.4275 -0.8911
  510MOL0     C70256   2.367  10.783   2.086 -0.1805 -0.1901 -0.4975
  510MOL0     C70257   2.375  10.920   2.160 -0.3404 -0.1971  0.7873
  510MOL0     C70258   2.464  11.017   2.080 -0.6764  0.1434  0.8951
  510MOL0     N70259   2.473  11.146   2.154 -0.6445  0.3396 -0.1521
  510MOL0     C70260   2.545  11.169   2.261  0.4974 -0.5844 -0.1424
  510MOL0     C70261   2.508  11.290   2.289  0.5062 -0.1010  0.2087
  510MOL0     C70262   2.566  11.356   2.400 -0.2582  0.6809 -0.7736
  510MOL0     C70263   2.711  11.393   2.385 -0.6453  0.1015 -0.3952
  510MOL0     C70264   2.778  11.431   2.511  0.2025  0.2232 -0.4357
  510MOL0     C70265   2.827  11.319   2.599 -0.4808  0.2548 -0.2668
  510MOL0     O70266   2.957  11.353   2.641 -0.1331 -0.0529 -0.5752
  510MOL0     C70267   3.066  11.297   2.581 -0.4475  0.1253 -0.8900
  510MOL0     C70268   3.163  11.222   2.646  0.1652  1.3031 -0.2069
  510MOL0     C70269   3.254  11.134   2.585  0.3693 -0.7808  0.2647
  510MOL0     C70270   3.339  11.056   2.683  0.9672  0.5668  1.0960
  510MOL0     C70271   3.246  11.110   2.447  0.3532  0.9295 -0.5165
  510MOL0     C70272   3.344  11.018   2.372 -0.6755 -0.0061  0.5780
  510MOL0     O70273   3.328  11.015   2.235 -0.4294 -0.1224  0.9045
  510MOL0     C70274   3.401  10.917   2.168 -0.2601  0.8039 -0.3120
  510MOL0     C70275   3.342  10.811   2.110  0.2061  0.0460  0.3824
  510MOL0     C70276   3.417  10.723   2.023 -0.0252 -0.2295  0.1628
  510MOL0     C70277   3.557  10.737   2.006 -0.3088  0.4894  0.1296
  510MOL0     O70278   3.633  10.665   1.919  0.4551  0.4578  0.8286
  510MOL0     C70279   3.594  10.525   1.912  0.1811  1.4447  0.5929
  510MOL0     C70280   3.678  10.470   1.801  0.1113  0.1675  0.0053
  510MOL0     C70281   3.831  10.484   1.819 -0.6233  0.5497 -0.5363
  510MOL0     C70282   3.899  10.417   1.701 -0.0422 -0.1206 -0.5385
  510MOL0     C70283   4.046  10.407   1.733  0.3286  0.5974 -0.5770
  510MOL0     C70284   4.098  10.328   1.609 -0.2990  0.6851  0.3205
  510MOL0     C70285   4.250  10.341   1.610  0.4337 -0.1146  0.1845
  510MOL0     C70286   4.317  10.462   1.557 -0.9453  0.4239  0.2355
  510MOL0    Cl70287   4.277  10.480   1.381  0.3555 -0.2734 -0.2366
  510MOL0     C70288   3.617  10.841   2.072 -0.2030  0.0725  0.6644
  510MOL0     C70289   3.540  10.944   2.134  0.6481 -0.0232 -0.3641
  510MOL0     O70290   3.437  10.957   2.434  0.2883 -0.5045 -0.3583
  510MOL0     C70291   3.148  11.186   2.376 -0.7307  0.9908  0.6474
  510MOL0     C70292   3.067  11.285   2.440  0.3746 -0.4550 -0.0741
  510MOL0     N70293   2.424  11.350   2.199 -0.5473 -0.6644 -0.3528
  510MOL0     N70294   2.410  11.262   2.115  0.2368  0.2055 -0.0510
  510MOL0     C70295   1.879  10.742   1.387 -0.0915  0.3955 -1.6124
  510MOL0     C70296   1.775  10.812   1.327 -0.1778  0.2975  0.2809
  510MOL0     C70297   1.431  11.060   1.195  0.4403 -1.6280  0.2512
  510MOL0     C70298   1.428  11.177   1.104 -0.0053  0.4754  0.2691
  510MOL0     C70299   1.312  11.234   1.061 -0.0497  0.2348  0.3455
  510MOL0     C70300   1.192  11.176   1.104 -0.4710  0.0904  0.3584
  510MOL0     O70301   1.078  11.236   1.071  0.1882 -0.0815  0.1972
  510MOL0     C70302   1.064  11.366   1.015  0.9777  0.8281  0.0715
  510MOL0     C70303   1.062  11.355   0.865  0.5940  0.0764  0.3877
  510MOL0     C70304   0.917  11.315   0.823  0.7089  0.0372  0.3417
  510MOL0     C70305   0.891  11.167   0.844 -0.6622  0.0287 -0.1456
  510MOL0     C70306   0.786  11.119   0.755  0.3584 -0.3375 -0.0208
  510MOL0     C70307   0.698  11.079   0.678 -0.1680  0.0215 -0.0485
  510MOL0     C70308   1.188  11.063   1.179  0.2448  0.8395 -1.1608
  510MOL0     C70309   1.306  10.993   1.217  0.3181 -0.0991 -0.1748
  510MOL0     C70310   1.284  10.869   1.290  0.2446  0.1851 -0.2475
  510MOL0     H70311   1.614  10.917   1.605  1.0781  0.0824  1.4185
  510MOL0     H70312   1.794  10.784   1.718 -0.3288 -0.0816  0.2422
  510MOL0     H70313   1.976  10.457   1.677 -1.1669 -0.2521  0.3385
  510MOL0     H70314   1.854  10.560   1.715 -0.1551 -0.5789 -1.1057
  510MOL0     H70315   2.008  10.720   1.808  1.4489  1.5767 -2.5160
  510MOL0     H70316   2.036  10.563   1.896  1.0046 -0.4205  0.4394
  510MOL0     H70317   2.214  10.518   1.739 -1.3554  0.2764 -1.3599
  510MOL0     H70318   2.234  10.693   1.701  1.9879 -1.6598 -1.1965
  510MOL0     H70319   2.233  10.578   1.985 -3.2146  1.2814 -0.3759
  510MOL0     H70320   2.374  10.600   1.895 -0.1882  0.2128  1.2098
  510MOL0     H70321   2.191  10.840   1.962  1.6325  0.6049  1.4723
  510MOL0     H70322   2.336  10.857   1.882  0.8913  1.7968  1.3405
  510MOL0     H70323   2.319  10.712   2.153 -0.3849 -0.0669 -0.5138
  510MOL0     H70324   2.467  10.743   2.066  0.9082  0.8032  2.4137
  510MOL0     H70325   2.428  10.909   2.255  1.5927  2.4251  0.1352
  510MOL0     H70326   2.280  10.965   2.188  0.7407  1.2163  2.4626
  510MOL0     H70327   2.564  10.977   2.061 -2.1225 -1.9003 -3.9549
  510MOL0     H70328   2.427  11.021   1.977  0.9136 -0.1755  0.2835
  510MOL0     H70329   2.604  11.105   2.326 -1.5130 -3.2081 -0.7477
  510MOL0     H70330   2.559  11.285   2.483  2.4804 -0.3763 -1.3289
  510MOL0     H70331   2.504  11.441   2.428 -0.6222  1.1309 -2.8278
  510MOL0     H70332   2.764  11.304   2.348 -1.2662 -1.9936  3.2484
  510MOL0     H70333   2.719  11.475   2.313 -0.7012  0.5546  0.1181
  510MOL0     H70334   2.860  11.503   2.500  1.0564 -0.7297 -0.4875
  510MOL0     H70335   2.712  11.476   2.585 -1.4501 -3.1197  0.3079
  510MOL0     H70336   2.767  11.308   2.690  1.0233  2.7910  1.1554
  510MOL0     H70337   2.842  11.226   2.544  1.7629  0.5539 -0.2848
  510MOL0     H70338   3.139  11.217   2.751  1.7474 -2.2794  0.1453
  510MOL0     H70339   3.333  11.091   2.787  1.2300  0.4879  1.1363
  510MOL0     H70340   3.444  11.080   2.669  0.8176  1.3192  1.2227
  510MOL0     H70341   3.316  10.949   2.684  3.0249  0.0870  0.5930
  510MOL0     H70342   3.235  10.797   2.117  0.2951 -0.5207  0.6512
  510MOL0     H70343   3.352  10.651   1.974 -1.5807 -0.0671  1.9194
  510MOL0     H70344   3.627  10.461   1.995 -0.5706 -0.0615 -0.2407
  510MOL0     H70345   3.487  10.517   1.891  0.1681  2.7790  0.0526
  510MOL0     H70346   3.639  10.369   1.783  0.2057  0.2494 -0.6995
  510MOL0     H70347   3.646  10.523   1.711  0.3875  0.9634  0.3690
  510MOL0     H70348   3.862  10.447   1.916 -2.0459 -1.5692 -0.8252
  510MOL0     H70349   3.840  10.593   1.819 -2.9889  0.8084  0.1806
  510MOL0     H70350   3.884  10.476   1.610  1.6773 -2.1150 -2.2184
  510MOL0     H70351   3.851  10.320   1.685  0.7805 -0.9185  1.4848
  510MOL0     H70352   4.092  10.506   1.744 -0.5992  0.9198  0.7644
  510MOL0     H70353   4.054  10.351   1.827 -6.0728  1.5550  1.0354
  510MOL0     H70354   4.066  10.370   1.513  1.9494  1.2027 -0.2646
  510MOL0     H70355   4.068  10.223   1.610 -3.3533  1.4219 -1.6053
  510MOL0     H70356   4.284  10.255   1.550 -1.7436 -1.4037  0.7001
  510MOL0     H70357   4.289  10.331   1.712  3.1670 -2.7182 -0.9568
  510MOL0     H70358   4.423  10.436   1.564 -0.5979  1.6181 -0.3033
  510MOL0     H70359   4.297  10.549   1.621 -1.7787 -1.7357  3.0824
  510MOL0     H70360   3.722  10.855   2.051 -0.1670 -1.9885 -0.8505
  510MOL0     H70361   3.594  11.030   2.172 -0.6300  0.4710  0.3684
  510MOL0     H70362   3.139  11.196   2.269 -0.2546 -0.9762  0.3855
  510MOL0     H70363   3.004  11.344   2.374 -0.6601 -0.8918  0.4938
  510MOL0     H70364   1.966  10.698   1.339  2.8256  3.1611  0.7099
  510MOL0     H70365   1.781  10.814   1.219 -1.5686 -0.7959  0.1595
  510MOL0     H70366   1.522  11.228   1.086  1.4770 -2.0962  0.1843
  510MOL0     H70367   1.332  11.314   0.991  0.4639  0.4158  0.6914
  510MOL0     H70368   0.976  11.417   1.055 -1.3685 -0.1694 -3.4116
  510MOL0     H70369   1.138  11.442   1.045 -0.6714  2.2994  0.5688
  510MOL0     H70370   1.140  11.289   0.826  0.9392  1.7249 -1.9641
  510MOL0     H70371   1.084  11.455   0.824 -1.2257  0.2172 -0.3590
  510MOL0     H70372   0.839  11.377   0.868  0.1081 -2.3067  2.8185
  510MOL0     H70373   0.926  11.333   0.715  1.4448  0.0751  0.4026
  510MOL0     H70374   0.876  11.134   0.948 -2.4302 -2.5241 -1.0998
  510MOL0     H70375   0.984  11.112   0.823 -0.6650 -1.4506  3.1015
  510MOL0     H70376   0.624  11.037   0.614  0.5673 -0.7830 -0.3815
  510MOL0     H70377   1.086  11.030   1.197  1.6347 -2.1137  2.2481
  510MOL0     H70378   1.211  10.890   1.369  0.3278 -2.3945  0.6271
  510MOL0     H70379   1.241  10.790   1.227 -1.6100  0.6055  0.4514
  510MOL0     H70380   1.370  10.824   1.342  0.2869  0.4950 -0.0438
  511MOL0     O70381   4.799  10.006   4.699  0.2708  0.4609 -0.1615
  511MOL0     C70382   4.740   9.922   4.633  0.3633  0.8577 -0.2095
  511MOL0     O70383   4.783   9.793   4.623  0.2723 -0.3710 -0.9835
  511MOL0     C70384   4.900   9.750   4.674  0.5037  0.1944 -0.0178
  511MOL0     C70385   5.018   9.766   4.606  0.0670 -0.0975 -0.1738
  511MOL0     C70386   5.138   9.722   4.661  0.7057 -0.4736 -0.2129
  511MOL0     C70387   5.143   9.664   4.790 -0.0202  0.5410  0.3241
  511MOL0     O70388   5.268   9.622   4.843 -0.2315 -0.1556 -0.4283
  511MOL0     C70389   5.374   9.716   4.826 -0.1540  0.9821 -0.4997
  511MOL0     C70390   5.364   9.833   4.923 -0.2579 -0.4314  0.2206
  511MOL0     C70391   5.481   9.920   4.886 -0.2187 -0.0171  0.1239
  511MOL0     C70392   5.603   9.915   4.988  0.1161 -0.0140  0.3694
  511MOL0     C70393   5.712  10.015   4.940  0.3876 -0.2156  0.7247
  511MOL0     C70394   5.807   9.940   4.851 -0.5468 -0.3947 -0.2113
  511MOL0     C70395   5.908  10.028   4.775 -0.1066  0.2614 -0.6553
  511MOL0     C70396   5.865  10.119   4.656 -0.6777  0.3247 -0.0235
  511MOL0     N70397   5.809  10.047   4.547  1.0638 -0.2881  0.6968
  511MOL0     C70398   5.670  10.025   4.532  0.8219 -0.4128  0.5929
  511MOL0     C70399   5.652   9.927   4.439  0.9753 -0.3597 -1.1068
  511MOL0     C70400   5.523   9.884   4.398 -0.5039 -0.2095 -0.0636
  511MOL0     C70401   5.511   9.733   4.412 -0.3237 -0.1718  0.2701
  511MOL0     C70402   5.590   9.675   4.534 -0.1972  1.1201  0.3987
  511MOL0     C70403   5.570   9.531   4.559  0.6600 -0.6859  0.1595
  511MOL0     O70404   5.439   9.496   4.604 -0.1805 -0.8345  0.0125
  511MOL0     C70405   5.379   9.378   4.582 -0.0189  0.6175  0.3244
  511MOL0     C70406   5.251   9.377   4.544 -0.3645 -0.2332 -0.5796
  511MOL0     C70407   5.180   9.260   4.517 -0.1681  0.4363  0.2312
  511MOL0     C70408   5.036   9.271   4.465 -1.1213  0.0150 -0.2088
  511MOL0     C70409   5.251   9.134   4.523 -0.6254  0.5651  0.8364
  511MOL0     C70410   5.200   9.006   4.469  0.3040 -0.2234  0.5337
  511MOL0     O70411   5.133   9.011   4.351 -0.2847  0.2564  0.9550
  511MOL0     C70412   5.070   8.897   4.321  0.4685  0.5951 -0.3437
  511MOL0     C70413   4.955   8.842   4.385 -0.3438 -1.0177 -0.2959
  511MOL0     C70414   4.881   8.746   4.327 -0.1698  0.5527  0.1205
  511MOL0     C70415   4.913   8.689   4.207 -0.4034  0.8090  0.0036
  511MOL0     O70416   4.846   8.576   4.168  0.3729 -0.0729 -0.0324
  511MOL0     C70417   4.859   8.515   4.040  0.1202 -0.3593 -0.1294
  511MOL0     C70418   4.756   8.410   3.994  0.0975  0.0166 -0.7280
  511MOL0     C70419   4.619   8.466   3.951  0.4106 -0.0965 -0.4720
  511MOL0     C70420   4.517   8.346   3.940 -0.6403  0.3087  0.0171
  511MOL0     C70421   4.391   8.388   3.863 -0.2950  0.2356  0.2041
  511MOL0     C70422   4.267   8.301   3.903 -0.1980 -0.2581 -0.3054
  511MOL0     C70423   4.150   8.316   3.804 -0.8405 -0.3210  0.0574
  511MOL0     C70424   4.108   8.456   3.789  0.3154 -1.4455  0.5224
  511MOL0    Cl70425   3.977   8.476   3.668  0.0756  0.3262 -0.3805
  511MOL0     C70426   5.028   8.738   4.140  0.3792  0.3145 -0.3997
  511MOL0     C70427   5.106   8.837   4.198 -0.2348 -0.7863  0.9346
  511MOL0     O70428   5.234   8.901   4.511 -0.4354 -0.3110 -0.0832
  511MOL0     C70429   5.382   9.138   4.569 -0.2019 -0.8793 -0.7802
  511MOL0     C70430   5.447   9.261   4.607  0.9198  0.4559  0.3015
  511MOL0     N70431   5.776   9.886   4.406 -0.0792 -0.4984  0.2012
  511MOL0     N70432   5.869   9.955   4.469  0.4248  0.0878 -0.2373
  511MOL0     C70433   5.015   9.646   4.858 -0.8472  0.1972  0.6603
  511MOL0     C70434   4.897   9.684   4.792  0.3721  0.0958 -0.7670
  511MOL0     C70435   4.604   9.960   4.567  0.2212  0.7152  0.1389
  511MOL0     C70436   4.539   9.847   4.497  0.3494  0.6797 -0.2902
  511MOL0     C70437   4.414   9.860   4.435 -0.0733 -0.6652 -0.6031
  511MOL0     C70438   4.354   9.987   4.430  0.7832  1.4624 -0.8311
  511MOL0     O70439   4.220  10.013   4.382 -0.1634 -1.0150  0.2861
  511MOL0     C70440   4.141   9.903   4.335 -1.4295 -0.6496 -0.0921
  511MOL0     C70441   4.003   9.961   4.329  0.3164  0.0858  0.3203
  511MOL0     C70442   3.924   9.843   4.275  1.2123 -0.1476 -0.2972
  511MOL0     C70443   3.777   9.872   4.249  0.0403 -0.0642 -0.4428
  511MOL0     C70444   3.718   9.743   4.205 -0.0967 -0.4154  0.2256
  511MOL0     C70445   3.659   9.642   4.178 -0.2661 -0.6550  0.0629
  511MOL0     C70446   4.418  10.092   4.480  0.3972 -0.4016  0.5283
  511MOL0     C70447   4.542  10.085   4.552  0.0988  0.1761  0.1593
  511MOL0     C70448   4.602  10.215   4.592  0.3887  0.8380 -0.3253
  511MOL0     H70449   5.018   9.814   4.508 -1.7692  0.4345  0.0534
  511MOL0     H70450   5.218   9.725   4.588 -0.6818  2.8406 -1.8002
  511MOL0     H70451   5.390   9.748   4.723  3.1377  0.4877 -0.2772
  511MOL0     H70452   5.464   9.655   4.846  0.1247  1.1594 -1.2042
  511MOL0     H70453   5.274   9.889   4.894  0.2100 -1.0014 -2.6689
  511MOL0     H70454   5.372   9.825   5.031  3.7345 -0.3307  0.0730
  511MOL0     H70455   5.524   9.888   4.791 -2.7820 -5.0290  0.3047
  511MOL0     H70456   5.426  10.014   4.894 -1.9330 -1.1326  4.0301
  511MOL0     H70457   5.580   9.942   5.092 -1.4460 -1.2743  0.4052
  511MOL0     H70458   5.643   9.813   4.996  2.3711  0.5894 -2.0173
  511MOL0     H70459   5.761  10.051   5.031 -0.7487 -0.7699  1.5827
  511MOL0     H70460   5.689  10.103   4.880  2.7144 -0.9011 -1.3261
  511MOL0     H70461   5.856   9.878   4.927  2.3390  2.0790  0.1498
  511MOL0     H70462   5.753   9.881   4.776 -1.3452 -0.3648  0.3340
  511MOL0     H70463   5.975   9.952   4.735 -2.1589 -3.2347  1.9761
  511MOL0     H70464   5.970  10.091   4.840 -0.0693  2.4343 -2.6877
  511MOL0     H70465   5.791  10.186   4.700  0.6788  0.4530  2.2100
  511MOL0     H70466   5.951  10.180   4.624  1.5436 -1.9716  1.2217
  511MOL0     H70467   5.596  10.080   4.588  2.1590  0.9281  1.1234
  511MOL0     H70468   5.509   9.921   4.296 -1.0070  0.0244  0.0871
  511MOL0     H70469   5.444   9.937   4.452  0.2643  1.8186 -0.8283
  511MOL0     H70470   5.406   9.706   4.423  0.6253 -3.8870  1.7408
  511MOL0     H70471   5.537   9.677   4.322 -1.2283 -2.1595  1.1921
  511MOL0     H70472   5.697   9.689   4.515  0.6160 -1.2761  2.5927
  511MOL0     H70473   5.573   9.725   4.630  0.8217 -0.7668  1.6356
  511MOL0     H70474   5.595   9.488   4.462  0.6781 -0.9713  0.2888
  511MOL0     H70475   5.638   9.496   4.637 -0.0500  2.6229  2.5093
  511MOL0     H70476   5.199   9.472   4.534  0.0713  0.0073 -0.5900
  511MOL0     H70477   5.035   9.329   4.372 -2.1165  0.8799  0.3247
  511MOL0     H70478   4.973   9.323   4.537  0.4443  2.7680 -0.6800
  511MOL0     H70479   4.985   9.175   4.453  1.3534 -1.3770 -0.3048
  511MOL0     H70480   4.936   8.866   4.489  2.6181 -0.1396  0.1327
  511MOL0     H70481   4.793   8.718   4.385 -1.9418  2.4251 -1.4755
  511MOL0     H70482   4.866   8.599   3.970  0.4606  0.7671  1.2187
  511MOL0     H70483   4.952   8.457   4.036  0.5317  0.2859 -0.0045
  511MOL0     H70484   4.803   8.353   3.914  1.9563 -1.6840  1.4256
  511MOL0     H70485   4.743   8.351   4.086 -0.1831  1.8573  0.4629
  511MOL0     H70486   4.642   8.510   3.853 -1.4259 -1.6050 -1.6488
  511MOL0     H70487   4.585   8.540   4.023  2.3158 -1.4651  2.0111
  511MOL0     H70488   4.495   8.313   4.042  2.7501  0.1400  0.8216
  511MOL0     H70489   4.564   8.263   3.886 -1.6677 -2.3595  2.8777
  511MOL0     H70490   4.357   8.491   3.877 -0.5260  0.5943 -2.4345
  511MOL0     H70491   4.404   8.373   3.755  0.9204  1.1767  0.1977
  511MOL0     H70492   4.221   8.329   3.998 -0.9478 -1.1451 -0.3875
  511MOL0     H70493   4.301   8.197   3.913  0.6896  0.1586  1.4332
  511MOL0     H70494   4.068   8.254   3.842  1.6028 -1.6933  3.6429
  511MOL0     H70495   4.185   8.274   3.709  0.1486  0.1265  0.2157
  511MOL0     H70496   4.193   8.508   3.745 -1.4739 -0.6622 -2.3576
  511MOL0     H70497   4.083   8.493   3.889 -2.2792 -1.4402 -0.0488
  511MOL0     H70498   5.060   8.691   4.047 -1.5660 -1.7527 -0.1017
  511MOL0     H70499   5.193   8.869   4.142 -1.2339  0.6963  0.1407
  511MOL0     H70500   5.451   9.055   4.573  0.7894 -0.1333 -1.6782
  511MOL0     H70501   5.546   9.245   4.649  0.3349  0.7860  1.8659
  511MOL0     H70502   5.014   9.600   4.957  1.8000 -4.0813 -1.0274
  511MOL0     H70503   4.802   9.662   4.839  2.0393  0.4924  3.1785
  511MOL0     H70504   4.582   9.748   4.499  0.6023  0.8021  0.8031
  511MOL0     H70505   4.368   9.774   4.387 -1.5562  1.0611 -2.4391
  511MOL0     H70506   4.183   9.875   4.238 -2.7115  1.7675 -1.4279
  511MOL0     H70507   4.156   9.814   4.397  2.3385 -0.9335 -1.1496
  511MOL0     H70508   3.995  10.054   4.272 -0.7229  1.7675  2.9911
  511MOL0     H70509   3.957   9.990   4.424 -0.0658  0.8988 -0.1058
  511MOL0     H70510   3.970   9.803   4.185  0.3366  0.7446 -1.1647
  511MOL0     H70511   3.921   9.772   4.359 -0.7447 -0.2725 -0.4203
  511MOL0     H70512   3.760   9.940   4.165 -0.9633  1.0328  0.6236
  511MOL0     H70513   3.732   9.911   4.340  3.4222 -0.8592  1.7372
  511MOL0     H70514   3.610   9.550   4.152 -1.8908  0.4207 -0.8399
  511MOL0     H70515   4.366  10.186   4.466  1.5203  0.1003 -0.4599
  511MOL0     H70516   4.623  10.220   4.699 -0.0263  3.1237 -0.2966
  511MOL0     H70517   4.697  10.233   4.541  0.3280 -0.6204 -0.9879
  511MOL0     H70518   4.539  10.301   4.567 -0.4492 -0.0307 -1.2878
  512MOL0     O70519   4.823   7.454   2.087  0.0067  0.3178 -0.0102
  512MOL0     C70520   4.777   7.519   2.175 -0.2927  0.2779 -0.0333
  512MOL0     O70521   4.658   7.576   2.182  0.3618 -0.2281  0.1320
  512MOL0     C70522   4.596   7.628   2.070  0.3924  0.6886  0.0031
  512MOL0     C70523   4.650   7.650   1.941 -0.2195  0.4538 -0.3746
  512MOL0     C70524   4.566   7.698   1.837  0.0052 -0.7264  0.5104
  512MOL0     C70525   4.428   7.712   1.862  0.1949  0.3514  0.2628
  512MOL0     O70526   4.349   7.753   1.759 -0.5162  0.8175 -0.9309
  512MOL0     C70527   4.267   7.874   1.787  0.3338  0.1101  0.6161
  512MOL0     C70528   4.228   7.938   1.657  0.5394  0.4016 -0.2280
  512MOL0     C70529   4.339   7.976   1.560 -1.0207 -0.6101 -0.3558
  512MOL0     C70530   4.283   8.054   1.448  0.4032 -0.0172  0.8117
  512MOL0     C70531   4.252   8.196   1.488 -0.3674 -0.4889 -0.7961
  512MOL0     C70532   4.371   8.297   1.494  0.0047  0.1708 -0.1154
  512MOL0     C70533   4.324   8.432   1.526 -0.1545 -0.0135 -0.3872
  512MOL0     C70534   4.439   8.526   1.578 -0.1607 -1.1725  0.4459
  512MOL0     N70535   4.387   8.665   1.578  0.4909 -0.0379  0.0319
  512MOL0     C70536   4.343   8.736   1.685 -0.2520  1.0953 -0.7871
  512MOL0     C70537   4.347   8.865   1.654 -0.2630 -0.4959 -0.2354
  512MOL0     C70538   4.313   8.988   1.747 -0.3264  0.4489 -0.3770
  512MOL0     C70539   4.167   8.978   1.806 -0.0967  1.2338  0.0489
  512MOL0     C70540   4.154   9.025   1.945 -0.6294 -0.8306 -0.5182
  512MOL0     C70541   4.173   8.907   2.049  0.3009  0.3077 -0.2458
  512MOL0     O70542   4.305   8.854   2.035 -0.1711 -0.5713  0.0202
  512MOL0     C70543   4.324   8.744   2.111 -0.1107  1.0510  0.3211
  512MOL0     C70544   4.236   8.677   2.197 -0.3534  0.0958  1.4164
  512MOL0     C70545   4.277   8.570   2.286 -0.5676 -0.6599  0.0622
  512MOL0     C70546   4.177   8.510   2.372  1.0825  0.2998  0.5260
  512MOL0     C70547   4.411   8.529   2.283  1.3671  0.0510 -0.9047
  512MOL0     C70548   4.485   8.453   2.392  0.7218  0.6563 -0.0161
  512MOL0     O70549   4.622   8.443   2.379 -0.3180 -0.0629 -0.5593
  512MOL0     C70550   4.695   8.375   2.476  0.2823  0.2252  0.6818
  512MOL0     C70551   4.665   8.391   2.613 -0.7411  0.5902 -0.4967
  512MOL0     C70552   4.750   8.306   2.703  0.9097 -0.1629 -0.2598
  512MOL0     C70553   4.855   8.216   2.663  0.3229  0.0545  0.8893
  512MOL0     O70554   4.933   8.166   2.759 -0.2571  0.4511 -0.0674
  512MOL0     C70555   5.060   8.112   2.720  0.0155  0.3103  0.6156
  512MOL0     C70556   5.147   8.073   2.838 -0.4606 -0.5482  0.4906
  512MOL0     C70557   5.280   8.140   2.852  0.0273 -0.1625 -0.5183
  512MOL0     C70558   5.377   8.076   2.745 -0.7488  0.4460 -0.3616
  512MOL0     C70559   5.524   8.112   2.745 -0.2676 -0.3476  0.4557
  512MOL0     C70560   5.542   8.258   2.727  0.2008 -0.8072 -0.0792
  512MOL0     C70561   5.689   8.289   2.707 -0.2320 -0.4936  0.9680
  512MOL0     C70562   5.765   8.288   2.839 -0.3138 -0.7793 -0.6114
  512MOL0    Cl70563   5.673   8.372   2.974 -0.5245  0.3556 -0.2184
  512MOL0     C70564   4.871   8.209   2.520  0.7710 -0.2359  0.3303
  512MOL0     C70565   4.799   8.293   2.431  0.2892 -1.0449  0.5865
  512MOL0     O70566   4.415   8.401   2.481  0.0863 -0.0432  0.6483
  512MOL0     C70567   4.495   8.579   2.176  0.0727  0.6958 -0.5126
  512MOL0     C70568   4.456   8.692   2.105 -0.4469  0.3138 -0.3083
  512MOL0     N70569   4.402   8.866   1.524  0.8120 -0.5802  0.6327
  512MOL0     N70570   4.429   8.748   1.481  0.1047  0.0384 -0.3832
  512MOL0     C70571   4.377   7.692   1.992 -0.8688  0.5560 -0.0487
  512MOL0     C70572   4.461   7.649   2.087 -0.1396  0.2020 -0.0170
  512MOL0     C70573   4.864   7.545   2.298 -0.2185 -0.6830  0.2033
  512MOL0     C70574   4.839   7.670   2.362 -0.5144 -0.6929  0.4956
  512MOL0     C70575   4.917   7.721   2.468 -0.8531  0.8093  0.0491
  512MOL0     C70576   5.033   7.639   2.498 -0.0664  0.3690 -0.4794
  512MOL0     O70577   5.117   7.686   2.597 -0.0388 -0.0083 -0.1050
  512MOL0     C70578   5.252   7.635   2.603  0.1769  0.3043  0.3748
  512MOL0     C70579   5.335   7.707   2.714  0.4326  1.2402  0.7044
  512MOL0     C70580   5.412   7.611   2.798 -0.1282 -0.4316 -0.5762
  512MOL0     C70581   5.494   7.681   2.908  0.5607  0.3955 -0.5684
  512MOL0     C70582   5.622   7.761   2.878  0.0188  1.0859  0.9747
  512MOL0     C70583   5.723   7.840   2.864  0.8007 -0.2297 -0.7150
  512MOL0     C70584   5.051   7.520   2.442 -0.4511  0.5001 -0.0470
  512MOL0     C70585   4.970   7.470   2.344  0.2193  0.5501 -0.6183
  512MOL0     C70586   5.012   7.337   2.294  0.4023 -0.0528  0.4726
  512MOL0     H70587   4.756   7.646   1.920 -0.2524  2.3437 -1.1178
  512MOL0     H70588   4.610   7.709   1.738 -0.2186 -1.4175  0.3251
  512MOL0     H70589   4.309   7.955   1.848 -2.3462  1.3094  1.0527
  512MOL0     H70590   4.178   7.844   1.843  0.9239 -3.2191 -0.0481
  512MOL0     H70591   4.183   7.854   1.603  1.0775  0.0676 -0.1629
  512MOL0     H70592   4.161   8.024   1.667  2.1576  1.9084 -1.7628
  512MOL0     H70593   4.421   8.034   1.605  0.6451 -0.5704 -3.1749
  512MOL0     H70594   4.392   7.889   1.519 -0.5774 -1.2412  1.4539
  512MOL0     H70595   4.348   8.051   1.359 -1.3331 -0.0006 -0.5086
  512MOL0     H70596   4.190   8.004   1.420  0.3276  0.5173  0.0688
  512MOL0     H70597   4.199   8.198   1.583  0.8840 -1.2192 -0.0552
  512MOL0     H70598   4.179   8.243   1.421 -0.5738  0.7925  0.2726
  512MOL0     H70599   4.430   8.268   1.581 -2.0427  1.2852  1.7509
  512MOL0     H70600   4.429   8.294   1.401 -0.9244  0.9896 -0.7350
  512MOL0     H70601   4.241   8.420   1.596 -0.6882 -3.3236 -1.4019
  512MOL0     H70602   4.284   8.480   1.436  0.6892  2.2357  0.3811
  512MOL0     H70603   4.461   8.504   1.683  3.6928  1.7840  0.4766
  512MOL0     H70604   4.531   8.507   1.522  0.1165 -0.9785  0.8310
  512MOL0     H70605   4.327   8.684   1.779  0.9850 -1.0032 -1.6717
  512MOL0     H70606   4.329   9.082   1.693 -1.9174  0.4393 -0.9000
  512MOL0     H70607   4.379   8.970   1.832 -0.3973 -1.0909 -0.6117
  512MOL0     H70608   4.099   9.042   1.749 -3.4001 -0.9766  1.2002
  512MOL0     H70609   4.130   8.877   1.792  2.0635  0.6085 -1.7596
  512MOL0     H70610   4.230   9.103   1.952 -2.5363  1.3508 -2.4637
  512MOL0     H70611   4.050   9.060   1.947 -0.9981 -1.9255  0.5002
  512MOL0     H70612   4.157   8.931   2.154  1.3134 -2.0323  0.5015
  512MOL0     H70613   4.101   8.827   2.027 -0.4509  0.8617  0.1293
  512MOL0     H70614   4.132   8.706   2.194 -0.1963  0.5944 -0.5988
  512MOL0     H70615   4.205   8.527   2.477  0.0214  1.2339  0.6746
  512MOL0     H70616   4.153   8.408   2.342  2.4789  0.2250 -0.4069
  512MOL0     H70617   4.080   8.557   2.354  0.0163 -2.0148 -0.1281
  512MOL0     H70618   4.601   8.471   2.650 -0.8805  0.4505 -0.4358
  512MOL0     H70619   4.748   8.326   2.809 -0.2850  4.1698 -0.9129
  512MOL0     H70620   5.056   8.022   2.658 -1.8848  0.1992  0.8494
  512MOL0     H70621   5.118   8.187   2.666  1.6290 -0.2005  1.5761
  512MOL0     H70622   5.102   8.080   2.938  0.7345  1.0731  0.9618
  512MOL0     H70623   5.181   7.970   2.825  3.4480  0.8780 -2.8336
  512MOL0     H70624   5.329   8.111   2.945 -0.3424 -4.8561 -1.5415
  512MOL0     H70625   5.281   8.250   2.852  1.3563 -0.1529 -1.1222
  512MOL0     H70626   5.340   8.094   2.644  0.5940 -1.3376 -1.2216
  512MOL0     H70627   5.383   7.968   2.761 -1.8760  0.5904  1.3325
  512MOL0     H70628   5.574   8.082   2.838  2.2597 -3.3080 -1.6526
  512MOL0     H70629   5.588   8.049   2.684  0.4823 -0.2961  1.1731
  512MOL0     H70630   5.493   8.317   2.805  1.1552 -0.7424  0.4920
  512MOL0     H70631   5.500   8.281   2.629  1.3704 -0.6111 -0.5473
  512MOL0     H70632   5.708   8.386   2.660  3.8314 -1.1420  0.9734
  512MOL0     H70633   5.729   8.213   2.640 -1.2279 -0.1770 -0.0250
  512MOL0     H70634   5.864   8.332   2.831 -0.1970 -0.7194  0.8688
  512MOL0     H70635   5.768   8.183   2.870 -1.3199 -0.6244  0.0846
  512MOL0     H70636   4.949   8.156   2.468  2.9009  0.4147  2.6923
  512MOL0     H70637   4.824   8.290   2.325  0.8789  1.9181  0.5396
  512MOL0     H70638   4.600   8.554   2.177  0.3116  1.0762  4.0610
  512MOL0     H70639   4.528   8.738   2.038 -0.0813 -0.9594 -0.8154
  512MOL0     H70640   4.277   7.716   2.026 -0.3765  1.3467  0.8782
  512MOL0     H70641   4.418   7.636   2.186 -2.1705  0.5362 -0.8162
  512MOL0     H70642   4.757   7.731   2.327 -0.3436  0.0680  1.3832
  512MOL0     H70643   4.879   7.801   2.530  1.2757  0.8366  1.4045
  512MOL0     H70644   5.245   7.529   2.627 -1.0448 -0.5529 -3.1129
  512MOL0     H70645   5.297   7.624   2.504  1.2274 -0.6281  0.9361
  512MOL0     H70646   5.256   7.763   2.766 -1.9458 -0.5410 -0.7985
  512MOL0     H70647   5.395   7.775   2.653 -1.3978  2.5994  0.3121
  512MOL0     H70648   5.342   7.535   2.835 -0.9556  0.0852 -1.0404
  512MOL0     H70649   5.487   7.556   2.740 -0.3997 -0.8671 -0.5246
  512MOL0     H70650   5.508   7.597   2.975  0.7882 -0.8427 -2.1190
  512MOL0     H70651   5.427   7.745   2.967  1.9048  2.1444 -0.8345
  512MOL0     H70652   5.795   7.919   2.859  0.6765 -0.1714 -1.9176
  512MOL0     H70653   5.140   7.463   2.468 -2.3935 -2.2741  1.0700
  512MOL0     H70654   5.081   7.282   2.358  1.5974  2.2061  1.2333
  512MOL0     H70655   4.933   7.266   2.266  0.3901  0.3102 -0.4759
  512MOL0     H70656   5.079   7.351   2.208  1.3374  0.9519  1.3357
  513MOL0     O70657   2.008   4.403   1.806  0.1898  0.2159  0.3666
  513MOL0     C70658   1.992   4.409   1.680  1.0720 -0.3293 -1.1593
  513MOL0     O70659   1.889   4.482   1.628  0.1133  0.4670  0.5840
  513MOL0     C70660   1.823   4.575   1.708 -0.7029 -0.6514 -0.3037
  513MOL0     C70661   1.894   4.699   1.737 -0.2486  0.7652 -0.6332
  513MOL0     C70662   1.831   4.794   1.827 -0.3856 -0.1902 -0.2891
  513MOL0     C70663   1.705   4.766   1.885 -0.0670 -0.0981 -0.6012
  513MOL0     O70664   1.656   4.834   1.993 -0.1968  0.0150 -0.2374
  513MOL0     C70665   1.590   4.952   1.956 -0.1877 -0.0487  0.5873
  513MOL0     C70666   1.447   4.930   1.900  0.3997 -1.1846 -0.6210
  513MOL0     C70667   1.384   5.066   1.866  0.2388  0.2206  0.1735
  513MOL0     C70668   1.235   5.054   1.829  0.4849 -0.4510 -0.3133
  513MOL0     C70669   1.178   5.157   1.736 -0.3594 -0.4260 -0.7112
  513MOL0     C70670   1.025   5.144   1.716  0.4157 -0.0829  0.0906
  513MOL0     C70671   0.960   5.206   1.840  0.1678  0.3057  0.1531
  513MOL0     C70672   0.804   5.191   1.844 -0.1445  0.5864  1.0709
  513MOL0     N70673   0.750   5.236   1.974  0.0524  0.2078 -0.1156
  513MOL0     C70674   0.773   5.355   2.036  0.3240  0.2351 -0.5475
  513MOL0     C70675   0.699   5.353   2.153 -0.5227  0.7365  0.0642
  513MOL0     C70676   0.722   5.459   2.260  0.2725  0.2730  0.0009
  513MOL0     C70677   0.645   5.418   2.381  0.2872 -0.7908 -0.7241
  513MOL0     C70678   0.501   5.474   2.376  0.1710  0.2699 -0.2100
  513MOL0     C70679   0.433   5.465   2.513 -0.7506 -0.3973  0.5812
  513MOL0     O70680   0.420   5.325   2.529  0.5323 -0.7135  0.1406
  513MOL0     C70681   0.339   5.298   2.636  0.1869  0.5311 -0.3818
  513MOL0     C70682   0.261   5.183   2.634 -0.0454 -0.3149 -0.2471
  513MOL0     C70683   0.173   5.144   2.731 -0.4146  0.0552 -0.3213
  513MOL0     C70684   0.115   5.013   2.722 -0.5028  0.7845 -0.1175
  513MOL0     C70685   0.170   5.223   2.856 -0.0540  0.5134  0.0393
  513MOL0     C70686   0.104   5.179   2.986 -0.5633  0.4878  0.3405
  513MOL0     O70687   0.143   5.269   3.087  0.2572 -0.3625 -0.5034
  513MOL0     C70688   0.103   5.249   3.214  0.6846 -0.1027  0.3103
  513MOL0     C70689   0.078   5.125   3.276 -0.3767 -0.6009 -0.8477
  513MOL0     C70690   0.004   5.119   3.393  0.5307 -0.4258 -0.4693
  513MOL0     C70691  -0.038   5.234   3.466 -0.1323 -0.5704 -0.2900
  513MOL0     O70692  -0.092   5.242   3.595 -0.2210 -0.6980  0.5784
  513MOL0     C70693  -0.003   5.189   3.702  0.8506 -0.3122  0.3888
  513MOL0     C70694   0.096   5.297   3.753 -0.1595 -0.0050  0.1415
  513MOL0     C70695   0.081   5.315   3.905 -0.7293 -0.3509 -0.4550
  513MOL0     C70696   0.174   5.210   3.980  0.4114 -0.8171  0.3341
  513MOL0     C70697   0.212   5.257   4.121 -0.5842 -1.0423  0.3167
  513MOL0     C70698   0.324   5.177   4.181 -0.6988  0.1578 -0.4313
  513MOL0     C70699   0.356   5.193   4.322 -0.0971  0.1872  0.0247
  513MOL0     C70700   0.267   5.110   4.418 -0.2746  0.8502 -0.2901
  513MOL0    Cl70701   0.322   5.191   4.574  0.1767  0.1599  0.4683
  513MOL0     C70702   0.011   5.355   3.414 -0.5134  0.1028  0.0986
  513MOL0     C70703   0.076   5.360   3.289 -0.0030 -0.2590  0.7455
  513MOL0     O70704   0.013   5.094   3.003  0.5249  0.6046 -1.1951
  513MOL0     C70705   0.249   5.334   2.854 -0.9160  0.4553 -1.0689
  513MOL0     C70706   0.322   5.371   2.750  0.6506 -0.0276  0.5419
  513MOL0     N70707   0.620   5.232   2.153 -0.1661  0.4312 -0.4969
  513MOL0     N70708   0.656   5.160   2.043 -0.3981 -1.5864  0.0775
  513MOL0     C70709   1.650   4.645   1.859  0.1452  0.0824  0.2857
  513MOL0     C70710   1.701   4.551   1.771 -0.5897 -0.2431  0.1137
  513MOL0     C70711   2.096   4.360   1.584  0.6264 -0.3476  0.2677
  513MOL0     C70712   2.108   4.425   1.460 -0.8232  0.6513 -0.0562
  513MOL0     C70713   2.209   4.392   1.373  0.3187  0.1907  0.0821
  513MOL0     C70714   2.285   4.285   1.395  0.7911 -0.6007  0.1619
  513MOL0     O70715   2.379   4.250   1.298  0.1447 -0.5316 -0.0269
  513MOL0     C70716   2.430   4.119   1.288  0.2183 -0.2298 -0.3951
  513MOL0     C70717   2.450   4.092   1.141  0.1782  0.1935 -0.0062
  513MOL0     C70718   2.493   4.210   1.045  0.1320  0.2782 -0.4006
  513MOL0     C70719   2.647   4.247   1.061  0.0227 -0.5571  0.9963
  513MOL0     C70720   2.732   4.144   0.997  0.0986 -0.5421  0.8243
  513MOL0     C70721   2.797   4.072   0.919  0.3021  0.5006  0.3622
  513MOL0     C70722   2.280   4.221   1.516  0.8138  0.1450  0.5314
  513MOL0     C70723   2.179   4.250   1.605  0.7261 -0.1796 -0.9247
  513MOL0     C70724   2.180   4.174   1.735 -0.5808  0.0412  0.3051
  513MOL0     H70725   1.973   4.716   1.664 -2.2453  4.0397 -2.2451
  513MOL0     H70726   1.881   4.879   1.873 -1.3907 -0.5283  1.5487
  513MOL0     H70727   1.655   4.999   1.881 -1.4135 -1.3198 -1.3746
  513MOL0     H70728   1.585   5.023   2.038 -2.5056  0.2899  0.2176
  513MOL0     H70729   1.462   4.879   1.804  2.8783 -0.3044 -0.7845
  513MOL0     H70730   1.386   4.874   1.972  1.4666  1.6498  2.7490
  513MOL0     H70731   1.391   5.132   1.953 -0.9518 -0.8322  1.1136
  513MOL0     H70732   1.445   5.095   1.780 -1.3467 -0.9569 -1.4255
  513MOL0     H70733   1.217   4.952   1.795 -1.5604 -0.3142  0.1985
  513MOL0     H70734   1.184   5.046   1.926  1.2069  2.5077  0.4156
  513MOL0     H70735   1.229   5.149   1.640 -3.4068  0.9652 -2.5887
  513MOL0     H70736   1.194   5.258   1.775 -0.1516 -0.3077 -1.0971
  513MOL0     H70737   1.000   5.201   1.626 -0.8954 -0.6371  0.0801
  513MOL0     H70738   0.990   5.041   1.702  1.0441 -0.1443 -1.1541
  513MOL0     H70739   0.986   5.312   1.854 -1.0814  0.8413 -1.2179
  513MOL0     H70740   1.006   5.157   1.926 -0.0329 -2.3856 -1.1702
  513MOL0     H70741   0.758   5.257   1.770 -2.7231 -1.5296  0.6349
  513MOL0     H70742   0.776   5.088   1.819 -0.8062  0.4972  2.0964
  513MOL0     H70743   0.848   5.423   1.997  2.5261 -0.5688  2.0016
  513MOL0     H70744   0.693   5.553   2.213  0.5766 -0.0944 -0.9402
  513MOL0     H70745   0.825   5.488   2.281 -0.4756  1.3132  2.6377
  513MOL0     H70746   0.646   5.312   2.405  1.5316 -0.4150  1.1956
  513MOL0     H70747   0.687   5.473   2.467 -1.0941 -1.2630  0.2927
  513MOL0     H70748   0.492   5.577   2.339 -1.0828  0.5831  0.9086
  513MOL0     H70749   0.439   5.414   2.308  0.5631 -2.9939  2.0643
  513MOL0     H70750   0.485   5.514   2.596 -2.1546  1.8991  0.2174
  513MOL0     H70751   0.334   5.513   2.512 -0.8902 -0.6828  0.3815
  513MOL0     H70752   0.283   5.124   2.546  2.9046  1.0799 -0.5815
  513MOL0     H70753   0.085   4.992   2.618 -1.8056 -1.0618  0.5662
  513MOL0     H70754   0.018   5.000   2.771 -0.6476 -1.8553 -0.9396
  513MOL0     H70755   0.193   4.944   2.756  2.0088  1.2862 -4.1799
  513MOL0     H70756   0.123   5.039   3.227  0.3217 -0.2554 -0.8281
  513MOL0     H70757  -0.021   5.024   3.441  1.2930  0.1157  1.0532
  513MOL0     H70758  -0.081   5.170   3.776  1.3965  1.3591  1.4392
  513MOL0     H70759   0.043   5.094   3.671  0.8093  0.6953 -3.2054
  513MOL0     H70760   0.198   5.272   3.727 -0.5015 -1.9219  0.5328
  513MOL0     H70761   0.066   5.392   3.707 -0.8885  1.1190  2.7059
  513MOL0     H70762  -0.024   5.318   3.935 -1.5468 -1.1758 -3.0189
  513MOL0     H70763   0.110   5.416   3.936  1.3327 -0.3460 -2.1574
  513MOL0     H70764   0.268   5.204   3.925  1.5901  0.5044  2.0907
  513MOL0     H70765   0.129   5.110   3.987  0.1900 -1.0735 -3.1161
  513MOL0     H70766   0.229   5.364   4.130 -2.7101 -0.7712  1.9550
  513MOL0     H70767   0.127   5.241   4.188 -1.1849 -2.8789 -0.7989
  513MOL0     H70768   0.417   5.204   4.129 -1.2161  2.1198 -0.4258
  513MOL0     H70769   0.323   5.071   4.156  3.9390  0.1862 -1.6819
  513MOL0     H70770   0.346   5.301   4.338 -0.2537 -0.0869  1.9624
  513MOL0     H70771   0.459   5.165   4.346 -0.3830  0.1777  1.2760
  513MOL0     H70772   0.293   5.004   4.411 -0.4670  0.7413  0.5645
  513MOL0     H70773   0.161   5.131   4.399 -0.6654 -0.1346  0.7130
  513MOL0     H70774  -0.013   5.444   3.471 -1.2174 -1.3639  2.2105
  513MOL0     H70775   0.095   5.460   3.252 -1.6185  0.2227  1.1379
  513MOL0     H70776   0.239   5.397   2.942  1.6863 -2.5345  1.6197
  513MOL0     H70777   0.368   5.470   2.758 -2.1754  1.7175 -2.2869
  513MOL0     H70778   1.549   4.621   1.892 -0.3114  0.3725 -0.8406
  513MOL0     H70779   1.648   4.457   1.772  1.4062 -1.4159  0.3731
  513MOL0     H70780   2.045   4.510   1.431  0.2059  1.5400  0.2404
  513MOL0     H70781   2.226   4.448   1.282 -0.3658  0.5443  0.1654
  513MOL0     H70782   2.529   4.135   1.330  0.8312  4.0160 -2.8972
  513MOL0     H70783   2.366   4.043   1.334  0.2002  0.5811  0.9534
  513MOL0     H70784   2.353   4.058   1.103 -1.0574  1.9537  1.4020
  513MOL0     H70785   2.529   4.017   1.129  0.8136  0.9970 -1.0816
  513MOL0     H70786   2.467   4.195   0.940  0.2391  3.8489 -1.0643
  513MOL0     H70787   2.434   4.296   1.079 -3.9416 -2.2341 -0.3927
  513MOL0     H70788   2.675   4.262   1.166  3.2527  2.4417 -0.1261
  513MOL0     H70789   2.652   4.347   1.018  0.4771  0.1635  2.6275
  513MOL0     H70790   2.855   4.009   0.854  0.0458  0.6675 -0.0355
  513MOL0     H70791   2.343   4.136   1.541  1.6536  0.3941 -0.6602
  513MOL0     H70792   2.085   4.189   1.787  1.2394  1.0769  3.6551
  513MOL0     H70793   2.213   4.071   1.718  0.3193  0.2502  0.7083
  513MOL0     H70794   2.252   4.224   1.801 -0.0389  1.5983 -1.3590
  514MOL0     O70795   8.451   6.409   9.429 -1.2338 -0.3518  0.3484
  514MOL0     C70796   8.565   6.417   9.481 -0.2447  0.4641 -0.4539
  514MOL0     O70797   8.632   6.309   9.542 -0.0064  0.2873  0.7249
  514MOL0     C70798   8.586   6.179   9.524 -0.1856 -0.5625 -0.2895
  514MOL0     C70799   8.553   6.100   9.641 -0.0257  0.7390  0.7624
  514MOL0     C70800   8.502   5.983   9.611  0.1420  0.0653 -0.6470
  514MOL0     C70801   8.504   5.929   9.479  0.4720 -0.0079  0.0743
  514MOL0     O70802   8.451   5.807   9.457 -0.8337  0.5769  0.5667
  514MOL0     C70803   8.451   5.710   9.561 -0.4472 -0.4065 -0.0835
  514MOL0     C70804   8.457   5.567   9.504  1.2623  0.4089  0.4894
  514MOL0     C70805   8.330   5.548   9.416  0.1674 -0.1928  0.3413
  514MOL0     C70806   8.316   5.402   9.382 -0.0543  0.1486 -0.0106
  514MOL0     C70807   8.215   5.371   9.271 -0.9708 -0.4229  0.6594
  514MOL0     C70808   8.217   5.235   9.208  0.8277 -0.3391 -0.2430
  514MOL0     C70809   8.180   5.116   9.305 -0.4152 -0.4472  0.2336
  514MOL0     C70810   8.062   5.140   9.391  0.0834  0.5208  0.1872
  514MOL0     N70811   7.986   5.020   9.432 -0.5017  0.0757  0.3179
  514MOL0     C70812   8.038   4.895   9.477  0.5498 -0.1392  0.4280
  514MOL0     C70813   7.931   4.831   9.512  0.3412  0.4589 -0.5778
  514MOL0     C70814   7.928   4.693   9.577 -0.2995  0.3831  0.7010
  514MOL0     C70815   7.989   4.578   9.492 -0.1195  0.0501 -0.2594
  514MOL0     C70816   7.978   4.437   9.562  0.5865  0.2453 -0.4216
  514MOL0     C70817   8.017   4.324   9.461  0.5390  0.1493  0.1501
  514MOL0     O70818   8.000   4.193   9.530 -0.9357  0.9378 -0.6335
  514MOL0     C70819   8.073   4.080   9.506 -0.1926  0.1550 -0.7924
  514MOL0     C70820   8.192   4.078   9.427  0.2926 -0.3405 -0.3033
  514MOL0     C70821   8.262   3.963   9.404 -0.7163 -0.1381 -0.0265
  514MOL0     C70822   8.391   3.979   9.338 -0.4804 -0.0291  1.0685
  514MOL0     C70823   8.221   3.844   9.470  0.4539  0.3669 -0.1574
  514MOL0     C70824   8.265   3.715   9.432  0.0083 -0.5771 -0.6618
  514MOL0     O70825   8.252   3.618   9.529 -0.3941 -0.1875  0.4241
  514MOL0     C70826   8.259   3.492   9.492  0.2873  0.4454 -0.4128
  514MOL0     C70827   8.383   3.429   9.475  0.1293 -0.0259  0.7784
  514MOL0     C70828   8.400   3.302   9.429 -0.1781 -0.2477 -0.7250
  514MOL0     C70829   8.283   3.220   9.427 -0.3468 -0.0045  0.9321
  514MOL0     O70830   8.315   3.086   9.419  0.3948  0.4219 -0.0376
  514MOL0     C70831   8.217   2.988   9.382  0.7427  0.0270 -0.6122
  514MOL0     C70832   8.273   2.846   9.364 -0.0420 -0.0330 -0.0150
  514MOL0     C70833   8.338   2.794   9.499 -0.3785  0.7878 -0.4026
  514MOL0     C70834   8.376   2.648   9.478 -0.2630  0.7173  0.2231
  514MOL0     C70835   8.508   2.599   9.554 -0.0607  0.0929  0.8955
  514MOL0     C70836   8.477   2.618   9.713 -0.2143 -0.7362 -0.1002
  514MOL0     C70837   8.567   2.530   9.800 -0.1196  0.2635  0.0862
  514MOL0     C70838   8.532   2.533   9.940 -0.0441 -0.1674 -0.1506
  514MOL0    Cl70839   8.662   2.451  10.024 -0.2695  0.4781  0.5654
  514MOL0     C70840   8.150   3.279   9.441 -0.5952  0.7747 -0.0328
  514MOL0     C70841   8.142   3.420   9.470 -0.3240 -0.0736  0.1047
  514MOL0     O70842   8.306   3.701   9.321 -0.3117  0.1008  0.3843
  514MOL0     C70843   8.108   3.851   9.557 -0.8260 -0.7108  0.7526
  514MOL0     C70844   8.038   3.969   9.574 -0.5638 -0.1014  0.1288
  514MOL0     N70845   7.824   4.908   9.510 -0.3310  0.5937 -0.0716
  514MOL0     N70846   7.857   5.025   9.465 -0.3005 -0.6567 -0.0424
  514MOL0     C70847   8.550   5.998   9.368  0.5807 -0.2643 -0.6696
  514MOL0     C70848   8.588   6.128   9.398  0.2390  0.5876  0.0255
  514MOL0     C70849   8.640   6.540   9.509  0.4808 -0.6136 -0.6818
  514MOL0     C70850   8.599   6.654   9.435  0.7508 -0.7618 -0.9118
  514MOL0     C70851   8.652   6.785   9.451  0.7634  0.2672 -0.9279
  514MOL0     C70852   8.756   6.798   9.540 -0.6823  0.3037  0.1859
  514MOL0     O70853   8.794   6.927   9.558 -0.0559 -0.0634 -0.5484
  514MOL0     C70854   8.825   6.983   9.687 -0.2664 -0.0361 -1.0250
  514MOL0     C70855   8.813   7.138   9.680 -0.0864 -0.1753 -0.3368
  514MOL0     C70856   8.651   7.175   9.680 -0.5784 -0.4694 -0.3763
  514MOL0     C70857   8.572   7.122   9.562 -0.4032  0.0707  0.5988
  514MOL0     C70858   8.444   7.192   9.564  0.0277  0.1519 -0.0022
  514MOL0     C70859   8.341   7.247   9.582  0.3782  0.1058 -0.4608
  514MOL0     C70860   8.800   6.684   9.615  1.2922 -1.0578  0.4961
  514MOL0     C70861   8.746   6.562   9.593 -0.2722  0.4782  0.0893
  514MOL0     C70862   8.806   6.465   9.691  0.7867  0.2933 -0.5155
  514MOL0     H70863   8.565   6.148   9.738  2.0451 -0.8121  1.3446
  514MOL0     H70864   8.451   5.934   9.693  0.5432 -1.7998 -1.4596
  514MOL0     H70865   8.361   5.719   9.623 -0.0179 -2.0220  0.8378
  514MOL0     H70866   8.530   5.728   9.634 -0.7873  1.8233 -0.2068
  514MOL0     H70867   8.557   5.563   9.459  0.5479  2.1197 -1.4117
  514MOL0     H70868   8.459   5.491   9.583 -2.1857  0.4443  0.7559
  514MOL0     H70869   8.237   5.578   9.464 -0.5855 -0.6881 -0.7604
  514MOL0     H70870   8.340   5.603   9.322 -1.7008 -1.4846 -0.6805
  514MOL0     H70871   8.413   5.361   9.353 -0.5572 -1.8097  0.9041
  514MOL0     H70872   8.293   5.352   9.476  1.2215  2.3738  1.5734
  514MOL0     H70873   8.229   5.443   9.190 -1.5741  0.7924  1.6081
  514MOL0     H70874   8.113   5.385   9.308 -0.7521  3.0563  0.2795
  514MOL0     H70875   8.135   5.241   9.137  3.3300  1.8275 -3.2461
  514MOL0     H70876   8.312   5.219   9.155  0.9105  1.0186 -0.5243
  514MOL0     H70877   8.266   5.099   9.371  1.2028 -0.6222 -1.8193
  514MOL0     H70878   8.175   5.028   9.240 -0.5154 -0.9905  0.9540
  514MOL0     H70879   8.091   5.205   9.475 -0.2948  3.1862 -1.6153
  514MOL0     H70880   8.000   5.217   9.343  2.6397  2.5080 -0.1226
  514MOL0     H70881   8.142   4.862   9.479 -0.5695 -4.2722 -0.7751
  514MOL0     H70882   7.826   4.667   9.608 -0.6687  0.6703 -0.2457
  514MOL0     H70883   7.980   4.693   9.673 -0.5535 -0.0531  0.8406
  514MOL0     H70884   7.938   4.569   9.396  0.0038 -0.6647 -0.2653
  514MOL0     H70885   8.093   4.605   9.471  0.2766 -0.0750  1.4114
  514MOL0     H70886   8.042   4.441   9.651 -0.4349  1.6133  0.2800
  514MOL0     H70887   7.872   4.426   9.583  0.6246 -1.2168 -0.8693
  514MOL0     H70888   7.961   4.330   9.367 -1.1435  0.6223  1.1421
  514MOL0     H70889   8.123   4.337   9.439  0.6440 -0.1373  0.4677
  514MOL0     H70890   8.220   4.175   9.390 -0.0109 -0.0084  0.3160
  514MOL0     H70891   8.456   3.899   9.372 -1.2454 -1.2952 -0.3116
  514MOL0     H70892   8.432   4.079   9.356 -0.0877 -0.0427  0.3135
  514MOL0     H70893   8.386   3.962   9.230 -0.4716 -0.1097  1.0804
  514MOL0     H70894   8.471   3.486   9.506  0.1314 -0.0783  0.8706
  514MOL0     H70895   8.504   3.274   9.421  0.2733  1.1322  0.1436
  514MOL0     H70896   8.136   2.982   9.455 -1.3641  0.3685 -2.7856
  514MOL0     H70897   8.165   3.026   9.294  0.8705  1.4503 -0.1081
  514MOL0     H70898   8.192   2.782   9.329  2.1693 -0.5923 -5.0766
  514MOL0     H70899   8.350   2.848   9.286  1.6007 -1.3958  1.4864
  514MOL0     H70900   8.264   2.809   9.578 -1.6889 -0.9482 -1.2288
  514MOL0     H70901   8.422   2.856   9.530 -1.7427  2.1983  0.6400
  514MOL0     H70902   8.399   2.616   9.376 -1.5686  0.8501 -0.1242
  514MOL0     H70903   8.290   2.596   9.521  1.4396 -2.2650  0.3288
  514MOL0     H70904   8.518   2.493   9.532  1.9455  0.3641  0.2157
  514MOL0     H70905   8.600   2.650   9.521 -1.5894  0.9472 -2.4391
  514MOL0     H70906   8.372   2.591   9.728 -1.2213  1.9287 -1.6500
  514MOL0     H70907   8.491   2.718   9.755  1.9420 -2.1473  2.9274
  514MOL0     H70908   8.672   2.557   9.788 -0.8997  2.7170 -2.2765
  514MOL0     H70909   8.567   2.425   9.768 -0.8195 -0.6475  2.8151
  514MOL0     H70910   8.437   2.492   9.975 -1.5485  0.3751 -3.3061
  514MOL0     H70911   8.528   2.641   9.958  0.6767 -0.3151  1.0623
  514MOL0     H70912   8.058   3.222   9.443 -0.9269  1.3012 -0.0360
  514MOL0     H70913   8.050   3.474   9.489  0.6267  1.3607  0.7832
  514MOL0     H70914   8.059   3.762   9.595 -2.1370 -0.0510  0.6380
  514MOL0     H70915   7.953   3.973   9.641 -2.1219  1.6554 -1.8248
  514MOL0     H70916   8.546   5.955   9.269  0.2654  2.3907 -1.8932
  514MOL0     H70917   8.596   6.187   9.307  3.7434  0.7420  0.2776
  514MOL0     H70918   8.512   6.635   9.374  0.1504 -0.6946 -0.0927
  514MOL0     H70919   8.601   6.862   9.394  1.3166  1.3053 -0.0398
  514MOL0     H70920   8.762   6.954   9.771 -1.1191  1.4108 -1.1329
  514MOL0     H70921   8.928   6.960   9.715 -0.5371 -1.5963 -1.1959
  514MOL0     H70922   8.877   7.168   9.596  1.1708 -1.3835  0.1391
  514MOL0     H70923   8.856   7.178   9.772 -2.4548 -1.4643  1.4317
  514MOL0     H70924   8.622   7.132   9.776  1.7278  0.1488  0.6725
  514MOL0     H70925   8.639   7.284   9.684  2.0456 -0.1673  2.2205
  514MOL0     H70926   8.552   7.016   9.578  1.9645 -0.7056 -1.1138
  514MOL0     H70927   8.619   7.136   9.464  1.0810 -1.6549  1.0286
  514MOL0     H70928   8.260   7.310   9.613  1.5707  1.6757 -0.3918
  514MOL0     H70929   8.873   6.706   9.693  0.2098  4.2570  0.4203
  514MOL0     H70930   8.889   6.511   9.745 -0.5529  1.5259  0.5730
  514MOL0     H70931   8.730   6.444   9.767  0.0260 -0.5210 -1.4588
  514MOL0     H70932   8.831   6.374   9.635 -2.4194  0.1665 -1.9665
  515MOL0     O70933   3.752   3.697   5.971 -0.6653  0.1002  0.1223
  515MOL0     C70934   3.691   3.599   5.914 -0.3537 -0.1601 -1.1266
  515MOL0     O70935   3.749   3.499   5.848 -0.1123  0.0289  0.3166
  515MOL0     C70936   3.886   3.482   5.856  0.0753  0.4328 -0.1515
  515MOL0     C70937   3.954   3.426   5.969  0.7902 -0.2170  0.4749
  515MOL0     C70938   4.096   3.406   5.951 -0.2283 -0.7546  0.1108
  515MOL0     C70939   4.172   3.451   5.836  0.6042  0.2394 -0.0718
  515MOL0     O70940   4.307   3.447   5.827  0.0865 -0.0875 -0.0276
  515MOL0     C70941   4.382   3.380   5.931 -0.4261 -1.0336  0.1709
  515MOL0     C70942   4.529   3.365   5.883  0.4589 -0.8179 -0.1360
  515MOL0     C70943   4.602   3.498   5.884 -0.5517 -0.5494 -0.3894
  515MOL0     C70944   4.584   3.592   5.767 -0.2940  0.3396  0.7541
  515MOL0     C70945   4.657   3.726   5.800  0.2650  1.3318 -1.2241
  515MOL0     C70946   4.810   3.723   5.775  0.3790  0.4031 -1.4441
  515MOL0     C70947   4.851   3.748   5.631  0.2410 -0.5509 -0.4892
  515MOL0     C70948   4.980   3.664   5.593  0.1527 -0.2684  0.9804
  515MOL0     N70949   4.963   3.518   5.575 -0.3707  0.5998  0.0391
  515MOL0     C70950   4.876   3.456   5.491 -0.2093 -0.3529 -0.4179
  515MOL0     C70951   4.878   3.328   5.531 -0.0670  0.4727 -0.0055
  515MOL0     C70952   4.781   3.229   5.466 -0.0760 -0.7460 -0.3012
  515MOL0     C70953   4.637   3.276   5.483  0.0426 -1.4895 -0.6713
  515MOL0     C70954   4.534   3.170   5.428  0.1808  0.0022  0.0405
  515MOL0     C70955   4.529   3.059   5.538 -0.5584 -0.0529 -0.2265
  515MOL0     O70956   4.443   2.960   5.502 -0.0810  0.7796  0.4569
  515MOL0     C70957   4.305   2.973   5.490 -0.4750  0.2998  0.0892
  515MOL0     C70958   4.227   3.082   5.530 -0.3763 -0.7350 -1.0146
  515MOL0     C70959   4.089   3.090   5.506  0.7179  0.3849  0.4238
  515MOL0     C70960   4.001   3.215   5.551 -0.4580  0.8836 -0.6987
  515MOL0     C70961   4.027   2.984   5.438  0.6745  0.0965 -0.5244
  515MOL0     C70962   3.885   2.983   5.380 -0.1907 -0.8674  0.2310
  515MOL0     O70963   3.828   2.860   5.350 -0.1823  0.1049 -0.0922
  515MOL0     C70964   3.708   2.840   5.285 -0.7971 -0.6880 -0.0422
  515MOL0     C70965   3.672   2.704   5.260 -0.2280 -0.0298  0.0836
  515MOL0     C70966   3.562   2.679   5.182 -0.1414 -0.1764  0.4238
  515MOL0     C70967   3.493   2.774   5.109  0.0684 -1.0112 -0.0483
  515MOL0     O70968   3.387   2.726   5.038  0.7967  0.2833 -0.0770
  515MOL0     C70969   3.335   2.815   4.931  0.8666 -0.1898  0.5566
  515MOL0     C70970   3.236   2.732   4.844 -0.6907 -0.8803  0.1810
  515MOL0     C70971   3.200   2.811   4.718  0.0233  0.5126 -0.2936
  515MOL0     C70972   3.112   2.726   4.632  0.1861 -0.1487  0.5084
  515MOL0     C70973   3.031   2.816   4.536 -0.1252 -0.2915 -0.1012
  515MOL0     C70974   3.116   2.889   4.428  0.0099 -0.5189  0.0465
  515MOL0     C70975   3.035   2.975   4.328 -0.9374 -0.8216 -1.0843
  515MOL0     C70976   2.944   2.878   4.246 -1.0097 -0.8305 -0.3500
  515MOL0    Cl70977   2.857   2.982   4.125 -0.2444  0.2681 -0.2173
  515MOL0     C70978   3.536   2.904   5.120  0.5548 -0.4529  0.8138
  515MOL0     C70979   3.641   2.940   5.205  0.6336 -0.6614 -0.2313
  515MOL0     O70980   3.837   3.093   5.359 -0.2019 -0.0712 -0.3902
  515MOL0     C70981   4.102   2.870   5.396  0.5795 -0.2367  0.4266
  515MOL0     C70982   4.234   2.865   5.426  0.5275  0.0065  0.6703
  515MOL0     N70983   4.966   3.311   5.637 -0.0956  0.9939  0.5339
  515MOL0     N70984   5.019   3.426   5.664 -0.3564  0.2030  0.5878
  515MOL0     C70985   4.093   3.502   5.726 -0.0501  0.6245 -0.9408
  515MOL0     C70986   3.951   3.515   5.739  0.6802  0.7310  0.5240
  515MOL0     C70987   3.549   3.610   5.911 -0.0510 -0.4039  0.8730
  515MOL0     C70988   3.484   3.624   5.787  0.7497 -0.7250  0.2770
  515MOL0     C70989   3.348   3.649   5.785  0.3360  1.0098  0.9124
  515MOL0     C70990   3.278   3.672   5.905 -0.0914  0.7963 -0.2538
  515MOL0     O70991   3.139   3.676   5.889  0.8193  0.8914  0.5482
  515MOL0     C70992   3.057   3.629   6.004  0.4099  0.0267  0.1915
  515MOL0     C70993   2.916   3.608   5.965  0.3067  0.1000  0.0090
  515MOL0     C70994   2.811   3.554   6.068 -0.9533  0.3289  1.2180
  515MOL0     C70995   2.694   3.504   5.986 -0.2732  0.9987  0.0308
  515MOL0     C70996   2.726   3.393   5.897  1.2547 -0.4006  0.6186
  515MOL0     C70997   2.745   3.288   5.837 -1.1166  0.3137 -0.4123
  515MOL0     C70998   3.345   3.677   6.022  0.9078  0.2718 -0.4979
  515MOL0     C70999   3.477   3.636   6.022  0.8199  0.3153 -0.4164
  515MOL0     C71000   3.532   3.597   6.154  0.1380  0.2082 -0.1312
  515MOL0     H71001   3.894   3.403   6.057  1.8888 -1.8734  0.8286
  515MOL0     H71002   4.153   3.368   6.035 -0.0976 -0.9123 -0.0490
  515MOL0     H71003   4.339   3.281   5.949  2.2398 -2.1819  0.6281
  515MOL0     H71004   4.362   3.437   6.022 -4.2391 -1.4098 -0.2704
  515MOL0     H71005   4.578   3.293   5.949 -0.1593 -2.4616 -1.3730
  515MOL0     H71006   4.539   3.321   5.783 -0.2492  0.3987 -0.7639
  515MOL0     H71007   4.571   3.553   5.973  0.1177 -0.3348 -0.2899
  515MOL0     H71008   4.709   3.481   5.896 -0.1448 -2.2332 -4.6824
  515MOL0     H71009   4.625   3.552   5.674 -1.5218 -0.2769  0.4562
  515MOL0     H71010   4.480   3.619   5.747 -0.4235 -0.3790  0.4388
  515MOL0     H71011   4.640   3.750   5.905  0.7849  3.3354 -1.5445
  515MOL0     H71012   4.623   3.809   5.736  0.2498  1.0952 -1.5272
  515MOL0     H71013   4.862   3.790   5.844  1.5952  1.5555 -3.3670
  515MOL0     H71014   4.842   3.622   5.800 -0.4255  0.4867  0.0141
  515MOL0     H71015   4.878   3.853   5.618 -2.2252  0.1962 -0.0945
  515MOL0     H71016   4.768   3.720   5.565 -1.1559 -1.9785  1.7329
  515MOL0     H71017   5.030   3.707   5.506 -0.5125  0.5901  1.0073
  515MOL0     H71018   5.056   3.673   5.671 -0.6566 -0.5818  1.8200
  515MOL0     H71019   4.813   3.499   5.414 -0.6580  0.5934  0.4571
  515MOL0     H71020   4.778   3.139   5.529 -2.2438 -2.1540 -2.2838
  515MOL0     H71021   4.808   3.214   5.362  0.5750  1.6551 -0.5454
  515MOL0     H71022   4.627   3.294   5.591  0.4915 -3.1692 -0.3100
  515MOL0     H71023   4.612   3.371   5.436 -4.0562  0.0778  3.7832
  515MOL0     H71024   4.443   3.228   5.412 -0.7134 -1.7784 -1.7190
  515MOL0     H71025   4.568   3.129   5.333  0.5679 -3.6855  1.6089
  515MOL0     H71026   4.624   3.005   5.538  0.1344  0.9856 -3.0557
  515MOL0     H71027   4.504   3.103   5.635  2.8061  3.0579 -0.5234
  515MOL0     H71028   4.275   3.156   5.593  0.6735 -2.3676  0.1790
  515MOL0     H71029   4.046   3.254   5.643  0.9564  0.9084 -1.3779
  515MOL0     H71030   3.906   3.167   5.577  0.3073 -0.1554  0.3324
  515MOL0     H71031   3.999   3.284   5.466 -0.4875  0.8464 -0.7276
  515MOL0     H71032   3.711   2.619   5.317  0.5965 -0.9956 -1.8293
  515MOL0     H71033   3.512   2.583   5.176 -1.5205  0.5932 -1.7911
  515MOL0     H71034   3.288   2.905   4.972  0.6975  1.3183 -2.6997
  515MOL0     H71035   3.418   2.840   4.865 -0.6384 -0.6184 -1.5877
  515MOL0     H71036   3.287   2.638   4.825  1.8422 -0.0747  2.3429
  515MOL0     H71037   3.152   2.697   4.905 -0.5540 -0.6693  0.4946
  515MOL0     H71038   3.292   2.847   4.671  0.9900  1.2719  2.0397
  515MOL0     H71039   3.138   2.896   4.747  0.0528  0.3701  0.1939
  515MOL0     H71040   3.042   2.672   4.696 -1.8773  1.4274 -0.3052
  515MOL0     H71041   3.176   2.662   4.570 -0.3142  0.0970 -0.2793
  515MOL0     H71042   2.952   2.757   4.489 -1.3196 -0.0810  1.5543
  515MOL0     H71043   2.968   2.876   4.602 -2.3735 -0.5254 -1.9212
  515MOL0     H71044   3.161   2.813   4.364 -0.8312 -0.7153 -0.3377
  515MOL0     H71045   3.194   2.943   4.481 -0.5130  1.1619 -0.8352
  515MOL0     H71046   3.103   3.026   4.260  0.2229 -1.1594 -0.2135
  515MOL0     H71047   2.990   3.051   4.392 -0.4525 -1.3760 -0.0548
  515MOL0     H71048   2.880   2.814   4.307  2.1219 -2.2205  1.7452
  515MOL0     H71049   3.010   2.803   4.202 -2.0677 -2.8436  1.2964
  515MOL0     H71050   3.484   2.989   5.076 -0.0607 -0.0092  2.3363
  515MOL0     H71051   3.661   3.046   5.214  0.4965 -0.1174 -4.5176
  515MOL0     H71052   4.065   2.776   5.356  1.4040 -0.3319 -0.1441
  515MOL0     H71053   4.276   2.769   5.398 -0.9377 -0.5256  0.2158
  515MOL0     H71054   4.146   3.535   5.637 -1.0181  2.7729 -0.7798
  515MOL0     H71055   3.892   3.552   5.656 -0.8855  2.2174  2.2222
  515MOL0     H71056   3.543   3.606   5.697 -0.3690 -0.0979 -0.6029
  515MOL0     H71057   3.301   3.651   5.688  0.3537  1.2235  0.9087
  515MOL0     H71058   3.088   3.533   6.046 -3.5420 -1.5417 -0.1157
  515MOL0     H71059   3.063   3.708   6.079 -1.9835  0.3192  0.1273
  515MOL0     H71060   2.924   3.546   5.875 -2.8773  0.5029 -0.6680
  515MOL0     H71061   2.885   3.704   5.924  1.3909  1.5744  2.4389
  515MOL0     H71062   2.857   3.471   6.123 -2.1536 -0.8285  0.5287
  515MOL0     H71063   2.784   3.643   6.126  0.8740  2.8764 -1.5611
  515MOL0     H71064   2.642   3.573   5.918 -0.6567  2.6172  1.8518
  515MOL0     H71065   2.616   3.468   6.054  0.2935  0.5528  0.4559
  515MOL0     H71066   2.768   3.192   5.794  2.6366 -1.2024  4.0684
  515MOL0     H71067   3.284   3.691   6.111 -1.5778  0.6756 -2.1676
  515MOL0     H71068   3.457   3.554   6.221 -0.0094  1.7344  0.7229
  515MOL0     H71069   3.600   3.512   6.141 -0.6417 -0.8969  2.4388
  515MOL0     H71070   3.589   3.676   6.203  1.8494 -0.8087 -0.4182
  516MOL0     O71071   3.104   0.710   4.609 -0.0752 -0.3956  0.2260
  516MOL0     C71072   3.117   0.729   4.490 -0.8246  0.3085  0.8826
  516MOL0     O71073   3.218   0.795   4.434  1.2166 -0.6015  0.4521
  516MOL0     C71074   3.331   0.823   4.500 -0.0811 -0.4365  0.8497
  516MOL0     C71075   3.413   0.722   4.548 -0.9521 -1.1061 -0.6363
  516MOL0     C71076   3.531   0.756   4.600 -0.2311  0.1342 -0.6898
  516MOL0     C71077   3.572   0.889   4.622 -0.3617  0.3725 -0.5561
  516MOL0     O71078   3.686   0.907   4.694 -0.4269 -0.3989 -0.7677
  516MOL0     C71079   3.753   1.032   4.660  1.0282  0.2280 -0.8029
  516MOL0     C71080   3.899   0.999   4.694 -0.9833  0.2520  0.1180
  516MOL0     C71081   3.981   1.126   4.702  0.0875 -0.3164 -0.0869
  516MOL0     C71082   4.006   1.179   4.556  0.6065 -0.3875  0.4776
  516MOL0     C71083   4.119   1.293   4.564 -0.0414  0.3144 -0.1961
  516MOL0     C71084   4.263   1.235   4.573  0.1223  0.1784 -0.1949
  516MOL0     C71085   4.373   1.351   4.584  0.5020 -1.0320 -0.1641
  516MOL0     C71086   4.508   1.345   4.517  0.2240  0.6834 -0.1136
  516MOL0     N71087   4.585   1.464   4.530 -0.3627  0.0900 -0.9624
  516MOL0     C71088   4.599   1.562   4.444 -0.0692 -0.3707  0.6839
  516MOL0     C71089   4.665   1.655   4.520  0.4507 -0.5229  1.1107
  516MOL0     C71090   4.711   1.797   4.472  0.5155  1.0085  0.0815
  516MOL0     C71091   4.862   1.808   4.486  0.0773  0.2501 -0.5303
  516MOL0     C71092   4.943   1.703   4.406  0.8656 -0.7823  1.0689
  516MOL0     C71093   4.957   1.735   4.262  0.7982  0.4508  0.5416
  516MOL0     O71094   5.078   1.791   4.228 -0.1782 -0.5227  0.0540
  516MOL0     C71095   5.168   1.688   4.183 -0.3249  0.1506  0.4413
  516MOL0     C71096   5.249   1.714   4.073 -0.2581 -0.4300  0.0455
  516MOL0     C71097   5.343   1.624   4.018 -0.1749 -0.3044  0.6984
  516MOL0     C71098   5.404   1.675   3.882  0.1926  0.3046 -0.4168
  516MOL0     C71099   5.367   1.508   4.091 -1.5693 -0.1326 -0.7319
  516MOL0     C71100   5.485   1.424   4.060 -0.2997 -0.7321 -0.7248
  516MOL0     O71101   5.474   1.304   4.120 -0.1260  0.0077 -0.2038
  516MOL0     C71102   5.574   1.214   4.100 -0.6929 -0.1486 -0.5177
  516MOL0     C71103   5.711   1.225   4.112  0.3562 -0.8822  0.4674
  516MOL0     C71104   5.795   1.119   4.100  0.6383 -0.4635  0.4096
  516MOL0     C71105   5.746   0.993   4.076 -0.3369  0.0186 -1.2145
  516MOL0     O71106   5.822   0.884   4.049 -0.0212  0.0460  0.3577
  516MOL0     C71107   5.909   0.908   3.942  0.0895 -0.4271  0.3516
  516MOL0     C71108   5.902   0.789   3.848 -0.4570 -0.0619  0.3174
  516MOL0     C71109   5.781   0.802   3.757  0.2698  0.3078 -0.1534
  516MOL0     C71110   5.771   0.676   3.657  0.0764 -0.2156 -0.0692
  516MOL0     C71111   5.663   0.677   3.550 -0.7229  0.5715 -1.2422
  516MOL0     C71112   5.658   0.786   3.449  0.3894 -0.4707 -0.1146
  516MOL0     C71113   5.521   0.764   3.385 -0.0541  0.2871 -0.1722
  516MOL0     C71114   5.490   0.885   3.292 -0.4584  1.7889  0.0906
  516MOL0    Cl71115   5.376   0.838   3.163  0.1298 -0.2389 -0.0706
  516MOL0     C71116   5.608   0.981   4.058  0.5372  0.8981 -0.3361
  516MOL0     C71117   5.524   1.090   4.069  0.5202 -0.8119  0.3855
  516MOL0     O71118   5.561   1.449   3.970 -0.1065 -0.2360  0.0386
  516MOL0     C71119   5.297   1.486   4.202  0.5914  0.1127 -0.4254
  516MOL0     C71120   5.185   1.568   4.247 -0.5511 -0.2895  0.5846
  516MOL0     N71121   4.702   1.606   4.638 -0.0204 -0.2655 -0.4830
  516MOL0     N71122   4.655   1.488   4.647  0.2227  0.3515 -0.4383
  516MOL0     C71123   3.489   0.992   4.578 -0.0309  0.7116 -0.4500
  516MOL0     C71124   3.368   0.958   4.514 -0.4720 -0.2942  0.4540
  516MOL0     C71125   3.038   0.660   4.386 -0.9777  0.1244 -0.7821
  516MOL0     C71126   3.069   0.658   4.247  0.0172  0.2742  0.2024
  516MOL0     C71127   2.975   0.604   4.159  0.6799 -0.0093  0.3959
  516MOL0     C71128   2.857   0.546   4.186  0.2789 -0.1890 -0.6881
  516MOL0     O71129   2.768   0.518   4.075 -0.8326  0.1999  0.1480
  516MOL0     C71130   2.633   0.483   4.106 -0.6966 -0.2674 -0.3565
  516MOL0     C71131   2.561   0.443   3.980 -0.1487  0.6121  0.9137
  516MOL0     C71132   2.623   0.310   3.933  0.5877 -0.0425  0.5567
  516MOL0     C71133   2.556   0.271   3.798 -0.7121  0.5315  0.3869
  516MOL0     C71134   2.553   0.124   3.766  0.2750 -0.0639 -0.3612
  516MOL0     C71135   2.565   0.006   3.738 -0.5368 -0.4177  0.4445
  516MOL0     C71136   2.824   0.539   4.323 -0.9403 -0.2967 -0.1924
  516MOL0     C71137   2.917   0.592   4.421 -0.0653  0.0714 -0.9588
  516MOL0     C71138   2.866   0.582   4.561 -0.5311  0.9598 -1.1710
  516MOL0     H71139   3.387   0.616   4.553 -0.2051 -1.2546  0.6279
  516MOL0     H71140   3.602   0.678   4.629 -0.8919 -1.6869 -3.5068
  516MOL0     H71141   3.720   1.121   4.715 -1.0792  1.6645 -4.1046
  516MOL0     H71142   3.756   1.057   4.554  1.2317 -1.6983 -1.2877
  516MOL0     H71143   3.899   0.963   4.797 -1.4702 -0.6377 -0.1847
  516MOL0     H71144   3.933   0.921   4.626 -2.0695 -0.6673  0.6191
  516MOL0     H71145   3.938   1.198   4.772  0.1237 -1.0266  0.6825
  516MOL0     H71146   4.083   1.103   4.736  3.0595  2.5253 -5.5592
  516MOL0     H71147   4.028   1.109   4.474 -0.9854  3.5263 -3.6983
  516MOL0     H71148   3.916   1.231   4.523  1.8755 -0.6620 -4.1474
  516MOL0     H71149   4.109   1.348   4.658 -0.7627 -1.2184  0.6650
  516MOL0     H71150   4.117   1.355   4.474 -0.1279 -1.3328 -1.3657
  516MOL0     H71151   4.277   1.174   4.663  1.8023 -0.0413 -0.5690
  516MOL0     H71152   4.288   1.180   4.482  1.7688 -0.4944  0.6103
  516MOL0     H71153   4.403   1.387   4.683  3.4265  2.7317 -2.1686
  516MOL0     H71154   4.328   1.443   4.545  1.0315  1.5472  4.5036
  516MOL0     H71155   4.565   1.266   4.566  4.0312  2.3392 -1.4602
  516MOL0     H71156   4.500   1.310   4.414  3.5621 -0.8701  0.0317
  516MOL0     H71157   4.575   1.576   4.339 -0.7137  0.4538  0.9275
  516MOL0     H71158   4.667   1.860   4.550  0.9000 -0.8246  1.8483
  516MOL0     H71159   4.669   1.831   4.377 -2.2847  1.8135  1.4686
  516MOL0     H71160   4.900   1.910   4.471  2.4916 -0.3044  1.2841
  516MOL0     H71161   4.875   1.800   4.594 -1.0471  5.1418  0.1971
  516MOL0     H71162   5.044   1.709   4.446  1.3287  0.8446 -0.2483
  516MOL0     H71163   4.919   1.597   4.424  0.0942 -0.1393  4.4124
  516MOL0     H71164   4.944   1.649   4.196  0.4554  0.0098  1.1677
  516MOL0     H71165   4.878   1.804   4.230  1.9329  3.2063  3.2245
  516MOL0     H71166   5.229   1.805   4.018  0.8563 -0.6813 -0.8012
  516MOL0     H71167   5.439   1.587   3.828  0.6980  0.4168 -0.2761
  516MOL0     H71168   5.492   1.737   3.903 -1.8629  3.3648 -0.0808
  516MOL0     H71169   5.326   1.732   3.831 -0.8935 -2.0517 -1.4949
  516MOL0     H71170   5.753   1.324   4.126  0.0259 -0.3420 -1.9667
  516MOL0     H71171   5.900   1.143   4.114  0.4769 -0.9465  3.1443
  516MOL0     H71172   5.889   1.004   3.895  1.3112  2.0276  4.3457
  516MOL0     H71173   6.010   0.924   3.980  0.7625  1.1908 -1.9133
  516MOL0     H71174   5.985   0.782   3.777 -0.3395 -1.4011  0.5718
  516MOL0     H71175   5.899   0.695   3.902 -1.6639 -0.9502 -1.2175
  516MOL0     H71176   5.809   0.883   3.689  3.8716  1.6008  2.5514
  516MOL0     H71177   5.686   0.822   3.806  1.0850  2.0178  0.7979
  516MOL0     H71178   5.753   0.588   3.719 -2.7709  2.1072  2.7833
  516MOL0     H71179   5.869   0.686   3.608 -0.3021  0.0743 -0.7873
  516MOL0     H71180   5.668   0.577   3.507 -3.1375 -1.2917  2.3276
  516MOL0     H71181   5.571   0.677   3.608  1.2249 -4.2839  2.6436
  516MOL0     H71182   5.739   0.769   3.378  2.3517  1.4229  1.5174
  516MOL0     H71183   5.672   0.888   3.488  1.6186 -1.4386  2.1926
  516MOL0     H71184   5.446   0.771   3.464  0.9227 -2.0796  1.0523
  516MOL0     H71185   5.525   0.671   3.327  1.5667 -0.7676  1.5347
  516MOL0     H71186   5.580   0.921   3.240 -0.1511 -0.3031 -0.9120
  516MOL0     H71187   5.448   0.968   3.350 -1.8659  0.7082  0.6742
  516MOL0     H71188   5.562   0.887   4.028 -3.0239  1.2033  3.3456
  516MOL0     H71189   5.419   1.084   4.044 -0.2759 -1.2564  3.4562
  516MOL0     H71190   5.310   1.398   4.263 -3.8053  1.3272  2.7534
  516MOL0     H71191   5.127   1.554   4.338  0.0082  1.9673  1.3464
  516MOL0     H71192   3.510   1.097   4.598 -1.5475  0.6049  2.1977
  516MOL0     H71193   3.304   1.041   4.489 -0.3104  0.4624  2.3414
  516MOL0     H71194   3.160   0.709   4.218  0.2706  0.4546  1.2558
  516MOL0     H71195   3.004   0.601   4.055  0.3960  2.3903  0.2048
  516MOL0     H71196   2.625   0.398   4.174 -1.7950 -0.3382 -0.5628
  516MOL0     H71197   2.578   0.565   4.154 -1.7372  0.0443 -2.0305
  516MOL0     H71198   2.579   0.519   3.904  1.5713 -0.5441  0.0837
  516MOL0     H71199   2.453   0.434   3.988 -0.7563  4.5143 -0.8471
  516MOL0     H71200   2.732   0.322   3.933  0.3324  4.0285  2.1550
  516MOL0     H71201   2.598   0.229   4.002  0.6546 -2.0369 -1.6695
  516MOL0     H71202   2.614   0.315   3.717 -2.2096  1.4628 -0.2048
  516MOL0     H71203   2.460   0.323   3.794 -1.3456 -0.5894  0.3908
  516MOL0     H71204   2.578  -0.097   3.712 -1.8490 -0.2858 -0.8527
  516MOL0     H71205   2.734   0.495   4.364 -1.9493  2.2090  0.4470
  516MOL0     H71206   2.843   0.681   4.601 -2.7487  0.9146 -2.2257
  516MOL0     H71207   2.781   0.513   4.564 -0.7694  1.2665 -0.6539
  516MOL0     H71208   2.941   0.536   4.627 -1.0138 -0.7336 -1.7655
  517MOL0     O71209   7.020  11.122   6.999  0.2134 -0.0418  0.1551
  517MOL0     C71210   7.138  11.128   7.021 -0.3490  0.0337  0.1085
  517MOL0     O71211   7.211  11.024   7.075  0.6017 -0.1113  0.1020
  517MOL0     C71212   7.132  10.912   7.075 -0.3135 -0.0870  0.2902
  517MOL0     C71213   7.071  10.877   7.194 -0.6415 -0.5996  0.6269
  517MOL0     C71214   6.955  10.791   7.187 -0.4236  1.0894 -0.1012
  517MOL0     C71215   6.922  10.720   7.070 -0.7397 -0.2811 -0.9312
  517MOL0     O71216   6.817  10.632   7.063  0.0962  0.0200 -0.2685
  517MOL0     C71217   6.725  10.642   6.957 -0.2603 -0.6354 -1.2808
  517MOL0     C71218   6.660  10.509   6.952 -0.0368 -0.5754  0.3911
  517MOL0     C71219   6.579  10.478   7.079 -0.0274  0.9295  0.6448
  517MOL0     C71220   6.525  10.334   7.064  0.1736  0.2277  0.0781
  517MOL0     C71221   6.419  10.291   7.167 -0.9409  0.0175 -0.1014
  517MOL0     C71222   6.473  10.262   7.299 -0.0343  0.1215 -0.3126
  517MOL0     C71223   6.520  10.122   7.309  0.0944  0.5859 -0.7208
  517MOL0     C71224   6.585  10.111   7.445  0.3376  1.2594 -0.9681
  517MOL0     N71225   6.610   9.974   7.475  0.4247  0.3076 -0.2136
  517MOL0     C71226   6.529   9.879   7.529  0.5505 -0.3800 -0.4825
  517MOL0     C71227   6.604   9.766   7.544 -1.6283 -1.1776  0.5554
  517MOL0     C71228   6.562   9.651   7.618  0.5766  0.0334  0.3609
  517MOL0     C71229   6.566   9.667   7.768 -0.0509 -0.9674 -0.3589
  517MOL0     C71230   6.467   9.771   7.815 -0.2169 -1.0084 -0.4349
  517MOL0     C71231   6.444   9.770   7.971 -0.4976  0.8423 -0.2702
  517MOL0     O71232   6.351   9.867   7.992  0.0595  0.2469 -1.0672
  517MOL0     C71233   6.287   9.872   8.115 -0.5383 -0.5480 -0.5253
  517MOL0     C71234   6.186   9.968   8.118  0.2334  0.3122  1.2327
  517MOL0     C71235   6.123  10.003   8.232 -0.6095 -0.4034  0.3233
  517MOL0     C71236   6.007  10.103   8.220  0.8433 -0.2639 -0.5912
  517MOL0     C71237   6.158   9.954   8.363  0.2926 -0.0072  1.3733
  517MOL0     C71238   6.086   9.972   8.500  0.1526 -0.1529 -0.2530
  517MOL0     O71239   6.110   9.882   8.593  0.5457  0.2266  0.1712
  517MOL0     C71240   6.077   9.890   8.727 -0.8889 -0.6562 -0.7025
  517MOL0     C71241   5.971   9.969   8.784  0.1604  0.6545 -0.5240
  517MOL0     C71242   5.949   9.968   8.925  0.8791 -0.7895  0.4694
  517MOL0     C71243   6.034   9.903   9.010  0.3099  0.3952  0.0352
  517MOL0     O71244   6.029   9.895   9.147  0.9563 -0.7352  0.0920
  517MOL0     C71245   5.945   9.986   9.219 -0.2372  0.4480  0.9464
  517MOL0     C71246   5.933   9.961   9.368 -0.7405 -0.4433  0.2148
  517MOL0     C71247   5.830   9.854   9.398  0.4244  0.7667  0.1043
  517MOL0     C71248   5.830   9.836   9.550  0.6353  0.4881  0.0552
  517MOL0     C71249   5.715   9.749   9.594  0.0281 -0.0208  0.2059
  517MOL0     C71250   5.692   9.753   9.745 -0.5919  0.3800 -0.1428
  517MOL0     C71251   5.585   9.657   9.804 -0.0933  0.3397 -0.2015
  517MOL0     C71252   5.642   9.518   9.846  0.4402 -0.9488 -0.4365
  517MOL0    Cl71253   5.749   9.545   9.982 -0.1669 -0.1645 -0.4400
  517MOL0     C71254   6.132   9.820   8.953  0.2932  0.1647 -0.3987
  517MOL0     C71255   6.152   9.819   8.818 -0.9773  0.0862 -0.3228
  517MOL0     O71256   6.020  10.072   8.518 -0.1195 -0.0766  0.4199
  517MOL0     C71257   6.270   9.864   8.359  0.1716 -0.7497 -0.4106
  517MOL0     C71258   6.329   9.822   8.240  0.4700  0.5812  0.6342
  517MOL0     N71259   6.732   9.795   7.493 -0.2290 -0.1647 -0.0287
  517MOL0     N71260   6.724   9.918   7.447  0.4183 -1.1302 -0.1309
  517MOL0     C71261   7.007  10.745   6.962 -0.4060  0.4637 -0.3386
  517MOL0     C71262   7.111  10.834   6.963  0.1627 -0.2091 -0.5816
  517MOL0     C71263   7.207  11.251   6.971  0.1780 -0.6222 -0.5315
  517MOL0     C71264   7.312  11.234   6.879  0.2164 -0.3180  0.6951
  517MOL0     C71265   7.375  11.340   6.817  0.9878  0.4099 -0.1149
  517MOL0     C71266   7.338  11.467   6.864 -0.4709  0.4577 -0.4588
  517MOL0     O71267   7.403  11.580   6.815 -0.6616 -0.6091  1.0439
  517MOL0     C71268   7.537  11.556   6.752  0.2873  0.3893  0.3697
  517MOL0     C71269   7.573  11.676   6.660  0.0359  0.5499 -0.6695
  517MOL0     C71270   7.698  11.648   6.571  0.0409  0.1334  0.5019
  517MOL0     C71271   7.831  11.666   6.643  0.0913 -0.3792  0.6914
  517MOL0     C71272   7.854  11.809   6.666  0.3736 -0.5020 -0.3451
  517MOL0     C71273   7.879  11.930   6.659  0.0293 -0.3069 -0.4844
  517MOL0     C71274   7.253  11.484   6.974  1.0838  0.3531  0.8132
  517MOL0     C71275   7.180  11.380   7.019  0.2401  1.0249  0.2124
  517MOL0     C71276   7.083  11.408   7.127 -0.9011  0.7494  0.1847
  517MOL0     H71277   7.098  10.935   7.282 -4.4583  0.8188  1.0560
  517MOL0     H71278   6.893  10.780   7.275 -0.8770  3.2600 -0.0931
  517MOL0     H71279   6.774  10.669   6.863  1.7702 -1.0104 -0.3822
  517MOL0     H71280   6.647  10.714   6.985 -0.1710 -0.7448 -0.7476
  517MOL0     H71281   6.580  10.515   6.876 -0.5351 -0.4827  0.9168
  517MOL0     H71282   6.730  10.433   6.916 -1.1408 -1.4810  0.0987
  517MOL0     H71283   6.631  10.493   7.174 -3.1141  1.8888  2.3109
  517MOL0     H71284   6.498  10.551   7.085 -2.2655 -1.4570  5.8857
  517MOL0     H71285   6.458  10.325   6.978 -3.1426  0.4542  2.4520
  517MOL0     H71286   6.604  10.259   7.070 -0.2976 -0.4866 -1.9329
  517MOL0     H71287   6.356  10.213   7.123  0.8604 -0.9535 -1.0526
  517MOL0     H71288   6.342  10.366   7.184 -3.2735 -2.9355  4.9051
  517MOL0     H71289   6.555  10.325   7.335 -1.3186  0.3970  2.3835
  517MOL0     H71290   6.395  10.269   7.376  0.1857 -1.4457  0.0853
  517MOL0     H71291   6.586  10.082   7.232 -1.0911 -2.1797 -0.4580
  517MOL0     H71292   6.438  10.048   7.305  2.1880 -2.2360  2.6280
  517MOL0     H71293   6.681  10.163   7.442  0.9890  0.4770  2.3197
  517MOL0     H71294   6.512  10.153   7.515 -3.4851 -3.3894 -1.6436
  517MOL0     H71295   6.430   9.896   7.572  0.9456 -1.1601  0.8131
  517MOL0     H71296   6.626   9.568   7.585  0.2243 -0.4270  0.8244
  517MOL0     H71297   6.463   9.615   7.588 -0.1689  2.3067 -0.0471
  517MOL0     H71298   6.530   9.578   7.820 -0.8945  0.7079  2.0682
  517MOL0     H71299   6.667   9.696   7.798 -0.7046  0.9415  0.1146
  517MOL0     H71300   6.510   9.868   7.790  3.5323 -1.8844  1.9202
  517MOL0     H71301   6.372   9.753   7.764 -0.0044 -1.1829 -0.7678
  517MOL0     H71302   6.402   9.672   7.996 -0.5465  0.7940 -0.5308
  517MOL0     H71303   6.541   9.780   8.019  1.0176  1.6716 -3.2351
  517MOL0     H71304   6.153  10.007   8.021  2.2662 -1.3996 -0.2259
  517MOL0     H71305   5.960  10.130   8.315  1.1171 -1.0115 -0.2390
  517MOL0     H71306   5.932  10.064   8.151 -0.5502  0.0990  0.6730
  517MOL0     H71307   6.046  10.191   8.168 -0.9255 -0.1236 -1.7399
  517MOL0     H71308   5.905  10.025   8.719 -3.3444 -0.9125  1.4361
  517MOL0     H71309   5.869  10.030   8.963  0.2311  0.1956 -2.2229
  517MOL0     H71310   5.988  10.085   9.201 -0.8177  1.0144  2.5450
  517MOL0     H71311   5.849   9.974   9.168  0.0841 -0.7615  0.5892
  517MOL0     H71312   6.028   9.924   9.409 -1.1323 -0.0303  1.5518
  517MOL0     H71313   5.919  10.056   9.420 -1.0226 -1.0813  1.3286
  517MOL0     H71314   5.845   9.756   9.351 -4.1314 -0.1457  0.0728
  517MOL0     H71315   5.734   9.893   9.362  0.6625 -0.4280 -1.9853
  517MOL0     H71316   5.823   9.936   9.593 -2.3680  0.2305  0.3991
  517MOL0     H71317   5.926   9.792   9.578 -0.2414 -1.7443 -0.1508
  517MOL0     H71318   5.620   9.785   9.552  0.7726  0.4496 -1.1282
  517MOL0     H71319   5.743   9.651   9.555 -0.3342 -0.1597  0.2907
  517MOL0     H71320   5.659   9.853   9.776 -1.5322  0.0870 -0.1979
  517MOL0     H71321   5.790   9.735   9.792 -0.3289 -0.9206 -1.1457
  517MOL0     H71322   5.509   9.641   9.727 -3.2190 -2.0905  3.1021
  517MOL0     H71323   5.544   9.708   9.891 -1.5633 -0.5759 -0.3315
  517MOL0     H71324   5.697   9.466   9.768  1.7076 -0.1010 -0.1579
  517MOL0     H71325   5.566   9.450   9.885 -0.3670  0.3980  0.4367
  517MOL0     H71326   6.191   9.758   9.019  0.2516  0.0846 -0.4366
  517MOL0     H71327   6.233   9.756   8.783 -4.0332 -3.9611 -0.8594
  517MOL0     H71328   6.307   9.818   8.450 -2.5778 -2.4546 -0.0304
  517MOL0     H71329   6.413   9.754   8.243 -0.1255 -0.2043  0.1042
  517MOL0     H71330   6.973  10.693   6.872 -2.3362 -0.5379  0.8929
  517MOL0     H71331   7.151  10.864   6.867 -0.0558 -0.0295 -0.6169
  517MOL0     H71332   7.322  11.134   6.838 -1.2442  0.3617 -1.4778
  517MOL0     H71333   7.441  11.310   6.736  1.3929  0.9791  0.0069
  517MOL0     H71334   7.609  11.537   6.832 -0.4124 -1.1871  0.6733
  517MOL0     H71335   7.524  11.474   6.681 -2.6324  0.1804  1.0177
  517MOL0     H71336   7.581  11.765   6.723 -2.3995 -0.6791  1.5792
  517MOL0     H71337   7.486  11.694   6.595 -0.2179  0.2283 -0.4275
  517MOL0     H71338   7.706  11.551   6.521  0.9081  0.3436  0.1988
  517MOL0     H71339   7.698  11.708   6.480  0.5633  1.0084  1.0622
  517MOL0     H71340   7.912  11.628   6.579 -0.0678  0.9790 -0.3569
  517MOL0     H71341   7.833  11.607   6.736 -1.5078 -1.0624  0.3186
  517MOL0     H71342   7.918  12.029   6.667  0.1853 -0.5327  3.1288
  517MOL0     H71343   7.246  11.585   7.011 -0.1861 -0.3890  2.7779
  517MOL0     H71344   7.087  11.331   7.205  0.2858  0.2040 -0.3933
  517MOL0     H71345   7.090  11.509   7.169 -0.9531  0.9810 -0.3606
  517MOL0     H71346   6.982  11.396   7.086 -2.0733  0.8576  2.8355
  518MOL0     O71347   6.687   5.041   2.589 -0.5724  0.1407 -0.4433
  518MOL0     C71348   6.689   5.115   2.691  0.1356  0.8030 -0.3145
  518MOL0     O71349   6.586   5.191   2.731  0.2157  0.0300 -0.4101
  518MOL0     C71350   6.472   5.202   2.651 -0.6458  0.7581  0.1319
  518MOL0     C71351   6.481   5.253   2.521 -0.6957 -0.7747 -0.2927
  518MOL0     C71352   6.373   5.288   2.447 -0.4645 -0.6347 -0.0035
  518MOL0     C71353   6.242   5.270   2.500 -0.0544  0.0277 -0.0432
  518MOL0     O71354   6.123   5.291   2.425 -0.1705  0.1013  0.3522
  518MOL0     C71355   6.125   5.319   2.288 -0.5029 -0.7177 -0.2975
  518MOL0     C71356   5.999   5.400   2.285 -0.0665 -0.2639 -0.2205
  518MOL0     C71357   5.880   5.313   2.293  1.0633  1.1719  0.4133
  518MOL0     C71358   5.760   5.414   2.295  0.9099 -0.3372  0.3950
  518MOL0     C71359   5.624   5.362   2.248 -0.5350 -0.1650 -0.0199
  518MOL0     C71360   5.515   5.464   2.296  0.0985  0.5357 -0.2610
  518MOL0     C71361   5.388   5.429   2.218 -0.1336 -0.7635 -0.4280
  518MOL0     C71362   5.266   5.500   2.256 -0.5893 -0.2990  0.1133
  518MOL0     N71363   5.229   5.456   2.394  1.1393 -0.2106 -0.4732
  518MOL0     C71364   5.180   5.329   2.429  0.6923  0.1931  0.7386
  518MOL0     C71365   5.128   5.340   2.555 -0.1576  0.1664 -0.5493
  518MOL0     C71366   5.068   5.225   2.640  0.4197 -0.2446 -0.0722
  518MOL0     C71367   5.175   5.155   2.707 -0.5830  0.3514 -0.9647
  518MOL0     C71368   5.114   5.064   2.824  0.2830  0.7059 -0.2921
  518MOL0     C71369   5.214   5.019   2.933 -0.4616 -0.3766 -0.8673
  518MOL0     O71370   5.129   4.974   3.041 -0.0005  0.5852  0.3569
  518MOL0     C71371   5.174   4.918   3.161  0.0640 -0.2982 -0.2168
  518MOL0     C71372   5.082   4.862   3.255  0.7261 -0.0368 -0.4797
  518MOL0     C71373   5.113   4.795   3.375 -0.9246  0.2139  0.3669
  518MOL0     C71374   4.993   4.770   3.470 -0.7424  0.1372  0.8145
  518MOL0     C71375   5.258   4.777   3.398 -0.5837 -0.1906 -0.2153
  518MOL0     C71376   5.312   4.720   3.519  0.9517  0.0360 -0.3989
  518MOL0     O71377   5.237   4.644   3.610  0.7664  0.4008  0.4004
  518MOL0     C71378   5.297   4.601   3.728 -0.0830 -1.0507  0.4506
  518MOL0     C71379   5.301   4.469   3.750 -0.0503  0.7070  0.0833
  518MOL0     C71380   5.357   4.426   3.871  0.2753 -0.2736 -1.0294
  518MOL0     C71381   5.386   4.509   3.975  0.1713  0.2847  0.3655
  518MOL0     O71382   5.444   4.448   4.087  0.4300  0.5326  0.4649
  518MOL0     C71383   5.409   4.516   4.204 -0.1662  0.1837  0.4535
  518MOL0     C71384   5.456   4.434   4.323  0.9586  0.8304 -0.9435
  518MOL0     C71385   5.612   4.454   4.338  0.3337  0.5217  0.0886
  518MOL0     C71386   5.663   4.408   4.471 -0.5727 -0.3053  0.6546
  518MOL0     C71387   5.822   4.408   4.474 -0.0163 -0.1569 -1.0794
  518MOL0     C71388   5.882   4.544   4.435 -0.0848 -0.2533 -0.2067
  518MOL0     C71389   6.020   4.537   4.474 -0.5159 -0.2969  0.3439
  518MOL0     C71390   6.091   4.667   4.430  0.8373  0.7853  0.0988
  518MOL0    Cl71391   6.265   4.661   4.462 -0.2260 -0.0441 -0.0934
  518MOL0     C71392   5.363   4.649   3.959 -0.8251  0.2949 -0.2353
  518MOL0     C71393   5.323   4.689   3.829  0.2343 -0.2718 -0.5834
  518MOL0     O71394   5.418   4.767   3.545 -0.0722  0.1063 -0.0115
  518MOL0     C71395   5.359   4.837   3.309 -1.3113  0.2643 -0.0850
  518MOL0     C71396   5.311   4.910   3.191 -0.2056 -0.8033 -1.3115
  518MOL0     N71397   5.131   5.470   2.586 -0.5736 -0.0273  0.5148
  518MOL0     N71398   5.175   5.538   2.484 -0.2667  0.3444  0.0850
  518MOL0     C71399   6.223   5.224   2.640 -0.8581 -0.5372 -0.9654
  518MOL0     C71400   6.345   5.196   2.711  0.1160  0.3947 -0.1095
  518MOL0     C71401   6.821   5.118   2.767  0.3496 -0.5046  0.2047
  518MOL0     C71402   6.878   5.245   2.798 -1.1441 -0.2151 -0.5857
  518MOL0     C71403   6.998   5.253   2.869 -0.3822  0.2370 -0.5903
  518MOL0     C71404   7.057   5.137   2.922  1.0569  0.4483 -0.0176
  518MOL0     O71405   7.168   5.148   3.000 -0.1998 -0.6645 -0.4409
  518MOL0     C71406   7.221   5.036   3.083  0.3714  0.1515  0.0053
  518MOL0     C71407   7.295   5.097   3.193  0.3325 -0.4283 -0.0468
  518MOL0     C71408   7.404   5.177   3.135 -0.1790  0.3900  0.5785
  518MOL0     C71409   7.474   5.253   3.248  0.3267  0.6490 -0.3096
  518MOL0     C71410   7.545   5.185   3.354 -0.1915  0.3441 -0.3423
  518MOL0     C71411   7.612   5.139   3.446 -0.4527  0.7161  0.7886
  518MOL0     C71412   7.015   5.013   2.881  0.4660 -0.9652  0.1175
  518MOL0     C71413   6.896   4.992   2.796  0.8264  0.1561  0.2925
  518MOL0     C71414   6.834   4.849   2.762 -0.2630 -0.3356  0.6617
  518MOL0     H71415   6.585   5.271   2.493 -0.3017  4.5563  3.2175
  518MOL0     H71416   6.380   5.314   2.342 -0.6280 -1.1937 -0.1535
  518MOL0     H71417   6.124   5.223   2.234 -0.6233 -0.7642 -0.2128
  518MOL0     H71418   6.207   5.389   2.267 -1.9130  2.0252  2.5560
  518MOL0     H71419   5.998   5.474   2.366  0.4727 -0.6153  0.1102
  518MOL0     H71420   6.002   5.447   2.186  1.8714 -1.7316 -0.9304
  518MOL0     H71421   5.886   5.258   2.199 -1.8187  0.9547  0.2653
  518MOL0     H71422   5.881   5.252   2.383  0.2029 -0.6743 -0.7760
  518MOL0     H71423   5.741   5.464   2.390 -0.1176  0.9314 -0.4360
  518MOL0     H71424   5.786   5.492   2.224 -0.1478 -4.6839 -5.5660
  518MOL0     H71425   5.602   5.262   2.288  1.1317 -0.0211  1.3178
  518MOL0     H71426   5.627   5.352   2.139  0.0757 -1.9000  0.1321
  518MOL0     H71427   5.511   5.445   2.403 -0.0021 -0.5579 -0.4511
  518MOL0     H71428   5.552   5.565   2.276 -0.5968  0.9363  0.4364
  518MOL0     H71429   5.377   5.324   2.246 -3.3791  0.3188  3.1975
  518MOL0     H71430   5.403   5.436   2.109 -1.4570  0.6396 -0.5541
  518MOL0     H71431   5.271   5.608   2.245 -1.5966 -0.3539 -1.1796
  518MOL0     H71432   5.191   5.468   2.182 -1.3635 -1.3894  1.3246
  518MOL0     H71433   5.186   5.249   2.356 -1.9985  0.8416 -0.3214
  518MOL0     H71434   5.009   5.163   2.572  2.1625 -0.2621 -1.6455
  518MOL0     H71435   4.990   5.278   2.696 -0.7821 -1.7316 -0.2844
  518MOL0     H71436   5.239   5.096   2.641  1.2936 -1.2343  2.0257
  518MOL0     H71437   5.233   5.232   2.759  2.3519 -2.1851 -0.1017
  518MOL0     H71438   5.030   5.123   2.864  0.4229  1.1786 -0.6805
  518MOL0     H71439   5.072   4.973   2.780 -1.7502  1.6917 -0.5151
  518MOL0     H71440   5.285   4.939   2.910  0.1400 -0.8367  2.1977
  518MOL0     H71441   5.267   5.109   2.966  1.1667 -1.2629 -0.9571
  518MOL0     H71442   4.976   4.879   3.241  0.7826  2.2757  1.3611
  518MOL0     H71443   4.911   4.764   3.398  0.6943  0.9869 -0.9689
  518MOL0     H71444   4.985   4.849   3.545  1.1911 -0.9555  2.2930
  518MOL0     H71445   5.001   4.676   3.526  2.6016  0.5468  1.2102
  518MOL0     H71446   5.272   4.402   3.670 -0.1730  2.5887 -1.5265
  518MOL0     H71447   5.376   4.320   3.880 -2.5003 -0.7398  0.5024
  518MOL0     H71448   5.463   4.611   4.192  0.2496 -0.0840  0.1844
  518MOL0     H71449   5.306   4.547   4.224  0.3776  1.2410  1.7714
  518MOL0     H71450   5.415   4.455   4.422  0.8989 -3.3400  0.1254
  518MOL0     H71451   5.424   4.330   4.305  1.1182  0.7214 -0.6064
  518MOL0     H71452   5.641   4.558   4.321  1.6754  0.2189  0.3682
  518MOL0     H71453   5.668   4.386   4.272 -0.1176  0.4881 -0.2633
  518MOL0     H71454   5.619   4.310   4.488 -2.8073 -0.1304 -2.9510
  518MOL0     H71455   5.616   4.464   4.553 -0.1789 -0.1557  0.7802
  518MOL0     H71456   5.857   4.380   4.574  0.9091 -2.1102 -1.8737
  518MOL0     H71457   5.862   4.334   4.403 -1.1407 -1.1693 -0.6869
  518MOL0     H71458   5.823   4.618   4.490  1.4083  0.4318  0.5353
  518MOL0     H71459   5.888   4.558   4.327 -0.2225 -0.4891 -0.2453
  518MOL0     H71460   6.069   4.451   4.428  0.1685 -0.4170  1.2917
  518MOL0     H71461   6.026   4.527   4.582 -2.9027  0.6699  0.6227
  518MOL0     H71462   6.061   4.752   4.492 -0.9159  2.0956 -2.3707
  518MOL0     H71463   6.054   4.674   4.327  0.0239 -3.6989 -0.1061
  518MOL0     H71464   5.384   4.725   4.034 -1.3598  0.4891 -0.2807
  518MOL0     H71465   5.288   4.791   3.816 -0.7236 -0.7082 -1.7491
  518MOL0     H71466   5.464   4.824   3.332 -1.1140 -1.6937 -1.7710
  518MOL0     H71467   5.387   4.951   3.124  1.8455  0.5031  1.5658
  518MOL0     H71468   6.131   5.208   2.694 -0.8493 -0.3211 -0.8850
  518MOL0     H71469   6.347   5.173   2.817 -1.5664  2.3152  0.4044
  518MOL0     H71470   6.830   5.339   2.770 -4.1974 -1.7437 -0.9782
  518MOL0     H71471   7.048   5.349   2.882  0.3784 -0.3417  1.0848
  518MOL0     H71472   7.148   4.965   3.122  1.0336 -1.2943 -1.2861
  518MOL0     H71473   7.286   4.981   3.014 -0.3499 -0.1478 -0.4511
  518MOL0     H71474   7.345   5.028   3.261  1.6080  0.7392  0.2369
  518MOL0     H71475   7.236   5.170   3.250  1.0871  0.8680 -0.8900
  518MOL0     H71476   7.473   5.107   3.088 -1.2250  0.1889 -0.7160
  518MOL0     H71477   7.361   5.249   3.065 -1.9097 -0.2079  0.9658
  518MOL0     H71478   7.395   5.307   3.301 -0.9108 -1.4591  0.1403
  518MOL0     H71479   7.545   5.321   3.201  1.1944  0.3047  0.4738
  518MOL0     H71480   7.672   5.083   3.515 -0.8560  2.7716  2.9226
  518MOL0     H71481   7.058   4.922   2.921  0.1889 -0.7607  0.8994
  518MOL0     H71482   6.867   4.810   2.665 -0.0820  2.9830 -0.7398
  518MOL0     H71483   6.865   4.772   2.834  1.3158 -0.7978 -0.4518
  518MOL0     H71484   6.727   4.869   2.765  0.0839  1.6785  1.5118
  519MOL0     O71485   8.473   2.127   3.986 -0.0682  0.6578 -0.0906
  519MOL0     C71486   8.400   2.218   4.034 -1.0129 -0.0134 -0.5946
  519MOL0     O71487   8.268   2.210   4.061  0.6212  0.0294  0.1124
  519MOL0     C71488   8.218   2.081   4.054  0.0991 -0.2538 -0.8352
  519MOL0     C71489   8.181   2.030   3.935  0.1228  0.1099 -0.0289
  519MOL0     C71490   8.111   1.906   3.927  1.0856 -0.7696  0.1711
  519MOL0     C71491   8.074   1.832   4.039 -1.0405  0.2612 -0.1931
  519MOL0     O71492   8.015   1.706   4.045 -0.7518 -0.4074  0.5145
  519MOL0     C71493   7.918   1.669   3.946  0.3357  0.0883  0.8118
  519MOL0     C71494   7.989   1.575   3.839 -0.6725 -0.8883 -0.4985
  519MOL0     C71495   7.892   1.493   3.760 -0.2463 -0.6513  0.0870
  519MOL0     C71496   7.962   1.380   3.683  0.2755 -0.3404 -0.4224
  519MOL0     C71497   7.861   1.333   3.573 -0.0222  0.0238  0.1424
  519MOL0     C71498   7.875   1.185   3.514 -0.6456 -0.0542 -0.0863
  519MOL0     C71499   8.011   1.119   3.500 -0.4602  0.5286 -0.2288
  519MOL0     C71500   8.099   1.200   3.403 -0.2389  0.6779  0.2351
  519MOL0     N71501   8.228   1.134   3.382  0.0595  0.0650 -0.5339
  519MOL0     C71502   8.345   1.157   3.462  0.1600  0.2024 -0.3155
  519MOL0     C71503   8.430   1.062   3.420  0.5561  0.3894 -0.0667
  519MOL0     C71504   8.570   1.028   3.486  0.2788 -0.8987  0.1887
  519MOL0     C71505   8.697   1.062   3.410 -0.6614  0.0922  0.0542
  519MOL0     C71506   8.701   0.991   3.273 -0.2938 -0.8863 -0.3637
  519MOL0     C71507   8.836   0.994   3.188 -0.5331 -1.3516 -0.1165
  519MOL0     O71508   8.950   1.054   3.260  0.4361 -0.3557  0.3381
  519MOL0     C71509   9.051   0.975   3.307  0.0422  0.4377 -0.3372
  519MOL0     C71510   9.048   0.831   3.315  0.2102  0.1554  0.7203
  519MOL0     C71511   9.163   0.767   3.364 -0.0814 -0.4024 -0.3653
  519MOL0     C71512   9.163   0.623   3.346  1.1736  0.3102  0.6341
  519MOL0     C71513   9.282   0.838   3.408  0.1619 -0.0743  0.7464
  519MOL0     C71514   9.411   0.779   3.450  0.9345 -0.3748 -0.4690
  519MOL0     O71515   9.503   0.855   3.509  0.8861 -0.7917 -0.9843
  519MOL0     C71516   9.623   0.801   3.544  0.7094  0.7354  0.1266
  519MOL0     C71517   9.638   0.712   3.652  0.3754 -0.2308  0.2826
  519MOL0     C71518   9.763   0.661   3.675  0.4578  0.4076 -0.4120
  519MOL0     C71519   9.874   0.675   3.591 -0.3414  0.7275 -0.8541
  519MOL0     O71520   9.990   0.616   3.626 -0.5545  0.4214 -1.1234
  519MOL0     C71521  10.094   0.626   3.526  0.7760 -0.2188 -0.7915
  519MOL0     C71522  10.075   0.522   3.410  0.5814 -0.1240 -0.4553
  519MOL0     C71523  10.193   0.501   3.321 -0.2722 -0.2537  0.0903
  519MOL0     C71524  10.168   0.380   3.230 -0.3383  0.2424  0.4061
  519MOL0     C71525  10.265   0.377   3.115  0.2826 -0.3832  0.3021
  519MOL0     C71526  10.333   0.239   3.089  0.3279 -0.8785 -0.5263
  519MOL0     C71527  10.438   0.194   3.192  0.0854 -0.7046  0.6125
  519MOL0     C71528  10.532   0.080   3.144 -0.8440  0.3741 -1.1103
  519MOL0    Cl71529  10.423  -0.043   3.089 -0.0433  0.2473  0.1510
  519MOL0     C71530   9.858   0.762   3.476 -0.1647 -0.3081 -0.1178
  519MOL0     C71531   9.734   0.834   3.468  0.9036  0.5874  0.2214
  519MOL0     O71532   9.426   0.660   3.421  0.2392  0.7056 -0.3735
  519MOL0     C71533   9.279   0.978   3.398  0.2642  0.4918 -0.3088
  519MOL0     C71534   9.164   1.043   3.351  0.2687 -0.1763  0.6028
  519MOL0     N71535   8.374   0.987   3.328 -0.0009  1.3146 -0.1990
  519MOL0     N71536   8.249   1.022   3.307  0.1040 -0.7701 -0.6124
  519MOL0     C71537   8.105   1.891   4.163  0.3026 -0.0658  0.6629
  519MOL0     C71538   8.185   2.017   4.175  0.3831 -0.1278 -0.2692
  519MOL0     C71539   8.455   2.356   4.039 -0.0607  0.0570 -0.0411
  519MOL0     C71540   8.510   2.407   3.918 -0.0098  0.5065  0.3466
  519MOL0     C71541   8.567   2.532   3.914  0.0444  0.8208 -0.7683
  519MOL0     C71542   8.576   2.607   4.037 -0.6920 -0.1265 -0.7344
  519MOL0     O71543   8.639   2.727   4.030  0.8442  0.0350  0.5215
  519MOL0     C71544   8.692   2.793   4.147 -0.1400  0.2176  0.4412
  519MOL0     C71545   8.615   2.924   4.180  0.4611  0.4628  0.7650
  519MOL0     C71546   8.466   2.898   4.213  0.4816 -0.2677  0.0596
  519MOL0     C71547   8.388   3.024   4.237 -0.3423 -0.0358  0.5275
  519MOL0     C71548   8.448   3.105   4.342  0.1031 -0.1971 -0.2749
  519MOL0     C71549   8.488   3.173   4.438  0.3083  1.2300 -0.2906
  519MOL0     C71550   8.520   2.554   4.161 -0.7350  0.0416  0.5900
  519MOL0     C71551   8.463   2.425   4.160 -0.9342 -0.3594  0.4793
  519MOL0     C71552   8.412   2.362   4.291  0.1207  0.7294 -0.6331
  519MOL0     H71553   8.204   2.094   3.851  0.8186  0.2096  0.2290
  519MOL0     H71554   8.084   1.859   3.833  0.0890 -1.9097  0.9929
  519MOL0     H71555   7.892   1.765   3.901  2.6226  0.1250 -0.5920
  519MOL0     H71556   7.826   1.628   3.990 -0.4953  1.1504  0.1140
  519MOL0     H71557   8.048   1.626   3.762 -2.7611  0.3983 -1.3281
  519MOL0     H71558   8.055   1.508   3.895  0.3264 -0.9209 -1.6664
  519MOL0     H71559   7.835   1.434   3.832  3.6758 -1.9320  2.4583
  519MOL0     H71560   7.825   1.552   3.697  1.9047  0.7207 -1.0111
  519MOL0     H71561   8.056   1.417   3.640  1.0160 -2.0382 -0.3445
  519MOL0     H71562   7.990   1.296   3.747  3.2546  0.9952  0.1994
  519MOL0     H71563   7.871   1.403   3.490 -1.9690 -1.5992 -1.5780
  519MOL0     H71564   7.761   1.353   3.612 -0.4702  1.9308 -1.8524
  519MOL0     H71565   7.820   1.123   3.586  2.4442 -0.1039  2.4386
  519MOL0     H71566   7.813   1.179   3.424 -2.2786 -3.0404  1.0905
  519MOL0     H71567   7.987   1.020   3.461 -0.2264  0.6372 -0.6554
  519MOL0     H71568   8.066   1.121   3.594 -1.5655  0.1374  0.4428
  519MOL0     H71569   8.056   1.202   3.302 -2.7106  2.8460  1.2091
  519MOL0     H71570   8.103   1.304   3.436 -0.8517  0.5286  0.7951
  519MOL0     H71571   8.365   1.223   3.546 -1.4898  2.4546 -1.6012
  519MOL0     H71572   8.574   0.919   3.498 -0.5013 -1.7004 -4.8450
  519MOL0     H71573   8.569   1.090   3.576  1.2547  0.7201 -0.8771
  519MOL0     H71574   8.705   1.170   3.394  2.8280 -0.2159 -1.1605
  519MOL0     H71575   8.783   1.035   3.472 -0.5734  0.9018  0.2994
  519MOL0     H71576   8.675   0.885   3.277  0.0686 -1.1139 -2.7922
  519MOL0     H71577   8.618   1.036   3.217 -0.3142 -0.8779 -0.3271
  519MOL0     H71578   8.860   0.896   3.145  2.4026 -1.2366  1.0874
  519MOL0     H71579   8.809   1.064   3.107  0.8482 -0.5967  0.0481
  519MOL0     H71580   8.962   0.771   3.289  2.7570 -2.7823 -1.7674
  519MOL0     H71581   9.234   0.590   3.270 -0.9283 -2.7347 -0.1707
  519MOL0     H71582   9.071   0.585   3.301  2.3207 -0.1731 -1.4083
  519MOL0     H71583   9.179   0.569   3.440  2.0624  2.0220  1.5337
  519MOL0     H71584   9.549   0.688   3.709 -0.7125  2.7104  0.0171
  519MOL0     H71585   9.776   0.594   3.759  2.1373  0.2153 -0.7872
  519MOL0     H71586  10.125   0.728   3.504  2.1015 -0.4647 -0.1345
  519MOL0     H71587  10.180   0.591   3.583 -0.9979 -1.3495  1.3536
  519MOL0     H71588  10.056   0.421   3.447  2.7262  0.2339  1.8886
  519MOL0     H71589   9.999   0.550   3.336  0.6145  1.0251 -0.0798
  519MOL0     H71590  10.279   0.473   3.384 -0.3720  0.9223  0.7800
  519MOL0     H71591  10.223   0.593   3.270  2.8167  0.2608  2.5306
  519MOL0     H71592  10.066   0.386   3.192  0.2317 -0.0046 -1.2764
  519MOL0     H71593  10.168   0.283   3.279 -1.3560  0.0344  0.0132
  519MOL0     H71594  10.201   0.411   3.033 -3.3904  0.3698  3.2482
  519MOL0     H71595  10.345   0.450   3.129 -1.7511  1.7523  1.4407
  519MOL0     H71596  10.385   0.262   2.995  0.6420  2.0384  0.2811
  519MOL0     H71597  10.247   0.172   3.090 -0.0549 -0.4700  2.5466
  519MOL0     H71598  10.377   0.164   3.278  1.7419  4.2904  3.9901
  519MOL0     H71599  10.495   0.282   3.224 -0.2463 -0.2051 -0.1487
  519MOL0     H71600  10.584   0.042   3.233 -2.8732  0.4820  0.1950
  519MOL0     H71601  10.597   0.115   3.063  0.2545  1.0789  0.0349
  519MOL0     H71602   9.934   0.797   3.406 -0.1147 -0.8817 -0.3623
  519MOL0     H71603   9.726   0.913   3.394  2.0188  1.2438  0.7686
  519MOL0     H71604   9.361   1.048   3.409  0.6822  0.6690 -3.5973
  519MOL0     H71605   9.165   1.151   3.354  0.5286 -0.0600 -1.7903
  519MOL0     H71606   8.067   1.842   4.252 -1.2252 -0.2245 -0.0452
  519MOL0     H71607   8.221   2.054   4.271 -0.0117  1.7891 -0.8215
  519MOL0     H71608   8.519   2.341   3.833 -0.1108  1.2720 -0.2678
  519MOL0     H71609   8.608   2.566   3.820  1.3650 -1.6401 -1.1585
  519MOL0     H71610   8.689   2.726   4.233  0.1046  1.3977  1.3825
  519MOL0     H71611   8.789   2.835   4.122 -1.1224  1.7509 -1.0704
  519MOL0     H71612   8.612   2.999   4.100 -0.0632  2.5931  2.6570
  519MOL0     H71613   8.663   2.963   4.271  3.2939 -0.5181 -0.2058
  519MOL0     H71614   8.427   2.859   4.119  1.4279  0.6828 -0.7437
  519MOL0     H71615   8.456   2.829   4.297  0.6805 -0.7727 -0.3309
  519MOL0     H71616   8.284   3.002   4.262 -0.4597  0.1740  0.2336
  519MOL0     H71617   8.381   3.071   4.139  2.9722 -1.2505 -0.4089
  519MOL0     H71618   8.505   3.241   4.519 -1.7364 -0.5116  1.7421
  519MOL0     H71619   8.516   2.607   4.255 -0.3877  1.2472 -0.0591
  519MOL0     H71620   8.434   2.255   4.298  2.4498  1.0053 -2.4610
  519MOL0     H71621   8.459   2.419   4.372  2.3070  1.2618 -2.1661
  519MOL0     H71622   8.304   2.373   4.299 -0.2415 -2.5761  0.3418
  520MOL0     O71623   8.289   0.001   4.977 -0.0958 -0.6449  0.1352
  520MOL0     C71624   8.309  -0.115   4.984 -0.5270 -0.1466 -0.9600
  520MOL0     O71625   8.411  -0.184   4.931 -0.4442 -0.1797  0.7551
  520MOL0     C71626   8.517  -0.126   4.862  0.2870 -0.4713  1.1042
  520MOL0     C71627   8.561  -0.191   4.753 -0.0741  0.5698  0.4630
  520MOL0     C71628   8.678  -0.131   4.684  0.9993 -0.5876  0.2478
  520MOL0     C71629   8.745  -0.019   4.729 -0.9491 -0.1794 -0.1227
  520MOL0     O71630   8.845   0.042   4.660 -0.1691 -0.7533  0.7910
  520MOL0     C71631   8.879   0.181   4.669  0.3307 -0.3574  0.1133
  520MOL0     C71632   9.001   0.221   4.577 -0.1403  0.1088 -0.0197
  520MOL0     C71633   8.979   0.153   4.439  0.4301  0.1431  0.3090
  520MOL0     C71634   9.088   0.196   4.335  0.7542 -0.3054 -0.9516
  520MOL0     C71635   9.034   0.212   4.196 -0.0810 -0.4316  0.5318
  520MOL0     C71636   8.947   0.100   4.148  0.7203  0.0964  0.0804
  520MOL0     C71637   9.014  -0.034   4.143 -1.1845  0.5909 -0.1214
  520MOL0     C71638   8.895  -0.139   4.143  0.1367 -0.1462  0.3116
  520MOL0     N71639   8.940  -0.273   4.121  0.6457 -0.7484 -0.6029
  520MOL0     C71640   8.947  -0.330   3.998  0.3592  0.4753 -0.0622
  520MOL0     C71641   8.947  -0.464   4.027  0.4485 -0.0555  0.0587
  520MOL0     C71642   8.951  -0.587   3.942 -0.2943  0.2078  0.1255
  520MOL0     C71643   8.820  -0.671   3.961 -0.1163 -0.2708  1.2344
  520MOL0     C71644   8.831  -0.810   3.901 -0.3329 -0.4044 -0.6823
  520MOL0     C71645   8.701  -0.890   3.920  0.3664  0.9092 -0.3619
  520MOL0     O71646   8.707  -1.019   3.860 -0.6018 -0.0386  0.1156
  520MOL0     C71647   8.582  -1.060   3.813  0.8840 -0.1644  0.0393
  520MOL0     C71648   8.547  -0.995   3.691 -0.6851 -0.0377 -1.3670
  520MOL0     C71649   8.418  -1.004   3.642 -0.2061 -0.4289  0.7633
  520MOL0     C71650   8.392  -0.922   3.518 -0.1995  0.6359 -0.1584
  520MOL0     C71651   8.321  -1.069   3.720  0.6698  0.4671 -0.0121
  520MOL0     C71652   8.179  -1.073   3.674  0.0643  0.1683  0.0456
  520MOL0     O71653   8.098  -0.965   3.677 -0.1099  0.3609 -0.3865
  520MOL0     C71654   7.976  -0.986   3.740  0.1755 -0.8547 -0.2076
  520MOL0     C71655   7.862  -0.939   3.685 -0.3514 -0.0020  0.0750
  520MOL0     C71656   7.743  -0.968   3.750  0.5239 -0.6631  0.1443
  520MOL0     C71657   7.739  -1.044   3.871  0.3124 -0.4135 -0.3971
  520MOL0     O71658   7.614  -1.094   3.901 -0.6084  0.4650 -0.0527
  520MOL0     C71659   7.598  -1.173   4.019 -0.1785 -0.5026  0.3870
  520MOL0     C71660   7.572  -1.109   4.153 -1.3930 -0.6588  0.0837
  520MOL0     C71661   7.509  -0.965   4.150  0.3872 -0.0219 -0.4098
  520MOL0     C71662   7.488  -0.913   4.289  0.4182 -0.9777 -0.0053
  520MOL0     C71663   7.410  -0.782   4.293 -0.3410 -0.1897 -0.1166
  520MOL0     C71664   7.363  -0.740   4.435 -0.3632  0.1468  0.4454
  520MOL0     C71665   7.276  -0.612   4.442  0.6840  0.8115  0.7250
  520MOL0     C71666   7.125  -0.632   4.401  0.5209 -0.3217 -0.8196
  520MOL0    Cl71667   7.091  -0.806   4.352 -0.2380  0.0581  0.0560
  520MOL0     C71668   7.856  -1.070   3.935 -0.1779  0.7046  0.1920
  520MOL0     C71669   7.972  -1.040   3.870 -0.7828  0.3000  0.3732
  520MOL0     O71670   8.138  -1.179   3.635 -0.4112 -0.0318  0.2530
  520MOL0     C71671   8.363  -1.142   3.830  0.4274  0.5583 -0.4313
  520MOL0     C71672   8.488  -1.135   3.883 -0.2245  0.7390 -0.0483
  520MOL0     N71673   8.961  -0.476   4.160 -0.1189 -0.0075 -0.5244
  520MOL0     N71674   8.943  -0.363   4.217  0.3767 -0.5997 -0.6269
  520MOL0     C71675   8.686   0.048   4.841 -0.7742  0.3326 -0.5534
  520MOL0     C71676   8.580  -0.014   4.910 -0.0437  0.2042 -1.1198
  520MOL0     C71677   8.193  -0.202   5.041 -0.5444 -0.0031  0.0017
  520MOL0     C71678   8.110  -0.147   5.139 -0.3867  0.6720  0.3339
  520MOL0     C71679   8.021  -0.232   5.212 -0.6452  0.5732 -0.8191
  520MOL0     C71680   8.005  -0.366   5.192 -0.5187 -0.8121 -0.1542
  520MOL0     O71681   7.917  -0.445   5.258 -0.1306  0.1176  0.0884
  520MOL0     C71682   7.855  -0.402   5.380  0.4388 -0.1425  0.4663
  520MOL0     C71683   7.782  -0.524   5.433  0.4060  0.5823 -0.0155
  520MOL0     C71684   7.705  -0.460   5.554  0.1884  0.2573  0.5521
  520MOL0     C71685   7.668  -0.557   5.663 -0.5253  0.1551 -0.2361
  520MOL0     C71686   7.571  -0.659   5.624  0.1875 -0.2065  0.7847
  520MOL0     C71687   7.483  -0.743   5.620  0.0287 -0.7397 -0.2572
  520MOL0     C71688   8.092  -0.407   5.098  0.3389  0.0145 -0.0130
  520MOL0     C71689   8.185  -0.338   5.023  0.2489  0.1178  0.4786
  520MOL0     C71690   8.267  -0.421   4.931 -0.1357  1.0471  0.4572
  520MOL0     H71691   8.511  -0.281   4.720 -1.5335  1.1212  1.1068
  520MOL0     H71692   8.706  -0.169   4.586 -1.0662 -3.3185  0.6210
  520MOL0     H71693   8.902   0.215   4.771  2.0573 -0.4953 -0.1936
  520MOL0     H71694   8.800   0.249   4.636  1.3856  1.5891  1.3500
  520MOL0     H71695   9.012   0.329   4.561  1.6601 -0.4321 -3.5518
  520MOL0     H71696   9.097   0.191   4.620 -0.2718  3.0219  2.6544
  520MOL0     H71697   8.995   0.046   4.454  2.1691  0.1734 -1.0343
  520MOL0     H71698   8.879   0.181   4.405  0.9451  3.4549  1.1797
  520MOL0     H71699   9.130   0.293   4.366 -5.6442  2.1762  1.5799
  520MOL0     H71700   9.165   0.119   4.327  2.0528  0.6839  0.9380
  520MOL0     H71701   9.114   0.207   4.121 -2.0459  1.7394 -1.8982
  520MOL0     H71702   8.980   0.307   4.196  0.5095 -0.0264  2.8998
  520MOL0     H71703   8.854   0.099   4.205  0.1010 -1.2305 -0.8959
  520MOL0     H71704   8.908   0.129   4.050 -0.6625 -1.0653  0.2475
  520MOL0     H71705   9.081  -0.051   4.228  2.0254 -1.1791 -2.7672
  520MOL0     H71706   9.067  -0.036   4.047 -2.2824 -2.7829 -0.7689
  520MOL0     H71707   8.850  -0.127   4.242 -3.7122  0.1613 -1.3251
  520MOL0     H71708   8.837  -0.107   4.056 -0.1526 -1.4037  0.0203
  520MOL0     H71709   8.963  -0.278   3.904 -0.9845 -0.3929 -0.8042
  520MOL0     H71710   9.029  -0.646   3.991 -4.1987 -2.9084  3.2406
  520MOL0     H71711   8.966  -0.574   3.834 -1.7864 -3.1571 -0.6248
  520MOL0     H71712   8.787  -0.667   4.065 -0.3364  1.6701  1.1276
  520MOL0     H71713   8.735  -0.624   3.913  1.3096  0.0016 -1.1799
  520MOL0     H71714   8.852  -0.791   3.795 -1.5233  0.0822 -0.8529
  520MOL0     H71715   8.919  -0.845   3.955 -0.4062  0.5646  0.0930
  520MOL0     H71716   8.687  -0.908   4.027 -0.3273  1.2903 -0.3843
  520MOL0     H71717   8.615  -0.840   3.875  0.0218  0.6217 -0.0267
  520MOL0     H71718   8.622  -0.936   3.639 -0.1925 -0.5975 -1.2972
  520MOL0     H71719   8.480  -0.881   3.468 -0.0900  1.9150  1.0045
  520MOL0     H71720   8.318  -0.843   3.539  1.5510  1.6642  2.7419
  520MOL0     H71721   8.353  -0.987   3.439  2.2901 -2.7232  1.1735
  520MOL0     H71722   7.865  -0.890   3.589  3.3261  0.2384  0.1490
  520MOL0     H71723   7.648  -0.940   3.705 -0.8290 -0.7824  2.7274
  520MOL0     H71724   7.504  -1.226   4.001 -0.1485 -1.4853  2.7229
  520MOL0     H71725   7.672  -1.253   4.014 -1.1793 -1.4409  0.2237
  520MOL0     H71726   7.535  -1.170   4.237  1.3734  1.7660  3.3256
  520MOL0     H71727   7.675  -1.084   4.180 -1.1209 -0.2184 -1.2927
  520MOL0     H71728   7.419  -0.970   4.089  0.6196  1.2729 -0.8981
  520MOL0     H71729   7.577  -0.895   4.100 -0.2656 -0.5614 -2.1090
  520MOL0     H71730   7.586  -0.898   4.334  1.3292 -0.4285 -2.0632
  520MOL0     H71731   7.431  -0.982   4.352 -0.2451  0.0627  0.5681
  520MOL0     H71732   7.476  -0.706   4.250  0.1445 -0.8778 -0.6072
  520MOL0     H71733   7.337  -0.787   4.212 -0.7592 -0.0174  0.2475
  520MOL0     H71734   7.461  -0.714   4.477  0.9117 -1.5215 -1.3187
  520MOL0     H71735   7.317  -0.813   4.502 -0.6992  1.3820  1.6080
  520MOL0     H71736   7.315  -0.539   4.371 -2.1872  0.4182 -1.4715
  520MOL0     H71737   7.279  -0.570   4.543 -0.1723 -3.6123  2.8649
  520MOL0     H71738   7.090  -0.567   4.321 -0.8253  0.9295  0.7155
  520MOL0     H71739   7.063  -0.616   4.490  1.7187 -2.3892  0.4660
  520MOL0     H71740   7.858  -1.118   4.032  4.8071  1.4607  0.7102
  520MOL0     H71741   8.067  -1.058   3.919 -0.3010  0.4997 -0.4622
  520MOL0     H71742   8.296  -1.195   3.897  1.6088  1.5307  1.6240
  520MOL0     H71743   8.516  -1.184   3.976 -1.9751  0.8228  0.5613
  520MOL0     H71744   8.742   0.136   4.872  1.2716 -1.1369  0.1446
  520MOL0     H71745   8.531   0.030   4.997 -0.5302  1.6423 -2.0742
  520MOL0     H71746   8.102  -0.040   5.156  1.1422  0.9128 -0.3286
  520MOL0     H71747   7.966  -0.178   5.288 -0.7631  1.9890 -1.8638
  520MOL0     H71748   7.931  -0.373   5.453 -0.3225  2.4529  0.3379
  520MOL0     H71749   7.790  -0.316   5.360 -0.6701 -1.1239 -0.2952
  520MOL0     H71750   7.841  -0.605   5.477  1.6517  1.2630 -0.3712
  520MOL0     H71751   7.705  -0.569   5.371  1.4001 -0.8937 -0.2412
  520MOL0     H71752   7.773  -0.383   5.592  1.3435 -0.0485 -0.8013
  520MOL0     H71753   7.618  -0.405   5.518  1.1414  2.5708  1.5889
  520MOL0     H71754   7.640  -0.495   5.749 -0.0704 -1.0664  0.8354
  520MOL0     H71755   7.755  -0.609   5.702  0.0981  2.4902  1.7599
  520MOL0     H71756   7.405  -0.815   5.618 -0.5842 -0.2209  1.8710
  520MOL0     H71757   8.071  -0.512   5.080 -0.7834  0.3179 -0.5183
  520MOL0     H71758   8.218  -0.518   4.916 -0.9517  1.8762 -3.4252
  520MOL0     H71759   8.284  -0.368   4.837 -0.0503  1.1767  0.5450
  520MOL0     H71760   8.368  -0.439   4.971  0.1236  0.4514 -0.4259
  521MOL0     O71761   7.136   8.331  10.035 -0.1315 -1.1162 -0.1640
  521MOL0     C71762   7.079   8.374  10.134 -0.3843 -0.3025  0.6471
  521MOL0     O71763   7.021   8.300  10.229 -0.2839 -0.1097 -0.3339
  521MOL0     C71764   7.028   8.158  10.234  0.4050 -0.3153  0.3932
  521MOL0     C71765   7.009   8.076  10.121 -0.0995 -0.4392 -0.1055
  521MOL0     C71766   7.001   7.937  10.129  0.0304  0.1867 -0.6654
  521MOL0     C71767   7.012   7.877  10.258 -1.1593 -0.4224  0.7722
  521MOL0     O71768   6.985   7.745  10.271 -0.2681 -0.5231  0.2238
  521MOL0     C71769   6.995   7.677  10.396  0.1604  0.5078  0.0436
  521MOL0     C71770   6.892   7.576  10.409 -0.2523 -0.0687  0.3613
  521MOL0     C71771   6.896   7.502  10.539  0.0558  0.5123 -0.0122
  521MOL0     C71772   6.995   7.388  10.536  0.8577  0.0968 -0.0651
  521MOL0     C71773   7.011   7.320  10.672  1.2466  0.5613  0.7238
  521MOL0     C71774   7.137   7.247  10.691 -0.3689 -0.7315 -0.0932
  521MOL0     C71775   7.128   7.141  10.802  0.4396  0.2112  0.1126
  521MOL0     C71776   7.257   7.079  10.837  0.2919 -0.1020  0.3930
  521MOL0     N71777   7.241   6.968  10.942 -0.4160 -0.4084  0.6293
  521MOL0     C71778   7.273   6.970  11.073 -0.1059  0.2362  0.7579
  521MOL0     C71779   7.268   6.839  11.118  0.5084  0.3023  1.4714
  521MOL0     C71780   7.310   6.787  11.249 -0.4698 -0.6566  0.1074
  521MOL0     C71781   7.450   6.829  11.260 -0.5068  0.5090 -1.1688
  521MOL0     C71782   7.531   6.786  11.391  0.2604 -0.3483  0.2980
  521MOL0     C71783   7.550   6.636  11.410 -0.3504 -0.6899  1.0642
  521MOL0     O71784   7.541   6.568  11.288  0.1044  0.4145  0.0147
  521MOL0     C71785   7.519   6.438  11.283 -0.4414  0.1447  0.2358
  521MOL0     C71786   7.548   6.348  11.383 -0.1026  0.3898 -0.4084
  521MOL0     C71787   7.523   6.207  11.368 -0.1212 -0.5082 -0.4441
  521MOL0     C71788   7.574   6.111  11.475 -0.1512 -1.1194  0.1200
  521MOL0     C71789   7.457   6.160  11.257  0.2674  0.3132  0.2588
  521MOL0     C71790   7.403   6.017  11.245 -0.9551 -0.6876 -0.4835
  521MOL0     O71791   7.307   6.004  11.156 -0.2964 -0.4513  0.3346
  521MOL0     C71792   7.285   5.882  11.107  0.5355  0.2436  0.4146
  521MOL0     C71793   7.184   5.798  11.150  0.0891 -0.3150 -0.3489
  521MOL0     C71794   7.174   5.664  11.102 -0.8651 -0.2991  0.4035
  521MOL0     C71795   7.271   5.621  11.000  0.2158 -0.1297 -0.0043
  521MOL0     O71796   7.294   5.490  10.952  0.2441 -0.4963 -0.0375
  521MOL0     C71797   7.163   5.417  10.933  0.1284 -0.4549  0.0132
  521MOL0     C71798   7.162   5.381  10.780  0.4330 -0.2148  0.5830
  521MOL0     C71799   7.026   5.320  10.739  0.4311 -0.5571 -0.2953
  521MOL0     C71800   7.004   5.320  10.590 -0.1349  1.0050 -0.1916
  521MOL0     C71801   6.927   5.198  10.535 -0.3971  0.4212  0.3415
  521MOL0     C71802   6.919   5.203  10.389  0.2885  0.0677 -0.6884
  521MOL0     C71803   6.826   5.094  10.332 -0.4111  0.6157 -0.3496
  521MOL0     C71804   6.856   4.944  10.358 -0.3868 -0.1268  0.1243
  521MOL0    Cl71805   6.713   4.841  10.286 -0.4101 -0.3821  0.3942
  521MOL0     C71806   7.369   5.712  10.957  0.3309  0.3907 -0.3206
  521MOL0     C71807   7.376   5.843  11.004 -0.1049  0.1181  0.1591
  521MOL0     O71808   7.442   5.927  11.320  0.8338  0.2440  0.1351
  521MOL0     C71809   7.442   6.246  11.152 -0.0647 -1.2713  0.4487
  521MOL0     C71810   7.472   6.388  11.161 -0.6074  0.3733  0.0218
  521MOL0     N71811   7.204   6.764  11.023 -0.8039 -0.3686  0.3291
  521MOL0     N71812   7.183   6.843  10.918 -0.4867 -0.1475  0.5768
  521MOL0     C71813   7.046   7.960  10.363 -0.6312 -0.8219  0.1475
  521MOL0     C71814   7.038   8.100  10.357 -0.1601  0.1523 -0.2260
  521MOL0     C71815   7.076   8.514  10.151  0.9080 -0.0219  0.1185
  521MOL0     C71816   7.108   8.562  10.277  0.5828  0.8843  0.0848
  521MOL0     C71817   7.124   8.698  10.302 -0.0218  1.3788 -0.7795
  521MOL0     C71818   7.102   8.788  10.202  0.3841  0.2175 -0.1790
  521MOL0     O71819   7.134   8.917  10.234  0.2945  0.0200  0.6107
  521MOL0     C71820   7.177   9.005  10.131  0.0401 -0.4642 -0.4594
  521MOL0     C71821   7.179   9.147  10.200 -0.1805 -0.6558 -0.3808
  521MOL0     C71822   7.048   9.188  10.254  0.3376  0.0602  0.5991
  521MOL0     C71823   7.039   9.342  10.285  0.3919  0.0586  0.0109
  521MOL0     C71824   6.893   9.385  10.302  0.5427 -0.3000  0.1421
  521MOL0     C71825   6.778   9.435  10.301  0.1372 -0.2633  1.1296
  521MOL0     C71826   7.059   8.742  10.080  0.2712 -0.3527  0.0214
  521MOL0     C71827   7.049   8.607  10.053  0.8761  0.3145 -0.3236
  521MOL0     C71828   7.009   8.565   9.910  0.3061 -0.3431  0.0736
  521MOL0     H71829   7.004   8.122  10.022  2.2815  0.0996 -0.0472
  521MOL0     H71830   6.985   7.878  10.039  4.1984 -0.8375 -0.9111
  521MOL0     H71831   6.976   7.743  10.481  3.4457 -1.2350  2.3794
  521MOL0     H71832   7.088   7.623  10.419 -1.5316 -2.8033 -0.3200
  521MOL0     H71833   6.803   7.637  10.394  0.9209  1.8249  0.7964
  521MOL0     H71834   6.909   7.506  10.326  1.0856  4.1712 -3.3087
  521MOL0     H71835   6.900   7.568  10.626  0.2272  0.8871 -0.3020
  521MOL0     H71836   6.794   7.465  10.553  0.0444  0.6951  0.4107
  521MOL0     H71837   6.953   7.316  10.465 -1.2854  0.7084  0.5180
  521MOL0     H71838   7.097   7.412  10.505  1.7936 -2.0973  1.1473
  521MOL0     H71839   6.922   7.256  10.678  3.1740 -2.1723  4.9421
  521MOL0     H71840   6.996   7.387  10.757  0.5014  2.1859 -0.6300
  521MOL0     H71841   7.146   7.194  10.596 -2.8178 -0.9860 -0.2286
  521MOL0     H71842   7.206   7.328  10.717  0.3053 -1.0750 -0.7663
  521MOL0     H71843   7.054   7.069  10.766  0.6207  0.8605 -1.6860
  521MOL0     H71844   7.082   7.191  10.887 -1.0002 -0.0692 -0.4750
  521MOL0     H71845   7.297   7.024  10.751  0.1227  0.0960  0.1843
  521MOL0     H71846   7.319   7.153  10.887 -1.7872  0.6767  1.9684
  521MOL0     H71847   7.304   7.055  11.133  1.8130 -0.4933  0.8870
  521MOL0     H71848   7.309   6.678  11.246  1.2945 -0.7390  0.8871
  521MOL0     H71849   7.262   6.828  11.338  1.0109  2.2003 -0.2616
  521MOL0     H71850   7.496   6.776  11.176  2.6187 -0.7347  1.1015
  521MOL0     H71851   7.444   6.938  11.259 -5.4963  0.5584  1.8894
  521MOL0     H71852   7.628   6.837  11.401  0.4683 -0.9068  1.1898
  521MOL0     H71853   7.472   6.833  11.470 -4.1487  0.6929 -3.1675
  521MOL0     H71854   7.642   6.614  11.465 -0.7931 -0.7413  1.8057
  521MOL0     H71855   7.465   6.611  11.475  0.4213  4.0047  4.4789
  521MOL0     H71856   7.595   6.376  11.476 -0.2565 -2.0464  0.4696
  521MOL0     H71857   7.489   6.083  11.538  0.1908  1.3137  1.8140
  521MOL0     H71858   7.632   6.174  11.542  1.6694 -2.0491 -0.5291
  521MOL0     H71859   7.632   6.024  11.443  1.4419 -0.6232  1.5386
  521MOL0     H71860   7.108   5.827  11.222  1.4934 -2.3397  2.1071
  521MOL0     H71861   7.102   5.591  11.137 -2.3271 -1.2187 -3.8717
  521MOL0     H71862   7.154   5.320  10.981 -0.0912 -1.9502 -2.8468
  521MOL0     H71863   7.077   5.482  10.951  0.6608  1.1278 -2.5691
  521MOL0     H71864   7.176   5.464  10.710  1.2028  0.1947  1.2148
  521MOL0     H71865   7.236   5.302  10.761 -0.5907 -0.9135 -0.7538
  521MOL0     H71866   6.944   5.373  10.786 -2.2455 -2.5874 -2.3483
  521MOL0     H71867   7.027   5.216  10.774  2.8176 -1.2557 -2.1354
  521MOL0     H71868   7.103   5.328  10.544  1.2493  0.4477  2.4682
  521MOL0     H71869   6.947   5.409  10.564 -0.2345  0.3755 -2.2753
  521MOL0     H71870   6.985   5.109  10.564  0.8013 -0.4476 -4.0181
  521MOL0     H71871   6.824   5.194  10.571 -0.9423 -1.5847 -1.2865
  521MOL0     H71872   7.022   5.180  10.358  0.6181 -0.8572  0.9472
  521MOL0     H71873   6.894   5.305  10.358 -2.5617  0.2193  1.6445
  521MOL0     H71874   6.800   5.112  10.227  3.1598  1.6994 -1.1842
  521MOL0     H71875   6.728   5.109  10.378 -1.8363  0.3754 -3.0782
  521MOL0     H71876   6.857   4.936  10.467  1.5353  2.7514  0.4331
  521MOL0     H71877   6.952   4.916  10.313 -0.1608 -0.5762  0.8598
  521MOL0     H71878   7.436   5.679  10.879  1.1980 -1.5705  1.1891
  521MOL0     H71879   7.460   5.904  10.973  1.6966 -2.3213 -0.0160
  521MOL0     H71880   7.409   6.225  11.051 -2.5908 -1.5307  1.2495
  521MOL0     H71881   7.456   6.449  11.073 -2.5535  3.8734  2.5614
  521MOL0     H71882   7.071   7.928  10.464 -0.6382  0.8850  0.7253
  521MOL0     H71883   7.053   8.158  10.447  2.8428 -1.2610  0.2978
  521MOL0     H71884   7.137   8.497  10.360 -1.5752  0.7221  0.7850
  521MOL0     H71885   7.158   8.738  10.397 -4.3670 -0.1428  1.7149
  521MOL0     H71886   7.274   8.974  10.091  0.1153 -1.1580  0.2503
  521MOL0     H71887   7.104   9.007  10.050 -1.0835  5.1893  0.2755
  521MOL0     H71888   7.214   9.222  10.128 -4.5823  2.0498 -0.0103
  521MOL0     H71889   7.252   9.137  10.281 -1.3457 -0.0393  0.7827
  521MOL0     H71890   6.969   9.164  10.181  2.9690  0.1469 -2.5000
  521MOL0     H71891   7.027   9.129  10.344  0.8013 -0.4846  0.3574
  521MOL0     H71892   7.081   9.406  10.206  0.1502  0.9940  0.6199
  521MOL0     H71893   7.078   9.356  10.385 -3.2383  1.8013  1.3784
  521MOL0     H71894   6.673   9.455  10.296 -0.0363 -1.3282 -1.2764
  521MOL0     H71895   7.034   8.821  10.010  1.5308  1.7466  1.7733
  521MOL0     H71896   6.959   8.642   9.852  1.6281  0.3122 -0.2307
  521MOL0     H71897   7.104   8.540   9.861 -0.6124 -2.2822 -0.8266
  521MOL0     H71898   6.945   8.476   9.915  1.6479 -1.2976  2.2796
  522MOL0     O71899   4.369   2.984   7.198 -0.4253 -0.2838  0.2064
  522MOL0     C71900   4.481   2.957   7.239 -1.0965 -0.4902  0.1993
  522MOL0     O71901   4.584   2.901   7.160 -0.0970  0.9658  0.1977
  522MOL0     C71902   4.569   2.888   7.026  0.3756 -0.8657  0.5752
  522MOL0     C71903   4.452   2.822   6.968 -0.3479  0.3260 -0.2572
  522MOL0     C71904   4.439   2.794   6.835  1.3219 -0.3651 -1.0801
  522MOL0     C71905   4.558   2.807   6.757  0.1743 -0.7378 -0.7107
  522MOL0     O71906   4.566   2.774   6.623  1.0262  0.6147  0.5958
  522MOL0     C71907   4.560   2.634   6.609 -0.3171  0.5072  0.5878
  522MOL0     C71908   4.619   2.592   6.473  0.2687  0.4248  0.6326
  522MOL0     C71909   4.597   2.435   6.455 -0.2074  0.3404 -0.6242
  522MOL0     C71910   4.634   2.403   6.307  1.1648 -0.2726  0.7959
  522MOL0     C71911   4.599   2.257   6.262  0.6401  0.3729 -0.0433
  522MOL0     C71912   4.459   2.198   6.291  0.0851  1.0309  0.0578
  522MOL0     C71913   4.334   2.269   6.236  0.1363 -0.4702  0.6343
  522MOL0     C71914   4.346   2.281   6.081  0.2414  0.5484  0.4978
  522MOL0     N71915   4.227   2.332   6.014 -0.4861 -0.5514  0.0232
  522MOL0     C71916   4.179   2.451   6.038  0.1164 -0.5767 -0.2739
  522MOL0     C71917   4.076   2.467   5.950 -0.1691  0.6589 -0.4916
  522MOL0     C71918   3.995   2.589   5.954 -0.1464 -0.4669 -0.1229
  522MOL0     C71919   3.869   2.583   5.872 -0.5284  0.5817  0.2930
  522MOL0     C71920   3.885   2.609   5.715 -0.6598 -0.0749  0.1451
  522MOL0     C71921   3.759   2.575   5.634  0.0359 -0.0467  0.3425
  522MOL0     O71922   3.652   2.663   5.680  0.1381  0.0810  0.1591
  522MOL0     C71923   3.527   2.612   5.685  0.1803  0.1183 -0.3161
  522MOL0     C71924   3.473   2.607   5.811 -0.1222 -0.5291  1.3680
  522MOL0     C71925   3.342   2.572   5.824  0.2557  0.2247 -1.0072
  522MOL0     C71926   3.287   2.590   5.961  0.3413 -0.3190  0.7679
  522MOL0     C71927   3.270   2.515   5.720  0.0273  0.3826  1.2217
  522MOL0     C71928   3.132   2.458   5.720 -0.0513  0.0911 -0.0987
  522MOL0     O71929   3.084   2.432   5.594 -0.7011  0.5887  0.2888
  522MOL0     C71930   2.962   2.360   5.586  0.9925  0.4813 -1.0021
  522MOL0     C71931   2.960   2.219   5.609 -0.3007 -1.2532  0.5710
  522MOL0     C71932   2.838   2.147   5.600  0.7833 -0.0191 -1.0479
  522MOL0     C71933   2.723   2.214   5.559 -0.6083 -1.0697  0.2510
  522MOL0     O71934   2.607   2.145   5.538  0.0533 -0.2797 -0.1489
  522MOL0     C71935   2.622   2.026   5.461  0.3766 -0.2537 -0.3208
  522MOL0     C71936   2.709   2.031   5.333  1.0307  0.6413 -0.1943
  522MOL0     C71937   2.713   1.893   5.276  0.2189 -0.0052 -0.4131
  522MOL0     C71938   2.823   1.799   5.344 -0.4006  0.6259  0.4110
  522MOL0     C71939   2.774   1.648   5.342  0.5810  0.4454 -0.2974
  522MOL0     C71940   2.870   1.567   5.252  0.7545  1.0428 -1.1222
  522MOL0     C71941   2.834   1.415   5.249  0.5378 -0.5142  0.0237
  522MOL0     C71942   2.817   1.337   5.380 -0.7575  0.2810 -1.0793
  522MOL0    Cl71943   2.792   1.156   5.357  0.5535 -0.1131  0.0220
  522MOL0     C71944   2.732   2.352   5.525  0.1979  0.8147  0.7692
  522MOL0     C71945   2.847   2.423   5.535 -0.3167 -0.4631  0.2263
  522MOL0     O71946   3.069   2.437   5.827 -0.2528  0.9452  0.7165
  522MOL0     C71947   3.331   2.509   5.597 -0.3590  0.4683  0.8804
  522MOL0     C71948   3.460   2.571   5.575  0.3765 -0.2733 -0.8314
  522MOL0     N71949   4.059   2.347   5.883 -1.0912  0.4616 -0.1146
  522MOL0     N71950   4.153   2.266   5.919  0.8326 -0.9860 -0.2856
  522MOL0     C71951   4.677   2.866   6.808  1.3656  0.5862  0.3046
  522MOL0     C71952   4.677   2.911   6.942  0.0018 -0.0364  1.0388
  522MOL0     C71953   4.515   3.014   7.378  0.3112  0.1262 -0.9172
  522MOL0     C71954   4.416   3.012   7.477  0.8672 -0.9570  0.2775
  522MOL0     C71955   4.437   3.063   7.603 -0.0416 -0.1069  0.0546
  522MOL0     C71956   4.572   3.089   7.642  0.6819  0.6030 -0.4260
  522MOL0     O71957   4.606   3.133   7.767  0.3407  0.0010 -0.5097
  522MOL0     C71958   4.500   3.177   7.854 -0.1478 -0.2535 -0.3939
  522MOL0     C71959   4.553   3.200   7.991 -0.2749 -1.0896 -0.1775
  522MOL0     C71960   4.653   3.323   7.994  0.2371 -0.2524 -0.4063
  522MOL0     C71961   4.688   3.368   8.137 -0.4292  0.5679 -0.5785
  522MOL0     C71962   4.815   3.309   8.176  0.0007  0.1206 -0.1626
  522MOL0     C71963   4.926   3.262   8.201 -0.1254 -0.0175  0.8563
  522MOL0     C71964   4.673   3.094   7.543  0.1204  0.7575 -0.5245
  522MOL0     C71965   4.649   3.056   7.410 -0.2253  0.6604 -1.1599
  522MOL0     C71966   4.765   3.057   7.322 -0.2772 -0.2571  0.2888
  522MOL0     H71967   4.372   2.802   7.039  0.0465  1.0655  0.4113
  522MOL0     H71968   4.342   2.777   6.790  0.0163  1.5687  0.8356
  522MOL0     H71969   4.457   2.599   6.623  0.2500 -1.8170 -0.5133
  522MOL0     H71970   4.620   2.596   6.692  3.3997 -2.0289 -2.8521
  522MOL0     H71971   4.567   2.644   6.392 -0.0030  1.6271  1.5464
  522MOL0     H71972   4.724   2.620   6.460 -0.1675  1.9273  0.1503
  522MOL0     H71973   4.662   2.378   6.521 -1.0642 -0.7359 -0.6855
  522MOL0     H71974   4.499   2.400   6.487 -1.1868  2.7878 -0.6956
  522MOL0     H71975   4.578   2.471   6.242  2.2588 -0.1639 -0.0530
  522MOL0     H71976   4.737   2.429   6.283  0.6294  4.3564  2.4240
  522MOL0     H71977   4.663   2.190   6.320  0.9506  2.4385  2.2000
  522MOL0     H71978   4.616   2.242   6.155 -1.6092  2.8777 -0.8624
  522MOL0     H71979   4.459   2.099   6.244  0.4927  0.3346  1.4596
  522MOL0     H71980   4.446   2.178   6.397 -0.0684 -0.5974 -0.2325
  522MOL0     H71981   4.329   2.369   6.278  0.7325 -0.4024  0.5501
  522MOL0     H71982   4.246   2.214   6.270 -1.7229  0.1962 -2.6752
  522MOL0     H71983   4.437   2.341   6.072  0.4360  0.2472  0.4195
  522MOL0     H71984   4.372   2.188   6.028 -0.6645  0.4951  0.1213
  522MOL0     H71985   4.212   2.520   6.115 -0.4673 -0.6605  0.0541
  522MOL0     H71986   4.046   2.676   5.912 -0.2311 -1.4850 -2.4675
  522MOL0     H71987   3.966   2.610   6.057  0.7811  0.6306 -0.0746
  522MOL0     H71988   3.824   2.483   5.869 -1.2405  0.8907  0.3202
  522MOL0     H71989   3.797   2.658   5.906 -0.4020  1.8573 -2.0008
  522MOL0     H71990   3.898   2.716   5.697  3.1399 -0.1740  1.4478
  522MOL0     H71991   3.975   2.564   5.672 -0.6980 -0.2510  0.2476
  522MOL0     H71992   3.787   2.595   5.530  0.4328 -2.8341 -0.1612
  522MOL0     H71993   3.732   2.469   5.630 -0.3941  0.0979 -1.5095
  522MOL0     H71994   3.543   2.629   5.891  4.1696 -0.0555 -2.1235
  522MOL0     H71995   3.290   2.490   6.006  1.7347  0.1450  1.7318
  522MOL0     H71996   3.183   2.625   5.966 -0.2950 -1.2458 -2.9025
  522MOL0     H71997   3.358   2.655   6.013  1.8249 -1.2073 -0.0653
  522MOL0     H71998   3.061   2.192   5.637  0.1733 -0.4104 -0.2272
  522MOL0     H71999   2.835   2.049   5.646  0.2178 -0.8182 -2.7104
  522MOL0     H72000   2.657   1.949   5.531 -3.4640 -2.0981 -0.1719
  522MOL0     H72001   2.527   1.995   5.417  0.6410 -0.5694 -0.6830
  522MOL0     H72002   2.660   2.090   5.255 -0.1531 -1.6982 -1.3255
  522MOL0     H72003   2.807   2.077   5.350  2.2866 -2.3568  1.2939
  522MOL0     H72004   2.750   1.896   5.173 -3.0055 -0.9013 -1.6955
  522MOL0     H72005   2.619   1.839   5.273  0.8169 -1.0287 -2.6930
  522MOL0     H72006   2.830   1.822   5.451 -0.8184  1.2794  0.3052
  522MOL0     H72007   2.926   1.807   5.310 -0.4525 -1.9921 -0.5784
  522MOL0     H72008   2.779   1.620   5.448  0.3685 -1.1784 -0.6796
  522MOL0     H72009   2.676   1.645   5.294  0.9025  0.9380 -0.9885
  522MOL0     H72010   2.973   1.570   5.291  0.2827 -2.5909  0.8043
  522MOL0     H72011   2.870   1.608   5.151  2.3207 -0.3077 -1.7242
  522MOL0     H72012   2.914   1.361   5.195  0.5667  0.1173 -0.5749
  522MOL0     H72013   2.740   1.401   5.195  1.0247 -0.0204 -0.9901
  522MOL0     H72014   2.726   1.367   5.433  1.0420  1.5684  1.5357
  522MOL0     H72015   2.911   1.355   5.434  1.8830  3.7533 -6.0272
  522MOL0     H72016   2.649   2.397   5.470 -0.3510  0.1411  1.0253
  522MOL0     H72017   2.837   2.530   5.517 -1.9589 -0.4083  1.2956
  522MOL0     H72018   3.300   2.471   5.501 -0.0162 -0.8470  1.2803
  522MOL0     H72019   3.508   2.577   5.477  5.2110 -0.4080  1.2520
  522MOL0     H72020   4.755   2.858   6.733 -0.2135 -1.5449 -1.2647
  522MOL0     H72021   4.759   2.973   6.978  0.9397 -0.7938  0.2517
  522MOL0     H72022   4.317   2.982   7.445  0.5089  1.5040 -1.1923
  522MOL0     H72023   4.348   3.069   7.664  0.6265 -0.0969  1.0450
  522MOL0     H72024   4.473   3.275   7.812  1.6834 -0.3522 -1.9019
  522MOL0     H72025   4.413   3.111   7.862 -0.2889 -0.0252  0.0072
  522MOL0     H72026   4.606   3.108   8.020  0.0701 -0.2356  2.1486
  522MOL0     H72027   4.472   3.232   8.058 -2.0449 -1.8094 -1.8747
  522MOL0     H72028   4.736   3.302   7.926  1.1963  0.0320  0.6684
  522MOL0     H72029   4.608   3.414   7.952  2.2653  0.0346 -2.1033
  522MOL0     H72030   4.620   3.332   8.215  1.9373  1.2576  1.9376
  522MOL0     H72031   4.703   3.475   8.150  1.2467  0.2368  0.4872
  522MOL0     H72032   5.028   3.229   8.195  0.7694  2.7229 -0.6510
  522MOL0     H72033   4.772   3.115   7.584 -0.1729  1.0062  0.0711
  522MOL0     H72034   4.736   3.113   7.233  0.5257 -2.8970 -1.7748
  522MOL0     H72035   4.861   3.083   7.367  0.5837 -1.0478 -1.0163
  522MOL0     H72036   4.788   2.958   7.281 -0.5489 -0.8098  1.4243
  523MOL0     O72037   7.923   9.113   8.066  0.6521 -0.2984 -1.1258
  523MOL0     C72038   7.842   9.038   8.126 -0.2177 -0.3958 -0.5400
  523MOL0     O72039   7.867   8.980   8.253 -0.2923  1.0050  0.2862
  523MOL0     C72040   7.984   9.008   8.313 -1.2126  0.3519 -0.9863
  523MOL0     C72041   8.047   8.892   8.373 -0.5888  1.2235 -0.0802
  523MOL0     C72042   8.164   8.896   8.448  0.0505  0.6437  0.3972
  523MOL0     C72043   8.231   9.027   8.456  0.0220  0.1366  0.6793
  523MOL0     O72044   8.336   9.057   8.528 -0.2846 -0.0535  0.5003
  523MOL0     C72045   8.425   8.940   8.544 -0.2828 -0.4520  0.3427
  523MOL0     C72046   8.395   8.841   8.662  0.6088  0.1009 -0.5370
  523MOL0     C72047   8.441   8.699   8.626  0.0325 -0.3772 -0.1689
  523MOL0     C72048   8.587   8.697   8.628 -0.5781 -0.0052 -0.0293
  523MOL0     C72049   8.645   8.559   8.643 -0.4398 -0.3867  0.5080
  523MOL0     C72050   8.801   8.558   8.650  0.1430 -0.3043  0.3089
  523MOL0     C72051   8.866   8.417   8.670  0.2172 -0.9934  0.4150
  523MOL0     C72052   9.018   8.437   8.665  0.0083 -0.3254 -0.9103
  523MOL0     N72053   9.067   8.443   8.533 -0.5908  0.5984 -0.2961
  523MOL0     C72054   9.100   8.563   8.472  1.1017  0.5840 -0.2047
  523MOL0     C72055   9.130   8.538   8.341 -0.6316  0.2413  0.2988
  523MOL0     C72056   9.177   8.643   8.246  0.2738 -0.7231 -0.3412
  523MOL0     C72057   9.320   8.678   8.259  0.4897 -0.4823 -0.1991
  523MOL0     C72058   9.379   8.792   8.167  0.2787 -0.2108  0.0407
  523MOL0     C72059   9.305   8.928   8.199 -0.1739 -0.4737 -0.3193
  523MOL0     O72060   9.184   8.960   8.126 -0.4094  0.5364 -0.4408
  523MOL0     C72061   9.175   9.024   8.002 -0.7259  0.7551  0.3534
  523MOL0     C72062   9.048   9.030   7.941 -0.4325  0.1847  0.1188
  523MOL0     C72063   9.034   9.094   7.813 -0.2474 -0.2002  0.8355
  523MOL0     C72064   8.905   9.093   7.739  0.1439  0.2271 -0.0865
  523MOL0     C72065   9.147   9.133   7.744 -0.7803  0.1045  0.4679
  523MOL0     C72066   9.146   9.202   7.607  0.1885  0.1722  0.0595
  523MOL0     O72067   9.085   9.140   7.512 -0.2820  0.7097  0.8101
  523MOL0     C72068   9.082   9.190   7.380  0.0995  1.5252 -0.3099
  523MOL0     C72069   8.966   9.241   7.331  0.8219  0.3678 -0.4479
  523MOL0     C72070   8.960   9.285   7.201 -0.3243 -0.4870 -0.5349
  523MOL0     C72071   9.072   9.292   7.116  0.3478  0.7598 -0.7825
  523MOL0     O72072   9.056   9.355   6.995 -0.6393  0.1524 -0.9777
  523MOL0     C72073   9.172   9.374   6.909 -0.5784  0.9130 -0.5741
  523MOL0     C72074   9.161   9.449   6.777  0.0407 -0.0033 -0.8810
  523MOL0     C72075   9.283   9.437   6.691  0.0797 -0.7352 -0.7473
  523MOL0     C72076   9.255   9.503   6.555 -0.3809  0.1939  1.3224
  523MOL0     C72077   9.388   9.505   6.468  1.2900 -0.6403  0.7257
  523MOL0     C72078   9.350   9.571   6.333 -0.4303  0.5454 -0.1818
  523MOL0     C72079   9.417   9.717   6.323  0.8243  0.4307  0.2427
  523MOL0     C72080   9.350   9.807   6.428 -0.1934  0.0818 -0.0354
  523MOL0    Cl72081   9.433   9.966   6.398 -0.3294  0.3780  0.0422
  523MOL0     C72082   9.188   9.236   7.170  0.4000 -0.5048  0.0831
  523MOL0     C72083   9.196   9.188   7.299  0.0959 -0.4456 -0.4671
  523MOL0     O72084   9.213   9.301   7.589 -0.4422  0.8704  0.0719
  523MOL0     C72085   9.277   9.116   7.808  0.1064  1.4648 -0.1370
  523MOL0     C72086   9.290   9.071   7.940 -0.1729 -0.2051 -0.1273
  523MOL0     N72087   9.112   8.401   8.320  0.2482  1.2370  0.5545
  523MOL0     N72088   9.074   8.349   8.433 -0.6058  0.8811  0.1923
  523MOL0     C72089   8.164   9.138   8.400 -0.0879 -0.3617  0.8586
  523MOL0     C72090   8.048   9.131   8.319  0.9694  0.1161 -0.0511
  523MOL0     C72091   7.707   9.003   8.063  0.0415 -0.5211 -0.4443
  523MOL0     C72092   7.616   8.936   8.152 -0.2832 -0.4899  0.2024
  523MOL0     C72093   7.488   8.896   8.112  0.0481 -0.3309 -0.1415
  523MOL0     C72094   7.440   8.923   7.984 -0.2425 -0.6554 -0.4800
  523MOL0     O72095   7.308   8.889   7.954 -0.7035  0.6835  0.1586
  523MOL0     C72096   7.244   8.943   7.841  0.9749  0.2563 -0.2441
  523MOL0     C72097   7.215   8.857   7.717 -0.2772  1.1829 -0.0928
  523MOL0     C72098   7.328   8.856   7.610  0.5509 -0.5475 -0.1362
  523MOL0     C72099   7.282   8.806   7.467  0.1416  0.0886  0.6502
  523MOL0     C72100   7.398   8.809   7.372  0.0499 -1.0899 -0.7246
  523MOL0     C72101   7.496   8.808   7.305 -0.0486 -0.0369  0.5630
  523MOL0     C72102   7.532   8.994   7.902 -0.2124 -0.4272 -0.3471
  523MOL0     C72103   7.660   9.031   7.930  0.1740  0.0540 -0.2254
  523MOL0     C72104   7.742   9.110   7.828  0.1972 -0.2173 -0.0673
  523MOL0     H72105   8.006   8.794   8.350  0.7420  0.2942  1.2985
  523MOL0     H72106   8.209   8.806   8.490 -1.6375 -0.5161 -0.1887
  523MOL0     H72107   8.529   8.974   8.549  0.1116 -1.6045  0.3006
  523MOL0     H72108   8.425   8.883   8.450 -0.5698 -2.0739  1.2923
  523MOL0     H72109   8.441   8.870   8.756  1.9550  1.2184 -1.5087
  523MOL0     H72110   8.289   8.849   8.688  0.8777  1.1791  0.3099
  523MOL0     H72111   8.407   8.637   8.710  1.6301 -1.8406 -0.5585
  523MOL0     H72112   8.394   8.668   8.532 -2.1442  1.2027  0.2999
  523MOL0     H72113   8.625   8.740   8.534  0.8861 -3.7633 -1.3681
  523MOL0     H72114   8.628   8.753   8.712 -0.1947  2.0251 -1.5030
  523MOL0     H72115   8.612   8.500   8.556  0.6691 -1.7451  0.9588
  523MOL0     H72116   8.588   8.529   8.731 -1.8455 -0.6977 -0.4593
  523MOL0     H72117   8.840   8.585   8.552  1.6786  0.2939  1.0390
  523MOL0     H72118   8.844   8.638   8.712 -2.2082  0.9651  0.4127
  523MOL0     H72119   8.840   8.353   8.585 -3.9361 -1.3623  1.7725
  523MOL0     H72120   8.837   8.369   8.764  1.6306  1.0730  2.0083
  523MOL0     H72121   9.039   8.526   8.725  0.2510 -0.9230 -0.0815
  523MOL0     H72122   9.060   8.350   8.717  3.3064  1.0273 -1.0795
  523MOL0     H72123   9.098   8.664   8.513 -3.3680  1.2482 -1.4798
  523MOL0     H72124   9.113   8.730   8.266 -3.9239 -4.0404  2.3042
  523MOL0     H72125   9.156   8.614   8.143 -1.0455  0.1022 -0.3287
  523MOL0     H72126   9.338   8.716   8.360  1.7681  0.0028 -0.5952
  523MOL0     H72127   9.390   8.595   8.248  1.8282  0.6929 -0.8810
  523MOL0     H72128   9.482   8.798   8.205  0.8871 -0.8976 -1.4155
  523MOL0     H72129   9.378   8.766   8.061  1.4402  3.3279 -0.9981
  523MOL0     H72130   9.275   8.934   8.304  1.6616 -1.4875  0.3052
  523MOL0     H72131   9.366   9.016   8.181  1.8669 -2.2192 -2.6989
  523MOL0     H72132   8.962   9.002   8.000  0.8455 -2.4491  0.8821
  523MOL0     H72133   8.806   9.079   7.783  0.3130 -0.8366 -0.0043
  523MOL0     H72134   8.908   9.015   7.662 -0.1353 -0.5926  0.7150
  523MOL0     H72135   8.902   9.186   7.682  2.1519 -0.5310 -1.5400
  523MOL0     H72136   8.878   9.236   7.395  0.9999  0.5897 -0.1835
  523MOL0     H72137   8.862   9.308   7.160  0.4173 -0.5210 -2.4391
  523MOL0     H72138   9.241   9.438   6.964  0.6571  1.1340 -2.2864
  523MOL0     H72139   9.218   9.279   6.883 -2.1796  0.0888 -0.5025
  523MOL0     H72140   9.086   9.395   6.719  0.4770 -1.3784 -0.2075
  523MOL0     H72141   9.134   9.551   6.808  1.5375 -0.8469  4.1715
  523MOL0     H72142   9.312   9.337   6.657  2.5750  0.2653 -1.8285
  523MOL0     H72143   9.367   9.491   6.735 -1.2396 -0.8614  2.1513
  523MOL0     H72144   9.229   9.607   6.578  1.0569  1.6139 -2.6372
  523MOL0     H72145   9.170   9.465   6.498  0.3063  0.8010 -0.1805
  523MOL0     H72146   9.469   9.561   6.515 -0.5537  1.1787  1.9330
  523MOL0     H72147   9.421   9.402   6.452 -2.7725 -1.8973 -0.8796
  523MOL0     H72148   9.242   9.578   6.317 -0.7967 -1.2357  1.3041
  523MOL0     H72149   9.392   9.504   6.258 -1.4439 -0.0418 -0.2366
  523MOL0     H72150   9.387   9.750   6.223  1.9274  0.4388 -0.1055
  523MOL0     H72151   9.526   9.719   6.325  0.9119 -0.1599 -1.5279
  523MOL0     H72152   9.364   9.769   6.529 -3.0028  2.0777  1.2427
  523MOL0     H72153   9.244   9.805   6.399 -0.2637 -1.8440  0.2530
  523MOL0     H72154   9.278   9.225   7.109  2.6779  1.4565  2.8138
  523MOL0     H72155   9.284   9.136   7.336 -1.3748 -0.8162  2.8722
  523MOL0     H72156   9.367   9.158   7.765  0.2807 -0.0235 -1.3116
  523MOL0     H72157   9.385   9.071   7.992 -0.3743  0.3945  0.2364
  523MOL0     H72158   8.203   9.238   8.417  1.1847 -0.9089  1.2658
  523MOL0     H72159   7.990   9.214   8.281 -1.0262  0.5664  3.5481
  523MOL0     H72160   7.641   8.909   8.254 -1.6275  1.2750  1.0556
  523MOL0     H72161   7.426   8.849   8.188  0.1752 -1.1440 -0.5300
  523MOL0     H72162   7.146   8.969   7.883  1.5772  0.6368  0.9823
  523MOL0     H72163   7.296   9.036   7.816  1.0079  0.7441  1.4677
  523MOL0     H72164   7.126   8.899   7.669 -1.0126 -2.6418 -2.4651
  523MOL0     H72165   7.188   8.756   7.749  1.1275  0.6384 -0.6053
  523MOL0     H72166   7.363   8.958   7.596 -4.0951  1.0092 -2.4660
  523MOL0     H72167   7.414   8.793   7.634  0.6015 -0.2599  0.4651
  523MOL0     H72168   7.202   8.857   7.413  0.5206 -2.4407 -2.5737
  523MOL0     H72169   7.262   8.699   7.476  2.3476 -0.4563 -0.3169
  523MOL0     H72170   7.587   8.802   7.249 -0.5563  1.3945 -0.4739
  523MOL0     H72171   7.495   9.000   7.801 -4.1484 -1.2693  0.8524
  523MOL0     H72172   7.844   9.071   7.828 -0.3603 -1.7363  0.4617
  523MOL0     H72173   7.696   9.096   7.729 -2.9475 -1.0056  1.3601
  523MOL0     H72174   7.750   9.217   7.850 -0.9194  0.0479 -0.8612
  524MOL0     O72175   3.065   7.753   9.849  0.1748 -0.3852  0.5444
  524MOL0     C72176   3.053   7.876   9.848 -0.7282 -0.1183  0.6361
  524MOL0     O72177   2.978   7.939   9.944  0.5189 -0.4071  0.2088
  524MOL0     C72178   3.039   8.043  10.017  0.5408  0.1736 -0.2958
  524MOL0     C72179   2.951   8.117  10.096  0.2761 -0.1048  0.2150
  524MOL0     C72180   2.995   8.214  10.179 -1.0557 -0.2827 -0.0711
  524MOL0     C72181   3.127   8.236  10.197 -0.6783 -0.4144  0.2213
  524MOL0     O72182   3.171   8.326  10.297  0.3344  0.0908 -0.1816
  524MOL0     C72183   3.132   8.299  10.437  0.1354 -0.9402 -0.4291
  524MOL0     C72184   3.159   8.156  10.476 -0.6460  0.4894  0.0789
  524MOL0     C72185   3.165   8.151  10.632  0.0192  0.2757  0.4912
  524MOL0     C72186   3.172   8.011  10.699  0.3988 -0.0793 -0.4212
  524MOL0     C72187   3.035   7.956  10.706  0.8469  1.1028 -0.2182
  524MOL0     C72188   3.037   7.821  10.794  0.5365  0.0012  0.0090
  524MOL0     C72189   2.898   7.756  10.816 -0.2816 -0.3638  0.4927
  524MOL0     C72190   2.863   7.665  10.697 -0.2126  0.2544 -0.4877
  524MOL0     N72191   2.761   7.565  10.714 -0.0599  0.2135 -0.3895
  524MOL0     C72192   2.627   7.585  10.742 -0.1047  0.3438 -0.6391
  524MOL0     C72193   2.557   7.471  10.710  0.5184 -0.6344 -0.0545
  524MOL0     C72194   2.407   7.453  10.719  0.5112  0.7179  0.6675
  524MOL0     C72195   2.369   7.309  10.690 -0.6747 -0.3580 -0.0751
  524MOL0     C72196   2.269   7.267  10.795 -0.0411  0.5322 -0.9542
  524MOL0     C72197   2.209   7.130  10.769 -1.0946  0.5151 -0.5360
  524MOL0     O72198   2.296   7.024  10.820 -0.3419 -0.4064  0.2954
  524MOL0     C72199   2.255   6.910  10.879 -0.2316  0.0900  0.0726
  524MOL0     C72200   2.342   6.851  10.968 -0.4133  0.8153 -0.3953
  524MOL0     C72201   2.311   6.743  11.050 -0.0195  0.1859  0.2487
  524MOL0     C72202   2.422   6.678  11.137 -0.3725  0.3751  0.9077
  524MOL0     C72203   2.175   6.692  11.045  0.5393 -0.4673 -0.1922
  524MOL0     C72204   2.126   6.580  11.129 -0.6523  0.1911 -0.1931
  524MOL0     O72205   2.033   6.497  11.075 -0.0629  0.3228 -0.1530
  524MOL0     C72206   1.964   6.422  11.167  0.4849 -0.4635 -0.5558
  524MOL0     C72207   1.865   6.486  11.239 -0.4726  0.5407  0.9350
  524MOL0     C72208   1.805   6.417  11.349 -0.6727 -0.8510  0.2283
  524MOL0     C72209   1.830   6.285  11.384 -0.8323 -0.0001  0.2357
  524MOL0     O72210   1.741   6.237  11.475  0.5844 -0.3391 -0.6380
  524MOL0     C72211   1.767   6.116  11.548  0.6102  0.5962  0.5386
  524MOL0     C72212   1.676   6.005  11.502  0.8975 -0.2782 -0.4169
  524MOL0     C72213   1.538   6.050  11.448 -0.8089  0.2655 -0.5779
  524MOL0     C72214   1.432   5.937  11.452  0.4330  0.0487 -0.0451
  524MOL0     C72215   1.293   5.995  11.404  0.3940 -1.2897 -0.3947
  524MOL0     C72216   1.286   6.015  11.251 -0.0749  0.2651  0.0477
  524MOL0     C72217   1.137   6.046  11.213 -0.3948 -0.4560 -0.4369
  524MOL0     C72218   1.110   6.107  11.070 -0.1206  1.2708 -0.2099
  524MOL0    Cl72219   1.182   6.259  11.047 -0.0688 -0.1958  0.1071
  524MOL0     C72220   1.933   6.223  11.304 -0.6417 -0.0022 -0.5884
  524MOL0     C72221   1.991   6.288  11.200  0.0901 -0.0115 -0.2290
  524MOL0     O72222   2.194   6.556  11.235 -0.1622  0.2524 -0.0632
  524MOL0     C72223   2.090   6.759  10.960  0.1482 -0.1833  0.0602
  524MOL0     C72224   2.129   6.859  10.868 -0.3071 -0.0728 -0.3216
  524MOL0     N72225   2.654   7.384  10.659 -0.5087 -0.4576  0.0604
  524MOL0     N72226   2.768   7.438  10.664  0.1877 -0.0325  0.0978
  524MOL0     C72227   3.222   8.166  10.117  0.5154  0.4001 -0.3238
  524MOL0     C72228   3.171   8.071  10.022  0.1126  0.0515  0.4658
  524MOL0     C72229   3.105   7.945   9.723  1.2928  0.4255 -0.1486
  524MOL0     C72230   3.201   7.876   9.649  0.5449 -1.0433 -0.0815
  524MOL0     C72231   3.262   7.928   9.533  0.8341 -0.9359  0.1246
  524MOL0     C72232   3.224   8.051   9.487 -0.4742 -0.0402  1.1709
  524MOL0     O72233   3.285   8.086   9.373  0.1471 -0.2811 -0.3524
  524MOL0     C72234   3.245   8.205   9.295 -0.3655  0.8862  0.2373
  524MOL0     C72235   3.169   8.143   9.168  0.5389  0.7701 -0.5104
  524MOL0     C72236   3.026   8.112   9.193 -0.1359 -0.1864 -0.4208
  524MOL0     C72237   2.928   8.227   9.202  0.3460  0.1914 -0.2037
  524MOL0     C72238   2.921   8.327   9.301 -0.5984  0.0146 -1.4052
  524MOL0     C72239   2.904   8.410   9.390  0.5380 -0.4771  0.0702
  524MOL0     C72240   3.127   8.120   9.557 -0.2912  0.7296  0.4543
  524MOL0     C72241   3.063   8.066   9.673  0.2779  0.5174 -0.7815
  524MOL0     C72242   2.949   8.149   9.733  0.0247  0.8565  0.2223
  524MOL0     H72243   2.846   8.105  10.073  0.2749  1.7541 -0.9650
  524MOL0     H72244   2.936   8.269  10.251  0.7378  2.1872 -0.3583
  524MOL0     H72245   3.027   8.322  10.456  0.7537  0.4069  1.7421
  524MOL0     H72246   3.184   8.377  10.494  1.2541 -1.5323 -0.6083
  524MOL0     H72247   3.092   8.079  10.436  4.7238 -3.5432 -2.6364
  524MOL0     H72248   3.258   8.135  10.433 -1.0279 -1.2829 -0.0370
  524MOL0     H72249   3.254   8.204  10.665  2.8725 -3.1581 -1.0125
  524MOL0     H72250   3.077   8.201  10.674 -1.2704 -0.2837 -1.4088
  524MOL0     H72251   3.235   7.940  10.645  1.2162 -1.4950  2.1939
  524MOL0     H72252   3.210   8.017  10.802  1.2010 -1.8773 -0.5754
  524MOL0     H72253   3.010   7.924  10.604  5.3596 -0.5488 -1.0366
  524MOL0     H72254   2.958   8.019  10.751 -0.3417  0.6086 -1.4727
  524MOL0     H72255   3.110   7.756  10.743  1.5745  1.3282 -0.2456
  524MOL0     H72256   3.078   7.844  10.893 -1.0339 -0.2240  0.7378
  524MOL0     H72257   2.828   7.839  10.830 -1.5981 -1.5685  1.3742
  524MOL0     H72258   2.897   7.692  10.905 -2.4435  2.7901  2.9730
  524MOL0     H72259   2.826   7.731  10.618  0.0993  0.3789 -0.5315
  524MOL0     H72260   2.960   7.620  10.672 -0.3628  1.1102 -2.9849
  524MOL0     H72261   2.579   7.672  10.786 -0.7379  0.3264 -1.2912
  524MOL0     H72262   2.358   7.516  10.644 -2.0304 -1.9631 -0.1217
  524MOL0     H72263   2.374   7.491  10.816  0.3443  0.7552  0.5966
  524MOL0     H72264   2.316   7.300  10.595 -0.5941 -2.6949  0.0495
  524MOL0     H72265   2.461   7.250  10.687  1.4934  2.7033  1.1735
  524MOL0     H72266   2.313   7.274  10.895 -1.9695  0.4616 -0.0503
  524MOL0     H72267   2.184   7.335  10.797 -0.4900  0.0607  2.3729
  524MOL0     H72268   2.110   7.106  10.811 -0.5598 -2.5022 -0.7804
  524MOL0     H72269   2.197   7.112  10.662 -2.8484 -2.6415  0.0702
  524MOL0     H72270   2.443   6.884  10.991 -0.6982  0.7898  0.9443
  524MOL0     H72271   2.394   6.672  11.243 -0.8468 -1.9715  0.7113
  524MOL0     H72272   2.518   6.731  11.132  0.4000 -1.1125 -1.6901
  524MOL0     H72273   2.450   6.578  11.103  2.6060  1.3487  0.1814
  524MOL0     H72274   1.858   6.592  11.219  0.7100  0.0050 -3.0342
  524MOL0     H72275   1.737   6.477  11.408  0.2703 -0.4439  0.9216
  524MOL0     H72276   1.869   6.080  11.529  1.5658  2.4604  1.8313
  524MOL0     H72277   1.757   6.146  11.653  0.3402  1.3973  0.2904
  524MOL0     H72278   1.714   5.956  11.412  2.6466  3.0087 -1.6355
  524MOL0     H72279   1.670   5.931  11.582  0.4346  1.6230  1.3987
  524MOL0     H72280   1.548   6.092  11.348  1.1206  0.1681 -0.4665
  524MOL0     H72281   1.509   6.131  11.517 -3.7801 -1.4797  0.3798
  524MOL0     H72282   1.430   5.909  11.557  0.3337 -1.4937 -0.4317
  524MOL0     H72283   1.463   5.863  11.377  2.1498  1.0188 -0.3480
  524MOL0     H72284   1.206   5.937  11.436  0.0883  0.5584  2.4908
  524MOL0     H72285   1.279   6.088  11.459  1.9452 -0.8001 -0.7987
  524MOL0     H72286   1.313   5.923  11.197 -2.2950 -1.7695  2.1490
  524MOL0     H72287   1.359   6.091  11.221  0.4561 -0.2020  0.1349
  524MOL0     H72288   1.086   6.108  11.287 -1.0086 -3.7316  2.1027
  524MOL0     H72289   1.079   5.953  11.220 -1.6297  0.1670 -1.8550
  524MOL0     H72290   1.002   6.120  11.058 -0.5411 -2.0932 -0.8581
  524MOL0     H72291   1.134   6.047  10.982 -3.8412  0.8296 -1.0923
  524MOL0     H72292   1.972   6.125  11.332 -4.1694 -1.3135  0.2254
  524MOL0     H72293   2.070   6.239  11.144  1.9641  0.8449  1.5323
  524MOL0     H72294   1.992   6.720  10.933 -0.3361  2.1740 -1.9769
  524MOL0     H72295   2.071   6.907  10.790  1.9320  0.8183 -1.5276
  524MOL0     H72296   3.328   8.185  10.129  0.9613 -1.6427 -0.5410
  524MOL0     H72297   3.236   8.016   9.956  0.4720  1.6694 -0.5869
  524MOL0     H72298   3.257   7.793   9.691  3.9925 -0.7925 -3.6497
  524MOL0     H72299   3.350   7.876   9.497  1.0012 -0.5978  0.0373
  524MOL0     H72300   3.177   8.278   9.338 -1.0599  0.7823 -0.6721
  524MOL0     H72301   3.330   8.256   9.248  1.0079 -1.5667 -0.1354
  524MOL0     H72302   3.220   8.050   9.141 -3.4221 -1.4546 -1.0986
  524MOL0     H72303   3.185   8.219   9.091 -0.3684  0.4248 -1.0459
  524MOL0     H72304   2.985   8.043   9.119  1.7908 -2.1855  0.2404
  524MOL0     H72305   3.013   8.054   9.286  0.6290  1.0801  0.5121
  524MOL0     H72306   2.827   8.187   9.188 -0.6945  2.8525 -0.8921
  524MOL0     H72307   2.955   8.295   9.120 -2.6118  1.8964  0.0796
  524MOL0     H72308   2.880   8.478   9.469  3.8798  0.8197  0.1314
  524MOL0     H72309   3.082   8.208   9.512 -0.5466  1.2363  1.6671
  524MOL0     H72310   2.866   8.088   9.771 -0.0027 -1.6695 -3.3032
  524MOL0     H72311   2.967   8.213   9.819  0.1863  1.5700 -0.3263
  524MOL0     H72312   2.902   8.214   9.658 -3.0952  1.7573  2.7110
  525MOL0     O72313   4.480   5.648  10.018 -0.0487 -0.0001  0.0016
  525MOL0     C72314   4.520   5.672   9.908 -0.6060  1.1059 -0.1396
  525MOL0     O72315   4.617   5.597   9.846 -0.6339  0.6268 -0.3516
  525MOL0     C72316   4.722   5.535   9.920  0.5260 -0.3498 -0.7889
  525MOL0     C72317   4.783   5.598  10.029  0.9758  0.3830  0.8541
  525MOL0     C72318   4.876   5.530  10.108 -0.5475  0.0122 -0.2968
  525MOL0     C72319   4.906   5.397  10.083  1.0342  0.7324 -0.5903
  525MOL0     O72320   4.993   5.322  10.164  0.7211 -0.2042  0.1620
  525MOL0     C72321   5.045   5.381  10.287 -0.9086  0.2279  0.0765
  525MOL0     C72322   5.110   5.275  10.365  0.6562  0.2892 -0.6753
  525MOL0     C72323   5.221   5.196  10.295 -0.3000  0.5136 -0.6368
  525MOL0     C72324   5.289   5.093  10.393  0.2727 -1.3127  1.1568
  525MOL0     C72325   5.385   5.006  10.310 -0.3928 -0.5998  0.5659
  525MOL0     C72326   5.306   4.893  10.244 -0.2398 -0.2056 -0.0071
  525MOL0     C72327   5.378   4.806  10.135  0.1179  0.0084 -0.2308
  525MOL0     C72328   5.422   4.673  10.183  0.3500  0.2943 -0.3414
  525MOL0     N72329   5.534   4.685  10.272  0.8858  0.3628  0.0437
  525MOL0     C72330   5.660   4.693  10.229 -0.4818 -0.1048  0.4474
  525MOL0     C72331   5.733   4.660  10.330 -0.3068  0.6279 -0.2000
  525MOL0     C72332   5.881   4.639  10.328 -0.2864  0.4287 -0.5624
  525MOL0     C72333   5.953   4.693  10.454 -1.1127 -0.4301 -0.3005
  525MOL0     C72334   5.887   4.818  10.521 -0.5087 -0.3118  0.3430
  525MOL0     C72335   5.923   4.943  10.434  0.2483 -0.2580 -0.8828
  525MOL0     O72336   6.057   4.959  10.465  0.0768 -0.7154 -0.2232
  525MOL0     C72337   6.114   5.084  10.453  0.2885  0.7867  0.0555
  525MOL0     C72338   6.227   5.099  10.531 -1.1530 -0.9362 -0.3342
  525MOL0     C72339   6.298   5.219  10.519  0.2385 -1.3608  0.7858
  525MOL0     C72340   6.413   5.223  10.609 -0.0110  0.3721 -1.0620
  525MOL0     C72341   6.256   5.328  10.436  1.1489  0.0855  0.7652
  525MOL0     C72342   6.309   5.469  10.431  0.0755  0.2619 -0.5161
  525MOL0     O72343   6.231   5.548  10.354 -0.2874 -0.5470 -0.4462
  525MOL0     C72344   6.263   5.677  10.314  0.2552 -0.8949  0.1413
  525MOL0     C72345   6.388   5.734  10.322  0.1939  0.1578  0.9698
  525MOL0     C72346   6.405   5.876  10.283  0.0322 -0.1819 -0.0404
  525MOL0     C72347   6.293   5.954  10.251  0.1340  0.2650  0.3656
  525MOL0     O72348   6.297   6.093  10.231  0.4127 -0.2959  0.4686
  525MOL0     C72349   6.349   6.174  10.332 -1.2722 -0.3034  0.3988
  525MOL0     C72350   6.443   6.275  10.289 -0.0305  0.5183  0.7869
  525MOL0     C72351   6.383   6.407  10.289  0.1023 -0.3803  0.1869
  525MOL0     C72352   6.477   6.494  10.206  0.1880  0.1244  0.3014
  525MOL0     C72353   6.424   6.638  10.215 -0.7146 -0.0260  0.2399
  525MOL0     C72354   6.526   6.739  10.147  0.8377  0.3953 -1.0452
  525MOL0     C72355   6.476   6.884  10.130 -0.3821  0.2467 -0.3910
  525MOL0     C72356   6.592   6.970  10.078  0.0420 -1.0120  0.2870
  525MOL0    Cl72357   6.530   7.141  10.102  0.0064 -0.4571 -0.5268
  525MOL0     C72358   6.171   5.883  10.234  0.1267  0.3072  0.5672
  525MOL0     C72359   6.156   5.750  10.266 -0.4379 -0.1936 -0.1345
  525MOL0     O72360   6.412   5.498  10.495  0.1923  0.2753  0.1947
  525MOL0     C72361   6.138   5.302  10.358 -0.3275  0.0465 -0.5847
  525MOL0     C72362   6.065   5.184  10.367 -0.0855 -1.1232 -0.5075
  525MOL0     N72363   5.661   4.612  10.428 -0.2076 -0.1436 -0.1896
  525MOL0     N72364   5.538   4.628  10.399 -0.6046  0.0059  0.8033
  525MOL0     C72365   4.839   5.333   9.976 -0.6630 -0.4878 -0.3261
  525MOL0     C72366   4.748   5.405   9.903 -0.1160 -0.2942 -0.0184
  525MOL0     C72367   4.445   5.775   9.824 -0.6418 -0.4119  0.1280
  525MOL0     C72368   4.508   5.844   9.717  0.6482 -0.3264 -0.3983
  525MOL0     C72369   4.445   5.933   9.640  1.0959 -0.5857  0.1575
  525MOL0     C72370   4.311   5.968   9.671  1.0423 -0.1279  0.5759
  525MOL0     O72371   4.252   6.059   9.593  0.2201  0.0007 -1.1084
  525MOL0     C72372   4.117   6.102   9.608  0.1609 -0.4299 -0.8256
  525MOL0     C72373   4.101   6.197   9.720  0.3856  0.0378 -0.6669
  525MOL0     C72374   4.073   6.338   9.680  0.4727  0.2681  0.6523
  525MOL0     C72375   4.046   6.430   9.796 -0.2376  0.4172 -0.1273
  525MOL0     C72376   3.936   6.381   9.881 -0.2658 -1.2582  0.6695
  525MOL0     C72377   3.856   6.341   9.953 -0.0673  0.1317 -0.3659
  525MOL0     C72378   4.256   5.908   9.779  1.1559  0.1179  0.4548
  525MOL0     C72379   4.312   5.814   9.857  0.0132 -0.2573  0.3546
  525MOL0     C72380   4.233   5.773   9.983  0.2934  0.1768 -0.3358
  525MOL0     H72381   4.762   5.703  10.048  1.4561  1.2962 -2.9494
  525MOL0     H72382   4.918   5.584  10.192 -1.8905 -2.2545  1.9836
  525MOL0     H72383   4.974   5.444  10.341  0.3107  1.6400  0.1068
  525MOL0     H72384   5.126   5.441  10.244 -1.4238 -0.8596 -2.6580
  525MOL0     H72385   5.145   5.313  10.461  1.5515 -1.2969 -0.3443
  525MOL0     H72386   5.023   5.214  10.390  0.3370  1.8804  2.7293
  525MOL0     H72387   5.174   5.142  10.212 -0.8806 -1.5998  0.9922
  525MOL0     H72388   5.300   5.257  10.251  1.5021  1.2179  3.1628
  525MOL0     H72389   5.345   5.158  10.460 -0.8865  0.6849  0.2955
  525MOL0     H72390   5.210   5.038  10.445 -0.9688  0.6412  1.4803
  525MOL0     H72391   5.448   4.960  10.387  0.2885 -0.0622  0.3360
  525MOL0     H72392   5.447   5.062  10.239  0.8235  0.9895  2.7665
  525MOL0     H72393   5.273   4.830  10.327  0.0984 -2.3404 -1.4284
  525MOL0     H72394   5.223   4.939  10.190 -0.9209 -2.0418 -0.5784
  525MOL0     H72395   5.456   4.868  10.090  2.6139 -1.3707  1.8682
  525MOL0     H72396   5.301   4.790  10.059  0.7349  1.1956 -1.1350
  525MOL0     H72397   5.338   4.631  10.240 -0.8963  3.0787  0.0337
  525MOL0     H72398   5.436   4.609  10.096 -1.9527  1.4489 -1.6537
  525MOL0     H72399   5.695   4.713  10.129  1.4834  0.2204  1.1674
  525MOL0     H72400   5.933   4.689  10.245 -2.0545 -0.4378 -2.2608
  525MOL0     H72401   5.889   4.531  10.317 -2.6396  0.1192  0.2619
  525MOL0     H72402   5.955   4.614  10.529  1.2238 -0.1760 -0.0154
  525MOL0     H72403   6.058   4.710  10.429 -0.4919  0.0660  2.4022
  525MOL0     H72404   5.782   4.799  10.545 -1.1680 -0.1178 -2.1352
  525MOL0     H72405   5.932   4.829  10.621 -0.9838 -0.3196  0.5601
  525MOL0     H72406   5.910   4.918  10.329 -1.6414 -1.2428 -0.4633
  525MOL0     H72407   5.860   5.025  10.468 -2.1431 -2.4268  0.3028
  525MOL0     H72408   6.254   5.026  10.606  0.2858  0.8388  0.9826
  525MOL0     H72409   6.430   5.128  10.660 -0.7420  0.5387 -0.5011
  525MOL0     H72410   6.409   5.299  10.688  4.3873  0.9680 -1.1379
  525MOL0     H72411   6.506   5.248  10.556 -0.7975  2.3688 -1.6010
  525MOL0     H72412   6.476   5.683  10.359 -0.2884  0.2982  2.3725
  525MOL0     H72413   6.501   5.925  10.298 -0.0089  0.1036 -0.6812
  525MOL0     H72414   6.279   6.230  10.395  0.3470  0.5746  1.5075
  525MOL0     H72415   6.404   6.121  10.411  0.8975  1.6123  0.2939
  525MOL0     H72416   6.529   6.261  10.354  0.7241 -1.3144 -0.5255
  525MOL0     H72417   6.467   6.248  10.186 -4.1825  1.1604 -0.5669
  525MOL0     H72418   6.377   6.445  10.392 -0.0845 -3.7241  1.5385
  525MOL0     H72419   6.282   6.397  10.250  0.1260 -1.1660  0.3125
  525MOL0     H72420   6.493   6.454  10.106 -2.7687  1.7307 -0.9551
  525MOL0     H72421   6.578   6.492  10.249  1.4569 -2.4351 -2.4938
  525MOL0     H72422   6.328   6.652  10.165 -1.2867  1.5789  1.7029
  525MOL0     H72423   6.415   6.674  10.318  1.0386  0.5267  0.2337
  525MOL0     H72424   6.561   6.706  10.049  1.4369 -0.2855 -0.6100
  525MOL0     H72425   6.614   6.739  10.212  0.2872 -1.0059 -0.2559
  525MOL0     H72426   6.420   6.908  10.220 -2.0361 -4.8221  0.2204
  525MOL0     H72427   6.402   6.879  10.050  0.7348 -2.1803 -1.3865
  525MOL0     H72428   6.621   6.940   9.977  0.7430  0.6945 -0.0401
  525MOL0     H72429   6.684   6.959  10.136 -0.4500 -5.5582  0.6085
  525MOL0     H72430   6.085   5.924  10.182  1.0271  2.3727  0.5910
  525MOL0     H72431   6.061   5.698  10.258  0.2268 -1.3523 -0.6122
  525MOL0     H72432   6.097   5.367  10.281  0.7219  2.2737  0.6386
  525MOL0     H72433   5.978   5.146  10.313 -0.9085  0.7726 -0.5806
  525MOL0     H72434   4.863   5.229   9.960 -0.5892 -0.6531  0.7639
  525MOL0     H72435   4.687   5.351   9.831 -3.2234  1.6817  0.9394
  525MOL0     H72436   4.615   5.829   9.708  1.4232  0.6125  4.2207
  525MOL0     H72437   4.491   5.992   9.562  0.7245  0.4629  0.7070
  525MOL0     H72438   4.087   6.144   9.512 -0.0917 -1.9444 -1.4340
  525MOL0     H72439   4.053   6.015   9.626 -0.7228  0.3686  0.0622
  525MOL0     H72440   4.188   6.190   9.786 -0.8940  1.0219  1.1799
  525MOL0     H72441   4.025   6.159   9.789 -2.5990  2.9589 -2.0970
  525MOL0     H72442   4.152   6.390   9.625  1.1842  0.1384  1.5389
  525MOL0     H72443   3.985   6.341   9.615  1.0025  3.1382 -0.0901
  525MOL0     H72444   4.036   6.534   9.764  1.4934  1.3591  2.1469
  525MOL0     H72445   4.133   6.433   9.862 -1.6241 -1.3163  1.8908
  525MOL0     H72446   3.760   6.312   9.990 -0.3723  1.9732  0.4027
  525MOL0     H72447   4.165   5.952   9.818  1.3395  0.5582  0.3976
  525MOL0     H72448   4.287   5.817  10.068  2.7683  1.0953 -2.2592
  525MOL0     H72449   4.129   5.803   9.998  0.3237 -0.9652  3.1292
  525MOL0     H72450   4.235   5.664   9.988 -1.4116  0.1465  0.2248
  526MOL0     O72451   3.637   7.076   4.100  0.3025  1.2140 -0.8623
  526MOL0     C72452   3.668   7.107   3.994 -0.7434 -0.5227  0.8239
  526MOL0     O72453   3.646   7.232   3.937  0.0651 -0.2094 -0.9012
  526MOL0     C72454   3.582   7.329   4.006 -0.2263  0.2431 -0.7076
  526MOL0     C72455   3.652   7.408   4.095  0.0376  0.3972 -1.2741
  526MOL0     C72456   3.590   7.511   4.160  0.5016 -0.3528 -0.1245
  526MOL0     C72457   3.456   7.536   4.142  0.7385 -0.8442  0.6860
  526MOL0     O72458   3.415   7.654   4.215 -1.2024  0.2022  1.1841
  526MOL0     C72459   3.278   7.691   4.209  0.0610  0.7788  1.1709
  526MOL0     C72460   3.265   7.836   4.255 -0.2075  0.7750 -0.9911
  526MOL0     C72461   3.319   7.940   4.150 -0.3627  0.0119  0.0686
  526MOL0     C72462   3.221   7.958   4.029  0.0015  0.4166 -1.0463
  526MOL0     C72463   3.236   8.086   3.946  1.1351  1.4248 -0.1927
  526MOL0     C72464   3.308   8.056   3.815 -1.3289 -0.4685  0.6536
  526MOL0     C72465   3.329   8.198   3.747 -0.1831  0.8421 -0.5817
  526MOL0     C72466   3.391   8.176   3.604  0.7010 -0.3550  0.0166
  526MOL0     N72467   3.322   8.089   3.512 -0.4829  0.6528  0.5032
  526MOL0     C72468   3.205   8.118   3.440 -0.5203  0.0904  0.1786
  526MOL0     C72469   3.177   7.999   3.371 -0.3065 -0.1084 -0.5823
  526MOL0     C72470   3.072   7.979   3.268 -0.5094 -0.6269  0.3281
  526MOL0     C72471   3.115   8.058   3.131  0.1990 -0.2024 -0.2439
  526MOL0     C72472   3.072   8.203   3.120 -0.1489  0.4134  1.0402
  526MOL0     C72473   2.930   8.219   3.065  0.1442 -0.2274  0.4468
  526MOL0     O72474   2.829   8.158   3.140 -0.0966 -0.4597  0.0027
  526MOL0     C72475   2.717   8.139   3.060  0.7243  0.1918 -0.2656
  526MOL0     C72476   2.610   8.224   3.070  0.6633 -0.6228  0.6950
  526MOL0     C72477   2.493   8.222   2.995  0.4602  0.5141 -0.0927
  526MOL0     C72478   2.401   8.341   3.014  0.6213 -0.3184 -0.1907
  526MOL0     C72479   2.471   8.110   2.913 -0.0700 -0.6912  0.3039
  526MOL0     C72480   2.342   8.070   2.850  0.8454  0.6247 -0.6113
  526MOL0     O72481   2.351   7.955   2.774 -1.0438  0.2410 -0.0834
  526MOL0     C72482   2.267   7.953   2.667  0.2735  0.7356 -0.0330
  526MOL0     C72483   2.165   7.865   2.666  0.1871  0.1521 -1.2129
  526MOL0     C72484   2.079   7.854   2.554  0.7014 -0.2985  0.0860
  526MOL0     C72485   2.089   7.944   2.445 -0.6183 -0.0604 -1.4508
  526MOL0     O72486   2.014   7.940   2.339 -0.1173 -0.0678 -0.7619
  526MOL0     C72487   1.886   7.894   2.362  0.2101  0.6739 -0.1546
  526MOL0     C72488   1.788   7.918   2.250 -0.2084  0.1837 -0.7741
  526MOL0     C72489   1.813   8.059   2.189 -0.2678  1.6694 -1.7418
  526MOL0     C72490   1.722   8.101   2.086  0.3136 -0.6375  1.0854
  526MOL0     C72491   1.732   8.257   2.062 -0.0280 -0.9498 -0.4334
  526MOL0     C72492   1.590   8.316   2.004 -0.3364  0.0997 -0.9186
  526MOL0     C72493   1.525   8.242   1.887  0.0620 -0.2620  0.2358
  526MOL0     C72494   1.421   8.329   1.811 -1.3345 -0.3893 -1.3440
  526MOL0    Cl72495   1.294   8.380   1.912 -0.1194  0.3097 -0.0424
  526MOL0     C72496   2.209   8.023   2.437 -0.1950 -0.0976 -0.0970
  526MOL0     C72497   2.287   8.032   2.555 -0.0524 -0.3156 -0.3593
  526MOL0     O72498   2.243   8.149   2.857  0.0682  0.1726  0.4010
  526MOL0     C72499   2.579   8.016   2.907  0.1688  0.4682  0.6162
  526MOL0     C72500   2.695   8.037   2.968 -0.8111 -0.8095 -0.1287
  526MOL0     N72501   3.266   7.902   3.414  0.3241 -0.2001  0.0283
  526MOL0     N72502   3.357   7.955   3.481 -0.5718  0.4656  0.2021
  526MOL0     C72503   3.380   7.457   4.052  0.9344 -0.5505 -0.3989
  526MOL0     C72504   3.445   7.355   3.988  1.3864 -0.9163 -0.7463
  526MOL0     C72505   3.739   7.016   3.909  0.5937  0.5475  1.3237
  526MOL0     C72506   3.747   7.050   3.772  0.7798  0.2549  0.5459
  526MOL0     C72507   3.788   6.957   3.676 -0.4475 -0.7804 -0.5137
  526MOL0     C72508   3.841   6.831   3.710  0.5536 -0.3587  0.0764
  526MOL0     O72509   3.890   6.742   3.628 -0.2611  0.3330  0.7754
  526MOL0     C72510   3.878   6.745   3.486  0.1327  0.3498 -0.6513
  526MOL0     C72511   3.732   6.701   3.441 -0.1781  0.0773  0.4282
  526MOL0     C72512   3.710   6.728   3.296  0.0658 -0.0890  0.3131
  526MOL0     C72513   3.574   6.795   3.275 -0.4665  0.0201  0.8025
  526MOL0     C72514   3.449   6.724   3.322 -0.6639  0.2690  0.1350
  526MOL0     C72515   3.339   6.672   3.321  0.3398 -0.6208  0.3485
  526MOL0     C72516   3.851   6.800   3.847 -0.6485  0.9263  0.5381
  526MOL0     C72517   3.793   6.891   3.948  0.3534 -0.0929  0.0230
  526MOL0     C72518   3.797   6.831   4.089 -0.7069  0.2424 -0.5785
  526MOL0     H72519   3.759   7.393   4.095 -0.1565 -1.1619 -1.3574
  526MOL0     H72520   3.644   7.589   4.211 -0.4138  0.1103  0.1656
  526MOL0     H72521   3.226   7.628   4.282  0.3884  0.6735  1.3121
  526MOL0     H72522   3.235   7.677   4.109  1.5589 -0.8407  0.6937
  526MOL0     H72523   3.169   7.870   4.297 -0.9005 -1.2484 -0.8564
  526MOL0     H72524   3.339   7.841   4.335  0.7543  0.1506 -1.8194
  526MOL0     H72525   3.325   8.038   4.197  1.4097  0.0825 -0.2378
  526MOL0     H72526   3.420   7.912   4.121 -0.0141  0.0892  1.1765
  526MOL0     H72527   3.230   7.876   3.957  1.1499  1.2433 -1.8816
  526MOL0     H72528   3.114   7.966   4.054 -0.2729 -0.8171 -1.7760
  526MOL0     H72529   3.294   8.162   3.999 -1.8619  4.4329 -0.9171
  526MOL0     H72530   3.135   8.126   3.936  0.8982  0.9902  0.3677
  526MOL0     H72531   3.401   8.013   3.853 -1.2405  0.2682  1.3032
  526MOL0     H72532   3.256   7.979   3.758 -3.5699  2.1882 -1.1310
  526MOL0     H72533   3.378   8.270   3.812  0.5036  0.6686 -0.8969
  526MOL0     H72534   3.234   8.245   3.720  2.0267  4.5318 -2.8781
  526MOL0     H72535   3.379   8.275   3.559 -0.7883 -0.0236  1.0601
  526MOL0     H72536   3.498   8.155   3.612  0.8392 -1.3181 -3.0750
  526MOL0     H72537   3.143   8.207   3.439  1.8366  1.8698  1.3635
  526MOL0     H72538   2.971   8.005   3.303 -1.8014 -5.2558  0.6734
  526MOL0     H72539   3.057   7.873   3.247  1.1016 -0.5349 -1.5256
  526MOL0     H72540   3.225   8.055   3.132  0.2900 -1.1545 -3.0029
  526MOL0     H72541   3.090   7.993   3.047  1.2267 -1.9370  0.7209
  526MOL0     H72542   3.075   8.240   3.223 -1.6034 -4.8970  3.3262
  526MOL0     H72543   3.141   8.261   3.058  3.2043 -2.1464  2.0829
  526MOL0     H72544   2.913   8.326   3.057  1.6125  0.2128  2.3717
  526MOL0     H72545   2.927   8.172   2.966  1.0730  0.0326  0.2884
  526MOL0     H72546   2.621   8.295   3.152  0.0469 -0.9056  1.0230
  526MOL0     H72547   2.328   8.320   3.093 -1.4319 -0.3375 -2.0132
  526MOL0     H72548   2.347   8.361   2.921 -0.8058 -1.0858  0.4364
  526MOL0     H72549   2.468   8.422   3.042  1.7597 -1.5471  0.7575
  526MOL0     H72550   2.148   7.808   2.757 -1.6256  2.4809  0.0276
  526MOL0     H72551   2.005   7.776   2.571  1.0701 -0.0139  3.8363
  526MOL0     H72552   1.886   7.786   2.379  2.8015  0.5254 -0.7256
  526MOL0     H72553   1.840   7.937   2.451 -0.7768 -0.7449  0.0626
  526MOL0     H72554   1.817   7.851   2.168  3.2554  1.4697 -0.7720
  526MOL0     H72555   1.687   7.887   2.277  0.0193 -0.6000 -0.7869
  526MOL0     H72556   1.914   8.072   2.150  1.5725 -1.8086  1.2727
  526MOL0     H72557   1.808   8.129   2.273 -0.7771  0.3685 -0.6552
  526MOL0     H72558   1.623   8.066   2.117  0.1327 -1.3852 -0.2291
  526MOL0     H72559   1.742   8.048   1.992  2.4729  2.6072 -0.4919
  526MOL0     H72560   1.763   8.309   2.153 -1.9713 -3.8380  2.0822
  526MOL0     H72561   1.789   8.283   1.972 -1.8714 -2.4331 -2.1160
  526MOL0     H72562   1.615   8.420   1.984  0.9124  0.1534  0.6789
  526MOL0     H72563   1.519   8.322   2.087 -2.5769  1.8094 -2.8363
  526MOL0     H72564   1.479   8.152   1.928  0.1127  1.0625  3.4549
  526MOL0     H72565   1.609   8.215   1.822 -0.3655  0.7345 -0.7669
  526MOL0     H72566   1.374   8.275   1.728 -0.8643 -1.3921 -0.9706
  526MOL0     H72567   1.482   8.412   1.774  1.1425 -0.3643  2.2950
  526MOL0     H72568   2.225   8.082   2.348  2.5868 -1.8575 -0.8813
  526MOL0     H72569   2.368   8.104   2.554 -0.9424  0.7072 -0.6971
  526MOL0     H72570   2.563   7.925   2.851 -1.0489  2.3195 -2.2510
  526MOL0     H72571   2.773   7.964   2.952 -0.4486 -0.5317  0.3607
  526MOL0     H72572   3.276   7.477   4.029  1.1556 -0.3927 -1.2888
  526MOL0     H72573   3.383   7.294   3.923 -2.6498  2.2369 -0.2701
  526MOL0     H72574   3.712   7.145   3.734 -1.5024 -0.1190  1.5683
  526MOL0     H72575   3.803   6.987   3.573  1.8661  2.7514  0.6950
  526MOL0     H72576   3.897   6.843   3.441 -0.5060  1.5583  1.5554
  526MOL0     H72577   3.959   6.685   3.445  1.0694  0.5494  0.8444
  526MOL0     H72578   3.654   6.750   3.501 -0.4822 -0.1728  0.2445
  526MOL0     H72579   3.733   6.592   3.454  1.7119 -0.0289 -0.2757
  526MOL0     H72580   3.792   6.790   3.258 -0.5329  1.3550  1.2857
  526MOL0     H72581   3.725   6.637   3.238  3.4694  0.3662  0.2835
  526MOL0     H72582   3.563   6.814   3.168 -1.1194 -0.0852  0.8504
  526MOL0     H72583   3.573   6.898   3.314  1.7121 -0.3643  2.0683
  526MOL0     H72584   3.240   6.632   3.309 -0.1376  1.0287 -1.7100
  526MOL0     H72585   3.898   6.712   3.888 -1.3945  0.8453  1.2397
  526MOL0     H72586   3.887   6.769   4.102  0.8787  2.0340 -2.2437
  526MOL0     H72587   3.820   6.912   4.158  3.0247  1.7003 -3.1714
  526MOL0     H72588   3.705   6.778   4.111  0.2545  0.0066  3.6242
  527MOL0     O72589   3.443   4.276   8.344 -0.4730  0.0265  0.0665
  527MOL0     C72590   3.485   4.369   8.274 -0.1279  0.4086 -0.3130
  527MOL0     O72591   3.406   4.473   8.222  0.2021 -0.2597 -0.1790
  527MOL0     C72592   3.269   4.479   8.249  0.6570  0.2141 -0.8096
  527MOL0     C72593   3.218   4.473   8.384 -0.4495  0.5860 -0.9681
  527MOL0     C72594   3.086   4.502   8.414 -1.2583  0.6233 -0.9032
  527MOL0     C72595   2.996   4.538   8.318 -0.3342  0.7838 -0.5225
  527MOL0     O72596   2.864   4.546   8.358 -0.0529  0.3077  0.6494
  527MOL0     C72597   2.763   4.584   8.255 -0.9006 -0.4098 -1.5915
  527MOL0     C72598   2.637   4.594   8.328 -0.4139  0.5643  0.3336
  527MOL0     C72599   2.629   4.741   8.388  0.5167 -0.5088  0.3772
  527MOL0     C72600   2.520   4.743   8.501 -0.3607  0.3763 -0.2340
  527MOL0     C72601   2.525   4.883   8.559  1.1576 -0.0775  0.6440
  527MOL0     C72602   2.402   4.885   8.657 -0.2592 -0.5894  0.9746
  527MOL0     C72603   2.393   5.021   8.720  0.0262 -0.6106  0.2468
  527MOL0     C72604   2.331   5.123   8.619  0.2242  0.7646 -0.1306
  527MOL0     N72605   2.317   5.253   8.678 -0.2052 -0.3143  0.6896
  527MOL0     C72606   2.425   5.332   8.726  0.5219 -0.7778 -0.0583
  527MOL0     C72607   2.372   5.435   8.791 -0.4105 -0.8138 -0.2785
  527MOL0     C72608   2.457   5.540   8.848  0.2761  0.0530 -0.2586
  527MOL0     C72609   2.508   5.623   8.736 -0.0820  0.6071  0.6702
  527MOL0     C72610   2.563   5.743   8.801 -0.2560  0.3795  0.2427
  527MOL0     C72611   2.604   5.863   8.717  0.5792 -0.4307 -0.0574
  527MOL0     O72612   2.689   5.856   8.596  0.3311 -0.0490 -0.6030
  527MOL0     C72613   2.827   5.864   8.611  0.0516  0.7527  0.2973
  527MOL0     C72614   2.900   5.866   8.733  0.2148  0.0056  0.5420
  527MOL0     C72615   3.037   5.843   8.736  0.1246  0.8759  0.6987
  527MOL0     C72616   3.098   5.827   8.873  0.2602 -0.3189  0.1480
  527MOL0     C72617   3.107   5.846   8.612 -1.3474  0.7436  0.4177
  527MOL0     C72618   3.260   5.848   8.609 -0.0315 -1.0561  0.1199
  527MOL0     O72619   3.311   5.883   8.488 -0.6088  0.0658  0.0827
  527MOL0     C72620   3.447   5.899   8.475  0.2465  0.1667  0.9697
  527MOL0     C72621   3.509   6.024   8.522 -0.4825  0.4022 -0.1477
  527MOL0     C72622   3.646   6.049   8.494  1.5906  0.1072  0.2853
  527MOL0     C72623   3.719   5.975   8.400  0.8672 -0.1925 -0.6997
  527MOL0     O72624   3.846   6.008   8.367 -0.3120 -0.2944 -0.3691
  527MOL0     C72625   3.943   5.921   8.301 -0.7191 -0.5835  0.2322
  527MOL0     C72626   4.086   5.938   8.348  0.5043 -0.4727  0.7312
  527MOL0     C72627   4.174   5.859   8.241 -0.8535 -0.2200 -0.3167
  527MOL0     C72628   4.325   5.883   8.264 -0.5609 -0.2516 -0.8177
  527MOL0     C72629   4.424   5.819   8.164  0.0206 -0.4906  0.2767
  527MOL0     C72630   4.456   5.911   8.050  0.3005  0.6333 -0.0110
  527MOL0     C72631   4.571   5.865   7.960  0.2810  0.3092  0.7636
  527MOL0     C72632   4.560   5.737   7.877 -0.9298 -0.9260  0.4787
  527MOL0    Cl72633   4.421   5.778   7.765  0.0535 -0.4231  0.2689
  527MOL0     C72634   3.666   5.853   8.359 -0.1235  1.1111 -0.5972
  527MOL0     C72635   3.532   5.816   8.385  0.6907  0.0706 -0.5087
  527MOL0     O72636   3.326   5.841   8.710  0.2952  0.5299 -0.0410
  527MOL0     C72637   3.035   5.846   8.492  0.2102  0.0960  0.2482
  527MOL0     C72638   2.894   5.850   8.492  0.2768 -0.2006  0.1098
  527MOL0     N72639   2.237   5.438   8.760  0.6511 -0.5059 -0.6239
  527MOL0     N72640   2.203   5.327   8.688  0.5854 -0.3512  0.1397
  527MOL0     C72641   3.044   4.547   8.184  0.4757 -0.5469 -0.1117
  527MOL0     C72642   3.179   4.519   8.153 -0.5882 -0.4482 -0.4347
  527MOL0     C72643   3.626   4.375   8.247 -0.6183 -0.0746  0.2483
  527MOL0     C72644   3.660   4.433   8.123 -0.1338 -0.0143  0.2757
  527MOL0     C72645   3.787   4.432   8.073 -0.0756 -0.4043  0.4032
  527MOL0     C72646   3.897   4.380   8.149  0.4416  0.7043  0.2126
  527MOL0     O72647   4.034   4.381   8.118 -0.6806 -0.0209  0.6220
  527MOL0     C72648   4.063   4.448   7.999  0.0493  0.1801  0.5045
  527MOL0     C72649   4.207   4.455   7.955 -0.7727  0.1950 -0.6585
  527MOL0     C72650   4.210   4.537   7.829 -0.1913  0.4105 -0.2399
  527MOL0     C72651   4.365   4.550   7.785 -0.4519  0.2385  0.3414
  527MOL0     C72652   4.432   4.643   7.877 -0.0161 -0.7364  0.8730
  527MOL0     C72653   4.494   4.719   7.949  0.8056 -0.3837 -0.7328
  527MOL0     C72654   3.863   4.305   8.265 -0.3679  0.1284  0.0064
  527MOL0     C72655   3.731   4.300   8.311 -0.4641 -0.0028 -0.0048
  527MOL0     C72656   3.710   4.244   8.452  0.1971  0.0260 -0.1845
  527MOL0     H72657   3.289   4.441   8.459 -2.4528 -0.7153  0.4811
  527MOL0     H72658   3.044   4.496   8.514 -1.0941  0.9738 -0.8099
  527MOL0     H72659   2.743   4.514   8.172 -0.1550  0.8911 -2.9180
  527MOL0     H72660   2.780   4.683   8.212 -2.6017  1.0862  0.9529
  527MOL0     H72661   2.556   4.597   8.255 -0.2954 -0.1112  0.1690
  527MOL0     H72662   2.629   4.518   8.406 -0.7125  2.6273  2.4269
  527MOL0     H72663   2.724   4.777   8.429  2.8522 -2.1085 -3.1226
  527MOL0     H72664   2.608   4.798   8.297  3.4314 -0.4814 -0.3746
  527MOL0     H72665   2.427   4.719   8.448 -1.4117  3.2399  0.1354
  527MOL0     H72666   2.539   4.659   8.569  1.2950  0.6773 -0.2939
  527MOL0     H72667   2.509   4.957   8.480 -3.4162 -0.5077  0.9011
  527MOL0     H72668   2.622   4.893   8.609  1.6715 -0.9378 -0.1349
  527MOL0     H72669   2.309   4.863   8.605  0.0655 -0.6270  0.4046
  527MOL0     H72670   2.406   4.817   8.742 -1.6494 -2.4069 -0.3347
  527MOL0     H72671   2.497   5.052   8.739 -0.9742  3.6081 -0.0833
  527MOL0     H72672   2.330   4.999   8.806 -3.3146 -2.4806 -2.4216
  527MOL0     H72673   2.395   5.144   8.533  1.2381  0.8557  0.6139
  527MOL0     H72674   2.238   5.078   8.583  2.1077 -3.1480 -0.6515
  527MOL0     H72675   2.532   5.317   8.716  0.7881  0.3837  0.8443
  527MOL0     H72676   2.536   5.503   8.914 -0.4399  0.6196  0.9451
  527MOL0     H72677   2.388   5.597   8.911  1.3764 -0.9149  1.9558
  527MOL0     H72678   2.587   5.573   8.679 -1.0462 -1.3822  0.9954
  527MOL0     H72679   2.433   5.663   8.667 -0.8440 -0.3092  0.9487
  527MOL0     H72680   2.489   5.777   8.874 -0.5041  1.8473 -0.6303
  527MOL0     H72681   2.658   5.714   8.846  1.8726 -0.2420 -4.1316
  527MOL0     H72682   2.508   5.902   8.683 -0.5511 -0.4460  2.8242
  527MOL0     H72683   2.638   5.947   8.779 -0.2664  3.2819 -4.0881
  527MOL0     H72684   2.857   5.889   8.830 -0.2226  2.0068 -0.0783
  527MOL0     H72685   3.148   5.915   8.913  0.4985 -0.8739  1.1125
  527MOL0     H72686   3.165   5.741   8.863 -0.4437 -1.1416  2.0956
  527MOL0     H72687   3.024   5.789   8.944 -0.1595 -2.4695 -1.3166
  527MOL0     H72688   3.475   6.094   8.598  2.0569  1.0696  0.4677
  527MOL0     H72689   3.692   6.138   8.535 -1.8471  1.5690  1.3900
  527MOL0     H72690   3.919   5.817   8.327  2.5041 -1.4181  0.2876
  527MOL0     H72691   3.932   5.931   8.193 -3.3227 -0.9777  0.3796
  527MOL0     H72692   4.111   6.045   8.350 -1.2472 -0.0091 -0.1400
  527MOL0     H72693   4.107   5.901   8.448 -1.2863  1.8905  2.1002
  527MOL0     H72694   4.153   5.875   8.135  2.3429 -2.8310 -1.5256
  527MOL0     H72695   4.162   5.750   8.246 -1.8296 -0.0443  2.1013
  527MOL0     H72696   4.354   5.828   8.354 -1.0247  0.4914 -0.2082
  527MOL0     H72697   4.347   5.990   8.272  0.2313 -0.3593 -1.3802
  527MOL0     H72698   4.511   5.783   8.220  0.5396 -2.4516 -1.6359
  527MOL0     H72699   4.370   5.732   8.124 -2.7561  2.0314 -1.9926
  527MOL0     H72700   4.484   6.011   8.085  1.2889  2.5815 -5.4184
  527MOL0     H72701   4.369   5.923   7.984 -1.2986  2.9367  2.2845
  527MOL0     H72702   4.665   5.857   8.015  0.1973  0.1623  0.8868
  527MOL0     H72703   4.572   5.945   7.886 -2.3916 -1.1531 -1.0237
  527MOL0     H72704   4.531   5.650   7.937 -0.2003 -0.4137  1.6022
  527MOL0     H72705   4.653   5.707   7.828 -1.7645 -4.9344  0.9433
  527MOL0     H72706   3.720   5.799   8.282  1.5020  2.0237 -0.1434
  527MOL0     H72707   3.494   5.736   8.323  1.3064  0.6097 -1.5990
  527MOL0     H72708   3.092   5.851   8.400  0.3120  1.8598  0.3760
  527MOL0     H72709   2.843   5.832   8.398  0.4794 -1.2893  0.1983
  527MOL0     H72710   2.978   4.566   8.100 -1.5667  1.7070  1.8495
  527MOL0     H72711   3.223   4.528   8.054  0.2514  0.9548  0.0391
  527MOL0     H72712   3.575   4.481   8.075  0.3749  2.6794  1.8728
  527MOL0     H72713   3.810   4.478   7.978  1.5708 -0.3009  0.8289
  527MOL0     H72714   4.006   4.396   7.921  2.8977 -1.6389 -0.5070
  527MOL0     H72715   4.032   4.553   8.007  0.3404  0.2112  1.3606
  527MOL0     H72716   4.241   4.353   7.934  2.1726  1.3954 -2.4691
  527MOL0     H72717   4.277   4.503   8.024  1.3187 -1.8585 -1.2260
  527MOL0     H72718   4.150   4.485   7.754  2.5424 -1.2653 -1.4484
  527MOL0     H72719   4.166   4.636   7.838  1.2726  0.9402  1.8619
  527MOL0     H72720   4.375   4.602   7.689 -0.8625  1.4971  0.9516
  527MOL0     H72721   4.422   4.457   7.793 -0.5755  0.2399  1.3119
  527MOL0     H72722   4.549   4.776   8.022 -1.3255 -1.4292  1.8891
  527MOL0     H72723   3.948   4.259   8.314  0.3791 -1.9927 -2.9952
  527MOL0     H72724   3.802   4.225   8.508 -0.5829 -3.4863  0.1731
  527MOL0     H72725   3.656   4.327   8.498  0.0827 -0.8440  1.3288
  527MOL0     H72726   3.654   4.149   8.448  1.3516 -0.6294 -2.1954
  528MOL0     O72727   7.824   8.528   6.330  0.3261  0.2330 -0.4250
  528MOL0     C72728   7.842   8.610   6.242 -0.1189  0.6733 -0.8512
  528MOL0     O72729   7.852   8.747   6.276 -0.1463  0.5966 -0.0386
  528MOL0     C72730   7.845   8.772   6.407  1.0495 -0.3306  0.2255
  528MOL0     C72731   7.718   8.802   6.464 -0.4673  0.0965 -0.0945
  528MOL0     C72732   7.722   8.863   6.594 -0.1060  1.4266  0.4393
  528MOL0     C72733   7.839   8.884   6.663  0.9746 -1.4101 -0.4436
  528MOL0     O72734   7.816   8.951   6.783 -0.1489 -0.7306 -0.1590
  528MOL0     C72735   7.851   9.093   6.778  0.3083  0.7535  0.6865
  528MOL0     C72736   7.819   9.168   6.914 -0.1993 -0.1382  0.4656
  528MOL0     C72737   7.900   9.099   7.032  0.1573 -0.0859 -0.3720
  528MOL0     C72738   7.935   9.190   7.150 -0.1808 -0.6316  0.4660
  528MOL0     C72739   8.020   9.132   7.261 -0.5331 -0.8072  0.2531
  528MOL0     C72740   8.108   9.241   7.306  0.1390  0.4844  0.4664
  528MOL0     C72741   8.038   9.343   7.401 -0.2458  0.1670 -0.2417
  528MOL0     C72742   7.999   9.286   7.543  0.2484 -0.2601  0.7980
  528MOL0     N72743   7.935   9.390   7.617 -0.0630  0.3118  0.5951
  528MOL0     C72744   7.925   9.379   7.751 -0.1853 -0.6057 -0.2029
  528MOL0     C72745   7.845   9.475   7.794  0.0937 -0.1677 -0.8866
  528MOL0     C72746   7.784   9.517   7.930  0.5057  0.1589  0.0864
  528MOL0     C72747   7.862   9.441   8.046 -0.2604  0.1699 -0.2775
  528MOL0     C72748   8.014   9.460   8.057 -0.3180  0.0028  1.0160
  528MOL0     C72749   8.059   9.613   8.074 -0.1865 -0.4470 -0.1436
  528MOL0     O72750   8.021   9.697   7.958  0.4021 -0.6879 -0.7540
  528MOL0     C72751   8.063   9.821   7.945 -1.0275 -0.3185 -0.8207
  528MOL0     C72752   8.136   9.896   8.037 -0.5643  0.6721  0.0325
  528MOL0     C72753   8.207  10.011   8.004  0.4367 -1.3412 -0.1911
  528MOL0     C72754   8.301  10.057   8.109 -1.3613  0.4805  0.7304
  528MOL0     C72755   8.194  10.066   7.878  0.4708  0.2990 -0.3046
  528MOL0     C72756   8.251  10.194   7.832  0.7800 -0.0448 -0.3091
  528MOL0     O72757   8.248  10.223   7.696  0.5556  0.0260  0.5493
  528MOL0     C72758   8.249  10.359   7.662 -0.0187 -0.2811  0.3965
  528MOL0     C72759   8.326  10.400   7.550  0.3063 -0.8602 -0.2182
  528MOL0     C72760   8.335  10.536   7.520 -0.6661 -0.2016  0.0089
  528MOL0     C72761   8.251  10.627   7.573  0.5200 -0.6532 -0.8889
  528MOL0     O72762   8.267  10.753   7.526  0.5892 -0.5956 -0.3394
  528MOL0     C72763   8.245  10.875   7.606 -0.2987  0.6569  0.1710
  528MOL0     C72764   8.335  10.968   7.532  0.9003 -0.2414 -0.4712
  528MOL0     C72765   8.325  11.108   7.581  0.3524  0.4490  0.1199
  528MOL0     C72766   8.421  11.186   7.491  0.0112 -0.1778  0.7148
  528MOL0     C72767   8.421  11.327   7.551 -0.2303 -0.5671  0.9209
  528MOL0     C72768   8.537  11.406   7.477 -0.2087 -0.1835 -0.8761
  528MOL0     C72769   8.531  11.551   7.515  0.1099  0.8965  1.2283
  528MOL0     C72770   8.612  11.581   7.645 -1.0517 -0.0645  0.2590
  528MOL0    Cl72771   8.622  11.449   7.769  0.4293  0.1554  0.0256
  528MOL0     C72772   8.162  10.583   7.678 -0.9871  0.1761  0.1964
  528MOL0     C72773   8.164  10.449   7.725 -0.8522 -0.4664  0.0039
  528MOL0     O72774   8.308  10.266   7.913 -0.4644  0.6744 -0.3171
  528MOL0     C72775   8.118   9.993   7.789  0.4186 -0.2838  0.6044
  528MOL0     C72776   8.052   9.876   7.822 -0.1294 -0.2691 -0.2829
  528MOL0     N72777   7.829   9.561   7.684  0.0915 -0.0910 -0.2456
  528MOL0     N72778   7.876   9.506   7.570 -0.4843 -0.6235 -0.6098
  528MOL0     C72779   7.962   8.849   6.606 -0.1966 -0.5770 -0.2708
  528MOL0     C72780   7.961   8.790   6.481 -0.3982  0.0086 -0.6828
  528MOL0     C72781   7.872   8.567   6.104 -0.3027 -0.0133  1.2914
  528MOL0     C72782   7.930   8.666   6.018 -0.7049  1.1479  0.3567
  528MOL0     C72783   7.953   8.634   5.877 -0.8339  0.4828 -0.0367
  528MOL0     C72784   7.914   8.511   5.823  1.0885  0.3070  0.1061
  528MOL0     O72785   7.925   8.479   5.691  0.3107  0.6415 -0.0736
  528MOL0     C72786   7.950   8.584   5.597 -0.2805 -0.3871 -0.7020
  528MOL0     C72787   7.943   8.535   5.447  0.0771  0.1933  0.2893
  528MOL0     C72788   7.828   8.447   5.405  0.1263 -0.4524 -0.5454
  528MOL0     C72789   7.701   8.537   5.419  0.7917  0.1986 -0.5669
  528MOL0     C72790   7.583   8.476   5.355 -0.4514  0.4438 -0.4229
  528MOL0     C72791   7.479   8.430   5.310  0.3595 -0.2851  0.5430
  528MOL0     C72792   7.866   8.408   5.914  0.7688  0.0029 -0.6893
  528MOL0     C72793   7.847   8.432   6.049 -0.6848  0.1911  0.0622
  528MOL0     C72794   7.788   8.323   6.134 -0.2339 -0.7437 -0.5087
  528MOL0     H72795   7.625   8.785   6.411 -0.5835  0.3039  0.0421
  528MOL0     H72796   7.628   8.890   6.641 -1.4226 -4.4838  1.9454
  528MOL0     H72797   7.789   9.131   6.697 -0.2130  0.8663  1.1333
  528MOL0     H72798   7.959   9.101   6.765  0.3526  1.3240  1.4104
  528MOL0     H72799   7.858   9.268   6.892  1.7664 -1.4561 -2.8162
  528MOL0     H72800   7.713   9.176   6.938 -0.1783  1.5725  0.1155
  528MOL0     H72801   7.853   9.002   7.051  0.0862  0.0844  0.3571
  528MOL0     H72802   7.990   9.063   6.981 -1.0030 -0.4192 -2.2704
  528MOL0     H72803   7.981   9.275   7.099  0.5266 -1.8579 -0.9944
  528MOL0     H72804   7.841   9.227   7.193 -0.0158 -1.5446  1.6648
  528MOL0     H72805   8.079   9.055   7.210 -0.1365 -0.0570 -0.4394
  528MOL0     H72806   7.969   9.075   7.339  2.8934 -3.8557  0.5363
  528MOL0     H72807   8.182   9.195   7.371  0.6717  2.1274  1.0731
  528MOL0     H72808   8.157   9.281   7.216 -1.5120 -2.0808 -1.7239
  528MOL0     H72809   7.956   9.388   7.345 -0.2742 -0.4094 -0.6661
  528MOL0     H72810   8.119   9.416   7.415  0.5764 -0.2751 -2.3747
  528MOL0     H72811   7.937   9.196   7.532 -0.2576  0.1962 -0.2555
  528MOL0     H72812   8.092   9.264   7.595  1.0272  0.4548 -0.2647
  528MOL0     H72813   7.950   9.293   7.811  1.4753  0.2846  0.4380
  528MOL0     H72814   7.679   9.492   7.914  1.2708 -2.4353 -1.4163
  528MOL0     H72815   7.789   9.626   7.945  1.7916 -0.0390  1.3301
  528MOL0     H72816   7.830   9.468   8.147  2.4614 -0.3916  0.8025
  528MOL0     H72817   7.840   9.335   8.032  0.8551 -0.0565 -0.3843
  528MOL0     H72818   8.062   9.410   8.141 -0.3838  2.1626  2.4024
  528MOL0     H72819   8.068   9.415   7.973 -0.1338  2.0775 -0.0400
  528MOL0     H72820   8.012   9.645   8.168  0.2471 -1.6435  0.5004
  528MOL0     H72821   8.168   9.608   8.080 -0.0440  0.3971 -1.5721
  528MOL0     H72822   8.157   9.856   8.136 -0.3560 -2.2958 -1.1211
  528MOL0     H72823   8.313   9.973   8.178  1.1919 -1.3390 -1.7055
  528MOL0     H72824   8.259  10.141   8.165 -2.6722  0.5377 -0.2781
  528MOL0     H72825   8.405  10.073   8.080 -0.4876  1.1895  3.8203
  528MOL0     H72826   8.399  10.335   7.504  3.1221 -0.3110  3.0725
  528MOL0     H72827   8.403  10.575   7.446 -0.9750  1.4010  0.5182
  528MOL0     H72828   8.139  10.901   7.616 -0.8097 -1.7813  2.2831
  528MOL0     H72829   8.277  10.860   7.709  1.7274  1.3009 -0.3154
  528MOL0     H72830   8.439  10.934   7.533  1.5061  1.4197 -1.7603
  528MOL0     H72831   8.312  10.973   7.425  0.1085  1.2862 -0.2576
  528MOL0     H72832   8.367  11.120   7.681 -1.4668  2.2480  0.7380
  528MOL0     H72833   8.222  11.145   7.578 -0.7812 -2.0509  2.9472
  528MOL0     H72834   8.387  11.187   7.387 -1.6732  2.5899  1.1999
  528MOL0     H72835   8.525  11.153   7.498  1.1801  2.6881 -1.2773
  528MOL0     H72836   8.327  11.381   7.539 -0.1234 -0.5878 -0.1118
  528MOL0     H72837   8.445  11.318   7.657  1.5740  0.7388  0.6542
  528MOL0     H72838   8.534  11.389   7.369 -3.6949  0.1166 -0.9610
  528MOL0     H72839   8.632  11.370   7.518 -0.2113 -1.3987 -1.8818
  528MOL0     H72840   8.425  11.572   7.535 -0.6099 -0.4129 -0.7636
  528MOL0     H72841   8.563  11.606   7.426  2.4144 -3.1950 -0.7727
  528MOL0     H72842   8.583  11.674   7.694  1.3084  1.3731 -0.9229
  528MOL0     H72843   8.712  11.608   7.610 -0.0732 -1.7690  1.5649
  528MOL0     H72844   8.097  10.665   7.706 -0.3629  0.3814  1.0776
  528MOL0     H72845   8.091  10.416   7.798 -1.5857  0.2486 -0.3915
  528MOL0     H72846   8.121  10.023   7.684 -4.0394  0.4630  0.4629
  528MOL0     H72847   8.009   9.815   7.743  1.1995 -2.4382  0.5683
  528MOL0     H72848   8.053   8.866   6.663  0.4247  0.5098 -1.5345
  528MOL0     H72849   8.057   8.758   6.442  1.1792  0.8439  2.2541
  528MOL0     H72850   7.950   8.760   6.068  1.3603  0.7908  0.3091
  528MOL0     H72851   7.996   8.704   5.806 -0.1699 -2.3521 -2.6398
  528MOL0     H72852   7.878   8.665   5.608 -2.0066 -2.0967  1.4488
  528MOL0     H72853   8.054   8.618   5.607 -0.2713 -0.0485 -1.8590
  528MOL0     H72854   8.035   8.478   5.430  0.3987  0.8329 -0.1452
  528MOL0     H72855   7.954   8.622   5.381 -1.7193  1.3354  1.4027
  528MOL0     H72856   7.847   8.418   5.301  4.6935  2.5357 -0.8489
  528MOL0     H72857   7.830   8.359   5.470 -2.2251 -0.2098 -0.0462
  528MOL0     H72858   7.716   8.636   5.374 -2.5475  0.8075 -0.6454
  528MOL0     H72859   7.679   8.552   5.525 -1.0895 -1.4773 -0.6559
  528MOL0     H72860   7.380   8.407   5.276  0.3473 -0.3295  0.6084
  528MOL0     H72861   7.851   8.306   5.880 -1.7806 -0.6468  1.9720
  528MOL0     H72862   7.775   8.230   6.077  1.5301 -1.6784  0.5428
  528MOL0     H72863   7.857   8.290   6.212  1.1957  0.2911 -1.3120
  528MOL0     H72864   7.689   8.357   6.168  0.1580  0.8470 -0.9034
  529MOL0     O72865   9.061   2.941   5.376 -0.1239 -0.5360  0.4534
  529MOL0     C72866   9.166   2.874   5.368 -1.0770 -0.7698  0.0067
  529MOL0     O72867   9.180   2.746   5.356  0.0436  0.0805  0.2937
  529MOL0     C72868   9.073   2.662   5.331 -0.1627 -0.6977 -0.7684
  529MOL0     C72869   9.042   2.561   5.431 -0.1529  0.3387  0.0435
  529MOL0     C72870   8.951   2.460   5.408  0.3726 -0.0577 -1.0502
  529MOL0     C72871   8.876   2.453   5.286 -0.0165  0.5916 -0.4354
  529MOL0     O72872   8.782   2.365   5.238 -0.0152 -0.5865 -0.0001
  529MOL0     C72873   8.754   2.260   5.332  0.6273 -0.0202 -0.6185
  529MOL0     C72874   8.659   2.181   5.260  1.1298 -0.1346  0.1317
  529MOL0     C72875   8.606   2.058   5.349 -1.2277 -0.5690 -0.2470
  529MOL0     C72876   8.536   1.957   5.267  0.5482  0.3276 -0.0718
  529MOL0     C72877   8.446   1.863   5.355 -0.2502 -0.2155 -0.4499
  529MOL0     C72878   8.511   1.782   5.466 -1.0790  0.0905  0.1226
  529MOL0     C72879   8.436   1.650   5.512  0.2324 -0.4262  0.5169
  529MOL0     C72880   8.523   1.545   5.574 -0.5614  0.0727 -0.4131
  529MOL0     N72881   8.594   1.463   5.478 -0.0762  0.4967 -0.2775
  529MOL0     C72882   8.729   1.475   5.454  0.1629 -0.6378 -0.3287
  529MOL0     C72883   8.772   1.352   5.401  0.6298 -0.3528 -0.5364
  529MOL0     C72884   8.913   1.329   5.353 -0.7572 -0.9434  0.3270
  529MOL0     C72885   8.922   1.238   5.233 -0.0768  0.5554  0.2561
  529MOL0     C72886   9.056   1.258   5.175  0.3807 -0.5232 -0.6396
  529MOL0     C72887   9.077   1.157   5.059 -0.1291 -0.7920  0.3319
  529MOL0     O72888   9.215   1.124   5.030 -0.5846 -0.0757  0.1214
  529MOL0     C72889   9.247   0.990   5.034  0.8905  0.2063  0.0798
  529MOL0     C72890   9.257   0.931   5.160  0.4763  0.2441  0.2526
  529MOL0     C72891   9.295   0.792   5.175 -0.0267  0.5872  0.9940
  529MOL0     C72892   9.302   0.730   5.310  0.4495  0.1314  0.1547
  529MOL0     C72893   9.331   0.721   5.061  0.1242  0.0314  0.0927
  529MOL0     C72894   9.375   0.588   5.052  0.2668 -0.8057  0.1089
  529MOL0     O72895   9.298   0.517   4.974 -0.3178  0.1142  0.2934
  529MOL0     C72896   9.286   0.387   4.980 -0.4005 -0.0036  0.4833
  529MOL0     C72897   9.281   0.310   4.863  0.0221 -0.6912 -0.0093
  529MOL0     C72898   9.248   0.174   4.869  0.4111  0.0891  1.0308
  529MOL0     C72899   9.223   0.105   4.988  0.0452  0.3211 -0.6029
  529MOL0     O72900   9.190  -0.027   4.972 -0.7599  0.7751 -0.3778
  529MOL0     C72901   9.112  -0.102   5.067  0.6349  0.7774  0.5985
  529MOL0     C72902   9.104  -0.244   5.004 -0.2787  0.8173 -0.7017
  529MOL0     C72903   9.050  -0.248   4.861  0.7754  0.4470  0.2737
  529MOL0     C72904   9.017  -0.390   4.814  0.1154 -0.6441  0.4172
  529MOL0     C72905   8.929  -0.372   4.686  0.2661 -0.1256  0.3877
  529MOL0     C72906   8.907  -0.496   4.602  0.1046  0.2920  0.1643
  529MOL0     C72907   8.787  -0.479   4.515  0.2177  0.4450  0.6678
  529MOL0     C72908   8.662  -0.569   4.541  0.4103 -0.4277 -0.3802
  529MOL0    Cl72909   8.524  -0.507   4.441 -0.4497  0.5450  0.0416
  529MOL0     C72910   9.240   0.173   5.107  0.1657 -0.4239 -0.7135
  529MOL0     C72911   9.263   0.314   5.098  0.7637 -0.5924 -1.2827
  529MOL0     O72912   9.454   0.545   5.140  0.2973 -0.2406 -0.2205
  529MOL0     C72913   9.324   0.792   4.938 -0.3081 -0.8121 -0.0875
  529MOL0     C72914   9.272   0.921   4.923 -0.9381 -0.8467  0.7606
  529MOL0     N72915   8.662   1.274   5.394  0.0676 -0.5655  0.2264
  529MOL0     N72916   8.564   1.333   5.449  0.4599  1.0977  0.8007
  529MOL0     C72917   8.921   2.551   5.191  0.3780 -0.8474 -0.1851
  529MOL0     C72918   9.018   2.655   5.203  0.4046  0.4505 -0.1665
  529MOL0     C72919   9.289   2.958   5.355 -0.3654 -0.7274 -0.2355
  529MOL0     C72920   9.386   2.915   5.273  0.1816  0.4431 -0.0659
  529MOL0     C72921   9.506   2.986   5.252  0.4927 -0.1328  0.6565
  529MOL0     C72922   9.531   3.105   5.318  0.5783 -1.5932 -0.1386
  529MOL0     O72923   9.644   3.173   5.300  0.0841 -0.0552 -0.8205
  529MOL0     C72924   9.715   3.227   5.404  0.6288 -0.4384  0.7927
  529MOL0     C72925   9.745   3.127   5.513  0.2284 -0.2297 -0.0652
  529MOL0     C72926   9.827   3.178   5.638 -0.3043  0.0985  1.0590
  529MOL0     C72927   9.876   3.067   5.718 -0.4905  0.2798  0.6861
  529MOL0     C72928   9.994   3.092   5.794  0.0933  0.7455  0.5456
  529MOL0     C72929  10.087   3.090   5.873  0.0341 -0.1567 -0.0105
  529MOL0     C72930   9.430   3.159   5.400  0.5400 -0.0401 -0.3191
  529MOL0     C72931   9.309   3.089   5.417 -0.7353  0.3808 -0.6994
  529MOL0     C72932   9.209   3.153   5.510  0.0154  0.1111  0.0447
  529MOL0     H72933   9.084   2.584   5.529 -1.5666  3.5176  0.0388
  529MOL0     H72934   8.935   2.391   5.491  0.1097 -0.2134 -1.2288
  529MOL0     H72935   8.713   2.296   5.427 -0.8965 -1.2707 -0.7579
  529MOL0     H72936   8.838   2.198   5.364  1.3164  3.0760  4.7021
  529MOL0     H72937   8.569   2.241   5.242  1.7738  1.0366  0.7494
  529MOL0     H72938   8.705   2.153   5.165  0.9105 -4.4464  1.0848
  529MOL0     H72939   8.687   2.006   5.402 -1.0944 -1.7273 -1.5350
  529MOL0     H72940   8.546   2.115   5.420 -0.9024  3.8405 -3.1036
  529MOL0     H72941   8.469   1.997   5.190  0.0011  0.5377  0.4981
  529MOL0     H72942   8.611   1.905   5.207 -0.5883  1.6238 -2.7867
  529MOL0     H72943   8.400   1.782   5.297 -3.9423 -0.4921  2.4796
  529MOL0     H72944   8.367   1.915   5.410 -1.0322 -3.0752  1.3546
  529MOL0     H72945   8.609   1.747   5.432  0.9628  2.1147  3.3706
  529MOL0     H72946   8.513   1.847   5.554 -3.5584 -1.2144  1.2871
  529MOL0     H72947   8.392   1.597   5.427  2.0989 -0.8825 -0.2160
  529MOL0     H72948   8.362   1.680   5.588  0.8644  0.3224  0.8557
  529MOL0     H72949   8.579   1.595   5.654 -2.4954  2.6066 -0.5392
  529MOL0     H72950   8.445   1.481   5.615 -1.6595  0.1863 -2.2420
  529MOL0     H72951   8.784   1.566   5.477  0.2471 -0.6292 -0.5604
  529MOL0     H72952   8.965   1.287   5.440 -3.1644 -0.9058  1.8727
  529MOL0     H72953   8.969   1.422   5.339  1.7095 -1.8367  3.1596
  529MOL0     H72954   8.912   1.136   5.271 -1.1981 -0.2221 -1.9280
  529MOL0     H72955   8.843   1.259   5.161 -0.2493  1.2676  0.6534
  529MOL0     H72956   9.083   1.359   5.146  0.7897 -0.7425 -1.0341
  529MOL0     H72957   9.135   1.231   5.246 -0.1066 -0.9486 -0.2459
  529MOL0     H72958   9.022   1.063   5.069 -3.0886  0.7950  0.1193
  529MOL0     H72959   9.033   1.200   4.968  0.9292 -1.9446 -0.7593
  529MOL0     H72960   9.239   0.981   5.254 -0.7051 -0.9847  0.7018
  529MOL0     H72961   9.406   0.697   5.326  0.9507  1.6760  0.2646
  529MOL0     H72962   9.226   0.653   5.326  0.7107  0.0252  0.9584
  529MOL0     H72963   9.279   0.811   5.380  1.9150  2.3739 -1.7819
  529MOL0     H72964   9.292   0.374   4.776 -1.3215  0.3206  0.5224
  529MOL0     H72965   9.224   0.115   4.781 -1.6015  1.7861  0.3403
  529MOL0     H72966   9.164  -0.113   5.162  3.2716  0.1077 -0.8215
  529MOL0     H72967   9.014  -0.055   5.079 -1.2339 -2.2393 -1.4799
  529MOL0     H72968   9.199  -0.299   5.006 -0.3790  0.6670  0.5356
  529MOL0     H72969   9.040  -0.299   5.074  1.0329  0.5355  0.3104
  529MOL0     H72970   9.124  -0.198   4.798 -1.2053  5.7741  1.6428
  529MOL0     H72971   8.953  -0.198   4.861 -1.0049 -2.5584  2.7284
  529MOL0     H72972   8.955  -0.437   4.891 -2.2393  1.5578  0.0011
  529MOL0     H72973   9.112  -0.436   4.787  0.2051 -0.1939 -0.0403
  529MOL0     H72974   8.835  -0.332   4.724  2.1305  3.9054  1.3031
  529MOL0     H72975   8.972  -0.297   4.619  1.2656  0.1677  1.3114
  529MOL0     H72976   8.899  -0.593   4.652 -3.5623 -0.1463 -0.9718
  529MOL0     H72977   8.999  -0.502   4.543 -0.0350  0.0349 -0.0312
  529MOL0     H72978   8.821  -0.504   4.414 -1.4693  1.9608 -0.3487
  529MOL0     H72979   8.745  -0.378   4.517  1.6735  1.0804 -0.0236
  529MOL0     H72980   8.636  -0.554   4.646 -0.8325  1.7374 -0.9464
  529MOL0     H72981   8.672  -0.674   4.510  3.7725 -0.5638  0.7536
  529MOL0     H72982   9.220   0.120   5.200  2.4703 -0.3171 -0.0816
  529MOL0     H72983   9.250   0.375   5.187  0.2745 -1.2190 -0.9191
  529MOL0     H72984   9.353   0.745   4.845 -0.0208  1.8670 -1.4574
  529MOL0     H72985   9.262   0.971   4.827  0.3392 -1.4246  0.3082
  529MOL0     H72986   8.864   2.538   5.099 -0.7419  0.8732  0.2327
  529MOL0     H72987   9.024   2.733   5.128 -0.0455 -2.9936 -4.1783
  529MOL0     H72988   9.377   2.818   5.225  0.9305 -1.1680  2.8131
  529MOL0     H72989   9.580   2.940   5.187  0.4332 -0.9076  1.1209
  529MOL0     H72990   9.808   3.271   5.367 -0.9499  2.5146  0.0819
  529MOL0     H72991   9.658   3.311   5.445 -1.1166 -0.9394 -0.4940
  529MOL0     H72992   9.802   3.050   5.461  0.7058 -1.2306  1.8173
  529MOL0     H72993   9.657   3.079   5.558  0.7361  0.1743  1.4447
  529MOL0     H72994   9.909   3.239   5.600 -1.0103  0.4320  0.0109
  529MOL0     H72995   9.768   3.247   5.700  1.2922  0.8167  1.8299
  529MOL0     H72996   9.907   2.988   5.650  0.8942  0.4782  1.0544
  529MOL0     H72997   9.800   3.028   5.787 -0.6703 -1.0853 -0.2452
  529MOL0     H72998  10.164   3.099   5.948 -1.1300  1.2104  1.0928
  529MOL0     H72999   9.433   3.263   5.432  1.6455  0.8024 -2.8193
  529MOL0     H73000   9.165   3.241   5.463 -0.2181 -0.3699 -0.6419
  529MOL0     H73001   9.120   3.093   5.529  0.0446 -0.3254 -1.1412
  529MOL0     H73002   9.257   3.187   5.603  1.7268 -0.5204 -0.5855
  530MOL0     O73003   2.274   1.668   1.862 -0.4857  0.3734  0.0006
  530MOL0     C73004   2.270   1.591   1.951 -0.5483 -0.3377  0.0659
  530MOL0     O73005   2.351   1.601   2.063  0.1277  0.0956 -0.0907
  530MOL0     C73006   2.412   1.723   2.084  0.4252  0.2668  0.1548
  530MOL0     C73007   2.536   1.751   2.030 -0.1154  0.5756  0.7246
  530MOL0     C73008   2.592   1.881   2.041 -0.6687 -0.1791  0.5957
  530MOL0     C73009   2.531   1.977   2.121  0.7274 -0.4467  0.3230
  530MOL0     O73010   2.592   2.099   2.144 -0.0568 -0.7936 -0.9206
  530MOL0     C73011   2.681   2.086   2.266  0.3748 -0.0753  0.1091
  530MOL0     C73012   2.696   2.223   2.331  0.4442  0.2459  0.3323
  530MOL0     C73013   2.555   2.281   2.375 -0.0565  0.5542 -0.3994
  530MOL0     C73014   2.559   2.426   2.430  0.0876  0.4888 -0.5500
  530MOL0     C73015   2.420   2.490   2.433 -0.2432  0.0843  0.0255
  530MOL0     C73016   2.441   2.625   2.501  0.4906  0.4158  0.5715
  530MOL0     C73017   2.311   2.693   2.528 -0.0098  0.1492  0.3427
  530MOL0     C73018   2.222   2.719   2.404 -0.1853  0.6517  0.8385
  530MOL0     N73019   2.128   2.817   2.433 -0.2377 -0.8127  0.3419
  530MOL0     C73020   2.005   2.800   2.492 -0.3196 -0.6487  0.4470
  530MOL0     C73021   1.958   2.928   2.501  0.0688 -1.1346 -0.1200
  530MOL0     C73022   1.819   2.944   2.569 -0.3642  0.4881 -0.1078
  530MOL0     C73023   1.704   2.902   2.472  0.2263 -0.2512  0.3107
  530MOL0     C73024   1.711   2.966   2.331 -0.5562  0.5299  0.1281
  530MOL0     C73025   1.716   3.115   2.325 -0.3159  0.5193 -0.7767
  530MOL0     O73026   1.706   3.176   2.193  0.0398  0.3829  0.4551
  530MOL0     C73027   1.786   3.157   2.086 -0.1690  0.7760 -0.5201
  530MOL0     C73028   1.896   3.071   2.078 -0.4353 -0.6456 -1.0305
  530MOL0     C73029   1.968   3.038   1.961  0.4781 -0.3069 -0.1261
  530MOL0     C73030   2.106   2.985   1.985  0.0724  0.5264  0.3030
  530MOL0     C73031   1.928   3.083   1.832  0.0864 -0.3001 -0.3470
  530MOL0     C73032   2.000   3.058   1.707  1.1361  0.5986  0.6743
  530MOL0     O73033   1.953   3.139   1.605  0.1971  0.4473 -0.0878
  530MOL0     C73034   2.003   3.144   1.478 -0.7416 -0.3987  0.2203
  530MOL0     C73035   1.905   3.145   1.380 -0.0917  1.0861  0.0158
  530MOL0     C73036   1.933   3.149   1.242 -0.6283  0.9121  0.5903
  530MOL0     C73037   2.072   3.152   1.202  0.2211  0.2774 -0.2682
  530MOL0     O73038   2.119   3.160   1.071  0.1380 -1.0567  0.2620
  530MOL0     C73039   2.062   3.075   0.973 -0.2148  0.4900 -0.1629
  530MOL0     C73040   2.085   3.147   0.836 -0.0407 -0.0040 -0.1550
  530MOL0     C73041   2.006   3.068   0.728 -0.3861  0.1663  0.8026
  530MOL0     C73042   2.104   2.979   0.646  1.5727  0.3677  0.7641
  530MOL0     C73043   2.043   2.884   0.542 -0.4647 -0.0020  0.3314
  530MOL0     C73044   1.938   2.934   0.450  1.2470 -0.4498  0.7187
  530MOL0     C73045   1.918   2.830   0.336 -0.8880  0.2656  0.1377
  530MOL0     C73046   1.812   2.887   0.250  0.6064  0.2759 -0.0116
  530MOL0    Cl73047   1.769   2.775   0.123  0.1995 -0.0686 -0.1553
  530MOL0     C73048   2.171   3.145   1.302  0.0534 -0.3122  0.5810
  530MOL0     C73049   2.138   3.145   1.437 -0.2016 -0.1309 -0.3780
  530MOL0     O73050   2.082   2.966   1.693 -0.4421  0.2619  0.7437
  530MOL0     C73051   1.811   3.163   1.834 -0.0623 -0.9112  0.4673
  530MOL0     C73052   1.745   3.191   1.955 -0.1522 -0.6614  0.5911
  530MOL0     N73053   2.042   3.016   2.443 -0.4560 -0.1808  0.1858
  530MOL0     N73054   2.141   2.954   2.392  0.3215  0.8343 -1.1500
  530MOL0     C73055   2.410   1.946   2.179  0.5093  0.1538  0.9851
  530MOL0     C73056   2.348   1.817   2.169  0.4983  0.3019 -0.1739
  530MOL0     C73057   2.203   1.467   1.936  0.3296  0.4350  0.6436
  530MOL0     C73058   2.258   1.348   1.985 -0.2452  0.0905  0.6520
  530MOL0     C73059   2.196   1.226   1.960 -0.7470 -0.0332  0.5296
  530MOL0     C73060   2.072   1.220   1.894 -0.3311 -0.0841  0.3688
  530MOL0     O73061   2.009   1.094   1.876 -0.4565  0.4551 -0.6394
  530MOL0     C73062   2.088   0.983   1.825 -1.0214 -0.4415 -0.6185
  530MOL0     C73063   2.058   0.962   1.675  0.3804 -0.7177 -0.6457
  530MOL0     C73064   2.140   0.849   1.616 -0.2280 -0.0560  0.3077
  530MOL0     C73065   2.118   0.826   1.466 -1.0134 -0.4358  0.5490
  530MOL0     C73066   2.200   0.715   1.420 -0.0875 -0.6311  1.0435
  530MOL0     C73067   2.285   0.632   1.401 -0.2510 -1.2952  0.7737
  530MOL0     C73068   2.012   1.336   1.850  0.1125 -0.0201 -1.1530
  530MOL0     C73069   2.073   1.467   1.870  0.2355  0.9544 -0.0682
  530MOL0     C73070   1.995   1.582   1.793 -0.2012 -0.0803 -0.6357
  530MOL0     H73071   2.583   1.680   1.963 -2.6832 -1.6103  1.0484
  530MOL0     H73072   2.694   1.892   2.006 -0.1702 -0.1300  1.9662
  530MOL0     H73073   2.779   2.053   2.229  0.4518  2.3149 -2.1262
  530MOL0     H73074   2.638   2.021   2.342 -1.1232 -0.0896 -0.7195
  530MOL0     H73075   2.767   2.211   2.414  2.9734 -2.1006 -1.9516
  530MOL0     H73076   2.742   2.294   2.262  0.1376  2.1371  1.9921
  530MOL0     H73077   2.480   2.285   2.295  0.0238  3.4794 -0.4417
  530MOL0     H73078   2.511   2.215   2.451  0.6934 -1.9437 -2.0259
  530MOL0     H73079   2.600   2.418   2.531  1.7912 -0.5341 -1.2615
  530MOL0     H73080   2.625   2.486   2.367 -0.7330 -1.3633 -3.3937
  530MOL0     H73081   2.352   2.445   2.507  1.1111  2.7545  3.1717
  530MOL0     H73082   2.382   2.495   2.331  1.1468  1.0685 -0.4622
  530MOL0     H73083   2.488   2.595   2.596 -0.6613  1.6728  1.5677
  530MOL0     H73084   2.505   2.691   2.441 -0.4089 -1.0687 -2.2041
  530MOL0     H73085   2.340   2.793   2.560 -4.1334  1.3802  0.8074
  530MOL0     H73086   2.247   2.654   2.607 -0.2166  2.1680  1.2324
  530MOL0     H73087   2.283   2.742   2.316  0.3657 -0.9916  0.7578
  530MOL0     H73088   2.168   2.630   2.372  0.8597  0.3787 -0.2250
  530MOL0     H73089   1.958   2.706   2.520  1.0011 -1.5335 -0.1875
  530MOL0     H73090   1.797   3.045   2.606 -3.7444  0.0366 -0.5461
  530MOL0     H73091   1.809   2.884   2.659 -3.4720  2.6820  1.1984
  530MOL0     H73092   1.701   2.796   2.447 -0.5931 -0.1506 -0.0333
  530MOL0     H73093   1.606   2.919   2.517 -0.9774 -1.1799 -1.8302
  530MOL0     H73094   1.803   2.929   2.285 -2.0145 -2.1284 -0.8733
  530MOL0     H73095   1.628   2.932   2.268  0.8742 -1.8277 -0.6466
  530MOL0     H73096   1.641   3.156   2.392 -1.6891 -2.8982  0.0149
  530MOL0     H73097   1.807   3.156   2.369 -0.9456  2.8521 -1.5471
  530MOL0     H73098   1.947   3.042   2.169 -1.6487  2.1421  0.6719
  530MOL0     H73099   2.177   3.038   1.921  1.5088 -1.9025 -0.2107
  530MOL0     H73100   2.103   2.882   1.950 -0.8935  1.3464 -2.2824
  530MOL0     H73101   2.153   2.988   2.084  1.1318  0.5957 -0.1798
  530MOL0     H73102   1.805   3.136   1.421  0.9761 -2.2724  2.2884
  530MOL0     H73103   1.855   3.145   1.166  0.1923 -2.6179 -0.2470
  530MOL0     H73104   2.121   2.983   0.970  0.8628  1.0998  1.1667
  530MOL0     H73105   1.958   3.049   0.990  0.8199 -1.8764  3.7981
  530MOL0     H73106   2.053   3.251   0.834 -0.8667 -0.2203  0.7223
  530MOL0     H73107   2.193   3.153   0.821 -0.1267  1.2412 -0.3289
  530MOL0     H73108   1.971   3.147   0.661  2.2139  1.2225  0.5427
  530MOL0     H73109   1.923   3.007   0.765 -0.2892 -0.1306  0.5358
  530MOL0     H73110   2.163   2.924   0.720  0.9988  0.3870  1.2467
  530MOL0     H73111   2.171   3.045   0.592 -0.9610  1.0324 -1.7853
  530MOL0     H73112   2.131   2.842   0.491 -0.2850  1.1494 -0.3194
  530MOL0     H73113   1.997   2.797   0.590 -0.5387  0.4743  1.1396
  530MOL0     H73114   1.981   3.029   0.417  0.8012 -0.2993  0.5648
  530MOL0     H73115   1.845   2.961   0.501  0.6290  0.8359 -0.9828
  530MOL0     H73116   1.898   2.727   0.364 -1.7899  1.0144  2.5200
  530MOL0     H73117   2.007   2.825   0.273 -2.1361 -1.6324 -1.5896
  530MOL0     H73118   1.864   2.972   0.204 -1.4826  1.9472  0.5921
  530MOL0     H73119   1.718   2.921   0.294 -0.0477  1.9759 -2.4964
  530MOL0     H73120   2.275   3.143   1.273  0.1832  1.8361  0.7149
  530MOL0     H73121   2.214   3.126   1.513  0.3283  1.1779 -0.5504
  530MOL0     H73122   1.779   3.218   1.746  1.1730 -2.6643 -1.1522
  530MOL0     H73123   1.657   3.255   1.957 -2.0978 -3.1550 -0.1535
  530MOL0     H73124   2.370   2.019   2.248  2.0936 -1.2429  3.5409
  530MOL0     H73125   2.267   1.788   2.235  3.2941 -1.6957  2.6644
  530MOL0     H73126   2.353   1.349   2.037  0.4060  2.2788 -0.4805
  530MOL0     H73127   2.249   1.137   1.993  1.3550  0.9328 -0.0787
  530MOL0     H73128   2.195   1.003   1.820 -0.9058 -1.2391 -2.0301
  530MOL0     H73129   2.068   0.886   1.873  0.8121 -0.0732  1.0009
  530MOL0     H73130   2.071   1.054   1.617 -2.5206 -2.1252 -3.8456
  530MOL0     H73131   1.950   0.952   1.674  0.3977 -0.9419 -1.3803
  530MOL0     H73132   2.242   0.882   1.636 -0.2595 -0.4602  1.1475
  530MOL0     H73133   2.103   0.758   1.664 -2.4723 -0.2592 -1.6150
  530MOL0     H73134   2.150   0.916   1.413  0.5432 -0.6736  1.0308
  530MOL0     H73135   2.011   0.815   1.447 -0.9887  0.8621 -0.5150
  530MOL0     H73136   2.361   0.557   1.410  0.6866 -0.7920 -1.8339
  530MOL0     H73137   1.913   1.336   1.806 -1.2058 -0.2628  1.6099
  530MOL0     H73138   2.055   1.662   1.748  2.2944 -0.6676  1.3771
  530MOL0     H73139   1.921   1.547   1.721 -3.3491 -0.9352  2.7414
  530MOL0     H73140   1.934   1.622   1.875  1.1934 -1.2469  1.0545
  531MOL0     O73141  11.325   1.720   7.997 -0.1234 -0.3208 -0.2205
  531MOL0     C73142  11.270   1.826   8.022 -0.6580 -0.2081  0.4114
  531MOL0     O73143  11.184   1.889   7.942 -0.4947 -1.1925 -0.3021
  531MOL0     C73144  11.108   1.824   7.848 -0.3491 -0.2279  0.2610
  531MOL0     C73145  11.096   1.690   7.836  0.3321 -0.4629 -0.0883
  531MOL0     C73146  11.006   1.629   7.750  1.1200 -0.0297 -0.0208
  531MOL0     C73147  10.928   1.712   7.667  0.5545  0.0537  0.0042
  531MOL0     O73148  10.846   1.652   7.571 -1.1561 -0.4417  1.0884
  531MOL0     C73149  10.909   1.610   7.450  0.6564  0.6027  0.0602
  531MOL0     C73150  10.840   1.484   7.415  0.2522 -0.1512 -0.4262
  531MOL0     C73151  10.901   1.409   7.294  0.2372 -0.4949 -0.3858
  531MOL0     C73152  10.862   1.252   7.296 -0.4849 -0.1561  0.1377
  531MOL0     C73153  10.910   1.174   7.174 -0.1527  0.0978  0.1395
  531MOL0     C73154  11.060   1.169   7.153  0.8066  0.7997  0.5254
  531MOL0     C73155  11.095   1.109   7.018 -0.0450 -0.1240  0.5663
  531MOL0     C73156  11.013   0.988   6.964  0.0042 -0.2494 -0.0306
  531MOL0     N73157  11.070   0.951   6.836 -0.1000  0.8902  0.6352
  531MOL0     C73158  11.065   1.027   6.714  0.0763  0.9670 -0.0613
  531MOL0     C73159  11.154   0.965   6.633 -0.6834  0.6697 -0.8295
  531MOL0     C73160  11.172   1.008   6.480  0.4083 -0.1769 -0.7465
  531MOL0     C73161  11.071   0.937   6.388 -0.3466 -0.4064 -0.2291
  531MOL0     C73162  10.919   0.942   6.430 -0.3607 -0.5640 -0.5183
  531MOL0     C73163  10.818   0.907   6.325 -0.2425 -0.4925  1.3614
  531MOL0     O73164  10.792   1.030   6.247 -0.5743  0.0785  0.1216
  531MOL0     C73165  10.689   1.034   6.157 -0.1598 -0.2259 -0.4392
  531MOL0     C73166  10.587   1.133   6.166  0.9038 -0.1964  0.0454
  531MOL0     C73167  10.470   1.128   6.091  1.6259 -0.2660 -0.3809
  531MOL0     C73168  10.361   1.234   6.122 -0.0886  0.0784  0.3557
  531MOL0     C73169  10.452   1.020   5.998 -1.2681  0.3681 -0.1081
  531MOL0     C73170  10.336   1.005   5.907 -0.2203  0.3534 -0.4046
  531MOL0     O73171  10.305   0.878   5.868 -0.3436  0.5780  0.4646
  531MOL0     C73172  10.207   0.857   5.770 -0.0879 -0.5095 -0.0103
  531MOL0     C73173  10.113   0.749   5.789  0.0979  0.9143  0.3299
  531MOL0     C73174  10.012   0.731   5.688 -0.4540  0.3990  0.9762
  531MOL0     C73175   9.993   0.814   5.580 -0.7340 -0.1081 -0.8213
  531MOL0     O73176   9.895   0.797   5.482  0.2698  0.2187 -0.0023
  531MOL0     C73177   9.849   0.916   5.417  0.6317 -0.1527 -0.0074
  531MOL0     C73178   9.728   0.880   5.336 -0.8187 -0.4266  0.1739
  531MOL0     C73179   9.667   0.984   5.236 -0.3042 -0.0276 -0.5881
  531MOL0     C73180   9.779   1.058   5.162  0.0011 -0.0638 -0.3421
  531MOL0     C73181   9.705   1.156   5.063 -0.6263  0.0232 -0.2196
  531MOL0     C73182   9.655   1.084   4.938 -0.6260  0.9316  0.0621
  531MOL0     C73183   9.549   1.150   4.858  0.1206 -1.0573  0.3618
  531MOL0     C73184   9.591   1.235   4.744  0.0582 -1.2015 -0.1056
  531MOL0    Cl73185   9.721   1.336   4.800 -0.5174  0.1850  0.0315
  531MOL0     C73186  10.092   0.906   5.558 -0.0644 -0.3863 -0.5896
  531MOL0     C73187  10.196   0.926   5.652 -0.0385 -0.0559 -0.0536
  531MOL0     O73188  10.264   1.103   5.888  1.2153 -0.3581 -0.2978
  531MOL0     C73189  10.552   0.924   5.981  0.8042 -0.7545 -0.6057
  531MOL0     C73190  10.667   0.931   6.062  0.1173 -0.1276  0.2431
  531MOL0     N73191  11.220   0.861   6.707 -1.1159 -0.0157  0.1126
  531MOL0     N73192  11.164   0.844   6.824 -1.0907 -0.7439 -0.0741
  531MOL0     C73193  10.938   1.851   7.676 -0.7611  0.3240  0.5587
  531MOL0     C73194  11.030   1.909   7.766 -0.2128  0.4146  0.6304
  531MOL0     C73195  11.298   1.900   8.150  0.2680 -0.4657  0.4420
  531MOL0     C73196  11.186   1.975   8.203 -0.5956 -0.6573  0.3789
  531MOL0     C73197  11.203   2.049   8.320 -0.7685 -0.6420  0.2213
  531MOL0     C73198  11.315   2.050   8.393  0.4516  0.1243 -0.2226
  531MOL0     O73199  11.319   2.128   8.505 -0.1682 -0.0313 -0.2113
  531MOL0     C73200  11.415   2.089   8.610 -0.0588  0.0264  0.0887
  531MOL0     C73201  11.341   2.135   8.729  0.4375  1.0915  1.6931
  531MOL0     C73202  11.419   2.103   8.856  0.2010  0.4421  0.4614
  531MOL0     C73203  11.561   2.170   8.872  0.0592  0.3884 -0.7714
  531MOL0     C73204  11.634   2.112   8.987  0.3760 -0.0220  1.1096
  531MOL0     C73205  11.673   2.062   9.096  0.2461  0.4288 -0.2263
  531MOL0     C73206  11.423   1.970   8.351 -0.1480  0.2745 -0.2823
  531MOL0     C73207  11.413   1.897   8.229 -0.0602 -0.2259 -0.4134
  531MOL0     C73208  11.535   1.810   8.200  0.2432  0.8186 -0.4971
  531MOL0     H73209  11.160   1.622   7.891  3.0500 -0.7441 -3.2323
  531MOL0     H73210  10.990   1.522   7.755 -0.1914  0.0377 -1.9360
  531MOL0     H73211  11.017   1.593   7.453  0.7440  1.0621 -0.3193
  531MOL0     H73212  10.892   1.689   7.376  0.5783  0.1120 -0.4542
  531MOL0     H73213  10.855   1.414   7.498  4.6829 -0.4262 -1.1998
  531MOL0     H73214  10.737   1.511   7.391 -0.6449  0.1821  3.2211
  531MOL0     H73215  10.863   1.454   7.201  0.3079 -0.8049 -0.5666
  531MOL0     H73216  11.010   1.418   7.290  0.2702 -1.1763 -2.1241
  531MOL0     H73217  10.895   1.202   7.388  0.6771  1.0354  0.3869
  531MOL0     H73218  10.752   1.253   7.291 -0.4358 -0.7975 -1.5981
  531MOL0     H73219  10.863   1.216   7.085 -0.4815  1.7445  1.0470
  531MOL0     H73220  10.874   1.072   7.194 -0.5637  0.3879  0.9173
  531MOL0     H73221  11.094   1.273   7.158 -1.7762  1.7314  0.2987
  531MOL0     H73222  11.114   1.116   7.232 -0.1492 -1.2869 -0.1372
  531MOL0     H73223  11.203   1.090   7.025 -0.0045  0.6009  2.5874
  531MOL0     H73224  11.082   1.191   6.947 -0.4674  0.0849  0.8844
  531MOL0     H73225  11.002   0.905   7.034  2.0731 -0.1495  0.4757
  531MOL0     H73226  10.908   1.015   6.946 -1.2302 -4.7558 -0.7996
  531MOL0     H73227  10.993   1.105   6.688 -2.0872 -1.1318 -0.7584
  531MOL0     H73228  11.272   0.980   6.447  0.2742 -1.3868 -0.2037
  531MOL0     H73229  11.149   1.115   6.480 -1.1753 -0.4897 -0.3626
  531MOL0     H73230  11.079   0.989   6.291 -1.7780  2.3499  1.0150
  531MOL0     H73231  11.103   0.833   6.376  0.6967 -0.3326  1.5016
  531MOL0     H73232  10.911   0.877   6.518  2.5314 -1.3583 -0.7412
  531MOL0     H73233  10.898   1.042   6.469 -2.9381 -0.9336 -0.7879
  531MOL0     H73234  10.865   0.841   6.251 -0.2400  1.0202 -0.0405
  531MOL0     H73235  10.732   0.844   6.347 -0.0204 -1.5084 -0.4465
  531MOL0     H73236  10.605   1.203   6.248 -1.7552  2.1966 -1.2290
  531MOL0     H73237  10.351   1.303   6.038  0.6835 -3.8770 -3.3804
  531MOL0     H73238  10.383   1.291   6.213  0.7991 -0.9471  0.8136
  531MOL0     H73239  10.265   1.186   6.141 -0.3223  1.7790  4.3562
  531MOL0     H73240  10.131   0.695   5.881  3.4432  2.2328  0.6081
  531MOL0     H73241   9.948   0.644   5.700  0.0692 -0.1551 -0.1382
  531MOL0     H73242   9.816   0.992   5.489 -0.4405 -0.6321  0.0166
  531MOL0     H73243   9.931   0.962   5.361 -0.3639 -0.2082 -1.5605
  531MOL0     H73244   9.759   0.795   5.274  0.1212  0.0041  0.0323
  531MOL0     H73245   9.649   0.842   5.401 -2.7432  1.6114 -0.8197
  531MOL0     H73246   9.614   1.060   5.293  1.9448  1.1605  0.0560
  531MOL0     H73247   9.603   0.933   5.163  0.6542 -2.7211  0.3319
  531MOL0     H73248   9.846   0.983   5.120 -0.0845 -0.0601 -0.4851
  531MOL0     H73249   9.835   1.114   5.238  2.5849 -6.0845  2.8796
  531MOL0     H73250   9.616   1.202   5.107 -0.2796 -0.8845  1.5033
  531MOL0     H73251   9.778   1.230   5.030  1.3027 -0.9906  1.5893
  531MOL0     H73252   9.594   0.999   4.968 -1.3154  1.2670 -0.3557
  531MOL0     H73253   9.738   1.065   4.869 -0.8712  4.4917 -1.4506
  531MOL0     H73254   9.477   1.207   4.917  0.1554  1.0264 -1.4900
  531MOL0     H73255   9.486   1.071   4.815 -2.7331  0.4027  1.5628
  531MOL0     H73256   9.513   1.296   4.697  0.7492  0.7145  1.1343
  531MOL0     H73257   9.625   1.170   4.663  2.0165 -0.9864  0.5078
  531MOL0     H73258  10.094   0.963   5.465 -2.9728  1.6250  0.4313
  531MOL0     H73259  10.261   1.009   5.626 -2.0357  1.7019  0.2891
  531MOL0     H73260  10.536   0.840   5.914 -2.5175  1.2443 -2.6123
  531MOL0     H73261  10.733   0.845   6.067 -2.0102 -2.0265 -1.9461
  531MOL0     H73262  10.873   1.916   7.619 -2.0808 -1.7449 -0.4394
  531MOL0     H73263  11.044   2.016   7.776 -0.8389  0.3416  2.8750
  531MOL0     H73264  11.086   1.970   8.160  0.2083  0.6453 -1.8157
  531MOL0     H73265  11.134   2.125   8.354 -0.1873  0.3045 -0.6586
  531MOL0     H73266  11.440   1.983   8.609  2.8125  0.5873  1.2833
  531MOL0     H73267  11.506   2.150   8.603 -0.5884  0.7894 -0.3147
  531MOL0     H73268  11.248   2.077   8.734  2.2775 -2.9353 -2.9646
  531MOL0     H73269  11.326   2.242   8.710  0.4778  0.4212 -3.3554
  531MOL0     H73270  11.358   2.138   8.940 -1.7783  0.1491 -0.7749
  531MOL0     H73271  11.436   1.995   8.855  0.6546  0.5114 -0.4218
  531MOL0     H73272  11.557   2.279   8.879  0.4284  0.3353  0.4195
  531MOL0     H73273  11.617   2.137   8.784  1.6030  0.5073  0.1425
  531MOL0     H73274  11.718   2.037   9.190  0.3288 -1.6764 -0.7749
  531MOL0     H73275  11.508   1.952   8.415  0.2430  3.0994  0.1453
  531MOL0     H73276  11.601   1.823   8.286 -1.2928 -1.1389  1.0845
  531MOL0     H73277  11.500   1.707   8.190 -0.4932  0.7729  1.9218
  531MOL0     H73278  11.583   1.836   8.105 -0.4520  0.3939 -0.9689
  532MOL0     O73279   9.074   0.085   1.008  0.3640 -0.5020 -0.3129
  532MOL0     C73280   9.155   0.100   0.916  0.1409 -0.8695 -0.4714
  532MOL0     O73281   9.234  -0.002   0.870  0.2742  0.3297  0.0977
  532MOL0     C73282   9.205  -0.128   0.919  0.0276  0.5494 -0.2056
  532MOL0     C73283   9.320  -0.200   0.956 -0.7621 -0.0981  0.3677
  532MOL0     C73284   9.304  -0.325   1.012 -0.5323  0.1568  0.5131
  532MOL0     C73285   9.178  -0.390   1.030 -0.5318 -1.2885 -0.7594
  532MOL0     O73286   9.178  -0.510   1.092  0.7650  0.2176 -0.1320
  532MOL0     C73287   9.233  -0.508   1.224  0.5045  0.8117  0.2039
  532MOL0     C73288   9.272  -0.648   1.272  0.3814  0.1583 -0.2651
  532MOL0     C73289   9.153  -0.752   1.277 -0.0244  0.2566 -0.4447
  532MOL0     C73290   9.194  -0.902   1.269 -0.2769  0.2958 -0.3891
  532MOL0     C73291   9.323  -0.934   1.355  0.7453 -0.0171  0.0463
  532MOL0     C73292   9.299  -0.963   1.506  0.6769  0.3288  0.6388
  532MOL0     C73293   9.423  -0.990   1.598  0.4000 -0.3158 -0.4707
  532MOL0     C73294   9.528  -0.882   1.585 -0.2318 -0.1114 -0.6835
  532MOL0     N73295   9.617  -0.912   1.703 -0.0917  0.2538 -0.1586
  532MOL0     C73296   9.603  -0.899   1.844 -0.7127  0.2945  0.8252
  532MOL0     C73297   9.715  -0.957   1.896  0.2108  0.1717 -0.7109
  532MOL0     C73298   9.767  -0.935   2.034  0.3297 -0.1321  0.8003
  532MOL0     C73299   9.912  -0.878   2.044  0.8983  0.1858 -0.6570
  532MOL0     C73300   9.948  -0.751   1.978  0.5412 -0.1380  0.3968
  532MOL0     C73301   9.869  -0.635   2.042 -0.1838  0.5082 -0.9204
  532MOL0     O73302   9.913  -0.504   2.003  0.1628 -0.4707  0.3830
  532MOL0     C73303   9.871  -0.446   1.883 -0.6564  1.1832  0.8606
  532MOL0     C73304   9.764  -0.488   1.806 -0.7966 -1.5404 -0.0633
  532MOL0     C73305   9.736  -0.434   1.682  0.9389  0.5383 -0.2446
  532MOL0     C73306   9.624  -0.503   1.607 -0.0328 -0.2208  0.2958
  532MOL0     C73307   9.811  -0.321   1.629  0.9691  0.1691 -0.4044
  532MOL0     C73308   9.802  -0.254   1.502 -0.4093  0.4838 -0.7920
  532MOL0     O73309   9.772  -0.323   1.389 -0.0694  0.6161 -0.3616
  532MOL0     C73310   9.752  -0.254   1.269 -0.0714 -0.3643 -0.8583
  532MOL0     C73311   9.632  -0.172   1.261 -0.0424 -0.0279  0.4442
  532MOL0     C73312   9.601  -0.100   1.139 -0.2010 -0.6114 -0.5619
  532MOL0     C73313   9.690  -0.093   1.033  0.2046 -0.2244 -1.4892
  532MOL0     O73314   9.640  -0.038   0.918 -0.3655  0.4632  0.4581
  532MOL0     C73315   9.720  -0.061   0.799 -0.2531 -1.0025 -0.1265
  532MOL0     C73316   9.624  -0.008   0.694 -0.0198  0.0094 -0.4336
  532MOL0     C73317   9.683  -0.027   0.555  1.2240  0.1729  0.1828
  532MOL0     C73318   9.621   0.062   0.453  0.0563 -0.1854 -1.0893
  532MOL0     C73319   9.619   0.011   0.315 -0.4428 -0.0001 -0.1699
  532MOL0     C73320   9.759   0.010   0.251  0.2712  0.2840  0.0548
  532MOL0     C73321   9.830   0.137   0.221  0.4124 -0.0566  0.2182
  532MOL0     C73322   9.978   0.110   0.183  0.2665  0.2390  0.0063
  532MOL0    Cl73323  10.081   0.258   0.195  0.1271 -0.1692  0.1756
  532MOL0     C73324   9.814  -0.162   1.045  0.2000  0.7403 -1.0412
  532MOL0     C73325   9.844  -0.247   1.161  0.1733 -0.0946 -0.5523
  532MOL0     O73326   9.813  -0.131   1.505 -0.5245  0.3790 -0.4020
  532MOL0     C73327   9.908  -0.260   1.721  0.4891  1.0920  0.4984
  532MOL0     C73328   9.930  -0.327   1.841 -0.8535  0.2643  0.1812
  532MOL0     N73329   9.791  -1.010   1.794  0.2564  0.3625  0.8286
  532MOL0     N73330   9.734  -0.978   1.684  0.1477  0.2008 -0.9142
  532MOL0     C73331   9.067  -0.325   0.976 -0.8632  0.8087 -0.0693
  532MOL0     C73332   9.078  -0.193   0.929 -0.3378 -0.2203 -0.1415
  532MOL0     C73333   9.183   0.246   0.868 -0.6937  0.2389  0.3348
  532MOL0     C73334   9.307   0.268   0.797  0.2016 -0.3784 -0.2628
  532MOL0     C73335   9.346   0.394   0.756 -0.3183  0.3382  0.4654
  532MOL0     C73336   9.265   0.508   0.773  1.1616  0.0429 -0.3666
  532MOL0     O73337   9.319   0.625   0.733  0.4119  0.4784 -0.0175
  532MOL0     C73338   9.269   0.749   0.777  0.1354 -0.2053  0.2338
  532MOL0     C73339   9.376   0.848   0.760  0.2468 -1.1224 -0.1024
  532MOL0     C73340   9.503   0.797   0.839 -0.2571 -0.4864  0.0945
  532MOL0     C73341   9.609   0.906   0.851  0.6485  0.4814  0.1214
  532MOL0     C73342   9.577   1.007   0.953 -0.3117 -0.4056 -0.7186
  532MOL0     C73343   9.548   1.088   1.033 -0.2592 -0.3389 -0.4090
  532MOL0     C73344   9.143   0.475   0.841 -0.4965 -0.2192  0.2526
  532MOL0     C73345   9.103   0.358   0.895 -0.0858  0.5680 -0.0277
  532MOL0     C73346   8.964   0.347   0.949  0.2570  0.1157  0.2794
  532MOL0     H73347   9.420  -0.165   0.932  0.4573 -3.5330 -0.1858
  532MOL0     H73348   9.397  -0.375   1.035  0.2310  2.5819  3.2388
  532MOL0     H73349   9.156  -0.474   1.293  0.9637 -0.1363  1.2125
  532MOL0     H73350   9.319  -0.442   1.240  1.4321  0.2104 -1.9410
  532MOL0     H73351   9.353  -0.690   1.212  0.5453 -2.1520  1.4484
  532MOL0     H73352   9.304  -0.630   1.375 -0.8078 -1.6586  0.4792
  532MOL0     H73353   9.089  -0.739   1.365 -0.6322 -1.1935 -0.6507
  532MOL0     H73354   9.095  -0.727   1.188  1.3954 -0.6827 -1.6783
  532MOL0     H73355   9.114  -0.972   1.294  1.9888 -1.2745  3.2785
  532MOL0     H73356   9.238  -0.915   1.170  2.4176  2.4940  0.3966
  532MOL0     H73357   9.403  -0.861   1.340  0.2457  0.2346 -1.6554
  532MOL0     H73358   9.366  -1.020   1.303  3.3247  2.9387 -3.2415
  532MOL0     H73359   9.230  -0.886   1.541  1.3276  1.6584 -0.9061
  532MOL0     H73360   9.236  -1.052   1.522 -3.7377  2.5555 -2.3791
  532MOL0     H73361   9.452  -1.091   1.569 -1.0382 -0.9493  0.1709
  532MOL0     H73362   9.379  -0.997   1.698  1.2943  2.0347  0.1579
  532MOL0     H73363   9.590  -0.897   1.497 -0.8691 -1.6291 -0.9043
  532MOL0     H73364   9.496  -0.778   1.593  1.2793  0.2891  5.8166
  532MOL0     H73365   9.518  -0.857   1.898  0.2634  0.5110  2.2497
  532MOL0     H73366   9.780  -1.029   2.088  0.3756 -1.0971 -0.8355
  532MOL0     H73367   9.696  -0.865   2.079 -0.6729 -0.4094 -0.3220
  532MOL0     H73368   9.954  -0.861   2.143  2.7678  2.5426 -1.7551
  532MOL0     H73369   9.984  -0.952   2.009  3.2193  1.1350  1.7769
  532MOL0     H73370  10.053  -0.725   1.995  0.1283  0.5893  2.0712
  532MOL0     H73371   9.929  -0.758   1.871 -0.8136  0.4342  0.5864
  532MOL0     H73372   9.761  -0.652   2.030  0.1334 -3.3459  0.3746
  532MOL0     H73373   9.886  -0.635   2.150  1.3423 -2.3780 -1.0560
  532MOL0     H73374   9.698  -0.562   1.851 -3.1543  0.4340 -0.0713
  532MOL0     H73375   9.580  -0.587   1.661  2.2799 -1.3688  0.5118
  532MOL0     H73376   9.656  -0.546   1.512  1.0850  2.9278 -0.9021
  532MOL0     H73377   9.554  -0.420   1.591  0.9159  0.7723  1.0576
  532MOL0     H73378   9.570  -0.170   1.350 -2.2397 -0.8730 -0.9559
  532MOL0     H73379   9.510  -0.042   1.134 -2.0751 -3.4286 -1.1435
  532MOL0     H73380   9.808   0.004   0.797 -0.6085 -0.3092  2.4129
  532MOL0     H73381   9.752  -0.163   0.779  1.6489 -0.3951 -0.3693
  532MOL0     H73382   9.526  -0.055   0.700 -1.1285  2.2555  0.1793
  532MOL0     H73383   9.619   0.101   0.707  1.4439  0.3270 -2.0201
  532MOL0     H73384   9.676  -0.131   0.521 -0.5713  1.0558 -2.4084
  532MOL0     H73385   9.792  -0.021   0.556  1.1542  2.1607 -0.7393
  532MOL0     H73386   9.663   0.163   0.458  1.0758 -0.5230 -2.4586
  532MOL0     H73387   9.518   0.062   0.489  0.7844 -1.6607  1.2755
  532MOL0     H73388   9.580  -0.092   0.317  1.2761 -0.6696  1.4459
  532MOL0     H73389   9.543   0.064   0.257 -0.1370  1.6464  0.8653
  532MOL0     H73390   9.736  -0.038   0.156  1.7409 -0.1144 -0.1262
  532MOL0     H73391   9.823  -0.055   0.313  0.9284 -0.8168 -1.7069
  532MOL0     H73392   9.826   0.206   0.306 -2.7775  1.3769 -0.9476
  532MOL0     H73393   9.788   0.193   0.137  0.1781  2.0980  1.6923
  532MOL0     H73394   9.982   0.065   0.084  1.2259  1.5928 -0.6023
  532MOL0     H73395  10.019   0.036   0.252 -0.8095  0.0460  0.4623
  532MOL0     H73396   9.896  -0.154   0.975  3.0956 -2.9628  1.5007
  532MOL0     H73397   9.943  -0.291   1.170  0.6546  1.2488  1.3470
  532MOL0     H73398   9.956  -0.168   1.688 -0.0490  1.2511  0.1427
  532MOL0     H73399  10.008  -0.275   1.895 -1.0557  1.8117 -0.9542
  532MOL0     H73400   8.970  -0.374   0.975 -0.0053 -0.9779  0.2350
  532MOL0     H73401   8.998  -0.126   0.899 -0.3456  0.2252  0.8444
  532MOL0     H73402   9.374   0.184   0.781 -0.1757 -1.2285  2.2124
  532MOL0     H73403   9.440   0.394   0.702 -1.0181 -1.5819 -0.8639
  532MOL0     H73404   9.176   0.769   0.723  0.3973 -0.3818 -0.2866
  532MOL0     H73405   9.249   0.754   0.885  1.9001  0.2731  0.5713
  532MOL0     H73406   9.333   0.943   0.795 -0.0614 -0.1049 -2.9532
  532MOL0     H73407   9.407   0.854   0.655 -0.1609  0.3522 -0.1586
  532MOL0     H73408   9.473   0.773   0.941  0.5950  1.3572  0.8249
  532MOL0     H73409   9.561   0.721   0.786  1.1513  3.1149 -4.1679
  532MOL0     H73410   9.604   0.966   0.759  0.3753  2.2882  1.2746
  532MOL0     H73411   9.706   0.854   0.857  1.7240  2.3809  0.1571
  532MOL0     H73412   9.506   1.170   1.087 -1.3244 -0.2949 -1.2659
  532MOL0     H73413   9.092   0.571   0.844 -0.7893 -0.2645 -1.7476
  532MOL0     H73414   8.900   0.424   0.905  1.7197  0.0349 -2.1334
  532MOL0     H73415   8.916   0.250   0.934 -0.1982  0.5614 -1.2717
  532MOL0     H73416   8.977   0.362   1.057 -0.4756 -2.2013  0.7372
  533MOL0     O73417   8.553   7.127   5.683 -0.6365  0.0892 -1.4669
  533MOL0     C73418   8.484   7.219   5.644 -0.5774  0.1322 -0.1881
  533MOL0     O73419   8.370   7.203   5.570  0.3044 -0.3902 -0.8087
  533MOL0     C73420   8.325   7.078   5.522  0.6639 -0.4910 -0.5177
  533MOL0     C73421   8.254   6.986   5.599  0.1057  0.0533  0.6650
  533MOL0     C73422   8.209   6.868   5.540 -0.6074  0.8497 -0.6587
  533MOL0     C73423   8.254   6.834   5.413  0.4303 -0.3013  0.4960
  533MOL0     O73424   8.216   6.716   5.349 -0.1993 -0.0353 -0.2599
  533MOL0     C73425   8.302   6.616   5.407  0.3634 -0.2561  0.6695
  533MOL0     C73426   8.292   6.488   5.321 -0.0121  0.4704 -0.2407
  533MOL0     C73427   8.164   6.402   5.344  0.0554 -0.1870 -0.0490
  533MOL0     C73428   8.195   6.310   5.465 -0.0979  0.3939  0.5066
  533MOL0     C73429   8.096   6.198   5.490 -0.2965 -0.7428  0.2162
  533MOL0     C73430   8.101   6.130   5.627  0.7758  0.1247 -0.3872
  533MOL0     C73431   8.226   6.050   5.642 -0.1416  1.1956  0.3897
  533MOL0     C73432   8.200   5.897   5.659  0.1723  0.4827  0.4532
  533MOL0     N73433   8.164   5.875   5.800 -0.1026  0.2302 -0.8399
  533MOL0     C73434   8.245   5.810   5.891 -0.3506  0.4787 -0.5979
  533MOL0     C73435   8.164   5.775   5.995  0.0720  0.4867 -0.7360
  533MOL0     C73436   8.193   5.679   6.116 -0.5297  0.7454  0.5093
  533MOL0     C73437   8.317   5.721   6.200 -0.4076 -1.0949  0.5266
  533MOL0     C73438   8.264   5.804   6.321 -0.5210  0.4196 -0.1381
  533MOL0     C73439   8.202   5.939   6.273 -0.3708  0.6919 -0.8167
  533MOL0     O73440   8.305   6.006   6.188 -0.1297 -0.0954 -0.6648
  533MOL0     C73441   8.276   6.124   6.124  0.2994 -1.4309 -0.4817
  533MOL0     C73442   8.374   6.167   6.035 -0.6056 -0.0892  0.0212
  533MOL0     C73443   8.362   6.287   5.957  0.2178  0.0403  0.1928
  533MOL0     C73444   8.473   6.334   5.857 -0.0206 -0.0803 -0.2170
  533MOL0     C73445   8.236   6.352   5.954  0.5842  0.6921 -0.6989
  533MOL0     C73446   8.206   6.479   5.891 -0.1658  0.0545 -0.1791
  533MOL0     O73447   8.114   6.556   5.951  0.3552 -0.2660 -0.4440
  533MOL0     C73448   8.118   6.696   5.947  1.0047  0.2005 -1.5984
  533MOL0     C73449   8.007   6.761   5.988  0.7819 -0.4821 -0.8182
  533MOL0     C73450   7.999   6.897   6.008 -1.0164  0.4735 -0.3677
  533MOL0     C73451   8.107   6.982   5.964  0.4325 -0.0427  0.1540
  533MOL0     O73452   8.096   7.121   5.949  0.8689 -0.2888 -0.4531
  533MOL0     C73453   7.978   7.185   5.909 -0.6050 -0.5103 -0.7927
  533MOL0     C73454   8.001   7.324   5.967 -0.0119 -0.3752  0.3710
  533MOL0     C73455   8.119   7.408   5.914 -1.3603  0.4812 -0.0675
  533MOL0     C73456   8.126   7.397   5.760  0.8542 -0.2760  0.0953
  533MOL0     C73457   8.191   7.519   5.685  0.6379 -0.3895 -0.1946
  533MOL0     C73458   8.079   7.625   5.647 -0.4814 -0.4504 -0.2510
  533MOL0     C73459   8.138   7.754   5.578  0.4793  0.6360 -0.8886
  533MOL0     C73460   8.239   7.724   5.468  0.9175  0.6326 -1.0457
  533MOL0    Cl73461   8.159   7.614   5.343  0.1339  0.2750 -0.1553
  533MOL0     C73462   8.226   6.917   5.938  0.8195 -0.4574 -0.7627
  533MOL0     C73463   8.235   6.776   5.933 -0.1821  0.2531  0.4867
  533MOL0     O73464   8.254   6.504   5.778  0.5685 -0.1949 -0.5211
  533MOL0     C73465   8.132   6.303   6.042 -0.5973  0.2143 -0.5369
  533MOL0     C73466   8.153   6.189   6.120  0.3355  0.4840  0.0022
  533MOL0     N73467   8.045   5.830   5.973 -0.0973 -0.5492 -0.2673
  533MOL0     N73468   8.042   5.887   5.855 -0.7528 -0.3993 -0.3245
  533MOL0     C73469   8.307   6.927   5.332 -0.7175  0.1207 -0.5362
  533MOL0     C73470   8.348   7.049   5.385  0.0416 -0.3533  0.8102
  533MOL0     C73471   8.531   7.355   5.653 -0.3798  0.2536  0.2932
  533MOL0     C73472   8.526   7.430   5.541  0.2514 -0.4318 -0.0273
  533MOL0     C73473   8.553   7.573   5.550  0.0163  0.4062 -0.5082
  533MOL0     C73474   8.578   7.633   5.674  0.4367 -0.9004 -0.0783
  533MOL0     O73475   8.602   7.768   5.667  1.1269 -0.3999  0.7388
  533MOL0     C73476   8.664   7.840   5.771  1.2050  1.6176 -0.6901
  533MOL0     C73477   8.614   7.979   5.748 -0.3962 -0.0938 -1.1585
  533MOL0     C73478   8.713   8.076   5.824  0.6734 -0.0890 -0.8011
  533MOL0     C73479   8.695   8.081   5.979  0.2937 -0.3535 -0.9639
  533MOL0     C73480   8.788   8.181   6.040  1.0192 -0.6739  0.4649
  533MOL0     C73481   8.872   8.252   6.100  1.1186 -0.3940  0.6377
  533MOL0     C73482   8.576   7.555   5.792  0.4767 -0.1104 -0.6419
  533MOL0     C73483   8.554   7.416   5.784 -0.1278 -0.2180 -0.2964
  533MOL0     C73484   8.565   7.327   5.910 -0.6126  0.2674 -0.1007
  533MOL0     H73485   8.222   7.007   5.701 -0.6614  1.4708  0.1732
  533MOL0     H73486   8.159   6.796   5.603  1.0306 -2.7218 -3.0616
  533MOL0     H73487   8.268   6.604   5.510 -1.5782  2.2869  0.4314
  533MOL0     H73488   8.403   6.656   5.400  0.7913 -0.6477  3.4489
  533MOL0     H73489   8.304   6.504   5.213 -2.2280  0.9021 -0.4675
  533MOL0     H73490   8.381   6.428   5.341  0.0659  0.1072 -1.5510
  533MOL0     H73491   8.086   6.473   5.374  1.0233  0.4176  1.1181
  533MOL0     H73492   8.138   6.338   5.259 -0.6795 -1.5417  1.1471
  533MOL0     H73493   8.296   6.274   5.443  0.1217  1.7084 -0.8406
  533MOL0     H73494   8.203   6.369   5.557  1.3812  1.3830 -0.1957
  533MOL0     H73495   8.103   6.132   5.402 -2.0387  0.4266 -0.8513
  533MOL0     H73496   7.995   6.239   5.484 -0.6416 -1.4038  1.2784
  533MOL0     H73497   8.094   6.195   5.715 -0.8932 -1.2011  0.5189
  533MOL0     H73498   8.008   6.073   5.632 -0.8366  2.2428 -3.2006
  533MOL0     H73499   8.285   6.090   5.724  1.0295 -2.0549  1.2828
  533MOL0     H73500   8.304   6.066   5.567  1.5055  0.2348  1.8177
  533MOL0     H73501   8.124   5.860   5.590  0.2364 -0.0817  0.6840
  533MOL0     H73502   8.293   5.841   5.647  1.2325  2.2922 -0.1602
  533MOL0     H73503   8.350   5.782   5.894 -0.2375  0.9508  0.2854
  533MOL0     H73504   8.199   5.575   6.081  3.5074  0.2129  2.1666
  533MOL0     H73505   8.103   5.694   6.176 -1.0617  1.2627 -0.3964
  533MOL0     H73506   8.374   5.635   6.237  1.6495  0.3764  0.9715
  533MOL0     H73507   8.395   5.774   6.144  1.1421 -3.9462 -0.2329
  533MOL0     H73508   8.201   5.728   6.367 -0.1394 -1.0418 -1.9233
  533MOL0     H73509   8.340   5.832   6.395  0.9748 -1.5676 -0.8231
  533MOL0     H73510   8.111   5.927   6.214  0.8345 -1.8230 -2.2987
  533MOL0     H73511   8.183   5.993   6.367  1.8822  0.1382  0.0330
  533MOL0     H73512   8.468   6.114   6.035 -0.7780 -0.4067  0.7557
  533MOL0     H73513   8.477   6.443   5.865 -2.5989  0.3353 -2.9444
  533MOL0     H73514   8.438   6.300   5.759  1.4220  0.5157 -0.9666
  533MOL0     H73515   8.570   6.288   5.878 -0.0031 -0.7891 -1.7560
  533MOL0     H73516   7.920   6.703   6.016  0.2880 -2.2154 -5.2177
  533MOL0     H73517   7.910   6.939   6.052 -1.3614 -1.4829  0.9131
  533MOL0     H73518   7.960   7.180   5.802 -1.0847 -0.4472 -0.7148
  533MOL0     H73519   7.893   7.133   5.954 -0.2018 -0.5799 -0.0889
  533MOL0     H73520   7.912   7.381   5.938 -0.3377 -1.3910 -0.6549
  533MOL0     H73521   8.017   7.311   6.075 -0.6060 -1.4054  0.3410
  533MOL0     H73522   8.206   7.367   5.966 -0.2107  0.5793 -1.8284
  533MOL0     H73523   8.106   7.509   5.954  2.3131  1.0459  0.0884
  533MOL0     H73524   8.028   7.386   5.713  0.4719  2.3770  0.1114
  533MOL0     H73525   8.187   7.309   5.738  1.0612 -0.0671 -0.1748
  533MOL0     H73526   8.266   7.566   5.749  1.9695  1.0327 -2.6683
  533MOL0     H73527   8.241   7.484   5.594  2.0162  1.2515 -0.1078
  533MOL0     H73528   8.021   7.665   5.731 -1.1433  0.8116 -1.2671
  533MOL0     H73529   8.006   7.579   5.579 -1.9855  0.2440  0.8219
  533MOL0     H73530   8.179   7.826   5.650  1.4741 -2.1844  1.5890
  533MOL0     H73531   8.055   7.806   5.530  0.1642 -0.3718 -1.4504
  533MOL0     H73532   8.324   7.668   5.507 -0.7758 -0.4215  1.4331
  533MOL0     H73533   8.281   7.814   5.422  1.0433  1.5460  0.7491
  533MOL0     H73534   8.313   6.974   5.906  0.8244 -0.1783 -0.2626
  533MOL0     H73535   8.336   6.740   5.921  0.1716  0.7320  1.8421
  533MOL0     H73536   8.038   6.356   6.048 -0.2147  0.7458  1.3479
  533MOL0     H73537   8.075   6.164   6.191  0.1053 -0.8899 -0.7220
  533MOL0     H73538   8.313   6.911   5.225 -0.6999  1.0662 -0.6831
  533MOL0     H73539   8.397   7.119   5.319 -0.9522 -1.0782 -0.7367
  533MOL0     H73540   8.489   7.400   5.444 -0.2364 -0.1090  0.0577
  533MOL0     H73541   8.555   7.635   5.461 -1.3238  0.4564 -0.5230
  533MOL0     H73542   8.634   7.803   5.869  3.1591  1.0478 -0.2759
  533MOL0     H73543   8.773   7.833   5.771  1.0909 -1.2599 -1.1146
  533MOL0     H73544   8.513   8.006   5.781 -0.9004 -3.5603  0.5026
  533MOL0     H73545   8.624   8.006   5.642 -0.4134  2.9235 -0.4975
  533MOL0     H73546   8.819   8.065   5.795  1.1735  1.6714  0.2187
  533MOL0     H73547   8.688   8.178   5.793 -4.6248 -0.6775  0.6536
  533MOL0     H73548   8.706   7.980   6.018  2.0572 -1.3885 -3.8496
  533MOL0     H73549   8.596   8.116   6.010 -0.2553 -1.3389 -1.5489
  533MOL0     H73550   8.942   8.322   6.142  0.0384  0.4246  1.1319
  533MOL0     H73551   8.609   7.584   5.892  0.5664 -3.2303  0.3328
  533MOL0     H73552   8.579   7.393   5.996 -1.6816  0.1664  0.1726
  533MOL0     H73553   8.477   7.268   5.940  1.4481 -2.9651  0.0716
  533MOL0     H73554   8.650   7.258   5.906  1.5993  2.7398  1.4023
  534MOL0     O73555   1.209   5.284   6.149  0.0800 -0.3962  0.1789
  534MOL0     C73556   1.224   5.404   6.114 -0.2125  0.1705 -0.1242
  534MOL0     O73557   1.206   5.520   6.189 -0.3204  0.1445  0.1087
  534MOL0     C73558   1.154   5.528   6.318  0.1532 -0.5095 -0.1313
  534MOL0     C73559   1.078   5.638   6.357 -0.1646 -0.2969  0.8056
  534MOL0     C73560   1.024   5.645   6.487  0.1786 -0.3950  0.3576
  534MOL0     C73561   1.042   5.546   6.583 -0.2826 -0.0928 -0.2687
  534MOL0     O73562   0.994   5.576   6.701 -0.6535  0.3806 -0.3662
  534MOL0     C73563   1.052   5.509   6.818  0.0738 -0.2982 -0.0256
  534MOL0     C73564   0.984   5.537   6.951 -0.0547 -0.0375  0.1640
  534MOL0     C73565   0.839   5.514   6.945  0.4125  0.1916  0.4774
  534MOL0     C73566   0.786   5.567   7.078 -0.1988 -0.0853  0.1326
  534MOL0     C73567   0.636   5.541   7.092 -0.5679  0.4576  0.2876
  534MOL0     C73568   0.601   5.389   7.105  0.4503  0.4121  0.1292
  534MOL0     C73569   0.449   5.376   7.104 -1.0675 -1.0391 -0.7311
  534MOL0     C73570   0.386   5.244   7.151 -0.8478  0.7191 -1.2214
  534MOL0     N73571   0.433   5.207   7.286  0.3747  0.2618 -0.0085
  534MOL0     C73572   0.499   5.086   7.308  0.3857  0.7618  0.8301
  534MOL0     C73573   0.510   5.074   7.438 -0.9388 -0.4897 -0.1961
  534MOL0     C73574   0.590   4.973   7.492 -0.4965 -0.3917 -0.2708
  534MOL0     C73575   0.525   4.841   7.491 -0.3167  0.6431  0.3157
  534MOL0     C73576   0.593   4.743   7.596 -0.1636 -0.3571  0.0509
  534MOL0     C73577   0.715   4.670   7.541 -0.3706 -0.3223  0.1540
  534MOL0     O73578   0.799   4.599   7.637  0.2026  0.1541  0.1625
  534MOL0     C73579   0.738   4.485   7.689 -0.3584  1.0586  1.0540
  534MOL0     C73580   0.789   4.443   7.811  0.4027 -0.2484 -1.0158
  534MOL0     C73581   0.751   4.326   7.879 -1.1042  0.3402  0.6115
  534MOL0     C73582   0.823   4.301   8.016  0.0677 -0.3107 -0.0689
  534MOL0     C73583   0.677   4.227   7.807  0.8614  0.2873 -0.3463
  534MOL0     C73584   0.646   4.091   7.854 -1.1557  0.9645  0.0007
  534MOL0     O73585   0.573   4.007   7.771  0.0292 -0.0236 -0.1825
  534MOL0     C73586   0.550   3.872   7.789  0.3286 -1.0227 -0.3530
  534MOL0     C73587   0.505   3.803   7.673 -0.2127 -0.2643 -0.7646
  534MOL0     C73588   0.485   3.662   7.665  0.3118 -0.2238  0.4079
  534MOL0     C73589   0.499   3.591   7.787 -0.1539  0.2764 -0.3028
  534MOL0     O73590   0.461   3.456   7.772 -0.3152  0.3574 -0.4497
  534MOL0     C73591   0.430   3.388   7.893  0.5408 -0.3470  0.4401
  534MOL0     C73592   0.361   3.264   7.857 -0.3101  0.4435 -0.8833
  534MOL0     C73593   0.466   3.142   7.849  0.4577 -0.2852 -1.1490
  534MOL0     C73594   0.395   3.020   7.857  0.2740  0.6435  0.1510
  534MOL0     C73595   0.477   2.895   7.836  1.1668 -0.3917 -0.3935
  534MOL0     C73596   0.468   2.853   7.693 -0.4709  0.4301  0.7281
  534MOL0     C73597   0.531   2.718   7.649 -0.7221 -0.5877 -0.3660
  534MOL0     C73598   0.682   2.736   7.618  0.1922  0.0717  0.4652
  534MOL0    Cl73599   0.714   2.644   7.476  0.1364 -0.1914 -0.3555
  534MOL0     C73600   0.540   3.654   7.908 -0.9023 -0.1928 -0.2892
  534MOL0     C73601   0.565   3.793   7.912 -0.6586  1.1633 -0.5728
  534MOL0     O73602   0.680   4.058   7.967  0.4794  0.4720 -0.4347
  534MOL0     C73603   0.622   4.273   7.680  0.1105  0.7725 -0.0475
  534MOL0     C73604   0.655   4.392   7.618 -0.0191 -0.1536 -0.0781
  534MOL0     N73605   0.457   5.184   7.503 -0.8783 -0.0955  0.2707
  534MOL0     N73606   0.415   5.266   7.410  0.4434 -0.0856 -0.7451
  534MOL0     C73607   1.139   5.447   6.556 -0.5055  0.0126 -0.2876
  534MOL0     C73608   1.190   5.436   6.423 -0.5662 -0.1611  0.3686
  534MOL0     C73609   1.287   5.418   5.979 -1.1528 -0.2599 -0.4049
  534MOL0     C73610   1.289   5.546   5.934 -1.6537  0.0317  0.1156
  534MOL0     C73611   1.338   5.581   5.799  0.1853 -0.4256  0.5995
  534MOL0     C73612   1.397   5.486   5.717 -0.3931  0.2182  0.2663
  534MOL0     O73613   1.435   5.531   5.593 -0.4957 -0.6648  0.4235
  534MOL0     C73614   1.552   5.475   5.527  0.2402 -0.2214 -0.2012
  534MOL0     C73615   1.631   5.585   5.451 -0.0837  0.4956  0.1072
  534MOL0     C73616   1.558   5.677   5.361 -0.2473 -0.0812 -0.4898
  534MOL0     C73617   1.495   5.604   5.239 -0.8667  0.1084 -0.4179
  534MOL0     C73618   1.603   5.553   5.154 -0.3958  0.7317 -0.2662
  534MOL0     C73619   1.683   5.509   5.072  0.0181  0.0649  0.0861
  534MOL0     C73620   1.410   5.359   5.775 -0.2209 -0.6286  0.0953
  534MOL0     C73621   1.364   5.326   5.904  0.6581  0.2269 -0.6567
  534MOL0     C73622   1.387   5.185   5.961 -0.6228  0.7755 -0.3147
  534MOL0     H73623   1.063   5.714   6.281  1.9481  1.0032  1.5913
  534MOL0     H73624   0.964   5.735   6.497  2.7341  1.5719 -0.7778
  534MOL0     H73625   1.161   5.510   6.823  0.1085 -2.6003  0.9513
  534MOL0     H73626   1.040   5.400   6.814 -1.2815 -0.1478 -0.7823
  534MOL0     H73627   1.031   5.467   7.021 -0.5689 -0.4361  0.1164
  534MOL0     H73628   1.006   5.642   6.975  1.5541  0.4822 -2.9959
  534MOL0     H73629   0.801   5.583   6.869 -1.2493 -1.2141 -0.0412
  534MOL0     H73630   0.807   5.412   6.924  1.8305 -1.5169  5.2687
  534MOL0     H73631   0.832   5.507   7.158 -1.5270  1.5106  2.1968
  534MOL0     H73632   0.817   5.671   7.086  1.2058 -0.2865 -1.9328
  534MOL0     H73633   0.581   5.579   7.005 -2.6104 -0.2414  1.2108
  534MOL0     H73634   0.601   5.588   7.184 -0.7974  1.6309 -0.3844
  534MOL0     H73635   0.660   5.327   7.038  0.2804  1.2092 -0.7734
  534MOL0     H73636   0.646   5.369   7.203 -3.4762 -1.2792  1.8253
  534MOL0     H73637   0.425   5.382   6.997  0.9083  2.1646 -1.0928
  534MOL0     H73638   0.412   5.466   7.153 -3.5364 -2.0856 -0.5193
  534MOL0     H73639   0.277   5.252   7.157 -0.8949 -0.6757  1.0044
  534MOL0     H73640   0.405   5.173   7.071 -1.6043 -0.4068 -0.4232
  534MOL0     H73641   0.529   5.022   7.226  2.8514  2.8480 -0.0138
  534MOL0     H73642   0.607   4.996   7.598 -0.7394 -0.0741 -0.3019
  534MOL0     H73643   0.688   4.976   7.444 -0.7244  1.2608 -0.6879
  534MOL0     H73644   0.421   4.852   7.521 -0.3005  0.4680  0.4382
  534MOL0     H73645   0.536   4.790   7.394  0.5771  0.0977  0.6846
  534MOL0     H73646   0.617   4.805   7.683  1.6157  0.1847 -0.7845
  534MOL0     H73647   0.519   4.667   7.624 -0.3035  0.4855  2.1099
  534MOL0     H73648   0.680   4.601   7.464  1.9091  2.4372 -3.6516
  534MOL0     H73649   0.775   4.738   7.481 -0.3042  3.3937  3.9725
  534MOL0     H73650   0.858   4.505   7.867 -1.6861  0.5773  0.7740
  534MOL0     H73651   0.889   4.215   8.026  0.5267  0.2265  2.2681
  534MOL0     H73652   0.751   4.306   8.099 -0.8411  4.1231 -0.8356
  534MOL0     H73653   0.887   4.389   8.031  0.2828 -0.4613 -0.1127
  534MOL0     H73654   0.504   3.856   7.578  0.4953  1.2432  0.0360
  534MOL0     H73655   0.451   3.606   7.579  0.3431  0.2319  0.0988
  534MOL0     H73656   0.516   3.374   7.960 -0.6048 -1.4079  1.7327
  534MOL0     H73657   0.357   3.450   7.945 -1.6216 -2.8464  0.5603
  534MOL0     H73658   0.288   3.240   7.934  2.3645 -1.4304  1.2889
  534MOL0     H73659   0.322   3.277   7.755 -0.0980  0.9498 -0.9020
  534MOL0     H73660   0.531   3.148   7.937  1.0073 -1.2869 -1.4699
  534MOL0     H73661   0.523   3.149   7.756  1.7731 -0.6503 -0.3971
  534MOL0     H73662   0.323   3.034   7.776 -1.4504  0.3963  1.5660
  534MOL0     H73663   0.340   3.013   7.952 -0.6400  0.6865 -0.3577
  534MOL0     H73664   0.578   2.927   7.860  1.2758 -1.4773  0.7722
  534MOL0     H73665   0.441   2.819   7.907  0.8041 -0.3702 -0.5531
  534MOL0     H73666   0.516   2.928   7.630  1.1908 -0.3314  1.0227
  534MOL0     H73667   0.363   2.853   7.664 -0.1466 -1.0048 -0.5860
  534MOL0     H73668   0.475   2.692   7.559 -0.6401 -0.7616 -0.3682
  534MOL0     H73669   0.506   2.635   7.715 -6.7106  0.7565 -0.4279
  534MOL0     H73670   0.741   2.691   7.698  0.0327  0.4106  0.7770
  534MOL0     H73671   0.701   2.843   7.604  0.3929  0.1667  1.4092
  534MOL0     H73672   0.546   3.594   7.998 -2.7522 -0.1912 -0.1162
  534MOL0     H73673   0.583   3.850   8.003 -2.0710  1.4194 -0.4242
  534MOL0     H73674   0.557   4.210   7.619  3.9368 -0.4181 -3.3110
  534MOL0     H73675   0.620   4.412   7.518  1.2875  3.6468  0.0686
  534MOL0     H73676   1.176   5.380   6.633 -0.7874 -2.6480 -2.2931
  534MOL0     H73677   1.266   5.367   6.387  0.5282  1.3293 -0.2725
  534MOL0     H73678   1.252   5.627   5.996 -0.2034  2.3745 -1.8844
  534MOL0     H73679   1.339   5.684   5.764  0.1350 -1.2562 -2.0336
  534MOL0     H73680   1.617   5.435   5.606 -1.8157 -1.3041  1.0357
  534MOL0     H73681   1.508   5.401   5.460 -3.1392  3.4499 -2.5148
  534MOL0     H73682   1.716   5.546   5.396 -1.9094 -0.0353 -2.5046
  534MOL0     H73683   1.668   5.639   5.539 -3.0800  1.1159  1.1064
  534MOL0     H73684   1.470   5.725   5.406  0.1292  2.3553 -2.1236
  534MOL0     H73685   1.614   5.765   5.327  1.5245 -1.4204 -1.1909
  534MOL0     H73686   1.437   5.679   5.184  2.9159  2.4836 -1.5364
  534MOL0     H73687   1.432   5.526   5.284 -0.8164  1.5756  2.4902
  534MOL0     H73688   1.746   5.466   4.997 -0.2208  1.8353 -1.1933
  534MOL0     H73689   1.455   5.289   5.705  0.3301  1.8385 -2.2210
  534MOL0     H73690   1.406   5.174   6.068 -0.2448  0.3720 -0.4228
  534MOL0     H73691   1.296   5.129   5.939 -2.3208  4.2211 -3.2099
  534MOL0     H73692   1.463   5.129   5.907 -0.1997 -1.1031  2.0323
  535MOL0     O73693   3.101   9.168   1.403  0.2148 -0.0709  0.0846
  535MOL0     C73694   3.036   9.175   1.298 -0.0711  0.7338 -0.5782
  535MOL0     O73695   3.051   9.263   1.203  0.1097 -0.8804 -0.1671
  535MOL0     C73696   3.165   9.333   1.184  0.2045  0.4776 -0.7248
  535MOL0     C73697   3.294   9.321   1.241 -0.3585 -0.0522  0.3419
  535MOL0     C73698   3.402   9.373   1.180 -1.1129 -0.1442  0.0690
  535MOL0     C73699   3.388   9.463   1.079 -0.4182  0.4744  0.6453
  535MOL0     O73700   3.492   9.526   1.024  0.3908  0.5140 -0.0002
  535MOL0     C73701   3.492   9.664   1.055 -0.3831 -0.9545 -0.2559
  535MOL0     C73702   3.623   9.722   0.997 -0.8641 -0.1998  0.5250
  535MOL0     C73703   3.636   9.879   1.019  0.7880  0.1480 -0.6156
  535MOL0     C73704   3.529   9.958   0.938  0.1686  1.4391  0.2840
  535MOL0     C73705   3.536  10.111   0.948 -0.0362 -0.6584  0.5445
  535MOL0     C73706   3.450  10.172   0.837 -0.2981  0.2757 -0.4023
  535MOL0     C73707   3.391  10.312   0.873  0.5219 -0.8688 -0.0377
  535MOL0     C73708   3.263  10.346   0.781 -0.6487 -0.3328 -0.5347
  535MOL0     N73709   3.144  10.290   0.842  0.7650 -0.2080  1.1042
  535MOL0     C73710   3.064  10.356   0.930  0.3391 -0.2467  0.0874
  535MOL0     C73711   2.984  10.262   0.981  0.6288  0.0640 -0.3244
  535MOL0     C73712   2.882  10.296   1.091  0.3231  0.0042 -0.3404
  535MOL0     C73713   2.775  10.191   1.106 -0.0778  0.4824 -0.3188
  535MOL0     C73714   2.672  10.206   1.226 -0.3823  0.0456  0.6154
  535MOL0     C73715   2.753  10.258   1.351  0.1392  0.3052 -0.2200
  535MOL0     O73716   2.857  10.157   1.378  1.4544 -0.7567 -0.3321
  535MOL0     C73717   2.867  10.082   1.491 -0.3364  0.8341 -0.1499
  535MOL0     C73718   2.989  10.049   1.544 -0.2998 -0.3434 -0.0603
  535MOL0     C73719   2.998   9.964   1.656 -0.0809 -0.4340 -0.4032
  535MOL0     C73720   3.137   9.932   1.707 -0.5126 -0.0648  0.3116
  535MOL0     C73721   2.886   9.915   1.721  0.9846  0.7218 -0.2263
  535MOL0     C73722   2.888   9.816   1.840 -0.2894 -0.8293 -0.4764
  535MOL0     O73723   2.968   9.851   1.943 -0.0380  0.3446  0.4810
  535MOL0     C73724   3.003   9.751   2.033  0.4135 -0.7044  0.9955
  535MOL0     C73725   3.041   9.791   2.160 -0.0384  0.5999 -0.2540
  535MOL0     C73726   3.072   9.686   2.261  1.8703 -0.9566  0.4555
  535MOL0     C73727   3.074   9.555   2.224  0.0882 -0.1237 -0.3748
  535MOL0     O73728   3.093   9.470   2.331 -0.2778 -0.6952 -0.3216
  535MOL0     C73729   3.116   9.328   2.304 -0.0443  0.0828 -0.2374
  535MOL0     C73730   3.139   9.240   2.422 -0.7969  0.7505 -0.7366
  535MOL0     C73731   3.151   9.088   2.369  0.3532 -1.1525 -0.3737
  535MOL0     C73732   3.270   9.004   2.431 -0.0799 -1.2369 -0.6181
  535MOL0     C73733   3.267   9.019   2.586  0.1782  0.1320 -0.2412
  535MOL0     C73734   3.405   8.991   2.645  0.9582 -0.0092  0.7503
  535MOL0     C73735   3.391   8.994   2.799  0.3787 -0.4970 -0.2037
  535MOL0     C73736   3.515   8.929   2.868 -0.7164 -0.5684  0.3246
  535MOL0    Cl73737   3.483   8.942   3.043  0.0397 -0.2372  0.0271
  535MOL0     C73738   3.053   9.519   2.097  0.6309 -0.8731  0.8310
  535MOL0     C73739   3.008   9.615   2.000 -0.6775  0.6810  0.3128
  535MOL0     O73740   2.807   9.726   1.840  0.2096 -0.8278  0.1097
  535MOL0     C73741   2.769   9.943   1.657  1.1053  0.2209  0.8438
  535MOL0     C73742   2.755  10.025   1.544  0.0550 -0.5266  0.2390
  535MOL0     N73743   3.016  10.139   0.920 -0.7083 -0.2136  0.3706
  535MOL0     N73744   3.112  10.156   0.838 -0.0167  0.2405  0.8871
  535MOL0     C73745   3.270   9.485   1.020  2.0246 -0.0393 -0.2648
  535MOL0     C73746   3.154   9.417   1.081  0.4566  0.7178 -0.3032
  535MOL0     C73747   2.935   9.059   1.284 -0.5531  0.1811  0.3042
  535MOL0     C73748   2.849   9.067   1.169 -0.7345 -0.2935  0.5958
  535MOL0     C73749   2.756   8.965   1.134  0.3155  0.8594 -0.0526
  535MOL0     C73750   2.725   8.861   1.221  0.1859 -0.3878 -0.0808
  535MOL0     O73751   2.626   8.771   1.182  0.4270 -0.0853 -0.3351
  535MOL0     C73752   2.588   8.654   1.259 -0.1081 -0.3261  0.5886
  535MOL0     C73753   2.496   8.686   1.377  0.1299 -0.0520  0.3734
  535MOL0     C73754   2.349   8.674   1.338 -0.2001  0.1163 -0.1450
  535MOL0     C73755   2.250   8.698   1.459  0.2898  0.3183  0.5661
  535MOL0     C73756   2.136   8.617   1.446 -0.4047 -0.0070  0.7013
  535MOL0     C73757   2.031   8.559   1.426  0.2366  0.3669  0.0812
  535MOL0     C73758   2.808   8.848   1.335  0.5195  0.0664 -0.2758
  535MOL0     C73759   2.914   8.939   1.370  0.2309 -0.4217 -0.8119
  535MOL0     C73760   2.990   8.922   1.498  0.3569  0.1600  0.5782
  535MOL0     H73761   3.300   9.254   1.327  1.0916 -0.4617 -0.0547
  535MOL0     H73762   3.504   9.367   1.217 -0.9736  2.4412  0.2809
  535MOL0     H73763   3.493   9.687   1.162 -0.4452 -0.1096 -0.4284
  535MOL0     H73764   3.411   9.724   1.013  1.0822  1.5109  0.2293
  535MOL0     H73765   3.713   9.674   1.037 -1.3229  1.3921  3.8178
  535MOL0     H73766   3.625   9.707   0.889 -0.5538  4.3080 -0.2872
  535MOL0     H73767   3.628   9.901   1.126 -2.7017 -1.8406 -0.3200
  535MOL0     H73768   3.736   9.911   0.990  1.9410 -0.1955  2.5729
  535MOL0     H73769   3.527   9.914   0.838 -0.4168 -0.6731  1.1504
  535MOL0     H73770   3.427   9.935   0.971  0.1795 -0.3091 -0.7552
  535MOL0     H73771   3.635  10.155   0.942 -1.1667  1.9245 -0.3454
  535MOL0     H73772   3.499  10.145   1.045  0.1582  1.8283 -0.1915
  535MOL0     H73773   3.503  10.178   0.741  1.1370 -1.0479  0.2817
  535MOL0     H73774   3.363  10.107   0.825  0.7203 -0.9873 -1.1521
  535MOL0     H73775   3.457  10.398   0.861 -2.3199  1.3821 -0.8609
  535MOL0     H73776   3.360  10.320   0.978 -0.0373  1.1024 -0.2987
  535MOL0     H73777   3.243  10.454   0.777 -1.7586 -0.4256  1.4046
  535MOL0     H73778   3.270  10.315   0.676  0.1346 -0.9638 -0.3038
  535MOL0     H73779   3.055  10.464   0.938 -0.7803 -0.2675 -0.6626
  535MOL0     H73780   2.833  10.391   1.067 -2.5488 -1.9098 -2.8656
  535MOL0     H73781   2.942  10.313   1.180  0.4743 -1.5630 -0.1154
  535MOL0     H73782   2.711  10.181   1.019 -3.2801  1.1307  1.7773
  535MOL0     H73783   2.837  10.101   1.119 -0.5541 -0.0907 -1.8699
  535MOL0     H73784   2.589  10.273   1.201  0.3303  0.4732 -0.6777
  535MOL0     H73785   2.632  10.107   1.251 -1.6178  0.9443  2.3847
  535MOL0     H73786   2.797  10.357   1.340 -0.1802  0.2833 -1.8947
  535MOL0     H73787   2.682  10.257   1.434 -0.4481 -0.4563 -0.7192
  535MOL0     H73788   3.079  10.089   1.500 -0.6078 -0.0489 -0.4317
  535MOL0     H73789   3.154   9.996   1.794  2.1824  2.6083 -1.9093
  535MOL0     H73790   3.220   9.949   1.637  1.1721 -1.7692  1.7636
  535MOL0     H73791   3.133   9.827   1.735  0.4012  0.1771  1.4161
  535MOL0     H73792   3.045   9.895   2.190  0.3059 -0.2956  3.3866
  535MOL0     H73793   3.096   9.715   2.363 -1.7144 -2.4837  1.8896
  535MOL0     H73794   3.026   9.290   2.255 -0.7685  2.1426 -0.5971
  535MOL0     H73795   3.201   9.325   2.235 -0.0674  0.2433 -0.2726
  535MOL0     H73796   3.234   9.278   2.462 -0.6649 -0.0111 -0.3094
  535MOL0     H73797   3.076   9.253   2.510  1.0307 -0.0067  0.7691
  535MOL0     H73798   3.171   9.090   2.261  0.8352 -4.0929 -0.3950
  535MOL0     H73799   3.059   9.034   2.391  0.0306 -1.8637 -3.1703
  535MOL0     H73800   3.367   9.045   2.404 -0.2184  0.2144  0.9735
  535MOL0     H73801   3.263   8.901   2.395 -2.6354 -1.9779  1.6783
  535MOL0     H73802   3.224   9.112   2.623  1.3300  1.9231 -3.0169
  535MOL0     H73803   3.202   8.938   2.619  0.0425  0.2696 -0.1688
  535MOL0     H73804   3.475   9.071   2.620  2.6799 -1.5900  0.2947
  535MOL0     H73805   3.439   8.892   2.615 -1.3773 -0.4145 -0.8571
  535MOL0     H73806   3.294   8.948   2.822 -0.0305  1.8165  3.4525
  535MOL0     H73807   3.375   9.096   2.835  2.5234  0.0992 -0.8135
  535MOL0     H73808   3.606   8.981   2.837 -1.5661  0.5038 -0.4310
  535MOL0     H73809   3.530   8.823   2.845  5.3444 -0.3050  1.3933
  535MOL0     H73810   3.056   9.414   2.068  1.4716 -0.1852 -1.9245
  535MOL0     H73811   2.983   9.573   1.903 -3.0521  0.6241  0.9063
  535MOL0     H73812   2.678   9.913   1.708  1.5626 -1.3263  0.7974
  535MOL0     H73813   2.659  10.022   1.495 -0.0136 -0.8239  0.3910
  535MOL0     H73814   3.238   9.557   0.945 -0.7764  0.0006  0.8493
  535MOL0     H73815   3.062   9.428   1.025  0.8743 -0.2926 -1.2414
  535MOL0     H73816   2.869   9.133   1.085 -1.7275 -1.2645 -0.4347
  535MOL0     H73817   2.701   8.968   1.040  0.5568  1.0476 -0.1888
  535MOL0     H73818   2.528   8.584   1.200 -1.2878 -0.8780  2.3677
  535MOL0     H73819   2.679   8.609   1.300 -1.3131 -2.3036  1.2089
  535MOL0     H73820   2.518   8.782   1.425  0.7865 -0.1522  0.2899
  535MOL0     H73821   2.519   8.605   1.447 -2.2002 -2.0424 -1.0355
  535MOL0     H73822   2.319   8.756   1.271  2.3684  2.4423  1.3556
  535MOL0     H73823   2.331   8.579   1.287  2.5604 -1.3690  1.4571
  535MOL0     H73824   2.233   8.805   1.477  0.0705  0.6016 -1.1130
  535MOL0     H73825   2.306   8.650   1.539  3.4482 -0.4923 -1.9119
  535MOL0     H73826   1.931   8.525   1.405 -0.1588  2.0944 -1.1804
  535MOL0     H73827   2.790   8.769   1.408 -1.5514 -1.6226 -2.4488
  535MOL0     H73828   2.930   8.866   1.571  0.6480  0.5256  1.1060
  535MOL0     H73829   3.088   8.877   1.480 -0.0312 -0.6464  0.4617
  535MOL0     H73830   3.005   9.016   1.552 -3.3800  1.9394 -1.0509
  536MOL0     O73831   6.229   2.900   2.284 -0.9047  0.5641 -0.5972
  536MOL0     C73832   6.124   2.884   2.221  1.5305 -0.6801  0.4215
  536MOL0     O73833   6.009   2.974   2.217  0.1748 -0.5328  0.0512
  536MOL0     C73834   5.999   3.047   2.334 -0.0029  0.2588 -0.6571
  536MOL0     C73835   5.994   3.189   2.328 -0.5092 -0.4759 -0.6006
  536MOL0     C73836   5.977   3.268   2.444  0.0214  0.3963 -0.2063
  536MOL0     C73837   5.977   3.201   2.568  0.1315 -0.3164 -0.5535
  536MOL0     O73838   5.945   3.274   2.683  0.2047 -0.5725  0.9988
  536MOL0     C73839   6.051   3.355   2.736 -0.9685 -0.6086  0.0577
  536MOL0     C73840   6.003   3.419   2.865 -0.4753 -0.2284  0.4590
  536MOL0     C73841   6.087   3.544   2.898 -0.2102  0.3439  0.1979
  536MOL0     C73842   6.049   3.596   3.049  0.5162 -0.8671 -0.2400
  536MOL0     C73843   6.138   3.533   3.157  1.2536  0.2029  0.8624
  536MOL0     C73844   6.054   3.477   3.270  0.0699 -0.2214  0.1769
  536MOL0     C73845   5.969   3.586   3.341  0.0473  0.2180  0.5299
  536MOL0     C73846   5.931   3.546   3.484  0.5670  0.9010  0.2333
  536MOL0     N73847   6.034   3.582   3.588 -0.0587 -0.3008 -0.1401
  536MOL0     C73848   6.009   3.664   3.692  0.0571  0.3718 -0.4705
  536MOL0     C73849   6.128   3.671   3.764 -0.5172  0.1010 -0.1487
  536MOL0     C73850   6.153   3.748   3.893 -0.0806 -1.3368 -0.4729
  536MOL0     C73851   6.065   3.691   4.010  0.0458  0.9002  0.7892
  536MOL0     C73852   6.022   3.794   4.106 -0.5992 -0.3956 -0.1964
  536MOL0     C73853   5.923   3.731   4.206  0.3610  0.1910 -1.1170
  536MOL0     O73854   5.782   3.716   4.157 -0.6336  0.4732 -0.0005
  536MOL0     C73855   5.726   3.591   4.167 -0.9237 -0.2620 -0.5076
  536MOL0     C73856   5.607   3.580   4.100  0.1156 -0.3429  0.8806
  536MOL0     C73857   5.530   3.460   4.097  0.0142  0.4355 -0.8671
  536MOL0     C73858   5.406   3.462   4.019 -0.1631 -0.5702  0.5209
  536MOL0     C73859   5.588   3.345   4.144  0.0173 -0.9117 -0.1973
  536MOL0     C73860   5.520   3.209   4.140  0.8938  0.3203  0.4436
  536MOL0     O73861   5.589   3.106   4.201  0.4370 -0.3123  0.3296
  536MOL0     C73862   5.530   2.987   4.189 -0.3441  0.6383 -0.4436
  536MOL0     C73863   5.493   2.914   4.302  0.0645 -1.0409  0.2117
  536MOL0     C73864   5.438   2.782   4.290  0.0971 -0.3204 -0.9396
  536MOL0     C73865   5.429   2.713   4.168 -0.4969  0.0784  0.0452
  536MOL0     O73866   5.387   2.582   4.143  1.2483 -0.5691  0.2807
  536MOL0     C73867   5.276   2.536   4.221  0.1343 -0.1817  0.4595
  536MOL0     C73868   5.308   2.458   4.350 -0.6121  0.1092 -0.2964
  536MOL0     C73869   5.207   2.444   4.455 -0.1167 -0.0473 -0.7223
  536MOL0     C73870   5.178   2.570   4.531  0.2053 -0.0987  0.6899
  536MOL0     C73871   5.230   2.563   4.670  0.4067 -0.3333  0.6572
  536MOL0     C73872   5.379   2.612   4.694 -0.7722 -0.6641  0.1000
  536MOL0     C73873   5.417   2.637   4.842 -0.9115  0.5085 -0.6254
  536MOL0     C73874   5.566   2.613   4.875 -0.1012  0.0663 -0.1510
  536MOL0    Cl73875   5.636   2.447   4.886 -0.1844 -0.1727 -0.0290
  536MOL0     C73876   5.475   2.788   4.055 -0.0969  0.0741 -0.2868
  536MOL0     C73877   5.509   2.924   4.068  0.0892  0.1441  0.3100
  536MOL0     O73878   5.422   3.199   4.072  0.1504  0.0778  0.3332
  536MOL0     C73879   5.720   3.353   4.209  0.2865 -0.2639  0.4359
  536MOL0     C73880   5.780   3.479   4.222 -0.2275  0.0612  0.1971
  536MOL0     N73881   6.218   3.600   3.686 -0.4384 -0.2233  0.3840
  536MOL0     N73882   6.166   3.553   3.583 -0.1478 -0.1743  0.5720
  536MOL0     C73883   5.991   3.064   2.585 -0.3421  0.1557  0.4233
  536MOL0     C73884   6.001   2.990   2.465 -0.5988 -0.7444 -0.2827
  536MOL0     C73885   6.115   2.770   2.119 -1.1892 -1.1759  1.0624
  536MOL0     C73886   6.053   2.800   1.996 -0.4062  0.0768 -0.4021
  536MOL0     C73887   6.044   2.709   1.898 -0.5614  0.3157 -0.4406
  536MOL0     C73888   6.079   2.575   1.924  0.1754 -0.5086  0.0245
  536MOL0     O73889   6.086   2.489   1.820 -0.8406  1.4808 -0.3871
  536MOL0     C73890   6.117   2.348   1.846 -0.9535 -0.5887  0.3969
  536MOL0     C73891   6.001   2.285   1.917 -0.3002 -0.2459  0.2552
  536MOL0     C73892   6.007   2.128   1.918 -0.3342 -0.9772 -0.9969
  536MOL0     C73893   6.109   2.081   2.020  0.5377  0.7137 -0.9924
  536MOL0     C73894   6.063   2.105   2.159  0.0101  0.0066 -0.1000
  536MOL0     C73895   6.022   2.140   2.267 -0.3766  0.3804  1.0507
  536MOL0     C73896   6.117   2.540   2.054 -0.4042  0.1875 -0.6351
  536MOL0     C73897   6.152   2.632   2.145  0.1323 -0.2384 -0.4298
  536MOL0     C73898   6.222   2.586   2.271 -0.3105 -0.1568  1.1103
  536MOL0     H73899   5.989   3.228   2.227  1.0458  0.0450 -0.4982
  536MOL0     H73900   5.959   3.373   2.423  0.3722  0.1921 -1.6010
  536MOL0     H73901   6.074   3.429   2.660  2.0416 -0.8941  0.5597
  536MOL0     H73902   6.147   3.306   2.757  0.2189  2.1452  1.4878
  536MOL0     H73903   5.899   3.450   2.848  0.7441  3.3466 -1.5836
  536MOL0     H73904   6.006   3.345   2.945 -0.7650 -0.0807  0.6077
  536MOL0     H73905   6.190   3.507   2.895 -0.7912 -1.3230 -2.3640
  536MOL0     H73906   6.079   3.623   2.823  0.4570  0.2078 -0.0243
  536MOL0     H73907   6.058   3.704   3.063 -0.4979 -0.9924  1.7070
  536MOL0     H73908   5.944   3.566   3.056  0.8616 -1.9260  0.8188
  536MOL0     H73909   6.210   3.609   3.188 -0.6103  1.5727  2.1317
  536MOL0     H73910   6.192   3.454   3.106  1.4566  0.5376  0.5550
  536MOL0     H73911   5.988   3.395   3.239  0.3908  0.4548 -2.5213
  536MOL0     H73912   6.130   3.443   3.340 -2.7327  2.8677  5.3229
  536MOL0     H73913   5.875   3.604   3.287 -0.1999  1.5827  1.3653
  536MOL0     H73914   6.034   3.674   3.343 -1.0624  1.1639 -1.7565
  536MOL0     H73915   5.837   3.591   3.515 -0.0361 -0.3563  0.2739
  536MOL0     H73916   5.920   3.438   3.491  2.8023  0.7339  3.0278
  536MOL0     H73917   5.919   3.716   3.723 -1.3689 -2.1502 -0.1379
  536MOL0     H73918   6.138   3.855   3.874  0.5534 -1.0746  0.4112
  536MOL0     H73919   6.257   3.750   3.926 -0.8996  1.2654  2.4457
  536MOL0     H73920   5.976   3.646   3.966 -1.2897  1.8799  2.3526
  536MOL0     H73921   6.121   3.611   4.061 -0.5675 -0.0528  0.0097
  536MOL0     H73922   6.114   3.818   4.160  0.1411 -2.1833 -0.6151
  536MOL0     H73923   5.980   3.887   4.065  2.5310  1.1980 -0.1081
  536MOL0     H73924   5.978   3.646   4.246  0.3314 -0.5548 -2.5908
  536MOL0     H73925   5.918   3.803   4.288  2.2100 -0.0326 -0.7788
  536MOL0     H73926   5.554   3.667   4.063 -3.3575 -2.0873  1.3625
  536MOL0     H73927   5.370   3.563   3.994  2.6454 -0.1757 -2.6136
  536MOL0     H73928   5.331   3.406   4.076 -0.7313 -0.8235 -0.4536
  536MOL0     H73929   5.412   3.418   3.920  3.5068 -1.0201  0.7926
  536MOL0     H73930   5.506   2.962   4.398 -2.0768  0.3600 -0.1434
  536MOL0     H73931   5.413   2.719   4.374  0.0267  1.4093  0.4054
  536MOL0     H73932   5.193   2.604   4.244 -0.0734 -0.7975  1.5970
  536MOL0     H73933   5.224   2.467   4.153  2.2497 -1.0692 -0.3461
  536MOL0     H73934   5.336   2.355   4.328 -0.2697 -0.1498  1.2216
  536MOL0     H73935   5.393   2.501   4.404  2.2892 -3.4931 -1.6007
  536MOL0     H73936   5.228   2.361   4.522 -0.2746 -2.8066 -3.8481
  536MOL0     H73937   5.115   2.417   4.401  0.0106 -1.2673 -0.3538
  536MOL0     H73938   5.073   2.597   4.540  0.6485  2.5640 -0.7821
  536MOL0     H73939   5.222   2.659   4.484  0.2762 -1.0842 -1.2083
  536MOL0     H73940   5.158   2.624   4.726 -0.8872  0.9625 -2.2154
  536MOL0     H73941   5.218   2.462   4.710 -0.5045 -0.8436 -0.8230
  536MOL0     H73942   5.398   2.703   4.636  1.3159 -0.8593  0.4232
  536MOL0     H73943   5.440   2.536   4.645  3.4954  1.4571  1.6315
  536MOL0     H73944   5.350   2.583   4.910  1.7590 -3.0545 -0.5484
  536MOL0     H73945   5.401   2.742   4.869  2.2851  0.5248  1.7925
  536MOL0     H73946   5.582   2.659   4.973 -1.5788 -0.3989  0.3443
  536MOL0     H73947   5.626   2.667   4.802  1.3091  0.5178  1.2987
  536MOL0     H73948   5.485   2.736   3.961  1.0873  0.0242 -0.1476
  536MOL0     H73949   5.531   2.973   3.974 -0.0331  0.8259  0.6350
  536MOL0     H73950   5.768   3.263   4.248 -1.6692 -1.4236  0.2875
  536MOL0     H73951   5.882   3.476   4.259  0.9744  0.7749 -2.7462
  536MOL0     H73952   5.981   3.018   2.683  2.6496  0.7584  1.0993
  536MOL0     H73953   6.018   2.883   2.460 -2.6934 -1.0883 -0.9607
  536MOL0     H73954   6.024   2.900   1.966  1.4222  0.9835  0.6648
  536MOL0     H73955   6.020   2.751   1.801  2.0501  0.4669 -1.1157
  536MOL0     H73956   6.135   2.304   1.748 -0.2927  3.0210 -1.2441
  536MOL0     H73957   6.212   2.350   1.901 -0.8543 -0.6396  0.2274
  536MOL0     H73958   5.913   2.311   1.857  0.9224 -1.5611 -2.3138
  536MOL0     H73959   5.970   2.323   2.014 -0.7070 -1.9355  0.8197
  536MOL0     H73960   5.914   2.085   1.956  0.5792 -1.8477  0.3278
  536MOL0     H73961   6.038   2.094   1.818 -0.9117 -0.5520 -1.3275
  536MOL0     H73962   6.210   2.120   2.009  0.9993 -0.3755 -0.7572
  536MOL0     H73963   6.115   1.972   2.010 -1.7172  0.6412 -2.2834
  536MOL0     H73964   5.981   2.174   2.359 -1.3426 -0.6202  1.0145
  536MOL0     H73965   6.127   2.438   2.089 -1.1752  0.7137  1.1906
  536MOL0     H73966   6.199   2.487   2.310  2.1275 -1.7870 -1.1899
  536MOL0     H73967   6.330   2.592   2.253 -0.5639  0.4137 -0.3590
  536MOL0     H73968   6.192   2.660   2.346  3.1490  0.1730  2.3465
  537MOL0     O73969   5.215   2.658   0.856  0.7912 -0.1097 -0.7726
  537MOL0     C73970   5.332   2.692   0.867  0.4907 -0.2791  0.0571
  537MOL0     O73971   5.411   2.741   0.766 -0.1982 -0.9527 -0.5050
  537MOL0     C73972   5.353   2.779   0.653 -0.2903 -0.8890 -0.2282
  537MOL0     C73973   5.294   2.695   0.564 -0.6024 -0.1143 -0.8889
  537MOL0     C73974   5.249   2.741   0.439  0.0052  0.1700  0.2610
  537MOL0     C73975   5.263   2.873   0.399 -1.0693 -0.6810  0.0838
  537MOL0     O73976   5.225   2.928   0.280 -0.1044  0.2889  0.4956
  537MOL0     C73977   5.305   2.914   0.158  1.0214 -0.4775 -0.3760
  537MOL0     C73978   5.261   3.025   0.064  0.1548  0.8225 -0.3300
  537MOL0     C73979   5.313   3.160   0.098  0.2725 -0.0032 -0.2840
  537MOL0     C73980   5.284   3.265  -0.005  0.5517 -0.1221  0.8145
  537MOL0     C73981   5.322   3.405   0.034  1.0998  0.2749 -0.6505
  537MOL0     C73982   5.300   3.514  -0.071  0.6421 -0.3753  0.7360
  537MOL0     C73983   5.315   3.657  -0.021  0.9696  1.3249  0.9117
  537MOL0     C73984   5.340   3.742  -0.148 -0.0051 -0.5049  0.0659
  537MOL0     N73985   5.300   3.887  -0.123 -0.1419 -0.1899 -0.5156
  537MOL0     C73986   5.174   3.942  -0.141 -0.8244  0.0843 -0.3911
  537MOL0     C73987   5.188   4.070  -0.095  0.2796 -0.2118 -0.3013
  537MOL0     C73988   5.077   4.179  -0.085 -0.1891 -0.0050  0.2684
  537MOL0     C73989   5.077   4.266   0.036  0.1588  0.1845 -0.6414
  537MOL0     C73990   4.943   4.346   0.041 -0.3623 -0.3602 -0.1477
  537MOL0     C73991   4.934   4.423   0.172  0.7437 -0.1174  0.8144
  537MOL0     O73992   4.857   4.543   0.160  0.4114  0.6264  0.2924
  537MOL0     C73993   4.720   4.515   0.128 -0.8170  0.0576  0.0569
  537MOL0     C73994   4.651   4.623   0.066 -0.2893 -0.5065  0.3231
  537MOL0     C73995   4.515   4.613   0.039  0.8617 -0.5371 -0.0690
  537MOL0     C73996   4.453   4.735  -0.019 -0.3441 -0.1666 -0.0656
  537MOL0     C73997   4.440   4.505   0.081 -0.8345  0.4437  0.2049
  537MOL0     C73998   4.292   4.501   0.067  1.1325  0.6198  0.0847
  537MOL0     O73999   4.241   4.373   0.062  0.9445 -0.0091 -0.1414
  537MOL0     C74000   4.113   4.329   0.056 -0.6822 -0.8810 -0.1032
  537MOL0     C74001   4.020   4.391  -0.037  1.4886  0.5382  0.0664
  537MOL0     C74002   3.893   4.343  -0.042  0.0456  0.0848  0.8968
  537MOL0     C74003   3.845   4.239   0.040 -0.0071  0.1698 -0.2784
  537MOL0     O74004   3.717   4.215   0.056 -0.4006  0.2596  0.9396
  537MOL0     C74005   3.677   4.187   0.198 -0.3254 -1.0157  0.2833
  537MOL0     C74006   3.528   4.144   0.189  0.5496 -0.1893 -0.2007
  537MOL0     C74007   3.473   4.075   0.316  0.5276 -0.4434 -0.1216
  537MOL0     C74008   3.463   4.181   0.436  0.4775  0.4987  0.0323
  537MOL0     C74009   3.435   4.116   0.572  0.1307 -0.1235  0.1947
  537MOL0     C74010   3.287   4.087   0.599  0.0180 -0.4265  0.1300
  537MOL0     C74011   3.267   4.032   0.741 -0.8616 -0.0545  0.3266
  537MOL0     C74012   3.120   4.009   0.771 -0.8197  0.2098  0.4529
  537MOL0    Cl74013   3.065   3.876   0.667 -0.0793 -0.1178 -0.3860
  537MOL0     C74014   3.934   4.184   0.131  0.3215  0.1469 -0.1572
  537MOL0     C74015   4.066   4.233   0.135 -0.6332 -0.2615 -0.3954
  537MOL0     O74016   4.229   4.606   0.069 -0.3179 -0.2502  0.0239
  537MOL0     C74017   4.515   4.396   0.137  0.4154  0.2758  0.4953
  537MOL0     C74018   4.650   4.399   0.166 -0.3990  0.1857  0.0748
  537MOL0     N74019   5.316   4.085  -0.046  0.7181 -0.4972  0.0341
  537MOL0     N74020   5.378   3.975  -0.054  0.1504  0.3341  0.1349
  537MOL0     C74021   5.339   2.960   0.483 -0.0371  0.3906 -0.1002
  537MOL0     C74022   5.392   2.915   0.603 -0.0767  0.4137  0.1596
  537MOL0     C74023   5.407   2.658   0.992 -0.9336 -0.1547 -0.3320
  537MOL0     C74024   5.546   2.639   0.984  0.0684 -0.4286  0.3681
  537MOL0     C74025   5.631   2.619   1.094 -0.1915  0.2312 -0.7445
  537MOL0     C74026   5.576   2.574   1.211 -0.2593  0.0321  0.7702
  537MOL0     O74027   5.640   2.557   1.331  1.1372  0.8870  0.5552
  537MOL0     C74028   5.781   2.528   1.327 -0.0556  0.4674  0.3287
  537MOL0     C74029   5.833   2.486   1.465  0.3749  0.0277  0.1807
  537MOL0     C74030   5.781   2.559   1.596 -0.1421  0.2813  0.2849
  537MOL0     C74031   5.643   2.528   1.625 -0.4877 -0.4784 -0.0310
  537MOL0     C74032   5.615   2.492   1.768 -0.2444  0.1157  0.4727
  537MOL0     C74033   5.593   2.467   1.885  0.4582 -0.3530 -0.9306
  537MOL0     C74034   5.437   2.588   1.218 -0.4667 -0.0414  0.2923
  537MOL0     C74035   5.353   2.630   1.114  0.8283  0.6768  0.4198
  537MOL0     C74036   5.201   2.638   1.141 -0.4655 -0.1840 -0.4061
  537MOL0     H74037   5.281   2.593   0.597  1.8863 -0.1993  0.0463
  537MOL0     H74038   5.194   2.673   0.374  3.9207 -3.3388  0.2077
  537MOL0     H74039   5.276   2.820   0.108 -2.6528  0.9309 -1.2078
  537MOL0     H74040   5.412   2.914   0.179  0.4096  0.3571  3.4945
  537MOL0     H74041   5.304   2.994  -0.032 -1.9432 -1.2523 -0.6894
  537MOL0     H74042   5.153   3.018   0.055 -0.0457  1.1736  1.4592
  537MOL0     H74043   5.256   3.180   0.189 -1.2551  0.6599 -1.3667
  537MOL0     H74044   5.419   3.161   0.128 -0.5824 -1.0568  3.3246
  537MOL0     H74045   5.328   3.242  -0.103 -1.2976 -4.2058  0.7199
  537MOL0     H74046   5.178   3.269  -0.031  0.6172 -0.2682  0.5158
  537MOL0     H74047   5.424   3.408   0.074  0.8733  2.6070 -0.0958
  537MOL0     H74048   5.252   3.434   0.113  0.2083  1.2759 -1.7843
  537MOL0     H74049   5.374   3.494  -0.150 -0.0611  0.5865 -0.1837
  537MOL0     H74050   5.202   3.494  -0.115  1.0009 -0.4372 -0.0538
  537MOL0     H74051   5.404   3.676   0.040  0.1066  0.7794  2.4065
  537MOL0     H74052   5.232   3.692   0.041  1.7600  3.5064  0.8119
  537MOL0     H74053   5.442   3.722  -0.182  0.8877  2.9656  0.2621
  537MOL0     H74054   5.270   3.702  -0.222  0.9050  1.4531 -1.9803
  537MOL0     H74055   5.082   3.915  -0.191 -0.4029  0.4986 -1.4177
  537MOL0     H74056   4.980   4.129  -0.077 -2.0857  3.4116  0.4121
  537MOL0     H74057   5.087   4.250  -0.168  1.4680  1.5515  1.7172
  537MOL0     H74058   5.080   4.195   0.119 -0.0547  2.4354  1.4152
  537MOL0     H74059   5.161   4.333   0.053 -0.2904  0.1669  2.0893
  537MOL0     H74060   4.944   4.420  -0.039 -1.7171  1.5181  1.4653
  537MOL0     H74061   4.857   4.279   0.032 -0.6686  0.1579 -1.2527
  537MOL0     H74062   4.888   4.354   0.244  1.3284 -3.4395 -1.7375
  537MOL0     H74063   5.035   4.444   0.208  2.4019 -2.0227 -2.3048
  537MOL0     H74064   4.707   4.712   0.039  0.1579 -0.3537  1.6689
  537MOL0     H74065   4.374   4.718  -0.092  0.1121 -1.1892 -0.3415
  537MOL0     H74066   4.533   4.771  -0.085  0.5205 -0.7363  0.6391
  537MOL0     H74067   4.422   4.802   0.062 -3.2071 -2.0162  0.5235
  537MOL0     H74068   4.030   4.477  -0.103  0.2495  2.0197  1.7051
  537MOL0     H74069   3.829   4.393  -0.114  2.7361  0.5955 -1.3305
  537MOL0     H74070   3.731   4.105   0.246  2.6833  1.0547  0.7097
  537MOL0     H74071   3.688   4.279   0.256 -0.6231 -0.7626 -0.0568
  537MOL0     H74072   3.471   4.229   0.149  2.9631  1.3984 -0.5122
  537MOL0     H74073   3.529   4.073   0.106  2.5211  1.0912 -1.3765
  537MOL0     H74074   3.539   3.994   0.348  0.7623  0.5476  2.1338
  537MOL0     H74075   3.377   4.029   0.290  0.8361 -1.1035 -0.1228
  537MOL0     H74076   3.393   4.265   0.425  0.9809  1.1499  1.6038
  537MOL0     H74077   3.564   4.219   0.447  0.7909  0.1737 -1.4477
  537MOL0     H74078   3.492   4.023   0.583 -2.8528 -1.9041  1.7647
  537MOL0     H74079   3.465   4.183   0.653 -4.1756 -1.4050  3.1763
  537MOL0     H74080   3.257   4.010   0.528  3.8603 -1.3835 -0.6772
  537MOL0     H74081   3.222   4.173   0.579 -1.7752 -1.4794  1.1196
  537MOL0     H74082   3.315   4.110   0.800  0.6135 -1.6977  1.3786
  537MOL0     H74083   3.325   3.939   0.749  1.4750  1.4330  1.6015
  537MOL0     H74084   3.053   4.094   0.758  0.8115  1.3239 -1.4788
  537MOL0     H74085   3.107   3.980   0.876  0.4602 -3.6248 -0.2675
  537MOL0     H74086   3.909   4.100   0.194 -2.0182  0.1421 -0.9742
  537MOL0     H74087   4.137   4.183   0.199 -0.7204  1.6988  1.3366
  537MOL0     H74088   4.469   4.299   0.153  2.1271 -0.1100  4.0733
  537MOL0     H74089   4.692   4.311   0.213  0.1890  1.0743  1.2735
  537MOL0     H74090   5.375   3.053   0.439 -0.4219  1.2405  1.3053
  537MOL0     H74091   5.453   2.979   0.666 -1.2822  1.1632  0.5890
  537MOL0     H74092   5.602   2.655   0.892 -0.9435  2.4118  0.1410
  537MOL0     H74093   5.738   2.608   1.081 -0.3374 -2.6450 -0.1972
  537MOL0     H74094   5.820   2.458   1.252 -1.5843 -0.5099  0.4036
  537MOL0     H74095   5.832   2.625   1.322 -2.3679  2.1841  4.3959
  537MOL0     H74096   5.941   2.505   1.464  0.5692 -1.0122  0.0288
  537MOL0     H74097   5.825   2.377   1.475  0.0311 -0.6060 -4.5665
  537MOL0     H74098   5.834   2.517   1.683  0.9500  0.7035 -0.1526
  537MOL0     H74099   5.801   2.665   1.580  2.9274  0.0289  1.7025
  537MOL0     H74100   5.601   2.455   1.556 -0.5778 -1.1960  0.7597
  537MOL0     H74101   5.591   2.620   1.598 -2.1178 -1.6626 -1.0469
  537MOL0     H74102   5.573   2.454   1.989  0.8390  1.9599 -0.5007
  537MOL0     H74103   5.394   2.541   1.306 -1.1081 -2.5355 -1.2320
  537MOL0     H74104   5.191   2.632   1.249  0.6117  0.3805 -0.2678
  537MOL0     H74105   5.149   2.728   1.107 -1.6481  0.1975  2.1993
  537MOL0     H74106   5.162   2.554   1.082 -1.0086 -0.1153 -0.1524
  538MOL0     O74107   6.352   1.717   1.634 -0.9018 -0.1286  0.4295
  538MOL0     C74108   6.443   1.681   1.708 -0.2618  1.0398 -0.0590
  538MOL0     O74109   6.547   1.604   1.674 -0.2636  0.1466 -0.1553
  538MOL0     C74110   6.556   1.578   1.539  1.2479 -0.3077 -0.0469
  538MOL0     C74111   6.584   1.679   1.442 -0.7047  0.1225  0.2909
  538MOL0     C74112   6.577   1.648   1.310  0.4906 -0.1825  0.0990
  538MOL0     C74113   6.554   1.515   1.276 -0.2530  0.1547  0.1774
  538MOL0     O74114   6.562   1.462   1.147  0.3427 -0.1334 -0.1199
  538MOL0     C74115   6.558   1.550   1.034 -0.1699  0.8873 -0.3801
  538MOL0     C74116   6.598   1.480   0.905 -0.6106 -0.2375 -0.1778
  538MOL0     C74117   6.722   1.395   0.920 -0.0879  0.0027  0.1303
  538MOL0     C74118   6.774   1.348   0.785 -0.6829 -0.0289 -0.1951
  538MOL0     C74119   6.856   1.219   0.808  0.1557  0.0056 -0.3326
  538MOL0     C74120   6.992   1.250   0.870 -0.6632 -0.0073 -0.1472
  538MOL0     C74121   7.088   1.128   0.877 -0.0576 -0.2290  0.0709
  538MOL0     C74122   7.229   1.171   0.890  0.1098  0.1351  0.3341
  538MOL0     N74123   7.259   1.239   1.016 -0.9889 -0.9297 -0.2199
  538MOL0     C74124   7.296   1.176   1.122 -0.4219  0.1769  0.4196
  538MOL0     C74125   7.333   1.273   1.210 -0.1939  0.0631  0.6716
  538MOL0     C74126   7.382   1.250   1.349 -0.0285 -0.2654 -0.1842
  538MOL0     C74127   7.374   1.374   1.433  0.8380  0.5360 -0.4927
  538MOL0     C74128   7.404   1.332   1.579 -0.7303  0.3193 -0.2408
  538MOL0     C74129   7.394   1.460   1.666  0.7659 -0.0644  0.0526
  538MOL0     O74130   7.475   1.447   1.781 -0.0040  0.5338 -0.4385
  538MOL0     C74131   7.519   1.564   1.840 -0.2887 -0.3517 -0.3409
  538MOL0     C74132   7.614   1.552   1.942  0.7708  0.9535 -1.1410
  538MOL0     C74133   7.662   1.666   2.004  0.5253  1.8014  0.0087
  538MOL0     C74134   7.752   1.639   2.116 -0.2749  0.2140  0.0795
  538MOL0     C74135   7.628   1.800   1.959 -0.5140 -0.2702 -0.5537
  538MOL0     C74136   7.688   1.927   1.998  0.4290  0.0334 -1.0788
  538MOL0     O74137   7.738   1.942   2.124  0.0387 -0.2711 -0.2857
  538MOL0     C74138   7.811   2.050   2.157  0.5923 -0.3501  0.1837
  538MOL0     C74139   7.951   2.037   2.158 -0.8353  0.4417 -0.0290
  538MOL0     C74140   8.029   2.147   2.213  0.0592  0.7660 -0.1383
  538MOL0     C74141   7.962   2.260   2.260  0.5562 -0.5694 -1.3319
  538MOL0     O74142   8.041   2.339   2.337 -0.1951 -1.0195 -0.1905
  538MOL0     C74143   8.024   2.473   2.292 -0.1692 -0.2792  0.2046
  538MOL0     C74144   8.138   2.577   2.332 -0.1691 -0.1077 -0.0882
  538MOL0     C74145   8.253   2.598   2.222 -0.3813  0.1506  0.1391
  538MOL0     C74146   8.356   2.708   2.265 -0.9802 -0.5606 -1.3050
  538MOL0     C74147   8.473   2.742   2.164  0.3404  0.5765 -0.8298
  538MOL0     C74148   8.549   2.610   2.116  0.2463 -0.3718 -0.4181
  538MOL0     C74149   8.631   2.645   1.996  0.3054 -0.2001 -0.5432
  538MOL0     C74150   8.667   2.521   1.918 -0.0988  0.3768  0.5840
  538MOL0    Cl74151   8.706   2.579   1.761  0.0286  0.2929 -0.1598
  538MOL0     C74152   7.825   2.275   2.240 -0.7509  0.9049  0.0062
  538MOL0     C74153   7.746   2.173   2.194 -0.2957 -0.6736  0.9640
  538MOL0     O74154   7.681   2.020   1.916 -0.2714  0.1683 -0.3613
  538MOL0     C74155   7.531   1.805   1.857  0.8454  0.1652 -0.0890
  538MOL0     C74156   7.469   1.691   1.807 -0.2923 -1.0811  0.1870
  538MOL0     N74157   7.290   1.396   1.154  0.5914 -0.0039 -0.2218
  538MOL0     N74158   7.248   1.375   1.031 -0.5918  0.3511 -0.0374
  538MOL0     C74159   6.527   1.417   1.370 -0.7333  1.1636  1.5796
  538MOL0     C74160   6.526   1.443   1.500  0.4630  0.4089  0.3171
  538MOL0     C74161   6.451   1.720   1.855  0.3536 -1.2591  0.5448
  538MOL0     C74162   6.329   1.743   1.920  0.3308 -0.9895  0.0227
  538MOL0     C74163   6.329   1.803   2.051 -0.2274  0.7312  0.1292
  538MOL0     C74164   6.438   1.837   2.122  0.3401  0.6952  0.1381
  538MOL0     O74165   6.417   1.893   2.247  0.1194  0.2481  0.5500
  538MOL0     C74166   6.443   2.034   2.259 -0.1434 -0.3409  0.2060
  538MOL0     C74167   6.368   2.106   2.375 -0.4577  0.5579 -1.1107
  538MOL0     C74168   6.355   2.255   2.361  0.2469  0.2020 -0.0022
  538MOL0     C74169   6.477   2.338   2.378 -0.8309 -0.5246  0.5737
  538MOL0     C74170   6.544   2.300   2.503 -0.1844  0.2746 -0.7328
  538MOL0     C74171   6.594   2.275   2.606 -0.4899  0.1280  0.0431
  538MOL0     C74172   6.562   1.800   2.060 -0.0146 -0.5038 -0.2331
  538MOL0     C74173   6.570   1.736   1.931 -0.6788  0.0932 -0.1876
  538MOL0     C74174   6.706   1.714   1.882  0.1952 -0.3225  0.7420
  538MOL0     H74175   6.616   1.777   1.476  4.9536 -1.1884 -0.2823
  538MOL0     H74176   6.582   1.718   1.227 -0.4346 -2.9662 -2.4507
  538MOL0     H74177   6.639   1.622   1.051  0.2972  0.1413  0.6690
  538MOL0     H74178   6.464   1.605   1.020 -0.8113 -0.4562 -1.6255
  538MOL0     H74179   6.523   1.411   0.864 -0.1267  0.2960 -2.0559
  538MOL0     H74180   6.621   1.558   0.832 -1.2283 -0.6000 -0.7796
  538MOL0     H74181   6.804   1.443   0.974 -1.2557  2.1815  0.1226
  538MOL0     H74182   6.696   1.309   0.982 -0.2397  1.5181  2.2703
  538MOL0     H74183   6.698   1.337   0.708  0.5760 -4.9136 -1.1060
  538MOL0     H74184   6.843   1.425   0.750  1.7978 -1.8073  0.4143
  538MOL0     H74185   6.879   1.183   0.707 -1.3943  1.4842 -1.2706
  538MOL0     H74186   6.797   1.140   0.856 -1.8315  0.2684 -2.1628
  538MOL0     H74187   7.038   1.327   0.808 -0.4423 -0.6456 -0.7990
  538MOL0     H74188   6.976   1.296   0.967  1.7987  0.6358 -0.0010
  538MOL0     H74189   7.077   1.072   0.784 -0.3576 -0.2167  0.0986
  538MOL0     H74190   7.069   1.051   0.953  1.2194  1.5114  2.2736
  538MOL0     H74191   7.286   1.078   0.887  1.4137  0.9383 -0.3906
  538MOL0     H74192   7.268   1.228   0.805 -2.5330  2.1908  0.3687
  538MOL0     H74193   7.291   1.068   1.136  1.9279  0.1161  1.2320
  538MOL0     H74194   7.487   1.221   1.345 -0.2687 -1.2540  0.2870
  538MOL0     H74195   7.312   1.178   1.393 -2.7286  2.2509 -0.0245
  538MOL0     H74196   7.449   1.448   1.403  0.1801  1.8335  0.9661
  538MOL0     H74197   7.278   1.425   1.425  1.2276  1.6155  1.2879
  538MOL0     H74198   7.320   1.264   1.596 -1.9317  1.5134 -1.1229
  538MOL0     H74199   7.494   1.273   1.592 -1.3436 -0.8148 -0.9871
  538MOL0     H74200   7.420   1.549   1.609  0.1014  1.6733  2.2869
  538MOL0     H74201   7.291   1.488   1.691  1.2064  2.4349 -0.6134
  538MOL0     H74202   7.636   1.452   1.978  1.3888  0.7943 -1.9487
  538MOL0     H74203   7.853   1.660   2.081 -0.9374  0.0491 -2.0742
  538MOL0     H74204   7.740   1.536   2.153  1.6607 -1.6295 -3.8072
  538MOL0     H74205   7.729   1.705   2.201  0.2077 -0.9486  1.1569
  538MOL0     H74206   8.009   1.951   2.128 -0.5924 -0.8651  3.6777
  538MOL0     H74207   8.135   2.149   2.236 -0.3956 -0.4691  2.3996
  538MOL0     H74208   8.022   2.489   2.184 -6.6848 -0.1635 -0.0342
  538MOL0     H74209   7.922   2.507   2.311  0.3428  1.4534  0.0339
  538MOL0     H74210   8.096   2.675   2.356 -2.1987 -1.7280  3.9699
  538MOL0     H74211   8.183   2.553   2.428  0.0360  0.3626 -0.0662
  538MOL0     H74212   8.203   2.623   2.128  0.8502  0.4481 -0.4576
  538MOL0     H74213   8.296   2.498   2.217 -3.9306 -1.5648  0.6453
  538MOL0     H74214   8.404   2.677   2.358 -2.8234  1.1940  0.3138
  538MOL0     H74215   8.297   2.797   2.287 -0.2681  1.0781 -5.2047
  538MOL0     H74216   8.428   2.782   2.073 -0.6949  2.1962  0.3179
  538MOL0     H74217   8.546   2.812   2.207 -0.3853  2.6288 -2.6965
  538MOL0     H74218   8.467   2.544   2.087  0.2125  0.4256 -2.2630
  538MOL0     H74219   8.616   2.568   2.191 -0.9643  1.7120  2.0231
  538MOL0     H74220   8.724   2.693   2.029 -1.3124  2.0094  1.0751
  538MOL0     H74221   8.578   2.715   1.930 -0.2848 -0.4388 -0.3224
  538MOL0     H74222   8.582   2.453   1.900  0.9894 -0.4255 -1.9749
  538MOL0     H74223   8.741   2.456   1.966  1.7449  0.8626 -1.4251
  538MOL0     H74224   7.774   2.371   2.251  0.1080  1.7882 -2.9168
  538MOL0     H74225   7.639   2.189   2.184  0.2755  2.7066 -1.9138
  538MOL0     H74226   7.489   1.902   1.832 -1.6485 -0.2803  1.9705
  538MOL0     H74227   7.385   1.710   1.740  1.1249 -0.8446 -1.6285
  538MOL0     H74228   6.509   1.317   1.333 -3.0116  1.2047  2.4298
  538MOL0     H74229   6.494   1.372   1.576  1.3887  1.8334  2.1192
  538MOL0     H74230   6.229   1.731   1.881 -0.4391 -1.1697  1.9164
  538MOL0     H74231   6.237   1.833   2.101 -0.0974  0.9820  0.2219
  538MOL0     H74232   6.551   2.045   2.264 -0.1981  1.0681 -0.9207
  538MOL0     H74233   6.418   2.073   2.160  2.2672  2.4383  0.5610
  538MOL0     H74234   6.424   2.073   2.463  2.5461  1.4561 -2.5560
  538MOL0     H74235   6.268   2.065   2.389  0.3413 -1.0335  0.3539
  538MOL0     H74236   6.296   2.273   2.271 -3.0120 -2.2433  1.3917
  538MOL0     H74237   6.291   2.279   2.447  0.6159  1.9070 -0.1862
  538MOL0     H74238   6.447   2.441   2.400 -3.9177 -1.8687  3.5966
  538MOL0     H74239   6.550   2.330   2.297 -2.8926 -2.8613 -1.1982
  538MOL0     H74240   6.616   2.253   2.708 -2.9751 -0.0603  0.6139
  538MOL0     H74241   6.653   1.808   2.118 -2.6146  0.7178  4.1724
  538MOL0     H74242   6.721   1.709   1.773 -0.2492 -0.4607  0.6832
  538MOL0     H74243   6.762   1.802   1.914 -1.7182 -0.7862  6.4145
  538MOL0     H74244   6.742   1.627   1.938  1.5831  0.7534  1.5848
  539MOL0     O74245   3.809   2.693   0.987  0.2713  1.4966  0.0422
  539MOL0     C74246   3.887   2.602   1.012  1.0966 -0.3967  0.0902
  539MOL0     O74247   3.924   2.502   0.919  0.0389 -0.5829  0.5025
  539MOL0     C74248   3.872   2.497   0.800  0.3382 -0.4943 -1.6088
  539MOL0     C74249   3.877   2.601   0.706 -0.0096  0.0409  0.2672
  539MOL0     C74250   3.837   2.586   0.575 -0.1517 -0.9371  0.1743
  539MOL0     C74251   3.792   2.455   0.535 -0.0138 -0.8026  0.1212
  539MOL0     O74252   3.772   2.437   0.403 -0.0584  0.1876  0.5297
  539MOL0     C74253   3.691   2.336   0.358  0.6837  0.4935 -0.3269
  539MOL0     C74254   3.779   2.236   0.289 -1.0289  0.3935 -0.8885
  539MOL0     C74255   3.693   2.134   0.213  0.6727 -0.3961  0.4081
  539MOL0     C74256   3.760   2.105   0.082 -0.0673 -0.7431  0.6338
  539MOL0     C74257   3.689   1.990   0.012  0.3369 -0.9591  0.7923
  539MOL0     C74258   3.775   1.918  -0.095  0.0240 -0.2514  0.1879
  539MOL0     C74259   3.703   1.836  -0.201  0.4205  0.7685  0.0613
  539MOL0     C74260   3.629   1.709  -0.144  0.0581  0.4618 -1.3081
  539MOL0     N74261   3.501   1.751  -0.073 -0.6176 -0.0300 -0.3140
  539MOL0     C74262   3.416   1.862  -0.101 -0.6965 -0.3956 -0.6700
  539MOL0     C74263   3.320   1.859  -0.005  0.0979 -0.0633  0.0108
  539MOL0     C74264   3.197   1.954  -0.002 -0.0786  0.3400 -0.2483
  539MOL0     C74265   3.132   1.976  -0.140  0.6151 -0.2830  0.8700
  539MOL0     C74266   3.028   2.092  -0.170 -0.7327 -0.6958 -0.5098
  539MOL0     C74267   3.089   2.229  -0.179 -0.5443  0.4779  0.7045
  539MOL0     O74268   2.994   2.330  -0.228  0.3868  0.4275 -0.7970
  539MOL0     C74269   2.893   2.378  -0.144  0.1804 -0.5453  1.0184
  539MOL0     C74270   2.869   2.337  -0.014  0.0389  0.6555  0.7391
  539MOL0     C74271   2.750   2.358   0.046 -0.5459  0.5271  0.0599
  539MOL0     C74272   2.730   2.276   0.179 -0.1265 -0.0682  0.4827
  539MOL0     C74273   2.645   2.425  -0.027  0.5331  0.3361 -0.1587
  539MOL0     C74274   2.502   2.446   0.013  0.3817 -0.3946  0.3921
  539MOL0     O74275   2.421   2.523  -0.071 -0.1164 -0.7686 -0.1865
  539MOL0     C74276   2.286   2.512  -0.053  1.0429 -0.4677  0.6331
  539MOL0     C74277   2.234   2.564   0.065  0.3513 -0.1493 -0.0412
  539MOL0     C74278   2.095   2.559   0.088  0.8069 -0.8045  0.0628
  539MOL0     C74279   2.011   2.502  -0.011  0.4576 -0.3477 -0.9852
  539MOL0     O74280   1.874   2.497   0.009  0.3309  0.2635 -0.4564
  539MOL0     C74281   1.793   2.432  -0.096 -0.1722 -0.1153 -0.0544
  539MOL0     C74282   1.654   2.423  -0.059 -0.2316  0.3510  0.1670
  539MOL0     C74283   1.627   2.308   0.034  1.0664 -0.0334 -0.2011
  539MOL0     C74284   1.490   2.335   0.100 -0.3624  0.0035  0.6508
  539MOL0     C74285   1.376   2.226   0.064 -0.2537  0.7925  0.0852
  539MOL0     C74286   1.253   2.222   0.158 -0.4174  0.4809  0.5461
  539MOL0     C74287   1.294   2.190   0.305  0.4782  0.4694 -0.5283
  539MOL0     C74288   1.214   2.290   0.389  0.0256  0.1452 -0.1015
  539MOL0    Cl74289   1.035   2.282   0.382 -0.2702 -0.6579 -0.0378
  539MOL0     C74290   2.068   2.449  -0.125  0.0050 -1.0673  0.4399
  539MOL0     C74291   2.206   2.455  -0.148  1.1718  0.0204  0.5061
  539MOL0     O74292   2.464   2.384   0.111  0.1408 -0.0087 -0.2446
  539MOL0     C74293   2.677   2.483  -0.146  0.3502 -0.4370  0.0177
  539MOL0     C74294   2.796   2.454  -0.213 -0.5822 -0.4617  0.1530
  539MOL0     N74295   3.353   1.758   0.081  0.0954  0.5955 -0.3754
  539MOL0     N74296   3.454   1.690   0.047 -0.7708  0.6493  0.7592
  539MOL0     C74297   3.784   2.353   0.629  0.4634 -0.0437  0.6053
  539MOL0     C74298   3.821   2.374   0.757 -0.9306 -0.5129 -0.0121
  539MOL0     C74299   3.953   2.595   1.140  0.0144  1.2011  0.3636
  539MOL0     C74300   3.981   2.719   1.199 -1.1932 -1.0574 -1.0649
  539MOL0     C74301   4.064   2.728   1.319 -0.2024 -0.7373 -0.0085
  539MOL0     C74302   4.123   2.615   1.371  0.1834 -0.2803 -0.0431
  539MOL0     O74303   4.208   2.631   1.479  0.2611  0.3687 -0.8481
  539MOL0     C74304   4.348   2.632   1.458  0.1078  0.3322 -0.1279
  539MOL0     C74305   4.391   2.778   1.410  0.5223  0.2428  0.6548
  539MOL0     C74306   4.536   2.828   1.446  0.4021  0.1650  0.1196
  539MOL0     C74307   4.642   2.723   1.424  0.2724  0.3652  0.1286
  539MOL0     C74308   4.778   2.770   1.436  0.4163 -1.0880  0.6137
  539MOL0     C74309   4.898   2.810   1.426  0.2843  0.9561  0.0046
  539MOL0     C74310   4.095   2.494   1.310  0.7530 -0.5702 -0.2414
  539MOL0     C74311   4.016   2.478   1.192  0.4168 -0.4122 -0.6653
  539MOL0     C74312   3.978   2.335   1.151 -1.2262  0.0219 -0.0753
  539MOL0     H74313   3.915   2.698   0.737  0.6390  0.0757 -0.6172
  539MOL0     H74314   3.854   2.666   0.504  2.8019 -1.5277  0.1087
  539MOL0     H74315   3.632   2.383   0.280  2.5034 -0.8210 -2.6302
  539MOL0     H74316   3.627   2.295   0.437  1.3550  0.2150  0.0843
  539MOL0     H74317   3.859   2.267   0.221 -1.4951  1.2580 -1.0506
  539MOL0     H74318   3.828   2.182   0.371 -0.6432  1.1146 -0.6369
  539MOL0     H74319   3.688   2.040   0.269 -0.2852 -2.4570 -2.8545
  539MOL0     H74320   3.594   2.176   0.199  0.1032 -1.4814  1.0032
  539MOL0     H74321   3.774   2.193   0.018  2.0007 -1.0819  0.5383
  539MOL0     H74322   3.857   2.064   0.110  0.7438  1.1097  0.7212
  539MOL0     H74323   3.598   2.033  -0.030  0.4512  0.9483  2.3581
  539MOL0     H74324   3.640   1.932   0.091 -3.1939  1.3633  0.5274
  539MOL0     H74325   3.828   1.993  -0.155 -1.9656 -0.0927 -1.4748
  539MOL0     H74326   3.843   1.850  -0.042 -1.7429 -0.9230  1.7049
  539MOL0     H74327   3.766   1.793  -0.279  1.6490  1.0474  0.8611
  539MOL0     H74328   3.629   1.894  -0.256  0.0736 -0.9859 -1.3998
  539MOL0     H74329   3.594   1.643  -0.223  2.1614 -0.1393 -1.7760
  539MOL0     H74330   3.697   1.656  -0.077 -1.0762 -1.0809 -1.3187
  539MOL0     H74331   3.430   1.937  -0.178 -0.7805  0.7216  0.3769
  539MOL0     H74332   3.226   2.050   0.042 -0.5394  0.8518 -1.0408
  539MOL0     H74333   3.126   1.902   0.064 -0.3561 -1.0650 -1.6008
  539MOL0     H74334   3.210   1.985  -0.217 -1.2699 -1.1775 -1.2387
  539MOL0     H74335   3.083   1.884  -0.173  1.2250  0.0399 -1.0876
  539MOL0     H74336   2.981   2.067  -0.266  1.1578  1.6404 -2.1883
  539MOL0     H74337   2.955   2.088  -0.089  1.2806  1.6445  1.5870
  539MOL0     H74338   3.124   2.263  -0.082 -1.7406  1.2221  0.8915
  539MOL0     H74339   3.185   2.227  -0.232 -0.2786 -1.8688  1.1366
  539MOL0     H74340   2.945   2.282   0.042 -1.3687 -0.0570  2.0063
  539MOL0     H74341   2.824   2.240   0.222  0.9151  1.0684 -0.7390
  539MOL0     H74342   2.669   2.189   0.156  1.0233 -0.1960 -2.5216
  539MOL0     H74343   2.671   2.335   0.250 -1.9356 -0.5763 -0.5401
  539MOL0     H74344   2.292   2.632   0.128  1.8951 -2.4974  1.2123
  539MOL0     H74345   2.057   2.590   0.185 -1.6593  2.8789 -1.8343
  539MOL0     H74346   1.801   2.498  -0.182 -0.7863  2.1841  1.5635
  539MOL0     H74347   1.836   2.334  -0.119  2.4409  0.7387  0.8443
  539MOL0     H74348   1.621   2.517  -0.014 -1.8147  0.2593 -0.7452
  539MOL0     H74349   1.600   2.395  -0.150  0.5403  1.7576 -0.7773
  539MOL0     H74350   1.704   2.292   0.110 -1.8863 -1.0570  2.8127
  539MOL0     H74351   1.615   2.213  -0.019  0.7777 -0.0310 -0.1426
  539MOL0     H74352   1.444   2.428   0.065 -1.3483 -0.3018  1.0869
  539MOL0     H74353   1.510   2.340   0.208 -1.1648  0.0339  0.8019
  539MOL0     H74354   1.363   2.235  -0.044  3.1216 -0.6269 -0.5503
  539MOL0     H74355   1.419   2.126   0.077 -0.2064  0.5359 -1.7334
  539MOL0     H74356   1.189   2.142   0.120 -1.7620  1.5436  0.5043
  539MOL0     H74357   1.194   2.312   0.140 -1.7436 -0.7753 -1.7334
  539MOL0     H74358   1.400   2.213   0.307  0.9206 -0.1698 -5.2335
  539MOL0     H74359   1.282   2.085   0.335 -0.4312  0.5975 -0.4091
  539MOL0     H74360   1.244   2.387   0.348 -0.0221  0.4345  0.5374
  539MOL0     H74361   1.258   2.285   0.489 -0.7307  1.6942  0.3279
  539MOL0     H74362   2.008   2.415  -0.209 -3.1527  0.6753  1.8232
  539MOL0     H74363   2.254   2.411  -0.235 -0.9450 -0.5204 -0.4765
  539MOL0     H74364   2.616   2.547  -0.208  1.4463 -0.4176 -1.0826
  539MOL0     H74365   2.804   2.485  -0.317  1.3329 -0.5914  0.2191
  539MOL0     H74366   3.749   2.257   0.592 -0.7319  0.0427  1.4728
  539MOL0     H74367   3.828   2.298   0.833  1.5421  1.2573  1.7041
  539MOL0     H74368   3.932   2.808   1.160 -0.1295  1.1148  2.1902
  539MOL0     H74369   4.095   2.822   1.363 -2.6492 -0.5550  1.4904
  539MOL0     H74370   4.392   2.615   1.557  0.0946 -1.1256 -0.3508
  539MOL0     H74371   4.380   2.545   1.400 -2.3085 -0.8826  0.2029
  539MOL0     H74372   4.319   2.853   1.443 -0.4509  0.1957 -1.1967
  539MOL0     H74373   4.391   2.779   1.300  4.8132  0.0406  0.4643
  539MOL0     H74374   4.574   2.923   1.406  0.6621 -0.2095 -0.5424
  539MOL0     H74375   4.524   2.844   1.553  0.1068 -3.2146  0.6902
  539MOL0     H74376   4.620   2.691   1.322 -3.4814 -0.8574  1.1727
  539MOL0     H74377   4.630   2.632   1.485 -1.6289  0.0485 -0.6463
  539MOL0     H74378   5.002   2.837   1.425  1.4650 -2.8003  1.5298
  539MOL0     H74379   4.148   2.408   1.351 -1.3511 -0.2977  3.4585
  539MOL0     H74380   4.063   2.296   1.093 -1.6350  0.3273 -0.8936
  539MOL0     H74381   3.950   2.264   1.230  2.1025 -1.3721  0.0482
  539MOL0     H74382   3.895   2.331   1.079 -1.4058  1.6605  0.0109
  540MOL0     O74383   9.934   2.141  11.198  0.3768 -0.0403  0.7227
  540MOL0     C74384  10.009   2.093  11.293 -0.2064  0.3065  0.5480
  540MOL0     O74385   9.981   2.094  11.422 -0.8424 -0.4372 -0.6800
  540MOL0     C74386   9.857   2.129  11.472 -0.6493 -0.3265  0.6221
  540MOL0     C74387   9.867   2.206  11.596  0.3304 -0.2548  0.4397
  540MOL0     C74388   9.751   2.254  11.652 -1.0233 -0.2413 -0.1228
  540MOL0     C74389   9.629   2.206  11.611 -0.9085  0.9652 -0.3788
  540MOL0     O74390   9.519   2.225  11.676  1.3225 -0.8613 -0.4158
  540MOL0     C74391   9.519   2.254  11.815 -0.2157  0.2229 -0.6658
  540MOL0     C74392   9.401   2.166  11.875 -0.7338  0.2648  0.0070
  540MOL0     C74393   9.389   2.174  12.029  0.4797  0.2816  0.3374
  540MOL0     C74394   9.259   2.099  12.074 -0.2542 -0.7041 -0.3643
  540MOL0     C74395   9.258   2.120  12.228 -0.1253  0.2664 -0.5737
  540MOL0     C74396   9.125   2.075  12.290  0.0322  0.1836 -0.2047
  540MOL0     C74397   9.120   2.084  12.441  0.6009  0.2075  0.2552
  540MOL0     C74398   9.003   2.007  12.494  0.8353  0.1629 -0.5383
  540MOL0     N74399   9.014   2.014  12.637  0.9542 -0.0493  0.3672
  540MOL0     C74400   8.972   2.117  12.711 -0.3770 -0.0953 -0.1837
  540MOL0     C74401   8.971   2.069  12.839  0.0585 -0.1945  0.4440
  540MOL0     C74402   8.935   2.140  12.962 -0.2531 -0.9149 -0.3513
  540MOL0     C74403   8.885   2.040  13.073 -0.0898 -0.3172  0.9622
  540MOL0     C74404   8.854   2.122  13.205 -0.3212 -1.1275  0.3045
  540MOL0     C74405   8.826   2.024  13.324  0.2564 -1.2422 -0.0102
  540MOL0     O74406   8.811   2.103  13.453 -0.3360  0.7136  0.4466
  540MOL0     C74407   8.766   2.043  13.569 -0.3413 -0.1638  0.5163
  540MOL0     C74408   8.702   1.918  13.572  0.1795 -0.4301 -0.3410
  540MOL0     C74409   8.663   1.866  13.696 -0.2397 -0.3186  0.0456
  540MOL0     C74410   8.581   1.734  13.682 -0.6631 -0.2163  0.0041
  540MOL0     C74411   8.693   1.928  13.818 -0.1577  0.6469 -0.5835
  540MOL0     C74412   8.678   1.857  13.943 -0.6978  0.5501  0.2882
  540MOL0     O74413   8.646   1.941  14.046  0.4844  0.5425  0.1766
  540MOL0     C74414   8.618   1.885  14.167  0.9951 -0.5268 -1.1650
  540MOL0     C74415   8.668   1.960  14.281  0.2314 -0.0329 -0.1616
  540MOL0     C74416   8.643   1.916  14.410  0.3047  0.0670 -0.0435
  540MOL0     C74417   8.556   1.809  14.434 -0.7066 -0.3684  0.1167
  540MOL0     O74418   8.500   1.780  14.557  0.2242  0.0655 -0.4571
  540MOL0     C74419   8.534   1.854  14.676  0.1404  0.1736 -0.3828
  540MOL0     C74420   8.655   1.801  14.737 -0.9680 -0.2394  0.4017
  540MOL0     C74421   8.724   1.911  14.827  0.1353 -0.4357 -0.2296
  540MOL0     C74422   8.862   1.866  14.878  0.1124 -0.2884 -0.2510
  540MOL0     C74423   8.893   1.932  15.013  0.1894  0.1129  0.2492
  540MOL0     C74424   8.911   2.084  15.002 -0.0681  0.3374 -0.2056
  540MOL0     C74425   9.015   2.128  14.902  0.1864 -0.4101  1.0289
  540MOL0     C74426   9.152   2.129  14.966  0.0009 -1.2654 -0.2043
  540MOL0    Cl74427   9.227   1.968  14.955  0.3323  0.2917 -0.6582
  540MOL0     C74428   8.510   1.728  14.326  0.2720 -0.1894 -0.8636
  540MOL0     C74429   8.536   1.776  14.196 -0.1524  0.3788  0.2370
  540MOL0     O74430   8.688   1.730  13.945  0.1921 -0.2605  0.3783
  540MOL0     C74431   8.732   2.060  13.809  1.1286  0.2270 -0.0135
  540MOL0     C74432   8.777   2.108  13.690  0.6923 -0.1450 -0.2554
  540MOL0     N74433   8.998   1.936  12.833 -0.8956  0.4988 -0.7650
  540MOL0     N74434   9.032   1.902  12.713  0.0621 -0.4457 -0.1763
  540MOL0     C74435   9.621   2.127  11.498  0.1717  0.1155 -0.2061
  540MOL0     C74436   9.738   2.085  11.425  0.0028  0.1198 -0.5163
  540MOL0     C74437  10.150   2.044  11.258  0.5638 -0.9167  0.7686
  540MOL0     C74438  10.179   1.918  11.308  1.0577 -0.3037  0.1954
  540MOL0     C74439  10.304   1.863  11.278  0.1569  0.3385  0.2923
  540MOL0     C74440  10.401   1.922  11.189 -0.2711 -1.0156 -0.1591
  540MOL0     O74441  10.519   1.851  11.166  0.3401 -1.0027 -0.8237
  540MOL0     C74442  10.609   1.880  11.057  0.1893  0.4783 -0.4697
  540MOL0     C74443  10.750   1.812  11.083  0.5497 -0.7502 -0.2509
  540MOL0     C74444  10.845   1.846  10.966 -0.3017 -0.8856  0.1442
  540MOL0     C74445  10.819   1.751  10.845 -0.4310 -0.3406  0.2864
  540MOL0     C74446  10.905   1.801  10.737 -0.2298  0.3760  0.3689
  540MOL0     C74447  10.977   1.833  10.647  0.2156 -0.5194 -0.3987
  540MOL0     C74448  10.361   2.047  11.135 -0.4748  0.5046  0.0437
  540MOL0     C74449  10.238   2.111  11.173 -0.2847 -0.3524  0.0052
  540MOL0     C74450  10.221   2.257  11.143  0.3674  0.8719  0.6828
  540MOL0     H74451   9.959   2.259  11.620  0.6350  0.0041 -1.1793
  540MOL0     H74452   9.764   2.328  11.731 -0.0561  2.6203 -2.7621
  540MOL0     H74453   9.493   2.360  11.826 -2.0394 -0.4040  2.1654
  540MOL0     H74454   9.610   2.235  11.873  0.4281  0.4405 -1.5939
  540MOL0     H74455   9.310   2.202  11.825 -0.1951 -2.4147 -3.2687
  540MOL0     H74456   9.428   2.064  11.848 -2.7131 -0.6543  1.2399
  540MOL0     H74457   9.477   2.131  12.077 -0.8118  0.0339  2.6114
  540MOL0     H74458   9.377   2.280  12.051  0.8407  0.2439  0.7275
  540MOL0     H74459   9.174   2.142  12.021  0.1024 -1.1201 -1.2984
  540MOL0     H74460   9.261   1.997  12.034  2.1118 -0.4433 -1.0710
  540MOL0     H74461   9.270   2.228  12.237 -1.7826  0.5410 -1.2838
  540MOL0     H74462   9.346   2.069  12.267 -0.8737  0.1565  1.0674
  540MOL0     H74463   9.048   2.143  12.251  0.9898  2.0261  0.9867
  540MOL0     H74464   9.116   1.974  12.251  0.9577  0.8518 -2.3131
  540MOL0     H74465   9.119   2.187  12.478  0.4667 -0.4028  2.0415
  540MOL0     H74466   9.213   2.037  12.474 -0.2466  0.3014  3.1188
  540MOL0     H74467   8.908   2.050  12.460  0.2297 -0.0542  0.8325
  540MOL0     H74468   9.012   1.904  12.457  0.4625 -0.6766  1.5887
  540MOL0     H74469   8.953   2.220  12.681  0.6750 -0.4413 -2.2040
  540MOL0     H74470   8.872   2.227  12.939  0.7298  0.1208  0.7405
  540MOL0     H74471   9.027   2.189  12.995  0.2863 -0.9546 -1.7245
  540MOL0     H74472   8.813   1.965  13.040 -0.0471 -0.4832  1.2327
  540MOL0     H74473   8.967   1.971  13.098  0.5481 -0.7261 -1.9456
  540MOL0     H74474   8.946   2.180  13.219 -0.9824  0.9476 -2.8623
  540MOL0     H74475   8.767   2.186  13.187  0.7640  0.6772  1.1851
  540MOL0     H74476   8.731   1.970  13.322  0.8928 -2.7852  3.4215
  540MOL0     H74477   8.904   1.948  13.334  0.9443 -0.6236 -0.5203
  540MOL0     H74478   8.678   1.861  13.484 -2.7341 -0.0469  0.0899
  540MOL0     H74479   8.647   1.651  13.711  3.0915  2.1368 -1.0599
  540MOL0     H74480   8.537   1.719  13.583 -2.7197  0.7875  0.7066
  540MOL0     H74481   8.500   1.735  13.755 -0.0665  2.4120  0.7409
  540MOL0     H74482   8.715   2.056  14.259 -0.3248  0.3719  0.3737
  540MOL0     H74483   8.686   1.971  14.493  1.3781  0.3835 -0.7854
  540MOL0     H74484   8.543   1.961  14.656 -3.5021  0.5559 -0.6853
  540MOL0     H74485   8.449   1.846  14.745 -0.1029 -0.0920 -0.7074
  540MOL0     H74486   8.615   1.725  14.805  0.3358 -1.8614 -0.5935
  540MOL0     H74487   8.718   1.761  14.657 -0.9539 -1.9014  1.2045
  540MOL0     H74488   8.663   1.934  14.916  1.6349  0.7823  0.5402
  540MOL0     H74489   8.722   1.996  14.759  1.1059  0.6363  1.0177
  540MOL0     H74490   8.947   1.874  14.809  0.3762  1.2127  0.2187
  540MOL0     H74491   8.840   1.762  14.904 -4.0124  0.7310  1.1229
  540MOL0     H74492   8.820   1.904  15.089 -0.2602 -3.0377 -1.1661
  540MOL0     H74493   8.983   1.886  15.055  1.0587  1.4893 -0.0631
  540MOL0     H74494   8.926   2.134  15.099  3.3495 -0.9138  0.0377
  540MOL0     H74495   8.814   2.122  14.968 -1.1474 -0.3202  1.9038
  540MOL0     H74496   8.990   2.234  14.886 -0.9283 -0.2332  3.4548
  540MOL0     H74497   9.011   2.075  14.806 -0.0058  0.9411  0.2570
  540MOL0     H74498   9.142   2.167  15.068 -1.0805 -2.1462  0.0292
  540MOL0     H74499   9.219   2.201  14.917 -0.9203 -1.3475 -1.6430
  540MOL0     H74500   8.456   1.637  14.347  1.1787 -0.2658  1.4071
  540MOL0     H74501   8.502   1.719  14.111  1.1477 -1.4609  0.8909
  540MOL0     H74502   8.733   2.123  13.897 -2.9906  1.1090 -0.3862
  540MOL0     H74503   8.822   2.206  13.681  2.7674 -1.1969 -2.7498
  540MOL0     H74504   9.529   2.075  11.476  1.3697 -0.7148 -3.9756
  540MOL0     H74505   9.735   2.023  11.336  0.4162 -1.8944  0.7948
  540MOL0     H74506  10.104   1.860  11.361  1.5980 -1.1188  0.0804
  540MOL0     H74507  10.333   1.761  11.300 -2.9038 -0.7994 -0.3981
  540MOL0     H74508  10.571   1.855  10.958  1.8657  2.3031 -1.6507
  540MOL0     H74509  10.625   1.988  11.049  2.6658  0.0856 -1.6188
  540MOL0     H74510  10.723   1.708  11.099 -1.5967  0.0117  1.7024
  540MOL0     H74511  10.796   1.860  11.170  0.6112  1.3021 -1.3275
  540MOL0     H74512  10.820   1.945  10.927  1.4406 -0.4364  0.0810
  540MOL0     H74513  10.946   1.843  11.008  0.0671  3.3232  0.0219
  540MOL0     H74514  10.714   1.741  10.815 -0.5457  3.1988 -1.0008
  540MOL0     H74515  10.854   1.650  10.868 -2.1703 -0.7002  1.4601
  540MOL0     H74516  11.046   1.839  10.565  0.2672 -2.2405 -0.5316
  540MOL0     H74517  10.417   2.102  11.060  0.6629  1.1015  1.2907
  540MOL0     H74518  10.162   2.260  11.051  1.0660 -1.3434  0.0849
  540MOL0     H74519  10.167   2.304  11.225  2.5697  0.3058  2.5989
  540MOL0     H74520  10.314   2.315  11.131  0.2511  0.9134 -0.0848
  541MOL0     O74521   1.058   2.362   9.236 -0.5228  0.5520 -0.5197
  541MOL0     C74522   1.135   2.422   9.305  0.8627  0.7223 -0.2486
  541MOL0     O74523   1.244   2.367   9.367 -1.1136  1.0079  0.0941
  541MOL0     C74524   1.276   2.232   9.365 -0.0503  0.1292  0.1671
  541MOL0     C74525   1.319   2.165   9.479  0.2302 -0.3358 -0.3867
  541MOL0     C74526   1.340   2.025   9.484 -0.1448 -1.3838  0.2235
  541MOL0     C74527   1.331   1.961   9.368  0.3740 -1.0513  0.5345
  541MOL0     O74528   1.345   1.824   9.362 -1.0397  0.5290 -0.2787
  541MOL0     C74529   1.378   1.758   9.484 -0.1958  0.1556  0.0006
  541MOL0     C74530   1.389   1.611   9.449  0.7690  0.0761 -0.0146
  541MOL0     C74531   1.469   1.588   9.323 -0.5003 -0.0353 -0.5258
  541MOL0     C74532   1.509   1.444   9.303 -0.2373 -0.0049  0.1252
  541MOL0     C74533   1.576   1.425   9.165 -0.0052  0.1213  0.8151
  541MOL0     C74534   1.594   1.278   9.130  0.0647 -0.1686 -0.1387
  541MOL0     C74535   1.666   1.276   8.996 -0.6545  0.9994 -0.3194
  541MOL0     C74536   1.658   1.130   8.940  0.7172 -0.8252  0.8415
  541MOL0     N74537   1.724   1.127   8.809 -0.5158 -0.8665 -0.1511
  541MOL0     C74538   1.862   1.143   8.780  0.0573 -0.1602  0.6115
  541MOL0     C74539   1.877   1.149   8.649 -0.0494 -0.6288  0.2412
  541MOL0     C74540   2.011   1.152   8.578 -0.1806  0.2538 -0.5372
  541MOL0     C74541   2.047   1.266   8.483 -0.4777 -0.5582 -0.0579
  541MOL0     C74542   2.122   1.389   8.547 -0.5043 -0.7832  0.1746
  541MOL0     C74543   2.039   1.475   8.646  0.5421 -0.5234  0.3804
  541MOL0     O74544   2.094   1.606   8.671  0.1194  0.7994  0.9242
  541MOL0     C74545   2.080   1.700   8.568 -0.4094 -0.7237 -0.3157
  541MOL0     C74546   2.112   1.833   8.599 -0.4074  0.4867 -0.4410
  541MOL0     C74547   2.093   1.954   8.529  0.4833  0.5466  0.5590
  541MOL0     C74548   2.164   2.066   8.586 -0.3008 -0.5820  0.2145
  541MOL0     C74549   2.025   1.946   8.402 -0.8080 -0.0162 -0.4671
  541MOL0     C74550   2.001   2.068   8.312  0.6215 -0.1602 -0.3574
  541MOL0     O74551   2.007   2.189   8.362 -0.7135  0.1221 -0.1167
  541MOL0     C74552   1.969   2.300   8.287 -0.1765 -0.5306 -0.3552
  541MOL0     C74553   1.864   2.371   8.339 -0.4247  0.0453  0.1090
  541MOL0     C74554   1.834   2.498   8.288 -0.2260  0.3953  1.0162
  541MOL0     C74555   1.917   2.551   8.188  0.5911 -0.8030  0.1116
  541MOL0     O74556   1.912   2.682   8.153 -0.2927  0.2795  0.6676
  541MOL0     C74557   1.828   2.770   8.229 -0.5574 -0.2239  0.4813
  541MOL0     C74558   1.850   2.924   8.203 -0.1445  0.3833  0.0980
  541MOL0     C74559   1.804   2.969   8.066  0.0295 -0.3526  0.7238
  541MOL0     C74560   1.814   3.128   8.042  0.5085  0.4158 -0.5237
  541MOL0     C74561   1.825   3.149   7.888 -0.0182  0.5003  0.5559
  541MOL0     C74562   1.840   3.298   7.851  0.8261  0.2467  0.6502
  541MOL0     C74563   1.779   3.321   7.706  0.3724 -0.1071 -0.0168
  541MOL0     C74564   1.763   3.472   7.679  0.2850 -0.1205 -0.0379
  541MOL0    Cl74565   1.596   3.513   7.647 -0.1501 -0.2590  0.5148
  541MOL0     C74566   2.017   2.470   8.129 -0.5120 -0.2623 -0.4275
  541MOL0     C74567   2.046   2.345   8.179  0.2341 -0.4015  0.5626
  541MOL0     O74568   1.948   2.040   8.208  0.3994 -0.0603  0.4655
  541MOL0     C74569   1.976   1.817   8.369 -0.7107  0.0883 -0.5953
  541MOL0     C74570   1.997   1.698   8.451  0.2047 -0.2377 -1.2501
  541MOL0     N74571   1.755   1.125   8.596  0.4205 -0.0475 -0.0227
  541MOL0     N74572   1.665   1.122   8.687 -0.1607 -0.2229 -0.1188
  541MOL0     C74573   1.294   2.027   9.241  0.6939  0.3475  0.3104
  541MOL0     C74574   1.267   2.159   9.243 -0.8544  0.1862 -0.1321
  541MOL0     C74575   1.107   2.561   9.321 -0.1873  0.0938  0.4934
  541MOL0     C74576   1.223   2.640   9.331  0.0960 -0.0337 -0.7779
  541MOL0     C74577   1.199   2.776   9.358 -0.3402 -0.0232 -0.1011
  541MOL0     C74578   1.073   2.835   9.376 -0.2691  0.8322 -0.1216
  541MOL0     O74579   1.068   2.970   9.415  0.4226 -0.0505 -0.2757
  541MOL0     C74580   0.941   3.016   9.449  0.1298 -0.4959  1.2738
  541MOL0     C74581   0.954   3.133   9.536  0.1180 -0.1180  0.6283
  541MOL0     C74582   0.824   3.217   9.560 -0.2909  0.1415  0.5000
  541MOL0     C74583   0.829   3.289   9.688 -0.3312 -1.0797 -0.2294
  541MOL0     C74584   0.945   3.381   9.714 -0.2412 -0.1866  0.6202
  541MOL0     C74585   1.044   3.451   9.728 -0.9575  0.2002  0.0712
  541MOL0     C74586   0.963   2.749   9.367  0.1377 -0.1654  0.6951
  541MOL0     C74587   0.979   2.610   9.335 -0.4538 -0.4448  0.3364
  541MOL0     C74588   0.855   2.532   9.337 -0.1286 -0.4569 -0.0713
  541MOL0     H74589   1.310   2.221   9.572  0.3849 -1.9107  0.6013
  541MOL0     H74590   1.379   1.974   9.571 -0.8648 -2.8217 -0.2645
  541MOL0     H74591   1.303   1.764   9.564 -0.0987  2.8753 -0.0118
  541MOL0     H74592   1.473   1.783   9.531  2.1016 -3.0034 -2.4722
  541MOL0     H74593   1.426   1.556   9.536 -0.5625 -2.4571 -0.9511
  541MOL0     H74594   1.287   1.574   9.433  0.8542 -0.3148  0.3529
  541MOL0     H74595   1.406   1.613   9.238 -1.2106  1.4134  0.3996
  541MOL0     H74596   1.556   1.655   9.325  0.7204 -1.5050 -1.7123
  541MOL0     H74597   1.579   1.420   9.383  1.3023  1.3351 -0.7631
  541MOL0     H74598   1.426   1.372   9.298 -2.6676  2.4443  1.8894
  541MOL0     H74599   1.667   1.486   9.168 -0.6889  1.1819  0.5814
  541MOL0     H74600   1.512   1.472   9.090 -1.9680 -2.0061  1.0387
  541MOL0     H74601   1.649   1.223   9.207 -2.6372 -0.5488  1.6632
  541MOL0     H74602   1.496   1.232   9.127  1.5537 -3.6412  0.0112
  541MOL0     H74603   1.768   1.307   9.017 -0.2450  0.6108 -1.6768
  541MOL0     H74604   1.624   1.343   8.920  1.6860  1.8257 -0.9476
  541MOL0     H74605   1.694   1.064   9.019  0.2070 -3.1319 -0.7675
  541MOL0     H74606   1.553   1.101   8.936  0.2023  0.9606 -1.8088
  541MOL0     H74607   1.944   1.151   8.849 -0.8398 -1.1230  1.8386
  541MOL0     H74608   2.011   1.053   8.532 -1.7234 -1.4074  2.6582
  541MOL0     H74609   2.099   1.142   8.643 -0.0360 -1.5468 -0.9465
  541MOL0     H74610   2.099   1.226   8.396 -2.0020  1.3698 -1.9748
  541MOL0     H74611   1.957   1.305   8.432  0.8411  0.5409 -1.6541
  541MOL0     H74612   2.217   1.353   8.587 -0.9118  1.1231  3.1747
  541MOL0     H74613   2.136   1.454   8.460 -0.1470  1.8499  2.0692
  541MOL0     H74614   1.939   1.485   8.603  0.7776 -1.6113 -0.4662
  541MOL0     H74615   2.034   1.433   8.747 -0.7840  0.4186  0.7349
  541MOL0     H74616   2.167   1.853   8.690 -0.9828 -0.5772  0.1588
  541MOL0     H74617   2.251   2.080   8.521 -0.9769  0.4336 -0.5050
  541MOL0     H74618   2.189   2.059   8.692 -0.1109  0.0561  0.2170
  541MOL0     H74619   2.095   2.150   8.571 -1.1978 -0.9244  2.1787
  541MOL0     H74620   1.826   2.345   8.438  0.7404 -1.6072  0.1788
  541MOL0     H74621   1.755   2.544   8.347 -1.1721 -1.8990  1.6494
  541MOL0     H74622   1.727   2.740   8.201  0.0857 -1.3345 -0.8032
  541MOL0     H74623   1.858   2.754   8.333 -0.7135  0.3075  0.6110
  541MOL0     H74624   1.807   2.986   8.283  0.7859  0.7597  0.3096
  541MOL0     H74625   1.956   2.947   8.206  0.3091 -1.5517  0.5655
  541MOL0     H74626   1.705   2.939   8.031  1.3504 -3.0546 -1.0920
  541MOL0     H74627   1.871   2.931   7.988  1.3623  2.0737  0.5818
  541MOL0     H74628   1.912   3.153   8.084  0.9152  1.2580 -1.8727
  541MOL0     H74629   1.740   3.187   8.097  0.0982 -1.2287  0.7659
  541MOL0     H74630   1.911   3.102   7.838 -0.6683 -0.3133  0.1850
  541MOL0     H74631   1.731   3.108   7.851 -0.1076  0.7819  0.4658
  541MOL0     H74632   1.947   3.323   7.855  1.4262 -0.9221 -3.1362
  541MOL0     H74633   1.783   3.350   7.928 -0.6643 -1.2383  0.6116
  541MOL0     H74634   1.684   3.271   7.688  0.7950 -0.7576 -0.4778
  541MOL0     H74635   1.841   3.285   7.624 -0.9191  0.7141 -1.4005
  541MOL0     H74636   1.813   3.495   7.585  2.4095  1.1786  1.3196
  541MOL0     H74637   1.796   3.537   7.761  1.5560  0.1267 -0.7248
  541MOL0     H74638   2.079   2.508   8.049  0.0440 -0.7533 -0.2429
  541MOL0     H74639   2.128   2.280   8.148 -0.2995 -0.9451  0.2751
  541MOL0     H74640   1.904   1.811   8.288 -1.7553  3.2633 -0.0700
  541MOL0     H74641   1.940   1.607   8.435 -1.8746  0.9709 -1.0692
  541MOL0     H74642   1.282   1.965   9.152  2.4490 -0.4162  0.5584
  541MOL0     H74643   1.235   2.206   9.150  0.5301 -1.6603 -1.6298
  541MOL0     H74644   1.325   2.605   9.327  0.7046  0.7255  3.2204
  541MOL0     H74645   1.286   2.842   9.357  1.2811 -1.9660 -2.7017
  541MOL0     H74646   0.893   3.051   9.357  1.7427 -1.6435 -0.0531
  541MOL0     H74647   0.883   2.945   9.510 -1.7198  2.6005  3.4146
  541MOL0     H74648   1.040   3.192   9.501 -1.4133  0.5564 -2.2805
  541MOL0     H74649   0.984   3.091   9.633 -0.1652  1.3671  1.3942
  541MOL0     H74650   0.803   3.280   9.473 -0.9445 -0.3622  0.2820
  541MOL0     H74651   0.745   3.142   9.565 -1.1582  0.9176 -1.0073
  541MOL0     H74652   0.812   3.219   9.771  0.4763 -2.3346 -1.0858
  541MOL0     H74653   0.747   3.359   9.668  0.6161  0.1876  0.2596
  541MOL0     H74654   1.132   3.508   9.746  1.3518 -2.7642 -0.9182
  541MOL0     H74655   0.864   2.786   9.391  0.3780 -0.5456  2.4503
  541MOL0     H74656   0.800   2.561   9.247 -1.0472  0.7464  0.8449
  541MOL0     H74657   0.874   2.426   9.353  0.5847 -0.0319  2.3515
  541MOL0     H74658   0.802   2.544   9.432 -0.9584  0.7943 -0.6539
  542MOL0     O74659   1.472   0.240   9.910  0.5109  0.2608 -0.5299
  542MOL0     C74660   1.488   0.165   9.814 -0.2103  0.3025  0.3920
  542MOL0     O74661   1.446   0.189   9.689  0.2977 -0.4275  0.5403
  542MOL0     C74662   1.379   0.304   9.657 -0.0371 -0.5563  0.1525
  542MOL0     C74663   1.424   0.398   9.558 -0.8784  0.4505 -0.1267
  542MOL0     C74664   1.336   0.504   9.520 -0.9899  0.1847  0.0882
  542MOL0     C74665   1.199   0.512   9.571 -0.8084 -0.6738 -0.2565
  542MOL0     O74666   1.117   0.616   9.538  0.4877 -0.0759  0.1913
  542MOL0     C74667   0.969   0.601   9.530 -0.1257  0.0222  0.1493
  542MOL0     C74668   0.907   0.718   9.455 -0.1183 -0.6384  0.7943
  542MOL0     C74669   0.972   0.758   9.323  0.3631 -0.3476 -0.1240
  542MOL0     C74670   0.883   0.846   9.242  0.8728  0.0739  0.5186
  542MOL0     C74671   0.861   0.979   9.317 -1.0266  0.2084  0.1952
  542MOL0     C74672   0.780   1.081   9.241  0.8039  0.1303 -0.1522
  542MOL0     C74673   0.721   1.179   9.328 -0.3699 -0.8181 -0.9672
  542MOL0     C74674   0.671   1.292   9.251  0.2258  0.3327 -0.8257
  542MOL0     N74675   0.546   1.257   9.179  1.0638 -0.0681 -0.8839
  542MOL0     C74676   0.428   1.212   9.230 -0.4582  1.2288 -0.0239
  542MOL0     C74677   0.352   1.210   9.121  0.0906  0.3647 -0.2815
  542MOL0     C74678   0.214   1.156   9.113 -0.6354  0.0183  0.0322
  542MOL0     C74679   0.119   1.237   9.209 -0.5523 -0.3221  0.6871
  542MOL0     C74680  -0.016   1.163   9.225 -0.4667 -0.5994  0.3794
  542MOL0     C74681  -0.114   1.252   9.297  0.3511 -0.1801 -1.8351
  542MOL0     O74682  -0.231   1.181   9.329 -0.3373  0.3657 -0.0895
  542MOL0     C74683  -0.326   1.233   9.413  0.4141 -0.0315 -0.5716
  542MOL0     C74684  -0.304   1.354   9.489  0.3491  0.0303  0.5803
  542MOL0     C74685  -0.407   1.409   9.567  0.4135  0.0523  1.2737
  542MOL0     C74686  -0.372   1.530   9.639  0.1545  0.0627  0.1966
  542MOL0     C74687  -0.535   1.350   9.557  0.3366 -0.0667 -0.5363
  542MOL0     C74688  -0.653   1.410   9.628  0.8842 -0.5586  0.9282
  542MOL0     O74689  -0.752   1.329   9.651 -0.0610  0.6933  0.4771
  542MOL0     C74690  -0.882   1.373   9.636  0.4135 -0.6020  0.3168
  542MOL0     C74691  -0.964   1.377   9.749 -0.3478 -0.7771 -0.4611
  542MOL0     C74692  -1.100   1.391   9.748  0.0030 -0.2123  0.6219
  542MOL0     C74693  -1.164   1.425   9.632 -0.0286 -0.8603 -0.5022
  542MOL0     O74694  -1.297   1.427   9.647  0.5421 -0.1424 -0.3727
  542MOL0     C74695  -1.379   1.534   9.610 -0.0956  0.7173 -0.9654
  542MOL0     C74696  -1.497   1.472   9.533 -0.4135 -0.5618  0.2745
  542MOL0     C74697  -1.573   1.382   9.624  0.2911  0.0167  0.2508
  542MOL0     C74698  -1.721   1.418   9.610  0.3287  0.2059 -0.5191
  542MOL0     C74699  -1.798   1.300   9.670  0.6310  0.4153 -0.1653
  542MOL0     C74700  -1.943   1.352   9.697  0.8191  0.5719 -0.1732
  542MOL0     C74701  -2.037   1.264   9.787  0.9991 -0.8577 -0.4586
  542MOL0     C74702  -1.962   1.246   9.922  0.5401  0.3227  0.5443
  542MOL0    Cl74703  -2.059   1.170  10.055  0.3076 -0.5166  0.4810
  542MOL0     C74704  -1.095   1.434   9.511  0.9479  0.0014 -0.2174
  542MOL0     C74705  -0.958   1.401   9.512  0.1024 -0.1930  0.3690
  542MOL0     O74706  -0.655   1.535   9.640  0.4144  0.3016  0.6803
  542MOL0     C74707  -0.557   1.220   9.497 -1.1956 -0.2990  0.0361
  542MOL0     C74708  -0.451   1.157   9.429 -0.2400  0.4465 -0.3619
  542MOL0     N74709   0.410   1.272   9.012  0.1986 -0.0251  0.1587
  542MOL0     N74710   0.526   1.290   9.046  0.1948 -0.5655  0.6213
  542MOL0     C74711   1.156   0.416   9.664 -0.7517  0.0757 -0.7648
  542MOL0     C74712   1.251   0.320   9.705 -1.0509 -0.7395  0.0005
  542MOL0     C74713   1.565   0.038   9.832  0.2807  0.0408  0.1083
  542MOL0     C74714   1.529  -0.066   9.746  0.2287 -0.8629 -0.3577
  542MOL0     C74715   1.589  -0.192   9.754 -0.3844  0.5373  0.8785
  542MOL0     C74716   1.689  -0.221   9.846  0.3540 -0.1689  0.1953
  542MOL0     O74717   1.726  -0.357   9.853 -0.9229  0.0650  0.1157
  542MOL0     C74718   1.821  -0.402   9.940 -1.3004 -1.0215  0.2992
  542MOL0     C74719   1.961  -0.403   9.885 -0.8311 -0.4332  1.0115
  542MOL0     C74720   2.061  -0.409  10.002  0.1268  0.2757  0.6736
  542MOL0     C74721   2.067  -0.548  10.063  0.2762 -0.0190  0.0807
  542MOL0     C74722   2.072  -0.657   9.970 -0.8591  0.1805 -0.0671
  542MOL0     C74723   2.076  -0.750   9.890  0.2469  0.0494 -0.0428
  542MOL0     C74724   1.733  -0.119   9.935  0.2460  0.8422 -1.1449
  542MOL0     C74725   1.669   0.009   9.929 -0.0698  0.5819 -0.1063
  542MOL0     C74726   1.721   0.114  10.027  0.9658  0.1016 -0.2088
  542MOL0     H74727   1.527   0.394   9.522 -0.3981  3.2007  0.6620
  542MOL0     H74728   1.373   0.573   9.445 -1.8267  0.4529 -0.0858
  542MOL0     H74729   0.909   0.600   9.621 -0.0224 -0.8536  0.2213
  542MOL0     H74730   0.949   0.520   9.460 -2.3746  1.4801 -1.0034
  542MOL0     H74731   0.804   0.693   9.429 -0.3766 -0.5113  1.6724
  542MOL0     H74732   0.894   0.804   9.520 -1.7242  2.4308 -3.1342
  542MOL0     H74733   1.065   0.813   9.341  1.6271 -2.0569 -1.1326
  542MOL0     H74734   1.000   0.665   9.273  0.6449  0.5989 -1.8082
  542MOL0     H74735   0.937   0.876   9.152  2.6369 -0.3451  1.3879
  542MOL0     H74736   0.789   0.800   9.211  0.2228  1.7177 -0.0809
  542MOL0     H74737   0.948   1.029   9.360 -0.8958  2.3745 -2.3241
  542MOL0     H74738   0.790   0.946   9.393 -0.2770  0.0504  0.8317
  542MOL0     H74739   0.848   1.130   9.170 -1.4612  2.9353 -0.5644
  542MOL0     H74740   0.701   1.022   9.193  0.0716  0.2569  0.8500
  542MOL0     H74741   0.802   1.218   9.391 -2.0198 -1.5619  1.7351
  542MOL0     H74742   0.642   1.133   9.388  0.2519 -1.7219 -0.8138
  542MOL0     H74743   0.637   1.368   9.322 -0.0604 -0.2938 -0.2782
  542MOL0     H74744   0.748   1.322   9.180  1.2208 -4.0440 -1.8965
  542MOL0     H74745   0.416   1.179   9.333  0.9662 -2.0518 -0.7631
  542MOL0     H74746   0.220   1.052   9.145  1.4039 -0.0163 -0.3023
  542MOL0     H74747   0.191   1.172   9.007 -1.1954 -0.0240  0.1447
  542MOL0     H74748   0.155   1.224   9.311 -2.0724 -2.9742  0.9807
  542MOL0     H74749   0.119   1.345   9.193  1.2485  0.7752  6.0939
  542MOL0     H74750  -0.053   1.118   9.132 -0.2795 -1.6861  0.8124
  542MOL0     H74751   0.006   1.067   9.274  0.4412 -1.2772 -1.2810
  542MOL0     H74752  -0.066   1.281   9.390 -0.7848 -1.1443 -0.9224
  542MOL0     H74753  -0.145   1.340   9.239 -2.7177  0.8233  1.0120
  542MOL0     H74754  -0.209   1.406   9.477 -0.9568  2.4559  0.0057
  542MOL0     H74755  -0.392   1.617   9.575  0.3702  1.3433  1.8206
  542MOL0     H74756  -0.267   1.547   9.664 -0.3146 -0.0840  2.5082
  542MOL0     H74757  -0.436   1.544   9.726 -1.6489 -1.1925 -0.8504
  542MOL0     H74758  -0.927   1.369   9.850  0.3764  2.9749 -0.3087
  542MOL0     H74759  -1.145   1.382   9.846 -0.4051 -1.8508  0.3239
  542MOL0     H74760  -1.411   1.589   9.699  1.7858  1.1812 -0.5252
  542MOL0     H74761  -1.325   1.599   9.540 -2.0898  2.0271 -1.3695
  542MOL0     H74762  -1.558   1.544   9.477  0.0477  0.1552  0.6767
  542MOL0     H74763  -1.440   1.418   9.458  0.2084 -0.1968  0.4779
  542MOL0     H74764  -1.547   1.388   9.730  1.8212 -1.1831 -0.0165
  542MOL0     H74765  -1.562   1.276   9.599  1.2675 -0.3722  2.1175
  542MOL0     H74766  -1.746   1.443   9.506  0.7598  0.4615 -0.5634
  542MOL0     H74767  -1.746   1.507   9.669 -1.2956 -0.2751 -0.4251
  542MOL0     H74768  -1.807   1.213   9.604 -3.1420 -0.2618  1.0172
  542MOL0     H74769  -1.760   1.272   9.769 -3.4350 -1.1220  1.1657
  542MOL0     H74770  -1.981   1.379   9.598  1.0798  1.1348 -0.1220
  542MOL0     H74771  -1.930   1.444   9.754  1.7170  0.2681  0.1360
  542MOL0     H74772  -2.074   1.167   9.754 -3.0728 -0.0540  1.1534
  542MOL0     H74773  -2.130   1.316   9.811  0.6560 -2.3384  1.6813
  542MOL0     H74774  -1.929   1.338   9.970 -1.0806 -0.5554  3.5697
  542MOL0     H74775  -1.877   1.181   9.898  0.4518 -0.0707  1.2760
  542MOL0     H74776  -1.154   1.443   9.420  1.9406 -1.4686 -1.0536
  542MOL0     H74777  -0.907   1.394   9.416  0.0330 -0.8350  0.3746
  542MOL0     H74778  -0.641   1.152   9.507 -0.8040 -0.9827 -1.0527
  542MOL0     H74779  -0.464   1.061   9.381 -1.8059  0.2341  0.4256
  542MOL0     H74780   1.060   0.425   9.715 -0.2733 -3.1649  0.9535
  542MOL0     H74781   1.206   0.243   9.767 -1.4541 -0.3078  0.2573
  542MOL0     H74782   1.454  -0.056   9.669 -0.7688 -0.0475  0.6884
  542MOL0     H74783   1.550  -0.276   9.698  3.5110 -1.5146  0.9084
  542MOL0     H74784   1.821  -0.352  10.038 -1.5498  1.5251 -0.9140
  542MOL0     H74785   1.808  -0.506   9.972  0.4801 -2.2698 -2.6341
  542MOL0     H74786   1.982  -0.308   9.834  2.4149 -0.3285  2.2915
  542MOL0     H74787   1.986  -0.472   9.803 -1.2028  0.0617  0.4757
  542MOL0     H74788   2.165  -0.390   9.973  0.2710  1.2763  1.7829
  542MOL0     H74789   2.033  -0.337  10.079  1.1538  0.2080  1.1140
  542MOL0     H74790   1.972  -0.569  10.114  0.6936  0.5926  1.1419
  542MOL0     H74791   2.149  -0.553  10.134 -1.3740 -0.0968  2.0773
  542MOL0     H74792   2.085  -0.816   9.806 -0.9298  0.9718 -0.9400
  542MOL0     H74793   1.803  -0.146  10.013 -0.7652  2.3626  0.3488
  542MOL0     H74794   1.719   0.211   9.978 -1.9921 -0.2472 -0.9464
  542MOL0     H74795   1.648   0.129  10.107  0.4376  3.6496 -1.1893
  542MOL0     H74796   1.820   0.088  10.066  1.1114  2.1467  0.9474
  543MOL0     O74797   7.942   1.761  11.150  0.2922 -0.1878  0.2027
  543MOL0     C74798   8.035   1.818  11.106 -0.1445 -0.1606  0.7642
  543MOL0     O74799   8.110   1.910  11.174 -0.3957  0.1109  1.1490
  543MOL0     C74800   8.066   1.975  11.281  0.6434  1.1703 -0.1855
  543MOL0     C74801   7.933   1.981  11.328 -0.2717  0.1650 -1.3264
  543MOL0     C74802   7.905   2.028  11.459 -1.0438  1.0576  0.4564
  543MOL0     C74803   8.006   2.063  11.545  0.3589  0.5553 -0.2204
  543MOL0     O74804   7.969   2.091  11.675  0.6534  0.3892  0.4163
  543MOL0     C74805   8.068   2.079  11.777 -0.1418 -0.2204 -0.2903
  543MOL0     C74806   7.999   2.059  11.910  0.5390  0.0223  0.2437
  543MOL0     C74807   7.933   1.926  11.915  1.0925  0.5009 -0.0762
  543MOL0     C74808   7.855   1.891  12.047 -0.4141  0.3887 -0.3756
  543MOL0     C74809   7.811   1.740  12.053 -0.0851 -1.4847 -0.0717
  543MOL0     C74810   7.709   1.696  11.952 -0.1128  0.1537  0.7184
  543MOL0     C74811   7.613   1.793  11.905  0.2399 -0.3988 -0.1348
  543MOL0     C74812   7.521   1.730  11.803  0.6154 -0.0214 -0.3548
  543MOL0     N74813   7.588   1.685  11.686 -0.0780  0.6384  0.3869
  543MOL0     C74814   7.699   1.742  11.618  0.1035 -0.2076 -0.0070
  543MOL0     C74815   7.750   1.633  11.561 -0.2010 -0.4457 -0.0775
  543MOL0     C74816   7.875   1.628  11.491 -0.3737  0.3523  0.1735
  543MOL0     C74817   7.984   1.669  11.590  0.1315 -0.4793  0.5065
  543MOL0     C74818   8.122   1.678  11.523  0.6266  0.4230  0.4011
  543MOL0     C74819   8.200   1.556  11.537  0.1616 -0.2565  0.3550
  543MOL0     O74820   8.255   1.558  11.666 -0.5476  0.6464  0.2184
  543MOL0     C74821   8.214   1.451  11.744 -0.1715 -0.6129 -0.8984
  543MOL0     C74822   8.192   1.486  11.873  0.0221  0.5867 -0.4525
  543MOL0     C74823   8.145   1.388  11.965 -0.0751  0.8019  0.7611
  543MOL0     C74824   8.113   1.429  12.104 -0.7863  0.2807  0.5315
  543MOL0     C74825   8.131   1.253  11.922 -0.1798 -0.2176  0.4991
  543MOL0     C74826   8.072   1.135  12.008  0.0813 -0.0895  0.2284
  543MOL0     O74827   8.054   1.010  11.953 -0.3942 -0.3610 -0.4081
  543MOL0     C74828   7.978   0.929  12.024 -0.3513  0.0830 -0.7519
  543MOL0     C74829   7.838   0.918  11.999  1.0440 -0.3587 -0.5236
  543MOL0     C74830   7.766   0.838  12.083  0.4578  0.0334  0.1525
  543MOL0     C74831   7.822   0.771  12.188 -0.2227  0.1107 -0.0255
  543MOL0     O74832   7.749   0.704  12.267  0.4405  0.3318  0.3793
  543MOL0     C74833   7.767   0.559  12.275  0.7334 -0.5198  0.1915
  543MOL0     C74834   7.693   0.493  12.156  0.4638  0.0627 -0.8946
  543MOL0     C74835   7.546   0.535  12.160  0.7390 -0.6035  0.3852
  543MOL0     C74836   7.478   0.472  12.041  0.8399  0.6737  0.4703
  543MOL0     C74837   7.322   0.505  12.056  0.7044  1.2965  0.4275
  543MOL0     C74838   7.304   0.653  12.033 -0.2305  0.3669 -0.0770
  543MOL0     C74839   7.150   0.697  12.085 -0.7151 -0.2642  0.2445
  543MOL0     C74840   7.127   0.850  12.087 -0.7193 -0.8374  0.7096
  543MOL0    Cl74841   7.058   0.894  11.926 -0.4442 -0.5073 -0.0092
  543MOL0     C74842   7.960   0.761  12.199  0.0411  0.0466  0.6529
  543MOL0     C74843   8.040   0.842  12.114  0.1162 -1.0449  0.0563
  543MOL0     O74844   8.016   1.175  12.115  0.4178 -0.4617 -0.4748
  543MOL0     C74845   8.151   1.222  11.783 -0.9032 -0.0316 -0.0865
  543MOL0     C74846   8.205   1.320  11.697 -0.3450 -0.7606 -0.3440
  543MOL0     N74847   7.669   1.523  11.577  0.7860  0.3613 -0.5098
  543MOL0     N74848   7.566   1.563  11.639  0.6216 -0.3676 -0.0128
  543MOL0     C74849   8.146   2.058  11.499 -0.0257 -1.2312  0.9110
  543MOL0     C74850   8.168   2.025  11.362 -0.1039 -0.3857  0.2074
  543MOL0     C74851   8.098   1.786  10.962  0.4861 -0.0481 -0.7377
  543MOL0     C74852   8.227   1.837  10.928 -0.4016  0.1260 -0.8685
  543MOL0     C74853   8.268   1.865  10.800  0.0671 -0.2796 -0.8379
  543MOL0     C74854   8.197   1.810  10.696  0.0464  0.8859 -0.3847
  543MOL0     O74855   8.214   1.809  10.560  0.1128 -0.7196 -0.5169
  543MOL0     C74856   8.172   1.923  10.495  1.2676  0.5401  0.6282
  543MOL0     C74857   8.190   1.884  10.350 -0.2265 -0.1035  1.2441
  543MOL0     C74858   8.325   1.909  10.279 -0.1210 -0.6253  0.1083
  543MOL0     C74859   8.445   1.864  10.366 -0.5930  0.1187 -0.7312
  543MOL0     C74860   8.567   1.862  10.288  0.6142  0.3989 -0.0194
  543MOL0     C74861   8.664   1.856  10.232  0.1525 -0.0649 -1.2631
  543MOL0     C74862   8.074   1.744  10.725 -0.2083 -0.4153  0.4456
  543MOL0     C74863   8.022   1.733  10.854  0.6044 -0.0957 -0.3863
  543MOL0     C74864   7.889   1.679  10.887  0.0281  0.3712  0.4206
  543MOL0     H74865   7.855   1.938  11.264 -0.6279 -1.9267  0.4012
  543MOL0     H74866   7.802   2.025  11.494 -0.2978 -2.9101  2.9920
  543MOL0     H74867   8.125   2.172  11.780  2.0234 -1.4894  2.3854
  543MOL0     H74868   8.131   1.994  11.747 -0.2432 -0.1806 -0.6199
  543MOL0     H74869   8.077   2.085  11.982  1.3732  3.6735 -1.6923
  543MOL0     H74870   7.927   2.142  11.915  1.1741  0.6000  0.0500
  543MOL0     H74871   7.869   1.921  11.826  0.2465  1.6871  0.4392
  543MOL0     H74872   8.015   1.854  11.912  0.4631 -0.2049 -0.9682
  543MOL0     H74873   7.932   1.902  12.123  0.3104  0.3977 -1.1034
  543MOL0     H74874   7.772   1.959  12.071  1.5609  1.9056  2.7269
  543MOL0     H74875   7.776   1.712  12.153 -5.4579  0.4719 -1.1001
  543MOL0     H74876   7.902   1.680  12.049  0.0977 -1.3217  1.1240
  543MOL0     H74877   7.771   1.657  11.871 -1.8407 -2.2938  0.4556
  543MOL0     H74878   7.652   1.607  11.980 -0.3417 -0.1646 -0.6813
  543MOL0     H74879   7.663   1.880  11.863  0.4358  0.2303  1.3425
  543MOL0     H74880   7.551   1.821  11.991 -0.5882  2.3446 -1.5143
  543MOL0     H74881   7.473   1.649  11.860  1.8958  0.8170  2.0552
  543MOL0     H74882   7.443   1.796  11.765 -0.4925 -1.9655 -1.6502
  543MOL0     H74883   7.733   1.844  11.625 -0.8864  0.1767 -0.5030
  543MOL0     H74884   7.865   1.702  11.410  0.0281  0.7965  0.5195
  543MOL0     H74885   7.890   1.522  11.471 -1.5534  0.1507  0.2925
  543MOL0     H74886   7.956   1.773  11.611 -0.8509 -0.4190 -1.0126
  543MOL0     H74887   7.990   1.601  11.675  1.5916 -0.1389  0.7009
  543MOL0     H74888   8.118   1.701  11.416 -0.7423 -0.0742  0.3132
  543MOL0     H74889   8.176   1.763  11.565 -0.0063  1.0211  0.0414
  543MOL0     H74890   8.158   1.459  11.508  2.2728 -1.6772  1.8388
  543MOL0     H74891   8.289   1.559  11.475  0.8716 -5.8723  0.5965
  543MOL0     H74892   8.213   1.590  11.894 -1.4082  1.3650 -2.5714
  543MOL0     H74893   8.134   1.536  12.111  0.0966  0.2498 -1.0275
  543MOL0     H74894   8.165   1.365  12.176  1.2492  1.1984 -0.0428
  543MOL0     H74895   8.005   1.416  12.111 -0.5805 -0.8629  1.9664
  543MOL0     H74896   7.789   0.952  11.908 -1.2319 -3.7945 -0.7463
  543MOL0     H74897   7.659   0.833  12.068  0.3574 -1.1317  1.0930
  543MOL0     H74898   7.873   0.529  12.279  0.9211  0.0524 -0.4419
  543MOL0     H74899   7.731   0.520  12.371 -0.9545  0.9952  0.2199
  543MOL0     H74900   7.736   0.542  12.067  0.5275  2.4858  0.3767
  543MOL0     H74901   7.711   0.386  12.161 -0.9336 -0.1749 -0.6130
  543MOL0     H74902   7.537   0.644  12.157  0.1616 -0.6597 -0.7034
  543MOL0     H74903   7.491   0.510  12.250  1.4307 -0.1274  0.9487
  543MOL0     H74904   7.499   0.365  12.030  1.4166  0.9485 -1.3561
  543MOL0     H74905   7.507   0.515  11.945  2.1119  1.5961  1.2298
  543MOL0     H74906   7.275   0.448  11.975  3.6263  2.3093 -2.2038
  543MOL0     H74907   7.273   0.480  12.150  0.9210  1.6896  0.6495
  543MOL0     H74908   7.314   0.680  11.927 -0.4653  1.3125  0.1273
  543MOL0     H74909   7.367   0.714  12.098  3.4398 -2.3051 -0.8577
  543MOL0     H74910   7.136   0.656  12.185 -0.5984 -0.9537 -0.0169
  543MOL0     H74911   7.084   0.641  12.018  2.2954 -1.0148 -2.3341
  543MOL0     H74912   7.223   0.901  12.097 -1.5697  0.7633  1.1145
  543MOL0     H74913   7.066   0.884  12.171 -0.3284  1.2476  0.2097
  543MOL0     H74914   8.004   0.698  12.276  0.1292 -0.0280  0.5416
  543MOL0     H74915   8.148   0.840  12.110  0.1740 -2.7431  1.2723
  543MOL0     H74916   8.133   1.123  11.743 -0.2073 -0.1651 -0.0900
  543MOL0     H74917   8.238   1.274  11.604 -1.7318 -0.2201 -1.1361
  543MOL0     H74918   8.236   2.082  11.553  1.2867 -0.9368 -1.3002
  543MOL0     H74919   8.266   2.008  11.320 -0.4138 -0.7373 -0.3779
  543MOL0     H74920   8.286   1.895  10.997 -2.1129  2.2490 -1.0657
  543MOL0     H74921   8.361   1.919  10.793  1.7076 -1.7590  4.8247
  543MOL0     H74922   8.067   1.949  10.509  0.8642 -0.4609 -0.4465
  543MOL0     H74923   8.239   2.006  10.524 -0.0286  0.5724  4.0758
  543MOL0     H74924   8.124   1.959  10.304  1.8387  0.1462 -1.5642
  543MOL0     H74925   8.156   1.780  10.341  0.4028 -0.1788 -0.7568
  543MOL0     H74926   8.319   1.852  10.185 -1.8424 -0.6895  0.2182
  543MOL0     H74927   8.335   2.016  10.261 -3.0460 -0.0366  1.4937
  543MOL0     H74928   8.425   1.766  10.413  1.8921  0.9724  2.4893
  543MOL0     H74929   8.454   1.941  10.442  1.2935 -0.1057 -0.6878
  543MOL0     H74930   8.764   1.859  10.193  0.6593  1.4941  0.0284
  543MOL0     H74931   8.013   1.718  10.638 -0.1127 -2.3178  0.8929
  543MOL0     H74932   7.858   1.619  10.801  0.8703  1.0221 -0.3670
  543MOL0     H74933   7.889   1.609  10.971  0.8246 -2.7590 -1.9962
  543MOL0     H74934   7.820   1.763  10.903 -0.8559  0.3744 -2.7436
  544MOL0     O74935  10.222   2.855   6.967  0.4978 -0.2292 -0.3456
  544MOL0     C74936  10.344   2.850   7.000 -0.0727  0.1965  0.5107
  544MOL0     O74937  10.401   2.875   7.121  0.4556 -0.0060  0.1652
  544MOL0     C74938  10.306   2.920   7.211 -0.3954  0.3594  0.0951
  544MOL0     C74939  10.241   2.831   7.298 -0.5389  0.6647  0.3916
  544MOL0     C74940  10.177   2.872   7.413  1.2563 -0.4175 -0.5624
  544MOL0     C74941  10.155   3.010   7.437 -0.7445  0.2133 -0.2575
  544MOL0     O74942  10.099   3.057   7.560  0.4325 -0.5039  0.5466
  544MOL0     C74943  10.178   3.150   7.631 -0.8288 -0.1750 -0.4952
  544MOL0     C74944  10.086   3.178   7.758 -0.0994  0.9289  0.4064
  544MOL0     C74945  10.059   3.325   7.779 -0.1031 -0.3630 -0.1827
  544MOL0     C74946   9.992   3.356   7.923 -0.2026  0.4064  0.2437
  544MOL0     C74947   9.989   3.497   7.972 -1.5138  0.1448 -0.0135
  544MOL0     C74948   9.894   3.578   7.886 -0.6531 -1.2992 -0.6931
  544MOL0     C74949   9.863   3.702   7.965 -0.0734 -0.0119 -0.4206
  544MOL0     C74950   9.775   3.802   7.892  0.8590  0.3012  0.3234
  544MOL0     N74951   9.661   3.736   7.826 -0.2052 -0.3066  0.1711
  544MOL0     C74952   9.628   3.770   7.704 -0.3486  0.3485  0.7788
  544MOL0     C74953   9.500   3.721   7.683  0.3503 -0.1340 -0.1521
  544MOL0     C74954   9.413   3.754   7.567  0.1140  0.3875  0.2279
  544MOL0     C74955   9.371   3.627   7.483 -0.3836  0.1748 -0.1360
  544MOL0     C74956   9.280   3.676   7.368  0.1839 -0.3214  0.1531
  544MOL0     C74957   9.281   3.580   7.256  0.4814  0.1935 -0.0388
  544MOL0     O74958   9.185   3.481   7.267  0.2423 -0.3570 -0.8422
  544MOL0     C74959   9.212   3.366   7.198 -0.0109 -0.5344  0.4371
  544MOL0     C74960   9.302   3.275   7.253 -0.1123 -0.1717  0.5599
  544MOL0     C74961   9.334   3.140   7.206  0.4347 -0.2272 -0.3594
  544MOL0     C74962   9.433   3.059   7.288  0.2836 -0.3541 -0.3767
  544MOL0     C74963   9.271   3.115   7.076  0.2075 -0.2765 -0.7934
  544MOL0     C74964   9.310   2.990   7.004  0.1489  0.6272 -0.4732
  544MOL0     O74965   9.433   2.929   7.023  0.1309 -0.4675  0.1634
  544MOL0     C74966   9.461   2.810   6.978  1.0024  0.8790  0.5230
  544MOL0     C74967   9.420   2.764   6.852 -0.3603 -0.3099  0.3543
  544MOL0     C74968   9.475   2.642   6.798  0.1532  0.3658  0.3225
  544MOL0     C74969   9.544   2.561   6.881  0.2274  0.1897  0.5994
  544MOL0     O74970   9.589   2.445   6.819  0.1176  0.4987  0.4540
  544MOL0     C74971   9.513   2.324   6.862  0.2078  0.2144  0.2546
  544MOL0     C74972   9.592   2.191   6.854 -0.1474 -0.7592 -0.5543
  544MOL0     C74973   9.595   2.127   6.716  0.9520 -0.2283  0.0598
  544MOL0     C74974   9.651   1.984   6.726 -0.3776  0.0749  0.0158
  544MOL0     C74975   9.603   1.919   6.590 -0.0374  0.5781  0.1058
  544MOL0     C74976   9.603   1.762   6.607  0.2816 -0.2634  0.3127
  544MOL0     C74977   9.566   1.705   6.469  0.7077  0.1096 -0.4647
  544MOL0     C74978   9.540   1.559   6.468  0.5509  0.9534  0.2481
  544MOL0    Cl74979   9.433   1.538   6.334  0.3552 -0.0108  0.1395
  544MOL0     C74980   9.580   2.608   7.011  0.4328 -0.0520 -0.5265
  544MOL0     C74981   9.542   2.736   7.056 -0.3150  0.4017 -0.8975
  544MOL0     O74982   9.224   2.958   6.919 -0.0091  0.3919 -0.1946
  544MOL0     C74983   9.190   3.212   7.012 -0.9616 -0.1162 -0.1494
  544MOL0     C74984   9.145   3.325   7.080  0.3768 -0.2668 -0.2260
  544MOL0     N74985   9.466   3.648   7.800 -0.0154 -0.4041 -0.1941
  544MOL0     N74986   9.566   3.653   7.882  0.3901 -0.8841  0.1140
  544MOL0     C74987  10.205   3.098   7.342 -0.6646  0.5412  0.6307
  544MOL0     C74988  10.283   3.052   7.225 -0.7086  0.2085  0.7057
  544MOL0     C74989  10.417   2.812   6.868 -0.6603  0.7182  0.1353
  544MOL0     C74990  10.366   2.718   6.773  0.6729 -0.4353  0.6203
  544MOL0     C74991  10.446   2.660   6.675  0.4976  0.7515 -0.2840
  544MOL0     C74992  10.581   2.696   6.660 -0.9318 -0.0885 -0.0684
  544MOL0     O74993  10.664   2.625   6.572  0.4355 -0.2269 -0.1377
  544MOL0     C74994  10.808   2.638   6.574  0.2772 -0.1150  0.5980
  544MOL0     C74995  10.868   2.568   6.693 -0.0060 -0.6813  0.1977
  544MOL0     C74996  11.014   2.552   6.695  0.2736 -0.0313 -0.5193
  544MOL0     C74997  11.098   2.676   6.694  0.4423 -1.2207  0.2317
  544MOL0     C74998  11.064   2.774   6.799  1.1248  0.5509 -0.7134
  544MOL0     C74999  11.026   2.848   6.888 -0.1129  0.2895 -0.7249
  544MOL0     C75000  10.628   2.802   6.743 -0.2909 -0.6967 -0.4692
  544MOL0     C75001  10.553   2.863   6.849  0.8447  0.1348  0.3513
  544MOL0     C75002  10.605   2.978   6.928 -1.0103  0.1155 -0.6132
  544MOL0     H75003  10.258   2.724   7.286 -2.0090  0.4063  0.4149
  544MOL0     H75004  10.124   2.803   7.479 -0.0640 -1.1560 -2.3131
  544MOL0     H75005  10.204   3.243   7.581  1.5827 -2.5735 -4.2099
  544MOL0     H75006  10.273   3.110   7.667 -0.9655  1.4118  1.7802
  544MOL0     H75007   9.986   3.135   7.751 -0.6829  2.2215  0.3876
  544MOL0     H75008  10.143   3.134   7.840  0.3919 -2.7632 -1.7139
  544MOL0     H75009  10.153   3.380   7.770  0.2270 -0.9758 -0.4823
  544MOL0     H75010   9.988   3.344   7.698  0.4222 -3.3727 -1.4520
  544MOL0     H75011   9.891   3.317   7.907  0.0705  0.0109 -0.5278
  544MOL0     H75012  10.035   3.306   8.010 -2.3378 -0.6056  0.7800
  544MOL0     H75013  10.089   3.543   7.967 -0.6793 -1.6878 -1.7572
  544MOL0     H75014   9.960   3.494   8.077  1.6406  0.8018  0.9941
  544MOL0     H75015   9.944   3.615   7.796  0.6144  1.5303  1.0447
  544MOL0     H75016   9.803   3.529   7.849 -3.2854  1.7313  1.1340
  544MOL0     H75017   9.956   3.746   8.000 -0.9500  1.4480  0.1380
  544MOL0     H75018   9.807   3.670   8.053  2.6193  1.9068  2.1701
  544MOL0     H75019   9.727   3.861   7.970 -1.7870 -1.3591  0.0610
  544MOL0     H75020   9.838   3.859   7.822 -1.1617  0.8830 -1.1136
  544MOL0     H75021   9.687   3.831   7.636  1.7820 -2.5691 -0.1563
  544MOL0     H75022   9.459   3.832   7.506  1.2079  2.1321  3.0963
  544MOL0     H75023   9.320   3.797   7.605 -0.0528 -1.6664  2.3846
  544MOL0     H75024   9.467   3.584   7.451  1.0501  0.8225  2.8968
  544MOL0     H75025   9.327   3.554   7.552  0.1776 -1.0046 -0.9834
  544MOL0     H75026   9.177   3.699   7.396 -0.7014  1.4679 -3.9063
  544MOL0     H75027   9.330   3.766   7.334  2.6800 -1.1300  1.4112
  544MOL0     H75028   9.275   3.625   7.157  1.9378 -1.3714 -0.8933
  544MOL0     H75029   9.384   3.544   7.257  1.4107  2.6236 -0.9996
  544MOL0     H75030   9.350   3.315   7.342  0.3263  1.1206 -0.2226
  544MOL0     H75031   9.523   3.067   7.226 -1.3627  3.6665 -2.6410
  544MOL0     H75032   9.389   2.961   7.310  4.4542 -2.3668 -0.0420
  544MOL0     H75033   9.443   3.111   7.384  1.9215 -1.2045 -0.0513
  544MOL0     H75034   9.370   2.827   6.779 -0.9115 -1.3499 -0.1801
  544MOL0     H75035   9.454   2.612   6.696  1.6630 -1.0044  0.3837
  544MOL0     H75036   9.468   2.340   6.960 -1.0170 -0.8853 -0.1023
  544MOL0     H75037   9.430   2.316   6.791  0.4077  3.4206 -0.4918
  544MOL0     H75038   9.691   2.228   6.881 -0.8689  2.2225 -1.6365
  544MOL0     H75039   9.550   2.130   6.934 -1.4248 -0.7975 -1.2191
  544MOL0     H75040   9.649   2.183   6.640  0.3812 -0.9227 -0.8899
  544MOL0     H75041   9.490   2.130   6.684  0.0355  0.6038  2.8438
  544MOL0     H75042   9.609   1.935   6.814  0.3302  1.0537  0.9376
  544MOL0     H75043   9.760   1.991   6.739 -0.4482  2.0213 -0.1343
  544MOL0     H75044   9.498   1.944   6.571 -1.3972 -4.8120 -1.2289
  544MOL0     H75045   9.672   1.955   6.513 -1.9090  0.2300 -1.8157
  544MOL0     H75046   9.538   1.736   6.692  1.4513 -0.3422  1.2181
  544MOL0     H75047   9.708   1.740   6.626  1.2005  2.5419 -1.0889
  544MOL0     H75048   9.630   1.747   6.391  0.4055  1.6604  0.0858
  544MOL0     H75049   9.475   1.759   6.440  0.7830  1.0029  0.8758
  544MOL0     H75050   9.490   1.529   6.560 -4.3638 -1.1923 -2.7561
  544MOL0     H75051   9.641   1.517   6.466  1.3093  2.7049 -0.8620
  544MOL0     H75052   9.650   2.547   7.067 -1.7768 -2.7079 -0.4653
  544MOL0     H75053   9.576   2.765   7.155  0.4091 -1.9245 -0.3963
  544MOL0     H75054   9.149   3.197   6.912 -0.1105  1.2707 -0.7304
  544MOL0     H75055   9.080   3.397   7.031  0.5299 -1.4330 -2.2341
  544MOL0     H75056  10.200   3.206   7.339 -0.1576  0.5803 -3.1830
  544MOL0     H75057  10.321   3.120   7.150 -3.8981 -0.8799 -2.0979
  544MOL0     H75058  10.259   2.698   6.781  0.3104  1.5466  1.1716
  544MOL0     H75059  10.413   2.580   6.609 -3.3249  1.9816 -0.1366
  544MOL0     H75060  10.856   2.606   6.481  1.3863  0.7646  0.8424
  544MOL0     H75061  10.824   2.746   6.579 -0.9021  0.2189 -1.5194
  544MOL0     H75062  10.812   2.475   6.682 -0.5273 -0.0819 -2.9151
  544MOL0     H75063  10.849   2.616   6.790  0.8164 -0.6638  0.3559
  544MOL0     H75064  11.042   2.489   6.780 -2.7841  1.7509  2.0562
  544MOL0     H75065  11.044   2.496   6.605  1.1416  1.4226 -1.1629
  544MOL0     H75066  11.090   2.721   6.595  1.5262  0.5506  0.9039
  544MOL0     H75067  11.203   2.646   6.691  0.2671 -1.7914 -1.0105
  544MOL0     H75068  10.999   2.906   6.974 -2.3074 -0.5763 -0.7697
  544MOL0     H75069  10.733   2.830   6.739 -0.6436  1.2407  1.6124
  544MOL0     H75070  10.630   2.942   7.028 -0.0727  2.3981  0.0209
  544MOL0     H75071  10.685   3.019   6.867  0.4850 -0.5565  0.8174
  544MOL0     H75072  10.524   3.051   6.923  0.6619  2.0666 -6.4657
  545MOL0     O75073   8.112   5.169   1.473 -0.3781 -0.5110 -0.5620
  545MOL0     C75074   8.228   5.188   1.528 -0.7268  0.0358 -1.3658
  545MOL0     O75075   8.333   5.246   1.464 -0.5637  0.7847  0.2800
  545MOL0     C75076   8.355   5.259   1.330  0.4729  0.2796  0.5051
  545MOL0     C75077   8.289   5.194   1.220  0.6408 -0.5003  0.6225
  545MOL0     C75078   8.332   5.195   1.083  0.4658 -0.1098  0.4495
  545MOL0     C75079   8.425   5.293   1.041 -0.2091  0.3688 -0.9489
  545MOL0     O75080   8.458   5.305   0.910  0.3531 -0.0459 -0.5636
  545MOL0     C75081   8.477   5.442   0.865 -0.6804  0.0779  0.4366
  545MOL0     C75082   8.343   5.503   0.829 -1.0813  0.2474  0.5509
  545MOL0     C75083   8.367   5.641   0.763  0.6083 -0.5764  0.4595
  545MOL0     C75084   8.226   5.691   0.746  0.2563 -0.1568 -0.3011
  545MOL0     C75085   8.206   5.815   0.665  0.6048  0.1996  0.6869
  545MOL0     C75086   8.120   5.928   0.728  0.4181 -0.2892  0.2733
  545MOL0     C75087   8.138   6.066   0.652 -0.2228 -0.2540 -0.1852
  545MOL0     C75088   8.079   6.067   0.510  0.2405  0.9432  0.3883
  545MOL0     N75089   8.118   6.184   0.420 -0.0193  0.0243  0.6085
  545MOL0     C75090   8.111   6.322   0.444  0.7919 -0.9997 -0.5588
  545MOL0     C75091   8.146   6.367   0.325 -0.5542  0.3105  0.5813
  545MOL0     C75092   8.158   6.514   0.301  0.1128 -0.6409  0.8275
  545MOL0     C75093   8.301   6.552   0.280  0.1640 -0.0928  0.3952
  545MOL0     C75094   8.355   6.607   0.415  0.7752  0.1180  0.8178
  545MOL0     C75095   8.390   6.527   0.540  0.5850  0.6160  0.4929
  545MOL0     O75096   8.474   6.416   0.502 -0.4031  0.4028 -0.0903
  545MOL0     C75097   8.489   6.301   0.570 -0.3903 -0.2004 -0.4838
  545MOL0     C75098   8.441   6.284   0.698  0.5948  0.1781 -1.2636
  545MOL0     C75099   8.462   6.154   0.765  0.4369  0.2009  0.7224
  545MOL0     C75100   8.396   6.133   0.906 -0.8623  1.0671 -0.2724
  545MOL0     C75101   8.547   6.055   0.707  0.6654  0.5616 -0.6882
  545MOL0     C75102   8.601   5.932   0.776 -0.5369 -0.5545  0.3921
  545MOL0     O75103   8.654   5.844   0.692  0.2815  0.1298  0.0540
  545MOL0     C75104   8.703   5.722   0.732  0.6860  0.1999 -0.4778
  545MOL0     C75105   8.687   5.625   0.638  0.2663 -0.0836 -0.1467
  545MOL0     C75106   8.755   5.509   0.653  0.0750  0.3719  0.0886
  545MOL0     C75107   8.832   5.484   0.767 -0.2342 -0.2516  0.8644
  545MOL0     O75108   8.890   5.362   0.800 -0.2383 -0.1423 -0.0918
  545MOL0     C75109   8.849   5.241   0.744  0.1126  0.4736  0.3114
  545MOL0     C75110   8.892   5.123   0.837  0.6713 -0.1628  0.6848
  545MOL0     C75111   8.826   5.121   0.985  0.1447  0.1494  0.1255
  545MOL0     C75112   8.847   4.982   1.043 -0.1007 -0.4137  0.1672
  545MOL0     C75113   8.798   4.986   1.196 -0.4716  0.3347  0.6703
  545MOL0     C75114   8.648   4.951   1.212  0.3182 -0.2707  0.3314
  545MOL0     C75115   8.602   4.801   1.178 -0.2529 -0.7448 -0.0653
  545MOL0     C75116   8.569   4.711   1.296  0.2855 -1.2022  0.3976
  545MOL0    Cl75117   8.427   4.753   1.390  0.1853 -0.3241 -0.0360
  545MOL0     C75118   8.847   5.584   0.864 -0.1026 -0.3561  0.1386
  545MOL0     C75119   8.769   5.704   0.852 -0.0556 -0.4273 -0.6421
  545MOL0     O75120   8.569   5.915   0.895 -0.4877  0.1969 -0.1643
  545MOL0     C75121   8.595   6.082   0.580 -0.1206  0.4498 -0.9458
  545MOL0     C75122   8.567   6.197   0.517  0.3291 -0.5990 -0.3238
  545MOL0     N75123   8.183   6.270   0.234  0.4271  0.1587  0.6359
  545MOL0     N75124   8.167   6.157   0.293  0.7514 -0.1649  1.0676
  545MOL0     C75125   8.488   5.367   1.146 -1.0297 -0.0828 -0.2175
  545MOL0     C75126   8.454   5.346   1.281 -0.3762 -0.5428  0.1397
  545MOL0     C75127   8.255   5.134   1.669 -0.8572  0.4260 -0.5352
  545MOL0     C75128   8.392   5.131   1.724  0.6472  0.8794 -0.3113
  545MOL0     C75129   8.413   5.083   1.852  0.3726  0.8057  1.2192
  545MOL0     C75130   8.314   5.050   1.943  0.4029  0.3816 -0.0280
  545MOL0     O75131   8.345   4.995   2.065 -0.1906 -0.0474  0.5824
  545MOL0     C75132   8.363   4.856   2.075 -0.1817 -0.1802  0.4764
  545MOL0     C75133   8.417   4.826   2.210  0.2679  0.2708 -0.5568
  545MOL0     C75134   8.565   4.830   2.228 -0.3011 -0.1276 -0.6096
  545MOL0     C75135   8.599   4.811   2.379  0.9127 -0.3815 -0.4098
  545MOL0     C75136   8.740   4.840   2.406 -0.0725 -0.4834 -0.4159
  545MOL0     C75137   8.859   4.866   2.423  0.6454  0.2067  0.0468
  545MOL0     C75138   8.187   5.049   1.891  0.3465  0.0931  0.7027
  545MOL0     C75139   8.147   5.099   1.759 -0.5374  0.2137  0.5661
  545MOL0     C75140   8.000   5.084   1.715 -0.5116  0.4864  0.5209
  545MOL0     H75141   8.204   5.128   1.236  0.2721  0.5449  3.5750
  545MOL0     H75142   8.300   5.115   1.017 -1.6260 -0.7297  2.1110
  545MOL0     H75143   8.539   5.432   0.775 -2.3338  0.0070 -0.7438
  545MOL0     H75144   8.535   5.502   0.935 -1.1760 -0.7419  1.5775
  545MOL0     H75145   8.284   5.438   0.764 -2.2610  0.7450  1.0915
  545MOL0     H75146   8.285   5.520   0.921 -3.4636  4.9052 -1.4606
  545MOL0     H75147   8.411   5.715   0.831  2.2955  0.3054 -1.4998
  545MOL0     H75148   8.424   5.641   0.669  0.3206  1.7217  0.2484
  545MOL0     H75149   8.161   5.612   0.707 -0.5242 -0.1351  0.9131
  545MOL0     H75150   8.181   5.707   0.845  2.7052  3.1519  0.4644
  545MOL0     H75151   8.165   5.791   0.566  0.7419  0.1429  0.6433
  545MOL0     H75152   8.305   5.862   0.658 -0.4119  2.2068 -1.4058
  545MOL0     H75153   8.014   5.900   0.725  0.8329 -1.8338 -1.1326
  545MOL0     H75154   8.156   5.942   0.830 -0.4098 -0.1215  0.5569
  545MOL0     H75155   8.245   6.083   0.643 -0.0615 -0.3361  1.3745
  545MOL0     H75156   8.108   6.150   0.715  0.3319  0.9356 -1.4504
  545MOL0     H75157   8.099   5.967   0.471  1.0078  0.0786  2.8124
  545MOL0     H75158   7.971   6.066   0.523  0.0730 -0.9332 -0.7184
  545MOL0     H75159   8.079   6.364   0.538  1.6896  1.0179 -1.1036
  545MOL0     H75160   8.106   6.553   0.389  0.2023  2.0353 -0.2232
  545MOL0     H75161   8.111   6.546   0.208  2.4493  1.4303  0.2362
  545MOL0     H75162   8.372   6.473   0.253  1.0808  0.9727 -0.4331
  545MOL0     H75163   8.311   6.626   0.200  3.0423 -0.4645  0.2978
  545MOL0     H75164   8.453   6.647   0.387 -0.3897  2.4085 -0.2331
  545MOL0     H75165   8.295   6.696   0.435 -0.1682 -0.4093  0.3699
  545MOL0     H75166   8.434   6.598   0.611  2.2450  0.9541 -0.8208
  545MOL0     H75167   8.295   6.490   0.581  0.5509 -1.9645 -1.6559
  545MOL0     H75168   8.382   6.359   0.751 -1.3533 -0.1697 -2.8096
  545MOL0     H75169   8.325   6.210   0.938 -1.2265 -0.3725  2.7313
  545MOL0     H75170   8.473   6.131   0.984 -2.3074 -0.9697  1.1950
  545MOL0     H75171   8.343   6.038   0.914  2.1620 -0.6280  1.7232
  545MOL0     H75172   8.629   5.646   0.549 -1.3572  2.7603  1.4180
  545MOL0     H75173   8.737   5.441   0.570  0.0577  2.1749 -1.4547
  545MOL0     H75174   8.741   5.234   0.726  0.0957  2.8455 -0.8661
  545MOL0     H75175   8.892   5.227   0.644 -1.8367  2.4799 -0.9039
  545MOL0     H75176   8.858   5.031   0.789  2.0439 -1.0584  1.3281
  545MOL0     H75177   9.000   5.123   0.855  0.9833  0.6644 -1.0244
  545MOL0     H75178   8.719   5.140   0.969 -0.1184 -0.7833  0.6748
  545MOL0     H75179   8.861   5.204   1.046 -1.2949 -0.0262  1.2592
  545MOL0     H75180   8.955   4.968   1.031 -0.6559 -2.8662 -3.8086
  545MOL0     H75181   8.815   4.898   0.980  2.4326 -0.8534 -0.6718
  545MOL0     H75182   8.858   4.915   1.253 -2.5126 -2.0636 -0.0031
  545MOL0     H75183   8.805   5.087   1.239  0.1310  0.3222  0.6132
  545MOL0     H75184   8.584   5.024   1.162 -0.8652 -2.0295 -0.8594
  545MOL0     H75185   8.644   4.959   1.321  0.4617  0.6344  0.2736
  545MOL0     H75186   8.679   4.766   1.109  1.6630  0.7435  1.2054
  545MOL0     H75187   8.505   4.804   1.127  1.6925 -0.9662 -4.1864
  545MOL0     H75188   8.650   4.707   1.370 -0.9064  2.5123  2.1302
  545MOL0     H75189   8.543   4.613   1.255 -0.4478  0.6346 -4.1818
  545MOL0     H75190   8.911   5.585   0.952 -0.9453 -0.4042  0.7603
  545MOL0     H75191   8.767   5.780   0.930  0.2923 -0.4059 -0.6534
  545MOL0     H75192   8.664   6.012   0.533  0.5994  0.7102 -0.2964
  545MOL0     H75193   8.597   6.212   0.413  2.7162  1.9680  0.6087
  545MOL0     H75194   8.566   5.439   1.126 -0.9589  0.2113  1.0572
  545MOL0     H75195   8.510   5.406   1.351  1.3530  0.4963 -2.0168
  545MOL0     H75196   8.481   5.152   1.666 -0.5365  3.0937 -1.4384
  545MOL0     H75197   8.512   5.073   1.894 -0.6585  1.6098  4.0814
  545MOL0     H75198   8.263   4.817   2.057 -1.0831  1.9823  0.5033
  545MOL0     H75199   8.429   4.821   1.996 -0.3202  2.1138 -0.7246
  545MOL0     H75200   8.380   4.724   2.229 -0.3379  0.3931 -1.0649
  545MOL0     H75201   8.360   4.883   2.285  1.0867  2.0519 -1.2476
  545MOL0     H75202   8.624   4.756   2.173  1.8260  0.5603  0.6223
  545MOL0     H75203   8.611   4.921   2.191 -1.7510  1.7848  1.9635
  545MOL0     H75204   8.577   4.708   2.411  0.0205 -0.6334 -1.7593
  545MOL0     H75205   8.540   4.881   2.439  1.6128  1.3811 -1.7087
  545MOL0     H75206   8.963   4.892   2.419  0.2909  2.0363  1.3999
  545MOL0     H75207   8.112   5.005   1.957  1.4513 -1.5131  0.9557
  545MOL0     H75208   7.963   5.187   1.722  0.4202  0.8397  0.5167
  545MOL0     H75209   7.986   5.032   1.620  1.2873 -1.5151  1.2778
  545MOL0     H75210   7.940   5.021   1.781  0.6745 -1.1223  0.1438
  546MOL0     O75211   5.040   9.988   9.261  0.0229  0.3561 -0.1243
  546MOL0     C75212   4.921   9.967   9.251 -0.0819 -0.1514  0.3881
  546MOL0     O75213   4.866   9.870   9.175  0.2630 -0.6069  0.7749
  546MOL0     C75214   4.951   9.791   9.104  0.1505 -0.7526 -0.4750
  546MOL0     C75215   4.965   9.657   9.136 -0.1899 -0.0378  0.4333
  546MOL0     C75216   5.062   9.581   9.059 -0.3083  0.3070 -0.9329
  546MOL0     C75217   5.138   9.645   8.959  0.5860  0.2013  0.2627
  546MOL0     O75218   5.244   9.585   8.888 -0.0955 -0.2844 -0.2688
  546MOL0     C75219   5.275   9.450   8.908  1.6481  0.8149  0.4713
  546MOL0     C75220   5.427   9.413   8.886  0.4208 -0.3633  0.9978
  546MOL0     C75221   5.458   9.436   8.739  0.5627  0.7569  0.1102
  546MOL0     C75222   5.570   9.344   8.693  0.4926  0.2360 -0.2313
  546MOL0     C75223   5.568   9.317   8.546 -0.2738 -0.3455 -0.4062
  546MOL0     C75224   5.563   9.447   8.463  0.4384  0.3464 -0.3489
  546MOL0     C75225   5.561   9.425   8.310  0.0865 -0.2340 -0.1362
  546MOL0     C75226   5.566   9.550   8.224  0.1487 -0.6315  1.2428
  546MOL0     N75227   5.526   9.522   8.083  0.4752  0.4604 -0.6473
  546MOL0     C75228   5.604   9.542   7.979 -0.6801 -0.3125 -0.6157
  546MOL0     C75229   5.539   9.520   7.866  0.6282 -0.2497  0.5755
  546MOL0     C75230   5.576   9.505   7.715 -0.4561 -0.8691 -1.2118
  546MOL0     C75231   5.636   9.372   7.681 -1.0419 -0.0438 -0.4195
  546MOL0     C75232   5.777   9.357   7.745  0.2514 -0.4371 -0.3143
  546MOL0     C75233   5.868   9.243   7.690  0.4144  0.5762  0.4638
  546MOL0     O75234   5.785   9.141   7.639 -0.2212 -0.2239 -0.4832
  546MOL0     C75235   5.841   9.067   7.541  0.2983 -1.3921  1.0427
  546MOL0     C75236   5.968   9.016   7.554  0.8484 -0.1525 -0.3166
  546MOL0     C75237   6.012   8.917   7.457 -0.4133 -0.0122 -0.2371
  546MOL0     C75238   6.148   8.861   7.471  0.4370  0.0803  0.3587
  546MOL0     C75239   5.925   8.871   7.354 -0.0227 -1.3787 -0.0831
  546MOL0     C75240   5.968   8.769   7.242 -0.3755 -0.5742  0.3328
  546MOL0     O75241   6.100   8.749   7.207  0.2331  0.7546  0.9624
  546MOL0     C75242   6.117   8.700   7.080 -0.6761  0.4974  0.3552
  546MOL0     C75243   6.133   8.787   6.972  0.3059 -0.5279  0.7821
  546MOL0     C75244   6.165   8.749   6.841  0.0509  0.3913 -0.1322
  546MOL0     C75245   6.180   8.613   6.813  0.3286  0.6281  0.1709
  546MOL0     O75246   6.222   8.573   6.685  0.1941  0.3241  0.1621
  546MOL0     C75247   6.136   8.518   6.589 -0.9621  1.0329 -0.5100
  546MOL0     C75248   6.122   8.609   6.468  0.7338  0.3056  1.0078
  546MOL0     C75249   5.987   8.586   6.391  0.3273 -0.1010  0.3724
  546MOL0     C75250   5.980   8.675   6.260 -0.5285 -0.4827 -1.2383
  546MOL0     C75251   6.013   8.820   6.285 -0.2513  0.4315 -0.5097
  546MOL0     C75252   5.912   8.888   6.363  0.5160 -0.4128  1.0199
  546MOL0     C75253   5.767   8.908   6.289 -1.0256 -0.0808  0.3731
  546MOL0     C75254   5.685   8.984   6.397  0.2696  0.4350 -0.3700
  546MOL0    Cl75255   5.617   8.852   6.496 -0.2948  0.0814 -0.0456
  546MOL0     C75256   6.141   8.519   6.913 -0.0633 -0.9053  0.1297
  546MOL0     C75257   6.122   8.567   7.047 -1.3306  0.0030  0.0183
  546MOL0     O75258   5.872   8.736   7.174  0.2691  0.6192 -0.5133
  546MOL0     C75259   5.798   8.931   7.350  0.1817  0.1149  0.1258
  546MOL0     C75260   5.753   9.026   7.450 -0.0834  1.1878  1.7726
  546MOL0     N75261   5.411   9.488   7.908  1.3150 -0.4399  0.5650
  546MOL0     N75262   5.399   9.486   8.038  0.9978 -0.3960  0.3298
  546MOL0     C75263   5.117   9.778   8.929 -0.0074 -0.3175 -0.8750
  546MOL0     C75264   5.028   9.851   9.003 -0.0341 -0.0071  0.2671
  546MOL0     C75265   4.833  10.075   9.310  0.5617 -0.5062 -0.6737
  546MOL0     C75266   4.891  10.204   9.360  0.2201 -0.2830  0.1161
  546MOL0     C75267   4.811  10.310   9.417 -0.5766  0.1802  0.5016
  546MOL0     C75268   4.673  10.292   9.430 -0.0789  0.5597  0.1352
  546MOL0     O75269   4.601  10.398   9.472 -0.2108 -0.7673 -0.0839
  546MOL0     C75270   4.474  10.421   9.422  1.1577 -0.4416 -0.1980
  546MOL0     C75271   4.427  10.562   9.453 -0.7100  0.1499 -0.4284
  546MOL0     C75272   4.436  10.655   9.326  0.0445  0.7628 -0.0758
  546MOL0     C75273   4.434  10.800   9.373  0.1490 -0.0696 -0.0595
  546MOL0     C75274   4.458  10.884   9.256 -0.2259 -1.2830  0.0886
  546MOL0     C75275   4.492  10.950   9.155  0.3411  0.3826  0.0843
  546MOL0     C75276   4.616  10.173   9.389 -0.0424  0.5379 -0.0752
  546MOL0     C75277   4.692  10.067   9.333 -0.3211 -0.9686  0.2684
  546MOL0     C75278   4.610   9.955   9.283  0.5515  0.1634 -0.1396
  546MOL0     H75279   4.930   9.596   9.218  3.5281  2.7294  4.5305
  546MOL0     H75280   5.065   9.475   9.082 -0.0791  0.8139  1.6060
  546MOL0     H75281   5.219   9.383   8.842  1.1959 -0.8460  2.4379
  546MOL0     H75282   5.245   9.430   9.012 -2.2106  2.9824 -0.0090
  546MOL0     H75283   5.490   9.476   8.949  1.6438  1.3325 -1.6926
  546MOL0     H75284   5.453   9.312   8.921 -1.8926 -0.7413  1.7901
  546MOL0     H75285   5.377   9.403   8.674  1.8922  1.0543 -1.8018
  546MOL0     H75286   5.476   9.540   8.710  1.7274  0.4172 -0.4633
  546MOL0     H75287   5.665   9.387   8.727 -0.3365  0.6543  1.7618
  546MOL0     H75288   5.558   9.249   8.747  0.1450  0.5656  0.2854
  546MOL0     H75289   5.476   9.263   8.524  0.3617 -0.8940 -1.8881
  546MOL0     H75290   5.652   9.249   8.530 -2.4346 -4.1863  2.9044
  546MOL0     H75291   5.468   9.499   8.479  1.1157  1.3581  0.5190
  546MOL0     H75292   5.643   9.516   8.490  0.1184  0.1311  1.2673
  546MOL0     H75293   5.484   9.357   8.273  0.3678  0.6643 -2.4996
  546MOL0     H75294   5.648   9.364   8.284  0.7107  1.3374 -1.9373
  546MOL0     H75295   5.499   9.629   8.262  2.3309  1.2416  1.3995
  546MOL0     H75296   5.664   9.598   8.226 -0.3018  0.4260 -0.0873
  546MOL0     H75297   5.711   9.555   7.994 -0.8067  0.8485 -0.6948
  546MOL0     H75298   5.630   9.594   7.681 -3.1628  2.6390  2.6192
  546MOL0     H75299   5.480   9.509   7.663  0.4001  1.5775 -2.7719
  546MOL0     H75300   5.570   9.288   7.707 -0.6970 -1.2062 -3.0411
  546MOL0     H75301   5.650   9.363   7.573 -1.8838  2.6907 -0.8516
  546MOL0     H75302   5.841   9.441   7.718  2.7066 -0.8536  3.5152
  546MOL0     H75303   5.779   9.338   7.853  2.8448  0.5366 -0.1289
  546MOL0     H75304   5.930   9.279   7.608 -0.9612  2.6960  0.2845
  546MOL0     H75305   5.928   9.208   7.775 -0.2081 -0.0699  0.6530
  546MOL0     H75306   6.026   9.046   7.641 -0.5417 -2.5838  1.5546
  546MOL0     H75307   6.195   8.906   7.383 -2.5438  1.7007 -0.5288
  546MOL0     H75308   6.144   8.751   7.467 -3.8240  0.1014 -1.3051
  546MOL0     H75309   6.191   8.890   7.567  1.5436  0.8338 -0.3316
  546MOL0     H75310   6.124   8.894   6.988  1.6305 -0.3493  0.4603
  546MOL0     H75311   6.166   8.820   6.760  1.2748  0.9271  0.3329
  546MOL0     H75312   6.181   8.421   6.566  1.4800  1.1477  2.9181
  546MOL0     H75313   6.035   8.503   6.628 -0.7462  0.9496  0.0359
  546MOL0     H75314   6.107   8.706   6.517 -2.0368  0.6986 -0.3789
  546MOL0     H75315   6.217   8.607   6.414  1.4980  2.0619  2.1754
  546MOL0     H75316   5.896   8.595   6.451 -0.7062  0.2325 -1.1932
  546MOL0     H75317   5.987   8.480   6.366 -3.3738  0.2888 -2.0709
  546MOL0     H75318   5.879   8.672   6.219 -2.3353  2.8551  2.3708
  546MOL0     H75319   6.050   8.649   6.179  0.2943  0.3828 -0.8261
  546MOL0     H75320   6.112   8.836   6.327  0.2210  0.3514 -1.5486
  546MOL0     H75321   6.011   8.870   6.187 -0.3722  0.3791 -0.5347
  546MOL0     H75322   5.943   8.992   6.375  0.7005 -0.4220  0.6135
  546MOL0     H75323   5.908   8.844   6.464  1.5413 -0.1049  1.2081
  546MOL0     H75324   5.713   8.818   6.258 -1.1832 -0.3190  1.2852
  546MOL0     H75325   5.780   8.968   6.199 -0.6917 -0.8988 -0.1330
  546MOL0     H75326   5.598   9.035   6.355 -0.5430 -1.9355 -1.7841
  546MOL0     H75327   5.743   9.053   6.459  1.3148  1.6649 -2.6117
  546MOL0     H75328   6.143   8.413   6.889 -1.3043 -1.1091  0.8907
  546MOL0     H75329   6.107   8.502   7.133 -2.1376  1.1028  0.7395
  546MOL0     H75330   5.729   8.908   7.270 -0.1510  1.7119 -0.0751
  546MOL0     H75331   5.648   9.051   7.437 -0.3597 -0.0551  1.4732
  546MOL0     H75332   5.170   9.830   8.849 -1.4374  0.8492 -1.1156
  546MOL0     H75333   5.015   9.957   8.985 -0.3974 -0.4429 -2.5280
  546MOL0     H75334   4.996  10.228   9.344 -0.3460  0.6006 -2.8228
  546MOL0     H75335   4.845  10.403   9.460  0.3411  1.2379 -2.2920
  546MOL0     H75336   4.460  10.394   9.317 -2.2176  1.2275 -0.3069
  546MOL0     H75337   4.407  10.345   9.463  0.1468  0.4887 -0.0675
  546MOL0     H75338   4.492  10.615   9.524  0.6692  1.3231 -2.4795
  546MOL0     H75339   4.325  10.564   9.494 -1.2876  1.1141 -1.8332
  546MOL0     H75340   4.531  10.628   9.280 -0.4282 -2.2573  0.4735
  546MOL0     H75341   4.355  10.631   9.257  0.1788 -1.3738  0.4487
  546MOL0     H75342   4.508  10.823   9.451  2.2898 -2.0688 -1.3607
  546MOL0     H75343   4.332  10.815   9.409  0.8652  1.0224  1.6650
  546MOL0     H75344   4.509  10.992   9.058  1.2231  0.5752  0.3131
  546MOL0     H75345   4.509  10.161   9.403  0.2885 -1.1996  1.3256
  546MOL0     H75346   4.645   9.862   9.328 -0.1024  0.0916  0.2303
  546MOL0     H75347   4.502   9.965   9.298  0.2147 -1.9129 -0.8023
  546MOL0     H75348   4.632   9.940   9.177  0.7462 -2.5355  0.2092
  547MOL0     O75349   2.968   8.440   0.181  0.2013 -0.2021  0.3023
  547MOL0     C75350   2.974   8.497   0.295 -0.1221  0.0080 -0.0744
  547MOL0     O75351   2.937   8.441   0.415 -0.5053 -0.4487 -0.2019
  547MOL0     C75352   2.886   8.315   0.411  0.2866 -0.2834  0.6943
  547MOL0     C75353   2.759   8.292   0.383 -0.3824  0.5000 -0.3877
  547MOL0     C75354   2.709   8.165   0.382 -0.0458 -1.0192 -0.1277
  547MOL0     C75355   2.797   8.057   0.394  0.3532  0.1872  0.2862
  547MOL0     O75356   2.727   7.939   0.377 -0.4384  0.9225 -0.3713
  547MOL0     C75357   2.808   7.835   0.432 -0.3797 -0.4945 -0.0596
  547MOL0     C75358   2.722   7.712   0.402  0.8638 -0.1177 -1.4000
  547MOL0     C75359   2.796   7.588   0.452  0.4473  0.5329 -0.6012
  547MOL0     C75360   2.785   7.581   0.603  0.0119 -0.1821  0.0860
  547MOL0     C75361   2.787   7.443   0.656  0.1893  0.3380  0.0564
  547MOL0     C75362   2.756   7.430   0.802 -0.2774  0.4404  0.0146
  547MOL0     C75363   2.870   7.490   0.882 -0.0457 -0.6913  0.4786
  547MOL0     C75364   3.010   7.442   0.844  0.0071  0.3739 -0.3730
  547MOL0     N75365   3.110   7.476   0.947  0.0038  0.7050  0.7840
  547MOL0     C75366   3.198   7.577   0.938 -0.0799  1.0504  1.4206
  547MOL0     C75367   3.246   7.594   1.062 -0.8828  0.5149  0.5058
  547MOL0     C75368   3.351   7.685   1.112 -0.2465  0.0544 -0.4272
  547MOL0     C75369   3.325   7.746   1.246  0.1619  0.2048 -0.0464
  547MOL0     C75370   3.202   7.852   1.242  0.6066  0.4320 -0.2767
  547MOL0     C75371   3.191   7.928   1.378  0.2835  0.4332  0.3726
  547MOL0     O75372   3.108   8.045   1.366 -0.5041 -0.6266  0.1408
  547MOL0     C75373   3.150   8.151   1.285  0.3678 -1.6167  0.0673
  547MOL0     C75374   3.056   8.242   1.250 -0.7759 -0.3977  0.2243
  547MOL0     C75375   3.079   8.364   1.174  0.1219  0.4293  0.4819
  547MOL0     C75376   2.968   8.475   1.164 -0.1477 -0.3595 -0.6603
  547MOL0     C75377   3.207   8.380   1.133 -0.7662  0.6211  1.3519
  547MOL0     C75378   3.246   8.485   1.035  0.2434  0.0301 -0.3477
  547MOL0     O75379   3.149   8.529   0.950 -0.3028  0.5014  0.0614
  547MOL0     C75380   3.153   8.651   0.910  0.1091 -0.5950  0.3755
  547MOL0     C75381   3.079   8.758   0.971 -0.1955 -0.0801  0.6265
  547MOL0     C75382   3.072   8.884   0.914 -0.1821  0.2017 -0.2696
  547MOL0     C75383   3.148   8.921   0.810  0.2668  0.0667  0.9908
  547MOL0     O75384   3.149   9.033   0.740  0.0101 -0.9865  0.3030
  547MOL0     C75385   3.105   9.153   0.814 -0.6435  1.4893 -1.2217
  547MOL0     C75386   3.071   9.267   0.727  0.0427  0.6086  0.0168
  547MOL0     C75387   2.960   9.240   0.634 -0.4299 -0.4350  0.6702
  547MOL0     C75388   2.893   9.373   0.573  0.5800 -0.3360  0.2828
  547MOL0     C75389   3.003   9.438   0.504 -0.6038  0.0166  0.3406
  547MOL0     C75390   2.967   9.540   0.392  0.5232 -0.0765 -0.2970
  547MOL0     C75391   3.079   9.560   0.299 -0.6278  0.4280 -1.0234
  547MOL0     C75392   3.042   9.671   0.211  0.0284 -1.0681  0.2350
  547MOL0    Cl75393   2.892   9.627   0.114 -0.5598 -0.0014 -0.3770
  547MOL0     C75394   3.233   8.820   0.756 -0.3901  0.2807  0.3916
  547MOL0     C75395   3.235   8.693   0.812 -0.6790  0.4789 -0.1867
  547MOL0     O75396   3.358   8.522   1.016 -0.9684  0.2443  0.2182
  547MOL0     C75397   3.308   8.293   1.170 -0.5379  0.6586 -0.6189
  547MOL0     C75398   3.280   8.182   1.243  0.5216  0.0562 -0.3354
  547MOL0     N75399   3.198   7.483   1.142 -0.3793 -0.0698 -1.1112
  547MOL0     N75400   3.105   7.431   1.078  0.3408  0.0204  0.0726
  547MOL0     C75401   2.936   8.081   0.417  0.3411 -0.0965 -1.2715
  547MOL0     C75402   2.978   8.210   0.426 -0.7671 -0.4336  0.6686
  547MOL0     C75403   3.040   8.634   0.304 -0.7106  0.7890  0.4012
  547MOL0     C75404   3.113   8.680   0.197  0.4099 -0.6307 -0.0878
  547MOL0     C75405   3.168   8.809   0.190 -0.3885 -0.6903 -0.9082
  547MOL0     C75406   3.175   8.893   0.298 -0.9999 -0.2034 -0.7014
  547MOL0     O75407   3.242   9.016   0.293 -0.9445 -0.0566 -0.1929
  547MOL0     C75408   3.252   9.103   0.406  0.7267 -0.2220 -0.7968
  547MOL0     C75409   3.323   9.234   0.353  0.7034 -0.4472 -0.1388
  547MOL0     C75410   3.384   9.303   0.467  0.0716 -0.5479 -1.5222
  547MOL0     C75411   3.507   9.382   0.443  0.1312 -1.3905  1.7518
  547MOL0     C75412   3.476   9.484   0.339  0.0809 -1.5438 -0.3188
  547MOL0     C75413   3.453   9.559   0.246  0.0971 -0.3696 -0.5589
  547MOL0     C75414   3.102   8.849   0.407 -1.4101  0.0746 -0.6417
  547MOL0     C75415   3.040   8.722   0.419  0.6890 -0.9181 -0.0731
  547MOL0     C75416   2.981   8.678   0.555  0.2482 -0.7833  0.8271
  547MOL0     H75417   2.690   8.375   0.381 -2.5581 -1.2290 -0.1694
  547MOL0     H75418   2.602   8.153   0.363 -0.2760  2.0044 -1.3923
  547MOL0     H75419   2.818   7.851   0.540 -0.9821  1.3387 -0.2326
  547MOL0     H75420   2.903   7.832   0.378 -0.0040  0.6064  0.4982
  547MOL0     H75421   2.627   7.740   0.448  2.7016  2.9171  0.9741
  547MOL0     H75422   2.713   7.701   0.294  1.8658  0.0713 -1.5156
  547MOL0     H75423   2.753   7.495   0.411  1.8289 -0.7118  0.6676
  547MOL0     H75424   2.900   7.587   0.419  0.7161  0.0399  0.2378
  547MOL0     H75425   2.859   7.649   0.646 -1.5106  0.6025  1.5810
  547MOL0     H75426   2.688   7.624   0.630  1.0916  3.5539 -1.2373
  547MOL0     H75427   2.882   7.394   0.632  0.5291  0.7348  0.5777
  547MOL0     H75428   2.726   7.375   0.596  0.1977  0.8727 -0.5745
  547MOL0     H75429   2.661   7.479   0.823  0.3708  1.5537  0.4456
  547MOL0     H75430   2.751   7.322   0.817  0.2679 -0.1068 -3.0202
  547MOL0     H75431   2.841   7.474   0.987 -1.6535  2.9342  0.7391
  547MOL0     H75432   2.856   7.597   0.862 -1.3240 -0.8276  0.5145
  547MOL0     H75433   2.993   7.334   0.839 -1.6891  0.5713  0.3344
  547MOL0     H75434   3.036   7.493   0.751 -1.3655  6.1061  1.9620
  547MOL0     H75435   3.231   7.638   0.855 -4.1939 -2.0302 -3.0024
  547MOL0     H75436   3.361   7.771   1.045 -2.7841 -1.0516 -2.4049
  547MOL0     H75437   3.447   7.634   1.099 -0.6470 -0.6344 -0.7421
  547MOL0     H75438   3.298   7.664   1.312 -0.9555  0.5149 -0.1034
  547MOL0     H75439   3.422   7.785   1.279  1.5263 -1.6576 -1.5837
  547MOL0     H75440   3.207   7.929   1.165 -4.1040  0.1531 -1.1645
  547MOL0     H75441   3.113   7.793   1.220  0.0394  1.9350 -2.3341
  547MOL0     H75442   3.138   7.867   1.452  1.0589  0.5452  1.0280
  547MOL0     H75443   3.290   7.954   1.414  2.4005 -4.1095 -1.3243
  547MOL0     H75444   2.953   8.221   1.275 -0.4089 -2.5464  0.0807
  547MOL0     H75445   2.937   8.497   1.061  1.5662  1.6075 -0.8364
  547MOL0     H75446   2.985   8.561   1.229  0.7716 -1.5479  0.7295
  547MOL0     H75447   2.885   8.422   1.210  2.8771 -4.6605  0.4406
  547MOL0     H75448   3.016   8.726   1.054 -2.0211  0.1854 -0.5947
  547MOL0     H75449   3.000   8.947   0.964  0.7477  1.3732 -0.3771
  547MOL0     H75450   3.013   9.128   0.869  1.0833 -0.8949  0.8008
  547MOL0     H75451   3.184   9.183   0.883  1.3038  0.9501 -3.1345
  547MOL0     H75452   3.036   9.353   0.785  1.8946  1.5964 -0.2551
  547MOL0     H75453   3.158   9.291   0.666  0.8751 -0.4867  0.7425
  547MOL0     H75454   2.889   9.196   0.705  1.4392 -1.5067  1.9594
  547MOL0     H75455   2.986   9.164   0.561 -3.7911  0.0475 -1.2604
  547MOL0     H75456   2.846   9.438   0.647 -1.2934 -0.8471 -0.3941
  547MOL0     H75457   2.812   9.343   0.506  1.0120 -0.9381  0.0251
  547MOL0     H75458   3.077   9.492   0.563 -0.1305  1.4804 -1.4823
  547MOL0     H75459   3.055   9.356   0.454  1.5755  0.0737  2.3827
  547MOL0     H75460   2.944   9.626   0.456  1.7565 -0.0124  0.0839
  547MOL0     H75461   2.873   9.510   0.344 -1.2115  5.1924 -0.8962
  547MOL0     H75462   3.102   9.469   0.242 -0.9069  0.9863 -2.0636
  547MOL0     H75463   3.168   9.595   0.352 -0.0252 -1.0404 -1.0179
  547MOL0     H75464   3.122   9.690   0.138 -0.3994  2.0742  0.4299
  547MOL0     H75465   3.015   9.764   0.262  2.3604  1.6109 -2.9000
  547MOL0     H75466   3.289   8.851   0.668 -2.5786  2.4453 -0.3378
  547MOL0     H75467   3.287   8.611   0.762 -3.8882 -1.8123 -0.0858
  547MOL0     H75468   3.412   8.306   1.141 -0.8467 -1.7870 -3.3504
  547MOL0     H75469   3.364   8.120   1.273  0.6956  1.3088  1.9545
  547MOL0     H75470   3.007   7.999   0.416 -1.0881 -1.8515  4.6388
  547MOL0     H75471   3.084   8.222   0.443 -0.9668  0.2509  1.4687
  547MOL0     H75472   3.117   8.615   0.111  2.9937  4.2338 -4.1424
  547MOL0     H75473   3.216   8.842   0.098  1.0791  1.5221  0.5781
  547MOL0     H75474   3.153   9.136   0.440 -0.7334 -0.8633 -4.0598
  547MOL0     H75475   3.299   9.047   0.487 -1.5567 -1.5193 -0.2719
  547MOL0     H75476   3.251   9.297   0.299  1.4748  0.9705  0.4341
  547MOL0     H75477   3.407   9.218   0.284 -1.0490  0.2918 -2.5877
  547MOL0     H75478   3.312   9.379   0.499 -0.0781 -1.6678  0.9425
  547MOL0     H75479   3.408   9.243   0.554 -3.2443  2.5162  1.8699
  547MOL0     H75480   3.582   9.306   0.417  0.0409 -0.8378 -0.2658
  547MOL0     H75481   3.536   9.433   0.535  0.0688 -1.4739  1.8173
  547MOL0     H75482   3.415   9.614   0.162  0.0127  0.2314 -0.1406
  547MOL0     H75483   3.092   8.915   0.494 -2.0236 -2.5736  1.4278
  547MOL0     H75484   2.970   8.756   0.630 -1.0704  1.2685 -1.3653
  547MOL0     H75485   2.873   8.672   0.542  0.2287 -0.2708  0.7495
  547MOL0     H75486   3.013   8.581   0.595  1.5610 -0.0432  1.6400
  548MOL0     O75487  10.431   2.220   2.127 -0.9265 -0.3352  0.0744
  548MOL0     C75488  10.360   2.217   2.222  0.4081  0.3884 -0.5648
  548MOL0     O75489  10.273   2.119   2.266  1.0864  0.8681 -0.5184
  548MOL0     C75490  10.286   1.997   2.201  0.4108 -0.9452  0.6038
  548MOL0     C75491  10.195   1.973   2.093  0.9264 -0.1740  0.2978
  548MOL0     C75492  10.190   1.853   2.024  0.2759  0.6877 -1.1455
  548MOL0     C75493  10.283   1.755   2.055  0.2549 -0.0066  0.1398
  548MOL0     O75494  10.264   1.639   1.982 -0.6091 -0.0255  0.7165
  548MOL0     C75495  10.262   1.525   2.062 -0.1004 -0.6272 -0.4730
  548MOL0     C75496  10.392   1.465   2.021 -0.4637  0.4637 -0.7721
  548MOL0     C75497  10.384   1.432   1.877 -0.0839  0.7715  0.3716
  548MOL0     C75498  10.492   1.325   1.845  0.2805  0.2431  1.0677
  548MOL0     C75499  10.478   1.274   1.705 -0.5673 -0.5618  0.2842
  548MOL0     C75500  10.393   1.152   1.699  0.4142  0.2093  0.1198
  548MOL0     C75501  10.408   1.080   1.559  0.3448  0.5733  0.5573
  548MOL0     C75502  10.328   1.146   1.445 -0.3405  0.9785  0.9102
  548MOL0     N75503  10.332   1.067   1.325 -0.4858  0.3541 -0.4863
  548MOL0     C75504  10.380   1.104   1.199 -0.0331  0.5434 -1.1060
  548MOL0     C75505  10.375   0.996   1.115 -0.2644  0.3653 -0.4020
  548MOL0     C75506  10.420   1.003   0.973 -0.0182 -0.2447 -0.0910
  548MOL0     C75507  10.307   0.975   0.878 -1.0017  0.4193  0.0885
  548MOL0     C75508  10.349   0.986   0.729  0.1141  0.3481  0.5583
  548MOL0     C75509  10.240   0.945   0.633  0.5043  0.2649 -0.2926
  548MOL0     O75510  10.297   1.005   0.512 -0.3406  0.0801 -0.5363
  548MOL0     C75511  10.259   0.951   0.393 -0.2249  0.4957 -0.4615
  548MOL0     C75512  10.268   1.047   0.293 -0.2999 -0.0913  0.1231
  548MOL0     C75513  10.235   1.011   0.161  0.0005 -1.0200 -0.3059
  548MOL0     C75514  10.237   1.126   0.055  0.0735  0.8294 -0.1612
  548MOL0     C75515  10.186   0.883   0.134 -0.0134  0.1609 -0.2701
  548MOL0     C75516  10.153   0.835   0.003  0.5690  0.6089  0.1094
  548MOL0     O75517  10.037   0.762  -0.012  0.6666 -0.0738 -0.4050
  548MOL0     C75518  10.001   0.725  -0.134 -0.5052  0.5322  0.4395
  548MOL0     C75519  10.002   0.803  -0.250  0.3403  0.3171 -0.1478
  548MOL0     C75520   9.951   0.757  -0.369  0.2784  0.1215 -0.0676
  548MOL0     C75521   9.879   0.641  -0.378  0.2566  0.6469 -0.4294
  548MOL0     O75522   9.822   0.587  -0.489 -0.4703 -0.1035  0.3732
  548MOL0     C75523   9.913   0.556  -0.593 -0.1854 -0.9108  0.5576
  548MOL0     C75524   9.851   0.437  -0.666 -0.1040  0.5563  0.2948
  548MOL0     C75525   9.718   0.479  -0.735 -0.3802  1.0421  0.2253
  548MOL0     C75526   9.654   0.350  -0.783 -0.3404  0.2043  0.0195
  548MOL0     C75527   9.525   0.393  -0.861  0.3368  1.1182 -1.1697
  548MOL0     C75528   9.428   0.285  -0.910  0.5872  0.1046  0.2994
  548MOL0     C75529   9.494   0.155  -0.957  0.1568 -0.1287  0.4166
  548MOL0     C75530   9.415   0.071  -1.045  0.6603 -0.2011 -0.8487
  548MOL0    Cl75531   9.247   0.058  -0.978 -0.3388 -0.1147  0.1316
  548MOL0     C75532   9.875   0.560  -0.266 -0.2508  0.0980 -0.8126
  548MOL0     C75533   9.942   0.601  -0.140  0.0561 -0.8201  0.6547
  548MOL0     O75534  10.230   0.863  -0.090  0.5939 -0.6560  1.1869
  548MOL0     C75535  10.163   0.794   0.238 -0.0380 -0.3937  0.5179
  548MOL0     C75536  10.197   0.834   0.370  0.0084  0.3062  0.1223
  548MOL0     N75537  10.320   0.897   1.199 -0.0864  0.2388  0.8141
  548MOL0     N75538  10.300   0.936   1.321 -0.3898 -0.3615 -0.1342
  548MOL0     C75539  10.364   1.769   2.175  0.3067  0.4001 -0.1202
  548MOL0     C75540  10.356   1.886   2.249  0.0619 -0.4947  0.6111
  548MOL0     C75541  10.339   2.350   2.281 -0.6478 -0.0255 -0.3691
  548MOL0     C75542  10.318   2.459   2.184 -0.6546 -0.7772 -0.2895
  548MOL0     C75543  10.298   2.591   2.237 -0.3128  0.1432 -0.4885
  548MOL0     C75544  10.309   2.622   2.374 -0.0257 -0.1280  0.5236
  548MOL0     O75545  10.292   2.750   2.428  1.2121  0.7056 -0.0788
  548MOL0     C75546  10.295   2.856   2.333 -1.1995  1.4382  0.7425
  548MOL0     C75547  10.267   2.992   2.396 -0.0072  0.8758 -0.0890
  548MOL0     C75548  10.360   3.033   2.516  0.3541 -0.4980  0.2328
  548MOL0     C75549  10.502   3.068   2.475  0.0837  0.6620 -0.4963
  548MOL0     C75550  10.506   3.172   2.365  0.3220 -0.5315  0.4309
  548MOL0     C75551  10.511   3.245   2.267 -0.1016  0.6095  0.2669
  548MOL0     C75552  10.322   2.513   2.461  0.2678 -0.8687  0.0856
  548MOL0     C75553  10.334   2.378   2.419  1.2742 -0.2200  0.9530
  548MOL0     C75554  10.360   2.270   2.517  0.4726  1.1568 -0.1813
  548MOL0     H75555  10.121   2.051   2.075  1.3762 -0.0932 -1.3495
  548MOL0     H75556  10.121   1.827   1.944 -0.2734 -1.5402 -0.0376
  548MOL0     H75557  10.176   1.460   2.049 -0.6379 -0.0543  0.1364
  548MOL0     H75558  10.252   1.543   2.169  2.5989 -2.0401  0.1108
  548MOL0     H75559  10.484   1.522   2.035  2.5051 -4.0401 -0.0064
  548MOL0     H75560  10.407   1.377   2.083  3.6519  3.0560  2.4064
  548MOL0     H75561  10.281   1.416   1.844 -0.0273  2.5697 -0.7569
  548MOL0     H75562  10.427   1.519   1.829  1.8589  0.3408  1.2150
  548MOL0     H75563  10.595   1.361   1.852  0.6486 -0.1507 -1.2407
  548MOL0     H75564  10.483   1.236   1.907 -0.0020 -1.8568 -1.8026
  548MOL0     H75565  10.579   1.255   1.667 -1.0930 -1.6773 -0.6064
  548MOL0     H75566  10.432   1.353   1.645 -1.8122  0.8717  2.9213
  548MOL0     H75567  10.414   1.082   1.781  2.4123 -0.6206 -1.0451
  548MOL0     H75568  10.290   1.173   1.731  0.1889  0.8562 -0.9905
  548MOL0     H75569  10.376   0.976   1.566 -0.3092  0.6022 -1.3434
  548MOL0     H75570  10.510   1.087   1.518  0.1469  2.0533  0.2609
  548MOL0     H75571  10.220   1.160   1.458 -1.0256  0.8066 -3.1806
  548MOL0     H75572  10.370   1.244   1.418  0.4613  0.3617 -0.1601
  548MOL0     H75573  10.396   1.210   1.181 -0.1285  0.8540  0.4859
  548MOL0     H75574  10.497   0.926   0.956 -0.8261 -0.7897 -1.4756
  548MOL0     H75575  10.484   1.089   0.950  0.9641 -0.4297  1.7694
  548MOL0     H75576  10.263   0.877   0.899 -1.4706  0.1358 -2.0387
  548MOL0     H75577  10.234   1.052   0.905 -1.3981 -0.1772  0.7535
  548MOL0     H75578  10.399   1.080   0.705  0.2922  0.2219  0.4250
  548MOL0     H75579  10.428   0.912   0.709  0.0468  0.5848 -0.6318
  548MOL0     H75580  10.235   0.836   0.636  0.6245  0.2112 -1.6830
  548MOL0     H75581  10.140   0.983   0.657 -0.2334 -0.0225 -2.7377
  548MOL0     H75582  10.311   1.141   0.326  0.8182  0.8040 -3.4659
  548MOL0     H75583  10.328   1.090   0.004 -0.3836 -2.6972  1.2568
  548MOL0     H75584  10.260   1.227   0.091 -0.4314  1.1145 -0.6278
  548MOL0     H75585  10.145   1.122  -0.004  0.0928  0.2565 -0.1527
  548MOL0     H75586  10.045   0.903  -0.244  0.6518  0.1137  2.9662
  548MOL0     H75587   9.965   0.820  -0.456  2.3458  0.4537  0.4503
  548MOL0     H75588   9.915   0.641  -0.661 -1.6005 -1.9706 -0.9069
  548MOL0     H75589  10.012   0.538  -0.551 -1.0928 -0.8322  2.9224
  548MOL0     H75590   9.915   0.403  -0.749 -0.1313 -0.6347  0.7509
  548MOL0     H75591   9.830   0.365  -0.587  3.2651  0.5853  1.3688
  548MOL0     H75592   9.748   0.536  -0.824  1.1636 -1.0734 -0.6850
  548MOL0     H75593   9.660   0.540  -0.666  0.4803  0.6440  1.3429
  548MOL0     H75594   9.636   0.284  -0.698  1.3345 -0.8277 -0.3845
  548MOL0     H75595   9.722   0.290  -0.845 -0.2414  1.3544 -1.0211
  548MOL0     H75596   9.471   0.464  -0.798  1.9281  2.2601 -1.0660
  548MOL0     H75597   9.570   0.445  -0.945  0.2853  1.9927 -0.6632
  548MOL0     H75598   9.377   0.321  -1.000 -1.6163 -0.6857  1.1590
  548MOL0     H75599   9.350   0.268  -0.836 -0.7862  2.2076 -0.5635
  548MOL0     H75600   9.509   0.106  -0.860 -3.2311  0.4626  1.3495
  548MOL0     H75601   9.595   0.169  -0.998 -0.9898 -0.0167 -2.6043
  548MOL0     H75602   9.449  -0.033  -1.049 -1.6031 -1.0373  0.1563
  548MOL0     H75603   9.416   0.111  -1.147 -1.1645  1.5032 -0.2693
  548MOL0     H75604   9.826   0.463  -0.272 -2.8120  1.2226  0.1253
  548MOL0     H75605   9.957   0.534  -0.056  2.0389 -4.2719 -2.1176
  548MOL0     H75606  10.129   0.695   0.211 -0.6277  0.5951 -2.7858
  548MOL0     H75607  10.191   0.759   0.448 -0.3302 -1.1550 -1.2700
  548MOL0     H75608  10.435   1.692   2.204 -0.2297 -0.1728 -0.3149
  548MOL0     H75609  10.419   1.893   2.337  0.6230  2.7368  0.0909
  548MOL0     H75610  10.320   2.446   2.077  0.1098 -1.8810 -0.1687
  548MOL0     H75611  10.279   2.671   2.166  1.9564 -0.4877 -1.9102
  548MOL0     H75612  10.384   2.864   2.270 -1.4892 -0.8217 -0.0655
  548MOL0     H75613  10.210   2.843   2.265  0.6224 -3.4987 -1.0292
  548MOL0     H75614  10.165   2.990   2.438  0.6624 -2.0082  1.6871
  548MOL0     H75615  10.270   3.072   2.321 -1.1707  2.3905  1.3967
  548MOL0     H75616  10.310   3.111   2.575  3.3752  0.3624  1.8581
  548MOL0     H75617  10.362   2.942   2.576  1.7811 -0.7418 -0.1609
  548MOL0     H75618  10.563   2.984   2.439  1.2836  1.3005 -0.0260
  548MOL0     H75619  10.551   3.099   2.568 -1.0370  1.5200 -0.1804
  548MOL0     H75620  10.515   3.301   2.175 -1.3939 -0.2099 -0.3080
  548MOL0     H75621  10.338   2.532   2.566 -2.6042  0.6992  0.3216
  548MOL0     H75622  10.402   2.312   2.609  1.7056  1.1687 -0.7308
  548MOL0     H75623  10.277   2.202   2.534  0.9144  0.5221 -0.5160
  548MOL0     H75624  10.443   2.210   2.478 -0.7441 -0.5151 -0.2707
  549MOL0     O75625   1.787   0.854   3.186 -0.8455  0.2068 -0.8931
  549MOL0     C75626   1.760   0.975   3.220  0.5537 -0.0142  0.6997
  549MOL0     O75627   1.670   1.009   3.315 -0.9741 -0.5815  0.7437
  549MOL0     C75628   1.581   0.917   3.367  0.6782  0.3106  0.3203
  549MOL0     C75629   1.457   0.890   3.309 -0.1664 -0.8847  0.3092
  549MOL0     C75630   1.372   0.791   3.367  0.1169 -0.0879 -0.0229
  549MOL0     C75631   1.407   0.737   3.495 -0.0179 -0.0348 -0.0395
  549MOL0     O75632   1.333   0.634   3.552 -0.4813 -0.8733  0.4075
  549MOL0     C75633   1.196   0.605   3.506  0.2480  0.0251 -0.2594
  549MOL0     C75634   1.189   0.505   3.383  0.5702 -0.4645 -0.5483
  549MOL0     C75635   1.047   0.490   3.328  0.2402 -0.3706 -0.2065
  549MOL0     C75636   0.959   0.617   3.305  0.3932  0.1411 -0.5440
  549MOL0     C75637   0.843   0.586   3.210  0.3572  0.2048 -0.7441
  549MOL0     C75638   0.732   0.685   3.235  0.7741 -0.2719 -0.4023
  549MOL0     C75639   0.611   0.679   3.125  0.2848  0.0850 -0.3596
  549MOL0     C75640   0.496   0.790   3.135 -0.0303  0.1224  0.1409
  549MOL0     N75641   0.368   0.748   3.078 -0.5896  0.0441 -0.4203
  549MOL0     C75642   0.251   0.756   3.156 -1.9781 -0.8150  0.2977
  549MOL0     C75643   0.156   0.700   3.076 -0.5573 -0.0506  0.5543
  549MOL0     C75644   0.007   0.681   3.109 -0.0105 -0.8670 -0.1223
  549MOL0     C75645  -0.088   0.729   2.993  0.4466  0.8370 -0.3841
  549MOL0     C75646  -0.234   0.706   3.035  0.2269 -0.6207 -0.1310
  549MOL0     C75647  -0.304   0.839   3.072 -1.0696 -0.0955 -0.7410
  549MOL0     O75648  -0.301   0.921   2.952  0.3922  0.0224 -0.0046
  549MOL0     C75649  -0.376   1.037   2.957 -0.0064  0.0026 -0.3198
  549MOL0     C75650  -0.347   1.128   3.053  0.6475 -0.1602 -0.0014
  549MOL0     C75651  -0.419   1.250   3.065  0.4727  0.2235 -0.2614
  549MOL0     C75652  -0.382   1.349   3.179  0.1324 -0.4020  0.1730
  549MOL0     C75653  -0.516   1.277   2.966  0.8065 -0.5222 -0.0328
  549MOL0     C75654  -0.599   1.399   2.957  0.4863  0.1780 -0.2132
  549MOL0     O75655  -0.673   1.415   2.845 -0.4952  0.3947 -0.2776
  549MOL0     C75656  -0.745   1.533   2.828 -0.0200  0.2687  0.7478
  549MOL0     C75657  -0.860   1.546   2.903  0.9786 -0.6747 -0.7282
  549MOL0     C75658  -0.931   1.670   2.898  0.3894  0.4205  0.4225
  549MOL0     C75659  -0.898   1.762   2.800 -0.2581 -0.3211 -1.0367
  549MOL0     O75660  -0.989   1.863   2.775 -0.0112  0.4483  0.3835
  549MOL0     C75661  -0.933   1.991   2.773  0.1554 -0.4845 -1.0067
  549MOL0     C75662  -1.012   2.104   2.849  1.8899  0.2104  0.5392
  549MOL0     C75663  -0.922   2.235   2.885  0.9754 -0.2791 -0.3491
  549MOL0     C75664  -1.012   2.343   2.961  0.2819 -0.1288 -0.5756
  549MOL0     C75665  -0.945   2.478   2.960  0.5931 -0.1727  0.6237
  549MOL0     C75666  -0.805   2.470   3.020 -0.5962 -0.4201 -0.4250
  549MOL0     C75667  -0.754   2.613   3.052  0.6437  1.0174 -0.0825
  549MOL0     C75668  -0.607   2.613   3.090 -0.9519  0.8434 -0.6427
  549MOL0    Cl75669  -0.504   2.602   2.951  0.1547  0.5169 -0.4964
  549MOL0     C75670  -0.793   1.744   2.723 -0.4543 -0.1515  0.4789
  549MOL0     C75671  -0.711   1.636   2.738 -0.9403  0.1178 -0.8144
  549MOL0     O75672  -0.604   1.477   3.054  0.4844  0.6392 -1.0656
  549MOL0     C75673  -0.541   1.181   2.868 -0.2152  0.3885  0.7083
  549MOL0     C75674  -0.471   1.060   2.861  0.1787  0.1165  0.1093
  549MOL0     N75675   0.210   0.657   2.963  0.0443  0.4426  0.1665
  549MOL0     N75676   0.333   0.684   2.963 -0.2636 -0.4817  0.1173
  549MOL0     C75677   1.522   0.774   3.559 -0.4200  0.0089  0.5153
  549MOL0     C75678   1.617   0.862   3.495  0.5382 -1.0997  0.4153
  549MOL0     C75679   1.868   1.074   3.187  0.5500  0.8874 -0.0556
  549MOL0     C75680   1.862   1.195   3.254  0.0489 -0.2878 -0.0513
  549MOL0     C75681   1.954   1.292   3.223 -0.8858 -0.2456 -0.2426
  549MOL0     C75682   2.060   1.281   3.135 -0.0048 -0.4674  0.5689
  549MOL0     O75683   2.131   1.393   3.105  0.5110  0.1246 -0.3432
  549MOL0     C75684   2.250   1.365   3.033 -0.4677 -0.0789 -0.6552
  549MOL0     C75685   2.337   1.495   3.050 -0.1986 -0.2973  0.9746
  549MOL0     C75686   2.485   1.467   3.008  0.0930 -0.7763 -0.2606
  549MOL0     C75687   2.551   1.335   3.064  0.4419 -0.5300  0.4060
  549MOL0     C75688   2.530   1.223   2.969  0.8534  0.3951 -0.4552
  549MOL0     C75689   2.491   1.122   2.912 -0.9382 -0.3025  0.9981
  549MOL0     C75690   2.063   1.158   3.064  0.1836 -0.5798  0.7646
  549MOL0     C75691   1.973   1.052   3.086 -0.0985 -0.6026 -0.6737
  549MOL0     C75692   1.992   0.935   2.994  0.3334 -1.5820  0.4975
  549MOL0     H75693   1.426   0.939   3.218  0.1506 -4.0006 -1.6185
  549MOL0     H75694   1.283   0.757   3.316 -1.1006 -0.1590  2.0442
  549MOL0     H75695   1.141   0.699   3.492 -0.9905 -0.2848  2.0895
  549MOL0     H75696   1.135   0.568   3.589 -0.4173 -0.4691 -0.9697
  549MOL0     H75697   1.244   0.545   3.297 -2.0524  0.3477 -1.9573
  549MOL0     H75698   1.235   0.408   3.404  0.7995 -0.8302 -2.5459
  549MOL0     H75699   1.055   0.433   3.235  2.0530  0.5718 -0.6752
  549MOL0     H75700   1.001   0.423   3.402  1.0862  0.5387  1.1959
  549MOL0     H75701   0.908   0.652   3.395  1.8999 -0.1188  0.4592
  549MOL0     H75702   1.010   0.694   3.247 -0.4935 -1.0093 -3.0043
  549MOL0     H75703   0.798   0.487   3.222  0.0142  0.5656  1.3078
  549MOL0     H75704   0.893   0.590   3.113  3.8937  1.9075  0.9646
  549MOL0     H75705   0.690   0.684   3.336 -1.4188  2.3334 -1.1461
  549MOL0     H75706   0.782   0.782   3.224  0.6946 -0.4109 -2.4398
  549MOL0     H75707   0.566   0.583   3.150  3.6624 -0.9231  2.6712
  549MOL0     H75708   0.650   0.675   3.023  0.1665  0.3426 -0.4150
  549MOL0     H75709   0.480   0.801   3.242  0.0255 -0.6011  0.2332
  549MOL0     H75710   0.527   0.886   3.092  1.9112 -1.0682 -1.3371
  549MOL0     H75711   0.238   0.781   3.260 -0.6066  0.5243  0.1865
  549MOL0     H75712  -0.009   0.727   3.207  0.3465  0.5142 -0.6913
  549MOL0     H75713   0.002   0.573   3.126  4.3761 -1.3873 -0.8285
  549MOL0     H75714  -0.062   0.833   2.972  1.8081  0.3255 -1.3982
  549MOL0     H75715  -0.057   0.666   2.909  1.2042 -0.0642  0.5321
  549MOL0     H75716  -0.294   0.655   2.959 -1.4957  0.7747  0.2149
  549MOL0     H75717  -0.228   0.631   3.114  0.1907 -1.1705 -0.6466
  549MOL0     H75718  -0.407   0.826   3.106 -1.4150  2.6450 -0.4802
  549MOL0     H75719  -0.250   0.885   3.155 -2.8962 -0.2952  0.6313
  549MOL0     H75720  -0.254   1.110   3.106  3.1868  1.0430 -3.5933
  549MOL0     H75721  -0.301   1.316   3.245 -0.5007 -1.3880  0.4712
  549MOL0     H75722  -0.468   1.358   3.247  2.0706 -0.4485  2.8059
  549MOL0     H75723  -0.362   1.443   3.127  2.0383 -0.3310  0.9576
  549MOL0     H75724  -0.890   1.477   2.981 -0.1940 -2.4734 -2.6726
  549MOL0     H75725  -1.029   1.664   2.943 -0.3679 -1.9171 -1.3259
  549MOL0     H75726  -0.834   1.986   2.819 -1.0008 -2.6005  1.5547
  549MOL0     H75727  -0.916   2.021   2.669  0.7887  1.2221 -0.4443
  549MOL0     H75728  -1.091   2.131   2.779 -2.0225  1.6922  4.9959
  549MOL0     H75729  -1.059   2.061   2.938  2.8248 -2.3155 -0.1153
  549MOL0     H75730  -0.878   2.283   2.797 -0.7718  5.7375  1.5717
  549MOL0     H75731  -0.838   2.209   2.950  1.9991  2.5746 -0.3872
  549MOL0     H75732  -1.024   2.334   3.069  0.8315  1.9795 -0.2890
  549MOL0     H75733  -1.109   2.358   2.912 -0.3427 -0.5299  0.5022
  549MOL0     H75734  -0.955   2.531   2.865  1.4051 -1.6026 -0.2763
  549MOL0     H75735  -1.014   2.540   3.020 -0.9232  0.1856 -1.3886
  549MOL0     H75736  -0.734   2.427   2.948  2.8362 -3.8281  4.3584
  549MOL0     H75737  -0.803   2.418   3.116 -1.3100 -0.2974 -0.3416
  549MOL0     H75738  -0.812   2.640   3.141 -0.0749  0.3193 -0.3291
  549MOL0     H75739  -0.774   2.686   2.974 -0.6510 -0.6763 -1.4219
  549MOL0     H75740  -0.570   2.528   3.148  0.0071  0.5301 -1.6754
  549MOL0     H75741  -0.568   2.702   3.140  1.0814 -0.2496 -0.1560
  549MOL0     H75742  -0.776   1.817   2.645  2.8241 -0.7799  0.4361
  549MOL0     H75743  -0.620   1.619   2.681  0.2050 -0.4865  1.0879
  549MOL0     H75744  -0.612   1.208   2.790 -2.2544  1.2047  2.7072
  549MOL0     H75745  -0.485   0.982   2.787  1.7885 -0.3296  0.2295
  549MOL0     H75746   1.549   0.719   3.649  1.5410  0.0832  0.0123
  549MOL0     H75747   1.715   0.889   3.533  0.9604  0.6258 -1.6701
  549MOL0     H75748   1.791   1.223   3.332  0.3557  0.6027 -0.0830
  549MOL0     H75749   1.963   1.381   3.286  3.2671 -1.7247  1.6009
  549MOL0     H75750   2.299   1.272   3.062 -0.9670 -0.5731 -1.3588
  549MOL0     H75751   2.225   1.365   2.926 -0.8283  0.2357 -0.5731
  549MOL0     H75752   2.340   1.537   3.151  1.2559  1.9289  0.0784
  549MOL0     H75753   2.304   1.566   2.973 -1.5576 -3.3705 -1.5019
  549MOL0     H75754   2.471   1.460   2.900  0.3061 -0.9920 -0.2747
  549MOL0     H75755   2.539   1.556   3.044 -0.7646 -1.1195  2.0517
  549MOL0     H75756   2.504   1.303   3.158  0.1338 -0.1637  0.3763
  549MOL0     H75757   2.657   1.354   3.079  1.0520 -0.1170 -3.4612
  549MOL0     H75758   2.459   1.029   2.869  0.0573  0.4979 -1.7074
  549MOL0     H75759   2.129   1.141   2.980  2.1788 -3.5003  2.6981
  549MOL0     H75760   1.913   0.916   2.922 -0.5057 -2.4035  1.6083
  549MOL0     H75761   2.091   0.931   2.947 -0.3557 -0.4718 -1.1426
  549MOL0     H75762   1.976   0.854   3.066 -0.3175 -2.9596 -1.1359
  550MOL0     O75763   4.999   6.592   7.985  0.3871  0.4531  0.5054
  550MOL0     C75764   4.939   6.676   7.928 -0.1040  0.0915  0.8337
  550MOL0     O75765   4.815   6.725   7.962  0.1172 -0.8256 -0.2117
  550MOL0     C75766   4.749   6.711   8.086 -0.2547 -0.5446  1.0414
  550MOL0     C75767   4.826   6.682   8.197 -0.5356  0.3789  0.0066
  550MOL0     C75768   4.770   6.658   8.327 -0.1602 -0.5949 -0.0488
  550MOL0     C75769   4.638   6.690   8.347  0.2152 -0.1951  0.7572
  550MOL0     O75770   4.582   6.682   8.465 -0.3735 -0.0891 -0.2502
  550MOL0     C75771   4.509   6.802   8.510 -0.5054  0.6493 -0.7844
  550MOL0     C75772   4.603   6.929   8.520 -0.4410  0.8542 -0.1452
  550MOL0     C75773   4.675   6.946   8.659 -0.5430  0.2386 -0.3656
  550MOL0     C75774   4.773   6.834   8.682  0.0838  0.0444  0.2167
  550MOL0     C75775   4.854   6.865   8.814  0.7093  0.1311  0.0019
  550MOL0     C75776   4.984   6.772   8.816  0.1671 -0.0323  0.2352
  550MOL0     C75777   5.032   6.762   8.966 -0.1960 -0.2454 -0.4558
  550MOL0     C75778   5.167   6.691   8.980 -0.6258 -0.2401  0.1786
  550MOL0     N75779   5.270   6.770   8.909  0.1551 -0.3603 -0.2771
  550MOL0     C75780   5.282   6.904   8.925 -0.4513  0.4814  0.4959
  550MOL0     C75781   5.404   6.935   8.867  0.1539 -0.7262 -1.3457
  550MOL0     C75782   5.460   7.069   8.831 -0.1278 -0.3451 -0.4510
  550MOL0     C75783   5.422   7.113   8.690  0.3806  0.5212  0.2538
  550MOL0     C75784   5.276   7.141   8.684 -0.6561 -0.2220 -0.0035
  550MOL0     C75785   5.235   7.247   8.577  0.1053  0.3701  1.0996
  550MOL0     O75786   5.100   7.218   8.549  1.1394  0.5993  0.1053
  550MOL0     C75787   5.036   7.312   8.478  0.7799 -0.3189  0.5262
  550MOL0     C75788   4.905   7.273   8.448 -0.0378  0.4969 -0.2853
  550MOL0     C75789   4.823   7.353   8.363 -0.4543  0.8818  0.5506
  550MOL0     C75790   4.690   7.293   8.326  0.0368 -0.9053  1.1021
  550MOL0     C75791   4.865   7.479   8.323 -0.2648  0.6074  0.5954
  550MOL0     C75792   4.777   7.562   8.250 -0.1703  0.0903  0.1988
  550MOL0     O75793   4.847   7.649   8.163 -0.6853  0.3619 -0.0488
  550MOL0     C75794   4.779   7.732   8.080  0.3303 -0.0218 -0.6827
  550MOL0     C75795   4.767   7.708   7.941 -0.9385  0.1867  0.3870
  550MOL0     C75796   4.696   7.799   7.859 -0.3170 -0.0848 -0.4644
  550MOL0     C75797   4.631   7.903   7.918 -0.3320 -0.3622 -0.7761
  550MOL0     O75798   4.556   7.999   7.851 -0.7233 -0.3534  0.4395
  550MOL0     C75799   4.546   7.996   7.706  0.1205 -0.4813 -0.7500
  550MOL0     C75800   4.449   8.101   7.660 -0.6164 -0.4755  0.7371
  550MOL0     C75801   4.439   8.090   7.507  1.6574  0.2910  0.1288
  550MOL0     C75802   4.358   8.203   7.453 -0.2350 -0.4827 -0.3492
  550MOL0     C75803   4.290   8.150   7.329  0.8043 -0.0932 -0.0799
  550MOL0     C75804   4.185   8.032   7.341  0.7016 -0.0240  0.6386
  550MOL0     C75805   4.050   8.082   7.392 -0.2365 -0.3125  0.3856
  550MOL0     C75806   3.971   7.986   7.492 -0.2527 -1.1028  0.1079
  550MOL0    Cl75807   3.919   7.846   7.395 -0.1875  0.0660 -0.2026
  550MOL0     C75808   4.644   7.925   8.053  0.0432 -0.9426 -0.4449
  550MOL0     C75809   4.709   7.838   8.134 -0.0093  1.2212 -0.5738
  550MOL0     O75810   4.656   7.571   8.267  0.3363 -0.3154  0.2046
  550MOL0     C75811   4.987   7.525   8.369 -0.1558 -0.8857  0.0365
  550MOL0     C75812   5.078   7.441   8.432 -0.3585 -0.2937 -0.6769
  550MOL0     N75813   5.453   6.817   8.820 -0.3335  0.0478 -0.6144
  550MOL0     N75814   5.373   6.720   8.839  0.0890 -0.4816  0.1786
  550MOL0     C75815   4.556   6.719   8.237  0.2272 -0.1751  0.6957
  550MOL0     C75816   4.622   6.748   8.112  0.0402 -0.7572  0.1641
  550MOL0     C75817   5.006   6.726   7.801  0.3627 -0.5583  0.0890
  550MOL0     C75818   5.112   6.649   7.748 -0.1080 -0.1951  0.4226
  550MOL0     C75819   5.156   6.671   7.611 -0.1802 -0.3527  0.1176
  550MOL0     C75820   5.127   6.785   7.542  1.0353  0.0646  0.9996
  550MOL0     O75821   5.171   6.813   7.410 -0.6331  0.3679 -0.0318
  550MOL0     C75822   5.316   6.792   7.391 -0.3311 -0.7418  0.2741
  550MOL0     C75823   5.359   6.816   7.244 -0.8206 -0.0724 -0.3329
  550MOL0     C75824   5.500   6.771   7.212 -0.6996 -0.2485 -0.2002
  550MOL0     C75825   5.604   6.810   7.314 -0.7264  0.0599  0.9862
  550MOL0     C75826   5.730   6.753   7.271 -1.6343  0.5777  0.2140
  550MOL0     C75827   5.833   6.694   7.235 -0.0043  0.4828 -0.6404
  550MOL0     C75828   5.032   6.874   7.601 -0.2798 -0.5185 -0.9262
  550MOL0     C75829   4.971   6.846   7.732  0.0281 -0.3848  0.7493
  550MOL0     C75830   4.871   6.948   7.788 -0.2833  0.4319  1.3530
  550MOL0     H75831   4.933   6.668   8.188 -0.6222 -2.0862  2.0433
  550MOL0     H75832   4.834   6.622   8.407  1.3557  0.4777 -0.7322
  550MOL0     H75833   4.477   6.780   8.612  1.2003 -2.5914 -0.8170
  550MOL0     H75834   4.421   6.822   8.449 -1.6151 -1.5302  0.0111
  550MOL0     H75835   4.674   6.915   8.437 -0.5092  0.6792 -0.1742
  550MOL0     H75836   4.539   7.016   8.509 -0.9764  0.4048 -0.6817
  550MOL0     H75837   4.722   7.044   8.669 -1.2144  0.6116 -0.7939
  550MOL0     H75838   4.603   6.939   8.741 -0.0104  2.1592  0.3165
  550MOL0     H75839   4.721   6.739   8.695 -0.0591  0.4451  3.2106
  550MOL0     H75840   4.841   6.822   8.597 -1.3668  1.4518 -1.2035
  550MOL0     H75841   4.793   6.834   8.899  0.9205 -1.8414 -0.5052
  550MOL0     H75842   4.885   6.968   8.829 -1.2321  0.8468 -0.5866
  550MOL0     H75843   4.973   6.670   8.777 -1.4208 -0.0327  0.6065
  550MOL0     H75844   5.060   6.815   8.750 -0.5559 -0.4890 -0.9230
  550MOL0     H75845   4.950   6.710   9.016 -0.5987  1.3612  0.6060
  550MOL0     H75846   5.040   6.865   9.001 -1.5561  0.5426 -2.2398
  550MOL0     H75847   5.192   6.668   9.084 -2.1951 -1.1758  0.3691
  550MOL0     H75848   5.171   6.596   8.926 -2.2986  1.5585 -3.4924
  550MOL0     H75849   5.202   6.973   8.950  0.3876  1.6236  0.1051
  550MOL0     H75850   5.569   7.061   8.837 -0.1978 -0.3246  1.5902
  550MOL0     H75851   5.426   7.138   8.909 -2.1753 -1.3218 -0.4189
  550MOL0     H75852   5.482   7.196   8.651 -0.9589  1.9033  1.0347
  550MOL0     H75853   5.444   7.026   8.627 -1.5528  0.2380 -0.0764
  550MOL0     H75854   5.212   7.055   8.665 -2.9711  1.7272 -1.7279
  550MOL0     H75855   5.238   7.168   8.783 -1.2314  2.6061 -0.8755
  550MOL0     H75856   5.244   7.349   8.616 -2.3558  0.1315  2.4869
  550MOL0     H75857   5.307   7.222   8.499  3.3126  0.0550  3.9427
  550MOL0     H75858   4.876   7.175   8.487 -2.5227  1.2170 -0.1935
  550MOL0     H75859   4.700   7.185   8.320  1.6678 -0.8020  1.5601
  550MOL0     H75860   4.658   7.321   8.225 -0.7284 -0.8572  1.3516
  550MOL0     H75861   4.627   7.325   8.410  3.3492  1.6308  2.8671
  550MOL0     H75862   4.814   7.639   7.873 -1.7782 -0.5278  0.5163
  550MOL0     H75863   4.707   7.786   7.752  5.0123  1.2252 -0.3493
  550MOL0     H75864   4.647   7.992   7.665  0.9357 -0.7657  1.2017
  550MOL0     H75865   4.505   7.896   7.687  1.5029 -1.3448  0.5417
  550MOL0     H75866   4.346   8.094   7.697 -1.0815 -1.1695 -0.6046
  550MOL0     H75867   4.480   8.202   7.689  1.6953 -0.8598 -0.2001
  550MOL0     H75868   4.406   7.990   7.478  0.5598  1.2136 -2.0055
  550MOL0     H75869   4.540   8.103   7.468  2.2987 -2.6705  0.5391
  550MOL0     H75870   4.413   8.295   7.430  1.3155 -0.4819  2.8443
  550MOL0     H75871   4.280   8.228   7.526  0.3151 -2.4400  1.0058
  550MOL0     H75872   4.238   8.231   7.278 -1.9643 -3.0097 -2.3394
  550MOL0     H75873   4.364   8.113   7.258  1.7530  1.2948  0.1568
  550MOL0     H75874   4.216   7.939   7.390 -0.8373  1.0209  3.8643
  550MOL0     H75875   4.174   7.991   7.240 -0.5286  0.0217  0.7474
  550MOL0     H75876   3.991   8.123   7.309 -1.6669  1.2417  2.0712
  550MOL0     H75877   4.060   8.173   7.452 -1.3488 -0.5079  0.8961
  550MOL0     H75878   3.886   8.027   7.547  0.0058 -0.8490  0.3192
  550MOL0     H75879   4.041   7.956   7.571  1.4467  0.2406 -0.8158
  550MOL0     H75880   4.597   8.008   8.105  0.3912 -0.1395 -1.3854
  550MOL0     H75881   4.716   7.849   8.242  1.1664 -2.5424 -0.1234
  550MOL0     H75882   5.010   7.626   8.335  0.4630 -0.2357  2.2540
  550MOL0     H75883   5.183   7.462   8.453 -0.1258 -2.6271  0.8195
  550MOL0     H75884   4.449   6.733   8.244  0.4581  2.9082 -0.6535
  550MOL0     H75885   4.557   6.772   8.029  1.6483 -1.5438 -1.4012
  550MOL0     H75886   5.151   6.563   7.802 -1.4431  0.1508  2.0370
  550MOL0     H75887   5.228   6.603   7.566  3.3025  2.3125  1.1493
  550MOL0     H75888   5.373   6.849   7.466  3.6020  1.8890 -4.1292
  550MOL0     H75889   5.346   6.687   7.401  0.9486 -0.5238 -0.9786
  550MOL0     H75890   5.354   6.923   7.220  1.1918 -0.2261 -1.6969
  550MOL0     H75891   5.293   6.762   7.175 -0.2638 -2.4491  0.8806
  550MOL0     H75892   5.499   6.661   7.213 -1.4348 -0.2719 -1.6162
  550MOL0     H75893   5.524   6.782   7.106  1.7661 -2.4849  0.0182
  550MOL0     H75894   5.570   6.764   7.408 -1.9788  1.3650  1.2016
  550MOL0     H75895   5.600   6.919   7.321 -2.8797 -0.0968  4.9126
  550MOL0     H75896   5.916   6.634   7.204 -0.4998  0.0957 -1.2442
  550MOL0     H75897   5.028   6.968   7.547 -0.7128 -1.4014 -2.4805
  550MOL0     H75898   4.874   7.037   7.725 -1.3696  1.0435  2.1299
  550MOL0     H75899   4.772   6.903   7.795  0.5005 -1.8713 -0.8250
  550MOL0     H75900   4.889   6.976   7.893 -0.8592  2.0903  1.0403
  551MOL0     O75901   9.624   6.442   3.579 -0.1796 -0.1936 -0.2712
  551MOL0     C75902   9.627   6.403   3.695 -0.1829  0.3791 -0.6048
  551MOL0     O75903   9.667   6.479   3.802  0.4166  0.4373 -0.1127
  551MOL0     C75904   9.752   6.584   3.794 -0.5039  0.9787 -0.3603
  551MOL0     C75905   9.833   6.622   3.688 -0.2584  0.1669  0.2071
  551MOL0     C75906   9.927   6.719   3.703 -0.4315  1.0216 -0.4571
  551MOL0     C75907   9.954   6.774   3.832  0.2957 -0.7021  0.3945
  551MOL0     O75908  10.031   6.889   3.859  0.0852 -0.4272  0.2136
  551MOL0     C75909  10.000   7.008   3.778 -0.1407  0.2280  0.7784
  551MOL0     C75910  10.052   7.015   3.647 -0.6282 -0.1158  1.3875
  551MOL0     C75911  10.063   7.163   3.588 -0.6445  0.1232  0.8535
  551MOL0     C75912   9.921   7.206   3.539  0.5757 -0.6687  0.1878
  551MOL0     C75913   9.917   7.341   3.464  0.6844  0.7844  0.0420
  551MOL0     C75914   9.978   7.455   3.538 -0.0595  0.1803  0.3269
  551MOL0     C75915   9.949   7.596   3.490  0.0811  0.2491 -0.8857
  551MOL0     C75916   9.963   7.611   3.338 -0.0493  0.1101 -0.5589
  551MOL0     N75917   9.963   7.752   3.295 -0.7070  0.3672  0.5919
  551MOL0     C75918   9.980   7.802   3.161  0.9467 -0.2012 -0.9348
  551MOL0     C75919  10.016   7.931   3.172 -0.7805  0.9744 -0.0685
  551MOL0     C75920  10.053   8.016   3.060  0.2190  0.6029 -0.2923
  551MOL0     C75921   9.974   8.145   3.067 -0.3848  0.9446  0.4210
  551MOL0     C75922   9.820   8.134   3.046 -1.0710 -0.4476 -0.4830
  551MOL0     C75923   9.789   8.277   2.977 -0.2173  0.4465  0.2783
  551MOL0     O75924   9.803   8.267   2.834  0.3419 -0.1901  0.9730
  551MOL0     C75925   9.823   8.376   2.751  0.6339 -0.5487  0.6145
  551MOL0     C75926   9.745   8.493   2.763 -0.2612  0.1410  0.9947
  551MOL0     C75927   9.758   8.595   2.670 -0.1987 -1.1939  0.1604
  551MOL0     C75928   9.662   8.712   2.681 -0.8719  0.3123 -0.0426
  551MOL0     C75929   9.873   8.588   2.585  0.6391 -1.0862  0.9884
  551MOL0     C75930   9.903   8.687   2.474 -0.0202  0.1421  0.7553
  551MOL0     O75931   9.813   8.791   2.453  0.4285 -0.4117 -0.0509
  551MOL0     C75932   9.783   8.838   2.330 -0.0731  0.3208 -1.0767
  551MOL0     C75933   9.813   8.979   2.320  0.6260  0.3983 -0.5248
  551MOL0     C75934   9.795   9.051   2.198  0.3086 -0.0333  0.2762
  551MOL0     C75935   9.758   8.979   2.096  0.1978 -0.8772 -0.3860
  551MOL0     O75936   9.738   9.050   1.979 -0.2738 -0.0064  0.2341
  551MOL0     C75937   9.731   8.975   1.861  0.0473 -0.3262  0.1321
  551MOL0     C75938   9.752   9.058   1.739  1.4566 -0.2430  0.6462
  551MOL0     C75939   9.632   9.135   1.693  0.6936  0.0950 -0.5034
  551MOL0     C75940   9.662   9.261   1.621  0.6571  0.8870  0.3123
  551MOL0     C75941   9.543   9.357   1.617 -0.3122 -0.4452  0.0970
  551MOL0     C75942   9.572   9.488   1.550 -0.1600  0.2751  0.3576
  551MOL0     C75943   9.447   9.567   1.524  0.3769 -0.5278 -0.0346
  551MOL0     C75944   9.410   9.631   1.663  0.1618  0.3886  0.0547
  551MOL0    Cl75945   9.300   9.765   1.652 -0.2913 -0.0025  0.5343
  551MOL0     C75946   9.728   8.841   2.098 -0.3719 -0.0899  0.1931
  551MOL0     C75947   9.747   8.759   2.217  0.1100 -0.3094 -0.3977
  551MOL0     O75948   9.989   8.658   2.394  0.6386 -0.3294 -0.0574
  551MOL0     C75949   9.961   8.472   2.599 -0.2410 -0.2352 -0.1818
  551MOL0     C75950   9.930   8.367   2.671 -0.2290 -0.3135  0.3532
  551MOL0     N75951   9.989   7.968   3.301  0.0753  0.1677 -0.1469
  551MOL0     N75952   9.960   7.864   3.373 -0.8022  1.0759 -0.2022
  551MOL0     C75953   9.878   6.741   3.941 -0.7598  0.0355  0.2809
  551MOL0     C75954   9.778   6.645   3.921 -0.1543 -0.3033 -0.5915
  551MOL0     C75955   9.571   6.273   3.740 -0.4220 -0.2454 -0.6664
  551MOL0     C75956   9.488   6.205   3.647 -0.7011 -0.6581 -0.7105
  551MOL0     C75957   9.444   6.079   3.661  0.8244  0.2329 -0.6618
  551MOL0     C75958   9.473   6.013   3.779 -0.2627  0.1611  0.5038
  551MOL0     O75959   9.435   5.885   3.799 -0.5234  0.3242 -0.1402
  551MOL0     C75960   9.346   5.810   3.716  0.7025 -0.7829  0.3921
  551MOL0     C75961   9.341   5.658   3.760  0.2571 -0.6352 -0.3339
  551MOL0     C75962   9.461   5.576   3.728 -0.1414  0.2785 -0.2985
  551MOL0     C75963   9.483   5.522   3.584  0.8997 -0.2315  0.1272
  551MOL0     C75964   9.395   5.409   3.552  0.5079 -0.5366  0.0674
  551MOL0     C75965   9.323   5.312   3.527  0.5371 -1.4475  1.0078
  551MOL0     C75966   9.546   6.080   3.882 -0.1907  0.5017  0.1492
  551MOL0     C75967   9.595   6.207   3.865 -0.7477 -0.2161  0.2612
  551MOL0     C75968   9.684   6.264   3.973 -0.0739 -0.7965 -0.4192
  551MOL0     H75969   9.818   6.578   3.590 -0.5876  2.7302 -0.9783
  551MOL0     H75970   9.985   6.744   3.615  4.8836  1.3869  2.7219
  551MOL0     H75971  10.032   7.103   3.824 -1.7424  0.9429  0.4996
  551MOL0     H75972   9.891   7.010   3.770  0.0129  1.4038 -2.1275
  551MOL0     H75973  10.154   6.976   3.641  0.7036  3.2908 -1.7243
  551MOL0     H75974   9.988   6.962   3.576 -0.8232 -0.7689  2.0353
  551MOL0     H75975  10.104   7.233   3.662  1.1869  1.6090 -1.3871
  551MOL0     H75976  10.122   7.165   3.496 -0.6112  0.4981  0.8809
  551MOL0     H75977   9.871   7.131   3.476  1.7328 -1.3707  0.0799
  551MOL0     H75978   9.853   7.214   3.624  2.2799 -1.8000  1.7082
  551MOL0     H75979   9.816   7.372   3.436  1.5542  2.5886 -1.3259
  551MOL0     H75980   9.967   7.311   3.371  1.3731 -2.6690  1.3655
  551MOL0     H75981   9.949   7.449   3.643 -0.6101  1.0045  0.2383
  551MOL0     H75982  10.087   7.444   3.528  0.0746  1.1350  0.5579
  551MOL0     H75983  10.014   7.669   3.539 -1.4017 -0.0900  1.7405
  551MOL0     H75984   9.849   7.614   3.530 -0.7093 -2.2606 -1.5472
  551MOL0     H75985  10.055   7.561   3.305 -0.0755 -0.6186  0.4088
  551MOL0     H75986   9.884   7.553   3.289 -0.1555  0.7628 -1.1746
  551MOL0     H75987   9.976   7.747   3.068 -0.6405 -2.2439  0.2551
  551MOL0     H75988  10.051   7.971   2.960  2.2892  2.3941 -1.2349
  551MOL0     H75989  10.157   8.049   3.070  0.8101 -1.8037  3.6172
  551MOL0     H75990  10.006   8.200   3.157  4.7131  0.9780 -1.0913
  551MOL0     H75991  10.023   8.205   2.989 -0.9563  0.4742 -0.3019
  551MOL0     H75992   9.805   8.049   2.979  4.7549 -0.5836 -2.1991
  551MOL0     H75993   9.770   8.118   3.142 -2.9584 -0.6206 -1.4480
  551MOL0     H75994   9.687   8.295   3.011 -0.4346 -0.2346 -0.0069
  551MOL0     H75995   9.859   8.353   3.013  3.0357 -0.3806 -3.5943
  551MOL0     H75996   9.669   8.490   2.840 -0.3393 -2.6195  0.9104
  551MOL0     H75997   9.614   8.734   2.586 -1.4363 -0.1330  0.1344
  551MOL0     H75998   9.708   8.807   2.712  1.7000 -1.1390  0.8713
  551MOL0     H75999   9.582   8.681   2.749 -1.4349  2.5825  0.4096
  551MOL0     H76000   9.856   9.024   2.408  2.1334 -0.3389 -0.8318
  551MOL0     H76001   9.830   9.154   2.189  1.3118 -0.0947  2.6494
  551MOL0     H76002   9.823   8.915   1.854  0.6306 -0.1108  4.0881
  551MOL0     H76003   9.635   8.924   1.849  0.1274 -0.3897 -0.2577
  551MOL0     H76004   9.836   9.125   1.757  1.5208 -0.1120 -0.1098
  551MOL0     H76005   9.793   9.000   1.656  4.1243 -1.1433  2.4757
  551MOL0     H76006   9.571   9.168   1.777 -0.7179 -1.2924 -0.9318
  551MOL0     H76007   9.579   9.066   1.627 -0.6904  2.0204 -1.4788
  551MOL0     H76008   9.683   9.238   1.516  0.5721  0.1029  0.4625
  551MOL0     H76009   9.748   9.314   1.664  2.4766  2.8807 -4.9197
  551MOL0     H76010   9.456   9.314   1.567 -1.6124 -0.6735  2.3901
  551MOL0     H76011   9.492   9.364   1.714 -0.1928 -0.7870  0.1867
  551MOL0     H76012   9.623   9.461   1.457 -0.1581 -0.2192  0.4998
  551MOL0     H76013   9.648   9.541   1.608  0.7552 -1.9858  1.3406
  551MOL0     H76014   9.363   9.512   1.483  0.6804  1.0435 -3.0891
  551MOL0     H76015   9.482   9.635   1.445  0.7150 -1.6480 -0.8821
  551MOL0     H76016   9.493   9.667   1.725 -0.1793 -1.2415  1.5504
  551MOL0     H76017   9.369   9.546   1.719 -1.1241  0.9948  0.0779
  551MOL0     H76018   9.692   8.788   2.011  1.8213 -1.8060  0.2573
  551MOL0     H76019   9.739   8.651   2.226  1.9330 -0.5533 -1.3492
  551MOL0     H76020  10.051   8.463   2.540 -1.4093 -0.7847 -1.9558
  551MOL0     H76021   9.992   8.279   2.660  2.4232  1.6314 -1.8401
  551MOL0     H76022   9.902   6.792   4.034  0.6824  1.8720 -1.0299
  551MOL0     H76023   9.718   6.615   4.007  1.5477 -0.8847  0.4604
  551MOL0     H76024   9.460   6.263   3.559 -2.3031 -0.7463 -0.2885
  551MOL0     H76025   9.388   6.041   3.576 -1.2709 -1.0507  1.1780
  551MOL0     H76026   9.252   5.861   3.739  0.9024 -1.3725  2.8609
  551MOL0     H76027   9.366   5.821   3.610 -1.1340  0.3804  0.1164
  551MOL0     H76028   9.272   5.612   3.688  3.7156 -0.8158 -3.8843
  551MOL0     H76029   9.313   5.633   3.863  1.6786 -1.7535 -0.1825
  551MOL0     H76030   9.549   5.638   3.748  1.5461 -2.4024  1.1877
  551MOL0     H76031   9.471   5.502   3.808 -1.4094  1.0648  0.6215
  551MOL0     H76032   9.586   5.488   3.570  1.5544  0.6472  2.4565
  551MOL0     H76033   9.464   5.598   3.508 -3.3780 -1.1186  0.0592
  551MOL0     H76034   9.270   5.223   3.502 -0.4056 -0.2515 -1.5966
  551MOL0     H76035   9.567   6.033   3.978  4.2176  0.5549 -0.5837
  551MOL0     H76036   9.782   6.292   3.932 -1.3395  3.0860 -1.2457
  551MOL0     H76037   9.647   6.354   4.023 -1.8075 -1.7647  0.1402
  551MOL0     H76038   9.716   6.194   4.051  5.0678  0.4631 -1.0817
  552MOL0     O76039   1.793   1.050   3.808  0.2857 -1.1467 -0.8192
  552MOL0     C76040   1.679   1.072   3.849 -0.4078 -0.2856 -0.2417
  552MOL0     O76041   1.617   1.191   3.842 -0.2797 -0.3772 -0.5395
  552MOL0     C76042   1.654   1.289   3.751  0.2036 -0.3231  0.9217
  552MOL0     C76043   1.708   1.413   3.805  0.0839  0.8954 -0.2900
  552MOL0     C76044   1.756   1.515   3.716  0.8153  0.2724 -1.2296
  552MOL0     C76045   1.733   1.503   3.576  0.4660 -0.2599 -0.2556
  552MOL0     O76046   1.776   1.592   3.478  0.4298  0.1006 -0.2975
  552MOL0     C76047   1.765   1.733   3.515 -1.3118  0.5074  0.1531
  552MOL0     C76048   1.637   1.788   3.445 -1.1218 -0.2853  0.4792
  552MOL0     C76049   1.602   1.928   3.495 -0.4194 -0.0345  0.1755
  552MOL0     C76050   1.496   1.921   3.609 -0.2747 -0.4116 -0.3800
  552MOL0     C76051   1.423   2.044   3.639 -0.1364 -0.0966 -0.0532
  552MOL0     C76052   1.502   2.166   3.667 -0.7006 -0.1644  0.8525
  552MOL0     C76053   1.413   2.282   3.731  0.0737  0.9030  0.5445
  552MOL0     C76054   1.510   2.395   3.786  0.8628  0.3098 -0.1655
  552MOL0     N76055   1.605   2.331   3.878 -0.0449 -0.2725  0.7810
  552MOL0     C76056   1.571   2.298   4.009  0.2647  0.1382  0.1288
  552MOL0     C76057   1.689   2.283   4.066  0.0906  0.6816 -0.6657
  552MOL0     C76058   1.724   2.294   4.218 -0.0227 -0.6744 -0.1124
  552MOL0     C76059   1.867   2.336   4.242 -0.3692  0.1538 -0.2911
  552MOL0     C76060   1.883   2.487   4.215  0.2984  0.5948  0.8234
  552MOL0     C76061   2.023   2.501   4.159 -1.2580  0.7423  0.5230
  552MOL0     O76062   2.052   2.634   4.121 -0.1558  0.6904  1.0490
  552MOL0     C76063   2.005   2.689   4.003  0.1197  0.1617 -0.2677
  552MOL0     C76064   2.016   2.828   4.000  0.5812  0.7737 -0.4311
  552MOL0     C76065   1.966   2.906   3.895  0.4721  0.8285 -0.4719
  552MOL0     C76066   1.968   3.054   3.914 -0.0457  0.1782  0.2574
  552MOL0     C76067   1.918   2.840   3.781 -1.0171 -0.1502 -0.5823
  552MOL0     C76068   1.877   2.909   3.667  0.4749 -0.9090  0.2389
  552MOL0     O76069   1.959   3.009   3.624 -0.2339  1.0798 -0.0682
  552MOL0     C76070   1.953   3.069   3.496 -0.8000  0.1737  0.7533
  552MOL0     C76071   1.874   3.029   3.384  0.1877 -0.5134 -0.2945
  552MOL0     C76072   1.890   3.086   3.259 -0.0247  0.0358  0.8391
  552MOL0     C76073   1.986   3.190   3.240 -0.3192 -0.4132  0.2286
  552MOL0     O76074   2.038   3.243   3.116 -0.0619  0.2396 -0.0728
  552MOL0     C76075   1.938   3.265   3.013  0.2981 -0.4353  0.2432
  552MOL0     C76076   1.962   3.169   2.897 -0.0394  0.6740  0.3839
  552MOL0     C76077   2.086   3.207   2.809  0.0381 -0.7071 -0.2309
  552MOL0     C76078   2.047   3.288   2.679 -0.1526 -0.1209 -0.2971
  552MOL0     C76079   2.163   3.301   2.568 -0.4381  0.2992 -0.5751
  552MOL0     C76080   2.127   3.352   2.438  0.8161  0.3871 -0.2643
  552MOL0     C76081   2.243   3.405   2.339  0.8154  0.9373 -0.7603
  552MOL0     C76082   2.351   3.300   2.300  0.2164  0.0765 -0.7697
  552MOL0    Cl76083   2.493   3.398   2.228  0.2540 -0.1614 -0.4545
  552MOL0     C76084   2.055   3.243   3.346 -0.5621 -0.2285 -0.0314
  552MOL0     C76085   2.042   3.182   3.477  0.5957 -1.0042  0.1251
  552MOL0     O76086   1.780   2.860   3.601 -0.2463 -0.3931  0.3742
  552MOL0     C76087   1.924   2.696   3.782  0.7447  0.0838  0.9748
  552MOL0     C76088   1.966   2.622   3.890  0.1534  0.8039 -0.2195
  552MOL0     N76089   1.788   2.286   3.975 -0.4305 -0.2718  1.1741
  552MOL0     N76090   1.744   2.316   3.860  0.0736 -0.5147  0.5190
  552MOL0     C76091   1.660   1.392   3.532  0.3005 -0.0846  0.1361
  552MOL0     C76092   1.633   1.278   3.614  0.0095 -0.2763 -0.4499
  552MOL0     C76093   1.613   0.959   3.936 -0.6650  0.9152  0.1244
  552MOL0     C76094   1.487   0.995   4.002  0.4654 -0.2128 -0.1867
  552MOL0     C76095   1.410   0.892   4.057 -0.6506  0.4842  0.0410
  552MOL0     C76096   1.474   0.767   4.073  0.3640 -0.6972  0.2654
  552MOL0     O76097   1.417   0.661   4.143 -0.3602  1.0361  0.1110
  552MOL0     C76098   1.288   0.650   4.199  0.1553  0.6491 -1.1194
  552MOL0     C76099   1.190   0.645   4.083  0.1673 -0.2243 -0.0560
  552MOL0     C76100   1.206   0.522   3.996 -0.2461 -0.0721  0.8411
  552MOL0     C76101   1.116   0.508   3.869 -0.7212 -0.4746 -0.4840
  552MOL0     C76102   0.978   0.480   3.918 -0.2550  0.0223 -0.4479
  552MOL0     C76103   0.867   0.476   3.953 -0.0470 -0.1614 -0.1692
  552MOL0     C76104   1.592   0.730   4.021 -0.7098  0.4722  0.5575
  552MOL0     C76105   1.660   0.823   3.942 -0.5035  0.3650 -0.0178
  552MOL0     C76106   1.787   0.767   3.891  0.6127 -0.4864 -0.2632
  552MOL0     H76107   1.726   1.419   3.912  0.3872  0.3852 -0.3111
  552MOL0     H76108   1.802   1.599   3.766 -0.9541  1.7546 -1.9584
  552MOL0     H76109   1.848   1.781   3.464  0.5372 -3.2263 -0.6987
  552MOL0     H76110   1.770   1.750   3.623 -1.8909 -1.5537  0.5455
  552MOL0     H76111   1.651   1.786   3.337  0.2351  0.5393  0.6212
  552MOL0     H76112   1.557   1.719   3.474 -1.5603  0.2759  0.6355
  552MOL0     H76113   1.688   1.983   3.536 -0.6455  1.0171 -0.7002
  552MOL0     H76114   1.556   1.991   3.418 -3.0618 -1.0975  0.7889
  552MOL0     H76115   1.421   1.852   3.568  2.0253 -1.2859 -3.5640
  552MOL0     H76116   1.538   1.887   3.704  0.4967  0.5022 -0.3890
  552MOL0     H76117   1.361   2.024   3.727  0.3173 -1.0046  0.0665
  552MOL0     H76118   1.361   2.073   3.554  1.6768  0.6046 -1.2057
  552MOL0     H76119   1.589   2.131   3.723 -0.3942  0.1587  0.5852
  552MOL0     H76120   1.531   2.200   3.566 -1.8434 -2.4348 -0.3217
  552MOL0     H76121   1.356   2.238   3.814  1.5697  0.4123  1.3533
  552MOL0     H76122   1.343   2.313   3.653  1.4377 -0.5163 -1.3574
  552MOL0     H76123   1.569   2.432   3.702  2.4053 -0.7637  0.3937
  552MOL0     H76124   1.452   2.458   3.854  0.6452 -1.3843  1.2826
  552MOL0     H76125   1.479   2.313   4.066 -0.3600 -1.3975 -0.4228
  552MOL0     H76126   1.704   2.197   4.264  0.1678 -1.0684 -0.8550
  552MOL0     H76127   1.657   2.365   4.267  0.4438 -2.0312  2.7603
  552MOL0     H76128   1.892   2.308   4.345  3.9820 -0.9965 -1.4587
  552MOL0     H76129   1.937   2.276   4.184  1.1490  2.4417 -0.9547
  552MOL0     H76130   1.806   2.515   4.142 -0.3827  1.0540  1.7026
  552MOL0     H76131   1.870   2.545   4.307  0.2089 -0.8484  1.7557
  552MOL0     H76132   2.088   2.466   4.240  0.8394  0.5534 -1.1298
  552MOL0     H76133   2.030   2.424   4.081  0.9186  1.1026  0.3004
  552MOL0     H76134   2.057   2.876   4.089 -2.8113  0.3762  1.5393
  552MOL0     H76135   2.059   3.087   3.862  0.3682  1.2589  1.5990
  552MOL0     H76136   1.965   3.093   4.016 -0.2387 -1.5086  0.9283
  552MOL0     H76137   1.878   3.094   3.868 -0.8174 -1.7548 -0.0108
  552MOL0     H76138   1.802   2.948   3.395 -0.3246  0.2215  2.9414
  552MOL0     H76139   1.829   3.046   3.179 -0.8963  0.2331  1.3915
  552MOL0     H76140   1.841   3.248   3.060 -1.4285  0.3308 -2.8195
  552MOL0     H76141   1.939   3.367   2.975  2.2422 -1.1455 -1.8220
  552MOL0     H76142   1.980   3.076   2.952 -1.6106  1.8874  3.1630
  552MOL0     H76143   1.873   3.162   2.834  1.8763 -1.1480 -2.3131
  552MOL0     H76144   2.135   3.121   2.763  0.1423  1.4153 -4.5950
  552MOL0     H76145   2.166   3.257   2.864 -0.2343 -1.4916  0.9023
  552MOL0     H76146   2.001   3.382   2.711  0.4764 -0.4982  1.9004
  552MOL0     H76147   1.962   3.238   2.632  1.4065 -3.0573 -0.2526
  552MOL0     H76148   2.241   3.372   2.599 -1.1096  2.1327 -2.7991
  552MOL0     H76149   2.205   3.200   2.569 -4.3546 -1.4951  0.0693
  552MOL0     H76150   2.059   3.437   2.442 -1.5907 -1.3169 -2.2431
  552MOL0     H76151   2.069   3.276   2.386  0.4267  1.6680 -1.7722
  552MOL0     H76152   2.300   3.480   2.395  0.9696  1.7054 -1.9248
  552MOL0     H76153   2.191   3.456   2.258  0.7582  1.9149 -0.1192
  552MOL0     H76154   2.306   3.228   2.232  2.5614 -3.5475  1.1494
  552MOL0     H76155   2.387   3.230   2.377  2.7086  0.6842 -1.3116
  552MOL0     H76156   2.131   3.318   3.328 -0.4796 -0.5266 -0.9926
  552MOL0     H76157   2.113   3.215   3.552 -0.5934  1.3087  0.3432
  552MOL0     H76158   1.893   2.630   3.702 -1.8540  1.8745  0.3774
  552MOL0     H76159   1.969   2.514   3.881  1.4736  0.7769  0.2666
  552MOL0     H76160   1.635   1.409   3.428  1.7646  1.5155 -0.0072
  552MOL0     H76161   1.592   1.189   3.567  0.7386 -0.0284 -1.5899
  552MOL0     H76162   1.442   1.093   4.003  3.6883  1.4104  0.8052
  552MOL0     H76163   1.308   0.910   4.091 -0.8426  0.8384 -0.7178
  552MOL0     H76164   1.283   0.562   4.263 -2.7863  2.1593  0.9564
  552MOL0     H76165   1.281   0.739   4.263  1.5769  2.0797 -2.8203
  552MOL0     H76166   1.211   0.732   4.021  2.0865 -0.5284  0.0733
  552MOL0     H76167   1.097   0.648   4.139  1.0001 -0.6424  1.4202
  552MOL0     H76168   1.306   0.527   3.953 -0.4595 -1.7996  0.0731
  552MOL0     H76169   1.191   0.429   4.052 -0.5138  0.4078  1.5760
  552MOL0     H76170   1.151   0.440   3.791 -0.2450 -0.2014 -0.5171
  552MOL0     H76171   1.113   0.608   3.824  1.9989  0.5500  1.2978
  552MOL0     H76172   0.766   0.476   3.990 -0.3264  4.2184 -0.3589
  552MOL0     H76173   1.614   0.624   4.025 -2.1816  0.1126 -0.2511
  552MOL0     H76174   1.796   0.660   3.916 -3.2384 -0.7651  0.4664
  552MOL0     H76175   1.790   0.771   3.782 -2.9069  1.1986 -0.4197
  552MOL0     H76176   1.874   0.816   3.936  0.5480 -0.9003  0.3280
  553MOL0     O76177  10.694   2.952   2.943 -0.0699  0.2878 -0.0082
  553MOL0     C76178  10.808   2.946   2.898 -0.6209  0.1133 -0.1643
  553MOL0     O76179  10.840   2.940   2.762 -0.5197 -0.7194  0.3327
  553MOL0     C76180  10.781   2.860   2.672 -0.3786  0.5131  0.2853
  553MOL0     C76181  10.825   2.881   2.546  0.4931 -0.3917  0.3059
  553MOL0     C76182  10.768   2.810   2.439  0.8493  0.3808 -0.3144
  553MOL0     C76183  10.676   2.709   2.466 -0.3612 -0.0849 -0.4348
  553MOL0     O76184  10.642   2.623   2.362  0.1308 -0.0885  0.4456
  553MOL0     C76185  10.752   2.565   2.286 -0.0368  0.1325  0.8177
  553MOL0     C76186  10.849   2.478   2.373  0.2020  1.5567 -0.5011
  553MOL0     C76187  10.920   2.380   2.295 -0.4035 -0.0281 -0.4202
  553MOL0     C76188  10.855   2.238   2.278 -0.1233 -0.2166  1.1243
  553MOL0     C76189  10.937   2.144   2.201 -0.7171 -0.2223 -0.5233
  553MOL0     C76190  10.878   2.004   2.210  0.4867 -1.2019  0.4712
  553MOL0     C76191  10.954   1.909   2.125 -0.1822  0.2438 -0.5491
  553MOL0     C76192  10.875   1.773   2.104  0.3648 -0.1220 -0.3545
  553MOL0     N76193  10.891   1.670   2.209  0.3560 -0.0612  0.4402
  553MOL0     C76194  10.982   1.574   2.198 -0.5300 -0.5729 -0.3951
  553MOL0     C76195  11.000   1.532   2.330 -0.2275  0.2589  0.3854
  553MOL0     C76196  11.098   1.435   2.386 -0.8395  0.1162  0.9293
  553MOL0     C76197  11.120   1.440   2.533  0.2835 -0.5746 -0.4898
  553MOL0     C76198  11.219   1.321   2.570 -1.0573  0.6173 -0.0599
  553MOL0     C76199  11.322   1.363   2.673  0.0110 -0.0137  0.0365
  553MOL0     O76200  11.453   1.319   2.625  0.1755 -0.0440 -0.0546
  553MOL0     C76201  11.471   1.187   2.605 -0.0982 -0.6053 -0.5146
  553MOL0     C76202  11.538   1.136   2.491 -0.0761 -0.4879  0.1305
  553MOL0     C76203  11.558   0.998   2.454  0.9896 -0.2533 -0.2940
  553MOL0     C76204  11.635   0.966   2.325  0.5608  0.0594  0.4897
  553MOL0     C76205  11.506   0.903   2.551  0.1552 -0.0712  0.2121
  553MOL0     C76206  11.500   0.755   2.533 -0.7936  0.4540 -0.2827
  553MOL0     O76207  11.516   0.675   2.639  0.0525  0.0944  0.4497
  553MOL0     C76208  11.525   0.534   2.612 -0.1936  0.5250  0.2760
  553MOL0     C76209  11.418   0.442   2.606 -0.4616 -1.2914 -0.6732
  553MOL0     C76210  11.440   0.307   2.583  0.4155  0.0922 -0.4315
  553MOL0     C76211  11.567   0.262   2.539  0.9641  0.5155  0.0384
  553MOL0     O76212  11.573   0.134   2.496 -0.3832  0.2587  0.3317
  553MOL0     C76213  11.581   0.037   2.601  0.3563  0.4316  0.0631
  553MOL0     C76214  11.729   0.015   2.631 -0.0297 -0.0184 -0.4065
  553MOL0     C76215  11.790  -0.077   2.526  0.7140  0.4387  0.6120
  553MOL0     C76216  11.937  -0.041   2.528 -0.3973  0.3204 -0.4516
  553MOL0     C76217  11.999  -0.136   2.423  0.0847 -0.1268 -0.0189
  553MOL0     C76218  11.963  -0.112   2.274 -1.0431  0.0772  0.0179
  553MOL0     C76219  12.063  -0.190   2.175  0.6115 -0.2059  0.1476
  553MOL0     C76220  12.105  -0.098   2.057 -0.4461 -0.0552  0.3105
  553MOL0    Cl76221  11.976  -0.036   1.965  0.3396 -0.0352 -0.0395
  553MOL0     C76222  11.671   0.352   2.523  1.0215  0.1149 -0.4374
  553MOL0     C76223  11.645   0.486   2.551  0.0270  0.5965 -0.0672
  553MOL0     O76224  11.471   0.711   2.417 -0.8566 -0.0824  0.3503
  553MOL0     C76225  11.443   0.953   2.667 -0.5086 -0.6837 -0.1669
  553MOL0     C76226  11.422   1.086   2.696  1.0993  0.3525 -0.0001
  553MOL0     N76227  10.905   1.588   2.408  0.6844 -0.2895  0.1026
  553MOL0     N76228  10.838   1.677   2.338 -0.1545  0.8520  0.9116
  553MOL0     C76229  10.630   2.692   2.601  0.8901 -0.4777  0.2262
  553MOL0     C76230  10.682   2.772   2.701 -0.8572 -0.5662 -0.2943
  553MOL0     C76231  10.918   2.950   2.994  0.0163  0.7897 -0.1593
  553MOL0     C76232  11.043   2.916   2.940 -0.0926 -0.6861 -0.2513
  553MOL0     C76233  11.152   2.910   3.025 -0.3009 -0.4860 -0.5765
  553MOL0     C76234  11.134   2.923   3.167 -0.8564  0.1754  0.1165
  553MOL0     O76235  11.225   2.893   3.257 -0.6598 -0.0101  0.2666
  553MOL0     C76236  11.347   2.845   3.202  0.3250  0.1909 -0.1945
  553MOL0     C76237  11.452   2.817   3.315  0.3529  0.6154  0.0820
  553MOL0     C76238  11.501   2.940   3.394  0.4024  0.4776 -0.3427
  553MOL0     C76239  11.566   2.898   3.519 -0.2701 -0.5803 -0.9197
  553MOL0     C76240  11.710   2.910   3.516  0.4693 -0.0738  0.2273
  553MOL0     C76241  11.832   2.919   3.497  0.1291  0.4917 -0.1062
  553MOL0     C76242  11.010   2.969   3.220  0.4415  0.7220 -0.5384
  553MOL0     C76243  10.904   2.993   3.135 -0.9118 -0.4587  0.5068
  553MOL0     C76244  10.782   3.061   3.192 -0.9996  0.1484  0.1495
  553MOL0     H76245  10.913   2.944   2.542  0.8284 -0.8012  0.9683
  553MOL0     H76246  10.798   2.827   2.336  0.1696 -2.2877 -1.0050
  553MOL0     H76247  10.799   2.638   2.220 -0.6929 -1.4220 -1.4887
  553MOL0     H76248  10.698   2.485   2.234  2.3950 -1.7797  1.0411
  553MOL0     H76249  10.926   2.540   2.419  1.7215 -0.6897  0.0960
  553MOL0     H76250  10.803   2.421   2.454  0.7973 -1.3847 -2.0961
  553MOL0     H76251  10.934   2.425   2.196  1.9561  3.7616  1.4080
  553MOL0     H76252  11.021   2.368   2.333 -1.7528 -1.8957  3.0039
  553MOL0     H76253  10.818   2.186   2.366 -0.2612 -2.0222  0.0539
  553MOL0     H76254  10.765   2.253   2.217  1.4452  1.2111 -0.9959
  553MOL0     H76255  11.037   2.141   2.245 -0.8455  0.0994 -0.2049
  553MOL0     H76256  10.950   2.181   2.098 -0.1353 -2.1113 -1.1710
  553MOL0     H76257  10.871   1.966   2.313  0.8318 -0.8469  0.6275
  553MOL0     H76258  10.778   2.008   2.166  0.6198 -0.0237  0.2559
  553MOL0     H76259  11.049   1.879   2.171 -0.4507  0.4173  0.1422
  553MOL0     H76260  10.972   1.950   2.026  1.2944 -0.7853 -0.7378
  553MOL0     H76261  10.768   1.786   2.082  0.4876 -1.4006 -1.8514
  553MOL0     H76262  10.916   1.736   2.010  1.7746  3.9722 -1.5636
  553MOL0     H76263  11.048   1.553   2.114  2.5965  2.0751  1.1985
  553MOL0     H76264  11.191   1.472   2.341 -2.4349  3.9118  0.3679
  553MOL0     H76265  11.073   1.333   2.355 -0.5853 -1.1462  4.5366
  553MOL0     H76266  11.159   1.540   2.554 -3.1589  1.4905 -2.7940
  553MOL0     H76267  11.026   1.439   2.588  0.5954 -2.0315  0.0497
  553MOL0     H76268  11.167   1.234   2.613  0.1339 -0.8348 -1.3946
  553MOL0     H76269  11.254   1.283   2.474 -3.4609  1.1752 -1.2349
  553MOL0     H76270  11.321   1.470   2.694 -0.1991  0.5640 -2.5539
  553MOL0     H76271  11.294   1.326   2.772  0.4571 -1.9207 -0.5014
  553MOL0     H76272  11.574   1.210   2.421 -1.8763 -0.6142 -0.9858
  553MOL0     H76273  11.641   1.053   2.259  0.9388 -0.6520 -0.4430
  553MOL0     H76274  11.583   0.895   2.260  0.1564  0.5694  0.2512
  553MOL0     H76275  11.736   0.937   2.355  0.5492  0.0408  0.5104
  553MOL0     H76276  11.319   0.480   2.629  0.4762  0.3770  0.8622
  553MOL0     H76277  11.364   0.230   2.590  1.1947 -0.5532  1.9450
  553MOL0     H76278  11.541   0.079   2.694  3.3661  0.5512  1.4199
  553MOL0     H76279  11.538  -0.061   2.578  1.9063 -0.6135  1.4194
  553MOL0     H76280  11.771   0.116   2.628 -3.0316  1.3455 -4.0269
  553MOL0     H76281  11.732  -0.031   2.730  0.1666  2.1221  0.6389
  553MOL0     H76282  11.743  -0.047   2.432 -0.9146  1.7397  1.7805
  553MOL0     H76283  11.766  -0.180   2.552  1.6150  0.3476  1.1217
  553MOL0     H76284  11.978  -0.069   2.626  1.3860  1.5889 -0.7690
  553MOL0     H76285  11.946   0.066   2.508  0.0692  0.3851  0.0762
  553MOL0     H76286  12.104  -0.107   2.429  0.8476 -1.8486 -2.8876
  553MOL0     H76287  11.995  -0.241   2.453  1.0023 -0.9278 -2.4923
  553MOL0     H76288  11.984  -0.008   2.250 -2.0827  1.1494  3.3318
  553MOL0     H76289  11.857  -0.135   2.260 -1.5207  1.6082  0.9318
  553MOL0     H76290  12.017  -0.279   2.132  3.5980  0.2415 -4.7003
  553MOL0     H76291  12.146  -0.221   2.239 -0.5079 -1.5692  1.0043
  553MOL0     H76292  12.187  -0.139   1.999 -0.3170 -0.0850  0.5139
  553MOL0     H76293  12.144  -0.006   2.100 -0.0937  0.4374 -1.0124
  553MOL0     H76294  11.764   0.316   2.478 -0.3366 -0.9723 -2.5624
  553MOL0     H76295  11.709   0.568   2.518 -4.2138  3.8302 -1.1703
  553MOL0     H76296  11.400   0.883   2.737 -0.6515  0.0006  0.4383
  553MOL0     H76297  11.355   1.110   2.778 -1.1668 -0.9976 -1.3304
  553MOL0     H76298  10.549   2.626   2.634  0.4592  0.7976  1.8733
  553MOL0     H76299  10.641   2.757   2.800  1.2269  0.9830  0.8847
  553MOL0     H76300  11.048   2.898   2.833 -0.2932 -4.4440  0.2664
  553MOL0     H76301  11.243   2.874   2.978  0.2847  2.2861 -1.7616
  553MOL0     H76302  11.330   2.760   3.135 -0.0054  0.3494 -0.3133
  553MOL0     H76303  11.388   2.916   3.130 -1.9751  1.7983 -0.0164
  553MOL0     H76304  11.533   2.766   3.263 -0.3251  2.5536 -3.1793
  553MOL0     H76305  11.404   2.748   3.385 -1.4745  0.3942 -1.2817
  553MOL0     H76306  11.568   3.000   3.332 -0.3524 -0.9437 -2.6732
  553MOL0     H76307  11.409   2.997   3.409 -0.3299  0.4085 -3.8196
  553MOL0     H76308  11.534   2.795   3.535 -1.9760  0.2914  2.1340
  553MOL0     H76309  11.536   2.961   3.604  0.4423 -2.4382  0.7723
  553MOL0     H76310  11.937   2.908   3.478  0.0333 -3.7488  0.9527
  553MOL0     H76311  11.007   2.987   3.327 -0.2733  4.8750 -1.0938
  553MOL0     H76312  10.696   2.997   3.170 -1.3196  0.7576 -0.3997
  553MOL0     H76313  10.797   3.064   3.301 -0.8478 -3.1434  0.3103
  553MOL0     H76314  10.774   3.163   3.153  2.7043  0.6551  0.3460
  554MOL0     O76315   8.509   8.567   2.472 -0.5440 -0.5955  0.1073
  554MOL0     C76316   8.576   8.665   2.439  0.1274  0.0724 -0.4707
  554MOL0     O76317   8.662   8.673   2.331  0.1050  0.3694 -0.0879
  554MOL0     C76318   8.695   8.562   2.268  0.2677  0.6194  1.4837
  554MOL0     C76319   8.754   8.447   2.331  0.4253  0.0645 -0.4145
  554MOL0     C76320   8.807   8.353   2.256 -0.3158  0.1811  0.5207
  554MOL0     C76321   8.805   8.353   2.119 -0.0565  1.1186  0.5547
  554MOL0     O76322   8.856   8.244   2.045 -0.7006  0.0881 -1.0012
  554MOL0     C76323   9.001   8.229   2.045 -0.6414 -0.4976 -0.6146
  554MOL0     C76324   9.036   8.112   2.127  0.0786 -0.0180  0.3071
  554MOL0     C76325   8.968   7.980   2.087 -0.3437 -0.8134  0.3428
  554MOL0     C76326   9.044   7.855   2.131  0.3289  0.0083  0.3616
  554MOL0     C76327   8.961   7.721   2.140  0.2003  0.2157  0.6981
  554MOL0     C76328   9.053   7.599   2.174 -0.3303 -0.4928  0.7167
  554MOL0     C76329   8.954   7.481   2.206  0.2530  0.2174  0.6072
  554MOL0     C76330   9.034   7.347   2.220  0.6297 -0.4131  0.8915
  554MOL0     N76331   8.942   7.236   2.265 -0.6062 -0.0185  0.7339
  554MOL0     C76332   8.833   7.192   2.190 -0.1334 -0.1191 -1.2157
  554MOL0     C76333   8.796   7.076   2.248  0.7152 -0.2915 -1.1740
  554MOL0     C76334   8.668   6.993   2.218  0.2570 -0.6429 -0.2893
  554MOL0     C76335   8.694   6.903   2.094 -0.3245  0.9655  0.1060
  554MOL0     C76336   8.560   6.849   2.055 -0.3831 -0.1056  0.9469
  554MOL0     C76337   8.568   6.743   1.952 -0.5822 -0.4902  0.4161
  554MOL0     O76338   8.581   6.610   2.007  0.0997 -0.6867  0.3560
  554MOL0     C76339   8.613   6.504   1.920 -0.6155 -0.7241 -0.1968
  554MOL0     C76340   8.629   6.372   1.962  0.0669  0.0435  0.1435
  554MOL0     C76341   8.649   6.255   1.881 -0.8608  0.2430  0.3082
  554MOL0     C76342   8.664   6.130   1.955 -0.4004  0.0894 -1.2622
  554MOL0     C76343   8.648   6.261   1.740 -0.7762  0.5855 -0.0124
  554MOL0     C76344   8.668   6.149   1.649 -1.2136 -0.2366  0.9939
  554MOL0     O76345   8.590   6.042   1.670 -0.7847  0.6578 -0.4810
  554MOL0     C76346   8.614   5.909   1.631  0.3149 -0.8058  0.5011
  554MOL0     C76347   8.746   5.848   1.642 -0.4667  0.2824  0.6535
  554MOL0     C76348   8.762   5.710   1.606  0.1801  0.0923  0.2545
  554MOL0     C76349   8.648   5.637   1.569 -0.5252  0.0987  0.8696
  554MOL0     O76350   8.654   5.495   1.578 -0.4086  0.6963  0.0394
  554MOL0     C76351   8.780   5.437   1.523  0.2285  0.2223 -0.6802
  554MOL0     C76352   8.764   5.283   1.505  0.5254 -0.8292 -0.4906
  554MOL0     C76353   8.777   5.214   1.635  0.5405 -0.7161  0.8428
  554MOL0     C76354   8.777   5.063   1.614 -0.0728 -0.2562 -0.5033
  554MOL0     C76355   8.817   4.990   1.744  0.3682 -0.0428 -0.4761
  554MOL0     C76356   8.967   5.014   1.784  0.1137  0.0608  0.5533
  554MOL0     C76357   9.020   4.921   1.893 -0.7338 -0.3845 -0.1961
  554MOL0     C76358   8.934   4.909   2.026 -0.3254 -0.5275  0.6335
  554MOL0    Cl76359   8.849   5.055   2.077 -0.3907 -0.2530 -0.1977
  554MOL0     C76360   8.530   5.697   1.555  0.0336 -0.7003 -0.4188
  554MOL0     C76361   8.503   5.835   1.587  0.0280 -0.0552 -0.4553
  554MOL0     O76362   8.752   6.165   1.554 -0.5738  0.0987  0.4560
  554MOL0     C76363   8.638   6.398   1.696  0.0983 -0.1481  0.1727
  554MOL0     C76364   8.617   6.511   1.774 -0.5693 -0.1290  0.4572
  554MOL0     N76365   8.888   7.047   2.347  0.3732 -0.0930  0.8311
  554MOL0     N76366   8.978   7.135   2.353 -0.4336 -0.3924  0.4300
  554MOL0     C76367   8.730   8.447   2.046  0.6790 -0.5968 -0.4373
  554MOL0     C76368   8.671   8.550   2.126 -0.1161 -0.1031 -0.5724
  554MOL0     C76369   8.597   8.768   2.537  0.7968 -0.4882 -0.9498
  554MOL0     C76370   8.558   8.895   2.504  0.9616  0.1352 -0.6011
  554MOL0     C76371   8.601   9.006   2.582 -0.9843  0.0904 -0.9496
  554MOL0     C76372   8.658   8.985   2.706  0.7059  0.2995 -1.2147
  554MOL0     O76373   8.684   9.088   2.792 -0.4424 -0.4317 -0.1058
  554MOL0     C76374   8.725   9.217   2.732  0.0334 -0.6222  0.2769
  554MOL0     C76375   8.751   9.321   2.841  0.0030  0.4945 -0.0624
  554MOL0     C76376   8.751   9.465   2.772 -0.6779  0.3251  0.0021
  554MOL0     C76377   8.764   9.566   2.878  0.3454  0.0426  0.9038
  554MOL0     C76378   8.764   9.701   2.823  0.0721  0.2700  0.9283
  554MOL0     C76379   8.761   9.806   2.762  0.0152 -0.5531 -0.0892
  554MOL0     C76380   8.692   8.852   2.740  0.4655  0.7179  0.5171
  554MOL0     C76381   8.667   8.744   2.658 -0.1111  0.0562 -0.1269
  554MOL0     C76382   8.689   8.604   2.721 -0.4740  0.4391  0.3952
  554MOL0     H76383   8.761   8.433   2.438  0.9153 -2.9923 -0.7710
  554MOL0     H76384   8.842   8.267   2.312  1.9512  1.0580  0.5590
  554MOL0     H76385   9.050   8.312   2.097 -1.4451 -0.9380  0.9008
  554MOL0     H76386   9.039   8.208   1.945 -0.6116  1.9031 -1.1627
  554MOL0     H76387   9.144   8.098   2.110 -0.1786 -1.2580 -0.4323
  554MOL0     H76388   9.002   8.137   2.228  1.6430 -1.1434  1.1647
  554MOL0     H76389   8.873   7.970   2.140 -1.3789  1.2181 -0.9975
  554MOL0     H76390   8.958   7.957   1.980  1.1144  1.7098 -0.4175
  554MOL0     H76391   9.133   7.832   2.071 -1.6778 -1.4926 -2.2567
  554MOL0     H76392   9.081   7.875   2.232 -1.9286 -0.8154  1.4168
  554MOL0     H76393   8.913   7.710   2.043 -2.3376  1.7555  1.6708
  554MOL0     H76394   8.881   7.736   2.213 -0.9029 -2.4192  0.1693
  554MOL0     H76395   9.128   7.590   2.095 -1.5737  3.0887 -1.0880
  554MOL0     H76396   9.103   7.621   2.268 -2.4541 -1.5559  2.1824
  554MOL0     H76397   8.878   7.477   2.128 -0.1385 -0.9728  1.0186
  554MOL0     H76398   8.908   7.511   2.300  0.3483  1.6201  0.2202
  554MOL0     H76399   9.087   7.326   2.127 -0.7167  0.4423 -0.1093
  554MOL0     H76400   9.114   7.342   2.295  0.5354 -1.0866  0.9473
  554MOL0     H76401   8.785   7.257   2.118  1.4034 -0.5696 -2.6913
  554MOL0     H76402   8.578   7.052   2.201  0.8406  0.3447 -0.0283
  554MOL0     H76403   8.636   6.938   2.306 -0.7570  1.0025  0.4163
  554MOL0     H76404   8.745   6.951   2.010  0.1754  1.8532  0.9010
  554MOL0     H76405   8.764   6.825   2.126  0.1466  0.6635 -1.5680
  554MOL0     H76406   8.502   6.813   2.141 -2.2841  2.9307  1.0850
  554MOL0     H76407   8.493   6.931   2.025  2.3922  1.8173 -0.4438
  554MOL0     H76408   8.471   6.744   1.901 -1.8727  4.1043  2.4393
  554MOL0     H76409   8.647   6.774   1.884  0.9403  0.9679  2.6906
  554MOL0     H76410   8.616   6.352   2.067  0.6447  1.7828  0.5794
  554MOL0     H76411   8.753   6.149   2.016 -2.0665  0.9099  1.0571
  554MOL0     H76412   8.686   6.041   1.895  1.7002 -0.7028  0.5439
  554MOL0     H76413   8.584   6.104   2.025  0.6364  2.5046  1.0197
  554MOL0     H76414   8.831   5.912   1.663  0.3214  0.0295 -1.5517
  554MOL0     H76415   8.856   5.659   1.591  1.7170  2.7866  0.1124
  554MOL0     H76416   8.803   5.469   1.421  4.8062  1.6473  0.5621
  554MOL0     H76417   8.863   5.455   1.592  2.4277 -2.1781 -2.4952
  554MOL0     H76418   8.673   5.262   1.449 -0.1050  0.5248 -0.0017
  554MOL0     H76419   8.852   5.258   1.444 -0.1807 -2.1794 -0.9837
  554MOL0     H76420   8.700   5.237   1.709  2.2619 -3.2090  3.6345
  554MOL0     H76421   8.876   5.228   1.681  1.2644  1.6609 -1.1995
  554MOL0     H76422   8.852   5.035   1.540 -1.3538 -2.6114 -1.0144
  554MOL0     H76423   8.676   5.031   1.585 -0.8320  2.4470 -1.1804
  554MOL0     H76424   8.754   5.014   1.830 -1.3819  1.1813 -2.0450
  554MOL0     H76425   8.791   4.885   1.726  2.5732 -0.4243 -1.7493
  554MOL0     H76426   8.976   5.120   1.808 -4.4736  0.2756  2.3846
  554MOL0     H76427   9.028   4.985   1.698 -2.2793 -2.7684 -0.3755
  554MOL0     H76428   9.118   4.962   1.918 -0.5762  0.2223 -1.6735
  554MOL0     H76429   9.035   4.818   1.860  0.9810  0.2305 -1.5245
  554MOL0     H76430   8.996   4.889   2.114 -1.5639  0.7336  1.8563
  554MOL0     H76431   8.855   4.834   2.019  0.2590 -1.2172  1.2685
  554MOL0     H76432   8.438   5.642   1.536  0.8490 -1.9359 -0.8220
  554MOL0     H76433   8.411   5.892   1.575  0.3271  0.1874 -1.8084
  554MOL0     H76434   8.631   6.413   1.589 -2.3952  0.4749  0.3647
  554MOL0     H76435   8.613   6.609   1.729 -3.2434  0.8826  2.5607
  554MOL0     H76436   8.710   8.426   1.942  0.4115 -1.8979 -0.1406
  554MOL0     H76437   8.625   8.634   2.074 -2.7886 -0.6050  0.7935
  554MOL0     H76438   8.521   8.914   2.404  1.3457 -6.0946 -2.3645
  554MOL0     H76439   8.581   9.102   2.535 -1.8571 -0.1989 -1.1942
  554MOL0     H76440   8.814   9.201   2.670  1.5190  2.0155  1.5532
  554MOL0     H76441   8.640   9.254   2.673  1.1711  0.1201 -0.9609
  554MOL0     H76442   8.839   9.312   2.906  1.1099  3.9556 -0.8726
  554MOL0     H76443   8.671   9.311   2.915  3.6057 -0.2319  4.1567
  554MOL0     H76444   8.841   9.450   2.712  0.6287  0.6207  1.8263
  554MOL0     H76445   8.671   9.488   2.700 -1.1592  2.1580  1.0712
  554MOL0     H76446   8.853   9.541   2.935  1.4137 -1.7841 -1.3741
  554MOL0     H76447   8.680   9.555   2.947  0.4497  3.5014  1.7821
  554MOL0     H76448   8.757   9.911   2.742 -1.7103  0.3463  3.9235
  554MOL0     H76449   8.721   8.827   2.842 -1.1838  0.1842  0.9024
  554MOL0     H76450   8.587   8.565   2.730 -1.0152  1.6770 -0.2252
  554MOL0     H76451   8.745   8.535   2.657  0.0508 -0.8422  2.1463
  554MOL0     H76452   8.750   8.612   2.811 -0.2744 -0.5640  0.3671
  555MOL0     O76453   7.793   5.517   4.424  0.4010 -0.2327 -0.0976
  555MOL0     C76454   7.720   5.616   4.440 -0.4809  0.1770  0.8455
  555MOL0     O76455   7.768   5.742   4.471  0.0381 -0.0440 -0.1340
  555MOL0     C76456   7.898   5.749   4.520  0.0723 -0.6247  0.5058
  555MOL0     C76457   7.931   5.714   4.658 -0.6043 -0.0880  1.0378
  555MOL0     C76458   8.063   5.727   4.710 -0.7364 -0.1495 -0.3709
  555MOL0     C76459   8.155   5.785   4.626 -0.1770  0.8105 -0.2928
  555MOL0     O76460   8.268   5.828   4.694  0.4503  0.8433  0.0379
  555MOL0     C76461   8.375   5.889   4.609  0.6882 -0.8634  0.0050
  555MOL0     C76462   8.504   5.899   4.694 -0.1678  0.0079 -0.2288
  555MOL0     C76463   8.623   5.872   4.603  0.5690 -0.6663 -0.7124
  555MOL0     C76464   8.640   5.726   4.620 -0.9649 -0.2859 -1.0509
  555MOL0     C76465   8.739   5.684   4.517 -0.1410  0.0399  0.4883
  555MOL0     C76466   8.792   5.531   4.537  0.1474  0.3176 -0.0533
  555MOL0     C76467   8.898   5.480   4.445  0.5461  0.6786 -0.3378
  555MOL0     C76468   8.955   5.355   4.506  0.9454 -0.1237 -0.9100
  555MOL0     N76469   9.065   5.309   4.421  0.7322 -0.1854  0.5985
  555MOL0     C76470   9.083   5.171   4.397  0.3933 -0.1891  0.0296
  555MOL0     C76471   9.193   5.161   4.310 -0.0685 -0.3245 -0.8637
  555MOL0     C76472   9.268   5.052   4.247  0.6326 -0.2127 -0.0189
  555MOL0     C76473   9.353   4.968   4.344 -0.1425 -0.6171  0.1644
  555MOL0     C76474   9.481   5.041   4.382 -0.1787 -0.2993 -0.0485
  555MOL0     C76475   9.548   5.102   4.262 -0.4122  0.5499 -0.8330
  555MOL0     O76476   9.689   5.135   4.280 -0.1569 -0.9434 -1.1159
  555MOL0     C76477   9.785   5.042   4.285 -0.2470  1.3210  0.0603
  555MOL0     C76478   9.909   5.086   4.339  0.3531  0.3402 -0.2277
  555MOL0     C76479  10.010   5.003   4.347 -0.0198 -0.1784 -0.1076
  555MOL0     C76480  10.140   5.065   4.404  0.5809  0.6442 -0.3979
  555MOL0     C76481  10.004   4.877   4.292  1.2246 -0.4442 -0.9094
  555MOL0     C76482  10.108   4.771   4.308  0.3222 -0.5605  0.3776
  555MOL0     O76483  10.104   4.672   4.211  0.2951 -0.3690  0.3443
  555MOL0     C76484  10.175   4.553   4.228  0.0698 -0.6126 -0.1074
  555MOL0     C76485  10.142   4.455   4.325  0.4354 -0.7050  0.4855
  555MOL0     C76486  10.210   4.338   4.333  0.3361 -0.1489 -0.1972
  555MOL0     C76487  10.319   4.317   4.248  0.0786 -0.2197  0.7116
  555MOL0     O76488  10.407   4.206   4.261 -0.2678  0.0166  0.8992
  555MOL0     C76489  10.339   4.091   4.314  0.0743 -0.4549 -0.8642
  555MOL0     C76490  10.433   3.967   4.310 -0.1243 -0.7158 -0.5803
  555MOL0     C76491  10.372   3.836   4.351  1.2573  0.6676  0.5018
  555MOL0     C76492  10.238   3.796   4.290  0.4059 -0.3884 -0.6591
  555MOL0     C76493  10.219   3.648   4.319  1.2589 -0.9091  0.3919
  555MOL0     C76494  10.102   3.595   4.235 -1.0083 -0.2878  0.0770
  555MOL0     C76495  10.072   3.457   4.275 -0.1413  0.5559  0.0525
  555MOL0     C76496   9.945   3.398   4.210  0.2177 -0.1613 -0.6041
  555MOL0    Cl76497   9.965   3.344   4.040  0.1674  0.3257 -0.4822
  555MOL0     C76498  10.354   4.410   4.145  0.9423  0.0905  0.3882
  555MOL0     C76499  10.273   4.528   4.133 -0.2881 -0.4162 -0.7740
  555MOL0     O76500  10.187   4.784   4.398 -0.0219  0.4247  0.8678
  555MOL0     C76501   9.878   4.832   4.233 -0.6727 -0.0944  0.0610
  555MOL0     C76502   9.769   4.913   4.229  0.4879  0.4433 -0.2316
  555MOL0     N76503   9.237   5.297   4.283  0.5697  1.0207  0.0587
  555MOL0     N76504   9.160   5.378   4.342  0.0572  0.4748  0.5793
  555MOL0     C76505   8.129   5.806   4.486 -0.1228  0.3575 -0.2503
  555MOL0     C76506   7.994   5.791   4.432  0.1157  0.1034 -0.4469
  555MOL0     C76507   7.581   5.598   4.396  0.2456  0.0250  0.5253
  555MOL0     C76508   7.505   5.714   4.370  0.0467  0.1103 -0.4061
  555MOL0     C76509   7.369   5.694   4.345  0.0655 -0.5132 -0.0431
  555MOL0     C76510   7.302   5.575   4.329 -0.1885 -0.4630  0.6600
  555MOL0     O76511   7.172   5.589   4.288 -0.4809  0.9943  0.0382
  555MOL0     C76512   7.114   5.480   4.229 -1.1994 -0.2752  0.5527
  555MOL0     C76513   6.967   5.504   4.214  0.6833 -0.0454  0.3751
  555MOL0     C76514   6.917   5.483   4.361  0.4798 -0.0560 -1.0306
  555MOL0     C76515   6.795   5.391   4.360 -0.1004  0.0528 -0.6711
  555MOL0     C76516   6.846   5.251   4.342 -1.4741 -0.2959  0.9008
  555MOL0     C76517   6.882   5.135   4.325 -0.0932  0.8243  0.2864
  555MOL0     C76518   7.379   5.466   4.345 -0.5813  0.3429  0.7297
  555MOL0     C76519   7.517   5.470   4.381 -0.0225 -0.6100  0.3244
  555MOL0     C76520   7.585   5.340   4.412  0.6485 -0.3634  0.7318
  555MOL0     H76521   7.845   5.702   4.723 -1.1032  3.7782  1.3229
  555MOL0     H76522   8.082   5.701   4.814  0.4954  2.5405  0.1553
  555MOL0     H76523   8.355   5.994   4.585 -0.9855 -0.9782  0.6845
  555MOL0     H76524   8.390   5.834   4.516 -0.2017 -1.1668  0.0307
  555MOL0     H76525   8.517   6.003   4.727 -0.5541  0.1709 -0.5651
  555MOL0     H76526   8.497   5.829   4.777 -0.8115 -3.8189 -3.2490
  555MOL0     H76527   8.592   5.902   4.503 -3.1460  1.7482  0.9627
  555MOL0     H76528   8.703   5.937   4.642 -2.6849  2.9063  0.6393
  555MOL0     H76529   8.678   5.715   4.722 -0.1655  0.9753 -1.1990
  555MOL0     H76530   8.541   5.680   4.609 -2.2016  2.4504 -2.1149
  555MOL0     H76531   8.831   5.744   4.523  1.1456 -1.9408  2.6948
  555MOL0     H76532   8.696   5.689   4.417 -1.3589 -4.0633  0.6260
  555MOL0     H76533   8.828   5.526   4.640 -1.4377  0.9377  0.5664
  555MOL0     H76534   8.716   5.453   4.527  1.1413 -0.9383  1.6672
  555MOL0     H76535   8.965   5.566   4.438 -0.0207  1.2110  0.5378
  555MOL0     H76536   8.857   5.458   4.346  1.3966 -0.1548 -0.5124
  555MOL0     H76537   8.990   5.370   4.609 -3.1811  0.4512  0.6030
  555MOL0     H76538   8.879   5.277   4.509  1.5805 -0.7182  0.0480
  555MOL0     H76539   9.018   5.092   4.432  0.3009 -0.1683 -0.0920
  555MOL0     H76540   9.335   5.094   4.171  0.5517  3.2410  1.6177
  555MOL0     H76541   9.198   4.988   4.193  0.8719  0.0883 -0.7032
  555MOL0     H76542   9.304   4.934   4.436 -1.6564  1.6969  0.2882
  555MOL0     H76543   9.381   4.877   4.290 -1.3358 -0.0372 -1.5029
  555MOL0     H76544   9.465   5.112   4.463  0.0219  0.9177 -1.0440
  555MOL0     H76545   9.559   4.968   4.407  0.3953 -0.0828 -1.1312
  555MOL0     H76546   9.536   5.048   4.168 -3.6793  1.2319 -0.9409
  555MOL0     H76547   9.500   5.200   4.249 -1.9819  0.8580  4.5622
  555MOL0     H76548   9.910   5.180   4.393 -0.1768 -0.3163  0.9692
  555MOL0     H76549  10.155   5.045   4.510 -0.5696 -3.7971 -0.8799
  555MOL0     H76550  10.120   5.173   4.403  1.0851  0.7460 -1.7502
  555MOL0     H76551  10.229   5.048   4.343 -1.9468  0.1064 -4.2888
  555MOL0     H76552  10.055   4.474   4.388 -0.1486  1.7113 -0.9552
  555MOL0     H76553  10.167   4.263   4.398 -0.7315 -1.4426 -2.2907
  555MOL0     H76554  10.299   4.122   4.411 -1.5845  0.5880 -1.8267
  555MOL0     H76555  10.247   4.073   4.257 -0.2615 -1.6699  0.0404
  555MOL0     H76556  10.488   3.949   4.217  2.0849  2.1956  0.0240
  555MOL0     H76557  10.501   3.985   4.393 -1.5582  0.4621  0.3987
  555MOL0     H76558  10.350   3.855   4.456  0.9062 -0.2373  0.6017
  555MOL0     H76559  10.455   3.764   4.341  0.7965 -0.1518  2.1705
  555MOL0     H76560  10.239   3.804   4.181 -0.8551 -0.7446 -0.7083
  555MOL0     H76561  10.152   3.847   4.333  0.9608  0.6794 -0.7987
  555MOL0     H76562  10.309   3.595   4.288  1.0931  0.3874 -2.6682
  555MOL0     H76563  10.200   3.634   4.426  0.3907  0.7507  0.4935
  555MOL0     H76564  10.125   3.601   4.128 -0.9627 -1.5651  0.0016
  555MOL0     H76565  10.020   3.662   4.262 -1.1274 -1.5162  3.1340
  555MOL0     H76566  10.057   3.449   4.383 -1.4723  1.5123 -0.0461
  555MOL0     H76567  10.157   3.394   4.246  0.7533  0.7070  2.1435
  555MOL0     H76568   9.866   3.471   4.233  1.8187  2.6923 -3.4248
  555MOL0     H76569   9.932   3.313   4.277 -2.6132  2.0873  2.0530
  555MOL0     H76570  10.439   4.391   4.081  0.8882  1.0941 -0.0104
  555MOL0     H76571  10.302   4.590   4.049  0.7083 -0.1220 -0.2286
  555MOL0     H76572   9.880   4.741   4.174 -0.0965  0.0635 -0.1713
  555MOL0     H76573   9.682   4.899   4.165  0.2951 -2.4080  0.5241
  555MOL0     H76574   8.213   5.842   4.427  0.6090 -1.9133 -0.6735
  555MOL0     H76575   7.985   5.826   4.330  1.7333  0.4340 -0.4939
  555MOL0     H76576   7.549   5.812   4.388 -0.3055  0.4455 -1.2963
  555MOL0     H76577   7.321   5.788   4.319  2.0289  0.1789 -1.3841
  555MOL0     H76578   7.138   5.468   4.123  2.8655 -2.4313  1.5013
  555MOL0     H76579   7.135   5.383   4.274 -0.0510 -1.9369 -3.1611
  555MOL0     H76580   6.932   5.435   4.136  0.8845 -2.8676  2.6298
  555MOL0     H76581   6.949   5.609   4.187 -1.2415 -0.6806 -1.0171
  555MOL0     H76582   6.998   5.451   4.428 -1.3400 -1.1459  0.7641
  555MOL0     H76583   6.887   5.581   4.401  0.0184 -0.9590  0.9726
  555MOL0     H76584   6.730   5.426   4.280 -1.2429 -0.7795 -0.1395
  555MOL0     H76585   6.743   5.394   4.457  3.5260 -0.8075  1.5082
  555MOL0     H76586   6.909   5.032   4.308  0.2791  1.1521 -1.2507
  555MOL0     H76587   7.341   5.367   4.323 -0.6934  0.6037 -0.3027
  555MOL0     H76588   7.509   5.261   4.410 -0.1645  0.3558  1.7610
  555MOL0     H76589   7.657   5.315   4.334  1.6728 -2.0304  2.1406
  555MOL0     H76590   7.626   5.342   4.514  1.3662  0.7349  0.4386
  556MOL0     O76591   1.344   0.133   7.916  0.0345  0.0297 -0.0144
  556MOL0     C76592   1.359   0.158   7.800 -0.1122 -0.8977  0.0677
  556MOL0     O76593   1.424   0.270   7.755 -0.2232  0.7204  0.0475
  556MOL0     C76594   1.488   0.374   7.826 -0.0969 -0.1577  0.1736
  556MOL0     C76595   1.481   0.507   7.786 -0.3542 -0.3000 -0.5694
  556MOL0     C76596   1.558   0.603   7.858  0.8091 -0.6691 -0.1484
  556MOL0     C76597   1.635   0.583   7.968  1.0444 -1.2592 -0.1739
  556MOL0     O76598   1.694   0.693   8.026 -0.3970 -0.1707 -0.7895
  556MOL0     C76599   1.644   0.719   8.162  0.0056  0.2143  0.5732
  556MOL0     C76600   1.721   0.844   8.228  1.1156 -0.0202 -0.6159
  556MOL0     C76601   1.670   0.965   8.162 -0.4331  0.5376  0.4754
  556MOL0     C76602   1.670   1.087   8.258 -0.6110  0.2524 -0.6053
  556MOL0     C76603   1.657   1.212   8.186  0.6841 -0.8739 -0.6518
  556MOL0     C76604   1.509   1.235   8.166  0.3815 -0.5985 -0.4316
  556MOL0     C76605   1.463   1.378   8.109 -0.5136 -0.4128  0.4736
  556MOL0     C76606   1.407   1.466   8.217 -0.4124 -0.4738 -0.3611
  556MOL0     N76607   1.502   1.514   8.309 -0.8419 -0.1814  0.0519
  556MOL0     C76608   1.480   1.516   8.442  0.6187  0.1798 -0.4100
  556MOL0     C76609   1.605   1.556   8.496  0.7810  0.6485 -0.3532
  556MOL0     C76610   1.653   1.538   8.645  0.2939 -0.0392  0.1226
  556MOL0     C76611   1.717   1.666   8.705  0.3157 -0.3360 -0.5606
  556MOL0     C76612   1.762   1.628   8.851 -0.2394 -0.4601 -0.0313
  556MOL0     C76613   1.813   1.745   8.931 -0.6356  0.2902 -0.5347
  556MOL0     O76614   1.942   1.793   8.886  0.1231 -0.1203 -0.4334
  556MOL0     C76615   1.979   1.918   8.926 -0.2354  0.0120 -0.5986
  556MOL0     C76616   1.925   2.036   8.867 -0.3312  0.1573  0.3809
  556MOL0     C76617   1.978   2.159   8.908  0.3868 -1.0750 -0.2462
  556MOL0     C76618   1.934   2.272   8.824  1.1627  0.5779 -0.3270
  556MOL0     C76619   2.059   2.166   9.019 -0.9560  0.1952 -0.2291
  556MOL0     C76620   2.103   2.292   9.080 -0.7323 -0.3969 -0.2014
  556MOL0     O76621   2.165   2.288   9.206 -0.7086 -0.5784 -0.0564
  556MOL0     C76622   2.204   2.408   9.262 -1.4557 -0.7396  0.4301
  556MOL0     C76623   2.104   2.480   9.332 -0.3673 -1.6833  0.3818
  556MOL0     C76624   2.136   2.580   9.431  0.7066  0.2005 -0.1070
  556MOL0     C76625   2.270   2.612   9.451 -1.0103 -0.1769  0.0694
  556MOL0     O76626   2.293   2.717   9.530 -0.1929  0.9190  0.0360
  556MOL0     C76627   2.420   2.718   9.593  0.4522  0.0913 -0.7530
  556MOL0     C76628   2.390   2.796   9.725 -0.4229  1.1357 -0.1831
  556MOL0     C76629   2.368   2.942   9.704  0.1929  0.4548  0.0566
  556MOL0     C76630   2.227   2.974   9.661 -0.6018 -0.0236  0.3356
  556MOL0     C76631   2.193   3.119   9.656 -0.3556 -0.3197 -0.0149
  556MOL0     C76632   2.301   3.201   9.590 -0.7170 -0.2683 -0.2510
  556MOL0     C76633   2.265   3.349   9.579 -0.2509  0.5517 -0.0792
  556MOL0     C76634   2.380   3.429   9.516 -0.5775  0.2000  0.1088
  556MOL0    Cl76635   2.366   3.603   9.546 -0.4192  0.2604 -0.2597
  556MOL0     C76636   2.375   2.540   9.383 -0.7850 -0.7101 -0.6809
  556MOL0     C76637   2.335   2.431   9.308 -0.2523  0.5409 -0.0916
  556MOL0     O76638   2.092   2.396   9.021  0.1813  0.3106 -0.6049
  556MOL0     C76639   2.105   2.041   9.079  0.6331 -0.2340 -0.3812
  556MOL0     C76640   2.074   1.920   9.030  1.0992  0.6300  0.7827
  556MOL0     N76641   1.686   1.574   8.391 -0.4612  0.4902  0.8329
  556MOL0     N76642   1.619   1.562   8.278  0.0859 -0.1150  0.1059
  556MOL0     C76643   1.650   0.455   8.006  1.2517  1.3181  0.3046
  556MOL0     C76644   1.569   0.350   7.941 -1.0069  0.5608 -0.3352
  556MOL0     C76645   1.298   0.069   7.706  0.6582 -0.6139 -0.2145
  556MOL0     C76646   1.383   0.024   7.601 -0.7272  0.2399  0.1293
  556MOL0     C76647   1.330  -0.073   7.508  1.0608 -0.0654  0.3489
  556MOL0     C76648   1.212  -0.135   7.532  0.2864  0.7492 -0.4515
  556MOL0     O76649   1.173  -0.247   7.466  0.6455  0.5624  0.5314
  556MOL0     C76650   1.243  -0.290   7.350  0.4210  0.5896  0.3706
  556MOL0     C76651   1.166  -0.404   7.293 -0.6640  0.1767 -0.1755
  556MOL0     C76652   1.173  -0.425   7.145 -0.6641  0.2722  0.4205
  556MOL0     C76653   1.175  -0.574   7.106  1.5197 -1.0406 -1.1921
  556MOL0     C76654   1.036  -0.628   7.141  0.2332  0.2977  0.5230
  556MOL0     C76655   0.925  -0.666   7.143  0.5190  0.0962  0.1017
  556MOL0     C76656   1.133  -0.088   7.629 -0.0455  0.3790  0.4549
  556MOL0     C76657   1.173   0.023   7.713 -0.3732 -1.2531  0.7773
  556MOL0     C76658   1.076   0.070   7.820 -0.4331 -0.2523  0.1632
  556MOL0     H76659   1.423   0.549   7.704  1.6532  2.6724 -0.6603
  556MOL0     H76660   1.542   0.706   7.827  2.7249 -0.3414 -0.1581
  556MOL0     H76661   1.665   0.629   8.220 -0.9936 -0.7080 -0.4516
  556MOL0     H76662   1.536   0.732   8.172 -0.9322 -5.4062  0.8115
  556MOL0     H76663   1.705   0.852   8.336 -1.2898  0.0206 -0.9330
  556MOL0     H76664   1.828   0.832   8.208  1.2639 -4.0945  1.4501
  556MOL0     H76665   1.741   0.988   8.082 -0.0890 -1.3966  0.1652
  556MOL0     H76666   1.566   0.964   8.127 -1.0138  1.7768  2.0647
  556MOL0     H76667   1.596   1.072   8.338  2.1859  2.4604  2.6970
  556MOL0     H76668   1.764   1.095   8.314 -1.9062  2.8895  1.4814
  556MOL0     H76669   1.716   1.212   8.094  0.9292 -0.1489 -0.5004
  556MOL0     H76670   1.691   1.303   8.237  2.6943 -0.3588 -2.7347
  556MOL0     H76671   1.479   1.151   8.103 -1.4840 -0.4134  0.1613
  556MOL0     H76672   1.456   1.215   8.259  0.8375  0.7826  0.1586
  556MOL0     H76673   1.388   1.354   8.033  1.3713 -1.6389 -1.0932
  556MOL0     H76674   1.548   1.419   8.055 -0.3398 -0.6416  0.5723
  556MOL0     H76675   1.378   1.553   8.158 -1.4879 -0.4477  0.1850
  556MOL0     H76676   1.318   1.417   8.257 -0.9629 -0.0178 -1.0131
  556MOL0     H76677   1.387   1.492   8.492 -0.1965  2.0486 -0.9432
  556MOL0     H76678   1.717   1.450   8.645  0.3859 -0.0917 -2.9500
  556MOL0     H76679   1.570   1.511   8.710  1.0254 -4.1579 -0.3788
  556MOL0     H76680   1.801   1.690   8.639  1.0535 -2.0265 -0.2810
  556MOL0     H76681   1.641   1.745   8.706  0.9629  0.2964 -0.3490
  556MOL0     H76682   1.672   1.595   8.903 -1.3201  1.6242 -0.4367
  556MOL0     H76683   1.846   1.561   8.867  3.0171  3.6458  2.2051
  556MOL0     H76684   1.743   1.829   8.937 -2.1759 -1.0106  1.0417
  556MOL0     H76685   1.831   1.709   9.033 -0.7503  1.4741 -0.0815
  556MOL0     H76686   1.871   2.027   8.774  1.4961 -3.0132 -0.5174
  556MOL0     H76687   1.876   2.227   8.743  1.6137  0.7967 -0.7809
  556MOL0     H76688   2.023   2.320   8.782  1.8296  2.1686  2.6783
  556MOL0     H76689   1.873   2.351   8.869  1.4574  0.8277 -0.3582
  556MOL0     H76690   2.000   2.452   9.322 -0.0160 -2.6462 -0.8131
  556MOL0     H76691   2.061   2.631   9.491  2.0487  0.3272  1.5295
  556MOL0     H76692   2.452   2.618   9.625  2.5283  1.1935  0.8353
  556MOL0     H76693   2.504   2.757   9.535  2.6798 -0.8191  1.6923
  556MOL0     H76694   2.319   2.751   9.795 -4.4000  2.4328 -3.0149
  556MOL0     H76695   2.484   2.792   9.782  1.4453  2.7128 -2.9141
  556MOL0     H76696   2.452   2.967   9.638  0.2955 -2.1885 -0.9399
  556MOL0     H76697   2.377   2.989   9.803  1.1731 -0.7572  0.5784
  556MOL0     H76698   2.159   2.917   9.725  2.1438  0.1150  3.6651
  556MOL0     H76699   2.221   2.934   9.559 -3.7096 -0.1451  0.4639
  556MOL0     H76700   2.102   3.123   9.595 -0.9297 -0.4024  0.8259
  556MOL0     H76701   2.170   3.169   9.751  0.0398 -1.9172  0.9582
  556MOL0     H76702   2.312   3.152   9.493 -0.2180  0.8417 -0.7688
  556MOL0     H76703   2.399   3.184   9.634 -0.4555 -0.1642 -0.7813
  556MOL0     H76704   2.232   3.390   9.675  1.0623 -2.0390  1.6225
  556MOL0     H76705   2.183   3.359   9.508 -0.2094  1.6717  0.0223
  556MOL0     H76706   2.407   3.395   9.416 -0.1150 -0.5060  0.4651
  556MOL0     H76707   2.469   3.406   9.576  0.5166 -1.8973 -2.1557
  556MOL0     H76708   2.480   2.549   9.406 -0.4982 -1.1688 -1.7418
  556MOL0     H76709   2.414   2.358   9.289  1.2484  2.1275 -0.1922
  556MOL0     H76710   2.169   2.050   9.166  0.9460  0.0188 -0.6303
  556MOL0     H76711   2.108   1.830   9.080 -3.8179 -0.9017  1.9851
  556MOL0     H76712   1.711   0.437   8.094  1.2615 -0.4360 -0.0210
  556MOL0     H76713   1.570   0.247   7.974 -0.0858  0.1407 -1.5935
  556MOL0     H76714   1.484   0.062   7.597  0.2414 -2.0759  0.6855
  556MOL0     H76715   1.393  -0.093   7.422  1.1810  3.7623 -0.6231
  556MOL0     H76716   1.255  -0.213   7.273  0.6842 -0.0819 -0.2663
  556MOL0     H76717   1.343  -0.320   7.385  0.2419 -1.8104 -0.9638
  556MOL0     H76718   1.061  -0.400   7.324 -0.1181  2.7752  1.6848
  556MOL0     H76719   1.198  -0.487   7.356 -3.4325 -0.3236  0.7117
  556MOL0     H76720   1.087  -0.374   7.100 -2.0331 -0.6804  1.8695
  556MOL0     H76721   1.260  -0.373   7.102 -1.1475  1.2102  0.5447
  556MOL0     H76722   1.260  -0.632   7.144  1.5088 -1.0460 -1.1752
  556MOL0     H76723   1.183  -0.561   6.998  1.9768  3.7140 -0.8168
  556MOL0     H76724   0.823  -0.698   7.149  1.2607 -2.2273  3.4270
  556MOL0     H76725   1.037  -0.134   7.649  1.2869 -1.1591  4.1797
  556MOL0     H76726   1.115   0.024   7.912  0.2981 -0.4308 -0.2277
  556MOL0     H76727   1.065   0.178   7.836  2.2295  0.0525  0.3926
  556MOL0     H76728   0.971   0.045   7.801 -0.0430 -1.0131 -1.0425
  557MOL0     O76729   3.099   0.191   0.804  0.1009 -0.2207  0.0680
  557MOL0     C76730   2.997   0.121   0.825 -0.8504 -0.6398  0.1973
  557MOL0     O76731   2.907   0.086   0.726 -0.3179 -0.4258 -0.3460
  557MOL0     C76732   2.944   0.125   0.602 -1.5057  0.1224 -0.0466
  557MOL0     C76733   3.044   0.051   0.537 -0.5277  0.2360  0.9941
  557MOL0     C76734   3.101   0.105   0.422 -0.4178  0.5429  0.2102
  557MOL0     C76735   3.052   0.219   0.361 -0.0651  0.0094 -0.1622
  557MOL0     O76736   3.090   0.279   0.241 -0.0320  0.2719 -0.2678
  557MOL0     C76737   3.219   0.243   0.188 -0.4317  0.0735  0.2095
  557MOL0     C76738   3.197   0.114   0.096 -0.4888  0.0842 -0.3008
  557MOL0     C76739   3.162   0.145  -0.056  0.1965  0.5484 -0.0656
  557MOL0     C76740   3.167   0.020  -0.148  0.1979 -0.2355 -0.6181
  557MOL0     C76741   3.116   0.039  -0.289  0.2522 -0.6661  0.6262
  557MOL0     C76742   2.970   0.063  -0.301 -0.0079 -0.4230  0.5886
  557MOL0     C76743   2.929   0.038  -0.444 -0.5383 -0.5628 -0.8640
  557MOL0     C76744   2.775   0.056  -0.454  0.0572 -0.0552  0.3028
  557MOL0     N76745   2.706  -0.068  -0.428 -0.0253  0.3031  0.3257
  557MOL0     C76746   2.572  -0.078  -0.426  0.3185  0.5437  0.2260
  557MOL0     C76747   2.552  -0.213  -0.409  0.0613 -0.6739 -0.3271
  557MOL0     C76748   2.420  -0.265  -0.366 -0.0746 -0.5105  0.2537
  557MOL0     C76749   2.327  -0.293  -0.481 -0.3962 -1.0338 -0.1726
  557MOL0     C76750   2.377  -0.397  -0.592  1.2510  0.2504  0.0436
  557MOL0     C76751   2.438  -0.524  -0.531 -0.4645 -0.5845  0.6302
  557MOL0     O76752   2.368  -0.581  -0.424 -0.6531 -0.0227 -0.3946
  557MOL0     C76753   2.431  -0.688  -0.351 -0.3436 -1.3889 -0.0794
  557MOL0     C76754   2.409  -0.681  -0.206 -0.6719 -0.5280  0.1443
  557MOL0     C76755   2.492  -0.752  -0.117 -0.4579 -0.6980  0.0475
  557MOL0     C76756   2.476  -0.738   0.032  0.3348  0.4563 -0.0957
  557MOL0     C76757   2.582  -0.848  -0.181  0.0087 -0.1254 -1.0673
  557MOL0     C76758   2.685  -0.923  -0.104  0.7219  0.4262 -0.1618
  557MOL0     O76759   2.802  -0.957  -0.167  0.6082  0.3918 -0.6092
  557MOL0     C76760   2.895  -1.025  -0.103  0.2955  0.3917 -0.0201
  557MOL0     C76761   2.998  -0.954  -0.043 -0.0052 -0.3527 -1.2792
  557MOL0     C76762   3.100  -1.022   0.022  0.4025  0.2023 -1.0257
  557MOL0     C76763   3.094  -1.169   0.034 -1.2054  0.2070 -0.9249
  557MOL0     O76764   3.194  -1.244   0.090  0.0133  0.0217  0.6012
  557MOL0     C76765   3.297  -1.184   0.164  0.4707  0.3461  0.0866
  557MOL0     C76766   3.386  -1.300   0.199 -0.3332  0.3105 -0.5517
  557MOL0     C76767   3.510  -1.271   0.283  0.0133 -0.1991 -0.1187
  557MOL0     C76768   3.487  -1.233   0.426 -0.0511 -0.4952  0.2313
  557MOL0     C76769   3.613  -1.173   0.480 -0.6311 -0.6095 -0.0193
  557MOL0     C76770   3.747  -1.244   0.451 -1.3197 -0.6496  0.3842
  557MOL0     C76771   3.860  -1.205   0.555  0.4566 -0.5561 -0.2951
  557MOL0     C76772   4.012  -1.232   0.509  0.3397 -0.1684 -0.6424
  557MOL0    Cl76773   4.101  -1.161   0.641  0.1598 -0.0513  0.2895
  557MOL0     C76774   2.988  -1.234  -0.026 -0.5459 -1.4649 -0.1460
  557MOL0     C76775   2.891  -1.157  -0.094  0.5346  1.3690 -1.1428
  557MOL0     O76776   2.654  -0.957   0.015  0.5121 -0.1767  0.4014
  557MOL0     C76777   2.583  -0.862  -0.323  0.6556  0.2326 -0.5931
  557MOL0     C76778   2.518  -0.779  -0.405  0.4038  0.3013  0.7754
  557MOL0     N76779   2.677  -0.281  -0.420 -0.4378 -0.9363  0.6503
  557MOL0     N76780   2.765  -0.195  -0.429 -0.2803  0.2949 -0.7943
  557MOL0     C76781   2.953   0.292   0.424  0.9278 -0.1203 -0.5227
  557MOL0     C76782   2.907   0.251   0.553 -0.6816 -0.0057 -1.0939
  557MOL0     C76783   2.964   0.067   0.957  0.1099 -0.6823  0.9125
  557MOL0     C76784   2.852  -0.014   0.971  0.5015 -0.0616 -0.2421
  557MOL0     C76785   2.815  -0.058   1.095  0.7447  0.0332 -0.1434
  557MOL0     C76786   2.897  -0.045   1.211  0.8534  0.6609 -0.5528
  557MOL0     O76787   2.867  -0.107   1.326 -0.2294  0.6895  0.3487
  557MOL0     C76788   2.969  -0.143   1.423  0.5580  0.1847 -1.0772
  557MOL0     C76789   2.908  -0.234   1.529 -0.0175  0.8442  0.2480
  557MOL0     C76790   2.917  -0.379   1.494  0.4501  0.6059  0.2859
  557MOL0     C76791   2.807  -0.470   1.549  0.1108  0.8732 -0.2634
  557MOL0     C76792   2.769  -0.434   1.687 -0.7592 -0.5765  0.4856
  557MOL0     C76793   2.713  -0.401   1.791  0.5811  1.2756  0.1889
  557MOL0     C76794   3.011   0.019   1.192  0.3353 -0.7851 -0.4418
  557MOL0     C76795   3.041   0.084   1.073 -0.5006  0.0276  1.0572
  557MOL0     C76796   3.169   0.163   1.071 -0.0082  0.4647 -0.1467
  557MOL0     H76797   3.085  -0.044   0.571  0.8798  1.5216  3.1170
  557MOL0     H76798   3.181   0.044   0.380 -1.6284 -0.8206 -0.1981
  557MOL0     H76799   3.294   0.211   0.260  2.5837  3.0982 -1.2828
  557MOL0     H76800   3.270   0.325   0.136 -1.0445 -0.2741 -0.9833
  557MOL0     H76801   3.288   0.056   0.111  0.2464  0.6080 -2.3903
  557MOL0     H76802   3.119   0.056   0.147  1.5984 -2.3836  0.2833
  557MOL0     H76803   3.074   0.208  -0.070  0.1375  0.8931  1.6031
  557MOL0     H76804   3.238   0.216  -0.091 -1.8404  2.1425 -1.5125
  557MOL0     H76805   3.272  -0.011  -0.146  0.3488  0.2609 -0.6154
  557MOL0     H76806   3.103  -0.051  -0.097 -0.8109  1.8982  1.2650
  557MOL0     H76807   3.151  -0.049  -0.344  0.9150  0.3668 -0.6718
  557MOL0     H76808   3.166   0.126  -0.333 -0.5888 -0.3446  0.2796
  557MOL0     H76809   2.919  -0.010  -0.238 -2.3130  0.3618 -0.2466
  557MOL0     H76810   2.938   0.162  -0.265 -0.0221 -1.3159  3.2480
  557MOL0     H76811   2.962  -0.065  -0.461 -0.1924 -0.5185 -0.4700
  557MOL0     H76812   2.979   0.114  -0.504 -2.3620 -1.1233 -3.2793
  557MOL0     H76813   2.751   0.136  -0.383  0.1451  0.7326 -0.5328
  557MOL0     H76814   2.752   0.089  -0.556  1.1976  1.9881  0.6574
  557MOL0     H76815   2.504   0.006  -0.413  1.0052  0.7855  3.0308
  557MOL0     H76816   2.395  -0.187  -0.294  0.9242  0.2988 -0.2539
  557MOL0     H76817   2.438  -0.360  -0.315  1.9867 -1.1524 -1.4822
  557MOL0     H76818   2.231  -0.323  -0.440 -1.5875  1.8274 -0.6892
  557MOL0     H76819   2.319  -0.199  -0.536 -2.8184  0.1757  2.0446
  557MOL0     H76820   2.292  -0.428  -0.654  1.4435  0.8923 -0.5434
  557MOL0     H76821   2.460  -0.353  -0.647  1.1748  0.0931 -0.1989
  557MOL0     H76822   2.443  -0.599  -0.610  0.3546  1.3585 -1.2673
  557MOL0     H76823   2.539  -0.503  -0.497 -0.4531  1.1269 -0.3626
  557MOL0     H76824   2.342  -0.610  -0.159 -1.9268 -0.9941 -0.8723
  557MOL0     H76825   2.574  -0.713   0.073  0.8852 -1.8300  0.1395
  557MOL0     H76826   2.450  -0.837   0.072 -0.5582  0.4006 -0.7728
  557MOL0     H76827   2.402  -0.661   0.055  0.3115  0.6125 -0.6833
  557MOL0     H76828   2.997  -0.846  -0.036 -1.6895 -0.4220  0.4701
  557MOL0     H76829   3.183  -0.971   0.070  1.2612 -1.8112 -0.2662
  557MOL0     H76830   3.347  -1.108   0.104  0.6956 -0.3295 -0.6054
  557MOL0     H76831   3.258  -1.137   0.255 -1.2398  2.5958 -1.7194
  557MOL0     H76832   3.336  -1.379   0.256  0.0358  1.7463  1.8789
  557MOL0     H76833   3.425  -1.345   0.107 -0.3128  2.0842 -1.4571
  557MOL0     H76834   3.589  -1.206   0.243  2.6857 -2.1002  1.7034
  557MOL0     H76835   3.567  -1.364   0.287 -0.1573 -0.3525 -1.0737
  557MOL0     H76836   3.469  -1.328   0.476  1.5279  0.7868  3.5353
  557MOL0     H76837   3.408  -1.157   0.435  0.6843  0.5404 -1.4479
  557MOL0     H76838   3.637  -1.072   0.447  1.5178 -2.0512 -3.4020
  557MOL0     H76839   3.603  -1.182   0.589  0.2059 -3.3252 -0.0911
  557MOL0     H76840   3.781  -1.224   0.349 -0.3799 -0.3166  0.7420
  557MOL0     H76841   3.719  -1.349   0.452 -3.1947 -0.3947 -3.8727
  557MOL0     H76842   3.826  -1.280   0.628  2.9579 -2.5254 -0.9885
  557MOL0     H76843   3.847  -1.107   0.602 -0.9311 -1.4930  1.4081
  557MOL0     H76844   4.028  -1.182   0.413 -0.4766 -2.0096 -1.7802
  557MOL0     H76845   4.027  -1.337   0.486  1.4258 -0.0256 -0.6420
  557MOL0     H76846   2.970  -1.341  -0.030 -0.0896 -1.5805  0.6696
  557MOL0     H76847   2.808  -1.213  -0.137 -0.7711  1.5597  0.9737
  557MOL0     H76848   2.660  -0.921  -0.372 -0.5123  0.1421 -2.4222
  557MOL0     H76849   2.542  -0.782  -0.511  1.9703  3.9141  0.9054
  557MOL0     H76850   2.919   0.384   0.377 -2.2100 -1.9402 -2.1340
  557MOL0     H76851   2.851   0.309   0.626  2.3100 -0.6215  1.9607
  557MOL0     H76852   2.786  -0.029   0.886 -1.4651  0.4744  1.1332
  557MOL0     H76853   2.719  -0.106   1.110 -0.1791  1.6740 -0.4966
  557MOL0     H76854   3.052  -0.202   1.384  1.7353 -0.2278  1.8182
  557MOL0     H76855   3.017  -0.061   1.477  0.8700 -1.3331  1.0505
  557MOL0     H76856   2.803  -0.207   1.542 -0.1430  1.0071 -1.0399
  557MOL0     H76857   2.954  -0.230   1.629 -0.8769 -1.8761  0.8248
  557MOL0     H76858   2.933  -0.395   1.387 -3.5408  2.1803 -0.7278
  557MOL0     H76859   2.997  -0.426   1.551 -2.3905 -3.5114  1.3579
  557MOL0     H76860   2.838  -0.575   1.552  0.4496  0.9519 -0.8232
  557MOL0     H76861   2.713  -0.464   1.494 -0.6232  0.0462  0.8780
  557MOL0     H76862   2.665  -0.366   1.880 -1.3546 -3.5599  1.3673
  557MOL0     H76863   3.078   0.017   1.278 -0.3937 -3.0142  0.1441
  557MOL0     H76864   3.222   0.172   1.166  0.2830 -1.0585 -0.1403
  557MOL0     H76865   3.237   0.100   1.011  0.0031 -0.3041  0.6515
  557MOL0     H76866   3.156   0.257   1.016 -2.2082 -0.1724 -0.8034
  558MOL0     O76867   4.851   6.989   3.602 -0.1513 -0.4182 -1.0095
  558MOL0     C76868   4.859   6.962   3.482 -0.1710 -0.4657 -0.0754
  558MOL0     O76869   4.762   6.982   3.391 -0.1662 -0.2288  0.7932
  558MOL0     C76870   4.631   7.017   3.417 -1.2073  0.3213 -0.8716
  558MOL0     C76871   4.560   7.058   3.307 -1.0230  0.0359  0.0003
  558MOL0     C76872   4.422   7.091   3.315  0.0650 -0.5745 -0.1734
  558MOL0     C76873   4.347   7.084   3.423 -0.0789 -0.1350 -0.2407
  558MOL0     O76874   4.217   7.117   3.435 -0.1283 -1.0505 -0.5067
  558MOL0     C76875   4.138   7.162   3.323 -1.2977  0.3477 -0.5515
  558MOL0     C76876   4.183   7.306   3.289 -0.1382 -0.2075 -0.2937
  558MOL0     C76877   4.136   7.417   3.380  0.9596 -0.1251 -0.1271
  558MOL0     C76878   4.177   7.555   3.331  0.8114  0.0752  0.1520
  558MOL0     C76879   4.101   7.666   3.407 -0.0106  0.6394 -0.5899
  558MOL0     C76880   4.121   7.816   3.349 -0.7448  0.4147 -0.0720
  558MOL0     C76881   4.061   7.926   3.444 -0.3019 -0.1057 -0.2351
  558MOL0     C76882   4.113   8.064   3.395 -0.0362  0.0784  0.3042
  558MOL0     N76883   4.252   8.091   3.440  0.4157 -0.7225 -0.2026
  558MOL0     C76884   4.332   8.020   3.524  0.2666 -0.7683 -0.0187
  558MOL0     C76885   4.454   8.091   3.529  0.2236 -0.1827 -0.3740
  558MOL0     C76886   4.568   8.043   3.614  1.0147 -0.5355  0.5134
  558MOL0     C76887   4.700   8.114   3.569  0.0158 -0.1004  0.4563
  558MOL0     C76888   4.820   8.016   3.580  0.0546  0.0342  0.0372
  558MOL0     C76889   4.948   8.055   3.504 -0.2737 -0.1854 -0.1641
  558MOL0     O76890   4.908   8.075   3.366 -0.2829  0.5137  0.6319
  558MOL0     C76891   4.991   8.146   3.283 -0.9912 -0.4089 -0.2920
  558MOL0     C76892   5.123   8.175   3.313  0.3270 -0.3223 -0.0900
  558MOL0     C76893   5.188   8.288   3.263  1.0391 -0.5804 -0.0865
  558MOL0     C76894   5.329   8.307   3.298  0.1542  0.9258 -0.3638
  558MOL0     C76895   5.123   8.366   3.160  0.6545  0.0100  0.2007
  558MOL0     C76896   5.179   8.482   3.089 -0.8476 -0.0588  0.3697
  558MOL0     O76897   5.282   8.557   3.159  0.0068 -0.2364 -0.7596
  558MOL0     C76898   5.352   8.656   3.094  0.0446 -0.6746 -0.7044
  558MOL0     C76899   5.286   8.762   3.033  0.9609 -0.7230 -0.8312
  558MOL0     C76900   5.362   8.842   2.950  0.6408  0.1007 -0.0248
  558MOL0     C76901   5.501   8.820   2.937  0.0178  0.9508  0.3237
  558MOL0     O76902   5.581   8.871   2.839  0.0353 -0.1385  0.4449
  558MOL0     C76903   5.520   8.966   2.747 -0.6488 -0.0553 -0.0342
  558MOL0     C76904   5.438   8.883   2.651  0.1631  0.0240 -0.1614
  558MOL0     C76905   5.374   8.967   2.543  0.1908  0.0223  0.0690
  558MOL0     C76906   5.223   8.991   2.556 -0.2639 -0.3957 -0.0880
  558MOL0     C76907   5.189   9.095   2.447  0.7487 -0.3089 -0.3712
  558MOL0     C76908   5.037   9.132   2.450 -1.1917 -0.5535  0.5994
  558MOL0     C76909   5.002   9.273   2.423 -0.3210 -0.2272 -0.2386
  558MOL0     C76910   5.055   9.339   2.295 -0.4955  0.0190  0.4669
  558MOL0    Cl76911   4.988   9.297   2.144  0.1876 -0.4993 -0.2279
  558MOL0     C76912   5.566   8.720   3.005  0.1311  0.2251 -0.7773
  558MOL0     C76913   5.494   8.628   3.085 -0.7564 -0.1988 -0.9738
  558MOL0     O76914   5.128   8.519   2.982 -0.3063 -0.5317  0.0786
  558MOL0     C76915   4.998   8.319   3.109 -0.2921  0.4320 -0.1015
  558MOL0     C76916   4.936   8.213   3.169 -0.8919 -0.5978  0.4889
  558MOL0     N76917   4.435   8.214   3.463  0.5780 -0.1645  0.9983
  558MOL0     N76918   4.317   8.209   3.411  0.5155 -0.2237  0.1062
  558MOL0     C76919   4.421   7.042   3.530  0.9588  0.1969  0.4127
  558MOL0     C76920   4.555   7.002   3.534 -0.0094 -0.8799  0.0298
  558MOL0     C76921   4.984   6.906   3.423 -0.4754  0.1844 -0.4384
  558MOL0     C76922   5.091   6.898   3.509  0.0307  0.3528  1.3518
  558MOL0     C76923   5.212   6.829   3.481 -0.5478 -0.0743  0.8349
  558MOL0     C76924   5.236   6.775   3.355  0.0492 -0.7895  0.5498
  558MOL0     O76925   5.362   6.739   3.316 -0.6558 -0.1401  0.0442
  558MOL0     C76926   5.384   6.640   3.208 -1.1105  0.2397  0.1738
  558MOL0     C76927   5.434   6.691   3.068 -0.6137  0.2164 -0.5475
  558MOL0     C76928   5.568   6.765   3.079 -0.6182 -0.1162 -0.2489
  558MOL0     C76929   5.688   6.707   3.169  0.0331 -0.2585  0.2035
  558MOL0     C76930   5.724   6.565   3.142  1.5980  0.8875  1.1039
  558MOL0     C76931   5.727   6.445   3.120 -0.1738 -0.1843  0.4829
  558MOL0     C76932   5.128   6.795   3.263 -0.1908 -0.3348  0.2592
  558MOL0     C76933   5.008   6.855   3.297 -0.5780  0.3967  0.5205
  558MOL0     C76934   4.910   6.853   3.172 -0.6343 -1.0956 -0.3359
  558MOL0     H76935   4.614   7.044   3.215 -0.9957 -0.6749  0.1182
  558MOL0     H76936   4.372   7.106   3.220 -1.2338 -1.2235  0.3920
  558MOL0     H76937   4.032   7.156   3.349 -1.2213  0.0776 -0.2881
  558MOL0     H76938   4.144   7.093   3.238 -1.2428 -1.0980  0.5703
  558MOL0     H76939   4.291   7.315   3.278 -0.2187  1.1285 -0.1489
  558MOL0     H76940   4.132   7.320   3.193 -3.0352  1.5608  1.3739
  558MOL0     H76941   4.027   7.422   3.375  0.8823 -0.4722  0.9127
  558MOL0     H76942   4.164   7.400   3.484 -1.2974  2.8748  1.1169
  558MOL0     H76943   4.279   7.578   3.365  1.6692 -2.0274 -0.8511
  558MOL0     H76944   4.162   7.575   3.224  1.5056 -0.7961 -0.1218
  558MOL0     H76945   4.126   7.659   3.514  1.2551 -2.6671 -0.9820
  558MOL0     H76946   3.996   7.637   3.411  0.0862  0.3785  0.2896
  558MOL0     H76947   4.227   7.839   3.340 -0.4710 -0.7524  0.0209
  558MOL0     H76948   4.080   7.820   3.248  1.9998 -1.2430 -1.3488
  558MOL0     H76949   4.097   7.910   3.546 -0.8883  1.8668  0.3098
  558MOL0     H76950   3.952   7.915   3.442 -0.0970 -3.3098 -2.6308
  558MOL0     H76951   4.124   8.069   3.286 -1.8083 -0.0524  0.1045
  558MOL0     H76952   4.042   8.140   3.428 -0.9565 -0.9988  0.8715
  558MOL0     H76953   4.312   7.923   3.570 -3.7347  1.2632  3.1906
  558MOL0     H76954   4.576   7.934   3.623 -0.0560 -0.5854  0.9904
  558MOL0     H76955   4.529   8.072   3.712  0.9727  2.4899 -0.3083
  558MOL0     H76956   4.674   8.142   3.466 -1.2196  0.6151  0.9424
  558MOL0     H76957   4.719   8.203   3.629  2.5735  0.1060 -0.5544
  558MOL0     H76958   4.841   7.993   3.685  0.8363 -2.4630 -0.5950
  558MOL0     H76959   4.798   7.922   3.529  0.2067  0.3571 -0.6468
  558MOL0     H76960   4.986   8.152   3.537 -1.0479  0.9033 -2.2821
  558MOL0     H76961   5.021   7.975   3.519 -0.3657 -0.3020 -0.3381
  558MOL0     H76962   5.190   8.112   3.369 -0.8848 -3.1059 -1.5809
  558MOL0     H76963   5.340   8.404   3.347  0.7679  1.2127 -1.0436
  558MOL0     H76964   5.405   8.292   3.220 -0.4106 -1.1538 -0.5770
  558MOL0     H76965   5.357   8.233   3.373  0.9001 -0.1578 -1.6559
  558MOL0     H76966   5.180   8.772   3.053  0.4824 -5.3522  0.1083
  558MOL0     H76967   5.315   8.934   2.916  1.6845  0.1511 -1.4106
  558MOL0     H76968   5.463   9.045   2.796 -1.3059  0.2699 -1.2625
  558MOL0     H76969   5.604   9.013   2.696 -1.3676  0.6642 -0.5963
  558MOL0     H76970   5.494   8.803   2.601  2.1992  0.6975  0.9140
  558MOL0     H76971   5.355   8.830   2.698 -1.3277  0.6147 -2.0121
  558MOL0     H76972   5.401   8.920   2.449 -0.2655 -0.5111  0.1971
  558MOL0     H76973   5.430   9.061   2.543 -1.7709  1.2512 -0.4217
  558MOL0     H76974   5.190   9.034   2.651  0.5031  1.0456 -0.4573
  558MOL0     H76975   5.169   8.896   2.549  0.9349 -1.2337  1.4074
  558MOL0     H76976   5.251   9.183   2.463 -1.0005  0.2400  6.6550
  558MOL0     H76977   5.212   9.048   2.351  2.5050  3.5977 -2.0899
  558MOL0     H76978   5.005   9.108   2.551  1.5945 -0.5062  1.5769
  558MOL0     H76979   4.995   9.060   2.379 -2.8124  1.8532 -1.0404
  558MOL0     H76980   5.033   9.334   2.509 -1.2638  3.2603 -2.1876
  558MOL0     H76981   4.893   9.281   2.427 -0.5493 -2.8063  1.7454
  558MOL0     H76982   5.162   9.324   2.280 -0.9403 -1.8572 -1.3220
  558MOL0     H76983   5.043   9.447   2.312 -0.4642  0.2896 -1.0634
  558MOL0     H76984   5.675   8.726   3.002  0.5318  2.2953  5.2242
  558MOL0     H76985   5.553   8.551   3.133 -0.3238  0.5119 -0.3404
  558MOL0     H76986   4.949   8.357   3.020 -0.0930 -0.5440 -0.6430
  558MOL0     H76987   4.832   8.202   3.140 -0.6102  0.2846 -0.9821
  558MOL0     H76988   4.374   7.036   3.628 -1.2050 -0.8519 -0.6238
  558MOL0     H76989   4.594   6.971   3.630  0.3205  0.1631  0.2536
  558MOL0     H76990   5.075   6.940   3.608 -0.8959  1.5116  0.7303
  558MOL0     H76991   5.278   6.814   3.566  2.1839  1.1862 -0.9095
  558MOL0     H76992   5.453   6.560   3.235  1.0723  1.7929 -0.4820
  558MOL0     H76993   5.288   6.592   3.185 -1.8626  1.4184  0.7371
  558MOL0     H76994   5.352   6.753   3.030 -0.6868  0.9389  0.7249
  558MOL0     H76995   5.442   6.596   3.014 -1.3116 -1.2946  1.8128
  558MOL0     H76996   5.605   6.790   2.979 -0.4264  0.7519  0.0300
  558MOL0     H76997   5.543   6.861   3.126  1.0545  0.9029 -1.3054
  558MOL0     H76998   5.665   6.720   3.275 -1.3826 -0.3886 -0.0736
  558MOL0     H76999   5.780   6.760   3.141 -0.2654 -0.5599 -1.4858
  558MOL0     H77000   5.734   6.345   3.083 -3.2139 -0.0685 -0.6949
  558MOL0     H77001   5.138   6.760   3.160  2.7969  1.2666 -0.1134
  558MOL0     H77002   4.944   6.924   3.095  0.2094 -2.7412 -1.5485
  558MOL0     H77003   4.921   6.761   3.114  1.8011  0.2631 -2.2478
  558MOL0     H77004   4.803   6.867   3.189 -1.0771 -4.1188 -0.0973
  559MOL0     O77005   6.698   2.658   0.187 -0.7367 -0.9163 -0.5929
  559MOL0     C77006   6.642   2.761   0.151 -0.1136  0.0323  0.1794
  559MOL0     O77007   6.696   2.884   0.132 -0.0523  0.4258  0.7481
  559MOL0     C77008   6.819   2.915   0.184 -0.0022  0.1165  0.1584
  559MOL0     C77009   6.927   2.826   0.186  0.7134 -0.4503  0.4795
  559MOL0     C77010   7.048   2.855   0.260 -0.7796 -0.1563  0.4477
  559MOL0     C77011   7.064   2.980   0.317  0.8493 -0.2311 -0.4581
  559MOL0     O77012   7.170   3.019   0.391 -0.1074 -0.8714 -0.5244
  559MOL0     C77013   7.299   2.966   0.408  0.8592 -0.2972  0.3508
  559MOL0     C77014   7.285   2.838   0.497  0.0769  0.1708 -0.4993
  559MOL0     C77015   7.255   2.879   0.642  0.4314 -1.0198  0.3837
  559MOL0     C77016   7.098   2.861   0.674 -0.6104 -0.5435  0.2261
  559MOL0     C77017   7.071   2.871   0.828 -0.1117 -0.4697  0.1066
  559MOL0     C77018   7.162   2.801   0.921 -0.2444  0.0142  0.1789
  559MOL0     C77019   7.197   2.657   0.895  0.4189 -0.4081 -1.1588
  559MOL0     C77020   7.076   2.559   0.896 -0.2927 -0.8368  0.9899
  559MOL0     N77021   7.037   2.561   1.037  0.2333 -0.3013 -0.1303
  559MOL0     C77022   7.093   2.512   1.154 -0.6237  0.1262  0.3643
  559MOL0     C77023   6.995   2.532   1.250 -0.9617 -0.0655  0.4432
  559MOL0     C77024   7.009   2.504   1.401  1.3153 -0.4135  0.3830
  559MOL0     C77025   7.101   2.393   1.440 -0.3395  1.0373 -0.1625
  559MOL0     C77026   7.076   2.347   1.584  0.0296 -0.6578 -1.0310
  559MOL0     C77027   6.965   2.239   1.602  0.5607  0.0052 -0.5461
  559MOL0     O77028   6.954   2.196   1.743 -0.1789 -1.0276 -0.0853
  559MOL0     C77029   6.901   2.289   1.820  1.1493 -0.8972 -0.3746
  559MOL0     C77030   6.992   2.362   1.896  0.4665  0.0505 -0.0080
  559MOL0     C77031   6.964   2.466   1.988 -0.1286 -0.2205  1.3628
  559MOL0     C77032   7.088   2.537   2.036 -0.0287 -0.4178  0.3166
  559MOL0     C77033   6.832   2.490   2.018 -0.2673  0.0603  0.7509
  559MOL0     C77034   6.790   2.584   2.116 -0.6157 -0.4825 -1.4183
  559MOL0     O77035   6.656   2.588   2.154  0.2019  0.0647  0.9284
  559MOL0     C77036   6.624   2.653   2.268  0.8461  0.4156 -0.1316
  559MOL0     C77037   6.649   2.589   2.388 -0.4712 -0.5227 -0.2063
  559MOL0     C77038   6.606   2.659   2.502  0.6148 -0.3442 -0.1536
  559MOL0     C77039   6.566   2.792   2.504  0.0380 -0.0246  1.8771
  559MOL0     O77040   6.554   2.872   2.609 -0.1842  0.7826 -0.5209
  559MOL0     C77041   6.646   2.869   2.716  0.0139  0.2704 -0.1353
  559MOL0     C77042   6.797   2.871   2.674 -0.2674  0.1061  0.1287
  559MOL0     C77043   6.867   2.925   2.796 -0.0628 -0.0047  0.0922
  559MOL0     C77044   6.900   2.801   2.891 -0.9040  1.2340 -0.0543
  559MOL0     C77045   6.970   2.852   3.019  0.5724 -0.1032 -0.8603
  559MOL0     C77046   7.008   2.747   3.119 -0.0478  0.1625  0.4409
  559MOL0     C77047   7.121   2.787   3.207 -0.3428 -0.1812  0.2566
  559MOL0     C77048   7.163   2.676   3.303 -0.1160 -0.4839  0.1978
  559MOL0    Cl77049   7.284   2.572   3.230 -0.3814  0.0370 -0.1707
  559MOL0     C77050   6.528   2.850   2.381 -0.4878  0.6200  0.1289
  559MOL0     C77051   6.566   2.779   2.261  0.4535  0.7600 -0.1832
  559MOL0     O77052   6.869   2.660   2.161 -0.8240  0.1609  0.5637
  559MOL0     C77053   6.731   2.411   1.947 -0.2754  0.8882 -0.3738
  559MOL0     C77054   6.768   2.316   1.849  0.1693  0.1523 -0.8041
  559MOL0     N77055   6.889   2.594   1.197  0.4863 -0.3921  0.6238
  559MOL0     N77056   6.919   2.605   1.072 -0.2213 -0.4488 -0.1935
  559MOL0     C77057   6.957   3.071   0.311  1.0773  1.0761 -0.2796
  559MOL0     C77058   6.842   3.038   0.238  0.5686  0.6842 -0.0319
  559MOL0     C77059   6.495   2.756   0.127 -0.3869  0.3194 -0.3182
  559MOL0     C77060   6.403   2.795   0.232 -1.9040 -0.0521 -0.5384
  559MOL0     C77061   6.269   2.777   0.214 -0.1280 -0.6484 -0.6935
  559MOL0     C77062   6.220   2.722   0.094  0.8057  0.0980 -0.2813
  559MOL0     O77063   6.084   2.710   0.071 -0.0976 -0.0367 -0.0752
  559MOL0     C77064   5.989   2.798   0.136 -0.1754 -0.1037 -0.2193
  559MOL0     C77065   5.895   2.842   0.024  0.2869  0.0521 -0.4715
  559MOL0     C77066   5.820   2.723  -0.032 -0.5614 -0.0313  0.0237
  559MOL0     C77067   5.694   2.768  -0.098 -0.3651 -0.0174  0.2347
  559MOL0     C77068   5.627   2.664  -0.175 -0.1455 -0.7239 -0.9658
  559MOL0     C77069   5.564   2.586  -0.245 -0.5518 -0.3530 -0.3960
  559MOL0     C77070   6.302   2.687  -0.008 -0.1114  0.5159 -0.2619
  559MOL0     C77071   6.443   2.696   0.008  0.1606 -0.2116  0.0469
  559MOL0     C77072   6.534   2.641  -0.101 -0.1766 -0.0957  0.7256
  559MOL0     H77073   6.923   2.723   0.151 -0.4914  0.2116 -1.4890
  559MOL0     H77074   7.125   2.778   0.266 -0.1278  0.5172  0.9889
  559MOL0     H77075   7.358   3.041   0.461 -1.8356  0.7467  2.0874
  559MOL0     H77076   7.350   2.947   0.313 -1.6226 -0.0686 -1.1069
  559MOL0     H77077   7.211   2.770   0.454 -1.7859  0.4549  2.0521
  559MOL0     H77078   7.381   2.786   0.495 -0.7399 -1.3946 -0.3068
  559MOL0     H77079   7.320   2.826   0.712 -0.0876  0.1185  1.7713
  559MOL0     H77080   7.280   2.985   0.647 -2.7956  0.2087 -3.7199
  559MOL0     H77081   7.034   2.929   0.618 -2.2965 -1.7398  0.6158
  559MOL0     H77082   7.055   2.766   0.643 -0.0229 -0.4634 -0.8808
  559MOL0     H77083   6.969   2.841   0.857  0.2756  1.0873  3.6362
  559MOL0     H77084   7.085   2.975   0.861 -2.7082 -0.0817  0.2236
  559MOL0     H77085   7.255   2.858   0.912  0.4984 -1.2087 -0.0687
  559MOL0     H77086   7.137   2.817   1.027 -0.7821 -1.8580  0.3709
  559MOL0     H77087   7.270   2.622   0.969 -0.8185  0.4601  0.5213
  559MOL0     H77088   7.260   2.648   0.805 -0.4371 -2.3378 -1.6113
  559MOL0     H77089   6.992   2.603   0.841  0.3520 -1.4741 -0.5863
  559MOL0     H77090   7.095   2.455   0.868 -2.5491 -0.8942 -0.5804
  559MOL0     H77091   7.192   2.469   1.164 -0.4840 -0.5711 -2.9917
  559MOL0     H77092   6.909   2.467   1.426  0.2059  0.6644 -2.1842
  559MOL0     H77093   7.016   2.597   1.458 -2.1490  2.4319 -3.2889
  559MOL0     H77094   7.087   2.308   1.372 -2.6409  0.5162  0.8562
  559MOL0     H77095   7.202   2.434   1.442  0.0543  0.2067  3.8016
  559MOL0     H77096   7.170   2.301   1.617 -0.2096 -1.8253 -1.8871
  559MOL0     H77097   7.053   2.430   1.651 -0.3394  0.5758 -2.5992
  559MOL0     H77098   6.870   2.277   1.562 -1.3495  0.3429  3.7848
  559MOL0     H77099   6.993   2.157   1.535  2.5829  2.3162 -2.7509
  559MOL0     H77100   7.090   2.342   1.854 -0.9324 -3.7420 -2.0087
  559MOL0     H77101   7.181   2.518   1.981 -0.7139 -1.4361 -0.5051
  559MOL0     H77102   7.120   2.509   2.137 -0.5030  1.9409  1.1981
  559MOL0     H77103   7.066   2.644   2.038 -2.0204 -0.8046  1.6076
  559MOL0     H77104   6.696   2.493   2.370 -2.1049 -1.3909 -0.0541
  559MOL0     H77105   6.615   2.624   2.604 -1.6557  0.0743  0.2631
  559MOL0     H77106   6.622   2.958   2.774 -0.9767  0.4904 -0.8744
  559MOL0     H77107   6.635   2.784   2.785  0.6424 -0.7886 -1.3007
  559MOL0     H77108   6.834   2.773   2.643 -0.9458  0.3693 -1.6172
  559MOL0     H77109   6.810   2.941   2.591  0.7423  0.6638  0.7335
  559MOL0     H77110   6.809   3.002   2.845  0.0273  1.0958 -1.4437
  559MOL0     H77111   6.958   2.976   2.762 -0.2664  0.0113 -0.4412
  559MOL0     H77112   6.965   2.735   2.832 -0.3627  0.8984  0.8964
  559MOL0     H77113   6.808   2.745   2.913 -0.6055 -0.2696 -2.2239
  559MOL0     H77114   7.067   2.893   2.992  1.1748 -0.0030  1.3002
  559MOL0     H77115   6.914   2.932   3.068  0.7776 -0.2449 -0.3863
  559MOL0     H77116   7.031   2.655   3.064 -1.9115 -0.5635  0.7697
  559MOL0     H77117   6.920   2.718   3.177  0.2508  1.5200  1.6002
  559MOL0     H77118   7.107   2.879   3.263  4.7509  1.2308 -0.2712
  559MOL0     H77119   7.205   2.811   3.140  0.9511  0.6426  2.0972
  559MOL0     H77120   7.082   2.625   3.355 -1.4049  1.7766  0.5385
  559MOL0     H77121   7.219   2.727   3.383  1.4744 -3.1100  0.8616
  559MOL0     H77122   6.470   2.942   2.375  0.2330  1.2903  2.4211
  559MOL0     H77123   6.551   2.818   2.161 -0.0243 -0.4600 -0.6127
  559MOL0     H77124   6.624   2.424   1.961 -0.6418 -0.6327 -1.4861
  559MOL0     H77125   6.691   2.260   1.798 -0.5403 -0.8973  1.2766
  559MOL0     H77126   6.982   3.163   0.363  1.2555  0.7261  0.2695
  559MOL0     H77127   6.754   3.099   0.225 -0.0443 -0.4401 -1.3643
  559MOL0     H77128   6.431   2.842   0.326 -3.0610 -1.5751  0.6423
  559MOL0     H77129   6.200   2.814   0.289  0.0854  1.9791 -1.6713
  559MOL0     H77130   5.933   2.747   0.215  0.2685  0.3877  0.4335
  559MOL0     H77131   6.038   2.887   0.177  2.4154 -0.0375 -3.0876
  559MOL0     H77132   5.953   2.887  -0.057 -0.7873  0.0081 -1.2967
  559MOL0     H77133   5.815   2.906   0.065 -0.8650  0.4968 -3.1849
  559MOL0     H77134   5.884   2.662  -0.096  0.5473  1.4103 -0.2964
  559MOL0     H77135   5.782   2.664   0.052 -1.6937  0.5617 -0.0645
  559MOL0     H77136   5.725   2.856  -0.156 -1.9319 -1.0948 -2.4053
  559MOL0     H77137   5.638   2.790  -0.007  0.9709  0.3351  1.0014
  559MOL0     H77138   5.523   2.511  -0.310  1.9164 -1.5510 -0.6637
  559MOL0     H77139   6.235   2.668  -0.092 -3.0877  0.7526  1.9028
  559MOL0     H77140   6.635   2.681  -0.090  0.1594 -0.9033  0.6141
  559MOL0     H77141   6.533   2.533  -0.089  1.4064 -0.0816  1.1215
  559MOL0     H77142   6.479   2.669  -0.192 -0.9551 -0.2153  1.1538
  560MOL0     O77143   2.923   6.209   0.996 -0.2122 -0.3906 -0.4140
  560MOL0     C77144   2.893   6.109   0.929 -0.2117 -0.4080  0.0594
  560MOL0     O77145   2.955   6.086   0.811  0.2066 -0.1821 -0.6024
  560MOL0     C77146   3.029   6.176   0.749 -0.3131  0.0651  1.3996
  560MOL0     C77147   3.147   6.235   0.801 -0.7552  0.2788  0.1347
  560MOL0     C77148   3.205   6.346   0.732 -0.1448  0.1046 -0.1311
  560MOL0     C77149   3.136   6.399   0.617 -0.5015 -0.7346  0.1818
  560MOL0     O77150   3.171   6.506   0.537  0.1506  0.1242 -0.0796
  560MOL0     C77151   3.311   6.529   0.543  0.4468  0.1354  0.4696
  560MOL0     C77152   3.356   6.535   0.399 -0.3813 -0.4853  0.0040
  560MOL0     C77153   3.404   6.402   0.340  0.5800 -0.0471 -0.1771
  560MOL0     C77154   3.458   6.431   0.196 -0.3495  0.2568  0.4747
  560MOL0     C77155   3.555   6.308   0.165  0.3581 -0.8465 -0.2733
  560MOL0     C77156   3.628   6.332   0.029 -0.2498 -0.7436 -0.4457
  560MOL0     C77157   3.540   6.318  -0.094  0.3906  1.1566 -0.0451
  560MOL0     C77158   3.621   6.363  -0.220 -0.1482 -0.9982  0.2814
  560MOL0     N77159   3.550   6.358  -0.356 -0.4414  0.4177 -0.5366
  560MOL0     C77160   3.549   6.456  -0.453  0.4605  0.0512  1.3550
  560MOL0     C77161   3.478   6.404  -0.550 -1.1187 -0.7205 -0.3806
  560MOL0     C77162   3.427   6.475  -0.670  0.0151 -0.4861  0.4331
  560MOL0     C77163   3.295   6.415  -0.721 -0.8484  0.1710  0.1068
  560MOL0     C77164   3.307   6.279  -0.792 -0.2643  0.4352  0.8111
  560MOL0     C77165   3.186   6.233  -0.867  0.1712  0.0681  0.1823
  560MOL0     O77166   3.137   6.342  -0.937 -0.6096 -0.9396  0.7760
  560MOL0     C77167   3.197   6.381  -1.057  0.2642  0.2355 -0.5905
  560MOL0     C77168   3.280   6.306  -1.146  0.0554  0.1020 -0.9264
  560MOL0     C77169   3.332   6.359  -1.257  0.3843 -0.5765  0.3401
  560MOL0     C77170   3.397   6.257  -1.351 -0.1224  0.1880 -0.1454
  560MOL0     C77171   3.320   6.493  -1.287 -1.3885 -0.5464  0.4307
  560MOL0     C77172   3.386   6.573  -1.393  0.1771  0.6752  0.3139
  560MOL0     O77173   3.316   6.679  -1.435  0.0200  0.1342 -0.1821
  560MOL0     C77174   3.363   6.749  -1.542 -0.0077 -0.2180 -0.1980
  560MOL0     C77175   3.289   6.754  -1.662  0.2835 -0.2777  0.0677
  560MOL0     C77176   3.325   6.851  -1.753 -0.2831  0.2561  0.2404
  560MOL0     C77177   3.429   6.945  -1.732  0.1496 -0.5354 -0.4830
  560MOL0     O77178   3.444   7.057  -1.814 -0.2425  0.1927 -0.3177
  560MOL0     C77179   3.571   7.121  -1.822  0.3841 -1.1272  0.0617
  560MOL0     C77180   3.578   7.243  -1.921 -0.2987  0.1653 -0.6516
  560MOL0     C77181   3.581   7.195  -2.067  0.3260  0.4565 -0.5776
  560MOL0     C77182   3.454   7.122  -2.123 -0.1371 -0.1006 -0.2691
  560MOL0     C77183   3.432   7.133  -2.270 -0.4214 -0.3888 -0.3096
  560MOL0     C77184   3.323   7.028  -2.306 -0.8794  0.5222  0.7014
  560MOL0     C77185   3.256   7.058  -2.440 -0.3704 -0.2124  0.1173
  560MOL0     C77186   3.201   7.197  -2.464  0.1936  0.4773 -0.1613
  560MOL0    Cl77187   3.073   7.206  -2.354 -0.0729  0.4743  0.1378
  560MOL0     C77188   3.498   6.952  -1.603  0.4561  1.0810 -0.0444
  560MOL0     C77189   3.455   6.850  -1.513  0.8740  0.1892 -0.2939
  560MOL0     O77190   3.491   6.530  -1.437 -0.5771 -0.3383  0.6661
  560MOL0     C77191   3.234   6.564  -1.201 -0.0015 -0.5165  0.8839
  560MOL0     C77192   3.169   6.509  -1.090  0.9832  0.7445  0.4477
  560MOL0     N77193   3.445   6.279  -0.512  0.8201 -0.4182  0.0329
  560MOL0     N77194   3.484   6.250  -0.398  0.2884 -0.4443  0.1045
  560MOL0     C77195   3.028   6.330   0.571 -0.6958  0.5212  0.1644
  560MOL0     C77196   2.981   6.219   0.624  0.5305  0.5537 -0.3077
  560MOL0     C77197   2.808   5.998   0.982 -0.3915 -0.4007  0.7638
  560MOL0     C77198   2.861   5.867   0.955  0.8565  0.8044 -0.4105
  560MOL0     C77199   2.798   5.756   1.009  0.7144  0.5301  0.0729
  560MOL0     C77200   2.690   5.763   1.089  0.2071  0.3572 -0.6457
  560MOL0     O77201   2.630   5.646   1.137 -0.6795  0.6060 -0.9737
  560MOL0     C77202   2.489   5.645   1.173  0.1631 -0.5705 -0.3470
  560MOL0     C77203   2.433   5.504   1.204  0.0694 -0.2106 -0.0912
  560MOL0     C77204   2.501   5.435   1.318 -1.0103  0.0703 -0.6642
  560MOL0     C77205   2.454   5.292   1.339 -0.2119  0.9441  0.0376
  560MOL0     C77206   2.513   5.194   1.242 -0.7490 -0.3028  0.8342
  560MOL0     C77207   2.561   5.119   1.153 -0.1389  0.2894 -0.2525
  560MOL0     C77208   2.639   5.895   1.119 -0.9554  0.8242 -0.1918
  560MOL0     C77209   2.700   6.007   1.069 -0.2054  0.6769 -0.2654
  560MOL0     C77210   2.635   6.143   1.083  0.3338 -0.6744 -0.2928
  560MOL0     H77211   3.187   6.219   0.901  1.8786 -1.0321 -1.0258
  560MOL0     H77212   3.297   6.382   0.776 -0.6927  1.0946  0.2564
  560MOL0     H77213   3.371   6.448   0.587 -1.9319 -1.4239  1.0255
  560MOL0     H77214   3.337   6.624   0.591 -0.7026  1.2307 -0.9877
  560MOL0     H77215   3.282   6.592   0.342 -2.0184 -1.8316  0.7009
  560MOL0     H77216   3.448   6.593   0.402  0.6298 -1.8786 -2.0409
  560MOL0     H77217   3.480   6.365   0.410  1.2679  1.3005 -0.1761
  560MOL0     H77218   3.322   6.330   0.331  2.4238 -2.0898 -1.6993
  560MOL0     H77219   3.376   6.440   0.124 -0.5853  1.1959  0.8391
  560MOL0     H77220   3.510   6.527   0.191  3.5581 -1.7341 -0.7976
  560MOL0     H77221   3.491   6.220   0.159 -0.9265 -0.0232  0.5500
  560MOL0     H77222   3.626   6.292   0.247 -3.6372  0.6288  3.9414
  560MOL0     H77223   3.667   6.434   0.030  0.9206 -1.1739  0.9276
  560MOL0     H77224   3.717   6.270   0.020  1.2611  1.4077 -1.2722
  560MOL0     H77225   3.448   6.376  -0.083 -2.2744 -2.8305  1.1409
  560MOL0     H77226   3.522   6.210  -0.090 -0.3414  1.2546 -0.3909
  560MOL0     H77227   3.648   6.466  -0.196 -1.0764 -0.8649  0.7975
  560MOL0     H77228   3.713   6.306  -0.235  1.2221  1.3727 -0.7973
  560MOL0     H77229   3.599   6.552  -0.444 -1.3059  1.3186 -1.1748
  560MOL0     H77230   3.500   6.465  -0.750 -3.9898  0.0079 -3.6605
  560MOL0     H77231   3.419   6.583  -0.651 -0.8198 -0.5512  0.4781
  560MOL0     H77232   3.219   6.410  -0.642 -0.3370  1.3909  0.6918
  560MOL0     H77233   3.255   6.490  -0.790 -2.1438 -2.4056 -2.1772
  560MOL0     H77234   3.400   6.271  -0.850  0.1314 -5.1750  1.6658
  560MOL0     H77235   3.307   6.195  -0.722  2.0295 -1.0795 -0.8485
  560MOL0     H77236   3.223   6.151  -0.930 -0.9155 -2.0066  2.1012
  560MOL0     H77237   3.119   6.196  -0.788  2.2066  2.0859  3.0735
  560MOL0     H77238   3.278   6.198  -1.140  1.0210  0.1071 -0.3057
  560MOL0     H77239   3.499   6.282  -1.380  0.6655 -2.7972 -0.2798
  560MOL0     H77240   3.355   6.254  -1.452  2.6583 -0.6491 -1.3770
  560MOL0     H77241   3.383   6.155  -1.314 -2.3650  0.6952  0.5434
  560MOL0     H77242   3.198   6.694  -1.666 -0.2412 -0.1471  4.6247
  560MOL0     H77243   3.276   6.862  -1.850  2.2123  4.8063 -0.8317
  560MOL0     H77244   3.593   7.166  -1.725 -0.6933 -3.6463  1.5964
  560MOL0     H77245   3.654   7.050  -1.834  1.8337  0.6538 -1.0257
  560MOL0     H77246   3.495   7.312  -1.903 -1.1172 -0.7574 -0.7561
  560MOL0     H77247   3.671   7.297  -1.907  1.9340 -2.3307 -4.2158
  560MOL0     H77248   3.663   7.124  -2.079 -0.5332 -0.7184  0.3493
  560MOL0     H77249   3.601   7.283  -2.130  3.4621 -0.2569 -0.7625
  560MOL0     H77250   3.370   7.171  -2.074  0.4313  2.3122 -1.5422
  560MOL0     H77251   3.444   7.018  -2.092 -0.7242  0.3160  1.0394
  560MOL0     H77252   3.403   7.238  -2.284 -0.2957 -0.1852  0.8685
  560MOL0     H77253   3.526   7.118  -2.324  0.5025  1.2662  0.7536
  560MOL0     H77254   3.245   7.030  -2.230  0.6270  0.3704  2.3068
  560MOL0     H77255   3.369   6.929  -2.297  2.4412  2.0646  2.8272
  560MOL0     H77256   3.180   6.983  -2.461 -0.2135 -1.0240  2.2747
  560MOL0     H77257   3.337   7.046  -2.513  0.2727 -0.0662  0.7898
  560MOL0     H77258   3.164   7.205  -2.566  1.5911 -1.2418 -0.8596
  560MOL0     H77259   3.271   7.275  -2.436 -0.4958  0.3702  2.0641
  560MOL0     H77260   3.569   7.027  -1.571  1.9996 -1.3349  2.7020
  560MOL0     H77261   3.502   6.852  -1.416 -0.8914  0.4304  0.5892
  560MOL0     H77262   3.217   6.667  -1.229 -2.4306 -2.1413 -5.3663
  560MOL0     H77263   3.109   6.586  -1.041 -4.3921 -2.4524 -0.3427
  560MOL0     H77264   2.978   6.374   0.485 -3.6865 -1.0092  0.9930
  560MOL0     H77265   2.892   6.169   0.587 -0.0807  0.1974  1.5329
  560MOL0     H77266   2.952   5.858   0.897  0.6453 -1.6587 -0.4469
  560MOL0     H77267   2.831   5.656   0.983 -1.4026  0.1278 -1.3379
  560MOL0     H77268   2.473   5.696   1.269 -1.8921  1.1076 -1.4927
  560MOL0     H77269   2.422   5.679   1.093 -1.0842 -3.9191 -0.8831
  560MOL0     H77270   2.461   5.448   1.114 -0.8739 -1.0792  0.1352
  560MOL0     H77271   2.325   5.516   1.210 -0.3191 -2.6399 -1.0174
  560MOL0     H77272   2.610   5.437   1.301 -0.5752 -2.0230  1.3744
  560MOL0     H77273   2.479   5.474   1.418 -2.3991 -4.4533  1.0460
  560MOL0     H77274   2.345   5.284   1.338 -0.2432  1.4126 -0.6421
  560MOL0     H77275   2.478   5.258   1.440  3.4519 -0.4637 -1.1158
  560MOL0     H77276   2.595   5.071   1.063  3.6476  0.5186  0.8772
  560MOL0     H77277   2.544   5.909   1.170 -1.4308 -1.1154 -0.4565
  560MOL0     H77278   2.580   6.170   0.992  1.5904 -0.6248 -1.0727
  560MOL0     H77279   2.566   6.143   1.167  1.3409  0.7461  0.5730
  560MOL0     H77280   2.712   6.216   1.110 -0.3999 -0.4964  1.4281
  561MOL0     O77281   0.832   1.709   9.188 -0.3163  0.1408  0.9978
  561MOL0     C77282   0.900   1.691   9.086 -0.0107 -0.5864  0.1436
  561MOL0     O77283   0.965   1.572   9.059  0.6000  0.5340  0.1369
  561MOL0     C77284   0.994   1.478   9.154 -0.6950 -0.8408  0.6462
  561MOL0     C77285   1.053   1.369   9.089  0.1532 -0.6277  0.5295
  561MOL0     C77286   1.105   1.261   9.172  0.4222  0.4294 -0.1259
  561MOL0     C77287   1.100   1.268   9.311  0.2269 -0.0339 -0.5139
  561MOL0     O77288   1.152   1.179   9.397  0.6225  0.6120  0.3559
  561MOL0     C77289   1.273   1.119   9.369 -0.4372 -0.2140  1.0914
  561MOL0     C77290   1.314   1.034   9.481 -0.1793 -0.2941 -0.3888
  561MOL0     C77291   1.424   1.105   9.581  0.2993  0.1257  0.7279
  561MOL0     C77292   1.376   1.219   9.672 -0.4483  0.0015  0.5635
  561MOL0     C77293   1.473   1.251   9.781  0.2629  0.3841 -1.0416
  561MOL0     C77294   1.596   1.312   9.723 -0.3645 -0.4287 -0.3847
  561MOL0     C77295   1.686   1.389   9.822  0.4207 -0.2098 -0.4203
  561MOL0     C77296   1.816   1.431   9.754  0.5946  0.4489  0.1810
  561MOL0     N77297   1.792   1.559   9.694 -0.1462  0.4525 -0.2102
  561MOL0     C77298   1.810   1.605   9.564 -1.0414  0.6158  0.5817
  561MOL0     C77299   1.790   1.743   9.561  0.4203  0.5801  0.1955
  561MOL0     C77300   1.827   1.822   9.440  0.9583 -0.1126 -0.9181
  561MOL0     C77301   1.715   1.923   9.405 -0.7439 -0.7904 -0.3707
  561MOL0     C77302   1.779   2.032   9.307 -0.2312 -0.6664  0.0760
  561MOL0     C77303   1.692   2.152   9.318 -0.3092 -0.0228 -0.5156
  561MOL0     O77304   1.744   2.265   9.240  0.1945  0.5583 -0.1723
  561MOL0     C77305   1.706   2.397   9.270  0.1743  0.7206 -0.5378
  561MOL0     C77306   1.610   2.420   9.373  0.1522  0.0471 -0.4075
  561MOL0     C77307   1.606   2.551   9.422 -0.2100  0.1100  0.9412
  561MOL0     C77308   1.530   2.556   9.548 -0.3225  1.0832 -0.6672
  561MOL0     C77309   1.681   2.657   9.367  0.4772  0.3124 -0.1672
  561MOL0     C77310   1.674   2.796   9.427  0.9570 -0.3048 -0.4052
  561MOL0     O77311   1.779   2.871   9.393  0.4840 -0.1894 -0.6573
  561MOL0     C77312   1.805   2.988   9.455  0.3119  0.4064 -0.3098
  561MOL0     C77313   1.877   3.085   9.384 -0.3210  0.3194  0.4667
  561MOL0     C77314   1.899   3.213   9.435 -0.6731 -0.1597  0.2431
  561MOL0     C77315   1.869   3.238   9.567  0.2716 -0.1969 -0.1713
  561MOL0     O77316   1.881   3.372   9.609  0.1419  0.4781 -0.4142
  561MOL0     C77317   1.866   3.401   9.752  0.3736 -0.8962 -0.7503
  561MOL0     C77318   1.954   3.518   9.800 -0.0902  0.6931 -0.1122
  561MOL0     C77319   1.912   3.655   9.735  0.0467 -0.2602  0.5692
  561MOL0     C77320   1.995   3.778   9.777  0.0751 -0.9245  0.1726
  561MOL0     C77321   1.954   3.912   9.700  0.0257 -0.3624 -0.7386
  561MOL0     C77322   2.066   4.021   9.690  0.6566  0.1415 -0.0525
  561MOL0     C77323   2.097   4.063   9.830 -0.2798 -0.3732 -1.2749
  561MOL0     C77324   2.204   4.185   9.830 -1.1805 -0.0797  0.5804
  561MOL0    Cl77325   2.205   4.281   9.987  0.1649  0.0362  0.2879
  561MOL0     C77326   1.790   3.146   9.643  1.1685 -0.4238 -0.3542
  561MOL0     C77327   1.775   3.017   9.584 -0.0699 -0.0423 -0.7374
  561MOL0     O77328   1.570   2.836   9.479 -0.9460 -0.2218  0.2076
  561MOL0     C77329   1.746   2.629   9.243  0.8611 -0.7471 -0.3221
  561MOL0     C77330   1.760   2.501   9.201  0.9930  0.5110  0.5616
  561MOL0     N77331   1.755   1.775   9.690  0.2255  0.1337  0.2413
  561MOL0     N77332   1.749   1.667   9.765 -0.0614  0.0485  0.0928
  561MOL0     C77333   1.047   1.381   9.369 -0.0736 -0.2119 -0.1182
  561MOL0     C77334   0.998   1.482   9.298 -0.7166  0.4639  0.1202
  561MOL0     C77335   0.913   1.793   8.977  0.2339  0.1117 -0.4501
  561MOL0     C77336   0.909   1.759   8.838  0.4387  0.6922 -0.1538
  561MOL0     C77337   0.925   1.843   8.732  0.5059  0.9388  0.3508
  561MOL0     C77338   0.938   1.982   8.758 -0.1881 -1.0937  0.1996
  561MOL0     O77339   0.918   2.077   8.655 -0.5666 -0.0361  0.0321
  561MOL0     C77340   1.045   2.139   8.624  0.8068  0.8376 -0.1192
  561MOL0     C77341   1.048   2.295   8.649  0.1558 -0.7547  0.6943
  561MOL0     C77342   1.147   2.380   8.557  0.6804  0.2174 -0.0985
  561MOL0     C77343   1.068   2.448   8.435 -0.6283 -0.7299 -0.1910
  561MOL0     C77344   0.987   2.350   8.367  0.3679  0.3380 -0.3805
  561MOL0     C77345   0.922   2.266   8.307 -0.1488 -0.2182  0.2139
  561MOL0     C77346   0.921   2.019   8.894  0.3024 -0.2994 -0.2087
  561MOL0     C77347   0.931   1.931   8.999  0.5409 -0.6193  0.1327
  561MOL0     C77348   0.930   2.009   9.129  0.1383  0.4887  0.8263
  561MOL0     H77349   1.062   1.369   8.981  1.2443  1.8728  0.5396
  561MOL0     H77350   1.143   1.169   9.129  1.4083  1.5204 -1.7315
  561MOL0     H77351   1.348   1.199   9.362 -1.9297  1.2300  0.7777
  561MOL0     H77352   1.266   1.078   9.268 -0.0889  1.1889  0.4620
  561MOL0     H77353   1.235   0.992   9.543  0.6775 -1.4620 -0.0518
  561MOL0     H77354   1.363   0.957   9.421  2.9639  1.2124  0.0379
  561MOL0     H77355   1.473   1.026   9.639  1.3993 -1.3078 -1.9726
  561MOL0     H77356   1.496   1.151   9.514 -2.3298 -0.2442 -2.6244
  561MOL0     H77357   1.333   1.304   9.618 -1.7923 -1.3975 -0.6609
  561MOL0     H77358   1.288   1.171   9.715  0.2694 -1.3216  0.6188
  561MOL0     H77359   1.508   1.162   9.835  1.4301  1.2471 -0.3163
  561MOL0     H77360   1.426   1.321   9.851 -1.6034 -2.3589  0.7008
  561MOL0     H77361   1.660   1.241   9.669  1.0061  0.6803 -0.2589
  561MOL0     H77362   1.561   1.368   9.636  1.6580 -4.2070 -3.9727
  561MOL0     H77363   1.717   1.327   9.907  1.1355  1.6789  0.7785
  561MOL0     H77364   1.625   1.468   9.868 -1.1061 -1.2900 -0.5240
  561MOL0     H77365   1.883   1.436   9.840 -0.5800 -1.9662  1.3609
  561MOL0     H77366   1.855   1.358   9.682  1.6151  0.0145  1.1432
  561MOL0     H77367   1.839   1.545   9.478 -0.8630 -1.8365  2.2500
  561MOL0     H77368   1.825   1.755   9.354  1.1610 -1.9222  0.4206
  561MOL0     H77369   1.925   1.868   9.455  0.7355  0.3134 -0.7279
  561MOL0     H77370   1.631   1.864   9.367  0.2657 -4.3510  2.3597
  561MOL0     H77371   1.685   1.966   9.502 -1.5637  0.9329 -1.3292
  561MOL0     H77372   1.884   2.052   9.333 -0.7856  1.3687  1.0418
  561MOL0     H77373   1.775   2.014   9.199 -2.2284  3.8881 -0.8706
  561MOL0     H77374   1.596   2.120   9.274  0.4276  0.4696 -2.5914
  561MOL0     H77375   1.684   2.172   9.425  0.0956 -3.4363  0.2733
  561MOL0     H77376   1.545   2.343   9.413 -1.6058  2.1468  1.0409
  561MOL0     H77377   1.439   2.616   9.541 -1.4879 -0.6826 -1.2624
  561MOL0     H77378   1.600   2.590   9.625 -0.8106  1.6959 -0.4809
  561MOL0     H77379   1.503   2.459   9.592 -0.3984  1.5124  0.2641
  561MOL0     H77380   1.910   3.067   9.282  0.3154  0.0055  0.7205
  561MOL0     H77381   1.948   3.287   9.373 -1.5510  1.4094  1.3707
  561MOL0     H77382   1.760   3.430   9.761  0.3286 -1.7267  3.3235
  561MOL0     H77383   1.883   3.314   9.816  1.1288 -0.5371 -0.4536
  561MOL0     H77384   1.929   3.526   9.907 -0.0415 -0.3018 -0.0170
  561MOL0     H77385   2.061   3.497   9.790 -0.2459 -1.0048  1.3149
  561MOL0     H77386   1.804   3.665   9.748 -0.1106 -0.0653 -0.8061
  561MOL0     H77387   1.914   3.649   9.626 -1.1103 -0.9808  0.5699
  561MOL0     H77388   2.101   3.765   9.753  0.7802  2.7310  0.6453
  561MOL0     H77389   1.980   3.786   9.885 -1.0098 -1.2695  0.0645
  561MOL0     H77390   1.921   3.893   9.597 -3.2891  0.1565  0.0871
  561MOL0     H77391   1.862   3.947   9.749  0.0248 -2.8983  1.2776
  561MOL0     H77392   2.028   4.109   9.639 -2.2756  0.1920  2.0159
  561MOL0     H77393   2.160   3.984   9.646  0.0093 -1.5649 -0.0753
  561MOL0     H77394   2.149   3.985   9.886  1.1314  2.0502  1.0550
  561MOL0     H77395   2.005   4.083   9.885 -0.6608 -4.8018  0.0981
  561MOL0     H77396   2.168   4.264   9.764  3.1179  1.0298 -0.7313
  561MOL0     H77397   2.305   4.158   9.799 -1.0697  3.1340 -2.3659
  561MOL0     H77398   1.744   3.166   9.739 -0.9942 -1.5909 -1.0866
  561MOL0     H77399   1.733   2.941   9.649 -1.0933  1.3387  0.3001
  561MOL0     H77400   1.784   2.711   9.184  0.0999 -0.3760 -0.3010
  561MOL0     H77401   1.833   2.490   9.122  0.0858 -0.2250 -0.2129
  561MOL0     H77402   1.054   1.397   9.476  3.2236  1.8285 -0.4952
  561MOL0     H77403   0.957   1.567   9.353  0.1426  0.4662  0.7755
  561MOL0     H77404   0.889   1.657   8.807  1.1789  0.6693 -0.5827
  561MOL0     H77405   0.931   1.805   8.631  2.5584  0.9732  0.4250
  561MOL0     H77406   1.126   2.100   8.687 -0.9369  0.7811  2.2430
  561MOL0     H77407   1.068   2.118   8.519  0.0959 -0.7971  0.0200
  561MOL0     H77408   1.080   2.301   8.754  1.3588  1.7260  0.2551
  561MOL0     H77409   0.946   2.333   8.639  0.1856 -0.4750  1.3627
  561MOL0     H77410   1.205   2.458   8.606  0.6535  0.2629 -0.1383
  561MOL0     H77411   1.213   2.309   8.507 -1.6858 -0.6609 -2.2151
  561MOL0     H77412   1.131   2.510   8.371 -0.9997  1.3237  1.3186
  561MOL0     H77413   0.998   2.523   8.475 -2.5394 -2.4710 -0.1300
  561MOL0     H77414   0.866   2.197   8.247 -2.1017  1.1377  0.3931
  561MOL0     H77415   0.920   2.126   8.912  2.7417 -0.4934  1.8307
  561MOL0     H77416   0.965   1.959   9.220  2.2765 -1.7086 -1.0234
  561MOL0     H77417   0.999   2.092   9.111 -0.7561  1.2367  0.7901
  561MOL0     H77418   0.832   2.039   9.165 -0.3526 -1.6455  1.3822
  562MOL0     O77419   4.011   0.414   9.393 -0.3097 -0.6116  0.6918
  562MOL0     C77420   4.063   0.337   9.465 -0.5359  0.3982  0.7163
  562MOL0     O77421   4.002   0.235   9.535  0.5187 -0.6359  0.6133
  562MOL0     C77422   3.862   0.251   9.540 -0.3630  1.2775 -0.7335
  562MOL0     C77423   3.805   0.341   9.636 -0.1672  0.2616 -0.8733
  562MOL0     C77424   3.663   0.336   9.657 -0.2271  1.0363  0.2203
  562MOL0     C77425   3.576   0.256   9.576  0.1752 -0.0599 -0.0124
  562MOL0     O77426   3.442   0.240   9.597  0.1858 -0.2398  0.4455
  562MOL0     C77427   3.378   0.349   9.676  0.9092  0.5244  0.5205
  562MOL0     C77428   3.227   0.313   9.699 -0.3899 -0.6108 -0.1878
  562MOL0     C77429   3.193   0.209   9.803  0.7631  0.3179  0.2047
  562MOL0     C77430   3.042   0.179   9.803  0.7536  0.0891 -0.3096
  562MOL0     C77431   3.009   0.050   9.878 -0.3573 -0.0084 -0.0908
  562MOL0     C77432   2.865   0.072   9.936 -0.3306 -0.1585 -0.3430
  562MOL0     C77433   2.779  -0.051   9.944 -0.9593  0.1161  1.2729
  562MOL0     C77434   2.658  -0.030  10.041  0.7007  0.2981  0.2565
  562MOL0     N77435   2.568  -0.152  10.042 -0.8000 -0.9035 -0.5123
  562MOL0     C77436   2.604  -0.263  10.104 -0.1417 -0.0768  0.4259
  562MOL0     C77437   2.508  -0.359  10.072 -0.0276  0.7408 -0.2778
  562MOL0     C77438   2.511  -0.511  10.103 -0.2792  0.0650  0.8399
  562MOL0     C77439   2.593  -0.599  10.011  0.7704  0.5812  0.4723
  562MOL0     C77440   2.536  -0.610   9.867 -0.1138 -0.6911 -0.6466
  562MOL0     C77441   2.590  -0.725   9.791 -0.3074  0.7096  0.6794
  562MOL0     O77442   2.599  -0.845   9.871 -0.3094 -0.7979 -0.0060
  562MOL0     C77443   2.714  -0.911   9.847  0.6668 -0.1238 -0.5704
  562MOL0     C77444   2.832  -0.865   9.915  0.6603  0.2556  0.1707
  562MOL0     C77445   2.957  -0.922   9.893  0.6249  0.0899  1.1717
  562MOL0     C77446   3.083  -0.876   9.962  0.0082 -0.6141 -0.2734
  562MOL0     C77447   2.961  -1.040   9.814  0.3694 -0.6532  0.2758
  562MOL0     C77448   3.082  -1.113   9.773 -0.2149 -0.6054 -0.7784
  562MOL0     O77449   3.130  -1.081   9.646 -0.0941 -0.1532  0.2632
  562MOL0     C77450   3.157  -1.177   9.557  1.1751 -0.3043 -0.9474
  562MOL0     C77451   3.251  -1.145   9.464  0.1719  0.3861 -0.0378
  562MOL0     C77452   3.295  -1.243   9.370 -0.3293 -0.3171  0.2643
  562MOL0     C77453   3.239  -1.378   9.375  0.5928 -0.1708  1.0032
  562MOL0     O77454   3.254  -1.469   9.266 -1.0703  0.0139  0.3094
  562MOL0     C77455   3.397  -1.471   9.220  0.5773  0.7597  0.4046
  562MOL0     C77456   3.448  -1.620   9.237  0.5107 -0.0969  0.7400
  562MOL0     C77457   3.451  -1.686   9.096 -0.2194  0.2647 -0.1356
  562MOL0     C77458   3.476  -1.840   9.110  0.1188 -0.5132 -0.5949
  562MOL0     C77459   3.518  -1.889   8.970 -0.0859  0.6230 -0.8090
  562MOL0     C77460   3.423  -1.851   8.863  0.6061 -0.9828  0.3187
  562MOL0     C77461   3.443  -1.934   8.738 -0.0868  0.1793 -0.3108
  562MOL0     C77462   3.584  -1.948   8.696 -0.1337  0.1480  0.7726
  562MOL0    Cl77463   3.591  -2.026   8.522 -0.3476 -0.2449 -0.0735
  562MOL0     C77464   3.142  -1.393   9.470  0.0875  1.1914 -0.1116
  562MOL0     C77465   3.100  -1.301   9.559 -0.0709  0.0235  0.0068
  562MOL0     O77466   3.112  -1.217   9.838 -0.8497  0.6400  0.5147
  562MOL0     C77467   2.850  -1.078   9.743  0.0129 -0.1479  0.1258
  562MOL0     C77468   2.723  -1.022   9.761 -0.0563 -0.5190 -0.2617
  562MOL0     N77469   2.421  -0.299   9.990 -0.0638  0.4653 -0.2322
  562MOL0     N77470   2.464  -0.178   9.969  0.0847 -0.4095  0.3476
  562MOL0     C77471   3.640   0.176   9.478  0.2035 -0.6934  0.5369
  562MOL0     C77472   3.781   0.166   9.468 -0.1323  0.0082  0.1229
  562MOL0     C77473   4.210   0.334   9.496 -0.1461  0.5676  0.4284
  562MOL0     C77474   4.260   0.267   9.609  0.2231 -0.2744  0.2852
  562MOL0     C77475   4.392   0.271   9.650 -0.4854  0.3232 -0.3775
  562MOL0     C77476   4.491   0.319   9.565  0.8304  0.6642 -0.3794
  562MOL0     O77477   4.630   0.296   9.600  0.5917  1.2731  0.7613
  562MOL0     C77478   4.732   0.348   9.513 -0.1026 -0.0652  0.1934
  562MOL0     C77479   4.760   0.497   9.548  0.0671  0.1503 -0.0915
  562MOL0     C77480   4.838   0.511   9.682 -0.7280  0.2613  0.5676
  562MOL0     C77481   4.831   0.655   9.725 -0.0249 -0.4147  0.7058
  562MOL0     C77482   4.927   0.742   9.649 -0.6495 -0.4532 -0.1025
  562MOL0     C77483   5.009   0.817   9.583 -0.1730 -0.1910  0.3260
  562MOL0     C77484   4.447   0.385   9.454  0.6052  0.5628  0.3388
  562MOL0     C77485   4.311   0.395   9.417  1.1308 -0.6291  0.4180
  562MOL0     C77486   4.265   0.477   9.303 -0.3757 -0.5906 -0.1681
  562MOL0     H77487   3.865   0.407   9.698 -0.1602  0.6692 -1.3102
  562MOL0     H77488   3.614   0.408   9.723 -1.7830  1.9815 -1.8504
  562MOL0     H77489   3.386   0.436   9.611  2.4612  1.0677  1.3977
  562MOL0     H77490   3.424   0.367   9.773 -0.6079  0.0820  1.3626
  562MOL0     H77491   3.172   0.404   9.723 -1.8621 -1.2896 -0.7992
  562MOL0     H77492   3.193   0.269   9.605  1.4058  0.4756 -1.3969
  562MOL0     H77493   3.241   0.117   9.768  3.5252  2.4734 -2.1569
  562MOL0     H77494   3.212   0.221   9.910 -2.4782 -3.6264  1.4728
  562MOL0     H77495   2.989   0.261   9.852 -0.8673 -1.7922  1.2720
  562MOL0     H77496   3.008   0.179   9.700  2.2191 -2.0332 -0.8659
  562MOL0     H77497   3.077   0.029   9.960  0.6025 -1.2330 -1.1578
  562MOL0     H77498   3.006  -0.033   9.807  0.0683 -0.9591  0.9711
  562MOL0     H77499   2.870   0.096  10.042 -0.7972 -0.2912 -0.2867
  562MOL0     H77500   2.813   0.148   9.876 -1.1833 -0.1244  0.4268
  562MOL0     H77501   2.838  -0.137   9.978  1.0655  0.8785 -0.1062
  562MOL0     H77502   2.743  -0.074   9.843 -3.4107 -0.6958  2.2597
  562MOL0     H77503   2.691  -0.012  10.144  2.3158 -0.8066 -0.0266
  562MOL0     H77504   2.604   0.061  10.015  1.2987  0.1497 -1.6561
  562MOL0     H77505   2.696  -0.276  10.160  1.3618  3.5164 -0.9193
  562MOL0     H77506   2.412  -0.557  10.105 -0.4498  0.4134  0.3847
  562MOL0     H77507   2.553  -0.531  10.202  0.3143 -1.5531  0.3008
  562MOL0     H77508   2.698  -0.569  10.007  1.0818 -0.5606 -1.6069
  562MOL0     H77509   2.604  -0.693  10.065 -3.1063 -0.2963  0.0187
  562MOL0     H77510   2.427  -0.607   9.862 -0.3508  0.0291  2.8131
  562MOL0     H77511   2.572  -0.521   9.813 -1.1482  1.7379  2.4073
  562MOL0     H77512   2.529  -0.755   9.705 -0.1894 -0.6738  1.0432
  562MOL0     H77513   2.693  -0.708   9.758 -0.5590 -0.5512 -0.8946
  562MOL0     H77514   2.813  -0.786   9.986 -4.7052  0.4555 -1.0928
  562MOL0     H77515   3.119  -0.961  10.021 -1.2395  0.4197  2.1440
  562MOL0     H77516   3.056  -0.802  10.037  4.6080 -0.0632  1.0986
  562MOL0     H77517   3.159  -0.831   9.898  0.2666  0.0696  0.5063
  562MOL0     H77518   3.301  -1.049   9.479 -1.1480  1.3586 -1.5085
  562MOL0     H77519   3.357  -1.220   9.284 -0.6821 -0.9038 -0.1546
  562MOL0     H77520   3.395  -1.437   9.116  1.0135 -2.7709 -0.8864
  562MOL0     H77521   3.466  -1.415   9.283  0.9047 -1.7576  2.4715
  562MOL0     H77522   3.548  -1.601   9.277  1.6230  0.7860 -2.1495
  562MOL0     H77523   3.382  -1.684   9.296 -2.4553  2.8219  0.8675
  562MOL0     H77524   3.528  -1.630   9.042  0.3086  0.1238  0.4604
  562MOL0     H77525   3.358  -1.675   9.040  0.9000 -0.9015 -2.3594
  562MOL0     H77526   3.387  -1.884   9.156  0.4725  0.6590  1.3291
  562MOL0     H77527   3.556  -1.860   9.182  0.2344 -2.6455 -1.2549
  562MOL0     H77528   3.612  -1.835   8.957 -0.4557  1.8284  1.0816
  562MOL0     H77529   3.535  -1.997   8.975  0.5577  0.7402 -0.2899
  562MOL0     H77530   3.447  -1.750   8.827  0.9916 -0.9221  0.7524
  562MOL0     H77531   3.320  -1.852   8.901  0.8658  3.8678  1.8350
  562MOL0     H77532   3.389  -1.898   8.650  2.0142 -0.4969 -1.9549
  562MOL0     H77533   3.405  -2.034   8.761  3.6933 -1.5758 -0.8947
  562MOL0     H77534   3.639  -2.006   8.772 -1.4582 -0.6034  1.1921
  562MOL0     H77535   3.631  -1.850   8.683 -0.6971  0.3773  0.4539
  562MOL0     H77536   3.076  -1.479   9.468  0.5641  0.8172  0.0400
  562MOL0     H77537   3.025  -1.314   9.636  1.4680  2.5040  2.1009
  562MOL0     H77538   2.857  -1.148   9.660 -0.0869 -0.8460  0.7008
  562MOL0     H77539   2.631  -1.051   9.712 -1.1023  0.5806  0.9553
  562MOL0     H77540   3.567   0.120   9.421 -0.3986  0.6950 -0.1050
  562MOL0     H77541   3.829   0.097   9.399  2.2929  1.4186  0.2633
  562MOL0     H77542   4.188   0.206   9.662  0.2738  0.6104  1.4128
  562MOL0     H77543   4.412   0.229   9.749 -1.3300  1.5686  0.3468
  562MOL0     H77544   4.824   0.291   9.527  0.4951  0.4019 -1.5640
  562MOL0     H77545   4.697   0.333   9.410 -1.3966  0.6850  0.4947
  562MOL0     H77546   4.664   0.548   9.559 -0.2001 -0.7094  1.8408
  562MOL0     H77547   4.818   0.547   9.469  0.1229  2.7791  1.4863
  562MOL0     H77548   4.789   0.452   9.760 -0.5440 -1.1251 -0.3263
  562MOL0     H77549   4.937   0.467   9.668 -0.2994  1.0926  0.9671
  562MOL0     H77550   4.838   0.670   9.834  4.8632  1.0423  0.4496
  562MOL0     H77551   4.733   0.696   9.698  0.8730  1.3116 -0.0668
  562MOL0     H77552   5.073   0.871   9.516  0.1626 -1.2789 -0.2561
  562MOL0     H77553   4.524   0.438   9.398  1.5935  2.3256  3.1691
  562MOL0     H77554   4.188   0.553   9.321  0.8275  1.5721 -3.2762
  562MOL0     H77555   4.350   0.538   9.272  0.9745 -1.3107  1.9271
  562MOL0     H77556   4.243   0.415   9.216 -1.4462  0.6046 -0.7722
  563MOL0     O77557   5.940   0.738   7.012 -0.1353 -1.1094 -0.5023
  563MOL0     C77558   5.854   0.824   7.054 -0.4733  0.1974 -0.0010
  563MOL0     O77559   5.723   0.795   7.078 -0.1013  0.3997  0.3005
  563MOL0     C77560   5.674   0.666   7.041  0.2279 -0.2434 -0.6388
  563MOL0     C77561   5.611   0.648   6.919  0.6782 -0.5761  0.0692
  563MOL0     C77562   5.569   0.519   6.881 -0.4977  0.0966  0.2678
  563MOL0     C77563   5.586   0.407   6.969  0.1201  0.0163 -0.0361
  563MOL0     O77564   5.538   0.284   6.937  0.2439  0.2825 -0.1419
  563MOL0     C77565   5.618   0.169   6.967 -0.0793  0.6682  0.2108
  563MOL0     C77566   5.543   0.067   6.884 -1.1241  1.3205  0.4707
  563MOL0     C77567   5.606  -0.073   6.921 -0.0144  0.7747  0.0491
  563MOL0     C77568   5.531  -0.182   6.835 -0.4495  0.2871  0.0201
  563MOL0     C77569   5.529  -0.333   6.892 -0.6159 -0.5660 -0.3710
  563MOL0     C77570   5.443  -0.425   6.817  0.3758 -0.4326  0.3256
  563MOL0     C77571   5.439  -0.576   6.862 -0.1279 -0.3817 -0.4738
  563MOL0     C77572   5.574  -0.647   6.822 -0.6901  0.2538 -0.1051
  563MOL0     N77573   5.567  -0.783   6.862  0.1372  0.3911 -0.3217
  563MOL0     C77574   5.531  -0.845   6.986 -0.5992 -0.7524  0.2005
  563MOL0     C77575   5.545  -0.980   6.968 -0.1827  0.0208  0.4825
  563MOL0     C77576   5.505  -1.086   7.065 -0.6125  0.2957 -0.1306
  563MOL0     C77577   5.353  -1.108   7.042  0.0868  0.1474 -0.1614
  563MOL0     C77578   5.336  -1.177   6.901 -0.1375 -0.7991 -0.2816
  563MOL0     C77579   5.366  -1.331   6.917 -0.0739  0.6104  0.4379
  563MOL0     O77580   5.287  -1.387   7.025 -0.2673 -0.1695  0.4973
  563MOL0     C77581   5.316  -1.519   7.059 -0.7584 -0.4098 -0.7045
  563MOL0     C77582   5.254  -1.570   7.165  0.1297  0.0726 -0.3051
  563MOL0     C77583   5.260  -1.705   7.207  0.7953 -0.2794 -0.7988
  563MOL0     C77584   5.192  -1.732   7.336  0.4342  0.3704 -0.1353
  563MOL0     C77585   5.349  -1.789   7.138  0.6894  0.6754 -0.2006
  563MOL0     C77586   5.372  -1.927   7.179 -0.2066 -0.4090 -0.5435
  563MOL0     O77587   5.320  -2.025   7.109 -0.2295 -0.2233  0.6680
  563MOL0     C77588   5.318  -2.159   7.144  0.2778 -0.7811 -0.7434
  563MOL0     C77589   5.274  -2.195   7.272 -0.4353 -1.0936  0.1763
  563MOL0     C77590   5.253  -2.332   7.294  0.7494  0.1805 -0.5721
  563MOL0     C77591   5.264  -2.428   7.195 -1.0269 -0.0156 -0.2578
  563MOL0     O77592   5.240  -2.558   7.210  0.4153  0.3804  0.5403
  563MOL0     C77593   5.297  -2.606   7.333  0.5856  0.1524  0.0703
  563MOL0     C77594   5.337  -2.758   7.341  0.3690  0.2655 -0.7864
  563MOL0     C77595   5.214  -2.863   7.339  0.3283 -0.9655  0.4970
  563MOL0     C77596   5.117  -2.840   7.448 -0.3948  1.1548 -0.0594
  563MOL0     C77597   5.033  -2.964   7.477  0.1935 -0.0402  0.1843
  563MOL0     C77598   4.929  -2.911   7.580  0.6079  0.5543  0.1573
  563MOL0     C77599   4.836  -3.028   7.641  0.1387 -0.2424 -0.1237
  563MOL0     C77600   4.721  -2.963   7.727 -1.1177  0.2709  0.0470
  563MOL0    Cl77601   4.613  -2.845   7.638  0.2861 -0.5144 -0.1065
  563MOL0     C77602   5.314  -2.384   7.069  0.9584  0.3115 -0.9226
  563MOL0     C77603   5.350  -2.252   7.050  0.0762 -0.5163  0.7562
  563MOL0     O77604   5.450  -1.938   7.270 -0.2314  0.2759 -0.9085
  563MOL0     C77605   5.424  -1.737   7.024  0.4042  1.1559 -0.5390
  563MOL0     C77606   5.409  -1.601   6.990 -0.2632 -0.3757  0.3975
  563MOL0     N77607   5.599  -1.000   6.844 -0.8997 -0.0208  0.0023
  563MOL0     N77608   5.613  -0.888   6.784  1.1986 -0.5329  0.7310
  563MOL0     C77609   5.630   0.434   7.098  0.0574  0.6644 -0.0253
  563MOL0     C77610   5.676   0.563   7.134  0.4099 -0.4032 -0.3030
  563MOL0     C77611   5.890   0.971   7.059 -0.9293 -0.0230 -0.1541
  563MOL0     C77612   5.786   1.070   7.093 -0.9752  0.0377  0.0801
  563MOL0     C77613   5.817   1.206   7.077  0.2863  0.3514  0.6665
  563MOL0     C77614   5.944   1.247   7.035  0.5374  0.4144  0.0597
  563MOL0     O77615   5.958   1.384   7.017 -0.4826 -0.1214 -0.4330
  563MOL0     C77616   6.071   1.438   6.939  0.5683  0.1277  0.1950
  563MOL0     C77617   6.049   1.579   6.899 -0.1880 -0.4485  0.1995
  563MOL0     C77618   6.064   1.679   7.018 -0.4658 -0.7995 -0.5886
  563MOL0     C77619   5.997   1.818   6.994 -0.9056 -0.2987 -0.2320
  563MOL0     C77620   6.086   1.910   6.920  1.3370  0.0911  0.3205
  563MOL0     C77621   6.145   1.990   6.849 -0.6167  0.2062 -0.2210
  563MOL0     C77622   6.046   1.156   7.009 -0.2329  0.2224  0.9392
  563MOL0     C77623   6.021   1.011   7.019  0.1628  0.0246 -0.3564
  563MOL0     C77624   6.144   0.922   6.982  0.1338 -0.9020 -0.2897
  563MOL0     H77625   5.602   0.729   6.847  3.2895 -0.9929 -0.8020
  563MOL0     H77626   5.518   0.509   6.786 -0.5585 -0.7363  0.3858
  563MOL0     H77627   5.615   0.152   7.075  0.6503  3.1444  0.6840
  563MOL0     H77628   5.719   0.179   6.925 -1.7314  3.0838 -3.8714
  563MOL0     H77629   5.437   0.062   6.909 -1.6902 -2.7850 -1.7912
  563MOL0     H77630   5.538   0.090   6.777  1.6220  0.7651  0.1397
  563MOL0     H77631   5.715  -0.079   6.921  0.2632  2.5322  3.7988
  563MOL0     H77632   5.574  -0.103   7.022 -1.1236 -1.6306 -0.9360
  563MOL0     H77633   5.423  -0.165   6.831 -0.3319  1.2712  0.7025
  563MOL0     H77634   5.565  -0.168   6.732  0.4147 -1.9156 -0.0441
  563MOL0     H77635   5.484  -0.332   6.991  0.2647 -1.9911  0.0851
  563MOL0     H77636   5.631  -0.373   6.902  0.3434  1.1952 -2.3255
  563MOL0     H77637   5.338  -0.393   6.816  0.0249 -1.5393  0.1356
  563MOL0     H77638   5.476  -0.434   6.713  1.3189 -0.3050  0.6141
  563MOL0     H77639   5.354  -0.625   6.814  0.5021  1.8422 -4.3558
  563MOL0     H77640   5.427  -0.582   6.970  2.1866  1.6187 -0.0184
  563MOL0     H77641   5.598  -0.630   6.717 -0.6849 -0.0155 -0.1480
  563MOL0     H77642   5.651  -0.601   6.884 -0.7441 -0.6878  0.7028
  563MOL0     H77643   5.487  -0.795   7.072  0.4596 -2.0486  1.5556
  563MOL0     H77644   5.512  -1.038   7.163 -3.1782 -2.1764  1.4170
  563MOL0     H77645   5.576  -1.169   7.066 -0.5517  0.3487 -0.0010
  563MOL0     H77646   5.303  -1.145   7.132  1.0909  1.3530  0.9367
  563MOL0     H77647   5.315  -1.006   7.029  0.6636  0.5778  1.2913
  563MOL0     H77648   5.230  -1.172   6.875 -0.2165 -1.6652 -0.1862
  563MOL0     H77649   5.389  -1.124   6.822  1.0867 -1.6911 -0.0826
  563MOL0     H77650   5.339  -1.367   6.818  2.3472 -0.9804  0.2560
  563MOL0     H77651   5.472  -1.350   6.938 -0.1879  0.0329  0.4939
  563MOL0     H77652   5.196  -1.496   7.220 -0.4347  1.0926 -2.1823
  563MOL0     H77653   5.181  -1.633   7.381 -0.5504 -0.5699  1.8242
  563MOL0     H77654   5.262  -1.791   7.396  0.5361 -0.0326 -0.6425
  563MOL0     H77655   5.102  -1.787   7.307  0.5024 -0.3485  0.9354
  563MOL0     H77656   5.258  -2.114   7.343  1.0579  1.3681 -2.1160
  563MOL0     H77657   5.203  -2.362   7.385 -0.3245 -2.2408 -1.8668
  563MOL0     H77658   5.384  -2.544   7.354  0.1827 -0.0984  2.8819
  563MOL0     H77659   5.234  -2.586   7.420 -1.5839  0.2305 -1.4430
  563MOL0     H77660   5.401  -2.783   7.256 -1.0681  0.3981 -1.9419
  563MOL0     H77661   5.394  -2.774   7.433 -0.4945  2.2632  0.1419
  563MOL0     H77662   5.251  -2.966   7.342  1.3081 -0.7302 -1.5872
  563MOL0     H77663   5.169  -2.861   7.240 -2.4023 -0.3357  1.6558
  563MOL0     H77664   5.052  -2.756   7.422 -0.4907  0.4810 -2.2184
  563MOL0     H77665   5.174  -2.812   7.536 -0.1373 -0.8547  0.4527
  563MOL0     H77666   4.981  -3.007   7.390  0.9198  0.3450 -0.4532
  563MOL0     H77667   5.103  -3.031   7.527 -0.3239  0.6158  1.8447
  563MOL0     H77668   4.855  -2.840   7.541 -2.4498 -1.4532  1.7938
  563MOL0     H77669   4.983  -2.872   7.666  0.0025  5.2331 -1.2860
  563MOL0     H77670   4.893  -3.106   7.692 -0.5094 -2.1480 -2.1944
  563MOL0     H77671   4.793  -3.084   7.558 -1.0752  0.8231 -0.2493
  563MOL0     H77672   4.759  -2.917   7.819 -2.3906 -0.7762  1.1406
  563MOL0     H77673   4.657  -3.041   7.769 -0.7979  1.4058  2.9214
  563MOL0     H77674   5.339  -2.452   6.988  2.3936 -2.4676  1.6493
  563MOL0     H77675   5.392  -2.214   6.958 -1.2846  0.3458  0.4717
  563MOL0     H77676   5.498  -1.797   6.972 -1.7264 -3.1387  0.9198
  563MOL0     H77677   5.461  -1.566   6.901 -1.0520 -2.6662 -1.0386
  563MOL0     H77678   5.623   0.351   7.168  0.8092  1.9888  1.6853
  563MOL0     H77679   5.715   0.585   7.232 -0.1350  2.3105 -0.6142
  563MOL0     H77680   5.687   1.036   7.120 -1.1208  0.2245 -0.2133
  563MOL0     H77681   5.747   1.287   7.095 -0.8426  0.0350 -1.8012
  563MOL0     H77682   6.172   1.422   6.977  1.1347  0.1043 -1.2413
  563MOL0     H77683   6.088   1.382   6.846 -0.1976  0.2025 -0.0055
  563MOL0     H77684   5.948   1.587   6.858 -0.7415 -1.4414  1.3219
  563MOL0     H77685   6.126   1.604   6.825  0.6239 -0.1965  1.1075
  563MOL0     H77686   6.009   1.634   7.101 -0.9779  0.4130 -0.2453
  563MOL0     H77687   6.164   1.694   7.061  0.0456 -0.7383 -1.7481
  563MOL0     H77688   5.993   1.855   7.097  1.2903 -1.7677  0.4505
  563MOL0     H77689   5.896   1.805   6.952 -0.9865 -5.7064  0.9997
  563MOL0     H77690   6.206   2.060   6.796 -1.7242  2.3134  1.1598
  563MOL0     H77691   6.143   1.187   6.972  1.0279 -1.8312  2.3802
  563MOL0     H77692   6.158   0.847   7.060  1.7963 -1.0702 -0.7027
  563MOL0     H77693   6.136   0.876   6.883 -2.9545 -1.8714  0.3081
  563MOL0     H77694   6.237   0.981   6.984  0.2337 -1.0299 -0.9408
  564MOL0     O77695   0.759   2.585   2.107  0.3757  0.0329 -0.0457
  564MOL0     C77696   0.642   2.589   2.147 -0.3762  0.2547 -0.9044
  564MOL0     O77697   0.534   2.539   2.081  0.0358  0.6090  0.0696
  564MOL0     C77698   0.556   2.479   1.955  0.5861  0.0961 -0.3307
  564MOL0     C77699   0.576   2.341   1.945 -0.8722  0.1445 -0.5449
  564MOL0     C77700   0.585   2.277   1.819  0.1647 -0.6594  0.0452
  564MOL0     C77701   0.565   2.355   1.704 -0.5207 -0.4625  0.2203
  564MOL0     O77702   0.573   2.304   1.577  0.0870  0.7572  0.1376
  564MOL0     C77703   0.605   2.166   1.564 -0.4344  0.5535 -0.0188
  564MOL0     C77704   0.612   2.116   1.421  0.7745 -0.1863  0.1647
  564MOL0     C77705   0.480   2.141   1.349  0.2263 -1.1653  0.8071
  564MOL0     C77706   0.464   2.043   1.224  0.1857  1.1951  0.0308
  564MOL0     C77707   0.544   2.055   1.089  0.4139  0.0467 -0.4415
  564MOL0     C77708   0.681   1.998   1.103 -0.9144 -0.4944  0.2572
  564MOL0     C77709   0.751   2.021   0.958 -0.3284 -0.0754 -0.7167
  564MOL0     C77710   0.886   1.940   0.945 -0.1925 -0.2374 -0.4497
  564MOL0     N77711   0.862   1.796   0.955 -0.5148 -0.2497  0.7716
  564MOL0     C77712   0.794   1.718   0.862  0.2543  0.7012 -0.3683
  564MOL0     C77713   0.855   1.593   0.868 -1.1437 -0.3544  0.0705
  564MOL0     C77714   0.832   1.467   0.780 -0.5584  0.8667  0.1633
  564MOL0     C77715   0.691   1.407   0.813  0.3589  0.7410  0.0620
  564MOL0     C77716   0.691   1.359   0.955  0.4734 -0.2427  0.3953
  564MOL0     C77717   0.553   1.289   0.986 -0.0018 -0.4663  0.0511
  564MOL0     O77718   0.554   1.259   1.122 -0.2152 -0.2452 -0.6510
  564MOL0     C77719   0.525   1.354   1.225 -1.2447 -0.2733 -0.0318
  564MOL0     C77720   0.631   1.444   1.262 -0.1927  0.1796 -0.5900
  564MOL0     C77721   0.594   1.557   1.346  0.5064 -0.1689  0.6028
  564MOL0     C77722   0.712   1.650   1.378  0.4036 -0.0751  0.3751
  564MOL0     C77723   0.460   1.586   1.386  1.1273  0.0481 -0.2199
  564MOL0     C77724   0.418   1.693   1.471  0.1326 -0.1400  0.8506
  564MOL0     O77725   0.288   1.687   1.521  0.3757 -0.5840 -0.2091
  564MOL0     C77726   0.239   1.793   1.586  0.5946 -0.9729 -0.1351
  564MOL0     C77727   0.195   1.911   1.521  0.1072 -0.6257 -0.3258
  564MOL0     C77728   0.148   2.023   1.585  0.4357  0.5919  0.6810
  564MOL0     C77729   0.153   2.024   1.725 -0.3117 -0.1422 -1.3707
  564MOL0     O77730   0.125   2.139   1.790  0.0232  0.0646  0.5645
  564MOL0     C77731   0.219   2.171   1.892 -0.3535 -0.0465 -0.3250
  564MOL0     C77732   0.245   2.311   1.889  0.3389  0.2121 -0.7460
  564MOL0     C77733   0.113   2.399   1.904 -0.2118 -0.5064 -0.1443
  564MOL0     C77734   0.156   2.539   1.954 -0.3818  0.9379 -0.0357
  564MOL0     C77735   0.031   2.613   2.018  0.1382  0.0747  0.9266
  564MOL0     C77736   0.075   2.715   2.105 -0.2298 -0.1055  0.0932
  564MOL0     C77737  -0.043   2.778   2.179  0.5961  0.4590 -0.5947
  564MOL0     C77738   0.004   2.862   2.296  0.5664 -0.0391 -0.7202
  564MOL0    Cl77739   0.057   3.015   2.234  0.6590  0.4926  0.2385
  564MOL0     C77740   0.191   1.899   1.790 -0.0288  0.2294  0.1490
  564MOL0     C77741   0.232   1.775   1.720  0.6352 -0.6407  0.3512
  564MOL0     O77742   0.496   1.779   1.512  0.7742  0.6994 -0.3793
  564MOL0     C77743   0.365   1.490   1.342  0.2710 -0.7384  0.1066
  564MOL0     C77744   0.400   1.378   1.269  0.5309  0.5924 -0.0765
  564MOL0     N77745   0.950   1.591   0.966 -0.2552 -0.6475 -0.4775
  564MOL0     N77746   0.960   1.713   1.013  0.1363 -0.6319 -0.2517
  564MOL0     C77747   0.539   2.495   1.715 -0.3464  0.8254  0.3310
  564MOL0     C77748   0.531   2.549   1.843  0.4259 -0.3873 -0.0842
  564MOL0     C77749   0.613   2.659   2.275  0.1826 -0.0077  0.3131
  564MOL0     C77750   0.485   2.710   2.287 -0.5800  0.3744 -0.1494
  564MOL0     C77751   0.461   2.802   2.388 -0.0602 -0.4019  0.1279
  564MOL0     C77752   0.550   2.801   2.502  0.2875 -0.4683  0.3640
  564MOL0     O77753   0.514   2.879   2.607  0.2080  0.3797  0.3604
  564MOL0     C77754   0.496   2.816   2.735 -0.6331  0.2584  0.0882
  564MOL0     C77755   0.368   2.866   2.810  0.6020 -0.6170 -0.6979
  564MOL0     C77756   0.384   2.829   2.960 -0.2157 -0.5802  0.1791
  564MOL0     C77757   0.269   2.877   3.047 -0.5901 -0.5175  0.2198
  564MOL0     C77758   0.291   3.008   3.099 -0.0028  0.1019 -0.1830
  564MOL0     C77759   0.319   3.120   3.147  0.8739  0.0273 -0.2872
  564MOL0     C77760   0.670   2.729   2.494  0.1630  0.2910  0.6115
  564MOL0     C77761   0.714   2.669   2.375 -0.2093 -0.2702  0.7770
  564MOL0     C77762   0.856   2.630   2.368  0.1805  0.3007 -0.8616
  564MOL0     H77763   0.580   2.270   2.026 -0.1469  0.5244 -0.2410
  564MOL0     H77764   0.609   2.172   1.814  0.9283 -0.4397 -1.4350
  564MOL0     H77765   0.540   2.106   1.629  0.1978  1.2599  1.2916
  564MOL0     H77766   0.703   2.152   1.610 -1.1904  2.5389  2.3759
  564MOL0     H77767   0.689   2.161   1.358  1.8060 -1.2471  0.6390
  564MOL0     H77768   0.640   2.010   1.411  3.6483  0.6774 -2.2395
  564MOL0     H77769   0.396   2.132   1.418 -1.6331 -1.1279 -1.3389
  564MOL0     H77770   0.485   2.245   1.315  0.0513 -1.5278 -0.3856
  564MOL0     H77771   0.470   1.943   1.268 -1.2665  0.8287 -0.5476
  564MOL0     H77772   0.360   2.058   1.193  0.0723  0.5364  0.0655
  564MOL0     H77773   0.553   2.161   1.065  0.3997 -0.2180 -1.6802
  564MOL0     H77774   0.490   1.997   1.013 -0.5219 -0.3972  0.5401
  564MOL0     H77775   0.732   2.045   1.187 -2.4755  0.0105  0.9544
  564MOL0     H77776   0.677   1.897   1.144 -0.9152  0.3568  2.5050
  564MOL0     H77777   0.768   2.127   0.938  0.6738 -0.2732 -0.9621
  564MOL0     H77778   0.680   1.986   0.882 -0.1143  3.0501 -2.5368
  564MOL0     H77779   0.931   1.971   0.851  1.7173  2.2052  1.1170
  564MOL0     H77780   0.940   1.967   1.036 -0.7497  0.8735 -0.4298
  564MOL0     H77781   0.727   1.737   0.779  1.5502 -2.1795 -2.2392
  564MOL0     H77782   0.912   1.394   0.790 -0.2763  0.8352 -1.8924
  564MOL0     H77783   0.828   1.495   0.674  0.3771  2.2928  0.4743
  564MOL0     H77784   0.616   1.486   0.805 -0.7786 -0.4348 -1.5612
  564MOL0     H77785   0.663   1.328   0.743  0.0217  1.6796 -0.8797
  564MOL0     H77786   0.767   1.282   0.969 -0.1496 -1.1535 -1.0665
  564MOL0     H77787   0.724   1.439   1.022 -3.2547  0.8800  1.0912
  564MOL0     H77788   0.461   1.337   0.952 -0.4629 -0.7183  0.9216
  564MOL0     H77789   0.537   1.193   0.936 -2.3101 -1.2285  2.0833
  564MOL0     H77790   0.734   1.421   1.236  0.7646 -1.2978  3.6834
  564MOL0     H77791   0.800   1.635   1.316 -0.3435 -0.1187 -0.7119
  564MOL0     H77792   0.748   1.619   1.476 -0.6444  0.7438  1.0403
  564MOL0     H77793   0.689   1.756   1.393 -3.1975 -0.6051 -0.3272
  564MOL0     H77794   0.203   1.904   1.413 -0.3310 -0.2481 -0.3855
  564MOL0     H77795   0.115   2.103   1.519  0.8470 -0.4634 -0.8491
  564MOL0     H77796   0.171   2.154   1.989  1.7647  0.3871  0.8527
  564MOL0     H77797   0.312   2.115   1.880  0.6106  1.2816  0.7167
  564MOL0     H77798   0.311   2.329   1.973 -0.0678  2.4498 -0.8193
  564MOL0     H77799   0.300   2.346   1.801 -0.4075  1.4343 -0.7614
  564MOL0     H77800   0.050   2.353   1.980  0.2171 -1.6499 -0.4616
  564MOL0     H77801   0.059   2.422   1.812  0.5027  0.7946 -0.2752
  564MOL0     H77802   0.182   2.598   1.865  0.6899 -0.1149 -0.4511
  564MOL0     H77803   0.243   2.531   2.019  0.9076  0.2683 -1.7491
  564MOL0     H77804  -0.022   2.644   1.927 -0.4328 -0.9688  0.8934
  564MOL0     H77805  -0.033   2.547   2.077  0.0465  2.3800  3.5991
  564MOL0     H77806   0.146   2.787   2.063  1.0732 -0.6524  1.3035
  564MOL0     H77807   0.141   2.673   2.180  0.6613  0.3426 -0.4224
  564MOL0     H77808  -0.102   2.690   2.209 -3.4563  1.3886 -4.7074
  564MOL0     H77809  -0.099   2.836   2.106  1.6687  0.8978 -1.0952
  564MOL0     H77810   0.100   2.818   2.324  0.5176 -1.3605 -2.4908
  564MOL0     H77811  -0.076   2.870   2.370  0.3294 -1.5184 -0.7984
  564MOL0     H77812   0.190   1.913   1.897 -1.0635 -3.1423  0.6797
  564MOL0     H77813   0.272   1.689   1.773 -0.1809 -0.1761  1.7973
  564MOL0     H77814   0.258   1.496   1.362  0.3601  0.5615  0.2465
  564MOL0     H77815   0.321   1.313   1.231 -1.3086  1.4311  2.0446
  564MOL0     H77816   0.531   2.564   1.632  1.1582 -0.3433 -0.8654
  564MOL0     H77817   0.516   2.655   1.858 -1.9798 -0.2654 -2.5360
  564MOL0     H77818   0.405   2.700   2.214 -1.3036 -1.4882  0.8247
  564MOL0     H77819   0.368   2.857   2.396 -1.3263 -2.5551  0.8710
  564MOL0     H77820   0.482   2.708   2.727  0.1284  0.1735 -0.1479
  564MOL0     H77821   0.581   2.857   2.791  0.6472 -0.3810 -1.3082
  564MOL0     H77822   0.275   2.827   2.767 -2.3725  2.7792  1.9467
  564MOL0     H77823   0.347   2.973   2.801 -0.6931 -0.8401 -0.5087
  564MOL0     H77824   0.409   2.722   2.957  1.6465 -0.1746 -0.6069
  564MOL0     H77825   0.478   2.868   3.000  0.2198 -3.2011  1.9415
  564MOL0     H77826   0.259   2.806   3.130 -0.9443  1.3296  1.8323
  564MOL0     H77827   0.176   2.883   2.990  0.1370 -2.8487 -1.3801
  564MOL0     H77828   0.335   3.219   3.185 -1.5323  0.2995  0.2023
  564MOL0     H77829   0.733   2.725   2.582 -0.9544  1.9361  1.5203
  564MOL0     H77830   0.898   2.669   2.275 -0.4969  1.4426 -0.7062
  564MOL0     H77831   0.912   2.661   2.457 -1.2961  1.4895 -0.2977
  564MOL0     H77832   0.855   2.521   2.377 -1.9146  0.4337  2.8612
  565MOL0     O77833   6.941  10.765   8.193  0.1688  0.1622  0.0645
  565MOL0     C77834   7.033  10.811   8.259 -0.3824  0.1906 -0.2950
  565MOL0     O77835   7.067  10.772   8.390 -0.5878 -0.4442 -0.2439
  565MOL0     C77836   7.009  10.663   8.449  0.4268 -0.4694 -0.9378
  565MOL0     C77837   6.981  10.669   8.587 -0.1736  0.1464 -0.3450
  565MOL0     C77838   6.943  10.556   8.661  0.1934  0.9422  0.5392
  565MOL0     C77839   6.916  10.432   8.594  0.4571 -0.5998 -0.6057
  565MOL0     O77840   6.877  10.318   8.652  0.9280  0.5918 -0.5353
  565MOL0     C77841   6.839  10.320   8.794  0.5157  0.0119 -0.8010
  565MOL0     C77842   6.961  10.295   8.872 -0.4162 -0.5613 -0.5563
  565MOL0     C77843   6.938  10.329   9.020  0.0961  0.0044 -0.4962
  565MOL0     C77844   6.865  10.459   9.042  0.6608  0.4440  0.1573
  565MOL0     C77845   6.880  10.502   9.191  0.0960  0.5173  0.1719
  565MOL0     C77846   6.763  10.587   9.244  0.0047  0.2878  1.2049
  565MOL0     C77847   6.763  10.737   9.199 -1.0718 -0.1481  0.2680
  565MOL0     C77848   6.632  10.799   9.251 -0.4252 -0.3661  0.0532
  565MOL0     N77849   6.616  10.948   9.229  0.2644  0.1034  0.7761
  565MOL0     C77850   6.716  11.038   9.261  0.0785  0.2371 -1.2130
  565MOL0     C77851   6.693  11.148   9.183 -0.1958  0.2723  0.0320
  565MOL0     C77852   6.781  11.268   9.175 -0.3724  0.2866 -0.0472
  565MOL0     C77853   6.857  11.245   9.044 -0.0369  0.3354  0.7219
  565MOL0     C77854   6.893  11.382   8.992  0.3702  0.5201  0.3817
  565MOL0     C77855   6.784  11.444   8.910  1.2783  0.3254  0.6524
  565MOL0     O77856   6.788  11.367   8.786 -0.1515 -0.9440 -0.3241
  565MOL0     C77857   6.695  11.389   8.704 -1.2982 -0.6963  0.1878
  565MOL0     C77858   6.706  11.492   8.603  0.1148 -0.1688  0.1885
  565MOL0     C77859   6.613  11.504   8.499  1.2555 -0.2563  0.7003
  565MOL0     C77860   6.642  11.622   8.407 -0.2300 -0.1464  0.3146
  565MOL0     C77861   6.511  11.414   8.476  0.0948 -0.6876 -0.1295
  565MOL0     C77862   6.412  11.432   8.372 -0.1721  1.2145  0.4649
  565MOL0     O77863   6.335  11.323   8.343 -0.0427  0.0782  0.0379
  565MOL0     C77864   6.241  11.321   8.241  0.1760  0.2876  0.1652
  565MOL0     C77865   6.262  11.308   8.106  0.2490  0.7373 -0.3647
  565MOL0     C77866   6.148  11.330   8.017  0.3021  0.0977  0.2856
  565MOL0     C77867   6.025  11.339   8.065  0.7858 -0.0381  0.0227
  565MOL0     O77868   5.913  11.354   7.985 -0.3353  0.3115 -0.5582
  565MOL0     C77869   5.940  11.380   7.847  0.8761 -0.2738  0.0641
  565MOL0     C77870   5.810  11.440   7.784 -0.2592  0.6990 -0.1560
  565MOL0     C77871   5.716  11.326   7.756 -0.1430  0.7363  0.0203
  565MOL0     C77872   5.608  11.364   7.657  0.4901  0.5584 -0.3600
  565MOL0     C77873   5.515  11.244   7.620  0.2245  0.6695 -0.8083
  565MOL0     C77874   5.379  11.284   7.631  0.0126 -0.2030  0.1121
  565MOL0     C77875   5.265  11.181   7.608 -0.1188 -0.3653 -0.3136
  565MOL0     C77876   5.136  11.271   7.614  0.0923 -0.7375  0.1369
  565MOL0    Cl77877   5.103  11.401   7.496 -0.1933  0.3133  0.0251
  565MOL0     C77878   6.006  11.336   8.203  0.7553 -0.2561 -0.4206
  565MOL0     C77879   6.113  11.345   8.291 -0.3450  0.0545 -1.0508
  565MOL0     O77880   6.392  11.546   8.327 -0.4914  0.1960 -1.0650
  565MOL0     C77881   6.494  11.320   8.573  0.5895 -0.0748 -0.5739
  565MOL0     C77882   6.585  11.303   8.680  0.1106 -0.1740  0.2923
  565MOL0     N77883   6.581  11.129   9.109  0.1224 -0.1171  0.2120
  565MOL0     N77884   6.537  11.008   9.142 -0.4408 -0.3521  0.4846
  565MOL0     C77885   6.917  10.438   8.455 -0.3091 -0.6378 -0.1700
  565MOL0     C77886   6.973  10.540   8.381  0.3541  0.0941  0.0093
  565MOL0     C77887   7.116  10.932   8.208  0.3732 -0.7705  0.7258
  565MOL0     C77888   7.145  11.050   8.283 -0.4705 -0.2478  0.5502
  565MOL0     C77889   7.226  11.156   8.233  0.2399 -0.5402  0.0972
  565MOL0     C77890   7.291  11.150   8.111 -0.1427 -0.3653 -0.0875
  565MOL0     O77891   7.366  11.241   8.050  0.5202 -0.4037  0.1569
  565MOL0     C77892   7.416  11.353   8.113  1.1423 -0.3123 -0.2316
  565MOL0     C77893   7.515  11.328   8.224  0.7078  0.1759  0.2876
  565MOL0     C77894   7.588  11.456   8.277 -0.5563  0.5256 -0.8750
  565MOL0     C77895   7.664  11.533   8.164  0.3457  0.2383 -0.6161
  565MOL0     C77896   7.751  11.440   8.080  0.1096  0.6173 -0.2957
  565MOL0     C77897   7.830  11.379   8.010  0.3804  0.3393 -0.1190
  565MOL0     C77898   7.267  11.032   8.038 -0.4564 -0.5211 -0.3233
  565MOL0     C77899   7.181  10.927   8.077  0.0421 -0.3846 -0.0553
  565MOL0     C77900   7.172  10.816   7.971  1.0092 -1.0658  0.2691
  565MOL0     H77901   6.995  10.755   8.652 -1.0181 -0.2698  0.4189
  565MOL0     H77902   6.931  10.564   8.768  0.5115 -0.7411  0.7222
  565MOL0     H77903   6.766  10.242   8.820  2.6469 -2.2538 -1.1937
  565MOL0     H77904   6.795  10.419   8.803  0.4353 -0.1051  0.1430
  565MOL0     H77905   7.001  10.194   8.864 -3.9036 -1.9626 -2.0124
  565MOL0     H77906   7.041  10.360   8.833  0.2270 -1.6552 -1.0970
  565MOL0     H77907   6.890  10.241   9.064  3.0700 -1.1243  0.7471
  565MOL0     H77908   7.038  10.340   9.063  0.9378  0.3483 -2.4180
  565MOL0     H77909   6.916  10.542   8.992 -1.1586  0.6698 -1.4124
  565MOL0     H77910   6.763  10.460   9.004  0.0484 -2.9794  1.4206
  565MOL0     H77911   6.974  10.552   9.216 -0.4813  0.6377  2.2687
  565MOL0     H77912   6.879  10.412   9.252  1.7941 -0.6095 -1.3679
  565MOL0     H77913   6.670  10.532   9.230  0.4190 -0.4948  1.4918
  565MOL0     H77914   6.770  10.596   9.353  0.0169 -2.4515  1.4809
  565MOL0     H77915   6.768  10.741   9.090 -2.4351 -1.9789  0.0878
  565MOL0     H77916   6.849  10.789   9.244 -2.6491  2.0222  0.9439
  565MOL0     H77917   6.547  10.749   9.204 -0.8980  1.6222 -1.3261
  565MOL0     H77918   6.612  10.782   9.357 -0.4945 -0.1644  0.0722
  565MOL0     H77919   6.799  11.015   9.328 -1.4851  3.2563  2.0634
  565MOL0     H77920   6.847  11.263   9.262 -1.2727 -1.0229  0.5948
  565MOL0     H77921   6.736  11.368   9.179  0.5108  0.6552  1.5848
  565MOL0     H77922   6.948  11.190   9.067  0.3815  1.3066  1.4406
  565MOL0     H77923   6.805  11.183   8.971  0.6011  0.9122 -0.2458
  565MOL0     H77924   6.914  11.455   9.071  0.3157  1.2168 -0.2316
  565MOL0     H77925   6.982  11.374   8.928  0.8460  3.5729  0.4972
  565MOL0     H77926   6.691  11.440   8.968 -0.1913 -2.5010 -1.6758
  565MOL0     H77927   6.812  11.548   8.889  1.0874 -0.1569 -2.4685
  565MOL0     H77928   6.796  11.552   8.615  1.1480 -2.0522  2.7541
  565MOL0     H77929   6.564  11.699   8.409  0.8773  1.0058  0.2458
  565MOL0     H77930   6.663  11.588   8.305 -1.2513 -0.3305  0.1545
  565MOL0     H77931   6.735  11.674   8.432 -1.0572 -0.3429  4.4039
  565MOL0     H77932   6.364  11.307   8.069  0.8023 -2.5762  0.8866
  565MOL0     H77933   6.179  11.332   7.913  3.9426  0.9844  1.2647
  565MOL0     H77934   6.025  11.449   7.847  2.5320 -2.0167  3.6956
  565MOL0     H77935   5.971  11.286   7.801 -0.5227 -0.8796  0.2893
  565MOL0     H77936   5.761  11.517   7.844  0.5295  1.1231 -0.0316
  565MOL0     H77937   5.848  11.492   7.695  4.6501  2.2404  2.4424
  565MOL0     H77938   5.673  11.294   7.851  0.0832  1.9678  0.5566
  565MOL0     H77939   5.758  11.239   7.705 -2.9569 -0.2143 -0.9053
  565MOL0     H77940   5.661  11.397   7.567 -2.0799  1.3200 -1.6979
  565MOL0     H77941   5.547  11.445   7.698 -1.2878 -0.8115 -0.1363
  565MOL0     H77942   5.536  11.208   7.519  0.0231 -1.2393 -0.1973
  565MOL0     H77943   5.537  11.156   7.681  1.4511  1.9292  0.7013
  565MOL0     H77944   5.364  11.363   7.557 -0.4129 -0.2097  0.1863
  565MOL0     H77945   5.371  11.330   7.731  0.3831 -1.9572  0.9821
  565MOL0     H77946   5.267  11.110   7.691 -2.8687 -2.5033 -1.8954
  565MOL0     H77947   5.278  11.123   7.517 -3.3227  0.4951 -1.4776
  565MOL0     H77948   5.134  11.328   7.707  0.0301 -2.3815  1.1858
  565MOL0     H77949   5.054  11.198   7.612  1.4238 -2.2707 -1.5948
  565MOL0     H77950   5.905  11.354   8.240  1.4186  2.0582  0.4058
  565MOL0     H77951   6.102  11.359   8.398  1.1222 -1.5390 -0.6352
  565MOL0     H77952   6.405  11.258   8.571 -0.3217  1.2112 -2.3508
  565MOL0     H77953   6.581  11.219   8.749  0.4841 -1.1629 -0.8430
  565MOL0     H77954   6.898  10.342   8.408 -1.4933 -0.8712  0.7439
  565MOL0     H77955   6.979  10.519   8.275  1.3552 -3.8451  0.6669
  565MOL0     H77956   7.103  11.062   8.382 -3.3198  1.6302 -0.7730
  565MOL0     H77957   7.238  11.247   8.292  0.5379 -0.8132  0.4601
  565MOL0     H77958   7.460  11.420   8.039  0.4060  0.3822 -0.0583
  565MOL0     H77959   7.333  11.407   8.160  1.6585  1.4419 -1.2578
  565MOL0     H77960   7.584  11.248   8.194 -0.2400 -2.0128  3.3896
  565MOL0     H77961   7.476  11.286   8.317 -3.3523  3.6474  0.4170
  565MOL0     H77962   7.511  11.520   8.321  0.5945  2.2073 -1.2327
  565MOL0     H77963   7.654  11.419   8.356  1.0997 -0.1748 -2.5145
  565MOL0     H77964   7.723  11.619   8.194  0.4539  0.4084 -1.2833
  565MOL0     H77965   7.585  11.585   8.108 -0.2708 -1.4413 -1.4005
  565MOL0     H77966   7.899  11.314   7.960 -4.0883 -3.7148 -1.8799
  565MOL0     H77967   7.311  11.028   7.939 -0.5199  1.8963 -0.5182
  565MOL0     H77968   7.266  10.764   7.954  2.3009  1.3559 -0.5181
  565MOL0     H77969   7.083  10.756   7.993 -1.3918  1.7278 -1.0914
  565MOL0     H77970   7.135  10.857   7.876 -1.9488  1.5004  2.2782
  566MOL0     O77971   8.087   9.269   6.531  0.0429 -0.3375 -0.0804
  566MOL0     C77972   8.045   9.318   6.426  1.0877  0.8600 -0.3781
  566MOL0     O77973   7.974   9.431   6.410 -0.2652 -0.4102 -0.5140
  566MOL0     C77974   7.941   9.528   6.504 -0.4985  1.3524  0.4943
  566MOL0     C77975   7.827   9.595   6.476  0.0593  0.4193  1.1869
  566MOL0     C77976   7.776   9.683   6.562 -0.1406 -0.0671  0.0442
  566MOL0     C77977   7.857   9.731   6.671  0.0866  0.4892  0.2118
  566MOL0     O77978   7.827   9.843   6.751 -0.2227 -0.2329 -0.1839
  566MOL0     C77979   7.724   9.929   6.710  0.0925 -0.1754 -1.2754
  566MOL0     C77980   7.767  10.014   6.594  0.0374  0.7399  0.1655
  566MOL0     C77981   7.882  10.094   6.632  0.7859 -0.9162 -0.2238
  566MOL0     C77982   7.884  10.227   6.549  0.3424 -0.6912  0.7268
  566MOL0     C77983   7.988  10.335   6.615  0.3413  0.0297  0.0989
  566MOL0     C77984   7.988  10.463   6.527 -0.6538  0.6525 -0.1893
  566MOL0     C77985   8.092  10.565   6.571  0.2957 -0.4093  0.0680
  566MOL0     C77986   8.091  10.679   6.469  0.9212  0.4759 -0.1398
  566MOL0     N77987   8.197  10.776   6.485 -0.0001 -0.6627 -0.9130
  566MOL0     C77988   8.231  10.838   6.604 -0.2286 -1.1259 -0.2231
  566MOL0     C77989   8.307  10.947   6.566 -0.4022  1.1010  1.0299
  566MOL0     C77990   8.356  11.048   6.662 -0.0982  0.2106 -0.1846
  566MOL0     C77991   8.507  11.029   6.709  0.4740  0.6457  0.1220
  566MOL0     C77992   8.537  11.104   6.846  0.4480  0.6292  0.1391
  566MOL0     C77993   8.610  11.243   6.839  0.2771  0.3810  0.2862
  566MOL0     O77994   8.631  11.304   6.966  0.4188  0.0651  0.6252
  566MOL0     C77995   8.693  11.426   6.976  0.0319  0.2861 -0.7713
  566MOL0     C77996   8.709  11.468   7.101 -0.4608  0.0473  0.2115
  566MOL0     C77997   8.774  11.589   7.128 -0.3940  0.1788  0.8899
  566MOL0     C77998   8.810  11.629   7.267 -0.5753  0.8079 -0.0982
  566MOL0     C77999   8.821  11.667   7.020  0.5198 -0.6655 -0.3983
  566MOL0     C78000   8.876  11.800   7.026 -0.9013 -0.7687 -0.1119
  566MOL0     O78001   8.845  11.884   7.123 -0.9260 -0.6211  0.2589
  566MOL0     C78002   8.932  11.990   7.154  0.6120 -0.1386  0.8426
  566MOL0     C78003   9.060  11.960   7.194 -0.3971 -0.0014 -0.3046
  566MOL0     C78004   9.123  12.051   7.279 -1.1414  0.4689 -0.5912
  566MOL0     C78005   9.066  12.166   7.323 -0.5750 -0.2767 -0.3749
  566MOL0     O78006   9.139  12.249   7.404  0.1117 -0.4891  0.1356
  566MOL0     C78007   9.079  12.362   7.468 -1.0457  0.2636  0.3223
  566MOL0     C78008   9.185  12.399   7.564  0.1343  0.2018  0.3443
  566MOL0     C78009   9.151  12.537   7.633 -0.0195 -0.3114 -0.3879
  566MOL0     C78010   9.272  12.617   7.687  0.7775  0.3579 -0.4123
  566MOL0     C78011   9.237  12.764   7.707 -0.7143 -0.4782 -0.3506
  566MOL0     C78012   9.350  12.842   7.779  0.3903  0.1523 -0.0970
  566MOL0     C78013   9.311  12.977   7.824  0.2541  0.1335  0.5525
  566MOL0     C78014   9.434  13.062   7.857 -0.3093 -0.3756  0.0429
  566MOL0    Cl78015   9.390  13.213   7.925 -0.0402  0.5403 -0.1962
  566MOL0     C78016   8.938  12.198   7.271 -0.3916 -0.1560  0.7446
  566MOL0     C78017   8.865  12.116   7.182  0.4017 -0.3952 -0.2110
  566MOL0     O78018   8.947  11.831   6.933 -0.1493 -0.5928 -0.2963
  566MOL0     C78019   8.815  11.615   6.889 -0.0536  0.2768  0.6354
  566MOL0     C78020   8.741  11.501   6.870 -0.5476 -0.1221  0.3920
  566MOL0     N78021   8.323  10.935   6.430  0.2575 -0.0341  0.0947
  566MOL0     N78022   8.266  10.831   6.387  0.1158  0.1786  0.0719
  566MOL0     C78023   7.974   9.662   6.694 -0.7001  0.2823 -0.9471
  566MOL0     C78024   8.018   9.554   6.616 -0.2699 -0.4156  0.8137
  566MOL0     C78025   8.078   9.240   6.300  0.7220  0.0354  1.2190
  566MOL0     C78026   8.059   9.099   6.296  0.5035  0.0719  0.1909
  566MOL0     C78027   8.095   9.026   6.174 -0.4335  0.0895  0.2788
  566MOL0     C78028   8.154   9.084   6.068 -0.4667 -0.5110 -0.2399
  566MOL0     O78029   8.178   9.011   5.958 -0.0984 -0.0917 -0.1851
  566MOL0     C78030   8.185   9.076   5.831  0.4755  1.0028  0.5411
  566MOL0     C78031   8.194   8.977   5.719 -0.0256 -0.8859  0.0089
  566MOL0     C78032   8.196   9.051   5.578  0.3269  0.8595  1.8488
  566MOL0     C78033   8.165   8.955   5.462  0.5601 -0.1504 -0.7002
  566MOL0     C78034   8.245   8.837   5.462 -0.6145  0.0582 -0.1639
  566MOL0     C78035   8.313   8.737   5.439  0.0112  0.2607 -0.1491
  566MOL0     C78036   8.177   9.221   6.080  0.3338  0.3244  0.2126
  566MOL0     C78037   8.144   9.301   6.194 -1.4641  0.7586 -0.3322
  566MOL0     C78038   8.195   9.446   6.216 -0.0947  0.3001  0.2527
  566MOL0     H78039   7.771   9.571   6.386  0.6256  1.0715  0.6519
  566MOL0     H78040   7.678   9.726   6.549 -0.2320  0.1867  1.4333
  566MOL0     H78041   7.702   9.987   6.800 -1.2636  1.0817 -2.3565
  566MOL0     H78042   7.630   9.883   6.678 -1.0134  0.6978  0.5396
  566MOL0     H78043   7.787   9.950   6.508 -1.7666 -1.2929  1.1479
  566MOL0     H78044   7.679  10.076   6.573 -3.3013 -3.3726  0.6305
  566MOL0     H78045   7.869  10.130   6.734 -0.6067 -1.1297 -0.3076
  566MOL0     H78046   7.971  10.034   6.614  1.5597  0.7581 -2.4145
  566MOL0     H78047   7.908  10.207   6.445 -3.2088  1.1208 -0.6055
  566MOL0     H78048   7.780  10.261   6.548  0.8966  1.1083 -0.7256
  566MOL0     H78049   8.089  10.297   6.632  1.0337  1.8317  0.1912
  566MOL0     H78050   7.941  10.357   6.711 -1.5612 -2.9009 -0.0258
  566MOL0     H78051   8.010  10.435   6.424 -0.4494 -0.4035  0.1300
  566MOL0     H78052   7.889  10.509   6.534 -1.1736 -0.3150 -0.9877
  566MOL0     H78053   8.191  10.519   6.584  2.4194  2.6084 -3.3887
  566MOL0     H78054   8.057  10.611   6.664  0.7451 -2.2203  1.1753
  566MOL0     H78055   8.091  10.627   6.372 -0.4002 -1.5650  0.8774
  566MOL0     H78056   7.996  10.734   6.467  1.4036  1.3024 -1.3916
  566MOL0     H78057   8.190  10.825   6.703 -1.8911 -2.1425 -1.0082
  566MOL0     H78058   8.295  11.042   6.753 -1.3958 -1.2634 -1.1114
  566MOL0     H78059   8.354  11.151   6.626 -0.5217  1.5229  3.2284
  566MOL0     H78060   8.525  10.922   6.727 -0.7092  0.0552 -1.8853
  566MOL0     H78061   8.572  11.072   6.633  1.8811 -0.2931  0.7492
  566MOL0     H78062   8.438  11.132   6.884 -1.4643 -1.9338 -2.5477
  566MOL0     H78063   8.586  11.034   6.915  1.6313 -2.8504 -3.8219
  566MOL0     H78064   8.708  11.227   6.792 -0.8200  1.1045 -2.4055
  566MOL0     H78065   8.549  11.304   6.772 -0.5538 -2.3971 -1.6589
  566MOL0     H78066   8.678  11.412   7.188 -0.4869  0.5739  0.5428
  566MOL0     H78067   8.784  11.727   7.308  1.0800  0.8788  0.8644
  566MOL0     H78068   8.919  11.629   7.257 -0.6630 -0.0273 -1.1890
  566MOL0     H78069   8.764  11.552   7.330 -1.1079  0.3526 -1.0264
  566MOL0     H78070   9.105  11.882   7.134  1.0957  0.0565  0.6732
  566MOL0     H78071   9.230  12.041   7.294 -1.1846 -0.4570 -0.8469
  566MOL0     H78072   9.069  12.448   7.401  1.3839  0.9403  0.7484
  566MOL0     H78073   8.985  12.338   7.519 -2.2296  2.0111 -0.8958
  566MOL0     H78074   9.190  12.320   7.640  0.1309  2.0561  2.3948
  566MOL0     H78075   9.282  12.404   7.514  1.2598 -2.5127  2.0225
  566MOL0     H78076   9.087  12.516   7.719 -1.8570 -1.4388 -1.9384
  566MOL0     H78077   9.092  12.604   7.569 -1.3293  0.7163  1.7807
  566MOL0     H78078   9.356  12.594   7.621  1.0057  2.1376 -0.8077
  566MOL0     H78079   9.299  12.569   7.781 -2.2331  2.0267  1.4829
  566MOL0     H78080   9.201  12.807   7.613 -3.2812  0.1656  0.8284
  566MOL0     H78081   9.154  12.769   7.778 -2.2318  2.0854 -2.1441
  566MOL0     H78082   9.435  12.848   7.709  0.2659 -3.6848 -0.8085
  566MOL0     H78083   9.380  12.790   7.871 -2.2355 -2.6668 -0.6535
  566MOL0     H78084   9.238  12.968   7.906 -2.0874  1.2276 -1.2990
  566MOL0     H78085   9.259  13.042   7.753  1.8123  1.3203  0.4284
  566MOL0     H78086   9.488  13.068   7.762  0.6545 -0.4515  0.5675
  566MOL0     H78087   9.493  13.016   7.937 -1.4846  1.1890  1.8975
  566MOL0     H78088   8.893  12.293   7.296  0.2519 -0.1063  1.7746
  566MOL0     H78089   8.758  12.129   7.172  0.6248  0.9355 -1.0638
  566MOL0     H78090   8.849  11.661   6.797  2.2798  0.5256  1.5569
  566MOL0     H78091   8.729  11.462   6.769 -2.0745  1.2925 -0.0159
  566MOL0     H78092   8.042   9.687   6.775 -0.1754  1.0319 -1.6153
  566MOL0     H78093   8.108   9.496   6.634  0.7376  1.0508  0.6631
  566MOL0     H78094   8.002   9.046   6.372  0.8250 -2.9211 -1.5067
  566MOL0     H78095   8.056   8.924   6.171  1.6330 -0.7400 -0.1482
  566MOL0     H78096   8.093   9.133   5.818 -1.2968 -2.2376 -4.0822
  566MOL0     H78097   8.281   9.129   5.827  0.6017  0.9532  2.2482
  566MOL0     H78098   8.118   8.898   5.721  1.3397 -2.3090 -1.1503
  566MOL0     H78099   8.286   8.919   5.717 -0.1454 -1.0582 -0.9720
  566MOL0     H78100   8.119   9.129   5.575  0.3850  0.8960 -0.4566
  566MOL0     H78101   8.287   9.101   5.545 -0.8865  0.9591 -1.7637
  566MOL0     H78102   8.164   9.001   5.362 -1.9206  1.5003 -0.0041
  566MOL0     H78103   8.067   8.912   5.485  1.8298 -3.4543 -0.8298
  566MOL0     H78104   8.381   8.657   5.414 -0.8476 -0.2578 -0.8532
  566MOL0     H78105   8.215   9.265   5.988  1.0368 -0.7991 -0.0575
  566MOL0     H78106   8.277   9.472   6.149  2.9361 -2.6692  2.4279
  566MOL0     H78107   8.115   9.520   6.222 -1.1250 -0.7153 -0.6650
  566MOL0     H78108   8.245   9.448   6.314  0.4687 -1.8486  0.0586
  567MOL0     O78109   0.590   2.142   6.013  0.1414  0.6059 -0.6498
  567MOL0     C78110   0.617   2.102   5.901 -0.0387 -0.0422 -0.6790
  567MOL0     O78111   0.688   1.986   5.875 -0.1235 -0.9236 -0.6113
  567MOL0     C78112   0.729   1.897   5.973  0.6149 -0.7302  0.4817
  567MOL0     C78113   0.779   1.941   6.095  0.8241  0.2216  0.0827
  567MOL0     C78114   0.797   1.847   6.196 -1.0062 -0.4514 -0.1251
  567MOL0     C78115   0.765   1.708   6.170 -1.0170 -0.5231  1.3027
  567MOL0     O78116   0.791   1.610   6.256 -0.3770  0.7190 -0.0202
  567MOL0     C78117   0.839   1.653   6.381 -0.6709  0.3406 -1.1463
  567MOL0     C78118   0.845   1.531   6.478 -0.1765  0.4126 -0.1308
  567MOL0     C78119   0.880   1.597   6.614 -0.1798  0.1654 -0.0520
  567MOL0     C78120   0.825   1.492   6.719 -0.3703 -0.1942  0.3475
  567MOL0     C78121   0.847   1.551   6.856 -0.8455  1.0779 -0.4375
  567MOL0     C78122   0.786   1.452   6.954  0.3498  0.0386 -0.1159
  567MOL0     C78123   0.781   1.504   7.102  0.1301  0.2655 -0.1961
  567MOL0     C78124   0.710   1.396   7.184  0.2439 -0.8360 -1.6292
  567MOL0     N78125   0.712   1.417   7.329 -0.1181  0.0723  0.4335
  567MOL0     C78126   0.623   1.478   7.413 -0.6095  0.0547 -0.4718
  567MOL0     C78127   0.664   1.437   7.534 -1.1155 -0.2262  0.2864
  567MOL0     C78128   0.566   1.445   7.643  0.4575 -0.1685 -0.1517
  567MOL0     C78129   0.575   1.323   7.731  0.4049  0.2147 -0.7007
  567MOL0     C78130   0.474   1.308   7.850  0.3928  0.8239  0.9423
  567MOL0     C78131   0.539   1.230   7.964  0.5161 -0.5196  0.0061
  567MOL0     O78132   0.437   1.207   8.067  0.7945  0.2774 -0.3326
  567MOL0     C78133   0.467   1.106   8.151  0.3428 -0.0867 -0.3181
  567MOL0     C78134   0.590   1.051   8.178 -1.0047 -0.2630 -0.3759
  567MOL0     C78135   0.613   0.942   8.258  0.0159  0.0162 -0.1612
  567MOL0     C78136   0.749   0.911   8.297 -1.0159  0.4056  1.3558
  567MOL0     C78137   0.504   0.866   8.305 -0.0741  0.0640 -0.0479
  567MOL0     C78138   0.504   0.754   8.401 -1.4145 -1.2212 -0.2946
  567MOL0     O78139   0.384   0.704   8.448  0.5023 -0.0479  0.6940
  567MOL0     C78140   0.377   0.602   8.529  0.3793  0.0071 -0.3708
  567MOL0     C78141   0.437   0.594   8.659  0.7705  0.6073 -0.5468
  567MOL0     C78142   0.409   0.483   8.743 -0.4446  0.0667 -0.3552
  567MOL0     C78143   0.337   0.369   8.701 -0.5500 -0.9183 -0.2318
  567MOL0     O78144   0.331   0.261   8.791 -0.8319 -0.0062  0.6152
  567MOL0     C78145   0.226   0.170   8.763  0.1810  0.4308 -0.2406
  567MOL0     C78146   0.238   0.067   8.874  1.5448  0.3575 -1.9773
  567MOL0     C78147   0.355  -0.019   8.862  0.0212 -0.5307  0.0919
  567MOL0     C78148   0.341  -0.120   8.748 -0.7968 -0.9031 -0.9307
  567MOL0     C78149   0.431  -0.238   8.770  0.8809  0.7372 -0.5249
  567MOL0     C78150   0.408  -0.364   8.686 -0.3960  0.7390  0.9080
  567MOL0     C78151   0.522  -0.458   8.685  0.4029  1.1447 -0.3195
  567MOL0     C78152   0.516  -0.574   8.592  0.7967  0.1453  0.1214
  567MOL0    Cl78153   0.387  -0.698   8.618 -0.3565  0.0621  0.2364
  567MOL0     C78154   0.293   0.372   8.564 -0.0709 -0.1375 -0.6195
  567MOL0     C78155   0.305   0.492   8.484  0.7825  0.1268 -0.0129
  567MOL0     O78156   0.609   0.700   8.428  0.5540  0.7532 -0.5304
  567MOL0     C78157   0.378   0.914   8.276 -0.5350  0.2765  0.4647
  567MOL0     C78158   0.360   1.032   8.206  0.5421 -0.3466  0.6571
  567MOL0     N78159   0.781   1.364   7.533 -0.0623  0.0043 -0.6283
  567MOL0     N78160   0.803   1.359   7.407 -0.3323  0.1418  0.7012
  567MOL0     C78161   0.721   1.676   6.046  0.1546  0.7405  0.4549
  567MOL0     C78162   0.699   1.763   5.943  0.3990  0.1253 -0.3954
  567MOL0     C78163   0.575   2.190   5.798 -0.2915 -0.0962  0.4590
  567MOL0     C78164   0.620   2.154   5.669 -0.0764  0.5281 -0.4298
  567MOL0     C78165   0.612   2.241   5.557  0.0130 -0.0656 -0.4489
  567MOL0     C78166   0.542   2.360   5.563 -0.1460  0.7913  0.0698
  567MOL0     O78167   0.551   2.447   5.445  0.1936  0.0783 -0.5187
  567MOL0     C78168   0.495   2.576   5.451  0.1429 -1.2339  0.0177
  567MOL0     C78169   0.534   2.655   5.325 -0.3405 -0.1328  0.3770
  567MOL0     C78170   0.457   2.780   5.297 -0.8193  0.6550 -0.6641
  567MOL0     C78171   0.542   2.876   5.226  0.2867  0.0894  0.1564
  567MOL0     C78172   0.456   2.990   5.193 -0.0175  0.3854 -0.4452
  567MOL0     C78173   0.370   3.075   5.168  0.5258  0.3110  0.2681
  567MOL0     C78174   0.485   2.391   5.692  0.6680  0.8051  0.1431
  567MOL0     C78175   0.496   2.312   5.806  0.0744 -0.0628 -0.1929
  567MOL0     C78176   0.413   2.349   5.924 -0.6620  0.6172 -0.0636
  567MOL0     H78177   0.791   2.049   6.107  3.4062  0.2338 -1.7637
  567MOL0     H78178   0.832   1.883   6.292 -2.0664 -0.7736  0.4024
  567MOL0     H78179   0.774   1.731   6.420  0.0053  0.9620 -1.2511
  567MOL0     H78180   0.942   1.690   6.389 -1.7433  3.1619  1.1244
  567MOL0     H78181   0.741   1.504   6.494 -0.0609 -0.0386 -0.1384
  567MOL0     H78182   0.906   1.442   6.460 -4.8200 -2.9082 -1.2036
  567MOL0     H78183   0.988   1.614   6.625  0.1570 -0.7984 -1.4676
  567MOL0     H78184   0.840   1.698   6.623  0.3173  0.3381  0.2512
  567MOL0     H78185   0.723   1.460   6.695 -1.0859  2.0480  0.1701
  567MOL0     H78186   0.889   1.404   6.709 -1.8678 -1.1370 -1.7171
  567MOL0     H78187   0.802   1.650   6.862  2.0201  2.5288 -1.0489
  567MOL0     H78188   0.956   1.559   6.866 -0.8931 -0.2626  1.7731
  567MOL0     H78189   0.686   1.433   6.915  1.3022 -2.9430 -1.4067
  567MOL0     H78190   0.839   1.357   6.965  1.3955  0.6988  0.9026
  567MOL0     H78191   0.737   1.603   7.112  0.7485  1.0421 -3.8297
  567MOL0     H78192   0.882   1.518   7.140 -0.2468 -0.9603  1.3686
  567MOL0     H78193   0.601   1.394   7.170 -0.1030 -0.8149  0.6526
  567MOL0     H78194   0.747   1.294   7.168  2.1533 -0.4408 -0.0698
  567MOL0     H78195   0.528   1.526   7.389  0.6024  2.0109 -1.6786
  567MOL0     H78196   0.466   1.462   7.602  0.3497  1.1759  0.5921
  567MOL0     H78197   0.595   1.528   7.709  1.4829 -0.7318  0.1287
  567MOL0     H78198   0.564   1.230   7.673  0.4680 -0.3250  0.1297
  567MOL0     H78199   0.671   1.330   7.782 -0.9097  0.9189  1.8263
  567MOL0     H78200   0.442   1.408   7.882  1.2369  2.8149 -3.6587
  567MOL0     H78201   0.381   1.260   7.817  1.7482 -1.1739 -0.1522
  567MOL0     H78202   0.573   1.132   7.929 -1.2274 -2.1475  2.5250
  567MOL0     H78203   0.624   1.292   7.994  1.0716 -1.8847  1.3805
  567MOL0     H78204   0.676   1.109   8.147 -1.0586  0.2875  0.4725
  567MOL0     H78205   0.820   0.979   8.249 -0.5493 -0.8324  0.2454
  567MOL0     H78206   0.787   0.812   8.273 -0.3335  1.0202 -0.2310
  567MOL0     H78207   0.743   0.925   8.405 -0.3068  1.6308  1.2600
  567MOL0     H78208   0.492   0.677   8.702  0.8213 -1.4334  3.8250
  567MOL0     H78209   0.462   0.479   8.838  0.9131  0.2350 -1.0759
  567MOL0     H78210   0.127   0.215   8.768 -0.4211 -0.8954  0.0035
  567MOL0     H78211   0.242   0.116   8.669 -2.8859  0.3406 -0.8036
  567MOL0     H78212   0.248   0.128   8.964 -0.5616  1.9392 -2.7118
  567MOL0     H78213   0.145   0.013   8.895  1.3489  1.6086  0.8599
  567MOL0     H78214   0.377  -0.069   8.957  0.6196 -1.6300 -0.5981
  567MOL0     H78215   0.445   0.042   8.853  0.9583 -0.8829  4.6861
  567MOL0     H78216   0.369  -0.076   8.652  3.0230 -1.1879 -0.0903
  567MOL0     H78217   0.237  -0.155   8.745 -1.2097  0.3122 -2.3917
  567MOL0     H78218   0.535  -0.206   8.757  1.2297 -0.1934 -0.1182
  567MOL0     H78219   0.406  -0.272   8.871  1.1174  2.3221  0.0925
  567MOL0     H78220   0.396  -0.330   8.583  0.4450  2.5821  1.3869
  567MOL0     H78221   0.317  -0.413   8.724  0.4465  0.7562  3.0855
  567MOL0     H78222   0.519  -0.498   8.787 -2.6604  2.2196  0.1123
  567MOL0     H78223   0.619  -0.408   8.676  1.1966 -0.4679 -1.0467
  567MOL0     H78224   0.614  -0.622   8.598  1.0737  0.8535  1.7710
  567MOL0     H78225   0.522  -0.532   8.491  0.7294 -0.9501 -0.3515
  567MOL0     H78226   0.239   0.291   8.515 -1.3627  1.1171 -1.3384
  567MOL0     H78227   0.258   0.488   8.387 -1.8765  0.5571  1.1818
  567MOL0     H78228   0.285   0.876   8.317 -2.7689  3.4427 -1.2451
  567MOL0     H78229   0.263   1.079   8.197  1.7019  2.0738 -0.1179
  567MOL0     H78230   0.702   1.570   6.031 -0.7893  0.7239  1.6142
  567MOL0     H78231   0.651   1.741   5.848 -3.8080  1.0180  1.3419
  567MOL0     H78232   0.663   2.056   5.651 -0.2094  0.4463 -0.3069
  567MOL0     H78233   0.659   2.203   5.467 -4.2319 -1.7265 -2.2507
  567MOL0     H78234   0.386   2.574   5.463  0.2011  1.7533  2.2903
  567MOL0     H78235   0.533   2.622   5.543 -0.2758 -1.8065  0.4822
  567MOL0     H78236   0.521   2.584   5.244  0.9803 -1.4110  1.2380
  567MOL0     H78237   0.639   2.682   5.315  0.0558 -2.1826 -1.6898
  567MOL0     H78238   0.363   2.761   5.244 -1.7076  2.8648  0.0028
  567MOL0     H78239   0.426   2.826   5.391  0.9339  1.2598 -0.3545
  567MOL0     H78240   0.589   2.839   5.134  1.2649  3.9690 -1.0769
  567MOL0     H78241   0.614   2.903   5.303  0.9326 -0.8752 -0.0981
  567MOL0     H78242   0.303   3.157   5.157  0.6282  0.4584  0.7245
  567MOL0     H78243   0.435   2.487   5.705  2.2797  1.4556  2.1924
  567MOL0     H78244   0.381   2.453   5.921  2.6125  1.7480  0.3469
  567MOL0     H78245   0.331   2.277   5.932 -0.7350  0.3378 -2.5416
  567MOL0     H78246   0.472   2.349   6.017 -0.9838 -0.9389  0.1730
  568MOL0     O78247   5.486   8.623   9.844 -0.3398 -0.3290 -0.0564
  568MOL0     C78248   5.520   8.507   9.845 -0.3248 -0.1555 -0.1312
  568MOL0     O78249   5.443   8.403   9.898 -0.2220 -0.1262  0.3375
  568MOL0     C78250   5.313   8.416   9.940 -0.5007  0.6361 -1.3141
  568MOL0     C78251   5.218   8.503   9.881 -1.7797 -0.7097  1.2632
  568MOL0     C78252   5.098   8.535   9.938  0.0079 -0.2277 -1.2822
  568MOL0     C78253   5.053   8.455  10.054 -0.2111  0.1013 -1.5253
  568MOL0     O78254   4.937   8.487  10.120 -0.0581  0.3336  0.1948
  568MOL0     C78255   4.816   8.457  10.051 -0.4986 -0.3670  0.4961
  568MOL0     C78256   4.691   8.505  10.119  0.0425 -0.2700 -0.0495
  568MOL0     C78257   4.631   8.392  10.199 -0.1610  0.1010 -0.6479
  568MOL0     C78258   4.492   8.438  10.265  1.0435  0.3902 -0.3457
  568MOL0     C78259   4.491   8.511  10.396 -0.3783 -0.5234 -0.0918
  568MOL0     C78260   4.524   8.427  10.523 -0.4847  0.0872 -0.6439
  568MOL0     C78261   4.531   8.517  10.647 -0.3579  0.6818  0.6240
  568MOL0     C78262   4.511   8.423  10.772  0.1871 -1.0576 -0.6484
  568MOL0     N78263   4.488   8.517  10.886  0.7112  0.7386  0.6121
  568MOL0     C78264   4.367   8.554  10.943 -0.1443  0.5076 -0.1458
  568MOL0     C78265   4.399   8.671  10.996  0.0916  0.3225 -1.6632
  568MOL0     C78266   4.310   8.762  11.074 -0.4881 -0.4774 -0.3597
  568MOL0     C78267   4.198   8.685  11.144 -0.1585 -0.2124 -0.2032
  568MOL0     C78268   4.267   8.625  11.271 -0.2278  0.4843 -0.6060
  568MOL0     C78269   4.199   8.515  11.351  0.0421 -0.0400 -0.7359
  568MOL0     O78270   4.084   8.579  11.399  0.5482  0.7502  1.5442
  568MOL0     C78271   4.021   8.518  11.503  0.6879 -0.2029 -0.1930
  568MOL0     C78272   4.064   8.403  11.571  0.3760  0.7902 -0.3564
  568MOL0     C78273   3.982   8.347  11.673  0.5196 -0.4176 -0.0531
  568MOL0     C78274   4.017   8.215  11.728  0.3292  0.9673 -0.0644
  568MOL0     C78275   3.877   8.422  11.729  0.6641 -0.1987  0.1126
  568MOL0     C78276   3.795   8.381  11.846  0.3041 -0.2582  0.1306
  568MOL0     O78277   3.657   8.415  11.834  0.0882  0.4742 -0.8200
  568MOL0     C78278   3.560   8.352  11.913 -0.4791  0.5804  0.0381
  568MOL0     C78279   3.434   8.417  11.928 -0.2022  0.0598 -0.6581
  568MOL0     C78280   3.334   8.369  12.013  0.4411  0.6170  1.1109
  568MOL0     C78281   3.351   8.247  12.088  0.6176  0.0846  0.2516
  568MOL0     O78282   3.262   8.193  12.184 -0.0382  0.2769  0.2671
  568MOL0     C78283   3.303   8.090  12.275  0.2575 -0.3252 -0.9838
  568MOL0     C78284   3.210   8.102  12.401 -0.2328  0.8231  0.2386
  568MOL0     C78285   3.072   8.066  12.356  1.4315 -0.0023  0.5634
  568MOL0     C78286   2.958   8.107  12.459  0.5260  0.0921  0.2198
  568MOL0     C78287   2.814   8.099  12.400 -0.5246 -0.9769  0.1523
  568MOL0     C78288   2.777   8.216  12.310 -0.9583  0.4493  0.3637
  568MOL0     C78289   2.735   8.339  12.386 -1.0990 -1.0292  0.4309
  568MOL0     C78290   2.731   8.466  12.283  0.5133 -0.0161  0.2821
  568MOL0    Cl78291   2.726   8.628  12.367 -0.2274  0.4029  0.2854
  568MOL0     C78292   3.473   8.178  12.064 -0.1459 -0.5074 -0.2726
  568MOL0     C78293   3.567   8.226  11.975 -0.7579  0.1268  0.6069
  568MOL0     O78294   3.847   8.306  11.930 -0.1464 -1.2427  0.2791
  568MOL0     C78295   3.834   8.540  11.662 -0.2715  0.0374 -0.1017
  568MOL0     C78296   3.910   8.581  11.555 -0.1800 -0.7826 -1.0264
  568MOL0     N78297   4.523   8.705  10.990 -0.2682  0.7344  0.6451
  568MOL0     N78298   4.581   8.627  10.903  0.3066 -0.2311 -0.4194
  568MOL0     C78299   5.148   8.368  10.109  0.2081  0.6624 -0.2504
  568MOL0     C78300   5.261   8.338  10.045 -0.5554  0.5193 -0.0841
  568MOL0     C78301   5.650   8.458   9.777  0.0937 -0.5791 -0.0369
  568MOL0     C78302   5.726   8.352   9.829  0.8328  0.8210 -0.4961
  568MOL0     C78303   5.813   8.279   9.749  0.7511 -0.7116 -0.5050
  568MOL0     C78304   5.829   8.319   9.616  0.7294  0.5249  1.1353
  568MOL0     O78305   5.908   8.250   9.531  0.9314  0.4294  0.1520
  568MOL0     C78306   5.831   8.163   9.439 -0.0026  0.3718  0.5222
  568MOL0     C78307   5.825   8.025   9.504 -0.4562 -0.6142  0.5452
  568MOL0     C78308   5.785   7.916   9.407  0.2095 -0.5308 -0.8698
  568MOL0     C78309   5.735   7.794   9.487  0.3599  0.9405  0.0096
  568MOL0     C78310   5.774   7.668   9.421 -0.6561  0.4610 -0.5147
  568MOL0     C78311   5.798   7.564   9.352 -0.4559 -1.3445 -0.7052
  568MOL0     C78312   5.768   8.435   9.576 -0.4343 -0.4241  0.8752
  568MOL0     C78313   5.691   8.515   9.656 -0.1005  0.0087  0.4098
  568MOL0     C78314   5.619   8.622   9.588 -0.4168  0.0566  0.4979
  568MOL0     H78315   5.248   8.565   9.797 -0.3679 -0.7429  1.7139
  568MOL0     H78316   5.040   8.620   9.904 -0.3280 -0.2639 -0.8149
  568MOL0     H78317   4.805   8.351  10.026  1.1355 -0.4084 -0.2285
  568MOL0     H78318   4.820   8.500   9.950 -2.1232 -1.6543 -0.1579
  568MOL0     H78319   4.726   8.582  10.189  0.6679  0.7033 -1.3995
  568MOL0     H78320   4.615   8.544  10.052  0.1283 -1.5148 -0.8997
  568MOL0     H78321   4.602   8.310  10.133 -4.7182 -0.6127  1.8518
  568MOL0     H78322   4.698   8.349  10.274 -1.8156 -2.1237 -0.3459
  568MOL0     H78323   4.429   8.489  10.192 -1.4707 -1.5185  0.3578
  568MOL0     H78324   4.429   8.354  10.296 -0.9983  0.0962 -4.5863
  568MOL0     H78325   4.387   8.543  10.405  0.0696  0.5970  1.3238
  568MOL0     H78326   4.562   8.594  10.397 -0.0888 -0.7165  2.5591
  568MOL0     H78327   4.451   8.348  10.543 -0.0115 -0.0256  0.8080
  568MOL0     H78328   4.625   8.386  10.511  0.7920  1.0615  4.4001
  568MOL0     H78329   4.450   8.590  10.648 -1.4763 -0.4994  2.5066
  568MOL0     H78330   4.633   8.556  10.658 -0.7275  2.2403 -1.0672
  568MOL0     H78331   4.427   8.353  10.765 -2.2577  1.5259  0.7533
  568MOL0     H78332   4.606   8.370  10.777 -0.7037 -2.6008  3.5186
  568MOL0     H78333   4.280   8.491  10.956  0.6816 -0.7522 -0.4630
  568MOL0     H78334   4.267   8.828  10.998 -2.2566 -2.2139 -0.9409
  568MOL0     H78335   4.362   8.812  11.155 -1.0181 -0.4485 -0.0328
  568MOL0     H78336   4.123   8.757  11.179  1.1431  1.4292 -0.6424
  568MOL0     H78337   4.147   8.606  11.089 -0.5069  0.1946 -0.4708
  568MOL0     H78338   4.365   8.582  11.246  0.9249  1.3382  1.9936
  568MOL0     H78339   4.288   8.715  11.330 -1.5789  0.8853 -0.7088
  568MOL0     H78340   4.177   8.426  11.293 -1.6285  0.0488 -0.2847
  568MOL0     H78341   4.267   8.503  11.436 -0.0640  2.4576 -0.2130
  568MOL0     H78342   4.151   8.342  11.550  1.2116  2.3454 -1.6384
  568MOL0     H78343   3.934   8.144  11.728  1.0561  0.0869  0.0590
  568MOL0     H78344   4.059   8.217  11.829 -2.4628 -1.1413  1.2916
  568MOL0     H78345   4.095   8.161  11.673 -2.0976 -0.7125 -2.0770
  568MOL0     H78346   3.413   8.505  11.867  1.6536  1.2391  0.3053
  568MOL0     H78347   3.248   8.436  12.014 -1.6876 -1.8698 -1.1528
  568MOL0     H78348   3.298   7.992  12.226  2.0796  0.1837 -2.2908
  568MOL0     H78349   3.404   8.096  12.318 -0.4945 -0.4321  0.9201
  568MOL0     H78350   3.246   8.021  12.465  3.1798  1.8465 -0.2006
  568MOL0     H78351   3.218   8.195  12.456 -1.4985  0.7376  0.6086
  568MOL0     H78352   3.063   7.957  12.346  0.3363 -0.1041  2.2708
  568MOL0     H78353   3.050   8.104  12.256 -1.7071 -0.4781  0.9806
  568MOL0     H78354   2.979   8.209  12.492  0.4614 -0.3848  1.8356
  568MOL0     H78355   2.955   8.042  12.547 -0.8205 -0.7591 -0.4274
  568MOL0     H78356   2.792   8.009  12.342 -2.2159  1.4196 -3.2617
  568MOL0     H78357   2.751   8.095  12.489 -1.2952  4.2541  0.1619
  568MOL0     H78358   2.703   8.181  12.237  0.1712 -2.6053  0.5362
  568MOL0     H78359   2.862   8.241  12.246 -0.0009 -3.5100 -0.1493
  568MOL0     H78360   2.804   8.372  12.465 -0.5371 -0.9911 -0.0685
  568MOL0     H78361   2.636   8.328  12.432 -0.0191 -3.3013  2.4111
  568MOL0     H78362   2.647   8.449  12.215  0.0735 -1.9992  1.2740
  568MOL0     H78363   2.818   8.467  12.216  0.9417  1.1142  0.8254
  568MOL0     H78364   3.500   8.079  12.100  1.1491  0.3269  1.2004
  568MOL0     H78365   3.659   8.169  11.988  0.2509  1.8929  1.7893
  568MOL0     H78366   3.756   8.607  11.696  0.7987  2.9840 -2.8742
  568MOL0     H78367   3.878   8.676  11.513 -1.4079 -0.8459 -0.2832
  568MOL0     H78368   5.133   8.305  10.196 -2.3379  2.8683  1.0833
  568MOL0     H78369   5.314   8.257  10.094 -0.7663  0.3830 -0.0828
  568MOL0     H78370   5.711   8.326   9.934 -0.5681  0.9748 -0.6439
  568MOL0     H78371   5.868   8.192   9.786  1.3843 -0.1416 -0.0857
  568MOL0     H78372   5.730   8.203   9.427  0.0034  0.2515  0.0558
  568MOL0     H78373   5.887   8.150   9.346 -0.7128  0.7842  0.0273
  568MOL0     H78374   5.757   8.031   9.589 -1.8021 -1.4269 -0.4441
  568MOL0     H78375   5.927   8.002   9.537 -0.2172 -4.7788 -2.3749
  568MOL0     H78376   5.709   7.938   9.331  0.8213  0.1946 -1.2881
  568MOL0     H78377   5.868   7.897   9.337  0.6329 -4.9995  0.5003
  568MOL0     H78378   5.626   7.807   9.496  0.5034  2.0693  0.2685
  568MOL0     H78379   5.774   7.799   9.589 -0.8654  4.1231  0.4412
  568MOL0     H78380   5.834   7.485   9.290  0.9880 -1.1758 -0.1234
  568MOL0     H78381   5.800   8.478   9.482 -1.0743  0.5701  1.0938
  568MOL0     H78382   5.611   8.699   9.665  0.6968 -1.3949  2.1367
  568MOL0     H78383   5.671   8.651   9.496  0.7267 -1.6194  0.5747
  568MOL0     H78384   5.517   8.596   9.559 -0.6151  2.9298 -1.8118
  569MOL0     O78385   4.542   2.432  11.418  0.4743 -0.1763 -0.2185
  569MOL0     C78386   4.655   2.472  11.432 -0.8211  0.3189  0.1072
  569MOL0     O78387   4.766   2.422  11.358  0.7232  0.2075  0.1067
  569MOL0     C78388   4.743   2.348  11.239  0.5261 -0.4135  0.1700
  569MOL0     C78389   4.734   2.200  11.238 -0.6911 -1.2305  0.1638
  569MOL0     C78390   4.701   2.132  11.122 -0.6644  0.5239  0.5899
  569MOL0     C78391   4.718   2.202  10.992  0.7022 -0.7700  0.2099
  569MOL0     O78392   4.704   2.141  10.872 -0.3888  0.1215  0.3447
  569MOL0     C78393   4.587   2.054  10.854  0.3922  0.4872  0.3134
  569MOL0     C78394   4.632   1.912  10.843 -1.0487 -0.1330 -0.5370
  569MOL0     C78395   4.738   1.877  10.740 -0.4834  0.8237  1.0898
  569MOL0     C78396   4.712   1.719  10.710 -1.2262 -0.7394 -0.0223
  569MOL0     C78397   4.804   1.660  10.598  0.8603 -0.1503  0.3728
  569MOL0     C78398   4.818   1.509  10.611  0.4771  0.2755 -0.1883
  569MOL0     C78399   4.687   1.439  10.599 -0.0810 -0.1449 -0.7592
  569MOL0     C78400   4.684   1.291  10.604 -0.4258 -0.3853  0.6444
  569MOL0     N78401   4.549   1.236  10.621  0.8318  0.4084  0.1954
  569MOL0     C78402   4.463   1.203  10.512  0.1814 -0.2702 -0.2756
  569MOL0     C78403   4.355   1.152  10.584  0.8325  0.1445  0.9629
  569MOL0     C78404   4.225   1.102  10.513 -0.2013 -0.3182 -0.0683
  569MOL0     C78405   4.229   1.136  10.360  0.5369 -0.5846  0.7034
  569MOL0     C78406   4.112   1.091  10.273  0.7073  0.8487 -1.0427
  569MOL0     C78407   4.107   0.937  10.254 -0.5936  0.6297  0.2056
  569MOL0     O78408   4.214   0.889  10.165 -0.0004 -0.0670  0.5799
  569MOL0     C78409   4.233   0.749  10.153 -0.2854 -0.0326  0.1708
  569MOL0     C78410   4.334   0.721  10.060 -1.0196  1.3129  0.7263
  569MOL0     C78411   4.355   0.589  10.017 -0.6265  0.2751  0.6632
  569MOL0     C78412   4.471   0.578   9.919 -0.3764 -0.3660  0.5315
  569MOL0     C78413   4.285   0.472  10.075 -0.9656 -0.4024  0.2877
  569MOL0     C78414   4.275   0.340  10.022 -0.3247  0.3680  0.2342
  569MOL0     O78415   4.152   0.275  10.017  0.7518 -0.3585  0.0094
  569MOL0     C78416   4.136   0.157   9.953 -0.3012  0.3935  0.1544
  569MOL0     C78417   4.030   0.128   9.867 -0.3518 -0.5547 -0.5553
  569MOL0     C78418   4.033   0.021   9.775  0.1717  0.0180 -0.0955
  569MOL0     C78419   4.141  -0.066   9.778 -0.0929  0.2043 -0.3452
  569MOL0     O78420   4.159  -0.160   9.679 -0.3167  0.6349  0.0988
  569MOL0     C78421   4.293  -0.188   9.628 -0.2367 -0.4716 -0.6666
  569MOL0     C78422   4.297  -0.248   9.490  0.1690  0.6630 -0.9036
  569MOL0     C78423   4.264  -0.154   9.380  0.2833  0.3340  0.2129
  569MOL0     C78424   4.116  -0.115   9.361  0.2888 -0.9573 -0.3396
  569MOL0     C78425   4.083  -0.041   9.232 -0.2631  0.8947 -0.3277
  569MOL0     C78426   4.070  -0.146   9.121  0.7523 -0.1379  0.3059
  569MOL0     C78427   4.090  -0.065   8.991 -0.4024  0.4112 -0.6929
  569MOL0     C78428   4.096  -0.163   8.861  0.5902 -0.4007  0.2487
  569MOL0    Cl78429   3.935  -0.241   8.844 -0.5073  0.5471  0.1699
  569MOL0     C78430   4.238  -0.047   9.876  1.1267 -0.1237  0.1385
  569MOL0     C78431   4.231   0.055   9.973 -0.5842  0.0444  1.3341
  569MOL0     O78432   4.375   0.297   9.971 -0.8401  0.1639  0.2911
  569MOL0     C78433   4.193   0.509  10.181 -0.3545  0.0164 -0.2607
  569MOL0     C78434   4.164   0.638  10.222  0.6487 -0.0420 -0.1340
  569MOL0     N78435   4.385   1.151  10.725  0.0444 -0.3919 -0.2122
  569MOL0     N78436   4.501   1.204  10.744 -0.4545 -0.8652  0.5109
  569MOL0     C78437   4.748   2.340  10.990 -0.2326 -1.0920 -0.1279
  569MOL0     C78438   4.752   2.415  11.110  0.0918 -0.7230 -0.6790
  569MOL0     C78439   4.678   2.577  11.545  1.0590 -0.4901 -0.5584
  569MOL0     C78440   4.805   2.617  11.567  0.2223 -0.2714 -0.8591
  569MOL0     C78441   4.835   2.714  11.662  0.2167  0.0988  1.0768
  569MOL0     C78442   4.734   2.777  11.735  0.7089  0.2299  0.7270
  569MOL0     O78443   4.750   2.870  11.831 -0.1647  0.4286  0.0999
  569MOL0     C78444   4.860   2.960  11.803 -0.6916 -0.7593  0.6483
  569MOL0     C78445   4.811   3.107  11.848  0.6493  0.9177 -0.6891
  569MOL0     C78446   4.856   3.150  11.989  0.9764  0.0950 -0.3698
  569MOL0     C78447   4.766   3.069  12.100 -0.1501  0.6265  0.0413
  569MOL0     C78448   4.762   3.127  12.228  0.9381  0.0596 -0.5141
  569MOL0     C78449   4.755   3.182  12.341  0.6570  0.7204  0.8714
  569MOL0     C78450   4.602   2.746  11.699 -0.3311  0.1154 -1.5481
  569MOL0     C78451   4.570   2.644  11.612 -0.1577 -1.3887 -0.1573
  569MOL0     C78452   4.424   2.630  11.592  1.3912 -0.6555 -0.4071
  569MOL0     H78453   4.738   2.159  11.339  1.4228  0.1216  0.7088
  569MOL0     H78454   4.662   2.031  11.128 -1.5245  0.9198  2.2460
  569MOL0     H78455   4.548   2.074  10.754 -1.2107 -3.7204 -0.1133
  569MOL0     H78456   4.507   2.070  10.927  1.4977  0.3066  1.6090
  569MOL0     H78457   4.675   1.894  10.942 -0.5695  1.8404 -0.3324
  569MOL0     H78458   4.553   1.837  10.836 -1.3188 -0.1267  1.6250
  569MOL0     H78459   4.715   1.938  10.652 -1.6389  0.5750  1.1979
  569MOL0     H78460   4.838   1.913  10.765 -0.9493  1.2988  2.3771
  569MOL0     H78461   4.735   1.661  10.800  0.6138 -2.7533 -1.6763
  569MOL0     H78462   4.606   1.697  10.692 -0.7073 -2.6656 -1.0323
  569MOL0     H78463   4.902   1.705  10.620 -0.0798  0.6959  3.2140
  569MOL0     H78464   4.755   1.689  10.504 -0.4312 -1.7497  0.5098
  569MOL0     H78465   4.892   1.484  10.535  0.4537 -1.5831  0.3460
  569MOL0     H78466   4.867   1.480  10.705  1.6554 -2.2447 -1.4756
  569MOL0     H78467   4.639   1.465  10.504 -1.4033 -0.5986 -0.2364
  569MOL0     H78468   4.632   1.470  10.688 -0.5011  0.2185 -1.1365
  569MOL0     H78469   4.722   1.258  10.506 -0.3674  3.0776 -0.6292
  569MOL0     H78470   4.756   1.266  10.682 -1.7626 -0.3364  1.9246
  569MOL0     H78471   4.482   1.214  10.405  0.4211  0.5944 -0.1494
  569MOL0     H78472   4.135   1.153  10.549  0.4263 -0.1470  1.3215
  569MOL0     H78473   4.215   0.994  10.523 -1.0681 -0.2139  0.3275
  569MOL0     H78474   4.244   1.244  10.349 -1.6733 -0.2457  0.5245
  569MOL0     H78475   4.316   1.092  10.311  2.5873  1.8992  1.8819
  569MOL0     H78476   4.025   1.119  10.333  1.0800 -0.3976  0.1068
  569MOL0     H78477   4.113   1.148  10.179  0.3617  3.4098  0.4022
  569MOL0     H78478   4.101   0.879  10.347 -3.5175  1.1089  0.4186
  569MOL0     H78479   4.016   0.910  10.201 -0.9641  2.1064  0.0478
  569MOL0     H78480   4.383   0.808  10.019 -0.8036  2.0018  2.3509
  569MOL0     H78481   4.558   0.546   9.978  2.2246  0.2014 -2.7149
  569MOL0     H78482   4.485   0.679   9.879 -4.2664  0.1705  0.1884
  569MOL0     H78483   4.439   0.503   9.846 -0.1330 -0.0826  0.1311
  569MOL0     H78484   3.952   0.203   9.872  1.0672  0.9063  3.4067
  569MOL0     H78485   3.958   0.016   9.697  1.1371  0.1616 -1.0545
  569MOL0     H78486   4.358  -0.100   9.622  1.6904 -1.8801 -1.5214
  569MOL0     H78487   4.346  -0.254   9.697 -0.6836  0.1258  0.2686
  569MOL0     H78488   4.398  -0.288   9.471  0.0981 -0.2827  0.5577
  569MOL0     H78489   4.233  -0.335   9.471 -2.0774  2.5956 -2.8554
  569MOL0     H78490   4.298  -0.206   9.290  3.2073  0.6917  1.0095
  569MOL0     H78491   4.315  -0.059   9.393 -1.3136  1.1761  0.6356
  569MOL0     H78492   4.093  -0.037   9.434 -0.2148 -3.5153  2.4568
  569MOL0     H78493   4.051  -0.197   9.395  1.6348 -1.5191  0.9901
  569MOL0     H78494   3.998   0.028   9.237 -0.9925  0.1021 -1.4803
  569MOL0     H78495   4.170   0.021   9.205  1.0003  0.3004  2.0111
  569MOL0     H78496   3.968  -0.185   9.121  2.1585 -4.3846 -0.3497
  569MOL0     H78497   4.142  -0.228   9.129 -1.8873 -2.8158 -1.2175
  569MOL0     H78498   4.174   0.005   8.984  0.7445 -0.7152  1.1838
  569MOL0     H78499   4.002   0.000   8.993  1.3337  2.9133  0.5199
  569MOL0     H78500   4.184  -0.229   8.863  0.3955 -0.7341 -1.4422
  569MOL0     H78501   4.103  -0.105   8.769 -0.1132  0.1539  0.5319
  569MOL0     H78502   4.313  -0.125   9.888  1.0549 -0.1244  0.6106
  569MOL0     H78503   4.301   0.058  10.056  1.1528  2.1708 -0.1099
  569MOL0     H78504   4.129   0.440  10.234 -3.3672  1.8751 -1.2439
  569MOL0     H78505   4.094   0.641  10.305  3.4783 -2.7002  2.6133
  569MOL0     H78506   4.764   2.401  10.901 -0.7737 -0.4330  0.2220
  569MOL0     H78507   4.764   2.523  11.111 -0.9904 -0.5840  0.8117
  569MOL0     H78508   4.885   2.579  11.505  1.3999  2.6234 -1.2639
  569MOL0     H78509   4.941   2.731  11.679  0.5507  0.5098 -1.0810
  569MOL0     H78510   4.948   2.925  11.858 -1.7933  1.4571  4.1594
  569MOL0     H78511   4.884   2.967  11.696  1.6881 -2.5276  0.9864
  569MOL0     H78512   4.702   3.113  11.844  0.4494 -0.4207  1.3700
  569MOL0     H78513   4.855   3.177  11.776  0.5995  1.3316 -0.3176
  569MOL0     H78514   4.962   3.123  11.997  0.6541 -1.2947 -0.5893
  569MOL0     H78515   4.834   3.257  11.991 -1.0835 -0.2510 -1.9724
  569MOL0     H78516   4.807   2.968  12.109 -1.8209 -0.2271 -1.3324
  569MOL0     H78517   4.661   3.057  12.071  0.2046 -0.9230 -0.7205
  569MOL0     H78518   4.736   3.223  12.438  1.5316 -2.4701  2.5132
  569MOL0     H78519   4.533   2.812  11.751 -0.0667 -1.7583  1.3887
  569MOL0     H78520   4.366   2.686  11.666  2.3597 -0.2626  0.0759
  569MOL0     H78521   4.388   2.665  11.495 -3.3955 -2.9904  0.1993
  569MOL0     H78522   4.399   2.524  11.600  3.1394 -1.0008  0.9425
  570MOL0     O78523   6.179   7.937   3.754  0.0039 -0.9802  0.5200
  570MOL0     C78524   6.240   7.844   3.792 -0.8942  1.1125 -0.0994
  570MOL0     O78525   6.238   7.722   3.738 -0.0448  0.5996 -0.0963
  570MOL0     C78526   6.177   7.692   3.615 -0.1753  0.2511  0.0265
  570MOL0     C78527   6.251   7.612   3.528  0.0406  0.0734 -0.4926
  570MOL0     C78528   6.209   7.594   3.396 -0.2604  1.2624 -0.0435
  570MOL0     C78529   6.092   7.655   3.348 -0.5672 -0.1204  0.5372
  570MOL0     O78530   6.062   7.643   3.215  0.6511 -0.5816 -0.0862
  570MOL0     C78531   6.161   7.684   3.119  0.1908 -0.7166  0.1237
  570MOL0     C78532   6.125   7.649   2.970  0.1349 -0.1008  0.0369
  570MOL0     C78533   6.106   7.505   2.951 -0.1373  0.1206  0.2156
  570MOL0     C78534   5.961   7.468   2.982 -0.5801 -0.8003 -0.0296
  570MOL0     C78535   5.924   7.333   2.926 -0.2809 -0.0949 -0.9183
  570MOL0     C78536   5.779   7.294   2.940  0.7058 -0.7419  0.0429
  570MOL0     C78537   5.750   7.158   2.878  0.3060 -0.2147  0.6357
  570MOL0     C78538   5.596   7.136   2.857  0.7668  0.2910  0.6242
  570MOL0     N78539   5.536   7.196   2.736 -0.3073 -0.5979 -0.0049
  570MOL0     C78540   5.566   7.172   2.599 -0.6489  0.8603  0.0281
  570MOL0     C78541   5.488   7.260   2.522 -0.3114 -0.0994 -0.6761
  570MOL0     C78542   5.477   7.281   2.370  0.3447  0.4102  0.6410
  570MOL0     C78543   5.553   7.411   2.327  0.3704  0.2996  0.2480
  570MOL0     C78544   5.565   7.426   2.172 -0.6009  0.2827  0.6874
  570MOL0     C78545   5.447   7.502   2.105 -0.3777  0.2076 -0.8009
  570MOL0     O78546   5.421   7.617   2.187  0.1275 -0.0007  0.1026
  570MOL0     C78547   5.318   7.707   2.171 -0.2869 -0.4378  0.5416
  570MOL0     C78548   5.232   7.702   2.064 -0.5208 -0.3001  0.1373
  570MOL0     C78549   5.123   7.796   2.064  0.3462  1.1502  0.3901
  570MOL0     C78550   5.032   7.774   1.944  0.8502 -0.5208 -0.3442
  570MOL0     C78551   5.091   7.874   2.175  0.1825 -0.4197 -1.0508
  570MOL0     C78552   4.968   7.966   2.190  0.3173  0.5291 -0.3075
  570MOL0     O78553   4.849   7.927   2.153  0.1181 -0.0011 -0.1263
  570MOL0     C78554   4.750   8.013   2.127 -0.2405  0.1190 -0.2074
  570MOL0     C78555   4.761   8.143   2.086 -0.6478 -0.3028 -1.0864
  570MOL0     C78556   4.651   8.234   2.072  0.0464 -0.2228  0.2065
  570MOL0     C78557   4.525   8.185   2.070  0.3937 -0.6120  0.2543
  570MOL0     O78558   4.430   8.270   2.033  0.0272  0.1768  1.1727
  570MOL0     C78559   4.339   8.229   1.929  0.3078  0.0926  0.5100
  570MOL0     C78560   4.233   8.343   1.910 -1.4913  0.6926  0.3032
  570MOL0     C78561   4.135   8.345   2.027  0.2842  0.2121  0.4469
  570MOL0     C78562   4.046   8.469   1.997 -0.0794  0.9203 -0.2294
  570MOL0     C78563   3.955   8.461   1.871 -0.3680  0.1856  0.0252
  570MOL0     C78564   3.814   8.516   1.898  0.2037 -0.0359  0.0329
  570MOL0     C78565   3.713   8.537   1.776 -1.0376 -1.1065 -0.5452
  570MOL0     C78566   3.566   8.516   1.805 -0.1433  0.0531  0.2603
  570MOL0    Cl78567   3.547   8.351   1.870  0.0288  0.0481 -0.6655
  570MOL0     C78568   4.506   8.054   2.109 -0.6316  0.6429 -1.5067
  570MOL0     C78569   4.618   7.970   2.139  0.4457  0.4495  0.8577
  570MOL0     O78570   5.003   8.068   2.243  0.0226  0.0998  0.2651
  570MOL0     C78571   5.177   7.862   2.288 -0.6356 -0.7849 -0.7563
  570MOL0     C78572   5.292   7.792   2.278  0.0460  0.5629  0.0224
  570MOL0     N78573   5.427   7.338   2.613  0.6364 -0.9396  0.7324
  570MOL0     N78574   5.444   7.300   2.739  0.0250 -1.2041 -0.1093
  570MOL0     C78575   6.015   7.725   3.438 -0.1762  0.2491 -0.1398
  570MOL0     C78576   6.055   7.746   3.569 -0.9344  0.1191 -0.0870
  570MOL0     C78577   6.324   7.852   3.921  0.0388 -0.1320 -0.5420
  570MOL0     C78578   6.405   7.748   3.972 -0.4348 -0.2210 -0.7413
  570MOL0     C78579   6.473   7.757   4.100 -0.0707  0.6052 -0.1832
  570MOL0     C78580   6.450   7.860   4.186  0.7865  0.6297 -0.0592
  570MOL0     O78581   6.512   7.853   4.310  0.2074 -0.3065  0.8963
  570MOL0     C78582   6.451   7.918   4.422 -0.2130 -0.6595 -1.2277
  570MOL0     C78583   6.499   7.840   4.548 -0.4601 -0.0761  0.3835
  570MOL0     C78584   6.485   7.915   4.685  0.3965  0.4507  0.3726
  570MOL0     C78585   6.516   7.810   4.792  0.6787  1.4122  0.7740
  570MOL0     C78586   6.500   7.856   4.928 -0.5404  0.0851  0.2520
  570MOL0     C78587   6.515   7.904   5.034  0.9779  0.9950 -0.0908
  570MOL0     C78588   6.373   7.968   4.131 -0.1756  0.6675  0.1319
  570MOL0     C78589   6.321   7.972   4.002 -0.4121 -0.8643 -0.2272
  570MOL0     C78590   6.258   8.101   3.979  0.2606 -0.2338  1.1237
  570MOL0     H78591   6.334   7.557   3.572 -1.2379 -1.1900  0.4163
  570MOL0     H78592   6.258   7.521   3.332 -1.4209  0.0517  0.3799
  570MOL0     H78593   6.261   7.649   3.148  0.4375  0.7639  1.2042
  570MOL0     H78594   6.163   7.793   3.131  4.5599 -0.4640 -0.9545
  570MOL0     H78595   6.037   7.700   2.927 -0.4334 -2.9322 -2.5467
  570MOL0     H78596   6.211   7.689   2.914  0.1311  1.1515  0.8853
  570MOL0     H78597   6.128   7.489   2.845 -0.2912  2.1143 -0.1493
  570MOL0     H78598   6.178   7.456   3.016  0.5945  0.8358 -0.0426
  570MOL0     H78599   5.939   7.478   3.089  0.8758  0.7280  0.1602
  570MOL0     H78600   5.903   7.544   2.928  1.6975  0.4296 -0.8812
  570MOL0     H78601   5.974   7.251   2.979 -4.3248 -3.7160 -2.1628
  570MOL0     H78602   5.960   7.327   2.823  2.9613  0.0126  0.0915
  570MOL0     H78603   5.748   7.295   3.045  2.1396 -0.2045  0.4766
  570MOL0     H78604   5.721   7.375   2.893  2.4796  0.2700 -0.4784
  570MOL0     H78605   5.774   7.070   2.938 -0.4003 -1.1123 -0.3614
  570MOL0     H78606   5.804   7.131   2.787 -1.2272 -1.0577 -0.0602
  570MOL0     H78607   5.588   7.031   2.828 -0.9484  0.0580  1.8160
  570MOL0     H78608   5.541   7.149   2.950  0.9834 -4.0614  1.5828
  570MOL0     H78609   5.638   7.102   2.556 -1.0958  2.6645 -4.1686
  570MOL0     H78610   5.375   7.304   2.337  0.3326  3.8415  2.6215
  570MOL0     H78611   5.504   7.187   2.321 -3.9638  0.0603 -1.5530
  570MOL0     H78612   5.504   7.500   2.367 -0.8068  0.4440 -1.3904
  570MOL0     H78613   5.649   7.414   2.378 -0.5597  1.4458  2.0377
  570MOL0     H78614   5.661   7.474   2.150  0.9659 -2.9163 -0.0126
  570MOL0     H78615   5.584   7.328   2.127  3.0247  0.7651  0.8843
  570MOL0     H78616   5.465   7.524   1.999 -0.6906 -0.0957 -0.9198
  570MOL0     H78617   5.359   7.439   2.118  1.8408 -2.9145  0.1705
  570MOL0     H78618   5.254   7.639   1.979  1.7579  1.5690 -0.7486
  570MOL0     H78619   4.947   7.843   1.953  3.0132  2.2385  0.5854
  570MOL0     H78620   4.988   7.675   1.934  0.6341 -0.6802  1.7785
  570MOL0     H78621   5.083   7.794   1.849  1.4888 -3.2030 -0.6243
  570MOL0     H78622   4.858   8.183   2.060 -1.4672 -0.7934 -5.9915
  570MOL0     H78623   4.666   8.340   2.051 -1.4391  0.6218  2.9849
  570MOL0     H78624   4.393   8.218   1.835 -1.4172  3.5622 -1.0496
  570MOL0     H78625   4.277   8.140   1.940  1.4487 -0.7707  0.1743
  570MOL0     H78626   4.289   8.437   1.916 -2.9503  1.5571  1.0231
  570MOL0     H78627   4.193   8.334   1.809 -0.5862  0.3916 -0.0308
  570MOL0     H78628   4.177   8.364   2.126  0.1374  2.9946  0.0698
  570MOL0     H78629   4.078   8.252   2.023  0.2694  0.2659 -1.1826
  570MOL0     H78630   4.118   8.550   2.010  1.9183 -0.4862 -1.9314
  570MOL0     H78631   3.975   8.485   2.079  1.5784  0.1736  1.4239
  570MOL0     H78632   3.999   8.501   1.780  1.6669  0.4989  1.0986
  570MOL0     H78633   3.941   8.353   1.861 -1.6568  0.2685  0.7044
  570MOL0     H78634   3.826   8.605   1.961 -1.6527 -1.9532  3.3429
  570MOL0     H78635   3.781   8.443   1.972  0.8825 -0.1468  0.2320
  570MOL0     H78636   3.743   8.480   1.688  1.0636  1.1682 -1.3976
  570MOL0     H78637   3.732   8.641   1.749  1.3844 -1.1989  0.5204
  570MOL0     H78638   3.508   8.536   1.714 -0.3851  0.7802  0.5605
  570MOL0     H78639   3.535   8.593   1.876 -0.0271 -2.1864  2.8564
  570MOL0     H78640   4.414   7.996   2.114 -1.0623  1.2020 -2.6527
  570MOL0     H78641   4.607   7.867   2.171  3.4468 -1.1536 -2.5746
  570MOL0     H78642   5.170   7.912   2.384  4.2715 -0.7213 -0.1902
  570MOL0     H78643   5.365   7.789   2.359  1.1516 -0.4288 -0.9730
  570MOL0     H78644   5.928   7.774   3.395  1.0566  0.0676 -3.0390
  570MOL0     H78645   5.987   7.794   3.639 -1.7612 -1.2074  0.0428
  570MOL0     H78646   6.413   7.661   3.909  0.0170 -1.5671  1.0773
  570MOL0     H78647   6.544   7.686   4.140 -2.9902 -0.5760  3.3378
  570MOL0     H78648   6.489   8.020   4.431 -1.7173  0.0531 -2.4578
  570MOL0     H78649   6.343   7.930   4.414  0.0596  3.4719 -0.8415
  570MOL0     H78650   6.604   7.816   4.533 -1.0258 -2.0693 -0.7333
  570MOL0     H78651   6.447   7.744   4.546 -0.8270 -0.0485  3.7870
  570MOL0     H78652   6.554   8.000   4.693  1.3987 -0.4792  2.5888
  570MOL0     H78653   6.384   7.956   4.696  0.8147  2.6896 -2.7712
  570MOL0     H78654   6.620   7.781   4.776  0.9472  1.7282  1.8549
  570MOL0     H78655   6.449   7.725   4.779 -0.9314  2.6852  0.4793
  570MOL0     H78656   6.536   7.945   5.131  2.5597  1.7215 -0.7109
  570MOL0     H78657   6.360   8.049   4.203 -2.6604 -2.2764  3.3106
  570MOL0     H78658   6.151   8.108   4.002 -0.3600 -0.3019 -1.4117
  570MOL0     H78659   6.307   8.181   4.035  1.8180 -0.3484  0.0009
  570MOL0     H78660   6.274   8.127   3.874 -1.2578  2.9729  1.5600
  571MOL0     O78661   5.748   5.609   3.875  0.0156  0.5720  0.1946
  571MOL0     C78662   5.743   5.496   3.919 -0.2255 -0.4971 -0.9251
  571MOL0     O78663   5.718   5.383   3.845  0.4600  0.2879  0.0183
  571MOL0     C78664   5.706   5.369   3.707  1.0960  0.3627 -0.0838
  571MOL0     C78665   5.723   5.472   3.614  0.4103 -0.6110  0.8959
  571MOL0     C78666   5.702   5.439   3.475 -0.3577 -0.1557 -0.2965
  571MOL0     C78667   5.668   5.306   3.451 -0.2246  0.3299  0.6734
  571MOL0     O78668   5.657   5.257   3.327  1.1028  0.2239 -0.0145
  571MOL0     C78669   5.577   5.337   3.235 -0.3757 -0.0139 -0.6466
  571MOL0     C78670   5.433   5.284   3.209 -0.1292  0.2305 -0.2861
  571MOL0     C78671   5.336   5.310   3.328  0.2721  0.7345 -0.0970
  571MOL0     C78672   5.308   5.455   3.344  0.0950 -0.6623  0.7822
  571MOL0     C78673   5.247   5.486   3.489  0.1670  0.0894  0.5223
  571MOL0     C78674   5.340   5.456   3.600 -0.6498 -0.0396  0.7986
  571MOL0     C78675   5.289   5.485   3.733 -0.2010  0.8750 -0.6616
  571MOL0     C78676   5.398   5.469   3.845 -0.9550  0.0912 -0.4694
  571MOL0     N78677   5.352   5.500   3.979 -0.0718 -0.4129  0.3669
  571MOL0     C78678   5.413   5.565   4.072 -0.7005  0.1662 -0.7972
  571MOL0     C78679   5.332   5.558   4.180 -0.8116 -0.4370 -0.0047
  571MOL0     C78680   5.335   5.624   4.319 -0.4265 -0.0375 -0.2074
  571MOL0     C78681   5.471   5.610   4.376  0.1684 -0.8779 -0.1265
  571MOL0     C78682   5.483   5.693   4.500  0.1156  0.5634 -1.1222
  571MOL0     C78683   5.602   5.656   4.582  1.0210 -1.2285  0.0915
  571MOL0     O78684   5.592   5.685   4.718  0.4775  0.2668  0.0090
  571MOL0     C78685   5.679   5.626   4.795  0.2661  0.3262  0.7632
  571MOL0     C78686   5.826   5.619   4.775  0.4064  0.0117  0.5857
  571MOL0     C78687   5.919   5.554   4.855 -0.5461 -0.0677 -0.2046
  571MOL0     C78688   6.062   5.563   4.801  1.2143  0.4852 -0.6401
  571MOL0     C78689   5.864   5.483   4.970 -0.3849  0.4457  0.5930
  571MOL0     C78690   5.943   5.410   5.070  0.4302  0.1310  0.4358
  571MOL0     O78691   5.868   5.343   5.168  0.4242 -0.0527  0.2620
  571MOL0     C78692   5.912   5.295   5.289  0.0200  0.0901  0.1347
  571MOL0     C78693   5.847   5.196   5.346  0.7487 -0.9075 -0.2017
  571MOL0     C78694   5.880   5.138   5.472 -0.7416  0.6394  0.0128
  571MOL0     C78695   6.005   5.175   5.528 -0.1759  0.1061 -0.9275
  571MOL0     O78696   6.055   5.124   5.646  0.3296 -0.3330 -0.6835
  571MOL0     C78697   5.982   5.025   5.715 -0.3279 -0.6072  0.2949
  571MOL0     C78698   6.082   4.978   5.826  0.0044 -0.1906  0.9248
  571MOL0     C78699   6.022   4.849   5.892  0.5281 -0.4292 -0.6468
  571MOL0     C78700   6.108   4.799   6.016 -0.0863 -0.6065 -0.7811
  571MOL0     C78701   6.104   4.905   6.119  0.2476 -0.0479 -0.1437
  571MOL0     C78702   6.168   4.840   6.245 -0.0185  0.0668 -0.5597
  571MOL0     C78703   6.207   4.955   6.332  0.6732  0.1393 -0.1323
  571MOL0     C78704   6.265   4.904   6.463 -0.8727 -0.4880 -0.0471
  571MOL0    Cl78705   6.405   4.805   6.435  0.0351  0.3799 -0.3464
  571MOL0     C78706   6.078   5.270   5.467 -0.4671  0.4377 -0.1654
  571MOL0     C78707   6.032   5.338   5.350 -0.2273 -0.4755 -0.0348
  571MOL0     O78708   6.058   5.403   5.057 -0.2905  0.4386 -0.7248
  571MOL0     C78709   5.720   5.493   4.997 -0.2702  0.6228  0.2703
  571MOL0     C78710   5.634   5.561   4.915  0.7523 -0.5101  0.4318
  571MOL0     N78711   5.219   5.491   4.147 -0.0713 -0.4044  0.7120
  571MOL0     N78712   5.232   5.460   4.023 -0.8442 -0.1774  0.8139
  571MOL0     C78713   5.659   5.208   3.548 -0.5859 -0.3228  0.1817
  571MOL0     C78714   5.673   5.234   3.675 -0.3355 -1.7273 -0.6550
  571MOL0     C78715   5.774   5.476   4.065 -0.1321  0.2798  0.1729
  571MOL0     C78716   5.730   5.347   4.122  0.2909  0.2684 -0.1612
  571MOL0     C78717   5.744   5.313   4.256  0.7950  0.0842  0.7037
  571MOL0     C78718   5.820   5.401   4.335 -0.3208  0.4510 -1.1625
  571MOL0     O78719   5.845   5.386   4.471  0.2285  0.4620  0.5559
  571MOL0     C78720   5.813   5.261   4.537 -0.3683  0.1548 -0.1534
  571MOL0     C78721   5.938   5.178   4.498 -0.7356 -1.3392 -0.3301
  571MOL0     C78722   6.075   5.237   4.510  0.1504  0.5380 -0.2935
  571MOL0     C78723   6.176   5.122   4.510 -0.7791 -0.0340 -0.5591
  571MOL0     C78724   6.190   5.044   4.390  0.5577 -0.0422 -0.0558
  571MOL0     C78725   6.197   4.996   4.279 -0.1996 -0.1625  0.3021
  571MOL0     C78726   5.867   5.527   4.283 -0.6590  0.7106 -0.2573
  571MOL0     C78727   5.838   5.570   4.153  0.2134  0.5340  0.8998
  571MOL0     C78728   5.898   5.699   4.104 -0.8485 -0.2957  0.5216
  571MOL0     H78729   5.763   5.571   3.632 -0.3329 -0.2664  0.7271
  571MOL0     H78730   5.734   5.502   3.392  0.8945 -0.9581 -0.4498
  571MOL0     H78731   5.623   5.312   3.138 -1.3991  0.6519 -1.3239
  571MOL0     H78732   5.577   5.444   3.254  0.8775  0.0486 -0.9313
  571MOL0     H78733   5.382   5.315   3.118 -0.8192 -2.3484 -0.8491
  571MOL0     H78734   5.453   5.177   3.204  2.6808  0.5605  1.6089
  571MOL0     H78735   5.240   5.257   3.321 -0.7063  2.1736  1.5827
  571MOL0     H78736   5.389   5.262   3.412  0.0005 -1.6383 -1.2101
  571MOL0     H78737   5.401   5.511   3.350  0.3109 -0.7774 -1.0421
  571MOL0     H78738   5.242   5.490   3.264  0.6860 -1.3400 -0.0114
  571MOL0     H78739   5.151   5.434   3.497  1.3840 -2.8509 -2.1584
  571MOL0     H78740   5.219   5.592   3.489 -2.7735 -0.5983  0.5549
  571MOL0     H78741   5.373   5.352   3.590  2.3462  0.8843 -0.1359
  571MOL0     H78742   5.428   5.521   3.588 -0.9653  0.2866  0.1312
  571MOL0     H78743   5.212   5.410   3.756  0.3698  0.8730  1.3839
  571MOL0     H78744   5.246   5.586   3.737  1.9600  1.7852  2.0833
  571MOL0     H78745   5.435   5.367   3.859 -1.3764  0.2779  2.8767
  571MOL0     H78746   5.477   5.540   3.819 -1.2399  1.5099  2.1509
  571MOL0     H78747   5.511   5.612   4.073 -0.7839  0.3694 -1.3897
  571MOL0     H78748   5.257   5.577   4.379 -0.3954 -0.6438 -0.6338
  571MOL0     H78749   5.312   5.730   4.303 -1.4084 -0.3377 -0.9038
  571MOL0     H78750   5.470   5.506   4.409  3.0561  0.2320  4.3314
  571MOL0     H78751   5.554   5.627   4.307 -2.6564 -1.4648 -4.0065
  571MOL0     H78752   5.487   5.800   4.478 -1.4452  0.9651  0.3008
  571MOL0     H78753   5.393   5.678   4.561  2.6348  4.6094  4.5869
  571MOL0     H78754   5.642   5.555   4.567  3.4678 -0.8488  2.9240
  571MOL0     H78755   5.679   5.722   4.540 -2.1141  1.4383 -1.9454
  571MOL0     H78756   5.862   5.667   4.685 -1.2568  0.8762  0.3424
  571MOL0     H78757   6.070   5.656   4.743 -3.7796  1.5887  0.0256
  571MOL0     H78758   6.086   5.477   4.738 -1.0580  0.3001 -1.3286
  571MOL0     H78759   6.134   5.563   4.884  0.5567 -2.7195  0.0537
  571MOL0     H78760   5.757   5.166   5.292 -0.0877  2.8142 -1.1788
  571MOL0     H78761   5.817   5.057   5.507 -2.9429  1.8580 -0.9200
  571MOL0     H78762   5.886   5.059   5.754  0.4862  0.6079  1.3215
  571MOL0     H78763   5.965   4.943   5.644 -2.3822  0.3078 -0.3399
  571MOL0     H78764   6.182   4.971   5.782  0.5529  3.5868  1.1778
  571MOL0     H78765   6.076   5.064   5.893 -0.7252  1.3253 -0.9856
  571MOL0     H78766   6.000   4.776   5.814  0.1552 -0.8940 -0.1204
  571MOL0     H78767   5.922   4.873   5.929  0.4351 -0.6712 -0.7367
  571MOL0     H78768   6.211   4.788   5.981  0.6394 -1.0390  1.3195
  571MOL0     H78769   6.075   4.706   6.063  2.2232 -1.0398  0.1329
  571MOL0     H78770   6.140   5.004   6.088  1.2683 -0.5076 -0.4701
  571MOL0     H78771   6.000   4.924   6.146  0.1683  2.0364 -1.7221
  571MOL0     H78772   6.255   4.782   6.213 -0.0182 -0.9885  1.2475
  571MOL0     H78773   6.103   4.766   6.291 -0.4107 -0.1819 -1.4842
  571MOL0     H78774   6.122   5.020   6.354 -1.9015 -3.2229  0.7554
  571MOL0     H78775   6.287   5.014   6.287  0.6757 -0.0075 -0.3203
  571MOL0     H78776   6.199   4.849   6.531  1.1500 -1.2190  1.4411
  571MOL0     H78777   6.293   4.999   6.509 -0.4911 -0.3628 -0.5218
  571MOL0     H78778   6.173   5.307   5.505 -2.3550  0.8099  4.9355
  571MOL0     H78779   6.095   5.410   5.298 -1.2590  0.1781 -0.4162
  571MOL0     H78780   5.678   5.448   5.086  1.9583 -2.1266  0.0743
  571MOL0     H78781   5.527   5.562   4.933  0.8204 -0.0667  0.8160
  571MOL0     H78782   5.624   5.109   3.524 -1.6351 -0.2408  1.2575
  571MOL0     H78783   5.658   5.166   3.758  0.5451 -0.8016  0.3064
  571MOL0     H78784   5.673   5.286   4.053  1.6599 -1.4690  0.1618
  571MOL0     H78785   5.679   5.233   4.288 -1.4705  1.9543  1.0562
  571MOL0     H78786   5.806   5.272   4.646 -1.2288 -0.3483 -0.1503
  571MOL0     H78787   5.725   5.210   4.499 -0.4282  0.1002  0.0561
  571MOL0     H78788   5.917   5.154   4.393 -2.3431  0.0156 -0.3497
  571MOL0     H78789   5.930   5.091   4.563 -1.4402 -0.2028  1.1510
  571MOL0     H78790   6.092   5.302   4.424 -0.7905 -1.5061 -2.1278
  571MOL0     H78791   6.089   5.291   4.604 -0.8612  2.2393 -1.0792
  571MOL0     H78792   6.168   5.051   4.594  3.9190  0.2439  0.4126
  571MOL0     H78793   6.270   5.169   4.542 -1.5779  0.9793  0.3791
  571MOL0     H78794   6.179   4.946   4.187 -0.9394 -1.4365  1.1088
  571MOL0     H78795   5.918   5.599   4.347  1.5345  1.0636 -2.3018
  571MOL0     H78796   5.957   5.690   4.012  1.1177  2.1407  1.4396
  571MOL0     H78797   5.823   5.775   4.082  1.7235  1.7979 -1.7025
  571MOL0     H78798   5.961   5.742   4.183 -1.8837  0.0710  1.1572
  572MOL0     O78799   7.501   8.647   3.397 -0.4980  0.7458  0.3889
  572MOL0     C78800   7.612   8.691   3.372 -0.5202 -1.4337  0.0538
  572MOL0     O78801   7.729   8.640   3.414 -0.4766  0.1124  0.6066
  572MOL0     C78802   7.722   8.528   3.492  0.0040  0.8210 -1.1510
  572MOL0     C78803   7.696   8.526   3.632 -0.3238 -0.8554 -0.2421
  572MOL0     C78804   7.712   8.420   3.706 -1.1172  0.0486 -0.3298
  572MOL0     C78805   7.751   8.304   3.651  0.8647 -0.5107  0.8657
  572MOL0     O78806   7.749   8.197   3.731 -0.6368  0.6193  0.1676
  572MOL0     C78807   7.847   8.097   3.689 -0.1044 -0.5839  0.4482
  572MOL0     C78808   7.926   8.051   3.811 -0.4784 -0.5661  0.4635
  572MOL0     C78809   7.832   7.982   3.913 -0.2122  0.7470 -0.5303
  572MOL0     C78810   7.815   8.062   4.045 -0.3691  0.0682  0.3891
  572MOL0     C78811   7.749   8.199   4.040  0.8987  0.0061  0.4077
  572MOL0     C78812   7.738   8.264   4.173  0.5179  0.3503  0.4352
  572MOL0     C78813   7.642   8.377   4.181  0.0445 -0.2732  0.2844
  572MOL0     C78814   7.645   8.436   4.324  0.1717 -0.9403  0.3949
  572MOL0     N78815   7.531   8.524   4.329 -1.0422 -0.2809  0.3330
  572MOL0     C78816   7.530   8.649   4.268  0.3729  0.9309 -0.3954
  572MOL0     C78817   7.423   8.707   4.324 -0.0051 -0.6174  0.2800
  572MOL0     C78818   7.365   8.830   4.277 -0.3766  0.0967  0.7018
  572MOL0     C78819   7.459   8.951   4.221  1.9257 -0.4622  0.0829
  572MOL0     C78820   7.546   9.028   4.316  0.0016  0.1291 -0.6436
  572MOL0     C78821   7.672   9.094   4.245  0.1355  0.3755 -0.0595
  572MOL0     O78822   7.632   9.201   4.161 -0.0619 -0.1934  0.5823
  572MOL0     C78823   7.717   9.214   4.056  0.5881 -0.8682  0.0115
  572MOL0     C78824   7.712   9.129   3.943  0.4326  0.7254  0.7329
  572MOL0     C78825   7.789   9.139   3.828 -0.6414 -0.2744 -0.6744
  572MOL0     C78826   7.766   9.047   3.720  0.7639 -0.3509 -0.1283
  572MOL0     C78827   7.888   9.236   3.832 -1.0834 -0.0974  0.0266
  572MOL0     C78828   8.001   9.230   3.732  0.0823  0.9382  0.5442
  572MOL0     O78829   8.074   9.343   3.712  0.1586 -0.6099  1.1964
  572MOL0     C78830   8.160   9.350   3.603  0.0674 -0.0785 -0.6662
  572MOL0     C78831   8.300   9.334   3.629 -0.7871  0.9234  0.2900
  572MOL0     C78832   8.378   9.329   3.515 -0.6016  0.1040 -0.1452
  572MOL0     C78833   8.337   9.348   3.382  0.9245  0.4400  0.1302
  572MOL0     O78834   8.434   9.365   3.282 -0.3905 -0.5509 -0.0698
  572MOL0     C78835   8.409   9.413   3.149  0.5381 -0.2852  0.1687
  572MOL0     C78836   8.381   9.277   3.069 -0.1933 -0.8284 -0.1693
  572MOL0     C78837   8.376   9.301   2.919 -0.0446  0.2434 -0.8395
  572MOL0     C78838   8.389   9.167   2.856  0.2793 -0.0123  1.2577
  572MOL0     C78839   8.248   9.098   2.829 -1.1262 -0.1774 -0.3903
  572MOL0     C78840   8.268   8.965   2.763 -0.2483 -0.0650 -0.0012
  572MOL0     C78841   8.133   8.901   2.707  0.5056  0.1154 -1.0241
  572MOL0     C78842   8.076   8.990   2.597 -0.3572  0.7204  0.9437
  572MOL0    Cl78843   8.187   9.079   2.483 -0.0778  0.1949 -0.0624
  572MOL0     C78844   8.200   9.367   3.360  0.1372  0.5889  0.6806
  572MOL0     C78845   8.109   9.364   3.471  0.1566 -0.3385 -0.1206
  572MOL0     O78846   8.023   9.130   3.671 -0.1580  0.3237  0.2446
  572MOL0     C78847   7.895   9.324   3.944 -0.1884 -0.0612  0.1183
  572MOL0     C78848   7.807   9.325   4.051  0.5063  0.4058 -0.2573
  572MOL0     N78849   7.371   8.636   4.427 -0.4257  0.3545 -0.3556
  572MOL0     N78850   7.440   8.521   4.429  0.6872 -0.0630 -0.0791
  572MOL0     C78851   7.765   8.295   3.504  0.0192  0.3856 -0.3186
  572MOL0     C78852   7.753   8.407   3.436 -0.4619 -0.0662  0.2783
  572MOL0     C78853   7.623   8.813   3.290 -0.4167 -0.6037  0.3534
  572MOL0     C78854   7.729   8.902   3.323 -0.0938 -0.2688  0.6799
  572MOL0     C78855   7.733   9.027   3.267 -0.3091  0.4081 -0.3387
  572MOL0     C78856   7.641   9.058   3.167 -0.0635  0.4233 -0.0118
  572MOL0     O78857   7.665   9.169   3.086 -0.1261 -0.1371 -0.9782
  572MOL0     C78858   7.794   9.247   3.106  0.4599  0.9548 -0.1455
  572MOL0     C78859   7.801   9.371   3.015  0.4465 -0.0060 -0.4783
  572MOL0     C78860   7.860   9.338   2.879  0.6657 -0.0007  0.1712
  572MOL0     C78861   7.752   9.290   2.782 -0.7300  0.4408 -0.9022
  572MOL0     C78862   7.796   9.287   2.646  0.4603 -0.0569 -0.8057
  572MOL0     C78863   7.811   9.284   2.525 -1.0127 -0.8126 -0.6531
  572MOL0     C78864   7.529   8.975   3.139  1.1488  0.3979  0.4286
  572MOL0     C78865   7.531   8.852   3.195 -0.4055  1.4453 -0.5356
  572MOL0     C78866   7.421   8.755   3.158  1.1202 -0.3910 -0.4940
  572MOL0     H78867   7.683   8.617   3.689  1.6255 -1.0475  0.5659
  572MOL0     H78868   7.697   8.422   3.813 -2.3673 -1.9502 -0.4096
  572MOL0     H78869   7.916   8.130   3.610 -1.8433 -0.2240 -0.9952
  572MOL0     H78870   7.780   8.024   3.643 -0.4871  0.0300  0.0023
  572MOL0     H78871   7.999   7.980   3.772 -0.0227  2.0494 -4.0783
  572MOL0     H78872   7.977   8.138   3.854 -0.7522  1.6896 -3.3655
  572MOL0     H78873   7.733   7.958   3.874  1.1856  1.0442 -4.7052
  572MOL0     H78874   7.875   7.886   3.943 -0.2506  0.6933 -0.6482
  572MOL0     H78875   7.754   8.001   4.112 -0.6184  0.9782  0.9930
  572MOL0     H78876   7.913   8.070   4.093  0.8371 -1.2887 -1.6473
  572MOL0     H78877   7.648   8.180   4.004 -0.2377  0.8488  2.8667
  572MOL0     H78878   7.797   8.263   3.966 -0.9165  1.2858  0.2668
  572MOL0     H78879   7.708   8.187   4.245 -0.4767  0.9197  0.6488
  572MOL0     H78880   7.835   8.299   4.211  0.4179  0.6140  0.4512
  572MOL0     H78881   7.543   8.345   4.147 -0.1059  0.8087 -0.3232
  572MOL0     H78882   7.672   8.462   4.119 -3.2669  1.5406  0.9478
  572MOL0     H78883   7.626   8.365   4.405 -3.9549  0.6347  1.0694
  572MOL0     H78884   7.740   8.489   4.335  0.5416 -1.3713 -0.5801
  572MOL0     H78885   7.583   8.692   4.183  0.3622  3.9746  0.9856
  572MOL0     H78886   7.311   8.872   4.362  1.8283  0.8798  1.8001
  572MOL0     H78887   7.293   8.803   4.200  0.4371 -4.2303  1.2319
  572MOL0     H78888   7.532   8.907   4.152  1.5185  1.4964 -1.6925
  572MOL0     H78889   7.390   9.019   4.170  1.1967 -2.2588 -1.4253
  572MOL0     H78890   7.477   9.097   4.366  0.2918  0.4187 -0.6368
  572MOL0     H78891   7.584   8.967   4.399  2.2647  1.2651 -0.7931
  572MOL0     H78892   7.740   9.148   4.311 -3.1845  2.1404  2.2490
  572MOL0     H78893   7.722   9.011   4.196 -2.0116 -1.4530  0.6798
  572MOL0     H78894   7.639   9.050   3.934  1.1782 -0.0309  1.2447
  572MOL0     H78895   7.693   8.973   3.755  1.4346 -0.6233  0.7351
  572MOL0     H78896   7.854   8.985   3.703  0.4765 -0.9491  0.5030
  572MOL0     H78897   7.729   9.100   3.631  0.5289  1.3137  0.9060
  572MOL0     H78898   8.327   9.320   3.733 -0.5474  1.4459  0.3027
  572MOL0     H78899   8.482   9.303   3.532  0.0484  2.2392 -0.6214
  572MOL0     H78900   8.325   9.483   3.139  1.6935  0.8334 -3.8499
  572MOL0     H78901   8.504   9.461   3.127  0.2362  1.8006  2.9097
  572MOL0     H78902   8.458   9.205   3.099  1.5776  1.4208  1.0843
  572MOL0     H78903   8.285   9.244   3.110 -1.5132  1.9098 -0.7808
  572MOL0     H78904   8.460   9.362   2.887  0.4603  2.2791  3.5557
  572MOL0     H78905   8.285   9.357   2.893 -1.0006 -0.9194 -0.1153
  572MOL0     H78906   8.461   9.105   2.911  3.7811  1.3948 -1.3712
  572MOL0     H78907   8.438   9.182   2.759  3.6246  0.9122  2.9204
  572MOL0     H78908   8.208   9.072   2.928  2.1552  0.2718  1.2012
  572MOL0     H78909   8.187   9.168   2.770 -1.9178 -0.9637 -0.5125
  572MOL0     H78910   8.314   8.893   2.831  0.5636 -1.0179 -1.4842
  572MOL0     H78911   8.341   8.977   2.681  2.3425  0.7549  2.2807
  572MOL0     H78912   8.059   8.880   2.785  1.0608 -0.1739 -0.5640
  572MOL0     H78913   8.156   8.803   2.662  2.3866  1.3253 -2.8611
  572MOL0     H78914   7.991   9.050   2.629  0.4523  2.8202 -0.5914
  572MOL0     H78915   8.041   8.920   2.520  0.8679  1.6325 -0.5001
  572MOL0     H78916   8.180   9.399   3.258  2.6505  3.4206  0.9359
  572MOL0     H78917   8.003   9.382   3.454  0.2157 -0.3911 -0.5610
  572MOL0     H78918   7.974   9.398   3.930  1.5191 -1.8765 -0.1985
  572MOL0     H78919   7.812   9.415   4.112 -2.6196  2.0979 -2.2115
  572MOL0     H78920   7.789   8.202   3.455  1.8771  1.0338 -0.7098
  572MOL0     H78921   7.750   8.409   3.327 -0.7677  0.0258  0.2882
  572MOL0     H78922   7.821   8.873   3.374  1.5021  2.2696 -0.5695
  572MOL0     H78923   7.820   9.083   3.298 -0.2454 -1.4954  3.5796
  572MOL0     H78924   7.792   9.286   3.208 -2.8390  4.2619 -1.2443
  572MOL0     H78925   7.881   9.181   3.100  1.1340  1.8924 -0.9723
  572MOL0     H78926   7.872   9.440   3.061 -0.1005  0.0690  0.2794
  572MOL0     H78927   7.709   9.429   3.001  2.0445  3.0528  0.6912
  572MOL0     H78928   7.893   9.436   2.842 -2.1765  0.7788 -0.5723
  572MOL0     H78929   7.951   9.278   2.874  2.7345  2.9155 -0.1273
  572MOL0     H78930   7.652   9.336   2.785 -1.0091 -0.2049  0.5336
  572MOL0     H78931   7.751   9.182   2.799  2.2400  0.3773 -0.6239
  572MOL0     H78932   7.827   9.278   2.419  1.6439  0.3503 -0.3803
  572MOL0     H78933   7.464   8.999   3.056  2.5214  1.1093 -0.4667
  572MOL0     H78934   7.389   8.778   3.056 -2.3253 -0.8014  0.3588
  572MOL0     H78935   7.441   8.648   3.157 -2.3767 -1.1670 -1.0773
  572MOL0     H78936   7.328   8.759   3.217  1.7706 -0.0436  0.5451
  573MOL0     O78937   6.215   4.987   7.220 -0.5436  0.4987 -0.0257
  573MOL0     C78938   6.106   5.038   7.242 -1.0734 -0.6953  0.4068
  573MOL0     O78939   6.015   5.063   7.142  0.9129  0.6340  0.0276
  573MOL0     C78940   6.067   5.103   7.023  0.9318 -0.5004  0.3934
  573MOL0     C78941   6.101   5.232   6.997 -1.5362 -0.0386 -0.9537
  573MOL0     C78942   6.154   5.268   6.876 -0.3878  0.6567 -0.2680
  573MOL0     C78943   6.151   5.170   6.764  0.4667 -0.9003 -0.0953
  573MOL0     O78944   6.179   5.200   6.638 -0.7329 -0.1406  0.0510
  573MOL0     C78945   6.219   5.328   6.596 -0.7475 -0.4717  0.6885
  573MOL0     C78946   6.320   5.309   6.483  0.3792 -0.0925 -0.3767
  573MOL0     C78947   6.406   5.434   6.462 -0.4658  0.5026  0.6755
  573MOL0     C78948   6.516   5.413   6.359 -0.7471 -0.8985  0.1335
  573MOL0     C78949   6.599   5.544   6.349  0.2870 -0.4156  0.5393
  573MOL0     C78950   6.520   5.648   6.261 -0.5102  0.4925 -0.6731
  573MOL0     C78951   6.590   5.781   6.244 -0.0173  0.3230  0.3894
  573MOL0     C78952   6.656   5.835   6.371  0.9140 -0.1913 -1.3178
  573MOL0     N78953   6.741   5.957   6.348  0.2599 -0.0704  0.2393
  573MOL0     C78954   6.687   6.078   6.327 -0.7073 -0.0883  1.4386
  573MOL0     C78955   6.786   6.153   6.297 -0.7944 -0.6062  0.3713
  573MOL0     C78956   6.781   6.298   6.262 -1.1037 -0.4362  0.2106
  573MOL0     C78957   6.739   6.393   6.370 -0.5329  0.4747  0.2299
  573MOL0     C78958   6.583   6.424   6.372  0.1124 -0.5761  0.0818
  573MOL0     C78959   6.537   6.514   6.487  0.4258  0.1492  0.3185
  573MOL0     O78960   6.598   6.644   6.469  1.1089 -0.5405  0.2842
  573MOL0     C78961   6.646   6.714   6.577  0.2580  0.2916 -0.8560
  573MOL0     C78962   6.591   6.708   6.711 -0.6365  0.6870  0.7443
  573MOL0     C78963   6.651   6.784   6.815  0.5463 -0.3953  0.1744
  573MOL0     C78964   6.585   6.792   6.949  0.2674  0.0031  0.8698
  573MOL0     C78965   6.771   6.855   6.794 -0.6598 -0.1918 -0.1261
  573MOL0     C78966   6.839   6.941   6.894 -0.2133  0.0169  0.7671
  573MOL0     O78967   6.969   6.930   6.897  0.0756 -0.4956  0.0342
  573MOL0     C78968   7.026   6.954   7.018  0.3188 -0.2336 -0.4655
  573MOL0     C78969   7.040   7.093   7.073 -0.9676 -1.1116  0.4001
  573MOL0     C78970   7.106   7.113   7.197  0.5628  0.7566 -0.4128
  573MOL0     C78971   7.139   7.011   7.281  0.0634 -0.2522  0.6758
  573MOL0     O78972   7.188   7.039   7.400  0.0894  0.4211  0.4336
  573MOL0     C78973   7.234   6.941   7.493 -0.4734  0.0122  0.6098
  573MOL0     C78974   7.340   7.006   7.582 -0.0362  0.0679  0.2266
  573MOL0     C78975   7.425   6.908   7.654  1.0827  0.7837 -0.6641
  573MOL0     C78976   7.483   6.990   7.782 -0.4963 -0.6765 -0.5709
  573MOL0     C78977   7.562   6.895   7.882  0.2918 -0.1442 -0.3225
  573MOL0     C78978   7.691   6.875   7.820  0.0037  0.1096  1.2349
  573MOL0     C78979   7.782   6.824   7.929 -1.1165  0.1629  0.1154
  573MOL0     C78980   7.901   6.749   7.873 -0.0298 -0.6867 -0.3417
  573MOL0    Cl78981   7.941   6.612   7.994  0.0878 -0.1128  0.0001
  573MOL0     C78982   7.126   6.880   7.223  0.3163  0.7402 -0.8209
  573MOL0     C78983   7.079   6.846   7.100 -0.0316 -0.3009  0.0275
  573MOL0     O78984   6.775   7.013   6.975 -0.1601  0.0315 -0.2077
  573MOL0     C78985   6.831   6.851   6.669 -0.6073  0.4528 -0.4026
  573MOL0     C78986   6.770   6.781   6.560  0.1695 -0.2156 -0.4985
  573MOL0     N78987   6.899   6.065   6.261 -0.1946 -0.4012  0.0377
  573MOL0     N78988   6.873   5.956   6.317 -1.0511 -0.2269 -0.0093
  573MOL0     C78989   6.117   5.046   6.802  0.3407 -0.9028  0.0231
  573MOL0     C78990   6.079   5.009   6.931 -0.3787 -0.5450  0.7160
  573MOL0     C78991   6.068   5.048   7.384  0.2537 -0.0952  0.1668
  573MOL0     C78992   5.936   5.108   7.408 -0.3405 -0.2739 -0.4890
  573MOL0     C78993   5.893   5.138   7.536 -0.2399  1.3484 -1.0850
  573MOL0     C78994   5.977   5.115   7.647  0.8343  0.4270  0.6267
  573MOL0     O78995   5.921   5.143   7.770 -0.1402 -0.9425 -0.2067
  573MOL0     C78996   5.995   5.160   7.892 -0.7626  0.3853  0.2884
  573MOL0     C78997   6.026   5.306   7.912 -0.3826  0.0937 -0.8785
  573MOL0     C78998   6.138   5.337   8.008  0.0829 -0.7939  0.5300
  573MOL0     C78999   6.188   5.482   8.012 -0.1413 -0.2940  0.0407
  573MOL0     C79000   6.219   5.533   7.875 -0.0743 -0.0600 -0.0485
  573MOL0     C79001   6.225   5.568   7.760 -0.4010 -0.2654  0.3362
  573MOL0     C79002   6.103   5.050   7.627 -0.5693  0.4640  0.4742
  573MOL0     C79003   6.149   5.021   7.494 -0.7987 -0.2556 -0.3550
  573MOL0     C79004   6.276   4.943   7.479 -0.5565 -0.1749 -0.4087
  573MOL0     H79005   6.099   5.311   7.072  1.0698  1.1183 -1.9798
  573MOL0     H79006   6.161   5.374   6.856 -2.4500  0.6623 -1.1823
  573MOL0     H79007   6.283   5.383   6.665  2.1280 -0.8486 -1.4987
  573MOL0     H79008   6.134   5.391   6.565  0.1317  3.8466  5.6102
  573MOL0     H79009   6.379   5.223   6.515  2.2054  1.1142 -0.3474
  573MOL0     H79010   6.257   5.297   6.394  0.1995 -0.1574 -0.2391
  573MOL0     H79011   6.344   5.520   6.436  1.0917  1.7204  0.8514
  573MOL0     H79012   6.455   5.457   6.557  0.0755  0.1002  0.5044
  573MOL0     H79013   6.589   5.338   6.390  1.0526 -0.4121 -2.5365
  573MOL0     H79014   6.461   5.385   6.269 -1.7198  2.7363 -0.5671
  573MOL0     H79015   6.692   5.520   6.296 -0.4210 -0.8922 -0.5379
  573MOL0     H79016   6.602   5.577   6.453 -1.6936 -3.5541  1.7432
  573MOL0     H79017   6.502   5.610   6.159 -1.4785  1.5581 -0.9154
  573MOL0     H79018   6.425   5.675   6.309 -1.5816 -1.9486 -1.2592
  573MOL0     H79019   6.516   5.852   6.205 -1.6989 -0.0994  2.6174
  573MOL0     H79020   6.671   5.753   6.175 -0.7508 -0.9149 -0.0148
  573MOL0     H79021   6.578   5.855   6.444  0.5868 -0.7396 -1.5133
  573MOL0     H79022   6.724   5.764   6.420  2.2427 -0.6263 -3.6431
  573MOL0     H79023   6.583   6.104   6.341 -0.3912  1.7076  0.8099
  573MOL0     H79024   6.725   6.307   6.169  2.4686  2.5373 -1.9574
  573MOL0     H79025   6.887   6.321   6.246 -1.0890  0.1130  1.0044
  573MOL0     H79026   6.750   6.346   6.469 -0.5372 -0.0874 -0.0301
  573MOL0     H79027   6.805   6.480   6.372  1.6243 -1.0735  1.0014
  573MOL0     H79028   6.546   6.454   6.274 -1.8753 -0.9603  0.6529
  573MOL0     H79029   6.524   6.331   6.373 -0.5835 -0.1441  1.5200
  573MOL0     H79030   6.427   6.512   6.493  0.4737  0.6538  3.6184
  573MOL0     H79031   6.563   6.473   6.585  0.7926 -1.2280 -0.3355
  573MOL0     H79032   6.502   6.652   6.737 -0.1270 -0.2592  0.4841
  573MOL0     H79033   6.568   6.898   6.972 -0.7286 -0.4904  2.6364
  573MOL0     H79034   6.662   6.756   7.018  0.8437  0.3385  0.4072
  573MOL0     H79035   6.488   6.741   6.954  0.0276  0.3940  0.3103
  573MOL0     H79036   7.022   7.176   7.006  2.5095 -0.3230  0.2256
  573MOL0     H79037   7.117   7.214   7.235  1.5870  0.5884 -0.2325
  573MOL0     H79038   7.145   6.900   7.542  1.1966 -2.2765  1.9537
  573MOL0     H79039   7.275   6.847   7.455 -0.1597 -0.6712  2.5274
  573MOL0     H79040   7.393   7.088   7.533 -0.9516 -0.0584 -1.0293
  573MOL0     H79041   7.287   7.059   7.662  0.5005 -4.2521  3.8177
  573MOL0     H79042   7.501   6.853   7.598  0.7650  1.1021 -1.4162
  573MOL0     H79043   7.350   6.836   7.687  1.3345  1.4375  1.5172
  573MOL0     H79044   7.392   7.024   7.833 -3.2339 -1.8660 -4.2274
  573MOL0     H79045   7.537   7.079   7.746 -0.5668  0.3188  1.6265
  573MOL0     H79046   7.576   6.949   7.976  1.1277  3.1437 -2.2059
  573MOL0     H79047   7.502   6.804   7.894  0.0732 -0.3076 -2.3971
  573MOL0     H79048   7.740   6.964   7.779  1.8854 -1.8935 -1.2340
  573MOL0     H79049   7.682   6.798   7.742  0.6915  0.8869  0.3544
  573MOL0     H79050   7.734   6.751   7.994  0.0153  2.5413  3.9715
  573MOL0     H79051   7.822   6.909   7.985 -0.3435 -0.3506  0.3537
  573MOL0     H79052   7.991   6.808   7.853  0.0963 -0.2860  1.2373
  573MOL0     H79053   7.877   6.706   7.776  1.7014 -0.0415 -1.0995
  573MOL0     H79054   7.155   6.802   7.294 -2.1138  0.7185  0.2666
  573MOL0     H79055   7.065   6.744   7.067 -0.2494 -1.0831  2.3148
  573MOL0     H79056   6.913   6.916   6.641  1.0593 -1.3196  0.1704
  573MOL0     H79057   6.800   6.798   6.457  0.2710  1.5007 -0.2110
  573MOL0     H79058   6.115   4.968   6.727  3.2485 -2.7236  1.6228
  573MOL0     H79059   6.036   4.910   6.938  0.6075 -1.6027 -4.1885
  573MOL0     H79060   5.856   5.137   7.341 -2.1466 -1.5906  0.9843
  573MOL0     H79061   5.800   5.191   7.551 -2.3578 -1.6024 -2.8061
  573MOL0     H79062   5.925   5.111   7.961 -0.9896 -0.4888 -0.5378
  573MOL0     H79063   6.085   5.098   7.883 -1.1313  0.1614 -2.7640
  573MOL0     H79064   5.934   5.357   7.942 -1.9718 -1.1187 -3.3931
  573MOL0     H79065   6.048   5.350   7.814 -0.4582  0.1068 -0.8896
  573MOL0     H79066   6.102   5.315   8.109 -1.1624  0.7726  0.4731
  573MOL0     H79067   6.219   5.277   7.966 -1.0735 -2.4539  0.5341
  573MOL0     H79068   6.280   5.490   8.072 -0.9880  0.1482  1.3229
  573MOL0     H79069   6.108   5.544   8.053 -0.9631  0.6008 -2.7067
  573MOL0     H79070   6.240   5.601   7.659 -0.5134  2.2039  1.0704
  573MOL0     H79071   6.156   5.005   7.711 -2.2439 -1.9604  0.3317
  573MOL0     H79072   6.261   4.855   7.416  0.4766 -0.4057 -0.3596
  573MOL0     H79073   6.356   4.997   7.429 -2.9086  1.4602 -2.6399
  573MOL0     H79074   6.311   4.908   7.577 -4.5843 -2.0634  0.5860
  574MOL0     O79075  10.712  11.255   1.270  0.3278 -0.2598 -0.6496
  574MOL0     C79076  10.816  11.265   1.205  0.2649 -0.0018 -0.1094
  574MOL0     O79077  10.930  11.321   1.252 -0.6647  0.1527 -0.5260
  574MOL0     C79078  10.941  11.350   1.386  0.0677  1.0544  0.2448
  574MOL0     C79079  11.025  11.278   1.466  0.4955  0.1723  0.0162
  574MOL0     C79080  11.040  11.320   1.595 -0.4138 -0.1734  0.7625
  574MOL0     C79081  10.962  11.421   1.655  0.1453 -0.4384 -0.5545
  574MOL0     O79082  10.982  11.444   1.787 -0.0906  0.2640  0.4652
  574MOL0     C79083  10.923  11.558   1.842  0.3582 -1.0568 -0.4462
  574MOL0     C79084  10.948  11.563   1.986  1.0787 -0.3892  0.0556
  574MOL0     C79085  10.820  11.605   2.064 -0.0545 -0.1189  0.2778
  574MOL0     C79086  10.838  11.680   2.198 -1.0482  0.4075  0.3036
  574MOL0     C79087  10.711  11.687   2.272  0.5851 -0.1993  0.4894
  574MOL0     C79088  10.604  11.775   2.211  0.3961 -0.0247  0.7910
  574MOL0     C79089  10.461  11.759   2.287  0.8219 -0.6160  1.0619
  574MOL0     C79090  10.455  11.843   2.410 -0.5565 -0.6486  0.8052
  574MOL0     N79091  10.335  11.812   2.484 -0.1386 -0.0393  0.8111
  574MOL0     C79092  10.289  11.693   2.551  0.2178 -0.7199 -0.1351
  574MOL0     C79093  10.174  11.708   2.612 -0.2870  0.2195 -0.5980
  574MOL0     C79094  10.104  11.597   2.686  0.4456 -0.5402  0.3720
  574MOL0     C79095  10.173  11.573   2.818  0.1527  0.0697 -0.8091
  574MOL0     C79096  10.095  11.481   2.909 -1.4405  0.3596  0.1940
  574MOL0     C79097  10.136  11.338   2.894 -1.2458  0.4297 -0.1243
  574MOL0     O79098  10.075  11.303   2.775  0.1068 -0.5580  0.4789
  574MOL0     C79099  10.125  11.202   2.693 -0.2166  0.5188  0.6593
  574MOL0     C79100  10.073  11.071   2.701  0.0942 -0.3376 -0.1110
  574MOL0     C79101  10.105  10.975   2.607  0.3556  0.7386 -0.4789
  574MOL0     C79102  10.064  10.836   2.662  0.1590  0.1789  0.1068
  574MOL0     C79103  10.175  11.000   2.490 -1.1479 -0.5602 -0.6128
  574MOL0     C79104  10.186  10.904   2.377  0.0014 -0.7676  0.7988
  574MOL0     O79105  10.282  10.943   2.282 -0.3052  0.7579 -0.2610
  574MOL0     C79106  10.297  10.862   2.175  0.0507 -0.4522  1.0609
  574MOL0     C79107  10.299  10.730   2.181  0.3450  0.9413 -0.1481
  574MOL0     C79108  10.310  10.655   2.066 -0.1523 -0.3660  0.5706
  574MOL0     C79109  10.326  10.705   1.941 -0.0503 -0.5235 -0.5085
  574MOL0     O79110  10.322  10.635   1.827  0.4665  0.1379  0.8383
  574MOL0     C79111  10.296  10.496   1.825 -0.1196 -0.7227  0.1526
  574MOL0     C79112  10.410  10.405   1.871  0.2102 -0.4643  0.5903
  574MOL0     C79113  10.511  10.390   1.766 -0.2840  0.6280 -0.0737
  574MOL0     C79114  10.659  10.371   1.794 -0.8723 -0.2034  0.8021
  574MOL0     C79115  10.740  10.378   1.657  1.1637 -0.7946 -1.2256
  574MOL0     C79116  10.893  10.384   1.674 -0.0185  0.0744 -0.1492
  574MOL0     C79117  10.959  10.421   1.553 -0.3056 -0.6359 -0.6355
  574MOL0     C79118  11.110  10.449   1.580  0.3705 -0.5841 -0.1562
  574MOL0    Cl79119  11.118  10.617   1.604 -0.2568  0.2259 -0.0877
  574MOL0     C79120  10.348  10.845   1.939 -0.3521 -0.0927  0.5285
  574MOL0     C79121  10.320  10.927   2.054 -0.6077 -0.0079  1.3120
  574MOL0     O79122  10.097  10.814   2.371 -0.1422 -0.3657  0.7101
  574MOL0     C79123  10.233  11.122   2.484 -0.0214 -0.7112  0.9757
  574MOL0     C79124  10.208  11.222   2.586 -0.4559 -0.0616  0.2380
  574MOL0     N79125  10.145  11.837   2.596  0.0822 -0.9803 -0.8140
  574MOL0     N79126  10.242  11.903   2.529  0.3344  0.0032 -0.3893
  574MOL0     C79127  10.879  11.501   1.563  0.3270  0.6347 -0.4745
  574MOL0     C79128  10.872  11.465   1.434  0.3471  0.7387 -0.3423
  574MOL0     C79129  10.805  11.226   1.062 -0.6088  0.1263 -0.3108
  574MOL0     C79130  10.907  11.136   1.018  0.7676  0.0461 -0.1533
  574MOL0     C79131  10.908  11.093   0.887  0.5186 -0.2878 -0.9539
  574MOL0     C79132  10.799  11.122   0.810  0.3960 -0.4602 -0.2568
  574MOL0     O79133  10.774  11.075   0.684 -0.2710 -0.1949 -0.4818
  574MOL0     C79134  10.870  11.014   0.606  1.4436  0.2236  0.3892
  574MOL0     C79135  10.812  10.963   0.475  0.2892 -0.2457 -0.1839
  574MOL0     C79136  10.920  10.918   0.371  0.4212  0.1468 -1.1618
  574MOL0     C79137  11.006  10.799   0.419 -0.0653 -0.5320 -0.4017
  574MOL0     C79138  11.083  10.749   0.305  0.2915 -0.5814  0.4619
  574MOL0     C79139  11.140  10.699   0.213 -1.0654 -1.3519  0.0800
  574MOL0     C79140  10.698  11.208   0.851 -0.0939 -0.5479 -0.6419
  574MOL0     C79141  10.700  11.262   0.981  0.9522  0.0078  0.0931
  574MOL0     C79142  10.594  11.360   1.036 -0.5111  0.6236 -0.0637
  574MOL0     H79143  11.070  11.187   1.428 -0.4101 -1.4967  2.6074
  574MOL0     H79144  11.126  11.271   1.640  1.3157  1.0021 -1.0972
  574MOL0     H79145  10.817  11.567   1.817  0.7849  1.2208 -1.7372
  574MOL0     H79146  10.971  11.646   1.798  0.0285 -0.3884  0.5045
  574MOL0     H79147  10.981  11.463   2.017 -0.1611 -1.3920 -1.6900
  574MOL0     H79148  11.028  11.631   2.016 -0.6911  1.0552  1.7036
  574MOL0     H79149  10.763  11.682   2.010  1.8644  0.2312 -1.3868
  574MOL0     H79150  10.760  11.519   2.093 -0.0422 -0.6460 -1.1543
  574MOL0     H79151  10.906  11.629   2.267 -1.1997 -0.5268 -0.2142
  574MOL0     H79152  10.886  11.777   2.183 -0.8593  0.3082  0.2469
  574MOL0     H79153  10.739  11.722   2.372 -0.7131  0.3955  0.6605
  574MOL0     H79154  10.677  11.583   2.278 -2.1058  0.6467  1.3851
  574MOL0     H79155  10.634  11.880   2.212 -2.0016  0.7325  1.4312
  574MOL0     H79156  10.596  11.751   2.104 -1.1893 -0.3936  0.9595
  574MOL0     H79157  10.439  11.653   2.303  2.2186 -1.7483 -3.2773
  574MOL0     H79158  10.384  11.796   2.218  2.1663 -1.0355 -0.7337
  574MOL0     H79159  10.541  11.817   2.473  1.1116 -3.2151 -2.1966
  574MOL0     H79160  10.469  11.946   2.376  3.7783 -0.1108  3.5023
  574MOL0     H79161  10.322  11.590   2.541  1.2126 -0.4049 -0.2682
  574MOL0     H79162  10.098  11.505   2.627  0.1715 -0.5408  0.3994
  574MOL0     H79163  10.001  11.627   2.704 -0.7548 -2.6887 -2.1861
  574MOL0     H79164  10.267  11.520   2.799  0.0308 -0.6327  0.4597
  574MOL0     H79165  10.192  11.676   2.851  1.7626 -0.3127 -0.4444
  574MOL0     H79166  10.105  11.514   3.012 -2.2868  1.2015  0.0128
  574MOL0     H79167   9.990  11.487   2.880 -2.0075  2.3553  2.3726
  574MOL0     H79168  10.245  11.336   2.904 -1.3645  1.0868  1.7220
  574MOL0     H79169  10.096  11.284   2.980 -2.8229 -0.3283 -1.2883
  574MOL0     H79170   9.993  11.062   2.774  1.6705 -3.0648  1.4116
  574MOL0     H79171   9.955  10.831   2.675  0.0890  0.3837 -0.3498
  574MOL0     H79172  10.092  10.819   2.766 -0.6671  1.4241  0.5531
  574MOL0     H79173  10.094  10.743   2.611 -0.0314  0.5642 -0.7280
  574MOL0     H79174  10.270  10.682   2.274 -0.3858  2.7239  0.5848
  574MOL0     H79175  10.307  10.547   2.081 -3.8947 -0.4485  0.2364
  574MOL0     H79176  10.207  10.469   1.883 -0.2026 -2.1799 -0.6106
  574MOL0     H79177  10.273  10.468   1.722 -0.3154  1.9040 -0.5860
  574MOL0     H79178  10.461  10.440   1.961  2.1050  1.4043 -1.0766
  574MOL0     H79179  10.351  10.318   1.899 -0.8092  0.9251  3.0015
  574MOL0     H79180  10.502  10.470   1.692  0.7388 -2.0266 -3.3243
  574MOL0     H79181  10.481  10.301   1.709 -1.9368 -0.5282  2.4719
  574MOL0     H79182  10.683  10.283   1.854 -0.2829 -0.1755  0.6159
  574MOL0     H79183  10.695  10.453   1.856  1.8498 -0.1172 -0.7618
  574MOL0     H79184  10.697  10.288   1.611 -3.0213 -1.6699  3.4417
  574MOL0     H79185  10.706  10.464   1.600  1.0099 -1.4563 -2.1510
  574MOL0     H79186  10.934  10.292   1.717 -0.1857 -0.1010 -0.3608
  574MOL0     H79187  10.912  10.465   1.745 -1.1842 -2.7781  3.7747
  574MOL0     H79188  10.916  10.511   1.508 -0.4572 -1.4145 -2.0897
  574MOL0     H79189  10.955  10.336   1.484  1.6654 -0.7954 -0.6067
  574MOL0     H79190  11.170  10.424   1.491  0.8956  0.0997 -0.0100
  574MOL0     H79191  11.139  10.397   1.671 -1.7771 -1.5283  0.0380
  574MOL0     H79192  10.338  10.897   1.843  0.5795 -0.9683 -0.0612
  574MOL0     H79193  10.315  11.035   2.052  0.4879  0.0573 -1.2145
  574MOL0     H79194  10.290  11.145   2.395 -2.2065  0.8747 -0.1221
  574MOL0     H79195  10.251  11.318   2.560 -0.5432 -0.4361 -1.3849
  574MOL0     H79196  10.843  11.600   1.589 -0.7125  0.8889 -2.5984
  574MOL0     H79197  10.812  11.527   1.368 -2.1917 -2.5183 -1.3163
  574MOL0     H79198  10.982  11.097   1.086 -0.6113 -0.3379  1.2008
  574MOL0     H79199  10.983  11.029   0.841  2.6573  0.8045  0.7998
  574MOL0     H79200  10.947  11.090   0.590 -0.9028  2.4681 -0.9992
  574MOL0     H79201  10.907  10.925   0.658 -1.9648 -2.1660 -0.8616
  574MOL0     H79202  10.745  11.039   0.433  1.3146  0.0547 -1.3222
  574MOL0     H79203  10.757  10.873   0.505  0.2847 -0.7106 -1.5351
  574MOL0     H79204  10.868  10.898   0.277 -0.5337 -2.1447 -0.2275
  574MOL0     H79205  10.985  11.003   0.349  2.8869 -1.3364  0.0239
  574MOL0     H79206  10.946  10.710   0.438 -0.7009 -0.1469 -0.6070
  574MOL0     H79207  11.080  10.818   0.498 -1.6122  5.4072  0.1013
  574MOL0     H79208  11.196  10.658   0.130  1.9585  3.2252 -0.4881
  574MOL0     H79209  10.620  11.228   0.777  1.8935  1.7627 -2.2702
  574MOL0     H79210  10.528  11.295   1.095 -0.0959 -0.4548 -0.7537
  574MOL0     H79211  10.647  11.444   1.081 -2.7784  1.7915  0.5899
  574MOL0     H79212  10.522  11.401   0.964  0.3661  0.8018 -0.8606
  575MOL0     O79213   0.471   3.617   0.128 -0.4535  0.4639 -0.0581
  575MOL0     C79214   0.528   3.541   0.053  0.2219 -0.2927  0.2491
  575MOL0     O79215   0.511   3.540  -0.081  0.2709 -0.5218 -0.0204
  575MOL0     C79216   0.425   3.616  -0.149  0.5512  0.0340  0.4631
  575MOL0     C79217   0.295   3.643  -0.109  0.4541 -0.3762 -0.3739
  575MOL0     C79218   0.216   3.725  -0.196  0.2109 -0.6811 -0.5032
  575MOL0     C79219   0.263   3.779  -0.316  0.2034  0.1885 -0.5552
  575MOL0     O79220   0.197   3.866  -0.398 -0.5960  0.0341  0.1883
  575MOL0     C79221   0.062   3.910  -0.375 -0.2341 -0.9415 -0.2045
  575MOL0     C79222   0.035   4.040  -0.461  0.4121 -0.2155  0.3311
  575MOL0     C79223  -0.104   4.090  -0.435  0.4370  0.3290  1.0492
  575MOL0     C79224  -0.144   4.205  -0.524  0.8621 -0.6835  0.2193
  575MOL0     C79225  -0.273   4.268  -0.487  0.1804 -0.8402 -0.2920
  575MOL0     C79226  -0.305   4.403  -0.561  0.2515 -0.2331  0.0733
  575MOL0     C79227  -0.448   4.446  -0.530  0.7518 -0.2297  0.5906
  575MOL0     C79228  -0.512   4.545  -0.626  0.3397  0.2529 -0.1291
  575MOL0     N79229  -0.481   4.684  -0.592 -0.4741 -0.1562  0.5405
  575MOL0     C79230  -0.410   4.768  -0.679  0.4614  1.2019 -0.0575
  575MOL0     C79231  -0.385   4.876  -0.597 -0.3046  0.5206  0.4241
  575MOL0     C79232  -0.297   4.989  -0.637 -0.3771 -0.2729  0.4470
  575MOL0     C79233  -0.246   5.071  -0.504  0.2787 -0.2435  0.2634
  575MOL0     C79234  -0.131   5.170  -0.536  0.2647 -0.1637 -0.4924
  575MOL0     C79235  -0.173   5.278  -0.632  0.3219  0.0509  1.0344
  575MOL0     O79236  -0.078   5.379  -0.662 -0.4752 -0.6623 -0.5237
  575MOL0     C79237   0.040   5.341  -0.738  0.2289  0.4386 -0.0940
  575MOL0     C79238   0.114   5.449  -0.777  0.1523 -0.5250  0.0824
  575MOL0     C79239   0.240   5.427  -0.835 -0.1422 -0.3713 -0.9732
  575MOL0     C79240   0.322   5.552  -0.855  0.3118 -0.4076  1.0851
  575MOL0     C79241   0.288   5.294  -0.862 -0.7718  0.0353 -0.3636
  575MOL0     C79242   0.421   5.261  -0.911 -0.0747 -0.5043 -0.1044
  575MOL0     O79243   0.517   5.332  -0.843 -0.3018 -0.5501  0.2260
  575MOL0     C79244   0.646   5.290  -0.829  0.1173 -0.2042  0.0918
  575MOL0     C79245   0.687   5.161  -0.861 -1.5662  0.2047  0.0743
  575MOL0     C79246   0.818   5.122  -0.858  0.7702  0.5881  0.1701
  575MOL0     C79247   0.921   5.209  -0.827 -0.0904 -0.5877  0.4962
  575MOL0     O79248   1.055   5.172  -0.834 -0.0832  0.0805  0.1497
  575MOL0     C79249   1.161   5.250  -0.781 -0.7989  0.3308 -0.3264
  575MOL0     C79250   1.260   5.154  -0.722  0.6144 -0.2976  0.0699
  575MOL0     C79251   1.305   5.065  -0.838 -0.2815  0.6787 -0.0833
  575MOL0     C79252   1.399   4.952  -0.782  0.0901 -0.9351  0.5810
  575MOL0     C79253   1.539   5.009  -0.739  0.4194 -0.0362 -1.1163
  575MOL0     C79254   1.636   4.897  -0.707  0.1788  0.2509  0.2403
  575MOL0     C79255   1.780   4.949  -0.694  0.2664 -1.1876  0.4827
  575MOL0     C79256   1.872   4.899  -0.583  0.7155  0.0710 -0.1375
  575MOL0    Cl79257   1.914   4.730  -0.608 -0.1711 -0.1783 -0.1125
  575MOL0     C79258   0.883   5.342  -0.787 -0.3137 -0.4561 -0.1456
  575MOL0     C79259   0.746   5.373  -0.787 -0.8737  0.6454 -0.0188
  575MOL0     O79260   0.434   5.174  -0.995 -0.9892 -0.0951 -0.2863
  575MOL0     C79261   0.192   5.198  -0.858 -0.2563  0.5650  0.1016
  575MOL0     C79262   0.070   5.215  -0.787  0.2097  1.0255 -0.2520
  575MOL0     N79263  -0.453   4.858  -0.482 -0.1233  0.1727 -0.9304
  575MOL0     N79264  -0.507   4.744  -0.474  0.1723  0.1919 -0.0754
  575MOL0     C79265   0.388   3.746  -0.364  0.1199 -0.0979  0.3120
  575MOL0     C79266   0.460   3.664  -0.278 -0.8839  0.3445  0.9350
  575MOL0     C79267   0.633   3.451   0.107 -1.0003  0.1375  0.9445
  575MOL0     C79268   0.706   3.500   0.226 -0.2816 -0.3864  0.3763
  575MOL0     C79269   0.809   3.432   0.281 -0.2621  0.2220 -0.6089
  575MOL0     C79270   0.847   3.312   0.231  0.4851 -0.6461  0.4736
  575MOL0     O79271   0.942   3.244   0.306 -1.1312  0.1596  0.5209
  575MOL0     C79272   0.976   3.102   0.277  0.4289 -0.6155  0.2334
  575MOL0     C79273   1.077   3.042   0.384  0.4306  0.2560 -0.6557
  575MOL0     C79274   1.007   3.039   0.523  0.7562 -0.4559 -0.5258
  575MOL0     C79275   0.898   2.921   0.535  1.0372  0.0553 -0.4069
  575MOL0     C79276   0.964   2.789   0.526  0.8218  0.3624  0.2237
  575MOL0     C79277   1.016   2.678   0.524 -0.0092 -0.0251  0.2073
  575MOL0     C79278   0.788   3.259   0.114  0.7510  0.0555 -0.3046
  575MOL0     C79279   0.678   3.329   0.051 -0.4181  0.6946 -0.1024
  575MOL0     C79280   0.608   3.250  -0.062 -0.0318  0.4045 -0.3454
  575MOL0     H79281   0.268   3.605  -0.011  1.6751  0.8871  0.4929
  575MOL0     H79282   0.112   3.736  -0.165  0.0839 -3.7003  0.4562
  575MOL0     H79283   0.047   3.937  -0.270  0.0206  0.5033 -0.5202
  575MOL0     H79284  -0.009   3.830  -0.399  1.0701 -1.5151 -2.3684
  575MOL0     H79285   0.105   4.117  -0.427 -1.2810  1.3224  0.5090
  575MOL0     H79286   0.051   4.020  -0.567  0.3277  0.0962  0.2592
  575MOL0     H79287  -0.186   4.020  -0.454  1.1313  0.4995 -3.7200
  575MOL0     H79288  -0.118   4.124  -0.331 -3.1311  0.3739  0.7039
  575MOL0     H79289  -0.072   4.288  -0.522  0.3393 -0.2037  3.5972
  575MOL0     H79290  -0.144   4.163  -0.625  0.6122 -2.4803  0.9381
  575MOL0     H79291  -0.277   4.297  -0.382  1.1020 -0.1726 -0.4254
  575MOL0     H79292  -0.357   4.200  -0.504 -3.0857  2.5784  0.8006
  575MOL0     H79293  -0.234   4.480  -0.532  0.0579  0.4477 -1.1930
  575MOL0     H79294  -0.295   4.385  -0.669  1.1408 -1.3571  0.3216
  575MOL0     H79295  -0.462   4.477  -0.426  1.7933 -2.5681  1.5113
  575MOL0     H79296  -0.498   4.349  -0.544 -0.1478  0.4762 -1.5025
  575MOL0     H79297  -0.468   4.524  -0.725 -0.7202 -3.6092  0.0367
  575MOL0     H79298  -0.619   4.521  -0.631  1.2895 -5.0896 -3.5847
  575MOL0     H79299  -0.363   4.743  -0.773 -0.6350 -2.1506  0.1631
  575MOL0     H79300  -0.354   5.057  -0.701  2.4571  0.7123 -1.2269
  575MOL0     H79301  -0.210   4.959  -0.696  1.4454 -0.4354  3.0597
  575MOL0     H79302  -0.326   5.134  -0.467  1.7382  2.4655 -0.9066
  575MOL0     H79303  -0.226   4.996  -0.426 -3.5171 -2.7583 -0.9126
  575MOL0     H79304  -0.116   5.212  -0.436 -1.8673 -1.0996  0.2872
  575MOL0     H79305  -0.041   5.113  -0.561  0.6166  0.8492 -1.6496
  575MOL0     H79306  -0.201   5.233  -0.728  0.1713  1.2600  0.4902
  575MOL0     H79307  -0.260   5.330  -0.591  1.7190  1.0982  2.7782
  575MOL0     H79308   0.081   5.550  -0.753  3.6565  0.9396 -0.6923
  575MOL0     H79309   0.269   5.628  -0.797  1.3778 -0.0082  1.5637
  575MOL0     H79310   0.323   5.580  -0.961  0.4597  1.0694  1.4599
  575MOL0     H79311   0.422   5.560  -0.811  1.6440 -0.9187 -1.5978
  575MOL0     H79312   0.612   5.087  -0.887 -0.9076 -0.0720 -1.1104
  575MOL0     H79313   0.835   5.021  -0.893  2.4638  0.5938  0.8788
  575MOL0     H79314   1.212   5.304  -0.862 -0.5107 -0.6571 -0.8236
  575MOL0     H79315   1.129   5.322  -0.705  0.4844  0.6816 -0.0952
  575MOL0     H79316   1.342   5.213  -0.680  1.8732 -2.7329  1.1924
  575MOL0     H79317   1.215   5.090  -0.646 -0.6562  0.3523 -0.1072
  575MOL0     H79318   1.356   5.119  -0.918  1.2202  3.8763  2.7914
  575MOL0     H79319   1.215   5.018  -0.877  0.4631  1.1450 -2.5300
  575MOL0     H79320   1.427   4.880  -0.859  3.3703 -0.4286  1.1307
  575MOL0     H79321   1.356   4.912  -0.690 -0.0339 -0.8550  0.5566
  575MOL0     H79322   1.577   5.075  -0.818  2.4363 -0.5124 -0.5936
  575MOL0     H79323   1.520   5.072  -0.651  1.8594 -1.6748  0.4272
  575MOL0     H79324   1.627   4.819  -0.784  0.3709 -0.1954  0.6682
  575MOL0     H79325   1.603   4.844  -0.618 -0.9403 -1.6976 -1.2395
  575MOL0     H79326   1.776   5.058  -0.699 -1.0551 -1.1939  1.0546
  575MOL0     H79327   1.837   4.920  -0.783  2.6940  3.1111  0.3282
  575MOL0     H79328   1.834   4.924  -0.483 -0.1939 -1.2071 -0.1313
  575MOL0     H79329   1.965   4.952  -0.607  2.9506 -2.5180  2.0136
  575MOL0     H79330   0.949   5.418  -0.746 -1.3686  0.2624  0.2511
  575MOL0     H79331   0.721   5.477  -0.764  1.1107  0.7838  1.8270
  575MOL0     H79332   0.222   5.104  -0.902 -0.6574 -0.9923  2.8779
  575MOL0     H79333  -0.000   5.132  -0.790  0.6181  0.7172 -2.1530
  575MOL0     H79334   0.425   3.789  -0.456 -3.2034  0.7538 -0.7637
  575MOL0     H79335   0.548   3.631  -0.333 -1.5547 -0.0729  0.0902
  575MOL0     H79336   0.673   3.594   0.269 -0.8572 -1.0481  1.4400
  575MOL0     H79337   0.858   3.477   0.367 -0.5878 -1.1985  0.3469
  575MOL0     H79338   0.888   3.038   0.267 -2.1956  2.7106  0.3213
  575MOL0     H79339   1.026   3.096   0.179  0.6571 -2.7104  0.4270
  575MOL0     H79340   1.169   3.101   0.388  2.1809 -2.2588 -1.4766
  575MOL0     H79341   1.097   2.936   0.365  3.3611  1.0743 -2.8385
  575MOL0     H79342   1.084   3.017   0.597  2.9263  0.1964 -2.4492
  575MOL0     H79343   0.951   3.129   0.550  1.8028 -0.7206  2.9930
  575MOL0     H79344   0.810   2.926   0.469 -1.8733 -0.2437  3.1404
  575MOL0     H79345   0.869   2.926   0.640  0.0878  2.9284 -0.7220
  575MOL0     H79346   1.071   2.587   0.539 -0.2204  0.1658  2.3976
  575MOL0     H79347   0.809   3.161   0.074  1.7353 -0.0567  0.4608
  575MOL0     H79348   0.511   3.210  -0.030 -0.0556 -0.0798 -1.0148
  575MOL0     H79349   0.603   3.304  -0.156  2.5448 -0.5974 -1.1419
  575MOL0     H79350   0.665   3.162  -0.093 -1.4912 -0.0097 -2.0112
  576MOL0     O79351   9.764  10.696   3.393 -0.3637 -0.9518  0.0904
  576MOL0     C79352   9.848  10.619   3.422 -1.3284 -0.2818  1.0364
  576MOL0     O79353   9.857  10.490   3.380 -0.8978  0.0051 -0.2695
  576MOL0     C79354   9.790  10.438   3.281 -0.4805 -0.1208  0.1894
  576MOL0     C79355   9.856  10.384   3.174 -0.9866  0.7824  0.3011
  576MOL0     C79356   9.788  10.304   3.078 -0.1791 -0.3483 -0.1519
  576MOL0     C79357   9.648  10.281   3.087  0.6448  0.5100 -0.6363
  576MOL0     O79358   9.584  10.180   3.016 -0.6446  0.1788  0.1661
  576MOL0     C79359   9.603  10.205   2.870 -0.1973  0.3613 -0.5512
  576MOL0     C79360   9.517  10.122   2.787 -0.4551 -0.7582  0.1919
  576MOL0     C79361   9.542   9.968   2.782  0.0357 -0.1274 -0.4017
  576MOL0     C79362   9.406   9.896   2.791  0.3948 -1.6915  0.3386
  576MOL0     C79363   9.415   9.744   2.784  0.1764 -0.3978 -0.1624
  576MOL0     C79364   9.276   9.671   2.816  0.1942  0.0816  0.7919
  576MOL0     C79365   9.279   9.526   2.784  0.0410  0.0870 -0.1326
  576MOL0     C79366   9.337   9.436   2.888  0.0028  0.0490 -0.0822
  576MOL0     N79367   9.278   9.424   3.015 -0.4149 -0.0282 -0.1818
  576MOL0     C79368   9.147   9.436   3.054 -1.1159 -0.9871 -0.3737
  576MOL0     C79369   9.146   9.407   3.191 -0.7950 -0.4507  0.3283
  576MOL0     C79370   9.021   9.403   3.280 -0.7441  0.8032  1.0776
  576MOL0     C79371   8.947   9.265   3.270 -0.0688 -0.1753 -1.1461
  576MOL0     C79372   8.802   9.297   3.308  0.4255  0.2999  0.3507
  576MOL0     C79373   8.716   9.160   3.279 -0.6729 -1.2930 -0.0542
  576MOL0     O79374   8.744   9.057   3.370 -0.4314  0.1012 -0.3702
  576MOL0     C79375   8.732   8.926   3.335  0.4239 -0.0957 -0.8693
  576MOL0     C79376   8.658   8.882   3.219  0.0231 -0.4365 -0.1514
  576MOL0     C79377   8.630   8.746   3.203 -0.0709 -0.3124 -1.0232
  576MOL0     C79378   8.548   8.705   3.083 -0.6991 -0.2521 -1.5907
  576MOL0     C79379   8.666   8.656   3.312  0.7228  0.0891 -0.0659
  576MOL0     C79380   8.662   8.511   3.287  0.9378  0.4659  0.7624
  576MOL0     O79381   8.733   8.472   3.178 -0.6600 -0.3078 -0.2746
  576MOL0     C79382   8.769   8.344   3.150  0.5580  0.1172  0.5104
  576MOL0     C79383   8.828   8.256   3.244  0.0468  0.0572  0.4999
  576MOL0     C79384   8.877   8.132   3.209 -0.1915  0.0991 -0.4164
  576MOL0     C79385   8.868   8.086   3.072 -1.3671 -0.7953  0.3087
  576MOL0     O79386   8.918   7.964   3.031  0.1992 -0.1732  0.2836
  576MOL0     C79387   8.928   7.846   3.118  0.1071 -0.4128 -0.5757
  576MOL0     C79388   9.061   7.779   3.127  0.8807 -1.4344  0.0314
  576MOL0     C79389   9.120   7.703   3.003  0.3438 -0.4017 -0.4859
  576MOL0     C79390   9.221   7.606   3.057 -0.8389 -0.0030  0.1076
  576MOL0     C79391   9.255   7.520   2.943 -0.3460  0.2032  0.9886
  576MOL0     C79392   9.370   7.414   2.975  0.0209 -0.9625  0.0482
  576MOL0     C79393   9.337   7.334   3.097 -0.3807  1.0245 -1.4596
  576MOL0     C79394   9.240   7.221   3.066 -0.1014 -0.8879 -0.3267
  576MOL0    Cl79395   9.191   7.122   3.211 -0.2390  0.0021  0.2832
  576MOL0     C79396   8.818   8.180   2.981 -0.1585  0.6909 -0.1992
  576MOL0     C79397   8.771   8.306   3.015  0.4617 -0.1472  0.5596
  576MOL0     O79398   8.610   8.432   3.365  0.3890 -0.1477  0.1187
  576MOL0     C79399   8.722   8.706   3.431 -0.2284  0.4002 -0.1003
  576MOL0     C79400   8.763   8.839   3.439  0.1450  1.0147  0.1629
  576MOL0     N79401   9.278   9.400   3.235  0.2876 -0.5989  0.6048
  576MOL0     N79402   9.350   9.419   3.126 -0.2952  0.2223  0.2682
  576MOL0     C79403   9.572  10.334   3.204 -0.7339  0.0001  0.8665
  576MOL0     C79404   9.651  10.414   3.293 -0.0501  0.1522  0.0729
  576MOL0     C79405   9.958  10.671   3.522  0.5269  0.4811 -0.2274
  576MOL0     C79406  10.067  10.579   3.540  0.4044 -0.8384 -0.3390
  576MOL0     C79407  10.178  10.613   3.609  0.1166 -1.0802 -1.3332
  576MOL0     C79408  10.178  10.736   3.682  0.3900  0.0154  0.0276
  576MOL0     O79409  10.286  10.767   3.764  0.2839  0.0964  0.4991
  576MOL0     C79410  10.361  10.675   3.838  0.0671  1.5017 -0.2673
  576MOL0     C79411  10.265  10.591   3.929  0.6294 -0.6128 -0.4971
  576MOL0     C79412  10.186  10.680   4.026 -0.4525 -1.2616  0.5983
  576MOL0     C79413  10.274  10.729   4.145  0.5661  0.2142  0.5056
  576MOL0     C79414  10.184  10.808   4.237  0.4359  0.0716 -0.5559
  576MOL0     C79415  10.115  10.861   4.322  0.1324 -0.5023  0.1590
  576MOL0     C79416  10.069  10.825   3.674 -0.5918 -0.0370  0.2188
  576MOL0     C79417   9.961  10.798   3.591  1.1530  0.2743 -0.0789
  576MOL0     C79418   9.858  10.902   3.568 -1.0807 -0.4127 -0.3203
  576MOL0     H79419   9.964  10.388   3.172 -0.8102 -2.0097  0.6565
  576MOL0     H79420   9.852  10.250   3.009 -2.1024 -1.3945 -1.1979
  576MOL0     H79421   9.706  10.195   2.833 -0.3469  1.9297 -1.4784
  576MOL0     H79422   9.567  10.307   2.864 -3.2452 -0.6078 -0.3269
  576MOL0     H79423   9.417  10.159   2.810  0.3847  0.9718  1.1932
  576MOL0     H79424   9.529  10.169   2.689 -2.1158  3.1481  1.6647
  576MOL0     H79425   9.592   9.948   2.687  2.2372  0.9136  0.4697
  576MOL0     H79426   9.600   9.933   2.868 -0.6392 -1.3488 -0.4241
  576MOL0     H79427   9.349   9.923   2.881 -4.8637  1.6937 -3.3656
  576MOL0     H79428   9.338   9.936   2.715  0.6729 -0.5109  0.6818
  576MOL0     H79429   9.493   9.718   2.857 -1.4976  0.0157  1.8707
  576MOL0     H79430   9.447   9.713   2.684  0.5335 -1.4452  0.2666
  576MOL0     H79431   9.234   9.693   2.915 -1.4331 -3.1297  0.9292
  576MOL0     H79432   9.194   9.714   2.758 -1.8042 -2.1813  1.7446
  576MOL0     H79433   9.329   9.510   2.688 -1.6003  3.6525 -1.7793
  576MOL0     H79434   9.171   9.511   2.781 -0.0608  0.5973  0.6471
  576MOL0     H79435   9.340   9.344   2.830  0.2491 -0.6881  1.0658
  576MOL0     H79436   9.437   9.477   2.908  0.2553  0.4662 -2.0273
  576MOL0     H79437   9.064   9.476   2.996  0.9079  3.4257 -0.6513
  576MOL0     H79438   8.953   9.482   3.246 -1.8355 -1.4347 -2.6273
  576MOL0     H79439   9.046   9.420   3.385  2.0005  0.8500  0.4934
  576MOL0     H79440   8.962   9.235   3.165  0.2679  2.0876 -1.7956
  576MOL0     H79441   8.981   9.182   3.334  3.1861  1.3606 -0.6800
  576MOL0     H79442   8.785   9.318   3.414 -1.9871  0.1311  0.0484
  576MOL0     H79443   8.767   9.377   3.242 -0.5484  0.2299  0.7720
  576MOL0     H79444   8.612   9.189   3.294  0.5371  2.1432  3.2481
  576MOL0     H79445   8.731   9.137   3.173 -0.0335  1.1632 -0.5695
  576MOL0     H79446   8.622   8.961   3.154  0.5097  0.6126  0.8005
  576MOL0     H79447   8.484   8.624   3.119 -2.2364  0.4914 -2.5967
  576MOL0     H79448   8.616   8.675   3.003 -1.5721 -1.8836 -1.7611
  576MOL0     H79449   8.479   8.784   3.054 -0.5193  1.9337  2.9645
  576MOL0     H79450   8.822   8.277   3.351 -3.1073  1.0792  0.2499
  576MOL0     H79451   8.939   8.069   3.273  0.9251  0.9752 -0.5894
  576MOL0     H79452   8.887   7.859   3.218  0.4802 -2.7465 -0.0776
  576MOL0     H79453   8.857   7.772   3.082  0.7765 -3.2420  3.2849
  576MOL0     H79454   9.134   7.857   3.151  0.5361 -1.5018  1.3679
  576MOL0     H79455   9.049   7.713   3.213 -0.6444  0.3967  1.3111
  576MOL0     H79456   9.161   7.774   2.931  3.2654 -0.4121  1.0171
  576MOL0     H79457   9.032   7.664   2.952 -0.8952 -0.3966  1.5520
  576MOL0     H79458   9.173   7.549   3.136 -0.6639  1.2398  1.1492
  576MOL0     H79459   9.313   7.650   3.096  0.1471  0.8491 -2.8946
  576MOL0     H79460   9.164   7.471   2.906 -2.7635  3.7972  1.6282
  576MOL0     H79461   9.286   7.580   2.857 -2.7517  0.9681  0.5864
  576MOL0     H79462   9.453   7.481   2.999 -0.5411  0.0261 -0.6554
  576MOL0     H79463   9.393   7.350   2.889 -0.4639  0.5561 -1.2559
  576MOL0     H79464   9.294   7.389   3.182 -1.0899 -1.7773  0.1290
  576MOL0     H79465   9.421   7.289   3.150 -0.4812  2.1782 -0.2548
  576MOL0     H79466   9.293   7.154   2.997  1.1341 -0.5566  0.2762
  576MOL0     H79467   9.146   7.253   3.020 -1.0701 -1.4943  1.1445
  576MOL0     H79468   8.811   8.147   2.878 -1.2713 -2.9613  0.8753
  576MOL0     H79469   8.738   8.379   2.942 -1.9163 -2.7096 -1.0764
  576MOL0     H79470   8.747   8.648   3.519  0.2725  1.6036  0.5731
  576MOL0     H79471   8.796   8.882   3.534  0.0262  1.1536  0.1418
  576MOL0     H79472   9.465  10.322   3.209 -1.1988  2.7704 -0.3907
  576MOL0     H79473   9.607  10.452   3.384 -1.2579 -0.7071 -0.1199
  576MOL0     H79474  10.076  10.487   3.483  1.9446  0.7529 -2.8549
  576MOL0     H79475  10.270  10.556   3.612 -0.3616 -1.8536 -1.0654
  576MOL0     H79476  10.412  10.601   3.776  2.9713  1.7837  1.5840
  576MOL0     H79477  10.431  10.732   3.901  1.2522 -2.5937  2.5502
  576MOL0     H79478  10.318  10.514   3.984 -2.0962 -1.7821  0.6830
  576MOL0     H79479  10.183  10.542   3.875  0.7013 -1.5943  0.2647
  576MOL0     H79480  10.141  10.766   3.976 -0.1480 -0.3679  1.8301
  576MOL0     H79481  10.100  10.630   4.073 -0.5194  0.3472  2.2907
  576MOL0     H79482  10.350  10.801   4.113 -1.8699  3.2266  1.0947
  576MOL0     H79483  10.324  10.647   4.198  0.0041 -0.5316 -0.1071
  576MOL0     H79484  10.035  10.893   4.386 -0.0214  0.5279 -0.5315
  576MOL0     H79485  10.076  10.919   3.729  1.5888 -1.2079  2.1165
  576MOL0     H79486   9.758  10.873   3.600 -0.8701 -0.2424  0.5242
  576MOL0     H79487   9.892  10.987   3.628 -1.0535 -0.1511 -0.6996
  576MOL0     H79488   9.861  10.944   3.467  0.6889 -0.3319 -0.2790
  577MOL0     O79489   6.112   6.521   0.131 -0.1633 -0.8737 -1.1488
  577MOL0     C79490   6.038   6.559   0.042 -0.0953  0.2122  0.6593
  577MOL0     O79491   5.986   6.481  -0.060 -0.2693  1.2442 -0.1605
  577MOL0     C79492   5.963   6.342  -0.046 -0.1806  0.6326  1.1982
  577MOL0     C79493   5.964   6.263   0.076  0.4479  0.4613  1.3463
  577MOL0     C79494   5.945   6.128   0.068 -0.5727 -0.5815  0.9586
  577MOL0     C79495   5.938   6.059  -0.059  0.6015 -0.1057  0.2925
  577MOL0     O79496   5.916   5.925  -0.063  0.7218  0.5444 -0.4457
  577MOL0     C79497   6.038   5.846  -0.075 -0.7332 -0.3536  0.8533
  577MOL0     C79498   6.002   5.750  -0.184 -0.2232 -0.1935  0.3658
  577MOL0     C79499   5.892   5.649  -0.141 -0.3668  1.1888  0.2586
  577MOL0     C79500   5.858   5.551  -0.252 -0.5718  0.2903 -0.2345
  577MOL0     C79501   5.739   5.467  -0.200  1.3025 -0.2608 -0.0875
  577MOL0     C79502   5.678   5.383  -0.319 -0.9210 -0.4792 -1.2001
  577MOL0     C79503   5.775   5.291  -0.397  0.6531 -0.2748 -0.0533
  577MOL0     C79504   5.838   5.187  -0.302  0.2293  0.1103 -0.6312
  577MOL0     N79505   5.739   5.099  -0.228  0.2480  0.2695  0.0497
  577MOL0     C79506   5.727   4.958  -0.249 -0.9756 -0.3243 -0.4279
  577MOL0     C79507   5.645   4.924  -0.151  0.2088  0.1241  0.2757
  577MOL0     C79508   5.575   4.791  -0.127  0.1526  0.2368  0.5571
  577MOL0     C79509   5.696   4.706  -0.086  0.4290  0.6819  0.0252
  577MOL0     C79510   5.745   4.602  -0.187 -0.5626 -0.8453 -0.0145
  577MOL0     C79511   5.890   4.573  -0.141  0.0721  0.0022  0.7202
  577MOL0     O79512   5.907   4.514  -0.007 -0.0544 -0.1141 -0.0915
  577MOL0     C79513   6.040   4.506   0.029 -0.4067 -0.0237  0.6531
  577MOL0     C79514   6.124   4.434  -0.053 -0.5223  0.7159  0.2019
  577MOL0     C79515   6.259   4.416  -0.019 -0.0837 -0.5348  0.3194
  577MOL0     C79516   6.329   4.309  -0.095  0.5356 -0.4409  0.4080
  577MOL0     C79517   6.312   4.487   0.080  0.2350  0.3855 -0.1353
  577MOL0     C79518   6.457   4.473   0.126  0.0105 -0.2318 -0.4278
  577MOL0     O79519   6.485   4.528   0.244 -0.5666 -1.1744 -0.5501
  577MOL0     C79520   6.591   4.478   0.320  0.3926  1.6020  0.5965
  577MOL0     C79521   6.654   4.565   0.408 -0.1781  0.4542 -0.1462
  577MOL0     C79522   6.752   4.535   0.501 -0.6214  0.1055  0.1213
  577MOL0     C79523   6.803   4.412   0.497 -1.1083 -0.4149  0.0412
  577MOL0     O79524   6.916   4.388   0.572  0.0325  0.7013  0.5108
  577MOL0     C79525   6.977   4.253   0.579 -0.1665 -0.3845  0.2347
  577MOL0     C79526   7.095   4.247   0.682 -0.2464 -0.1269 -0.3812
  577MOL0     C79527   7.190   4.360   0.650 -0.1190  0.1401 -0.5327
  577MOL0     C79528   7.319   4.355   0.741 -0.0934  0.9648 -0.4629
  577MOL0     C79529   7.455   4.407   0.669  1.2039 -0.2145 -0.2604
  577MOL0     C79530   7.575   4.361   0.746 -0.5427  0.4615 -0.4151
  577MOL0     C79531   7.709   4.399   0.674  0.4542  0.2272  0.3871
  577MOL0     C79532   7.828   4.376   0.767  0.5769  0.2892  1.3441
  577MOL0    Cl79533   7.834   4.200   0.837  0.1221  0.4453  0.1460
  577MOL0     C79534   6.759   4.315   0.409  0.4854  0.8415  0.9984
  577MOL0     C79535   6.653   4.346   0.323 -0.0575  0.0038  0.1953
  577MOL0     O79536   6.549   4.424   0.056 -0.5176 -0.9322 -0.7054
  577MOL0     C79537   6.230   4.572   0.151  0.4787 -0.5534  0.6647
  577MOL0     C79538   6.094   4.597   0.119  0.3133 -0.2515  0.6077
  577MOL0     N79539   5.601   5.030  -0.073 -0.1507 -0.9555  0.0986
  577MOL0     N79540   5.656   5.136  -0.126  0.0865  0.7351  1.2048
  577MOL0     C79541   5.938   6.137  -0.171  0.3380  0.6346  0.7590
  577MOL0     C79542   5.960   6.272  -0.166 -0.2301 -0.1003 -0.7623
  577MOL0     C79543   6.030   6.702   0.043  0.2698 -0.5667  0.0048
  577MOL0     C79544   6.001   6.776   0.150  0.5205 -0.1059 -0.1672
  577MOL0     C79545   5.994   6.914   0.142 -0.2942  0.5357  0.2859
  577MOL0     C79546   6.014   6.982   0.028 -0.0191 -0.2125  0.0676
  577MOL0     O79547   6.021   7.120   0.014 -0.3361 -0.6732 -0.8381
  577MOL0     C79548   5.965   7.207   0.116 -0.3912 -0.6545  0.2869
  577MOL0     C79549   6.065   7.299   0.205 -0.4232  0.1761  0.5443
  577MOL0     C79550   5.989   7.394   0.295 -0.9295 -0.7580  0.3140
  577MOL0     C79551   6.088   7.509   0.334 -0.3517  0.1300  0.3274
  577MOL0     C79552   6.177   7.450   0.435  0.4706  1.0348  0.3056
  577MOL0     C79553   6.247   7.384   0.504 -0.5846  0.2353  0.8847
  577MOL0     C79554   6.037   6.914  -0.084  0.5232  0.2802  0.2596
  577MOL0     C79555   6.045   6.775  -0.080  0.4348  1.0197 -0.6659
  577MOL0     C79556   6.075   6.714  -0.211  0.3046  1.2083  1.0041
  577MOL0     H79557   5.982   6.296   0.178 -0.0350 -0.8476  1.8799
  577MOL0     H79558   5.934   6.066   0.156 -0.7176 -2.2329 -0.1689
  577MOL0     H79559   6.058   5.795   0.020  1.7436 -2.8971 -0.8891
  577MOL0     H79560   6.122   5.911  -0.102 -0.4513 -1.0289  0.0684
  577MOL0     H79561   5.956   5.806  -0.266 -0.6805 -1.5912 -0.3623
  577MOL0     H79562   6.090   5.691  -0.214 -0.7355 -2.5464  3.0708
  577MOL0     H79563   5.923   5.588  -0.056  0.6396  1.2984 -0.0172
  577MOL0     H79564   5.805   5.706  -0.110 -2.1755 -1.0246 -0.4623
  577MOL0     H79565   5.823   5.596  -0.345  2.7316  2.1118 -0.7813
  577MOL0     H79566   5.945   5.486  -0.273 -0.1111  1.1045 -0.8986
  577MOL0     H79567   5.664   5.534  -0.158  0.3782 -0.4598 -1.3800
  577MOL0     H79568   5.763   5.402  -0.115 -2.0115 -2.1187 -0.4073
  577MOL0     H79569   5.590   5.325  -0.290 -1.6606 -0.9947 -4.1556
  577MOL0     H79570   5.640   5.463  -0.384 -3.5522  0.4214  1.2361
  577MOL0     H79571   5.858   5.347  -0.441 -0.2512 -0.4390 -2.1030
  577MOL0     H79572   5.720   5.235  -0.473  1.1078  0.8658 -1.2685
  577MOL0     H79573   5.894   5.119  -0.367 -2.2774 -1.6984 -1.0667
  577MOL0     H79574   5.910   5.220  -0.227 -0.6178 -2.2899  1.3740
  577MOL0     H79575   5.773   4.891  -0.321 -0.2847  1.0444 -1.2889
  577MOL0     H79576   5.518   4.752  -0.212 -0.8648 -0.2225  1.4219
  577MOL0     H79577   5.507   4.801  -0.042  0.0191 -3.9132  1.1387
  577MOL0     H79578   5.781   4.760  -0.044  1.7903  1.0795 -3.0002
  577MOL0     H79579   5.659   4.648  -0.001  2.6134 -0.5695  0.1924
  577MOL0     H79580   5.681   4.515  -0.173 -2.1494  0.3339  0.4479
  577MOL0     H79581   5.738   4.645  -0.287  0.5287 -1.2154 -0.2590
  577MOL0     H79582   5.912   4.502  -0.222 -4.6379 -1.3384  0.3125
  577MOL0     H79583   5.940   4.670  -0.142 -3.9939  2.3114  1.1885
  577MOL0     H79584   6.087   4.380  -0.140  1.9592  0.7817 -0.9678
  577MOL0     H79585   6.260   4.264  -0.166  0.6535 -1.1455  0.7409
  577MOL0     H79586   6.368   4.235  -0.025 -1.4053 -1.0080  0.9277
  577MOL0     H79587   6.409   4.344  -0.162 -2.2116  2.7145 -1.6008
  577MOL0     H79588   6.630   4.671   0.409  0.3344  0.6662 -2.9384
  577MOL0     H79589   6.792   4.612   0.566 -3.7163 -0.2307  2.6926
  577MOL0     H79590   6.895   4.181   0.589  0.0643 -1.0686 -2.1792
  577MOL0     H79591   7.027   4.233   0.485 -2.2226  1.0542 -1.2565
  577MOL0     H79592   7.055   4.261   0.783  0.9915 -1.1390  0.2827
  577MOL0     H79593   7.150   4.152   0.677 -0.2290 -0.1195 -0.3299
  577MOL0     H79594   7.139   4.456   0.659 -1.9488 -0.8606  0.1499
  577MOL0     H79595   7.231   4.370   0.549  2.8237  0.7860  0.6211
  577MOL0     H79596   7.339   4.261   0.794  1.3005  0.5123 -1.7042
  577MOL0     H79597   7.302   4.420   0.827  1.2615  0.4898  0.1918
  577MOL0     H79598   7.459   4.371   0.566 -1.5551 -1.1996 -0.1111
  577MOL0     H79599   7.449   4.516   0.662  2.3789 -0.0998  0.2684
  577MOL0     H79600   7.574   4.254   0.766  0.9864  0.6655  0.9137
  577MOL0     H79601   7.576   4.413   0.843  0.9169 -0.2073 -0.0411
  577MOL0     H79602   7.698   4.506   0.653 -0.7826 -0.0564 -0.4886
  577MOL0     H79603   7.739   4.349   0.581  1.6387  0.7247  0.4778
  577MOL0     H79604   7.808   4.446   0.848 -0.8663  0.0160  1.2609
  577MOL0     H79605   7.927   4.395   0.725  1.1054 -3.0463  0.7563
  577MOL0     H79606   6.809   4.218   0.412 -0.1495  0.4120 -1.1030
  577MOL0     H79607   6.623   4.274   0.246  1.1884 -3.3399  2.5947
  577MOL0     H79608   6.265   4.642   0.226  2.0607 -1.4471  0.8191
  577MOL0     H79609   6.025   4.665   0.169 -0.4628  2.3327 -3.5114
  577MOL0     H79610   5.910   6.087  -0.263  1.1061  0.5420  0.5629
  577MOL0     H79611   5.962   6.336  -0.254 -0.1111 -1.3949 -1.7267
  577MOL0     H79612   5.988   6.732   0.248  1.1725  0.4223  0.1695
  577MOL0     H79613   5.967   6.965   0.234  0.9427 -2.0972  2.2221
  577MOL0     H79614   5.918   7.286   0.058  3.4127  1.1002 -0.7229
  577MOL0     H79615   5.889   7.157   0.177  3.7925 -1.4184  5.6845
  577MOL0     H79616   6.129   7.353   0.135  1.0573 -1.4416  0.5907
  577MOL0     H79617   6.129   7.235   0.266  2.7067 -1.3381 -3.9054
  577MOL0     H79618   5.919   7.455   0.237  1.6109  0.5839 -1.5674
  577MOL0     H79619   5.942   7.346   0.381 -0.7443 -1.9544 -0.2271
  577MOL0     H79620   6.029   7.585   0.386  1.3144  1.1129  0.8358
  577MOL0     H79621   6.155   7.557   0.263  0.9043  0.9912  2.0314
  577MOL0     H79622   6.309   7.331   0.574  0.5408 -1.7949 -1.5186
  577MOL0     H79623   6.051   6.982  -0.166  0.1828 -1.1050 -0.9961
  577MOL0     H79624   6.137   6.774  -0.279  0.5266  1.0986  1.1098
  577MOL0     H79625   6.123   6.616  -0.199 -0.6496  0.7752  1.3073
  577MOL0     H79626   5.980   6.689  -0.259  0.4633 -2.5442  2.2942
  578MOL0     O79627  11.126   1.963   4.277 -0.4763  0.1271  0.3362
  578MOL0     C79628  11.130   2.078   4.301 -0.1781 -0.4147 -0.1143
  578MOL0     O79629  11.148   2.139   4.430  0.3480  0.8477  0.0642
  578MOL0     C79630  11.144   2.055   4.546  0.3131 -1.2297 -0.6810
  578MOL0     C79631  11.075   1.938   4.563  0.5083 -0.6460 -0.2266
  578MOL0     C79632  11.091   1.871   4.682 -0.0330  0.4439  0.0934
  578MOL0     C79633  11.179   1.920   4.785  0.5292  0.1158 -0.1482
  578MOL0     O79634  11.213   1.861   4.901 -1.1230 -0.3729  0.5261
  578MOL0     C79635  11.118   1.762   4.951  0.3476  0.9286 -0.4393
  578MOL0     C79636  11.170   1.708   5.088 -0.2704 -1.1297 -0.8806
  578MOL0     C79637  11.315   1.647   5.083  0.3582  0.4183  1.1981
  578MOL0     C79638  11.369   1.604   5.219 -0.7321 -0.4798 -0.1792
  578MOL0     C79639  11.391   1.449   5.217  0.3257 -0.1724 -0.1421
  578MOL0     C79640  11.530   1.412   5.156 -0.5108 -0.9293 -0.4205
  578MOL0     C79641  11.542   1.283   5.093  0.2143  0.3913 -0.0174
  578MOL0     C79642  11.542   1.164   5.196 -0.4587  0.0615  0.9951
  578MOL0     N79643  11.658   1.172   5.288  0.1235  0.5079  0.5079
  578MOL0     C79644  11.643   1.182   5.418 -0.7800 -0.8111 -0.5748
  578MOL0     C79645  11.777   1.189   5.460  0.1493  0.0206 -0.0053
  578MOL0     C79646  11.821   1.206   5.597  0.8164 -0.1115 -0.4804
  578MOL0     C79647  11.870   1.351   5.603  0.2405  0.9891 -0.3786
  578MOL0     C79648  11.904   1.398   5.744  0.2118 -0.6105  0.8189
  578MOL0     C79649  12.034   1.334   5.798  0.2649 -0.0871 -0.4928
  578MOL0     O79650  12.074   1.391   5.927  1.4663 -0.1135  0.2408
  578MOL0     C79651  12.132   1.294   6.002 -0.3535 -0.7304 -0.9423
  578MOL0     C79652  12.059   1.200   6.078 -0.1156 -0.4101 -1.0232
  578MOL0     C79653  12.133   1.097   6.149  0.2112 -0.2229 -1.6685
  578MOL0     C79654  12.050   1.018   6.252  0.6819 -0.4918 -0.3184
  578MOL0     C79655  12.273   1.082   6.132  0.7414 -0.5138  0.0654
  578MOL0     C79656  12.355   0.974   6.194 -0.0268  0.3321 -0.1446
  578MOL0     O79657  12.496   0.979   6.179 -0.2140 -0.1826 -0.3249
  578MOL0     C79658  12.576   0.907   6.261 -0.2371 -0.3541 -0.4959
  578MOL0     C79659  12.672   0.980   6.335 -0.1185 -0.1048  0.5671
  578MOL0     C79660  12.735   0.913   6.434  1.0413  0.9444  0.2714
  578MOL0     C79661  12.701   0.787   6.471  0.5453  1.0770  0.0910
  578MOL0     O79662  12.764   0.749   6.583  0.2258  0.1028  0.3786
  578MOL0     C79663  12.838   0.629   6.566  0.2670  0.0380  0.3219
  578MOL0     C79664  12.935   0.606   6.690 -0.2756 -0.5103 -0.4963
  578MOL0     C79665  12.844   0.583   6.816  0.7800 -0.0059  0.1397
  578MOL0     C79666  12.926   0.588   6.950  0.2047  0.2086 -0.0995
  578MOL0     C79667  12.961   0.452   7.007 -0.5842 -0.2375  0.2415
  578MOL0     C79668  13.000   0.476   7.158 -0.6371 -0.3765  0.7292
  578MOL0     C79669  13.008   0.345   7.241  0.0933 -0.3894 -0.2492
  578MOL0     C79670  13.068   0.360   7.383 -0.6481  0.3691  0.1706
  578MOL0    Cl79671  13.191   0.496   7.392  0.0262 -0.2389 -0.1532
  578MOL0     C79672  12.620   0.710   6.392  0.3051 -0.2889 -0.6088
  578MOL0     C79673  12.554   0.774   6.292 -0.6780  0.2612 -0.7889
  578MOL0     O79674  12.301   0.886   6.258  0.2472  0.5488  0.8048
  578MOL0     C79675  12.337   1.181   6.050 -0.9489 -0.3070  0.5035
  578MOL0     C79676  12.273   1.287   5.993 -0.5505  0.2157 -0.2293
  578MOL0     N79677  11.862   1.179   5.347 -0.0143  1.2641 -0.9234
  578MOL0     N79678  11.789   1.172   5.250 -0.7249  0.5608  0.1081
  578MOL0     C79679  11.246   2.034   4.767  0.1836 -0.4836 -0.1562
  578MOL0     C79680  11.222   2.103   4.649  0.0627  0.2646 -1.0673
  578MOL0     C79681  11.118   2.167   4.188  1.2873  0.3386  0.0559
  578MOL0     C79682  11.148   2.298   4.206 -0.9683 -1.2247 -0.3758
  578MOL0     C79683  11.161   2.402   4.112 -0.1439  1.2647  0.0861
  578MOL0     C79684  11.134   2.360   3.978 -0.8674  0.2858  0.8239
  578MOL0     O79685  11.147   2.449   3.869 -0.9891 -0.6121 -0.4938
  578MOL0     C79686  11.274   2.506   3.842  0.6082 -0.0509  0.2083
  578MOL0     C79687  11.387   2.406   3.828 -1.0457  0.3303 -0.1315
  578MOL0     C79688  11.524   2.487   3.812 -0.1910  1.9386  0.7881
  578MOL0     C79689  11.642   2.388   3.833  0.3113  0.9476  0.8941
  578MOL0     C79690  11.755   2.429   3.917  0.0786  0.2056  0.5609
  578MOL0     C79691  11.848   2.458   3.993  0.3194 -0.2280 -1.1328
  578MOL0     C79692  11.094   2.222   3.951 -0.3021  0.4957 -0.4191
  578MOL0     C79693  11.085   2.131   4.052  0.6130  0.9256 -0.3674
  578MOL0     C79694  11.064   1.987   4.006 -0.4498  0.3027  0.2124
  578MOL0     H79695  10.991   1.906   4.502 -2.4488  0.8895  2.6852
  578MOL0     H79696  11.042   1.775   4.696 -2.1748  1.8672  4.2560
  578MOL0     H79697  11.103   1.676   4.884  1.7886 -2.3374  3.0654
  578MOL0     H79698  11.018   1.803   4.965  0.5209  1.4600 -0.7335
  578MOL0     H79699  11.174   1.789   5.161  0.9563 -1.6408 -0.3445
  578MOL0     H79700  11.102   1.628   5.117  2.3507 -4.3935 -2.9028
  578MOL0     H79701  11.316   1.555   5.023 -0.5558  0.5221  1.0108
  578MOL0     H79702  11.381   1.717   5.030  2.7181 -1.9604  0.7684
  578MOL0     H79703  11.465   1.654   5.231 -0.6915 -0.7176  0.5242
  578MOL0     H79704  11.309   1.631   5.307  0.4839 -0.2583  0.5951
  578MOL0     H79705  11.316   1.405   5.151 -0.7991  2.4053 -0.6793
  578MOL0     H79706  11.382   1.400   5.314  1.7445 -1.1691 -0.4806
  578MOL0     H79707  11.562   1.479   5.075 -2.2676  0.1361 -0.2923
  578MOL0     H79708  11.612   1.412   5.229 -0.1784 -0.9092 -0.7925
  578MOL0     H79709  11.627   1.264   5.027 -0.6094 -3.6823 -0.1498
  578MOL0     H79710  11.458   1.265   5.024  0.2391 -0.5784  0.1901
  578MOL0     H79711  11.453   1.151   5.259 -0.2232  1.3506  1.6218
  578MOL0     H79712  11.552   1.072   5.137  0.9924 -0.4046  1.9182
  578MOL0     H79713  11.553   1.181   5.478 -0.2605 -1.7308  0.2148
  578MOL0     H79714  11.908   1.146   5.622  1.6768  2.0801  2.3263
  578MOL0     H79715  11.743   1.185   5.671  1.1317 -0.6106 -0.2897
  578MOL0     H79716  11.962   1.354   5.543  1.4050 -0.7414  1.2139
  578MOL0     H79717  11.791   1.416   5.565 -0.3678  0.9303  0.7421
  578MOL0     H79718  11.929   1.505   5.735  4.2180 -1.1944  2.5673
  578MOL0     H79719  11.826   1.376   5.817 -1.9058  0.7255 -0.9270
  578MOL0     H79720  12.010   1.229   5.814 -0.3928 -0.2217 -2.1160
  578MOL0     H79721  12.112   1.352   5.723  1.6311 -0.6504  0.7540
  578MOL0     H79722  11.951   1.197   6.072 -0.1126 -3.3099 -0.7629
  578MOL0     H79723  11.992   0.934   6.212 -2.2458  1.6103 -0.7718
  578MOL0     H79724  11.977   1.093   6.283  1.3773  0.3975 -0.7968
  578MOL0     H79725  12.102   0.978   6.340 -1.0166  0.7297  1.3178
  578MOL0     H79726  12.678   1.080   6.294  1.0203 -1.2040 -2.2061
  578MOL0     H79727  12.809   0.968   6.492 -1.5025 -0.6090  5.5936
  578MOL0     H79728  12.765   0.548   6.558 -0.3319  0.4838  1.0972
  578MOL0     H79729  12.893   0.630   6.471  0.9357 -2.1652  0.6276
  578MOL0     H79730  13.008   0.527   6.674 -0.1907 -0.2601 -1.3656
  578MOL0     H79731  13.005   0.689   6.701 -0.4973  0.3891 -4.4525
  578MOL0     H79732  12.790   0.488   6.809  3.5384 -1.6562  0.1117
  578MOL0     H79733  12.772   0.665   6.817 -3.0563 -3.0385  0.8998
  578MOL0     H79734  12.864   0.644   7.021 -0.2341  2.2734 -1.9766
  578MOL0     H79735  13.018   0.641   6.924  1.1278 -1.5585 -0.5651
  578MOL0     H79736  12.874   0.386   7.005 -1.0745  0.3321  1.5891
  578MOL0     H79737  13.048   0.414   6.952  0.1301  2.5227 -0.7205
  578MOL0     H79738  12.920   0.528   7.213 -0.3114 -1.4041  2.2426
  578MOL0     H79739  13.093   0.532   7.175 -1.0224  0.5347 -0.0388
  578MOL0     H79740  13.074   0.272   7.193  2.4540  1.2968  0.2560
  578MOL0     H79741  12.907   0.303   7.254  0.8718 -2.1292  0.4040
  578MOL0     H79742  13.111   0.266   7.418  3.9384  2.1229 -0.1065
  578MOL0     H79743  12.987   0.392   7.449 -0.7118  0.0442  0.2539
  578MOL0     H79744  12.599   0.606   6.415 -2.9178  0.2495 -0.5415
  578MOL0     H79745  12.489   0.714   6.228 -1.2693 -0.2414  0.2571
  578MOL0     H79746  12.444   1.176   6.030 -0.3826  1.8363  2.4612
  578MOL0     H79747  12.343   1.350   5.940  1.1148 -2.6721 -1.7309
  578MOL0     H79748  11.312   2.078   4.841 -1.9587  1.0252  0.9588
  578MOL0     H79749  11.274   2.196   4.630 -1.5394  0.7803 -3.3552
  578MOL0     H79750  11.175   2.339   4.303 -1.6075  1.2126 -1.1573
  578MOL0     H79751  11.186   2.505   4.132 -0.7276  1.6619 -1.1130
  578MOL0     H79752  11.261   2.562   3.749 -1.1298 -0.8290 -0.0608
  578MOL0     H79753  11.297   2.579   3.920 -1.9669 -1.6602  2.6519
  578MOL0     H79754  11.355   2.344   3.744 -2.3397  0.7521  0.0315
  578MOL0     H79755  11.384   2.341   3.915  0.0307  1.7440  1.0191
  578MOL0     H79756  11.540   2.541   3.718  1.7160 -0.4520 -0.3702
  578MOL0     H79757  11.527   2.552   3.901 -0.7604  2.7999  0.1957
  578MOL0     H79758  11.679   2.359   3.734 -0.4043  0.3167  0.8010
  578MOL0     H79759  11.604   2.293   3.872  0.7260 -0.0056 -0.8976
  578MOL0     H79760  11.920   2.478   4.070 -0.7673 -2.5711  0.6272
  578MOL0     H79761  11.075   2.200   3.846  1.6353 -0.7234 -0.5536
  578MOL0     H79762  11.152   1.925   4.025 -2.4861 -2.1468  2.4624
  578MOL0     H79763  10.985   1.932   4.058 -1.2704  2.9153  1.9808
  578MOL0     H79764  11.052   1.992   3.898 -0.6329 -1.3066  0.1347
  579MOL0     O79765   3.257   4.272   1.457 -0.0888  0.1426 -0.7402
  579MOL0     C79766   3.258   4.206   1.356  0.0965 -0.2966  0.2535
  579MOL0     O79767   3.193   4.244   1.247  0.7859 -0.1605 -0.2114
  579MOL0     C79768   3.095   4.348   1.251 -0.3951 -0.9445 -1.2834
  579MOL0     C79769   3.008   4.383   1.358 -0.4462  0.3074  0.5278
  579MOL0     C79770   2.915   4.492   1.352  0.7930 -0.0974  0.3397
  579MOL0     C79771   2.896   4.557   1.234 -0.3762  0.8524 -0.3343
  579MOL0     O79772   2.815   4.665   1.215  0.9711  0.2321  0.8597
  579MOL0     C79773   2.704   4.681   1.304  0.3617  0.0223 -0.3576
  579MOL0     C79774   2.602   4.772   1.234 -0.0740  0.0419 -0.1333
  579MOL0     C79775   2.516   4.841   1.346 -0.3176 -1.2004  0.2367
  579MOL0     C79776   2.437   4.747   1.429 -0.1808  0.1166 -0.0393
  579MOL0     C79777   2.324   4.815   1.510  0.2868 -0.4573 -0.1875
  579MOL0     C79778   2.383   4.930   1.594  0.3694  0.1221 -0.5350
  579MOL0     C79779   2.267   4.984   1.672 -0.6564  0.1310 -0.3811
  579MOL0     C79780   2.311   5.063   1.797  0.2214 -0.3784 -0.7014
  579MOL0     N79781   2.379   5.191   1.774  0.1422  0.1987  0.6286
  579MOL0     C79782   2.498   5.219   1.823 -0.1103  0.0882  0.0224
  579MOL0     C79783   2.540   5.329   1.767  0.8272 -0.3371 -0.2015
  579MOL0     C79784   2.667   5.401   1.787 -0.5760  0.3483 -0.3368
  579MOL0     C79785   2.751   5.375   1.657 -0.5152  0.5074  0.0789
  579MOL0     C79786   2.886   5.450   1.641 -0.2145  0.1862 -0.4008
  579MOL0     C79787   2.989   5.427   1.752  0.7441  0.2704 -0.5677
  579MOL0     O79788   3.121   5.474   1.723 -0.1172 -0.4941  0.6081
  579MOL0     C79789   3.177   5.423   1.611 -0.2445 -0.2922 -0.7043
  579MOL0     C79790   3.200   5.291   1.604 -1.6026  0.0968  0.0252
  579MOL0     C79791   3.271   5.231   1.495 -0.2117  0.2658 -1.0019
  579MOL0     C79792   3.309   5.086   1.517  0.3366 -0.0372 -0.6949
  579MOL0     C79793   3.305   5.307   1.384 -0.0479 -0.3383 -1.1097
  579MOL0     C79794   3.377   5.262   1.267 -1.0818  0.2630  0.3130
  579MOL0     O79795   3.371   5.331   1.152 -0.3805 -0.5730 -0.5271
  579MOL0     C79796   3.468   5.298   1.057  0.2525  0.1476 -0.2766
  579MOL0     C79797   3.407   5.248   0.944 -0.4430  0.6228  0.1952
  579MOL0     C79798   3.479   5.206   0.832  0.2160 -0.7929  0.1490
  579MOL0     C79799   3.620   5.208   0.842  0.2103  0.1061 -0.4734
  579MOL0     O79800   3.698   5.161   0.743 -0.0061 -0.8678  0.4561
  579MOL0     C79801   3.797   5.066   0.786 -0.7774 -0.1652 -0.3799
  579MOL0     C79802   3.794   4.952   0.669  0.0203  0.3364 -0.2222
  579MOL0     C79803   3.823   5.018   0.533  0.7454 -0.1735 -0.2479
  579MOL0     C79804   3.835   4.912   0.418 -0.1731  0.7334 -0.4701
  579MOL0     C79805   3.709   4.855   0.355 -0.7097  0.5297 -0.1644
  579MOL0     C79806   3.730   4.781   0.227 -1.1005  0.1560 -0.6972
  579MOL0     C79807   3.591   4.742   0.179  0.0049  0.4015  0.1299
  579MOL0     C79808   3.610   4.655   0.050 -0.1608 -0.0954  0.1166
  579MOL0    Cl79809   3.666   4.729  -0.097 -0.0536  0.4036  0.2689
  579MOL0     C79810   3.678   5.260   0.958 -0.2541  0.4225  0.6649
  579MOL0     C79811   3.600   5.306   1.065  0.3013  1.1286  0.0859
  579MOL0     O79812   3.432   5.155   1.275 -0.0507  0.4848 -0.5299
  579MOL0     C79813   3.281   5.451   1.391 -0.0567  0.1874  0.3921
  579MOL0     C79814   3.213   5.506   1.499 -0.5513 -0.3972 -0.3726
  579MOL0     N79815   2.432   5.382   1.697 -0.1271  0.1804  0.6787
  579MOL0     N79816   2.336   5.292   1.691  0.4642 -0.2801 -0.8700
  579MOL0     C79817   2.974   4.517   1.128  0.5102  0.1133  0.3330
  579MOL0     C79818   3.078   4.422   1.144  0.3363  0.1075  0.2044
  579MOL0     C79819   3.354   4.092   1.341 -0.2193  0.7221  0.6853
  579MOL0     C79820   3.331   3.993   1.241  0.9213  0.4257  0.8902
  579MOL0     C79821   3.424   3.890   1.216 -0.9525 -0.0789 -0.8293
  579MOL0     C79822   3.534   3.874   1.304 -0.4535 -0.7105 -0.1752
  579MOL0     O79823   3.630   3.783   1.303 -0.3143 -0.0454  0.0135
  579MOL0     C79824   3.585   3.660   1.239  0.3223  0.2748  0.8244
  579MOL0     C79825   3.685   3.548   1.268 -0.1587 -0.3317 -0.1439
  579MOL0     C79826   3.718   3.557   1.425 -0.0880  0.1728 -0.0967
  579MOL0     C79827   3.853   3.620   1.453 -0.3625  0.0654 -0.0525
  579MOL0     C79828   3.985   3.550   1.414  1.3652 -0.7905 -0.7144
  579MOL0     C79829   4.080   3.480   1.394 -0.1218  0.2434 -0.8337
  579MOL0     C79830   3.545   3.961   1.413  0.6487 -0.2002  0.7888
  579MOL0     C79831   3.459   4.071   1.433 -0.4825 -0.2863  0.4862
  579MOL0     C79832   3.499   4.151   1.550 -0.2017 -0.3259 -0.5476
  579MOL0     H79833   3.013   4.333   1.454 -0.1214  1.6397  1.2391
  579MOL0     H79834   2.866   4.529   1.442 -0.6880  1.9267 -1.2006
  579MOL0     H79835   2.720   4.730   1.401 -1.1993 -3.1431  1.6995
  579MOL0     H79836   2.655   4.585   1.326 -0.4513  0.7874  1.3315
  579MOL0     H79837   2.659   4.838   1.168 -0.8650  1.6144  0.7056
  579MOL0     H79838   2.534   4.707   1.177 -0.9334 -1.1270  2.1222
  579MOL0     H79839   2.581   4.909   1.402  2.1490 -2.9287 -0.3613
  579MOL0     H79840   2.438   4.900   1.297 -1.9317 -0.9366  2.9510
  579MOL0     H79841   2.386   4.667   1.374  1.2253 -1.9285  1.4607
  579MOL0     H79842   2.507   4.684   1.486 -1.8039 -1.3195  0.4595
  579MOL0     H79843   2.270   4.738   1.565  0.0773 -1.0180 -1.1639
  579MOL0     H79844   2.254   4.858   1.437  0.5215 -0.1998 -0.2667
  579MOL0     H79845   2.458   4.890   1.663  0.3228  1.4076  0.2979
  579MOL0     H79846   2.428   5.010   1.533  0.6725 -0.1986 -0.7384
  579MOL0     H79847   2.206   4.904   1.715  2.4945 -2.1362  0.2407
  579MOL0     H79848   2.197   5.041   1.610  0.5833  0.8098 -1.1841
  579MOL0     H79849   2.225   5.084   1.861 -0.2423  0.3452 -1.5318
  579MOL0     H79850   2.374   5.003   1.864  0.3074 -0.0994 -0.5331
  579MOL0     H79851   2.547   5.142   1.881 -1.1008 -0.4327  0.1915
  579MOL0     H79852   2.731   5.371   1.871  3.5287  0.4446 -3.1050
  579MOL0     H79853   2.649   5.508   1.793  1.0614  0.5872  1.6420
  579MOL0     H79854   2.765   5.267   1.648 -0.4053  0.6766 -2.0916
  579MOL0     H79855   2.685   5.393   1.572  2.6717  1.3672 -2.4382
  579MOL0     H79856   2.933   5.409   1.552  2.5874  0.0203  1.0611
  579MOL0     H79857   2.874   5.558   1.628 -0.4467  0.1536 -0.4617
  579MOL0     H79858   2.944   5.464   1.844 -0.4529  2.0817 -1.8031
  579MOL0     H79859   2.999   5.319   1.768  2.3032  0.3246 -1.0294
  579MOL0     H79860   3.195   5.230   1.694  0.7708 -1.6074 -0.9040
  579MOL0     H79861   3.416   5.071   1.538  0.5068  2.9968  1.2210
  579MOL0     H79862   3.280   5.030   1.427 -0.1751 -1.3580  0.2691
  579MOL0     H79863   3.245   5.047   1.596 -1.1509 -0.6960 -2.1694
  579MOL0     H79864   3.300   5.233   0.935 -0.3417  0.8384 -1.7140
  579MOL0     H79865   3.421   5.159   0.754  1.7540 -0.2245 -1.3975
  579MOL0     H79866   3.896   5.111   0.793 -1.2898  0.6607  3.2526
  579MOL0     H79867   3.773   5.031   0.887 -1.9410  1.8381  0.0921
  579MOL0     H79868   3.866   4.871   0.686 -0.3771 -0.4135 -1.8903
  579MOL0     H79869   3.698   4.901   0.659  1.2829 -2.6337  1.4518
  579MOL0     H79870   3.922   5.065   0.534  1.6207 -1.9668  0.5691
  579MOL0     H79871   3.743   5.081   0.493  1.7365 -0.2182 -2.4512
  579MOL0     H79872   3.892   4.824   0.448 -3.8288 -2.1167 -1.0450
  579MOL0     H79873   3.890   4.955   0.335  0.6707 -0.4309 -0.5396
  579MOL0     H79874   3.675   4.787   0.433  1.2104 -0.6814 -0.3252
  579MOL0     H79875   3.632   4.931   0.340 -1.1495 -0.0334 -0.7692
  579MOL0     H79876   3.797   4.696   0.241 -1.5555 -0.0685  0.1791
  579MOL0     H79877   3.780   4.838   0.148 -1.0125 -0.4871 -1.1125
  579MOL0     H79878   3.534   4.829   0.144  0.5407  0.3904 -0.8203
  579MOL0     H79879   3.534   4.692   0.258  0.0817  0.7126  0.3814
  579MOL0     H79880   3.517   4.606   0.020  0.1029  0.9526 -2.6964
  579MOL0     H79881   3.679   4.575   0.076 -0.6237  0.2827  2.8828
  579MOL0     H79882   3.782   5.289   0.959 -0.7148  2.8461 -3.0478
  579MOL0     H79883   3.647   5.340   1.157  1.4359 -1.4730  0.5624
  579MOL0     H79884   3.310   5.508   1.303  0.6468 -3.3546 -1.9110
  579MOL0     H79885   3.193   5.612   1.508  1.7074 -0.0687  2.1390
  579MOL0     H79886   2.985   4.580   1.040 -0.0021 -0.4505 -0.1406
  579MOL0     H79887   3.143   4.388   1.064  0.8069  1.7378 -0.1293
  579MOL0     H79888   3.242   4.004   1.180  2.8698  0.1782 -2.2279
  579MOL0     H79889   3.427   3.824   1.130 -1.0040  1.3012 -1.9212
  579MOL0     H79890   3.483   3.647   1.275  0.1995  2.8401  1.5846
  579MOL0     H79891   3.580   3.671   1.130  0.7740  0.9253  0.8657
  579MOL0     H79892   3.776   3.559   1.208 -0.5940 -2.5890 -1.3310
  579MOL0     H79893   3.642   3.451   1.241  2.2109 -1.7918  0.9778
  579MOL0     H79894   3.640   3.619   1.469 -0.5825 -1.1797  1.0375
  579MOL0     H79895   3.712   3.460   1.476 -0.4080 -0.9721 -2.2026
  579MOL0     H79896   3.855   3.635   1.561  0.8283 -3.4295  0.5466
  579MOL0     H79897   3.859   3.713   1.396  0.7727 -0.1236 -0.2718
  579MOL0     H79898   4.166   3.417   1.387  0.1662  0.4023  0.8574
  579MOL0     H79899   3.630   3.950   1.479  0.8117 -2.0657  0.3301
  579MOL0     H79900   3.581   4.105   1.605 -0.5492 -1.3992 -0.9167
  579MOL0     H79901   3.538   4.248   1.517  2.5561  0.0561  3.1858
  579MOL0     H79902   3.419   4.191   1.614  1.3894  2.2628  0.0021
  580MOL0     O79903   0.702   9.198   6.385  0.6903  0.2516 -0.1207
  580MOL0     C79904   0.723   9.206   6.505  0.3009  0.2705  1.1295
  580MOL0     O79905   0.697   9.319   6.574  0.0189  0.3066 -0.7936
  580MOL0     C79906   0.654   9.432   6.504 -0.0201  0.7712  0.1721
  580MOL0     C79907   0.524   9.439   6.463  0.4715  0.5678 -0.5927
  580MOL0     C79908   0.483   9.544   6.388  1.0233 -0.8532  0.0931
  580MOL0     C79909   0.570   9.658   6.363  0.0764 -0.0254 -0.5756
  580MOL0     O79910   0.513   9.762   6.298 -0.4002  0.4410 -0.1595
  580MOL0     C79911   0.587   9.832   6.204  0.3390 -0.3570  0.3203
  580MOL0     C79912   0.507   9.872   6.072 -0.7809  0.9049  0.4602
  580MOL0     C79913   0.593   9.874   5.946  0.2622  0.0526 -0.4442
  580MOL0     C79914   0.526   9.921   5.817  0.4184 -0.1966 -0.6015
  580MOL0     C79915   0.618   9.895   5.701 -0.1202  0.2390  0.2147
  580MOL0     C79916   0.564   9.947   5.573  0.9555  1.0954 -0.5722
  580MOL0     C79917   0.638   9.898   5.443 -0.0811 -1.0151 -0.5122
  580MOL0     C79918   0.589   9.966   5.314  0.2099  0.5026 -0.2436
  580MOL0     N79919   0.672  10.085   5.282  1.0619  0.5165  0.4376
  580MOL0     C79920   0.756  10.088   5.173  0.1130  0.3068 -0.5550
  580MOL0     C79921   0.765  10.217   5.139  1.1018 -0.1437 -0.0162
  580MOL0     C79922   0.841  10.295   5.032  0.2339  0.0667 -1.1500
  580MOL0     C79923   0.903  10.207   4.920 -0.1882 -0.7527  1.3495
  580MOL0     C79924   1.036  10.157   4.971  0.8423 -0.3547  0.0119
  580MOL0     C79925   1.094  10.051   4.879 -0.0181  0.1018  0.3871
  580MOL0     O79926   1.018   9.930   4.884  0.0442 -0.5913 -0.4233
  580MOL0     C79927   1.059   9.819   4.810  0.1943  0.7303 -0.4303
  580MOL0     C79928   1.176   9.812   4.727 -0.6471 -0.4786  0.0179
  580MOL0     C79929   1.206   9.702   4.640 -0.2129  0.4100 -0.8001
  580MOL0     C79930   1.318   9.719   4.550 -0.5887 -0.3692  0.6884
  580MOL0     C79931   1.121   9.595   4.636 -0.1450 -0.0618 -1.0857
  580MOL0     C79932   1.147   9.476   4.549  0.9852 -0.2970 -0.3233
  580MOL0     O79933   1.041   9.399   4.540 -0.6138  0.3043 -0.3120
  580MOL0     C79934   1.036   9.289   4.465 -0.5170  0.2035 -0.2304
  580MOL0     C79935   1.108   9.176   4.509  0.2404  0.1002 -1.1151
  580MOL0     C79936   1.128   9.060   4.434 -1.4496 -0.6087  0.4888
  580MOL0     C79937   1.055   9.060   4.311  0.7163  0.6925  0.0573
  580MOL0     O79938   1.061   8.936   4.249  0.4572  0.1268 -0.7420
  580MOL0     C79939   1.067   8.940   4.107 -0.3745 -0.2341 -0.1918
  580MOL0     C79940   1.089   8.792   4.062  0.0988  0.8886  0.0140
  580MOL0     C79941   1.079   8.770   3.913 -0.3280 -0.5459  0.4074
  580MOL0     C79942   1.100   8.618   3.887  0.0273  0.6254  0.0650
  580MOL0     C79943   1.087   8.588   3.741  0.0582 -0.5547 -0.2926
  580MOL0     C79944   1.088   8.436   3.720  1.1746  0.6338  0.3659
  580MOL0     C79945   1.025   8.400   3.578  0.1687 -0.8027 -0.9479
  580MOL0     C79946   1.049   8.253   3.554 -0.2930  0.1476 -0.3680
  580MOL0    Cl79947   1.229   8.241   3.530  0.1632 -0.1078  0.2519
  580MOL0     C79948   0.971   9.169   4.270 -0.5406 -0.2719 -0.9257
  580MOL0     C79949   0.950   9.284   4.351 -1.4597  0.2876 -0.1734
  580MOL0     O79950   1.257   9.448   4.504  0.0995 -0.1101  0.4478
  580MOL0     C79951   1.002   9.602   4.718  0.0282 -0.2523  0.1791
  580MOL0     C79952   0.979   9.708   4.810 -0.2970 -0.4794 -0.5303
  580MOL0     N79953   0.693  10.294   5.231  0.1819 -0.0741 -0.1264
  580MOL0     N79954   0.625  10.209   5.305  0.0216  0.5477  0.1320
  580MOL0     C79955   0.707   9.652   6.404  0.4847  0.0951 -0.1203
  580MOL0     C79956   0.751   9.533   6.467 -0.1769 -0.0711  1.2952
  580MOL0     C79957   0.802   9.099   6.582 -0.4405  0.2306  0.6053
  580MOL0     C79958   0.861   9.138   6.699 -0.5288  0.2924 -0.1327
  580MOL0     C79959   0.922   9.046   6.792 -0.2151  0.2110  1.2424
  580MOL0     C79960   0.924   8.909   6.762  1.1877  0.0477  0.0210
  580MOL0     O79961   1.004   8.828   6.837 -0.1385  0.0103  0.0147
  580MOL0     C79962   1.016   8.692   6.825 -1.3254  0.0041  0.1768
  580MOL0     C79963   1.051   8.641   6.961  0.2005 -0.2775 -0.2670
  580MOL0     C79964   1.045   8.484   6.965  0.1973 -0.4459 -0.3798
  580MOL0     C79965   1.079   8.409   7.099 -0.2879 -0.1640  0.2616
  580MOL0     C79966   1.018   8.477   7.210 -0.7483  0.8667 -0.0524
  580MOL0     C79967   0.946   8.530   7.292 -0.1383 -0.4104 -0.2694
  580MOL0     C79968   0.864   8.862   6.640 -0.8931 -0.8116  0.5215
  580MOL0     C79969   0.797   8.959   6.556 -0.7935  1.0226  0.3958
  580MOL0     C79970   0.695   8.901   6.460 -0.0048 -0.2468 -0.0025
  580MOL0     H79971   0.452   9.361   6.486  1.8293 -0.5514 -0.0255
  580MOL0     H79972   0.379   9.541   6.357  1.1721 -2.5536 -0.3465
  580MOL0     H79973   0.681   9.780   6.182 -1.0268 -2.0339 -1.9200
  580MOL0     H79974   0.612   9.932   6.239  0.4241  1.4972 -4.4027
  580MOL0     H79975   0.436   9.789   6.063  1.4376 -1.4164  2.4705
  580MOL0     H79976   0.460   9.970   6.087  3.9716  3.3201  1.6139
  580MOL0     H79977   0.669   9.950   5.964  0.7521  0.0386 -2.2832
  580MOL0     H79978   0.654   9.785   5.928 -0.9598 -0.5856 -1.6390
  580MOL0     H79979   0.426   9.877   5.808 -1.5703  3.5314  1.0756
  580MOL0     H79980   0.510  10.029   5.822 -1.3247 -0.4875  2.1858
  580MOL0     H79981   0.626   9.788   5.682  0.7638  0.6006 -1.7238
  580MOL0     H79982   0.711   9.945   5.727 -0.3322  0.3985  0.6872
  580MOL0     H79983   0.459   9.919   5.561  1.1276 -0.0906  0.4904
  580MOL0     H79984   0.579  10.055   5.572  0.1447  1.2315  0.4786
  580MOL0     H79985   0.634   9.788   5.443  2.4643 -1.1645  0.4833
  580MOL0     H79986   0.742   9.930   5.456 -1.3301  3.3403  0.4479
  580MOL0     H79987   0.583   9.887   5.238 -0.1448  1.3937 -1.1665
  580MOL0     H79988   0.487  10.005   5.316  0.1709  0.3931 -0.0208
  580MOL0     H79989   0.802  10.006   5.119 -0.5581  0.5286 -1.5043
  580MOL0     H79990   0.913  10.358   5.083 -1.1162  1.2099 -0.5840
  580MOL0     H79991   0.778  10.371   4.984 -1.6148 -0.6270  0.0206
  580MOL0     H79992   0.838  10.128   4.882  1.8794 -1.5136 -0.8859
  580MOL0     H79993   0.911  10.274   4.834  2.2704 -2.3151  0.2750
  580MOL0     H79994   1.109  10.239   4.968 -0.5424  1.0389  1.6690
  580MOL0     H79995   1.031  10.121   5.074 -1.9734 -0.5237 -0.0813
  580MOL0     H79996   1.091  10.091   4.778  1.4404 -3.2386 -1.1374
  580MOL0     H79997   1.200  10.053   4.905  0.1985  2.4184 -0.4622
  580MOL0     H79998   1.227   9.906   4.711 -1.1856 -0.4871 -1.9441
  580MOL0     H79999   1.285   9.685   4.451 -3.0012 -0.2388  1.3841
  580MOL0     H80000   1.404   9.655   4.572  0.3550  1.0441  1.2160
  580MOL0     H80001   1.353   9.822   4.552 -2.9965  0.5124  2.1005
  580MOL0     H80002   1.166   9.186   4.600 -0.5609 -0.8133 -0.4769
  580MOL0     H80003   1.183   8.974   4.471 -0.3255  0.3288  1.0592
  580MOL0     H80004   0.976   8.969   4.054  1.1892 -0.1732 -3.0898
  580MOL0     H80005   1.150   8.997   4.063  0.4443 -1.8780 -0.9024
  580MOL0     H80006   1.190   8.761   4.091  0.7113  1.1258 -1.7486
  580MOL0     H80007   1.022   8.722   4.113 -1.0974  0.5585 -1.8999
  580MOL0     H80008   1.146   8.830   3.852  0.4416 -0.9808  0.8119
  580MOL0     H80009   0.976   8.787   3.881  0.2700 -0.0787 -1.3668
  580MOL0     H80010   1.016   8.564   3.932  0.2929 -0.2875 -0.5112
  580MOL0     H80011   1.195   8.581   3.929  0.2645  0.8619 -0.2639
  580MOL0     H80012   0.990   8.628   3.710  0.4656  0.1722 -0.6713
  580MOL0     H80013   1.164   8.643   3.686 -0.2680  0.7974  0.5529
  580MOL0     H80014   1.013   8.390   3.786  0.2745 -0.7356 -1.5111
  580MOL0     H80015   1.191   8.401   3.729  0.8471 -1.5382 -2.9099
  580MOL0     H80016   1.068   8.466   3.503  0.0266  1.7854  1.1242
  580MOL0     H80017   0.917   8.418   3.579  0.0873 -0.6580  2.6923
  580MOL0     H80018   1.001   8.213   3.464 -0.4070 -2.4409  0.7739
  580MOL0     H80019   1.008   8.194   3.636  1.4505 -3.1485 -1.6644
  580MOL0     H80020   0.918   9.164   4.175 -0.7845  2.7209 -1.0526
  580MOL0     H80021   0.880   9.364   4.330 -2.6651 -0.9566 -1.0805
  580MOL0     H80022   0.924   9.529   4.701 -1.8160  1.8416 -0.8405
  580MOL0     H80023   0.886   9.704   4.866 -0.4333 -1.2058 -0.7895
  580MOL0     H80024   0.764   9.744   6.397  0.9719 -0.0480  1.4964
  580MOL0     H80025   0.854   9.530   6.500  0.7523  0.0151 -1.3374
  580MOL0     H80026   0.862   9.242   6.730 -2.1630  0.1634  0.4965
  580MOL0     H80027   0.961   9.072   6.890 -0.6436  0.9932  1.2130
  580MOL0     H80028   0.926   8.639   6.790 -0.3989 -1.2951 -0.3362
  580MOL0     H80029   1.100   8.659   6.762 -3.0981 -2.4274 -1.0958
  580MOL0     H80030   0.986   8.696   7.030 -1.7618 -4.2343  1.3518
  580MOL0     H80031   1.152   8.680   6.978 -0.7986  2.3746  0.1097
  580MOL0     H80032   0.944   8.451   6.939 -0.7789  0.5635  1.8544
  580MOL0     H80033   1.106   8.441   6.885 -0.6692 -1.2600 -0.6234
  580MOL0     H80034   1.187   8.399   7.109 -0.3646  0.0490  1.4401
  580MOL0     H80035   1.040   8.307   7.105 -1.7697  0.4491  2.9357
  580MOL0     H80036   0.898   8.573   7.378 -0.0019 -1.3357  0.2810
  580MOL0     H80037   0.867   8.758   6.607 -1.7383 -1.3609  2.0575
  580MOL0     H80038   0.681   8.793   6.471 -0.6376  0.1225  4.8109
  580MOL0     H80039   0.592   8.936   6.477  0.1160  0.0064  0.2158
  580MOL0     H80040   0.721   8.941   6.362 -0.1332  3.1083  1.1778
  581MOL0     O80041   9.637  10.543   0.689 -0.9127 -0.7907 -0.2285
  581MOL0     C80042   9.590  10.455   0.760 -0.8286  0.7629 -0.5004
  581MOL0     O80043   9.465  10.462   0.821  0.0037  0.2499 -0.1031
  581MOL0     C80044   9.401  10.580   0.800  0.8028 -0.8180  0.0147
  581MOL0     C80045   9.383  10.670   0.905 -0.8768 -0.5801 -0.5267
  581MOL0     C80046   9.330  10.798   0.881 -0.4003  0.5202 -0.5036
  581MOL0     C80047   9.280  10.835   0.759 -0.7086  0.2228  0.6978
  581MOL0     O80048   9.212  10.953   0.746  0.2968 -0.3371  0.0874
  581MOL0     C80049   9.166  10.986   0.609 -0.4098  0.3754 -0.5137
  581MOL0     C80050   9.068  11.112   0.617  0.6450  0.3858  0.3190
  581MOL0     C80051   8.981  11.136   0.497 -0.0469 -0.9243  1.0680
  581MOL0     C80052   8.844  11.064   0.501 -0.4276 -0.9515  0.3768
  581MOL0     C80053   8.778  11.063   0.366 -0.3544 -0.9759 -0.0899
  581MOL0     C80054   8.705  11.193   0.327 -0.6034  0.3648  0.2410
  581MOL0     C80055   8.640  11.185   0.186 -0.1949 -0.1960  0.4225
  581MOL0     C80056   8.491  11.143   0.183 -0.1101  0.0608 -0.0051
  581MOL0     N80057   8.418  11.182   0.061  0.2582 -0.0635 -0.4630
  581MOL0     C80058   8.331  11.290   0.031 -0.2414 -0.2758 -0.1012
  581MOL0     C80059   8.290  11.276  -0.101  0.4393 -0.9535  0.4666
  581MOL0     C80060   8.200  11.367  -0.187 -0.3276 -0.3445 -0.1826
  581MOL0     C80061   8.147  11.475  -0.093  0.2011 -0.3343  0.1590
  581MOL0     C80062   8.045  11.569  -0.168  0.2421  0.7928 -0.5030
  581MOL0     C80063   7.909  11.508  -0.204  0.2316  0.2983 -0.2817
  581MOL0     O80064   7.801  11.575  -0.137 -0.0313  0.3913 -0.3628
  581MOL0     C80065   7.752  11.687  -0.194  0.3845 -0.1090  0.2291
  581MOL0     C80066   7.651  11.754  -0.123  0.4494  0.2964  0.1751
  581MOL0     C80067   7.576  11.867  -0.175 -0.3580  0.2494 -0.0366
  581MOL0     C80068   7.470  11.923  -0.093 -0.2664 -0.2495  0.6806
  581MOL0     C80069   7.636  11.918  -0.298 -0.9291  0.3641  0.1104
  581MOL0     C80070   7.588  12.040  -0.363 -0.2662 -0.0543 -0.0140
  581MOL0     O80071   7.463  12.092  -0.339 -0.3219 -1.6451 -0.3051
  581MOL0     C80072   7.412  12.188  -0.426 -0.9956  0.6305 -0.7534
  581MOL0     C80073   7.392  12.154  -0.559 -0.4879 -0.0226  0.1835
  581MOL0     C80074   7.331  12.247  -0.646 -0.1778 -0.3822 -0.2658
  581MOL0     C80075   7.274  12.366  -0.595  1.0833 -0.5587 -0.0253
  581MOL0     O80076   7.210  12.460  -0.672 -0.4181  0.3358 -0.1569
  581MOL0     C80077   7.169  12.590  -0.621  0.1992 -0.2461 -0.4793
  581MOL0     C80078   7.119  12.653  -0.757 -0.0022 -0.5216 -0.4354
  581MOL0     C80079   7.022  12.770  -0.722 -0.3338  0.5691  0.8865
  581MOL0     C80080   6.929  12.810  -0.835  0.3782 -0.5451  0.3350
  581MOL0     C80081   6.989  12.941  -0.901  0.1736 -0.2556  0.0994
  581MOL0     C80082   6.891  13.009  -1.005  0.1260  0.3879 -0.6812
  581MOL0     C80083   6.748  13.050  -0.962  0.1975  0.0171  0.3005
  581MOL0     C80084   6.704  13.177  -1.031  0.1461  0.0460  1.0387
  581MOL0    Cl80085   6.751  13.168  -1.209  0.4393  0.0128  0.0084
  581MOL0     C80086   7.292  12.391  -0.461 -0.1817  0.1971 -0.4266
  581MOL0     C80087   7.358  12.305  -0.368 -0.0082  0.0498  0.6919
  581MOL0     O80088   7.674  12.092  -0.432  0.6385  0.3740 -0.1448
  581MOL0     C80089   7.743  11.852  -0.359  0.2219  0.1889 -0.9125
  581MOL0     C80090   7.803  11.740  -0.308  0.7485  0.2661  0.1497
  581MOL0     N80091   8.353  11.166  -0.146 -0.1283  0.5945 -0.6864
  581MOL0     N80092   8.419  11.111  -0.056  0.1261  0.7235 -0.5888
  581MOL0     C80093   9.310  10.751   0.646 -0.5951  0.9602 -0.5517
  581MOL0     C80094   9.373  10.622   0.669  0.4691  0.1060  0.5594
  581MOL0     C80095   9.678  10.340   0.790 -0.6140 -0.8406 -0.0888
  581MOL0     C80096   9.658  10.290   0.921 -0.1216  0.1065 -0.0666
  581MOL0     C80097   9.729  10.178   0.962  0.2915 -0.1649 -0.3266
  581MOL0     C80098   9.839  10.136   0.883 -0.7689 -0.7709  0.0362
  581MOL0     O80099   9.917  10.032   0.940 -0.0860 -0.5615  0.6271
  581MOL0     C80100   9.853   9.908   0.916 -0.5235  0.1944  0.4525
  581MOL0     C80101   9.792   9.858   1.047 -0.2894 -0.0743  1.1592
  581MOL0     C80102   9.658   9.783   1.026  0.2221 -0.0277  0.1157
  581MOL0     C80103   9.533   9.873   1.017  0.6174 -0.0188  0.4653
  581MOL0     C80104   9.515   9.936   0.887  0.0287 -0.0522  0.5238
  581MOL0     C80105   9.491   9.986   0.778  0.9301  0.0651 -0.6203
  581MOL0     C80106   9.875  10.204   0.760  0.2858  0.2960  0.1569
  581MOL0     C80107   9.790  10.312   0.709 -0.4039  0.6443 -0.3915
  581MOL0     C80108   9.832  10.368   0.579 -1.0434 -0.0790  0.0981
  581MOL0     H80109   9.404  10.642   1.008 -1.6309 -0.0291 -0.2135
  581MOL0     H80110   9.310  10.870   0.960  1.8323  2.0312 -1.2091
  581MOL0     H80111   9.103  10.905   0.571 -1.1383  0.9079 -0.4658
  581MOL0     H80112   9.253  10.998   0.544 -1.8299 -1.3364 -2.9088
  581MOL0     H80113   9.006  11.084   0.703  0.2294  2.4566  0.7354
  581MOL0     H80114   9.117  11.208   0.631 -0.4265  1.2998 -1.6630
  581MOL0     H80115   8.959  11.243   0.493  0.8845 -0.6990  1.7405
  581MOL0     H80116   9.045  11.115   0.410  2.0643  1.3561  1.9726
  581MOL0     H80117   8.874  10.961   0.523  2.3817 -0.7348 -1.8654
  581MOL0     H80118   8.789  11.113   0.582  0.8951  0.3846  0.5130
  581MOL0     H80119   8.704  10.982   0.359 -0.6621 -0.5248 -4.4274
  581MOL0     H80120   8.845  11.032   0.286 -0.5453  0.6987 -0.9274
  581MOL0     H80121   8.631  11.206   0.407 -3.2569 -4.8534 -0.9868
  581MOL0     H80122   8.773  11.279   0.318  0.9361 -1.0144 -2.6103
  581MOL0     H80123   8.700  11.116   0.126 -0.7277  0.5385 -0.9965
  581MOL0     H80124   8.643  11.288   0.147 -2.4478 -0.7560 -1.5247
  581MOL0     H80125   8.486  11.033   0.181 -2.4750  0.0974 -3.5005
  581MOL0     H80126   8.438  11.172   0.274  1.2119 -2.3156  1.6604
  581MOL0     H80127   8.313  11.370   0.102 -0.1279 -0.2955 -0.0499
  581MOL0     H80128   8.116  11.313  -0.231 -3.8355  0.6494  4.5000
  581MOL0     H80129   8.263  11.416  -0.263  0.8695 -0.1041  0.9238
  581MOL0     H80130   8.111  11.432   0.001  1.1326 -2.7325 -0.5281
  581MOL0     H80131   8.230  11.541  -0.066 -0.0369 -0.0634  0.2398
  581MOL0     H80132   8.039  11.645  -0.090  0.0809  0.3024 -0.0297
  581MOL0     H80133   8.096  11.608  -0.257  3.1107 -1.2570  0.1052
  581MOL0     H80134   7.894  11.500  -0.312  0.3313 -0.5117 -0.2421
  581MOL0     H80135   7.914  11.404  -0.171 -3.5677  0.4814  1.4377
  581MOL0     H80136   7.616  11.711  -0.030 -4.0673  1.0922 -0.9182
  581MOL0     H80137   7.497  12.026  -0.070  0.0559 -0.4923  1.4201
  581MOL0     H80138   7.469  11.870   0.002  1.1018 -3.1359 -0.7729
  581MOL0     H80139   7.371  11.923  -0.138  1.1939  1.9869 -2.9907
  581MOL0     H80140   7.397  12.057  -0.609 -3.2900 -0.1026 -0.1069
  581MOL0     H80141   7.335  12.232  -0.754 -1.8385  0.4112 -0.4704
  581MOL0     H80142   7.083  12.576  -0.555  1.8177 -0.5145  1.6832
  581MOL0     H80143   7.252  12.646  -0.577  1.5046 -0.5245 -2.4421
  581MOL0     H80144   7.207  12.690  -0.810  0.1498  0.5713  0.5306
  581MOL0     H80145   7.062  12.581  -0.817 -2.4762  0.0199  1.1046
  581MOL0     H80146   7.076  12.851  -0.671 -0.3786  0.1755  1.5774
  581MOL0     H80147   6.964  12.734  -0.636  3.9215 -0.8102  3.5423
  581MOL0     H80148   6.829  12.827  -0.796 -0.0466  1.4321 -1.4458
  581MOL0     H80149   6.910  12.741  -0.917 -0.7967  0.6021 -0.3985
  581MOL0     H80150   7.023  13.011  -0.824 -1.1441  0.5961 -0.0628
  581MOL0     H80151   7.085  12.912  -0.944  1.7459  1.3932  2.2971
  581MOL0     H80152   6.884  12.939  -1.088 -0.2302 -1.7497  1.0452
  581MOL0     H80153   6.948  13.099  -1.027  3.3332 -1.0540  1.0793
  581MOL0     H80154   6.749  13.064  -0.853 -1.1647  1.2024  0.1794
  581MOL0     H80155   6.685  12.965  -0.987 -0.1592  1.2214 -3.4673
  581MOL0     H80156   6.744  13.271  -0.992  0.7671  0.7525 -1.1437
  581MOL0     H80157   6.595  13.177  -1.033  0.1004  0.3633 -2.1809
  581MOL0     H80158   7.245  12.480  -0.419 -1.6334 -0.4954 -0.5074
  581MOL0     H80159   7.361  12.334  -0.263  1.9577  0.4900  0.5509
  581MOL0     H80160   7.791  11.886  -0.450 -1.6796 -0.6390 -2.2798
  581MOL0     H80161   7.887  11.703  -0.365  0.4125 -1.1056  0.4990
  581MOL0     H80162   9.291  10.770   0.541 -3.1585 -2.5954 -0.8925
  581MOL0     H80163   9.395  10.560   0.582  1.3198 -0.2937  1.0486
  581MOL0     H80164   9.577  10.317   0.988 -0.2446 -1.7899  0.6395
  581MOL0     H80165   9.705  10.116   1.048  3.3021 -0.0534  0.7011
  581MOL0     H80166   9.779   9.914   0.835  1.0196  2.5431 -0.9347
  581MOL0     H80167   9.935   9.841   0.889  1.2740  2.0378  1.0120
  581MOL0     H80168   9.778   9.940   1.119 -0.6387  1.6646 -0.7775
  581MOL0     H80169   9.862   9.788   1.093  0.8693  1.5186  1.9224
  581MOL0     H80170   9.664   9.716   0.940  0.4359  1.3906 -1.0049
  581MOL0     H80171   9.656   9.717   1.114 -0.8290  0.8848  0.7973
  581MOL0     H80172   9.538   9.945   1.099 -1.3148 -0.8205  1.3753
  581MOL0     H80173   9.440   9.817   1.033  0.6563 -0.1177  0.3500
  581MOL0     H80174   9.463  10.018   0.679  0.7723 -3.2411 -1.7761
  581MOL0     H80175   9.961  10.154   0.716  0.6693 -0.1497  1.3890
  581MOL0     H80176   9.860  10.296   0.501  0.5879  0.6753 -0.0490
  581MOL0     H80177   9.766  10.440   0.530 -0.5510 -0.0108 -0.4765
  581MOL0     H80178   9.915  10.435   0.601  1.0279 -2.1505 -0.9635
  582MOL0     O80179   9.783   1.398   2.109  0.1080 -0.1888 -0.7232
  582MOL0     C80180   9.674   1.455   2.120 -0.0707  1.1756 -0.1919
  582MOL0     O80181   9.562   1.432   2.044 -0.1562 -0.5276  0.3504
  582MOL0     C80182   9.565   1.343   1.941  0.2500  0.7989 -0.9852
  582MOL0     C80183   9.441   1.291   1.906  0.0602 -0.1180  0.1804
  582MOL0     C80184   9.423   1.221   1.785  0.6219 -0.2641  0.5261
  582MOL0     C80185   9.527   1.205   1.693 -0.1712 -0.3540  0.0885
  582MOL0     O80186   9.487   1.142   1.585 -0.4836 -0.3180 -0.0784
  582MOL0     C80187   9.595   1.098   1.495  1.3259 -0.4527 -0.3321
  582MOL0     C80188   9.538   1.040   1.369 -0.0146  0.0511 -0.5378
  582MOL0     C80189   9.504   0.890   1.396 -0.2223  0.0008  0.3350
  582MOL0     C80190   9.407   0.833   1.290  1.4908 -0.0967 -0.4569
  582MOL0     C80191   9.369   0.688   1.320 -0.0555 -0.5434 -0.1692
  582MOL0     C80192   9.294   0.620   1.202  0.5205  1.0251  0.5358
  582MOL0     C80193   9.169   0.698   1.148 -0.0417 -0.0185  0.5430
  582MOL0     C80194   9.052   0.727   1.255 -0.2463 -0.4521  0.7145
  582MOL0     N80195   8.945   0.801   1.183  0.0309  0.0372  1.4479
  582MOL0     C80196   8.809   0.761   1.191  0.7418 -0.3717 -0.0042
  582MOL0     C80197   8.754   0.836   1.094  0.0650 -0.8461 -0.3136
  582MOL0     C80198   8.604   0.837   1.064  1.2468 -0.6041 -1.3578
  582MOL0     C80199   8.564   0.741   0.951 -0.2854  0.2183 -0.2261
  582MOL0     C80200   8.608   0.600   0.975 -0.2501  0.6516  0.0026
  582MOL0     C80201   8.596   0.509   0.847  0.4513  0.0237  0.1743
  582MOL0     O80202   8.644   0.375   0.879  0.4488  0.1982 -0.3948
  582MOL0     C80203   8.562   0.291   0.950  0.0269  0.3606 -0.0408
  582MOL0     C80204   8.617   0.167   0.990 -0.6237 -0.0158 -0.9226
  582MOL0     C80205   8.544   0.072   1.063 -0.5985 -0.8633  0.3142
  582MOL0     C80206   8.632  -0.030   1.111  1.3031 -0.3436  0.3033
  582MOL0     C80207   8.404   0.078   1.071 -0.4110  0.5855  0.4156
  582MOL0     C80208   8.321  -0.025   1.134  0.5515  0.7739 -0.4520
  582MOL0     O80209   8.200   0.011   1.169  0.6517 -0.2128 -0.2789
  582MOL0     C80210   8.117  -0.072   1.234  0.7153  1.1268 -0.3040
  582MOL0     C80211   8.049  -0.170   1.153 -0.4360  0.6236 -0.1789
  582MOL0     C80212   7.950  -0.250   1.204  0.3375 -0.7825 -0.8690
  582MOL0     C80213   7.910  -0.242   1.337  0.4319 -0.6170  0.4140
  582MOL0     O80214   7.826  -0.330   1.403 -0.0314  0.4263 -0.9486
  582MOL0     C80215   7.711  -0.360   1.328 -0.4849 -1.0681 -0.8507
  582MOL0     C80216   7.723  -0.499   1.265 -0.3594 -0.4040  0.1872
  582MOL0     C80217   7.602  -0.520   1.173  0.4276  0.0892 -0.4276
  582MOL0     C80218   7.621  -0.631   1.066  0.7965 -0.1130 -0.7536
  582MOL0     C80219   7.681  -0.755   1.131 -0.5776  0.1967  0.7380
  582MOL0     C80220   7.615  -0.884   1.090  0.5841 -0.3294 -0.2745
  582MOL0     C80221   7.653  -1.013   1.164 -0.0096  0.2981  0.7863
  582MOL0     C80222   7.595  -1.140   1.110  0.8392  0.1927  0.4978
  582MOL0    Cl80223   7.423  -1.133   1.152 -0.2704 -0.1601  0.2857
  582MOL0     C80224   7.968  -0.147   1.411 -0.2588 -0.5112 -0.4636
  582MOL0     C80225   8.076  -0.061   1.365 -1.0373  1.0227  0.8790
  582MOL0     O80226   8.372  -0.134   1.155  0.5278  0.2863  0.8548
  582MOL0     C80227   8.343   0.189   1.016  0.6198  0.2995  0.8347
  582MOL0     C80228   8.419   0.302   0.972 -0.1130 -0.4126 -0.1775
  582MOL0     N80229   8.854   0.915   1.029  0.9110 -0.2050  0.1553
  582MOL0     N80230   8.963   0.886   1.078 -0.1522  0.6695  1.4562
  582MOL0     C80231   9.652   1.261   1.726  0.4513  0.4271 -0.1302
  582MOL0     C80232   9.663   1.329   1.854  0.6022  0.2722  0.6027
  582MOL0     C80233   9.663   1.544   2.237 -0.1464  0.4922 -0.1297
  582MOL0     C80234   9.540   1.554   2.304 -0.2730  0.2182  0.0168
  582MOL0     C80235   9.529   1.627   2.429 -0.6254  0.3223 -0.1542
  582MOL0     C80236   9.629   1.702   2.488  0.1340 -0.8691 -0.3013
  582MOL0     O80237   9.618   1.753   2.615 -0.4855 -0.4897  0.0807
  582MOL0     C80238   9.498   1.830   2.642  0.4354  0.1664 -0.0432
  582MOL0     C80239   9.461   1.950   2.555 -0.0607  1.1134 -0.0581
  582MOL0     C80240   9.570   2.047   2.519  0.0302  0.2240 -0.0685
  582MOL0     C80241   9.516   2.188   2.482  0.3858  0.9400 -0.2135
  582MOL0     C80242   9.482   2.207   2.342 -0.7584  0.4254 -0.3557
  582MOL0     C80243   9.434   2.236   2.240 -0.8124 -0.2563  0.0010
  582MOL0     C80244   9.754   1.698   2.418  0.0973  0.2966 -0.1429
  582MOL0     C80245   9.771   1.627   2.293  0.0882  0.7588 -0.7372
  582MOL0     C80246   9.913   1.620   2.228  0.1120 -0.0450 -0.0321
  582MOL0     H80247   9.355   1.312   1.968 -0.5840 -2.5496  0.2215
  582MOL0     H80248   9.324   1.191   1.753  2.0070 -2.0423 -2.5775
  582MOL0     H80249   9.668   1.040   1.553 -0.3814 -0.9470  1.4215
  582MOL0     H80250   9.650   1.183   1.453 -1.2836  0.7904 -1.5273
  582MOL0     H80251   9.451   1.105   1.356  0.4702  0.3069 -2.8773
  582MOL0     H80252   9.614   1.055   1.293  0.7763  1.0885  0.4214
  582MOL0     H80253   9.596   0.831   1.389  1.0597  1.5866  2.7851
  582MOL0     H80254   9.469   0.868   1.498 -0.6366 -3.1225 -0.3567
  582MOL0     H80255   9.318   0.896   1.286  2.3412  1.2602  0.6501
  582MOL0     H80256   9.464   0.813   1.199  1.7895  1.9258 -0.7777
  582MOL0     H80257   9.302   0.692   1.407  2.5282  1.1005  1.8971
  582MOL0     H80258   9.458   0.627   1.337 -0.6639 -2.7358 -3.8117
  582MOL0     H80259   9.369   0.629   1.122  0.5792  0.1124  0.4754
  582MOL0     H80260   9.273   0.514   1.218  0.7746  0.4592 -2.2719
  582MOL0     H80261   9.132   0.632   1.070  1.3149  0.9800 -1.0287
  582MOL0     H80262   9.205   0.791   1.103  1.5514 -1.9057 -2.4155
  582MOL0     H80263   9.021   0.637   1.309  0.0017 -2.5453 -2.3244
  582MOL0     H80264   9.082   0.795   1.334 -1.7815  1.3996 -0.1985
  582MOL0     H80265   8.770   0.681   1.253  1.5484 -1.8939 -1.3978
  582MOL0     H80266   8.578   0.938   1.034  0.5867 -0.5101 -0.5116
  582MOL0     H80267   8.546   0.820   1.155 -0.2050 -0.6339 -2.2519
  582MOL0     H80268   8.456   0.744   0.933 -0.3043 -2.1001 -0.7770
  582MOL0     H80269   8.617   0.772   0.860  0.0537  0.8619  0.1804
  582MOL0     H80270   8.713   0.595   1.007 -0.8439 -1.2496  1.8699
  582MOL0     H80271   8.547   0.551   1.051 -0.1103  0.2838 -0.1199
  582MOL0     H80272   8.496   0.504   0.802  0.1837  0.2474  0.7446
  582MOL0     H80273   8.660   0.554   0.771 -1.1962  0.6664 -0.8996
  582MOL0     H80274   8.720   0.137   0.971 -0.4314  1.0889 -1.7189
  582MOL0     H80275   8.645  -0.104   1.031 -1.9144  0.9083 -1.5648
  582MOL0     H80276   8.583  -0.076   1.198  1.2101 -0.2044  0.3236
  582MOL0     H80277   8.726   0.013   1.147  0.7988 -1.5120  3.2695
  582MOL0     H80278   8.078  -0.188   1.051  0.8259 -1.2101  0.4482
  582MOL0     H80279   7.901  -0.325   1.143 -3.2930  2.2244 -1.9822
  582MOL0     H80280   7.623  -0.360   1.393 -0.6283 -4.5646 -0.8503
  582MOL0     H80281   7.690  -0.286   1.250 -0.7878  0.0233  0.2532
  582MOL0     H80282   7.813  -0.514   1.205  1.2482 -1.9768  2.7920
  582MOL0     H80283   7.740  -0.580   1.337  1.7713 -1.0974 -1.0200
  582MOL0     H80284   7.567  -0.425   1.132 -0.3118  0.8154  1.7585
  582MOL0     H80285   7.510  -0.538   1.230 -0.4412  1.7079 -1.2538
  582MOL0     H80286   7.687  -0.589   0.990 -0.9866  1.5703 -1.4751
  582MOL0     H80287   7.532  -0.649   1.006  0.1349  2.7186 -0.7971
  582MOL0     H80288   7.788  -0.773   1.116 -0.7123 -0.2150  0.2287
  582MOL0     H80289   7.662  -0.744   1.238 -1.1621  4.0997  0.3797
  582MOL0     H80290   7.635  -0.893   0.983  1.2972  1.3779 -0.3251
  582MOL0     H80291   7.507  -0.873   1.102  0.6131  1.1540 -1.0964
  582MOL0     H80292   7.618  -0.992   1.266  1.5664  1.3406  1.1519
  582MOL0     H80293   7.762  -1.013   1.174  0.1237  3.3039  0.3060
  582MOL0     H80294   7.632  -1.226   1.166  0.6322  0.5063  1.1261
  582MOL0     H80295   7.595  -1.149   1.001 -3.5297 -0.4211  0.3640
  582MOL0     H80296   7.946  -0.139   1.517 -1.3476 -0.3181 -0.6873
  582MOL0     H80297   8.131  -0.008   1.441 -0.1457 -2.1838  2.6833
  582MOL0     H80298   8.236   0.206   1.005  1.2473  2.9559 -2.7113
  582MOL0     H80299   8.368   0.394   0.945 -1.1537 -1.3884 -1.6645
  582MOL0     H80300   9.739   1.252   1.662  1.6855  4.0195  0.8421
  582MOL0     H80301   9.756   1.383   1.866 -0.6550  2.5480  0.5820
  582MOL0     H80302   9.454   1.502   2.266  0.3334 -1.5712  0.9940
  582MOL0     H80303   9.436   1.609   2.481 -2.1128  0.7767 -2.5419
  582MOL0     H80304   9.412   1.763   2.634  2.2786 -2.2582 -0.9594
  582MOL0     H80305   9.506   1.849   2.750 -1.8602 -1.8195  0.5676
  582MOL0     H80306   9.371   1.994   2.598 -1.6881 -0.1022 -2.0294
  582MOL0     H80307   9.422   1.909   2.462 -0.7240  2.2739 -0.3081
  582MOL0     H80308   9.641   2.050   2.603  0.1259 -2.3335  0.0134
  582MOL0     H80309   9.633   2.011   2.438 -0.9886  1.8755 -1.6778
  582MOL0     H80310   9.599   2.257   2.500  1.5178  0.1346 -2.1046
  582MOL0     H80311   9.432   2.214   2.548  0.0818  1.0037 -0.6195
  582MOL0     H80312   9.381   2.278   2.157 -0.8515  1.9199  1.0714
  582MOL0     H80313   9.841   1.746   2.462  0.9711 -1.6496  0.3519
  582MOL0     H80314   9.956   1.526   2.266  1.5427  0.0514 -1.3265
  582MOL0     H80315   9.907   1.641   2.121 -1.0729  0.0733  0.0461
  582MOL0     H80316   9.971   1.701   2.273 -0.4658 -0.2799  1.1774
  583MOL0     O80317   6.249  10.704   8.440  1.0277 -0.0328 -0.8185
  583MOL0     C80318   6.283  10.764   8.346 -0.4019 -0.1793 -0.2111
  583MOL0     O80319   6.302  10.903   8.329  1.1454 -0.0788  0.0347
  583MOL0     C80320   6.262  10.979   8.445  0.2930  1.2910  0.9621
  583MOL0     C80321   6.139  11.041   8.430 -0.5007  0.1028  0.7600
  583MOL0     C80322   6.086  11.094   8.547  0.5276 -0.2661 -0.0813
  583MOL0     C80323   6.162  11.104   8.669  0.3801  0.2726 -0.4731
  583MOL0     O80324   6.105  11.167   8.776  0.2958 -0.0198  0.0814
  583MOL0     C80325   6.193  11.217   8.882 -0.2753 -0.3825 -0.9775
  583MOL0     C80326   6.114  11.317   8.983 -0.9662 -0.0525  1.2387
  583MOL0     C80327   6.015  11.239   9.072 -0.1555  0.2753 -0.0818
  583MOL0     C80328   6.080  11.153   9.180  0.8085  0.2628  0.8793
  583MOL0     C80329   5.969  11.049   9.226 -0.0742 -0.1350  0.3113
  583MOL0     C80330   5.840  11.118   9.271 -0.1327 -0.0069 -0.8845
  583MOL0     C80331   5.858  11.155   9.419 -0.6656 -1.5189 -0.5078
  583MOL0     C80332   5.734  11.203   9.488 -0.6469 -0.3851  0.0353
  583MOL0     N80333   5.648  11.089   9.514 -0.2817 -0.1331 -0.8046
  583MOL0     C80334   5.531  11.069   9.461  0.3495 -0.3658 -0.9121
  583MOL0     C80335   5.477  10.960   9.529  0.1974 -0.2795  0.8124
  583MOL0     C80336   5.357  10.894   9.477 -0.9633 -0.5519 -0.0675
  583MOL0     C80337   5.381  10.769   9.382  0.1499 -0.1982  0.3116
  583MOL0     C80338   5.425  10.814   9.250  0.0261  0.4411  0.7258
  583MOL0     C80339   5.430  10.698   9.148 -0.1021  0.2292 -0.7896
  583MOL0     O80340   5.302  10.665   9.087 -0.5109 -0.0813  0.3060
  583MOL0     C80341   5.307  10.550   9.017  0.0023 -0.3153 -0.1973
  583MOL0     C80342   5.288  10.431   9.079  0.3298 -0.0578 -0.1593
  583MOL0     C80343   5.256  10.321   9.003  0.3834 -0.3740 -0.2756
  583MOL0     C80344   5.252  10.192   9.079  0.5408  0.6016 -0.8738
  583MOL0     C80345   5.251  10.324   8.868 -0.0966 -0.0426 -0.0636
  583MOL0     C80346   5.212  10.211   8.779 -0.4960  0.1196 -0.5052
  583MOL0     O80347   5.210  10.242   8.649 -0.3669  0.1220  0.1128
  583MOL0     C80348   5.191  10.135   8.570  0.1006  1.2316  0.2713
  583MOL0     C80349   5.278  10.023   8.571 -0.8168 -0.0887 -0.2622
  583MOL0     C80350   5.261   9.916   8.489  0.6542  0.2220 -0.2965
  583MOL0     C80351   5.151   9.902   8.401 -0.3481  0.2677  0.2319
  583MOL0     O80352   5.133   9.798   8.310 -0.2327 -0.6073  0.0321
  583MOL0     C80353   4.999   9.754   8.260  0.6861  0.8294 -1.1043
  583MOL0     C80354   4.977   9.808   8.127  0.4887  0.3551  0.1821
  583MOL0     C80355   5.092   9.783   8.039  0.1098  0.2558 -0.1572
  583MOL0     C80356   5.073   9.824   7.892 -0.0670 -0.0982 -0.0347
  583MOL0     C80357   5.058   9.982   7.886  0.3343 -0.5722 -0.0748
  583MOL0     C80358   5.048  10.030   7.736  0.2597  0.0061  0.1348
  583MOL0     C80359   4.898  10.034   7.678  0.1037  0.6948  0.2859
  583MOL0     C80360   4.889  10.042   7.528 -0.5257  0.0884 -0.4811
  583MOL0    Cl80361   4.990  10.179   7.457  0.1742 -0.0217 -0.4914
  583MOL0     C80362   5.063  10.015   8.403 -0.6282 -0.0208 -0.6479
  583MOL0     C80363   5.080  10.134   8.480 -0.0164 -0.3350 -1.0634
  583MOL0     O80364   5.182  10.105   8.830  0.3127  0.3501 -0.0420
  583MOL0     C80365   5.285  10.444   8.801 -0.6334 -0.6065 -0.2906
  583MOL0     C80366   5.308  10.559   8.883 -0.2806 -0.2532 -0.3608
  583MOL0     N80367   5.566  10.919   9.613  0.1107  0.0001 -0.1033
  583MOL0     N80368   5.664  10.999   9.609 -1.3643  0.4189 -0.3781
  583MOL0     C80369   6.294  11.046   8.674  0.7969  0.9126 -0.1376
  583MOL0     C80370   6.341  10.981   8.563  0.2007  0.2865 -0.3855
  583MOL0     C80371   6.289  10.681   8.229 -0.5153  0.4584  0.7587
  583MOL0     C80372   6.326  10.546   8.241  0.6570  0.9774  0.0797
  583MOL0     C80373   6.329  10.462   8.133 -0.2418  0.1592 -0.0187
  583MOL0     C80374   6.297  10.510   8.003  0.3569 -0.4523 -0.1095
  583MOL0     O80375   6.311  10.433   7.891 -0.2328  0.0436  0.6008
  583MOL0     C80376   6.400  10.310   7.885 -0.3363  0.0397  0.0948
  583MOL0     C80377   6.343  10.231   7.765 -0.5333 -0.0307  0.7459
  583MOL0     C80378   6.193  10.194   7.784  0.0091 -0.7874  0.8090
  583MOL0     C80379   6.157  10.062   7.719  0.0983 -0.5728 -0.3234
  583MOL0     C80380   6.176  10.064   7.572  0.8911 -0.3646 -0.8587
  583MOL0     C80381   6.183  10.064   7.449  0.3369 -0.3313 -1.0580
  583MOL0     C80382   6.266  10.647   7.991  0.0552  1.0667  0.6299
  583MOL0     C80383   6.260  10.729   8.097  0.3638  0.0999 -0.1277
  583MOL0     C80384   6.205  10.867   8.080 -0.5366 -0.0931 -0.6704
  583MOL0     H80385   6.093  11.031   8.332  0.8502  0.0599  0.0994
  583MOL0     H80386   5.984  11.129   8.559  0.0810 -1.6217  0.3042
  583MOL0     H80387   6.280  11.266   8.837  1.2127 -0.8135  1.2796
  583MOL0     H80388   6.238  11.143   8.949  1.0574  0.5536 -0.7923
  583MOL0     H80389   6.191  11.352   9.052  0.3581  1.9199 -1.0990
  583MOL0     H80390   6.068  11.393   8.920  0.8816 -2.7236 -3.8562
  583MOL0     H80391   5.950  11.308   9.127 -2.5529 -1.6937 -0.2506
  583MOL0     H80392   5.938  11.185   9.016  0.2339 -1.8685  1.3188
  583MOL0     H80393   6.164  11.094   9.145  0.2442 -0.2009  0.2705
  583MOL0     H80394   6.119  11.228   9.249  1.2352  1.4762 -0.6156
  583MOL0     H80395   6.018  10.992   9.305 -0.0784 -0.6484 -0.0498
  583MOL0     H80396   5.951  10.990   9.136 -0.6265 -2.3832  1.8283
  583MOL0     H80397   5.806  11.197   9.202 -0.9149  0.1042 -0.3832
  583MOL0     H80398   5.763  11.042   9.263 -1.4996  1.5100 -3.7977
  583MOL0     H80399   5.937  11.229   9.427  1.5089 -3.8030  0.8543
  583MOL0     H80400   5.886  11.064   9.474 -0.6496 -0.8276  0.6621
  583MOL0     H80401   5.761  11.239   9.587 -3.0330  0.0669  0.5798
  583MOL0     H80402   5.692  11.288   9.433  1.8115 -0.4160 -2.0786
  583MOL0     H80403   5.503  11.125   9.373 -0.2907 -1.9973 -1.7821
  583MOL0     H80404   5.290  10.960   9.422 -0.3415 -0.0743 -0.2477
  583MOL0     H80405   5.309  10.856   9.568 -0.7540  0.9314  0.7026
  583MOL0     H80406   5.460  10.706   9.422  2.5279  3.6838  2.4299
  583MOL0     H80407   5.287  10.715   9.369  0.1902  0.4107 -4.1495
  583MOL0     H80408   5.357  10.883   9.200  1.6705 -0.0277 -2.4452
  583MOL0     H80409   5.516  10.872   9.268  0.7660 -0.8046  1.1672
  583MOL0     H80410   5.497  10.745   9.075 -1.0702  1.7587 -0.7316
  583MOL0     H80411   5.482  10.617   9.201  1.5950  0.0126 -2.6485
  583MOL0     H80412   5.282  10.423   9.187 -0.9505  0.4088 -0.1809
  583MOL0     H80413   5.271  10.216   9.183 -0.3284  3.9206 -1.3761
  583MOL0     H80414   5.335  10.126   9.052 -0.7271 -1.0296 -0.9508
  583MOL0     H80415   5.158  10.135   9.076  1.8582 -2.0262  2.1454
  583MOL0     H80416   5.364  10.024   8.638 -0.6836  1.7958 -0.4010
  583MOL0     H80417   5.338   9.840   8.482  1.6476  1.2042 -0.4362
  583MOL0     H80418   4.997   9.645   8.253  4.5199  0.5313 -0.1077
  583MOL0     H80419   4.913   9.777   8.323 -0.3335 -0.0731 -2.1397
  583MOL0     H80420   4.888   9.765   8.080  0.4210  1.9583 -1.2344
  583MOL0     H80421   4.939   9.911   8.132 -5.7849 -1.4599 -0.4728
  583MOL0     H80422   5.134   9.682   8.039 -2.3456 -0.8455 -1.0223
  583MOL0     H80423   5.169   9.848   8.081  1.9791 -1.4228 -0.8520
  583MOL0     H80424   4.989   9.765   7.853  2.6327 -4.9607  0.6040
  583MOL0     H80425   5.160   9.800   7.829 -0.3325  0.0955 -0.4807
  583MOL0     H80426   4.967  10.014   7.936  0.2906 -0.1814 -0.4007
  583MOL0     H80427   5.137  10.039   7.935 -0.3925 -1.2466  1.9740
  583MOL0     H80428   5.102   9.964   7.668  4.0440 -0.6252  3.4177
  583MOL0     H80429   5.114  10.117   7.731  0.2395 -0.0458 -1.3689
  583MOL0     H80430   4.838  10.115   7.719 -2.2824 -1.2846  0.8764
  583MOL0     H80431   4.848   9.943   7.711 -1.1238  1.4961  0.6713
  583MOL0     H80432   4.782  10.044   7.504 -0.5803  2.8815 -0.3576
  583MOL0     H80433   4.936   9.958   7.477  0.0097  0.5376 -0.7253
  583MOL0     H80434   4.987  10.022   8.326  0.2616  1.7585 -1.4174
  583MOL0     H80435   5.038  10.229   8.452  2.1093  0.4022 -1.9680
  583MOL0     H80436   5.285  10.456   8.693 -0.4162  3.0608 -0.0071
  583MOL0     H80437   5.323  10.658   8.842 -0.7646  1.1497  2.5507
  583MOL0     H80438   6.350  11.054   8.767 -0.5150  3.9368  0.5099
  583MOL0     H80439   6.435  10.927   8.571  1.2587  2.2289  1.1337
  583MOL0     H80440   6.331  10.509   8.343 -3.5599  0.4114  0.2676
  583MOL0     H80441   6.364  10.361   8.152  0.3041  1.0154  4.9318
  583MOL0     H80442   6.505  10.326   7.860 -0.7900  1.2095 -1.1692
  583MOL0     H80443   6.404  10.245   7.973  2.4490 -1.6500 -1.1521
  583MOL0     H80444   6.397  10.138   7.745 -2.5712 -1.2492  0.5905
  583MOL0     H80445   6.359  10.293   7.676 -1.4717 -2.1563 -1.0230
  583MOL0     H80446   6.168  10.194   7.890 -0.9537  1.7448  0.6397
  583MOL0     H80447   6.132  10.274   7.743  0.2898 -1.7763 -1.7538
  583MOL0     H80448   6.055  10.041   7.750  0.8610 -3.1572  0.6453
  583MOL0     H80449   6.229   9.988   7.755  2.5528  0.7537 -2.1452
  583MOL0     H80450   6.209  10.079   7.346 -0.4189 -2.4630 -1.6272
  583MOL0     H80451   6.219  10.668   7.895 -0.6428 -2.4581  0.0806
  583MOL0     H80452   6.287  10.939   8.068 -0.4207 -0.1715 -0.3676
  583MOL0     H80453   6.147  10.884   7.989 -3.2657  1.8536  1.2713
  583MOL0     H80454   6.140  10.906   8.159 -0.2570  1.6304 -1.2517
  584MOL0     O80455   3.789   8.312   7.280 -0.6789 -0.4747 -0.0504
  584MOL0     C80456   3.794   8.237   7.183  0.2019  0.4373 -0.2494
  584MOL0     O80457   3.862   8.261   7.066 -0.0691 -0.3305  0.1573
  584MOL0     C80458   3.936   8.380   7.053  0.4386  0.3278  0.1803
  584MOL0     C80459   3.882   8.506   7.067  0.8444 -0.1810 -0.4758
  584MOL0     C80460   3.950   8.625   7.057 -0.9518 -0.2909  0.4036
  584MOL0     C80461   4.083   8.615   7.020  0.6609 -0.0745  0.3407
  584MOL0     O80462   4.159   8.732   6.992  0.8868  0.2606  0.4804
  584MOL0     C80463   4.135   8.841   7.087 -0.2689  0.0181 -0.0428
  584MOL0     C80464   4.197   8.973   7.037 -0.2187  0.4892  1.6084
  584MOL0     C80465   4.146   9.017   6.894 -0.8993  0.0511  0.3761
  584MOL0     C80466   3.991   9.048   6.884 -0.0579 -0.3355 -0.4159
  584MOL0     C80467   3.949   9.097   6.748  1.5216 -0.1588 -0.4912
  584MOL0     C80468   3.800   9.124   6.731 -0.4269  0.9385 -0.1508
  584MOL0     C80469   3.774   9.215   6.605 -0.6804  0.2230  0.3328
  584MOL0     C80470   3.807   9.142   6.471  0.1249 -0.6117  0.1867
  584MOL0     N80471   3.767   9.234   6.360 -0.1985 -0.5494 -0.1064
  584MOL0     C80472   3.664   9.212   6.271  0.1044  0.0195 -0.2746
  584MOL0     C80473   3.680   9.279   6.160 -0.4048 -1.1696  0.1046
  584MOL0     C80474   3.614   9.261   6.025  0.7791 -0.4871 -0.3026
  584MOL0     C80475   3.467   9.309   6.011  0.5827  0.0335 -0.2686
  584MOL0     C80476   3.377   9.240   6.116  0.9621  0.4687 -0.6327
  584MOL0     C80477   3.226   9.243   6.068  0.2488 -0.5304 -0.3870
  584MOL0     O80478   3.148   9.199   6.180  0.6942 -0.0848  0.5257
  584MOL0     C80479   3.011   9.178   6.168  0.3016 -0.0559 -0.2221
  584MOL0     C80480   2.946   9.100   6.255 -0.2054  0.5273 -0.3212
  584MOL0     C80481   2.807   9.072   6.240  0.4192  0.7845  0.9142
  584MOL0     C80482   2.740   9.002   6.354  0.0789  0.0577 -0.6786
  584MOL0     C80483   2.728   9.114   6.131 -0.5538 -0.1343  0.3292
  584MOL0     C80484   2.590   9.068   6.106 -0.5444 -0.1726  0.9010
  584MOL0     O80485   2.551   8.946   6.142  0.3754 -0.3917  0.6854
  584MOL0     C80486   2.437   8.887   6.090  0.6106 -0.2139  0.3546
  584MOL0     C80487   2.422   8.881   5.946 -0.0649  0.7432 -0.1807
  584MOL0     C80488   2.317   8.803   5.884 -0.5719  0.4172 -0.3028
  584MOL0     C80489   2.225   8.732   5.962  0.2565 -0.5053 -0.3359
  584MOL0     O80490   2.118   8.666   5.894 -0.1066 -0.1171  0.4060
  584MOL0     C80491   1.994   8.654   5.960 -0.0236 -0.2276 -0.1916
  584MOL0     C80492   1.911   8.560   5.867 -0.0936  0.0160  0.9379
  584MOL0     C80493   1.871   8.637   5.733 -0.0087  0.4601 -0.7112
  584MOL0     C80494   1.855   8.558   5.597  0.1243  0.0894  0.2529
  584MOL0     C80495   1.751   8.448   5.589 -0.3770  0.1376 -0.9215
  584MOL0     C80496   1.610   8.490   5.628 -0.2613  0.2185  1.1292
  584MOL0     C80497   1.498   8.375   5.600  0.1321 -0.5062  0.1453
  584MOL0     C80498   1.357   8.417   5.612 -0.5718  0.4738 -0.2607
  584MOL0    Cl80499   1.246   8.275   5.638 -0.2780 -0.5197  0.3901
  584MOL0     C80500   2.233   8.742   6.104  0.2960  0.4482 -0.7330
  584MOL0     C80501   2.335   8.816   6.160 -0.0138  0.1261  0.0248
  584MOL0     O80502   2.523   9.147   6.040  0.3067  0.0448 -1.4573
  584MOL0     C80503   2.801   9.188   6.033  0.5256 -0.5684  0.3568
  584MOL0     C80504   2.937   9.225   6.059 -0.1107 -0.3824  0.3063
  584MOL0     N80505   3.805   9.355   6.181  0.0076  0.2020  0.4593
  584MOL0     N80506   3.844   9.330   6.303 -0.2323 -0.1171  0.9787
  584MOL0     C80507   4.148   8.488   7.000  1.0372 -0.0344 -0.5919
  584MOL0     C80508   4.069   8.370   7.021  0.6500 -0.0917  0.7644
  584MOL0     C80509   3.723   8.107   7.192 -0.2956  0.3829  0.7933
  584MOL0     C80510   3.611   8.106   7.284 -0.6117 -0.1161  0.9343
  584MOL0     C80511   3.512   8.007   7.277 -0.1854 -0.3922  0.0687
  584MOL0     C80512   3.534   7.900   7.189 -0.6809  1.1400  0.8970
  584MOL0     O80513   3.441   7.797   7.189 -0.1282 -0.3219  0.6012
  584MOL0     C80514   3.514   7.669   7.211 -0.5302  0.8506  0.3130
  584MOL0     C80515   3.596   7.652   7.342  0.2834 -0.0169  0.2374
  584MOL0     C80516   3.510   7.609   7.452  0.5091  0.6848  0.3472
  584MOL0     C80517   3.424   7.728   7.498  0.2393  0.0249  0.0956
  584MOL0     C80518   3.360   7.705   7.623 -0.0877 -0.5666 -0.3652
  584MOL0     C80519   3.294   7.684   7.720  0.5385  0.4461 -0.0285
  584MOL0     C80520   3.654   7.896   7.104  0.7289 -0.1430  0.3148
  584MOL0     C80521   3.753   7.990   7.110  0.9226  0.2252 -0.1011
  584MOL0     C80522   3.871   7.964   7.019 -0.4377  0.0246 -0.1727
  584MOL0     H80523   3.781   8.498   7.108  0.6060 -1.5148 -1.2623
  584MOL0     H80524   3.908   8.718   7.093  1.5705  0.4103  1.7200
  584MOL0     H80525   4.184   8.814   7.181 -0.4709 -4.4334 -0.9859
  584MOL0     H80526   4.029   8.860   7.104 -0.3682  3.9725 -3.4403
  584MOL0     H80527   4.159   9.027   7.124 -3.0102 -1.1594  1.5574
  584MOL0     H80528   4.305   8.956   7.031 -0.3770 -0.5614  1.4284
  584MOL0     H80529   4.196   9.112   6.879  4.0285 -2.3019  0.0321
  584MOL0     H80530   4.180   8.941   6.822  1.7325  1.0186  0.5077
  584MOL0     H80531   3.936   8.955   6.903  1.2892 -1.0081  0.3064
  584MOL0     H80532   3.954   9.120   6.958 -3.5788 -0.3620 -1.9655
  584MOL0     H80533   3.970   9.033   6.662  0.4158  0.3280 -1.1399
  584MOL0     H80534   4.002   9.192   6.733  1.8098  0.3304  2.8868
  584MOL0     H80535   3.746   9.034   6.698  0.2503  0.3904  0.2192
  584MOL0     H80536   3.763   9.159   6.828  2.2068 -0.4374  1.4677
  584MOL0     H80537   3.833   9.307   6.600  2.8880 -1.9350 -0.9466
  584MOL0     H80538   3.666   9.231   6.597 -1.3076 -2.2589  2.5037
  584MOL0     H80539   3.916   9.135   6.462  0.7102  0.6771  4.4117
  584MOL0     H80540   3.775   9.038   6.454  2.5372 -1.3901  0.0451
  584MOL0     H80541   3.598   9.126   6.267 -3.0511  2.3182 -3.2037
  584MOL0     H80542   3.616   9.154   6.002 -1.0734 -0.5503 -0.2833
  584MOL0     H80543   3.679   9.313   5.955  0.2015  1.7632  0.7439
  584MOL0     H80544   3.471   9.418   6.017  0.3908 -0.0156  0.9129
  584MOL0     H80545   3.437   9.288   5.908 -0.5351  0.0725  0.0279
  584MOL0     H80546   3.415   9.138   6.120  1.3931  0.6152 -0.9780
  584MOL0     H80547   3.392   9.283   6.215 -1.3026 -0.8799  0.3778
  584MOL0     H80548   3.204   9.348   6.044 -0.8760 -0.3661  1.1933
  584MOL0     H80549   3.208   9.175   5.984 -1.9825  1.2397 -1.4847
  584MOL0     H80550   3.008   9.080   6.342 -3.0879 -1.3750  1.4511
  584MOL0     H80551   2.816   8.970   6.426 -0.1662  2.4489  0.7369
  584MOL0     H80552   2.698   8.909   6.312  3.4165 -1.3508 -1.2575
  584MOL0     H80553   2.666   9.065   6.404 -0.0226  0.1151 -0.8988
  584MOL0     H80554   2.478   8.941   5.875 -1.6205  2.1844 -0.2442
  584MOL0     H80555   2.316   8.796   5.776  2.9320 -2.2132 -0.3046
  584MOL0     H80556   2.011   8.607   6.057 -0.3646  1.2448  0.6211
  584MOL0     H80557   1.959   8.757   5.968 -1.1516 -0.4096 -2.2039
  584MOL0     H80558   1.975   8.474   5.844  0.9305  0.2616  2.6577
  584MOL0     H80559   1.832   8.518   5.930  0.5489 -2.6122  0.1168
  584MOL0     H80560   1.956   8.705   5.716  0.9236 -0.3094  0.6234
  584MOL0     H80561   1.786   8.703   5.748  0.0613  1.0797 -2.7704
  584MOL0     H80562   1.952   8.518   5.564  0.4396  1.2455 -0.2847
  584MOL0     H80563   1.826   8.634   5.523 -2.5882 -2.4755 -1.5662
  584MOL0     H80564   1.753   8.407   5.488 -1.2929  0.2331 -0.9890
  584MOL0     H80565   1.782   8.372   5.661 -2.3003 -2.3069 -2.5370
  584MOL0     H80566   1.582   8.584   5.579 -3.3563 -0.6385  1.0277
  584MOL0     H80567   1.609   8.512   5.735 -0.6362 -0.5038  1.2845
  584MOL0     H80568   1.513   8.296   5.674 -1.5106  0.5711  1.7169
  584MOL0     H80569   1.515   8.332   5.501  0.7299  0.4978 -0.2026
  584MOL0     H80570   1.332   8.473   5.522 -1.0512  1.9201  0.7402
  584MOL0     H80571   1.350   8.489   5.694  0.5645  1.5711 -1.0902
  584MOL0     H80572   2.165   8.693   6.174  1.2165  0.3054  0.0805
  584MOL0     H80573   2.342   8.811   6.269 -1.4021  0.4400  0.1392
  584MOL0     H80574   2.760   9.224   5.939  2.2809 -0.4900 -0.4095
  584MOL0     H80575   2.976   9.287   5.979 -0.7834 -2.1638 -1.4969
  584MOL0     H80576   4.254   8.482   6.978  0.8607  0.0899 -1.5212
  584MOL0     H80577   4.116   8.273   7.014 -1.3726 -1.1865  1.6647
  584MOL0     H80578   3.592   8.189   7.352  2.8946  0.5736  1.2562
  584MOL0     H80579   3.418   8.017   7.330  0.1466 -3.3255  1.3709
  584MOL0     H80580   3.448   7.582   7.209 -0.0915  0.4892 -2.2261
  584MOL0     H80581   3.577   7.657   7.122 -0.5143 -0.2785  0.4580
  584MOL0     H80582   3.659   7.737   7.369 -1.1697  0.6707  1.6105
  584MOL0     H80583   3.661   7.564   7.336  0.9027  0.4930 -0.8172
  584MOL0     H80584   3.447   7.520   7.439 -0.7105  0.7981  4.2181
  584MOL0     H80585   3.569   7.583   7.540  0.2939 -3.2584 -0.5066
  584MOL0     H80586   3.345   7.730   7.423 -1.1996 -1.7195  1.4568
  584MOL0     H80587   3.486   7.818   7.499 -0.4966  0.5469 -0.6856
  584MOL0     H80588   3.232   7.684   7.808 -2.2209  0.6118 -1.8537
  584MOL0     H80589   3.657   7.816   7.030 -1.0747 -0.7525  0.8409
  584MOL0     H80590   3.904   8.058   6.973  3.0999  0.3238  2.4965
  584MOL0     H80591   3.952   7.937   7.088 -0.3139  2.3606  0.7078
  584MOL0     H80592   3.855   7.890   6.941  3.7978 -0.0663 -1.2073
  585MOL0     O80593   9.202   7.625   5.235  0.0096 -0.1886 -0.0963
  585MOL0     C80594   9.244   7.660   5.124 -0.3608 -0.0225  0.1638
  585MOL0     O80595   9.250   7.575   5.013  0.2089  0.6025  0.4445
  585MOL0     C80596   9.204   7.451   5.017 -1.2867 -0.1785  0.2679
  585MOL0     C80597   9.179   7.381   4.895 -0.6423 -0.3749  0.6958
  585MOL0     C80598   9.123   7.254   4.879  0.2561  0.0489 -0.4947
  585MOL0     C80599   9.103   7.183   4.999 -1.0982  0.0949  0.1720
  585MOL0     O80600   9.025   7.071   5.008 -0.5207  0.6667  0.2360
  585MOL0     C80601   8.952   7.020   4.889 -1.0224  0.4039  0.0675
  585MOL0     C80602   8.844   6.912   4.910  0.0131  0.0890 -1.3060
  585MOL0     C80603   8.745   6.947   5.031 -0.6911  0.4595  0.2801
  585MOL0     C80604   8.794   6.886   5.166 -0.0417  0.2035 -0.0503
  585MOL0     C80605   8.716   6.927   5.292  0.0805  0.2701 -0.0965
  585MOL0     C80606   8.705   7.081   5.308 -0.0353  0.7670 -0.2637
  585MOL0     C80607   8.838   7.150   5.295 -0.7221 -0.1648 -0.4130
  585MOL0     C80608   8.838   7.298   5.315  0.3092 -0.0915 -0.0957
  585MOL0     N80609   8.774   7.365   5.200 -0.3110 -0.1970 -0.3075
  585MOL0     C80610   8.841   7.401   5.082 -0.5443  0.8023 -0.5955
  585MOL0     C80611   8.772   7.515   5.046 -0.0430 -0.1067 -0.6062
  585MOL0     C80612   8.823   7.600   4.929  0.5509 -0.8831  0.1511
  585MOL0     C80613   8.883   7.740   4.980 -0.3121 -0.2248 -1.2487
  585MOL0     C80614   8.966   7.817   4.876 -0.4075  0.2489  0.2894
  585MOL0     C80615   8.881   7.928   4.811 -0.4520 -0.4632 -0.5453
  585MOL0     O80616   8.967   7.997   4.721  0.1730  0.0118  0.2514
  585MOL0     C80617   9.029   8.116   4.756 -0.2641  1.0616  0.8402
  585MOL0     C80618   9.055   8.157   4.886 -0.0462 -0.4231 -0.1471
  585MOL0     C80619   9.117   8.281   4.916 -0.2140 -0.4583 -0.2956
  585MOL0     C80620   9.137   8.307   5.062  0.2072  0.1773  0.4919
  585MOL0     C80621   9.155   8.362   4.814  0.9241  0.3884  0.2412
  585MOL0     C80622   9.227   8.486   4.828 -0.1141 -0.3998 -0.4075
  585MOL0     O80623   9.189   8.586   4.912  0.4596  0.6635 -0.3074
  585MOL0     C80624   9.233   8.714   4.887 -0.7186 -0.1285 -0.1757
  585MOL0     C80625   9.299   8.782   4.976 -0.5753  0.4127 -0.2203
  585MOL0     C80626   9.350   8.907   4.940 -0.3712 -0.2701 -0.8574
  585MOL0     C80627   9.331   8.953   4.806 -0.3734 -0.0369 -0.3040
  585MOL0     O80628   9.385   9.073   4.760  0.0455 -0.2153  0.4348
  585MOL0     C80629   9.523   9.081   4.725 -0.0458  0.4052 -0.0569
  585MOL0     C80630   9.563   9.012   4.591 -0.6086  0.4374  0.0910
  585MOL0     C80631   9.713   9.027   4.559  1.0244 -0.4043 -0.1776
  585MOL0     C80632   9.804   8.967   4.669 -0.3831  0.6147 -0.2587
  585MOL0     C80633   9.932   8.943   4.613 -0.1514 -1.2589  0.2948
  585MOL0     C80634  10.030   8.895   4.725 -0.3271  1.0146 -0.6062
  585MOL0     C80635  10.178   8.864   4.691 -0.4523 -1.1550 -0.2219
  585MOL0     C80636  10.196   8.759   4.575 -0.0750  0.6582 -0.7068
  585MOL0    Cl80637  10.340   8.653   4.581 -0.2094  0.1348  0.0212
  585MOL0     C80638   9.243   8.892   4.723  0.1414 -0.5893  0.3298
  585MOL0     C80639   9.198   8.772   4.769  1.3178  0.1098 -0.5484
  585MOL0     O80640   9.328   8.487   4.754  0.4894 -0.4761  0.1949
  585MOL0     C80641   9.135   8.320   4.675 -1.0646 -0.2138 -0.7122
  585MOL0     C80642   9.078   8.195   4.652 -0.1387  0.7464 -0.1157
  585MOL0     N80643   8.658   7.523   5.130  0.2981  0.2545 -0.3795
  585MOL0     N80644   8.662   7.430   5.215  0.2095 -0.0589  0.6395
  585MOL0     C80645   9.148   7.235   5.116 -0.2579 -0.4936  0.1127
  585MOL0     C80646   9.188   7.371   5.131 -0.1848  0.0441  0.4130
  585MOL0     C80647   9.287   7.798   5.095  0.1295  0.3779  0.4045
  585MOL0     C80648   9.354   7.818   4.968  0.4514  0.2804 -0.4872
  585MOL0     C80649   9.420   7.933   4.938 -0.2178 -0.4823 -0.4201
  585MOL0     C80650   9.410   8.038   5.036 -1.1009 -0.0567  0.6897
  585MOL0     O80651   9.460   8.163   5.023  0.0046 -0.4323 -0.0512
  585MOL0     C80652   9.539   8.187   4.908  1.0926 -0.4475  0.7067
  585MOL0     C80653   9.572   8.337   4.911  0.1195  0.2507  0.4471
  585MOL0     C80654   9.659   8.371   4.785 -0.7211  0.1044  0.3084
  585MOL0     C80655   9.723   8.511   4.807 -0.1177  0.0095 -1.0058
  585MOL0     C80656   9.865   8.513   4.755 -0.7361  0.5521  0.8888
  585MOL0     C80657   9.981   8.484   4.723 -0.1939  0.1392 -0.3651
  585MOL0     C80658   9.340   8.022   5.153 -1.1484  0.3354 -0.8960
  585MOL0     C80659   9.281   7.908   5.188 -0.0663 -0.4908  0.0988
  585MOL0     C80660   9.215   7.907   5.324 -0.5133  0.4989  0.0725
  585MOL0     H80661   9.190   7.434   4.801 -0.7920  1.3812  1.6362
  585MOL0     H80662   9.083   7.222   4.784 -1.4710 -3.4403  1.2200
  585MOL0     H80663   9.015   6.973   4.813  0.1207 -3.1726  2.9733
  585MOL0     H80664   8.903   7.104   4.839 -0.0153  0.4668 -0.8541
  585MOL0     H80665   8.784   6.906   4.819 -2.2559 -1.2582  0.1827
  585MOL0     H80666   8.897   6.818   4.927 -0.2347  0.2784  0.9262
  585MOL0     H80667   8.733   7.055   5.038 -1.6162  0.4230 -0.4719
  585MOL0     H80668   8.644   6.908   5.013 -1.1100  1.7242 -0.1979
  585MOL0     H80669   8.806   6.778   5.150  0.6540  0.5668 -2.2745
  585MOL0     H80670   8.900   6.911   5.169  0.5734 -2.2239  1.1011
  585MOL0     H80671   8.764   6.871   5.373  0.5648  1.0135  0.1351
  585MOL0     H80672   8.615   6.887   5.283 -0.0311  0.7901 -1.4193
  585MOL0     H80673   8.641   7.108   5.225 -0.7301 -3.3496 -1.3193
  585MOL0     H80674   8.670   7.106   5.409  0.0845  4.8361 -1.0652
  585MOL0     H80675   8.874   7.130   5.193 -0.7808 -4.4660  0.2220
  585MOL0     H80676   8.912   7.116   5.368  0.4627 -0.8395 -1.8775
  585MOL0     H80677   8.784   7.309   5.409 -0.3365 -2.3918 -0.1613
  585MOL0     H80678   8.938   7.340   5.330  0.2347 -0.2453  0.9053
  585MOL0     H80679   8.935   7.367   5.040 -1.0625 -0.0647 -1.0696
  585MOL0     H80680   8.736   7.626   4.869  1.4715 -0.0968 -0.8920
  585MOL0     H80681   8.893   7.539   4.870  1.2218  1.9295 -2.1765
  585MOL0     H80682   8.804   7.805   5.019  0.8858  0.5517 -0.0293
  585MOL0     H80683   8.952   7.725   5.063 -1.5032 -0.1942 -0.2272
  585MOL0     H80684   9.063   7.851   4.914  0.9874 -2.2914 -0.7431
  585MOL0     H80685   8.989   7.747   4.795 -3.6296 -3.1963  2.0676
  585MOL0     H80686   8.807   7.870   4.755  2.2126 -2.4817 -2.2357
  585MOL0     H80687   8.824   7.999   4.872  0.6374  1.6242 -1.8740
  585MOL0     H80688   9.019   8.094   4.966 -0.0501 -0.2889 -0.0427
  585MOL0     H80689   9.233   8.277   5.104  0.2823 -1.1279 -0.5632
  585MOL0     H80690   9.065   8.252   5.123  0.0921  0.3030  0.4711
  585MOL0     H80691   9.130   8.413   5.091  0.0682  0.0477  0.9415
  585MOL0     H80692   9.332   8.733   5.067  1.9023 -0.3571 -1.4413
  585MOL0     H80693   9.419   8.968   4.998 -1.6439  0.8606 -0.4893
  585MOL0     H80694   9.554   9.185   4.711 -1.1167  0.6844 -0.3882
  585MOL0     H80695   9.587   9.038   4.804  2.1549  2.5381 -0.5457
  585MOL0     H80696   9.548   8.904   4.594  3.8767 -0.4236 -1.8688
  585MOL0     H80697   9.504   9.060   4.512  0.6997  0.9914 -0.5704
  585MOL0     H80698   9.736   9.134   4.551 -1.8096  0.2879 -0.2611
  585MOL0     H80699   9.727   8.983   4.459 -0.1028  0.1191 -0.5867
  585MOL0     H80700   9.764   8.873   4.707 -0.7627  1.6121  2.0027
  585MOL0     H80701   9.806   9.043   4.748 -0.4561 -0.1950  0.5383
  585MOL0     H80702   9.935   8.869   4.532 -0.8116 -0.3490 -0.5753
  585MOL0     H80703   9.961   9.037   4.566 -1.0103 -1.0564  0.1415
  585MOL0     H80704   9.993   8.796   4.754  1.2643 -0.5768 -3.5290
  585MOL0     H80705  10.023   8.965   4.809 -3.2615  1.8383 -1.4242
  585MOL0     H80706  10.228   8.832   4.782  0.4223  0.4313 -0.1168
  585MOL0     H80707  10.230   8.955   4.658  0.7213 -0.5016  3.0754
  585MOL0     H80708  10.202   8.812   4.479  1.4752  2.4669  0.3263
  585MOL0     H80709  10.110   8.691   4.570 -0.7949  1.5909 -1.4232
  585MOL0     H80710   9.213   8.922   4.623 -0.2505 -3.6095 -0.5440
  585MOL0     H80711   9.141   8.720   4.694  1.9094 -1.0651 -0.2064
  585MOL0     H80712   9.193   8.365   4.596  3.8116 -0.0314  2.5657
  585MOL0     H80713   9.082   8.148   4.554  2.3080 -0.7040  0.6046
  585MOL0     H80714   9.133   7.183   5.210  2.1503 -0.5542  0.5267
  585MOL0     H80715   9.203   7.401   5.234 -1.2340 -0.9278  0.8792
  585MOL0     H80716   9.367   7.736   4.898  1.6263  1.4883 -1.7439
  585MOL0     H80717   9.475   7.943   4.845 -2.2280  1.0470 -1.5300
  585MOL0     H80718   9.624   8.118   4.909 -0.1439 -2.0500  2.4065
  585MOL0     H80719   9.488   8.160   4.815 -1.1823  0.2287  1.6839
  585MOL0     H80720   9.640   8.351   4.996  0.2120 -2.3431  0.8738
  585MOL0     H80721   9.487   8.404   4.924 -1.9908 -2.4288  1.1753
  585MOL0     H80722   9.734   8.294   4.767  0.6986  1.4967 -0.0014
  585MOL0     H80723   9.589   8.393   4.704 -1.4690  1.4643  1.2630
  585MOL0     H80724   9.729   8.537   4.913  2.0192 -0.8593 -0.8655
  585MOL0     H80725   9.668   8.592   4.758 -0.1199 -0.8970 -2.5715
  585MOL0     H80726  10.083   8.461   4.698  0.4309 -0.3444  2.3019
  585MOL0     H80727   9.347   8.102   5.226  0.3451 -0.9448  0.4224
  585MOL0     H80728   9.231   8.000   5.379  1.8726 -0.1109  0.5454
  585MOL0     H80729   9.111   7.875   5.315  0.0500 -1.2019 -0.8567
  585MOL0     H80730   9.271   7.834   5.384  1.9494  0.5310 -2.0027
  586MOL0     O80731   1.018   9.363  10.301 -0.3302  0.0787  0.6703
  586MOL0     C80732   1.029   9.330  10.418  0.1389 -0.0266  0.3519
  586MOL0     O80733   1.069   9.206  10.465  0.2053  0.3334  0.1607
  586MOL0     C80734   1.068   9.092  10.382  0.1567  0.1755 -0.0253
  586MOL0     C80735   1.176   9.007  10.403 -0.2220  0.2541  0.5760
  586MOL0     C80736   1.189   8.891  10.327 -0.5871 -0.8834 -0.0748
  586MOL0     C80737   1.090   8.855  10.236 -0.2198  0.0705 -0.6150
  586MOL0     O80738   1.114   8.729  10.179  0.6555 -0.2359 -0.4394
  586MOL0     C80739   1.045   8.682  10.059  0.4609 -0.4738  0.5620
  586MOL0     C80740   1.123   8.747   9.938 -0.6588  0.2675 -0.0337
  586MOL0     C80741   1.048   8.720   9.802  1.3864  0.0948  0.0794
  586MOL0     C80742   1.084   8.814   9.687 -1.2809 -0.4541 -0.0211
  586MOL0     C80743   0.998   8.773   9.564 -0.3206 -0.0979 -0.0440
  586MOL0     C80744   1.071   8.682   9.466  0.4059  1.0735  0.0636
  586MOL0     C80745   0.981   8.638   9.351  0.5050  0.0768 -0.3222
  586MOL0     C80746   1.067   8.546   9.270 -0.1267  0.2831 -0.1047
  586MOL0     N80747   1.039   8.408   9.312 -0.6497 -0.9069  0.2596
  586MOL0     C80748   0.929   8.337   9.282 -1.1495  0.0534 -0.2588
  586MOL0     C80749   0.966   8.205   9.293 -0.3711 -0.5380 -0.2483
  586MOL0     C80750   0.888   8.081   9.262  1.0842  0.4728 -0.3391
  586MOL0     C80751   0.847   8.015   9.393  0.4078 -0.1650 -0.2016
  586MOL0     C80752   0.815   7.869   9.370  0.0174  0.4972  0.2472
  586MOL0     C80753   0.800   7.808   9.512  0.1018  0.0638 -0.3136
  586MOL0     O80754   0.929   7.772   9.570 -0.4049  0.1402 -0.1102
  586MOL0     C80755   0.928   7.685   9.681  1.2268  1.2088  0.6060
  586MOL0     C80756   0.813   7.644   9.748  0.1215  0.4360 -0.3257
  586MOL0     C80757   0.810   7.536   9.842  0.9636  0.4555 -0.3648
  586MOL0     C80758   0.671   7.495   9.880  0.0177  0.3035  0.3031
  586MOL0     C80759   0.928   7.473   9.881  0.1776 -0.1907 -0.6081
  586MOL0     C80760   0.931   7.389   9.999  0.0477  1.3681 -0.6148
  586MOL0     O80761   1.030   7.281   9.997 -0.1135 -0.2068 -0.0980
  586MOL0     C80762   1.050   7.219  10.117 -0.0248  0.0978 -0.3416
  586MOL0     C80763   1.172   7.223  10.186 -0.2005  0.5505 -0.4211
  586MOL0     C80764   1.190   7.161  10.308  0.5495  0.1462 -0.3450
  586MOL0     C80765   1.083   7.112  10.380  0.1907  0.0221 -0.0476
  586MOL0     O80766   1.114   7.074  10.508 -0.6456  0.9398  0.7739
  586MOL0     C80767   1.013   7.020  10.591 -0.6928 -0.5525 -0.1877
  586MOL0     C80768   0.973   6.881  10.544 -0.3057  0.4803 -0.2258
  586MOL0     C80769   0.875   6.827  10.647  0.0984  0.6429 -0.7249
  586MOL0     C80770   0.798   6.689  10.614 -0.7454 -0.0977 -0.1100
  586MOL0     C80771   0.889   6.570  10.578 -0.3451 -0.6753  0.6224
  586MOL0     C80772   0.816   6.456  10.502 -0.4800 -0.0817 -0.7483
  586MOL0     C80773   0.901   6.404  10.379 -0.2136  0.4331  0.1095
  586MOL0     C80774   0.893   6.249  10.357  0.6407 -0.0708 -0.0498
  586MOL0    Cl80775   0.727   6.186  10.312  0.1392 -0.2463 -0.0875
  586MOL0     C80776   0.958   7.112  10.315 -0.4376 -0.1214 -0.0785
  586MOL0     C80777   0.943   7.154  10.181 -0.5490 -0.4308  0.0241
  586MOL0     O80778   0.859   7.415  10.092 -0.3696 -0.0900  0.5355
  586MOL0     C80779   1.046   7.508   9.814 -0.0073  1.1330 -0.3194
  586MOL0     C80780   1.047   7.611   9.715  0.3650  0.6795  0.4043
  586MOL0     N80781   1.094   8.205   9.347 -0.1984 -0.1497  1.1010
  586MOL0     N80782   1.144   8.323   9.350 -0.6864  0.4605  0.3617
  586MOL0     C80783   0.985   8.942  10.207  0.7479  0.3458 -0.3118
  586MOL0     C80784   0.970   9.055  10.292  0.0800  0.3031 -0.7563
  586MOL0     C80785   1.012   9.432  10.525  0.0655 -0.0663 -0.2790
  586MOL0     C80786   1.086   9.428  10.648 -0.5241 -0.0926  0.3374
  586MOL0     C80787   1.071   9.525  10.750  0.8976 -0.1018  0.2507
  586MOL0     C80788   0.964   9.611  10.746 -0.0836 -0.1882  0.9615
  586MOL0     O80789   0.932   9.703  10.841 -0.3559  0.2861 -0.7322
  586MOL0     C80790   0.982   9.710  10.977  0.7128 -0.6882  0.8011
  586MOL0     C80791   0.891   9.794  11.066 -0.0045  0.4299 -0.9992
  586MOL0     C80792   0.900   9.946  11.053  0.1480 -0.3318 -0.3001
  586MOL0     C80793   0.857   9.990  10.909 -0.2198  0.0934  0.5835
  586MOL0     C80794   0.715   9.952  10.890  0.2031 -0.4371  0.5069
  586MOL0     C80795   0.604   9.923  10.868  0.6266  0.0731  0.0195
  586MOL0     C80796   0.885   9.616  10.631  0.1642  0.2259  0.0190
  586MOL0     C80797   0.913   9.530  10.523  0.3641  0.9505 -0.5873
  586MOL0     C80798   0.812   9.550  10.408 -0.3429 -0.0882  0.2257
  586MOL0     H80799   1.257   9.034  10.470  0.6664  0.2437 -0.4665
  586MOL0     H80800   1.272   8.823  10.338  0.5408  0.4594 -0.0325
  586MOL0     H80801   0.943   8.721  10.069  1.4397  2.4466 -0.0620
  586MOL0     H80802   1.051   8.572  10.062  0.3191 -0.4811  0.6223
  586MOL0     H80803   1.133   8.855   9.952  1.0722 -0.0332  1.5539
  586MOL0     H80804   1.225   8.709   9.926 -0.7097 -0.0848  0.6183
  586MOL0     H80805   1.059   8.613   9.782 -3.2721 -0.5094 -0.4196
  586MOL0     H80806   0.942   8.741   9.824  2.1071  3.5367  0.9043
  586MOL0     H80807   1.081   8.919   9.718  1.9523  0.1162 -1.2492
  586MOL0     H80808   1.191   8.799   9.666 -0.0779  2.5726  3.0371
  586MOL0     H80809   0.965   8.859   9.506  0.4356  0.0522 -0.2659
  586MOL0     H80810   0.908   8.720   9.596 -2.0117  2.0385 -1.0333
  586MOL0     H80811   1.164   8.731   9.435 -0.0600 -0.2412 -4.0106
  586MOL0     H80812   1.098   8.587   9.513 -2.8404  0.5558  1.1292
  586MOL0     H80813   0.943   8.722   9.292  2.7876 -1.2960 -4.0832
  586MOL0     H80814   0.894   8.589   9.396  0.0095  1.8806  0.7549
  586MOL0     H80815   1.017   8.555   9.173 -2.0009 -0.2978  0.7544
  586MOL0     H80816   1.171   8.578   9.282 -0.1541 -0.2160  1.6841
  586MOL0     H80817   0.842   8.364   9.223 -1.7579  1.0609  1.0569
  586MOL0     H80818   0.951   8.021   9.196  1.1381  0.7334 -0.5279
  586MOL0     H80819   0.794   8.106   9.211  0.6983  0.0646  0.1614
  586MOL0     H80820   0.939   8.013   9.453  2.3228 -1.9405 -2.9683
  586MOL0     H80821   0.770   8.074   9.444 -0.4315  0.0805 -1.7102
  586MOL0     H80822   0.724   7.861   9.310 -2.0549  0.3825  3.1978
  586MOL0     H80823   0.892   7.816   9.313 -0.6753 -0.9536  0.6278
  586MOL0     H80824   0.739   7.872   9.577 -0.0379 -1.3849  1.0564
  586MOL0     H80825   0.733   7.722   9.500 -2.7748  2.2349 -0.8628
  586MOL0     H80826   0.724   7.702   9.728 -1.4321 -1.4630  0.7201
  586MOL0     H80827   0.631   7.551   9.966 -0.8354  0.3132 -0.0849
  586MOL0     H80828   0.673   7.391   9.913 -0.1356  1.0054  2.7634
  586MOL0     H80829   0.597   7.513   9.801  0.2922  1.3572  0.2688
  586MOL0     H80830   1.260   7.258  10.134 -1.0324  3.2248 -0.1600
  586MOL0     H80831   1.289   7.179  10.349  1.8708 -1.5201 -2.5450
  586MOL0     H80832   1.057   7.010  10.691  1.3263 -1.7304 -1.1358
  586MOL0     H80833   0.930   7.091  10.597  1.3269  1.9054  0.3157
  586MOL0     H80834   0.924   6.884  10.447  0.8389 -2.0897 -0.9537
  586MOL0     H80835   1.058   6.815  10.528 -1.0280  0.1288 -3.0496
  586MOL0     H80836   0.795   6.902  10.644 -0.6682 -0.1882 -3.1546
  586MOL0     H80837   0.925   6.821  10.744  0.2819 -0.4117 -0.8717
  586MOL0     H80838   0.731   6.719  10.532 -1.2428 -0.0812  0.2953
  586MOL0     H80839   0.727   6.663  10.693 -0.6829 -0.0597 -0.0432
  586MOL0     H80840   0.971   6.615  10.521 -0.7154 -1.3320 -0.4554
  586MOL0     H80841   0.947   6.532  10.663 -0.5602  0.2224  1.1911
  586MOL0     H80842   0.720   6.492  10.465 -1.1261 -0.2557  0.7054
  586MOL0     H80843   0.789   6.374  10.570 -0.6366 -0.5796 -1.3895
  586MOL0     H80844   1.005   6.429  10.401 -0.0089 -2.8954  4.1375
  586MOL0     H80845   0.889   6.446  10.279 -0.2865 -1.0774 -0.5496
  586MOL0     H80846   0.911   6.202  10.454 -1.3267  0.2063  0.4854
  586MOL0     H80847   0.963   6.216  10.279  3.8234  5.3538 -0.0381
  586MOL0     H80848   0.873   7.076  10.371 -1.9093  2.1737 -0.7074
  586MOL0     H80849   0.853   7.152  10.121 -0.7256  1.6577  0.1565
  586MOL0     H80850   1.142   7.459   9.829  0.3889  0.5681 -3.8513
  586MOL0     H80851   1.138   7.620   9.657 -0.1575 -0.9715 -0.7429
  586MOL0     H80852   0.903   8.913  10.142 -0.5441  0.8916  1.0008
  586MOL0     H80853   0.888   9.123  10.269 -0.3254  0.8801  2.0449
  586MOL0     H80854   1.153   9.345  10.669  1.7181  1.4578 -0.2139
  586MOL0     H80855   1.135   9.516  10.837 -0.4634 -0.4999  1.2393
  586MOL0     H80856   0.992   9.609  11.018 -0.2199 -0.1138  2.5073
  586MOL0     H80857   1.081   9.755  10.972 -0.6740  3.0525  2.9297
  586MOL0     H80858   0.921   9.761  11.165  0.1378 -1.7721 -1.7319
  586MOL0     H80859   0.786   9.769  11.048  0.1752 -1.1224  0.0299
  586MOL0     H80860   0.836   9.995  11.126 -0.7976 -0.1071 -1.2621
  586MOL0     H80861   1.002   9.976  11.082 -0.9703  1.7951  1.7636
  586MOL0     H80862   0.913   9.946  10.826  2.6564  1.8707  1.4649
  586MOL0     H80863   0.876  10.097  10.901  2.7944 -0.1964  2.5976
  586MOL0     H80864   0.507   9.884  10.846 -0.6361  1.0793  3.2276
  586MOL0     H80865   0.801   9.683  10.633 -0.3284 -0.3605  2.1110
  586MOL0     H80866   0.865   9.581  10.318 -1.2022 -1.8275 -0.9318
  586MOL0     H80867   0.759   9.459  10.377 -0.7861 -0.3731  1.7262
  586MOL0     H80868   0.735   9.624  10.434  1.4816  1.5019  1.4086
  587MOL0     O80869   6.510   9.860   6.728 -0.2468 -0.9174 -0.5672
  587MOL0     C80870   6.410   9.790   6.718  0.1259  0.2759  0.3287
  587MOL0     O80871   6.407   9.656   6.676 -1.1224  0.1819 -0.0074
  587MOL0     C80872   6.518   9.576   6.682 -0.1016 -0.1536  0.1414
  587MOL0     C80873   6.503   9.449   6.626  0.2412  0.2172  0.1791
  587MOL0     C80874   6.597   9.353   6.626  0.6916  0.4689 -1.1272
  587MOL0     C80875   6.718   9.371   6.697 -0.4825 -0.3753 -0.8925
  587MOL0     O80876   6.803   9.260   6.707 -0.1769 -0.0599  0.1276
  587MOL0     C80877   6.816   9.205   6.845  0.3836  0.0746  0.1235
  587MOL0     C80878   6.910   9.075   6.836  1.2616 -0.3332  0.3842
  587MOL0     C80879   6.861   8.966   6.739  0.3410  0.3601  0.1074
  587MOL0     C80880   6.938   8.830   6.738  0.7499 -0.1475  0.0503
  587MOL0     C80881   6.908   8.733   6.623  0.2666 -0.6632  0.0180
  587MOL0     C80882   6.988   8.602   6.633 -1.1229  0.6670 -0.4147
  587MOL0     C80883   6.952   8.495   6.529 -0.0297 -0.2752  0.1609
  587MOL0     C80884   7.048   8.371   6.545 -0.5829 -0.1882 -0.2789
  587MOL0     N80885   7.017   8.262   6.456  0.2419 -0.4421  0.8723
  587MOL0     C80886   7.039   8.261   6.316 -0.5722 -0.6217 -0.1857
  587MOL0     C80887   7.040   8.122   6.288  0.5036 -0.8906  0.0744
  587MOL0     C80888   7.056   8.047   6.167  0.2445 -0.1331 -0.0504
  587MOL0     C80889   7.207   8.058   6.137  0.2300  0.4888  0.8499
  587MOL0     C80890   7.263   7.940   6.050 -0.9609  0.3875 -0.6772
  587MOL0     C80891   7.418   7.945   6.044 -0.2155 -0.0173  0.1112
  587MOL0     O80892   7.468   7.839   5.965 -1.0520  0.6228  0.8628
  587MOL0     C80893   7.486   7.711   6.003  0.6042 -1.1091 -0.1465
  587MOL0     C80894   7.546   7.626   5.913 -0.0763 -0.8435  0.0966
  587MOL0     C80895   7.549   7.493   5.927 -0.7084  0.2614  0.2490
  587MOL0     C80896   7.591   7.406   5.809 -0.8088 -0.7270  0.4360
  587MOL0     C80897   7.487   7.437   6.047 -0.6869  0.2388  0.1585
  587MOL0     C80898   7.480   7.285   6.080  0.1967 -0.3785  0.9854
  587MOL0     O80899   7.535   7.195   5.995 -0.6995  0.0924  0.0990
  587MOL0     C80900   7.514   7.057   5.988  0.2555 -0.1479  0.2800
  587MOL0     C80901   7.620   6.975   5.961  0.3098  0.7061 -0.9980
  587MOL0     C80902   7.602   6.835   5.970 -0.8489 -0.0266 -0.1147
  587MOL0     C80903   7.481   6.768   5.992  0.1766 -0.5074  0.2866
  587MOL0     O80904   7.487   6.628   6.000 -0.6910 -0.4810 -0.2151
  587MOL0     C80905   7.400   6.546   6.084 -0.2363  1.2598  0.3231
  587MOL0     C80906   7.456   6.410   6.090  0.5829  0.5664  0.2566
  587MOL0     C80907   7.340   6.314   6.146  0.3952  0.1783  0.1866
  587MOL0     C80908   7.324   6.333   6.302  0.1936  0.4567 -0.0808
  587MOL0     C80909   7.210   6.249   6.355 -0.2837  0.2686  0.2418
  587MOL0     C80910   7.224   6.232   6.509 -0.0283 -0.3210 -0.3213
  587MOL0     C80911   7.123   6.129   6.554  0.3861  0.2121 -0.0441
  587MOL0     C80912   7.135   6.099   6.701  0.3948 -0.0667  0.5310
  587MOL0    Cl80913   6.965   6.043   6.756 -0.1352  0.3611 -0.0125
  587MOL0     C80914   7.376   6.856   6.032  0.0319  0.6118  1.2979
  587MOL0     C80915   7.390   6.995   6.023 -0.6040 -0.1982 -0.3355
  587MOL0     O80916   7.434   7.258   6.188  0.0231  0.9909  0.0285
  587MOL0     C80917   7.431   7.519   6.143  0.3940 -0.2289 -0.1602
  587MOL0     C80918   7.431   7.658   6.124 -0.3051  0.7830  0.9108
  587MOL0     N80919   7.006   8.048   6.405  0.2787  0.1808 -0.1318
  587MOL0     N80920   6.992   8.136   6.502 -0.9694 -1.2720 -0.1468
  587MOL0     C80921   6.738   9.492   6.763 -0.3250  0.3736 -0.2386
  587MOL0     C80922   6.643   9.600   6.749 -0.5596  0.5645 -0.1476
  587MOL0     C80923   6.278   9.865   6.698  0.0699 -0.4502 -1.5377
  587MOL0     C80924   6.171   9.789   6.637 -0.0812 -0.6681  0.0261
  587MOL0     C80925   6.037   9.827   6.643 -0.2515 -0.0654  0.9004
  587MOL0     C80926   5.997   9.960   6.697  0.1291 -0.6399 -0.6448
  587MOL0     O80927   5.869  10.010   6.695 -0.2385  0.3969 -0.6836
  587MOL0     C80928   5.839  10.134   6.765  0.1792 -0.4543 -0.4227
  587MOL0     C80929   5.700  10.164   6.744  0.0327 -0.1202  0.3938
  587MOL0     C80930   5.686  10.207   6.589  0.5506  0.1822 -0.1951
  587MOL0     C80931   5.538  10.224   6.553 -0.7616 -0.6488  1.0777
  587MOL0     C80932   5.485  10.095   6.530 -0.0029 -0.1754  0.2469
  587MOL0     C80933   5.444   9.990   6.492 -0.8898 -0.2405 -0.9248
  587MOL0     C80934   6.103  10.022   6.756  0.7540  0.0288 -0.7733
  587MOL0     C80935   6.241   9.988   6.759  0.7819  0.4697  0.0125
  587MOL0     C80936   6.338  10.101   6.815  0.1149 -0.7951 -0.4328
  587MOL0     H80937   6.409   9.421   6.581  0.8171 -3.3177  0.8760
  587MOL0     H80938   6.582   9.252   6.587 -0.7716  1.2020 -2.6023
  587MOL0     H80939   6.716   9.178   6.880  1.1077 -0.3461  1.9673
  587MOL0     H80940   6.866   9.280   6.907 -2.3519  2.3346 -0.2158
  587MOL0     H80941   7.015   9.100   6.816  1.1822 -1.4304 -1.7675
  587MOL0     H80942   6.907   9.033   6.937  1.5264 -0.8127  0.2022
  587MOL0     H80943   6.754   8.946   6.749  0.5715 -1.4565 -0.6235
  587MOL0     H80944   6.879   9.007   6.639  2.2422  0.7949  0.5987
  587MOL0     H80945   7.047   8.830   6.746  0.6864 -1.3353  1.3758
  587MOL0     H80946   6.899   8.772   6.822  3.0729 -1.2109  0.4735
  587MOL0     H80947   6.918   8.782   6.526 -3.0407  2.5722  1.0816
  587MOL0     H80948   6.802   8.704   6.632 -0.5278  1.5834 -1.2887
  587MOL0     H80949   7.097   8.615   6.629 -1.0781  0.7064  0.5849
  587MOL0     H80950   6.973   8.568   6.736  1.2082 -0.2935 -0.3221
  587MOL0     H80951   6.940   8.523   6.424 -1.9664 -4.6238 -1.0218
  587MOL0     H80952   6.853   8.463   6.564  0.7879 -2.5692  0.5684
  587MOL0     H80953   7.152   8.398   6.522 -0.6145 -1.4586 -2.1612
  587MOL0     H80954   7.037   8.337   6.648 -1.7549  0.2662 -0.2391
  587MOL0     H80955   7.061   8.349   6.256 -0.2151 -1.0029 -0.6157
  587MOL0     H80956   6.989   8.087   6.090  0.1137  0.0385  0.1507
  587MOL0     H80957   7.023   7.943   6.164 -0.3768  0.0810 -1.0433
  587MOL0     H80958   7.223   8.149   6.078 -0.4188  0.3828  0.5042
  587MOL0     H80959   7.262   8.061   6.231  1.8041  0.3684 -0.0175
  587MOL0     H80960   7.236   7.851   6.108  0.9526  1.3519  1.8943
  587MOL0     H80961   7.214   7.942   5.953 -2.4268  3.0791  0.0139
  587MOL0     H80962   7.438   8.043   6.000  2.2185 -1.1469 -1.4992
  587MOL0     H80963   7.465   7.954   6.143  0.4393 -2.0619  0.0305
  587MOL0     H80964   7.589   7.669   5.823  2.4977  0.2994  1.7449
  587MOL0     H80965   7.527   7.317   5.802 -1.3995 -0.2776  0.0198
  587MOL0     H80966   7.696   7.380   5.827 -1.5120 -2.7772  2.0794
  587MOL0     H80967   7.578   7.468   5.720 -1.1471 -0.4902  0.6490
  587MOL0     H80968   7.719   7.009   5.933  0.4747  0.4343 -0.7490
  587MOL0     H80969   7.695   6.782   5.953 -0.1936  0.3037  2.1891
  587MOL0     H80970   7.405   6.585   6.186  1.0416 -2.2254  1.7554
  587MOL0     H80971   7.297   6.550   6.048  0.1647 -1.1367 -1.3751
  587MOL0     H80972   7.481   6.370   5.991  4.0259 -2.2268  2.0243
  587MOL0     H80973   7.544   6.399   6.154 -0.3557 -1.0034  1.3183
  587MOL0     H80974   7.370   6.211   6.125  4.0171  1.0318  0.4349
  587MOL0     H80975   7.244   6.329   6.096  0.9165 -0.3907 -1.0279
  587MOL0     H80976   7.294   6.436   6.320 -3.5719 -0.3766 -0.6547
  587MOL0     H80977   7.419   6.312   6.352 -0.8200  0.1858  1.8224
  587MOL0     H80978   7.113   6.297   6.340 -1.4344 -1.7990  0.6662
  587MOL0     H80979   7.210   6.151   6.306  1.2601  0.3644  0.0031
  587MOL0     H80980   7.204   6.328   6.556 -2.2288 -0.4411 -0.9164
  587MOL0     H80981   7.317   6.184   6.540  2.0824  1.1838 -3.7143
  587MOL0     H80982   7.124   6.045   6.483  2.1388  0.0615  0.1276
  587MOL0     H80983   7.025   6.176   6.561  0.8228  1.0602  6.4478
  587MOL0     H80984   7.173   6.189   6.752  1.3065 -0.0155 -0.2062
  587MOL0     H80985   7.220   6.036   6.728 -0.4657 -0.7815  1.6648
  587MOL0     H80986   7.279   6.811   6.047  0.0467  0.5772  1.2940
  587MOL0     H80987   7.305   7.054   6.053  0.3337  0.5263  1.0140
  587MOL0     H80988   7.394   7.482   6.238  1.0627  0.5892  0.4354
  587MOL0     H80989   7.387   7.710   6.209 -1.7320  0.8306  0.1750
  587MOL0     H80990   6.827   9.513   6.821  1.6136 -2.9583 -1.6963
  587MOL0     H80991   6.664   9.696   6.795 -2.1843  1.7484 -1.7117
  587MOL0     H80992   6.184   9.692   6.591 -1.5789 -0.0361 -1.8529
  587MOL0     H80993   5.953   9.771   6.604 -0.0907  0.4922 -0.3175
  587MOL0     H80994   5.862  10.110   6.869  0.3401 -0.0022 -0.3505
  587MOL0     H80995   5.908  10.215   6.740  2.0360 -2.0980 -0.9579
  587MOL0     H80996   5.664  10.248   6.804 -0.0200 -0.4362  0.8022
  587MOL0     H80997   5.648  10.068   6.747  1.1534 -0.8810 -2.0776
  587MOL0     H80998   5.730  10.306   6.579  0.9200  0.2242  1.6569
  587MOL0     H80999   5.738  10.138   6.521  3.7811  0.3448  1.9159
  587MOL0     H81000   5.518  10.269   6.455  0.6441 -1.7430  0.2403
  587MOL0     H81001   5.489  10.287   6.627  0.2327  1.6239 -0.0678
  587MOL0     H81002   5.404   9.903   6.443 -4.0804  0.4955  0.1329
  587MOL0     H81003   6.084  10.122   6.795  0.2758  0.1700 -1.3585
  587MOL0     H81004   6.355  10.085   6.922  0.0755  0.9066 -0.1366
  587MOL0     H81005   6.439  10.111   6.774  0.7927  1.0801  1.4919
  587MOL0     H81006   6.289  10.197   6.795 -0.7168 -1.4346 -1.5981
  588MOL0     O81007  10.015   9.716   9.887  0.9712  1.1175 -0.7234
  588MOL0     C81008   9.915   9.761   9.940  0.6935 -0.0975 -0.2606
  588MOL0     O81009   9.866   9.898   9.926 -0.7649 -0.3893  0.8381
  588MOL0     C81010   9.948   9.977   9.849  0.2434  0.5801  0.0315
  588MOL0     C81011   9.940   9.974   9.705  0.4374 -0.1701 -0.8125
  588MOL0     C81012  10.024  10.052   9.632 -0.7115  0.1579  0.0994
  588MOL0     C81013  10.116  10.135   9.686  0.8142 -0.1731 -0.4134
  588MOL0     O81014  10.181  10.210   9.587 -0.4923 -0.4317  0.2201
  588MOL0     C81015  10.275  10.310   9.631  0.6473  0.0018  0.2046
  588MOL0     C81016  10.204  10.443   9.672  0.2642 -0.4880 -0.7247
  588MOL0     C81017  10.287  10.559   9.731 -0.1957 -0.0564  0.4610
  588MOL0     C81018  10.357  10.520   9.862  0.5476 -0.5709 -0.5269
  588MOL0     C81019  10.444  10.627   9.928 -0.0918  0.0250 -0.4780
  588MOL0     C81020  10.511  10.565  10.060  0.6381  0.7238 -0.1542
  588MOL0     C81021  10.404  10.563  10.174 -1.0827  0.1809 -0.0747
  588MOL0     C81022  10.380  10.693  10.251 -1.0627  0.5144 -0.2310
  588MOL0     N81023  10.494  10.740  10.332 -0.2952  1.3339  1.0827
  588MOL0     C81024  10.626  10.778  10.297  0.6318  0.2134  0.4954
  588MOL0     C81025  10.674  10.806  10.419 -0.8591  0.1423 -0.4411
  588MOL0     C81026  10.813  10.854  10.446 -0.2912 -0.5373  0.0274
  588MOL0     C81027  10.878  10.804  10.574  0.2987 -0.4882 -0.6360
  588MOL0     C81028  10.885  10.893  10.703  0.2959 -0.6434  1.2199
  588MOL0     C81029  10.749  10.878  10.776  0.9334  0.1613 -0.5829
  588MOL0     O81030  10.741  10.743  10.819  0.0579  0.7976 -0.8952
  588MOL0     C81031  10.634  10.693  10.894  0.5687 -0.8658  0.6154
  588MOL0     C81032  10.529  10.779  10.929 -0.8548 -0.0302  0.3224
  588MOL0     C81033  10.441  10.740  11.029  0.1489  0.9588  0.2782
  588MOL0     C81034  10.331  10.841  11.054 -0.0493 -0.4261  0.1029
  588MOL0     C81035  10.449  10.601  11.080  0.5703  0.8743 -0.6237
  588MOL0     C81036  10.353  10.542  11.182  0.1203 -0.0827  0.8312
  588MOL0     O81037  10.372  10.403  11.206  0.0633 -0.3258 -0.0294
  588MOL0     C81038  10.269  10.345  11.255  0.4526 -0.6855 -0.9982
  588MOL0     C81039  10.168  10.289  11.177 -0.3337  0.1005 -0.6641
  588MOL0     C81040  10.051  10.235  11.233  0.4565  0.5403 -0.6331
  588MOL0     C81041  10.030  10.243  11.372 -0.1118 -0.0899 -0.4035
  588MOL0     O81042   9.914  10.181  11.428 -0.3703 -0.1903  0.2482
  588MOL0     C81043   9.897  10.201  11.575  0.0285 -0.4140 -0.1438
  588MOL0     C81044   9.749  10.164  11.608  0.2873  0.7381 -0.1859
  588MOL0     C81045   9.701  10.203  11.760  0.4182  0.1059  0.7711
  588MOL0     C81046   9.571  10.132  11.784  0.8413  0.0417  0.3161
  588MOL0     C81047   9.506  10.169  11.922 -0.4187  0.2541  0.7184
  588MOL0     C81048   9.382  10.105  11.960  0.3935  0.4556 -0.9530
  588MOL0     C81049   9.258  10.140  11.870  0.0424  0.5091 -0.3416
  588MOL0     C81050   9.121  10.142  11.946  0.5139 -0.8833 -0.0656
  588MOL0    Cl81051   9.117   9.988  12.034 -0.1136  0.0268  0.0087
  588MOL0     C81052  10.134  10.289  11.449 -0.3094 -0.9077 -0.4719
  588MOL0     C81053  10.251  10.350  11.392  1.0968 -0.7723 -0.0427
  588MOL0     O81054  10.278  10.613  11.242  0.7809 -0.5021 -0.0036
  588MOL0     C81055  10.551  10.517  11.041 -0.9615  0.7011  0.4328
  588MOL0     C81056  10.645  10.564  10.947 -0.3250  0.2550  0.1824
  588MOL0     N81057  10.577  10.790  10.516  0.0536 -0.2492 -0.2197
  588MOL0     N81058  10.471  10.754  10.460  0.0307 -0.1637  0.3598
  588MOL0     C81059  10.125  10.146   9.825  0.2575  0.1722  0.7522
  588MOL0     C81060  10.041  10.063   9.909  0.6823  0.0791 -0.2320
  588MOL0     C81061   9.851   9.677  10.046  0.1757  0.2992  0.3199
  588MOL0     C81062   9.820   9.740  10.169  0.1298  0.1766  0.0900
  588MOL0     C81063   9.751   9.673  10.269  0.1511  0.2979  0.9822
  588MOL0     C81064   9.712   9.541  10.254 -0.9280  0.4159  0.2778
  588MOL0     O81065   9.645   9.485  10.354  0.5007 -0.0994  0.0894
  588MOL0     C81066   9.619   9.339  10.358  0.0816 -0.2916 -0.0549
  588MOL0     C81067   9.461   9.302  10.345 -0.3018 -0.4048  0.1727
  588MOL0     C81068   9.388   9.349  10.469  0.5411  0.0731  0.3735
  588MOL0     C81069   9.239   9.309  10.456  0.0411 -0.6467 -0.5164
  588MOL0     C81070   9.170   9.393  10.549 -0.2215 -0.5798  0.0913
  588MOL0     C81071   9.101   9.463  10.626 -0.3895  0.5393  0.4531
  588MOL0     C81072   9.734   9.488  10.125  1.3447  0.1319 -1.2497
  588MOL0     C81073   9.809   9.543  10.027 -0.8209 -0.1800 -0.2286
  588MOL0     C81074   9.835   9.467   9.891 -0.0478  0.3786 -0.2529
  588MOL0     H81075   9.865   9.902   9.672 -1.6477  0.7387  1.5730
  588MOL0     H81076  10.012  10.051   9.524  0.5507  3.2588 -0.1672
  588MOL0     H81077  10.354  10.331   9.558  0.0588 -1.0375 -0.7693
  588MOL0     H81078  10.330  10.263   9.713  1.6341 -2.3183 -1.6442
  588MOL0     H81079  10.153  10.481   9.584 -0.9034  0.3924  0.2858
  588MOL0     H81080  10.123  10.431   9.745  2.9624 -0.9644  2.4440
  588MOL0     H81081  10.360  10.592   9.657 -0.3392  0.2639  0.4578
  588MOL0     H81082  10.229  10.651   9.739 -0.3268 -0.0831 -0.1147
  588MOL0     H81083  10.280  10.496   9.936  1.0280 -0.5247  0.0010
  588MOL0     H81084  10.417  10.431   9.840  2.1865 -0.0065  1.3333
  588MOL0     H81085  10.366  10.698   9.958  1.0790  2.2983 -2.4468
  588MOL0     H81086  10.516  10.665   9.855 -0.1520  0.7630 -0.1691
  588MOL0     H81087  10.544  10.465  10.032  0.0105  0.2906  0.6053
  588MOL0     H81088  10.600  10.623  10.085  0.0846  1.2591  0.6080
  588MOL0     H81089  10.452  10.488  10.237  0.7346 -1.1239 -2.8043
  588MOL0     H81090  10.306  10.530  10.140 -2.1796  2.4234  0.6896
  588MOL0     H81091  10.342  10.766  10.179 -2.6913 -1.6778 -1.7268
  588MOL0     H81092  10.290  10.696  10.313  0.7810 -0.6061  2.7181
  588MOL0     H81093  10.675  10.789  10.201  2.9357 -1.4960  1.3649
  588MOL0     H81094  10.789  10.959  10.465  0.9966 -0.1609 -0.3349
  588MOL0     H81095  10.871  10.840  10.355 -1.5112  0.4774 -0.9440
  588MOL0     H81096  10.831  10.708  10.598 -1.0734  0.2414 -0.3044
  588MOL0     H81097  10.984  10.789  10.553 -0.3632 -2.0439 -3.4280
  588MOL0     H81098  10.964  10.857  10.769  1.2775  3.6720  2.7521
  588MOL0     H81099  10.910  10.996  10.673 -1.5886 -0.7357 -0.9998
  588MOL0     H81100  10.754  10.931  10.871 -1.2248 -2.3361  1.0838
  588MOL0     H81101  10.660  10.923  10.732 -0.0526 -1.8696 -0.7859
  588MOL0     H81102  10.515  10.870  10.871 -1.0238  0.5080  1.1919
  588MOL0     H81103  10.344  10.935  10.999  0.3433 -0.7415 -0.3467
  588MOL0     H81104  10.321  10.868  11.160 -0.4566  0.0630 -0.0552
  588MOL0     H81105  10.238  10.792  11.027  0.4930 -1.3419 -0.1236
  588MOL0     H81106  10.182  10.298  11.070 -4.7653  2.4940 -1.2739
  588MOL0     H81107   9.983  10.182  11.167  0.0824  1.3478 -0.9094
  588MOL0     H81108   9.965  10.136  11.631 -1.0793 -0.9293  0.6352
  588MOL0     H81109   9.892  10.307  11.601  0.7191 -0.2704 -0.5495
  588MOL0     H81110   9.684  10.221  11.541  1.5559  3.0911  0.4933
  588MOL0     H81111   9.731  10.058  11.587 -0.3787  0.9929 -0.9494
  588MOL0     H81112   9.687  10.311  11.771  0.4163 -0.0350  2.3455
  588MOL0     H81113   9.776  10.169  11.831 -0.0191  0.8122  1.5988
  588MOL0     H81114   9.585  10.024  11.776 -2.2457 -0.3801 -1.0808
  588MOL0     H81115   9.501  10.171  11.709 -1.8922 -0.7837  2.2475
  588MOL0     H81116   9.584  10.140  11.994 -0.9634 -1.6200  0.5893
  588MOL0     H81117   9.489  10.277  11.932 -3.1323  0.4336 -3.4257
  588MOL0     H81118   9.363  10.130  12.065 -1.4169 -1.8436 -0.6490
  588MOL0     H81119   9.392   9.996  11.967  1.9859  0.5441 -1.6153
  588MOL0     H81120   9.258  10.070  11.786  1.6758  1.4270 -1.1360
  588MOL0     H81121   9.269  10.238  11.823 -2.5989 -0.7153 -3.9570
  588MOL0     H81122   9.042  10.139  11.870  0.1339 -3.5658  0.3354
  588MOL0     H81123   9.108  10.224  12.017  0.5418 -1.4154  0.5615
  588MOL0     H81124  10.143  10.284  11.557  0.0184  2.7750 -0.1984
  588MOL0     H81125  10.331  10.383  11.457  1.3210 -1.9317  0.3119
  588MOL0     H81126  10.583  10.420  11.076  3.0311  1.0627 -1.7141
  588MOL0     H81127  10.730  10.505  10.914 -2.1519 -0.8811 -2.9019
  588MOL0     H81128  10.178  10.229   9.871  0.5568 -0.0314  0.7775
  588MOL0     H81129  10.043  10.081  10.016 -2.0760  0.7513 -0.2428
  588MOL0     H81130   9.844   9.845  10.181 -2.0587  0.5400  2.1080
  588MOL0     H81131   9.716   9.725  10.358 -2.4552  2.4322 -1.1143
  588MOL0     H81132   9.678   9.275  10.292 -1.7479 -1.9236 -0.2097
  588MOL0     H81133   9.653   9.308  10.457 -1.2416 -1.5467  0.0311
  588MOL0     H81134   9.460   9.195  10.320  0.0540 -0.5503  0.7535
  588MOL0     H81135   9.420   9.343  10.253  0.8564  0.0974 -0.1386
  588MOL0     H81136   9.431   9.315  10.563 -0.8494 -0.8156  0.7101
  588MOL0     H81137   9.395   9.458  10.466  3.7919 -0.0450 -1.9453
  588MOL0     H81138   9.224   9.203  10.480 -1.2486 -0.1880  0.9275
  588MOL0     H81139   9.202   9.335  10.357 -2.0434 -1.8611 -0.1206
  588MOL0     H81140   9.047   9.529  10.691 -3.3214 -1.6052  0.3974
  588MOL0     H81141   9.695   9.387  10.116  1.2448 -0.0946  1.1056
  588MOL0     H81142   9.802   9.363   9.891 -1.4468  0.7131 -3.5545
  588MOL0     H81143   9.774   9.512   9.813  0.0357 -0.6694 -0.9442
  588MOL0     H81144   9.938   9.466   9.853 -0.5697  1.3311 -1.7495
  589MOL0     O81145   9.269   0.441   1.710  0.2245  0.0924  0.0237
  589MOL0     C81146   9.301   0.397   1.603  0.2824  0.9796 -0.2175
  589MOL0     O81147   9.213   0.357   1.501 -0.4988 -0.1885 -0.1918
  589MOL0     C81148   9.082   0.339   1.509 -0.0056  0.0254 -0.0623
  589MOL0     C81149   9.027   0.343   1.382  0.1875  0.2083 -0.5117
  589MOL0     C81150   8.887   0.337   1.369 -0.6507 -0.0956 -0.0405
  589MOL0     C81151   8.803   0.310   1.483  1.0990  0.5060 -0.0204
  589MOL0     O81152   8.672   0.278   1.466  0.5429 -0.3450 -0.2463
  589MOL0     C81153   8.588   0.355   1.378  0.2575  0.4484 -0.0751
  589MOL0     C81154   8.436   0.332   1.402  0.1398  0.3626 -0.1189
  589MOL0     C81155   8.349   0.429   1.324  0.0715 -0.1532  0.2484
  589MOL0     C81156   8.214   0.360   1.304  0.5136 -0.7405 -0.8361
  589MOL0     C81157   8.116   0.441   1.216  0.0784 -0.1513 -0.8474
  589MOL0     C81158   8.084   0.577   1.282  0.3394  0.0259 -0.1048
  589MOL0     C81159   7.977   0.672   1.222  0.4697 -0.5576  0.3145
  589MOL0     C81160   7.990   0.711   1.074 -0.0781 -0.0891  0.3072
  589MOL0     N81161   8.101   0.808   1.055  0.1471  0.2561 -0.2186
  589MOL0     C81162   8.078   0.935   1.004 -0.5310 -0.3605 -0.8360
  589MOL0     C81163   8.204   0.986   0.992 -1.2907  0.7466  0.0686
  589MOL0     C81164   8.236   1.119   0.934 -0.0428  0.2354 -1.2210
  589MOL0     C81165   8.262   1.222   1.055  0.2303 -0.1224 -0.5400
  589MOL0     C81166   8.312   1.352   0.987  0.3613  0.9589  0.4138
  589MOL0     C81167   8.336   1.450   1.101  0.3533  0.0794  0.1544
  589MOL0     O81168   8.434   1.548   1.055  0.4000 -0.3250 -0.5561
  589MOL0     C81169   8.398   1.608   0.929  0.1957  0.4618 -1.5275
  589MOL0     C81170   8.437   1.555   0.811 -0.7866  0.4101  1.0294
  589MOL0     C81171   8.416   1.612   0.676 -0.1959  0.1787 -0.1687
  589MOL0     C81172   8.478   1.535   0.562  0.3710 -0.4643 -0.3291
  589MOL0     C81173   8.325   1.720   0.670  0.6039 -0.3595 -0.6472
  589MOL0     C81174   8.278   1.810   0.556  0.4086  1.0126  0.8395
  589MOL0     O81175   8.340   1.788   0.439 -0.2181  0.4187 -1.1303
  589MOL0     C81176   8.366   1.893   0.353 -0.3307 -0.1848 -1.2419
  589MOL0     C81177   8.405   1.850   0.230 -0.8302  0.0200  1.2692
  589MOL0     C81178   8.453   1.947   0.135  0.2315 -0.4685 -0.1228
  589MOL0     C81179   8.460   2.083   0.167 -0.7786  0.2491 -0.0240
  589MOL0     O81180   8.505   2.166   0.070  0.0525 -0.5445  0.3852
  589MOL0     C81181   8.457   2.298   0.058 -1.3286 -0.7257 -0.2113
  589MOL0     C81182   8.497   2.360  -0.080  0.3449  0.2255  0.1915
  589MOL0     C81183   8.404   2.309  -0.186  0.4663 -0.0805 -0.6462
  589MOL0     C81184   8.473   2.313  -0.332  0.2445  0.1280 -0.4392
  589MOL0     C81185   8.387   2.225  -0.429  0.4147  0.9400 -0.6675
  589MOL0     C81186   8.435   2.212  -0.582  0.5975  0.5906 -0.1859
  589MOL0     C81187   8.400   2.325  -0.682  0.1718  0.1427 -1.1438
  589MOL0     C81188   8.466   2.304  -0.817  0.5170 -0.3213  0.2169
  589MOL0    Cl81189   8.375   2.374  -0.952 -0.0868 -0.2481  0.4646
  589MOL0     C81190   8.408   2.126   0.289 -0.4360 -0.5286 -0.0135
  589MOL0     C81191   8.369   2.034   0.379  1.1692 -0.1264 -0.3949
  589MOL0     O81192   8.188   1.887   0.578 -0.0383 -0.6034  0.6315
  589MOL0     C81193   8.273   1.764   0.798 -0.1013  0.2927 -0.3816
  589MOL0     C81194   8.310   1.708   0.920  0.0930 -0.6732  0.0720
  589MOL0     N81195   8.301   0.895   1.026 -0.4502 -0.0967  0.7789
  589MOL0     N81196   8.237   0.784   1.064  0.0834 -1.2834 -0.7574
  589MOL0     C81197   8.868   0.300   1.607  0.3699 -0.7528 -0.6766
  589MOL0     C81198   9.003   0.312   1.621 -0.5292  0.2063  0.0756
  589MOL0     C81199   9.439   0.401   1.575  1.3674 -0.9836 -0.3134
  589MOL0     C81200   9.522   0.466   1.669  0.2652  0.1413 -0.2725
  589MOL0     C81201   9.661   0.465   1.662 -0.3689 -0.0893 -1.1705
  589MOL0     C81202   9.734   0.411   1.555 -0.3776 -0.2268  0.3751
  589MOL0     O81203   9.870   0.429   1.547 -0.0694  0.0431  0.7699
  589MOL0     C81204   9.902   0.552   1.484  0.8448  0.3328  0.6108
  589MOL0     C81205   9.978   0.644   1.583  0.7157  0.3207  0.3114
  589MOL0     C81206   9.985   0.793   1.540 -0.0735 -0.0077  0.0506
  589MOL0     C81207  10.065   0.880   1.635 -0.3955  0.0560 -0.8870
  589MOL0     C81208  10.054   1.029   1.630  0.1547  1.1380 -0.0752
  589MOL0     C81209  10.044   1.147   1.645  0.0280  0.8280  0.0662
  589MOL0     C81210   9.658   0.335   1.460  0.3732 -1.0429  0.4960
  589MOL0     C81211   9.518   0.331   1.470  0.6371 -0.2313 -0.4365
  589MOL0     C81212   9.438   0.264   1.355  0.2505 -0.0036 -0.3540
  589MOL0     H81213   9.079   0.364   1.289 -4.3611 -1.3297 -3.7492
  589MOL0     H81214   8.848   0.332   1.268  1.4044  0.2523 -0.9013
  589MOL0     H81215   8.611   0.322   1.276  0.2255  0.1209  0.0224
  589MOL0     H81216   8.608   0.462   1.379 -1.1855  0.8180 -2.4819
  589MOL0     H81217   8.410   0.229   1.376 -0.0446  0.2418  0.5277
  589MOL0     H81218   8.409   0.355   1.506  1.9744  0.5501  0.3649
  589MOL0     H81219   8.349   0.524   1.377 -0.7680  1.3047 -2.2263
  589MOL0     H81220   8.396   0.443   1.226  0.3359 -2.6987 -0.0747
  589MOL0     H81221   8.229   0.255   1.276  2.3800 -0.6946 -0.1651
  589MOL0     H81222   8.167   0.340   1.400  2.0059  0.7399  0.2533
  589MOL0     H81223   8.033   0.374   1.194  0.7591 -1.0408 -0.7500
  589MOL0     H81224   8.167   0.464   1.121  1.8896  1.6835  0.4687
  589MOL0     H81225   8.060   0.558   1.387  1.5889  1.0130  0.3780
  589MOL0     H81226   8.177   0.634   1.276  1.4830 -1.9157 -4.2922
  589MOL0     H81227   7.981   0.768   1.274 -3.5688  0.3115 -0.6269
  589MOL0     H81228   7.874   0.637   1.237 -0.2799  1.2000 -0.4458
  589MOL0     H81229   8.023   0.620   1.022 -0.3117 -0.0455  0.0807
  589MOL0     H81230   7.893   0.749   1.042  0.2237 -1.0827 -2.0244
  589MOL0     H81231   7.982   0.981   0.984 -2.0599 -2.1630  1.7332
  589MOL0     H81232   8.150   1.156   0.878 -1.6354  1.2490  1.7322
  589MOL0     H81233   8.327   1.112   0.873 -0.0880  0.4020 -1.3077
  589MOL0     H81234   8.164   1.227   1.105 -0.0334 -0.5663 -1.0065
  589MOL0     H81235   8.331   1.183   1.131 -0.4860 -4.5909 -1.8894
  589MOL0     H81236   8.411   1.328   0.949 -0.0809  0.0208 -0.1914
  589MOL0     H81237   8.248   1.388   0.906  1.0810 -0.9691 -1.0946
  589MOL0     H81238   8.240   1.486   1.139 -1.0958 -3.3648  0.1646
  589MOL0     H81239   8.375   1.395   1.187  0.1374  2.2207  1.6974
  589MOL0     H81240   8.514   1.479   0.812  0.4813  1.6827  2.2058
  589MOL0     H81241   8.436   1.564   0.465  2.3048  2.8450 -0.3214
  589MOL0     H81242   8.456   1.429   0.577 -2.3070  0.0123 -0.5044
  589MOL0     H81243   8.586   1.554   0.574 -0.1199  1.9683  0.8190
  589MOL0     H81244   8.405   1.742   0.215 -1.3513 -0.4664  4.1860
  589MOL0     H81245   8.506   1.907   0.049  1.9799  1.3724  0.0149
  589MOL0     H81246   8.354   2.317   0.088 -0.6515 -0.9612  2.4900
  589MOL0     H81247   8.513   2.355   0.133 -1.4200 -0.1792 -0.5552
  589MOL0     H81248   8.482   2.468  -0.071 -0.9814 -0.0649  2.4909
  589MOL0     H81249   8.601   2.347  -0.111 -0.4756 -1.8320 -1.9969
  589MOL0     H81250   8.313   2.368  -0.201  0.4373 -0.4170 -1.8245
  589MOL0     H81251   8.366   2.211  -0.156  0.1623 -0.1883 -1.3808
  589MOL0     H81252   8.576   2.277  -0.330  0.7057  1.1611 -2.8223
  589MOL0     H81253   8.468   2.410  -0.382 -2.5900 -0.7045 -1.9726
  589MOL0     H81254   8.371   2.121  -0.399 -3.1758  1.3116 -0.9465
  589MOL0     H81255   8.287   2.269  -0.421  1.7734  4.2349  0.0200
  589MOL0     H81256   8.385   2.122  -0.620  2.3010 -0.1196 -0.8647
  589MOL0     H81257   8.542   2.193  -0.590  1.5791  4.7944  0.9957
  589MOL0     H81258   8.446   2.418  -0.649  2.2398 -1.0274 -0.5408
  589MOL0     H81259   8.294   2.333  -0.706 -0.0518  1.1545  0.1261
  589MOL0     H81260   8.482   2.199  -0.841 -2.2973 -0.5273 -1.2777
  589MOL0     H81261   8.564   2.352  -0.818 -0.0996  1.0267 -1.6973
  589MOL0     H81262   8.403   2.232   0.311  1.3008 -0.9709  3.3304
  589MOL0     H81263   8.361   2.088   0.472  2.3656  2.1422 -1.5231
  589MOL0     H81264   8.196   1.839   0.810  1.0769  1.9692 -2.4837
  589MOL0     H81265   8.265   1.743   1.013  0.9897 -0.6600  0.5100
  589MOL0     H81266   8.799   0.285   1.689 -1.6380  0.1167 -2.1011
  589MOL0     H81267   9.056   0.296   1.714  3.3602  1.3693 -1.7412
  589MOL0     H81268   9.484   0.517   1.757  4.5474  3.3244  0.0356
  589MOL0     H81269   9.717   0.509   1.744  0.3968 -0.9206 -1.2390
  589MOL0     H81270   9.955   0.524   1.392 -0.5288  0.1932 -0.1726
  589MOL0     H81271   9.814   0.605   1.447  0.3622 -2.3822 -2.6355
  589MOL0     H81272  10.082   0.612   1.587  2.0145  3.9232 -0.2997
  589MOL0     H81273   9.940   0.652   1.686  1.0455  3.2841  0.3028
  589MOL0     H81274  10.022   0.807   1.438  0.3443 -1.9249 -0.1091
  589MOL0     H81275   9.883   0.832   1.547 -0.4989 -0.9458 -0.7409
  589MOL0     H81276  10.169   0.851   1.622 -0.1107  0.4088  0.4248
  589MOL0     H81277  10.029   0.849   1.734 -2.7286  1.1765 -1.3009
  589MOL0     H81278  10.013   1.246   1.671 -0.2105 -0.0955  3.8385
  589MOL0     H81279   9.720   0.291   1.383 -0.7027  0.3297 -1.2368
  589MOL0     H81280   9.407   0.336   1.279 -1.5964  0.4663  0.7924
  589MOL0     H81281   9.506   0.194   1.306 -0.5089 -0.4240 -0.8182
  589MOL0     H81282   9.359   0.196   1.388 -0.3297 -0.1689 -1.9954
  590MOL0     O81283  10.645   8.844   8.762  0.6513 -0.6739 -0.8200
  590MOL0     C81284  10.681   8.807   8.652 -0.5237 -0.2502  0.1237
  590MOL0     O81285  10.627   8.855   8.538  0.0584  0.3202 -0.7096
  590MOL0     C81286  10.543   8.964   8.533  0.1382  0.1666  1.0449
  590MOL0     C81287  10.558   9.039   8.416 -0.4895  0.1482 -0.7286
  590MOL0     C81288  10.481   9.161   8.402  0.2651  0.4814  0.8291
  590MOL0     C81289  10.399   9.210   8.508 -0.0790 -0.4733  0.5450
  590MOL0     O81290  10.323   9.328   8.510  0.1729 -0.2142  0.6568
  590MOL0     C81291  10.264   9.353   8.382  0.7728 -0.0293 -0.0690
  590MOL0     C81292  10.168   9.473   8.408 -0.2907  0.3534  0.7711
  590MOL0     C81293  10.045   9.433   8.481 -0.4094 -0.4862 -0.3351
  590MOL0     C81294   9.993   9.548   8.568 -0.1449 -0.4196  0.5005
  590MOL0     C81295  10.077   9.559   8.697  0.3345 -0.4574 -0.3548
  590MOL0     C81296  10.043   9.679   8.788 -0.6644  0.1706  0.6030
  590MOL0     C81297   9.899   9.680   8.849 -0.0454 -0.1762 -0.1038
  590MOL0     C81298   9.871   9.808   8.918 -0.3093 -0.2630 -0.3357
  590MOL0     N81299   9.867   9.924   8.821 -0.3903 -0.4940 -0.5770
  590MOL0     C81300   9.771   9.942   8.725  0.4523  0.2755  0.8140
  590MOL0     C81301   9.795  10.058   8.669  0.6024  0.0098  0.1624
  590MOL0     C81302   9.704  10.125   8.570  0.9356 -0.4582 -0.7294
  590MOL0     C81303   9.768  10.135   8.430  0.2070 -0.6384 -0.0898
  590MOL0     C81304   9.675  10.215   8.336 -0.4479  0.0303 -0.3066
  590MOL0     C81305   9.722  10.190   8.193  0.0410  0.0422  0.0154
  590MOL0     O81306   9.708  10.052   8.160 -0.1075 -0.0615 -0.9218
  590MOL0     C81307   9.796  10.003   8.057 -0.0748 -0.2233  0.3716
  590MOL0     C81308   9.785   9.870   8.019 -0.2830  1.0284  0.4303
  590MOL0     C81309   9.867   9.816   7.908 -0.2323 -0.2013  0.6136
  590MOL0     C81310   9.852   9.677   7.865  0.6283  0.2494  0.4587
  590MOL0     C81311   9.943   9.901   7.829 -0.2607 -0.9157 -0.0802
  590MOL0     C81312  10.014   9.850   7.707  0.5797 -0.1004 -0.6979
  590MOL0     O81313  10.146   9.867   7.721  0.3400 -0.1299  0.2953
  590MOL0     C81314  10.233   9.827   7.625 -1.0734  0.2361 -0.5827
  590MOL0     C81315  10.354   9.773   7.659 -0.3700 -0.7387 -0.5111
  590MOL0     C81316  10.454   9.752   7.557 -0.3851 -0.7811  0.0580
  590MOL0     C81317  10.439   9.772   7.425  0.9176  0.0598 -0.3998
  590MOL0     O81318  10.545   9.767   7.336 -0.6547 -0.0959  0.0807
  590MOL0     C81319  10.654   9.684   7.363  0.1742  0.4548  0.0545
  590MOL0     C81320  10.721   9.659   7.221 -0.2689 -0.1008 -1.1836
  590MOL0     C81321  10.790   9.782   7.162  0.3307 -0.3670 -0.4234
  590MOL0     C81322  10.924   9.824   7.223  0.0302  0.4579 -0.0303
  590MOL0     C81323  10.990   9.943   7.166  0.1550 -0.4856  1.0771
  590MOL0     C81324  10.917  10.078   7.163 -0.0229 -0.5930  0.0246
  590MOL0     C81325  10.858  10.124   7.300 -1.0315 -0.7254  1.0660
  590MOL0     C81326  10.770  10.253   7.290 -0.6883  1.1592  0.2826
  590MOL0    Cl81327  10.858  10.402   7.244 -0.4191  0.2353  0.4068
  590MOL0     C81328  10.303   9.809   7.391  0.6759  0.0848  0.9663
  590MOL0     C81329  10.204   9.844   7.488 -0.7671  0.7390  0.2874
  590MOL0     O81330   9.953   9.812   7.607 -0.2108  0.3601 -1.0590
  590MOL0     C81331   9.957  10.037   7.881 -0.2209  0.4190 -0.0504
  590MOL0     C81332   9.882  10.088   7.989 -0.4368  0.6758 -0.3399
  590MOL0     N81333   9.918  10.103   8.716  0.0584 -0.7676 -0.2792
  590MOL0     N81334   9.957  10.028   8.813  0.7812  0.5709  0.3307
  590MOL0     C81335  10.403   9.143   8.631 -0.4960  0.5792 -0.1812
  590MOL0     C81336  10.465   9.013   8.633 -0.0160 -0.9901 -0.0825
  590MOL0     C81337  10.788   8.702   8.642 -0.5718  0.7341 -0.1881
  590MOL0     C81338  10.891   8.720   8.546 -0.3601 -0.3883 -1.0827
  590MOL0     C81339  11.003   8.636   8.543 -0.3072 -0.2145 -0.2594
  590MOL0     C81340  11.003   8.524   8.631  0.7718 -0.0415 -0.0802
  590MOL0     O81341  11.110   8.447   8.666  0.2508 -0.1663 -0.0396
  590MOL0     C81342  11.218   8.425   8.583  0.3587 -0.0468 -0.2752
  590MOL0     C81343  11.338   8.526   8.616  0.5529  0.0381 -0.2521
  590MOL0     C81344  11.470   8.497   8.536  0.2371  0.4442 -0.0736
  590MOL0     C81345  11.463   8.529   8.385  0.2210 -0.5267 -0.0087
  590MOL0     C81346  11.371   8.461   8.303 -0.2350 -0.4984  0.6134
  590MOL0     C81347  11.309   8.409   8.219 -0.4733 -0.2746 -0.1618
  590MOL0     C81348  10.889   8.497   8.713  0.8064 -0.0853 -0.6241
  590MOL0     C81349  10.793   8.584   8.723 -0.3859 -0.5502 -0.0884
  590MOL0     C81350  10.682   8.536   8.806 -0.5054 -0.4666  0.4331
  590MOL0     H81351  10.637   9.016   8.346  0.7901  4.7026 -1.0411
  590MOL0     H81352  10.490   9.223   8.314  0.8115 -0.3073  0.3114
  590MOL0     H81353  10.195   9.278   8.341  0.7497  1.3198 -2.7266
  590MOL0     H81354  10.326   9.381   8.296 -0.8253 -0.9765 -1.6105
  590MOL0     H81355  10.225   9.549   8.462  3.2258 -1.9689  0.6585
  590MOL0     H81356  10.137   9.532   8.321  1.0942  2.5212  1.6572
  590MOL0     H81357   9.961   9.399   8.420 -2.4026  1.3458  1.2127
  590MOL0     H81358  10.062   9.346   8.544 -2.2829  0.0797  1.0429
  590MOL0     H81359   9.990   9.640   8.509 -0.4976  0.3432  1.6458
  590MOL0     H81360   9.887   9.530   8.590 -0.9036 -0.3980 -2.7202
  590MOL0     H81361  10.181   9.574   8.667  0.3098 -1.8699 -1.2028
  590MOL0     H81362  10.069   9.469   8.759 -0.8078  1.4830  2.5902
  590MOL0     H81363  10.112   9.666   8.872  0.0302 -1.8115 -0.2230
  590MOL0     H81364  10.065   9.765   8.725  1.1754  0.0426  0.9963
  590MOL0     H81365   9.906   9.600   8.922  0.1246  0.0122  0.0886
  590MOL0     H81366   9.828   9.647   8.773  0.0461  0.0908 -0.3113
  590MOL0     H81367   9.777   9.797   8.973  0.6071 -0.1099  1.3351
  590MOL0     H81368   9.956   9.809   8.987  1.0345 -1.4830 -1.8763
  590MOL0     H81369   9.678   9.886   8.717  0.0123  1.2199 -1.6108
  590MOL0     H81370   9.687  10.229   8.598 -0.1743 -0.6936 -0.4661
  590MOL0     H81371   9.602  10.084   8.568  0.4093  0.4986  2.1129
  590MOL0     H81372   9.865  10.186   8.431 -0.8635  1.5453 -0.7203
  590MOL0     H81373   9.779  10.032   8.396  0.3315  0.1695 -2.7415
  590MOL0     H81374   9.571  10.189   8.355 -0.6609  0.4209 -0.9223
  590MOL0     H81375   9.691  10.319   8.363  4.3938 -1.0791  2.3375
  590MOL0     H81376   9.657  10.238   8.120 -3.6293 -0.0218  2.9236
  590MOL0     H81377   9.827  10.220   8.203 -0.0395  0.2027  0.4343
  590MOL0     H81378   9.730   9.794   8.073  1.4287 -0.3079  0.3897
  590MOL0     H81379   9.798   9.627   7.946 -0.7462  2.9564  1.3468
  590MOL0     H81380   9.950   9.628   7.863 -0.1590 -1.3884 -0.1011
  590MOL0     H81381   9.807   9.664   7.766  1.4062 -1.3404  0.2773
  590MOL0     H81382  10.385   9.768   7.763 -1.2644 -0.8821 -0.2496
  590MOL0     H81383  10.553   9.715   7.582 -0.4157 -0.0442  1.3276
  590MOL0     H81384  10.738   9.731   7.413  0.5757  2.1747 -2.0993
  590MOL0     H81385  10.623   9.589   7.408 -1.7278  1.1911  0.4083
  590MOL0     H81386  10.791   9.575   7.216 -1.0607 -0.8817  0.0707
  590MOL0     H81387  10.644   9.621   7.153 -1.2498 -1.8396  0.7640
  590MOL0     H81388  10.731   9.873   7.175 -0.3756 -0.8275 -0.3820
  590MOL0     H81389  10.805   9.758   7.057 -0.4566  0.4117 -0.7239
  590MOL0     H81390  11.000   9.746   7.212 -0.9756 -0.9502  2.2803
  590MOL0     H81391  10.913   9.826   7.332 -0.7821  2.3175 -0.0966
  590MOL0     H81392  11.083   9.977   7.212  1.2604 -1.3579 -0.4508
  590MOL0     H81393  11.031   9.921   7.067 -0.6447  2.0503  0.1092
  590MOL0     H81394  10.846  10.092   7.081  1.3639  2.6764 -0.7858
  590MOL0     H81395  10.991  10.157   7.147  0.7992 -0.3754  3.9757
  590MOL0     H81396  10.932  10.134   7.380 -1.2300  3.1113  0.9370
  590MOL0     H81397  10.797  10.036   7.326  0.2272 -2.2248 -0.7801
  590MOL0     H81398  10.718  10.266   7.385 -0.1489 -1.6354  1.0346
  590MOL0     H81399  10.692  10.234   7.215 -2.9872 -0.3679  2.8819
  590MOL0     H81400  10.285   9.826   7.285  1.4554 -0.0671  0.8029
  590MOL0     H81401  10.112   9.892   7.457 -0.6103  0.6653 -0.3097
  590MOL0     H81402  10.022  10.111   7.836 -0.3794  2.3193  2.6115
  590MOL0     H81403   9.893  10.195   8.006 -3.6657  0.9892  0.3311
  590MOL0     H81404  10.350   9.186   8.715  0.3785 -1.0721  1.3032
  590MOL0     H81405  10.446   8.961   8.727 -0.4178  1.6895  1.4205
  590MOL0     H81406  10.888   8.812   8.490  1.1237  0.3809  0.0328
  590MOL0     H81407  11.096   8.663   8.493 -1.0280 -0.7674 -1.9327
  590MOL0     H81408  11.244   8.324   8.616 -0.1619  0.4783  1.9179
  590MOL0     H81409  11.203   8.437   8.476  0.4970 -0.9866 -0.4102
  590MOL0     H81410  11.371   8.508   8.719  0.8779 -0.0863 -0.3771
  590MOL0     H81411  11.312   8.633   8.612  1.3284  0.1829 -2.1316
  590MOL0     H81412  11.544   8.559   8.587  1.0940 -2.2155  2.1259
  590MOL0     H81413  11.501   8.393   8.550 -1.1157  0.3267  2.5459
  590MOL0     H81414  11.559   8.497   8.345  0.4775 -0.9483  0.9321
  590MOL0     H81415  11.461   8.639   8.384 -3.0185 -0.3010  4.3062
  590MOL0     H81416  11.263   8.362   8.134  0.1894 -2.4173  0.5951
  590MOL0     H81417  10.886   8.412   8.781 -2.6275 -2.3799 -3.3092
  590MOL0     H81418  10.606   8.612   8.827 -1.4324 -1.3180  0.2111
  590MOL0     H81419  10.632   8.457   8.750 -0.9888 -0.7082  1.1904
  590MOL0     H81420  10.707   8.497   8.904 -1.5669 -2.1353  0.0734
  591MOL0     O81421   8.489   8.209   6.855 -0.0831  0.2442 -0.2508
  591MOL0     C81422   8.374   8.221   6.884 -0.0923  0.5309  0.3248
  591MOL0     O81423   8.284   8.128   6.867  0.3634  0.1512  0.1133
  591MOL0     C81424   8.321   8.001   6.834 -0.8137 -1.1246 -0.6156
  591MOL0     C81425   8.294   7.898   6.917 -0.0908 -0.1341 -0.0651
  591MOL0     C81426   8.342   7.770   6.882 -0.5944  0.2919 -0.1465
  591MOL0     C81427   8.400   7.740   6.762 -0.4369  0.2547  0.2951
  591MOL0     O81428   8.448   7.619   6.711  0.1114  0.3409 -0.1745
  591MOL0     C81429   8.466   7.505   6.795 -0.3848  0.3582  0.1559
  591MOL0     C81430   8.512   7.377   6.721  0.0964  0.5345  0.1651
  591MOL0     C81431   8.655   7.384   6.663 -0.4516 -0.3535 -0.5537
  591MOL0     C81432   8.703   7.270   6.572  0.1071 -0.3675 -0.0968
  591MOL0     C81433   8.673   7.132   6.623  0.0745  1.1968 -0.6383
  591MOL0     C81434   8.738   7.029   6.532  0.2881  0.2318 -0.2200
  591MOL0     C81435   8.737   6.888   6.597 -0.0324  0.4527 -1.3922
  591MOL0     C81436   8.772   6.776   6.501  0.2839  0.2948 -0.0397
  591MOL0     N81437   8.740   6.641   6.548  0.1398 -0.5145 -0.6750
  591MOL0     C81438   8.771   6.528   6.483 -0.1658  0.2013 -0.6539
  591MOL0     C81439   8.763   6.427   6.572  0.7977  0.5545 -0.6069
  591MOL0     C81440   8.785   6.280   6.557 -0.4362  0.0455  0.3488
  591MOL0     C81441   8.720   6.224   6.431 -1.0779  0.0510 -0.8727
  591MOL0     C81442   8.570   6.205   6.438 -0.3509 -0.1922 -0.5521
  591MOL0     C81443   8.484   6.321   6.370 -0.8300  0.7481  0.5787
  591MOL0     O81444   8.466   6.442   6.454 -0.4501  0.7120 -0.8072
  591MOL0     C81445   8.354   6.430   6.538 -0.2088 -0.6225 -0.2387
  591MOL0     C81446   8.369   6.485   6.662 -0.8395 -0.0427  0.3823
  591MOL0     C81447   8.275   6.495   6.763  0.5932 -0.1836 -0.0887
  591MOL0     C81448   8.316   6.560   6.901  0.2064 -0.3763 -0.6952
  591MOL0     C81449   8.141   6.443   6.726 -0.6813  0.1387  0.9366
  591MOL0     C81450   8.036   6.440   6.825  0.0521  0.5428 -0.5545
  591MOL0     O81451   8.050   6.482   6.952 -0.0303  0.1559  0.9334
  591MOL0     C81452   7.950   6.478   7.034  0.2089  0.3310 -0.1854
  591MOL0     C81453   7.836   6.570   7.032 -0.4638 -0.5097 -0.4686
  591MOL0     C81454   7.732   6.565   7.124 -0.5997  0.1259 -0.6506
  591MOL0     C81455   7.735   6.461   7.214 -0.2198 -0.3772  0.8708
  591MOL0     O81456   7.631   6.450   7.303 -0.1043 -0.1344 -0.2129
  591MOL0     C81457   7.550   6.565   7.328  0.3419  0.1609 -1.0515
  591MOL0     C81458   7.453   6.532   7.453 -0.0552 -0.8172  0.2877
  591MOL0     C81459   7.531   6.545   7.587  0.8485  0.2857 -0.3739
  591MOL0     C81460   7.426   6.535   7.704 -0.3188 -0.3564 -0.5101
  591MOL0     C81461   7.495   6.498   7.841 -0.6787 -0.2101  0.1514
  591MOL0     C81462   7.389   6.449   7.947  0.1323  0.0923  0.1567
  591MOL0     C81463   7.448   6.428   8.088  0.3480  0.1103  0.2524
  591MOL0     C81464   7.329   6.402   8.188  0.2662  1.0229 -0.2776
  591MOL0    Cl81465   7.423   6.368   8.342 -0.2268  0.2254  0.3205
  591MOL0     C81466   7.836   6.365   7.208  0.3824  0.3113  1.1516
  591MOL0     C81467   7.945   6.372   7.124 -0.3633 -0.3402  0.0620
  591MOL0     O81468   7.933   6.394   6.777 -0.3970  0.7306 -0.2185
  591MOL0     C81469   8.130   6.392   6.592  0.3221  0.3734 -0.4640
  591MOL0     C81470   8.229   6.383   6.498  0.0110 -0.0676  0.2537
  591MOL0     N81471   8.724   6.488   6.697  0.1920  0.4213  0.6033
  591MOL0     N81472   8.708   6.617   6.676  0.7211  0.5596  0.3472
  591MOL0     C81473   8.423   7.848   6.674  0.6175 -0.8390  0.9783
  591MOL0     C81474   8.388   7.975   6.710 -0.5866 -0.1134 -0.0613
  591MOL0     C81475   8.321   8.361   6.915  0.4470  0.5287  0.4166
  591MOL0     C81476   8.180   8.375   6.937  0.2565 -0.2065  0.6469
  591MOL0     C81477   8.116   8.493   6.952 -0.9684 -0.3927  0.7869
  591MOL0     C81478   8.191   8.607   6.963 -0.1406 -0.6302 -0.6176
  591MOL0     O81479   8.132   8.731   6.976  0.1880 -0.2677  0.2673
  591MOL0     C81480   8.149   8.783   7.104  0.6569 -0.6932  0.0019
  591MOL0     C81481   8.022   8.757   7.183 -0.5430  0.0697 -0.1085
  591MOL0     C81482   8.037   8.751   7.330  0.1416  0.1986 -0.4407
  591MOL0     C81483   7.896   8.742   7.382 -0.1687 -0.1701  0.0280
  591MOL0     C81484   7.908   8.810   7.515 -0.7184  0.0496 -0.6070
  591MOL0     C81485   7.940   8.854   7.623  1.0872 -0.9302  0.0513
  591MOL0     C81486   8.330   8.606   6.936  0.5891  0.7213  0.4121
  591MOL0     C81487   8.399   8.482   6.921  0.3257 -0.4970 -0.1071
  591MOL0     C81488   8.543   8.493   6.909  0.8347  0.0469  0.0434
  591MOL0     H81489   8.264   7.916   7.019  2.7505 -1.6104  1.1411
  591MOL0     H81490   8.325   7.682   6.944 -2.6179 -1.5226 -3.0176
  591MOL0     H81491   8.371   7.480   6.843  0.2102 -3.3028 -0.2987
  591MOL0     H81492   8.543   7.528   6.869  0.3242  3.9351 -1.4636
  591MOL0     H81493   8.515   7.300   6.799 -1.5958 -1.0388 -1.2253
  591MOL0     H81494   8.439   7.355   6.642  2.9374 -0.2027 -2.4299
  591MOL0     H81495   8.663   7.473   6.600 -0.8437 -1.1674 -1.7987
  591MOL0     H81496   8.714   7.391   6.755 -2.4579  0.6567  0.7145
  591MOL0     H81497   8.665   7.288   6.471  0.2865  1.1396  0.0818
  591MOL0     H81498   8.812   7.284   6.567  0.2581 -1.0974  0.9006
  591MOL0     H81499   8.567   7.107   6.639  0.3963 -0.3767 -0.8362
  591MOL0     H81500   8.709   7.129   6.726 -1.9756  0.1737  0.1119
  591MOL0     H81501   8.685   7.023   6.436  1.3811  2.9118 -1.0926
  591MOL0     H81502   8.841   7.061   6.513  1.8073 -3.2328  1.3633
  591MOL0     H81503   8.638   6.870   6.639  0.3656 -0.1594 -0.6819
  591MOL0     H81504   8.805   6.879   6.683  0.0083 -0.6807 -1.5229
  591MOL0     H81505   8.721   6.797   6.407  0.7321 -0.9696 -0.5972
  591MOL0     H81506   8.881   6.784   6.491  0.4118  0.8382  1.4919
  591MOL0     H81507   8.769   6.517   6.376 -2.5824 -0.7284 -0.5751
  591MOL0     H81508   8.750   6.228   6.647  3.4184 -0.9919  1.4395
  591MOL0     H81509   8.891   6.254   6.561 -0.5293 -0.2994  0.6446
  591MOL0     H81510   8.748   6.285   6.345  0.9122 -1.0012 -1.0471
  591MOL0     H81511   8.776   6.131   6.416  1.5381  0.9916  2.0751
  591MOL0     H81512   8.551   6.115   6.380 -0.9450 -0.4401  0.0170
  591MOL0     H81513   8.556   6.198   6.546  3.7227  2.9705  0.4512
  591MOL0     H81514   8.533   6.351   6.277  0.0599 -0.0757  0.7576
  591MOL0     H81515   8.392   6.269   6.343  0.3282  0.2770 -3.0186
  591MOL0     H81516   8.469   6.513   6.694 -0.7297  0.9877 -0.8109
  591MOL0     H81517   8.422   6.587   6.900  0.1077  0.0035 -1.2420
  591MOL0     H81518   8.305   6.487   6.982 -2.3748  1.2358  0.5512
  591MOL0     H81519   8.256   6.647   6.928  1.6577  0.1029  1.1686
  591MOL0     H81520   7.835   6.638   6.948  3.6776 -1.0732 -1.2113
  591MOL0     H81521   7.648   6.633   7.111 -1.8811 -0.9938  1.2624
  591MOL0     H81522   7.601   6.660   7.345  1.8679 -0.6825 -0.7004
  591MOL0     H81523   7.480   6.576   7.244 -4.3446 -1.3666  2.2441
  591MOL0     H81524   7.381   6.614   7.452  0.2624 -0.4393 -2.9613
  591MOL0     H81525   7.403   6.435   7.441 -2.5356  0.1779  1.8778
  591MOL0     H81526   7.593   6.636   7.585 -0.7226  1.3854 -0.2655
  591MOL0     H81527   7.607   6.466   7.587  0.7377  0.1199 -2.2689
  591MOL0     H81528   7.349   6.461   7.680 -2.5618  0.9980  1.9992
  591MOL0     H81529   7.377   6.632   7.715 -1.2517 -0.9385  0.6246
  591MOL0     H81530   7.551   6.404   7.827  0.0791  0.1093  0.9224
  591MOL0     H81531   7.570   6.568   7.878  0.1733 -0.9076 -0.2007
  591MOL0     H81532   7.341   6.357   7.916 -0.5838  0.7519 -0.7452
  591MOL0     H81533   7.311   6.525   7.964 -2.1038 -2.5830  3.0776
  591MOL0     H81534   7.488   6.520   8.130  4.1797 -0.8110 -1.0235
  591MOL0     H81535   7.534   6.361   8.091  1.5731  1.6292  3.1006
  591MOL0     H81536   7.269   6.313   8.164  1.3988 -0.3909  1.7461
  591MOL0     H81537   7.263   6.488   8.199 -1.5398 -0.4811  1.4740
  591MOL0     H81538   7.821   6.274   7.265 -5.5801 -0.6208 -1.1169
  591MOL0     H81539   8.017   6.291   7.117 -1.8134 -1.7886  1.2333
  591MOL0     H81540   8.029   6.376   6.553 -0.2946  3.8471 -0.6596
  591MOL0     H81541   8.197   6.340   6.404  0.5661 -3.4757  1.4735
  591MOL0     H81542   8.467   7.831   6.576  0.1299 -1.0778  0.7976
  591MOL0     H81543   8.407   8.057   6.642  0.8231 -0.3873 -0.0247
  591MOL0     H81544   8.128   8.282   6.953  1.7229 -1.3191 -0.6856
  591MOL0     H81545   8.009   8.499   6.962 -1.1119 -2.2638  0.8628
  591MOL0     H81546   8.234   8.748   7.163  0.0465 -1.0662  0.6813
  591MOL0     H81547   8.163   8.891   7.100  2.3748 -0.8675  0.5546
  591MOL0     H81548   7.973   8.666   7.146 -1.7358  0.3867  0.6086
  591MOL0     H81549   7.964   8.845   7.153 -1.8825 -0.3312  1.1678
  591MOL0     H81550   8.093   8.658   7.344  2.9581  1.5444 -1.8314
  591MOL0     H81551   8.090   8.841   7.363 -0.9936  0.6436  0.2254
  591MOL0     H81552   7.864   8.638   7.387 -0.1015 -0.1718  0.5136
  591MOL0     H81553   7.825   8.799   7.321  0.6053 -0.3468 -1.0626
  591MOL0     H81554   7.965   8.897   7.718  0.2913  3.3824 -1.4489
  591MOL0     H81555   8.371   8.706   6.923 -1.2069  1.7418  2.0104
  591MOL0     H81556   8.582   8.595   6.914  1.0476 -0.1059  2.0429
  591MOL0     H81557   8.585   8.434   6.991  0.5953  1.1751  0.9919
  591MOL0     H81558   8.583   8.460   6.812 -0.3416 -0.3830 -0.3093
  592MOL0     O81559  10.269   3.836  10.647  0.1289 -0.1545  0.0129
  592MOL0     C81560  10.234   3.722  10.668 -0.1767 -0.3575 -1.0652
  592MOL0     O81561  10.165   3.684  10.786 -0.9194 -0.1593  0.0930
  592MOL0     C81562  10.132   3.779  10.875  0.0795  0.3929  0.2655
  592MOL0     C81563  10.225   3.866  10.934 -0.5611  0.3868 -0.6709
  592MOL0     C81564  10.191   3.961  11.031  0.4140 -0.5229  0.4797
  592MOL0     C81565  10.051   3.993  11.045 -1.0383 -0.7713  0.4551
  592MOL0     O81566  10.007   4.094  11.125 -0.3490 -0.4228 -0.5770
  592MOL0     C81567  10.074   4.218  11.089 -0.1640  0.2396  0.5126
  592MOL0     C81568  10.005   4.342  11.147  0.9201  0.3953  0.4240
  592MOL0     C81569  10.013   4.342  11.301  0.7159 -0.8000 -0.0619
  592MOL0     C81570  10.006   4.483  11.350  0.3299 -0.7299 -0.3662
  592MOL0     C81571   9.982   4.480  11.497 -0.1599 -0.0626 -0.4859
  592MOL0     C81572   9.976   4.617  11.555  0.2644 -0.7793  0.5758
  592MOL0     C81573   9.913   4.609  11.702 -0.1403 -0.0047 -0.5829
  592MOL0     C81574  10.004   4.546  11.807 -0.2993 -0.4360 -0.1135
  592MOL0     N81575   9.934   4.534  11.930 -0.4685 -0.3655 -1.1827
  592MOL0     C81576   9.933   4.627  12.038 -0.5209 -0.0984  0.3697
  592MOL0     C81577   9.847   4.569  12.132  0.2090 -0.3269  0.2340
  592MOL0     C81578   9.814   4.634  12.259 -0.2896  1.3850 -0.8871
  592MOL0     C81579   9.890   4.561  12.368 -0.3899  0.0923  0.0978
  592MOL0     C81580   9.834   4.590  12.510  0.1800 -0.4489 -0.3150
  592MOL0     C81581   9.921   4.543  12.620 -0.1276 -0.0012  0.9346
  592MOL0     O81582  10.056   4.590  12.597  0.4981  0.2341 -0.2273
  592MOL0     C81583  10.154   4.538  12.683 -0.4918  0.5053 -0.7260
  592MOL0     C81584  10.277   4.555  12.638 -1.2977  0.8289  0.5956
  592MOL0     C81585  10.386   4.517  12.713  0.5085 -0.2453 -0.2552
  592MOL0     C81586  10.525   4.548  12.667 -0.7408  0.1232  0.9251
  592MOL0     C81587  10.359   4.455  12.844 -0.1521 -0.0797  0.0969
  592MOL0     C81588  10.465   4.403  12.934 -0.5666 -0.4562  0.2444
  592MOL0     O81589  10.445   4.422  13.070 -0.4630  0.9285  0.0149
  592MOL0     C81590  10.536   4.365  13.151 -0.3485 -0.8209  0.9411
  592MOL0     C81591  10.679   4.373  13.134  0.5164  0.6585  0.8697
  592MOL0     C81592  10.762   4.326  13.236  0.5718  0.1442 -0.1934
  592MOL0     C81593  10.704   4.269  13.350  0.4512 -0.8651 -0.7831
  592MOL0     O81594  10.789   4.208  13.430 -0.4130  0.3500  0.4125
  592MOL0     C81595  10.753   4.169  13.562 -0.6858 -0.5083 -0.0167
  592MOL0     C81596  10.881   4.093  13.618  0.0152  0.1599  0.0505
  592MOL0     C81597  10.989   4.189  13.663 -1.0641 -0.1399 -0.7668
  592MOL0     C81598  11.105   4.111  13.722  0.5947 -0.4730 -0.1570
  592MOL0     C81599  11.086   4.079  13.870 -0.1611  0.1296 -0.2791
  592MOL0     C81600  11.191   3.972  13.921 -0.2271  0.1307  0.3735
  592MOL0     C81601  11.150   3.831  13.888  0.3717 -0.6880  1.0206
  592MOL0     C81602  11.264   3.727  13.892  0.0829  0.2786  0.4133
  592MOL0    Cl81603  11.190   3.573  13.846 -0.0962 -0.1205 -0.2276
  592MOL0     C81604  10.570   4.275  13.374 -0.0230 -0.2884  0.6518
  592MOL0     C81605  10.484   4.327  13.272  0.2782 -0.1231  0.7787
  592MOL0     O81606  10.544   4.322  12.882  0.0075 -0.0486  0.0116
  592MOL0     C81607  10.231   4.438  12.889 -0.2337 -0.3420 -0.6864
  592MOL0     C81608  10.130   4.482  12.808 -0.0897  0.7110  0.1740
  592MOL0     N81609   9.814   4.446  12.076 -0.5237 -0.0363 -0.3188
  592MOL0     N81610   9.840   4.433  11.954 -0.4235 -0.2120 -0.1463
  592MOL0     C81611   9.952   3.908  10.990 -0.6440 -0.4324 -0.2331
  592MOL0     C81612   9.994   3.798  10.914  0.3221 -0.2138  0.6605
  592MOL0     C81613  10.270   3.608  10.570 -0.5232 -0.9864  0.3967
  592MOL0     C81614  10.299   3.643  10.435  1.3052  0.1147 -0.1648
  592MOL0     C81615  10.354   3.557  10.341 -0.3157  0.4569 -0.8404
  592MOL0     C81616  10.350   3.420  10.368 -1.0422  0.7642  0.0143
  592MOL0     O81617  10.419   3.335  10.285  0.4304  0.6070 -0.9138
  592MOL0     C81618  10.518   3.257  10.349 -1.0399 -0.7370 -0.9631
  592MOL0     C81619  10.600   3.202  10.231 -0.3218 -0.2956 -0.1127
  592MOL0     C81620  10.700   3.090  10.267  0.7487 -0.8311 -0.3147
  592MOL0     C81621  10.807   3.142  10.362 -0.1068  0.2667  0.0716
  592MOL0     C81622  10.935   3.064  10.342 -0.2249 -0.6580 -0.3866
  592MOL0     C81623  11.034   2.992  10.345 -0.5862  0.5639  0.2316
  592MOL0     C81624  10.317   3.383  10.499  1.5104 -0.9498  0.2342
  592MOL0     C81625  10.280   3.475  10.601 -0.4819  0.8025 -0.1194
  592MOL0     C81626  10.260   3.407  10.735  0.5347 -0.3065  0.1624
  592MOL0     H81627  10.330   3.845  10.917 -0.5520 -1.0614  0.8937
  592MOL0     H81628  10.270   4.021  11.078  1.2216  1.9827 -3.5603
  592MOL0     H81629  10.076   4.219  10.979  1.1121 -1.9183  0.4570
  592MOL0     H81630  10.178   4.214  11.123  0.5997  0.7331 -1.5978
  592MOL0     H81631  10.053   4.431  11.107 -0.9847  0.6107 -1.5518
  592MOL0     H81632   9.899   4.343  11.120  1.4087  1.1951 -1.6032
  592MOL0     H81633   9.928   4.289  11.344  1.2645 -0.5485  1.3895
  592MOL0     H81634  10.101   4.286  11.335  0.6157 -0.9944 -0.1215
  592MOL0     H81635  10.092   4.537  11.310  1.6448 -0.6902  2.2950
  592MOL0     H81636   9.914   4.531  11.314  0.2038 -1.1472 -0.6072
  592MOL0     H81637  10.064   4.436  11.554  1.0940  2.2366 -0.4067
  592MOL0     H81638   9.894   4.420  11.522 -0.4751  1.2161  1.6490
  592MOL0     H81639  10.071   4.671  11.569 -1.4348  2.1250  1.7706
  592MOL0     H81640   9.909   4.678  11.494 -0.2412 -2.1923 -0.3207
  592MOL0     H81641   9.812   4.569  11.698  0.1774 -1.1662  1.4550
  592MOL0     H81642   9.891   4.714  11.725  0.1172  0.0290 -0.4808
  592MOL0     H81643  10.015   4.439  11.788 -3.2410 -1.4607  3.0612
  592MOL0     H81644  10.094   4.608  11.797 -0.6820 -0.0170 -1.1095
  592MOL0     H81645   9.986   4.722  12.036 -0.7944  0.0930  1.4114
  592MOL0     H81646   9.705   4.626  12.266 -0.0928 -1.7033  0.2034
  592MOL0     H81647   9.839   4.740  12.250  1.0011  0.9785 -2.4834
  592MOL0     H81648   9.880   4.454  12.345 -0.5888  0.4714 -1.7547
  592MOL0     H81649   9.993   4.596  12.358  0.3613 -1.6060  1.5057
  592MOL0     H81650   9.818   4.698  12.514 -1.4054 -0.6872  0.8594
  592MOL0     H81651   9.735   4.547  12.529 -1.2713  2.3144 -1.0999
  592MOL0     H81652   9.887   4.577  12.719  0.4976  4.2416 -0.1243
  592MOL0     H81653   9.921   4.434  12.616  2.2045 -0.0454  0.9829
  592MOL0     H81654  10.306   4.597  12.542  3.2417 -1.1316  0.8370
  592MOL0     H81655  10.582   4.603  12.743 -0.4463  0.2544  0.6103
  592MOL0     H81656  10.541   4.601  12.573  2.1838 -3.9632 -1.1706
  592MOL0     H81657  10.568   4.448  12.662 -2.3948 -0.7736  2.7789
  592MOL0     H81658  10.731   4.395  13.041  1.7070 -3.5587  0.3281
  592MOL0     H81659  10.869   4.339  13.232  0.8230 -1.1496  1.3158
  592MOL0     H81660  10.727   4.254  13.624  4.5805  0.1892  1.7382
  592MOL0     H81661  10.661   4.111  13.554 -1.2460  0.4883 -1.2310
  592MOL0     H81662  10.850   4.025  13.699  3.3141  1.5503  2.7064
  592MOL0     H81663  10.921   4.024  13.543  3.9190  3.3417 -1.1159
  592MOL0     H81664  10.959   4.265  13.736  1.6442  1.8539 -1.5563
  592MOL0     H81665  11.031   4.251  13.583 -1.1073 -0.0148 -0.6934
  592MOL0     H81666  11.198   4.167  13.710 -0.5767  2.3065  2.3988
  592MOL0     H81667  11.129   4.018  13.669  1.5138  0.7528 -2.0260
  592MOL0     H81668  11.094   4.175  13.922 -0.1066  1.8338 -3.2197
  592MOL0     H81669  10.986   4.035  13.883 -0.8331  2.4481  4.2994
  592MOL0     H81670  11.193   3.971  14.031 -1.4299  1.1367  0.4155
  592MOL0     H81671  11.292   3.994  13.885 -0.8914  0.5149 -1.3554
  592MOL0     H81672  11.105   3.833  13.788 -0.3326 -3.2272  1.2180
  592MOL0     H81673  11.068   3.805  13.956 -2.4628 -0.8571 -2.1785
  592MOL0     H81674  11.324   3.739  13.982 -1.3171  3.6182  1.0686
  592MOL0     H81675  11.337   3.751  13.813 -1.5769  0.4653 -1.1325
  592MOL0     H81676  10.508   4.240  13.456 -0.3851 -2.4907 -0.4769
  592MOL0     H81677  10.376   4.334  13.284 -0.1743 -0.4135 -2.4687
  592MOL0     H81678  10.203   4.398  12.986 -0.2899  2.0893  0.3918
  592MOL0     H81679  10.033   4.455  12.848  2.1026 -3.3244  3.5287
  592MOL0     H81680   9.850   3.942  11.005 -0.7688  0.2547 -2.3242
  592MOL0     H81681   9.916   3.731  10.880 -1.3707  1.2037  1.6421
  592MOL0     H81682  10.267   3.745  10.413  0.8518  0.5534  2.2814
  592MOL0     H81683  10.396   3.599  10.250  3.3724 -1.5612 -0.2630
  592MOL0     H81684  10.575   3.321  10.417  1.5167 -1.4648 -2.2909
  592MOL0     H81685  10.486   3.180  10.420  1.9453 -0.0537  1.3075
  592MOL0     H81686  10.665   3.276  10.184  1.4055 -0.4554  1.8806
  592MOL0     H81687  10.526   3.169  10.157  1.2776 -0.3810 -1.7568
  592MOL0     H81688  10.651   3.006  10.316  4.4375 -1.7228  2.3112
  592MOL0     H81689  10.733   3.054  10.169  0.9157 -1.1288 -0.1485
  592MOL0     H81690  10.769   3.133  10.465  0.0540  1.6962  0.2675
  592MOL0     H81691  10.824   3.249  10.351 -2.6179  0.6717 -0.6093
  592MOL0     H81692  11.095   2.904  10.342 -3.5091 -1.6211 -0.2675
  592MOL0     H81693  10.314   3.275  10.508 -1.9401 -1.0367 -0.3837
  592MOL0     H81694  10.322   3.465  10.803  0.2549  1.9479 -1.4183
  592MOL0     H81695  10.153   3.415  10.755  0.4497  1.2838 -0.8412
  592MOL0     H81696  10.283   3.301  10.716 -0.5737 -0.6094  0.4051
  593MOL0     O81697   1.896  11.141   0.349 -0.5624  0.0196 -0.4955
  593MOL0     C81698   1.847  11.197   0.441 -0.0142  0.4520  0.0025
  593MOL0     O81699   1.731  11.281   0.444  0.3357  0.2090 -0.1439
  593MOL0     C81700   1.662  11.294   0.324  0.4243  0.1620 -0.4430
  593MOL0     C81701   1.716  11.325   0.203 -0.6729  0.8013  0.1966
  593MOL0     C81702   1.637  11.315   0.086 -0.0434 -0.7310 -0.7063
  593MOL0     C81703   1.501  11.268   0.098 -0.5348 -0.1732  0.4831
  593MOL0     O81704   1.399  11.251  -0.002  0.4528 -0.1092  0.0723
  593MOL0     C81705   1.438  11.292  -0.133 -0.1591  0.0247  1.6860
  593MOL0     C81706   1.319  11.258  -0.226 -0.4683  0.1326 -0.0276
  593MOL0     C81707   1.337  11.322  -0.366  0.4929 -0.1481 -0.0506
  593MOL0     C81708   1.252  11.261  -0.475  0.3790 -0.5751 -0.4379
  593MOL0     C81709   1.275  11.331  -0.614  0.2768 -0.5681 -0.3933
  593MOL0     C81710   1.200  11.270  -0.729 -0.5204  0.6400  0.8597
  593MOL0     C81711   1.202  11.366  -0.845 -0.1086  0.3546 -1.1618
  593MOL0     C81712   1.101  11.328  -0.955 -0.1474 -0.0523 -0.2543
  593MOL0     N81713   1.117  11.398  -1.081  0.6988 -0.5680 -0.2847
  593MOL0     C81714   1.171  11.360  -1.201  0.8038 -0.7525 -0.5267
  593MOL0     C81715   1.173  11.475  -1.268  0.2984 -0.5570  0.5738
  593MOL0     C81716   1.256  11.502  -1.385 -0.3750 -0.3230  0.7599
  593MOL0     C81717   1.169  11.515  -1.515  0.0031  0.2550  0.4818
  593MOL0     C81718   1.083  11.392  -1.545  0.0440  0.3418  0.3168
  593MOL0     C81719   1.172  11.277  -1.597  0.2087 -0.0105 -0.7343
  593MOL0     O81720   1.192  11.184  -1.494  0.2497  0.0654 -0.2054
  593MOL0     C81721   1.289  11.091  -1.509 -0.8715 -0.0328  0.4326
  593MOL0     C81722   1.362  11.067  -1.631  0.2821 -0.5535 -0.7646
  593MOL0     C81723   1.462  10.974  -1.643  0.3992  0.7550 -0.6985
  593MOL0     C81724   1.510  10.944  -1.786 -0.1810 -0.7662  0.4944
  593MOL0     C81725   1.508  10.897  -1.531 -0.5862  0.0033 -0.8016
  593MOL0     C81726   1.618  10.798  -1.538  0.0389 -0.5934  0.3848
  593MOL0     O81727   1.625  10.706  -1.643  0.4188 -0.0776 -0.4570
  593MOL0     C81728   1.712  10.600  -1.643  0.4660  0.6809  0.6249
  593MOL0     C81729   1.814  10.591  -1.737 -0.6444 -0.6213  0.5508
  593MOL0     C81730   1.914  10.496  -1.758 -0.0232 -0.3034 -0.1015
  593MOL0     C81731   1.915  10.399  -1.650 -0.5882 -0.2107  0.5116
  593MOL0     O81732   1.992  10.291  -1.658 -0.2695  0.7901  0.3605
  593MOL0     C81733   2.032  10.238  -1.792  0.3644  0.2345 -0.1631
  593MOL0     C81734   2.109  10.111  -1.767  0.1007 -0.5352  0.4445
  593MOL0     C81735   2.009   9.989  -1.775  0.4099  0.2398 -0.7719
  593MOL0     C81736   2.059   9.851  -1.741 -0.5667  0.2931  0.4678
  593MOL0     C81737   1.957   9.735  -1.733  0.4221 -0.0112 -0.3275
  593MOL0     C81738   1.855   9.770  -1.616 -0.0808  1.3936  0.3281
  593MOL0     C81739   1.754   9.663  -1.599  0.3351 -0.1597 -0.0574
  593MOL0     C81740   1.803   9.517  -1.594 -0.5151 -0.4179 -0.7796
  593MOL0    Cl81741   1.910   9.469  -1.449  0.2759  0.1522  0.1916
  593MOL0     C81742   1.826  10.407  -1.547  0.7854  0.6687 -0.4226
  593MOL0     C81743   1.722  10.501  -1.537 -0.5073  0.6084 -0.5171
  593MOL0     O81744   1.704  10.816  -1.449 -0.1745 -0.8472  0.1441
  593MOL0     C81745   1.441  10.920  -1.408  0.0549  0.3960  0.2723
  593MOL0     C81746   1.326  11.008  -1.397 -0.4332  0.3198 -0.3209
  593MOL0     N81747   1.092  11.572  -1.209 -0.1586  0.2509 -0.0956
  593MOL0     N81748   1.054  11.520  -1.098  0.0674  0.1695 -0.2318
  593MOL0     C81749   1.448  11.255   0.222 -0.2371 -0.6044  0.6753
  593MOL0     C81750   1.529  11.260   0.334  0.8774 -0.0575 -0.5017
  593MOL0     C81751   1.910  11.180   0.571  0.3743 -0.4482 -0.4264
  593MOL0     C81752   2.047  11.205   0.585 -0.1548  0.1056  0.4332
  593MOL0     C81753   2.124  11.170   0.702 -0.0332  0.4805 -0.1134
  593MOL0     C81754   2.065  11.095   0.799  0.7739  0.2171  0.1511
  593MOL0     O81755   2.147  11.048   0.896  0.5034  0.8030 -0.6452
  593MOL0     C81756   2.104  10.963   0.997  0.5614  0.6459 -0.4072
  593MOL0     C81757   2.211  10.891   1.085 -0.3809 -0.7906 -0.7657
  593MOL0     C81758   2.325  10.814   1.017 -0.2923  0.6056 -0.3936
  593MOL0     C81759   2.426  10.778   1.136 -0.0157  0.3048 -0.0954
  593MOL0     C81760   2.519  10.686   1.078 -0.4496 -0.0798  0.0992
  593MOL0     C81761   2.593  10.604   1.032 -0.2613  0.8283  0.4679
  593MOL0     C81762   1.920  11.085   0.798 -1.1069  0.3734  0.5991
  593MOL0     C81763   1.843  11.132   0.692 -0.2898 -0.3057 -0.9130
  593MOL0     C81764   1.690  11.129   0.712  0.4182 -0.1320  1.3920
  593MOL0     H81765   1.823  11.338   0.196 -0.0283 -0.8962  4.1564
  593MOL0     H81766   1.690  11.326  -0.008 -0.0291  3.3964 -0.4181
  593MOL0     H81767   1.525  11.234  -0.166 -1.6766 -1.9030  0.8723
  593MOL0     H81768   1.461  11.398  -0.143 -1.8787  0.3315  0.5176
  593MOL0     H81769   1.313  11.149  -0.227  0.0379  0.1073 -0.6034
  593MOL0     H81770   1.225  11.284  -0.176  0.7652  0.0107  2.5287
  593MOL0     H81771   1.315  11.429  -0.360 -1.6301 -0.3739 -2.1299
  593MOL0     H81772   1.444  11.305  -0.385  0.8671  2.1788 -0.2718
  593MOL0     H81773   1.279  11.155  -0.483 -3.6135 -1.6629 -2.1144
  593MOL0     H81774   1.144  11.264  -0.454 -0.0248 -1.2324 -2.1684
  593MOL0     H81775   1.382  11.328  -0.635  0.1704 -0.3741 -0.9801
  593MOL0     H81776   1.239  11.433  -0.604  1.6807 -0.0343 -0.6388
  593MOL0     H81777   1.237  11.173  -0.763  4.8438  2.8014 -0.5404
  593MOL0     H81778   1.098  11.268  -0.689 -1.0921 -1.1197 -0.5723
  593MOL0     H81779   1.306  11.365  -0.877  1.3762  0.2749  3.0742
  593MOL0     H81780   1.165  11.464  -0.813  1.3301  0.6605 -0.3591
  593MOL0     H81781   1.106  11.220  -0.971  0.5315  0.1488 -1.5688
  593MOL0     H81782   0.998  11.349  -0.926 -0.1131  0.1343 -0.2657
  593MOL0     H81783   1.228  11.269  -1.216  2.3656  0.0255  0.3508
  593MOL0     H81784   1.341  11.433  -1.393 -0.6153 -0.5982  0.5613
  593MOL0     H81785   1.308  11.598  -1.378  0.2179 -0.4813 -0.9635
  593MOL0     H81786   1.111  11.608  -1.519  0.3950  0.4696 -1.8794
  593MOL0     H81787   1.234  11.529  -1.602  1.4719  1.5538  1.7266
  593MOL0     H81788   1.016  11.367  -1.462 -0.3992  1.0856  0.1928
  593MOL0     H81789   1.017  11.407  -1.631 -1.9087 -2.9195  1.0787
  593MOL0     H81790   1.115  11.236  -1.682  0.8709 -0.3777 -1.0067
  593MOL0     H81791   1.268  11.321  -1.626 -0.4157  2.0136  0.1168
  593MOL0     H81792   1.353  11.134  -1.716  1.2501  0.8546  0.1914
  593MOL0     H81793   1.602  10.885  -1.787 -0.3867 -1.1052 -0.8000
  593MOL0     H81794   1.516  11.045  -1.827 -1.4281 -1.5427 -1.8508
  593MOL0     H81795   1.442  10.886  -1.850  0.6254  0.9832 -2.0864
  593MOL0     H81796   1.824  10.674  -1.806 -0.1237  1.4852  2.9923
  593MOL0     H81797   1.978  10.502  -1.845  0.4486  0.7453  0.3134
  593MOL0     H81798   1.940  10.219  -1.848 -2.4078  0.9608  3.6754
  593MOL0     H81799   2.107  10.298  -1.844  1.6746  0.1865  1.5823
  593MOL0     H81800   2.182  10.089  -1.846  1.6616 -0.7537  1.8983
  593MOL0     H81801   2.162  10.119  -1.672  3.6127  0.2574 -1.4331
  593MOL0     H81802   1.956   9.989  -1.871  0.3643  0.9287 -0.7549
  593MOL0     H81803   1.936  10.007  -1.696  1.9840  0.3974  0.7248
  593MOL0     H81804   2.097   9.863  -1.639 -0.2998  0.4858  0.3461
  593MOL0     H81805   2.139   9.836  -1.814 -2.4694  5.0353 -3.0937
  593MOL0     H81806   1.909   9.718  -1.830 -0.2183 -0.3768  0.0502
  593MOL0     H81807   2.001   9.637  -1.712  1.4275  1.2276  4.4468
  593MOL0     H81808   1.808   9.865  -1.643  0.7892  2.0002  0.8913
  593MOL0     H81809   1.905   9.779  -1.519 -0.1210  0.7387  0.4138
  593MOL0     H81810   1.673   9.671  -1.672  2.1139  1.1491 -1.9826
  593MOL0     H81811   1.703   9.689  -1.506 -2.4689  1.6575 -1.9524
  593MOL0     H81812   1.852   9.487  -1.687 -2.4932  0.7363 -2.2896
  593MOL0     H81813   1.715   9.454  -1.582 -0.1952 -0.3958  3.0425
  593MOL0     H81814   1.827  10.331  -1.469 -1.1706  1.0872  0.0750
  593MOL0     H81815   1.645  10.484  -1.463  1.5126  2.5658  2.2394
  593MOL0     H81816   1.491  10.872  -1.325  2.4171  0.5318 -1.0122
  593MOL0     H81817   1.289  11.018  -1.295  3.5418 -0.8206  1.4044
  593MOL0     H81818   1.344  11.228   0.242  0.2889 -0.6621  3.7077
  593MOL0     H81819   1.484  11.248   0.432  0.5513  1.2244 -0.4765
  593MOL0     H81820   2.102  11.262   0.511 -1.8619 -0.8713 -1.7031
  593MOL0     H81821   2.227  11.202   0.712 -0.5535  1.7454  1.4798
  593MOL0     H81822   2.042  11.014   1.071 -0.9813 -1.6378 -0.0111
  593MOL0     H81823   2.037  10.885   0.958  0.5746  0.8667 -0.8741
  593MOL0     H81824   2.153  10.830   1.156 -2.1712  0.9968 -0.6039
  593MOL0     H81825   2.264  10.962   1.151 -1.5781 -0.4318 -0.1659
  593MOL0     H81826   2.294  10.723   0.964 -0.0386  1.1531 -1.5187
  593MOL0     H81827   2.375  10.870   0.938 -4.0940  1.2743 -2.5917
  593MOL0     H81828   2.364  10.728   1.211  0.4664  0.2105  0.2439
  593MOL0     H81829   2.472  10.865   1.183  0.2828 -1.0853  2.3678
  593MOL0     H81830   2.638  10.525   0.976  1.5231  2.6894 -0.8923
  593MOL0     H81831   1.855  11.039   0.872 -0.5268  2.3142  2.4081
  593MOL0     H81832   1.659  11.070   0.799 -2.4501  0.2435  0.7411
  593MOL0     H81833   1.663  11.233   0.732  1.4490  0.4466 -0.0174
  593MOL0     H81834   1.631  11.099   0.625 -2.1181  2.5418  2.0408
  594MOL0     O81835   1.164   1.858   4.627 -0.1666  0.4406  0.1094
  594MOL0     C81836   1.266   1.816   4.583  0.1028 -0.3220 -0.1218
  594MOL0     O81837   1.346   1.889   4.491 -0.2041  0.5534 -0.1709
  594MOL0     C81838   1.320   2.012   4.448 -0.4394 -0.5602  0.4358
  594MOL0     C81839   1.194   2.044   4.398 -0.2091 -0.4411 -0.0993
  594MOL0     C81840   1.171   2.173   4.352  0.8043  0.1661  0.3340
  594MOL0     C81841   1.266   2.272   4.356  0.3431 -0.1648 -0.8560
  594MOL0     O81842   1.250   2.401   4.320 -0.0491  0.4799  0.5806
  594MOL0     C81843   1.156   2.444   4.213 -0.0846  0.2932 -0.5395
  594MOL0     C81844   1.200   2.376   4.081 -0.1790 -0.2492  0.6490
  594MOL0     C81845   1.086   2.383   3.986 -0.0481  0.1942  0.6954
  594MOL0     C81846   0.960   2.305   4.013  0.5362  0.8379 -0.3565
  594MOL0     C81847   0.872   2.306   3.885  0.0830 -0.0042  0.6814
  594MOL0     C81848   0.749   2.226   3.912 -0.2698  0.0031 -0.5491
  594MOL0     C81849   0.637   2.251   3.810 -0.4796 -0.0357  0.4692
  594MOL0     C81850   0.515   2.186   3.863  0.1286 -0.4913  1.6551
  594MOL0     N81851   0.410   2.163   3.766  0.6995  0.6615 -0.8971
  594MOL0     C81852   0.401   2.204   3.636  0.9938 -0.1763  0.5265
  594MOL0     C81853   0.294   2.138   3.591  0.6763  0.5400 -0.1915
  594MOL0     C81854   0.220   2.145   3.461 -0.7361  0.4426  0.1312
  594MOL0     C81855   0.325   2.126   3.351  0.2322 -0.4934 -0.0149
  594MOL0     C81856   0.257   2.128   3.208  0.4712 -0.6697  0.5809
  594MOL0     C81857   0.363   2.108   3.094  0.5313  0.3361 -0.1802
  594MOL0     O81858   0.468   2.201   3.119  0.0622 -0.3329  0.2092
  594MOL0     C81859   0.547   2.237   3.016  0.2741  0.6103  0.7023
  594MOL0     C81860   0.592   2.369   3.006 -0.6258  0.2046 -0.6223
  594MOL0     C81861   0.675   2.417   2.901  0.0995  0.4676  0.3381
  594MOL0     C81862   0.705   2.560   2.903  0.9619 -1.5551  0.2086
  594MOL0     C81863   0.709   2.329   2.796  0.2578  0.8778 -0.4938
  594MOL0     C81864   0.793   2.359   2.678 -0.2268 -0.2557  0.0555
  594MOL0     O81865   0.837   2.250   2.602 -0.5496 -0.1741 -0.2558
  594MOL0     C81866   0.899   2.271   2.485  0.2184 -0.3779 -0.0923
  594MOL0     C81867   0.830   2.243   2.366 -1.0983  0.6148  0.8756
  594MOL0     C81868   0.877   2.259   2.237  0.6237 -0.1883 -0.3094
  594MOL0     C81869   1.008   2.295   2.214  0.4758 -0.8163  0.4924
  594MOL0     O81870   1.062   2.323   2.093  0.1214  0.1414 -0.2540
  594MOL0     C81871   0.976   2.341   1.976  0.2233  0.1466 -0.3266
  594MOL0     C81872   1.042   2.391   1.848 -0.6162  0.4810  0.1970
  594MOL0     C81873   0.923   2.423   1.749  0.1215  0.8213 -0.0462
  594MOL0     C81874   0.987   2.464   1.615  0.1228 -0.1576  0.1574
  594MOL0     C81875   0.870   2.481   1.511 -0.2722 -0.2748 -0.5352
  594MOL0     C81876   0.904   2.563   1.382  0.4363  0.3262  0.6740
  594MOL0     C81877   0.771   2.596   1.309 -0.0733  0.6995  0.3746
  594MOL0     C81878   0.708   2.464   1.255 -0.8007 -0.9250  0.6409
  594MOL0    Cl81879   0.827   2.357   1.170 -0.2102 -0.4353 -0.4185
  594MOL0     C81880   1.086   2.320   2.336 -0.2001  1.1313  0.4570
  594MOL0     C81881   1.034   2.309   2.464 -0.7464 -0.7782  0.0452
  594MOL0     O81882   0.817   2.467   2.648  0.1790  0.2104  0.2709
  594MOL0     C81883   0.649   2.201   2.795  0.6709  0.0559  0.1295
  594MOL0     C81884   0.577   2.152   2.909  0.2707  0.1109 -0.3991
  594MOL0     N81885   0.231   2.081   3.702  0.2458 -0.1276  1.1423
  594MOL0     N81886   0.299   2.089   3.797 -0.4427 -0.3247 -0.0189
  594MOL0     C81887   1.393   2.237   4.401  0.4656 -0.3368  0.0609
  594MOL0     C81888   1.427   2.104   4.450  0.6076 -0.3147  0.2018
  594MOL0     C81889   1.338   1.701   4.644 -0.0615 -0.2705 -0.0219
  594MOL0     C81890   1.478   1.680   4.612  1.1031  0.6858  0.5945
  594MOL0     C81891   1.555   1.582   4.663  0.5591  1.0662 -0.1532
  594MOL0     C81892   1.487   1.478   4.737  0.0636 -0.1663 -0.0445
  594MOL0     O81893   1.578   1.384   4.788  0.0249 -0.1560 -0.1497
  594MOL0     C81894   1.543   1.247   4.778 -0.2668  0.2826 -0.0919
  594MOL0     C81895   1.535   1.204   4.632 -0.9145  0.7324  0.1630
  594MOL0     C81896   1.646   1.262   4.542 -0.8829 -0.0823 -0.6919
  594MOL0     C81897   1.617   1.236   4.395  0.3754  0.1666 -0.0750
  594MOL0     C81898   1.648   1.097   4.358  0.8060  0.0105  0.2043
  594MOL0     C81899   1.674   0.987   4.305  0.2245 -0.2234  0.1655
  594MOL0     C81900   1.358   1.493   4.779 -0.0692 -0.5022 -0.1691
  594MOL0     C81901   1.280   1.603   4.732 -0.4410  0.4235 -0.8622
  594MOL0     C81902   1.141   1.586   4.767 -0.0046  0.0937 -0.1241
  594MOL0     H81903   1.115   1.969   4.394 -1.4670  0.8647 -0.4450
  594MOL0     H81904   1.067   2.185   4.324  0.2233 -2.0305  1.3327
  594MOL0     H81905   1.142   2.551   4.197 -1.8784  0.0725 -0.7454
  594MOL0     H81906   1.058   2.402   4.239  0.4636 -2.4153 -2.4177
  594MOL0     H81907   1.285   2.433   4.043  1.0014 -1.0960  1.9489
  594MOL0     H81908   1.229   2.271   4.077 -0.4902 -0.2996 -1.7806
  594MOL0     H81909   1.064   2.487   3.960  0.7137  0.7644  2.2286
  594MOL0     H81910   1.124   2.342   3.892 -0.5635 -0.8034  0.9047
  594MOL0     H81911   0.977   2.202   4.045 -2.7514 -0.7936 -3.2148
  594MOL0     H81912   0.899   2.364   4.081 -1.9721 -2.6966  0.7518
  594MOL0     H81913   0.934   2.263   3.805  0.8103  1.9329  0.1333
  594MOL0     H81914   0.851   2.410   3.857  0.5689 -0.2555 -0.6832
  594MOL0     H81915   0.780   2.121   3.923  1.3086  0.6004  1.3571
  594MOL0     H81916   0.724   2.259   4.014  2.5342 -0.7456  0.4838
  594MOL0     H81917   0.666   2.212   3.711  2.0351 -0.3724  1.2745
  594MOL0     H81918   0.605   2.356   3.806 -1.6735 -0.1671  3.6930
  594MOL0     H81919   0.536   2.087   3.904  0.0184 -0.1724  2.5024
  594MOL0     H81920   0.479   2.242   3.950 -1.2250  0.5581  0.4619
  594MOL0     H81921   0.450   2.278   3.574 -1.2404 -1.8389 -3.6051
  594MOL0     H81922   0.193   2.250   3.448 -2.3875 -0.1209 -1.4925
  594MOL0     H81923   0.143   2.067   3.458  1.0471 -1.3882 -0.0500
  594MOL0     H81924   0.407   2.198   3.357 -0.0395 -0.2871  2.4111
  594MOL0     H81925   0.376   2.032   3.373 -1.9112 -1.3534  1.6439
  594MOL0     H81926   0.193   2.040   3.195 -0.6954  0.1453  0.6296
  594MOL0     H81927   0.190   2.212   3.188  0.9518 -0.4600 -0.1761
  594MOL0     H81928   0.403   2.007   3.096  1.0494  0.5451  0.4536
  594MOL0     H81929   0.316   2.122   2.996 -0.6624 -2.6840 -0.1451
  594MOL0     H81930   0.556   2.437   3.082 -0.3441  0.9466 -1.1418
  594MOL0     H81931   0.660   2.607   2.991  0.1031  3.4902 -2.5857
  594MOL0     H81932   0.664   2.608   2.813 -1.5652  1.4348  2.7049
  594MOL0     H81933   0.812   2.580   2.910  0.4603  0.8080  3.0255
  594MOL0     H81934   0.730   2.201   2.365 -0.1582 -1.8087 -1.2563
  594MOL0     H81935   0.808   2.251   2.154 -0.4625 -0.3339  0.5894
  594MOL0     H81936   0.943   2.239   1.957  0.6110 -0.2777  1.0983
  594MOL0     H81937   0.891   2.405   2.001 -1.3913 -1.4772 -1.4525
  594MOL0     H81938   1.098   2.483   1.866  0.2692  0.5630 -2.4801
  594MOL0     H81939   1.116   2.326   1.801 -2.1436 -0.8586 -0.4712
  594MOL0     H81940   0.863   2.502   1.794  0.6281 -0.2662  2.7438
  594MOL0     H81941   0.861   2.333   1.746 -0.1267  0.9618  0.6751
  594MOL0     H81942   1.049   2.389   1.566 -3.0032 -2.4636 -0.5798
  594MOL0     H81943   1.016   2.569   1.628 -4.5493  1.3721  0.1758
  594MOL0     H81944   0.821   2.389   1.478 -3.0337  0.8874  0.0491
  594MOL0     H81945   0.791   2.538   1.560  1.1597  1.5223 -0.1804
  594MOL0     H81946   0.956   2.510   1.302 -2.6240  0.3904 -1.5604
  594MOL0     H81947   0.956   2.657   1.403  1.6066  0.4726 -2.3535
  594MOL0     H81948   0.795   2.649   1.217 -1.8543 -1.8954 -1.7564
  594MOL0     H81949   0.688   2.641   1.365 -0.4532  0.4608  0.0117
  594MOL0     H81950   0.625   2.496   1.192 -4.7863 -0.7669  5.3777
  594MOL0     H81951   0.663   2.418   1.343 -0.0721  2.2855  2.8696
  594MOL0     H81952   1.192   2.340   2.323 -0.1091 -0.1251 -0.9915
  594MOL0     H81953   1.094   2.330   2.552 -0.0130  0.4769 -0.7140
  594MOL0     H81954   0.659   2.144   2.703  3.1979  0.7448 -0.0931
  594MOL0     H81955   0.540   2.050   2.908 -0.8809  0.4975  0.4610
  594MOL0     H81956   1.468   2.315   4.406  1.0554 -0.8145 -1.0413
  594MOL0     H81957   1.526   2.090   4.494  1.5709  0.9729 -1.4357
  594MOL0     H81958   1.533   1.757   4.559  0.7141  0.6834  0.1842
  594MOL0     H81959   1.663   1.588   4.649  0.8224 -0.6169  0.9283
  594MOL0     H81960   1.619   1.188   4.831 -1.1085 -0.9135 -0.1865
  594MOL0     H81961   1.456   1.225   4.841  0.0365  1.6205  0.8372
  594MOL0     H81962   1.436   1.231   4.595 -1.5862  1.0117  2.0305
  594MOL0     H81963   1.553   1.096   4.626  0.4658  0.9167  0.5099
  594MOL0     H81964   1.643   1.370   4.560  0.9237 -0.4115  2.3002
  594MOL0     H81965   1.749   1.230   4.561  0.3654  2.7280 -2.1589
  594MOL0     H81966   1.673   1.308   4.334  3.7687 -1.0093  1.4056
  594MOL0     H81967   1.509   1.244   4.380  0.3532 -1.3398 -0.9096
  594MOL0     H81968   1.710   0.897   4.259  3.6182  1.7622 -1.4559
  594MOL0     H81969   1.320   1.421   4.851 -3.2394  2.2045  1.0856
  594MOL0     H81970   1.123   1.516   4.848 -0.6302 -1.0809 -1.2452
  594MOL0     H81971   1.101   1.681   4.804  0.9214 -0.0458  1.3084
  594MOL0     H81972   1.095   1.543   4.678 -3.0161 -1.7702  2.1516
  595MOL0     O81973   5.912   2.291   3.814 -0.5707  0.8101  0.1183
  595MOL0     C81974   5.852   2.189   3.831  0.2454 -0.1140 -0.8240
  595MOL0     O81975   5.868   2.081   3.756  0.5606 -0.8583 -0.5004
  595MOL0     C81976   5.989   2.072   3.697  0.3200  0.2586  0.1583
  595MOL0     C81977   6.029   2.141   3.586 -0.2660 -0.3832  0.7588
  595MOL0     C81978   6.157   2.128   3.523 -0.5469  0.0887  0.2309
  595MOL0     C81979   6.237   2.022   3.576  0.1157 -0.2075 -0.2945
  595MOL0     O81980   6.360   2.005   3.514  0.8888  0.4467 -0.4493
  595MOL0     C81981   6.476   1.951   3.574  0.8766 -0.3670  0.4811
  595MOL0     C81982   6.473   1.800   3.578  0.6781  0.1098 -0.4338
  595MOL0     C81983   6.584   1.767   3.682 -0.7884 -0.6810  0.1018
  595MOL0     C81984   6.634   1.624   3.654  0.3580  0.4474  0.4160
  595MOL0     C81985   6.536   1.518   3.696  0.0929  0.1866 -0.3874
  595MOL0     C81986   6.601   1.388   3.746 -0.4348 -1.0711 -0.0574
  595MOL0     C81987   6.497   1.284   3.786 -0.1244 -0.8710  0.4560
  595MOL0     C81988   6.538   1.214   3.915  0.9279  0.4746  0.1620
  595MOL0     N81989   6.542   1.294   4.037  0.4847  0.2392  0.0399
  595MOL0     C81990   6.454   1.387   4.074 -0.5441  0.3571  0.2729
  595MOL0     C81991   6.510   1.451   4.178  0.1743  1.1637  0.0341
  595MOL0     C81992   6.454   1.570   4.258  0.0915  0.1264  0.9484
  595MOL0     C81993   6.492   1.705   4.183  0.4736  1.1620 -0.5354
  595MOL0     C81994   6.396   1.740   4.071 -0.4335 -0.3363  0.4145
  595MOL0     C81995   6.285   1.834   4.108  0.6262 -0.2955  0.3271
  595MOL0     O81996   6.331   1.958   4.153 -0.7852 -0.3334  0.5161
  595MOL0     C81997   6.379   2.042   4.057  0.5607  0.0022  0.3301
  595MOL0     C81998   6.516   2.053   4.029  0.6176  0.6372 -0.0653
  595MOL0     C81999   6.573   2.130   3.936  0.0025 -0.7617 -0.1383
  595MOL0     C82000   6.722   2.122   3.910 -0.0141 -0.6962  0.4191
  595MOL0     C82001   6.480   2.210   3.851  0.0572 -0.2610  0.6305
  595MOL0     C82002   6.519   2.315   3.746 -0.6836 -0.3745  0.9246
  595MOL0     O82003   6.446   2.311   3.628 -1.1282 -0.2987 -0.0180
  595MOL0     C82004   6.424   2.429   3.558  0.2722 -0.8294 -0.3330
  595MOL0     C82005   6.434   2.558   3.620  0.6129  0.6746  0.3503
  595MOL0     C82006   6.395   2.675   3.552  0.2272 -0.0026  0.1449
  595MOL0     C82007   6.351   2.659   3.416 -1.3749 -0.1823 -0.2787
  595MOL0     O82008   6.326   2.757   3.331 -0.0401  0.0118  0.2471
  595MOL0     C82009   6.372   2.884   3.344  0.4376 -0.1635  0.0225
  595MOL0     C82010   6.454   2.923   3.212  0.4943  0.1376 -0.5084
  595MOL0     C82011   6.540   3.041   3.237  0.7260  0.1785  0.8467
  595MOL0     C82012   6.662   3.042   3.142 -0.1871 -0.0311  0.7130
  595MOL0     C82013   6.734   3.178   3.122 -0.7334  0.3090 -0.3675
  595MOL0     C82014   6.809   3.210   3.257 -0.4270 -0.4363 -0.0026
  595MOL0     C82015   6.858   3.357   3.294 -0.5644  0.4325  0.5564
  595MOL0     C82016   6.740   3.434   3.343 -0.8404  0.5894 -1.1034
  595MOL0    Cl82017   6.632   3.346   3.453 -0.3891  0.0452  0.1928
  595MOL0     C82018   6.331   2.536   3.364 -0.8591 -1.0105  0.7223
  595MOL0     C82019   6.362   2.423   3.426  0.1661 -0.2074  0.9673
  595MOL0     O82020   6.624   2.383   3.759 -0.1438 -0.4730 -0.1964
  595MOL0     C82021   6.339   2.202   3.873 -1.0094  0.0331 -0.1328
  595MOL0     C82022   6.289   2.122   3.977 -0.8323  0.1743 -1.3114
  595MOL0     N82023   6.638   1.402   4.199  0.6754 -0.2998  0.5356
  595MOL0     N82024   6.652   1.303   4.118  0.1306 -0.1788 -0.6048
  595MOL0     C82025   6.197   1.944   3.689 -0.0682 -0.3884  0.1362
  595MOL0     C82026   6.073   1.976   3.755 -1.2419  0.7974  0.3290
  595MOL0     C82027   5.754   2.179   3.942  0.4287  1.1150 -0.7997
  595MOL0     C82028   5.708   2.054   3.987 -0.2457 -0.6718 -0.1290
  595MOL0     C82029   5.608   2.022   4.081 -1.0337 -0.9744 -0.3300
  595MOL0     C82030   5.569   2.131   4.167 -0.1293 -0.4022 -0.2030
  595MOL0     O82031   5.507   2.112   4.282 -0.3684  0.4180 -0.2822
  595MOL0     C82032   5.431   1.987   4.300 -0.7375 -0.0012  0.3709
  595MOL0     C82033   5.391   1.962   4.440 -0.2452  0.0446  0.3131
  595MOL0     C82034   5.282   2.064   4.490  0.5321 -0.5859  0.3497
  595MOL0     C82035   5.204   1.982   4.580  0.0247 -0.5201 -0.1433
  595MOL0     C82036   5.128   2.072   4.670  0.3140 -0.1806  1.9980
  595MOL0     C82037   5.076   2.152   4.738  0.0215 -0.3422 -0.1338
  595MOL0     C82038   5.605   2.265   4.124 -0.0854  1.1531  0.0954
  595MOL0     C82039   5.688   2.290   4.013  0.3480  0.2744  0.6074
  595MOL0     C82040   5.715   2.435   3.963 -0.6022  0.7306 -0.0172
  595MOL0     H82041   5.961   2.217   3.548 -0.1003 -0.9940 -0.8421
  595MOL0     H82042   6.190   2.201   3.450 -0.9799  0.0112 -0.0487
  595MOL0     H82043   6.470   1.996   3.673 -0.2207 -1.5405  0.9671
  595MOL0     H82044   6.563   1.989   3.520  0.5079 -1.0618 -0.6446
  595MOL0     H82045   6.384   1.764   3.630  1.6455 -0.4075  0.9204
  595MOL0     H82046   6.487   1.747   3.483 -0.7132 -2.4022  0.6451
  595MOL0     H82047   6.670   1.830   3.659  0.6062 -2.6249 -0.2651
  595MOL0     H82048   6.549   1.763   3.786 -1.8749 -0.7023 -0.2459
  595MOL0     H82049   6.656   1.605   3.548  0.7919 -1.3082  0.7854
  595MOL0     H82050   6.729   1.607   3.706  1.1092 -2.8597 -1.7388
  595MOL0     H82051   6.456   1.506   3.622 -0.3566  1.4129 -0.1348
  595MOL0     H82052   6.479   1.554   3.783 -2.6838 -0.1058 -1.9535
  595MOL0     H82053   6.650   1.352   3.654 -0.1921  3.0713 -1.7535
  595MOL0     H82054   6.672   1.404   3.827 -1.3859  0.9655  0.4230
  595MOL0     H82055   6.492   1.210   3.706 -0.3006 -1.7506  1.2688
  595MOL0     H82056   6.399   1.330   3.803  1.0731  1.8560  0.5404
  595MOL0     H82057   6.450   1.150   3.922 -0.3860  1.8655 -2.2409
  595MOL0     H82058   6.632   1.159   3.904  1.5247  1.7615 -1.7065
  595MOL0     H82059   6.358   1.407   4.027  0.0143  2.6088 -0.0534
  595MOL0     H82060   6.503   1.571   4.356 -0.2120 -2.7253  1.2164
  595MOL0     H82061   6.347   1.563   4.283 -0.4090 -3.0640 -1.4438
  595MOL0     H82062   6.496   1.785   4.257 -0.5103 -0.9921  2.0120
  595MOL0     H82063   6.592   1.707   4.138  0.8509 -1.4766  0.0172
  595MOL0     H82064   6.456   1.794   3.997  3.6795 -0.5819  3.1895
  595MOL0     H82065   6.347   1.653   4.028 -1.0327  0.6129 -0.8761
  595MOL0     H82066   6.219   1.846   4.022  1.3328 -0.9146 -0.3202
  595MOL0     H82067   6.243   1.779   4.193 -2.2176 -0.2829 -0.9697
  595MOL0     H82068   6.582   1.994   4.092 -1.1892 -0.4013  0.9306
  595MOL0     H82069   6.729   2.059   3.820 -1.4339  0.9606 -0.9184
  595MOL0     H82070   6.780   2.087   3.996 -0.6134  4.1729  3.1796
  595MOL0     H82071   6.773   2.216   3.891  1.7450 -1.7303 -0.1794
  595MOL0     H82072   6.477   2.569   3.719 -0.9785 -0.2559  1.1899
  595MOL0     H82073   6.418   2.769   3.600  0.5712  0.3225 -0.6439
  595MOL0     H82074   6.287   2.952   3.346  1.3998  1.1053 -0.5821
  595MOL0     H82075   6.451   2.903   3.418  1.5600  0.8108 -1.3744
  595MOL0     H82076   6.526   2.844   3.187  1.1068 -0.1166  1.8137
  595MOL0     H82077   6.374   2.932   3.138 -0.7840  4.2722  1.0960
  595MOL0     H82078   6.572   3.061   3.340 -1.8029  2.0725  1.3930
  595MOL0     H82079   6.486   3.129   3.201  0.4775 -0.5271 -0.5576
  595MOL0     H82080   6.622   3.027   3.041  0.4548  1.4834  0.2120
  595MOL0     H82081   6.742   2.973   3.172  0.3612  0.0487 -0.4779
  595MOL0     H82082   6.808   3.184   3.042 -0.2386  2.2088  0.1775
  595MOL0     H82083   6.658   3.253   3.095 -1.1515 -0.7430 -2.2291
  595MOL0     H82084   6.899   3.150   3.248 -2.4159 -3.6668 -0.0418
  595MOL0     H82085   6.759   3.167   3.344  0.1462 -2.4054 -0.6067
  595MOL0     H82086   6.903   3.406   3.207  1.0291  0.4767  1.3670
  595MOL0     H82087   6.938   3.353   3.368  0.9395  0.6537 -0.9963
  595MOL0     H82088   6.685   3.475   3.257  0.6869  1.3205 -1.7647
  595MOL0     H82089   6.782   3.520   3.396  0.0656 -2.0975  2.9905
  595MOL0     H82090   6.286   2.535   3.266 -1.3718  1.6124  0.8507
  595MOL0     H82091   6.340   2.331   3.372  3.9586  0.4042 -2.0355
  595MOL0     H82092   6.275   2.257   3.804 -0.6556 -0.1111 -0.5862
  595MOL0     H82093   6.182   2.123   3.991 -0.5357 -0.1128  1.4237
  595MOL0     H82094   6.268   1.877   3.737 -1.0146 -2.6544 -1.4612
  595MOL0     H82095   6.048   1.917   3.842  2.1432 -1.2014  0.1137
  595MOL0     H82096   5.752   1.973   3.930 -0.7564  0.7302 -2.6516
  595MOL0     H82097   5.588   1.916   4.089  1.4588 -1.3465  2.1450
  595MOL0     H82098   5.337   1.999   4.245 -0.7073 -1.1290  0.0429
  595MOL0     H82099   5.488   1.900   4.266 -1.7872 -0.0671 -1.2871
  595MOL0     H82100   5.488   1.970   4.489  0.3709  1.7362 -1.0832
  595MOL0     H82101   5.359   1.857   4.440  1.3185 -0.4819 -1.1012
  595MOL0     H82102   5.325   2.152   4.538 -2.6284  1.3100 -0.0204
  595MOL0     H82103   5.216   2.106   4.414 -0.6026 -2.3692  0.2776
  595MOL0     H82104   5.257   1.913   4.647 -0.6477  1.8966  3.1745
  595MOL0     H82105   5.138   1.918   4.521 -0.4715 -0.7114  0.5986
  595MOL0     H82106   5.043   2.215   4.818  1.3225  1.8832 -1.2557
  595MOL0     H82107   5.558   2.352   4.168  0.6761  1.2027  0.8362
  595MOL0     H82108   5.645   2.512   3.998 -1.4159  1.4671 -2.9531
  595MOL0     H82109   5.818   2.465   3.983 -0.3410 -0.4170  0.4694
  595MOL0     H82110   5.711   2.443   3.854  1.0259  0.5179 -0.1131
  596MOL0     O82111  10.158  10.927   6.710  0.2941 -0.7488  0.6250
  596MOL0     C82112  10.266  10.879   6.721  0.3948  0.5037 -0.2431
  596MOL0     O82113  10.353  10.898   6.825 -0.1615 -0.4223 -0.0559
  596MOL0     C82114  10.296  10.951   6.944  0.8192  0.4671  0.2624
  596MOL0     C82115  10.335  11.072   6.996 -0.4498 -0.6285 -0.0309
  596MOL0     C82116  10.282  11.116   7.117 -0.6881  0.2823 -0.3552
  596MOL0     C82117  10.187  11.046   7.189 -0.9442 -0.5774 -0.3254
  596MOL0     O82118  10.142  11.098   7.311 -0.7391 -0.5112  0.7098
  596MOL0     C82119  10.069  11.034   7.412  0.7923 -0.4503  0.1330
  596MOL0     C82120  10.165  10.965   7.505  0.8088  0.0266  0.1558
  596MOL0     C82121  10.108  10.863   7.599  0.3494  0.1072 -0.5197
  596MOL0     C82122  10.166  10.860   7.749  0.6809 -0.1343  0.5082
  596MOL0     C82123  10.095  10.755   7.836  0.0310 -0.3644  0.3260
  596MOL0     C82124  10.125  10.773   7.976  0.1246 -0.7759  0.1392
  596MOL0     C82125  10.047  10.689   8.081  0.9196 -0.6719  0.0989
  596MOL0     C82126  10.037  10.540   8.057 -0.8104 -0.0028 -0.4234
  596MOL0     N82127  10.176  10.484   8.028 -0.2708 -0.2237  0.0082
  596MOL0     C82128  10.298  10.530   8.076  0.2867 -0.0389 -0.0633
  596MOL0     C82129  10.389  10.446   8.025  0.4851 -0.9776 -0.6265
  596MOL0     C82130  10.535  10.464   8.055  0.2272  0.0117 -0.1984
  596MOL0     C82131  10.584  10.327   8.110  0.7439 -0.2153  0.1238
  596MOL0     C82132  10.560  10.320   8.265  0.8429  0.0383 -0.7002
  596MOL0     C82133  10.554  10.174   8.307  0.3708  1.2887  0.0422
  596MOL0     O82134  10.486  10.179   8.428 -0.9443  0.6713  0.0223
  596MOL0     C82135  10.488  10.064   8.510 -0.0201 -0.9810  0.0348
  596MOL0     C82136  10.409  10.074   8.620 -0.1794 -0.2544 -0.3237
  596MOL0     C82137  10.413   9.964   8.709  0.0380  0.3651 -0.7542
  596MOL0     C82138  10.316   9.983   8.822  0.8682 -0.4243  0.8931
  596MOL0     C82139  10.502   9.851   8.690 -0.5424  0.0461  0.2832
  596MOL0     C82140  10.523   9.739   8.784  0.0758  0.5876 -0.5168
  596MOL0     O82141  10.647   9.672   8.776  0.5156  0.2975  0.8566
  596MOL0     C82142  10.664   9.559   8.848  0.3769 -0.1066 -0.7278
  596MOL0     C82143  10.781   9.544   8.922  0.6616 -0.0982  0.4688
  596MOL0     C82144  10.800   9.430   8.999  0.3764 -0.8849  0.3425
  596MOL0     C82145  10.701   9.328   9.011 -1.0175  0.3655 -0.4655
  596MOL0     O82146  10.725   9.219   9.093  0.1061  0.4027  0.5880
  596MOL0     C82147  10.613   9.167   9.160 -1.0453 -0.5777  1.0417
  596MOL0     C82148  10.587   9.043   9.079 -0.3222  1.3902  0.5361
  596MOL0     C82149  10.666   8.924   9.127  0.0386  0.4104 -0.0650
  596MOL0     C82150  10.810   8.913   9.069  0.4207  0.3382 -0.3292
  596MOL0     C82151  10.912   8.806   9.127 -0.5970 -0.6328  0.8129
  596MOL0     C82152  11.017   8.804   9.020  1.2961  0.3323  0.7233
  596MOL0     C82153  11.147   8.715   9.059 -0.1454  0.2594 -0.0600
  596MOL0     C82154  11.250   8.695   8.948  0.8023 -0.2286 -0.1007
  596MOL0    Cl82155  11.332   8.848   8.900  0.7901 -0.0601  0.0630
  596MOL0     C82156  10.585   9.339   8.934  0.9377  0.0462 -0.2232
  596MOL0     C82157  10.566   9.454   8.863 -0.2802 -0.2560  0.2142
  596MOL0     O82158  10.438   9.718   8.871 -0.4852  1.0256  0.5020
  596MOL0     C82159  10.579   9.854   8.571 -0.2741 -0.7704 -0.3283
  596MOL0     C82160  10.572   9.958   8.487 -1.8836  0.3483 -1.2587
  596MOL0     N82161  10.327  10.358   7.940  0.5416 -1.0161  1.1455
  596MOL0     N82162  10.202  10.383   7.949  0.0559  0.6549  0.5884
  596MOL0     C82163  10.144  10.926   7.131  0.3987 -0.2916 -0.6550
  596MOL0     C82164  10.199  10.878   7.016 -0.0409 -0.4202 -0.3144
  596MOL0     C82165  10.300  10.806   6.603 -0.2008  0.0894 -0.3632
  596MOL0     C82166  10.262  10.850   6.481 -0.0730  0.0068  0.6406
  596MOL0     C82167  10.286  10.782   6.368 -0.6828  0.3328 -0.3296
  596MOL0     C82168  10.357  10.664   6.363  0.2467  1.0201  0.3638
  596MOL0     O82169  10.373  10.599   6.239 -0.5152 -0.3231 -0.0138
  596MOL0     C82170  10.372  10.457   6.244  0.1364 -0.6237 -0.2725
  596MOL0     C82171  10.325  10.382   6.118  0.1642 -0.0500 -0.7721
  596MOL0     C82172  10.432  10.346   6.013 -0.3509  1.2754 -0.0946
  596MOL0     C82173  10.438  10.199   5.981  0.1016  0.2705  0.4920
  596MOL0     C82174  10.314  10.133   5.932 -0.9170  0.2409  0.3692
  596MOL0     C82175  10.210  10.092   5.889  0.4354  0.1505 -0.6105
  596MOL0     C82176  10.404  10.614   6.482  0.7766  0.2886  0.7595
  596MOL0     C82177  10.382  10.690   6.606 -0.5342 -0.2076  0.1891
  596MOL0     C82178  10.445  10.634   6.730  0.2653  0.1787 -0.4727
  596MOL0     H82179  10.422  11.113   6.946 -0.1786  0.0598  0.9759
  596MOL0     H82180  10.323  11.200   7.173  2.1026 -1.2407  0.1049
  596MOL0     H82181   9.989  10.972   7.371  0.9569 -1.1323  0.8342
  596MOL0     H82182  10.018  11.113   7.469 -2.0620 -1.3227 -1.0143
  596MOL0     H82183  10.233  10.919   7.434 -0.2033  1.8817 -2.1382
  596MOL0     H82184  10.220  11.034   7.570  1.3370 -1.2401  1.0997
  596MOL0     H82185  10.000  10.871   7.611  0.3625  1.6853 -1.2371
  596MOL0     H82186  10.129  10.763   7.561  1.0570  0.2854 -0.6140
  596MOL0     H82187  10.274  10.843   7.738  1.2299  3.2470 -0.8291
  596MOL0     H82188  10.147  10.957   7.797 -3.7850 -0.7467  0.3350
  596MOL0     H82189  10.117  10.655   7.796 -0.6636 -1.1359  1.7823
  596MOL0     H82190   9.988  10.768   7.817  0.8101  2.5142 -3.2525
  596MOL0     H82191  10.231  10.759   7.996  0.3699 -1.4269 -1.4279
  596MOL0     H82192  10.099  10.872   8.015 -1.0634 -1.8828  2.3415
  596MOL0     H82193   9.944  10.724   8.096  0.6552 -2.3745  3.1514
  596MOL0     H82194  10.094  10.701   8.179  0.7509  0.3568  0.0609
  596MOL0     H82195   9.997  10.492   8.147 -3.2638 -1.3898 -2.1250
  596MOL0     H82196   9.969  10.527   7.972  0.9703  2.2118 -2.3455
  596MOL0     H82197  10.323  10.595   8.160  0.7193 -1.9402  1.3589
  596MOL0     H82198  10.562  10.552   8.114  1.4737 -0.3173 -0.2564
  596MOL0     H82199  10.583  10.492   7.961 -0.4903 -0.0844 -0.6055
  596MOL0     H82200  10.514  10.252   8.072  0.7576 -1.0345  1.6110
  596MOL0     H82201  10.687  10.299   8.087 -0.0311 -2.5907 -0.7688
  596MOL0     H82202  10.639  10.376   8.316  0.2061 -0.2041  0.6008
  596MOL0     H82203  10.470  10.373   8.297  1.9405 -0.5307  4.0852
  596MOL0     H82204  10.520  10.108   8.226 -0.1518 -0.2789  1.4774
  596MOL0     H82205  10.658  10.150   8.329 -0.0327 -0.8679 -0.1488
  596MOL0     H82206  10.333  10.151   8.634  0.7824  0.4038  1.5946
  596MOL0     H82207  10.265  10.077   8.801  0.8640 -0.7623 -0.7507
  596MOL0     H82208  10.374   9.998   8.914  1.6677  0.3042  0.2844
  596MOL0     H82209  10.241   9.903   8.826 -0.5643  0.5418 -2.8348
  596MOL0     H82210  10.853   9.624   8.911  1.1944 -0.5320  0.7604
  596MOL0     H82211  10.891   9.428   9.059  0.6042 -3.9543  0.0549
  596MOL0     H82212  10.624   9.136   9.264  2.3956  0.4291  1.0903
  596MOL0     H82213  10.526   9.234   9.161 -1.3745 -0.9388 -0.3638
  596MOL0     H82214  10.478   9.037   9.084 -0.4174  3.3330  2.0563
  596MOL0     H82215  10.617   9.054   8.974 -2.0338  2.1520  0.0925
  596MOL0     H82216  10.621   8.830   9.094  0.9661  0.2816 -0.9923
  596MOL0     H82217  10.672   8.927   9.236 -0.2391  0.0368 -0.0388
  596MOL0     H82218  10.861   9.009   9.081  2.4312 -0.5070 -1.5931
  596MOL0     H82219  10.794   8.906   8.961  2.3928 -0.9282 -0.5898
  596MOL0     H82220  10.945   8.837   9.227 -0.7890  1.8706  0.1609
  596MOL0     H82221  10.849   8.717   9.131 -1.9867  0.2978  0.1377
  596MOL0     H82222  11.041   8.905   8.986  2.3700 -0.5312 -1.3090
  596MOL0     H82223  10.971   8.749   8.937 -0.5263  2.0989  0.4726
  596MOL0     H82224  11.104   8.614   9.061 -0.0834  0.0731 -3.1824
  596MOL0     H82225  11.190   8.751   9.153  0.4148  1.9693 -0.9325
  596MOL0     H82226  11.182   8.662   8.869  0.5246  0.2578 -0.0711
  596MOL0     H82227  11.326   8.622   8.974  2.4576  1.5302  0.2636
  596MOL0     H82228  10.501   9.272   8.945 -0.1197  1.3053 -0.3975
  596MOL0     H82229  10.467   9.471   8.824 -0.7387 -3.0548 -0.0879
  596MOL0     H82230  10.643   9.773   8.538 -0.9961 -0.8117 -1.7099
  596MOL0     H82231  10.630   9.954   8.395 -0.4577  0.4329 -0.3993
  596MOL0     H82232  10.093  10.861   7.203 -0.6838 -0.7662 -1.8133
  596MOL0     H82233  10.167  10.778   6.989 -1.7732  0.6054 -2.3595
  596MOL0     H82234  10.210  10.944   6.467  1.4762  0.6457 -1.2633
  596MOL0     H82235  10.233  10.828   6.284  1.6036  0.1292 -1.9616
  596MOL0     H82236  10.468  10.419   6.281  1.5122  2.1071 -0.7823
  596MOL0     H82237  10.296  10.435   6.320  0.0427 -0.8587 -0.4335
  596MOL0     H82238  10.233  10.429   6.082  0.6480  0.7810 -0.9814
  596MOL0     H82239  10.291  10.285   6.152  0.0550  0.5948  1.0646
  596MOL0     H82240  10.421  10.402   5.919 -0.4910 -0.3157 -1.0695
  596MOL0     H82241  10.531  10.365   6.053  0.1922  0.5666 -1.0419
  596MOL0     H82242  10.476  10.142   6.067 -2.5384 -0.1566  1.4819
  596MOL0     H82243  10.512  10.186   5.901 -0.4540  0.1108 -0.0010
  596MOL0     H82244  10.114  10.062   5.853  1.0958 -0.2815 -2.0667
  596MOL0     H82245  10.464  10.524   6.486  1.1413  0.4870 -0.1623
  596MOL0     H82246  10.417  10.529   6.726 -2.3662  0.8126 -0.4851
  596MOL0     H82247  10.553  10.649   6.746  0.1133  1.1179 -0.2400
  596MOL0     H82248  10.406  10.671   6.826  0.5178  2.2365 -1.1082
  597MOL0     O82249   0.864  11.236   1.768  0.4147 -0.2303  0.3633
  597MOL0     C82250   0.850  11.267   1.649  0.5543 -1.2605  0.1554
  597MOL0     O82251   0.846  11.403   1.609  0.1649  0.1483 -0.4098
  597MOL0     C82252   0.840  11.497   1.708  0.5128 -0.7998  0.4850
  597MOL0     C82253   0.725  11.582   1.727  0.3762  0.0578  0.6447
  597MOL0     C82254   0.715  11.669   1.832  0.6471 -0.3432  0.0016
  597MOL0     C82255   0.816  11.678   1.923 -0.4033 -0.5964  0.4424
  597MOL0     O82256   0.784  11.738   2.040 -0.2894  0.1230 -0.5020
  597MOL0     C82257   0.897  11.822   2.089  0.5732  0.1135  0.7143
  597MOL0     C82258   0.850  11.928   2.186  0.7855 -0.8909 -1.4394
  597MOL0     C82259   0.751  11.873   2.301 -0.4072 -0.1036 -0.7862
  597MOL0     C82260   0.699  11.992   2.398 -0.4826  0.6247  0.3868
  597MOL0     C82261   0.612  11.919   2.499  0.1389 -0.5504 -0.2099
  597MOL0     C82262   0.515  12.011   2.581 -0.8074 -0.6615  0.6435
  597MOL0     C82263   0.426  11.947   2.682  0.1191 -0.6518  0.9389
  597MOL0     C82264   0.507  11.849   2.778  0.4142 -0.7090  0.2077
  597MOL0     N82265   0.415  11.783   2.865 -0.2987  0.1313  0.3476
  597MOL0     C82266   0.338  11.846   2.965 -0.0580 -1.1967 -1.0057
  597MOL0     C82267   0.257  11.744   3.003 -0.6681 -0.3570 -0.3075
  597MOL0     C82268   0.141  11.756   3.100 -0.1049  0.5124 -0.2244
  597MOL0     C82269   0.013  11.683   3.049  0.8898 -0.6855 -0.0141
  597MOL0     C82270  -0.072  11.780   2.970 -0.7206  0.4479  0.9180
  597MOL0     C82271  -0.205  11.731   2.926  0.5133 -0.2173  0.1812
  597MOL0     O82272  -0.286  11.741   3.048  0.2388 -0.1131  0.3652
  597MOL0     C82273  -0.414  11.765   3.019  0.3467 -0.1333 -0.4112
  597MOL0     C82274  -0.504  11.671   2.978 -0.4760 -0.5149 -0.2204
  597MOL0     C82275  -0.634  11.708   2.934  0.4770 -1.0294 -0.2475
  597MOL0     C82276  -0.716  11.587   2.869  0.3366  0.4029  0.2599
  597MOL0     C82277  -0.683  11.841   2.943  0.2242  0.3365  0.0263
  597MOL0     C82278  -0.821  11.898   2.894  0.0564 -0.4583  0.2132
  597MOL0     O82279  -0.833  12.036   2.868 -0.0221  0.0619  0.6962
  597MOL0     C82280  -0.960  12.091   2.869 -0.4671 -0.1140 -0.1278
  597MOL0     C82281  -0.978  12.196   2.956  0.6499  0.3590  0.4283
  597MOL0     C82282  -1.105  12.263   2.958  0.1218  0.3896  0.9677
  597MOL0     C82283  -1.209  12.211   2.880 -0.1128 -0.2688 -0.1629
  597MOL0     O82284  -1.329  12.269   2.906 -0.2539 -0.2490 -0.2378
  597MOL0     C82285  -1.399  12.306   2.783 -0.0727 -0.1428 -1.1505
  597MOL0     C82286  -1.522  12.388   2.818  0.9440 -0.3846  0.6658
  597MOL0     C82287  -1.640  12.368   2.722 -0.9824 -0.5486  0.1937
  597MOL0     C82288  -1.771  12.380   2.802  0.5567  0.5819 -0.4723
  597MOL0     C82289  -1.889  12.392   2.712  0.2692 -0.5340  0.0290
  597MOL0     C82290  -1.892  12.307   2.589  0.0084  0.0859  0.0991
  597MOL0     C82291  -2.024  12.329   2.513  0.2814 -0.4420  0.4801
  597MOL0     C82292  -2.014  12.295   2.358 -0.3778  0.1826  0.0600
  597MOL0    Cl82293  -1.932  12.407   2.262 -0.3140  0.5477 -0.2545
  597MOL0     C82294  -1.196  12.105   2.799  1.0142  1.1031  0.0541
  597MOL0     C82295  -1.069  12.041   2.801 -0.3868  0.0350  0.3712
  597MOL0     O82296  -0.913  11.816   2.887  0.1440 -0.5570  0.3506
  597MOL0     C82297  -0.593  11.936   2.992  0.1203 -0.7004 -0.0137
  597MOL0     C82298  -0.456  11.905   3.028 -0.6809 -0.8568 -0.1246
  597MOL0     N82299   0.293  11.627   2.938  0.2326  0.5846 -0.1128
  597MOL0     N82300   0.402  11.650   2.861  0.5962  0.0679  0.2346
  597MOL0     C82301   0.942  11.612   1.896 -0.6710  0.2746 -0.1926
  597MOL0     C82302   0.954  11.520   1.786 -0.0535  0.2316 -0.4500
  597MOL0     C82303   0.831  11.169   1.536 -0.0722  0.1795  0.2027
  597MOL0     C82304   0.756  11.212   1.423 -0.4153 -0.1741 -0.7439
  597MOL0     C82305   0.736  11.134   1.302 -0.1760  0.6909 -0.3497
  597MOL0     C82306   0.788  11.004   1.304  1.4884 -0.9411 -0.0209
  597MOL0     O82307   0.744  10.935   1.196 -0.1575  0.5071  0.7890
  597MOL0     C82308   0.778  10.791   1.182  0.1694  0.4499 -0.0986
  597MOL0     C82309   0.825  10.759   1.039 -0.2779 -0.4970 -0.5075
  597MOL0     C82310   0.704  10.739   0.945 -0.4097 -0.3635 -0.2330
  597MOL0     C82311   0.676  10.603   0.901  0.0136 -0.2710  1.0468
  597MOL0     C82312   0.644  10.527   1.022 -0.4043 -0.4763 -0.8665
  597MOL0     C82313   0.620  10.464   1.130 -0.0088  0.1441  0.2267
  597MOL0     C82314   0.844  10.946   1.422  0.3817  0.2337  0.4726
  597MOL0     C82315   0.882  11.034   1.533  0.5462 -0.3085  0.1289
  597MOL0     C82316   0.968  10.978   1.637  0.3770  0.2284  0.0403
  597MOL0     H82317   0.647  11.574   1.652  3.5234 -1.8882 -2.7496
  597MOL0     H82318   0.616  11.709   1.852 -0.6280 -2.4489 -1.7015
  597MOL0     H82319   0.938  11.875   2.002 -1.2604 -2.5244 -1.9320
  597MOL0     H82320   0.974  11.764   2.140  2.7410  2.1849 -0.0218
  597MOL0     H82321   0.934  11.975   2.238 -0.0179 -3.2000  2.3901
  597MOL0     H82322   0.796  12.007   2.133 -1.9023 -0.4962  1.5226
  597MOL0     H82323   0.670  11.809   2.266 -0.7070  0.2583 -0.7577
  597MOL0     H82324   0.813  11.808   2.363 -0.4597 -0.5385 -1.1852
  597MOL0     H82325   0.792  12.034   2.439 -0.1662 -1.0386  1.4893
  597MOL0     H82326   0.637  12.064   2.344  1.2358  2.2413  0.4512
  597MOL0     H82327   0.685  11.879   2.571  3.2755  0.3437 -2.6399
  597MOL0     H82328   0.563  11.833   2.454  1.8301 -0.5320 -2.2374
  597MOL0     H82329   0.572  12.082   2.641  0.7427 -3.6558  3.0000
  597MOL0     H82330   0.450  12.050   2.502  0.0294  0.0934  0.3034
  597MOL0     H82331   0.351  11.890   2.627  1.2034  1.1789 -2.7263
  597MOL0     H82332   0.384  12.033   2.737  2.5537 -1.4207  4.3382
  597MOL0     H82333   0.555  11.771   2.719 -0.2943 -0.7714 -0.3070
  597MOL0     H82334   0.587  11.894   2.837  0.1515  1.4150 -0.9656
  597MOL0     H82335   0.333  11.944   3.011 -0.7663 -0.3028 -2.8906
  597MOL0     H82336   0.131  11.861   3.128  2.3667  0.8170 -0.2318
  597MOL0     H82337   0.170  11.700   3.189 -0.4763  1.0253  0.2319
  597MOL0     H82338   0.029  11.580   3.016 -3.1525 -0.7050 -2.5153
  597MOL0     H82339  -0.042  11.672   3.143  1.2999 -0.8293  0.2126
  597MOL0     H82340  -0.102  11.867   3.029 -0.9286  1.5870 -0.8190
  597MOL0     H82341  -0.021  11.829   2.887  2.2258  0.8351  2.8155
  597MOL0     H82342  -0.259  11.800   2.861 -1.7514  0.1873  2.3043
  597MOL0     H82343  -0.212  11.632   2.879  2.5283 -0.2195 -0.1717
  597MOL0     H82344  -0.464  11.570   2.974  2.2097  0.4323  0.6932
  597MOL0     H82345  -0.665  11.494   2.842  0.6507  0.6004  0.1564
  597MOL0     H82346  -0.742  11.611   2.765 -1.4049 -1.2038  0.2714
  597MOL0     H82347  -0.804  11.548   2.921 -1.4423 -1.1225 -3.5232
  597MOL0     H82348  -0.893  12.232   3.013  0.5518  2.2028 -0.5210
  597MOL0     H82349  -1.129  12.349   3.020 -2.2395 -0.7163  1.7034
  597MOL0     H82350  -1.347  12.373   2.713 -0.9488 -2.2406 -4.0362
  597MOL0     H82351  -1.435  12.226   2.717  3.8962 -0.6431 -3.0339
  597MOL0     H82352  -1.552  12.356   2.918  1.8299 -0.8838  0.7811
  597MOL0     H82353  -1.495  12.494   2.828 -0.5477  0.2022 -0.9675
  597MOL0     H82354  -1.633  12.271   2.673  0.4209  0.4834 -1.7831
  597MOL0     H82355  -1.632  12.451   2.651  0.7774 -1.2536 -0.4941
  597MOL0     H82356  -1.772  12.461   2.874 -0.9662 -1.1855  1.6304
  597MOL0     H82357  -1.784  12.293   2.867  3.4573  0.6588  0.3581
  597MOL0     H82358  -1.987  12.384   2.760 -0.7315 -1.1281 -2.0073
  597MOL0     H82359  -1.884  12.495   2.676  0.2204 -0.3409  0.5722
  597MOL0     H82360  -1.884  12.200   2.611  0.0692  0.5159  2.3633
  597MOL0     H82361  -1.797  12.318   2.534  0.6959 -2.3869  0.6724
  597MOL0     H82362  -2.060  12.431   2.529  1.0615 -0.5375  3.2859
  597MOL0     H82363  -2.093  12.253   2.551  0.5676 -0.6528  0.5832
  597MOL0     H82364  -2.111  12.276   2.310 -0.7792  0.2602  0.8250
  597MOL0     H82365  -1.956  12.203   2.363 -2.1124 -1.1330 -2.1040
  597MOL0     H82366  -1.276  12.060   2.740  0.2245 -1.6154  2.9007
  597MOL0     H82367  -1.059  11.952   2.740 -0.7493  0.1644  0.1122
  597MOL0     H82368  -0.623  12.039   3.008  2.5414  0.2241 -0.9119
  597MOL0     H82369  -0.394  11.980   3.076 -0.9559  0.2548 -1.4672
  597MOL0     H82370   1.028  11.631   1.959 -0.1734  2.7840 -1.5115
  597MOL0     H82371   1.053  11.480   1.763 -0.6377 -0.4136 -1.9772
  597MOL0     H82372   0.719  11.314   1.416 -2.0489 -0.6233  0.5927
  597MOL0     H82373   0.673  11.178   1.225 -2.2465 -0.5450  0.5442
  597MOL0     H82374   0.862  10.762   1.247 -1.1259  0.2020  1.5119
  597MOL0     H82375   0.693  10.726   1.204  1.7681 -1.5086  0.6534
  597MOL0     H82376   0.890  10.672   1.054  3.4690  2.0856 -0.2681
  597MOL0     H82377   0.897  10.832   1.001  0.3970 -0.1068  1.4092
  597MOL0     H82378   0.626  10.782   1.009  2.3847  0.8597  2.6058
  597MOL0     H82379   0.707  10.808   0.861 -1.5326  0.6983  0.5569
  597MOL0     H82380   0.758  10.559   0.844 -0.9578 -0.5961 -0.1489
  597MOL0     H82381   0.583  10.607   0.843 -1.1168 -1.3041  2.6940
  597MOL0     H82382   0.588  10.416   1.221 -2.8158  1.6939  0.1737
  597MOL0     H82383   0.867  10.841   1.439  1.3990  0.8195  3.2110
  597MOL0     H82384   1.025  10.895   1.593  1.0030 -0.4766  2.0313
  597MOL0     H82385   1.040  11.059   1.654  4.5366 -2.2050 -3.7063
  597MOL0     H82386   0.914  10.940   1.724 -1.6656  0.8766 -0.9027
  598MOL0     O82387   4.126   1.428   6.801 -0.0428 -0.5271 -0.6167
  598MOL0     C82388   4.129   1.365   6.903 -0.3786 -0.1080 -0.3105
  598MOL0     O82389   4.027   1.283   6.939 -0.4664  0.1944  0.1083
  598MOL0     C82390   3.909   1.283   6.862  0.2621 -0.1861  0.4211
  598MOL0     C82391   3.893   1.277   6.721 -0.1622  0.0629  0.4026
  598MOL0     C82392   3.771   1.250   6.669 -0.6520 -0.1141  0.2859
  598MOL0     C82393   3.655   1.246   6.754 -0.0152 -0.1181 -0.2173
  598MOL0     O82394   3.535   1.257   6.700 -0.5950  0.0428  0.6489
  598MOL0     C82395   3.506   1.246   6.553  0.0250 -0.3705  1.1352
  598MOL0     C82396   3.354   1.235   6.536 -0.2948 -0.3381  1.4725
  598MOL0     C82397   3.291   1.116   6.614 -0.2741  0.3877  0.1324
  598MOL0     C82398   3.153   1.068   6.558 -0.9212 -0.3766 -0.1250
  598MOL0     C82399   3.061   1.020   6.667  0.0885  0.5375  0.0618
  598MOL0     C82400   3.048   0.866   6.665  0.4170  0.2501 -0.5236
  598MOL0     C82401   3.170   0.808   6.734  0.3281  0.8128  0.5831
  598MOL0     C82402   3.157   0.657   6.763 -0.5055  0.5499  0.0439
  598MOL0     N82403   3.050   0.624   6.863 -0.1386  0.4458  0.5050
  598MOL0     C82404   3.077   0.519   6.954 -0.1139 -0.2896  0.6996
  598MOL0     C82405   2.967   0.508   7.037  0.1083 -0.4300 -0.0609
  598MOL0     C82406   2.969   0.434   7.169 -1.1307 -0.2785 -0.9910
  598MOL0     C82407   3.003   0.537   7.280  0.0421 -0.7086  0.8800
  598MOL0     C82408   3.080   0.462   7.395  0.3819 -0.7513 -0.1109
  598MOL0     C82409   3.094   0.555   7.521 -0.1281  0.1312  0.0069
  598MOL0     O82410   3.161   0.677   7.479  0.2530  1.0863 -0.1881
  598MOL0     C82411   3.299   0.694   7.499  0.9438  0.0292 -0.2581
  598MOL0     C82412   3.348   0.825   7.501  0.5159 -0.4604 -0.3450
  598MOL0     C82413   3.483   0.850   7.515  0.4210 -0.5293 -0.0579
  598MOL0     C82414   3.537   0.999   7.507  0.3146 -0.4298 -0.3135
  598MOL0     C82415   3.576   0.740   7.531  0.7011 -0.2146 -0.1242
  598MOL0     C82416   3.723   0.756   7.538 -0.3480 -0.5075 -0.5309
  598MOL0     O82417   3.780   0.873   7.572  0.1020  0.1361  0.0643
  598MOL0     C82418   3.908   0.901   7.523  0.6935 -0.2193 -0.3073
  598MOL0     C82419   3.930   1.003   7.426 -0.3514  0.1456 -0.3091
  598MOL0     C82420   4.062   1.021   7.388 -0.0047  0.4918  0.3735
  598MOL0     C82421   4.167   0.946   7.430  0.3478 -0.6830  0.0467
  598MOL0     O82422   4.297   0.983   7.387  0.7030 -0.5165  0.9551
  598MOL0     C82423   4.417   0.901   7.403  0.2663  0.1157 -0.2298
  598MOL0     C82424   4.543   0.985   7.373 -0.1391  0.5949  0.0200
  598MOL0     C82425   4.674   0.896   7.340 -0.3010  0.6716 -0.5325
  598MOL0     C82426   4.701   0.799   7.446 -0.1835  0.7260  0.6902
  598MOL0     C82427   4.833   0.723   7.418 -0.4192 -0.9119  0.9771
  598MOL0     C82428   4.857   0.609   7.523 -0.5444  0.4410 -0.1529
  598MOL0     C82429   4.993   0.527   7.497  0.1890 -1.1824 -0.1935
  598MOL0     C82430   5.002   0.397   7.583 -0.4464 -0.0634  0.4516
  598MOL0    Cl82431   4.904   0.262   7.513 -0.1042 -0.0779  0.1119
  598MOL0     C82432   4.142   0.841   7.515 -0.2581  1.0398  0.6653
  598MOL0     C82433   4.013   0.827   7.564  0.6451 -0.3753 -0.3994
  598MOL0     O82434   3.784   0.654   7.514  0.1066  0.7501 -0.4447
  598MOL0     C82435   3.519   0.611   7.554 -0.1609  0.0602  0.1707
  598MOL0     C82436   3.387   0.583   7.526  0.7017 -0.3994 -0.4146
  598MOL0     N82437   2.873   0.599   6.999  0.1044 -0.1612  0.0776
  598MOL0     N82438   2.926   0.670   6.892  0.2973  0.5251  0.1145
  598MOL0     C82439   3.669   1.266   6.889  0.0693 -1.2728 -0.5366
  598MOL0     C82440   3.794   1.276   6.937 -0.0549 -0.0008 -0.3039
  598MOL0     C82441   4.247   1.366   6.996 -0.6033 -0.6571 -0.2287
  598MOL0     C82442   4.238   1.287   7.110  0.1660  0.0904  0.3140
  598MOL0     C82443   4.348   1.278   7.198 -0.2205 -0.7734  0.7761
  598MOL0     C82444   4.470   1.329   7.165 -0.9278 -0.3846  1.1924
  598MOL0     O82445   4.566   1.294   7.256 -1.2300  0.0329 -0.3160
  598MOL0     C82446   4.699   1.351   7.234 -0.3059 -0.7172 -0.6616
  598MOL0     C82447   4.790   1.298   7.344  0.5413 -0.5825  0.7582
  598MOL0     C82448   4.939   1.338   7.337  0.2899 -0.2666  0.0137
  598MOL0     C82449   5.033   1.228   7.391 -0.4121 -0.5124 -0.1956
  598MOL0     C82450   5.004   1.213   7.538 -0.5274 -0.3474  0.6681
  598MOL0     C82451   4.958   1.178   7.642 -0.0175  0.3036  0.2382
  598MOL0     C82452   4.484   1.406   7.044  1.1273 -0.8026  0.1729
  598MOL0     C82453   4.371   1.423   6.960 -1.4606  0.0899 -0.5113
  598MOL0     C82454   4.390   1.525   6.840  0.0102 -1.0348 -0.4853
  598MOL0     H82455   3.976   1.281   6.651 -1.1270 -0.8499 -0.8554
  598MOL0     H82456   3.767   1.239   6.561  2.1867  0.8516  0.0050
  598MOL0     H82457   3.538   1.149   6.513 -0.5116  0.4965 -1.6468
  598MOL0     H82458   3.542   1.331   6.494 -3.0221 -0.0837 -0.5496
  598MOL0     H82459   3.309   1.329   6.569 -0.9706 -0.9651  2.3704
  598MOL0     H82460   3.332   1.211   6.431  0.8980 -3.0831  1.7533
  598MOL0     H82461   3.364   1.034   6.606 -0.1375  0.3765  1.3791
  598MOL0     H82462   3.285   1.143   6.719  1.0118 -1.5017  0.7667
  598MOL0     H82463   3.116   1.158   6.508  4.7207  0.6573 -3.2835
  598MOL0     H82464   3.165   0.994   6.479 -2.0434 -0.5072 -0.1872
  598MOL0     H82465   2.966   1.063   6.633 -0.6570 -1.1254 -0.0757
  598MOL0     H82466   3.094   1.069   6.759  1.8098 -0.6015  0.0872
  598MOL0     H82467   2.952   0.835   6.707  0.5204 -0.5070 -0.8317
  598MOL0     H82468   3.050   0.825   6.563 -0.3310  1.3428 -0.9943
  598MOL0     H82469   3.195   0.860   6.827 -2.8998  2.1716  0.8331
  598MOL0     H82470   3.246   0.818   6.656  2.0424 -1.3758  1.8134
  598MOL0     H82471   3.142   0.598   6.672 -2.2594  0.7529  0.1599
  598MOL0     H82472   3.254   0.625   6.801 -0.3946 -0.0099 -0.6928
  598MOL0     H82473   3.169   0.463   6.962  0.4407  0.6515  0.9764
  598MOL0     H82474   3.038   0.349   7.165 -2.4599 -1.5019  0.5584
  598MOL0     H82475   2.869   0.394   7.187 -1.1867 -0.6406 -2.0321
  598MOL0     H82476   3.076   0.606   7.236  0.8378 -1.2572  1.3181
  598MOL0     H82477   2.925   0.608   7.309 -0.0936 -0.6981  0.4935
  598MOL0     H82478   3.039   0.364   7.420  1.1087 -0.5474  2.1580
  598MOL0     H82479   3.179   0.432   7.358  0.0867 -0.6134 -1.0346
  598MOL0     H82480   2.990   0.575   7.547 -0.5102  1.1768 -2.1427
  598MOL0     H82481   3.144   0.505   7.605  1.1575  0.2078 -0.6856
  598MOL0     H82482   3.276   0.904   7.484  0.2441 -0.5615  0.3211
  598MOL0     H82483   3.614   1.009   7.430 -0.3817  1.8530 -0.8148
  598MOL0     H82484   3.586   1.045   7.593  2.3035 -1.0701 -1.0427
  598MOL0     H82485   3.459   1.065   7.466  0.4396  0.1313  0.3351
  598MOL0     H82486   3.856   1.067   7.380  1.0949  0.5193 -2.2010
  598MOL0     H82487   4.091   1.102   7.321  1.5767  1.2586  1.9163
  598MOL0     H82488   4.419   0.850   7.499 -0.8227 -0.5393 -0.5405
  598MOL0     H82489   4.419   0.824   7.325 -1.1067  0.7330 -0.9117
  598MOL0     H82490   4.517   1.014   7.271 -0.4788 -0.5302 -0.2264
  598MOL0     H82491   4.564   1.065   7.445  1.6288  1.7744 -1.6802
  598MOL0     H82492   4.764   0.951   7.311  0.6961  0.3172  1.6726
  598MOL0     H82493   4.643   0.839   7.253  0.3664 -0.4882 -0.0348
  598MOL0     H82494   4.617   0.730   7.458  0.0508  0.1557 -0.6828
  598MOL0     H82495   4.720   0.847   7.542  1.1493  1.5291  0.0520
  598MOL0     H82496   4.833   0.681   7.317  0.0500 -0.3357  0.7368
  598MOL0     H82497   4.915   0.793   7.435 -3.3064  2.6496  1.3577
  598MOL0     H82498   4.774   0.538   7.519 -1.6863  1.7748 -2.2476
  598MOL0     H82499   4.860   0.653   7.623 -1.7603  0.7772 -0.2496
  598MOL0     H82500   5.076   0.585   7.539 -1.8477  0.0961  2.4366
  598MOL0     H82501   5.009   0.499   7.393  1.3583 -2.4089  0.2924
  598MOL0     H82502   4.958   0.409   7.683  0.0252  1.2018  0.5220
  598MOL0     H82503   5.109   0.376   7.592 -0.3040 -0.0283 -0.9022
  598MOL0     H82504   4.226   0.779   7.543 -0.5425  1.3604  2.3421
  598MOL0     H82505   3.999   0.741   7.629 -1.1333  0.0958 -0.1201
  598MOL0     H82506   3.580   0.531   7.593 -2.4209 -1.2395  1.2424
  598MOL0     H82507   3.347   0.483   7.543 -1.1255  0.1564 -1.1827
  598MOL0     H82508   3.573   1.273   6.938 -0.2044  0.4045 -1.2517
  598MOL0     H82509   3.810   1.295   7.043  0.8179  0.3386 -0.4884
  598MOL0     H82510   4.152   1.223   7.129  1.0082 -0.7779  1.3294
  598MOL0     H82511   4.336   1.220   7.289 -1.9127  0.9552  1.7426
  598MOL0     H82512   4.741   1.312   7.141 -4.4896 -0.9514 -2.7174
  598MOL0     H82513   4.699   1.459   7.218  2.0551 -0.7869 -1.4287
  598MOL0     H82514   4.768   1.191   7.338 -1.8062 -0.1598  0.9070
  598MOL0     H82515   4.750   1.330   7.441 -2.3526 -0.5545 -0.3319
  598MOL0     H82516   4.961   1.344   7.230 -2.0017 -2.3936 -0.6721
  598MOL0     H82517   4.963   1.428   7.394  2.1692 -2.0902  2.3179
  598MOL0     H82518   5.136   1.262   7.375 -0.9968  1.7734  0.5348
  598MOL0     H82519   5.019   1.134   7.337  3.0781 -1.3841  0.1247
  598MOL0     H82520   4.925   1.140   7.737 -0.0405 -1.2252 -0.3493
  598MOL0     H82521   4.580   1.449   7.020  0.6894  1.6622  2.3550
  598MOL0     H82522   4.490   1.566   6.833 -0.1604 -0.6033 -0.3972
  598MOL0     H82523   4.362   1.471   6.749  0.7494 -2.3850  0.0580
  598MOL0     H82524   4.315   1.605   6.837 -1.3242 -2.2176 -0.1235
  599MOL0     O82525   5.714   0.474  11.339 -0.1715  0.2125  0.5561
  599MOL0     C82526   5.606   0.457  11.410  0.6153 -1.0121  0.0796
  599MOL0     O82527   5.529   0.343  11.403  0.4042 -0.5640  0.4631
  599MOL0     C82528   5.596   0.240  11.353 -0.7672 -0.1437 -0.6322
  599MOL0     C82529   5.566   0.202  11.222 -0.5106  0.0607  0.5108
  599MOL0     C82530   5.621   0.085  11.169  0.0564  0.0863 -0.6009
  599MOL0     C82531   5.721   0.014  11.239  0.0703  0.1798 -0.3760
  599MOL0     O82532   5.749  -0.106  11.180  0.2100 -0.2958  0.4990
  599MOL0     C82533   5.877  -0.142  11.191 -0.6026  0.6097  0.2018
  599MOL0     C82534   5.965  -0.083  11.076 -0.4928 -0.2044  0.5955
  599MOL0     C82535   5.912  -0.119  10.935 -1.2790 -0.2968 -0.9635
  599MOL0     C82536   5.986  -0.026  10.836 -0.0884  0.1538 -0.5912
  599MOL0     C82537   5.957  -0.035  10.685  0.4836 -0.3647 -0.1267
  599MOL0     C82538   6.025   0.070  10.599 -0.7231  0.3014  0.8513
  599MOL0     C82539   6.173   0.113  10.638  0.8145 -0.2224  0.4757
  599MOL0     C82540   6.206   0.235  10.552 -1.0116 -0.4514 -0.0413
  599MOL0     N82541   6.352   0.285  10.573 -0.5801  0.1431  0.5736
  599MOL0     C82542   6.465   0.212  10.595  0.1863 -0.4113  0.0211
  599MOL0     C82543   6.560   0.299  10.609  0.8520 -0.2020  0.0988
  599MOL0     C82544   6.708   0.276  10.639 -0.5190  0.8064 -0.4121
  599MOL0     C82545   6.790   0.224  10.522  0.0172 -0.2305 -0.0121
  599MOL0     C82546   6.830   0.333  10.432 -0.4423  0.5768 -0.1364
  599MOL0     C82547   6.872   0.281  10.297  0.8980  0.1305  0.2332
  599MOL0     O82548   6.960   0.170  10.300  0.4914  0.5196  1.0466
  599MOL0     C82549   6.971   0.099  10.187  0.3085  0.2856  0.3072
  599MOL0     C82550   7.081   0.079  10.112  0.2538  0.0324  0.7477
  599MOL0     C82551   7.094  -0.013  10.010 -0.0475 -0.2465 -0.2060
  599MOL0     C82552   7.218  -0.021   9.933  0.2596  0.0018  0.5770
  599MOL0     C82553   6.981  -0.090   9.978  0.3387  0.8838  0.1012
  599MOL0     C82554   6.969  -0.194   9.867 -0.0566 -1.5204 -0.8359
  599MOL0     O82555   7.076  -0.244   9.800  0.0876 -0.0434 -0.4067
  599MOL0     C82556   7.068  -0.338   9.697  0.5374  0.5388 -0.5395
  599MOL0     C82557   7.160  -0.325   9.606 -0.3136  0.6147  0.1677
  599MOL0     C82558   7.166  -0.409   9.494  1.1295 -0.3322 -0.2701
  599MOL0     C82559   7.072  -0.514   9.481  0.0963 -0.0650  0.8321
  599MOL0     O82560   7.083  -0.591   9.368  0.8342 -1.0286  0.0194
  599MOL0     C82561   7.219  -0.633   9.326  0.7958  0.3584 -0.7293
  599MOL0     C82562   7.207  -0.759   9.227  0.5886 -0.1398 -0.2728
  599MOL0     C82563   7.144  -0.713   9.097  0.0487  0.4292 -0.3203
  599MOL0     C82564   7.248  -0.630   9.012  0.1441 -0.0273  1.0412
  599MOL0     C82565   7.177  -0.565   8.892  0.0237 -0.5854  0.5163
  599MOL0     C82566   7.274  -0.490   8.785  0.4159  0.4084 -0.2897
  599MOL0     C82567   7.207  -0.387   8.687  0.0920  0.0532 -0.7072
  599MOL0     C82568   7.311  -0.315   8.604  0.1871  0.1633  0.2174
  599MOL0    Cl82569   7.433  -0.429   8.521  0.0609  0.1888  0.2486
  599MOL0     C82570   6.969  -0.531   9.567  1.2196  0.1118  0.4251
  599MOL0     C82571   6.971  -0.444   9.676  0.8792  0.0503 -0.0552
  599MOL0     O82572   6.851  -0.214   9.839  0.1913  0.2335 -0.0718
  599MOL0     C82573   6.873  -0.085  10.067 -0.0594 -0.2667  0.8773
  599MOL0     C82574   6.866   0.008  10.169  0.8288  0.0828  0.1850
  599MOL0     N82575   6.509   0.423  10.592 -0.5140  1.0260  0.4641
  599MOL0     N82576   6.386   0.411  10.572  0.3996 -0.6789  0.3368
  599MOL0     C82577   5.759   0.058  11.373 -0.3575  0.4550  0.3926
  599MOL0     C82578   5.689   0.165  11.423  0.0078 -0.3106  0.0911
  599MOL0     C82579   5.568   0.578  11.500  0.3686  0.9587 -0.4158
  599MOL0     C82580   5.443   0.573  11.554  0.4702  0.3144  0.2631
  599MOL0     C82581   5.395   0.683  11.628  0.5181  0.3967 -0.6443
  599MOL0     C82582   5.472   0.799  11.644 -0.3618 -0.0765  0.0683
  599MOL0     O82583   5.411   0.912  11.701 -0.4762 -0.5416  1.1244
  599MOL0     C82584   5.484   1.029  11.737  0.1864  0.5759  0.1051
  599MOL0     C82585   5.383   1.130  11.794 -0.4076 -0.0568  0.1231
  599MOL0     C82586   5.308   1.071  11.914  0.8098 -0.5407  0.2985
  599MOL0     C82587   5.268   1.180  12.002  0.3194 -0.2840 -0.7552
  599MOL0     C82588   5.209   1.292  11.939  0.2143 -0.1830  0.7836
  599MOL0     C82589   5.168   1.385  11.872  0.9718  0.2022  0.1865
  599MOL0     C82590   5.602   0.800  11.590 -0.1141 -0.2022  0.0219
  599MOL0     C82591   5.654   0.683  11.529  0.0708  0.3575 -0.2262
  599MOL0     C82592   5.803   0.696  11.498  0.1148  0.1175  0.0062
  599MOL0     H82593   5.496   0.264  11.168  0.5364 -0.2055 -1.2111
  599MOL0     H82594   5.587   0.026  11.085  2.7043 -2.5042  0.0207
  599MOL0     H82595   5.882  -0.251  11.184  5.0298  0.4623  1.5959
  599MOL0     H82596   5.929  -0.114  11.283  3.5576  0.0014 -1.7526
  599MOL0     H82597   5.967   0.027  11.081  1.5766 -0.1607 -0.0058
  599MOL0     H82598   6.071  -0.110  11.083 -0.3648  0.6291  2.9462
  599MOL0     H82599   5.941  -0.221  10.909  3.8067  0.3980  0.7973
  599MOL0     H82600   5.807  -0.090  10.924 -1.7290 -0.6084  1.7942
  599MOL0     H82601   5.955   0.075  10.864  1.2221  0.3189  0.3459
  599MOL0     H82602   6.095  -0.031  10.850 -0.2766  1.1878  1.5942
  599MOL0     H82603   5.851  -0.045  10.660  0.5115 -2.1909  0.3507
  599MOL0     H82604   5.999  -0.134  10.663  1.2015 -0.3504  1.1302
  599MOL0     H82605   6.020   0.025  10.499 -2.4533 -0.3889  1.2115
  599MOL0     H82606   5.964   0.161  10.598  1.4930  1.8673  1.3692
  599MOL0     H82607   6.239   0.026  10.627  1.7637  0.4915  0.3936
  599MOL0     H82608   6.187   0.149  10.740 -0.8716  2.7076 -0.2311
  599MOL0     H82609   6.195   0.221  10.444 -0.1610 -2.7828  0.1163
  599MOL0     H82610   6.122   0.300  10.578  0.6959  1.3819  1.2233
  599MOL0     H82611   6.474   0.104  10.595 -0.1287 -0.4588  1.8349
  599MOL0     H82612   6.722   0.203  10.719  0.4610  1.5108  0.0741
  599MOL0     H82613   6.754   0.366  10.680  0.1809  0.5051 -0.5242
  599MOL0     H82614   6.876   0.168  10.561 -1.4164 -1.0914  2.0943
  599MOL0     H82615   6.725   0.155  10.467 -2.8901  0.4536  2.3286
  599MOL0     H82616   6.746   0.402  10.421 -0.3720  0.4970 -1.3173
  599MOL0     H82617   6.916   0.384  10.476  1.6586 -0.9842 -2.1629
  599MOL0     H82618   6.785   0.255  10.235  0.5749 -1.9243  1.4667
  599MOL0     H82619   6.924   0.363  10.246 -2.0509  0.2972 -2.9296
  599MOL0     H82620   7.164   0.146  10.132 -0.4978  0.9752  0.8093
  599MOL0     H82621   7.249  -0.121   9.902 -1.2922 -0.5872  0.8083
  599MOL0     H82622   7.301   0.023   9.989  1.2490 -2.2308  0.9684
  599MOL0     H82623   7.201   0.045   9.848  3.3781 -2.6739 -2.3816
  599MOL0     H82624   7.229  -0.244   9.624  0.5523  0.9156 -3.7828
  599MOL0     H82625   7.249  -0.396   9.425 -0.6063 -1.4568 -2.7069
  599MOL0     H82626   7.265  -0.549   9.273 -1.7417  0.3443 -3.1846
  599MOL0     H82627   7.271  -0.666   9.417  1.7001 -1.5508 -1.8691
  599MOL0     H82628   7.303  -0.806   9.206 -0.1355 -1.5318 -0.5957
  599MOL0     H82629   7.150  -0.837   9.278  0.6187  1.0901  1.7347
  599MOL0     H82630   7.051  -0.658   9.119 -0.2694 -0.5455  0.9445
  599MOL0     H82631   7.119  -0.803   9.040  0.9168  0.3360 -0.5616
  599MOL0     H82632   7.326  -0.697   8.976 -0.2837 -0.8179  1.5510
  599MOL0     H82633   7.298  -0.558   9.079  0.0783  0.4805  0.5477
  599MOL0     H82634   7.131  -0.644   8.832 -0.3506  0.3128 -0.4228
  599MOL0     H82635   7.095  -0.497   8.920 -2.0412 -1.8641 -1.9721
  599MOL0     H82636   7.332  -0.559   8.723  1.6175  3.7612 -3.2477
  599MOL0     H82637   7.350  -0.447   8.851  0.8358 -1.9060  0.8415
  599MOL0     H82638   7.156  -0.307   8.741  1.5100 -0.2200  1.1484
  599MOL0     H82639   7.143  -0.444   8.618 -0.4625 -0.1569 -0.0288
  599MOL0     H82640   7.369  -0.248   8.668  0.7724 -1.5076  1.5074
  599MOL0     H82641   7.255  -0.252   8.534 -1.5721 -0.7525  0.7393
  599MOL0     H82642   6.896  -0.611   9.552  1.3359 -0.3096  1.9802
  599MOL0     H82643   6.887  -0.442   9.744 -0.9841  4.7732 -2.0772
  599MOL0     H82644   6.795  -0.160  10.055  0.7483 -1.7447  3.8338
  599MOL0     H82645   6.770   0.021  10.219  1.3350  0.5686  1.0671
  599MOL0     H82646   5.827  -0.003  11.432  2.3421  0.9001 -2.0371
  599MOL0     H82647   5.712   0.201  11.524 -0.6981  2.0902 -0.5276
  599MOL0     H82648   5.380   0.485  11.548  1.1417 -0.3762  2.4203
  599MOL0     H82649   5.295   0.668  11.666  0.0328 -2.6451 -2.6844
  599MOL0     H82650   5.543   1.008  11.826  0.2913 -1.5693 -0.4124
  599MOL0     H82651   5.548   1.074  11.661  2.1565  0.6683  1.7360
  599MOL0     H82652   5.301   1.150  11.724 -2.7168  0.3150  2.7259
  599MOL0     H82653   5.434   1.225  11.816 -2.3632  0.9844  0.4113
  599MOL0     H82654   5.221   1.012  11.882  0.5918  0.1323 -0.3768
  599MOL0     H82655   5.373   1.004  11.971  2.3464  1.2575  0.7405
  599MOL0     H82656   5.351   1.204  12.068  0.8747 -1.0520 -1.1632
  599MOL0     H82657   5.190   1.133  12.063 -1.2169 -2.5611 -4.1355
  599MOL0     H82658   5.132   1.476  11.827 -0.8968  0.1135  1.4143
  599MOL0     H82659   5.652   0.894  11.611 -2.1198  0.7762  0.7417
  599MOL0     H82660   5.818   0.693  11.389  3.4577  1.6999  0.3206
  599MOL0     H82661   5.849   0.788  11.533 -1.9289  1.5055 -0.7627
  599MOL0     H82662   5.858   0.614  11.545 -2.1645 -3.6117 -3.1864
  600MOL0     O82663   7.643   4.705   5.658  0.2316  0.8900 -0.2235
  600MOL0     C82664   7.604   4.766   5.560 -0.4225  0.5336 -0.2398
  600MOL0     O82665   7.689   4.828   5.474 -0.0970 -0.0099  0.3005
  600MOL0     C82666   7.826   4.810   5.482 -1.0269 -0.7384  0.6118
  600MOL0     C82667   7.899   4.912   5.416 -0.5052  0.3655  0.0988
  600MOL0     C82668   8.034   4.917   5.412  0.3357  0.7785  0.2229
  600MOL0     C82669   8.109   4.798   5.455 -0.3927  0.3723  0.1994
  600MOL0     O82670   8.247   4.793   5.466 -0.2244  0.4310 -0.1172
  600MOL0     C82671   8.316   4.918   5.445  0.5867  0.3387 -0.2595
  600MOL0     C82672   8.445   4.882   5.495  0.2455  0.5133  0.1302
  600MOL0     C82673   8.543   5.000   5.517 -0.6349  0.6199 -0.3844
  600MOL0     C82674   8.506   5.093   5.629 -0.0140  0.2075 -0.5427
  600MOL0     C82675   8.594   5.220   5.631 -0.5732 -0.1499 -0.4711
  600MOL0     C82676   8.553   5.339   5.716 -0.6513  0.1510 -1.0768
  600MOL0     C82677   8.406   5.377   5.701 -0.4540 -0.6706 -0.1609
  600MOL0     C82678   8.372   5.509   5.768 -0.0816 -0.1371 -0.2622
  600MOL0     N82679   8.225   5.526   5.738 -0.5204  0.5957  0.5205
  600MOL0     C82680   8.168   5.559   5.616 -0.2214  0.8751 -1.1416
  600MOL0     C82681   8.037   5.537   5.628  0.1076 -0.2701 -0.3281
  600MOL0     C82682   7.931   5.566   5.520 -0.0739 -0.3391 -0.8545
  600MOL0     C82683   7.848   5.698   5.541  0.2231 -0.3522 -0.3498
  600MOL0     C82684   7.722   5.683   5.466 -0.3802  0.3978 -0.3306
  600MOL0     C82685   7.635   5.802   5.492  0.2098  0.3948 -0.2794
  600MOL0     O82686   7.691   5.909   5.424 -0.1151  0.4420  0.2319
  600MOL0     C82687   7.633   6.036   5.433  0.7326  0.0537 -0.1654
  600MOL0     C82688   7.705   6.143   5.373  0.8332  0.4760 -0.0202
  600MOL0     C82689   7.648   6.270   5.378 -0.4519 -0.3235 -0.5722
  600MOL0     C82690   7.731   6.373   5.303  0.0418 -0.4172 -0.0628
  600MOL0     C82691   7.530   6.297   5.453 -0.4426 -0.7366  0.2493
  600MOL0     C82692   7.482   6.436   5.472  0.2306 -0.1944  0.9269
  600MOL0     O82693   7.380   6.454   5.566 -0.2658  0.0062  0.0814
  600MOL0     C82694   7.305   6.558   5.600 -0.5534  0.3020  0.6315
  600MOL0     C82695   7.209   6.606   5.508  0.9055 -1.4712  0.2618
  600MOL0     C82696   7.113   6.699   5.545 -0.1350 -0.4128 -1.1395
  600MOL0     C82697   7.122   6.744   5.680 -0.5005 -0.4349  0.2330
  600MOL0     O82698   7.022   6.833   5.722  0.3902  0.1280  0.2970
  600MOL0     C82699   7.045   6.923   5.828  0.4451  0.1981  0.2014
  600MOL0     C82700   6.955   7.035   5.799  0.8140 -0.6762 -0.0843
  600MOL0     C82701   7.028   7.167   5.854  0.3967 -0.5163  0.1335
  600MOL0     C82702   6.944   7.298   5.841  1.0612 -0.2228  0.9574
  600MOL0     C82703   6.976   7.419   5.926 -0.5363  0.7664  0.5991
  600MOL0     C82704   7.008   7.374   6.074 -0.4705  0.3999  0.2235
  600MOL0     C82705   7.025   7.487   6.168 -0.5092 -0.7940 -0.1250
  600MOL0     C82706   7.093   7.433   6.296  0.1658 -0.5787  1.0617
  600MOL0    Cl82707   7.162   7.586   6.381  0.2442  0.2141 -0.0576
  600MOL0     C82708   7.223   6.698   5.769  0.8718  0.2843  0.0929
  600MOL0     C82709   7.318   6.609   5.722  0.1897  0.2247 -0.4300
  600MOL0     O82710   7.523   6.528   5.403 -0.0395 -0.2534 -0.0081
  600MOL0     C82711   7.466   6.186   5.516 -0.1687 -0.4655  0.2439
  600MOL0     C82712   7.509   6.058   5.501 -0.7771  1.0274 -0.5253
  600MOL0     N82713   8.017   5.493   5.756  0.2980  0.7324 -0.0908
  600MOL0     N82714   8.129   5.489   5.815  0.1164 -0.5457 -0.2853
  600MOL0     C82715   8.041   4.700   5.506  0.2934 -0.5556  0.6823
  600MOL0     C82716   7.903   4.707   5.526  0.4673  0.1783 -0.0090
  600MOL0     C82717   7.459   4.756   5.538  0.3136  0.3504  0.3437
  600MOL0     C82718   7.374   4.688   5.633 -0.6140  0.1376  0.6696
  600MOL0     C82719   7.238   4.676   5.625  0.0281  0.7230  0.1579
  600MOL0     C82720   7.173   4.742   5.523 -0.0582  0.3186  0.4412
  600MOL0     O82721   7.040   4.762   5.503  0.3486 -0.6824  0.0340
  600MOL0     C82722   6.948   4.743   5.618 -0.4078  0.1898 -0.7186
  600MOL0     C82723   6.977   4.831   5.741 -0.2515  0.6738  0.5512
  600MOL0     C82724   6.898   4.810   5.871 -0.2177 -0.0404  0.1027
  600MOL0     C82725   6.865   4.668   5.907  0.2419 -0.2391 -0.4849
  600MOL0     C82726   6.986   4.591   5.917  0.2560 -0.7037  0.8151
  600MOL0     C82727   7.076   4.514   5.906  0.1722  0.7568 -0.4064
  600MOL0     C82728   7.252   4.781   5.418  0.1336 -0.6349 -0.9715
  600MOL0     C82729   7.394   4.791   5.416  0.5470 -0.2843  0.0063
  600MOL0     C82730   7.448   4.869   5.305 -1.1040 -0.0112  0.6623
  600MOL0     H82731   7.829   4.978   5.367  0.5217  1.0101 -0.5446
  600MOL0     H82732   8.092   4.996   5.366  1.4030 -0.7716 -1.2563
  600MOL0     H82733   8.275   5.004   5.499  0.4907  0.4308 -0.4799
  600MOL0     H82734   8.315   4.932   5.337 -2.0212  2.0624 -0.1166
  600MOL0     H82735   8.445   4.823   5.587  1.5211 -0.3736 -0.4043
  600MOL0     H82736   8.486   4.820   5.414 -0.2332  0.5238 -0.1254
  600MOL0     H82737   8.634   4.946   5.543 -0.9019 -0.0778 -0.8643
  600MOL0     H82738   8.552   5.056   5.423  0.1809  1.8333  0.3888
  600MOL0     H82739   8.405   5.134   5.615  0.4481  2.1018  1.1250
  600MOL0     H82740   8.513   5.037   5.723 -2.0178 -0.8012 -0.9496
  600MOL0     H82741   8.603   5.255   5.528  2.2142  0.6206 -0.0454
  600MOL0     H82742   8.696   5.191   5.657 -1.3736 -1.1090  1.8348
  600MOL0     H82743   8.557   5.317   5.823 -1.4532  0.4265 -0.9788
  600MOL0     H82744   8.630   5.413   5.693  3.5735 -3.4156  0.2720
  600MOL0     H82745   8.340   5.307   5.753  0.0412  0.7520  2.6168
  600MOL0     H82746   8.369   5.385   5.598 -1.9618 -1.1131  0.3179
  600MOL0     H82747   8.380   5.499   5.876 -0.0801 -2.1614 -0.3938
  600MOL0     H82748   8.430   5.594   5.733 -1.1969  0.4127 -0.8428
  600MOL0     H82749   8.233   5.590   5.535  3.7048 -2.3557  0.4390
  600MOL0     H82750   7.862   5.481   5.514  1.4109 -1.5379 -1.7795
  600MOL0     H82751   7.990   5.559   5.428 -0.6865 -0.1783 -1.2663
  600MOL0     H82752   7.831   5.713   5.648 -1.8671 -3.7525 -0.0486
  600MOL0     H82753   7.904   5.782   5.498 -0.3650  0.2338  0.0118
  600MOL0     H82754   7.748   5.685   5.360  0.8443 -1.2532 -0.1151
  600MOL0     H82755   7.673   5.586   5.481  0.8578 -0.1645  0.2245
  600MOL0     H82756   7.533   5.780   5.460 -1.3047  2.6713  2.5109
  600MOL0     H82757   7.627   5.817   5.600  1.1636 -1.6537  0.1190
  600MOL0     H82758   7.801   6.116   5.330 -0.2978 -0.0381 -2.3782
  600MOL0     H82759   7.665   6.423   5.231 -1.2024  0.5598  1.6715
  600MOL0     H82760   7.809   6.318   5.250  0.6280  0.4582 -0.1252
  600MOL0     H82761   7.777   6.439   5.377  1.6608 -1.0657 -0.4493
  600MOL0     H82762   7.194   6.580   5.404 -4.9938  4.4662 -1.0472
  600MOL0     H82763   7.029   6.742   5.491 -0.0243  2.3845  0.7343
  600MOL0     H82764   7.011   6.875   5.920 -0.9962  1.1421  0.1842
  600MOL0     H82765   7.149   6.958   5.836  2.2224 -4.2478 -0.7979
  600MOL0     H82766   6.950   7.038   5.690  0.7403 -0.5228 -0.0767
  600MOL0     H82767   6.858   7.001   5.836  1.8079 -2.7287  0.8336
  600MOL0     H82768   7.112   7.184   5.786  0.1160  0.6601  0.0534
  600MOL0     H82769   7.076   7.155   5.952 -0.0159  1.3990  0.6281
  600MOL0     H82770   6.841   7.268   5.861  0.4016  1.1673 -0.1263
  600MOL0     H82771   6.941   7.335   5.738 -1.0551 -0.3165  0.9527
  600MOL0     H82772   7.069   7.470   5.897 -0.2305  0.0274  0.2552
  600MOL0     H82773   6.890   7.486   5.925  0.0923  1.6611 -2.0460
  600MOL0     H82774   7.098   7.312   6.072  0.5889  1.9019 -1.0517
  600MOL0     H82775   6.922   7.313   6.102  0.4056 -0.6006  0.7768
  600MOL0     H82776   6.925   7.525   6.190 -0.5346 -0.5780 -0.6115
  600MOL0     H82777   7.083   7.560   6.111 -1.2367 -1.1506 -1.3589
  600MOL0     H82778   7.170   7.362   6.264  1.9115  1.2144  1.1168
  600MOL0     H82779   7.027   7.380   6.366  0.6129 -1.5283  0.7877
  600MOL0     H82780   7.220   6.738   5.870  3.1021  1.1530 -0.1268
  600MOL0     H82781   7.393   6.582   5.795  0.0458  4.2014  1.4255
  600MOL0     H82782   7.384   6.199   5.586 -0.2812 -1.4761  0.3048
  600MOL0     H82783   7.458   5.977   5.552  0.8132 -0.7260 -1.6053
  600MOL0     H82784   8.109   4.622   5.539  2.1440 -0.2982 -2.2055
  600MOL0     H82785   7.849   4.622   5.566  0.4109 -0.0820 -0.6201
  600MOL0     H82786   7.413   4.643   5.723 -0.0029 -2.3060 -0.7253
  600MOL0     H82787   7.182   4.608   5.688  0.9871 -1.7715 -1.5136
  600MOL0     H82788   6.849   4.775   5.583 -0.1092  0.0590 -1.7080
  600MOL0     H82789   6.950   4.637   5.647  0.3881 -0.1185 -1.8298
  600MOL0     H82790   6.979   4.936   5.708  0.4283  1.6180  3.2790
  600MOL0     H82791   7.080   4.824   5.777  0.1592  0.3185 -0.6611
  600MOL0     H82792   6.956   4.861   5.949 -1.1272  0.5576  0.4064
  600MOL0     H82793   6.805   4.868   5.867  1.0540  2.7632  4.0493
  600MOL0     H82794   6.803   4.619   5.831  1.3960 -3.4744  0.4572
  600MOL0     H82795   6.806   4.671   5.999  0.2616 -0.6614 -0.4557
  600MOL0     H82796   7.137   4.430   5.882 -2.6514 -1.6951  0.4048
  600MOL0     H82797   7.203   4.825   5.331  1.7909 -0.8314 -2.0475
  600MOL0     H82798   7.389   4.833   5.220 -1.3264 -1.7085  1.5015
  600MOL0     H82799   7.430   4.976   5.321 -0.4426 -0.1935  2.9681
  600MOL0     H82800   7.553   4.857   5.274 -1.8844  0.9624 -2.8330
  601MOL0     O82801   2.845  10.184   5.295  0.0259  0.0272 -0.0792
  601MOL0     C82802   2.731  10.144   5.265 -0.1218  0.1145  0.9816
  601MOL0     O82803   2.711  10.037   5.181  0.2292  0.1953 -0.1338
  601MOL0     C82804   2.810   9.950   5.166 -0.0052 -0.2980  0.3365
  601MOL0     C82805   2.921   9.962   5.074 -0.7039  0.5279 -0.1641
  601MOL0     C82806   3.022   9.859   5.042  0.5823 -0.4245  0.1501
  601MOL0     C82807   3.014   9.740   5.109 -0.8005  0.1594  0.5047
  601MOL0     O82808   3.109   9.642   5.099  0.5246  0.3128 -0.0452
  601MOL0     C82809   3.247   9.680   5.075 -0.9388 -0.7763 -0.4667
  601MOL0     C82810   3.353   9.568   5.076  0.1168  0.3766 -0.4862
  601MOL0     C82811   3.483   9.617   5.025  0.5570  0.3645  0.2811
  601MOL0     C82812   3.572   9.495   4.990  0.1354 -0.4201  0.0541
  601MOL0     C82813   3.713   9.525   4.929 -0.7692 -0.1603  1.0330
  601MOL0     C82814   3.812   9.562   5.030  0.7651  0.7607  0.0895
  601MOL0     C82815   3.950   9.570   4.969 -0.1895 -0.4115  0.6354
  601MOL0     C82816   4.030   9.447   4.990 -0.2327  0.4955 -0.0679
  601MOL0     N82817   3.971   9.316   4.938 -0.5080 -0.4953 -0.2794
  601MOL0     C82818   3.960   9.286   4.809  0.0705 -0.0012  1.1729
  601MOL0     C82819   3.892   9.168   4.810 -0.0662 -0.0444 -0.4102
  601MOL0     C82820   3.830   9.080   4.707 -0.2558 -0.3301 -0.1301
  601MOL0     C82821   3.690   9.115   4.670  0.0367 -0.2004  1.2271
  601MOL0     C82822   3.603   9.005   4.611  0.2685  0.2444  0.3046
  601MOL0     C82823   3.477   9.058   4.544 -0.2724 -0.7829  0.1311
  601MOL0     O82824   3.475   9.098   4.403  0.3840 -0.3661 -0.7340
  601MOL0     C82825   3.486   9.014   4.296 -0.1369  1.3045  0.4346
  601MOL0     C82826   3.494   9.067   4.160  0.2703 -0.8545 -0.6206
  601MOL0     C82827   3.514   8.983   4.048  0.1872 -0.0151  0.7502
  601MOL0     C82828   3.503   9.053   3.916 -0.4197 -1.0370  0.7609
  601MOL0     C82829   3.512   8.841   4.065 -0.2880  0.5918  0.6752
  601MOL0     C82830   3.513   8.742   3.951  0.5775 -0.5619 -0.1114
  601MOL0     O82831   3.540   8.614   3.991  0.4656 -0.0387 -0.1814
  601MOL0     C82832   3.582   8.511   3.906  0.7055 -0.5180 -0.7775
  601MOL0     C82833   3.610   8.502   3.770 -0.9860  0.1206 -0.8550
  601MOL0     C82834   3.656   8.383   3.724  0.0701  0.3709  1.2756
  601MOL0     C82835   3.676   8.265   3.799 -0.0709  0.2687 -0.1900
  601MOL0     O82836   3.736   8.150   3.741  0.4734  0.1005 -0.6582
  601MOL0     C82837   3.771   8.045   3.825  1.0788 -0.4973 -1.1063
  601MOL0     C82838   3.845   7.949   3.727 -0.6589  1.1995  0.8811
  601MOL0     C82839   3.952   7.860   3.794  0.2488  0.3859 -0.8233
  601MOL0     C82840   3.891   7.783   3.913 -0.6885 -0.3312  0.1924
  601MOL0     C82841   3.839   7.647   3.864  0.4624 -0.6783 -0.3912
  601MOL0     C82842   3.938   7.541   3.804  0.2747 -0.1156 -0.2823
  601MOL0     C82843   3.870   7.411   3.757 -0.7105 -0.7031  0.4600
  601MOL0     C82844   3.745   7.428   3.664 -0.0073 -1.2485  0.2045
  601MOL0    Cl82845   3.763   7.552   3.542 -0.3474 -0.0848 -0.1807
  601MOL0     C82846   3.636   8.278   3.926 -1.1727  0.1843 -1.0323
  601MOL0     C82847   3.590   8.398   3.988 -0.2676 -0.2439 -0.9004
  601MOL0     O82848   3.492   8.781   3.839 -0.3866 -1.0634  0.1040
  601MOL0     C82849   3.503   8.786   4.194  0.0696  0.1411 -0.0691
  601MOL0     C82850   3.492   8.875   4.307 -0.1637 -0.4102  0.9041
  601MOL0     N82851   3.878   9.127   4.942  0.3680 -0.4211  0.0276
  601MOL0     N82852   3.914   9.220   5.016 -0.2156 -0.2623  0.7048
  601MOL0     C82853   2.906   9.724   5.203 -0.0634  0.4906 -0.2235
  601MOL0     C82854   2.811   9.832   5.228 -0.6100  1.3785  0.2187
  601MOL0     C82855   2.618  10.210   5.329 -0.1096  0.4537  0.2779
  601MOL0     C82856   2.635  10.329   5.406  0.6256 -0.1006  1.5795
  601MOL0     C82857   2.523  10.386   5.466 -0.3446 -0.3469 -0.5522
  601MOL0     C82858   2.397  10.333   5.458 -0.3657 -0.0167  0.1499
  601MOL0     O82859   2.305  10.400   5.522 -0.2393 -1.1614 -0.6890
  601MOL0     C82860   2.180  10.335   5.545  0.3722  0.0712 -0.5446
  601MOL0     C82861   2.079  10.403   5.631 -0.1621  0.1823 -0.1812
  601MOL0     C82862   2.157  10.484   5.744  0.0277 -0.3026 -0.4274
  601MOL0     C82863   2.083  10.528   5.871 -0.8411 -0.1514  0.1714
  601MOL0     C82864   2.003  10.651   5.844 -0.1995  1.5983  0.0533
  601MOL0     C82865   1.919  10.730   5.802 -0.1321 -0.0123  1.1866
  601MOL0     C82866   2.381  10.221   5.379 -0.1971 -0.0175  1.3435
  601MOL0     C82867   2.490  10.148   5.317  0.3194  0.2646  1.2807
  601MOL0     C82868   2.461  10.012   5.268  0.3755  0.4358 -0.4880
  601MOL0     H82869   2.931  10.061   5.030 -1.9293  1.7305  2.0920
  601MOL0     H82870   3.102   9.903   4.983  1.2299 -3.7936 -1.7547
  601MOL0     H82871   3.285   9.743   5.156  3.5111 -2.3944 -0.9936
  601MOL0     H82872   3.250   9.735   4.980 -0.5362  0.2744  0.1374
  601MOL0     H82873   3.359   9.536   5.181 -1.8808  1.1549 -0.0876
  601MOL0     H82874   3.329   9.484   5.010 -0.4005 -0.8990  1.2348
  601MOL0     H82875   3.475   9.670   4.930  0.4897 -1.1448 -0.5902
  601MOL0     H82876   3.538   9.668   5.105  2.7824 -2.6633  0.8790
  601MOL0     H82877   3.587   9.439   5.082 -2.0667  1.4640  1.6587
  601MOL0     H82878   3.523   9.426   4.921 -1.3126 -0.0973  0.7260
  601MOL0     H82879   3.709   9.610   4.860 -0.4458  1.3633  2.8089
  601MOL0     H82880   3.749   9.433   4.881  0.3905 -0.4361  2.3777
  601MOL0     H82881   3.780   9.658   5.073 -0.5057 -0.0797  1.0949
  601MOL0     H82882   3.813   9.480   5.102  4.2702  1.4039  0.9677
  601MOL0     H82883   3.994   9.653   5.024 -1.2671 -1.2431  2.8661
  601MOL0     H82884   3.950   9.592   4.862  0.1399  1.3353  0.9611
  601MOL0     H82885   4.121   9.459   4.930 -0.5554 -0.8869 -0.8913
  601MOL0     H82886   4.055   9.443   5.096 -1.1104 -0.9119  0.1145
  601MOL0     H82887   3.985   9.340   4.719  2.8177 -1.8477  0.7293
  601MOL0     H82888   3.828   8.975   4.737  0.6394 -1.4852 -3.5875
  601MOL0     H82889   3.896   9.078   4.620 -0.1566  1.4729 -0.1234
  601MOL0     H82890   3.636   9.143   4.761 -1.5305  1.3307 -0.1034
  601MOL0     H82891   3.681   9.193   4.595  0.1174 -0.7470  0.6436
  601MOL0     H82892   3.671   8.954   4.542  0.9466  1.5677 -0.0481
  601MOL0     H82893   3.571   8.941   4.693  1.6104 -0.3032  0.4258
  601MOL0     H82894   3.407   8.974   4.543  1.1695 -2.0414  1.1977
  601MOL0     H82895   3.444   9.142   4.606  0.6734  0.7161 -1.2896
  601MOL0     H82896   3.477   9.174   4.153 -0.9670 -0.9358  0.5706
  601MOL0     H82897   3.402   9.038   3.875  0.0927  0.9222 -1.4360
  601MOL0     H82898   3.576   9.032   3.838 -2.6112 -0.4228 -1.5843
  601MOL0     H82899   3.498   9.159   3.943  2.5330 -0.9960  1.4502
  601MOL0     H82900   3.604   8.590   3.707 -0.9665  0.2590 -0.6618
  601MOL0     H82901   3.698   8.365   3.626  0.1415 -2.1729  1.6952
  601MOL0     H82902   3.833   8.065   3.913  1.0140 -0.4504 -1.0714
  601MOL0     H82903   3.679   7.997   3.859  0.5211  1.9036  1.0329
  601MOL0     H82904   3.771   7.886   3.676 -1.6303  0.7450  2.7936
  601MOL0     H82905   3.895   8.010   3.650 -0.0560 -0.3994 -0.0598
  601MOL0     H82906   4.031   7.926   3.831 -2.0195  2.6073  0.3388
  601MOL0     H82907   3.986   7.789   3.717  0.8142 -0.3164  0.0579
  601MOL0     H82908   3.819   7.834   3.977  0.0830  2.0492 -0.7139
  601MOL0     H82909   3.976   7.754   3.977 -0.1221 -1.4783 -1.0247
  601MOL0     H82910   3.786   7.599   3.946 -0.5128  0.9049 -0.0390
  601MOL0     H82911   3.757   7.665   3.793 -0.5835 -2.1008  0.3984
  601MOL0     H82912   4.012   7.520   3.882  0.8707  2.8519  0.0523
  601MOL0     H82913   3.973   7.581   3.708  0.5287 -1.5969 -0.8361
  601MOL0     H82914   3.849   7.337   3.834  1.4072 -0.1535  1.6367
  601MOL0     H82915   3.940   7.364   3.688  0.9498 -0.3528  1.8544
  601MOL0     H82916   3.658   7.468   3.716 -1.8285 -2.8428 -1.4440
  601MOL0     H82917   3.715   7.332   3.622 -1.1382 -0.6178 -0.4792
  601MOL0     H82918   3.652   8.201   4.001 -2.9555  1.7223  1.0623
  601MOL0     H82919   3.558   8.404   4.091  2.8971  0.1769  0.1673
  601MOL0     H82920   3.500   8.679   4.212 -4.3777 -0.0247 -0.6474
  601MOL0     H82921   3.477   8.841   4.409 -2.0604  1.7708  1.4324
  601MOL0     H82922   2.895   9.627   5.251 -3.9245 -0.0161 -1.7730
  601MOL0     H82923   2.731   9.806   5.297 -0.3138 -1.1322 -0.2908
  601MOL0     H82924   2.731  10.378   5.415 -0.2907  1.8302  1.4395
  601MOL0     H82925   2.530  10.478   5.522 -0.5056 -0.7591  0.1647
  601MOL0     H82926   2.124  10.309   5.455 -1.4154 -1.8305  1.0259
  601MOL0     H82927   2.210  10.244   5.598 -0.6761 -0.6517 -1.1602
  601MOL0     H82928   2.012  10.341   5.691 -0.8413  1.8650  0.8836
  601MOL0     H82929   2.018  10.463   5.563 -1.2692 -0.2265  0.4307
  601MOL0     H82930   2.244  10.424   5.772  1.7184  0.4290 -3.5503
  601MOL0     H82931   2.200  10.575   5.700 -1.1109 -0.7514 -2.6362
  601MOL0     H82932   2.150  10.551   5.954 -0.1208 -0.2159 -0.3798
  601MOL0     H82933   2.031  10.437   5.902  0.6494  0.1093  3.9885
  601MOL0     H82934   1.864  10.813   5.764  4.5974  2.4518 -1.1696
  601MOL0     H82935   2.280  10.183   5.366 -0.7082  1.6095  0.1368
  601MOL0     H82936   2.533   9.948   5.319  1.6104  0.2360 -2.3684
  601MOL0     H82937   2.356   9.984   5.278  0.8912 -1.6115 -0.3425
  601MOL0     H82938   2.481  10.000   5.161 -0.5379  1.0489 -0.7337
  602MOL0     O82939   4.025   8.270  11.032  0.8098  0.3347 -0.2872
  602MOL0     C82940   3.959   8.360  10.986 -0.9322 -1.0893  0.3244
  602MOL0     O82941   3.827   8.398  11.013 -0.6747 -0.6983 -0.5161
  602MOL0     C82942   3.775   8.325  11.115 -1.2300 -0.6268  0.4478
  602MOL0     C82943   3.803   8.367  11.249  0.4855 -0.6084  0.1287
  602MOL0     C82944   3.760   8.284  11.359 -0.2343 -0.4528 -0.1239
  602MOL0     C82945   3.680   8.177  11.327  1.2790 -0.2144  0.0104
  602MOL0     O82946   3.623   8.112  11.428 -1.1565  0.3884  0.1747
  602MOL0     C82947   3.707   8.014  11.491  1.0005  0.1233 -0.5287
  602MOL0     C82948   3.626   7.943  11.596  0.4786 -0.3918  0.4320
  602MOL0     C82949   3.720   7.857  11.678 -0.4722  0.2119  0.1479
  602MOL0     C82950   3.703   7.905  11.831 -0.1165  0.6325 -0.4621
  602MOL0     C82951   3.759   7.806  11.928  0.3071  0.1799 -0.3227
  602MOL0     C82952   3.772   7.857  12.075  0.5412  0.3769 -0.8771
  602MOL0     C82953   3.874   7.964  12.100  0.2097 -0.2730 -0.1013
  602MOL0     C82954   3.883   7.997  12.251  0.2813 -0.0701  0.6453
  602MOL0     N82955   3.788   8.105  12.290 -0.3928  0.2427  0.1103
  602MOL0     C82956   3.813   8.244  12.277  0.7253  0.6102  0.6526
  602MOL0     C82957   3.709   8.298  12.344 -0.7180 -0.4073  0.0286
  602MOL0     C82958   3.683   8.446  12.354  0.7890  0.0880  0.9234
  602MOL0     C82959   3.612   8.512  12.230  0.0344  0.4438  0.6315
  602MOL0     C82960   3.626   8.663  12.216  0.6910 -0.4335 -0.7012
  602MOL0     C82961   3.546   8.708  12.095 -0.4170 -0.4426  0.4124
  602MOL0     O82962   3.518   8.854  12.103 -0.5599 -0.6216 -0.3236
  602MOL0     C82963   3.621   8.944  12.092 -0.1821  0.1624 -0.4528
  602MOL0     C82964   3.616   9.042  12.195  0.1576 -0.7052 -1.0452
  602MOL0     C82965   3.704   9.156  12.197 -0.2393  0.5238 -0.3608
  602MOL0     C82966   3.678   9.267  12.304 -0.4841  0.8535  0.3043
  602MOL0     C82967   3.802   9.161  12.097  0.7558  1.0403  0.4167
  602MOL0     C82968   3.905   9.276  12.088 -0.2804  0.6629 -0.6860
  602MOL0     O82969   4.020   9.261  12.011  0.8077  0.0954 -0.0400
  602MOL0     C82970   4.119   9.367  11.993 -0.8104 -0.2207  1.0366
  602MOL0     C82971   4.197   9.348  11.876 -0.3140 -0.1577  0.7834
  602MOL0     C82972   4.299   9.438  11.852 -0.2826 -0.3571  0.4946
  602MOL0     C82973   4.319   9.554  11.930  0.3586  0.0756  0.2477
  602MOL0     O82974   4.422   9.644  11.879 -0.2298  0.4862  0.1127
  602MOL0     C82975   4.463   9.753  11.954  0.0053  0.3128 -1.0374
  602MOL0     C82976   4.604   9.779  11.907  0.9746 -0.1211 -0.3908
  602MOL0     C82977   4.669   9.864  12.021 -0.3376 -0.1784  0.9303
  602MOL0     C82978   4.814   9.903  11.995  0.7411 -0.1667 -0.5124
  602MOL0     C82979   4.848   9.996  12.108 -0.1579  0.1259  0.7495
  602MOL0     C82980   4.855   9.914  12.241  0.5566  0.1017  0.5812
  602MOL0     C82981   4.957   9.989  12.320 -1.1433 -0.1572 -1.2562
  602MOL0     C82982   4.967   9.937  12.467 -0.4104  0.8932 -0.2734
  602MOL0    Cl82983   5.009  10.068  12.592 -0.1927  0.4786  0.2438
  602MOL0     C82984   4.244   9.576  12.040 -1.0880  0.4784 -1.0106
  602MOL0     C82985   4.148   9.475  12.079  0.0623  0.0542 -0.4067
  602MOL0     O82986   3.885   9.380  12.141 -0.2838  0.5391  0.3518
  602MOL0     C82987   3.815   9.052  12.004  0.8078  0.7099  0.0396
  602MOL0     C82988   3.719   8.947  11.995  0.1610  0.3544 -0.1550
  602MOL0     N82989   3.626   8.199  12.393  0.2367 -0.3231 -0.0762
  602MOL0     N82990   3.671   8.082  12.352  0.3852  0.5625 -0.1640
  602MOL0     C82991   3.664   8.126  11.196 -0.6272 -0.0112  0.1553
  602MOL0     C82992   3.726   8.194  11.088 -0.2554  0.0536 -0.1984
  602MOL0     C82993   4.017   8.424  10.867  0.9087  0.7061  0.7011
  602MOL0     C82994   4.105   8.354  10.783 -0.3498 -0.1681  0.4789
  602MOL0     C82995   4.164   8.420  10.675 -0.3224 -0.0421  0.3426
  602MOL0     C82996   4.124   8.552  10.639  0.7968  0.3597  0.2615
  602MOL0     O82997   4.167   8.594  10.522 -0.6985  0.2368  0.1216
  602MOL0     C82998   4.128   8.717  10.462 -0.5164  0.4594 -0.3319
  602MOL0     C82999   4.186   8.739  10.334  0.0704  0.2758  0.2147
  602MOL0     C83000   4.126   8.639  10.235  0.0199  0.2926  0.9123
  602MOL0     C83001   4.181   8.694  10.104 -0.8752  0.2727  1.0224
  602MOL0     C83002   4.102   8.646   9.995 -0.2145 -0.1287  0.4881
  602MOL0     C83003   4.046   8.612   9.891 -0.9808  1.1517 -0.2523
  602MOL0     C83004   4.029   8.617  10.712 -0.8090  0.7439 -0.1807
  602MOL0     C83005   3.971   8.559  10.823 -0.5137 -0.7253 -1.3328
  602MOL0     C83006   3.902   8.649  10.917  0.2463  0.1462 -1.0928
  602MOL0     H83007   3.852   8.461  11.271  2.9944 -2.4812  3.5414
  602MOL0     H83008   3.789   8.310  11.460  2.2514 -1.5597 -0.4649
  602MOL0     H83009   3.789   8.069  11.538  0.6316  0.9541 -0.8360
  602MOL0     H83010   3.743   7.947  11.413 -2.5570 -0.5164 -1.8013
  602MOL0     H83011   3.574   8.022  11.651 -0.6896 -2.4561  2.4733
  602MOL0     H83012   3.553   7.883  11.540  2.2826 -1.5487 -0.7744
  602MOL0     H83013   3.684   7.755  11.657  1.5835 -1.0311  2.1942
  602MOL0     H83014   3.823   7.863  11.644 -0.2981 -1.4282  0.2767
  602MOL0     H83015   3.769   7.990  11.851  0.0753  0.0149  1.7388
  602MOL0     H83016   3.607   7.947  11.861  0.6848  2.8836 -0.8289
  602MOL0     H83017   3.859   7.775  11.897  0.5021 -0.8722  1.2749
  602MOL0     H83018   3.688   7.722  11.925 -1.7869  1.7624  1.5372
  602MOL0     H83019   3.676   7.890  12.116  1.6110  1.3131  1.0078
  602MOL0     H83020   3.807   7.775  12.138  0.0917  2.0611  1.6979
  602MOL0     H83021   3.852   8.054  12.043  3.7957 -0.4221 -1.9555
  602MOL0     H83022   3.964   7.939  12.045 -0.6849  1.2306 -2.3803
  602MOL0     H83023   3.847   7.910  12.306  0.6759 -2.1841 -2.2565
  602MOL0     H83024   3.987   8.009  12.284 -0.3705  1.1764  2.3974
  602MOL0     H83025   3.900   8.292  12.233 -0.5769  2.6170  0.1340
  602MOL0     H83026   3.770   8.509  12.379  1.5533 -1.0319  1.1617
  602MOL0     H83027   3.618   8.462  12.440  0.5336  1.5523  0.4983
  602MOL0     H83028   3.639   8.473  12.132 -1.1511 -1.6762  1.0761
  602MOL0     H83029   3.506   8.497  12.253 -0.9823  3.5821 -1.4354
  602MOL0     H83030   3.595   8.706  12.312 -1.3180 -3.0479 -0.0750
  602MOL0     H83031   3.732   8.691  12.214 -0.2644  3.8639 -0.6310
  602MOL0     H83032   3.603   8.678  12.006 -0.4330 -1.8227  0.8522
  602MOL0     H83033   3.449   8.658  12.097 -0.0917 -1.3259 -1.9431
  602MOL0     H83034   3.549   9.050  12.280  0.5412  0.9021 -0.8509
  602MOL0     H83035   3.761   9.270  12.375  0.2933 -3.0128 -0.2647
  602MOL0     H83036   3.593   9.246  12.370  2.0057 -0.5371  3.3305
  602MOL0     H83037   3.655   9.364  12.259 -2.1666  1.6818  2.7369
  602MOL0     H83038   4.167   9.262  11.817  1.0364 -0.9259  1.1820
  602MOL0     H83039   4.350   9.419  11.758 -1.8643  2.8697 -1.1778
  602MOL0     H83040   4.395   9.836  11.934 -2.3436 -0.4888  2.5755
  602MOL0     H83041   4.457   9.734  12.062  0.7530  1.4249 -0.7767
  602MOL0     H83042   4.650   9.680  11.895 -1.4804 -1.0208 -4.5201
  602MOL0     H83043   4.617   9.844  11.820  0.9712 -1.1271 -1.1641
  602MOL0     H83044   4.672   9.790  12.102 -2.9396 -3.0052 -1.3437
  602MOL0     H83045   4.603   9.947  12.045 -0.8802 -0.8580  1.8815
  602MOL0     H83046   4.824   9.946  11.895  2.0430  0.9080  0.0322
  602MOL0     H83047   4.870   9.809  11.991  0.3563 -0.4465  0.4691
  602MOL0     H83048   4.951  10.028  12.085 -0.5843 -0.3704 -2.3591
  602MOL0     H83049   4.788  10.087  12.109  0.9867  0.9108  0.5093
  602MOL0     H83050   4.875   9.808  12.229  1.4191  0.2871  0.2891
  602MOL0     H83051   4.754   9.921  12.284  0.6893  0.3008  0.8688
  602MOL0     H83052   4.932  10.096  12.316  1.2502  0.4545 -1.1199
  602MOL0     H83053   5.058   9.987  12.278 -0.1550 -0.0143  1.0095
  602MOL0     H83054   5.037   9.854  12.484 -4.3677 -2.6258  0.3954
  602MOL0     H83055   4.868   9.898  12.489  0.6023 -0.2937  2.6849
  602MOL0     H83056   4.256   9.669  12.095  0.5373 -1.3076  1.9382
  602MOL0     H83057   4.079   9.490  12.162 -1.8858  2.0848 -2.2812
  602MOL0     H83058   3.888   9.054  11.923  0.6346 -0.4248 -0.1583
  602MOL0     H83059   3.711   8.873  11.917 -0.8584  0.1522  0.1186
  602MOL0     H83060   3.615   8.031  11.177  2.2056 -1.4031 -0.7376
  602MOL0     H83061   3.720   8.158  10.986  0.3911  1.7879 -0.8805
  602MOL0     H83062   4.139   8.252  10.799  1.1066  0.1141 -0.5787
  602MOL0     H83063   4.234   8.369  10.610 -0.5338 -0.8433  0.7313
  602MOL0     H83064   4.021   8.696  10.455 -0.9145  0.9524  2.7279
  602MOL0     H83065   4.157   8.801  10.525  0.2624  0.7478 -1.0693
  602MOL0     H83066   4.295   8.740  10.327  0.0963  2.5185  0.1703
  602MOL0     H83067   4.159   8.843  10.314  3.2694  1.2702  0.3845
  602MOL0     H83068   4.161   8.536  10.245 -0.9807 -0.4018 -1.7467
  602MOL0     H83069   4.017   8.649  10.237  0.0264  0.5391  0.2262
  602MOL0     H83070   4.287   8.669  10.094 -0.4489  0.5501  4.0578
  602MOL0     H83071   4.161   8.801  10.102 -1.5029  0.1604  1.1437
  602MOL0     H83072   3.977   8.575   9.818  0.7153 -0.0499 -1.3176
  602MOL0     H83073   4.003   8.720  10.693  0.6106  1.0301 -0.6299
  602MOL0     H83074   3.939   8.637  11.020  1.2477 -1.1388 -1.5706
  602MOL0     H83075   3.905   8.756  10.898 -1.2182  0.3751 -0.2211
  602MOL0     H83076   3.795   8.630  10.916 -0.0356  1.4552  0.0833
  603MOL0     O83077   0.213   8.486   6.660 -0.0517 -0.0615 -0.4463
  603MOL0     C83078   0.110   8.519   6.602 -0.1782 -0.5438 -0.9679
  603MOL0     O83079  -0.001   8.567   6.666 -0.4533 -0.6815 -0.7059
  603MOL0     C83080  -0.006   8.542   6.799  0.1683 -1.4387 -0.7687
  603MOL0     C83081  -0.110   8.461   6.854  0.6520 -0.4423  0.1378
  603MOL0     C83082  -0.133   8.460   6.997 -0.7079  0.0477 -1.6974
  603MOL0     C83083  -0.058   8.543   7.078 -0.5636  0.1171  0.1847
  603MOL0     O83084  -0.068   8.538   7.216  0.4434 -0.5757  0.0903
  603MOL0     C83085  -0.197   8.539   7.266  0.8024  0.6813  0.3948
  603MOL0     C83086  -0.198   8.619   7.395 -0.1552  0.2790  1.2322
  603MOL0     C83087  -0.170   8.767   7.375 -1.3613 -1.2758 -0.7346
  603MOL0     C83088  -0.093   8.818   7.507  0.7061  0.0670  0.5755
  603MOL0     C83089  -0.008   8.938   7.464 -0.4178  0.1828 -0.4408
  603MOL0     C83090  -0.097   9.067   7.459  0.3603  1.1581  0.0651
  603MOL0     C83091  -0.032   9.196   7.477  0.0205  0.1531 -0.0893
  603MOL0     C83092   0.062   9.237   7.365 -0.3868  0.4754  0.1307
  603MOL0     N83093   0.062   9.385   7.368 -0.3803  1.3714  0.3635
  603MOL0     C83094   0.149   9.467   7.441  0.1334  0.5764  0.0428
  603MOL0     C83095   0.115   9.598   7.400 -0.1062  0.4534  0.2364
  603MOL0     C83096   0.185   9.714   7.456  0.4469  0.0511  0.0289
  603MOL0     C83097   0.132   9.842   7.395  0.3261 -0.3433  0.2713
  603MOL0     C83098   0.195   9.975   7.472 -0.0887  0.0994 -0.0212
  603MOL0     C83099   0.135  10.021   7.610  0.1123  0.0897  0.7341
  603MOL0     O83100   0.171   9.930   7.718 -0.2761  0.0377 -0.4636
  603MOL0     C83101   0.106   9.944   7.837 -0.0764 -0.7509  0.2761
  603MOL0     C83102   0.133   9.854   7.934  0.9393  0.8831 -0.0422
  603MOL0     C83103   0.089   9.861   8.069  1.0832  0.5646 -0.2418
  603MOL0     C83104   0.111   9.741   8.160 -0.1728 -0.4869  0.3661
  603MOL0     C83105   0.006   9.978   8.105 -0.4494 -0.1739 -0.4736
  603MOL0     C83106  -0.038  10.009   8.249  0.0858 -1.0547  0.3783
  603MOL0     O83107  -0.079  10.145   8.256 -0.2279 -0.3503 -0.3648
  603MOL0     C83108  -0.097  10.206   8.378  0.7707 -1.5725 -0.4715
  603MOL0     C83109  -0.186  10.319   8.384 -0.8764  0.4140  0.0342
  603MOL0     C83110  -0.215  10.377   8.505 -1.1094  0.5029 -0.1251
  603MOL0     C83111  -0.177  10.331   8.630  0.3974 -0.7610 -0.0263
  603MOL0     O83112  -0.222  10.394   8.737  0.3316  0.2174  0.0517
  603MOL0     C83113  -0.201  10.336   8.861  0.3407 -0.2041 -0.0101
  603MOL0     C83114  -0.264  10.421   8.971  0.3069 -0.9677 -0.1711
  603MOL0     C83115  -0.411  10.419   8.989  0.1084  0.0185 -0.7684
  603MOL0     C83116  -0.461  10.463   9.131 -0.2493 -0.4766  0.6077
  603MOL0     C83117  -0.473  10.335   9.217  0.4288 -0.3920 -0.4369
  603MOL0     C83118  -0.512  10.360   9.367 -0.2829 -0.0301 -0.6410
  603MOL0     C83119  -0.609  10.477   9.411 -0.0599 -0.3379 -0.7111
  603MOL0     C83120  -0.574  10.505   9.551  0.6916 -0.9171 -0.3006
  603MOL0    Cl83121  -0.676  10.651   9.587  0.4397  0.0763  0.4579
  603MOL0     C83122  -0.086  10.223   8.629 -0.3612  0.5728 -0.4684
  603MOL0     C83123  -0.053  10.158   8.507 -0.4925 -0.3815 -0.0243
  603MOL0     O83124  -0.027   9.930   8.340 -0.3052 -0.2911 -0.1374
  603MOL0     C83125  -0.027  10.067   7.998 -0.1482  0.1638  1.1481
  603MOL0     C83126   0.018  10.053   7.865  0.4755  0.3032 -0.1255
  603MOL0     N83127   0.005   9.588   7.316 -0.1855 -0.1008 -1.0790
  603MOL0     N83128  -0.016   9.461   7.289  0.3480  0.2186 -0.3893
  603MOL0     C83129   0.049   8.620   7.024 -0.4002 -0.9904 -0.0264
  603MOL0     C83130   0.073   8.619   6.887  0.5961  0.2148  0.4060
  603MOL0     C83131   0.092   8.497   6.457  0.2489  1.4419  0.2751
  603MOL0     C83132  -0.042   8.493   6.408 -0.4461 -0.1277  0.5130
  603MOL0     C83133  -0.072   8.490   6.273 -0.3595 -0.3338  0.7968
  603MOL0     C83134   0.032   8.481   6.176 -0.0927  0.1359 -0.0177
  603MOL0     O83135   0.025   8.494   6.047 -0.4073 -0.1561  0.4951
  603MOL0     C83136   0.033   8.361   5.990  0.0743 -0.5634  0.8813
  603MOL0     C83137   0.048   8.365   5.841 -0.3589  0.8910  0.3425
  603MOL0     C83138  -0.105   8.348   5.783 -0.7623 -0.2394  0.2056
  603MOL0     C83139  -0.097   8.325   5.637  0.3440  0.5224  0.6991
  603MOL0     C83140  -0.049   8.199   5.586 -0.0762  0.1920  0.0544
  603MOL0     C83141  -0.031   8.087   5.533 -0.0244 -0.8955 -0.9680
  603MOL0     C83142   0.166   8.473   6.222 -0.8019  0.3178 -0.1526
  603MOL0     C83143   0.199   8.477   6.360 -0.8702  0.3204 -0.3447
  603MOL0     C83144   0.345   8.489   6.392  0.5100 -0.6204  0.8842
  603MOL0     H83145  -0.182   8.407   6.793  1.9696 -2.0946 -0.0153
  603MOL0     H83146  -0.201   8.397   7.054  1.5682 -0.4998  0.5832
  603MOL0     H83147  -0.216   8.435   7.293  0.3917  1.3305  2.7729
  603MOL0     H83148  -0.268   8.576   7.192  2.9377 -0.4759 -2.4304
  603MOL0     H83149  -0.292   8.600   7.447 -0.1386 -2.0009  0.5200
  603MOL0     H83150  -0.127   8.571   7.462 -0.3990 -1.5450  0.2429
  603MOL0     H83151  -0.096   8.773   7.294  1.7933 -0.9396  1.9390
  603MOL0     H83152  -0.253   8.835   7.360 -0.7300 -0.3092  0.0528
  603MOL0     H83153  -0.161   8.848   7.587  3.6411  3.1986  2.1504
  603MOL0     H83154  -0.043   8.730   7.549 -1.5597 -1.3021  0.5856
  603MOL0     H83155   0.058   8.917   7.379 -0.1772  2.1291 -0.7768
  603MOL0     H83156   0.054   8.950   7.553 -2.4400 -1.6831  1.3590
  603MOL0     H83157  -0.136   9.071   7.357  0.5840  1.0772 -0.0238
  603MOL0     H83158  -0.185   9.057   7.524  0.5600  1.9738  0.4782
  603MOL0     H83159   0.034   9.191   7.564  0.2190  1.8304 -0.0927
  603MOL0     H83160  -0.108   9.273   7.494 -0.5150  0.4475 -3.2692
  603MOL0     H83161   0.162   9.192   7.377 -0.3960  0.5218  0.4098
  603MOL0     H83162   0.032   9.214   7.263 -1.1552  4.5256 -0.7072
  603MOL0     H83163   0.225   9.434   7.512 -1.9586 -0.7657  1.7712
  603MOL0     H83164   0.294   9.706   7.453  0.7350  3.1506 -0.9127
  603MOL0     H83165   0.161   9.717   7.563  2.8231 -0.8645  0.6623
  603MOL0     H83166   0.148   9.838   7.287 -1.0340 -1.2577  0.0895
  603MOL0     H83167   0.023   9.834   7.403  0.1477  0.7250 -0.6800
  603MOL0     H83168   0.299   9.954   7.498 -0.3546 -0.7104  0.4096
  603MOL0     H83169   0.192  10.057   7.399  3.4372 -0.2613 -0.7395
  603MOL0     H83170   0.161  10.123   7.639 -1.4889  0.1380  2.1862
  603MOL0     H83171   0.026  10.007   7.605  0.2236 -0.9175  0.8472
  603MOL0     H83172   0.186   9.768   7.894 -1.5175 -0.5416 -0.4378
  603MOL0     H83173   0.013   9.701   8.187 -4.2178  6.2497 -1.8779
  603MOL0     H83174   0.186   9.756   8.239  0.4066  0.5674 -0.3688
  603MOL0     H83175   0.153   9.664   8.096 -0.4897 -0.3989  0.0492
  603MOL0     H83176  -0.242  10.365   8.304 -2.6743  2.2495  2.2176
  603MOL0     H83177  -0.274  10.467   8.494  0.8065  1.4999 -3.7350
  603MOL0     H83178  -0.259  10.244   8.862 -3.1611  1.7367  2.8512
  603MOL0     H83179  -0.095  10.332   8.889  0.3186 -0.5654  0.0218
  603MOL0     H83180  -0.214  10.391   9.063 -2.3138 -1.2736  1.2633
  603MOL0     H83181  -0.219  10.519   8.954 -1.3451 -0.4246 -1.7865
  603MOL0     H83182  -0.443  10.316   8.971  2.6096 -0.3233 -4.0983
  603MOL0     H83183  -0.463  10.486   8.919 -1.9158  0.9590  1.4852
  603MOL0     H83184  -0.558  10.513   9.125  0.2895  0.4968 -0.4252
  603MOL0     H83185  -0.400  10.541   9.177 -1.6614  1.9911 -1.4857
  603MOL0     H83186  -0.537  10.260   9.168  1.9502 -1.1736 -1.3069
  603MOL0     H83187  -0.377  10.282   9.211  1.1200  0.9752 -2.1800
  603MOL0     H83188  -0.413  10.377   9.411 -0.3480 -2.7744  0.7795
  603MOL0     H83189  -0.539  10.265   9.415  1.8339  0.2925  1.3831
  603MOL0     H83190  -0.715  10.449   9.407 -0.3442  0.7316 -1.1346
  603MOL0     H83191  -0.589  10.568   9.355  0.3929 -0.0214 -0.0477
  603MOL0     H83192  -0.468  10.530   9.560  0.8029 -1.4468 -0.1290
  603MOL0     H83193  -0.595  10.425   9.622 -0.2536  0.7089  1.3381
  603MOL0     H83194  -0.041  10.176   8.716  4.5619 -2.2347 -4.0353
  603MOL0     H83195   0.004  10.067   8.518  1.4342  1.0355  2.7750
  603MOL0     H83196  -0.055  10.169   8.023  5.0865  2.6502 -1.5850
  603MOL0     H83197  -0.003  10.136   7.799 -3.0302  1.1211  1.7603
  603MOL0     H83198   0.109   8.685   7.087  1.6681 -1.3594 -1.5227
  603MOL0     H83199   0.144   8.676   6.828 -2.4910 -0.3997 -4.5813
  603MOL0     H83200  -0.127   8.492   6.477  1.4765  1.5280  3.0799
  603MOL0     H83201  -0.177   8.489   6.244 -0.8810  0.2684  2.5273
  603MOL0     H83202   0.125   8.308   6.015  1.1939  1.3236  0.9634
  603MOL0     H83203  -0.047   8.299   6.030 -1.5583  1.0632  0.2880
  603MOL0     H83204   0.099   8.274   5.805 -0.2010  0.8289  0.7258
  603MOL0     H83205   0.094   8.462   5.821  0.5654  0.3108 -0.4409
  603MOL0     H83206  -0.160   8.267   5.832  1.9671 -2.9106 -0.8169
  603MOL0     H83207  -0.150   8.447   5.789 -0.7583  0.0603 -3.0835
  603MOL0     H83208  -0.032   8.405   5.600 -0.0823  0.9398  0.8355
  603MOL0     H83209  -0.193   8.335   5.584 -0.4193 -2.7824  1.2564
  603MOL0     H83210  -0.029   7.990   5.488 -4.1929 -0.7168 -2.0029
  603MOL0     H83211   0.237   8.485   6.141 -0.7530  0.8144 -0.0397
  603MOL0     H83212   0.388   8.388   6.393 -0.2289 -1.1517 -3.1742
  603MOL0     H83213   0.398   8.541   6.311  0.2428  0.1843  1.2088
  603MOL0     H83214   0.362   8.545   6.484 -1.9618 -0.2866  1.1941
  604MOL0     O83215   3.988   1.913   6.909  0.5019  0.1664 -0.6707
  604MOL0     C83216   3.998   1.844   7.014  0.0328 -0.1053 -0.0690
  604MOL0     O83217   3.897   1.766   7.061 -0.3074 -0.1273  0.6458
  604MOL0     C83218   3.777   1.760   6.994  1.0340  0.3409 -0.7735
  604MOL0     C83219   3.694   1.868   6.989  0.0790 -0.0032 -0.3754
  604MOL0     C83220   3.562   1.857   6.934 -0.7442 -0.2487  0.8107
  604MOL0     C83221   3.521   1.737   6.882  0.0898  0.3283 -0.0704
  604MOL0     O83222   3.391   1.726   6.825 -0.1684 -0.0498 -0.1351
  604MOL0     C83223   3.376   1.651   6.701  0.0499  0.0151 -1.3462
  604MOL0     C83224   3.459   1.704   6.580  0.2578  0.3338 -0.6749
  604MOL0     C83225   3.417   1.653   6.443 -0.4619  0.3342 -0.6800
  604MOL0     C83226   3.348   1.765   6.368 -0.3662 -0.3357  0.0354
  604MOL0     C83227   3.458   1.864   6.315 -0.7413 -0.2667  0.1826
  604MOL0     C83228   3.410   1.937   6.193  0.7672 -0.4434 -0.2502
  604MOL0     C83229   3.282   2.027   6.222 -0.9687  0.1642 -0.3614
  604MOL0     C83230   3.258   2.134   6.117 -0.4263 -0.6090 -0.3110
  604MOL0     N83231   3.252   2.077   5.982  0.3892 -0.2740  0.0461
  604MOL0     C83232   3.170   1.969   5.942  0.3561 -0.3756  0.8047
  604MOL0     C83233   3.204   1.955   5.817  0.4680  0.2315  0.2610
  604MOL0     C83234   3.140   1.844   5.728 -0.1652 -0.5714 -0.0099
  604MOL0     C83235   3.160   1.697   5.771 -0.8964 -0.3103 -0.6088
  604MOL0     C83236   3.099   1.592   5.674  0.3407 -0.5391 -1.2079
  604MOL0     C83237   3.077   1.460   5.750 -0.0283  1.2846 -0.4147
  604MOL0     O83238   2.944   1.443   5.807 -0.0709  0.5622  0.3970
  604MOL0     C83239   2.918   1.351   5.905 -0.2676  0.7670  0.0159
  604MOL0     C83240   3.004   1.344   6.020  0.6035  0.2767 -0.0414
  604MOL0     C83241   2.988   1.245   6.118  0.0483 -0.6022  0.9449
  604MOL0     C83242   3.073   1.264   6.236  0.4183 -0.2537 -0.5284
  604MOL0     C83243   2.874   1.166   6.121  0.8228  0.3586 -0.1588
  604MOL0     C83244   2.847   1.063   6.223 -0.1902  0.7422 -0.3519
  604MOL0     O83245   2.720   1.036   6.263 -1.2441 -0.2186 -0.3158
  604MOL0     C83246   2.697   0.933   6.342 -0.2685  0.6855 -0.5601
  604MOL0     C83247   2.713   0.944   6.479  0.6676 -0.2645 -0.1789
  604MOL0     C83248   2.686   0.834   6.565  0.0503 -0.4787  0.9835
  604MOL0     C83249   2.623   0.716   6.519 -0.0491 -0.0731 -0.0954
  604MOL0     O83250   2.577   0.606   6.590  0.4413  0.3330  0.5158
  604MOL0     C83251   2.540   0.619   6.728  0.3173 -0.1887  0.0326
  604MOL0     C83252   2.417   0.714   6.754 -0.0699  0.0883  0.8796
  604MOL0     C83253   2.306   0.676   6.650  0.0500  0.1303 -0.2973
  604MOL0     C83254   2.170   0.754   6.674  0.1595  0.2214  0.1946
  604MOL0     C83255   2.178   0.903   6.613 -0.1855 -0.4905  0.8332
  604MOL0     C83256   2.058   0.998   6.632 -0.5418  0.6682  0.7061
  604MOL0     C83257   2.075   1.127   6.561  0.4447  0.4772 -0.0073
  604MOL0     C83258   1.954   1.218   6.591  0.4650  1.0792  0.1128
  604MOL0    Cl83259   1.819   1.183   6.479  0.2993  0.2949  0.3767
  604MOL0     C83260   2.607   0.701   6.376  1.1416 -1.3885 -0.6756
  604MOL0     C83261   2.640   0.815   6.297 -0.0586 -0.4466  1.0823
  604MOL0     O83262   2.947   1.010   6.268  0.3269  0.5242  0.3075
  604MOL0     C83263   2.769   1.194   6.019  0.3157  1.0997  0.7834
  604MOL0     C83264   2.795   1.280   5.912 -0.0708 -0.3047  0.4978
  604MOL0     N83265   3.305   2.045   5.775  0.0723 -0.6794  0.2567
  604MOL0     N83266   3.337   2.112   5.880 -0.8501  0.0393  0.4072
  604MOL0     C83267   3.610   1.628   6.887  0.0382  0.2576 -0.1500
  604MOL0     C83268   3.742   1.640   6.925 -0.8620 -0.0076 -0.4942
  604MOL0     C83269   4.119   1.845   7.092 -0.9711  0.2863 -0.0700
  604MOL0     C83270   4.135   1.737   7.181 -0.9444  0.5069 -0.2442
  604MOL0     C83271   4.259   1.722   7.257 -0.0463  0.0112  0.4447
  604MOL0     C83272   4.354   1.816   7.239 -0.5290 -0.2127 -1.2648
  604MOL0     O83273   4.479   1.816   7.303 -0.2591 -0.2911 -0.5349
  604MOL0     C83274   4.528   1.698   7.358  0.2501  0.4899 -0.5143
  604MOL0     C83275   4.674   1.717   7.400 -0.2130 -0.6051 -0.0485
  604MOL0     C83276   4.698   1.649   7.538  0.2679  0.0069  0.0925
  604MOL0     C83277   4.845   1.622   7.591 -0.7195  0.1969 -0.6298
  604MOL0     C83278   4.835   1.519   7.703 -0.8826 -0.3980 -0.4637
  604MOL0     C83279   4.846   1.442   7.804  0.2778  0.0469 -0.1467
  604MOL0     C83280   4.336   1.929   7.165  0.5096  0.0207  0.5025
  604MOL0     C83281   4.217   1.947   7.096  0.2354 -0.4277 -0.3256
  604MOL0     C83282   4.195   2.088   7.038 -0.8134  0.8975 -1.4181
  604MOL0     H83283   3.715   1.964   7.035  0.8145  0.3595 -1.4237
  604MOL0     H83284   3.497   1.943   6.921  1.5359  1.4578 -0.0857
  604MOL0     H83285   3.269   1.647   6.680 -0.9408 -0.2198  2.8093
  604MOL0     H83286   3.407   1.547   6.710  2.7104  0.8545  0.0893
  604MOL0     H83287   3.482   1.810   6.591 -0.5721  0.2817  2.1417
  604MOL0     H83288   3.560   1.662   6.592  0.2045  0.3258 -0.2728
  604MOL0     H83289   3.504   1.622   6.385  2.3152 -0.7947  3.5792
  604MOL0     H83290   3.361   1.560   6.455 -0.1547  0.4358  2.7206
  604MOL0     H83291   3.300   1.728   6.277  2.6004 -1.6222 -1.1271
  604MOL0     H83292   3.277   1.821   6.429  2.1730  1.0855  1.8886
  604MOL0     H83293   3.554   1.813   6.302 -1.0844 -0.3513 -2.7089
  604MOL0     H83294   3.477   1.937   6.394  1.6749 -1.2349  0.5926
  604MOL0     H83295   3.493   2.000   6.159  0.3990  0.0917 -0.1583
  604MOL0     H83296   3.382   1.867   6.113  1.1025  0.4932 -1.2100
  604MOL0     H83297   3.307   2.075   6.317  0.8462 -2.0229  0.3666
  604MOL0     H83298   3.193   1.964   6.229 -2.3588  1.8705 -1.9292
  604MOL0     H83299   3.164   2.181   6.150  1.1064  1.7235  1.0938
  604MOL0     H83300   3.338   2.209   6.121 -0.5839 -0.4740  1.0913
  604MOL0     H83301   3.095   1.921   6.004  0.7045 -0.8532  0.8679
  604MOL0     H83302   3.177   1.853   5.625 -1.2932  2.6128 -0.2441
  604MOL0     H83303   3.031   1.854   5.725 -0.4514 -2.8890  0.5521
  604MOL0     H83304   3.269   1.684   5.778 -0.7699  1.4161  2.3094
  604MOL0     H83305   3.116   1.682   5.870 -1.4001 -0.0270 -0.7902
  604MOL0     H83306   3.006   1.613   5.620 -0.6954 -3.5444 -0.8089
  604MOL0     H83307   3.172   1.573   5.594 -1.4413 -0.2118 -2.9884
  604MOL0     H83308   3.079   1.379   5.676 -2.8149  0.0046  0.7576
  604MOL0     H83309   3.153   1.435   5.825  0.0068  1.8389 -0.2637
  604MOL0     H83310   3.088   1.411   6.034  0.4762  0.6446 -0.9943
  604MOL0     H83311   3.006   1.254   6.321 -1.1265  0.7420 -1.5864
  604MOL0     H83312   3.125   1.360   6.232  1.4964 -0.8416 -1.7397
  604MOL0     H83313   3.147   1.184   6.244  0.9508  0.4113  1.7843
  604MOL0     H83314   2.754   1.038   6.514 -0.7050  0.9836 -1.7403
  604MOL0     H83315   2.705   0.846   6.671 -2.9513  4.6311  1.2829
  604MOL0     H83316   2.531   0.513   6.755  0.3965  0.2409  1.8076
  604MOL0     H83317   2.630   0.656   6.779 -0.4007  1.5428  0.1156
  604MOL0     H83318   2.388   0.696   6.858  0.7831 -2.4465  0.7538
  604MOL0     H83319   2.449   0.818   6.742 -0.6249  0.0375 -1.7908
  604MOL0     H83320   2.289   0.568   6.663  4.4303 -0.6649  0.6710
  604MOL0     H83321   2.336   0.697   6.547 -1.8112 -0.5734 -1.0183
  604MOL0     H83322   2.150   0.765   6.781 -1.4776 -0.6222  0.0022
  604MOL0     H83323   2.093   0.695   6.624  1.2195 -0.3537 -0.8115
  604MOL0     H83324   2.271   0.938   6.658  0.8618 -3.3929  1.1596
  604MOL0     H83325   2.198   0.890   6.506  0.4800  1.1998  0.7228
  604MOL0     H83326   2.049   1.011   6.740  1.5612 -0.5816  1.0839
  604MOL0     H83327   1.963   0.955   6.599 -1.1652  2.1567  0.4576
  604MOL0     H83328   2.093   1.122   6.453 -0.2952 -0.8063 -0.0946
  604MOL0     H83329   2.164   1.163   6.613  0.4578  1.3908 -0.6425
  604MOL0     H83330   1.980   1.324   6.596  0.2715  1.1080  0.5900
  604MOL0     H83331   1.922   1.199   6.694  0.2766 -2.8762 -0.5296
  604MOL0     H83332   2.559   0.610   6.343  1.6070 -0.8626 -2.9358
  604MOL0     H83333   2.623   0.812   6.190 -0.2095 -0.7800  1.1125
  604MOL0     H83334   2.681   1.130   6.014  0.3033  1.2276 -2.4645
  604MOL0     H83335   2.722   1.302   5.835  1.4243  0.5801 -0.7195
  604MOL0     H83336   3.581   1.532   6.845  1.4693  0.9059 -2.8333
  604MOL0     H83337   3.816   1.560   6.922 -0.4724  0.0649  2.9711
  604MOL0     H83338   4.081   1.643   7.177  0.9422 -0.6218 -0.4772
  604MOL0     H83339   4.277   1.631   7.314  1.8965 -0.8214 -1.3874
  604MOL0     H83340   4.469   1.666   7.444 -0.0573  1.0673 -0.5098
  604MOL0     H83341   4.526   1.610   7.292 -3.1223  0.6594 -0.8079
  604MOL0     H83342   4.690   1.823   7.421 -1.0196 -0.5386  0.2742
  604MOL0     H83343   4.736   1.673   7.322 -0.4078  0.6578 -0.9629
  604MOL0     H83344   4.643   1.712   7.608 -1.4836  0.6191 -1.7540
  604MOL0     H83345   4.655   1.548   7.538 -1.1946  0.5757  1.5048
  604MOL0     H83346   4.880   1.716   7.635 -2.4555  1.9249 -2.7509
  604MOL0     H83347   4.899   1.575   7.508 -1.5011 -3.1646  0.5739
  604MOL0     H83348   4.861   1.382   7.891  0.3733 -1.0690 -0.9137
  604MOL0     H83349   4.414   2.004   7.167 -0.5652  1.1793  0.6963
  604MOL0     H83350   4.272   2.100   6.961 -1.5368  1.3865 -2.0912
  604MOL0     H83351   4.098   2.106   6.991 -0.8449  1.5764 -1.1038
  604MOL0     H83352   4.212   2.162   7.116  0.6925  1.0221 -1.8233
  605MOL0     O83353   1.485   1.329  11.241  0.8707  0.9121 -0.4502
  605MOL0     C83354   1.443   1.254  11.150 -0.6313 -0.0706 -0.0234
  605MOL0     O83355   1.369   1.294  11.041 -0.3703 -0.5140 -0.1079
  605MOL0     C83356   1.313   1.417  11.024 -0.5577 -0.4176 -0.7931
  605MOL0     C83357   1.175   1.432  11.054 -0.4201 -0.3602 -0.2645
  605MOL0     C83358   1.117   1.557  11.034  0.2514 -0.8670 -0.9715
  605MOL0     C83359   1.196   1.661  10.989  0.0475 -0.0119  0.1903
  605MOL0     O83360   1.153   1.786  10.949  0.1367 -0.0017  0.2588
  605MOL0     C83361   1.017   1.797  10.912 -0.8578  0.5535  0.6819
  605MOL0     C83362   1.009   1.943  10.870 -0.0276  0.0014 -0.4833
  605MOL0     C83363   0.888   1.982  10.807  0.3128 -0.7039 -0.2051
  605MOL0     C83364   0.905   2.127  10.747 -0.1036  0.4501 -0.6456
  605MOL0     C83365   0.799   2.150  10.637  0.5541 -0.4259  0.0927
  605MOL0     C83366   0.775   2.297  10.649 -0.0125  0.3423 -0.0458
  605MOL0     C83367   0.666   2.341  10.549 -0.6967 -0.5149  0.0387
  605MOL0     C83368   0.653   2.494  10.555 -0.9991  0.2986  0.3292
  605MOL0     N83369   0.774   2.567  10.547  0.8153 -1.0309 -0.4869
  605MOL0     C83370   0.839   2.578  10.426 -0.9277  0.2274 -0.0446
  605MOL0     C83371   0.964   2.628  10.463  0.0216  0.2653  0.8024
  605MOL0     C83372   1.081   2.670  10.383  1.0780  0.3038 -0.8962
  605MOL0     C83373   1.164   2.547  10.349 -1.0274  0.6490  0.4628
  605MOL0     C83374   1.089   2.432  10.293 -0.2191 -0.4653  0.1443
  605MOL0     C83375   1.028   2.466  10.155 -0.5723  0.2953 -0.0266
  605MOL0     O83376   1.115   2.529  10.060  0.7099  0.0394 -0.0293
  605MOL0     C83377   1.204   2.445   9.998 -1.7127 -0.4790  0.4150
  605MOL0     C83378   1.178   2.307   9.975  0.2273 -0.0111  0.4293
  605MOL0     C83379   1.286   2.226   9.926  0.3918  0.5032 -0.2835
  605MOL0     C83380   1.262   2.081   9.903  0.0368  0.2188 -0.0999
  605MOL0     C83381   1.414   2.292   9.878  0.4560  0.4477 -0.1282
  605MOL0     C83382   1.534   2.217   9.820  0.9048  0.8779  0.1954
  605MOL0     O83383   1.648   2.282   9.819 -0.2932  0.9574  0.4226
  605MOL0     C83384   1.756   2.223   9.770  0.5721 -0.0264  0.5872
  605MOL0     C83385   1.804   2.097   9.811 -0.8111 -0.5220  0.3728
  605MOL0     C83386   1.921   2.052   9.745  0.4026 -0.2171  0.0452
  605MOL0     C83387   1.997   2.125   9.648 -0.2853 -0.1683 -0.2677
  605MOL0     O83388   2.103   2.070   9.592 -0.8121  0.2906 -0.2629
  605MOL0     C83389   2.229   2.135   9.602 -0.0824 -0.6010 -0.2951
  605MOL0     C83390   2.350   2.067   9.526 -0.0099  0.2203 -0.0312
  605MOL0     C83391   2.364   1.911   9.543  0.7464  0.5743  0.7833
  605MOL0     C83392   2.256   1.827   9.484 -0.2303 -0.0942 -0.0911
  605MOL0     C83393   2.314   1.693   9.442  0.1210  0.4673 -0.4792
  605MOL0     C83394   2.212   1.581   9.415 -0.4192 -0.0563 -1.0836
  605MOL0     C83395   2.118   1.604   9.297  0.4436 -0.6960 -1.0979
  605MOL0     C83396   2.059   1.479   9.232 -0.1353  0.4362  0.4936
  605MOL0    Cl83397   2.003   1.359   9.358  0.0694 -0.2710 -0.1811
  605MOL0     C83398   1.950   2.249   9.619  0.6481 -0.3816 -0.2839
  605MOL0     C83399   1.837   2.298   9.685  0.9829  0.7479 -0.3942
  605MOL0     O83400   1.519   2.113   9.764  1.2265 -0.0259 -0.6904
  605MOL0     C83401   1.425   2.435   9.898 -0.2550  0.7448 -0.3088
  605MOL0     C83402   1.321   2.508   9.959  0.5604 -0.0104 -0.0640
  605MOL0     N83403   0.965   2.638  10.604  0.7687  0.5439  0.2563
  605MOL0     N83404   0.844   2.609  10.654 -0.3509  0.1411  0.5074
  605MOL0     C83405   1.331   1.636  10.947  0.4121 -0.2806 -0.0327
  605MOL0     C83406   1.394   1.524  10.986 -0.9805  0.2918 -0.0225
  605MOL0     C83407   1.462   1.113  11.167 -0.3270  0.3176  0.3024
  605MOL0     C83408   1.374   1.028  11.094  0.0839  0.0111 -0.8019
  605MOL0     C83409   1.383   0.887  11.105  0.5812 -0.4109  0.8538
  605MOL0     C83410   1.473   0.833  11.191  0.4827 -0.0676 -0.6910
  605MOL0     O83411   1.475   0.694  11.185  0.1607 -0.2992  0.0358
  605MOL0     C83412   1.584   0.618  11.238 -0.1431 -0.6611 -0.1668
  605MOL0     C83413   1.565   0.583  11.384  0.0168  0.4743  0.3016
  605MOL0     C83414   1.444   0.483  11.400 -0.4842  0.7018 -0.5703
  605MOL0     C83415   1.435   0.441  11.541 -0.0799 -0.4848 -0.0325
  605MOL0     C83416   1.409   0.551  11.639  0.6472  0.9596 -0.7183
  605MOL0     C83417   1.375   0.649  11.706 -0.3065 -0.3387  0.6960
  605MOL0     C83418   1.571   0.915  11.261  0.1803 -1.0487 -0.8303
  605MOL0     C83419   1.567   1.057  11.256  0.1242  0.7467  0.3039
  605MOL0     C83420   1.647   1.130  11.363 -0.2357 -0.0858  0.2558
  605MOL0     H83421   1.112   1.349  11.082 -0.9895 -0.8640 -2.8008
  605MOL0     H83422   1.010   1.553  11.050  0.4340  1.5364  1.8098
  605MOL0     H83423   0.941   1.767  10.985 -2.2709  0.4836 -0.7644
  605MOL0     H83424   0.989   1.741  10.823  1.6477  2.0995 -1.1995
  605MOL0     H83425   1.021   1.999  10.963  0.1941 -1.0214  0.1200
  605MOL0     H83426   1.094   1.955  10.802 -0.6192  2.2901 -0.8735
  605MOL0     H83427   0.878   1.918  10.719  2.9370 -2.5097  0.6510
  605MOL0     H83428   0.803   1.974  10.875 -1.0375 -0.3716 -1.7980
  605MOL0     H83429   0.873   2.195  10.826 -3.7715  0.7907 -2.2267
  605MOL0     H83430   1.007   2.155  10.719  0.4877 -0.8030  0.1389
  605MOL0     H83431   0.707   2.092  10.654 -1.1513  1.1626 -2.8287
  605MOL0     H83432   0.836   2.118  10.539  2.8512  2.4347 -0.1115
  605MOL0     H83433   0.744   2.328  10.750 -0.0559 -0.0516  0.0625
  605MOL0     H83434   0.871   2.347  10.635 -0.5309  1.7237  0.9957
  605MOL0     H83435   0.580   2.277  10.567 -0.1858 -1.2124  0.0235
  605MOL0     H83436   0.701   2.316  10.448 -0.4831 -3.3826  0.7526
  605MOL0     H83437   0.594   2.529  10.470  1.9088  1.9945 -1.1530
  605MOL0     H83438   0.592   2.524  10.640 -0.7376 -1.0556  1.0230
  605MOL0     H83439   0.808   2.539  10.331  2.4909 -0.9000 -0.8391
  605MOL0     H83440   1.137   2.741  10.445  1.8158  0.1000 -1.3099
  605MOL0     H83441   1.055   2.725  10.293  0.1441  0.2745 -0.6555
  605MOL0     H83442   1.239   2.574  10.274 -0.0639 -3.0739 -0.1247
  605MOL0     H83443   1.220   2.519  10.439 -1.0000  0.2721  0.3316
  605MOL0     H83444   1.160   2.352  10.271 -3.1271 -3.3057  0.2988
  605MOL0     H83445   1.018   2.400  10.370 -3.7148  3.7895 -0.8495
  605MOL0     H83446   0.982   2.373  10.121 -1.4253 -1.7033  5.5483
  605MOL0     H83447   0.944   2.536  10.164 -1.7515 -0.4416 -3.7869
  605MOL0     H83448   1.089   2.252  10.004  1.2411 -3.4830 -2.3044
  605MOL0     H83449   1.351   2.032   9.946 -0.1996 -0.7950 -0.7237
  605MOL0     H83450   1.269   2.072   9.794 -0.7403  1.2258 -0.2500
  605MOL0     H83451   1.174   2.031   9.944  1.6957 -3.6214 -0.7302
  605MOL0     H83452   1.734   2.029   9.859 -2.3439  0.0243 -0.9769
  605MOL0     H83453   1.958   1.951   9.759  2.1563  0.4416  0.4421
  605MOL0     H83454   2.218   2.238   9.565 -0.8339 -0.9975 -1.1948
  605MOL0     H83455   2.250   2.134   9.709 -2.3599  1.2269  0.2460
  605MOL0     H83456   2.343   2.093   9.420  1.3333  4.2593  0.7080
  605MOL0     H83457   2.437   2.123   9.562  1.0814 -2.0667  1.1818
  605MOL0     H83458   2.368   1.877   9.646 -0.5358 -0.3057  0.5605
  605MOL0     H83459   2.459   1.873   9.502 -0.5524  0.3775 -2.3943
  605MOL0     H83460   2.203   1.878   9.403  0.5790  1.1106  0.1136
  605MOL0     H83461   2.192   1.800   9.568 -1.3522 -0.9947 -1.1946
  605MOL0     H83462   2.370   1.714   9.350 -0.6226  2.1667 -0.5882
  605MOL0     H83463   2.384   1.646   9.512 -0.7533  2.4752  1.8816
  605MOL0     H83464   2.141   1.572   9.497  0.7072  0.7578  0.0066
  605MOL0     H83465   2.277   1.493   9.403 -0.7105 -0.5544  0.7156
  605MOL0     H83466   2.181   1.652   9.222  2.9814 -0.2446  1.1940
  605MOL0     H83467   2.037   1.673   9.323  1.2499 -0.2241  0.2490
  605MOL0     H83468   2.140   1.424   9.182 -0.4502  0.8961 -0.5590
  605MOL0     H83469   1.978   1.508   9.164  0.1651  0.4709  0.1438
  605MOL0     H83470   1.999   2.320   9.554 -2.4870  0.6393 -1.7447
  605MOL0     H83471   1.817   2.401   9.657  0.9341  0.2633 -2.2106
  605MOL0     H83472   1.509   2.493   9.862  0.0275 -0.8671 -2.4583
  605MOL0     H83473   1.340   2.614   9.973 -1.1068  0.8103 -3.1046
  605MOL0     H83474   1.379   1.717  10.893 -1.5464  1.4277  0.6539
  605MOL0     H83475   1.499   1.508  10.965  0.1718  1.6281  3.8844
  605MOL0     H83476   1.297   1.071  11.032  1.0946  1.0468 -1.3802
  605MOL0     H83477   1.303   0.828  11.062  0.4295 -0.9421  1.8326
  605MOL0     H83478   1.595   0.531  11.172 -0.8276 -0.8440 -0.0470
  605MOL0     H83479   1.681   0.663  11.216  0.2338 -0.7633  1.1958
  605MOL0     H83480   1.549   0.672  11.446 -2.1718 -0.0481  0.5434
  605MOL0     H83481   1.653   0.525  11.415  0.3861 -0.0492 -1.5972
  605MOL0     H83482   1.353   0.531  11.363 -1.0565  0.5871  0.6423
  605MOL0     H83483   1.467   0.393  11.341  1.6515  1.3351 -0.7986
  605MOL0     H83484   1.525   0.384  11.563 -0.4611 -0.3686  1.9483
  605MOL0     H83485   1.360   0.362  11.540 -1.1700  0.3445 -4.1021
  605MOL0     H83486   1.370   0.720  11.786 -0.3050 -1.8175  2.0602
  605MOL0     H83487   1.646   0.867  11.322 -0.1635 -1.2910 -0.5943
  605MOL0     H83488   1.575   1.175  11.432 -1.4029 -1.0869 -0.2604
  605MOL0     H83489   1.708   1.060  11.421  1.9962  0.2776 -1.5295
  605MOL0     H83490   1.719   1.199  11.320  0.7743 -1.7488 -0.7901
  606MOL0     O83491   9.529   1.705   5.671 -0.0577  0.3815 -0.5354
  606MOL0     C83492   9.436   1.761   5.723 -0.4383  0.6543 -1.0366
  606MOL0     O83493   9.316   1.787   5.667 -0.1128 -0.5525 -0.1956
  606MOL0     C83494   9.287   1.726   5.542 -0.3149 -0.2972  0.0569
  606MOL0     C83495   9.275   1.809   5.433 -0.3444 -0.2163  0.6852
  606MOL0     C83496   9.266   1.745   5.307 -0.1375  0.1376  0.6545
  606MOL0     C83497   9.234   1.607   5.289 -0.2067  0.4882 -0.0617
  606MOL0     O83498   9.214   1.551   5.168  0.7695  0.4247  1.1368
  606MOL0     C83499   9.335   1.486   5.122  0.2870  0.3358  0.2278
  606MOL0     C83500   9.315   1.474   4.967  0.1565  0.5985  0.0874
  606MOL0     C83501   9.244   1.592   4.897  0.3740 -0.6435  0.2883
  606MOL0     C83502   9.211   1.559   4.742  0.6790 -0.1343 -0.4987
  606MOL0     C83503   9.172   1.675   4.654 -0.0773 -0.1754 -0.1759
  606MOL0     C83504   9.035   1.740   4.691  0.3587 -1.0308 -0.0911
  606MOL0     C83505   8.994   1.858   4.588  0.7536  0.1082  0.6689
  606MOL0     C83506   9.092   1.973   4.569  0.1368 -0.6021 -0.0281
  606MOL0     N83507   9.122   2.037   4.692  1.1735  0.2104  0.2170
  606MOL0     C83508   9.216   2.002   4.784 -0.3153  0.5367  1.1447
  606MOL0     C83509   9.175   2.052   4.902  0.1753 -0.4197 -0.7104
  606MOL0     C83510   9.253   2.037   5.037  0.5960  0.1510 -0.8846
  606MOL0     C83511   9.317   2.165   5.079  0.1707  0.7767  0.1091
  606MOL0     C83512   9.212   2.262   5.120  0.0007 -0.2254  0.5364
  606MOL0     C83513   9.275   2.382   5.192 -0.2959 -0.5415 -0.0855
  606MOL0     O83514   9.381   2.430   5.103  0.6867  0.1098  0.1132
  606MOL0     C83515   9.481   2.523   5.144  0.4684  0.2450 -0.6236
  606MOL0     C83516   9.499   2.565   5.278  0.2144 -0.0547  0.0779
  606MOL0     C83517   9.616   2.639   5.317  0.0984 -0.1343  0.0072
  606MOL0     C83518   9.609   2.707   5.459 -0.3525 -0.8650  0.4028
  606MOL0     C83519   9.725   2.655   5.224 -0.1921 -0.0654 -0.1864
  606MOL0     C83520   9.853   2.719   5.249 -0.0040 -0.1092  0.1892
  606MOL0     O83521   9.933   2.735   5.144  0.2266 -0.2851  0.2295
  606MOL0     C83522  10.013   2.839   5.135 -0.4026 -0.0480  0.1857
  606MOL0     C83523   9.963   2.969   5.148  1.3740  0.9856 -0.3965
  606MOL0     C83524  10.051   3.072   5.133  0.1352  0.5755 -0.5232
  606MOL0     C83525  10.183   3.060   5.116  0.6837 -0.5457 -0.5590
  606MOL0     O83526  10.274   3.165   5.110  0.1670  0.0071  0.1190
  606MOL0     C83527  10.225   3.304   5.101 -0.2337 -0.2940 -0.9911
  606MOL0     C83528  10.337   3.398   5.132 -1.1355 -0.0740  0.1219
  606MOL0     C83529  10.414   3.368   5.262  0.3679 -0.4338  0.4096
  606MOL0     C83530  10.548   3.439   5.264  0.1270 -0.7314  0.5524
  606MOL0     C83531  10.647   3.387   5.368  0.3153  0.0395 -0.4051
  606MOL0     C83532  10.619   3.418   5.518 -0.3014 -0.1931  0.2023
  606MOL0     C83533  10.628   3.576   5.549 -0.8690 -0.2007 -0.6916
  606MOL0     C83534  10.678   3.606   5.696  0.6578  0.6358  0.5952
  606MOL0    Cl83535  10.857   3.632   5.704 -0.4438 -0.2284 -0.2541
  606MOL0     C83536  10.240   2.933   5.098 -0.8393  1.4931  0.1319
  606MOL0     C83537  10.150   2.822   5.101 -0.1701 -0.5220 -0.9458
  606MOL0     O83538   9.871   2.768   5.362 -0.7798  0.2783 -0.2053
  606MOL0     C83539   9.703   2.613   5.087  0.5195  0.5435  0.8911
  606MOL0     C83540   9.582   2.555   5.046 -0.1578  0.4479 -0.0480
  606MOL0     N83541   9.063   2.124   4.887  0.0574 -0.1920  0.7116
  606MOL0     N83542   9.026   2.104   4.763  0.4986 -0.0748 -0.4041
  606MOL0     C83543   9.240   1.531   5.404 -0.5162 -0.0599  0.2373
  606MOL0     C83544   9.265   1.589   5.528  0.4010 -0.7888 -0.4178
  606MOL0     C83545   9.472   1.812   5.857  0.6715  0.1225 -0.1172
  606MOL0     C83546   9.409   1.927   5.889  0.1805  0.1426 -0.0429
  606MOL0     C83547   9.446   2.006   5.995 -0.7995  0.4709 -0.4360
  606MOL0     C83548   9.546   1.959   6.080  0.0178 -0.0897  0.3879
  606MOL0     O83549   9.590   2.025   6.199 -0.0248  0.5444  0.1622
  606MOL0     C83550   9.529   2.150   6.223  0.7457  0.3281 -0.7621
  606MOL0     C83551   9.572   2.203   6.360  0.4261 -0.0946  0.1507
  606MOL0     C83552   9.511   2.335   6.404 -1.3565  0.3300 -0.3822
  606MOL0     C83553   9.430   2.413   6.293  0.5378  0.7508  0.4032
  606MOL0     C83554   9.401   2.547   6.347  0.2443 -0.1638 -0.5034
  606MOL0     C83555   9.383   2.645   6.409  0.4009 -0.3747  0.7271
  606MOL0     C83556   9.591   1.826   6.062  0.9071  1.1370  0.3445
  606MOL0     C83557   9.560   1.752   5.949 -0.1268 -0.5233 -0.8130
  606MOL0     C83558   9.629   1.615   5.948  0.2932  0.7414  0.5380
  606MOL0     H83559   9.272   1.918   5.431  1.3471 -0.1555 -0.4633
  606MOL0     H83560   9.272   1.802   5.215  1.1103 -0.0410  0.6043
  606MOL0     H83561   9.344   1.390   5.173  1.7255  0.7417  0.7833
  606MOL0     H83562   9.430   1.534   5.148  1.5331 -2.9780  2.4653
  606MOL0     H83563   9.415   1.457   4.926  0.5161  0.0257  1.1602
  606MOL0     H83564   9.264   1.378   4.955 -3.4714  2.4085 -0.3579
  606MOL0     H83565   9.148   1.615   4.945  1.4878  4.0167  0.7353
  606MOL0     H83566   9.299   1.685   4.913 -0.1224  0.2422 -2.6385
  606MOL0     H83567   9.311   1.526   4.711  0.9964  1.4597 -1.2718
  606MOL0     H83568   9.142   1.475   4.743  2.7113 -1.9030  1.2684
  606MOL0     H83569   9.183   1.651   4.548  1.4452  2.5435 -0.7328
  606MOL0     H83570   9.254   1.747   4.659  0.4334 -0.7300 -0.4620
  606MOL0     H83571   8.961   1.663   4.669  1.3621 -2.0211 -0.0633
  606MOL0     H83572   9.042   1.782   4.792  1.3861  0.4183 -0.7218
  606MOL0     H83573   8.900   1.896   4.628  1.6397  1.5876  1.4388
  606MOL0     H83574   8.973   1.801   4.497 -0.8157 -1.7179  2.1033
  606MOL0     H83575   9.176   1.933   4.511 -0.1818 -1.6727  0.2255
  606MOL0     H83576   9.037   2.042   4.504  0.5407  1.1849  1.4394
  606MOL0     H83577   9.302   1.935   4.779  0.7265  1.8712  0.6746
  606MOL0     H83578   9.326   1.956   5.034 -0.7459 -1.2415  1.0624
  606MOL0     H83579   9.178   2.008   5.112 -1.7827  1.7468 -2.4889
  606MOL0     H83580   9.376   2.150   5.170  0.6166  3.8826  0.4449
  606MOL0     H83581   9.377   2.207   4.999  2.6237  0.5475  1.7328
  606MOL0     H83582   9.148   2.311   5.047 -4.2365 -2.0597  2.7005
  606MOL0     H83583   9.138   2.216   5.186  0.5143 -2.6935 -0.4815
  606MOL0     H83584   9.207   2.467   5.200  0.3326 -0.1220  0.9720
  606MOL0     H83585   9.319   2.361   5.290  1.0675  1.6207 -0.1702
  606MOL0     H83586   9.426   2.543   5.356  1.2506 -0.5657  0.9283
  606MOL0     H83587   9.646   2.810   5.458 -0.0262 -0.9740  1.0071
  606MOL0     H83588   9.664   2.642   5.528 -2.8047 -2.3096  1.1467
  606MOL0     H83589   9.509   2.710   5.503 -1.0104 -2.6465 -0.8434
  606MOL0     H83590   9.863   2.977   5.187  1.0962 -3.1946  0.2408
  606MOL0     H83591  10.005   3.170   5.145  1.7014  1.1612  1.2444
  606MOL0     H83592  10.178   3.321   5.004 -1.6369 -1.0973 -0.4852
  606MOL0     H83593  10.145   3.315   5.175 -2.1058 -2.6483 -2.5330
  606MOL0     H83594  10.406   3.385   5.047 -1.0138  0.3674  0.1539
  606MOL0     H83595  10.309   3.503   5.138  0.7600  0.4630  0.4379
  606MOL0     H83596  10.426   3.259   5.273  0.7156 -0.5104 -0.6145
  606MOL0     H83597  10.355   3.403   5.347 -2.3323 -2.2218 -0.5903
  606MOL0     H83598  10.524   3.545   5.260 -2.5383 -1.2969 -1.7051
  606MOL0     H83599  10.592   3.421   5.166 -1.7211  0.1197 -0.4731
  606MOL0     H83600  10.662   3.280   5.351  2.9098  0.5200 -1.8233
  606MOL0     H83601  10.745   3.429   5.342 -0.5490  0.7580 -2.8117
  606MOL0     H83602  10.714   3.376   5.553 -0.3593 -3.8372 -3.2694
  606MOL0     H83603  10.536   3.362   5.561  0.0207 -1.6572 -0.9912
  606MOL0     H83604  10.524   3.608   5.533 -0.9055  0.4825  0.7515
  606MOL0     H83605  10.691   3.622   5.472 -0.8187 -1.9144 -1.7193
  606MOL0     H83606  10.664   3.524   5.767 -0.2296 -0.1227 -0.4307
  606MOL0     H83607  10.616   3.686   5.738 -0.9433 -0.9205  1.3578
  606MOL0     H83608  10.346   2.915   5.086 -1.0901  0.8144 -1.2748
  606MOL0     H83609  10.195   2.725   5.082 -3.4217 -2.4764  0.4475
  606MOL0     H83610   9.783   2.633   5.015  0.3609 -0.0134  0.5507
  606MOL0     H83611   9.548   2.531   4.946 -1.9142 -0.4940  0.7333
  606MOL0     H83612   9.213   1.426   5.411  1.7157 -0.7652 -0.8425
  606MOL0     H83613   9.271   1.529   5.619 -4.1838 -0.4300  0.3621
  606MOL0     H83614   9.332   1.960   5.820 -0.5164  0.2660  0.7782
  606MOL0     H83615   9.414   2.110   5.998  1.4471  1.2072  2.3283
  606MOL0     H83616   9.554   2.219   6.141 -2.4466  1.6157 -0.7888
  606MOL0     H83617   9.421   2.143   6.214  0.8807 -0.0805 -2.5829
  606MOL0     H83618   9.680   2.216   6.372  0.9576 -1.2021 -2.8011
  606MOL0     H83619   9.534   2.127   6.429  0.5168 -1.3138 -1.1078
  606MOL0     H83620   9.452   2.318   6.494  1.9867  0.8230  2.1163
  606MOL0     H83621   9.595   2.400   6.432 -2.0373  0.7844  0.6734
  606MOL0     H83622   9.333   2.368   6.269  0.1582  1.3730  0.7414
  606MOL0     H83623   9.476   2.426   6.195 -1.0901  1.1098 -0.3564
  606MOL0     H83624   9.366   2.730   6.472 -0.8985 -1.1654  1.4868
  606MOL0     H83625   9.668   1.794   6.132  1.5295  2.4270  0.2835
  606MOL0     H83626   9.700   1.607   5.865  2.7326  0.0381  2.5591
  606MOL0     H83627   9.689   1.599   6.038  1.4209  1.1020 -0.1231
  606MOL0     H83628   9.557   1.533   5.940  3.3895 -2.2044  0.2181
  607MOL0     O83629   3.693   0.514   8.706  1.1233 -0.6835 -0.2158
  607MOL0     C83630   3.633   0.626   8.699 -0.3339 -0.2236 -0.8239
  607MOL0     O83631   3.497   0.640   8.701  0.4867  0.7247  0.6894
  607MOL0     C83632   3.411   0.528   8.698  0.3831  0.8829 -0.3268
  607MOL0     C83633   3.356   0.467   8.818  0.1655  0.1666  0.2267
  607MOL0     C83634   3.285   0.348   8.804 -0.3190 -0.1504 -0.0787
  607MOL0     C83635   3.267   0.289   8.683 -0.1761  0.3639  0.2454
  607MOL0     O83636   3.189   0.172   8.681 -0.0053 -0.7366  0.5582
  607MOL0     C83637   3.257   0.065   8.762 -0.5268  0.1714 -0.2465
  607MOL0     C83638   3.233  -0.078   8.698 -0.5658 -0.6756  0.6532
  607MOL0     C83639   3.328  -0.175   8.774  0.2147 -0.4322 -0.1480
  607MOL0     C83640   3.293  -0.326   8.736 -0.2270 -0.0607 -0.1616
  607MOL0     C83641   3.327  -0.356   8.583 -0.2517  0.4598 -0.8656
  607MOL0     C83642   3.309  -0.498   8.541  0.0463 -0.4860 -0.0367
  607MOL0     C83643   3.377  -0.599   8.629  0.4308  0.2935  0.8069
  607MOL0     C83644   3.525  -0.582   8.641 -0.0066 -0.5733  0.2894
  607MOL0     N83645   3.574  -0.700   8.714  0.1604 -0.0409  0.1010
  607MOL0     C83646   3.640  -0.693   8.833  0.0523  0.4435 -0.3322
  607MOL0     C83647   3.661  -0.823   8.869 -0.6936 -0.3732 -0.9076
  607MOL0     C83648   3.745  -0.860   8.993 -0.2754  0.1152 -0.2750
  607MOL0     C83649   3.788  -1.010   8.980  1.0370  0.0576 -0.0706
  607MOL0     C83650   3.860  -1.047   9.108 -0.4940  0.6709 -0.0979
  607MOL0     C83651   3.922  -1.183   9.104 -0.3029 -1.0534 -0.7409
  607MOL0     O83652   3.819  -1.283   9.134  0.0758 -0.2063  0.0167
  607MOL0     C83653   3.845  -1.402   9.075 -0.8167 -0.7324 -0.0557
  607MOL0     C83654   3.852  -1.516   9.164 -0.2443 -0.4535  0.1367
  607MOL0     C83655   3.877  -1.641   9.100 -0.1845  0.3872 -0.7472
  607MOL0     C83656   3.874  -1.756   9.193 -0.8874  0.0569  0.7331
  607MOL0     C83657   3.881  -1.652   8.959  0.7390 -0.1540  0.8914
  607MOL0     C83658   3.880  -1.785   8.885  0.2689 -0.2980 -0.4283
  607MOL0     O83659   3.862  -1.778   8.748  0.5764 -0.4760  0.4922
  607MOL0     C83660   3.909  -1.871   8.660 -0.2607  0.4381  0.1462
  607MOL0     C83661   4.008  -1.963   8.692 -0.7848 -0.1792 -0.0007
  607MOL0     C83662   4.057  -2.054   8.597 -0.4749 -0.1450  0.5427
  607MOL0     C83663   4.006  -2.056   8.468 -0.5183 -0.4322 -0.4617
  607MOL0     O83664   4.050  -2.162   8.385  0.5040  0.1703  0.1283
  607MOL0     C83665   3.949  -2.231   8.304 -0.3407 -0.0315  0.8302
  607MOL0     C83666   4.005  -2.374   8.280  0.2763 -0.8525 -0.4492
  607MOL0     C83667   3.901  -2.452   8.201  0.2415  0.4141  0.3068
  607MOL0     C83668   3.948  -2.594   8.188 -0.0045  0.2482 -0.3775
  607MOL0     C83669   4.052  -2.614   8.075  0.1597  0.1239  0.4483
  607MOL0     C83670   4.113  -2.747   8.078  0.0197 -0.7153 -0.2028
  607MOL0     C83671   4.002  -2.861   8.047 -0.0170 -0.1647 -0.1805
  607MOL0     C83672   4.067  -3.001   8.061  0.1439 -0.1139 -0.0143
  607MOL0    Cl83673   3.918  -3.108   8.083 -0.0746 -0.5035  0.7843
  607MOL0     C83674   3.907  -1.966   8.429 -0.7416 -0.0340  1.4474
  607MOL0     C83675   3.863  -1.875   8.527 -0.2999 -0.0346  0.3305
  607MOL0     O83676   3.910  -1.885   8.949 -1.0405  0.2996 -0.0217
  607MOL0     C83677   3.874  -1.532   8.882 -0.4932 -0.6161  0.4753
  607MOL0     C83678   3.854  -1.410   8.936 -0.4078  0.1640 -1.2524
  607MOL0     N83679   3.602  -0.908   8.778  0.7823 -0.0272  0.1649
  607MOL0     N83680   3.547  -0.828   8.691  0.0710  0.6678 -0.6317
  607MOL0     C83681   3.316   0.339   8.565 -0.1689 -0.9504 -0.3547
  607MOL0     C83682   3.393   0.460   8.576  0.4267  1.0317  0.6322
  607MOL0     C83683   3.713   0.749   8.703 -0.8681  0.0881 -0.2078
  607MOL0     C83684   3.853   0.728   8.675  0.1899  0.4412 -0.9304
  607MOL0     C83685   3.948   0.827   8.669  0.4743 -0.3573 -0.3228
  607MOL0     C83686   3.900   0.959   8.681 -0.8235 -0.2255 -0.4186
  607MOL0     O83687   4.002   1.047   8.683 -0.1493  0.0492 -0.0646
  607MOL0     C83688   3.992   1.169   8.762  0.7513 -0.4906  1.0059
  607MOL0     C83689   4.122   1.216   8.822 -0.2006 -0.2509  0.6025
  607MOL0     C83690   4.209   1.287   8.717  0.1008 -0.1662 -0.7822
  607MOL0     C83691   4.273   1.195   8.615  0.5233  0.0223 -0.4657
  607MOL0     C83692   4.363   1.265   8.522 -0.7664  0.8503  0.1516
  607MOL0     C83693   4.424   1.326   8.443 -0.2002  0.1554 -0.6504
  607MOL0     C83694   3.775   0.989   8.704  0.5886  0.7809  0.5156
  607MOL0     C83695   3.685   0.886   8.724  0.1450 -0.3208 -1.0804
  607MOL0     C83696   3.544   0.923   8.779 -0.2222  0.0910  0.8725
  607MOL0     H83697   3.382   0.505   8.916  5.3352 -1.8758 -0.0199
  607MOL0     H83698   3.250   0.318   8.902  0.3239  0.2722  0.2897
  607MOL0     H83699   3.226   0.058   8.867  0.0628  1.2492  0.0197
  607MOL0     H83700   3.365   0.079   8.759 -0.7004  2.0776  0.5680
  607MOL0     H83701   3.132  -0.114   8.719 -0.7084 -0.4682  0.3196
  607MOL0     H83702   3.243  -0.086   8.590 -0.6488 -0.2773  0.6141
  607MOL0     H83703   3.430  -0.165   8.737 -0.5577  0.5614 -2.2070
  607MOL0     H83704   3.323  -0.149   8.880  1.1157  1.3354 -0.4977
  607MOL0     H83705   3.351  -0.394   8.799 -2.7561 -0.7468  1.5571
  607MOL0     H83706   3.186  -0.343   8.753 -0.6642  3.2781  1.1521
  607MOL0     H83707   3.434  -0.339   8.568  0.3561 -1.8932  0.3064
  607MOL0     H83708   3.280  -0.281   8.519 -0.7029  1.2787  0.4000
  607MOL0     H83709   3.204  -0.527   8.524  0.4059 -1.5583 -0.5106
  607MOL0     H83710   3.360  -0.509   8.445 -0.6563  4.0841 -1.1586
  607MOL0     H83711   3.344  -0.691   8.580 -2.1377  1.6130 -0.1419
  607MOL0     H83712   3.343  -0.590   8.732 -2.2423  3.1515 -0.1400
  607MOL0     H83713   3.566  -0.585   8.540 -1.4497 -0.8354 -0.3103
  607MOL0     H83714   3.555  -0.487   8.687 -0.1503 -0.2254 -0.3236
  607MOL0     H83715   3.670  -0.605   8.887 -0.6688  0.6390 -0.2305
  607MOL0     H83716   3.677  -0.848   9.078 -1.3890 -2.8084 -0.6434
  607MOL0     H83717   3.828  -0.790   9.005 -0.6684  0.5429 -0.0212
  607MOL0     H83718   3.710  -1.088   8.982  1.0306 -0.0283 -1.8339
  607MOL0     H83719   3.848  -1.016   8.888  2.9413  2.2042  0.9345
  607MOL0     H83720   3.939  -0.972   9.105  0.5159 -0.3923 -0.6942
  607MOL0     H83721   3.794  -1.033   9.194 -4.4581  1.3849 -2.9685
  607MOL0     H83722   3.981  -1.202   9.014 -0.1047 -0.6711 -0.6945
  607MOL0     H83723   3.993  -1.166   9.186  1.5797 -2.4464 -1.9836
  607MOL0     H83724   3.865  -1.505   9.272 -0.4153 -1.1597  0.2319
  607MOL0     H83725   3.971  -1.806   9.192 -0.3557  1.0295 -1.3048
  607MOL0     H83726   3.789  -1.819   9.165  0.7316 -1.2915 -1.3701
  607MOL0     H83727   3.869  -1.719   9.296 -0.0084  0.1820  0.7391
  607MOL0     H83728   4.054  -1.970   8.790  0.5308  0.9079 -0.5063
  607MOL0     H83729   4.128  -2.129   8.630 -0.5653 -1.2404 -1.6234
  607MOL0     H83730   3.860  -2.227   8.367  0.0305 -0.9000  1.4364
  607MOL0     H83731   3.934  -2.175   8.212  3.8251  1.5350  0.8590
  607MOL0     H83732   4.100  -2.378   8.226  1.1677 -1.3406  1.0905
  607MOL0     H83733   4.030  -2.410   8.380  0.9086 -0.0657 -0.3097
  607MOL0     H83734   3.873  -2.405   8.106 -1.8884 -0.0898  0.6297
  607MOL0     H83735   3.811  -2.451   8.264  0.9078  1.3528  1.2651
  607MOL0     H83736   3.866  -2.666   8.172  1.6941 -2.1165  0.8823
  607MOL0     H83737   3.990  -2.640   8.278 -0.1773 -3.8944 -2.1741
  607MOL0     H83738   3.999  -2.601   7.980 -0.2112  3.7470  1.0091
  607MOL0     H83739   4.126  -2.533   8.064  1.0599 -0.6296  0.8071
  607MOL0     H83740   4.161  -2.779   8.170  2.9289 -0.5890 -1.5702
  607MOL0     H83741   4.196  -2.749   8.007  0.8985 -1.5799  0.8134
  607MOL0     H83742   3.965  -2.848   7.945  0.8285 -0.9824 -0.6027
  607MOL0     H83743   3.912  -2.851   8.108 -1.0208 -0.1242 -1.6222
  607MOL0     H83744   4.136  -3.031   8.140 -0.9911 -4.5892 -0.4117
  607MOL0     H83745   4.120  -3.025   7.969 -1.3458 -2.0455 -0.4454
  607MOL0     H83746   3.867  -1.967   8.329  0.4488  0.7115  0.9450
  607MOL0     H83747   3.778  -1.813   8.500  0.5101  1.7450  1.6248
  607MOL0     H83748   3.897  -1.529   8.776  0.9981  0.8841  0.8042
  607MOL0     H83749   3.836  -1.323   8.873  0.4470 -1.2217 -3.5236
  607MOL0     H83750   3.302   0.289   8.470  0.5113 -1.1006 -0.3801
  607MOL0     H83751   3.420   0.510   8.484  0.4231  0.5979  0.3895
  607MOL0     H83752   3.896   0.628   8.669  0.0525  0.1579  1.6542
  607MOL0     H83753   4.055   0.812   8.662  0.9387  1.4369  1.6707
  607MOL0     H83754   3.960   1.246   8.691  0.8475 -0.5280  0.9227
  607MOL0     H83755   3.913   1.168   8.838  1.0046 -0.6071  1.2643
  607MOL0     H83756   4.177   1.132   8.865  0.8794 -0.9996 -2.0353
  607MOL0     H83757   4.087   1.298   8.885  1.9018  1.1734  0.0299
  607MOL0     H83758   4.147   1.366   8.673  1.0248  0.9959 -0.0758
  607MOL0     H83759   4.289   1.341   8.769  2.5557 -1.8070 -2.6453
  607MOL0     H83760   4.199   1.138   8.558 -0.7311  1.9993 -0.9027
  607MOL0     H83761   4.320   1.118   8.677 -0.9269  0.2070  0.9240
  607MOL0     H83762   4.472   1.381   8.364  3.6510  0.0057  1.3258
  607MOL0     H83763   3.735   1.091   8.707  0.8925  0.8959  0.6554
  607MOL0     H83764   3.466   0.872   8.723  0.1311 -0.8527  1.2160
  607MOL0     H83765   3.536   0.886   8.882 -2.9744 -1.3056  0.2381
  607MOL0     H83766   3.532   1.032   8.782 -2.5369 -0.1223  0.9966
  608MOL0     O83767   9.300   7.876   7.890  0.4177 -0.6184  0.0479
  608MOL0     C83768   9.188   7.913   7.847  0.1316 -1.3157  0.4363
  608MOL0     O83769   9.074   7.844   7.859 -0.3899 -0.0302  0.4009
  608MOL0     C83770   9.075   7.707   7.886  1.0524 -0.5229  0.7710
  608MOL0     C83771   8.957   7.669   7.944 -1.1705  0.4141  0.2758
  608MOL0     C83772   8.933   7.528   7.968 -0.3575 -1.1972 -0.5658
  608MOL0     C83773   9.023   7.432   7.930  0.7281  0.4625  0.3419
  608MOL0     O83774   8.995   7.300   7.950 -0.3884  0.1832 -0.0415
  608MOL0     C83775   9.108   7.220   7.987 -0.0613 -0.9375  0.1112
  608MOL0     C83776   9.058   7.091   8.061  0.0462  0.2097 -0.4430
  608MOL0     C83777   8.960   7.124   8.186  0.2424  0.5080 -0.7508
  608MOL0     C83778   8.890   6.989   8.219 -0.9131 -1.2080 -0.3763
  608MOL0     C83779   8.838   6.996   8.365  0.2872 -0.8159 -0.3217
  608MOL0     C83780   8.747   6.870   8.391 -0.6462  0.1877  0.0118
  608MOL0     C83781   8.722   6.856   8.542 -0.7220 -0.3022 -0.7286
  608MOL0     C83782   8.582   6.885   8.604  0.1007  0.5512  0.0933
  608MOL0     N83783   8.593   6.904   8.744  0.3640  0.0360 -0.3434
  608MOL0     C83784   8.661   6.999   8.813 -1.0044  0.2514  0.5589
  608MOL0     C83785   8.649   6.964   8.939 -0.3810 -0.5361 -0.2987
  608MOL0     C83786   8.723   7.045   9.040  0.3310  0.5106 -0.6388
  608MOL0     C83787   8.835   6.956   9.076  0.1810  0.1255 -0.0295
  608MOL0     C83788   8.934   7.022   9.164  0.1610  0.2350 -0.0879
  608MOL0     C83789   9.003   7.153   9.108 -0.5422 -0.1499 -0.3110
  608MOL0     O83790   9.136   7.184   9.162 -0.1785 -0.4795 -0.0679
  608MOL0     C83791   9.226   7.083   9.146 -0.7606  0.7829 -0.0406
  608MOL0     C83792   9.307   7.075   9.032  0.3229  0.7378 -0.0473
  608MOL0     C83793   9.406   6.972   9.025  0.1279 -0.2215 -0.7701
  608MOL0     C83794   9.477   6.961   8.891  0.3328 -0.0701  1.2607
  608MOL0     C83795   9.415   6.872   9.124  0.1346  0.9207  0.2615
  608MOL0     C83796   9.515   6.759   9.132 -0.9066  0.2771  1.2275
  608MOL0     O83797   9.485   6.669   9.237 -0.2684  0.2926 -0.3288
  608MOL0     C83798   9.560   6.558   9.254  0.5369 -0.2693  0.5899
  608MOL0     C83799   9.696   6.565   9.270  0.0623  0.1409  0.1322
  608MOL0     C83800   9.773   6.442   9.286 -0.7856  0.2394 -0.2184
  608MOL0     C83801   9.715   6.317   9.289 -0.0313 -0.2139  0.7613
  608MOL0     O83802   9.785   6.204   9.320  0.3618  0.7550 -0.2733
  608MOL0     C83803   9.905   6.183   9.245 -0.1087 -0.5234  0.0471
  608MOL0     C83804  10.013   6.195   9.349  0.5181  0.2204  0.7163
  608MOL0     C83805  10.120   6.088   9.322  0.2750 -0.4136 -1.2606
  608MOL0     C83806  10.209   6.141   9.197 -1.3038 -0.3240  0.4612
  608MOL0     C83807  10.358   6.083   9.202 -0.5942  0.0698 -0.9951
  608MOL0     C83808  10.443   6.178   9.117 -0.4141 -0.0887  0.3148
  608MOL0     C83809  10.583   6.129   9.093 -1.4294 -0.0304 -0.5178
  608MOL0     C83810  10.679   6.249   9.059 -0.0602  1.2714  0.8251
  608MOL0    Cl83811  10.645   6.298   8.887  0.5905 -0.2135 -0.0611
  608MOL0     C83812   9.570   6.314   9.283 -0.0197 -0.4759  0.7658
  608MOL0     C83813   9.494   6.433   9.255 -0.5156 -0.4549  0.0009
  608MOL0     O83814   9.608   6.754   9.053 -0.4176 -0.0938  0.0053
  608MOL0     C83815   9.328   6.883   9.231 -0.1762  0.8291  0.2819
  608MOL0     C83816   9.233   6.988   9.245  0.2058  0.5438  0.8404
  608MOL0     N83817   8.574   6.850   8.958 -1.3485  0.2937  0.2453
  608MOL0     N83818   8.542   6.821   8.839 -0.3896  0.2377  0.0435
  608MOL0     C83819   9.145   7.479   7.873  0.0310  0.5759  0.0380
  608MOL0     C83820   9.170   7.615   7.837  0.0958 -0.8943  1.1228
  608MOL0     C83821   9.180   8.062   7.797 -0.0252 -0.1294  0.4097
  608MOL0     C83822   9.294   8.119   7.731  0.0114 -0.5553  0.0503
  608MOL0     C83823   9.290   8.254   7.704 -0.5095 -0.8026 -0.3918
  608MOL0     C83824   9.183   8.332   7.739  0.1491  0.2786  0.3173
  608MOL0     O83825   9.206   8.463   7.721 -0.2712  0.0128  0.8097
  608MOL0     C83826   9.102   8.556   7.757 -0.3019 -0.4409 -0.2481
  608MOL0     C83827   9.106   8.689   7.675 -0.5504  0.1483  0.1487
  608MOL0     C83828   9.254   8.744   7.663  0.2067 -0.4013  0.8608
  608MOL0     C83829   9.245   8.845   7.553  0.1096 -0.1476  0.2751
  608MOL0     C83830   9.363   8.929   7.551 -0.0744 -0.1180 -0.2970
  608MOL0     C83831   9.473   8.980   7.542  0.8939 -0.3583 -0.6300
  608MOL0     C83832   9.075   8.281   7.809  0.2055  1.0839  0.2754
  608MOL0     C83833   9.069   8.139   7.832  0.7504  0.1337 -0.0732
  608MOL0     C83834   8.956   8.098   7.930  0.5305 -0.0406  0.1334
  608MOL0     H83835   8.891   7.748   7.978  0.0083  0.7692  1.8608
  608MOL0     H83836   8.837   7.497   8.007 -1.2151  1.0619 -0.6884
  608MOL0     H83837   9.166   7.278   8.059  0.0982  1.2773 -1.6983
  608MOL0     H83838   9.181   7.197   7.908 -0.2928 -0.9172 -0.1109
  608MOL0     H83839   9.005   7.028   7.989 -1.0713  1.5783 -0.8880
  608MOL0     H83840   9.149   7.042   8.094  0.7742  0.4625 -1.9562
  608MOL0     H83841   9.026   7.162   8.265  0.5405  3.5269 -2.3075
  608MOL0     H83842   8.879   7.194   8.165 -1.3378 -1.3564 -1.1564
  608MOL0     H83843   8.818   6.976   8.138 -2.3928 -0.6490  0.8067
  608MOL0     H83844   8.955   6.901   8.207  3.1151  1.4861 -0.2295
  608MOL0     H83845   8.779   7.086   8.385  1.9307  0.2100  0.1442
  608MOL0     H83846   8.929   6.984   8.424  2.2727 -1.2468 -3.2356
  608MOL0     H83847   8.661   6.873   8.324  0.3548  0.5362 -1.2945
  608MOL0     H83848   8.798   6.778   8.364  1.4026  1.4000 -0.4365
  608MOL0     H83849   8.802   6.903   8.600 -1.1947  0.4459 -0.6538
  608MOL0     H83850   8.750   6.753   8.566 -0.1283 -0.4045 -1.8369
  608MOL0     H83851   8.538   6.979   8.570 -0.3028  0.8114  1.2965
  608MOL0     H83852   8.513   6.804   8.579  0.3346  1.3535 -3.8065
  608MOL0     H83853   8.725   7.074   8.770 -2.4421  2.0032  1.3323
  608MOL0     H83854   8.665   7.079   9.126 -1.6498 -3.3354 -0.2532
  608MOL0     H83855   8.774   7.131   8.995  1.3253  0.2906  0.0162
  608MOL0     H83856   8.811   6.861   9.126 -1.2224 -1.2373 -2.9558
  608MOL0     H83857   8.880   6.932   8.979 -0.8231  1.2571 -0.8105
  608MOL0     H83858   8.887   7.041   9.261  1.0943 -0.8991  0.6250
  608MOL0     H83859   9.010   6.950   9.196  0.2809  0.9910  1.4199
  608MOL0     H83860   9.013   7.139   9.000 -1.5873  2.3535 -0.7935
  608MOL0     H83861   8.941   7.240   9.130 -0.0748 -0.1652  1.1438
  608MOL0     H83862   9.309   7.156   8.960  1.4461  0.7780  0.0149
  608MOL0     H83863   9.480   7.044   8.820  1.3147 -1.6662 -0.6525
  608MOL0     H83864   9.454   6.868   8.839  4.2227 -1.0552  0.9732
  608MOL0     H83865   9.585   6.952   8.908  1.0790  1.5120 -1.7925
  608MOL0     H83866   9.752   6.658   9.268  0.5557 -0.1594 -0.0415
  608MOL0     H83867   9.873   6.448   9.327 -0.6732  0.4160 -0.5146
  608MOL0     H83868   9.909   6.084   9.198 -2.3409 -2.0730  2.8202
  608MOL0     H83869   9.901   6.248   9.158 -1.0646 -2.5237 -1.4872
  608MOL0     H83870  10.043   6.299   9.362 -3.1083  1.2769  1.9395
  608MOL0     H83871   9.970   6.168   9.446 -2.6681  0.7506 -0.4239
  608MOL0     H83872  10.093   5.982   9.320  1.5107 -0.7410 -1.1683
  608MOL0     H83873  10.184   6.081   9.410 -2.1855  0.5381  0.7378
  608MOL0     H83874  10.227   6.249   9.197  0.8252 -0.6138  1.7333
  608MOL0     H83875  10.169   6.115   9.098  1.8693 -0.9370 -0.7809
  608MOL0     H83876  10.391   6.095   9.306 -2.8346 -0.1871 -0.2059
  608MOL0     H83877  10.354   5.979   9.169 -0.6320 -0.0915 -0.4873
  608MOL0     H83878  10.439   6.279   9.159 -2.8860 -1.2168  3.1748
  608MOL0     H83879  10.394   6.176   9.020  2.0586  3.0483 -1.1828
  608MOL0     H83880  10.584   6.053   9.014 -1.2358 -1.2699  0.6378
  608MOL0     H83881  10.624   6.077   9.181 -3.2477 -2.9118 -1.2178
  608MOL0     H83882  10.784   6.216   9.065 -0.3971 -0.6532 -2.0903
  608MOL0     H83883  10.661   6.335   9.125  3.2810  1.6987  1.3753
  608MOL0     H83884   9.515   6.225   9.312 -1.1745  0.3002  1.0195
  608MOL0     H83885   9.388   6.452   9.248 -0.2305  1.4020  0.2577
  608MOL0     H83886   9.340   6.816   9.316  0.2428  0.0574 -0.3586
  608MOL0     H83887   9.175   7.000   9.336 -2.7464  1.3481 -1.0198
  608MOL0     H83888   9.226   7.415   7.840 -1.6844 -0.7274 -1.9615
  608MOL0     H83889   9.261   7.658   7.796 -0.8914  2.6594  2.2989
  608MOL0     H83890   9.374   8.058   7.689  1.0206  2.4768 -2.9672
  608MOL0     H83891   9.378   8.302   7.664 -0.8874  1.9010  1.6915
  608MOL0     H83892   9.001   8.517   7.746 -1.8743  2.8838  0.9363
  608MOL0     H83893   9.118   8.584   7.862  0.3965  1.9425 -0.9108
  608MOL0     H83894   9.058   8.764   7.738  1.3892  1.0445  0.6402
  608MOL0     H83895   9.059   8.665   7.580  3.8170  0.7342 -2.4220
  608MOL0     H83896   9.286   8.787   7.758  1.8031  1.8539 -0.5907
  608MOL0     H83897   9.330   8.672   7.630 -2.9267 -2.5984 -2.3662
  608MOL0     H83898   9.158   8.903   7.584 -0.7344 -1.6982  0.9491
  608MOL0     H83899   9.223   8.796   7.458 -0.3495  0.8379 -0.1362
  608MOL0     H83900   9.563   9.036   7.525  0.1197  1.7536  1.6489
  608MOL0     H83901   9.004   8.344   7.862  0.8821  2.0956  0.0280
  608MOL0     H83902   8.997   8.036   8.010 -0.7366  0.0630  0.8862
  608MOL0     H83903   8.898   8.183   7.966  2.6557  1.3811  0.3413
  608MOL0     H83904   8.880   8.047   7.870  2.3255 -0.7251 -1.6968
  609MOL0     O83905   5.400   1.677   2.534 -0.3269 -0.4090 -0.5928
  609MOL0     C83906   5.419   1.574   2.600  0.3781 -0.7988  0.6836
  609MOL0     O83907   5.324   1.487   2.641  0.7257 -1.2015  1.0040
  609MOL0     C83908   5.200   1.516   2.594 -0.3414  0.4096  0.2547
  609MOL0     C83909   5.169   1.489   2.460  0.3163 -0.8194 -0.3063
  609MOL0     C83910   5.049   1.539   2.399 -0.2992 -0.5039  0.6137
  609MOL0     C83911   4.966   1.624   2.471 -0.4646 -0.6221  0.7955
  609MOL0     O83912   4.861   1.686   2.401 -0.2288  0.1910  0.4824
  609MOL0     C83913   4.837   1.823   2.414  1.5604 -0.7099 -0.2417
  609MOL0     C83914   4.689   1.834   2.378 -0.1787  0.9942 -1.3772
  609MOL0     C83915   4.614   1.954   2.423  0.1421 -0.6915 -0.3714
  609MOL0     C83916   4.523   1.918   2.543 -1.3564 -0.7321  1.1423
  609MOL0     C83917   4.457   2.040   2.601  0.0739  0.1779  0.3110
  609MOL0     C83918   4.350   2.022   2.712 -0.5260  0.4066 -0.6405
  609MOL0     C83919   4.219   1.943   2.672 -0.0671 -0.5630  0.0234
  609MOL0     C83920   4.131   2.032   2.579  0.0295  0.5814 -0.9258
  609MOL0     N83921   4.157   2.064   2.435 -0.7865  0.5889  0.2498
  609MOL0     C83922   4.239   1.990   2.357 -0.1668 -0.3336 -0.7827
  609MOL0     C83923   4.236   2.050   2.234  0.5199 -0.0748 -0.4986
  609MOL0     C83924   4.315   2.004   2.109 -0.2323 -0.3096 -0.5202
  609MOL0     C83925   4.420   2.112   2.063 -0.3496  0.2045  0.1810
  609MOL0     C83926   4.497   2.076   1.941  0.0432 -1.4465  0.0622
  609MOL0     C83927   4.595   2.183   1.885  0.0377 -1.2078  0.3194
  609MOL0     O83928   4.713   2.224   1.956  0.6961  0.3232  0.5354
  609MOL0     C83929   4.809   2.132   1.943 -0.5506  0.0066 -0.4434
  609MOL0     C83930   4.901   2.133   1.841  0.3330 -0.1843 -0.3019
  609MOL0     C83931   4.995   2.027   1.831 -0.2691 -0.3904  0.6563
  609MOL0     C83932   5.084   2.031   1.708  0.5463  0.0961  0.0139
  609MOL0     C83933   5.010   1.928   1.927  0.4297 -0.2448  1.0430
  609MOL0     C83934   5.111   1.817   1.935 -0.0372  0.0880 -0.1443
  609MOL0     O83935   5.101   1.714   2.025 -0.0854 -0.2220  0.4755
  609MOL0     C83936   5.196   1.611   2.012  0.1046  0.4520 -0.3051
  609MOL0     C83937   5.182   1.515   1.913 -1.3748  0.1545  1.2632
  609MOL0     C83938   5.277   1.415   1.897  0.0206  0.3196  0.1651
  609MOL0     C83939   5.398   1.426   1.962 -0.2038 -0.5282 -1.0370
  609MOL0     O83940   5.509   1.346   1.933 -0.1317 -0.2422 -0.1039
  609MOL0     C83941   5.523   1.296   1.799  0.9808  0.0981  0.0436
  609MOL0     C83942   5.647   1.229   1.769 -0.2766  0.7183 -0.2543
  609MOL0     C83943   5.769   1.327   1.776 -0.5353  0.1584  0.1986
  609MOL0     C83944   5.911   1.261   1.779  0.4082 -0.8007  0.4559
  609MOL0     C83945   6.024   1.360   1.779 -0.7630  0.3136  0.1345
  609MOL0     C83946   6.151   1.279   1.809 -0.3625  0.0335  0.3779
  609MOL0     C83947   6.284   1.358   1.785  0.1258 -0.6809 -0.7973
  609MOL0     C83948   6.399   1.261   1.781  0.2499  0.8068 -0.4779
  609MOL0    Cl83949   6.413   1.142   1.646 -0.2125  0.2371  0.6868
  609MOL0     C83950   5.410   1.518   2.071  0.1348  0.3582  0.6503
  609MOL0     C83951   5.307   1.603   2.093  0.1730 -0.3958 -0.8804
  609MOL0     O83952   5.199   1.831   1.859 -0.1616  0.1384  0.7005
  609MOL0     C83953   4.925   1.926   2.035  0.4063  0.0956 -0.0680
  609MOL0     C83954   4.825   2.027   2.039 -0.9134 -0.3678  0.1219
  609MOL0     N83955   4.158   2.163   2.243 -0.4891  0.8536  0.5567
  609MOL0     N83956   4.109   2.168   2.362  0.4174  1.0330  0.1938
  609MOL0     C83957   5.003   1.654   2.602  0.7397 -0.7593  0.3896
  609MOL0     C83958   5.109   1.591   2.664  0.5439 -0.6940 -0.6508
  609MOL0     C83959   5.558   1.525   2.641  0.0433  0.1945  0.7051
  609MOL0     C83960   5.585   1.514   2.779 -0.2289 -0.7792  0.3166
  609MOL0     C83961   5.723   1.498   2.821  0.2741  0.3293  0.1375
  609MOL0     C83962   5.820   1.475   2.725 -0.0339 -0.7518 -0.2985
  609MOL0     O83963   5.952   1.447   2.760  0.0402 -0.7107  1.4264
  609MOL0     C83964   6.055   1.447   2.660  0.0392 -0.0713  0.5158
  609MOL0     C83965   6.193   1.424   2.725 -0.3630  0.2772  0.9298
  609MOL0     C83966   6.206   1.287   2.807  0.1115 -0.4848  0.5301
  609MOL0     C83967   6.336   1.265   2.885  0.2689  0.5362  0.4418
  609MOL0     C83968   6.442   1.260   2.780  0.1704 -0.4940 -0.2515
  609MOL0     C83969   6.529   1.252   2.699  0.0533  0.3145 -0.3632
  609MOL0     C83970   5.785   1.496   2.592 -0.3100  0.4648  0.1781
  609MOL0     C83971   5.659   1.519   2.540 -0.1116 -1.0380 -0.5634
  609MOL0     C83972   5.615   1.512   2.398 -0.7318 -0.1016  0.2321
  609MOL0     H83973   5.246   1.435   2.406  1.3847  0.4716 -0.1191
  609MOL0     H83974   5.021   1.536   2.294  0.9067  0.9643  0.2154
  609MOL0     H83975   4.908   1.878   2.352  2.2115  0.0257  1.0994
  609MOL0     H83976   4.855   1.855   2.517  3.4853  0.3623 -0.8657
  609MOL0     H83977   4.679   1.822   2.270 -0.3154 -0.5892 -1.2110
  609MOL0     H83978   4.634   1.749   2.421 -0.7766  1.8725 -0.3742
  609MOL0     H83979   4.668   2.046   2.448 -2.2494  0.2297  1.8907
  609MOL0     H83980   4.556   1.988   2.337 -0.6982  2.6436  1.3257
  609MOL0     H83981   4.454   1.837   2.518 -3.0812  0.9204  0.3466
  609MOL0     H83982   4.598   1.884   2.615  1.2696  3.1974  0.5351
  609MOL0     H83983   4.419   2.114   2.530  1.7589  3.6809  2.7802
  609MOL0     H83984   4.539   2.092   2.650  0.7357 -2.5444  2.3209
  609MOL0     H83985   4.386   1.970   2.802 -0.5195  2.0002  0.3200
  609MOL0     H83986   4.322   2.123   2.742  1.3662  1.6218 -2.6682
  609MOL0     H83987   4.152   1.918   2.754 -1.0548 -1.9743 -1.1668
  609MOL0     H83988   4.256   1.850   2.627  2.9112  0.4861  0.0914
  609MOL0     H83989   4.027   2.000   2.590  0.5009 -0.2730  1.7117
  609MOL0     H83990   4.133   2.135   2.617  1.3335 -0.0835  0.9178
  609MOL0     H83991   4.291   1.901   2.391 -3.2691 -1.4635  1.4854
  609MOL0     H83992   4.253   1.996   2.020 -4.1004 -1.3739  1.9922
  609MOL0     H83993   4.371   1.913   2.133 -0.0154 -0.4149 -1.4142
  609MOL0     H83994   4.361   2.203   2.050 -0.4864  0.1988  0.7103
  609MOL0     H83995   4.494   2.117   2.144 -0.0510 -1.2277  0.0317
  609MOL0     H83996   4.546   1.978   1.947 -0.7129 -1.8258  0.0501
  609MOL0     H83997   4.418   2.074   1.865 -0.8996  2.3134  0.7689
  609MOL0     H83998   4.604   2.178   1.776 -2.8812  1.5811 -0.1660
  609MOL0     H83999   4.544   2.279   1.886  1.9435 -0.1452  1.8679
  609MOL0     H84000   4.887   2.217   1.773 -3.7508  1.5569  2.3106
  609MOL0     H84001   5.041   2.094   1.630  1.4109 -1.1950 -1.5637
  609MOL0     H84002   5.083   1.930   1.666 -1.0507 -0.1936  0.6762
  609MOL0     H84003   5.184   2.061   1.740 -0.2752 -0.0374  3.0723
  609MOL0     H84004   5.098   1.526   1.845 -2.0968 -0.2308  2.0720
  609MOL0     H84005   5.271   1.337   1.821  2.0293 -1.0170  1.2992
  609MOL0     H84006   5.433   1.235   1.787 -0.3779  2.2155 -1.1062
  609MOL0     H84007   5.510   1.381   1.731  1.1847  0.5486  0.5592
  609MOL0     H84008   5.669   1.161   1.851 -1.0023  3.0099  1.9490
  609MOL0     H84009   5.630   1.179   1.672 -1.4509 -0.4958  0.5263
  609MOL0     H84010   5.764   1.387   1.867 -1.0216  2.2510 -1.1270
  609MOL0     H84011   5.766   1.399   1.694 -2.0587  0.1793  0.2526
  609MOL0     H84012   5.929   1.187   1.701 -0.5595  0.7270 -1.2910
  609MOL0     H84013   5.905   1.210   1.876 -3.3428  0.0182  0.8436
  609MOL0     H84014   6.039   1.418   1.687 -1.4521  1.2613  0.5996
  609MOL0     H84015   5.998   1.429   1.860 -3.7245 -0.9727  0.4238
  609MOL0     H84016   6.143   1.185   1.754 -0.2862 -0.6923  1.5941
  609MOL0     H84017   6.152   1.254   1.915  0.8294  1.2116  0.6695
  609MOL0     H84018   6.280   1.427   1.870 -0.0683 -0.7399 -0.7576
  609MOL0     H84019   6.289   1.422   1.696  0.8728 -0.0053 -0.2850
  609MOL0     H84020   6.390   1.204   1.874 -1.6544  2.4189  0.3790
  609MOL0     H84021   6.494   1.315   1.776  3.0288 -3.3048  1.8136
  609MOL0     H84022   5.501   1.516   2.130 -0.9250  0.8059  2.3739
  609MOL0     H84023   5.314   1.681   2.168 -1.1804  1.3472 -2.4627
  609MOL0     H84024   4.930   1.859   2.120 -1.3353 -0.2345 -0.1947
  609MOL0     H84025   4.754   2.017   2.120 -3.4502 -1.5663 -2.1033
  609MOL0     H84026   4.963   1.737   2.659  4.4847  1.9094 -0.4655
  609MOL0     H84027   5.142   1.636   2.757 -2.1881 -1.6417  0.8862
  609MOL0     H84028   5.497   1.527   2.842  0.3172  1.9436  0.6549
  609MOL0     H84029   5.733   1.504   2.929 -1.5687 -0.9556  0.4231
  609MOL0     H84030   6.033   1.366   2.589  0.7795  0.9047 -0.8618
  609MOL0     H84031   6.058   1.533   2.593  2.8412 -1.2280 -1.0285
  609MOL0     H84032   6.202   1.502   2.801  0.7568  2.6604 -1.4766
  609MOL0     H84033   6.269   1.430   2.646 -0.6843 -0.8815  0.5053
  609MOL0     H84034   6.116   1.277   2.869 -0.0176 -0.3079  0.3734
  609MOL0     H84035   6.193   1.211   2.728  0.6783 -0.4535  0.4028
  609MOL0     H84036   6.345   1.164   2.927 -1.5711  0.4612  0.7604
  609MOL0     H84037   6.337   1.342   2.963  2.0713  2.0868 -1.0257
  609MOL0     H84038   6.598   1.246   2.617 -2.5328  0.1876 -2.6822
  609MOL0     H84039   5.867   1.476   2.524 -1.3154 -0.4974 -0.7846
  609MOL0     H84040   5.520   1.458   2.391  1.4142 -4.7665  2.4968
  609MOL0     H84041   5.624   1.610   2.352 -0.9805 -0.2066 -0.0394
  609MOL0     H84042   5.684   1.449   2.341  1.6443  0.3944  2.3778
  610MOL0     O84043   9.862   6.859  10.184  0.1985  0.1215  0.8418
  610MOL0     C84044   9.748   6.810  10.177  0.1312 -0.5350 -0.2298
  610MOL0     O84045   9.719   6.682  10.154 -0.6327  0.1241 -0.6293
  610MOL0     C84046   9.807   6.582  10.124  0.1513  0.6067  0.2792
  610MOL0     C84047   9.763   6.450  10.156  0.3031  0.6616 -0.2638
  610MOL0     C84048   9.854   6.346  10.142  0.2463  0.1153 -0.1483
  610MOL0     C84049   9.986   6.374  10.114 -0.1998  0.0420 -0.4109
  610MOL0     O84050  10.064   6.265  10.118 -1.0465 -0.3484  0.2563
  610MOL0     C84051  10.187   6.276  10.172  0.4317  1.3588  0.5393
  610MOL0     C84052  10.249   6.139  10.208  0.1440 -0.2169 -0.8227
  610MOL0     C84053  10.166   6.041  10.296 -0.2114 -0.6277 -0.0997
  610MOL0     C84054  10.177   6.074  10.445  0.0686 -0.1878  0.4304
  610MOL0     C84055  10.109   5.965  10.528  1.1346  0.2101  0.1539
  610MOL0     C84056  10.139   5.979  10.675  1.4952  0.3122 -0.4302
  610MOL0     C84057  10.094   5.848  10.753 -0.7074  0.1497 -0.0584
  610MOL0     C84058  10.094   5.861  10.910 -0.8590 -0.9043  1.5571
  610MOL0     N84059  10.032   5.756  10.988  0.3783 -1.1633  0.9053
  610MOL0     C84060  10.035   5.745  11.120  0.0683 -0.4596 -0.5300
  610MOL0     C84061   9.985   5.623  11.155  1.0417 -0.6882  0.1053
  610MOL0     C84062   9.962   5.561  11.289 -0.5833 -0.4944  1.3329
  610MOL0     C84063   9.914   5.643  11.405 -0.7892  0.9547  0.4481
  610MOL0     C84064   9.762   5.676  11.393 -0.0335  0.6736  0.1119
  610MOL0     C84065   9.705   5.775  11.497  0.1113 -0.3824 -0.1842
  610MOL0     O84066   9.663   5.893  11.434 -0.2698 -0.1424  0.5012
  610MOL0     C84067   9.620   6.002  11.503 -0.1880 -0.3573 -0.3454
  610MOL0     C84068   9.595   6.114  11.427  0.3324 -0.0665 -0.9969
  610MOL0     C84069   9.551   6.240  11.491 -0.0567  0.4970 -0.3816
  610MOL0     C84070   9.532   6.353  11.395 -0.2970 -0.2850 -0.9118
  610MOL0     C84071   9.523   6.244  11.633  0.7588 -0.6323 -0.2049
  610MOL0     C84072   9.461   6.371  11.702 -0.0858  0.3695 -0.3193
  610MOL0     O84073   9.509   6.394  11.824  0.4728  0.2517 -0.0660
  610MOL0     C84074   9.498   6.521  11.875 -0.6724  0.1843 -0.4483
  610MOL0     C84075   9.371   6.564  11.924  0.2214 -0.1716 -0.1928
  610MOL0     C84076   9.367   6.694  11.990  0.8188  0.4318  0.4565
  610MOL0     C84077   9.477   6.774  12.009 -0.6361 -0.0106 -0.3713
  610MOL0     O84078   9.479   6.890  12.073 -0.3744 -0.1554  0.1238
  610MOL0     C84079   9.406   6.907  12.196  0.2956 -0.0083  0.0886
  610MOL0     C84080   9.478   6.842  12.314 -0.0406  0.7588  1.0073
  610MOL0     C84081   9.629   6.874  12.335  0.0282 -0.4622  0.0073
  610MOL0     C84082   9.675   6.831  12.477 -0.7265 -0.0145  0.2522
  610MOL0     C84083   9.670   6.673  12.500  0.3142 -0.8335  0.2497
  610MOL0     C84084   9.752   6.631  12.619 -0.1667  0.6681  0.0286
  610MOL0     C84085   9.703   6.690  12.756 -0.1134  1.4998  0.4004
  610MOL0     C84086   9.779   6.642  12.880  0.1232  0.5001 -0.0285
  610MOL0    Cl84087   9.957   6.633  12.857 -0.3102  0.0256  0.0186
  610MOL0     C84088   9.602   6.721  11.962  0.1028 -0.2049 -0.3449
  610MOL0     C84089   9.610   6.598  11.902 -0.2167 -0.2617 -0.6787
  610MOL0     O84090   9.379   6.441  11.641 -0.1423  0.3891 -0.2115
  610MOL0     C84091   9.551   6.123  11.700  0.1984 -0.7553 -0.8990
  610MOL0     C84092   9.610   6.013  11.636 -0.5728 -0.4572  0.1618
  610MOL0     N84093   9.959   5.560  11.029  0.1459 -1.0376 -0.6570
  610MOL0     N84094   9.992   5.641  10.938 -0.4832 -0.8382 -0.2041
  610MOL0     C84095  10.031   6.495  10.083  0.0704  0.2896 -0.2753
  610MOL0     C84096   9.945   6.601  10.091  0.3858  0.1068  0.5003
  610MOL0     C84097   9.640   6.901  10.205  0.0203  0.1485  0.3939
  610MOL0     C84098   9.652   7.039  10.155  0.0053  0.2000  0.5582
  610MOL0     C84099   9.550   7.119  10.193 -0.0651  0.9719  0.8390
  610MOL0     C84100   9.441   7.076  10.277 -0.5515 -0.8620 -0.2533
  610MOL0     O84101   9.356   7.172  10.318 -0.3286  0.1764  0.1240
  610MOL0     C84102   9.382   7.232  10.448 -0.0113  0.4649  1.3488
  610MOL0     C84103   9.267   7.324  10.488  1.8898 -0.9326 -0.7164
  610MOL0     C84104   9.292   7.441  10.602  0.0007  0.9554 -0.6777
  610MOL0     C84105   9.359   7.392  10.734 -0.1065  0.5237  0.4737
  610MOL0     C84106   9.265   7.315  10.818  0.9822 -0.0257  0.0598
  610MOL0     C84107   9.179   7.245  10.866 -0.2069 -0.3882  0.2205
  610MOL0     C84108   9.423   6.945  10.306  0.0148 -0.5073 -0.5104
  610MOL0     C84109   9.529   6.857  10.276  0.0938  0.7813 -0.6572
  610MOL0     C84110   9.512   6.714  10.326 -0.0228  0.4394  0.0598
  610MOL0     H84111   9.662   6.433  10.190  0.5365  0.1610  0.1940
  610MOL0     H84112   9.824   6.248  10.176 -1.6515  1.0472  1.0774
  610MOL0     H84113  10.190   6.334  10.265 -0.4318 -0.3356  1.6874
  610MOL0     H84114  10.260   6.311  10.099  0.5275  1.5500  0.7236
  610MOL0     H84115  10.252   6.090  10.110 -1.4824  3.3515 -2.8240
  610MOL0     H84116  10.355   6.142  10.236  0.5430 -2.6977 -1.7781
  610MOL0     H84117  10.065   6.037  10.254 -0.2129  0.4544 -0.2186
  610MOL0     H84118  10.216   5.944  10.284 -2.1465 -1.4335 -2.5150
  610MOL0     H84119  10.284   6.077  10.464 -0.2240  1.9081  2.1003
  610MOL0     H84120  10.133   6.172  10.465  3.2561  1.3267  0.6260
  610MOL0     H84121  10.128   5.865  10.487 -2.3039 -1.0668  1.2547
  610MOL0     H84122  10.002   5.965  10.505  0.7025 -0.1550  2.0207
  610MOL0     H84123  10.244   6.001  10.694  1.3117  0.5036  0.3831
  610MOL0     H84124  10.071   6.054  10.715  0.6719 -0.7337  0.1820
  610MOL0     H84125  10.160   5.763  10.733 -3.3067 -2.0300  0.0137
  610MOL0     H84126   9.989   5.819  10.741 -0.7419  0.6893 -1.1621
  610MOL0     H84127  10.198   5.855  10.945  0.0102  1.1351 -0.3905
  610MOL0     H84128  10.055   5.958  10.940  0.2782  0.4871 -1.0836
  610MOL0     H84129  10.067   5.815  11.196  1.2725  1.7242 -2.8967
  610MOL0     H84130  10.059   5.513  11.303  0.0136 -0.6126 -2.1254
  610MOL0     H84131   9.889   5.480  11.283  0.4614 -1.3981  0.4113
  610MOL0     H84132   9.931   5.595  11.502 -1.7231 -0.3790 -0.0224
  610MOL0     H84133   9.979   5.731  11.403  1.5502 -0.6870 -0.2923
  610MOL0     H84134   9.728   5.697  11.292 -2.0572  0.4605  0.7107
  610MOL0     H84135   9.710   5.588  11.430 -0.8018  0.4449 -1.4503
  610MOL0     H84136   9.608   5.741  11.534 -0.8745  2.5576  0.1565
  610MOL0     H84137   9.771   5.793  11.582 -0.5125 -0.4087  0.3159
  610MOL0     H84138   9.618   6.113  11.321 -3.1147 -2.0120 -1.9106
  610MOL0     H84139   9.569   6.325  11.296  0.6878 -3.4661  0.2246
  610MOL0     H84140   9.579   6.446  11.427  0.6036 -1.0025 -0.1055
  610MOL0     H84141   9.424   6.367  11.399 -0.2007  0.5960  2.9351
  610MOL0     H84142   9.283   6.501  11.919 -0.7949  0.9068  2.3701
  610MOL0     H84143   9.274   6.730  12.034 -0.6140 -4.3279  1.9554
  610MOL0     H84144   9.400   7.013  12.223  1.1823  0.1462 -0.2739
  610MOL0     H84145   9.306   6.865  12.193 -0.4555  1.6635  0.6081
  610MOL0     H84146   9.430   6.863  12.410  1.1986 -0.5747  1.9563
  610MOL0     H84147   9.470   6.733  12.307  0.9546  0.7947 -1.8615
  610MOL0     H84148   9.635   6.982  12.321  1.9587 -0.5962 -0.6453
  610MOL0     H84149   9.688   6.821  12.259 -2.8603 -0.5966 -2.3021
  610MOL0     H84150   9.610   6.865  12.557 -0.5712 -1.1909  0.9030
  610MOL0     H84151   9.774   6.874  12.493  0.3311 -2.2712  0.1316
  610MOL0     H84152   9.569   6.633  12.500 -0.0215 -0.0053  0.5202
  610MOL0     H84153   9.709   6.627  12.409 -1.6500 -2.0868  0.0005
  610MOL0     H84154   9.851   6.666  12.590  0.4368 -1.9814 -1.4696
  610MOL0     H84155   9.747   6.521  12.618 -0.2153  0.6576 -1.5961
  610MOL0     H84156   9.595   6.676  12.767 -0.0449  1.1236  0.6099
  610MOL0     H84157   9.719   6.798  12.747  1.3336  1.2330 -0.6824
  610MOL0     H84158   9.747   6.543  12.913  2.0695  0.6439  2.5818
  610MOL0     H84159   9.756   6.719  12.954 -0.9120  2.2981 -2.1067
  610MOL0     H84160   9.687   6.789  11.967 -0.5733  0.5926  1.0636
  610MOL0     H84161   9.700   6.539  11.883  1.4178  1.4364  1.3206
  610MOL0     H84162   9.528   6.115  11.806  0.0340 -1.6614 -1.0016
  610MOL0     H84163   9.645   5.942  11.711  0.6819  0.5763  0.5831
  610MOL0     H84164  10.131   6.498  10.041  0.7967  2.8283  1.4181
  610MOL0     H84165   9.989   6.700  10.077  2.6448 -1.0849 -1.5188
  610MOL0     H84166   9.741   7.090  10.122 -1.2220  3.9624  2.4809
  610MOL0     H84167   9.548   7.218  10.148 -2.6485  0.4045 -0.4475
  610MOL0     H84168   9.422   7.171  10.530  3.8406  1.2649  0.2832
  610MOL0     H84169   9.470   7.296  10.436 -0.0399  0.1515 -1.0516
  610MOL0     H84170   9.179   7.264  10.514  1.2937  1.3979  3.5486
  610MOL0     H84171   9.250   7.380  10.395 -1.9230 -0.3775  0.1600
  610MOL0     H84172   9.352   7.525  10.565 -1.4681  0.9587 -3.2641
  610MOL0     H84173   9.193   7.485  10.617  0.5460  1.3598  2.3867
  610MOL0     H84174   9.400   7.479  10.786  0.6658  0.6470 -0.3156
  610MOL0     H84175   9.439   7.320  10.713 -0.7554 -1.5855  4.1796
  610MOL0     H84176   9.113   7.181  10.922 -1.3538 -1.4942 -2.2320
  610MOL0     H84177   9.346   6.913  10.376  1.5423 -1.1501  0.9841
  610MOL0     H84178   9.498   6.646  10.241  1.4377 -1.0107  0.9191
  610MOL0     H84179   9.604   6.693  10.383  0.0423 -1.0470 -0.5420
  610MOL0     H84180   9.424   6.695  10.388  0.0465  0.7040  0.2387
  611MOL0     O84181  10.375  10.114  10.053  0.7406  0.2759 -0.1239
  611MOL0     C84182  10.363  10.008   9.994  0.5495  0.5850  1.4556
  611MOL0     O84183  10.306   9.888  10.030 -0.2433  0.1490 -0.7329
  611MOL0     C84184  10.246   9.864  10.144 -0.0158 -0.0954 -0.0283
  611MOL0     C84185  10.208   9.949  10.244 -0.8929 -0.2317 -0.3854
  611MOL0     C84186  10.160   9.885  10.355  0.2529 -0.2040  0.3195
  611MOL0     C84187  10.110   9.744  10.357  0.5059 -0.3946  0.2643
  611MOL0     O84188  10.055   9.681  10.465 -0.0722  0.1364  0.4599
  611MOL0     C84189  10.008   9.766  10.569  0.0671 -1.2361  0.7741
  611MOL0     C84190   9.950   9.690  10.687  0.6176  0.1362 -0.3121
  611MOL0     C84191   9.804   9.654  10.668  0.2436 -0.8305  0.2856
  611MOL0     C84192   9.732   9.586  10.783  0.7419  0.5865  0.3138
  611MOL0     C84193   9.581   9.598  10.761  0.3047 -0.1221  0.9366
  611MOL0     C84194   9.479   9.539  10.838  0.0475  0.8449  0.0762
  611MOL0     C84195   9.486   9.578  10.988  0.6190 -0.1676 -0.5465
  611MOL0     C84196   9.342   9.560  11.048  0.3736 -0.1525 -0.0475
  611MOL0     N84197   9.257   9.681  11.030  0.4200 -0.0675 -0.0215
  611MOL0     C84198   9.193   9.753  11.129 -0.7622  0.1083 -0.1141
  611MOL0     C84199   9.111   9.827  11.055 -0.1614 -0.0651 -0.0520
  611MOL0     C84200   9.018   9.926  11.126  0.2137  0.1600 -0.0065
  611MOL0     C84201   8.870   9.900  11.116 -0.4824  1.4122 -0.1989
  611MOL0     C84202   8.811   9.846  10.970  0.1149 -0.3690  0.8968
  611MOL0     C84203   8.666   9.894  10.937 -1.2485  0.8429 -0.0235
  611MOL0     O84204   8.659  10.031  10.923  0.1182  0.2553 -0.1129
  611MOL0     C84205   8.578  10.079  10.832  0.6675  0.1759 -0.3588
  611MOL0     C84206   8.445  10.030  10.830 -1.1007 -0.6478  0.4322
  611MOL0     C84207   8.355  10.081  10.740  0.5526 -0.1724 -0.5108
  611MOL0     C84208   8.214  10.026  10.733 -0.6640 -0.2257  0.5073
  611MOL0     C84209   8.397  10.186  10.656 -0.3109  0.0115 -0.7274
  611MOL0     C84210   8.303  10.260  10.565 -0.9364 -1.3037 -0.3257
  611MOL0     O84211   8.340  10.263  10.435 -0.1980  0.0836 -0.6276
  611MOL0     C84212   8.242  10.311  10.348  0.2246  0.0359  0.3612
  611MOL0     C84213   8.119  10.252  10.313  0.1393 -0.5215  0.1745
  611MOL0     C84214   8.025  10.315  10.233 -0.0509  0.4190 -0.5874
  611MOL0     C84215   8.046  10.441  10.176  0.2233  0.3413 -0.3588
  611MOL0     O84216   7.935  10.496  10.119 -0.0048 -0.7114  0.9533
  611MOL0     C84217   7.966  10.599  10.019  0.1561  0.6811 -0.7230
  611MOL0     C84218   7.840  10.653   9.963  0.7713  0.0983 -0.2473
  611MOL0     C84219   7.743  10.555   9.894  0.0712  0.0177  1.1466
  611MOL0     C84220   7.614  10.623   9.851 -0.2166 -0.1132 -0.8486
  611MOL0     C84221   7.509  10.520   9.809  0.6259 -0.1419 -0.1069
  611MOL0     C84222   7.369  10.577   9.782 -0.0605 -0.6977  0.2978
  611MOL0     C84223   7.280  10.475   9.708 -0.1556  0.2696  0.6265
  611MOL0     C84224   7.144  10.530   9.667  0.5252  1.9746  0.1400
  611MOL0    Cl84225   7.140  10.661   9.549 -0.0954 -0.0985  0.0455
  611MOL0     C84226   8.177  10.495  10.201 -1.2889 -0.3907 -1.0953
  611MOL0     C84227   8.271  10.427  10.280 -1.1172  0.5654  0.2148
  611MOL0     O84228   8.210  10.314  10.613  0.4760 -0.8925  0.1569
  611MOL0     C84229   8.531  10.222  10.641  0.4103 -0.3021  0.1060
  611MOL0     C84230   8.616  10.174  10.738  0.8315 -0.2708  0.6689
  611MOL0     N84231   9.121   9.794  10.920 -0.0625  0.2288  0.7361
  611MOL0     N84232   9.224   9.718  10.906 -0.0664 -0.2547  0.4540
  611MOL0     C84233  10.144   9.664  10.244  0.3467  1.1843 -0.6248
  611MOL0     C84234  10.218   9.726  10.143  0.5161 -0.1291 -0.8310
  611MOL0     C84235  10.422  10.002   9.851  1.1743 -0.5551  0.2589
  611MOL0     C84236  10.376   9.899   9.764 -0.6175 -0.6749 -0.2539
  611MOL0     C84237  10.431   9.878   9.633  0.8372  0.8566 -0.3821
  611MOL0     C84238  10.532   9.963   9.583  0.8537 -0.1534 -0.1188
  611MOL0     O84239  10.564   9.948   9.448  0.1683  0.2258 -0.3017
  611MOL0     C84240  10.626  10.055   9.373  0.1859  0.3065  0.2500
  611MOL0     C84241  10.534  10.176   9.360  0.4442 -0.3420 -0.4196
  611MOL0     C84242  10.483  10.204   9.219 -0.2589 -1.0273  0.2448
  611MOL0     C84243  10.378  10.328   9.225  0.1413  0.0737  0.4571
  611MOL0     C84244  10.335  10.366   9.094  1.4993 -0.2105 -0.1388
  611MOL0     C84245  10.288  10.403   8.986  0.5376 -0.0497 -0.5278
  611MOL0     C84246  10.593  10.051   9.678  0.0736 -1.3407 -0.9556
  611MOL0     C84247  10.543  10.068   9.807  0.9785 -0.1834  0.1438
  611MOL0     C84248  10.630  10.146   9.897 -0.4430 -0.6414  0.2015
  611MOL0     H84249  10.244  10.051  10.254  1.0306 -0.9537  0.5236
  611MOL0     H84250  10.164   9.949  10.443 -1.1971  0.7754 -0.2867
  611MOL0     H84251   9.936   9.842  10.538  1.0060  0.6606  2.9427
  611MOL0     H84252  10.095   9.819  10.609  1.1120  0.2396 -3.0111
  611MOL0     H84253  10.004   9.597  10.707  2.4857  1.3301  0.5146
  611MOL0     H84254   9.966   9.757  10.772 -0.3554  1.0278 -0.8136
  611MOL0     H84255   9.742   9.742  10.648  0.7510  0.1555  2.6829
  611MOL0     H84256   9.795   9.592  10.578 -2.8312 -0.2433  0.0826
  611MOL0     H84257   9.748   9.478  10.786 -0.6761  0.3680  1.9321
  611MOL0     H84258   9.747   9.631  10.882 -1.2857 -1.0792  1.4785
  611MOL0     H84259   9.565   9.574  10.655  3.4845  0.4811  0.2081
  611MOL0     H84260   9.553   9.703  10.771 -2.6160 -0.5418 -1.4105
  611MOL0     H84261   9.380   9.557  10.794 -0.8719 -2.6564  0.4019
  611MOL0     H84262   9.480   9.430  10.831  1.1020  0.4176  4.1487
  611MOL0     H84263   9.518   9.683  10.990  0.8407 -0.2224 -1.1155
  611MOL0     H84264   9.561   9.511  11.030  0.5944 -1.2383 -2.1419
  611MOL0     H84265   9.290   9.477  10.999 -1.2251 -0.9524  2.7694
  611MOL0     H84266   9.356   9.540  11.155  1.7967  1.5356  0.1365
  611MOL0     H84267   9.202   9.748  11.237  1.4672  2.7279 -0.0740
  611MOL0     H84268   9.030  10.023  11.077 -0.0834 -1.4718 -3.6884
  611MOL0     H84269   9.043   9.934  11.232 -0.4984 -2.7233  0.4736
  611MOL0     H84270   8.854   9.820  11.190 -0.6778 -0.0594 -1.7769
  611MOL0     H84271   8.819   9.988  11.155 -0.2716  0.6232  2.0164
  611MOL0     H84272   8.872   9.876  10.884 -1.0735 -1.9684 -0.5773
  611MOL0     H84273   8.825   9.737  10.970 -0.0207 -0.4827 -2.2878
  611MOL0     H84274   8.639   9.839  10.846  1.1083 -2.8350  1.2850
  611MOL0     H84275   8.599   9.845  11.008  0.8558  0.8960  2.0981
  611MOL0     H84276   8.411   9.951  10.895  0.0584 -1.6302 -0.1008
  611MOL0     H84277   8.195   9.927  10.775 -0.9238 -2.6609 -4.5098
  611MOL0     H84278   8.190  10.006  10.628  0.1836 -4.0457  0.9074
  611MOL0     H84279   8.154  10.106  10.776 -0.7693  0.5030 -0.9126
  611MOL0     H84280   8.089  10.156  10.355 -1.0978 -0.2637 -0.0526
  611MOL0     H84281   7.928  10.267  10.225 -1.3140  2.8809 -0.8144
  611MOL0     H84282   8.017  10.675  10.079 -1.6512  1.3044  0.1015
  611MOL0     H84283   8.040  10.570   9.944  2.2298  1.0373  1.0762
  611MOL0     H84284   7.780  10.697  10.043 -1.8958 -2.2824 -0.8118
  611MOL0     H84285   7.879  10.729   9.893 -1.3330  0.6172 -0.9110
  611MOL0     H84286   7.737  10.474   9.967  4.2731 -2.0622 -0.5092
  611MOL0     H84287   7.779  10.502   9.806 -3.0075 -0.9512  0.3174
  611MOL0     H84288   7.630  10.686   9.764  0.7715 -0.7969 -1.1883
  611MOL0     H84289   7.577  10.677   9.939  0.2791 -0.6447 -0.2998
  611MOL0     H84290   7.543  10.467   9.720  1.1468  0.3101 -0.1765
  611MOL0     H84291   7.511  10.451   9.895  0.2494 -1.2142 -0.9312
  611MOL0     H84292   7.374  10.666   9.719 -0.0075  0.6716  2.1747
  611MOL0     H84293   7.316  10.593   9.877 -0.7602 -1.0978 -0.0104
  611MOL0     H84294   7.288  10.377   9.757  1.0292 -0.2311 -0.5192
  611MOL0     H84295   7.330  10.454   9.613 -1.4484  2.2501 -0.5673
  611MOL0     H84296   7.089  10.573   9.751 -0.2506  1.9780 -0.3594
  611MOL0     H84297   7.083  10.442   9.645  1.9016  0.7262  1.1781
  611MOL0     H84298   8.202  10.594  10.162 -1.4791 -0.2804 -0.9419
  611MOL0     H84299   8.371  10.466  10.300  0.1270 -0.8450 -2.6159
  611MOL0     H84300   8.553  10.300  10.569 -0.2568 -0.1790  0.0262
  611MOL0     H84301   8.719  10.208  10.736  1.3179 -1.6370 -1.3494
  611MOL0     H84302  10.111   9.560  10.242 -0.8785  1.5655 -1.6258
  611MOL0     H84303  10.241   9.671  10.052 -1.0464 -1.4336 -0.5000
  611MOL0     H84304  10.293   9.833   9.788  0.6088 -1.3394  2.4507
  611MOL0     H84305  10.382   9.808   9.566  2.4492 -0.4048 -0.2862
  611MOL0     H84306  10.722  10.085   9.415  1.9447 -1.0584 -2.4638
  611MOL0     H84307  10.649  10.020   9.272  2.1310  1.2741  0.3259
  611MOL0     H84308  10.593  10.261   9.396 -0.2415 -0.4553  1.0272
  611MOL0     H84309  10.448  10.165   9.427  1.9339  1.8696  2.0205
  611MOL0     H84310  10.575  10.219   9.161 -1.9169 -0.8557 -2.5510
  611MOL0     H84311  10.443  10.113   9.174  1.8264 -1.4298 -0.9218
  611MOL0     H84312  10.424  10.413   9.275  2.2769 -0.2493 -0.8536
  611MOL0     H84313  10.298  10.302   9.295  0.5473  1.1952  1.3732
  611MOL0     H84314  10.227  10.426   8.902 -3.9790 -2.1283  1.8084
  611MOL0     H84315  10.673  10.117   9.645 -1.3252 -0.2831 -2.4206
  611MOL0     H84316  10.730  10.106   9.879 -0.7243 -0.7498 -1.1787
  611MOL0     H84317  10.625  10.252   9.872 -2.0017 -1.0199 -1.3074
  611MOL0     H84318  10.611  10.147  10.005 -0.1866  1.9395  0.2866
  612MOL0     O84319   1.329   6.374  11.540 -1.3384  0.5823 -0.1319
  612MOL0     C84320   1.404   6.457  11.585 -0.6748 -0.8338 -0.1249
  612MOL0     O84321   1.424   6.471  11.722  0.0158 -0.6903 -0.3566
  612MOL0     C84322   1.372   6.367  11.804 -0.4996 -0.6866 -0.3861
  612MOL0     C84323   1.416   6.238  11.790  0.2466 -0.3457 -0.6150
  612MOL0     C84324   1.388   6.139  11.882 -1.0289 -0.0082  0.4635
  612MOL0     C84325   1.307   6.175  11.994  0.0555  0.5047  0.0901
  612MOL0     O84326   1.248   6.082  12.082 -0.0345 -0.0978 -0.1432
  612MOL0     C84327   1.264   5.946  12.062 -0.1909  0.0135 -0.6932
  612MOL0     C84328   1.156   5.856  12.135 -0.3472 -0.3454 -0.0174
  612MOL0     C84329   1.132   5.896  12.283 -0.8444 -0.4541  0.5168
  612MOL0     C84330   1.077   5.774  12.355 -0.4932 -0.0576  0.0733
  612MOL0     C84331   1.062   5.799  12.512  0.3830  0.8514  0.0102
  612MOL0     C84332   0.942   5.887  12.528  0.8196  1.5709  0.4130
  612MOL0     C84333   0.887   5.911  12.675  0.8008  1.0290 -0.6053
  612MOL0     C84334   1.003   5.966  12.754  0.1684  0.9914  0.7143
  612MOL0     N84335   0.964   6.001  12.890 -0.1390 -0.7041  1.2330
  612MOL0     C84336   1.030   6.086  12.973  0.4023 -0.0194  0.0126
  612MOL0     C84337   0.986   6.061  13.099 -0.7650 -0.1010 -0.9616
  612MOL0     C84338   1.031   6.124  13.227  0.0263 -0.8769  0.4776
  612MOL0     C84339   0.964   6.259  13.253  0.1286  0.4310 -0.3546
  612MOL0     C84340   1.014   6.360  13.359  0.0820 -0.2066  0.2095
  612MOL0     C84341   0.904   6.459  13.402 -0.2000  0.0410 -0.3191
  612MOL0     O84342   0.847   6.541  13.297 -0.4446  0.1879  0.0830
  612MOL0     C84343   0.807   6.664  13.339  0.0442 -0.3874 -0.5764
  612MOL0     C84344   0.897   6.765  13.312  0.1714 -0.0642  0.9446
  612MOL0     C84345   0.878   6.895  13.366  0.1717  0.6017  0.6337
  612MOL0     C84346   0.998   6.992  13.343 -0.1207  0.4506  0.5800
  612MOL0     C84347   0.757   6.928  13.444 -1.2754  0.3296 -0.4536
  612MOL0     C84348   0.723   7.056  13.500  0.0433 -0.4223 -0.4558
  612MOL0     O84349   0.613   7.071  13.565 -0.0315 -0.3173  0.5535
  612MOL0     C84350   0.590   7.191  13.620 -1.1813  0.1065 -1.6101
  612MOL0     C84351   0.495   7.278  13.571 -0.0077 -0.6639 -0.2861
  612MOL0     C84352   0.460   7.393  13.654 -0.1895  1.0716  0.9408
  612MOL0     C84353   0.506   7.401  13.783 -0.2954  0.0761  0.1415
  612MOL0     O84354   0.460   7.492  13.873 -0.0768  0.3523 -0.2141
  612MOL0     C84355   0.418   7.617  13.824  0.6223  0.3864 -0.1440
  612MOL0     C84356   0.520   7.723  13.800  0.4563 -0.7019 -0.0098
  612MOL0     C84357   0.652   7.738  13.896  0.4343 -0.7570  0.3404
  612MOL0     C84358   0.774   7.666  13.838  0.0546 -0.1826 -0.4943
  612MOL0     C84359   0.897   7.662  13.942 -0.1255 -0.1076 -0.3005
  612MOL0     C84360   0.964   7.793  13.978 -0.3320 -0.3282  1.2243
  612MOL0     C84361   1.032   7.777  14.110 -0.4829 -0.8954 -0.2693
  612MOL0     C84362   0.948   7.811  14.237  0.9075  0.2463  0.1925
  612MOL0    Cl84363   1.029   7.739  14.381  0.1593 -0.6762  0.5732
  612MOL0     C84364   0.605   7.317  13.828 -0.7423 -0.3516 -0.5605
  612MOL0     C84365   0.654   7.219  13.742 -0.5451 -0.1476  0.6995
  612MOL0     O84366   0.802   7.146  13.491 -0.3116 -0.9657 -0.1854
  612MOL0     C84367   0.663   6.827  13.457 -0.4944 -0.0185 -0.4762
  612MOL0     C84368   0.685   6.696  13.404 -0.4395  0.1973 -0.5190
  612MOL0     N84369   0.888   5.969  13.092  0.1751  0.4511  0.5363
  612MOL0     N84370   0.881   5.929  12.970  0.0876  0.1078  0.4656
  612MOL0     C84371   1.282   6.317  12.021  0.3580 -0.0215  0.7726
  612MOL0     C84372   1.313   6.411  11.922  0.4695  0.7650  0.7178
  612MOL0     C84373   1.472   6.555  11.486 -0.0241  0.7315 -0.6076
  612MOL0     C84374   1.565   6.644  11.536 -0.1418  0.2190 -0.3867
  612MOL0     C84375   1.648   6.735  11.460  1.0492  0.0254 -1.1285
  612MOL0     C84376   1.617   6.746  11.318 -0.2951 -0.0086  0.1156
  612MOL0     O84377   1.685   6.832  11.231  0.0096 -0.3043 -0.1768
  612MOL0     C84378   1.802   6.898  11.277 -0.3285  0.0550  0.7823
  612MOL0     C84379   1.759   7.036  11.338 -0.5880 -0.4013 -1.2583
  612MOL0     C84380   1.884   7.128  11.376 -0.0926  0.2099  0.8610
  612MOL0     C84381   1.831   7.253  11.449 -0.6278  0.6329 -0.6126
  612MOL0     C84382   1.751   7.341  11.367 -0.8098  0.2265  0.5786
  612MOL0     C84383   1.707   7.419  11.283  0.2808  1.1029  0.7136
  612MOL0     C84384   1.515   6.662  11.271  0.1522  0.9750  0.5959
  612MOL0     C84385   1.443   6.572  11.349 -0.5487 -0.0594 -0.7349
  612MOL0     C84386   1.350   6.482  11.285 -0.6960 -0.0586  0.0326
  612MOL0     H84387   1.488   6.215  11.712  0.2186 -3.4116  0.1197
  612MOL0     H84388   1.435   6.042  11.867  1.9478  1.0251  2.2957
  612MOL0     H84389   1.363   5.914  12.095 -0.7051  0.6046  1.6650
  612MOL0     H84390   1.255   5.919  11.957  0.1170  0.0464 -0.7278
  612MOL0     H84391   1.062   5.858  12.079 -0.6521 -0.9153  0.4654
  612MOL0     H84392   1.192   5.753  12.130 -2.0796 -0.9418 -1.2556
  612MOL0     H84393   1.231   5.919  12.322  0.2592  0.2382 -2.4309
  612MOL0     H84394   1.067   5.983  12.293 -0.0267  0.4950 -1.7390
  612MOL0     H84395   0.983   5.749  12.306 -0.3135 -0.1074 -0.2521
  612MOL0     H84396   1.146   5.690  12.342  0.2867  0.9349 -2.9349
  612MOL0     H84397   1.151   5.846  12.555  1.0319 -0.3865  0.0474
  612MOL0     H84398   1.050   5.708  12.571 -0.8161  1.5900  0.9458
  612MOL0     H84399   0.957   5.982  12.476  1.2184  0.3330 -1.8744
  612MOL0     H84400   0.857   5.837  12.481  0.7243  0.3563  1.8072
  612MOL0     H84401   0.858   5.812  12.709  1.6462 -0.1472 -3.0626
  612MOL0     H84402   0.798   5.974  12.668 -0.1784 -0.4103 -1.7027
  612MOL0     H84403   1.070   5.879  12.755 -0.6974  0.2361 -1.1307
  612MOL0     H84404   1.050   6.044  12.694  2.7630 -1.2760 -0.4428
  612MOL0     H84405   1.110   6.149  12.935 -0.1428  0.5223 -0.2511
  612MOL0     H84406   1.136   6.155  13.222 -0.8907  2.3687 -1.3842
  612MOL0     H84407   1.017   6.058  13.313 -0.0346 -1.2143  0.2116
  612MOL0     H84408   0.948   6.315  13.160 -2.1249  1.0084  0.2983
  612MOL0     H84409   0.859   6.249  13.284  0.0905  1.9640  0.1160
  612MOL0     H84410   1.031   6.302  13.450 -2.6037 -0.0047  0.9203
  612MOL0     H84411   1.098   6.420  13.320 -1.2396  0.6081 -1.5278
  612MOL0     H84412   0.821   6.398  13.438  0.5142  0.1694  1.6672
  612MOL0     H84413   0.935   6.532  13.477 -2.5127  0.5869  0.1748
  612MOL0     H84414   0.982   6.738  13.250  0.4051  2.5020  0.0253
  612MOL0     H84415   0.977   7.058  13.258  1.8815 -0.1250 -0.4224
  612MOL0     H84416   1.085   6.931  13.317 -0.6738  0.5718 -1.7904
  612MOL0     H84417   1.035   7.048  13.429 -1.6728  0.6955  1.1212
  612MOL0     H84418   0.440   7.263  13.479 -0.8470  0.9055 -0.0794
  612MOL0     H84419   0.386   7.451  13.600 -2.2652 -2.5271 -0.4090
  612MOL0     H84420   0.358   7.615  13.733 -1.3556  2.3151  1.0286
  612MOL0     H84421   0.352   7.658  13.901  1.1208  1.1109 -0.0924
  612MOL0     H84422   0.561   7.707  13.700 -2.9992 -2.3113 -1.3237
  612MOL0     H84423   0.451   7.809  13.804  0.8502 -0.4259  1.9112
  612MOL0     H84424   0.620   7.699  13.993 -0.4812 -1.8879 -0.3889
  612MOL0     H84425   0.675   7.843  13.916  0.7173 -1.1302  2.1612
  612MOL0     H84426   0.801   7.720  13.747  2.3168 -2.6150 -1.3939
  612MOL0     H84427   0.750   7.562  13.814 -0.4124 -0.4872  1.1678
  612MOL0     H84428   0.841   7.614  14.023 -0.0086 -1.2625 -0.8830
  612MOL0     H84429   0.982   7.598  13.918  2.7525  3.0358  0.7934
  612MOL0     H84430   0.895   7.878  13.976  3.4802  3.0813  1.2954
  612MOL0     H84431   1.047   7.812  13.909 -0.2232  2.5134  1.9926
  612MOL0     H84432   1.130   7.825  14.107 -1.2419  0.7355 -0.1950
  612MOL0     H84433   1.057   7.673  14.131 -0.3413 -0.8149 -0.0332
  612MOL0     H84434   0.857   7.755  14.213  1.3997 -0.5453  0.1267
  612MOL0     H84435   0.920   7.916  14.248 -0.1107  0.1054 -0.8247
  612MOL0     H84436   0.643   7.344  13.926 -2.4123  1.9890 -0.4786
  612MOL0     H84437   0.730   7.147  13.772  0.5421 -0.5061 -2.5553
  612MOL0     H84438   0.576   6.838  13.521  0.9831  2.6951  1.1978
  612MOL0     H84439   0.622   6.614  13.438  1.9950 -1.1337  1.0616
  612MOL0     H84440   1.240   6.347  12.116  1.4450  0.7507  1.0228
  612MOL0     H84441   1.305   6.517  11.941  1.7976  1.1127 -0.4722
  612MOL0     H84442   1.591   6.634  11.641 -2.1015 -1.8183 -0.0129
  612MOL0     H84443   1.714   6.807  11.506 -1.5674  2.8395 -1.4213
  612MOL0     H84444   1.859   6.841  11.351  0.8636  0.5395  0.2584
  612MOL0     H84445   1.870   6.912  11.193 -2.6605  0.6246 -1.1510
  612MOL0     H84446   1.684   7.030  11.417  0.3480  0.2521 -0.2759
  612MOL0     H84447   1.710   7.103  11.268 -1.2387 -0.4620 -0.8652
  612MOL0     H84448   1.941   7.077  11.454  1.9983 -0.9660 -1.2999
  612MOL0     H84449   1.935   7.165  11.287 -2.0656 -0.2468 -0.5159
  612MOL0     H84450   1.923   7.302  11.486  0.9158 -1.4526 -1.5024
  612MOL0     H84451   1.778   7.224  11.540  0.8816 -2.3623 -0.5522
  612MOL0     H84452   1.649   7.475  11.211 -1.6567  1.9182  2.7847
  612MOL0     H84453   1.479   6.660  11.169 -1.3175  0.9875  1.0909
  612MOL0     H84454   1.375   6.379  11.314 -0.5752  0.8325  3.5589
  612MOL0     H84455   1.247   6.488  11.322 -1.7546  2.4629 -2.8720
  612MOL0     H84456   1.330   6.491  11.178 -1.2226 -1.7219 -0.0293
  613MOL0     O84457   5.194   1.900   6.612  0.0491  0.1609  0.3326
  613MOL0     C84458   5.241   1.996   6.663 -0.6518  0.7866  0.1964
  613MOL0     O84459   5.360   2.001   6.730 -0.1936  0.4131  0.1651
  613MOL0     C84460   5.451   1.899   6.720 -0.0332  0.2598 -0.1870
  613MOL0     C84461   5.430   1.766   6.784  0.3717 -0.8597  0.2009
  613MOL0     C84462   5.542   1.674   6.787 -0.4996  0.4247 -0.0030
  613MOL0     C84463   5.658   1.705   6.711  0.2213 -0.6450 -0.2370
  613MOL0     O84464   5.768   1.634   6.683 -0.5191  1.1254 -0.0673
  613MOL0     C84465   5.744   1.491   6.669  0.5760 -0.3462 -0.5657
  613MOL0     C84466   5.663   1.459   6.538 -0.5521  0.8153 -0.5185
  613MOL0     C84467   5.703   1.526   6.401  0.5757  0.0978 -0.2049
  613MOL0     C84468   5.593   1.494   6.307 -0.6925  0.4432 -0.6284
  613MOL0     C84469   5.614   1.565   6.166  0.2340  0.5405  0.5963
  613MOL0     C84470   5.580   1.708   6.183 -0.7560  0.0094  0.5315
  613MOL0     C84471   5.550   1.765   6.049  0.3129 -0.9149  1.1239
  613MOL0     C84472   5.473   1.902   6.061 -0.3227  0.1920  0.4318
  613MOL0     N84473   5.439   1.955   5.926 -0.4782  0.1077  0.6431
  613MOL0     C84474   5.317   1.935   5.866  0.2004  0.4814 -0.2796
  613MOL0     C84475   5.316   2.009   5.756  0.4469  0.3223  0.0071
  613MOL0     C84476   5.192   2.012   5.676  0.2620  0.0838 -0.2745
  613MOL0     C84477   5.207   1.979   5.524  0.0999  0.2575 -0.4149
  613MOL0     C84478   5.229   1.827   5.483  0.3071 -1.2174 -0.0673
  613MOL0     C84479   5.317   1.823   5.351  0.2951  0.7418  0.5833
  613MOL0     O84480   5.332   1.690   5.317 -0.2731  0.1624  0.3458
  613MOL0     C84481   5.405   1.594   5.377 -0.0461  0.6022 -0.4179
  613MOL0     C84482   5.495   1.622   5.481 -0.0927 -0.2267  0.0541
  613MOL0     C84483   5.587   1.530   5.539  1.1269 -0.5714  0.1405
  613MOL0     C84484   5.678   1.601   5.645  1.3708  0.2012  0.4354
  613MOL0     C84485   5.581   1.397   5.499  0.6666  0.6092  0.8319
  613MOL0     C84486   5.672   1.296   5.545  0.5815 -0.0354  0.3913
  613MOL0     O84487   5.647   1.177   5.504 -0.0811  0.0178  0.3131
  613MOL0     C84488   5.695   1.066   5.566 -0.3177  0.4974  0.0871
  613MOL0     C84489   5.707   1.047   5.707  0.2108  0.0329  0.7204
  613MOL0     C84490   5.771   0.933   5.758  0.3900  0.7844  0.1801
  613MOL0     C84491   5.801   0.829   5.668  0.0355  0.1438 -0.1144
  613MOL0     O84492   5.836   0.703   5.704 -0.1533 -0.3661  0.2224
  613MOL0     C84493   5.786   0.657   5.833 -0.0530 -0.9720  0.4371
  613MOL0     C84494   5.726   0.521   5.808 -0.3597 -0.0487 -1.1198
  613MOL0     C84495   5.685   0.471   5.939 -0.2939 -0.2787  0.7536
  613MOL0     C84496   5.790   0.371   5.999  0.5098  0.6719 -0.1293
  613MOL0     C84497   5.737   0.303   6.126  0.3687  0.2785 -0.0804
  613MOL0     C84498   5.723   0.410   6.231  0.5742  0.4215 -0.8606
  613MOL0     C84499   5.775   0.380   6.374  0.6154  0.6257 -0.1677
  613MOL0     C84500   5.807   0.505   6.453 -0.4882  0.0346 -0.3808
  613MOL0    Cl84501   5.917   0.613   6.364  0.3089 -0.1279  0.0276
  613MOL0     C84502   5.799   0.855   5.530 -0.0005 -0.2671  0.7723
  613MOL0     C84503   5.735   0.964   5.477  0.7791  0.6630 -0.1435
  613MOL0     O84504   5.755   1.326   5.621 -0.2251 -0.2495 -0.3198
  613MOL0     C84505   5.489   1.365   5.386 -0.2131  0.7563 -0.4510
  613MOL0     C84506   5.400   1.457   5.333 -0.5678 -0.8318 -0.4506
  613MOL0     N84507   5.437   2.063   5.740 -0.0958 -0.1095 -0.7996
  613MOL0     N84508   5.506   2.040   5.844 -0.1009  0.1593  0.5505
  613MOL0     C84509   5.678   1.826   6.667 -0.5667 -0.5993 -0.0090
  613MOL0     C84510   5.579   1.928   6.670  0.5151  0.1394 -0.0460
  613MOL0     C84511   5.151   2.116   6.670  0.5796  1.7804  0.1200
  613MOL0     C84512   5.213   2.236   6.684  0.7217 -0.0267  0.7132
  613MOL0     C84513   5.133   2.353   6.702  0.0608  1.1314 -0.2645
  613MOL0     C84514   4.994   2.347   6.694  0.6551 -0.3770  0.5588
  613MOL0     O84515   4.896   2.444   6.705 -0.2498 -0.1218 -0.4611
  613MOL0     C84516   4.934   2.584   6.706 -0.0561  0.3524 -0.3969
  613MOL0     C84517   4.985   2.641   6.847  0.3371  0.5997 -0.3359
  613MOL0     C84518   4.897   2.600   6.972  0.2000  0.6775  0.3756
  613MOL0     C84519   4.941   2.637   7.108 -0.8508 -0.4880 -0.6656
  613MOL0     C84520   4.976   2.782   7.123  0.1117 -0.1523 -0.4342
  613MOL0     C84521   5.025   2.889   7.104  0.3876 -0.3437  0.5584
  613MOL0     C84522   4.934   2.227   6.664  0.7512  0.2133  1.0732
  613MOL0     C84523   5.011   2.115   6.653 -0.1134 -0.1302  0.4497
  613MOL0     C84524   4.933   1.983   6.649  0.9243  0.1376  0.0891
  613MOL0     H84525   5.332   1.751   6.829 -0.0472 -1.2018 -0.8104
  613MOL0     H84526   5.539   1.587   6.852 -0.0131  1.9263  2.1406
  613MOL0     H84527   5.695   1.448   6.756  1.2027  2.1066  1.0925
  613MOL0     H84528   5.838   1.435   6.673 -0.2615 -1.7292  1.5923
  613MOL0     H84529   5.685   1.353   6.519  2.7825  1.2811  0.0035
  613MOL0     H84530   5.554   1.468   6.542 -0.4855  2.0344 -0.9506
  613MOL0     H84531   5.709   1.632   6.426 -1.3772  0.6191 -1.7360
  613MOL0     H84532   5.800   1.488   6.366  0.4867  0.3256 -0.7141
  613MOL0     H84533   5.595   1.385   6.296 -1.0572  0.5339 -1.6550
  613MOL0     H84534   5.495   1.516   6.350 -0.9122 -1.0134 -0.3152
  613MOL0     H84535   5.548   1.518   6.093  0.0025  1.3677  0.2579
  613MOL0     H84536   5.715   1.544   6.131 -0.6809 -1.5826 -0.9687
  613MOL0     H84537   5.483   1.699   6.232 -1.8068  2.7405 -0.8362
  613MOL0     H84538   5.664   1.757   6.232 -1.3737  0.1718  1.4528
  613MOL0     H84539   5.494   1.688   5.996 -0.3660 -0.6115  1.3970
  613MOL0     H84540   5.647   1.786   6.003  0.9379 -1.1767  2.2724
  613MOL0     H84541   5.383   1.901   6.123 -0.6079  0.5719  0.0208
  613MOL0     H84542   5.535   1.979   6.107 -0.3255  1.0709 -0.9867
  613MOL0     H84543   5.229   1.891   5.912  0.0336  0.4638 -0.6120
  613MOL0     H84544   5.136   2.105   5.685  1.5924  1.0144 -1.1675
  613MOL0     H84545   5.125   1.933   5.710  2.7806 -2.5845 -1.1124
  613MOL0     H84546   5.120   2.010   5.465 -0.9855 -0.6971  0.6358
  613MOL0     H84547   5.298   2.030   5.493  1.2583 -1.4864  0.0049
  613MOL0     H84548   5.282   1.778   5.565 -0.6614  2.2545  2.8767
  613MOL0     H84549   5.136   1.772   5.464 -0.6027  0.0401  0.6466
  613MOL0     H84550   5.270   1.871   5.265  0.0323 -2.5139 -1.2787
  613MOL0     H84551   5.412   1.876   5.359  1.4826 -1.2914  0.8186
  613MOL0     H84552   5.501   1.721   5.524  1.7484  1.0611 -2.8306
  613MOL0     H84553   5.782   1.580   5.620  1.2230  2.3070 -2.5998
  613MOL0     H84554   5.655   1.572   5.748  0.0783  1.4543  0.5360
  613MOL0     H84555   5.667   1.710   5.653 -0.4639 -0.0451  2.1750
  613MOL0     H84556   5.692   1.122   5.784  2.4282 -0.3071  1.5485
  613MOL0     H84557   5.812   0.920   5.857  0.9355 -0.6278 -0.2047
  613MOL0     H84558   5.866   0.659   5.907  0.0497 -0.0413  0.3165
  613MOL0     H84559   5.709   0.726   5.870 -0.1514  0.0151 -1.4754
  613MOL0     H84560   5.636   0.533   5.747 -1.3626 -1.5658 -0.0036
  613MOL0     H84561   5.802   0.462   5.757  1.3985  0.5639  0.6717
  613MOL0     H84562   5.590   0.421   5.920 -1.5989  1.5528  2.1422
  613MOL0     H84563   5.667   0.553   6.009  1.1085  0.0115  0.7983
  613MOL0     H84564   5.876   0.431   6.029  0.0018 -0.2424  3.6390
  613MOL0     H84565   5.822   0.297   5.925 -0.9140  2.5547 -2.8057
  613MOL0     H84566   5.639   0.259   6.106  0.8790 -0.0083 -2.3158
  613MOL0     H84567   5.798   0.223   6.170 -0.0745  0.7785  1.4799
  613MOL0     H84568   5.617   0.433   6.242 -0.0907 -2.8782  1.2203
  613MOL0     H84569   5.782   0.494   6.192  3.6144 -0.4518  1.4925
  613MOL0     H84570   5.871   0.327   6.369  0.8522  1.0451 -0.1106
  613MOL0     H84571   5.700   0.315   6.420  0.7766  0.4745 -0.1171
  613MOL0     H84572   5.839   0.481   6.555 -0.1097  2.4642  0.1283
  613MOL0     H84573   5.709   0.555   6.460  1.3573  4.0031 -0.2917
  613MOL0     H84574   5.841   0.781   5.464  0.4740  1.9177 -1.5300
  613MOL0     H84575   5.723   0.980   5.371 -0.7179  0.9414  0.0464
  613MOL0     H84576   5.479   1.266   5.343 -0.1138  0.4722  0.1586
  613MOL0     H84577   5.324   1.444   5.257  0.1523 -1.5918 -1.0455
  613MOL0     H84578   5.761   1.860   6.606 -2.5880  2.3080 -1.4205
  613MOL0     H84579   5.589   2.023   6.617 -4.7135  0.7167 -0.4737
  613MOL0     H84580   5.320   2.248   6.695  0.5416  3.3541 -0.1975
  613MOL0     H84581   5.183   2.440   6.743  0.2540  0.0364  1.9601
  613MOL0     H84582   5.020   2.583   6.638  1.9936 -1.3316  2.0258
  613MOL0     H84583   4.846   2.636   6.667  0.1684 -1.3913 -3.6047
  613MOL0     H84584   4.979   2.750   6.842 -1.0643  0.6325  1.2394
  613MOL0     H84585   5.086   2.604   6.870  0.5506  1.9690  1.1217
  613MOL0     H84586   4.794   2.636   6.966  0.3291  1.1904  1.0535
  613MOL0     H84587   4.893   2.492   6.983 -0.7439  0.8403  1.9088
  613MOL0     H84588   5.026   2.573   7.134 -0.3596  0.3069 -0.2449
  613MOL0     H84589   4.868   2.609   7.184 -0.4248 -2.5120 -0.9388
  613MOL0     H84590   5.068   2.984   7.079 -1.3447 -0.0774 -1.7666
  613MOL0     H84591   4.827   2.213   6.674  0.9348 -0.2926  2.6962
  613MOL0     H84592   4.937   1.929   6.554 -1.6205 -1.2921  0.6922
  613MOL0     H84593   4.959   1.912   6.729 -1.3384 -4.1884 -2.6139
  613MOL0     H84594   4.825   1.996   6.664  0.3096 -4.5800  1.8033
  614MOL0     O84595   4.268   2.768   7.799 -0.0265 -0.6062 -0.2910
  614MOL0     C84596   4.179   2.743   7.717  0.6977 -0.6584 -0.0899
  614MOL0     O84597   4.092   2.836   7.669 -0.1374  0.1637 -0.2367
  614MOL0     C84598   4.086   2.959   7.717 -0.0981 -1.1153 -0.2672
  614MOL0     C84599   4.079   3.068   7.629 -0.2004  0.2596 -0.1155
  614MOL0     C84600   4.053   3.193   7.680 -0.4475 -0.0619  0.2841
  614MOL0     C84601   4.028   3.218   7.816 -0.7900  1.0730  0.0236
  614MOL0     O84602   3.982   3.341   7.853 -0.2580  0.6276  0.0140
  614MOL0     C84603   3.890   3.401   7.757  0.0235 -0.1061  0.2102
  614MOL0     C84604   3.831   3.528   7.807 -0.4118  0.9197 -0.3599
  614MOL0     C84605   3.726   3.495   7.915 -0.5874  0.6784 -0.4838
  614MOL0     C84606   3.693   3.618   7.988  0.5677 -0.2363 -0.0869
  614MOL0     C84607   3.573   3.606   8.082  0.1850  0.0613  0.2761
  614MOL0     C84608   3.588   3.498   8.197  0.4633 -0.0837 -0.7868
  614MOL0     C84609   3.482   3.512   8.306 -1.4578 -0.0291 -0.0545
  614MOL0     C84610   3.344   3.468   8.258 -0.4521 -0.5629  0.4530
  614MOL0     N84611   3.348   3.326   8.223  0.4840 -0.6179  0.2119
  614MOL0     C84612   3.332   3.285   8.098 -0.4188  0.7694  0.8857
  614MOL0     C84613   3.308   3.148   8.120  0.0979  0.2802  0.7769
  614MOL0     C84614   3.288   3.050   8.005  0.0378  0.2484 -0.2679
  614MOL0     C84615   3.167   3.099   7.936  0.3785  0.5429 -0.4051
  614MOL0     C84616   3.129   3.012   7.809  0.0487 -0.8761  0.6940
  614MOL0     C84617   2.986   3.019   7.748 -0.2261 -0.6507 -0.6471
  614MOL0     O84618   2.880   2.994   7.851 -0.5049  0.6121 -0.0623
  614MOL0     C84619   2.854   2.862   7.896  0.1475  0.2133  0.3800
  614MOL0     C84620   2.929   2.748   7.886 -0.6692 -0.4075 -0.1786
  614MOL0     C84621   2.888   2.625   7.923  0.0345  0.2232 -0.0300
  614MOL0     C84622   2.989   2.511   7.917  0.4388 -0.1196 -0.7583
  614MOL0     C84623   2.757   2.604   7.979 -0.5184  0.6617 -0.2788
  614MOL0     C84624   2.696   2.472   8.015  0.4044 -0.0995 -0.3266
  614MOL0     O84625   2.616   2.474   8.122  0.8487  0.7186 -0.3013
  614MOL0     C84626   2.569   2.357   8.174  0.2919  1.2641  0.4961
  614MOL0     C84627   2.443   2.357   8.235  0.2402 -0.5000 -0.1290
  614MOL0     C84628   2.381   2.246   8.279  0.0329 -1.3257 -0.0724
  614MOL0     C84629   2.431   2.120   8.256 -0.0850 -0.5356 -0.5900
  614MOL0     O84630   2.359   2.014   8.286  0.3512 -0.3390 -0.5517
  614MOL0     C84631   2.396   1.890   8.227 -0.8821 -0.0691  1.1154
  614MOL0     C84632   2.471   1.800   8.332 -0.7598  0.7200 -0.3726
  614MOL0     C84633   2.511   1.652   8.286  0.1877 -0.0179  1.2827
  614MOL0     C84634   2.392   1.564   8.253  0.1132 -0.4185 -0.8633
  614MOL0     C84635   2.429   1.425   8.220 -0.5865 -0.7714  0.7180
  614MOL0     C84636   2.482   1.408   8.075  0.4717  0.0313 -0.2151
  614MOL0     C84637   2.499   1.266   8.032 -0.3481  0.8165 -0.6714
  614MOL0     C84638   2.516   1.252   7.893  1.2600 -0.2540  0.2622
  614MOL0    Cl84639   2.676   1.313   7.832  0.2761 -0.3003  0.0125
  614MOL0     C84640   2.560   2.119   8.205 -0.1935  0.1309  0.4943
  614MOL0     C84641   2.632   2.237   8.175  0.2871  0.5850  0.0261
  614MOL0     O84642   2.710   2.380   7.940 -0.3643 -0.0569  0.3964
  614MOL0     C84643   2.677   2.721   7.991 -1.0585 -0.1457 -0.4960
  614MOL0     C84644   2.723   2.849   7.954 -0.5408  0.3405  0.7200
  614MOL0     N84645   3.296   3.131   8.260 -0.5350 -0.0987 -0.8078
  614MOL0     N84646   3.342   3.234   8.320  0.6964 -0.2575  0.0108
  614MOL0     C84647   4.040   3.112   7.911 -1.5041 -1.1016 -1.0629
  614MOL0     C84648   4.071   2.987   7.858  1.2830  0.6413  0.4604
  614MOL0     C84649   4.187   2.620   7.636  0.3621  0.5657 -0.1833
  614MOL0     C84650   4.133   2.614   7.505  1.2733  0.6975 -0.2292
  614MOL0     C84651   4.131   2.500   7.424 -0.3834  0.2406  0.2414
  614MOL0     C84652   4.195   2.385   7.469 -0.1969  0.2487 -0.4996
  614MOL0     O84653   4.201   2.278   7.391 -0.0068 -0.7856  0.0762
  614MOL0     C84654   4.256   2.152   7.418  0.2634 -0.0382 -0.8700
  614MOL0     C84655   4.151   2.045   7.416 -0.1845 -0.3880 -0.1745
  614MOL0     C84656   4.061   2.062   7.539  0.2822  0.0465 -0.0958
  614MOL0     C84657   3.950   1.958   7.516 -0.3179  0.2163 -0.5527
  614MOL0     C84658   3.913   1.887   7.639 -0.2616 -0.7267  0.4411
  614MOL0     C84659   3.880   1.818   7.737 -0.4027  0.1683 -0.8229
  614MOL0     C84660   4.249   2.387   7.596  0.3770  0.3750 -1.1171
  614MOL0     C84661   4.242   2.498   7.680 -0.1446 -0.2461  0.9687
  614MOL0     C84662   4.289   2.474   7.822  0.0531  0.1799  0.2056
  614MOL0     H84663   4.081   3.055   7.522  1.4756  0.9355 -0.1863
  614MOL0     H84664   4.060   3.270   7.604 -0.7236 -3.8882 -4.0248
  614MOL0     H84665   3.801   3.342   7.730  0.7520 -1.3158  0.3724
  614MOL0     H84666   3.933   3.431   7.662  0.4218 -2.9763 -0.6229
  614MOL0     H84667   3.923   3.579   7.837  1.1872 -1.6720 -0.5405
  614MOL0     H84668   3.781   3.581   7.726  0.0149  2.1848  0.1785
  614MOL0     H84669   3.642   3.441   7.870 -0.0531 -1.1750  0.6315
  614MOL0     H84670   3.775   3.425   7.983  0.1026  0.6951 -0.9512
  614MOL0     H84671   3.782   3.636   8.048  1.5270 -1.7427 -1.0210
  614MOL0     H84672   3.696   3.704   7.920  0.2149 -2.1272 -2.6560
  614MOL0     H84673   3.498   3.561   8.017  1.8878 -3.2847  0.4383
  614MOL0     H84674   3.533   3.703   8.114 -1.1224 -0.5951  0.7400
  614MOL0     H84675   3.587   3.398   8.154  2.7616 -1.5081  2.1377
  614MOL0     H84676   3.688   3.510   8.238  0.4919  0.1257 -0.9162
  614MOL0     H84677   3.468   3.619   8.322 -0.3281  0.0519  0.4892
  614MOL0     H84678   3.509   3.452   8.394 -1.8450 -1.7717 -1.0711
  614MOL0     H84679   3.266   3.487   8.333 -0.7804 -0.2884  0.0453
  614MOL0     H84680   3.325   3.535   8.174 -0.7058 -1.0685  0.1008
  614MOL0     H84681   3.340   3.332   8.001  0.6764 -1.3708 -0.1225
  614MOL0     H84682   3.275   2.947   8.040 -1.6895  0.2886 -0.7287
  614MOL0     H84683   3.376   3.049   7.940  0.6760  1.4144  0.5411
  614MOL0     H84684   3.085   3.097   8.008  0.2655 -2.0846 -0.5112
  614MOL0     H84685   3.173   3.207   7.920  2.2728  0.3884 -0.9405
  614MOL0     H84686   3.192   3.036   7.723  0.3686  0.4333  1.2760
  614MOL0     H84687   3.142   2.907   7.839 -4.2019 -0.5259  5.0752
  614MOL0     H84688   2.965   3.123   7.720 -0.6333 -1.1663 -2.3824
  614MOL0     H84689   2.976   2.944   7.669  3.1953  0.1323 -1.9691
  614MOL0     H84690   3.026   2.757   7.839 -1.8875  2.8611 -2.4531
  614MOL0     H84691   2.999   2.470   7.816  2.0304 -2.4384  0.2491
  614MOL0     H84692   2.968   2.430   7.987 -0.9603  0.9547  0.1164
  614MOL0     H84693   3.085   2.556   7.944 -1.2702  3.4356 -0.0231
  614MOL0     H84694   2.409   2.459   8.247  0.7423 -0.4359  0.8443
  614MOL0     H84695   2.281   2.268   8.318  0.3767 -2.1648  1.3534
  614MOL0     H84696   2.305   1.838   8.199  0.6005 -2.6097  0.7632
  614MOL0     H84697   2.458   1.894   8.137  1.1409 -3.3293  2.1877
  614MOL0     H84698   2.560   1.852   8.366  0.3597  0.1170 -2.2383
  614MOL0     H84699   2.408   1.788   8.421  1.5427 -1.1767  1.1200
  614MOL0     H84700   2.581   1.604   8.355  3.5038  4.3128  1.3927
  614MOL0     H84701   2.567   1.665   8.193 -2.7181  0.8039 -0.4964
  614MOL0     H84702   2.324   1.619   8.187  1.6778  0.5060 -1.7760
  614MOL0     H84703   2.335   1.563   8.347  0.6804 -0.7970 -0.5245
  614MOL0     H84704   2.502   1.379   8.287  3.8474  4.5272  0.2571
  614MOL0     H84705   2.334   1.374   8.239 -1.1367  0.8594  2.6393
  614MOL0     H84706   2.576   1.464   8.070  1.0457 -0.8715  0.3826
  614MOL0     H84707   2.413   1.452   8.002 -1.8608 -3.6849 -0.4887
  614MOL0     H84708   2.409   1.210   8.055 -0.2970  1.1495  0.4293
  614MOL0     H84709   2.588   1.226   8.081 -1.3556  0.6742  1.1232
  614MOL0     H84710   2.437   1.311   7.846 -0.1603 -3.2038 -1.3838
  614MOL0     H84711   2.504   1.150   7.856 -2.4691 -0.0886  0.6764
  614MOL0     H84712   2.629   2.035   8.201 -0.0053  0.2677  0.7954
  614MOL0     H84713   2.738   2.230   8.150 -0.1059 -0.3592 -1.5231
  614MOL0     H84714   2.578   2.694   8.026 -1.4135  0.8498 -0.6785
  614MOL0     H84715   2.673   2.945   7.967 -1.6860  0.1967 -2.0533
  614MOL0     H84716   4.029   3.139   8.016  0.7704  0.5756 -1.1632
  614MOL0     H84717   4.080   2.902   7.924 -4.4101 -1.0235 -0.3309
  614MOL0     H84718   4.081   2.696   7.457  0.5366 -1.1172 -2.7130
  614MOL0     H84719   4.087   2.493   7.325  0.0352 -1.6602  0.1525
  614MOL0     H84720   4.328   2.127   7.340  2.0175 -0.1014  0.6902
  614MOL0     H84721   4.304   2.142   7.516 -0.0103  0.6074 -0.6664
  614MOL0     H84722   4.195   1.945   7.408  0.6813  0.0215 -0.7421
  614MOL0     H84723   4.089   2.059   7.327 -0.3850 -2.0689 -0.3261
  614MOL0     H84724   4.116   2.038   7.630 -0.7304  0.0679  0.5361
  614MOL0     H84725   4.012   2.159   7.548  1.5754  0.6539  0.7434
  614MOL0     H84726   3.974   1.888   7.436  2.8112  0.0674  0.3601
  614MOL0     H84727   3.857   2.010   7.492 -0.7185  0.6773  1.7094
  614MOL0     H84728   3.856   1.745   7.812  3.1491  0.2168  0.5206
  614MOL0     H84729   4.314   2.315   7.647 -1.1521  1.2207  2.3143
  614MOL0     H84730   4.398   2.479   7.831  0.0260 -1.7415  2.7427
  614MOL0     H84731   4.243   2.545   7.891  0.9386 -0.6928  1.7493
  614MOL0     H84732   4.246   2.381   7.862 -1.7780 -0.9711 -3.8820
  615MOL0     O84733   8.357   1.182   1.406 -0.3224  0.2667  0.2206
  615MOL0     C84734   8.469   1.127   1.399 -0.7851 -0.4903  0.3003
  615MOL0     O84735   8.496   1.003   1.452  0.2953  0.3383 -0.2376
  615MOL0     C84736   8.390   0.921   1.500 -0.7084 -0.3670 -0.9040
  615MOL0     C84737   8.424   0.832   1.606 -0.2022  0.6004 -0.2469
  615MOL0     C84738   8.332   0.738   1.648 -0.0800  0.1226 -0.8006
  615MOL0     C84739   8.205   0.731   1.597  0.4681  1.7518 -1.1398
  615MOL0     O84740   8.099   0.641   1.641 -0.2092 -0.0124  0.3296
  615MOL0     C84741   7.988   0.710   1.686 -0.3576 -0.7141  0.0642
  615MOL0     C84742   7.895   0.612   1.758 -0.1887 -0.2283 -0.1254
  615MOL0     C84743   7.785   0.692   1.819 -0.6052  0.1693 -0.3196
  615MOL0     C84744   7.724   0.625   1.939  0.1438  0.2772 -0.4728
  615MOL0     C84745   7.598   0.703   1.976  0.3992 -0.6601  0.4086
  615MOL0     C84746   7.526   0.641   2.092 -0.8252  0.5782 -0.3406
  615MOL0     C84747   7.401   0.726   2.124  0.0222 -0.1668  0.0529
  615MOL0     C84748   7.331   0.678   2.258  0.2183  0.1936 -0.0663
  615MOL0     N84749   7.425   0.670   2.377  0.1158 -0.5999 -0.0485
  615MOL0     C84750   7.452   0.777   2.456  0.9992  0.5019 -0.1962
  615MOL0     C84751   7.544   0.723   2.536 -0.5827  0.4740 -0.7704
  615MOL0     C84752   7.607   0.790   2.656  0.3910 -0.9198  0.0383
  615MOL0     C84753   7.538   0.770   2.782 -0.4508 -0.6622  0.6585
  615MOL0     C84754   7.538   0.630   2.844 -0.3562  0.7644 -0.0746
  615MOL0     C84755   7.486   0.631   2.981  0.5132 -0.2395  0.3020
  615MOL0     O84756   7.521   0.502   3.040 -0.3436  0.7757  0.0731
  615MOL0     C84757   7.429   0.445   3.125  0.4424 -0.5219 -0.3242
  615MOL0     C84758   7.355   0.520   3.217 -0.1188 -0.2932 -0.5891
  615MOL0     C84759   7.263   0.467   3.303 -0.0510 -0.9818 -0.5146
  615MOL0     C84760   7.179   0.567   3.380 -0.2003  0.1154 -0.5129
  615MOL0     C84761   7.245   0.327   3.308  0.3527 -0.8081 -1.1658
  615MOL0     C84762   7.158   0.267   3.409  1.8198  0.7480 -0.8399
  615MOL0     O84763   7.073   0.332   3.492 -0.7178 -0.5936 -0.3190
  615MOL0     C84764   6.957   0.273   3.540 -1.1204  0.3828  0.2366
  615MOL0     C84765   6.921   0.325   3.658  1.0040  0.1408  1.1211
  615MOL0     C84766   6.801   0.284   3.715 -0.3088 -0.1676 -1.1431
  615MOL0     C84767   6.717   0.181   3.656 -0.3854 -0.2859 -0.9110
  615MOL0     O84768   6.593   0.140   3.703 -0.0812  0.1074 -0.3466
  615MOL0     C84769   6.540   0.188   3.826 -0.3055  0.2077  0.0745
  615MOL0     C84770   6.604   0.102   3.943 -0.5109 -0.1140  0.3348
  615MOL0     C84771   6.588  -0.050   3.922  0.0820 -0.8928  0.5648
  615MOL0     C84772   6.591  -0.133   4.042 -0.5276  0.3608 -0.1801
  615MOL0     C84773   6.560  -0.277   4.035 -0.5833 -0.6107 -0.5883
  615MOL0     C84774   6.420  -0.310   4.092  0.6930  0.0860 -0.9869
  615MOL0     C84775   6.399  -0.458   4.087 -1.0378  0.6770 -0.7501
  615MOL0     C84776   6.255  -0.495   4.115  0.0678 -0.2588 -0.4115
  615MOL0    Cl84777   6.239  -0.673   4.156 -0.2371 -0.4214 -0.2710
  615MOL0     C84778   6.762   0.141   3.539  0.2790  1.0876 -0.1254
  615MOL0     C84779   6.880   0.177   3.476 -0.5027 -0.5760  0.2113
  615MOL0     O84780   7.154   0.143   3.407 -0.3295 -0.3297 -0.1614
  615MOL0     C84781   7.329   0.249   3.220 -0.2093 -0.3866  0.6452
  615MOL0     C84782   7.416   0.310   3.127 -0.2020  0.8438  0.4885
  615MOL0     N84783   7.556   0.589   2.517 -0.4971 -0.6689  0.1688
  615MOL0     N84784   7.478   0.563   2.423  0.1111  0.4096  0.4478
  615MOL0     C84785   8.168   0.821   1.493 -0.5314  0.0276  0.7491
  615MOL0     C84786   8.256   0.905   1.441 -0.7258 -0.7087 -0.6129
  615MOL0     C84787   8.584   1.206   1.340 -0.5760 -0.2976 -0.4297
  615MOL0     C84788   8.672   1.146   1.254 -0.2203 -0.6810 -0.0550
  615MOL0     C84789   8.755   1.224   1.176 -0.4656 -0.0543  0.2155
  615MOL0     C84790   8.781   1.361   1.214  0.3644 -0.4035  0.3461
  615MOL0     O84791   8.890   1.427   1.157  0.0184 -0.1920  0.0858
  615MOL0     C84792   8.878   1.466   1.015  0.6970  0.1370 -0.4786
  615MOL0     C84793   8.829   1.614   1.008  0.4503 -0.0805  0.2472
  615MOL0     C84794   8.785   1.669   0.867  0.9073 -0.3489 -0.7880
  615MOL0     C84795   8.714   1.799   0.877 -0.4185 -0.7858 -0.0051
  615MOL0     C84796   8.680   1.853   0.746  0.6937 -0.5548 -0.9531
  615MOL0     C84797   8.666   1.889   0.630  0.1849  0.2818 -0.1489
  615MOL0     C84798   8.703   1.416   1.311 -0.9356 -0.4030 -1.1462
  615MOL0     C84799   8.597   1.348   1.371  0.3904  0.0485  0.2326
  615MOL0     C84800   8.517   1.429   1.475  1.1546 -0.2531  0.1798
  615MOL0     H84801   8.529   0.833   1.633  0.5209 -1.1346 -2.6900
  615MOL0     H84802   8.365   0.661   1.717 -2.2940 -1.3504 -1.2699
  615MOL0     H84803   7.927   0.755   1.608 -1.4668 -0.5989  0.9871
  615MOL0     H84804   8.021   0.788   1.755  2.7650 -1.4610 -0.3948
  615MOL0     H84805   7.866   0.548   1.674 -1.0227  2.9338 -2.4383
  615MOL0     H84806   7.951   0.551   1.830 -0.8189 -0.2454  0.3552
  615MOL0     H84807   7.835   0.785   1.847  0.3494  0.6316 -3.1947
  615MOL0     H84808   7.699   0.711   1.754 -1.6310  1.9664  1.4497
  615MOL0     H84809   7.703   0.517   1.935 -5.1728  0.8736  2.2685
  615MOL0     H84810   7.797   0.626   2.020 -1.4296 -1.6336  1.0702
  615MOL0     H84811   7.546   0.689   1.881  3.2086 -0.1970 -1.3215
  615MOL0     H84812   7.612   0.811   1.991  3.0692 -0.9031  0.1447
  615MOL0     H84813   7.493   0.538   2.074  0.4671 -0.2087  1.4228
  615MOL0     H84814   7.596   0.640   2.177 -2.1598  2.5434  0.8657
  615MOL0     H84815   7.328   0.717   2.043 -3.4255  1.2856  2.7367
  615MOL0     H84816   7.419   0.833   2.142 -2.2009  0.8923 -3.1192
  615MOL0     H84817   7.251   0.746   2.290  0.5842  0.4819  0.2332
  615MOL0     H84818   7.286   0.580   2.239  0.1254  0.5080 -1.5642
  615MOL0     H84819   7.415   0.878   2.449 -0.6974 -0.1677 -1.7387
  615MOL0     H84820   7.605   0.899   2.649 -0.0755 -0.9840 -0.8357
  615MOL0     H84821   7.709   0.752   2.669 -0.3082 -2.7047  0.6323
  615MOL0     H84822   7.586   0.832   2.858 -3.4823  2.2419  0.4445
  615MOL0     H84823   7.443   0.823   2.772  0.3628  0.5181 -1.5761
  615MOL0     H84824   7.462   0.570   2.793 -0.7904 -0.3831  1.8305
  615MOL0     H84825   7.642   0.597   2.837 -0.8605 -0.5641 -3.8702
  615MOL0     H84826   7.524   0.709   3.048  0.1472  1.2816 -1.2001
  615MOL0     H84827   7.382   0.661   2.968  1.7303  3.2786 -3.8688
  615MOL0     H84828   7.367   0.628   3.217 -0.8191 -0.1907  0.8781
  615MOL0     H84829   7.071   0.564   3.360 -0.5930  0.2224  1.4112
  615MOL0     H84830   7.219   0.666   3.358 -1.2565  0.7795  0.4430
  615MOL0     H84831   7.200   0.552   3.486 -1.6774 -0.3121 -0.2568
  615MOL0     H84832   6.975   0.404   3.710 -1.5288  1.7838  1.4240
  615MOL0     H84833   6.781   0.319   3.816  1.7072  0.5671 -0.9584
  615MOL0     H84834   6.546   0.297   3.838 -3.1837  0.6574 -1.6600
  615MOL0     H84835   6.431   0.182   3.831 -0.3978 -1.3042 -2.1910
  615MOL0     H84836   6.707   0.136   3.960 -0.9012  0.4525  1.7986
  615MOL0     H84837   6.539   0.138   4.024 -0.1634  0.9505  0.1505
  615MOL0     H84838   6.655  -0.094   3.848  0.2548 -1.2415  0.9291
  615MOL0     H84839   6.491  -0.053   3.870  0.9308 -1.2605 -1.0804
  615MOL0     H84840   6.529  -0.078   4.114  2.7014  1.7660  1.7489
  615MOL0     H84841   6.698  -0.128   4.066 -0.7062 -0.4741  0.8122
  615MOL0     H84842   6.559  -0.308   3.930 -3.7832 -1.3913 -0.4362
  615MOL0     H84843   6.621  -0.336   4.103 -2.6997 -0.7347  1.3139
  615MOL0     H84844   6.342  -0.264   4.032  1.3745  1.4458 -0.8637
  615MOL0     H84845   6.410  -0.279   4.196 -0.7058 -2.2986 -0.3212
  615MOL0     H84846   6.471  -0.499   4.157  0.4570 -0.1932 -2.7072
  615MOL0     H84847   6.422  -0.495   3.987 -1.8511 -0.5439 -0.5009
  615MOL0     H84848   6.193  -0.458   4.033 -0.4456 -0.5999 -0.1836
  615MOL0     H84849   6.226  -0.440   4.206 -0.1201  0.1799 -0.7311
  615MOL0     H84850   6.700   0.069   3.487  1.3138  1.1358 -1.5076
  615MOL0     H84851   6.896   0.154   3.371  0.3703  1.6347 -0.1865
  615MOL0     H84852   7.322   0.141   3.211 -0.6878 -0.2002 -1.7895
  615MOL0     H84853   7.489   0.269   3.058 -0.2340  1.8625 -0.1571
  615MOL0     H84854   8.069   0.817   1.449 -0.2333  3.3449 -0.4745
  615MOL0     H84855   8.240   0.962   1.350  1.5233  0.1647 -0.5255
  615MOL0     H84856   8.652   1.040   1.248  0.9958 -0.9864  0.9450
  615MOL0     H84857   8.812   1.205   1.085 -2.6127  2.1497 -1.7481
  615MOL0     H84858   8.976   1.456   0.966  0.4911  0.3059 -0.9338
  615MOL0     H84859   8.808   1.405   0.957 -1.0680  4.7798 -3.8875
  615MOL0     H84860   8.919   1.669   1.039  0.1042  0.5941  0.0814
  615MOL0     H84861   8.739   1.630   1.070 -0.6543  2.3581 -1.7903
  615MOL0     H84862   8.879   1.695   0.819  0.6966  4.2576  0.7501
  615MOL0     H84863   8.739   1.590   0.806  1.5369 -1.3554  0.0232
  615MOL0     H84864   8.781   1.871   0.925  0.1141 -1.8153  0.8449
  615MOL0     H84865   8.625   1.786   0.939  0.4725 -1.7905  1.1138
  615MOL0     H84866   8.657   1.928   0.531 -2.0426  0.0131 -0.1037
  615MOL0     H84867   8.728   1.512   1.356 -0.8053 -1.7310  1.8378
  615MOL0     H84868   8.579   1.504   1.526  3.6798 -0.9032 -1.6924
  615MOL0     H84869   8.447   1.487   1.415  2.8952 -0.2915 -2.0264
  615MOL0     H84870   8.466   1.366   1.548  1.9216  2.2984  3.1582
  616MOL0     O84871  10.988   9.639   7.855  0.3222  0.2122  0.5148
  616MOL0     C84872  10.978   9.748   7.910 -0.2335 -0.2505  1.2649
  616MOL0     O84873  11.040   9.785   8.033  0.1489 -0.2783 -0.4494
  616MOL0     C84874  11.107   9.700   8.116  0.3404  0.5872 -0.8762
  616MOL0     C84875  11.174   9.748   8.224 -0.3557  0.2404 -0.6921
  616MOL0     C84876  11.233   9.674   8.328  0.0104 -0.3667  0.9422
  616MOL0     C84877  11.231   9.528   8.314 -0.2022 -0.8834  0.1153
  616MOL0     O84878  11.287   9.445   8.410  0.3228 -0.9496  0.0825
  616MOL0     C84879  11.402   9.365   8.374  1.2042  0.7539  0.3788
  616MOL0     C84880  11.485   9.345   8.503  0.5955 -0.9309 -0.3389
  616MOL0     C84881  11.605   9.438   8.520 -0.0643 -1.0368 -0.1428
  616MOL0     C84882  11.576   9.584   8.496 -0.4814  0.0288 -0.4984
  616MOL0     C84883  11.654   9.687   8.588 -0.3903  0.1359 -0.5220
  616MOL0     C84884  11.582   9.731   8.714  0.3744  0.9552 -0.1921
  616MOL0     C84885  11.663   9.847   8.779  0.2955  0.1112 -0.9019
  616MOL0     C84886  11.665   9.847   8.934 -0.1472  0.5300 -0.3185
  616MOL0     N84887  11.533   9.904   8.981  0.2694  0.2354 -0.4911
  616MOL0     C84888  11.416   9.831   9.005 -0.8732  0.3633 -0.8267
  616MOL0     C84889  11.326   9.924   9.037 -0.7983  0.1121 -1.0998
  616MOL0     C84890  11.183   9.892   9.062 -0.2244  0.1091 -0.0166
  616MOL0     C84891  11.089   9.971   8.964  0.0753  0.2483 -1.1253
  616MOL0     C84892  10.940   9.925   8.984  0.4917 -0.6328 -0.6676
  616MOL0     C84893  10.841   9.994   8.887 -0.2715  0.3400 -0.0282
  616MOL0     O84894  10.809  10.118   8.946 -0.8877 -0.4891 -0.2874
  616MOL0     C84895  10.747  10.222   8.880 -0.3104 -0.0244 -0.6843
  616MOL0     C84896  10.754  10.339   8.950 -0.0320 -0.3386 -1.1035
  616MOL0     C84897  10.697  10.458   8.911  0.4414  0.5856  0.8500
  616MOL0     C84898  10.708  10.580   8.993  0.3448  0.4875 -1.1904
  616MOL0     C84899  10.624  10.454   8.783 -0.0125  0.2001  0.3097
  616MOL0     C84900  10.560  10.570   8.722  0.1311  0.1350  0.8667
  616MOL0     O84901  10.556  10.569   8.584  0.7664 -0.2252 -0.3404
  616MOL0     C84902  10.507  10.670   8.503 -1.0892  0.3718 -0.0426
  616MOL0     C84903  10.586  10.698   8.390  0.2255 -0.0491  0.3148
  616MOL0     C84904  10.552  10.797   8.297 -0.6950  0.0259 -1.1227
  616MOL0     C84905  10.426  10.857   8.313 -0.3005  0.6867 -0.8381
  616MOL0     O84906  10.384  10.950   8.226  1.1053  0.6423  0.1140
  616MOL0     C84907  10.453  10.973   8.106 -0.1377  0.3546  0.3310
  616MOL0     C84908  10.390  11.090   8.032  0.0985 -0.5873 -0.3764
  616MOL0     C84909  10.451  11.117   7.896  1.0843 -0.4039  0.3025
  616MOL0     C84910  10.599  11.163   7.913 -0.1253  0.7605 -0.5040
  616MOL0     C84911  10.664  11.221   7.780  0.3478 -0.1235 -0.0229
  616MOL0     C84912  10.802  11.281   7.802 -0.6810 -0.8415  0.1430
  616MOL0     C84913  10.900  11.176   7.871  0.6856  0.5034  0.1012
  616MOL0     C84914  11.046  11.225   7.886  0.3503 -0.0747 -0.9485
  616MOL0    Cl84915  11.119  11.263   7.726  0.2792  0.3571 -0.0793
  616MOL0     C84916  10.348  10.824   8.422 -1.0835  0.8710 -0.2315
  616MOL0     C84917  10.381  10.723   8.516 -0.7725 -0.5363  0.8186
  616MOL0     O84918  10.504  10.658   8.791  0.1613 -0.8097  0.3850
  616MOL0     C84919  10.609  10.334   8.709 -0.6852  0.6757 -0.5548
  616MOL0     C84920  10.679  10.217   8.763 -0.2824 -0.2612  0.2261
  616MOL0     N84921  11.393  10.048   9.035 -0.0910 -0.8243  0.0931
  616MOL0     N84922  11.512  10.032   9.011  0.6531  0.4542 -0.4505
  616MOL0     C84923  11.170   9.479   8.198 -0.0137  0.1220 -0.3820
  616MOL0     C84924  11.106   9.559   8.103 -0.1464  1.0432 -0.2145
  616MOL0     C84925  10.892   9.843   7.852 -0.2800  0.0043 -0.5269
  616MOL0     C84926  10.897   9.864   7.712  0.3843  0.3817 -0.7046
  616MOL0     C84927  10.804   9.939   7.655  0.3498  0.6273  0.4685
  616MOL0     C84928  10.704  10.009   7.720 -1.1079 -0.4751 -0.2603
  616MOL0     O84929  10.622  10.083   7.637  0.2263  0.0247  0.4092
  616MOL0     C84930  10.501  10.130   7.702 -0.1266 -0.0462 -0.0507
  616MOL0     C84931  10.406  10.168   7.588 -0.6654 -0.2612  0.3549
  616MOL0     C84932  10.292  10.259   7.618 -0.1526 -0.1008  0.2893
  616MOL0     C84933  10.210  10.290   7.495  0.8389 -0.4485 -0.4361
  616MOL0     C84934  10.134  10.407   7.522 -0.9414 -0.6103 -0.2924
  616MOL0     C84935  10.052  10.497   7.531 -0.5707  0.9255  1.0202
  616MOL0     C84936  10.707  10.000   7.858 -0.3631  0.6773  0.6066
  616MOL0     C84937  10.804   9.920   7.925  0.7599 -0.3173 -0.7098
  616MOL0     C84938  10.793   9.916   8.085  0.0429 -0.6857  0.4377
  616MOL0     H84939  11.177   9.856   8.233  1.0331  0.1615  0.1082
  616MOL0     H84940  11.277   9.716   8.419  2.0457  3.2674 -1.4684
  616MOL0     H84941  11.473   9.401   8.299 -0.9807  2.9053 -0.7766
  616MOL0     H84942  11.354   9.271   8.345  2.4419  0.6852 -1.6141
  616MOL0     H84943  11.421   9.350   8.592  1.1410 -0.3550  0.0281
  616MOL0     H84944  11.520   9.241   8.493 -2.2852 -1.8889 -1.3491
  616MOL0     H84945  11.641   9.418   8.621 -3.4561 -0.2511  1.3657
  616MOL0     H84946  11.690   9.416   8.455  0.7803  0.9640  0.2160
  616MOL0     H84947  11.587   9.612   8.391 -3.4071 -0.9020 -1.1504
  616MOL0     H84948  11.469   9.597   8.515 -0.5269  0.5010 -1.0338
  616MOL0     H84949  11.684   9.780   8.538  0.0765  0.8751  1.0567
  616MOL0     H84950  11.750   9.637   8.602 -1.1023 -1.1033  0.0337
  616MOL0     H84951  11.479   9.764   8.698 -0.5846 -0.6729  2.0939
  616MOL0     H84952  11.560   9.648   8.781 -1.0087  2.2788  1.0741
  616MOL0     H84953  11.613   9.936   8.740  0.5612  0.4788 -0.4218
  616MOL0     H84954  11.766   9.835   8.744  1.2547 -0.1220  1.7509
  616MOL0     H84955  11.678   9.741   8.960  0.2641  0.9284  1.2302
  616MOL0     H84956  11.748   9.906   8.974  0.6157  0.3412 -1.6014
  616MOL0     H84957  11.413   9.723   8.995 -1.8228  0.4862 -2.1282
  616MOL0     H84958  11.160   9.907   9.168  0.0148 -1.4127  0.2758
  616MOL0     H84959  11.179   9.783   9.049 -0.1462  0.2289 -1.1489
  616MOL0     H84960  11.107  10.077   8.982  3.8392 -0.6369  1.3287
  616MOL0     H84961  11.126   9.940   8.865  2.6728 -1.6867  0.3453
  616MOL0     H84962  10.941   9.817   8.967 -1.2009 -0.5468 -1.4504
  616MOL0     H84963  10.899   9.940   9.084  0.9565 -1.3792 -0.3488
  616MOL0     H84964  10.884  10.000   8.787  0.4012 -0.1241  0.2298
  616MOL0     H84965  10.746   9.943   8.872  0.2084 -0.3638 -0.7728
  616MOL0     H84966  10.806  10.339   9.045  1.9611 -0.6608 -2.1245
  616MOL0     H84967  10.762  10.657   8.936 -2.1395  3.5443  0.2804
  616MOL0     H84968  10.755  10.549   9.087 -1.6034 -0.6588 -0.5388
  616MOL0     H84969  10.613  10.628   9.019  0.0028 -0.6750 -0.2444
  616MOL0     H84970  10.684  10.651   8.384  0.4209  0.2756  0.9208
  616MOL0     H84971  10.631  10.838   8.235 -0.0277  2.0199  0.8889
  616MOL0     H84972  10.553  11.009   8.133  0.6959  0.9073 -3.0192
  616MOL0     H84973  10.468  10.887   8.041  3.1701  1.6348 -0.8022
  616MOL0     H84974  10.283  11.072   8.025 -0.1793  0.9268 -0.4893
  616MOL0     H84975  10.398  11.187   8.082  4.9264  0.1573 -2.0174
  616MOL0     H84976  10.387  11.192   7.849 -0.0045 -2.6163 -2.0205
  616MOL0     H84977  10.443  11.028   7.832  3.0098 -1.2484  1.1815
  616MOL0     H84978  10.663  11.082   7.951 -0.2521  0.9564  0.1430
  616MOL0     H84979  10.604  11.238   7.993  3.8907 -0.6423  0.8309
  616MOL0     H84980  10.664  11.144   7.702 -1.8602  1.8453 -2.1248
  616MOL0     H84981  10.605  11.304   7.741 -1.1620  0.4468  3.1303
  616MOL0     H84982  10.795  11.369   7.866 -0.7909  1.0471 -2.3266
  616MOL0     H84983  10.850  11.309   7.708  3.3704 -1.0195  1.9330
  616MOL0     H84984  10.903  11.080   7.819 -1.9390  1.3151 -1.7746
  616MOL0     H84985  10.869  11.158   7.975  0.5392  0.4012  0.0411
  616MOL0     H84986  11.097  11.144   7.939 -2.6693 -0.9194  0.9084
  616MOL0     H84987  11.038  11.320   7.939  0.9566  0.0619 -1.0974
  616MOL0     H84988  10.268  10.894   8.447  0.2667  2.0096  1.0889
  616MOL0     H84989  10.330  10.694   8.608 -0.6974 -2.0652  0.4019
  616MOL0     H84990  10.552  10.318   8.618 -0.1750 -1.1053 -0.6030
  616MOL0     H84991  10.687  10.124   8.707  2.1848  0.7442 -1.2506
  616MOL0     H84992  11.150   9.373   8.206 -3.2362  0.7844  3.9619
  616MOL0     H84993  11.047   9.503   8.030  0.2561 -0.9805  0.9332
  616MOL0     H84994  10.968   9.818   7.644  1.6811  0.2199  0.6932
  616MOL0     H84995  10.794   9.951   7.547 -1.2625  0.0208  0.5291
  616MOL0     H84996  10.463  10.056   7.773  1.2210 -0.6626  0.0748
  616MOL0     H84997  10.527  10.213   7.769 -0.3229 -0.6998  0.8653
  616MOL0     H84998  10.367  10.073   7.551 -0.7014 -0.9150  2.0141
  616MOL0     H84999  10.461  10.225   7.512 -0.1359 -0.0535  0.8875
  616MOL0     H85000  10.224  10.222   7.695 -1.3748  0.3165 -0.5637
  616MOL0     H85001  10.333  10.353   7.657  1.2845 -0.2459 -0.7609
  616MOL0     H85002  10.149  10.203   7.469  1.4204 -1.1027  0.3107
  616MOL0     H85003  10.283  10.309   7.416  1.6702 -1.7651 -0.0228
  616MOL0     H85004   9.998  10.588   7.540 -0.3620  1.2062 -0.2783
  616MOL0     H85005  10.624  10.052   7.905 -2.5831 -1.2507 -0.9439
  616MOL0     H85006  10.884   9.965   8.119  0.2441 -1.0285  0.4002
  616MOL0     H85007  10.710   9.978   8.119  1.8011  1.8921  0.2619
  616MOL0     H85008  10.786   9.811   8.114 -0.0869 -1.0440 -0.8236
  617MOL0     O85009   6.298   0.397   5.897 -0.0103 -0.0799 -0.2686
  617MOL0     C85010   6.230   0.405   5.996 -0.5745 -0.7699 -0.8429
  617MOL0     O85011   6.173   0.521   6.049 -0.2527 -0.3856  1.0911
  617MOL0     C85012   6.176   0.634   5.975  0.1033  0.2245  0.6547
  617MOL0     C85013   6.162   0.635   5.837  0.0633 -0.5421 -0.0715
  617MOL0     C85014   6.129   0.758   5.774  0.1422 -0.0508  0.2563
  617MOL0     C85015   6.145   0.881   5.849  1.0199  0.5331  0.6104
  617MOL0     O85016   6.118   0.989   5.767 -0.0205  0.5106 -0.4975
  617MOL0     C85017   6.121   1.114   5.831  1.0516 -0.1504  0.1868
  617MOL0     C85018   6.238   1.181   5.776  0.4644 -0.2765 -0.0692
  617MOL0     C85019   6.230   1.176   5.624 -0.4182  0.1865 -0.2417
  617MOL0     C85020   6.106   1.244   5.564  0.4044 -0.8731  0.6436
  617MOL0     C85021   6.127   1.268   5.413  0.9088 -1.2744  0.6322
  617MOL0     C85022   6.168   1.407   5.374  0.5946  0.1036 -0.9297
  617MOL0     C85023   6.055   1.516   5.392 -0.0332  0.8371  0.1312
  617MOL0     C85024   6.113   1.655   5.381  0.6027  0.1185 -0.0232
  617MOL0     N85025   6.102   1.747   5.490 -0.9535  0.6570  0.3988
  617MOL0     C85026   5.995   1.824   5.524 -0.5051 -0.3068  0.5999
  617MOL0     C85027   6.039   1.904   5.623 -0.3359 -0.3403 -0.1004
  617MOL0     C85028   5.953   2.015   5.688  0.3615  0.3814 -0.3166
  617MOL0     C85029   5.847   1.952   5.783 -0.6643  1.0391 -0.0161
  617MOL0     C85030   5.866   1.993   5.931 -1.2772  0.1150  0.2589
  617MOL0     C85031   5.954   1.894   6.015 -0.2430  0.2907  0.0346
  617MOL0     O85032   5.989   1.957   6.140  0.2317  0.5041 -0.5214
  617MOL0     C85033   6.093   1.906   6.227 -0.7894  0.5219 -0.0393
  617MOL0     C85034   6.065   1.815   6.332  0.1821  0.4438 -0.3641
  617MOL0     C85035   6.165   1.785   6.417  0.5603  0.4976  0.8699
  617MOL0     C85036   6.124   1.694   6.541 -0.5095 -0.4874  0.0985
  617MOL0     C85037   6.297   1.813   6.388 -0.4836 -0.0030 -0.1731
  617MOL0     C85038   6.411   1.747   6.451 -1.0971 -0.0369  0.2633
  617MOL0     O85039   6.541   1.815   6.441  0.5795  0.0302 -0.1474
  617MOL0     C85040   6.637   1.779   6.535 -0.3289 -0.1516  0.7410
  617MOL0     C85041   6.738   1.696   6.495  0.1612 -0.3885 -0.2798
  617MOL0     C85042   6.848   1.677   6.586 -0.1258  0.3915  0.1020
  617MOL0     C85043   6.856   1.742   6.704  0.0410 -0.8416 -0.4861
  617MOL0     O85044   6.956   1.708   6.796 -0.2215 -0.3782  0.0312
  617MOL0     C85045   7.095   1.745   6.758  0.1886  0.9432  0.3763
  617MOL0     C85046   7.169   1.720   6.898  0.4430  0.2606  0.0307
  617MOL0     C85047   7.322   1.750   6.886 -0.1243  0.7494 -0.3547
  617MOL0     C85048   7.360   1.893   6.877 -0.0449 -0.0405 -0.3384
  617MOL0     C85049   7.496   1.924   6.803  0.1970  0.0501 -0.5048
  617MOL0     C85050   7.471   1.915   6.651  0.1861  0.3537 -1.0346
  617MOL0     C85051   7.608   1.897   6.576  0.5287 -0.2493 -0.8423
  617MOL0     C85052   7.590   1.858   6.425  0.8807 -0.1985 -0.5632
  617MOL0    Cl85053   7.482   1.974   6.356 -0.1295  0.3820 -0.6376
  617MOL0     C85054   6.745   1.822   6.750  0.1065 -1.0067 -0.1265
  617MOL0     C85055   6.640   1.837   6.657  1.1715 -0.3149  0.0107
  617MOL0     O85056   6.395   1.629   6.489 -0.0503  0.4930 -0.5099
  617MOL0     C85057   6.325   1.894   6.280 -0.6752  0.0831 -0.4967
  617MOL0     C85058   6.231   1.947   6.205  0.5321  0.0548  0.8127
  617MOL0     N85059   6.167   1.866   5.662 -0.0511 -0.2371  0.2250
  617MOL0     N85060   6.205   1.769   5.581  0.6907 -0.3427  0.2148
  617MOL0     C85061   6.184   0.878   5.984  0.3199 -0.0367 -0.0559
  617MOL0     C85062   6.182   0.757   6.051  0.3432  0.9600  0.3157
  617MOL0     C85063   6.241   0.281   6.082 -0.1342  0.6890  0.0552
  617MOL0     C85064   6.144   0.276   6.184  0.4645 -0.2810 -0.1192
  617MOL0     C85065   6.137   0.173   6.272  0.1513  0.0782  0.0095
  617MOL0     C85066   6.237   0.067   6.263  0.0327  0.0009 -0.2878
  617MOL0     O85067   6.244  -0.048   6.341 -0.0856  0.2242  0.4530
  617MOL0     C85068   6.130  -0.084   6.415  1.2585 -0.6631  1.0842
  617MOL0     C85069   6.141  -0.038   6.564  0.6317 -0.0162 -0.2343
  617MOL0     C85070   6.053  -0.123   6.658 -0.3664  0.2028  0.4052
  617MOL0     C85071   5.906  -0.121   6.612 -0.9934 -0.4448  0.7360
  617MOL0     C85072   5.849   0.015   6.629  0.0490  0.2074 -1.0407
  617MOL0     C85073   5.799   0.130   6.642 -0.1207  0.4179 -0.7113
  617MOL0     C85074   6.335   0.079   6.172  0.3122 -0.1113  0.1868
  617MOL0     C85075   6.336   0.180   6.076 -1.2476  0.4697  0.1957
  617MOL0     C85076   6.437   0.161   5.967 -0.3360  0.7127  0.2732
  617MOL0     H85077   6.167   0.551   5.769 -0.0042  0.4901 -1.3975
  617MOL0     H85078   6.104   0.759   5.668  0.2188 -2.2118  0.1700
  617MOL0     H85079   6.135   1.112   5.940  1.1926  2.4254  0.2885
  617MOL0     H85080   6.028   1.164   5.800  1.6233 -0.2598 -1.8497
  617MOL0     H85081   6.243   1.285   5.809  1.5709 -1.0592  2.4375
  617MOL0     H85082   6.331   1.126   5.792  1.9766  1.6346 -1.8702
  617MOL0     H85083   6.319   1.232   5.593 -0.9510  2.3762  1.8938
  617MOL0     H85084   6.236   1.076   5.580  0.6147  1.2330 -2.7138
  617MOL0     H85085   6.014   1.188   5.583 -1.1932  0.9732 -1.2018
  617MOL0     H85086   6.100   1.333   5.626  0.3837 -1.6922  1.8574
  617MOL0     H85087   6.036   1.252   5.354 -0.1284  0.7965  1.5675
  617MOL0     H85088   6.197   1.193   5.374  1.6821  0.8881 -2.5131
  617MOL0     H85089   6.250   1.443   5.437  0.2658  2.0122 -1.5390
  617MOL0     H85090   6.198   1.408   5.269  1.3045  3.1441 -0.7977
  617MOL0     H85091   6.008   1.505   5.490  0.5334 -0.4200  0.2807
  617MOL0     H85092   5.985   1.486   5.314  0.4325 -1.0832  0.3963
  617MOL0     H85093   6.213   1.648   5.337  1.5004 -0.1166  1.9777
  617MOL0     H85094   6.048   1.707   5.309 -3.4891 -2.9550  1.0607
  617MOL0     H85095   5.897   1.821   5.476 -1.4228  0.5235  2.3396
  617MOL0     H85096   5.893   2.071   5.615 -3.5079 -1.7623  0.9494
  617MOL0     H85097   6.016   2.079   5.750 -0.5382  0.2467  0.7537
  617MOL0     H85098   5.746   1.969   5.745 -0.9306 -2.0564 -0.9421
  617MOL0     H85099   5.845   1.843   5.784 -2.3539  1.0558  0.4859
  617MOL0     H85100   5.896   2.097   5.946  0.3227 -0.3139  0.1108
  617MOL0     H85101   5.769   1.986   5.982 -1.2533 -1.9253  0.1164
  617MOL0     H85102   5.908   1.798   6.041  2.2052 -0.7210  0.9069
  617MOL0     H85103   6.052   1.866   5.975 -0.1031  0.3875  0.3122
  617MOL0     H85104   5.964   1.780   6.354  0.0420  2.4422  2.7167
  617MOL0     H85105   6.014   1.689   6.535 -0.4447 -0.2334 -2.4831
  617MOL0     H85106   6.152   1.733   6.640  0.8202 -2.8535  0.7140
  617MOL0     H85107   6.168   1.595   6.532  2.1218  0.2928  2.7032
  617MOL0     H85108   6.739   1.651   6.397 -3.2241 -2.0447  0.2855
  617MOL0     H85109   6.937   1.622   6.560 -0.1896  0.8045 -1.0660
  617MOL0     H85110   7.137   1.688   6.675  1.4086  2.0174  0.2337
  617MOL0     H85111   7.093   1.851   6.732 -4.0947  0.6965 -1.2356
  617MOL0     H85112   7.128   1.787   6.975  0.6388  2.0651 -1.3816
  617MOL0     H85113   7.151   1.617   6.933  0.2360  1.1941  2.9334
  617MOL0     H85114   7.361   1.713   6.791  0.3043  1.9742 -0.6774
  617MOL0     H85115   7.377   1.699   6.966 -0.1687 -0.7054 -1.2044
  617MOL0     H85116   7.380   1.946   6.971  0.0943 -0.8145  0.0717
  617MOL0     H85117   7.276   1.936   6.823 -1.7145 -1.6151  0.8900
  617MOL0     H85118   7.544   2.018   6.831  4.2589 -2.5310  2.3425
  617MOL0     H85119   7.569   1.848   6.834 -2.7684 -1.6756  3.0044
  617MOL0     H85120   7.425   2.007   6.613 -1.9159 -0.1908  0.0335
  617MOL0     H85121   7.400   1.834   6.631 -2.2134  1.5734  1.8451
  617MOL0     H85122   7.664   1.811   6.615  3.1848  1.1062 -1.4309
  617MOL0     H85123   7.669   1.988   6.575  2.1077 -1.2599 -0.0671
  617MOL0     H85124   7.551   1.756   6.436  0.0543  0.3770  2.7883
  617MOL0     H85125   7.685   1.848   6.372  2.1900  1.0330  1.4148
  617MOL0     H85126   6.746   1.868   6.849 -1.1871  1.8506 -1.3061
  617MOL0     H85127   6.558   1.899   6.692  1.7844 -0.3581  1.6212
  617MOL0     H85128   6.427   1.918   6.252 -0.7975  3.2638  1.3409
  617MOL0     H85129   6.262   2.020   6.131 -1.0332  0.9699  0.9963
  617MOL0     H85130   6.201   0.971   6.036 -0.6382 -0.6508  1.4299
  617MOL0     H85131   6.199   0.750   6.158  0.0519 -0.0740  0.3066
  617MOL0     H85132   6.078   0.361   6.200  1.8636  0.8706 -0.2514
  617MOL0     H85133   6.066   0.175   6.355  3.4059  0.5150  3.0097
  617MOL0     H85134   6.039  -0.044   6.370  1.0452 -0.6301  1.5443
  617MOL0     H85135   6.127  -0.193   6.407  1.8083 -0.8039  2.4932
  617MOL0     H85136   6.119   0.069   6.560  0.2832 -0.0995 -0.7756
  617MOL0     H85137   6.245  -0.042   6.597  1.0731 -1.1850 -1.6530
  617MOL0     H85138   6.091  -0.225   6.656  0.9967  0.6826 -1.7839
  617MOL0     H85139   6.055  -0.090   6.763 -0.8204  1.2204  0.1042
  617MOL0     H85140   5.847  -0.187   6.676 -1.4099 -1.1774 -0.3765
  617MOL0     H85141   5.918  -0.150   6.508  0.1332 -2.3186  1.3310
  617MOL0     H85142   5.769   0.231   6.663  3.1219  0.9812  2.2179
  617MOL0     H85143   6.409   0.001   6.164  0.1898 -0.2938  0.7494
  617MOL0     H85144   6.506   0.076   5.967 -2.3294 -1.0506  2.8257
  617MOL0     H85145   6.384   0.169   5.872  3.2482 -0.5101 -2.0272
  617MOL0     H85146   6.506   0.246   5.970 -1.1418  1.3674  0.7993
  618MOL0     O85147   6.893  10.385   5.797  0.3755 -0.1409  0.6995
  618MOL0     C85148   6.793  10.399   5.718 -0.0062 -0.1190 -0.0145
  618MOL0     O85149   6.797  10.462   5.598  0.0195 -0.1983 -0.0222
  618MOL0     C85150   6.912  10.477   5.521 -0.1521  0.4526 -0.7331
  618MOL0     C85151   6.909  10.582   5.428  0.5380 -0.4634 -0.3223
  618MOL0     C85152   7.006  10.597   5.324  0.0281  0.6219  0.0598
  618MOL0     C85153   7.115  10.511   5.323  0.6498 -0.8954  0.3274
  618MOL0     O85154   7.222  10.500   5.233  0.2557  0.2787 -0.0352
  618MOL0     C85155   7.241  10.595   5.125 -0.4994 -0.7591 -0.3869
  618MOL0     C85156   7.359  10.557   5.029  0.1948 -0.4781 -0.5609
  618MOL0     C85157   7.494  10.540   5.098 -0.7961  0.6503 -0.1221
  618MOL0     C85158   7.604  10.537   4.995  0.2993  0.3335 -0.3986
  618MOL0     C85159   7.731  10.507   5.078 -0.1979 -0.3382  0.9950
  618MOL0     C85160   7.813  10.635   5.085  0.7679  0.4550  0.4410
  618MOL0     C85161   7.892  10.670   4.949 -0.9354 -0.2301 -0.1895
  618MOL0     C85162   7.969  10.798   4.977 -0.4784 -0.1510 -0.0437
  618MOL0     N85163   8.054  10.842   4.862 -0.0134 -0.2265  0.5915
  618MOL0     C85164   8.173  10.794   4.813 -0.5093 -1.0052 -0.1513
  618MOL0     C85165   8.184  10.849   4.691 -0.2252 -0.1911 -0.5749
  618MOL0     C85166   8.297  10.811   4.606 -0.6085 -0.0301  0.7544
  618MOL0     C85167   8.241  10.742   4.484 -0.8796 -0.8844  0.3688
  618MOL0     C85168   8.328  10.614   4.447 -0.6294 -0.7015 -0.3738
  618MOL0     C85169   8.472  10.652   4.409  0.7679  0.0793  0.2370
  618MOL0     O85170   8.521  10.530   4.362  0.0366  0.2706 -0.0166
  618MOL0     C85171   8.649  10.507   4.325  0.1422 -0.3758  0.6857
  618MOL0     C85172   8.750  10.606   4.339  0.1392  0.2573  0.0843
  618MOL0     C85173   8.873  10.590   4.273  0.0187  0.2044  0.3742
  618MOL0     C85174   8.967  10.700   4.284 -0.2064 -0.3824  0.2082
  618MOL0     C85175   8.912  10.472   4.206  0.9681  0.1731 -0.9515
  618MOL0     C85176   9.052  10.435   4.166  0.0044 -0.4271  0.5693
  618MOL0     O85177   9.057  10.369   4.042 -0.7941 -0.7765  0.6028
  618MOL0     C85178   9.181  10.295   4.026  0.4421 -0.2476  0.3633
  618MOL0     C85179   9.182  10.160   4.066  0.8990  0.0946  0.3005
  618MOL0     C85180   9.292  10.074   4.045  0.0733  0.2014 -0.5560
  618MOL0     C85181   9.407  10.128   3.972  0.1930 -0.0355 -0.6062
  618MOL0     O85182   9.518  10.059   3.946  0.3352  0.2222  0.3638
  618MOL0     C85183   9.540   9.941   4.022  0.2325  0.5173  0.1916
  618MOL0     C85184   9.687   9.895   3.992  0.5103 -0.1787 -0.0512
  618MOL0     C85185   9.728   9.789   4.095  0.3144 -0.2640 -0.0430
  618MOL0     C85186   9.883   9.747   4.096  0.3392 -0.1251 -0.3575
  618MOL0     C85187   9.901   9.613   4.166 -0.3540 -0.4988 -0.4039
  618MOL0     C85188  10.038   9.551   4.148  0.2838  0.6107 -0.2902
  618MOL0     C85189  10.070   9.480   4.018 -0.3238  0.0354  0.0228
  618MOL0     C85190  10.209   9.396   4.009 -0.4902  0.0786 -0.4485
  618MOL0    Cl85191  10.221   9.265   4.132 -0.2981  0.1415  0.1295
  618MOL0     C85192   9.402  10.261   3.932  0.2434 -0.5750 -0.1203
  618MOL0     C85193   9.287  10.345   3.965  0.1956  0.1983 -0.7990
  618MOL0     O85194   9.147  10.462   4.233 -1.1471  0.9223  0.5645
  618MOL0     C85195   8.807  10.377   4.198 -0.5699 -0.0916 -0.8800
  618MOL0     C85196   8.682  10.393   4.246 -0.3382  0.0129  0.6750
  618MOL0     N85197   8.073  10.928   4.671  0.1664 -0.9874  0.0160
  618MOL0     N85198   8.003  10.926   4.773 -0.4731  0.2898  0.8800
  618MOL0     C85199   7.126  10.410   5.422  0.7443  0.6327  0.2423
  618MOL0     C85200   7.027  10.394   5.525  0.2457  0.6122 -0.2817
  618MOL0     C85201   6.662  10.345   5.756  0.1057  0.4454 -0.6400
  618MOL0     C85202   6.558  10.335   5.657  0.3501 -0.8280  0.4967
  618MOL0     C85203   6.428  10.295   5.690 -0.3950  0.8676 -1.0141
  618MOL0     C85204   6.393  10.270   5.824 -0.9914 -0.3619  0.5503
  618MOL0     O85205   6.262  10.253   5.859  0.3092 -0.6076 -0.0650
  618MOL0     C85206   6.199  10.137   5.781  0.3002 -0.7634 -0.5507
  618MOL0     C85207   6.051  10.169   5.770  0.4719  0.6654 -0.3660
  618MOL0     C85208   6.027  10.298   5.680  0.2823  0.8356 -0.4877
  618MOL0     C85209   5.874  10.329   5.681  0.0626  0.0881  0.4272
  618MOL0     C85210   5.769  10.221   5.654  0.0290  0.2587  0.3917
  618MOL0     C85211   5.695  10.129   5.649 -0.6400  0.1420 -0.0500
  618MOL0     C85212   6.492  10.284   5.919 -0.2940 -0.2288 -0.2185
  618MOL0     C85213   6.627  10.306   5.889 -0.1178  1.1003 -0.1596
  618MOL0     C85214   6.718  10.294   6.014  0.6940  0.2295  0.3237
  618MOL0     H85215   6.836  10.662   5.431  1.8957  0.8276  2.7828
  618MOL0     H85216   6.974  10.669   5.248 -1.5875 -1.4461 -1.3486
  618MOL0     H85217   7.252  10.694   5.170 -0.1596 -1.5848  1.4784
  618MOL0     H85218   7.149  10.598   5.066 -2.4820 -1.3713  2.4679
  618MOL0     H85219   7.338  10.461   4.982  2.7757 -2.0031  1.1351
  618MOL0     H85220   7.353  10.627   4.945  1.9780 -1.2313 -1.3525
  618MOL0     H85221   7.509  10.608   5.182 -0.1769 -0.8113  1.0025
  618MOL0     H85222   7.494  10.444   5.150  1.7769  2.0607  2.7857
  618MOL0     H85223   7.585  10.456   4.924  1.4630 -0.3874  0.0654
  618MOL0     H85224   7.599  10.631   4.940 -1.6005 -0.7820 -2.2382
  618MOL0     H85225   7.787  10.438   5.014 -1.4641  2.7396 -4.0129
  618MOL0     H85226   7.726  10.458   5.175  0.9347 -0.2353  1.1204
  618MOL0     H85227   7.741  10.714   5.106  0.0835  0.7896 -2.7102
  618MOL0     H85228   7.886  10.627   5.166  1.2129  0.0784  0.0125
  618MOL0     H85229   7.829  10.686   4.861 -2.4813  0.7733  1.0648
  618MOL0     H85230   7.956  10.584   4.926 -2.6260 -2.0260  1.4516
  618MOL0     H85231   7.881  10.857   5.002  0.5580  0.4407  2.4268
  618MOL0     H85232   8.045  10.782   5.054  1.0068 -0.9138 -1.5892
  618MOL0     H85233   8.250  10.735   4.861 -0.1637 -0.2944  0.1826
  618MOL0     H85234   8.371  10.750   4.658  0.1364  1.6207  1.7370
  618MOL0     H85235   8.355  10.899   4.575  0.9604 -0.8169  1.3496
  618MOL0     H85236   8.137  10.716   4.504 -1.9283  2.5131 -0.1500
  618MOL0     H85237   8.253  10.812   4.401 -1.9598 -0.6189  0.4303
  618MOL0     H85238   8.343  10.548   4.533  1.8452  0.7687  0.4323
  618MOL0     H85239   8.273  10.555   4.373 -0.1777 -1.4222 -0.1474
  618MOL0     H85240   8.483  10.742   4.348  1.3359 -0.4458 -0.4683
  618MOL0     H85241   8.519  10.679   4.504  0.5232  2.7561 -0.3328
  618MOL0     H85242   8.729  10.702   4.384 -2.0587 -0.4369  0.6793
  618MOL0     H85243   9.047  10.665   4.349 -1.3608 -1.6304  1.0112
  618MOL0     H85244   8.923  10.788   4.330 -0.6009 -1.0247  1.0996
  618MOL0     H85245   9.002  10.733   4.186 -0.3377 -0.5509  0.1027
  618MOL0     H85246   9.099  10.119   4.123 -1.0921  1.2805 -1.6214
  618MOL0     H85247   9.278   9.972   4.081  0.2391  0.4276  0.1652
  618MOL0     H85248   9.531   9.952   4.130 -1.4448 -4.4056  0.7678
  618MOL0     H85249   9.475   9.860   3.989 -0.2543  0.9261  0.1342
  618MOL0     H85250   9.692   9.865   3.887  0.0948  2.7390 -1.0200
  618MOL0     H85251   9.750   9.984   3.996 -1.7151  1.6952 -2.7733
  618MOL0     H85252   9.672   9.697   4.071 -1.3487 -0.2378  3.2466
  618MOL0     H85253   9.702   9.814   4.198  0.1175  0.8634 -0.3503
  618MOL0     H85254   9.947   9.823   4.143 -0.6456  1.1051 -0.9511
  618MOL0     H85255   9.921   9.750   3.993 -0.8385  1.6765 -0.7812
  618MOL0     H85256   9.897   9.635   4.273  0.4043  0.1785 -0.5090
  618MOL0     H85257   9.826   9.536   4.145  1.9719 -2.9504 -0.4223
  618MOL0     H85258  10.053   9.474   4.225  1.2653 -0.1827 -1.2488
  618MOL0     H85259  10.123   9.619   4.158  0.1597  0.5792  1.2336
  618MOL0     H85260  10.066   9.558   3.941  0.2019 -0.0893 -0.1369
  618MOL0     H85261   9.995   9.405   3.995 -2.4168  2.5799 -2.1795
  618MOL0     H85262  10.288   9.471   4.025 -0.3988  0.0528 -0.7913
  618MOL0     H85263  10.216   9.359   3.907  0.1219 -0.1714 -0.3162
  618MOL0     H85264   9.483  10.308   3.876 -0.6835  1.9845  0.5553
  618MOL0     H85265   9.279  10.449   3.935 -1.8753  0.2168 -0.2835
  618MOL0     H85266   8.832  10.275   4.172  0.5244  0.4176 -1.9762
  618MOL0     H85267   8.614  10.308   4.246  0.2056 -0.4236 -0.2455
  618MOL0     H85268   7.212  10.345   5.426  1.6043  1.3644 -3.2169
  618MOL0     H85269   7.028  10.313   5.597  0.5397  0.4501 -0.4646
  618MOL0     H85270   6.580  10.358   5.553 -1.2234 -2.8302 -0.3631
  618MOL0     H85271   6.345  10.286   5.621 -2.3710 -2.0881  1.4770
  618MOL0     H85272   6.231  10.123   5.677  2.0997  2.4183 -0.5618
  618MOL0     H85273   6.210  10.040   5.831  0.1913 -0.4519  0.0739
  618MOL0     H85274   6.006  10.191   5.867  2.2731  0.7330  0.4769
  618MOL0     H85275   6.009  10.083   5.716  3.1375  0.9770 -3.2444
  618MOL0     H85276   6.078  10.386   5.720 -0.6215  0.0449  2.6815
  618MOL0     H85277   6.061  10.273   5.578  0.6857  1.8019 -0.5965
  618MOL0     H85278   5.863  10.411   5.608  4.0252 -1.2913 -2.0747
  618MOL0     H85279   5.857  10.361   5.784  1.2493  1.1919  0.3032
  618MOL0     H85280   5.616  10.059   5.635  1.6127 -2.3491 -1.0527
  618MOL0     H85281   6.463  10.274   6.023  2.0044 -3.9412  0.2417
  618MOL0     H85282   6.736  10.188   6.033  2.4784  0.5034  0.3266
  618MOL0     H85283   6.813  10.349   6.015 -0.4583  2.5043 -2.6741
  618MOL0     H85284   6.663  10.339   6.098 -1.2255 -0.1273 -0.7035
  619MOL0     O85285   0.507  10.987  10.892  0.7806  0.1630 -0.1173
  619MOL0     C85286   0.463  10.894  10.962  0.1576 -0.3452 -1.3735
  619MOL0     O85287   0.372  10.898  11.061 -0.0476 -0.2608 -0.2525
  619MOL0     C85288   0.282  11.005  11.082 -0.0466  0.9812 -0.2322
  619MOL0     C85289   0.151  11.004  11.024  0.2849  0.7804  0.0421
  619MOL0     C85290   0.074  11.118  11.016 -0.1272  0.2077 -0.3645
  619MOL0     C85291   0.114  11.229  11.093 -0.7457 -0.4149  1.1245
  619MOL0     O85292   0.018  11.325  11.098 -0.6209  0.5633 -0.2963
  619MOL0     C85293   0.045  11.445  11.178 -0.5990 -0.0101  0.4332
  619MOL0     C85294  -0.055  11.556  11.152 -0.2845  0.6646  0.6972
  619MOL0     C85295  -0.178  11.535  11.239 -0.3390  0.7689 -0.5025
  619MOL0     C85296  -0.172  11.608  11.369 -0.2744 -0.1013  0.0378
  619MOL0     C85297  -0.297  11.575  11.447  0.2466  0.1093  0.5105
  619MOL0     C85298  -0.288  11.651  11.581  0.3692 -0.3071  0.0606
  619MOL0     C85299  -0.381  11.589  11.681 -0.2523 -0.0711 -0.2750
  619MOL0     C85300  -0.332  11.464  11.744 -0.3255 -1.1128 -0.3654
  619MOL0     N85301  -0.432  11.395  11.829 -0.0362  0.2484  0.1064
  619MOL0     C85302  -0.489  11.441  11.943  0.6347  0.2974 -0.2996
  619MOL0     C85303  -0.596  11.348  11.966  0.1360  0.6780 -0.4571
  619MOL0     C85304  -0.704  11.360  12.066 -0.0839 -0.9045 -0.1273
  619MOL0     C85305  -0.770  11.498  12.086  0.8568 -0.8680  0.5461
  619MOL0     C85306  -0.871  11.496  12.205 -0.7836 -0.8037 -0.7615
  619MOL0     C85307  -0.943  11.640  12.200 -0.5709 -0.4237  0.4836
  619MOL0     O85308  -1.042  11.643  12.303  0.9539 -0.9777 -0.5228
  619MOL0     C85309  -1.138  11.739  12.288  0.1725 -0.5205 -0.7863
  619MOL0     C85310  -1.220  11.764  12.178  0.7016  0.7528 -0.4374
  619MOL0     C85311  -1.316  11.865  12.178 -0.8956 -0.1986 -0.0263
  619MOL0     C85312  -1.381  11.894  12.046 -0.2533 -0.0102 -1.1878
  619MOL0     C85313  -1.322  11.951  12.286 -0.3336 -0.3261 -0.5910
  619MOL0     C85314  -1.405  12.081  12.302 -0.2956  0.1417  0.3197
  619MOL0     O85315  -1.476  12.108  12.413 -0.2762  0.0302  0.1274
  619MOL0     C85316  -1.511  12.227  12.462  0.1952 -0.0181 -0.2753
  619MOL0     C85317  -1.541  12.236  12.599 -0.1514  0.6133  0.8343
  619MOL0     C85318  -1.585  12.354  12.655  1.2988 -0.2312 -0.1210
  619MOL0     C85319  -1.614  12.465  12.578  0.1207  0.9255 -0.3306
  619MOL0     O85320  -1.670  12.581  12.629  0.2792  0.1321 -1.3160
  619MOL0     C85321  -1.568  12.679  12.658 -0.2627  1.0283  0.4684
  619MOL0     C85322  -1.627  12.782  12.753 -1.0771  0.6575  0.3326
  619MOL0     C85323  -1.514  12.886  12.796 -0.1131  0.6168  0.0746
  619MOL0     C85324  -1.553  13.006  12.876  0.5806  0.8845  0.4579
  619MOL0     C85325  -1.428  13.074  12.925  0.3635 -0.4720 -0.5858
  619MOL0     C85326  -1.444  13.187  13.029  0.2452 -0.1747 -0.0755
  619MOL0     C85327  -1.537  13.148  13.153 -0.8230  0.4129 -0.4198
  619MOL0     C85328  -1.453  13.075  13.264  0.0532 -0.3000  0.3256
  619MOL0    Cl85329  -1.559  13.019  13.402  0.3689 -0.1239  0.2358
  619MOL0     C85330  -1.597  12.457  12.436  0.8074  0.1426  0.1659
  619MOL0     C85331  -1.554  12.337  12.385 -0.5703 -0.4341  0.7203
  619MOL0     O85332  -1.411  12.139  12.202 -0.7815  0.5631  0.2568
  619MOL0     C85333  -1.243  11.925  12.401 -0.7244  0.2859 -0.6445
  619MOL0     C85334  -1.157  11.814  12.396 -0.2659  0.5633  0.3315
  619MOL0     N85335  -0.598  11.261  11.853 -0.9652 -0.0924 -0.4118
  619MOL0     N85336  -0.501  11.288  11.778 -0.6388 -0.0866  0.1215
  619MOL0     C85337   0.246  11.232  11.152  0.4669 -0.3620  2.0637
  619MOL0     C85338   0.333  11.120  11.147  0.7426  0.2466  0.6557
  619MOL0     C85339   0.515  10.763  10.930  0.2156  0.2966 -0.1990
  619MOL0     C85340   0.650  10.747  10.898 -0.0949  0.0055 -0.9164
  619MOL0     C85341   0.701  10.627  10.855 -0.0295 -0.9899  0.0343
  619MOL0     C85342   0.631  10.511  10.836 -0.5617  0.5890  0.4376
  619MOL0     O85343   0.692  10.400  10.775 -0.2473 -0.2579  0.0531
  619MOL0     C85344   0.615  10.297  10.718  0.6670  0.3863  0.4733
  619MOL0     C85345   0.700  10.233  10.601  0.3917  0.0034  0.0002
  619MOL0     C85346   0.620  10.112  10.542 -1.3707  0.3188  0.2701
  619MOL0     C85347   0.686  10.060  10.421  0.2507  0.7288  0.2696
  619MOL0     C85348   0.618   9.943  10.370  0.0863 -0.0269 -0.7402
  619MOL0     C85349   0.570   9.840  10.325 -0.1974 -0.0281  0.4078
  619MOL0     C85350   0.496  10.524  10.877 -0.4293 -0.2454 -0.5571
  619MOL0     C85351   0.438  10.649  10.907 -0.1116  0.2866 -0.0608
  619MOL0     C85352   0.287  10.649  10.911 -0.0564  0.6699 -0.9893
  619MOL0     H85353   0.107  10.916  10.978  5.3481 -2.6103  0.8794
  619MOL0     H85354  -0.020  11.128  10.962  0.9378  1.0579 -2.1773
  619MOL0     H85355   0.134  11.497  11.141 -0.3983 -0.9311 -0.4241
  619MOL0     H85356   0.060  11.427  11.285  4.2539 -0.7037 -0.1328
  619MOL0     H85357  -0.003  11.651  11.169 -1.3066  1.5101 -0.6796
  619MOL0     H85358  -0.086  11.549  11.047  0.2423  1.7651  0.4559
  619MOL0     H85359  -0.271  11.556  11.185  0.8918  1.3352 -2.5069
  619MOL0     H85360  -0.175  11.428  11.261  1.2961  1.1901  1.6650
  619MOL0     H85361  -0.084  11.575  11.424  0.2979  2.2556  0.6334
  619MOL0     H85362  -0.162  11.716  11.354 -3.1147  0.5267  1.8819
  619MOL0     H85363  -0.312  11.466  11.446 -0.0971  0.1126  2.3446
  619MOL0     H85364  -0.384  11.617  11.398  1.7094  2.7636  0.0017
  619MOL0     H85365  -0.186  11.643  11.620  1.6206  0.8908 -2.6799
  619MOL0     H85366  -0.310  11.758  11.575 -0.3689 -0.4651 -0.1940
  619MOL0     H85367  -0.473  11.563  11.628  1.1416 -4.4926 -0.9283
  619MOL0     H85368  -0.407  11.647  11.770  1.7373 -1.7872  1.5256
  619MOL0     H85369  -0.297  11.399  11.663 -0.8619  0.4332 -1.9017
  619MOL0     H85370  -0.240  11.498  11.793 -2.2638 -1.1645  3.6672
  619MOL0     H85371  -0.481  11.539  11.989 -3.2464  0.9344 -0.6485
  619MOL0     H85372  -0.660  11.327  12.160 -0.9470  1.5547  1.2295
  619MOL0     H85373  -0.791  11.297  12.046 -1.6718 -0.2242  3.7313
  619MOL0     H85374  -0.699  11.580  12.106 -0.6666  0.4785  0.6072
  619MOL0     H85375  -0.830  11.504  11.995  0.5996 -3.7388  0.4553
  619MOL0     H85376  -0.942  11.413  12.203  1.2942 -2.9393  3.4183
  619MOL0     H85377  -0.817  11.484  12.299 -1.1309 -0.5322 -0.5249
  619MOL0     H85378  -0.877  11.726  12.206  0.8031 -1.2999 -1.1590
  619MOL0     H85379  -1.001  11.649  12.107 -1.0115  4.6778  0.9968
  619MOL0     H85380  -1.200  11.708  12.087  1.7862 -1.5359  1.1082
  619MOL0     H85381  -1.479  11.936  12.070  0.2138  0.3204  0.2399
  619MOL0     H85382  -1.386  11.797  11.995  2.0737 -1.2322  0.6824
  619MOL0     H85383  -1.331  11.973  11.989 -0.6015  1.4033  0.3962
  619MOL0     H85384  -1.527  12.153  12.667 -0.1816 -0.8825 -0.9132
  619MOL0     H85385  -1.627  12.344  12.755 -1.3854 -0.8448 -1.2017
  619MOL0     H85386  -1.478  12.630  12.694 -0.6022 -0.6547 -0.8511
  619MOL0     H85387  -1.539  12.724  12.562  0.6183 -0.1335  0.1661
  619MOL0     H85388  -1.713  12.826  12.702 -2.3443 -4.1187 -2.2836
  619MOL0     H85389  -1.671  12.737  12.843 -1.8287  4.9631  2.3501
  619MOL0     H85390  -1.457  12.914  12.707 -1.9102 -2.0408 -2.0946
  619MOL0     H85391  -1.435  12.829  12.846  0.1811  1.7465  0.9253
  619MOL0     H85392  -1.609  12.960  12.959  1.5443 -0.3850  0.4371
  619MOL0     H85393  -1.618  13.070  12.816 -3.0104 -2.6909  0.0614
  619MOL0     H85394  -1.351  13.011  12.970 -0.3485  0.7019  2.4870
  619MOL0     H85395  -1.383  13.123  12.838 -0.6239 -1.4863 -1.7194
  619MOL0     H85396  -1.478  13.280  12.981 -4.2281 -0.2282  2.4385
  619MOL0     H85397  -1.343  13.209  13.065 -0.6726  1.5326  1.6420
  619MOL0     H85398  -1.627  13.089  13.131 -0.9542 -0.0173  1.1419
  619MOL0     H85399  -1.584  13.239  13.192 -1.8466  1.1216 -3.0770
  619MOL0     H85400  -1.360  13.121  13.296 -0.4117 -1.2619  3.3216
  619MOL0     H85401  -1.422  12.981  13.215 -2.1773 -0.9490  0.0497
  619MOL0     H85402  -1.623  12.544  12.376  0.0096 -0.2407 -0.0488
  619MOL0     H85403  -1.544  12.335  12.276  2.6107  2.2227  0.7816
  619MOL0     H85404  -1.231  12.002  12.477  1.6702  0.6951 -1.3393
  619MOL0     H85405  -1.076  11.801  12.467  0.6110 -1.0894 -0.8984
  619MOL0     H85406   0.273  11.318  11.212 -0.8031  1.3611  0.3027
  619MOL0     H85407   0.433  11.119  11.189  0.1923 -0.1020  2.0156
  619MOL0     H85408   0.723  10.827  10.897  0.4767 -0.5134 -1.4078
  619MOL0     H85409   0.807  10.628  10.831  0.2155 -0.8245  1.0985
  619MOL0     H85410   0.599  10.223  10.797 -1.2101  0.1376 -0.1002
  619MOL0     H85411   0.521  10.342  10.684 -0.7055 -3.0878 -0.7333
  619MOL0     H85412   0.796  10.207  10.647 -0.1710 -0.3764  0.9790
  619MOL0     H85413   0.731  10.313  10.533  2.1727 -0.8565 -0.2494
  619MOL0     H85414   0.625  10.030  10.614  0.2291  0.2297  0.1015
  619MOL0     H85415   0.520  10.149  10.519 -0.8133  0.5488 -2.1722
  619MOL0     H85416   0.787  10.030  10.450  0.1887  0.6032  0.3572
  619MOL0     H85417   0.680  10.133  10.340 -1.7552 -1.5417 -1.7958
  619MOL0     H85418   0.536   9.748  10.281 -1.6408  0.5209  0.3183
  619MOL0     H85419   0.441  10.431  10.872 -1.3345  0.2186  0.3833
  619MOL0     H85420   0.255  10.665  11.014  1.5882 -2.9868  0.2935
  619MOL0     H85421   0.247  10.724  10.843  2.5043  1.3169 -1.9048
  619MOL0     H85422   0.249  10.550  10.885 -1.4140  0.5867  1.1379
  620MOL0     O85423   6.984   4.951  10.816  0.6709 -0.0110 -0.4427
  620MOL0     C85424   6.863   4.936  10.796 -0.0169 -0.7111  0.2031
  620MOL0     O85425   6.770   5.011  10.845  1.2201 -0.4442 -0.3797
  620MOL0     C85426   6.791   5.117  10.935 -0.0850 -0.0205 -0.4992
  620MOL0     C85427   6.900   5.121  11.028 -0.3027 -0.4716 -0.6666
  620MOL0     C85428   6.920   5.230  11.111  0.0144  0.6583 -0.3489
  620MOL0     C85429   6.833   5.334  11.111  1.2170 -0.4472 -0.4259
  620MOL0     O85430   6.854   5.444  11.192 -0.2246  1.2935 -0.2635
  620MOL0     C85431   6.790   5.569  11.177  0.1747  0.9181  0.3524
  620MOL0     C85432   6.836   5.656  11.299 -1.2985 -0.1588 -0.1282
  620MOL0     C85433   6.789   5.798  11.273  0.1543  0.0076 -0.1281
  620MOL0     C85434   6.804   5.890  11.384  0.5193  1.0126  0.3504
  620MOL0     C85435   6.804   6.041  11.361 -1.1900 -0.0280  0.4506
  620MOL0     C85436   6.942   6.091  11.304  0.5768  0.1910 -0.3804
  620MOL0     C85437   6.923   6.214  11.209 -0.0717  0.6519 -0.7985
  620MOL0     C85438   7.047   6.229  11.127 -0.2424 -0.0836 -0.0322
  620MOL0     N85439   7.022   6.317  11.011  0.3352  0.1665  0.4355
  620MOL0     C85440   6.992   6.456  11.015  0.6212  0.0342 -0.3552
  620MOL0     C85441   6.972   6.488  10.880 -0.3296 -0.7872 -0.1750
  620MOL0     C85442   6.914   6.615  10.822  0.6223  0.8396  0.1553
  620MOL0     C85443   6.964   6.654  10.682 -0.1644 -0.5168  0.1552
  620MOL0     C85444   6.964   6.801  10.638  0.4021  0.1154  0.5599
  620MOL0     C85445   6.828   6.871  10.668  0.9273 -0.1519  0.5380
  620MOL0     O85446   6.825   7.003  10.620  0.2203 -0.7834  0.3983
  620MOL0     C85447   6.702   7.050  10.577 -0.1472  0.5831  0.9497
  620MOL0     C85448   6.576   7.016  10.628  0.7662  0.0166 -0.1246
  620MOL0     C85449   6.460   7.075  10.578  0.5683  0.2431  0.2978
  620MOL0     C85450   6.323   7.039  10.620 -1.3352 -0.2167 -0.3701
  620MOL0     C85451   6.477   7.157  10.456  1.0055  0.8415  0.2666
  620MOL0     C85452   6.358   7.226  10.395 -0.1882  0.2732  0.4530
  620MOL0     O85453   6.261   7.145  10.339  0.2306 -0.2911  0.0966
  620MOL0     C85454   6.156   7.212  10.284  1.0187  0.4103  0.0434
  620MOL0     C85455   6.156   7.245  10.148 -0.1895 -0.3939 -0.0288
  620MOL0     C85456   6.046   7.314  10.092 -0.9187 -0.4843  0.5275
  620MOL0     C85457   5.939   7.344  10.169  0.1832 -0.4894 -0.6013
  620MOL0     O85458   5.830   7.414  10.112 -0.2714  0.5626 -0.1356
  620MOL0     C85459   5.726   7.475  10.194  0.2791 -0.1003  0.1400
  620MOL0     C85460   5.669   7.587  10.111 -0.0874  0.3599 -0.2256
  620MOL0     C85461   5.591   7.525   9.994 -0.0716 -0.5407 -0.2651
  620MOL0     C85462   5.487   7.626   9.938  0.5658 -0.0372 -0.9783
  620MOL0     C85463   5.542   7.734   9.847 -1.1495 -1.3430 -0.4186
  620MOL0     C85464   5.441   7.818   9.783  0.1313 -0.7869  0.2528
  620MOL0     C85465   5.514   7.946   9.723 -0.8638  0.6019  0.5810
  620MOL0     C85466   5.495   8.084   9.805 -0.2581  0.2566 -0.5329
  620MOL0    Cl85467   5.537   8.061   9.972  0.3853 -0.1965 -0.0097
  620MOL0     C85468   5.934   7.311  10.303 -1.0757 -0.2516  0.7650
  620MOL0     C85469   6.039   7.238  10.360 -0.4868  0.3829  0.0886
  620MOL0     O85470   6.376   7.345  10.372 -0.5600 -0.2648  0.3865
  620MOL0     C85471   6.601   7.191  10.408 -0.0174  0.0481 -1.1631
  620MOL0     C85472   6.712   7.135  10.468  0.9072  0.7547  0.5557
  620MOL0     N85473   7.002   6.371  10.799  0.2690 -0.3391 -0.4631
  620MOL0     N85474   7.018   6.270  10.890 -1.0769 -0.5174  1.1151
  620MOL0     C85475   6.730   5.335  11.021 -0.6858 -0.1274 -0.1190
  620MOL0     C85476   6.700   5.228  10.944 -0.7498  1.0097  0.0631
  620MOL0     C85477   6.823   4.815  10.708  0.6649  0.5176 -0.1054
  620MOL0     C85478   6.899   4.704  10.690 -0.4579  0.4895 -0.0425
  620MOL0     C85479   6.855   4.597  10.613  0.7312 -0.9130  0.3975
  620MOL0     C85480   6.717   4.576  10.572 -0.4773  0.2175 -0.2880
  620MOL0     O85481   6.664   4.460  10.510 -0.5813 -0.7292 -0.1106
  620MOL0     C85482   6.739   4.343  10.524 -0.3387  0.9003  0.6240
  620MOL0     C85483   6.665   4.217  10.473 -1.0367 -0.3898 -0.3309
  620MOL0     C85484   6.687   4.195  10.324 -0.2869 -0.4869 -0.0338
  620MOL0     C85485   6.585   4.089  10.267 -0.9911  0.2258  0.1295
  620MOL0     C85486   6.609   3.962  10.326  0.4693  0.5579  0.6890
  620MOL0     C85487   6.631   3.849  10.367  0.0494 -0.2068  0.5158
  620MOL0     C85488   6.640   4.682  10.589 -0.0118 -0.1292 -0.3922
  620MOL0     C85489   6.684   4.799  10.651  0.4627 -0.5688 -0.5000
  620MOL0     C85490   6.592   4.917  10.641 -0.5038  0.3802 -0.0187
  620MOL0     H85491   6.971   5.039  11.034  1.2090  0.8878  2.0194
  620MOL0     H85492   7.011   5.218  11.170  0.7184  0.3773 -1.4758
  620MOL0     H85493   6.683   5.548  11.179  0.2662 -0.9108 -3.8622
  620MOL0     H85494   6.826   5.611  11.083  2.7413 -1.9625 -0.1512
  620MOL0     H85495   6.798   5.614  11.392 -0.9450 -0.0627  0.0625
  620MOL0     H85496   6.945   5.660  11.310 -1.2247  0.8001 -1.0290
  620MOL0     H85497   6.844   5.851  11.195 -1.6443  3.1188  0.5382
  620MOL0     H85498   6.683   5.812  11.255  0.1847  0.6856  0.1507
  620MOL0     H85499   6.726   5.868  11.457 -0.8943 -2.5720 -1.9516
  620MOL0     H85500   6.896   5.852  11.431 -0.2102 -3.3265 -1.2676
  620MOL0     H85501   6.795   6.098  11.454  1.8294  0.5143  0.5071
  620MOL0     H85502   6.727   6.063  11.286  0.7697  0.4688 -1.5242
  620MOL0     H85503   7.005   6.114  11.391  0.6609  0.9323 -0.6273
  620MOL0     H85504   6.986   6.002  11.259 -1.4440 -0.1169 -1.9051
  620MOL0     H85505   6.900   6.304  11.268  0.2628  1.0821 -1.3113
  620MOL0     H85506   6.835   6.202  11.146 -0.0343 -1.0946 -0.5439
  620MOL0     H85507   7.127   6.260  11.195 -0.6654  3.0855 -0.8117
  620MOL0     H85508   7.073   6.131  11.086  1.9149  0.0080  0.9519
  620MOL0     H85509   6.976   6.521  11.100  4.0261 -0.6627  0.9707
  620MOL0     H85510   6.936   6.694  10.895 -2.6586  1.8422  0.2293
  620MOL0     H85511   6.805   6.617  10.838  0.7799 -1.7611  2.3968
  620MOL0     H85512   7.059   6.605  10.657 -0.6750 -1.9886  0.9368
  620MOL0     H85513   6.902   6.607  10.605  3.4958 -2.7799 -1.7063
  620MOL0     H85514   7.048   6.851  10.688 -0.8760  2.6417  0.3521
  620MOL0     H85515   6.993   6.800  10.533  1.4395 -4.5396  0.6573
  620MOL0     H85516   6.746   6.808  10.632  0.8576 -0.4850  1.2708
  620MOL0     H85517   6.813   6.878  10.776  0.7121  2.3909  0.3968
  620MOL0     H85518   6.565   6.947  10.711  0.8523  1.1281  0.8304
  620MOL0     H85519   6.272   7.128  10.658  2.4804  1.6031  1.0533
  620MOL0     H85520   6.322   6.967  10.703 -4.2410  0.5173  0.3627
  620MOL0     H85521   6.264   6.998  10.538  0.8360  0.8219 -2.5645
  620MOL0     H85522   6.251   7.230  10.097  1.6893  1.5854  2.5955
  620MOL0     H85523   6.053   7.359   9.994 -4.0160 -0.6899  0.1186
  620MOL0     H85524   5.649   7.407  10.230 -0.0412 -0.1917 -0.6875
  620MOL0     H85525   5.774   7.524  10.279  0.7142  0.8479 -0.6266
  620MOL0     H85526   5.609   7.664  10.159 -0.0304  0.3835 -0.1912
  620MOL0     H85527   5.749   7.655  10.079 -0.2763  1.3060  1.1865
  620MOL0     H85528   5.536   7.435  10.020 -1.3423 -0.1112 -1.3744
  620MOL0     H85529   5.666   7.496   9.920  1.2778 -2.0166  1.5916
  620MOL0     H85530   5.446   7.673  10.027  2.5932  1.1258 -0.5857
  620MOL0     H85531   5.410   7.567   9.887 -1.0851  0.0203  1.3216
  620MOL0     H85532   5.604   7.799   9.910 -1.6479 -1.9073  0.6966
  620MOL0     H85533   5.592   7.685   9.763  0.1014  0.0782 -0.5417
  620MOL0     H85534   5.364   7.856   9.851 -3.2609 -3.0972 -1.9426
  620MOL0     H85535   5.381   7.765   9.708  0.1914 -0.9719  0.3353
  620MOL0     H85536   5.478   7.970   9.623  2.1761 -0.2687 -0.8409
  620MOL0     H85537   5.620   7.917   9.716 -0.8564  0.0295  2.5188
  620MOL0     H85538   5.390   8.113   9.797  0.0307  1.2098 -1.0136
  620MOL0     H85539   5.560   8.164   9.769  2.3421 -2.0828 -1.4631
  620MOL0     H85540   5.846   7.338  10.360 -4.2290 -3.2445 -2.2002
  620MOL0     H85541   6.047   7.217  10.467 -1.4510  0.3865  0.1716
  620MOL0     H85542   6.602   7.263  10.327 -2.4300  1.2582 -0.2005
  620MOL0     H85543   6.810   7.168  10.435  0.9176  1.5038  1.3177
  620MOL0     H85544   6.654   5.414  11.025 -0.0539  0.4432  2.0560
  620MOL0     H85545   6.625   5.249  10.868 -2.0422  0.7132  1.2258
  620MOL0     H85546   6.999   4.694  10.730 -0.5183 -2.4250 -0.3836
  620MOL0     H85547   6.919   4.511  10.600  0.3276 -1.8901  3.8346
  620MOL0     H85548   6.832   4.353  10.467 -1.6653 -0.4762 -1.9203
  620MOL0     H85549   6.762   4.317  10.629 -1.8110 -4.8060 -0.0959
  620MOL0     H85550   6.560   4.213  10.502 -1.5788  2.6857 -1.4057
  620MOL0     H85551   6.713   4.131  10.520  0.7976  1.5814  1.6443
  620MOL0     H85552   6.673   4.295  10.283 -1.5910 -1.3231 -1.8096
  620MOL0     H85553   6.793   4.170  10.311  0.9814  4.0839 -0.0551
  620MOL0     H85554   6.577   4.084  10.158  0.3560  1.6375 -0.0680
  620MOL0     H85555   6.485   4.116  10.303  0.0238  1.6916  1.9779
  620MOL0     H85556   6.639   3.751  10.410 -0.1054  1.5725  5.0851
  620MOL0     H85557   6.536   4.674  10.560 -0.7387 -1.2520  2.2400
  620MOL0     H85558   6.642   5.002  10.593  0.3272 -1.2768 -2.2857
  620MOL0     H85559   6.512   4.903  10.569 -0.2862  1.1753 -0.4237
  620MOL0     H85560   6.544   4.942  10.736 -0.4645 -2.4125  0.8289
  621MOL0     O85561   8.607   5.535  10.366 -0.3455  0.2234 -0.0789
  621MOL0     C85562   8.601   5.513  10.490  0.1171 -1.0012 -0.6991
  621MOL0     O85563   8.500   5.548  10.577  0.5305  0.0187  0.0413
  621MOL0     C85564   8.397   5.623  10.527 -0.1481  0.6860 -0.9329
  621MOL0     C85565   8.404   5.731  10.437  0.4538 -0.6221  0.2502
  621MOL0     C85566   8.294   5.814  10.406 -0.7046 -0.9097  0.0348
  621MOL0     C85567   8.172   5.787  10.460  0.0858  0.6000  0.2172
  621MOL0     O85568   8.056   5.852  10.435 -0.1142 -0.3261 -0.0597
  621MOL0     C85569   8.060   5.976  10.513 -0.2634  0.3288 -0.7244
  621MOL0     C85570   7.929   6.043  10.472 -0.3935  0.1404 -0.4144
  621MOL0     C85571   7.931   6.189  10.509  0.0362  0.5245  1.0940
  621MOL0     C85572   7.927   6.278  10.386  0.1530  0.1144 -0.1279
  621MOL0     C85573   7.910   6.422  10.413  0.0426  0.1110 -0.1578
  621MOL0     C85574   7.963   6.519  10.302 -0.1256 -0.8932  0.0291
  621MOL0     C85575   7.925   6.666  10.308  0.1502  0.0701 -0.3111
  621MOL0     C85576   7.992   6.741  10.425  0.5173  0.0164 -1.1089
  621MOL0     N85577   7.977   6.893  10.420  0.2774  0.0389  0.0892
  621MOL0     C85578   7.969   6.983  10.527 -0.6949  0.1394  0.8973
  621MOL0     C85579   7.994   7.106  10.470 -1.2810  0.7702  0.5250
  621MOL0     C85580   8.003   7.228  10.546 -0.5023  0.2757 -0.0635
  621MOL0     C85581   7.954   7.354  10.470 -0.1461 -1.1118  0.0165
  621MOL0     C85582   7.932   7.473  10.556 -1.0687  0.3564  0.4959
  621MOL0     C85583   7.809   7.460  10.654 -0.5434 -0.5288 -0.4907
  621MOL0     O85584   7.782   7.592  10.694  0.2679 -0.2341  1.0955
  621MOL0     C85585   7.652   7.613  10.718 -0.2327 -0.6440 -0.4242
  621MOL0     C85586   7.581   7.695  10.635 -0.9651  0.2636  0.4866
  621MOL0     C85587   7.445   7.726  10.662 -0.0713 -0.4915 -0.0154
  621MOL0     C85588   7.387   7.844  10.579 -0.7445  0.3326 -0.4929
  621MOL0     C85589   7.381   7.666  10.774 -0.2765  0.4855 -0.0519
  621MOL0     C85590   7.237   7.693  10.813 -0.0343  0.1199  0.0572
  621MOL0     O85591   7.216   7.679  10.946  0.6474 -0.3361 -0.5509
  621MOL0     C85592   7.096   7.627  10.991 -1.0879 -0.6910  0.1573
  621MOL0     C85593   7.093   7.503  11.050 -0.2315 -0.7286  0.8379
  621MOL0     C85594   6.981   7.447  11.094  1.1569  0.1078 -0.2817
  621MOL0     C85595   6.864   7.526  11.103  0.5430  0.1384  1.0994
  621MOL0     O85596   6.767   7.469  11.174  0.0553  0.0309 -0.1571
  621MOL0     C85597   6.634   7.525  11.156 -0.1693 -0.5749 -0.0516
  621MOL0     C85598   6.615   7.620  11.275 -0.0826  0.9916 -0.0601
  621MOL0     C85599   6.618   7.533  11.403 -0.5458  0.0930  0.2735
  621MOL0     C85600   6.593   7.636  11.519  0.7371 -0.1838  0.5779
  621MOL0     C85601   6.556   7.562  11.646  0.0736  0.1853  0.8451
  621MOL0     C85602   6.545   7.654  11.763 -0.2505 -0.0211  0.4309
  621MOL0     C85603   6.575   7.572  11.894 -0.4392  0.1225  1.2079
  621MOL0     C85604   6.731   7.595  11.917 -0.3224  0.7527 -0.1421
  621MOL0    Cl85605   6.766   7.758  11.967 -0.9406 -0.0030  0.0460
  621MOL0     C85606   6.856   7.650  11.037 -0.3545  0.3536 -0.6888
  621MOL0     C85607   6.981   7.703  10.987  0.1915 -0.9874  1.1967
  621MOL0     O85608   7.150   7.713  10.736  0.3960 -0.7633  0.3232
  621MOL0     C85609   7.448   7.570  10.843 -0.2911  0.2064  0.5551
  621MOL0     C85610   7.581   7.539  10.811  0.3614  0.3157 -0.0964
  621MOL0     N85611   8.008   7.084  10.332  0.0836  0.2544  1.4257
  621MOL0     N85612   8.010   6.960  10.308  0.2372  0.0185 -0.2267
  621MOL0     C85613   8.165   5.682  10.553 -0.5821 -0.0244  0.3472
  621MOL0     C85614   8.273   5.595  10.588 -0.6768  1.4528  0.1099
  621MOL0     C85615   8.716   5.463  10.564 -0.6731 -0.1101  0.3812
  621MOL0     C85616   8.728   5.484  10.702 -0.8899  0.5508  0.5481
  621MOL0     C85617   8.844   5.441  10.776 -0.2580 -0.3936  0.1969
  621MOL0     C85618   8.940   5.359  10.714 -0.1671 -0.5776  0.3666
  621MOL0     O85619   9.046   5.323  10.793 -0.1920 -0.1060 -0.0875
  621MOL0     C85620   9.159   5.259  10.720 -0.2166  0.0418  0.0478
  621MOL0     C85621   9.282   5.264  10.822  0.9973  0.1107  0.3217
  621MOL0     C85622   9.420   5.267  10.764  0.6706  0.4139  0.5511
  621MOL0     C85623   9.479   5.415  10.748 -0.6871  0.0637 -0.0023
  621MOL0     C85624   9.541   5.475  10.865 -0.2532 -0.1551 -0.6739
  621MOL0     C85625   9.577   5.540  10.963  0.1380 -0.8104 -0.0969
  621MOL0     C85626   8.919   5.321  10.581  0.3296  0.3688  0.4792
  621MOL0     C85627   8.813   5.371  10.510 -0.0996 -0.5861 -0.1341
  621MOL0     C85628   8.793   5.307  10.389  0.4310 -0.3140  0.1771
  621MOL0     H85629   8.498   5.761  10.390 -1.1619  3.0836 -0.9708
  621MOL0     H85630   8.302   5.902  10.342 -3.0135 -2.2210 -2.2365
  621MOL0     H85631   8.152   6.031  10.489  0.5998 -1.4245 -1.6523
  621MOL0     H85632   8.064   5.951  10.620  0.0289  4.6374  0.4619
  621MOL0     H85633   7.918   6.026  10.365  2.9888 -2.7461 -0.5010
  621MOL0     H85634   7.850   5.990  10.527  0.5009  0.9770  1.8062
  621MOL0     H85635   7.834   6.203  10.557  0.3254  0.9061  1.5755
  621MOL0     H85636   8.009   6.212  10.582  1.8357 -3.2137  0.5857
  621MOL0     H85637   8.028   6.263  10.346  0.8916  0.1951  1.6048
  621MOL0     H85638   7.851   6.243  10.316 -1.2347  0.6377  1.0873
  621MOL0     H85639   7.968   6.451  10.501 -1.1296  3.3611 -0.3187
  621MOL0     H85640   7.804   6.441  10.434  0.5923  2.5085  0.7046
  621MOL0     H85641   8.071   6.530  10.292 -0.2507 -1.2030 -2.0230
  621MOL0     H85642   7.936   6.485  10.202 -0.7433  3.5658 -1.5093
  621MOL0     H85643   7.820   6.688  10.330  0.8865  1.1816  2.6444
  621MOL0     H85644   7.959   6.716  10.217 -0.0356 -1.6027 -1.3409
  621MOL0     H85645   7.966   6.710  10.527 -0.1953  2.6536 -0.3926
  621MOL0     H85646   8.099   6.720  10.416  1.0649  0.3831  2.7133
  621MOL0     H85647   7.976   6.971  10.635 -0.0290  1.2745  1.0022
  621MOL0     H85648   8.111   7.233  10.561 -0.3445  1.0391 -1.3162
  621MOL0     H85649   7.957   7.215  10.645 -1.6651  0.9504 -0.4911
  621MOL0     H85650   8.034   7.374  10.398 -0.6976  3.6921  0.4470
  621MOL0     H85651   7.862   7.327  10.418 -0.7184 -1.0483  0.9594
  621MOL0     H85652   8.027   7.495  10.605  0.8705 -1.6320 -2.1115
  621MOL0     H85653   7.912   7.560  10.494 -1.1896  1.6904  2.3123
  621MOL0     H85654   7.728   7.429  10.587 -1.2482  1.1403 -0.4543
  621MOL0     H85655   7.830   7.389  10.734  1.0504 -0.1212 -0.5157
  621MOL0     H85656   7.641   7.738  10.555 -0.9164 -2.7731 -1.2812
  621MOL0     H85657   7.434   7.822  10.483  0.6443  2.9441 -0.5150
  621MOL0     H85658   7.419   7.941  10.619  2.1028 -1.2248  1.3669
  621MOL0     H85659   7.279   7.844  10.561 -0.6304 -0.0400 -1.2303
  621MOL0     H85660   7.187   7.453  11.070  0.9494  1.9904  2.7226
  621MOL0     H85661   6.971   7.355  11.151 -0.9556  2.1267  2.9031
  621MOL0     H85662   6.603   7.567  11.059 -1.3317 -3.1948 -0.9092
  621MOL0     H85663   6.558   7.447  11.170 -0.9005  0.1681  0.2094
  621MOL0     H85664   6.693   7.697  11.279  2.0976 -1.1385  1.2014
  621MOL0     H85665   6.516   7.664  11.260 -1.1590 -1.5140 -0.8121
  621MOL0     H85666   6.723   7.502  11.408 -0.2257  1.1668  0.7173
  621MOL0     H85667   6.553   7.445  11.401 -0.3290 -0.0981  1.2427
  621MOL0     H85668   6.508   7.698  11.490 -0.2675 -2.2063 -1.0919
  621MOL0     H85669   6.683   7.696  11.537  1.0821 -0.5061 -0.0291
  621MOL0     H85670   6.460   7.513  11.627 -1.0897  2.0275  1.7331
  621MOL0     H85671   6.622   7.475  11.651 -1.2588 -0.7885  2.4386
  621MOL0     H85672   6.447   7.700  11.778 -0.1586  0.0436  0.8344
  621MOL0     H85673   6.621   7.730  11.747  0.4370 -1.2488 -2.9291
  621MOL0     H85674   6.545   7.470  11.870  0.6390  0.4656 -2.1434
  621MOL0     H85675   6.521   7.620  11.976  0.3758  2.8734  0.2698
  621MOL0     H85676   6.778   7.564  11.823 -1.3373 -1.5220  0.0117
  621MOL0     H85677   6.773   7.523  11.989 -0.4755 -1.5394 -2.2011
  621MOL0     H85678   6.767   7.711  11.051  0.7037  1.1768  3.9912
  621MOL0     H85679   6.978   7.804  10.947 -4.7540 -2.5090 -3.4456
  621MOL0     H85680   7.387   7.509  10.909  0.0193 -3.2311 -2.0747
  621MOL0     H85681   7.624   7.460  10.872 -1.3324 -2.0997 -1.8194
  621MOL0     H85682   8.067   5.669  10.598 -2.0069  0.0247 -2.5193
  621MOL0     H85683   8.277   5.519  10.665  3.4131  2.3540  1.0556
  621MOL0     H85684   8.646   5.533  10.753 -2.1708 -1.8357  0.9147
  621MOL0     H85685   8.854   5.472  10.880  1.4563  4.9103 -1.2235
  621MOL0     H85686   9.138   5.161  10.677 -2.6931  0.5472 -0.0530
  621MOL0     H85687   9.187   5.319  10.633 -0.9450  1.2108  0.5899
  621MOL0     H85688   9.264   5.166  10.867 -2.4077  0.2300 -0.5116
  621MOL0     H85689   9.272   5.353  10.885  2.0281 -1.0967  2.3301
  621MOL0     H85690   9.501   5.207  10.807  1.2478  1.0709  0.3951
  621MOL0     H85691   9.393   5.246  10.660  0.6814  1.2249  0.3805
  621MOL0     H85692   9.398   5.486  10.730  2.2283  3.1293 -2.4486
  621MOL0     H85693   9.562   5.420  10.676  2.2270  4.7841  3.0984
  621MOL0     H85694   9.596   5.582  11.060 -0.9867  0.8154 -0.5388
  621MOL0     H85695   8.991   5.265  10.522 -0.8497  1.4248 -2.1490
  621MOL0     H85696   8.810   5.366  10.299 -0.3489 -2.5100 -1.5062
  621MOL0     H85697   8.868   5.230  10.368 -1.1845 -2.3405  1.4392
  621MOL0     H85698   8.703   5.245  10.388  1.3100 -1.6653 -1.1630
  622MOL0     O85699   4.558   7.780  10.666  0.9371  0.7355  0.1074
  622MOL0     C85700   4.452   7.723  10.627 -0.1874  0.2265 -0.6406
  622MOL0     O85701   4.408   7.605  10.683  0.1562 -0.8600 -0.3522
  622MOL0     C85702   4.470   7.554  10.793  0.4616 -0.2444 -0.5479
  622MOL0     C85703   4.524   7.419  10.780  0.3236 -0.3179  0.1507
  622MOL0     C85704   4.600   7.365  10.871 -0.1559  1.6709 -1.1027
  622MOL0     C85705   4.615   7.434  10.990 -0.1811 -0.4751 -0.6229
  622MOL0     O85706   4.702   7.402  11.087  0.4128 -0.1039 -1.0792
  622MOL0     C85707   4.820   7.489  11.101 -0.3781 -0.1996  0.3422
  622MOL0     C85708   4.849   7.483  11.250 -0.5585 -0.3662 -0.3145
  622MOL0     C85709   4.782   7.591  11.333 -0.4874 -0.2768 -0.6608
  622MOL0     C85710   4.632   7.557  11.370 -0.1232 -0.2206 -0.0827
  622MOL0     C85711   4.586   7.609  11.498 -0.5306 -0.2331 -0.5507
  622MOL0     C85712   4.574   7.760  11.486 -0.4507  0.2204 -0.8390
  622MOL0     C85713   4.440   7.810  11.428  0.5657  0.5191  0.4919
  622MOL0     C85714   4.449   7.963  11.395 -0.2148  0.1263  0.3002
  622MOL0     N85715   4.467   8.044  11.511  0.2525 -0.6581 -0.2003
  622MOL0     C85716   4.578   8.099  11.565 -0.3556  0.4097  0.7599
  622MOL0     C85717   4.537   8.201  11.646  0.0802  0.0450  0.2724
  622MOL0     C85718   4.633   8.296  11.706  1.0579  0.8222  1.1214
  622MOL0     C85719   4.683   8.397  11.598 -0.5095  0.2761  0.0891
  622MOL0     C85720   4.631   8.534  11.631  0.7206 -0.4654 -0.5605
  622MOL0     C85721   4.527   8.578  11.518 -0.7488 -0.4867 -0.9985
  622MOL0     O85722   4.591   8.624  11.399  0.1417 -0.1008 -0.7694
  622MOL0     C85723   4.653   8.748  11.379  0.4119 -0.6063  0.4385
  622MOL0     C85724   4.713   8.764  11.258 -0.7688 -0.3280  0.2711
  622MOL0     C85725   4.775   8.886  11.219 -0.2584 -0.5737 -0.6301
  622MOL0     C85726   4.831   8.896  11.066  0.1303  0.1055 -0.4289
  622MOL0     C85727   4.764   8.994  11.308  0.9154 -0.5926  0.3242
  622MOL0     C85728   4.822   9.124  11.268  0.1965 -0.3948  0.4790
  622MOL0     O85729   4.950   9.127  11.202 -0.7255  0.1977 -0.0069
  622MOL0     C85730   5.020   9.247  11.197 -0.4555  0.1814  0.5173
  622MOL0     C85731   5.127   9.256  11.100  0.3426 -0.2709  0.1807
  622MOL0     C85732   5.195   9.369  11.071  0.0824  0.6254 -0.8306
  622MOL0     C85733   5.173   9.484  11.156  0.1335  0.0954  0.8489
  622MOL0     O85734   5.248   9.591  11.134  0.3531  0.5647  0.4838
  622MOL0     C85735   5.207   9.723  11.169  1.3693  0.1014  0.4170
  622MOL0     C85736   5.284   9.830  11.093 -0.0116  0.6034 -1.1610
  622MOL0     C85737   5.195   9.958  11.075 -0.2110  0.2448 -0.8915
  622MOL0     C85738   5.240  10.032  10.948 -0.2012  0.8162  0.5571
  622MOL0     C85739   5.192  10.185  10.958 -0.3805  0.5768  0.4976
  622MOL0     C85740   5.274  10.287  11.047  0.6795  0.2753  0.0557
  622MOL0     C85741   5.214  10.428  11.045 -0.4713 -0.6228 -0.1134
  622MOL0     C85742   5.287  10.514  11.155 -0.0481  0.1348 -0.4390
  622MOL0    Cl85743   5.454  10.553  11.111 -0.0015 -0.1758  0.2985
  622MOL0     C85744   5.067   9.477  11.252  0.9614 -0.3887  0.5648
  622MOL0     C85745   5.000   9.357  11.282 -0.2278  0.4869 -0.5495
  622MOL0     O85746   4.758   9.225  11.301 -0.0635  0.9976  0.5529
  622MOL0     C85747   4.696   8.988  11.431 -0.1219 -0.8644 -0.5035
  622MOL0     C85748   4.647   8.864  11.465 -0.2869  0.4536 -1.0101
  622MOL0     N85749   4.400   8.203  11.642  0.7680 -0.0982  0.0542
  622MOL0     N85750   4.358   8.116  11.563  0.0218 -0.4580 -0.1785
  622MOL0     C85751   4.559   7.561  11.011  0.5608  0.1645  0.9407
  622MOL0     C85752   4.489   7.626  10.912 -0.3313  0.3130  0.0958
  622MOL0     C85753   4.355   7.800  10.544 -0.3544 -0.3473  0.9602
  622MOL0     C85754   4.226   7.750  10.533 -0.1743 -0.2096 -0.6386
  622MOL0     C85755   4.126   7.819  10.474  0.4422  0.3540 -0.7414
  622MOL0     C85756   4.157   7.943  10.413  0.3873  0.4679  0.6236
  622MOL0     O85757   4.053   8.007  10.341  0.2567 -0.0573 -0.4369
  622MOL0     C85758   3.928   8.032  10.411  0.3547  0.4756 -0.3225
  622MOL0     C85759   3.901   8.176  10.402  0.2729  0.0460  0.2052
  622MOL0     C85760   3.847   8.204  10.263  1.0214 -0.0451 -0.9057
  622MOL0     C85761   3.794   8.356  10.247 -0.5109 -0.5225 -0.1254
  622MOL0     C85762   3.666   8.391  10.304  0.2931 -0.1357 -0.9557
  622MOL0     C85763   3.567   8.413  10.375  0.4459 -0.6111  0.3800
  622MOL0     C85764   4.291   7.988  10.402  0.8201  0.1279 -0.8020
  622MOL0     C85765   4.394   7.906  10.467  0.3727 -0.2628  0.9489
  622MOL0     C85766   4.536   7.957  10.458  0.1310  0.0046 -1.0612
  622MOL0     H85767   4.505   7.367  10.686  0.8961  2.6660 -1.7685
  622MOL0     H85768   4.623   7.262  10.848 -4.4870  0.2427 -0.0574
  622MOL0     H85769   4.804   7.595  11.077 -0.2761  0.0377  1.2766
  622MOL0     H85770   4.904   7.457  11.038 -1.0717 -1.2513 -0.0806
  622MOL0     H85771   4.835   7.384  11.294  0.8625 -0.9805 -1.1584
  622MOL0     H85772   4.955   7.504  11.270 -0.1696 -1.3648 -1.2363
  622MOL0     H85773   4.848   7.615  11.416  3.4236  1.5688 -3.9733
  622MOL0     H85774   4.763   7.684  11.277 -0.3475 -1.7816 -3.3899
  622MOL0     H85775   4.559   7.608  11.307 -0.5828  1.4230  1.6964
  622MOL0     H85776   4.614   7.449  11.377 -1.4163 -0.0868 -1.0489
  622MOL0     H85777   4.658   7.583  11.576 -1.5587 -2.1491 -0.1660
  622MOL0     H85778   4.488   7.567  11.522 -1.2944  1.3163 -0.8408
  622MOL0     H85779   4.595   7.803  11.585  1.9607  0.9144 -1.5915
  622MOL0     H85780   4.650   7.806  11.423  0.4599  1.0349  0.7752
  622MOL0     H85781   4.362   7.782  11.499  1.4663 -0.6750  1.0388
  622MOL0     H85782   4.427   7.743  11.343  2.9570 -0.0086  0.4594
  622MOL0     H85783   4.528   7.971  11.319  0.2866 -1.1924  0.6547
  622MOL0     H85784   4.356   7.986  11.342  1.2746 -0.4902 -2.8292
  622MOL0     H85785   4.678   8.076  11.528 -1.2341 -0.6739 -1.0516
  622MOL0     H85786   4.719   8.247  11.752  1.9234  0.9988 -0.2445
  622MOL0     H85787   4.571   8.337  11.786 -2.3050 -3.5743  1.1561
  622MOL0     H85788   4.792   8.407  11.595 -0.5527  0.9403  0.5555
  622MOL0     H85789   4.661   8.363  11.496  1.6892  0.7482 -0.5923
  622MOL0     H85790   4.583   8.553  11.727 -0.1407 -0.3793 -0.9874
  622MOL0     H85791   4.713   8.606  11.626 -1.2595  1.8369 -2.0005
  622MOL0     H85792   4.450   8.503  11.498 -1.2984  0.5211 -2.8019
  622MOL0     H85793   4.461   8.656  11.557  2.7343  1.9365  0.6242
  622MOL0     H85794   4.685   8.684  11.191 -2.1557 -0.0931  0.5307
  622MOL0     H85795   4.858   8.796  11.029  3.0551 -0.2474  2.2503
  622MOL0     H85796   4.927   8.948  11.058  1.5560 -1.7481  2.6587
  622MOL0     H85797   4.747   8.940  11.012 -0.5323 -0.1323  0.3774
  622MOL0     H85798   5.161   9.173  11.038  0.7566 -0.7469  1.0292
  622MOL0     H85799   5.285   9.379  11.012  1.6555  0.7833  1.4640
  622MOL0     H85800   5.100   9.725  11.146  1.5847 -0.0951 -0.6448
  622MOL0     H85801   5.219   9.743  11.276  3.4505 -0.2677  0.2980
  622MOL0     H85802   5.376   9.852  11.148 -0.0879 -0.6611 -0.4843
  622MOL0     H85803   5.317   9.792  10.996  1.1194  1.4339 -1.1241
  622MOL0     H85804   5.218  10.027  11.156 -1.9825  0.4760 -0.5485
  622MOL0     H85805   5.088   9.936  11.065 -0.3239  0.8669 -1.1206
  622MOL0     H85806   5.208   9.971  10.864  2.4386 -1.2421  0.9096
  622MOL0     H85807   5.348  10.049  10.938 -0.0585 -1.3862 -3.6793
  622MOL0     H85808   5.192  10.232  10.859  0.8948  2.0651  1.1555
  622MOL0     H85809   5.091  10.191  11.000 -1.1230  2.1471 -1.3705
  622MOL0     H85810   5.376  10.294  11.007  1.1719  1.8056  1.4942
  622MOL0     H85811   5.272  10.240  11.146 -0.3322 -1.2113 -0.6261
  622MOL0     H85812   5.106  10.428  11.060 -0.6180  2.2218 -0.5433
  622MOL0     H85813   5.244  10.480  10.953  1.7028  0.3304  1.0294
  622MOL0     H85814   5.290  10.461  11.251  2.6475 -0.1342 -0.5945
  622MOL0     H85815   5.234  10.609  11.164  3.0501  2.1257 -1.7041
  622MOL0     H85816   5.040   9.560  11.317 -0.7124  1.0641 -1.8107
  622MOL0     H85817   4.934   9.341  11.366 -0.9758 -1.0760 -1.3809
  622MOL0     H85818   4.672   9.079  11.485 -0.2890 -0.5488 -1.0981
  622MOL0     H85819   4.590   8.860  11.556  0.3649 -2.2576 -0.6317
  622MOL0     H85820   4.576   7.610  11.106 -0.3519  1.3008  0.5420
  622MOL0     H85821   4.455   7.729  10.921  0.4962  0.7922 -1.6087
  622MOL0     H85822   4.196   7.662  10.588 -1.2873 -0.4478 -1.6054
  622MOL0     H85823   4.025   7.781  10.489  0.6284  1.2070  6.4889
  622MOL0     H85824   3.854   7.966  10.367  1.6591 -1.4778  0.2865
  622MOL0     H85825   3.929   8.005  10.517 -1.1142  0.0920 -0.3899
  622MOL0     H85826   3.987   8.241  10.425  2.3261 -2.1378 -0.8480
  622MOL0     H85827   3.816   8.199  10.467 -0.5259 -0.1773 -0.7504
  622MOL0     H85828   3.927   8.177  10.195  1.1051 -2.1975 -0.0259
  622MOL0     H85829   3.767   8.132  10.240 -0.4732  1.5663 -0.9594
  622MOL0     H85830   3.779   8.387  10.144 -0.3424 -3.6244 -1.1838
  622MOL0     H85831   3.875   8.420  10.285 -0.3622 -1.0935  0.5591
  622MOL0     H85832   3.484   8.440  10.438 -0.9485 -0.7218 -1.3396
  622MOL0     H85833   4.310   8.072  10.336  0.4793  0.9479  0.1134
  622MOL0     H85834   4.545   8.022  10.370 -3.2794 -1.8897 -3.0349
  622MOL0     H85835   4.566   8.009  10.549 -0.5941 -2.4276  0.6585
  622MOL0     H85836   4.599   7.868  10.451 -1.4447 -1.6176  2.7640
  623MOL0     O85837   5.834   6.082  10.149 -0.1384 -0.2078  0.4914
  623MOL0     C85838   5.888   6.050  10.049  0.0924  0.7906  0.3992
  623MOL0     O85839   5.968   6.127   9.969  0.6348 -0.0550 -0.1592
  623MOL0     C85840   5.985   6.265   9.983  0.3286  0.9024 -0.4379
  623MOL0     C85841   6.115   6.314  10.003  0.0605 -0.1970 -0.3344
  623MOL0     C85842   6.138   6.450   9.987 -0.5178 -0.1669 -0.3020
  623MOL0     C85843   6.036   6.535   9.959 -0.2136  0.0100 -0.2559
  623MOL0     O85844   6.082   6.662   9.947 -0.1394 -0.8783  0.5041
  623MOL0     C85845   6.014   6.751   9.860 -0.7926 -1.1131  0.4611
  623MOL0     C85846   6.059   6.893   9.879  0.6356 -0.2109 -0.1266
  623MOL0     C85847   6.010   6.990   9.766 -0.4672  0.3059  0.0314
  623MOL0     C85848   5.863   7.012   9.762  0.7568 -0.8186  0.4812
  623MOL0     C85849   5.809   7.052   9.904 -0.4644  0.1941 -0.2051
  623MOL0     C85850   5.681   7.120   9.900  0.1486  0.0754 -0.4766
  623MOL0     C85851   5.621   7.122  10.050  0.3996  0.0675  0.4686
  623MOL0     C85852   5.561   6.988  10.090 -0.4951 -0.2167 -0.2733
  623MOL0     N85853   5.480   6.916   9.990  0.8992 -0.8519 -0.9046
  623MOL0     C85854   5.365   6.970   9.942 -0.2427  0.3903  0.1250
  623MOL0     C85855   5.351   6.926   9.820 -1.0534 -0.3335  0.0341
  623MOL0     C85856   5.241   6.939   9.721  0.9043 -0.0439  0.0456
  623MOL0     C85857   5.112   6.878   9.754  0.5399  0.2609  0.3715
  623MOL0     C85858   5.003   6.900   9.641 -0.2278  0.0427 -0.2126
  623MOL0     C85859   4.991   7.045   9.590  0.3202  0.3891  0.2493
  623MOL0     O85860   4.879   7.050   9.498 -0.2399 -0.2820 -0.2466
  623MOL0     C85861   4.857   7.167   9.434  0.2373  0.6166 -0.3590
  623MOL0     C85862   4.912   7.286   9.466 -0.2483 -0.4814  0.5899
  623MOL0     C85863   4.885   7.409   9.388 -0.3809  0.3002 -0.5107
  623MOL0     C85864   4.952   7.527   9.441 -0.0159 -0.0729 -0.0169
  623MOL0     C85865   4.803   7.410   9.274  0.5667 -0.4708  0.0821
  623MOL0     C85866   4.773   7.529   9.182 -0.6892  1.1691 -0.9104
  623MOL0     O85867   4.819   7.653   9.218  0.2987  1.0987 -0.6134
  623MOL0     C85868   4.782   7.772   9.153 -0.3622 -0.0396 -0.7411
  623MOL0     C85869   4.881   7.845   9.083  0.2221  0.7554 -0.9843
  623MOL0     C85870   4.843   7.951   9.013 -0.5903  0.0387 -0.2938
  623MOL0     C85871   4.715   8.005   9.029  0.6025  0.9729  0.6340
  623MOL0     O85872   4.697   8.123   8.964 -0.9165  0.6551 -0.3071
  623MOL0     C85873   4.565   8.179   8.959  1.0923 -0.2018  0.0490
  623MOL0     C85874   4.583   8.310   8.874  0.0988 -0.1474 -0.3327
  623MOL0     C85875   4.450   8.380   8.837 -0.3498  0.1690 -0.2568
  623MOL0     C85876   4.407   8.480   8.939  0.3409  0.8170  0.3498
  623MOL0     C85877   4.287   8.558   8.892  0.3145 -0.4262  0.2781
  623MOL0     C85878   4.213   8.624   9.010 -0.2869 -0.0245 -0.2193
  623MOL0     C85879   4.161   8.759   8.977  0.3139 -0.5269 -0.7787
  623MOL0     C85880   4.134   8.847   9.096  0.0065  0.2890 -0.9366
  623MOL0    Cl85881   3.985   8.774   9.179  0.3810 -0.1280  0.3339
  623MOL0     C85882   4.609   7.925   9.090 -1.1540 -0.0964  0.4347
  623MOL0     C85883   4.643   7.808   9.161 -0.5134  0.1912 -0.1811
  623MOL0     O85884   4.715   7.504   9.079  0.1333 -0.0192  0.4340
  623MOL0     C85885   4.747   7.286   9.233 -0.3592  0.0965  0.5853
  623MOL0     C85886   4.766   7.176   9.324 -0.8268  0.9180  1.1731
  623MOL0     N85887   5.453   6.838   9.790 -0.1129  0.5828 -0.0521
  623MOL0     N85888   5.522   6.828   9.901 -0.7472 -0.4490  0.7994
  623MOL0     C85889   5.904   6.487   9.941 -0.3949  0.1563 -0.2766
  623MOL0     C85890   5.882   6.348   9.952  0.0120 -0.2349 -0.6269
  623MOL0     C85891   5.863   5.912   9.998 -0.6534 -1.0210  0.3453
  623MOL0     C85892   5.899   5.882   9.862 -0.1628  0.9838  1.1985
  623MOL0     C85893   5.875   5.750   9.803 -0.3375  0.3201  0.7396
  623MOL0     C85894   5.833   5.645   9.887 -0.1269 -0.6181 -0.0421
  623MOL0     O85895   5.806   5.509   9.857  0.5363 -0.1698  0.0853
  623MOL0     C85896   5.849   5.458   9.730 -0.3539  0.6730  0.7106
  623MOL0     C85897   5.839   5.308   9.705 -0.7188 -0.9074  0.2572
  623MOL0     C85898   5.897   5.282   9.560 -0.4157  0.0687 -0.0284
  623MOL0     C85899   5.965   5.150   9.558  0.5735  0.2054 -0.0586
  623MOL0     C85900   5.868   5.038   9.548 -0.4943  0.2893  0.1379
  623MOL0     C85901   5.819   4.932   9.547 -0.0923 -0.0813  0.5595
  623MOL0     C85902   5.801   5.683  10.022 -0.6096  0.5277  0.4422
  623MOL0     C85903   5.821   5.808  10.077  0.4769 -0.0681 -0.5836
  623MOL0     C85904   5.768   5.827  10.219  0.3416  0.0099  0.1069
  623MOL0     H85905   6.198   6.253  10.037  0.2029  1.6614  3.1531
  623MOL0     H85906   6.238   6.492   9.989  0.2693 -1.7612 -2.5109
  623MOL0     H85907   5.909   6.740   9.889 -1.0067 -0.6933 -0.1376
  623MOL0     H85908   6.029   6.731   9.754  2.1473 -0.5147  0.6820
  623MOL0     H85909   6.016   6.926   9.974 -0.8325 -0.3483 -0.7207
  623MOL0     H85910   6.168   6.900   9.887  0.4948  2.1262  0.3924
  623MOL0     H85911   6.076   7.077   9.775  1.4928 -1.2600  2.2538
  623MOL0     H85912   6.033   6.947   9.669 -0.2962  0.9474 -0.2142
  623MOL0     H85913   5.838   7.085   9.684 -0.8959 -2.3971 -0.5463
  623MOL0     H85914   5.822   6.915   9.731  0.1135 -0.8664  1.4252
  623MOL0     H85915   5.879   7.124   9.946 -2.0634 -0.0489  3.2819
  623MOL0     H85916   5.811   6.956   9.958 -0.4747 -0.5262 -1.4478
  623MOL0     H85917   5.706   7.224   9.876  0.2967  0.1351 -0.0615
  623MOL0     H85918   5.621   7.076   9.820  0.5429  2.3632 -2.1528
  623MOL0     H85919   5.545   7.199  10.066 -1.2157 -1.2162 -0.7183
  623MOL0     H85920   5.711   7.136  10.110  1.1877  0.9415 -0.8781
  623MOL0     H85921   5.639   6.924  10.133 -0.0599 -0.1099 -0.8921
  623MOL0     H85922   5.508   6.991  10.185  0.0056  2.4773 -0.0240
  623MOL0     H85923   5.309   7.044   9.999 -0.1388  0.7186 -0.1979
  623MOL0     H85924   5.277   6.906   9.623  1.5941 -0.7266  0.5226
  623MOL0     H85925   5.228   7.048   9.714  1.4567 -0.0661 -2.2313
  623MOL0     H85926   5.122   6.769   9.763  2.2616 -0.0822 -3.7508
  623MOL0     H85927   5.087   6.907   9.857 -1.6927  1.1912 -0.3683
  623MOL0     H85928   5.022   6.838   9.553  3.0998  0.9431 -0.2247
  623MOL0     H85929   4.906   6.887   9.692 -0.5911  3.2118  0.0856
  623MOL0     H85930   4.966   7.110   9.675 -0.0784  1.0684 -0.3788
  623MOL0     H85931   5.086   7.077   9.546  0.0044  0.7061 -0.2086
  623MOL0     H85932   4.973   7.290   9.555  0.3936 -1.2034  0.1845
  623MOL0     H85933   5.003   7.586   9.365 -1.6535 -0.6031 -1.6059
  623MOL0     H85934   5.024   7.493   9.516 -0.4528  0.0308  0.4474
  623MOL0     H85935   4.891   7.589   9.506  2.1900 -1.2238  3.4311
  623MOL0     H85936   4.977   7.796   9.070  0.2423 -0.0746  1.7269
  623MOL0     H85937   4.924   7.996   8.956 -0.8771 -0.6379 -1.2556
  623MOL0     H85938   4.499   8.110   8.906  1.3328 -2.2831  2.2911
  623MOL0     H85939   4.523   8.204   9.057 -2.3761 -2.2969 -0.7389
  623MOL0     H85940   4.648   8.386   8.919 -0.0167  0.4942 -1.2246
  623MOL0     H85941   4.639   8.282   8.784 -0.4269  1.7629 -1.3089
  623MOL0     H85942   4.372   8.304   8.821  1.6903 -1.9096 -0.8194
  623MOL0     H85943   4.472   8.437   8.747 -1.5060  3.2293  1.2418
  623MOL0     H85944   4.489   8.545   8.968 -0.0637  0.7186  1.7945
  623MOL0     H85945   4.384   8.421   9.029 -0.3721  0.6469  0.0637
  623MOL0     H85946   4.328   8.633   8.824 -1.3166  0.2273 -0.0228
  623MOL0     H85947   4.219   8.491   8.839  0.8418 -0.2260 -0.6726
  623MOL0     H85948   4.290   8.648   9.085  0.9487  2.9013 -2.2392
  623MOL0     H85949   4.128   8.563   9.041  0.9977 -1.7475  0.1171
  623MOL0     H85950   4.068   8.753   8.919 -1.1128  3.6055  0.6994
  623MOL0     H85951   4.227   8.812   8.907 -1.8983  3.1638 -0.3473
  623MOL0     H85952   4.110   8.944   9.053 -0.5574 -0.4467 -2.3428
  623MOL0     H85953   4.220   8.852   9.163  0.4882  0.6199 -1.5786
  623MOL0     H85954   4.508   7.965   9.081 -0.7968  0.6052 -0.6014
  623MOL0     H85955   4.576   7.738   9.211 -0.4553 -0.5102 -1.0411
  623MOL0     H85956   4.708   7.276   9.132  0.9635  2.4367 -0.2691
  623MOL0     H85957   4.719   7.082   9.296  2.5545 -0.0633 -2.1098
  623MOL0     H85958   5.822   6.558   9.934 -1.1100 -0.2230  2.7184
  623MOL0     H85959   5.782   6.312   9.928 -1.4151  2.4590  0.8014
  623MOL0     H85960   5.924   5.958   9.789 -1.6424 -0.7445 -1.2355
  623MOL0     H85961   5.881   5.731   9.697  0.7811 -0.1691  0.8824
  623MOL0     H85962   5.787   5.508   9.654 -4.1179 -1.1842  2.3137
  623MOL0     H85963   5.955   5.483   9.717 -0.5818  1.0464 -0.6858
  623MOL0     H85964   5.736   5.274   9.717 -1.0646 -0.0019 -0.0842
  623MOL0     H85965   5.907   5.258   9.774 -0.3657 -0.1711  0.4504
  623MOL0     H85966   5.824   5.295   9.480 -1.5787 -2.5971  0.5093
  623MOL0     H85967   5.973   5.359   9.540 -0.7819  1.5959  3.5729
  623MOL0     H85968   6.039   5.135   9.637  1.0327  1.3468 -0.2457
  623MOL0     H85969   6.023   5.149   9.465  3.2836 -0.8363  1.5149
  623MOL0     H85970   5.763   4.842   9.530  2.3542 -1.3686 -1.2684
  623MOL0     H85971   5.773   5.607  10.093  4.8438 -2.8396 -0.4375
  623MOL0     H85972   5.844   5.874  10.283 -2.1389  1.5914  2.0706
  623MOL0     H85973   5.679   5.888  10.198  2.5682  2.3407 -4.0659
  623MOL0     H85974   5.742   5.732  10.266  1.9369 -0.8917 -0.7266
  624MOL0     O85975   9.645   2.958  10.426  0.1360  0.0941  0.1339
  624MOL0     C85976   9.689   2.912  10.534 -0.0664  0.4296 -0.2102
  624MOL0     O85977   9.626   2.923  10.653  0.4482 -0.3439 -0.0200
  624MOL0     C85978   9.530   3.018  10.666 -0.3661  0.4410 -0.1120
  624MOL0     C85979   9.567   3.144  10.709 -0.2242  1.0815 -1.0420
  624MOL0     C85980   9.472   3.241  10.726 -0.1676  0.6641 -0.0027
  624MOL0     C85981   9.339   3.224  10.689 -0.5709  0.2853  0.4564
  624MOL0     O85982   9.250   3.334  10.695 -0.4684 -0.4190 -0.2674
  624MOL0     C85983   9.307   3.460  10.661 -0.1212 -0.6721 -0.3822
  624MOL0     C85984   9.209   3.558  10.596 -0.1623  0.3136  0.4855
  624MOL0     C85985   9.157   3.497  10.455  0.1405  0.0154 -0.0013
  624MOL0     C85986   9.062   3.602  10.381  0.1629  0.7506  0.3927
  624MOL0     C85987   9.061   3.582  10.233  0.8038 -0.2408  0.2053
  624MOL0     C85988   8.970   3.477  10.185  0.8637  0.2901  0.6013
  624MOL0     C85989   8.981   3.456  10.027  0.7167 -0.0701 -0.7699
  624MOL0     C85990   8.883   3.343   9.959  0.3438  1.0276  0.3191
  624MOL0     N85991   8.882   3.354   9.818  0.2184 -0.3313 -0.1133
  624MOL0     C85992   8.951   3.278   9.724 -0.6387  0.5381  0.0152
  624MOL0     C85993   8.893   3.320   9.604 -0.3940  0.4471 -0.3625
  624MOL0     C85994   8.920   3.266   9.467 -0.4335 -0.3743  0.1659
  624MOL0     C85995   8.970   3.375   9.365  0.3678 -0.3088  0.6728
  624MOL0     C85996   9.055   3.308   9.250 -0.8931  0.2186  0.1827
  624MOL0     C85997   9.104   3.417   9.162 -0.1231 -0.3680 -0.0898
  624MOL0     O85998   8.979   3.459   9.098 -0.3562 -0.9853 -0.6045
  624MOL0     C85999   8.988   3.562   9.007 -0.3647  1.2308 -0.5031
  624MOL0     C86000   8.901   3.566   8.905  0.6044  1.3835 -0.4016
  624MOL0     C86001   8.910   3.668   8.811  0.6966  0.4654 -0.2409
  624MOL0     C86002   8.809   3.668   8.698 -0.2978  0.0391 -0.5020
  624MOL0     C86003   9.015   3.768   8.824  0.0584  0.0948 -0.4841
  624MOL0     C86004   9.030   3.882   8.728  0.8778  0.0918 -0.0399
  624MOL0     O86005   9.155   3.926   8.716 -0.8714  0.2385  1.1686
  624MOL0     C86006   9.168   4.055   8.669  0.1527  0.2530 -0.3516
  624MOL0     C86007   9.175   4.157   8.754  0.5006 -0.3009 -0.8276
  624MOL0     C86008   9.192   4.291   8.705  0.6967  0.5519  0.4147
  624MOL0     C86009   9.223   4.308   8.569  0.1122 -0.5823 -0.5539
  624MOL0     O86010   9.257   4.429   8.523  0.5445  0.0548 -0.3149
  624MOL0     C86011   9.193   4.543   8.577  0.7092  1.0136 -0.6899
  624MOL0     C86012   9.155   4.648   8.472  0.4557 -0.6388 -0.9190
  624MOL0     C86013   9.101   4.772   8.544  0.5811  0.1749 -0.0370
  624MOL0     C86014   9.062   4.870   8.435 -0.3640  0.0743  1.3770
  624MOL0     C86015   8.950   4.956   8.486 -0.2414 -0.2797 -0.2783
  624MOL0     C86016   8.979   5.057   8.604 -0.0745  0.3106  0.1223
  624MOL0     C86017   8.854   5.140   8.622 -0.3906 -0.2291 -0.3667
  624MOL0     C86018   8.883   5.229   8.755 -0.2322  0.2470 -0.1007
  624MOL0    Cl86019   8.976   5.366   8.704 -0.1932 -0.4388  0.5678
  624MOL0     C86020   9.231   4.197   8.483 -0.2963 -0.2419 -0.1733
  624MOL0     C86021   9.202   4.071   8.539 -0.2469 -0.3301  0.5433
  624MOL0     O86022   8.929   3.925   8.674 -0.1066 -0.0314 -0.2580
  624MOL0     C86023   9.113   3.758   8.919  0.6423 -0.0122  0.3151
  624MOL0     C86024   9.092   3.656   9.019  0.8640  0.3622  0.4604
  624MOL0     N86025   8.818   3.434   9.634  0.0237  0.6029  0.3005
  624MOL0     N86026   8.807   3.452   9.761  0.1296 -0.1182 -0.1196
  624MOL0     C86027   9.300   3.095  10.660 -0.5476 -0.2142 -0.8175
  624MOL0     C86028   9.394   2.990  10.647 -0.7654 -0.5291 -0.6382
  624MOL0     C86029   9.805   2.817  10.513  0.0220 -0.0380  0.3610
  624MOL0     C86030   9.843   2.802  10.373 -0.8987  0.4357  0.8222
  624MOL0     C86031   9.960   2.722  10.331 -0.2273  0.5272  0.0679
  624MOL0     C86032  10.027   2.649  10.430  0.2676 -0.4992  0.8705
  624MOL0     O86033  10.139   2.566  10.409  0.3199  0.1233  0.8099
  624MOL0     C86034  10.186   2.537  10.279  0.5456  1.0926 -0.1473
  624MOL0     C86035  10.128   2.399  10.242  0.4338 -0.3180  0.5990
  624MOL0     C86036  10.185   2.286  10.332 -0.5800 -0.2772  0.1182
  624MOL0     C86037  10.334   2.252  10.306 -0.7065 -0.1682 -0.9861
  624MOL0     C86038  10.330   2.152  10.201 -0.4083  0.2733 -0.1322
  624MOL0     C86039  10.315   2.074  10.110  0.2253 -0.1606  0.8071
  624MOL0     C86040   9.979   2.662  10.563 -0.6428  0.6086  0.9765
  624MOL0     C86041   9.873   2.743  10.606  0.4577  0.4840  0.6518
  624MOL0     C86042   9.842   2.748  10.753 -0.3344  0.1309  0.4348
  624MOL0     H86043   9.672   3.165  10.728  0.4945 -2.7509 -0.0366
  624MOL0     H86044   9.512   3.339  10.750  4.2398 -0.5793 -1.3243
  624MOL0     H86045   9.385   3.438  10.588 -0.6034 -0.9007 -0.8359
  624MOL0     H86046   9.350   3.515  10.746 -1.4537  0.8342 -0.6330
  624MOL0     H86047   9.116   3.563  10.653 -1.2239 -3.2436 -0.6766
  624MOL0     H86048   9.254   3.657  10.586 -0.9704  0.6642  0.2445
  624MOL0     H86049   9.246   3.468  10.398  0.7999 -1.1079  1.5466
  624MOL0     H86050   9.114   3.397  10.461 -3.6409  1.4994  0.6702
  624MOL0     H86051   8.959   3.596  10.418 -1.3619  3.0851 -2.9893
  624MOL0     H86052   9.108   3.700  10.399 -2.0233  1.5865  1.9846
  624MOL0     H86053   9.164   3.556  10.206  0.7597  0.1583 -0.3590
  624MOL0     H86054   9.039   3.676  10.181  0.6588 -1.0135 -1.1629
  624MOL0     H86055   8.994   3.380  10.229  0.5849 -0.1758 -0.2445
  624MOL0     H86056   8.863   3.494  10.200  0.7378  0.4925 -0.4533
  624MOL0     H86057   9.083   3.436   9.994  0.0111 -2.4229 -1.7461
  624MOL0     H86058   8.949   3.551   9.985  0.2448  0.8213  1.4682
  624MOL0     H86059   8.907   3.238   9.980 -1.4838  0.8028  1.5404
  624MOL0     H86060   8.788   3.359  10.010  0.6289 -0.6173  1.4571
  624MOL0     H86061   9.027   3.202   9.734 -0.3426  1.0836  2.2597
  624MOL0     H86062   8.824   3.226   9.433 -2.0839  1.8958  1.9312
  624MOL0     H86063   8.993   3.185   9.474  0.3975  0.2736 -0.5983
  624MOL0     H86064   8.879   3.427   9.335 -1.9203 -2.8169  2.7123
  624MOL0     H86065   9.030   3.447   9.422  0.5897 -1.4894  1.9866
  624MOL0     H86066   9.142   3.261   9.297  1.1125  3.8985  0.5103
  624MOL0     H86067   8.996   3.233   9.196 -1.8691 -0.1170  1.6466
  624MOL0     H86068   9.151   3.485   9.234 -2.8856  0.2306  1.3073
  624MOL0     H86069   9.185   3.381   9.098 -1.5693  1.0500 -2.9173
  624MOL0     H86070   8.839   3.478   8.903  2.0827  0.2187  1.3330
  624MOL0     H86071   8.796   3.561   8.676  1.0839 -0.6052  1.5469
  624MOL0     H86072   8.843   3.721   8.609  2.1829  1.3209  1.1155
  624MOL0     H86073   8.714   3.712   8.731 -0.4615 -1.0873  0.6570
  624MOL0     H86074   9.136   4.153   8.855 -2.1706 -0.6449 -1.7980
  624MOL0     H86075   9.197   4.368   8.780  2.7079 -0.1140  1.0338
  624MOL0     H86076   9.102   4.506   8.626  0.6253 -1.0041 -2.2605
  624MOL0     H86077   9.252   4.584   8.659  0.9887 -1.8843  0.6842
  624MOL0     H86078   9.246   4.673   8.417 -0.4024 -1.4486 -2.8106
  624MOL0     H86079   9.079   4.619   8.399 -0.3967  3.3153 -1.8047
  624MOL0     H86080   9.168   4.823   8.613  1.0584  1.8557 -1.6652
  624MOL0     H86081   9.013   4.735   8.597  0.8569 -2.2669 -1.1287
  624MOL0     H86082   9.022   4.826   8.344 -0.8152  1.0227  1.1060
  624MOL0     H86083   9.140   4.942   8.409 -1.8882  0.5317 -2.4958
  624MOL0     H86084   8.912   5.024   8.409 -0.0420 -0.4213 -0.5008
  624MOL0     H86085   8.866   4.890   8.508 -0.0905 -0.2581  0.3719
  624MOL0     H86086   9.069   5.117   8.585  0.4018  0.9241  3.7072
  624MOL0     H86087   8.993   4.997   8.694  3.0325 -1.0292 -1.0890
  624MOL0     H86088   8.771   5.074   8.647 -1.6091  1.4721  0.2024
  624MOL0     H86089   8.830   5.198   8.533  1.1180  0.1007 -0.5971
  624MOL0     H86090   8.932   5.164   8.828  0.5486  1.9939  1.0319
  624MOL0     H86091   8.792   5.252   8.811 -0.3264  3.4965 -1.3430
  624MOL0     H86092   9.260   4.204   8.379  3.1571 -1.1301  0.6117
  624MOL0     H86093   9.210   3.989   8.468  0.0266 -0.5160  0.7867
  624MOL0     H86094   9.198   3.827   8.924  0.0500  0.6422  1.7016
  624MOL0     H86095   9.155   3.652   9.107  3.9298 -0.5039 -1.6055
  624MOL0     H86096   9.197   3.072  10.636 -1.0969 -0.3097  1.3974
  624MOL0     H86097   9.363   2.889  10.621 -4.8917 -0.2962  2.3970
  624MOL0     H86098   9.797   2.855  10.290 -0.1906  0.4181  0.4174
  624MOL0     H86099   9.973   2.713  10.223 -0.7276 -0.3934  0.0667
  624MOL0     H86100  10.149   2.608  10.204  2.1318  1.2662 -0.8109
  624MOL0     H86101  10.295   2.538  10.275  0.5385 -0.0889 -1.1758
  624MOL0     H86102  10.140   2.382  10.134 -0.3740 -0.2680  0.5015
  624MOL0     H86103  10.025   2.417  10.271  0.2180  2.1652 -1.3706
  624MOL0     H86104  10.176   2.329  10.432 -0.6210  0.0379 -0.0228
  624MOL0     H86105  10.132   2.190  10.327 -0.3595 -0.4695  1.1422
  624MOL0     H86106  10.375   2.215  10.400 -0.2314  1.9075 -0.3375
  624MOL0     H86107  10.400   2.332  10.273 -1.2446  0.0888 -1.4696
  624MOL0     H86108  10.294   2.014  10.024  2.3597  0.8744 -0.5316
  624MOL0     H86109  10.029   2.609  10.643  0.0119  1.2083  0.9783
  624MOL0     H86110   9.787   2.832  10.796  1.0447 -0.1767  3.0068
  624MOL0     H86111   9.818   2.650  10.794  2.6131 -0.0515  2.0298
  624MOL0     H86112   9.935   2.768  10.808 -0.8642  1.5812  0.8381
  625MOL0     O86113   6.558   7.969   5.777 -0.4798 -0.2668  0.0605
  625MOL0     C86114   6.621   7.998   5.681  1.1307 -0.1351 -0.4608
  625MOL0     O86115   6.563   8.051   5.565  0.1774  0.3406 -0.2880
  625MOL0     C86116   6.425   8.074   5.561 -1.0819 -0.8368  0.0676
  625MOL0     C86117   6.387   8.211   5.573 -0.4552 -0.6727 -0.6598
  625MOL0     C86118   6.258   8.250   5.560  0.7748  0.1597  0.3458
  625MOL0     C86119   6.159   8.161   5.527 -0.6330  0.6965  0.5760
  625MOL0     O86120   6.031   8.195   5.500 -0.2198 -0.2046  1.0235
  625MOL0     C86121   5.983   8.335   5.501  0.7939 -1.1135  0.1305
  625MOL0     C86122   5.875   8.345   5.607 -0.0057  0.3493  0.6463
  625MOL0     C86123   5.906   8.324   5.758  0.1652  0.2144  0.1552
  625MOL0     C86124   5.796   8.381   5.841  0.0622  0.7566 -1.3521
  625MOL0     C86125   5.820   8.383   5.994 -0.7666 -0.1544 -0.0503
  625MOL0     C86126   5.841   8.243   6.054  0.0955  0.1502  0.6993
  625MOL0     C86127   5.886   8.266   6.189  0.5771  1.3581 -1.2361
  625MOL0     C86128   5.923   8.132   6.254 -0.2575  0.3813 -0.2554
  625MOL0     N86129   5.947   8.141   6.397  0.1233 -0.3114 -0.5265
  625MOL0     C86130   5.855   8.180   6.487 -0.3498 -0.6418  0.4825
  625MOL0     C86131   5.916   8.158   6.603 -0.4071 -0.5140 -0.8706
  625MOL0     C86132   5.850   8.184   6.736  0.3117  0.7406  0.4007
  625MOL0     C86133   5.706   8.242   6.726 -0.0377  1.0100  0.2119
  625MOL0     C86134   5.615   8.122   6.689  0.1928  0.3483  0.1243
  625MOL0     C86135   5.467   8.160   6.677 -0.5357 -0.3802 -0.0161
  625MOL0     O86136   5.447   8.300   6.641  0.9869 -0.3156  0.4938
  625MOL0     C86137   5.460   8.345   6.509 -1.0806 -1.0358 -0.4211
  625MOL0     C86138   5.418   8.271   6.397 -0.9700  0.5299 -0.3383
  625MOL0     C86139   5.408   8.332   6.266 -0.2742  0.1321 -0.0311
  625MOL0     C86140   5.360   8.242   6.154  0.5067  0.3711  0.1410
  625MOL0     C86141   5.445   8.473   6.253 -1.1035 -0.2694  0.1759
  625MOL0     C86142   5.451   8.541   6.133  0.3985  0.0089  0.1110
  625MOL0     O86143   5.535   8.647   6.126 -0.3673  0.3181 -0.4860
  625MOL0     C86144   5.480   8.754   6.068 -0.1377 -0.6932 -0.6037
  625MOL0     C86145   5.495   8.774   5.931 -1.1324 -0.1199  0.0252
  625MOL0     C86146   5.430   8.887   5.883 -0.2947 -0.5879 -0.5061
  625MOL0     C86147   5.365   8.980   5.963  0.2885 -0.4544  0.1107
  625MOL0     O86148   5.316   9.100   5.933  0.1839  0.1903  0.5388
  625MOL0     C86149   5.234   9.131   5.814 -0.1931  0.3084  0.4669
  625MOL0     C86150   5.275   9.100   5.664  0.8845  0.0362 -0.1051
  625MOL0     C86151   5.387   9.196   5.628 -0.2660  0.3642  0.1223
  625MOL0     C86152   5.523   9.135   5.600  0.6031 -0.2189 -0.3680
  625MOL0     C86153   5.614   9.240   5.540  0.3500  0.7358 -0.1159
  625MOL0     C86154   5.743   9.178   5.496 -0.2149 -0.5123  1.0998
  625MOL0     C86155   5.834   9.280   5.422  0.8769  0.6674 -0.6839
  625MOL0     C86156   5.952   9.211   5.356 -0.9756 -0.1726 -0.0943
  625MOL0    Cl86157   6.077   9.326   5.318 -0.3328  0.4153 -0.0389
  625MOL0     C86158   5.364   8.967   6.099  0.0984 -0.3541  0.5447
  625MOL0     C86159   5.430   8.854   6.151  0.3019  0.6020  0.2096
  625MOL0     O86160   5.378   8.504   6.038 -0.3375 -0.5686 -0.1517
  625MOL0     C86161   5.514   8.531   6.364 -0.5374 -0.8637 -0.2464
  625MOL0     C86162   5.508   8.478   6.485  0.6923 -0.0192 -0.8901
  625MOL0     N86163   6.037   8.093   6.580 -0.4206  0.2162 -0.6490
  625MOL0     N86164   6.058   8.088   6.453  0.0114 -0.3997  0.1352
  625MOL0     C86165   6.200   8.027   5.508 -0.3001  0.9087 -0.5756
  625MOL0     C86166   6.332   7.974   5.525 -0.1903  0.1792  0.1188
  625MOL0     C86167   6.760   7.974   5.681 -0.1873 -0.4149  0.2887
  625MOL0     C86168   6.836   8.035   5.571 -0.4066  0.4337 -0.1320
  625MOL0     C86169   6.961   7.985   5.547 -0.8591 -0.8559  1.0025
  625MOL0     C86170   7.025   7.906   5.637  0.6936  2.0189 -1.4093
  625MOL0     O86171   7.149   7.853   5.606  0.5641 -0.1290  0.3493
  625MOL0     C86172   7.229   7.776   5.688 -0.3958  0.0820 -0.3992
  625MOL0     C86173   7.211   7.625   5.675 -0.0692 -0.1142 -1.3486
  625MOL0     C86174   7.273   7.583   5.547  0.0925  0.3859 -0.2029
  625MOL0     C86175   7.250   7.445   5.497 -0.0303 -0.3363  0.4834
  625MOL0     C86176   7.338   7.415   5.385  0.4041 -0.1173  0.0137
  625MOL0     C86177   7.422   7.378   5.309 -0.3602  0.1622  0.4988
  625MOL0     C86178   6.967   7.879   5.760  0.0802 -0.0861 -0.2119
  625MOL0     C86179   6.833   7.911   5.787 -0.8665 -0.4940  0.2983
  625MOL0     C86180   6.774   7.878   5.926  0.1299  0.1356  0.4524
  625MOL0     H86181   6.466   8.283   5.591 -1.4233  0.5195 -1.0363
  625MOL0     H86182   6.247   8.356   5.576 -0.7514  0.2444 -1.1208
  625MOL0     H86183   5.927   8.359   5.410 -1.4664 -1.2054  1.4233
  625MOL0     H86184   6.057   8.416   5.512  3.2029 -3.1300 -0.2970
  625MOL0     H86185   5.820   8.438   5.591  1.1222  1.0910  1.0037
  625MOL0     H86186   5.805   8.265   5.581 -0.5099  1.2461 -0.8576
  625MOL0     H86187   5.901   8.216   5.777 -3.0119  0.5306  1.9886
  625MOL0     H86188   6.004   8.354   5.795  1.0402 -2.7888  0.5632
  625MOL0     H86189   5.775   8.485   5.815 -1.0409  0.8715 -0.1180
  625MOL0     H86190   5.698   8.332   5.835  1.2160 -1.8037 -0.5528
  625MOL0     H86191   5.728   8.417   6.043 -0.0991 -1.1058  1.9546
  625MOL0     H86192   5.903   8.449   6.018 -0.7803 -1.2054  3.5014
  625MOL0     H86193   5.750   8.182   6.057  0.2269 -0.9376 -5.5078
  625MOL0     H86194   5.906   8.181   5.991 -3.0455 -1.7556 -0.8799
  625MOL0     H86195   5.811   8.313   6.253  0.1229 -2.7082  1.5975
  625MOL0     H86196   5.976   8.329   6.187  1.0766  0.6719 -0.8084
  625MOL0     H86197   5.834   8.071   6.238  0.8729 -1.5203  0.4293
  625MOL0     H86198   6.000   8.086   6.192 -1.5292 -1.9472 -0.2340
  625MOL0     H86199   5.758   8.226   6.471  0.8136  3.6707  3.9079
  625MOL0     H86200   5.906   8.258   6.793  1.9624  0.5005 -0.8276
  625MOL0     H86201   5.838   8.092   6.795  1.0130  0.3740 -0.0196
  625MOL0     H86202   5.663   8.293   6.813 -2.6805 -1.2991  0.3899
  625MOL0     H86203   5.718   8.326   6.657  1.3530 -0.9878 -2.1442
  625MOL0     H86204   5.651   8.077   6.596 -2.0246 -0.5880 -0.3310
  625MOL0     H86205   5.626   8.044   6.765  1.1156  0.0187 -0.3236
  625MOL0     H86206   5.437   8.092   6.597 -0.9238  4.1997 -4.2657
  625MOL0     H86207   5.431   8.138   6.778  3.9865  0.8067  2.1256
  625MOL0     H86208   5.388   8.167   6.409  2.0203 -0.2795  1.1631
  625MOL0     H86209   5.430   8.236   6.070  0.9407 -1.5014  0.6003
  625MOL0     H86210   5.262   8.282   6.123 -0.6816 -0.8939  2.1165
  625MOL0     H86211   5.343   8.144   6.197 -2.5421  0.8824  0.3542
  625MOL0     H86212   5.536   8.695   5.870 -0.3844 -0.5802  1.0963
  625MOL0     H86213   5.441   8.904   5.776  2.1707  5.8038  0.3280
  625MOL0     H86214   5.134   9.089   5.829 -1.1260  1.7566 -1.3172
  625MOL0     H86215   5.219   9.239   5.816  0.8519  0.5739 -1.9448
  625MOL0     H86216   5.290   8.993   5.648 -3.4039 -0.3259 -3.2834
  625MOL0     H86217   5.194   9.126   5.596  2.8253 -0.1854 -2.6575
  625MOL0     H86218   5.406   9.286   5.687 -3.6158  0.4294  1.3209
  625MOL0     H86219   5.351   9.230   5.531  2.4274  1.9161 -0.4466
  625MOL0     H86220   5.514   9.056   5.525 -1.1665  0.2955 -0.7433
  625MOL0     H86221   5.580   9.091   5.682 -0.1927 -2.0637 -0.7686
  625MOL0     H86222   5.554   9.288   5.462 -2.4964 -3.0328 -0.5251
  625MOL0     H86223   5.644   9.304   5.624 -2.3001  0.5187  1.1009
  625MOL0     H86224   5.712   9.102   5.424 -1.4333  2.4323 -1.7134
  625MOL0     H86225   5.794   9.129   5.580  2.2838 -0.7159 -0.4381
  625MOL0     H86226   5.874   9.348   5.498  2.0934 -2.0884  1.3350
  625MOL0     H86227   5.776   9.329   5.344 -0.6868  0.1296  0.0872
  625MOL0     H86228   5.913   9.157   5.270 -1.4370 -1.1900  0.7353
  625MOL0     H86229   5.983   9.127   5.419 -2.3475  0.6550  1.7952
  625MOL0     H86230   5.322   9.046   6.162 -0.2926 -1.1214  1.2730
  625MOL0     H86231   5.438   8.851   6.259 -3.1424  1.7805  0.6107
  625MOL0     H86232   5.554   8.632   6.365  0.2031 -1.1032  2.4979
  625MOL0     H86233   5.532   8.546   6.567 -0.5964  1.1718 -1.4509
  625MOL0     H86234   6.125   7.954   5.477  0.7255 -0.3174 -0.2868
  625MOL0     H86235   6.366   7.872   5.511 -1.6487 -0.4574  1.0221
  625MOL0     H86236   6.797   8.093   5.488  0.0752 -1.1531 -1.5226
  625MOL0     H86237   7.016   8.021   5.460 -1.4116 -0.8950  0.6371
  625MOL0     H86238   7.334   7.782   5.658 -0.4535 -4.0724 -2.0776
  625MOL0     H86239   7.234   7.810   5.792 -1.1091  0.2833 -0.4282
  625MOL0     H86240   7.106   7.594   5.678  0.6070 -2.6949 -1.9380
  625MOL0     H86241   7.261   7.575   5.759  0.1102  2.8007  0.4252
  625MOL0     H86242   7.241   7.651   5.468 -0.9484 -2.1134 -2.0603
  625MOL0     H86243   7.380   7.590   5.567 -0.3010  1.4527  1.7680
  625MOL0     H86244   7.146   7.450   5.465  0.3302  1.7247 -0.5262
  625MOL0     H86245   7.259   7.378   5.584  2.9687 -1.6996 -0.7246
  625MOL0     H86246   7.499   7.350   5.240 -1.5226  0.1322 -0.8227
  625MOL0     H86247   7.013   7.821   5.840  1.8998  2.1335  0.4755
  625MOL0     H86248   6.849   7.864   6.004  0.1363 -1.1719  0.2212
  625MOL0     H86249   6.711   7.964   5.953  0.5594  1.0302 -1.2649
  625MOL0     H86250   6.712   7.789   5.914 -1.2819  1.1739 -0.2630
  626MOL0     O86251  11.514   4.017   9.586 -0.4845  0.0518  1.0279
  626MOL0     C86252  11.412   4.026   9.651  0.0126 -0.6748  0.3661
  626MOL0     O86253  11.409   4.007   9.792 -0.3413  0.3632  0.4847
  626MOL0     C86254  11.529   4.023   9.851  0.0868 -0.5660 -0.0396
  626MOL0     C86255  11.548   4.133   9.929  0.4245 -0.5636  0.4090
  626MOL0     C86256  11.659   4.139  10.023  0.2152  0.3836  0.6454
  626MOL0     C86257  11.755   4.028  10.031 -0.5302  0.0402 -0.4975
  626MOL0     O86258  11.860   4.022  10.117  0.1145  0.1648  0.1333
  626MOL0     C86259  11.924   4.134  10.171 -0.0735  0.2942  0.2252
  626MOL0     C86260  12.008   4.219  10.069  0.8132  0.3909 -0.2093
  626MOL0     C86261  12.125   4.134  10.004  0.1849 -0.0035 -0.3470
  626MOL0     C86262  12.235   4.074  10.105  0.0169  0.5133 -0.1048
  626MOL0     C86263  12.343   4.007  10.018 -0.6022 -0.5808  0.3417
  626MOL0     C86264  12.420   3.897  10.085  0.4194  0.4077  0.5755
  626MOL0     C86265  12.549   3.942  10.162 -0.0542  0.3537  1.0042
  626MOL0     C86266  12.616   3.816  10.217 -0.1620 -0.8610 -0.1371
  626MOL0     N86267  12.735   3.840  10.314  0.4962  0.5706  0.2626
  626MOL0     C86268  12.817   3.951  10.300 -0.3903 -0.1356 -0.8154
  626MOL0     C86269  12.874   3.958  10.428  0.2300  0.8852  0.5274
  626MOL0     C86270  12.971   4.051  10.491  0.1614  0.3733  0.2459
  626MOL0     C86271  13.073   4.108  10.389 -0.4620  0.0465  0.3083
  626MOL0     C86272  13.187   4.180  10.461  0.2095  0.3703  0.0616
  626MOL0     C86273  13.254   4.276  10.372 -1.2078 -0.2301 -0.0237
  626MOL0     O86274  13.400   4.291  10.400 -0.0010  1.0115  0.0768
  626MOL0     C86275  13.483   4.202  10.345  0.5091 -0.2936 -0.2581
  626MOL0     C86276  13.618   4.217  10.368 -0.4185  0.6797  0.1569
  626MOL0     C86277  13.720   4.134  10.316  0.2258  0.5278  1.0047
  626MOL0     C86278  13.858   4.187  10.350  0.1529 -0.1136 -0.3476
  626MOL0     C86279  13.681   4.022  10.236  0.1448 -1.1272 -0.9991
  626MOL0     C86280  13.780   3.933  10.180  0.0206 -0.2519 -0.0595
  626MOL0     O86281  13.724   3.825  10.115  0.3444  0.4371 -0.1798
  626MOL0     C86282  13.801   3.737  10.044  0.3013 -0.9483  0.2042
  626MOL0     C86283  13.763   3.599  10.047  0.2333 -0.1961 -0.2429
  626MOL0     C86284  13.840   3.504   9.992  0.1849  0.0118  0.0234
  626MOL0     C86285  13.939   3.548   9.908  0.1585  0.0566  0.0690
  626MOL0     O86286  14.004   3.460   9.831 -0.7550 -0.1350 -0.5728
  626MOL0     C86287  14.116   3.411   9.911  0.0374  0.1627 -0.4386
  626MOL0     C86288  14.210   3.341   9.818 -0.5030  0.8954 -0.1777
  626MOL0     C86289  14.291   3.437   9.736  1.0675 -0.5742 -0.4351
  626MOL0     C86290  14.422   3.390   9.659 -0.7135  0.0837 -0.4302
  626MOL0     C86291  14.533   3.346   9.750 -1.1319  0.6164 -1.2746
  626MOL0     C86292  14.648   3.464   9.762  0.1146  0.3174  0.0173
  626MOL0     C86293  14.774   3.430   9.846 -0.1257 -0.8289  0.3895
  626MOL0     C86294  14.850   3.320   9.779  0.6317  0.7419 -0.0609
  626MOL0    Cl86295  14.840   3.175   9.898 -0.5334 -0.1900  0.1626
  626MOL0     C86296  13.970   3.684   9.885  0.3906 -0.0451  0.3662
  626MOL0     C86297  13.897   3.777   9.949  0.5494  0.9447 -0.1705
  626MOL0     O86298  13.897   3.967  10.169  0.3561 -0.2036 -0.2245
  626MOL0     C86299  13.544   3.993  10.219 -0.8930 -0.8193 -0.5801
  626MOL0     C86300  13.450   4.085  10.283 -0.8682 -0.1521  0.1014
  626MOL0     N86301  12.829   3.845  10.500  0.8301 -0.3772 -0.3110
  626MOL0     N86302  12.756   3.771  10.431  0.1226 -0.6849 -0.2987
  626MOL0     C86303  11.730   3.920   9.937 -0.7270 -0.5625  0.5033
  626MOL0     C86304  11.632   3.927   9.842 -0.2308  0.1348 -0.1118
  626MOL0     C86305  11.286   4.067   9.573 -1.4774 -0.3290  0.1814
  626MOL0     C86306  11.280   4.039   9.441 -0.1196  0.7283 -0.5809
  626MOL0     C86307  11.169   4.070   9.362 -0.8464 -0.2629  0.3214
  626MOL0     C86308  11.063   4.142   9.405 -0.5773  0.0391 -0.8021
  626MOL0     O86309  10.956   4.176   9.331  0.0417 -0.0097 -0.2478
  626MOL0     C86310  10.927   4.101   9.213 -0.7222  0.4492 -0.3744
  626MOL0     C86311  10.779   4.134   9.178 -0.2318 -0.7355  0.1586
  626MOL0     C86312  10.726   4.117   9.028  0.1113  0.6328 -0.6265
  626MOL0     C86313  10.782   4.220   8.932  0.7523 -0.0842  0.9960
  626MOL0     C86314  10.752   4.209   8.791  0.4712  0.1259  0.0297
  626MOL0     C86315  10.723   4.204   8.672 -0.0494 -0.1560  0.0682
  626MOL0     C86316  11.063   4.168   9.549  0.0715 -0.1107  0.0280
  626MOL0     C86317  11.172   4.128   9.629  0.9896  0.9265  0.2462
  626MOL0     C86318  11.150   4.142   9.773 -0.2352  0.0493  0.2214
  626MOL0     H86319  11.479   4.217   9.930 -1.6612 -2.1817  2.1526
  626MOL0     H86320  11.665   4.227  10.086  1.5259  0.3500  0.5929
  626MOL0     H86321  11.991   4.100  10.251 -1.5162 -2.9168  0.1910
  626MOL0     H86322  11.847   4.199  10.213 -2.2035 -1.0866 -1.3639
  626MOL0     H86323  11.947   4.257   9.986  3.4205 -0.4664 -2.6961
  626MOL0     H86324  12.042   4.306  10.126  0.1344  0.5455 -0.0257
  626MOL0     H86325  12.069   4.065   9.940 -0.8585  0.6326 -0.1336
  626MOL0     H86326  12.173   4.200   9.932 -0.1771  1.7845  0.9995
  626MOL0     H86327  12.270   4.156  10.168  0.8634  0.2781 -0.2623
  626MOL0     H86328  12.190   4.001  10.173  2.8846 -0.3612  0.9948
  626MOL0     H86329  12.403   4.083   9.968 -3.5233  0.6304 -1.5344
  626MOL0     H86330  12.295   3.962   9.931  0.7932 -0.5429 -0.4660
  626MOL0     H86331  12.352   3.840  10.149  1.4294 -0.5396  0.8288
  626MOL0     H86332  12.441   3.822  10.007 -0.5997  0.9930 -0.2910
  626MOL0     H86333  12.517   4.011  10.241  1.8908  0.8946  1.3692
  626MOL0     H86334  12.613   3.996  10.092 -0.6259  2.2197  1.8424
  626MOL0     H86335  12.545   3.751  10.269  2.6759 -2.2569  2.3136
  626MOL0     H86336  12.658   3.756  10.136  1.0671  0.6890 -0.6983
  626MOL0     H86337  12.823   4.025  10.221  0.8666  0.6927  0.0229
  626MOL0     H86338  13.006   3.991  10.575 -3.7700  0.5522  2.2594
  626MOL0     H86339  12.909   4.130  10.533 -2.3729 -1.9567  1.1931
  626MOL0     H86340  13.113   4.036  10.317  1.8331  1.6326 -0.1077
  626MOL0     H86341  13.016   4.187  10.339  0.4328  0.4651 -0.0672
  626MOL0     H86342  13.155   4.242  10.545 -3.1751  0.7854 -1.3686
  626MOL0     H86343  13.257   4.102  10.491  2.6357  2.2838 -0.2920
  626MOL0     H86344  13.244   4.256  10.265  4.0387  2.6127 -1.3950
  626MOL0     H86345  13.210   4.375  10.391 -1.9203 -0.7070  0.9164
  626MOL0     H86346  13.638   4.314  10.414 -3.8270  2.3295 -1.4589
  626MOL0     H86347  13.857   4.283  10.403 -2.1546 -0.5103  0.4569
  626MOL0     H86348  13.908   4.191  10.253  0.8343 -0.6786 -0.0240
  626MOL0     H86349  13.907   4.112  10.412  2.0462 -0.3428 -2.0175
  626MOL0     H86350  13.678   3.569  10.108 -0.0257 -1.1049 -1.0270
  626MOL0     H86351  13.818   3.398   9.988  1.9991 -0.3828 -0.8563
  626MOL0     H86352  14.169   3.491   9.963 -0.9352 -0.5043  1.6748
  626MOL0     H86353  14.080   3.334   9.980 -0.7979  2.2361  1.5708
  626MOL0     H86354  14.283   3.276   9.869 -0.1649 -2.3998 -4.3465
  626MOL0     H86355  14.150   3.276   9.754 -0.7993  1.7072 -0.7338
  626MOL0     H86356  14.326   3.513   9.806  2.6659 -1.2739 -0.4177
  626MOL0     H86357  14.227   3.484   9.660 -0.6515  0.9095  1.7951
  626MOL0     H86358  14.448   3.486   9.612  2.2742  1.0974  2.8288
  626MOL0     H86359  14.408   3.316   9.579  2.5938 -1.8349  0.5625
  626MOL0     H86360  14.499   3.314   9.849  0.9111  2.2764  0.0283
  626MOL0     H86361  14.580   3.256   9.709  0.7781  2.0119 -2.3056
  626MOL0     H86362  14.605   3.559   9.795  1.5917  2.3217 -3.3572
  626MOL0     H86363  14.686   3.484   9.661 -2.5757  1.1005 -0.9362
  626MOL0     H86364  14.743   3.397   9.946 -1.9699 -1.0643 -0.2297
  626MOL0     H86365  14.833   3.522   9.849  2.0947 -1.8589 -3.9105
  626MOL0     H86366  14.955   3.345   9.766  1.3516 -1.6713  0.5833
  626MOL0     H86367  14.795   3.278   9.694 -0.9172  0.6707  0.9234
  626MOL0     H86368  14.043   3.718   9.812 -1.1451  2.7720  0.0103
  626MOL0     H86369  13.911   3.882   9.926  0.6734  0.8364 -0.6054
  626MOL0     H86370  13.507   3.912  10.158 -2.9761  1.9375 -3.3149
  626MOL0     H86371  13.347   4.060  10.263 -1.4925  0.4532  2.2789
  626MOL0     H86372  11.807   3.844   9.937 -0.1032  0.0581 -0.3913
  626MOL0     H86373  11.629   3.851   9.765  1.1997 -0.3691  0.3081
  626MOL0     H86374  11.362   4.001   9.381 -1.0165 -1.5037 -0.4912
  626MOL0     H86375  11.168   4.056   9.254 -3.9690 -0.5539  0.2875
  626MOL0     H86376  10.990   4.128   9.129 -0.9136  0.2611 -0.5799
  626MOL0     H86377  10.945   3.995   9.237  2.4723  1.0756  0.3703
  626MOL0     H86378  10.769   4.238   9.212  1.3704 -0.6335  0.4177
  626MOL0     H86379  10.715   4.072   9.241 -0.4175 -0.0894  0.6135
  626MOL0     H86380  10.751   4.014   9.001  1.0473  0.9393 -0.9729
  626MOL0     H86381  10.617   4.114   9.029  0.0696  1.6533 -0.9061
  626MOL0     H86382  10.891   4.211   8.936  0.9261  1.5072  0.3277
  626MOL0     H86383  10.744   4.317   8.963 -0.3947 -0.2069  0.0383
  626MOL0     H86384  10.699   4.209   8.568 -3.0170  4.6564  0.6789
  626MOL0     H86385  10.977   4.224   9.586  2.3762  2.6604  1.5848
  626MOL0     H86386  11.172   4.043   9.815 -5.6766 -2.1015 -1.1731
  626MOL0     H86387  11.198   4.228   9.821  0.4417 -0.3984  0.3579
  626MOL0     H86388  11.045   4.166   9.793 -0.0860  0.4684  0.5122
  627MOL0     O86389   2.206   5.426   3.301 -0.6634 -0.3419 -0.4145
  627MOL0     C86390   2.272   5.478   3.211  0.0176  0.5120  0.0180
  627MOL0     O86391   2.359   5.590   3.230  0.7833  0.0342 -0.1479
  627MOL0     C86392   2.334   5.665   3.340 -1.0074 -0.1889 -0.1206
  627MOL0     C86393   2.438   5.689   3.429 -0.3542 -0.9234 -1.1042
  627MOL0     C86394   2.412   5.776   3.538  0.0887 -0.2832 -0.4915
  627MOL0     C86395   2.281   5.834   3.563 -1.7410  0.7532 -0.3313
  627MOL0     O86396   2.257   5.919   3.665  0.8335 -0.2468  0.1779
  627MOL0     C86397   2.340   5.928   3.783  0.6618  0.7164 -0.2656
  627MOL0     C86398   2.286   6.018   3.890  0.3960 -1.0303 -0.1713
  627MOL0     C86399   2.139   5.988   3.946 -0.2258  0.1748 -0.3215
  627MOL0     C86400   2.151   5.881   4.056  0.7618 -0.0703 -0.6341
  627MOL0     C86401   2.012   5.831   4.090 -0.1864 -0.0040 -0.0182
  627MOL0     C86402   2.031   5.704   4.191 -0.4122  0.5094 -0.4585
  627MOL0     C86403   1.902   5.624   4.211 -0.6201  0.1256  0.1934
  627MOL0     C86404   1.788   5.698   4.289 -0.0805  1.0207  0.4593
  627MOL0     N86405   1.730   5.597   4.382 -0.5272 -0.1827  1.2457
  627MOL0     C86406   1.796   5.522   4.473 -0.1265 -0.3069  0.0718
  627MOL0     C86407   1.708   5.428   4.514  0.2146 -0.2915 -0.6928
  627MOL0     C86408   1.748   5.306   4.589  0.6350 -0.6975 -0.3017
  627MOL0     C86409   1.888   5.256   4.549 -0.1469 -0.2320 -0.1933
  627MOL0     C86410   1.917   5.128   4.633  1.1759 -0.1446 -0.5919
  627MOL0     C86411   2.063   5.099   4.661  0.3377 -0.5799 -0.3928
  627MOL0     O86412   2.115   5.178   4.764 -0.1586  0.0712 -0.8524
  627MOL0     C86413   2.253   5.176   4.778 -0.2147 -0.0757  0.0187
  627MOL0     C86414   2.340   5.068   4.769 -0.3599  0.4835 -0.5682
  627MOL0     C86415   2.476   5.071   4.808 -0.0740  0.3994  0.6962
  627MOL0     C86416   2.546   4.936   4.808  0.1540 -0.6181 -0.1013
  627MOL0     C86417   2.537   5.189   4.862 -0.7226 -0.5471  0.3773
  627MOL0     C86418   2.682   5.198   4.908  0.8049 -0.4851 -0.0380
  627MOL0     O86419   2.767   5.094   4.880 -0.3218 -0.0456  0.4193
  627MOL0     C86420   2.885   5.095   4.931  0.1268  0.7891  0.0847
  627MOL0     C86421   2.991   5.179   4.885 -0.2115 -0.1260 -0.1775
  627MOL0     C86422   3.120   5.157   4.922 -0.6858  0.0549  0.4586
  627MOL0     C86423   3.160   5.047   4.998 -0.3497  0.0153 -0.4783
  627MOL0     O86424   3.287   5.024   5.040  0.1009 -0.7108  0.4200
  627MOL0     C86425   3.395   5.090   4.987 -1.0765 -0.1415  0.2599
  627MOL0     C86426   3.519   4.996   4.984  0.2887 -1.3617 -0.3689
  627MOL0     C86427   3.486   4.855   4.924 -0.3744 -0.1612 -0.2477
  627MOL0     C86428   3.610   4.763   4.931  0.1947 -0.1707  0.0230
  627MOL0     C86429   3.563   4.623   4.889  0.1437 -0.2018 -0.1347
  627MOL0     C86430   3.668   4.511   4.897 -0.3656 -0.5112  0.7710
  627MOL0     C86431   3.772   4.539   4.781  0.9051 -0.0903 -0.4584
  627MOL0     C86432   3.827   4.411   4.731 -0.2357 -0.9917  0.2347
  627MOL0    Cl86433   3.953   4.434   4.602  0.2116 -0.2133  0.1557
  627MOL0     C86434   3.056   4.960   5.032  0.0607  0.9848  0.4319
  627MOL0     C86435   2.924   4.976   5.002 -0.0557  0.3417 -1.1234
  627MOL0     O86436   2.712   5.303   4.972  0.5854  0.1043 -0.0032
  627MOL0     C86437   2.448   5.294   4.876  0.0985  0.8658  0.0912
  627MOL0     C86438   2.312   5.288   4.843 -0.4419  0.4015  0.1852
  627MOL0     N86439   1.586   5.457   4.448 -0.6850  0.1631 -0.1131
  627MOL0     N86440   1.612   5.554   4.371  1.0957 -0.9028  0.3119
  627MOL0     C86441   2.183   5.809   3.470 -0.4683 -0.0863  0.5514
  627MOL0     C86442   2.213   5.722   3.356  0.3120 -0.6521  0.1088
  627MOL0     C86443   2.232   5.435   3.073  0.4667  0.2860  0.1805
  627MOL0     C86444   2.318   5.466   2.964  0.4079 -0.2522 -0.4106
  627MOL0     C86445   2.282   5.438   2.834  0.1138  0.3848 -0.2197
  627MOL0     C86446   2.169   5.367   2.811 -0.6396  0.7078 -0.0600
  627MOL0     O86447   2.136   5.318   2.684 -0.2017  0.0674 -0.4175
  627MOL0     C86448   2.235   5.277   2.607  0.0374  0.2942  0.5894
  627MOL0     C86449   2.186   5.191   2.492  0.1899  0.4567  0.4557
  627MOL0     C86450   2.297   5.110   2.413  0.0042  0.0731 -0.8078
  627MOL0     C86451   2.403   5.189   2.346 -0.3556  0.0936 -0.0390
  627MOL0     C86452   2.484   5.102   2.264 -0.0556 -0.6771 -0.7405
  627MOL0     C86453   2.551   5.039   2.188 -0.3461  0.3797 -0.2120
  627MOL0     C86454   2.085   5.332   2.907 -1.1252  0.2902 -0.9476
  627MOL0     C86455   2.106   5.367   3.041 -0.5547  0.2973  0.9206
  627MOL0     C86456   1.986   5.358   3.133  0.1758  0.1962 -0.8478
  627MOL0     H86457   2.541   5.653   3.430  0.1593  0.3644  1.5151
  627MOL0     H86458   2.495   5.801   3.603 -1.1114 -1.9934  1.8005
  627MOL0     H86459   2.440   5.968   3.763  0.4055  1.2561 -0.4997
  627MOL0     H86460   2.355   5.825   3.817  1.0695  0.8610 -0.0063
  627MOL0     H86461   2.347   6.015   3.981 -2.3386 -3.0282  1.7646
  627MOL0     H86462   2.294   6.115   3.839  0.8665 -1.1533 -0.3389
  627MOL0     H86463   2.099   6.084   3.978 -0.5435  0.5915 -1.8717
  627MOL0     H86464   2.071   5.949   3.870  0.3859 -2.4068  0.3581
  627MOL0     H86465   2.213   5.800   4.018  2.1301  0.5976  0.1012
  627MOL0     H86466   2.200   5.922   4.144  0.5609 -2.7524  0.8078
  627MOL0     H86467   1.956   5.795   4.004  1.2706 -0.1827 -0.9245
  627MOL0     H86468   1.958   5.916   4.132 -0.3348  0.3687 -0.9505
  627MOL0     H86469   2.106   5.641   4.143 -1.1999 -1.3862  0.7141
  627MOL0     H86470   2.084   5.740   4.280  2.7017 -0.8008 -1.6128
  627MOL0     H86471   1.917   5.524   4.255  0.1147 -0.6787 -1.7943
  627MOL0     H86472   1.873   5.612   4.107 -0.0365  1.9326 -0.2023
  627MOL0     H86473   1.835   5.775   4.351 -0.5597 -1.4245  4.1051
  627MOL0     H86474   1.708   5.750   4.234 -0.4022  2.7120  2.4071
  627MOL0     H86475   1.896   5.531   4.513 -0.0613  1.8786 -0.4509
  627MOL0     H86476   1.673   5.228   4.570  2.7826 -3.1804  0.8496
  627MOL0     H86477   1.748   5.324   4.697  4.3584  2.5790 -0.6260
  627MOL0     H86478   1.888   5.235   4.442  1.4249  2.4784 -0.7995
  627MOL0     H86479   1.962   5.330   4.579 -1.3151  0.9169 -0.0372
  627MOL0     H86480   1.881   5.158   4.732 -1.0731  1.6962 -1.8795
  627MOL0     H86481   1.853   5.042   4.609 -3.0693  2.1832  1.1866
  627MOL0     H86482   2.074   4.994   4.692  1.8825 -0.1112  0.7993
  627MOL0     H86483   2.113   5.115   4.565 -0.5657 -0.0025 -0.7735
  627MOL0     H86484   2.291   4.976   4.737  0.4669  0.5194 -2.0454
  627MOL0     H86485   2.491   4.877   4.733  2.7304  2.4624 -4.9854
  627MOL0     H86486   2.548   4.890   4.907  2.5093 -2.1012 -0.7525
  627MOL0     H86487   2.646   4.934   4.763  0.3029 -1.6212  0.2600
  627MOL0     H86488   2.968   5.267   4.826  2.7612 -0.2511 -1.7253
  627MOL0     H86489   3.196   5.233   4.904  1.8991 -2.3697  0.4577
  627MOL0     H86490   3.375   5.121   4.884 -2.2333 -1.2463  0.1290
  627MOL0     H86491   3.420   5.175   5.051 -2.5787  0.9490 -0.5389
  627MOL0     H86492   3.599   5.044   4.928 -1.9664 -0.3420 -2.9222
  627MOL0     H86493   3.551   4.978   5.087 -1.1339  1.0447  0.5518
  627MOL0     H86494   3.471   4.873   4.817  7.1072  1.7850 -1.5206
  627MOL0     H86495   3.401   4.809   4.975 -2.1397  1.0731 -1.9479
  627MOL0     H86496   3.647   4.752   5.033 -1.7493 -0.6674  0.7247
  627MOL0     H86497   3.682   4.811   4.864 -1.9411  4.8409  0.8680
  627MOL0     H86498   3.468   4.595   4.935 -3.1384  3.7792 -3.6946
  627MOL0     H86499   3.533   4.635   4.785 -0.5947 -3.5886 -0.4500
  627MOL0     H86500   3.621   4.412   4.886 -2.4737  0.2479  2.3301
  627MOL0     H86501   3.718   4.519   4.993  1.8562  0.2921 -0.3756
  627MOL0     H86502   3.854   4.606   4.805 -1.3123  2.5664  0.2136
  627MOL0     H86503   3.717   4.578   4.695  0.3549 -0.9609 -0.5237
  627MOL0     H86504   3.747   4.350   4.686  2.1214 -4.7639  0.7599
  627MOL0     H86505   3.877   4.354   4.810  1.5608 -0.3458 -0.3915
  627MOL0     H86506   3.091   4.878   5.093 -1.2857  1.8443  2.4745
  627MOL0     H86507   2.853   4.904   5.040  1.1159  0.1719  0.9077
  627MOL0     H86508   2.496   5.385   4.910 -2.4473  1.9522  1.0337
  627MOL0     H86509   2.251   5.376   4.861 -0.8012  1.6667 -5.2269
  627MOL0     H86510   2.086   5.857   3.481  0.3048  1.5090  0.7933
  627MOL0     H86511   2.140   5.716   3.276 -0.8696 -1.0517  1.1745
  627MOL0     H86512   2.396   5.539   2.981 -0.5159  1.0729 -1.6212
  627MOL0     H86513   2.342   5.473   2.751  0.3896 -0.5141 -0.4144
  627MOL0     H86514   2.283   5.359   2.553 -1.1246 -0.5223 -1.8343
  627MOL0     H86515   2.304   5.215   2.666 -2.0247 -1.4732  1.2575
  627MOL0     H86516   2.136   5.254   2.417  2.3438  0.3652 -1.1437
  627MOL0     H86517   2.112   5.119   2.529  0.9339 -3.4588 -4.6187
  627MOL0     H86518   2.343   5.036   2.480  1.0668 -0.2015 -1.8163
  627MOL0     H86519   2.241   5.062   2.332  1.3495 -0.1528 -1.6295
  627MOL0     H86520   2.472   5.247   2.407 -1.0813 -0.9077  1.7858
  627MOL0     H86521   2.347   5.254   2.277 -0.2376  0.3718  0.1265
  627MOL0     H86522   2.610   4.962   2.143  0.6753  0.2823  1.2151
  627MOL0     H86523   1.993   5.281   2.878 -1.0689 -1.3988  1.5930
  627MOL0     H86524   1.994   5.271   3.199  0.1340  1.1403  0.4380
  627MOL0     H86525   1.983   5.449   3.193  2.9105 -0.7792  0.9308
  627MOL0     H86526   1.892   5.362   3.076 -1.6073  0.5990  1.9601
  628MOL0     O86527   8.990   2.495   2.079  0.1454  0.1718  0.3746
  628MOL0     C86528   9.094   2.557   2.098 -0.8086 -0.6360 -0.2541
  628MOL0     O86529   9.101   2.669   2.187  0.5331 -0.4378 -0.7244
  628MOL0     C86530   9.001   2.683   2.278 -0.2615  0.2827  1.0086
  628MOL0     C86531   8.931   2.575   2.344 -0.8778 -0.4445 -0.5548
  628MOL0     C86532   8.825   2.603   2.425  0.1237 -0.4141 -0.5917
  628MOL0     C86533   8.779   2.727   2.444  0.7135 -0.5066 -0.0403
  628MOL0     O86534   8.668   2.760   2.527  0.1906 -0.0851 -0.3017
  628MOL0     C86535   8.632   2.662   2.634 -0.5373  0.2152  0.9503
  628MOL0     C86536   8.530   2.728   2.728 -0.2332 -0.9259  0.0301
  628MOL0     C86537   8.402   2.758   2.659 -0.3781  0.4750 -0.7854
  628MOL0     C86538   8.312   2.833   2.756  0.8164  0.1726 -0.5302
  628MOL0     C86539   8.172   2.845   2.700  0.0818 -1.0755  0.0406
  628MOL0     C86540   8.076   2.936   2.775 -0.6601  0.0891  0.0155
  628MOL0     C86541   7.968   2.998   2.677 -0.5124 -0.1628 -0.3404
  628MOL0     C86542   7.825   2.949   2.733 -0.0751  0.0387  0.2056
  628MOL0     N86543   7.791   2.818   2.658  0.9385 -0.8865  0.3268
  628MOL0     C86544   7.769   2.702   2.726  1.1679 -1.0417 -0.0983
  628MOL0     C86545   7.746   2.604   2.641  0.1494  0.0101  0.3782
  628MOL0     C86546   7.721   2.465   2.672  0.9464 -0.4292 -0.2979
  628MOL0     C86547   7.642   2.385   2.563 -0.3008  0.4405 -0.2886
  628MOL0     C86548   7.611   2.254   2.616  0.4416 -0.1618 -0.1791
  628MOL0     C86549   7.560   2.154   2.522  0.2954 -0.1480  0.5943
  628MOL0     O86550   7.464   2.065   2.588  0.2885 -0.6380 -0.5235
  628MOL0     C86551   7.422   1.962   2.516 -0.2360  0.7358 -0.4084
  628MOL0     C86552   7.334   1.871   2.583  0.2408  0.1625 -0.3223
  628MOL0     C86553   7.273   1.763   2.525 -0.5048  0.6608  0.4553
  628MOL0     C86554   7.181   1.685   2.616  0.1901  0.4822 -0.8053
  628MOL0     C86555   7.298   1.741   2.391 -0.0415  1.6396 -0.2580
  628MOL0     C86556   7.227   1.637   2.306  0.4422  0.1030 -0.2083
  628MOL0     O86557   7.282   1.605   2.178  0.4791  0.1704 -0.6841
  628MOL0     C86558   7.209   1.523   2.093 -0.1213 -0.6416 -0.0267
  628MOL0     C86559   7.276   1.413   2.029  0.0141  0.0319  0.3586
  628MOL0     C86560   7.215   1.334   1.937  0.3041  0.2757  0.6189
  628MOL0     C86561   7.081   1.365   1.900 -0.2790  0.6363 -0.0920
  628MOL0     O86562   7.016   1.301   1.799 -0.7263  0.0068 -0.7077
  628MOL0     C86563   6.999   1.391   1.692  0.4707  0.2010  0.1841
  628MOL0     C86564   6.944   1.305   1.584  0.7012 -0.4165 -0.2111
  628MOL0     C86565   6.921   1.395   1.458  0.2452  0.0820  0.2128
  628MOL0     C86566   6.845   1.311   1.358  0.3791  0.0973 -0.2524
  628MOL0     C86567   6.945   1.229   1.270 -0.2055  0.4534 -0.0927
  628MOL0     C86568   6.876   1.120   1.183 -0.3011 -0.3247 -0.1766
  628MOL0     C86569   6.828   1.005   1.277  1.0758  0.7885 -1.5101
  628MOL0     C86570   6.708   0.913   1.238  0.0314  0.2301 -1.1313
  628MOL0    Cl86571   6.689   0.813   1.387 -0.1919  0.6838 -0.1577
  628MOL0     C86572   7.014   1.465   1.964 -0.0206 -0.4267  0.3485
  628MOL0     C86573   7.071   1.545   2.066  0.8358 -0.2272 -0.0366
  628MOL0     O86574   7.136   1.570   2.365 -0.4935  0.4032 -0.1768
  628MOL0     C86575   7.396   1.822   2.321 -0.3683  0.9167  0.0552
  628MOL0     C86576   7.448   1.930   2.383 -0.2040  0.0217  0.0017
  628MOL0     N86577   7.765   2.660   2.515  0.4177  0.0077 -0.4743
  628MOL0     N86578   7.784   2.787   2.529 -0.2820  0.0845 -0.1477
  628MOL0     C86579   8.840   2.833   2.382  0.7975 -0.0986  0.3536
  628MOL0     C86580   8.956   2.816   2.300 -0.8223  0.8900  0.1840
  628MOL0     C86581   9.212   2.531   2.010  0.0048  0.7556  0.5610
  628MOL0     C86582   9.333   2.608   2.036 -0.8472  0.1024  0.3934
  628MOL0     C86583   9.453   2.571   1.969  0.4534 -0.2467 -0.9125
  628MOL0     C86584   9.467   2.468   1.882  1.0948  0.3740  0.7229
  628MOL0     O86585   9.588   2.447   1.821  0.2416  0.4546 -0.9054
  628MOL0     C86586   9.701   2.534   1.821  0.2875 -0.6799  0.3792
  628MOL0     C86587   9.791   2.503   1.941  0.1218  0.2576 -0.9181
  628MOL0     C86588   9.851   2.359   1.924 -0.1584  0.0156  0.9361
  628MOL0     C86589   9.996   2.341   1.981  0.3326  0.1622  0.7608
  628MOL0     C86590   9.982   2.358   2.127 -0.2491  0.3015  0.2294
  628MOL0     C86591   9.967   2.358   2.248  0.3798 -0.1396  0.1479
  628MOL0     C86592   9.347   2.406   1.844  0.4686 -0.7265  0.5536
  628MOL0     C86593   9.221   2.438   1.900 -1.6032  0.0440  0.1026
  628MOL0     C86594   9.102   2.392   1.820  0.1264 -0.0079  0.0650
  628MOL0     H86595   8.966   2.473   2.335  1.3753  0.3116 -0.7787
  628MOL0     H86596   8.772   2.516   2.462  0.9514 -0.2654  0.9916
  628MOL0     H86597   8.730   2.648   2.682  1.7752  1.8599 -2.8293
  628MOL0     H86598   8.596   2.569   2.590 -0.1360 -0.1361  1.3541
  628MOL0     H86599   8.514   2.652   2.805 -1.2278  0.8789  1.7048
  628MOL0     H86600   8.568   2.821   2.770  1.2742 -0.8730 -1.3781
  628MOL0     H86601   8.423   2.833   2.583 -1.3858  0.5749 -0.9779
  628MOL0     H86602   8.355   2.666   2.623  3.2443 -1.4783 -0.9885
  628MOL0     H86603   8.309   2.764   2.841  0.0528 -1.1912 -1.6290
  628MOL0     H86604   8.351   2.934   2.771 -1.3702  1.7235 -3.9772
  628MOL0     H86605   8.130   2.749   2.667  2.0560 -1.6558 -0.8903
  628MOL0     H86606   8.199   2.900   2.610  0.2095  0.4851  0.9910
  628MOL0     H86607   8.043   2.877   2.861  2.6928 -3.9584 -1.1246
  628MOL0     H86608   8.146   3.013   2.810  0.6810 -0.2146 -1.8244
  628MOL0     H86609   7.995   2.963   2.577 -1.7709  1.4971 -1.2961
  628MOL0     H86610   7.974   3.107   2.679 -3.5633  0.1045 -0.9184
  628MOL0     H86611   7.831   2.941   2.842  0.1687  1.7526  0.3388
  628MOL0     H86612   7.755   3.030   2.713 -1.6268 -1.2030  0.3986
  628MOL0     H86613   7.764   2.718   2.833  1.0032  1.2239 -0.4005
  628MOL0     H86614   7.659   2.465   2.762  0.4145  0.5921 -0.6489
  628MOL0     H86615   7.816   2.413   2.687  0.6814 -1.6848 -2.4642
  628MOL0     H86616   7.554   2.440   2.528 -1.5565 -1.5881 -0.4365
  628MOL0     H86617   7.707   2.387   2.474  1.4375  2.4021  0.9206
  628MOL0     H86618   7.704   2.213   2.656  0.3067 -0.2025  0.0982
  628MOL0     H86619   7.543   2.259   2.702  2.2776  1.5069  1.2825
  628MOL0     H86620   7.499   2.215   2.454 -2.5803 -2.6941  0.6672
  628MOL0     H86621   7.638   2.107   2.461 -1.7179 -1.7832 -0.8606
  628MOL0     H86622   7.304   1.905   2.681  0.6469 -0.8203  0.1595
  628MOL0     H86623   7.170   1.732   2.715 -1.4161 -0.1047 -0.6690
  628MOL0     H86624   7.225   1.586   2.630 -1.3651  0.1210  2.5707
  628MOL0     H86625   7.080   1.684   2.572 -0.8798  1.0924  1.4794
  628MOL0     H86626   7.380   1.386   2.044  0.5213  1.3003 -0.6707
  628MOL0     H86627   7.270   1.266   1.873 -0.0664  1.1717 -0.7070
  628MOL0     H86628   6.919   1.463   1.712 -0.4867 -1.0126  0.9349
  628MOL0     H86629   7.090   1.437   1.653  1.1831 -1.0631  0.3141
  628MOL0     H86630   7.017   1.225   1.567  2.8119  1.0868  1.2396
  628MOL0     H86631   6.850   1.262   1.619 -0.2678  1.5723 -0.2347
  628MOL0     H86632   7.017   1.425   1.413 -1.1899  1.5768 -2.0527
  628MOL0     H86633   6.859   1.483   1.474  0.9884  0.7729 -0.5890
  628MOL0     H86634   6.790   1.372   1.285 -0.2684 -1.8283 -1.4449
  628MOL0     H86635   6.771   1.249   1.409 -0.9177  1.9743  0.2738
  628MOL0     H86636   6.997   1.301   1.206  0.0154 -0.2418 -0.7074
  628MOL0     H86637   7.021   1.173   1.327 -1.3011 -0.9512  0.0312
  628MOL0     H86638   6.940   1.080   1.104  0.2828  0.5919 -0.1869
  628MOL0     H86639   6.791   1.158   1.126  0.1131  1.2329  0.1931
  628MOL0     H86640   6.809   1.048   1.376  1.8135 -0.9954 -0.5439
  628MOL0     H86641   6.917   0.946   1.296  0.3360  0.6733  2.5810
  628MOL0     H86642   6.746   0.858   1.151 -1.2631  2.1072 -2.9891
  628MOL0     H86643   6.610   0.953   1.210 -2.3440 -1.7967  3.3032
  628MOL0     H86644   6.911   1.491   1.940  0.6720  1.1848 -1.0219
  628MOL0     H86645   7.021   1.622   2.122 -3.4357 -2.3479 -0.5461
  628MOL0     H86646   7.435   1.806   2.221  0.7581 -0.9762  0.7422
  628MOL0     H86647   7.512   1.990   2.319  2.1627 -0.1920  2.0237
  628MOL0     H86648   8.799   2.933   2.379 -0.7389 -0.6494  1.6669
  628MOL0     H86649   8.993   2.898   2.240 -0.1192  1.5200  1.4352
  628MOL0     H86650   9.331   2.693   2.103 -1.1327  0.8516 -0.5431
  628MOL0     H86651   9.539   2.636   1.988 -0.5262  0.4151  1.7962
  628MOL0     H86652   9.742   2.520   1.721 -1.1899 -2.3296 -0.0324
  628MOL0     H86653   9.668   2.638   1.827  0.2283 -0.7692  2.3712
  628MOL0     H86654   9.731   2.508   2.033  1.5595  0.1225  0.0561
  628MOL0     H86655   9.865   2.583   1.944  0.2985  0.0737  1.8448
  628MOL0     H86656   9.788   2.281   1.967  0.3975 -0.5672  0.7167
  628MOL0     H86657   9.846   2.327   1.819 -1.8915  1.6225  0.4609
  628MOL0     H86658  10.065   2.420   1.947  0.3244  0.9785  2.5153
  628MOL0     H86659  10.046   2.244   1.973 -0.1327  0.0444 -1.1467
  628MOL0     H86660   9.949   2.360   2.353  1.1447 -0.3794  0.2974
  628MOL0     H86661   9.368   2.323   1.778 -2.3577  0.8361 -2.6665
  628MOL0     H86662   9.132   2.312   1.752 -3.0038 -1.3594  0.0914
  628MOL0     H86663   9.020   2.352   1.881 -1.6212 -0.0322 -2.1360
  628MOL0     H86664   9.060   2.472   1.757  1.1853  0.9461  0.5245
  629MOL0     O86665   9.981   3.801   7.596 -0.5199 -0.2944 -0.2498
  629MOL0     C86666  10.093   3.770   7.634 -0.0682  0.3286 -0.1831
  629MOL0     O86667  10.160   3.828   7.740 -0.0602 -0.3139  0.2006
  629MOL0     C86668  10.138   3.964   7.747  1.1119  0.5842 -0.0523
  629MOL0     C86669  10.175   4.052   7.643  0.0041 -0.6718  0.0516
  629MOL0     C86670  10.154   4.190   7.657 -0.0507  0.3624 -0.0431
  629MOL0     C86671  10.111   4.248   7.778  0.3203  1.1266  0.4450
  629MOL0     O86672  10.100   4.380   7.808  0.0127  0.1723 -0.2389
  629MOL0     C86673  10.136   4.474   7.708 -0.8153 -0.1403 -0.6142
  629MOL0     C86674  10.003   4.504   7.639  0.7548  0.6934  0.1709
  629MOL0     C86675  10.014   4.601   7.518  0.2326 -0.1523 -0.2974
  629MOL0     C86676  10.005   4.743   7.561  0.7207 -0.3005  0.2905
  629MOL0     C86677  10.033   4.835   7.451 -0.2629  0.1728  0.3240
  629MOL0     C86678   9.983   4.981   7.476 -0.4199  0.8404  0.0504
  629MOL0     C86679  10.027   5.053   7.601 -0.3002  0.0651  0.0451
  629MOL0     C86680  10.175   5.082   7.613 -0.3045 -0.0718  0.1894
  629MOL0     N86681  10.220   5.212   7.667 -0.5994  0.5293 -0.1931
  629MOL0     C86682  10.308   5.292   7.598  0.7554 -0.0672  0.1911
  629MOL0     C86683  10.319   5.402   7.684 -0.2804 -0.3536  0.4279
  629MOL0     C86684  10.416   5.519   7.672 -0.3626 -0.2683  0.3255
  629MOL0     C86685  10.552   5.474   7.717 -0.4391 -0.7377  0.1060
  629MOL0     C86686  10.649   5.591   7.744 -0.0761  0.6099  0.1590
  629MOL0     C86687  10.662   5.704   7.635  0.0486 -0.3710 -0.8680
  629MOL0     O86688  10.711   5.664   7.508  0.3323 -0.2958  0.2848
  629MOL0     C86689  10.711   5.752   7.398  0.9489  0.0333 -0.9012
  629MOL0     C86690  10.749   5.706   7.273 -0.5276  0.0461 -0.3619
  629MOL0     C86691  10.735   5.791   7.156 -0.5147  0.1778  0.3792
  629MOL0     C86692  10.785   5.724   7.032  0.7004  0.5708 -0.4183
  629MOL0     C86693  10.692   5.919   7.174  0.8733 -0.4079 -0.2359
  629MOL0     C86694  10.688   6.022   7.073 -0.2140 -0.8384 -0.5118
  629MOL0     O86695  10.703   6.148   7.125  0.4168  0.1036 -0.3621
  629MOL0     C86696  10.690   6.248   7.035 -1.1418 -1.4241  0.1124
  629MOL0     C86697  10.613   6.362   7.076 -0.4469  1.0987  0.2180
  629MOL0     C86698  10.597   6.467   6.992  0.3381 -0.1746 -0.0028
  629MOL0     C86699  10.671   6.471   6.875  0.3694  0.4170  0.7434
  629MOL0     O86700  10.652   6.576   6.785  0.0424  0.2738 -0.7337
  629MOL0     C86701  10.729   6.595   6.671 -0.3262  0.4775  0.1090
  629MOL0     C86702  10.701   6.727   6.613  0.5551  0.4089 -0.0340
  629MOL0     C86703  10.787   6.767   6.501 -0.0052  0.3074 -0.3574
  629MOL0     C86704  10.748   6.694   6.374  0.3491  0.9449 -0.3832
  629MOL0     C86705  10.832   6.753   6.258 -0.5652  0.5831  0.3622
  629MOL0     C86706  10.785   6.888   6.212 -0.6646  0.3511  1.2034
  629MOL0     C86707  10.649   6.877   6.148 -0.0661  0.8409 -0.2189
  629MOL0     C86708  10.597   7.007   6.086 -0.6908 -0.6210 -0.7012
  629MOL0    Cl86709  10.727   7.043   5.958 -0.2678  0.2941  0.2197
  629MOL0     C86710  10.756   6.364   6.842 -0.1607 -0.0484 -0.0813
  629MOL0     C86711  10.765   6.253   6.926  0.7643  0.8641 -0.3856
  629MOL0     O86712  10.652   5.989   6.963  0.1409  0.0407 -0.1839
  629MOL0     C86713  10.657   5.958   7.306 -0.3445 -0.2179 -0.5768
  629MOL0     C86714  10.659   5.881   7.413  0.3437 -0.6865  0.1381
  629MOL0     N86715  10.257   5.378   7.810 -0.6161 -0.5598 -0.2011
  629MOL0     N86716  10.199   5.261   7.793 -0.8107 -0.3864  0.3282
  629MOL0     C86717  10.081   4.157   7.885  0.2519  0.4546  0.7700
  629MOL0     C86718  10.090   4.013   7.867 -0.7378  0.2466 -0.1963
  629MOL0     C86719  10.170   3.670   7.551  0.5603 -0.3283  0.1350
  629MOL0     C86720  10.306   3.678   7.530 -0.6105 -0.0118  0.2279
  629MOL0     C86721  10.381   3.590   7.451 -0.4712  0.0303  0.0013
  629MOL0     C86722  10.311   3.488   7.382  0.1344  0.4929 -1.0177
  629MOL0     O86723  10.372   3.401   7.298  0.4993 -0.2611  0.3641
  629MOL0     C86724  10.433   3.478   7.193 -0.8646  0.9263 -0.5471
  629MOL0     C86725  10.587   3.495   7.223  1.1905  0.2493  0.6302
  629MOL0     C86726  10.636   3.640   7.253 -0.0003 -1.0323  0.0428
  629MOL0     C86727  10.687   3.708   7.130  0.7359  0.1604  0.8623
  629MOL0     C86728  10.584   3.728   7.032  0.2574  0.0795 -0.6057
  629MOL0     C86729  10.497   3.730   6.948  0.9622  0.0446  0.4641
  629MOL0     C86730  10.168   3.484   7.395  0.5617 -0.3298  0.3336
  629MOL0     C86731  10.103   3.570   7.480  0.2737 -0.4606  0.1535
  629MOL0     C86732   9.947   3.540   7.497 -0.4967  0.7887  0.1848
  629MOL0     H86733  10.211   4.013   7.549 -4.3515  0.1523 -2.2577
  629MOL0     H86734  10.175   4.254   7.573  1.0587  0.6230  0.4140
  629MOL0     H86735  10.210   4.436   7.637 -1.1515 -0.4932 -0.7800
  629MOL0     H86736  10.185   4.554   7.765 -0.7296 -0.7815  0.2328
  629MOL0     H86737   9.975   4.413   7.586 -0.3887  1.8401 -1.2793
  629MOL0     H86738   9.928   4.535   7.712 -0.3065 -0.3570 -0.4429
  629MOL0     H86739  10.105   4.597   7.457  1.0927  0.6562  0.9029
  629MOL0     H86740   9.927   4.580   7.454  1.9019  0.5044 -2.9615
  629MOL0     H86741   9.899   4.749   7.588  0.8210  1.1099  0.4190
  629MOL0     H86742  10.060   4.764   7.653 -0.5287  1.7228  0.6392
  629MOL0     H86743   9.997   4.792   7.357 -1.8616 -0.7192  1.2854
  629MOL0     H86744  10.140   4.853   7.435 -0.5132  0.4841 -1.1201
  629MOL0     H86745  10.024   5.039   7.394  0.8476  1.3324  0.9970
  629MOL0     H86746   9.874   4.976   7.469 -0.5864 -1.5242  2.5036
  629MOL0     H86747  10.015   4.985   7.687  2.6191 -1.9807 -1.0053
  629MOL0     H86748   9.974   5.147   7.616  1.3871  0.8971  1.1515
  629MOL0     H86749  10.228   5.006   7.671  1.8733 -2.0429 -3.9112
  629MOL0     H86750  10.221   5.059   7.516  0.8789 -1.1012  0.9577
  629MOL0     H86751  10.349   5.274   7.499  0.9648  1.1964  0.0236
  629MOL0     H86752  10.383   5.603   7.734  0.5845  0.6202 -0.3315
  629MOL0     H86753  10.418   5.563   7.572  2.4229 -0.6261  0.1293
  629MOL0     H86754  10.546   5.407   7.803 -0.1861 -1.9481 -0.7853
  629MOL0     H86755  10.588   5.409   7.637 -0.0691  0.3989 -0.6856
  629MOL0     H86756  10.608   5.645   7.829 -1.5453  1.7180 -1.1874
  629MOL0     H86757  10.746   5.548   7.771 -1.3424 -3.1169 -0.6153
  629MOL0     H86758  10.568   5.759   7.624  0.2705 -0.1645 -1.8249
  629MOL0     H86759  10.739   5.765   7.682 -0.8416  0.2699 -0.2041
  629MOL0     H86760  10.803   5.612   7.284  1.2620  0.8234 -2.0227
  629MOL0     H86761  10.874   5.780   7.002  1.7576 -1.1875 -0.7121
  629MOL0     H86762  10.713   5.730   6.950 -0.0468  2.2224  0.3120
  629MOL0     H86763  10.813   5.619   7.045  1.0938  0.3553 -2.6729
  629MOL0     H86764  10.570   6.358   7.176  0.7589 -1.6403  0.7117
  629MOL0     H86765  10.524   6.544   7.016  0.3447  0.4417 -1.8055
  629MOL0     H86766  10.833   6.599   6.702 -0.5109  2.1079  0.5787
  629MOL0     H86767  10.716   6.521   6.592  3.6600  1.0472 -1.3215
  629MOL0     H86768  10.598   6.734   6.576  0.1837  1.5830  1.1811
  629MOL0     H86769  10.714   6.801   6.692 -0.2396  3.0806 -2.2175
  629MOL0     H86770  10.893   6.749   6.523  0.0534 -1.1113 -1.7028
  629MOL0     H86771  10.779   6.876   6.494 -3.0051  0.1085 -1.0697
  629MOL0     H86772  10.642   6.691   6.350  0.3453 -2.5435 -0.5292
  629MOL0     H86773  10.781   6.590   6.385 -0.0683  0.8250 -0.2540
  629MOL0     H86774  10.936   6.761   6.292  0.5377  1.4927 -2.8982
  629MOL0     H86775  10.843   6.681   6.177 -0.7165  3.6021 -2.5311
  629MOL0     H86776  10.850   6.913   6.128 -2.7865 -2.1838 -1.4216
  629MOL0     H86777  10.806   6.962   6.289  1.5642  0.4123  0.6016
  629MOL0     H86778  10.566   6.838   6.208 -1.0997 -1.1140 -2.7507
  629MOL0     H86779  10.653   6.805   6.066  1.8426 -0.5499  1.0181
  629MOL0     H86780  10.587   7.101   6.141  0.4613  0.5143 -2.3366
  629MOL0     H86781  10.498   6.998   6.039 -1.2717  1.0830  0.1452
  629MOL0     H86782  10.814   6.353   6.750  0.7856 -2.6667  0.7238
  629MOL0     H86783  10.824   6.167   6.897 -2.2449 -1.4550 -0.1738
  629MOL0     H86784  10.616   6.058   7.320  2.8515  1.1398  0.2751
  629MOL0     H86785  10.621   5.936   7.499  0.3082  3.6326 -2.3888
  629MOL0     H86786  10.034   4.199   7.973 -2.2637 -1.5907  0.5255
  629MOL0     H86787  10.061   3.956   7.954  2.4969 -0.9292  0.2112
  629MOL0     H86788  10.352   3.753   7.593 -1.4861  1.9176 -1.3163
  629MOL0     H86789  10.489   3.581   7.445 -0.6886 -2.3951 -2.2666
  629MOL0     H86790  10.413   3.428   7.098 -2.3214  2.0827 -0.8810
  629MOL0     H86791  10.385   3.570   7.160 -0.4444  1.1886 -0.4285
  629MOL0     H86792  10.634   3.438   7.141  0.5531 -0.1944  0.5669
  629MOL0     H86793  10.613   3.445   7.316 -2.5537 -1.3163  1.0136
  629MOL0     H86794  10.569   3.715   7.296 -1.2491 -1.5864 -0.8773
  629MOL0     H86795  10.729   3.639   7.311  1.1770 -0.7626 -1.7353
  629MOL0     H86796  10.767   3.646   7.086  2.6008  3.0607 -0.1301
  629MOL0     H86797  10.734   3.804   7.152  0.8097  0.8035 -1.7748
  629MOL0     H86798  10.432   3.736   6.863  2.2840  2.4353 -0.4852
  629MOL0     H86799  10.121   3.408   7.333 -0.0151  0.8392 -0.7174
  629MOL0     H86800   9.929   3.519   7.603  0.5547  2.9781  0.8652
  629MOL0     H86801   9.870   3.612   7.468 -0.4318  1.1007  0.7728
  629MOL0     H86802   9.929   3.449   7.440 -1.3480  1.9374 -1.4540
  630MOL0     O86803   6.951   9.206   9.297  0.2403  0.1475  0.1410
  630MOL0     C86804   6.891   9.263   9.205  0.0147  1.2839 -0.9883
  630MOL0     O86805   6.803   9.208   9.120  0.6190 -0.3112  0.4156
  630MOL0     C86806   6.785   9.072   9.106 -0.0930 -0.4173  0.0315
  630MOL0     C86807   6.805   8.972   9.199  0.6178 -0.6122  0.0977
  630MOL0     C86808   6.773   8.837   9.166  0.6158  0.4760  0.7621
  630MOL0     C86809   6.732   8.797   9.036  0.0279 -0.2622 -0.5797
  630MOL0     O86810   6.718   8.663   8.996 -0.0838 -1.0303  0.6353
  630MOL0     C86811   6.747   8.555   9.081  1.0843 -0.2382 -0.9804
  630MOL0     C86812   6.652   8.536   9.202 -0.2428  0.6777  0.0567
  630MOL0     C86813   6.664   8.384   9.252 -0.2983 -0.6370 -0.5922
  630MOL0     C86814   6.552   8.342   9.335  0.4224  0.7667 -0.2391
  630MOL0     C86815   6.551   8.194   9.368 -0.5360 -0.4035 -0.2196
  630MOL0     C86816   6.418   8.146   9.416  0.0272  0.4177  0.1633
  630MOL0     C86817   6.422   8.010   9.492 -0.0820  0.1746  0.1893
  630MOL0     C86818   6.276   7.963   9.538  0.0520 -0.5246 -0.9183
  630MOL0     N86819   6.249   8.013   9.673  0.0655  0.3858 -0.5869
  630MOL0     C86820   6.203   8.143   9.702 -0.1463 -0.2513 -0.2990
  630MOL0     C86821   6.214   8.161   9.836  0.3775  0.4305  0.1496
  630MOL0     C86822   6.172   8.286   9.914  0.7406 -0.8309  0.0887
  630MOL0     C86823   6.193   8.421   9.835  0.8744  1.3224 -0.1290
  630MOL0     C86824   6.341   8.448   9.813  0.5630  0.1857  0.3655
  630MOL0     C86825   6.419   8.471   9.941 -0.4347 -0.6262  0.7721
  630MOL0     O86826   6.553   8.535   9.926  0.1912 -0.5115  0.2193
  630MOL0     C86827   6.644   8.481   9.840  0.0793  0.3209  1.8403
  630MOL0     C86828   6.669   8.344   9.822  0.2283 -0.3531 -0.4544
  630MOL0     C86829   6.757   8.296   9.725 -0.0918  0.6094 -0.5010
  630MOL0     C86830   6.761   8.145   9.719 -0.6063  0.4855 -0.8453
  630MOL0     C86831   6.831   8.381   9.633  0.8030  0.4698 -0.2133
  630MOL0     C86832   6.937   8.344   9.534 -0.3175 -0.0295  0.0015
  630MOL0     O86833   6.982   8.217   9.533 -0.4134  0.4815 -0.5633
  630MOL0     C86834   7.081   8.169   9.450 -0.1712 -0.3881 -0.1010
  630MOL0     C86835   7.105   8.031   9.448 -0.2557  0.3822  0.1934
  630MOL0     C86836   7.217   7.979   9.383 -0.0164 -0.3875 -0.3631
  630MOL0     C86837   7.308   8.057   9.312 -0.0091  0.9058  0.5969
  630MOL0     O86838   7.416   7.991   9.261  0.7426 -0.7474  0.3976
  630MOL0     C86839   7.452   8.021   9.118  0.3065 -0.3333  0.6049
  630MOL0     C86840   7.349   7.995   9.019 -1.5699 -0.3268  0.2899
  630MOL0     C86841   7.403   8.054   8.886 -0.4269  0.3280  0.2755
  630MOL0     C86842   7.289   8.085   8.788  0.0185  0.2089  0.3487
  630MOL0     C86843   7.333   8.140   8.648  0.1168  0.2284 -0.2224
  630MOL0     C86844   7.215   8.178   8.558 -0.1839  0.5377  0.0443
  630MOL0     C86845   7.110   8.074   8.538  0.1866 -0.9268 -0.0203
  630MOL0     C86846   7.022   8.117   8.422 -0.0100 -0.3434 -0.0949
  630MOL0    Cl86847   6.905   8.227   8.476 -0.1519  0.0462 -0.3852
  630MOL0     C86848   7.286   8.192   9.315 -0.5468  0.0443  0.0892
  630MOL0     C86849   7.177   8.249   9.384 -0.4661 -0.6516  0.3043
  630MOL0     O86850   6.974   8.436   9.460 -1.0996 -0.4433  0.5884
  630MOL0     C86851   6.797   8.516   9.654  0.1527  0.0557 -0.1505
  630MOL0     C86852   6.716   8.569   9.753 -0.7215 -0.0786  0.4822
  630MOL0     N86853   6.268   8.045   9.892  0.1233 -0.1226 -0.6236
  630MOL0     N86854   6.289   7.957   9.789  0.0348 -0.4140 -0.7046
  630MOL0     C86855   6.720   8.909   8.939 -0.5613 -0.5212  0.6045
  630MOL0     C86856   6.751   9.042   8.975 -0.4374  0.5392 -0.2761
  630MOL0     C86857   6.906   9.412   9.207 -0.3613  0.7001 -0.7327
  630MOL0     C86858   6.869   9.479   9.328  0.1104 -0.2622 -0.2385
  630MOL0     C86859   6.868   9.617   9.338  0.1150  0.4267  0.2323
  630MOL0     C86860   6.911   9.691   9.226 -0.1641  0.0816 -0.2225
  630MOL0     O86861   6.932   9.820   9.234  0.6413 -1.3166  0.1331
  630MOL0     C86862   7.052   9.845   9.303 -0.6155 -0.2742 -0.2123
  630MOL0     C86863   7.122   9.973   9.269 -0.2952  0.4785  0.3326
  630MOL0     C86864   7.189   9.958   9.131  0.1397  0.2080 -0.0387
  630MOL0     C86865   7.285  10.066   9.086 -0.1165  0.3131 -0.0854
  630MOL0     C86866   7.399  10.061   9.177 -0.4875 -0.3197 -0.5238
  630MOL0     C86867   7.492  10.055   9.251 -0.8738 -0.5249 -0.0431
  630MOL0     C86868   6.941   9.625   9.104 -0.2774  0.8060  0.6783
  630MOL0     C86869   6.941   9.492   9.091 -0.3352  0.3558 -0.1074
  630MOL0     C86870   6.977   9.440   8.961  0.1798 -0.6860 -0.2095
  630MOL0     H86871   6.830   8.981   9.304  1.8086 -2.2107 -0.0052
  630MOL0     H86872   6.800   8.767   9.245  0.4269  1.7015  1.9488
  630MOL0     H86873   6.851   8.556   9.117  0.3680 -1.2763  1.2380
  630MOL0     H86874   6.728   8.469   9.017 -2.2595 -1.5799  1.5543
  630MOL0     H86875   6.694   8.587   9.289  0.7812  2.8843 -1.6226
  630MOL0     H86876   6.552   8.579   9.188 -0.9831 -0.5282  1.3657
  630MOL0     H86877   6.664   8.323   9.161  0.0042  1.3692 -2.0002
  630MOL0     H86878   6.762   8.373   9.298 -0.6096 -1.7442 -0.1536
  630MOL0     H86879   6.562   8.388   9.434  1.7029  0.1851 -0.0760
  630MOL0     H86880   6.464   8.372   9.278  1.4336  2.2889 -1.0695
  630MOL0     H86881   6.631   8.185   9.442 -2.0230  2.1124  1.8999
  630MOL0     H86882   6.579   8.143   9.276 -1.7465 -0.7690 -0.4053
  630MOL0     H86883   6.374   8.225   9.477 -1.4382  0.1629 -0.5274
  630MOL0     H86884   6.354   8.145   9.327  0.4721  0.7617 -0.1728
  630MOL0     H86885   6.477   8.028   9.585  0.7873  1.2630 -0.5154
  630MOL0     H86886   6.477   7.936   9.432 -0.0310 -1.6598  2.3404
  630MOL0     H86887   6.204   7.977   9.457 -0.0418  4.3641 -0.3160
  630MOL0     H86888   6.284   7.854   9.546  2.7027 -0.4354 -1.2836
  630MOL0     H86889   6.180   8.222   9.632  0.1203 -2.0399 -2.5336
  630MOL0     H86890   6.227   8.283  10.009  2.6953 -1.8018 -1.0229
  630MOL0     H86891   6.066   8.275   9.939  1.2511 -0.7322  2.5812
  630MOL0     H86892   6.142   8.410   9.739 -3.9721 -0.0296  2.3041
  630MOL0     H86893   6.149   8.497   9.901 -0.6323  0.7502 -0.4449
  630MOL0     H86894   6.384   8.380   9.739 -0.5275  1.3884 -1.4796
  630MOL0     H86895   6.334   8.538   9.750 -0.2396  1.1107  1.7282
  630MOL0     H86896   6.354   8.537   9.999 -1.7135  0.1701 -1.4544
  630MOL0     H86897   6.434   8.385  10.006  0.4569 -0.0274  1.3925
  630MOL0     H86898   6.628   8.279   9.899  1.8570 -0.2889  0.5137
  630MOL0     H86899   6.817   8.114   9.807 -0.8300  2.1328 -0.0818
  630MOL0     H86900   6.790   8.102   9.623 -0.2873 -0.5731 -0.2900
  630MOL0     H86901   6.660   8.104   9.732  0.7668 -2.9764  0.0572
  630MOL0     H86902   7.036   7.968   9.503 -1.3716  1.6113  0.2613
  630MOL0     H86903   7.236   7.874   9.400  0.1596 -0.2333  0.4532
  630MOL0     H86904   7.480   8.126   9.109  0.0940 -0.4593 -2.7306
  630MOL0     H86905   7.545   7.969   9.090 -0.6757 -1.9790  0.2703
  630MOL0     H86906   7.343   7.890   8.988  2.4371 -0.0283 -2.1852
  630MOL0     H86907   7.251   8.038   9.041 -1.0067  0.7881  0.6702
  630MOL0     H86908   7.469   7.980   8.838  0.5509  1.6199 -0.4551
  630MOL0     H86909   7.469   8.139   8.906 -0.0581  0.7627 -2.3294
  630MOL0     H86910   7.218   8.156   8.832  0.5919  1.8033 -1.1598
  630MOL0     H86911   7.242   7.988   8.770 -1.0951  1.1804 -2.5465
  630MOL0     H86912   7.400   8.227   8.651 -2.2387  2.0959  2.0135
  630MOL0     H86913   7.390   8.061   8.597  1.7692  0.3114  1.3751
  630MOL0     H86914   7.257   8.200   8.460 -0.1031 -0.4879 -0.1601
  630MOL0     H86915   7.158   8.266   8.589  1.0946  1.3740  0.0713
  630MOL0     H86916   7.045   8.063   8.625 -3.5536  2.0738 -2.1495
  630MOL0     H86917   7.160   7.979   8.518  1.0047 -1.6555  4.3878
  630MOL0     H86918   6.967   8.030   8.386 -0.7136  0.7289 -1.7214
  630MOL0     H86919   7.079   8.162   8.340  3.7862 -2.5148  1.0996
  630MOL0     H86920   7.371   8.242   9.269  0.9903 -1.9403  0.6639
  630MOL0     H86921   7.187   8.356   9.399  0.3359 -0.5403 -0.8228
  630MOL0     H86922   6.844   8.591   9.592 -0.2755 -1.2255 -2.1056
  630MOL0     H86923   6.717   8.676   9.768  0.8104 -0.0541  0.3146
  630MOL0     H86924   6.714   8.877   8.835  0.6121 -2.6613  1.1316
  630MOL0     H86925   6.756   9.121   8.901  3.4024  0.8186  0.0892
  630MOL0     H86926   6.850   9.429   9.422 -1.0340  3.6169  1.8106
  630MOL0     H86927   6.850   9.665   9.433 -1.7904 -1.1452  0.7384
  630MOL0     H86928   7.028   9.834   9.409  0.9627 -2.0034  0.0322
  630MOL0     H86929   7.126   9.768   9.279 -0.5162 -0.1718 -0.2320
  630MOL0     H86930   7.198  10.005   9.340 -1.5393  1.9570  1.0665
  630MOL0     H86931   7.058  10.061   9.253 -0.0605  0.6470  0.3200
  630MOL0     H86932   7.232   9.859   9.115 -2.7232 -0.9169 -1.4198
  630MOL0     H86933   7.102   9.971   9.066 -0.4378  0.3045  0.7395
  630MOL0     H86934   7.230  10.159   9.074 -1.9445 -1.0182 -3.0582
  630MOL0     H86935   7.327  10.042   8.988  1.4624 -0.1206  0.6626
  630MOL0     H86936   7.587  10.062   9.302  0.4655 -0.7413 -2.3705
  630MOL0     H86937   6.957   9.694   9.021 -3.6821  1.9962  0.8224
  630MOL0     H86938   7.086   9.435   8.956  0.3384  0.1722  1.7360
  630MOL0     H86939   6.941   9.336   8.956  1.2158 -1.0651  0.0608
  630MOL0     H86940   6.935   9.495   8.876  0.8986 -1.4902 -1.1127
  631MOL0     O86941   4.291   9.165   8.877 -0.3101 -0.1037  0.5482
  631MOL0     C86942   4.335   9.263   8.816  0.5939  0.1122  1.1462
  631MOL0     O86943   4.400   9.258   8.698 -0.1969 -0.2091 -0.1509
  631MOL0     C86944   4.399   9.146   8.622  0.6447 -0.2155 -1.1445
  631MOL0     C86945   4.298   9.143   8.523 -0.5306 -0.4084 -0.5262
  631MOL0     C86946   4.301   9.026   8.439  0.2778 -0.0439 -0.0986
  631MOL0     C86947   4.384   8.916   8.469  0.5098 -0.3117 -0.4060
  631MOL0     O86948   4.358   8.808   8.378  0.1344  0.4282  0.4241
  631MOL0     C86949   4.432   8.682   8.413  0.0704 -0.6111  0.2027
  631MOL0     C86950   4.381   8.560   8.332  0.1728 -0.0183  0.9432
  631MOL0     C86951   4.467   8.443   8.384  0.0000 -0.2468 -0.0685
  631MOL0     C86952   4.421   8.298   8.335 -0.6713 -0.2639 -0.2390
  631MOL0     C86953   4.518   8.187   8.353 -0.0622 -0.8576  1.1483
  631MOL0     C86954   4.559   8.160   8.500 -0.2346  0.4583  0.2435
  631MOL0     C86955   4.634   8.025   8.518 -0.5466 -0.1834 -0.1615
  631MOL0     C86956   4.687   7.998   8.659 -0.2985 -0.9611  0.1754
  631MOL0     N86957   4.747   7.870   8.668 -0.7943 -0.1439  0.5671
  631MOL0     C86958   4.690   7.761   8.736  0.0496  0.7693  0.0045
  631MOL0     C86959   4.774   7.662   8.711  0.3404 -0.4174  0.0630
  631MOL0     C86960   4.748   7.527   8.752  0.2219  0.2641 -0.1503
  631MOL0     C86961   4.592   7.489   8.767 -0.0685  0.9814  0.3551
  631MOL0     C86962   4.561   7.332   8.782  0.8547 -0.2232  1.3539
  631MOL0     C86963   4.419   7.298   8.762 -0.4345  0.4196  0.0823
  631MOL0     O86964   4.400   7.159   8.779 -0.3616 -0.2298 -0.5248
  631MOL0     C86965   4.286   7.095   8.727 -0.2441  0.0473  0.5718
  631MOL0     C86966   4.189   7.149   8.647  0.2747 -0.0571 -0.1968
  631MOL0     C86967   4.076   7.074   8.596  0.9004  0.6479  0.1734
  631MOL0     C86968   3.983   7.140   8.497 -0.1637 -0.5598  0.2906
  631MOL0     C86969   4.073   6.936   8.631  0.0788  0.2705 -0.3182
  631MOL0     C86970   3.967   6.841   8.604  0.2161 -0.5493  0.1590
  631MOL0     O86971   3.993   6.706   8.577 -0.1748  0.5517 -0.4503
  631MOL0     C86972   3.893   6.613   8.587  0.8682  0.1806 -0.3573
  631MOL0     C86973   3.779   6.615   8.510 -0.7745 -0.4426 -0.6273
  631MOL0     C86974   3.673   6.528   8.529 -0.4175  0.1586 -0.0454
  631MOL0     C86975   3.675   6.435   8.629 -0.5823 -0.0756 -0.1692
  631MOL0     O86976   3.556   6.370   8.663  0.2222 -0.5203  0.3571
  631MOL0     C86977   3.542   6.293   8.786 -1.4100 -0.4420  0.0101
  631MOL0     C86978   3.405   6.227   8.787  0.3473  0.5050  0.7408
  631MOL0     C86979   3.308   6.284   8.897  0.5314  0.6265 -0.3684
  631MOL0     C86980   3.200   6.183   8.964 -0.6115  0.1575 -0.1041
  631MOL0     C86981   3.088   6.248   9.044  0.2027 -0.5953 -0.3526
  631MOL0     C86982   2.988   6.143   9.095  0.1298 -0.5421  0.7226
  631MOL0     C86983   2.870   6.208   9.166  0.5762  0.0006 -1.0271
  631MOL0     C86984   2.744   6.160   9.094 -0.4722  0.5527  0.4890
  631MOL0    Cl86985   2.730   5.977   9.095 -0.4030 -0.1719 -0.4204
  631MOL0     C86986   3.796   6.421   8.713 -0.2513 -0.1241  0.3564
  631MOL0     C86987   3.900   6.509   8.688 -1.0528 -0.0306 -0.2978
  631MOL0     O86988   3.858   6.893   8.583 -0.9432 -0.4441 -0.1669
  631MOL0     C86989   4.192   6.882   8.698  1.1629  1.0834  0.0041
  631MOL0     C86990   4.294   6.956   8.747 -0.3753  0.3604 -0.5919
  631MOL0     N86991   4.884   7.709   8.645 -0.4550 -0.3401  0.0624
  631MOL0     N86992   4.873   7.837   8.625  0.1616 -0.4560  0.1047
  631MOL0     C86993   4.474   8.921   8.574  0.1355 -0.2980  0.6602
  631MOL0     C86994   4.474   9.039   8.656  0.5636  0.1202  0.7431
  631MOL0     C86995   4.309   9.395   8.877  0.1377 -0.1898  0.5980
  631MOL0     C86996   4.375   9.497   8.807  0.2463  0.0634 -1.0282
  631MOL0     C86997   4.374   9.629   8.846  0.8073  0.2252  0.0775
  631MOL0     C86998   4.305   9.667   8.955 -1.1681 -0.5187  0.9833
  631MOL0     O86999   4.290   9.792   9.003 -0.5315 -0.0811  0.3447
  631MOL0     C87000   4.368   9.888   8.937  0.1658 -0.1954 -0.0488
  631MOL0     C87001   4.314  10.026   8.983 -0.3545 -1.0312 -0.1917
  631MOL0     C87002   4.365  10.145   8.894  0.6736  0.6283  0.1642
  631MOL0     C87003   4.277  10.157   8.767  0.1090 -0.5251 -0.6959
  631MOL0     C87004   4.210  10.035   8.718  0.4354 -0.8321  0.3301
  631MOL0     C87005   4.160   9.933   8.672  0.0719 -0.3320  0.1947
  631MOL0     C87006   4.227   9.570   9.018 -0.2762 -0.9463  0.3134
  631MOL0     C87007   4.229   9.435   8.982  0.3889  0.2491 -0.3294
  631MOL0     C87008   4.162   9.333   9.075 -0.0556 -0.4060 -0.5125
  631MOL0     H87009   4.216   9.213   8.504  0.5615  0.6627 -1.4513
  631MOL0     H87010   4.233   9.010   8.356 -0.5360 -0.0543  0.5567
  631MOL0     H87011   4.414   8.661   8.519 -3.3030  0.8809  0.0284
  631MOL0     H87012   4.538   8.708   8.400 -0.0444  0.2928  0.9476
  631MOL0     H87013   4.275   8.543   8.351 -0.3942 -0.4501 -2.1952
  631MOL0     H87014   4.394   8.572   8.224  0.1081 -1.5727  0.7500
  631MOL0     H87015   4.575   8.451   8.368 -0.0979  1.9224  0.1593
  631MOL0     H87016   4.448   8.446   8.491 -2.8948  0.4353 -0.5246
  631MOL0     H87017   4.330   8.279   8.392 -0.5015 -1.1194 -0.2394
  631MOL0     H87018   4.405   8.317   8.228  1.7859  0.5452 -0.5403
  631MOL0     H87019   4.611   8.202   8.297 -0.8703 -1.9893 -0.5823
  631MOL0     H87020   4.471   8.100   8.306  3.0530 -1.4079 -1.2668
  631MOL0     H87021   4.632   8.235   8.533 -2.9813  3.4676 -0.0319
  631MOL0     H87022   4.473   8.164   8.568  1.2221  2.5602  2.1338
  631MOL0     H87023   4.723   8.019   8.454 -0.8383  1.0284 -0.7117
  631MOL0     H87024   4.564   7.948   8.486 -1.2451  0.9459 -1.4677
  631MOL0     H87025   4.748   8.085   8.688 -2.2812  1.1527 -1.5864
  631MOL0     H87026   4.602   8.003   8.728  1.3452  1.7659  2.2587
  631MOL0     H87027   4.589   7.759   8.777  0.5004  0.1600  1.1287
  631MOL0     H87028   4.800   7.508   8.847  2.1669 -0.1015 -1.2469
  631MOL0     H87029   4.781   7.467   8.667 -1.0180 -0.8741  0.1355
  631MOL0     H87030   4.553   7.541   8.855 -3.6510  3.2378 -2.2769
  631MOL0     H87031   4.545   7.532   8.678 -1.3010 -2.3858 -0.8112
  631MOL0     H87032   4.623   7.268   8.718  1.5837  0.2177  1.5981
  631MOL0     H87033   4.583   7.291   8.881  2.7867 -3.3458 -0.1923
  631MOL0     H87034   4.364   7.345   8.844  5.3064  0.4382  4.5375
  631MOL0     H87035   4.383   7.329   8.663  0.2415 -2.2079 -1.0772
  631MOL0     H87036   4.207   7.251   8.612 -1.6349 -0.3781 -2.3497
  631MOL0     H87037   3.963   7.244   8.525  0.7987  0.5012 -2.6205
  631MOL0     H87038   3.886   7.093   8.478 -0.2183 -0.8889  1.3413
  631MOL0     H87039   4.041   7.160   8.406 -0.7363  3.4877  0.6098
  631MOL0     H87040   3.762   6.692   8.435 -0.9113 -0.7830 -0.9517
  631MOL0     H87041   3.590   6.545   8.461  0.0480 -0.3718 -0.7676
  631MOL0     H87042   3.620   6.217   8.800 -1.4571 -0.5426 -0.2691
  631MOL0     H87043   3.564   6.355   8.874  2.2202  0.3632 -1.2799
  631MOL0     H87044   3.372   6.253   8.686 -0.9965  0.9969  1.2786
  631MOL0     H87045   3.414   6.120   8.810 -0.3532  0.1589 -0.4723
  631MOL0     H87046   3.256   6.373   8.862 -0.9029 -0.5639 -1.4232
  631MOL0     H87047   3.379   6.312   8.975 -0.2015 -1.4746  1.1567
  631MOL0     H87048   3.242   6.110   9.033  0.5605  1.1727  0.2921
  631MOL0     H87049   3.148   6.125   8.887  0.9878 -2.3093  0.5409
  631MOL0     H87050   3.131   6.304   9.128  0.0523  0.2933 -0.8568
  631MOL0     H87051   3.047   6.326   8.979  0.1242 -0.2548  0.1003
  631MOL0     H87052   3.043   6.080   9.165  1.5165  1.2751  1.3620
  631MOL0     H87053   2.960   6.096   9.001  1.8847 -0.0192 -0.0976
  631MOL0     H87054   2.868   6.316   9.176 -2.9188 -0.0255 -0.1287
  631MOL0     H87055   2.861   6.173   9.269 -2.3842 -0.6996 -1.4364
  631MOL0     H87056   2.742   6.180   8.986  2.1825 -2.4677 -0.2699
  631MOL0     H87057   2.651   6.200   9.137 -2.3625 -4.0416  1.1955
  631MOL0     H87058   3.811   6.356   8.799 -1.4300  0.2069  0.8376
  631MOL0     H87059   3.991   6.507   8.747  0.8607  1.5216 -2.9850
  631MOL0     H87060   4.184   6.777   8.727  0.8153  0.4461 -2.2456
  631MOL0     H87061   4.376   6.919   8.807 -0.4237 -0.3647 -0.9627
  631MOL0     H87062   4.544   8.841   8.595  0.5579 -0.0108  0.3661
  631MOL0     H87063   4.544   9.043   8.739 -1.0985 -2.8196  2.4685
  631MOL0     H87064   4.433   9.490   8.715  3.5208 -2.4154  0.9980
  631MOL0     H87065   4.449   9.691   8.798  1.0436 -0.0078  0.1458
  631MOL0     H87066   4.473   9.869   8.960 -0.2316 -0.7926  1.4096
  631MOL0     H87067   4.364   9.876   8.829 -1.7032 -0.8444  0.0585
  631MOL0     H87068   4.357  10.040   9.083  1.8910  0.0764 -1.2325
  631MOL0     H87069   4.205  10.030   8.991 -0.2495 -0.3550  1.2973
  631MOL0     H87070   4.368  10.237   8.952 -0.0213 -0.0662  1.3401
  631MOL0     H87071   4.463  10.114   8.858  0.7333 -2.2626  2.3927
  631MOL0     H87072   4.332  10.189   8.678  0.9108 -1.3851 -0.5126
  631MOL0     H87073   4.204  10.237   8.784  0.5559  0.4378 -2.8788
  631MOL0     H87074   4.122   9.848   8.618  0.3917  0.5486 -1.5064
  631MOL0     H87075   4.175   9.605   9.106  1.3454 -2.1231  1.8162
  631MOL0     H87076   4.057   9.323   9.045 -0.8540  1.0043  1.5530
  631MOL0     H87077   4.211   9.235   9.085 -0.2889 -0.7107 -2.1905
  631MOL0     H87078   4.157   9.382   9.173 -2.2654 -0.8130 -0.3744
  632MOL0     O87079   2.807   6.998   5.943  0.0119  0.2478 -0.3440
  632MOL0     C87080   2.728   7.076   6.000  0.0498 -0.7262 -0.1814
  632MOL0     O87081   2.660   7.177   5.936  0.6136  0.7813 -0.7435
  632MOL0     C87082   2.692   7.217   5.803 -0.1724 -0.0438 -1.0737
  632MOL0     C87083   2.632   7.162   5.693  0.3258  0.0437 -0.7672
  632MOL0     C87084   2.659   7.220   5.567 -0.8562 -0.2575 -0.0636
  632MOL0     C87085   2.742   7.330   5.554 -0.4091  0.0149  0.8705
  632MOL0     O87086   2.758   7.407   5.438  0.0222 -0.3879  0.2756
  632MOL0     C87087   2.740   7.338   5.312  0.5050 -0.7518 -0.4863
  632MOL0     C87088   2.729   7.449   5.200  0.0013  0.5309 -0.1616
  632MOL0     C87089   2.864   7.514   5.165 -0.0766 -0.1153  0.1132
  632MOL0     C87090   2.950   7.432   5.070 -0.3813  0.6147 -0.0999
  632MOL0     C87091   3.089   7.489   5.060 -0.7962 -0.1475 -0.6218
  632MOL0     C87092   3.187   7.414   4.968  0.3236  0.0008 -0.3810
  632MOL0     C87093   3.315   7.491   4.952  0.3045  0.2646  0.0953
  632MOL0     C87094   3.414   7.432   4.845 -0.3096 -0.8011 -0.1650
  632MOL0     N87095   3.492   7.321   4.895  0.8494  0.7499 -0.1562
  632MOL0     C87096   3.615   7.326   4.946 -0.1667  0.0408  0.7195
  632MOL0     C87097   3.654   7.195   4.949  0.8417 -1.1435 -0.8432
  632MOL0     C87098   3.780   7.148   4.995  0.0136  0.0704  0.4986
  632MOL0     C87099   3.882   7.145   4.883 -0.1918  0.1101 -0.1147
  632MOL0     C87100   3.861   7.038   4.777 -0.0878 -0.0423  0.1103
  632MOL0     C87101   3.989   7.006   4.688 -0.6703 -0.0894  1.0070
  632MOL0     O87102   4.105   6.953   4.761 -0.7834 -0.1375 -0.3079
  632MOL0     C87103   4.230   7.008   4.751  0.7758 -0.4459  0.4907
  632MOL0     C87104   4.270   7.122   4.683  0.5176 -0.6087 -0.5544
  632MOL0     C87105   4.404   7.165   4.681 -0.4350  0.3863 -0.0790
  632MOL0     C87106   4.436   7.280   4.583 -0.8014  0.5425  0.0763
  632MOL0     C87107   4.501   7.107   4.763 -0.3473  1.9910  0.2077
  632MOL0     C87108   4.647   7.130   4.771 -0.7539 -0.7234  0.1382
  632MOL0     O87109   4.730   7.055   4.855 -0.1362 -0.5971  0.0588
  632MOL0     C87110   4.864   7.090   4.867  0.1169  0.1533  0.2132
  632MOL0     C87111   4.956   7.085   4.765 -0.0349 -0.4015  0.1042
  632MOL0     C87112   5.084   7.125   4.789 -0.1507 -0.9209  0.0428
  632MOL0     C87113   5.130   7.167   4.920  0.2196  0.5374  1.2801
  632MOL0     O87114   5.262   7.207   4.930  0.6904 -0.1000 -0.0409
  632MOL0     C87115   5.287   7.343   4.984 -0.3991 -0.0365  0.6789
  632MOL0     C87116   5.410   7.404   4.929  0.1213 -0.3476  0.7434
  632MOL0     C87117   5.539   7.338   4.981 -0.1149  0.0512 -0.3183
  632MOL0     C87118   5.671   7.401   4.927 -0.2893 -0.0947 -0.0524
  632MOL0     C87119   5.792   7.339   5.004  0.0137  0.0091 -0.2743
  632MOL0     C87120   5.916   7.421   4.981  0.3715 -0.2895 -0.3922
  632MOL0     C87121   6.035   7.368   5.055  0.3073  0.2554  0.1495
  632MOL0     C87122   6.149   7.463   5.077 -0.2127  0.4703 -0.9136
  632MOL0    Cl87123   6.289   7.372   5.145  0.3049 -0.2977  0.0731
  632MOL0     C87124   5.041   7.168   5.026  0.3235 -0.7448 -1.2794
  632MOL0     C87125   4.907   7.133   5.000  0.5641 -0.0544  0.2652
  632MOL0     O87126   4.694   7.204   4.686  0.4288 -0.2071  0.0542
  632MOL0     C87127   4.455   6.998   4.837 -0.0501 -0.0195 -1.3290
  632MOL0     C87128   4.327   6.944   4.827  0.0385  1.0921 -0.2422
  632MOL0     N87129   3.554   7.113   4.904 -0.0593  0.2416  0.8022
  632MOL0     N87130   3.463   7.194   4.874 -0.1606  0.5731  0.6630
  632MOL0     C87131   2.789   7.387   5.668  0.5422 -0.2945 -0.2220
  632MOL0     C87132   2.772   7.327   5.792 -0.1186  0.3275  0.2206
  632MOL0     C87133   2.697   7.066   6.139 -0.8028  0.3422  0.1780
  632MOL0     C87134   2.625   7.174   6.199  0.4149  0.2184  0.2836
  632MOL0     C87135   2.594   7.171   6.334  0.4873  0.3378  0.6750
  632MOL0     C87136   2.642   7.063   6.416 -0.0714  0.8611  0.0044
  632MOL0     O87137   2.625   7.057   6.555 -0.5544 -0.9556 -0.8266
  632MOL0     C87138   2.583   7.177   6.627 -0.2249  0.1930 -0.4772
  632MOL0     C87139   2.698   7.281   6.648 -0.9359 -0.1234 -0.3940
  632MOL0     C87140   2.839   7.216   6.690 -0.1692  0.0692  0.1374
  632MOL0     C87141   2.946   7.333   6.715 -0.0561  0.2428 -0.7568
  632MOL0     C87142   2.915   7.419   6.824 -0.5443 -0.2722 -0.4831
  632MOL0     C87143   2.884   7.487   6.921 -0.3254 -0.1594 -0.4833
  632MOL0     C87144   2.708   6.955   6.365  0.0398 -0.4632  1.4576
  632MOL0     C87145   2.744   6.959   6.227 -0.0449 -0.1855 -0.8622
  632MOL0     C87146   2.821   6.833   6.183  0.4254  0.0610 -0.1435
  632MOL0     H87147   2.552   7.089   5.704 -0.1608  0.7478  0.7847
  632MOL0     H87148   2.619   7.170   5.480 -0.7544 -1.1707  0.4021
  632MOL0     H87149   2.645   7.284   5.311  0.7731 -1.2189 -0.7257
  632MOL0     H87150   2.820   7.268   5.284 -1.4443 -2.9551 -0.8261
  632MOL0     H87151   2.701   7.408   5.102  0.0880 -0.7701  0.3426
  632MOL0     H87152   2.658   7.523   5.239  0.1856  0.2192  0.7898
  632MOL0     H87153   2.841   7.610   5.117  0.0926 -1.5962 -3.2269
  632MOL0     H87154   2.927   7.520   5.254 -0.2349  1.1255  0.1509
  632MOL0     H87155   2.964   7.329   5.106 -0.6384  0.5181 -0.2688
  632MOL0     H87156   2.899   7.438   4.974  1.1079  0.3423 -0.9284
  632MOL0     H87157   3.128   7.491   5.162  0.5471  0.4453 -1.1255
  632MOL0     H87158   3.093   7.596   5.040  0.0079 -0.0451  0.0432
  632MOL0     H87159   3.205   7.318   5.018  1.3974  0.0061 -0.7302
  632MOL0     H87160   3.137   7.393   4.873  2.4595 -1.5142 -1.2469
  632MOL0     H87161   3.358   7.488   5.053  1.1201 -1.6997 -0.2582
  632MOL0     H87162   3.288   7.595   4.933 -0.3117  0.6295  2.5935
  632MOL0     H87163   3.354   7.402   4.758 -2.7380 -2.4525  1.9279
  632MOL0     H87164   3.480   7.508   4.801 -0.7608 -0.5567 -0.4277
  632MOL0     H87165   3.678   7.409   4.977  0.1127  0.6928 -1.4549
  632MOL0     H87166   3.769   7.049   5.042 -2.4706 -0.6889 -1.4909
  632MOL0     H87167   3.809   7.222   5.071  1.1018 -2.9136  3.2436
  632MOL0     H87168   3.879   7.240   4.830 -1.8060  1.8582  2.8593
  632MOL0     H87169   3.987   7.139   4.914  1.2806  4.9799 -2.9715
  632MOL0     H87170   3.842   6.940   4.822  1.7986  0.0541  1.2267
  632MOL0     H87171   3.771   7.056   4.717 -0.4573 -2.6869 -0.2835
  632MOL0     H87172   3.954   6.937   4.611 -2.8918  1.0263  0.9326
  632MOL0     H87173   4.013   7.105   4.649  3.1193  0.2233  3.6556
  632MOL0     H87174   4.191   7.169   4.626  0.6436 -0.1260 -0.3308
  632MOL0     H87175   4.480   7.367   4.631  5.5637 -0.3206 -3.1010
  632MOL0     H87176   4.347   7.299   4.522 -0.9300  2.2506  0.7531
  632MOL0     H87177   4.523   7.256   4.521  0.4510 -0.3325  2.0632
  632MOL0     H87178   4.925   7.046   4.669 -1.7705 -2.0625  1.2636
  632MOL0     H87179   5.155   7.133   4.708 -0.2202  3.7301  0.1820
  632MOL0     H87180   5.204   7.413   4.967 -2.6450 -2.8166 -0.6601
  632MOL0     H87181   5.296   7.329   5.092  0.1337 -1.2583  0.4947
  632MOL0     H87182   5.413   7.389   4.821 -0.5468 -1.3850  0.8524
  632MOL0     H87183   5.407   7.511   4.950 -2.9784 -0.5240  1.5736
  632MOL0     H87184   5.528   7.230   4.966 -0.5104 -0.0005  0.2981
  632MOL0     H87185   5.540   7.343   5.090 -1.2948 -2.5421 -0.1012
  632MOL0     H87186   5.670   7.509   4.943  2.6055  0.0817 -0.5132
  632MOL0     H87187   5.694   7.387   4.821 -0.1749 -2.3150  0.2105
  632MOL0     H87188   5.778   7.326   5.112  1.8669 -3.6463 -0.3073
  632MOL0     H87189   5.814   7.237   4.971  0.5252  0.5967 -1.8329
  632MOL0     H87190   5.895   7.519   5.026 -0.5850  0.2232 -1.8836
  632MOL0     H87191   5.946   7.419   4.876 -1.9299 -3.4874 -1.1423
  632MOL0     H87192   6.078   7.278   5.009  0.6115  0.4375  0.0724
  632MOL0     H87193   5.995   7.344   5.154  0.9917  1.5908  0.7712
  632MOL0     H87194   6.129   7.535   5.156 -0.4507 -0.8031  0.2201
  632MOL0     H87195   6.178   7.522   4.989  2.9336  4.3909  2.3660
  632MOL0     H87196   5.065   7.182   5.131  1.0894  0.0135 -1.5430
  632MOL0     H87197   4.834   7.137   5.080 -1.9092 -1.2345 -1.7741
  632MOL0     H87198   4.526   6.932   4.886 -0.8609 -0.2992 -0.4883
  632MOL0     H87199   4.291   6.852   4.872  3.4627  0.0986  0.7331
  632MOL0     H87200   2.836   7.483   5.648 -0.4148  0.2952  0.2491
  632MOL0     H87201   2.826   7.376   5.872  1.4079 -2.8180  1.2596
  632MOL0     H87202   2.579   7.256   6.145 -1.3178  0.6399  2.2863
  632MOL0     H87203   2.516   7.234   6.377  0.6082  0.4894  0.6702
  632MOL0     H87204   2.494   7.232   6.592  1.4729  3.0084 -0.6588
  632MOL0     H87205   2.548   7.141   6.724  0.6323 -1.9441 -0.8930
  632MOL0     H87206   2.653   7.352   6.718 -0.3191 -0.6400  0.5412
  632MOL0     H87207   2.723   7.327   6.552 -0.4942 -1.4649 -0.9426
  632MOL0     H87208   2.828   7.149   6.776  2.4796 -0.8999 -0.1853
  632MOL0     H87209   2.864   7.162   6.599 -4.5861 -1.7349 -0.2555
  632MOL0     H87210   2.959   7.394   6.625  1.5877 -1.8794 -2.0593
  632MOL0     H87211   3.045   7.287   6.721  0.5429  1.4836 -0.8023
  632MOL0     H87212   2.863   7.565   6.991  0.6871  0.4947 -0.8937
  632MOL0     H87213   2.739   6.873   6.429  0.7890  0.7616  2.7024
  632MOL0     H87214   2.829   6.756   6.260  0.7669  1.8467  1.6776
  632MOL0     H87215   2.769   6.799   6.093  1.6975 -0.0877 -0.8512
  632MOL0     H87216   2.922   6.859   6.149  0.6054 -3.1037 -2.5100
  633MOL0     O87217   8.356   9.650   4.301 -0.1645 -0.3416  0.0050
  633MOL0     C87218   8.430   9.562   4.253 -0.5220 -0.2601  0.0022
  633MOL0     O87219   8.452   9.546   4.124  0.1357 -0.9893  0.7910
  633MOL0     C87220   8.424   9.647   4.031 -0.1260  0.7218  0.0549
  633MOL0     C87221   8.417   9.788   4.052  1.0380 -0.2579  0.4800
  633MOL0     C87222   8.391   9.879   3.947  0.2226  1.1996 -0.0551
  633MOL0     C87223   8.367   9.826   3.814 -0.8975 -0.0534 -0.3802
  633MOL0     O87224   8.352   9.913   3.711 -0.0137 -0.2020 -0.6326
  633MOL0     C87225   8.455  10.007   3.701  0.1282  0.1784 -0.7022
  633MOL0     C87226   8.430  10.093   3.576 -0.7959 -0.3127 -0.1546
  633MOL0     C87227   8.415  10.014   3.446  0.6871 -1.0836 -0.5242
  633MOL0     C87228   8.540   9.918   3.419 -0.0615 -0.5110  0.0304
  633MOL0     C87229   8.521   9.838   3.293  0.1591 -0.1170 -0.2607
  633MOL0     C87230   8.632   9.747   3.266  0.3733  0.4832  0.3676
  633MOL0     C87231   8.741   9.814   3.172  0.6211 -0.7827 -0.7537
  633MOL0     C87232   8.878   9.748   3.179 -0.4153 -0.0239  0.4516
  633MOL0     N87233   8.991   9.832   3.135 -0.6737  0.3454  0.4361
  633MOL0     C87234   9.122   9.827   3.191  0.6271  1.1181 -1.0487
  633MOL0     C87235   9.199   9.920   3.130  0.4456  0.8524 -0.1688
  633MOL0     C87236   9.344   9.941   3.171 -0.4503  0.5110  0.5802
  633MOL0     C87237   9.433   9.817   3.154 -0.5391 -0.5645 -0.2266
  633MOL0     C87238   9.559   9.802   3.246  0.1998 -1.1625  0.8863
  633MOL0     C87239   9.650   9.919   3.212 -0.3683 -0.5546 -0.0937
  633MOL0     O87240   9.774   9.910   3.291  0.2660 -0.7746 -0.1500
  633MOL0     C87241   9.871   9.841   3.227  0.3444 -1.8884 -0.4690
  633MOL0     C87242   9.875   9.815   3.088 -0.4347 -1.7247 -0.5000
  633MOL0     C87243   9.986   9.760   3.037  0.0446 -0.2503 -0.6289
  633MOL0     C87244   9.992   9.730   2.886  0.9063  0.6976  0.0824
  633MOL0     C87245  10.086   9.703   3.130 -0.5280  0.0291  0.8847
  633MOL0     C87246  10.209   9.621   3.086 -0.9276  0.0129  0.0827
  633MOL0     O87247  10.320   9.624   3.158 -0.4360  0.1413  0.0122
  633MOL0     C87248  10.421   9.536   3.130  0.7283  0.7248 -0.8913
  633MOL0     C87249  10.463   9.446   3.225 -0.2892  0.2502  0.6778
  633MOL0     C87250  10.553   9.348   3.194 -0.4641  0.3679 -0.0104
  633MOL0     C87251  10.632   9.352   3.074 -0.2249 -0.9087  0.1889
  633MOL0     O87252  10.723   9.253   3.058  0.8429  0.2306  0.2129
  633MOL0     C87253  10.733   9.196   2.923 -0.4675  0.1551 -0.3127
  633MOL0     C87254  10.855   9.098   2.926  0.9961  0.9681 -0.2215
  633MOL0     C87255  10.876   9.039   2.785  0.9647 -0.4034  0.6656
  633MOL0     C87256  11.001   8.945   2.780 -0.5120 -1.1526 -0.3075
  633MOL0     C87257  11.038   8.883   2.643  0.5608 -0.0197  0.0896
  633MOL0     C87258  11.097   8.987   2.547  0.4770  0.1986  0.2847
  633MOL0     C87259  11.129   8.928   2.407 -0.1208 -0.8491  0.7813
  633MOL0     C87260  11.147   9.042   2.302  0.2330  0.3811 -0.2150
  633MOL0    Cl87261  11.217   8.958   2.165 -0.5575  0.6908  0.2986
  633MOL0     C87262  10.603   9.453   2.981 -0.0948  0.5840 -0.2556
  633MOL0     C87263  10.491   9.533   3.010  0.5255 -0.9286  0.2008
  633MOL0     O87264  10.198   9.540   2.996 -0.2984 -0.1421  0.2003
  633MOL0     C87265  10.085   9.733   3.269 -0.2659  1.0440  1.1128
  633MOL0     C87266   9.975   9.801   3.313 -0.1088 -0.7231 -1.0433
  633MOL0     N87267   9.117   9.967   3.030 -0.5796  0.6011 -0.0140
  633MOL0     N87268   9.001   9.913   3.027  0.4723  0.0597  1.0684
  633MOL0     C87269   8.371   9.685   3.794  0.0387  0.1208  0.4675
  633MOL0     C87270   8.392   9.594   3.900 -0.1944 -0.3672  0.2934
  633MOL0     C87271   8.497   9.465   4.336  0.1342 -0.0514  0.3976
  633MOL0     C87272   8.585   9.367   4.280 -0.8364 -0.0266 -0.3358
  633MOL0     C87273   8.665   9.270   4.342 -0.7277  0.2593  0.4593
  633MOL0     C87274   8.645   9.259   4.481  0.3500  0.0454 -0.2130
  633MOL0     O87275   8.696   9.159   4.565  0.3386 -0.3455  0.3386
  633MOL0     C87276   8.800   9.069   4.521 -0.1137  0.9127 -0.6077
  633MOL0     C87277   8.940   9.110   4.554 -0.7452 -0.3754 -0.1350
  633MOL0     C87278   8.964   9.258   4.553 -0.7738 -0.8369  0.3542
  633MOL0     C87279   9.107   9.289   4.538 -0.1511 -1.0680  0.2627
  633MOL0     C87280   9.148   9.423   4.535 -0.2910 -1.2756 -0.0376
  633MOL0     C87281   9.184   9.536   4.535  0.9443 -0.7586  0.7738
  633MOL0     C87282   8.554   9.349   4.537  1.3338 -0.2803 -0.1535
  633MOL0     C87283   8.479   9.454   4.478  0.6966 -0.3125  0.1078
  633MOL0     C87284   8.384   9.545   4.552 -0.8099  0.6469 -0.5427
  633MOL0     H87285   8.437   9.835   4.148  0.6776  1.7567 -0.3880
  633MOL0     H87286   8.396   9.986   3.969  2.9153  1.5957 -2.0381
  633MOL0     H87287   8.554   9.965   3.718  0.8967  1.9129 -0.7212
  633MOL0     H87288   8.449  10.077   3.785  1.0036  1.8853 -2.0142
  633MOL0     H87289   8.334  10.139   3.602  0.7371  1.0695  3.8160
  633MOL0     H87290   8.502  10.173   3.556  1.3156 -2.2732 -0.8653
  633MOL0     H87291   8.323   9.956   3.460 -0.9608  1.8755  2.2503
  633MOL0     H87292   8.401  10.079   3.360 -0.7513  1.9180  1.7863
  633MOL0     H87293   8.628   9.983   3.419 -0.7597  0.4531  0.3867
  633MOL0     H87294   8.558   9.843   3.497  4.1825  2.0332  1.8468
  633MOL0     H87295   8.507   9.895   3.201 -1.1258 -1.1416 -0.7321
  633MOL0     H87296   8.429   9.778   3.292 -1.3149  2.0104 -0.1966
  633MOL0     H87297   8.686   9.714   3.355  0.7774 -0.9889 -0.3833
  633MOL0     H87298   8.598   9.659   3.211  2.6148 -1.9623  2.6168
  633MOL0     H87299   8.744   9.920   3.199 -2.0013 -0.1404 -2.5372
  633MOL0     H87300   8.711   9.806   3.067 -3.1227 -0.0964  0.0991
  633MOL0     H87301   8.895   9.710   3.281  1.6023 -0.9439 -0.1715
  633MOL0     H87302   8.880   9.659   3.116  0.0810  0.2234  0.1169
  633MOL0     H87303   9.139   9.766   3.280 -2.0980  2.5843  0.5870
  633MOL0     H87304   9.346   9.961   3.279  0.3916  1.4182  0.4188
  633MOL0     H87305   9.386  10.026   3.116  0.9453  1.0933  2.4311
  633MOL0     H87306   9.376   9.727   3.176 -2.5304  1.4287  3.6953
  633MOL0     H87307   9.471   9.815   3.051  1.3885  1.2488  0.3528
  633MOL0     H87308   9.528   9.809   3.350  1.9017  1.7231  1.3081
  633MOL0     H87309   9.607   9.708   3.216 -3.2076 -2.5175 -0.8135
  633MOL0     H87310   9.663   9.932   3.104  0.6588 -1.5386 -0.1111
  633MOL0     H87311   9.606  10.015   3.239 -0.9733 -1.3190  1.7924
  633MOL0     H87312   9.799   9.841   3.015  1.0492  2.5283 -0.7850
  633MOL0     H87313  10.090   9.695   2.853 -0.7107 -4.0465 -0.4660
  633MOL0     H87314   9.940   9.807   2.828 -1.9704 -3.5095 -3.6392
  633MOL0     H87315   9.936   9.637   2.872  2.0328  0.1503 -0.9938
  633MOL0     H87316  10.434   9.458   3.328  3.1542  0.3089  1.7882
  633MOL0     H87317  10.585   9.276   3.270  0.4875 -0.0070 -0.7446
  633MOL0     H87318  10.638   9.150   2.894 -0.1049 -1.5033  0.9746
  633MOL0     H87319  10.767   9.267   2.848 -2.6206  0.8723 -0.6643
  633MOL0     H87320  10.943   9.155   2.955  1.9010 -0.8853  0.8984
  633MOL0     H87321  10.830   9.024   3.002  1.9723  0.6864 -0.1593
  633MOL0     H87322  10.883   9.126   2.720 -2.1691  0.8984  1.8446
  633MOL0     H87323  10.786   8.982   2.757 -0.3537  0.6055  2.6258
  633MOL0     H87324  10.962   8.870   2.849 -2.5908  0.5611  0.5160
  633MOL0     H87325  11.089   9.001   2.814  0.4052 -1.4168 -2.1298
  633MOL0     H87326  11.115   8.806   2.655  3.5769  3.0053  1.6598
  633MOL0     H87327  10.951   8.849   2.586  1.9318 -0.1589 -2.0370
  633MOL0     H87328  11.189   9.025   2.593  1.0393 -2.5377  1.6250
  633MOL0     H87329  11.028   9.070   2.532 -0.0815 -0.4688 -1.0568
  633MOL0     H87330  11.042   8.875   2.370 -0.6500  2.0376 -2.7301
  633MOL0     H87331  11.208   8.853   2.400  1.2077  0.3466  2.0582
  633MOL0     H87332  11.222   9.111   2.343 -0.1159  0.9727 -0.5615
  633MOL0     H87333  11.049   9.086   2.282  0.1644  1.1211  1.5552
  633MOL0     H87334  10.663   9.445   2.891  1.0547 -0.8638  0.6069
  633MOL0     H87335  10.452   9.592   2.927  2.7134  0.7435  0.2816
  633MOL0     H87336  10.161   9.693   3.335 -0.4227 -4.7599 -1.5848
  633MOL0     H87337   9.970   9.841   3.413  0.7354 -0.3744 -1.1306
  633MOL0     H87338   8.349   9.636   3.700 -2.0030 -0.3234  1.1223
  633MOL0     H87339   8.383   9.487   3.885 -0.5134  0.1221 -4.4650
  633MOL0     H87340   8.611   9.369   4.174  1.4658  0.8846  0.1761
  633MOL0     H87341   8.736   9.204   4.293 -1.4830  1.0472 -1.8648
  633MOL0     H87342   8.773   8.973   4.565  2.2511 -0.2575 -1.5360
  633MOL0     H87343   8.806   9.057   4.413 -0.7375 -1.7893 -0.4147
  633MOL0     H87344   9.011   9.063   4.486 -2.5425 -0.3965 -2.0774
  633MOL0     H87345   8.950   9.077   4.658  2.2307 -1.5881 -0.7044
  633MOL0     H87346   8.917   9.311   4.470  0.5788  2.7781  1.7056
  633MOL0     H87347   8.918   9.304   4.641 -0.0834 -2.4914  1.6485
  633MOL0     H87348   9.136   9.253   4.439  0.3536 -2.7356  0.9759
  633MOL0     H87349   9.168   9.241   4.615  1.8570 -1.7569 -1.6615
  633MOL0     H87350   9.192   9.642   4.545 -1.3277 -0.5963  1.2452
  633MOL0     H87351   8.550   9.329   4.644  1.5092 -0.7638 -0.2396
  633MOL0     H87352   8.291   9.537   4.495 -0.9840 -1.9810  0.0019
  633MOL0     H87353   8.384   9.510   4.656  0.7391  1.4482 -0.2444
  633MOL0     H87354   8.419   9.648   4.565 -0.5350  0.4224  0.6710
  634MOL0     O87355   4.419  10.834   7.301  0.9266  0.4588  0.0300
  634MOL0     C87356   4.423  10.779   7.196 -0.3237  0.2856  0.5839
  634MOL0     O87357   4.328  10.687   7.152  0.3315 -0.8373  0.3103
  634MOL0     C87358   4.210  10.687   7.217 -0.0024 -0.7596 -0.3704
  634MOL0     C87359   4.145  10.799   7.283 -0.3185 -0.4579 -0.4878
  634MOL0     C87360   4.027  10.773   7.354  0.2800 -0.0333  0.0678
  634MOL0     C87361   3.961  10.649   7.355 -0.1995 -0.0135  0.0350
  634MOL0     O87362   3.847  10.648   7.421  0.1708 -0.2215 -1.0743
  634MOL0     C87363   3.770  10.526   7.418 -0.4603 -0.0357  0.2522
  634MOL0     C87364   3.662  10.542   7.513 -0.0033  0.0991 -0.8355
  634MOL0     C87365   3.579  10.416   7.523  0.7072 -1.1590  0.2610
  634MOL0     C87366   3.490  10.437   7.650 -0.3156 -1.1158  0.0176
  634MOL0     C87367   3.385  10.327   7.657  1.3097  0.8201  0.3793
  634MOL0     C87368   3.277  10.342   7.765 -0.3300  0.1919 -0.5746
  634MOL0     C87369   3.339  10.290   7.901  0.3593 -0.3940  0.0381
  634MOL0     C87370   3.238  10.315   8.013 -1.0579 -0.4906 -0.0311
  634MOL0     N87371   3.149  10.208   8.045  0.0542 -0.2676  0.7576
  634MOL0     C87372   3.127  10.158   8.170 -0.3731  0.4393  0.2091
  634MOL0     C87373   3.035  10.060   8.150 -0.0111  0.0262  0.4472
  634MOL0     C87374   2.952   9.993   8.262 -1.0311  0.1164  0.0466
  634MOL0     C87375   2.956   9.837   8.250 -0.5691 -0.0190 -0.2817
  634MOL0     C87376   3.039   9.753   8.357  1.2421 -0.7692 -1.1392
  634MOL0     C87377   3.032   9.607   8.322  0.1687  1.1334  0.2619
  634MOL0     O87378   2.915   9.533   8.359  0.2753  0.3696 -0.4531
  634MOL0     C87379   2.935   9.397   8.371 -0.5117 -0.0074  0.2172
  634MOL0     C87380   2.848   9.331   8.460 -0.3136  0.3196 -0.1750
  634MOL0     C87381   2.861   9.192   8.476 -0.1845 -0.6001 -1.0339
  634MOL0     C87382   2.790   9.136   8.586  1.2425 -0.4821 -0.0830
  634MOL0     C87383   2.954   9.119   8.404 -0.0852  0.6387  0.4334
  634MOL0     C87384   2.971   8.973   8.407  0.7125 -0.0811 -0.4140
  634MOL0     O87385   2.912   8.896   8.311 -0.4214  0.0803  0.5500
  634MOL0     C87386   2.946   8.765   8.295 -0.4784  0.4865  0.3176
  634MOL0     C87387   2.972   8.712   8.165 -0.9281 -0.1769 -0.2128
  634MOL0     C87388   2.994   8.577   8.160  0.0276  0.9311  0.2177
  634MOL0     C87389   2.982   8.492   8.272  0.4419 -0.0113 -0.0245
  634MOL0     O87390   3.004   8.358   8.267  1.0894  0.1062  0.4674
  634MOL0     C87391   2.989   8.286   8.143  0.1537  0.0184  0.1455
  634MOL0     C87392   2.944   8.142   8.174  1.1561 -0.0337  0.2868
  634MOL0     C87393   2.824   8.125   8.256 -0.0936 -0.8506 -0.8140
  634MOL0     C87394   2.796   7.978   8.263 -0.3204  0.5756 -0.0296
  634MOL0     C87395   2.689   7.948   8.160  0.7038 -0.3840  1.3128
  634MOL0     C87396   2.632   7.811   8.150  0.9186  0.2907  0.0498
  634MOL0     C87397   2.750   7.706   8.167  0.6478  0.2993 -0.3445
  634MOL0     C87398   2.852   7.680   8.055 -0.5343  0.2475 -0.1601
  634MOL0    Cl87399   2.767   7.626   7.912 -0.2753 -0.1453  0.0321
  634MOL0     C87400   2.948   8.547   8.400  0.0414  0.0665  0.4985
  634MOL0     C87401   2.927   8.683   8.408 -0.8412 -0.8555  0.0731
  634MOL0     O87402   3.018   8.941   8.509 -0.1882  0.1728  0.0673
  634MOL0     C87403   3.036   9.183   8.312 -0.8016  0.2641  0.3018
  634MOL0     C87404   3.034   9.321   8.306 -0.1572  0.0295  0.2859
  634MOL0     N87405   3.003  10.059   8.020 -0.4585  0.0014 -0.2627
  634MOL0     N87406   3.067  10.144   7.959 -0.3803  0.7265 -0.1426
  634MOL0     C87407   4.017  10.547   7.278 -0.4582 -0.2915  0.3961
  634MOL0     C87408   4.136  10.570   7.209  0.3298 -0.3829  0.8364
  634MOL0     C87409   4.540  10.807   7.099 -0.3320 -0.8104 -0.5973
  634MOL0     C87410   4.558  10.710   6.993 -0.1483  0.1174  0.1768
  634MOL0     C87411   4.653  10.739   6.891  0.9610 -0.6704 -0.4136
  634MOL0     C87412   4.721  10.861   6.889  0.2916  0.7197 -0.2507
  634MOL0     O87413   4.795  10.884   6.778 -0.1774 -0.5323  0.2924
  634MOL0     C87414   4.861  11.009   6.768 -0.9899 -0.0199 -0.3045
  634MOL0     C87415   4.950  11.015   6.637  1.6360  0.3685  0.3065
  634MOL0     C87416   5.077  10.930   6.651  0.6809 -0.1460  0.2178
  634MOL0     C87417   5.193  10.966   6.555 -0.6450 -0.2179 -0.4920
  634MOL0     C87418   5.286  10.863   6.518  0.3295 -0.2169 -0.7532
  634MOL0     C87419   5.363  10.774   6.482  0.6790  0.7303  0.4016
  634MOL0     C87420   4.694  10.957   6.985  0.0463  0.1509  0.0031
  634MOL0     C87421   4.600  10.934   7.086  0.1536 -0.2359 -0.4105
  634MOL0     C87422   4.556  11.055   7.162 -0.1463  0.1129  0.0463
  634MOL0     H87423   4.184  10.900   7.280 -0.6915 -0.3224 -0.8420
  634MOL0     H87424   3.980  10.854   7.409 -1.9604 -1.8579  1.0008
  634MOL0     H87425   3.836  10.444   7.447 -1.5090 -0.8030  0.5523
  634MOL0     H87426   3.731  10.496   7.320 -0.1464 -0.4658  0.2564
  634MOL0     H87427   3.706  10.550   7.613 -2.9400  0.6302  0.5125
  634MOL0     H87428   3.599  10.629   7.489 -1.6046 -0.7472  0.1516
  634MOL0     H87429   3.517  10.385   7.437  2.1993 -0.0914 -1.2654
  634MOL0     H87430   3.643  10.330   7.542  1.2180 -0.4438  1.8882
  634MOL0     H87431   3.554  10.421   7.737 -0.5162 -0.7163  0.2413
  634MOL0     H87432   3.440  10.534   7.656  2.0463  0.0901  3.5401
  634MOL0     H87433   3.437  10.232   7.671 -0.1918 -0.7361 -3.3289
  634MOL0     H87434   3.327  10.321   7.565  0.5692  1.9146  0.7555
  634MOL0     H87435   3.235  10.443   7.766 -2.1685 -0.4906 -2.1624
  634MOL0     H87436   3.190  10.279   7.747  0.5099 -2.5589  3.5228
  634MOL0     H87437   3.435  10.342   7.913 -0.2834  0.2432  3.2651
  634MOL0     H87438   3.357  10.184   7.880  2.3989 -0.8442  3.2920
  634MOL0     H87439   3.309  10.331   8.095 -0.3049 -3.5028  0.0343
  634MOL0     H87440   3.186  10.411   8.021 -1.1813 -0.4793 -0.8786
  634MOL0     H87441   3.179  10.196   8.258 -1.6541  3.8126 -0.3298
  634MOL0     H87442   2.847  10.023   8.248 -1.9975 -2.6942  0.6514
  634MOL0     H87443   2.992  10.028   8.358 -1.7565  0.4632  0.2341
  634MOL0     H87444   2.854   9.801   8.267  0.3243 -3.8334 -1.8606
  634MOL0     H87445   2.973   9.801   8.148  1.3396 -3.1555  1.0042
  634MOL0     H87446   3.143   9.784   8.347  0.6184  0.9320 -2.8249
  634MOL0     H87447   3.018   9.775   8.462  2.3280 -1.7464 -0.6934
  634MOL0     H87448   3.039   9.592   8.214  1.3299  0.4480  0.4109
  634MOL0     H87449   3.126   9.568   8.363 -0.6015  1.1206  2.1255
  634MOL0     H87450   2.775   9.382   8.522 -0.8005 -2.1087  1.4023
  634MOL0     H87451   2.844   9.051   8.629  4.6308  0.3266 -2.2827
  634MOL0     H87452   2.703   9.087   8.541  1.0718  0.1265 -0.4284
  634MOL0     H87453   2.758   9.199   8.669  1.3074  0.0461 -0.4528
  634MOL0     H87454   2.990   8.765   8.072 -0.5831 -1.6007 -0.9887
  634MOL0     H87455   3.033   8.530   8.071 -0.9336 -1.6597  1.0690
  634MOL0     H87456   2.912   8.336   8.083 -0.8302 -0.5012  0.9377
  634MOL0     H87457   3.083   8.290   8.087  1.5563 -0.7776  2.3137
  634MOL0     H87458   2.921   8.093   8.080  0.3263 -3.3503  2.0644
  634MOL0     H87459   3.020   8.085   8.228 -0.9914 -1.1508  2.3177
  634MOL0     H87460   2.741   8.177   8.208  2.1431  1.5752 -2.3037
  634MOL0     H87461   2.835   8.170   8.355  0.8359  2.1005 -2.1432
  634MOL0     H87462   2.746   7.952   8.357  0.4140 -0.5013  0.0897
  634MOL0     H87463   2.891   7.923   8.254 -1.8838 -2.2405 -0.3583
  634MOL0     H87464   2.600   8.011   8.169 -0.1371 -0.4944 -3.5259
  634MOL0     H87465   2.731   7.966   8.061 -2.1160 -1.5395 -0.2046
  634MOL0     H87466   2.587   7.805   8.051  1.7789 -1.6087 -0.2682
  634MOL0     H87467   2.566   7.792   8.236 -1.9146 -2.5348 -2.4851
  634MOL0     H87468   2.701   7.609   8.180 -4.3352  2.7665  1.6306
  634MOL0     H87469   2.803   7.713   8.263 -1.4002  1.0469  0.7853
  634MOL0     H87470   2.914   7.602   8.100  1.3434  1.1053 -1.1642
  634MOL0     H87471   2.911   7.770   8.033 -2.1812  1.2167 -0.8205
  634MOL0     H87472   2.932   8.485   8.487 -3.4904 -1.3398 -0.9813
  634MOL0     H87473   2.893   8.719   8.505  0.6869  0.3831  0.1813
  634MOL0     H87474   3.108   9.125   8.256 -2.0652 -0.3429 -0.7446
  634MOL0     H87475   3.115   9.367   8.250  0.8869 -0.5808  1.2386
  634MOL0     H87476   3.956  10.458   7.273 -0.4512 -0.2806  0.0926
  634MOL0     H87477   4.197  10.498   7.155  2.7819  2.1333 -0.0279
  634MOL0     H87478   4.497  10.620   6.995  1.2734 -0.8783  0.0830
  634MOL0     H87479   4.668  10.667   6.812  2.9525 -0.5572 -0.1871
  634MOL0     H87480   4.779  11.080   6.759 -1.5400 -0.4426  1.1322
  634MOL0     H87481   4.926  11.027   6.854 -0.8758  1.9045 -0.7626
  634MOL0     H87482   4.988  11.115   6.611 -1.5378  1.6063 -0.0151
  634MOL0     H87483   4.891  10.986   6.549  0.8717  0.1352  0.8831
  634MOL0     H87484   5.110  10.939   6.756 -1.4650  1.9033  0.8026
  634MOL0     H87485   5.054  10.824   6.636  1.9054 -0.1798 -1.6987
  634MOL0     H87486   5.247  11.044   6.608  1.6474 -1.7970 -0.3527
  634MOL0     H87487   5.155  11.005   6.460 -2.6661 -2.7602 -0.8417
  634MOL0     H87488   5.418  10.690   6.444 -2.8202 -1.2238 -0.8340
  634MOL0     H87489   4.736  11.056   6.981  1.1872 -0.3593 -2.3728
  634MOL0     H87490   4.612  11.062   7.256 -1.2935  1.8727  0.6491
  634MOL0     H87491   4.565  11.146   7.102  0.3019  0.6932  0.9619
  634MOL0     H87492   4.449  11.044   7.184 -0.1884 -2.4098 -1.0570
  635MOL0     O87493   9.422  10.500   6.039  0.6809 -0.0798 -0.3192
  635MOL0     C87494   9.485  10.602   6.042 -0.1695 -0.6506 -0.0444
  635MOL0     O87495   9.435  10.727   6.083  0.2854  0.0897 -0.4219
  635MOL0     C87496   9.319  10.743   6.153 -0.2528 -0.3428  0.2286
  635MOL0     C87497   9.253  10.652   6.238  0.8327  0.2786 -0.7729
  635MOL0     C87498   9.139  10.685   6.316  0.1894 -0.6802  0.7507
  635MOL0     C87499   9.082  10.810   6.304 -0.5290 -0.4584 -0.2185
  635MOL0     O87500   8.973  10.833   6.378 -0.2420 -0.5216 -0.0103
  635MOL0     C87501   8.954  10.964   6.430 -0.5420  0.7348  0.4210
  635MOL0     C87502   8.835  10.951   6.521  0.0930 -0.0715  0.1085
  635MOL0     C87503   8.870  10.908   6.664  0.5556  0.0536  0.7258
  635MOL0     C87504   8.941  10.783   6.681  0.5115 -0.1261 -0.1855
  635MOL0     C87505   9.007  10.759   6.813  0.1002  0.2390 -0.9589
  635MOL0     C87506   9.036  10.610   6.847 -0.2988  0.8549 -0.1515
  635MOL0     C87507   9.143  10.602   6.961  1.1121 -0.3333  0.3200
  635MOL0     C87508   9.120  10.485   7.057 -0.6691 -0.5217  0.1633
  635MOL0     N87509   9.090  10.356   6.992 -0.2746 -0.3578  0.1937
  635MOL0     C87510   9.161  10.300   6.891 -0.8222  1.3597  0.9166
  635MOL0     C87511   9.097  10.182   6.867 -0.7666  0.2231 -0.4524
  635MOL0     C87512   9.123  10.082   6.754 -0.6236 -0.1381 -0.0113
  635MOL0     C87513   9.060  10.119   6.620 -0.0507 -0.2210 -0.0392
  635MOL0     C87514   9.069  10.007   6.516 -0.5287  0.3174  0.1637
  635MOL0     C87515   9.000   9.881   6.554  0.6061  0.2442  0.3366
  635MOL0     O87516   8.982   9.808   6.436  0.0772  0.2789 -0.1657
  635MOL0     C87517   8.919   9.684   6.453 -0.4695 -1.3314 -0.4220
  635MOL0     C87518   8.845   9.642   6.567 -0.5783  0.0714  0.7861
  635MOL0     C87519   8.777   9.519   6.571 -0.4963 -0.2436 -0.3028
  635MOL0     C87520   8.688   9.491   6.693  0.9261  0.7639 -0.1167
  635MOL0     C87521   8.777   9.437   6.456  1.3178  0.0802  0.2553
  635MOL0     C87522   8.693   9.311   6.460 -0.3270  0.3898  0.9055
  635MOL0     O87523   8.616   9.281   6.347  0.1859  0.2385  0.3451
  635MOL0     C87524   8.558   9.157   6.343  0.9996  0.4660  0.9894
  635MOL0     C87525   8.430   9.130   6.400  0.5010 -0.0697 -0.4885
  635MOL0     C87526   8.370   9.009   6.394  0.8989 -1.0798  0.5684
  635MOL0     C87527   8.429   8.898   6.334 -0.8544 -0.3606 -0.2766
  635MOL0     O87528   8.361   8.781   6.329  0.0658 -0.2068 -0.0301
  635MOL0     C87529   8.405   8.677   6.246  0.5584  0.3445  0.5286
  635MOL0     C87530   8.297   8.579   6.239 -0.4370 -0.3658 -0.6170
  635MOL0     C87531   8.334   8.484   6.124  0.5863  0.0626  0.5346
  635MOL0     C87532   8.227   8.373   6.125  0.5428 -0.5743  0.4279
  635MOL0     C87533   8.250   8.255   6.033  0.2375  0.3715 -0.9471
  635MOL0     C87534   8.217   8.276   5.883  0.3062  0.2795 -0.1662
  635MOL0     C87535   8.243   8.171   5.780  0.3039 -0.2199 -0.6068
  635MOL0     C87536   8.194   8.222   5.640  0.4043 -0.3997 -0.1576
  635MOL0    Cl87537   8.298   8.368   5.585 -0.2955 -0.1945 -0.6956
  635MOL0     C87538   8.556   8.927   6.280  0.4406  0.1227 -1.0111
  635MOL0     C87539   8.621   9.048   6.283 -0.3638  0.7265 -0.7243
  635MOL0     O87540   8.720   9.235   6.554  0.6447  0.1835 -0.0120
  635MOL0     C87541   8.860   9.476   6.349  0.2287  0.6063 -0.5413
  635MOL0     C87542   8.928   9.601   6.349 -0.7069  0.1258  1.1554
  635MOL0     N87543   8.978  10.179   6.941  0.1299 -0.0914  0.4358
  635MOL0     N87544   8.974  10.286   7.013 -0.0436  0.4117 -0.2666
  635MOL0     C87545   9.130  10.889   6.200  0.0202  0.0126 -1.1275
  635MOL0     C87546   9.255  10.870   6.146 -0.5225  0.0464  0.1849
  635MOL0     C87547   9.626  10.590   6.006 -1.1648  0.2101 -0.0893
  635MOL0     C87548   9.716  10.707   6.020 -0.1278  0.7967  0.1376
  635MOL0     C87549   9.850  10.700   5.975  0.1183  0.0794  0.3170
  635MOL0     C87550   9.901  10.589   5.917 -1.0077 -0.3835 -0.7486
  635MOL0     O87551  10.026  10.562   5.861 -0.2903  0.3792  0.0190
  635MOL0     C87552  10.114  10.661   5.794  0.3386  0.1686 -0.6325
  635MOL0     C87553  10.256  10.677   5.857 -0.2594 -0.3610  0.6887
  635MOL0     C87554  10.359  10.751   5.760 -0.3262 -0.0409 -0.0036
  635MOL0     C87555  10.492  10.762   5.838 -0.3987 -0.1972  0.5508
  635MOL0     C87556  10.573  10.640   5.823 -0.5172 -0.7646 -0.2582
  635MOL0     C87557  10.633  10.542   5.794 -0.0699 -1.3734  0.6692
  635MOL0     C87558   9.814  10.484   5.903 -0.6980 -0.3716  0.4449
  635MOL0     C87559   9.685  10.480   5.940  0.2197  0.1744 -0.9402
  635MOL0     C87560   9.630  10.347   5.933 -0.1969  0.1601 -0.0777
  635MOL0     H87561   9.287  10.550   6.253  0.4934  0.1129 -1.1236
  635MOL0     H87562   9.087  10.609   6.373 -5.9179  0.0381 -2.9944
  635MOL0     H87563   8.925  11.036   6.353 -3.7995 -0.6270  0.2226
  635MOL0     H87564   9.046  10.989   6.485 -0.3341 -0.2566  0.5492
  635MOL0     H87565   8.796  11.053   6.523  0.8986  0.2562 -0.3775
  635MOL0     H87566   8.762  10.882   6.476  0.1239  0.3336 -0.5866
  635MOL0     H87567   8.935  10.989   6.701 -0.5401  1.0237  0.5644
  635MOL0     H87568   8.785  10.908   6.732  1.3176  0.4703  1.7174
  635MOL0     H87569   8.865  10.706   6.672 -0.2979  0.2111  2.7571
  635MOL0     H87570   9.019  10.769   6.606  1.5305  3.1262  0.0874
  635MOL0     H87571   8.949  10.800   6.896  2.7833  1.2509  0.5163
  635MOL0     H87572   9.107  10.802   6.815 -0.7011  2.2075 -0.7215
  635MOL0     H87573   8.942  10.559   6.866  0.3333 -1.2763 -2.2645
  635MOL0     H87574   9.081  10.563   6.759  1.0740  0.6285  0.6353
  635MOL0     H87575   9.139  10.697   7.015  0.5487 -0.4921  0.5667
  635MOL0     H87576   9.239  10.590   6.910  0.4766 -0.9189 -0.7787
  635MOL0     H87577   9.206  10.467   7.122 -1.4757  0.1515  1.4797
  635MOL0     H87578   9.042  10.502   7.133 -1.1611 -0.7990 -0.2756
  635MOL0     H87579   9.259  10.331   6.856 -0.3335  3.0076  3.4613
  635MOL0     H87580   9.086   9.983   6.783 -1.5568  0.2703  0.2265
  635MOL0     H87581   9.231  10.078   6.739 -0.4639 -1.7875  1.2417
  635MOL0     H87582   8.952  10.132   6.636 -0.0210 -2.1181  2.3218
  635MOL0     H87583   9.102  10.214   6.588  0.3447  1.4818  4.7469
  635MOL0     H87584   9.010  10.049   6.434  1.5275  2.9600 -0.1121
  635MOL0     H87585   9.166   9.985   6.472 -0.4160  4.0608 -1.9086
  635MOL0     H87586   9.058   9.818   6.623 -1.2879  0.3615  2.1031
  635MOL0     H87587   8.908   9.898   6.610  1.0339  0.4827  0.9801
  635MOL0     H87588   8.821   9.709   6.649  2.4313  0.9418  1.0776
  635MOL0     H87589   8.682   9.571   6.766 -2.4800  1.2383 -0.7510
  635MOL0     H87590   8.721   9.404   6.751  1.0522  0.2858 -0.8866
  635MOL0     H87591   8.589   9.486   6.647  0.0552  2.6347  1.4113
  635MOL0     H87592   8.386   9.219   6.444 -1.4880  0.1070 -2.6414
  635MOL0     H87593   8.268   9.015   6.428  0.4912 -0.4605 -0.7012
  635MOL0     H87594   8.422   8.724   6.149  1.7448 -0.0925  0.5077
  635MOL0     H87595   8.504   8.644   6.281  1.7507  1.8165 -1.2847
  635MOL0     H87596   8.288   8.521   6.331 -0.3084  2.4666  1.3186
  635MOL0     H87597   8.201   8.630   6.232 -0.7512 -0.3303  2.4150
  635MOL0     H87598   8.433   8.440   6.139  1.2399  1.0839 -0.6211
  635MOL0     H87599   8.342   8.532   6.026  0.8980  1.5502  1.2633
  635MOL0     H87600   8.140   8.428   6.090  2.5197  1.0243 -2.3531
  635MOL0     H87601   8.213   8.345   6.230 -1.5893  0.8091  0.5553
  635MOL0     H87602   8.353   8.220   6.041  0.2867  0.6085 -0.5279
  635MOL0     H87603   8.184   8.175   6.066  2.4166 -0.7571  0.9180
  635MOL0     H87604   8.284   8.354   5.845 -3.6366  3.4886 -1.1957
  635MOL0     H87605   8.127   8.337   5.866  1.9200  2.8975  0.0125
  635MOL0     H87606   8.186   8.082   5.806  0.5963  0.3166  2.1139
  635MOL0     H87607   8.350   8.146   5.781 -0.2159 -2.7966 -1.4244
  635MOL0     H87608   8.088   8.247   5.634  0.7661  1.0941 -0.7694
  635MOL0     H87609   8.221   8.146   5.565 -1.9356 -0.0107 -1.4839
  635MOL0     H87610   8.608   8.841   6.239 -0.3134 -0.9713  0.2474
  635MOL0     H87611   8.726   9.049   6.254  1.0093 -5.5122  2.2625
  635MOL0     H87612   8.862   9.411   6.261  2.2075  0.9392 -0.7788
  635MOL0     H87613   8.987   9.637   6.266 -4.0702  1.0366 -1.0395
  635MOL0     H87614   9.079  10.984   6.190 -0.6617 -0.2411 -0.2384
  635MOL0     H87615   9.295  10.947   6.082 -3.0969  1.7372  0.4819
  635MOL0     H87616   9.680  10.799   6.064  0.1379  0.0738  1.9769
  635MOL0     H87617   9.913  10.788   5.974  1.7665 -1.0477 -0.9708
  635MOL0     H87618  10.115  10.615   5.695 -2.2818 -0.8734 -0.2504
  635MOL0     H87619  10.068  10.761   5.791  1.9707  0.9357 -2.1565
  635MOL0     H87620  10.294  10.576   5.877  2.3877  0.3752 -0.1741
  635MOL0     H87621  10.241  10.725   5.955  0.3046  0.7331  0.2517
  635MOL0     H87622  10.377  10.696   5.668 -0.7882  0.1061 -0.1846
  635MOL0     H87623  10.325  10.853   5.739  0.0692 -0.0098 -0.4953
  635MOL0     H87624  10.480  10.776   5.946  4.1569 -1.6663  1.4920
  635MOL0     H87625  10.556  10.840   5.797 -1.2164 -0.0193 -0.4268
  635MOL0     H87626  10.708  10.470   5.771  3.9427  2.4361  0.4967
  635MOL0     H87627   9.857  10.396   5.856  3.0914  1.2083  0.6023
  635MOL0     H87628   9.560  10.339   5.850  3.4322 -1.0054 -3.3062
  635MOL0     H87629   9.699  10.271   5.895 -0.7975  0.2342 -1.3685
  635MOL0     H87630   9.579  10.315   6.025  2.2562  1.8850  2.0491
  636MOL0     O87631  10.429   8.838   1.404 -0.2310  0.1500 -0.2491
  636MOL0     C87632  10.521   8.763   1.405 -0.9959  0.9759 -0.0342
  636MOL0     O87633  10.611   8.757   1.304  0.5926  0.7844 -1.3065
  636MOL0     C87634  10.592   8.790   1.170 -0.7011  0.3133  0.4806
  636MOL0     C87635  10.463   8.797   1.099 -1.2712  0.0855 -0.9410
  636MOL0     C87636  10.464   8.840   0.959 -0.0985  0.2593 -0.0565
  636MOL0     C87637  10.581   8.886   0.900 -0.6859  0.0589  0.1380
  636MOL0     O87638  10.577   8.925   0.769  0.0188 -0.3974  0.1253
  636MOL0     C87639  10.699   8.955   0.691  0.3000  0.1796 -0.1004
  636MOL0     C87640  10.658   9.023   0.554  0.2669 -0.3238 -0.2509
  636MOL0     C87641  10.563   9.146   0.565  0.0956  0.2119 -0.3227
  636MOL0     C87642  10.631   9.274   0.620  0.0715  0.7101  0.3414
  636MOL0     C87643  10.537   9.388   0.672  1.5396  0.8401  0.4968
  636MOL0     C87644  10.458   9.355   0.802  0.1958  0.3160  0.6302
  636MOL0     C87645  10.550   9.356   0.928 -0.2734  0.2870 -0.7347
  636MOL0     C87646  10.467   9.370   1.055 -0.1429 -0.2075 -0.2782
  636MOL0     N87647  10.549   9.348   1.175 -0.7546 -0.4900  0.3063
  636MOL0     C87648  10.565   9.214   1.222  0.5863 -0.1870  0.7103
  636MOL0     C87649  10.621   9.238   1.348 -0.4118  0.0980  0.3861
  636MOL0     C87650  10.652   9.144   1.458 -0.4036 -0.3070 -0.1783
  636MOL0     C87651  10.778   9.172   1.543  0.5827  0.8609 -0.0535
  636MOL0     C87652  10.758   9.278   1.648  0.2213  0.0405 -0.1354
  636MOL0     C87653  10.712   9.242   1.790  0.0959 -0.4081  0.3267
  636MOL0     O87654  10.743   9.335   1.897 -0.4499 -0.0375  0.2965
  636MOL0     C87655  10.725   9.302   2.026  0.9583  0.0728 -0.2969
  636MOL0     C87656  10.812   9.361   2.116  0.2938  0.7652 -0.0261
  636MOL0     C87657  10.799   9.339   2.258 -0.1070  0.0223  0.9002
  636MOL0     C87658  10.892   9.439   2.335  0.6611  0.6853 -0.6353
  636MOL0     C87659  10.700   9.248   2.311 -0.2496 -0.0281 -0.3705
  636MOL0     C87660  10.668   9.222   2.460  0.8221 -0.1864 -1.0261
  636MOL0     O87661  10.555   9.150   2.486  1.2195  0.6970  0.7244
  636MOL0     C87662  10.523   9.130   2.621  0.0922  0.0211 -0.4082
  636MOL0     C87663  10.513   9.001   2.678  0.0652 -0.7202 -0.2131
  636MOL0     C87664  10.442   8.986   2.803 -0.5445  0.5292  0.6035
  636MOL0     C87665  10.375   9.097   2.873  0.1215  1.3629 -0.1701
  636MOL0     O87666  10.301   9.075   2.984  0.1059 -0.3564 -0.3552
  636MOL0     C87667  10.244   9.189   3.060  0.3836  0.3314 -0.3559
  636MOL0     C87668  10.160   9.135   3.168 -0.4665 -0.3086 -0.6121
  636MOL0     C87669  10.130   9.237   3.285  0.3855 -0.3502 -0.1800
  636MOL0     C87670  10.176   9.175   3.412 -0.7003 -0.1251  0.0814
  636MOL0     C87671  10.155   9.258   3.531 -0.3228  0.1199  0.2212
  636MOL0     C87672  10.192   9.179   3.651 -0.1439 -0.8838 -0.9726
  636MOL0     C87673  10.065   9.104   3.706  0.4762  0.6923  0.4010
  636MOL0     C87674  10.096   9.021   3.829  0.1746 -0.0157 -0.1497
  636MOL0    Cl87675   9.941   8.969   3.879 -0.0437  0.1765 -0.1250
  636MOL0     C87676  10.388   9.225   2.809 -0.3500  1.0453  0.3241
  636MOL0     C87677  10.463   9.237   2.694 -0.6103  0.0461 -0.7680
  636MOL0     O87678  10.761   9.239   2.540  0.2262 -0.5172  0.7394
  636MOL0     C87679  10.614   9.189   2.218 -0.4163  0.6601  0.3114
  636MOL0     C87680  10.627   9.218   2.078  0.8454 -0.8167  0.5220
  636MOL0     N87681  10.630   9.376   1.372 -0.6329  0.6828  0.3702
  636MOL0     N87682  10.577   9.442   1.269 -0.2748  0.3980 -0.1314
  636MOL0     C87683  10.696   8.902   0.977  0.4750  0.0102  0.7351
  636MOL0     C87684  10.697   8.849   1.108  0.3599 -0.7392  0.2348
  636MOL0     C87685  10.532   8.675   1.530 -0.8429 -0.3432  1.4882
  636MOL0     C87686  10.446   8.697   1.639 -1.5945  0.1645 -0.2508
  636MOL0     C87687  10.467   8.629   1.760  0.2827  0.0739  0.6772
  636MOL0     C87688  10.562   8.526   1.772  0.5105 -0.1237  0.8144
  636MOL0     O87689  10.573   8.445   1.881  0.3282  0.0784 -0.0764
  636MOL0     C87690  10.511   8.470   2.011 -0.4196  0.3029  0.7579
  636MOL0     C87691  10.612   8.433   2.119 -0.5250  0.9597 -0.1812
  636MOL0     C87692  10.754   8.494   2.129  0.1660  0.5340  0.2290
  636MOL0     C87693  10.868   8.391   2.131 -0.4853  0.6427 -0.8692
  636MOL0     C87694  10.857   8.300   2.246  0.1193 -0.4581 -0.6918
  636MOL0     C87695  10.851   8.229   2.345  0.7711 -0.6020  0.7720
  636MOL0     C87696  10.640   8.494   1.656  0.2758 -0.3657 -0.6345
  636MOL0     C87697  10.629   8.574   1.543  0.2126 -0.8743  1.1253
  636MOL0     C87698  10.734   8.533   1.439  0.3586  0.2400 -0.1501
  636MOL0     H87699  10.382   8.760   1.162  2.1567 -2.3967  2.4538
  636MOL0     H87700  10.371   8.834   0.903 -1.6091  0.6771  2.2511
  636MOL0     H87701  10.750   8.859   0.679  0.5038  0.1526  0.9066
  636MOL0     H87702  10.752   9.031   0.749 -0.8737 -0.2316  1.5843
  636MOL0     H87703  10.750   9.071   0.518  1.4214  2.4669  5.3127
  636MOL0     H87704  10.610   8.955   0.484  2.5949 -0.8148 -1.4768
  636MOL0     H87705  10.522   9.161   0.465  0.7577 -0.5739 -0.7257
  636MOL0     H87706  10.481   9.122   0.634 -0.2807  1.7629 -0.2053
  636MOL0     H87707  10.687   9.239   0.707 -0.7777  0.8668  0.9653
  636MOL0     H87708  10.712   9.300   0.552  0.7026 -2.6382 -0.3535
  636MOL0     H87709  10.465   9.401   0.590  3.4611 -1.8516 -1.8438
  636MOL0     H87710  10.586   9.485   0.683  0.5501  1.3516  0.5428
  636MOL0     H87711  10.369   9.418   0.803  1.2410  1.9234 -1.2263
  636MOL0     H87712  10.420   9.253   0.794 -3.3577  1.5160  0.6644
  636MOL0     H87713  10.622   9.438   0.925  1.4261 -1.1359 -0.6299
  636MOL0     H87714  10.612   9.266   0.926 -0.2124  0.3168 -2.8715
  636MOL0     H87715  10.437   9.475   1.061  0.1704 -0.0752 -0.9578
  636MOL0     H87716  10.393   9.290   1.059 -0.2566 -0.1258 -0.7173
  636MOL0     H87717  10.521   9.126   1.178 -3.7810  1.5764  1.0279
  636MOL0     H87718  10.667   9.042   1.422  2.4505 -0.9388  2.3699
  636MOL0     H87719  10.568   9.148   1.527 -0.1539 -3.5844  0.4648
  636MOL0     H87720  10.807   9.082   1.598  0.5057  1.3844  0.8689
  636MOL0     H87721  10.864   9.203   1.483  1.2994 -0.2865  0.3381
  636MOL0     H87722  10.852   9.330   1.668  1.1230 -2.1140  1.8289
  636MOL0     H87723  10.702   9.359   1.601  1.5533 -0.3036 -2.4500
  636MOL0     H87724  10.606   9.216   1.782  0.1267 -1.5638  2.6445
  636MOL0     H87725  10.763   9.147   1.806  0.1877 -0.6101 -1.0906
  636MOL0     H87726  10.878   9.432   2.068 -2.5406  3.1839 -0.6280
  636MOL0     H87727  10.958   9.391   2.408  0.4851  0.9568 -0.2913
  636MOL0     H87728  10.834   9.498   2.407 -0.8372 -1.6605  0.1862
  636MOL0     H87729  10.964   9.499   2.279  0.6582 -0.0536 -1.4501
  636MOL0     H87730  10.554   8.914   2.627 -1.2313 -2.3557  1.4344
  636MOL0     H87731  10.418   8.884   2.831 -3.1859  0.8220 -0.2901
  636MOL0     H87732  10.318   9.258   3.101 -0.5884  0.5947  1.0404
  636MOL0     H87733  10.176   9.252   3.003 -1.5114 -1.3980 -0.1114
  636MOL0     H87734  10.066   9.098   3.126 -0.4259  0.8412 -1.7608
  636MOL0     H87735  10.219   9.052   3.208  2.8222  2.3691  0.5584
  636MOL0     H87736  10.022   9.252   3.296  0.7169  3.9759 -0.9437
  636MOL0     H87737  10.175   9.336   3.270  1.1395  0.5050  5.3719
  636MOL0     H87738  10.284   9.163   3.403 -0.5201  2.1782 -1.7965
  636MOL0     H87739  10.129   9.077   3.425 -0.3005 -0.3498 -0.1696
  636MOL0     H87740  10.220   9.346   3.536  1.2719 -0.8649 -1.8880
  636MOL0     H87741  10.052   9.294   3.538  0.2404  2.6939 -2.6619
  636MOL0     H87742  10.229   9.253   3.723 -0.9487 -1.7802  0.4051
  636MOL0     H87743  10.281   9.115   3.643  0.1751 -0.4893 -0.6372
  636MOL0     H87744  10.024   9.034   3.632  0.5924  2.4260 -1.3944
  636MOL0     H87745   9.989   9.182   3.715  0.0361  0.4403 -0.8495
  636MOL0     H87746  10.133   9.083   3.912 -1.7445  2.5289 -1.0653
  636MOL0     H87747  10.162   8.936   3.810  0.5404 -0.0921  1.3129
  636MOL0     H87748  10.362   9.321   2.852  1.8333  1.9348 -0.1985
  636MOL0     H87749  10.484   9.328   2.639 -2.0226 -0.4170 -2.1457
  636MOL0     H87750  10.524   9.132   2.238  0.0484  0.0636  0.6948
  636MOL0     H87751  10.560   9.174   2.005 -2.2326  0.2482  2.4730
  636MOL0     H87752  10.789   8.947   0.944  0.2326 -0.3905 -0.5821
  636MOL0     H87753  10.792   8.853   1.160  0.8081 -0.3258 -0.5828
  636MOL0     H87754  10.369   8.772   1.629 -2.2272 -0.4931 -0.3567
  636MOL0     H87755  10.411   8.676   1.840 -0.2453  2.4968 -0.9923
  636MOL0     H87756  10.485   8.576   2.016  1.5668  0.8718 -0.1420
  636MOL0     H87757  10.424   8.407   2.033 -1.1955  1.1174  0.0926
  636MOL0     H87758  10.619   8.324   2.113 -3.0863  0.7419 -0.3766
  636MOL0     H87759  10.560   8.460   2.212  0.9207  1.0939  0.6141
  636MOL0     H87760  10.767   8.564   2.046  2.1081  1.0468  0.9236
  636MOL0     H87761  10.765   8.547   2.224 -0.4502 -1.3853  1.4429
  636MOL0     H87762  10.961   8.446   2.143 -0.1600 -0.3453  1.8593
  636MOL0     H87763  10.865   8.341   2.034 -2.8575  1.3038 -1.2113
  636MOL0     H87764  10.853   8.165   2.431 -0.5035 -0.5136  0.8763
  636MOL0     H87765  10.716   8.417   1.667  1.8398  1.2384  0.2266
  636MOL0     H87766  10.806   8.461   1.480  2.3299  1.5178 -1.1496
  636MOL0     H87767  10.690   8.482   1.353 -0.5694 -1.7248  1.4186
  636MOL0     H87768  10.783   8.626   1.407 -0.0633  0.7214  0.5673
  637MOL0     O87769   0.859   8.765   0.857 -0.2327 -0.7460  0.2196
  637MOL0     C87770   0.784   8.820   0.776 -0.6009  0.3544 -0.3139
  637MOL0     O87771   0.654   8.800   0.767  0.8297 -0.1805 -0.2826
  637MOL0     C87772   0.596   8.694   0.832  1.2234 -0.7947 -0.3715
  637MOL0     C87773   0.608   8.573   0.759  0.3985  0.4806  1.1471
  637MOL0     C87774   0.538   8.460   0.809 -1.0260 -0.8472  1.1917
  637MOL0     C87775   0.450   8.473   0.917 -0.1427 -0.3616  0.1209
  637MOL0     O87776   0.369   8.381   0.964  0.5097 -0.2276  0.3424
  637MOL0     C87777   0.303   8.303   0.854 -0.3492 -0.0533  0.4303
  637MOL0     C87778   0.367   8.159   0.865  0.4048  0.5837 -0.0264
  637MOL0     C87779   0.371   8.096   0.729 -0.6384 -0.1865 -0.1200
  637MOL0     C87780   0.236   8.045   0.690 -0.2242  0.1474  0.2893
  637MOL0     C87781   0.166   7.938   0.782  0.3301 -0.5753  0.0586
  637MOL0     C87782   0.267   7.833   0.821  0.5438 -0.1639  0.6188
  637MOL0     C87783   0.193   7.700   0.857 -0.4133  1.0146 -1.5961
  637MOL0     C87784   0.290   7.604   0.926  0.8086  0.2572  0.6209
  637MOL0     N87785   0.352   7.501   0.846 -0.2224  0.5436 -0.5445
  637MOL0     C87786   0.294   7.391   0.789 -0.2202  0.3058 -0.1709
  637MOL0     C87787   0.395   7.335   0.720 -0.0473  0.2266 -0.1815
  637MOL0     C87788   0.377   7.208   0.634  0.1336  0.0775 -0.5573
  637MOL0     C87789   0.244   7.201   0.559 -0.6320 -0.0402  0.4493
  637MOL0     C87790   0.235   7.286   0.428  0.3853  0.3720  0.2381
  637MOL0     C87791   0.202   7.423   0.440 -0.4114  0.2777 -0.1341
  637MOL0     O87792   0.103   7.456   0.545  0.2863 -0.1941  0.2751
  637MOL0     C87793  -0.029   7.417   0.544 -0.0441  0.0332  0.1946
  637MOL0     C87794  -0.105   7.382   0.434 -0.3863  0.2794 -0.5053
  637MOL0     C87795  -0.225   7.320   0.444  0.1975  0.0940 -1.3674
  637MOL0     C87796  -0.295   7.260   0.323  0.0461 -0.4631 -0.0097
  637MOL0     C87797  -0.284   7.298   0.570  0.3810  0.2869 -0.3729
  637MOL0     C87798  -0.421   7.240   0.587  0.2296  0.3345  0.2317
  637MOL0     O87799  -0.522   7.299   0.509  0.6359  0.0600 -0.1864
  637MOL0     C87800  -0.660   7.278   0.543  0.3615  0.2976 -0.5802
  637MOL0     C87801  -0.710   7.149   0.560  0.3269 -0.1025  0.8352
  637MOL0     C87802  -0.845   7.126   0.567 -0.0642  0.9199  0.2159
  637MOL0     C87803  -0.939   7.234   0.569 -0.6839  0.3595  0.6375
  637MOL0     O87804  -1.079   7.226   0.590 -0.6486 -0.5249  0.1903
  637MOL0     C87805  -1.148   7.097   0.600  0.2925 -0.6651  1.0598
  637MOL0     C87806  -1.158   7.043   0.745 -0.0303 -0.8710 -0.3814
  637MOL0     C87807  -1.254   6.940   0.774 -0.2764 -0.1345 -0.1677
  637MOL0     C87808  -1.227   6.872   0.905  0.1210 -0.1803 -0.3560
  637MOL0     C87809  -1.326   6.761   0.930  0.2654  0.2598 -0.1358
  637MOL0     C87810  -1.280   6.627   0.858  1.1540  0.1206 -0.7106
  637MOL0     C87811  -1.375   6.504   0.856  0.0270  0.1048  0.1044
  637MOL0     C87812  -1.512   6.526   0.782 -0.6839  0.1630  0.1000
  637MOL0    Cl87813  -1.493   6.481   0.606 -0.0546 -0.2435 -0.1016
  637MOL0     C87814  -0.886   7.359   0.563 -0.1608 -0.2291 -0.3236
  637MOL0     C87815  -0.752   7.388   0.547 -0.5196  0.3704  0.6564
  637MOL0     O87816  -0.435   7.144   0.667  0.0746 -0.9693  0.1840
  637MOL0     C87817  -0.211   7.340   0.686 -0.9508  0.1229 -0.9826
  637MOL0     C87818  -0.084   7.397   0.665  0.6548 -0.2792 -0.7616
  637MOL0     N87819   0.507   7.411   0.728 -0.0674 -0.3015 -0.3905
  637MOL0     N87820   0.484   7.510   0.810 -0.2923 -0.2366 -0.2183
  637MOL0     C87821   0.445   8.593   0.986 -0.0824  0.6197 -0.1129
  637MOL0     C87822   0.508   8.709   0.944 -1.0247 -0.1172 -0.2620
  637MOL0     C87823   0.856   8.904   0.673  0.1663  0.1960  0.2489
  637MOL0     C87824   0.993   8.937   0.695 -1.0352 -0.5337 -0.2861
  637MOL0     C87825   1.069   9.017   0.607 -0.2375  0.0122 -0.5740
  637MOL0     C87826   1.008   9.066   0.494 -0.7130  0.3017  0.8383
  637MOL0     O87827   1.074   9.142   0.406 -0.2418 -0.3366 -0.0958
  637MOL0     C87828   1.130   9.072   0.292 -0.7242  1.0920 -0.2559
  637MOL0     C87829   1.196   9.171   0.197  0.5500 -0.0108  0.1948
  637MOL0     C87830   1.246   9.103   0.069 -0.5952  0.0399  0.3538
  637MOL0     C87831   1.244   9.192  -0.054 -0.1889  0.5124 -0.0121
  637MOL0     C87832   1.296   9.126  -0.170 -0.2686 -0.6245 -0.7043
  637MOL0     C87833   1.324   9.056  -0.262 -0.2665  0.0354 -0.5882
  637MOL0     C87834   0.872   9.027   0.474  0.0765  0.8048  1.3924
  637MOL0     C87835   0.797   8.942   0.554  0.6003 -0.2414 -0.6117
  637MOL0     C87836   0.648   8.936   0.517 -0.5458 -0.4298  0.5361
  637MOL0     H87837   0.661   8.568   0.665  3.2190 -1.3498  2.7033
  637MOL0     H87838   0.552   8.365   0.760  0.5142  0.4686 -1.0845
  637MOL0     H87839   0.306   8.345   0.753 -0.7941  1.1791  0.9147
  637MOL0     H87840   0.197   8.288   0.876 -0.3287  0.1246  0.6503
  637MOL0     H87841   0.468   8.162   0.907  1.2669  0.6760 -1.9851
  637MOL0     H87842   0.311   8.110   0.945  0.2355 -0.5613 -0.8050
  637MOL0     H87843   0.426   8.168   0.667  3.1495 -1.0018  1.9983
  637MOL0     H87844   0.437   8.009   0.722  0.8663  0.9450 -0.3908
  637MOL0     H87845   0.163   8.126   0.684  0.0174  0.2630 -2.2260
  637MOL0     H87846   0.233   8.010   0.587 -2.5189  1.9970 -0.3603
  637MOL0     H87847   0.080   7.895   0.730  0.0318  1.1488 -0.9903
  637MOL0     H87848   0.122   7.988   0.869 -0.2837  0.6068 -0.9005
  637MOL0     H87849   0.344   7.812   0.746 -0.2267 -0.5183 -0.0923
  637MOL0     H87850   0.335   7.864   0.900  1.3731 -2.6246  0.9703
  637MOL0     H87851   0.149   7.643   0.774  0.7937 -0.9280 -0.9651
  637MOL0     H87852   0.106   7.720   0.919  0.2869  1.1941 -0.6493
  637MOL0     H87853   0.358   7.655   0.995  2.8719  0.0844 -1.1614
  637MOL0     H87854   0.222   7.546   0.989  0.3049 -1.5484 -1.4686
  637MOL0     H87855   0.189   7.364   0.796 -0.1016 -1.3646 -3.1259
  637MOL0     H87856   0.376   7.115   0.692  2.0146 -0.1440 -0.8222
  637MOL0     H87857   0.459   7.192   0.563  2.0581  0.1020  1.5546
  637MOL0     H87858   0.223   7.098   0.531  2.7380 -0.6037 -0.3419
  637MOL0     H87859   0.165   7.232   0.628  1.3461  0.2000  2.7108
  637MOL0     H87860   0.333   7.284   0.380  0.6727  1.2060  0.7761
  637MOL0     H87861   0.171   7.234   0.355  0.4713  1.6150 -0.7435
  637MOL0     H87862   0.293   7.481   0.461 -0.6198  0.9886 -1.1297
  637MOL0     H87863   0.167   7.460   0.344 -0.7874  0.3465  0.0278
  637MOL0     H87864  -0.056   7.377   0.338  0.9448 -2.6406  0.2020
  637MOL0     H87865  -0.364   7.333   0.279  1.6467  0.2712 -1.4459
  637MOL0     H87866  -0.346   7.165   0.343 -1.5861 -1.0403 -5.3281
  637MOL0     H87867  -0.224   7.251   0.241  0.7292  0.9549  0.3953
  637MOL0     H87868  -0.643   7.066   0.542 -1.0262 -0.7145 -2.0182
  637MOL0     H87869  -0.888   7.028   0.581  0.8001  0.6045  0.7489
  637MOL0     H87870  -1.248   7.118   0.561  0.4997 -0.5267  0.6019
  637MOL0     H87871  -1.108   7.011   0.545 -0.2106 -0.1946 -0.0546
  637MOL0     H87872  -1.061   7.001   0.774  1.0706  0.2330 -2.2741
  637MOL0     H87873  -1.170   7.125   0.816  0.5321 -1.9685  1.0320
  637MOL0     H87874  -1.259   6.868   0.693 -1.1917  0.5356 -0.7254
  637MOL0     H87875  -1.353   6.986   0.767  1.4128  4.2988  0.9447
  637MOL0     H87876  -1.246   6.942   0.987 -1.0407 -0.1693 -0.6064
  637MOL0     H87877  -1.128   6.828   0.918 -0.5370 -1.4649  0.4871
  637MOL0     H87878  -1.341   6.744   1.037  0.7895  2.4073  0.3328
  637MOL0     H87879  -1.422   6.795   0.891 -0.3466 -2.2944 -1.0378
  637MOL0     H87880  -1.185   6.594   0.900  0.3677  0.3817  1.4140
  637MOL0     H87881  -1.270   6.655   0.753 -2.8998  0.0640 -1.2770
  637MOL0     H87882  -1.401   6.484   0.960  1.1609 -0.4734  0.2925
  637MOL0     H87883  -1.322   6.426   0.800 -0.0344 -0.2159  0.4921
  637MOL0     H87884  -1.553   6.627   0.793  0.2659  0.5151  0.6369
  637MOL0     H87885  -1.583   6.457   0.826 -0.4472 -1.7443 -2.3316
  637MOL0     H87886  -0.956   7.442   0.570  0.9469  0.7243 -0.3263
  637MOL0     H87887  -0.721   7.492   0.548  0.6577  0.0208  1.6763
  637MOL0     H87888  -0.242   7.331   0.789  1.8173  3.8049  0.4004
  637MOL0     H87889  -0.018   7.425   0.747  3.2489 -0.9163 -2.4993
  637MOL0     H87890   0.370   8.601   1.063  1.1437  1.3234  1.0412
  637MOL0     H87891   0.508   8.806   0.993 -2.1202 -0.0856 -0.2994
  637MOL0     H87892   1.049   8.905   0.783 -1.5808  0.5656  0.4892
  637MOL0     H87893   1.169   9.051   0.631  0.1922  1.0354 -3.3943
  637MOL0     H87894   1.197   8.996   0.333  0.1033  1.4092 -0.9855
  637MOL0     H87895   1.058   9.011   0.237 -1.2061 -0.2038  1.7179
  637MOL0     H87896   1.280   9.226   0.241  0.9183  1.3353 -2.0490
  637MOL0     H87897   1.120   9.246   0.176  1.2198  1.2181  1.8719
  637MOL0     H87898   1.347   9.063   0.083  0.3542  1.4649 -1.9303
  637MOL0     H87899   1.186   9.012   0.051 -0.0388 -0.1339 -0.6787
  637MOL0     H87900   1.310   9.275  -0.029  0.1020  0.3949 -0.3884
  637MOL0     H87901   1.149   9.235  -0.085 -0.3796 -0.5687 -1.0341
  637MOL0     H87902   1.329   9.001  -0.353  1.5953 -2.7407  1.0385
  637MOL0     H87903   0.829   9.059   0.379  0.8227  2.5095  1.5848
  637MOL0     H87904   0.627   8.966   0.414 -0.5805 -1.7081  0.1569
  637MOL0     H87905   0.594   8.842   0.533 -1.8809 -0.5761 -3.6338
  637MOL0     H87906   0.603   9.013   0.581 -2.7878 -1.6567  0.5317
  638MOL0     O87907   9.171   5.006   3.892  0.6934  0.3938  0.0104
  638MOL0     C87908   9.215   4.906   3.943 -0.0603  0.0131 -0.6828
  638MOL0     O87909   9.136   4.816   4.005  0.1454 -0.3185  0.4222
  638MOL0     C87910   9.001   4.837   4.021  0.1689  0.6428 -0.6789
  638MOL0     C87911   8.956   4.792   4.142 -0.3303 -0.6432 -0.7194
  638MOL0     C87912   8.820   4.803   4.175 -0.2674  0.8397  0.3363
  638MOL0     C87913   8.735   4.842   4.075  0.3794 -0.3524 -0.5216
  638MOL0     O87914   8.604   4.865   4.101  1.1784  0.3470  0.1608
  638MOL0     C87915   8.565   4.919   4.237 -0.1934 -0.3966  0.8803
  638MOL0     C87916   8.620   5.064   4.253 -0.2077  0.5401 -0.0564
  638MOL0     C87917   8.580   5.173   4.141  0.2704  0.1228  0.8218
  638MOL0     C87918   8.635   5.310   4.180 -0.0402 -0.9926  0.2559
  638MOL0     C87919   8.607   5.419   4.077 -0.0286 -0.1014 -0.1107
  638MOL0     C87920   8.452   5.449   4.074 -0.2556  0.1005 -0.2411
  638MOL0     C87921   8.430   5.608   4.055  0.8206  0.9870  0.7045
  638MOL0     C87922   8.494   5.693   4.149  0.0651 -0.6582  0.0545
  638MOL0     N87923   8.418   5.821   4.153  0.6285 -0.3688 -0.6125
  638MOL0     C87924   8.337   5.881   4.062  0.7156 -0.1216 -0.5557
  638MOL0     C87925   8.285   5.991   4.119  0.3567 -0.3084 -0.4903
  638MOL0     C87926   8.209   6.100   4.055 -1.8512  0.2439  0.0195
  638MOL0     C87927   8.059   6.085   4.059  0.4364  0.4026  0.2381
  638MOL0     C87928   8.003   6.153   4.180 -0.2945 -0.0433  0.5771
  638MOL0     C87929   7.858   6.139   4.201  0.5952  0.0157 -0.2233
  638MOL0     O87930   7.807   6.005   4.181  0.4291  0.4312  0.2406
  638MOL0     C87931   7.671   5.991   4.143  0.4484 -0.7536 -0.4740
  638MOL0     C87932   7.627   5.863   4.102 -0.5485  0.2786 -1.1651
  638MOL0     C87933   7.493   5.840   4.063 -0.0986 -0.2129 -0.6562
  638MOL0     C87934   7.459   5.709   4.009  0.1563 -0.1062 -0.0348
  638MOL0     C87935   7.395   5.948   4.078  0.4693  0.0366 -0.0488
  638MOL0     C87936   7.263   5.944   4.008 -0.4874  0.1998  0.3047
  638MOL0     O87937   7.222   6.072   3.964  0.2730  0.9052  0.1708
  638MOL0     C87938   7.102   6.081   3.896 -0.9246 -0.0772 -0.4802
  638MOL0     C87939   7.016   6.182   3.931 -0.1595 -0.3597  0.5014
  638MOL0     C87940   6.904   6.209   3.864  0.2575 -0.7367  0.1897
  638MOL0     C87941   6.858   6.138   3.758 -0.0448  0.4149 -0.1746
  638MOL0     O87942   6.731   6.133   3.708 -0.3044  0.2671 -0.3951
  638MOL0     C87943   6.624   6.196   3.771 -0.1771  0.5858 -0.8102
  638MOL0     C87944   6.497   6.106   3.747  0.1306  0.3908  0.2713
  638MOL0     C87945   6.527   5.959   3.771  0.6290  0.4406  0.6109
  638MOL0     C87946   6.533   5.940   3.918  0.2677  1.0519 -0.0810
  638MOL0     C87947   6.578   5.801   3.953 -1.4226  0.5422 -0.7633
  638MOL0     C87948   6.448   5.707   3.982 -0.1843  0.0184  0.1070
  638MOL0     C87949   6.481   5.559   3.952 -0.5774  0.7480 -0.6616
  638MOL0     C87950   6.597   5.499   4.054  0.4151  1.0019  0.0948
  638MOL0    Cl87951   6.658   5.370   3.963 -0.0977 -0.3621  0.4674
  638MOL0     C87952   6.943   6.027   3.722  0.0822 -0.4779  0.0111
  638MOL0     C87953   7.066   6.006   3.777 -0.2877  0.0661 -0.7509
  638MOL0     O87954   7.196   5.842   4.010  0.9361  0.1895  0.3642
  638MOL0     C87955   7.442   6.065   4.148 -0.3741 -0.3288  0.6247
  638MOL0     C87956   7.573   6.075   4.184 -0.4495 -0.0736  0.7328
  638MOL0     N87957   8.335   5.996   4.245  0.4108 -0.4726 -0.1835
  638MOL0     N87958   8.418   5.903   4.262 -0.3282 -0.6662 -0.1683
  638MOL0     C87959   8.773   4.886   3.947 -0.8982  0.2746 -0.3047
  638MOL0     C87960   8.907   4.879   3.928 -1.4255  0.7209  0.2433
  638MOL0     C87961   9.366   4.879   3.932  0.5601 -0.5991  0.2668
  638MOL0     C87962   9.407   4.750   3.982  0.2344 -0.3184 -0.7184
  638MOL0     C87963   9.543   4.713   3.967 -0.0365 -1.3025  0.3023
  638MOL0     C87964   9.638   4.791   3.911 -0.2429 -0.1748  0.0069
  638MOL0     O87965   9.767   4.742   3.904  0.4726  0.0301  0.7098
  638MOL0     C87966   9.859   4.804   3.815  0.5651  0.6289  0.2361
  638MOL0     C87967   9.989   4.725   3.807 -0.8909  0.1168 -1.1125
  638MOL0     C87968  10.099   4.791   3.885 -0.3016  0.0362  0.1941
  638MOL0     C87969  10.129   4.941   3.840  0.2248 -0.1516  0.1968
  638MOL0     C87970  10.088   5.040   3.934  1.3623 -0.0546 -0.1319
  638MOL0     C87971  10.065   5.119   4.027  0.4223 -0.5270  0.5809
  638MOL0     C87972   9.601   4.924   3.869 -0.4252  0.7839 -0.5528
  638MOL0     C87973   9.468   4.970   3.888 -0.0420 -0.3236 -0.6202
  638MOL0     C87974   9.445   5.119   3.852  0.5905  0.5030  0.1131
  638MOL0     H87975   9.016   4.739   4.216  0.7803 -0.9464 -1.7991
  638MOL0     H87976   8.775   4.771   4.269  1.6025  0.9982  1.3254
  638MOL0     H87977   8.604   4.866   4.325  2.5043 -0.0453 -0.0188
  638MOL0     H87978   8.455   4.926   4.239 -0.2606 -0.6403 -0.7827
  638MOL0     H87979   8.593   5.088   4.356 -3.6884 -0.0552 -0.6959
  638MOL0     H87980   8.729   5.062   4.250 -0.0063 -3.8075  1.9627
  638MOL0     H87981   8.618   5.138   4.045 -2.2327 -2.1090  0.5178
  638MOL0     H87982   8.472   5.166   4.125  0.4647  1.6060 -1.5694
  638MOL0     H87983   8.589   5.333   4.276  1.4804 -0.6372  0.9217
  638MOL0     H87984   8.744   5.306   4.188 -0.0230 -4.9499 -0.0973
  638MOL0     H87985   8.640   5.396   3.975 -0.0376  3.5909 -1.0889
  638MOL0     H87986   8.675   5.497   4.113 -0.5673  0.1160  0.4523
  638MOL0     H87987   8.402   5.384   4.001 -2.0688 -0.5155  1.4477
  638MOL0     H87988   8.401   5.423   4.167 -0.5300  0.7653 -0.1968
  638MOL0     H87989   8.324   5.633   4.060 -0.3682 -3.1630  0.4044
  638MOL0     H87990   8.462   5.633   3.953 -2.2079  1.7371 -0.1629
  638MOL0     H87991   8.499   5.653   4.250 -1.4056 -1.5601 -0.1910
  638MOL0     H87992   8.594   5.705   4.107  0.6965  0.1720  1.7244
  638MOL0     H87993   8.312   5.830   3.970 -0.7697 -2.4688  1.0301
  638MOL0     H87994   8.248   6.114   3.954 -0.3010  0.4164  0.6081
  638MOL0     H87995   8.227   6.195   4.108 -5.4934  2.0354 -1.5812
  638MOL0     H87996   8.023   6.141   3.973  0.7059 -1.6970 -1.3140
  638MOL0     H87997   8.037   5.977   4.060 -1.5419  0.7554  0.7389
  638MOL0     H87998   8.046   6.109   4.270  3.2891 -0.7859 -1.2993
  638MOL0     H87999   8.032   6.259   4.170  1.0688 -0.4556 -0.2080
  638MOL0     H88000   7.849   6.177   4.303 -0.8845  1.6024 -0.8738
  638MOL0     H88001   7.805   6.207   4.132  2.0293  0.9963 -0.4054
  638MOL0     H88002   7.703   5.787   4.087 -2.8467 -3.6217  3.8321
  638MOL0     H88003   7.543   5.642   4.030  0.6822  0.7730  0.7092
  638MOL0     H88004   7.463   5.704   3.899  1.5170 -3.6739  0.0365
  638MOL0     H88005   7.366   5.666   4.048 -0.4557  1.9180  0.8733
  638MOL0     H88006   7.041   6.219   4.030 -0.0986 -2.8081  1.4618
  638MOL0     H88007   6.854   6.293   3.911  0.4964  0.7906 -2.0790
  638MOL0     H88008   6.630   6.203   3.880 -0.4425  0.5301 -0.7913
  638MOL0     H88009   6.611   6.295   3.724  2.7986  0.6438 -1.7144
  638MOL0     H88010   6.421   6.149   3.813 -0.6752 -1.8322  0.8799
  638MOL0     H88011   6.461   6.113   3.644  2.6257  1.9905 -0.5820
  638MOL0     H88012   6.621   5.928   3.724 -0.7077 -1.4670 -1.0252
  638MOL0     H88013   6.443   5.898   3.737 -2.0478  3.3148  1.6669
  638MOL0     H88014   6.440   5.963   3.972  0.5144 -1.6229  1.6786
  638MOL0     H88015   6.607   6.008   3.961  0.3110 -0.4850  2.4499
  638MOL0     H88016   6.635   5.758   3.871 -1.5801  3.6407 -2.6081
  638MOL0     H88017   6.651   5.810   4.034  2.6993 -1.3954 -3.9282
  638MOL0     H88018   6.371   5.735   3.911  0.0750 -3.5332 -1.8139
  638MOL0     H88019   6.432   5.735   4.087  2.4225  0.6249  0.4312
  638MOL0     H88020   6.523   5.554   3.852 -2.3797  1.5178 -1.5014
  638MOL0     H88021   6.391   5.497   3.945  0.7476 -1.1480 -2.1636
  638MOL0     H88022   6.565   5.463   4.152  0.5157  0.0359 -0.2202
  638MOL0     H88023   6.679   5.571   4.047  0.8979  0.3813 -0.7944
  638MOL0     H88024   6.906   5.948   3.657 -2.0290 -0.2734  0.8829
  638MOL0     H88025   7.126   5.917   3.757  3.3992  2.0830  0.3741
  638MOL0     H88026   7.367   6.140   4.171 -0.0496 -0.0103  0.6721
  638MOL0     H88027   7.611   6.149   4.254  2.2915  2.5940 -3.1340
  638MOL0     H88028   8.700   4.918   3.874 -0.1568 -1.3368 -1.8170
  638MOL0     H88029   8.940   4.896   3.826 -1.7267  1.5956  0.2798
  638MOL0     H88030   9.329   4.691   4.029 -0.7253  0.9007 -0.7040
  638MOL0     H88031   9.573   4.625   4.022 -0.9427 -0.7494  1.7766
  638MOL0     H88032   9.820   4.835   3.717 -3.1834 -0.3485  1.3007
  638MOL0     H88033   9.880   4.901   3.861 -1.7159 -0.0626  2.9963
  638MOL0     H88034  10.003   4.715   3.699 -1.0711  1.1384 -1.2440
  638MOL0     H88035   9.977   4.629   3.859  0.2104  1.1389  1.1976
  638MOL0     H88036  10.060   4.798   3.987  3.6185  2.0687  1.7524
  638MOL0     H88037  10.189   4.731   3.903  0.0532  0.0030 -1.4951
  638MOL0     H88038  10.093   4.962   3.739 -1.2788  0.8214  0.9075
  638MOL0     H88039  10.238   4.953   3.835 -0.0142  1.9995 -1.3139
  638MOL0     H88040  10.027   5.179   4.107  2.6852  2.5044 -0.4661
  638MOL0     H88041   9.677   4.995   3.840 -0.1764  1.5802  1.8549
  638MOL0     H88042   9.386   5.138   3.762  2.0479 -0.5951 -1.1241
  638MOL0     H88043   9.396   5.169   3.936 -1.2065 -2.0952  0.7141
  638MOL0     H88044   9.542   5.162   3.825  0.4293  0.7457 -0.0924
  639MOL0     O88045   7.558   3.878  11.150  0.5988 -0.2952  0.0594
  639MOL0     C88046   7.535   3.810  11.049  0.2206  0.1884  0.1560
  639MOL0     O88047   7.418   3.740  11.032 -0.2303  0.1474 -0.2588
  639MOL0     C88048   7.311   3.759  11.118  0.8063  0.2716 -0.1599
  639MOL0     C88049   7.290   3.681  11.233 -0.4431 -0.1854  0.0549
  639MOL0     C88050   7.179   3.692  11.312 -0.4498 -0.4254 -0.5536
  639MOL0     C88051   7.064   3.759  11.267 -0.0163 -0.5823 -0.9714
  639MOL0     O88052   6.943   3.755  11.342 -1.0347 -0.5161  0.3642
  639MOL0     C88053   6.818   3.754  11.279  0.3906  0.0475 -0.0734
  639MOL0     C88054   6.775   3.611  11.251 -0.1900 -0.8488 -0.3642
  639MOL0     C88055   6.631   3.595  11.213 -0.2275  1.9745  0.1401
  639MOL0     C88056   6.615   3.476  11.113 -0.0705 -0.2227  0.2541
  639MOL0     C88057   6.475   3.426  11.091  0.0067  0.1796 -0.0544
  639MOL0     C88058   6.463   3.335  10.964 -0.1290 -0.1733 -0.5294
  639MOL0     C88059   6.318   3.326  10.912 -0.9678  0.4471  0.2656
  639MOL0     C88060   6.294   3.209  10.814 -0.1085 -0.5793  0.3429
  639MOL0     N88061   6.377   3.218  10.688 -0.0544  0.1038 -0.3870
  639MOL0     C88062   6.372   3.315  10.594 -0.0511  0.2570  0.3497
  639MOL0     C88063   6.455   3.278  10.502 -0.2597 -0.6238  0.5148
  639MOL0     C88064   6.502   3.364  10.384  0.1105 -1.0157  0.8601
  639MOL0     C88065   6.478   3.294  10.244 -0.1053 -0.3689 -0.2963
  639MOL0     C88066   6.570   3.171  10.238  0.6908  0.0999 -0.8860
  639MOL0     C88067   6.565   3.108  10.100  0.1241  0.3578 -0.0424
  639MOL0     O88068   6.430   3.073  10.076  0.1801  0.0428  0.2944
  639MOL0     C88069   6.420   2.970   9.995  0.5092  0.5069 -0.0264
  639MOL0     C88070   6.332   2.875  10.029  0.2851  0.3635  0.3833
  639MOL0     C88071   6.318   2.756   9.946  0.6471 -0.9302 -0.0539
  639MOL0     C88072   6.209   2.655   9.991  0.2039 -1.1163  0.1659
  639MOL0     C88073   6.398   2.730   9.836  0.3288 -0.1792 -0.3356
  639MOL0     C88074   6.409   2.607   9.758 -0.1221  0.8516  0.6905
  639MOL0     O88075   6.437   2.622   9.626  0.2065 -1.0618 -0.3164
  639MOL0     C88076   6.497   2.529   9.547 -0.7717 -0.3883 -0.1617
  639MOL0     C88077   6.632   2.481   9.572  0.0887  0.3062  0.5774
  639MOL0     C88078   6.691   2.400   9.480  0.1463  0.3501  0.1163
  639MOL0     C88079   6.623   2.354   9.367 -0.2883  0.2461  0.4384
  639MOL0     O88080   6.697   2.274   9.280  0.0355 -0.5582  0.5418
  639MOL0     C88081   6.681   2.295   9.136 -0.3426  0.2936  0.0377
  639MOL0     C88082   6.571   2.195   9.081 -0.0282 -0.4225  0.3613
  639MOL0     C88083   6.633   2.059   9.070 -1.2323  0.0420 -0.0034
  639MOL0     C88084   6.573   1.972   8.964  0.1394  0.2816 -0.3026
  639MOL0     C88085   6.423   1.958   8.966 -0.3519  0.3825  0.4651
  639MOL0     C88086   6.374   1.855   8.864 -0.0638  0.8449 -0.3434
  639MOL0     C88087   6.221   1.832   8.860  0.3023 -0.9224 -0.3392
  639MOL0     C88088   6.184   1.722   8.764 -0.3965 -0.2801  0.0433
  639MOL0    Cl88089   6.084   1.773   8.627 -0.4614  0.2874  0.0975
  639MOL0     C88090   6.501   2.410   9.338  0.1334  0.1982  0.2729
  639MOL0     C88091   6.440   2.497   9.427  0.5343  0.0680  0.5742
  639MOL0     O88092   6.402   2.497   9.816 -0.7865 -0.3403 -0.8582
  639MOL0     C88093   6.477   2.844   9.794 -1.7452 -0.2743  0.0049
  639MOL0     C88094   6.496   2.961   9.874  0.2282  1.0734 -0.3674
  639MOL0     N88095   6.500   3.157  10.531  0.3796  0.8429 -0.6363
  639MOL0     N88096   6.451   3.122  10.642 -0.5427 -0.0215  0.7531
  639MOL0     C88097   7.083   3.844  11.153 -0.5805  0.0758 -0.6754
  639MOL0     C88098   7.205   3.846  11.085  0.2861  0.3391  0.1672
  639MOL0     C88099   7.641   3.795  10.948  0.3150  0.2045 -0.3915
  639MOL0     C88100   7.653   3.669  10.880 -0.2560  0.0279 -0.2597
  639MOL0     C88101   7.774   3.633  10.804 -0.4856 -0.5825 -0.0284
  639MOL0     C88102   7.875   3.737  10.783 -0.5577  0.0918  0.0456
  639MOL0     O88103   7.996   3.703  10.723  0.6636 -0.0032  0.7156
  639MOL0     C88104   8.071   3.799  10.655 -0.5160  0.4228 -0.4814
  639MOL0     C88105   7.990   3.837  10.531  0.4247  0.9989  1.0107
  639MOL0     C88106   8.041   3.954  10.451  0.2114  0.0035 -0.5852
  639MOL0     C88107   8.154   3.920  10.356 -0.3000  0.3775 -0.8042
  639MOL0     C88108   8.111   3.826  10.245 -0.0681  0.4321 -0.3178
  639MOL0     C88109   8.074   3.747  10.166  0.4323  0.1101  0.8722
  639MOL0     C88110   7.845   3.861  10.833  0.1804  0.4762 -0.2907
  639MOL0     C88111   7.731   3.893  10.918 -0.6510 -0.3880 -0.8212
  639MOL0     C88112   7.727   4.033  10.976  0.5216  0.3631  0.3076
  639MOL0     H88113   7.376   3.618  11.254  0.0425 -0.1951 -1.7498
  639MOL0     H88114   7.174   3.632  11.402  0.5041 -0.2303 -0.3587
  639MOL0     H88115   6.798   3.822  11.196  1.3545 -1.1647 -1.3254
  639MOL0     H88116   6.745   3.809  11.340  1.5630  1.8298 -0.1956
  639MOL0     H88117   6.845   3.590  11.170  3.4197  0.5479  2.1008
  639MOL0     H88118   6.808   3.554  11.338  1.3396  3.4606  2.2219
  639MOL0     H88119   6.587   3.576  11.312 -1.3917 -1.7266 -0.9073
  639MOL0     H88120   6.580   3.682  11.172 -0.4338  0.7235 -2.4406
  639MOL0     H88121   6.655   3.519  11.021  1.6959  4.2981  2.7915
  639MOL0     H88122   6.682   3.394  11.142 -0.8384 -1.5054 -1.4303
  639MOL0     H88123   6.402   3.507  11.083 -0.8818 -0.6630 -0.7048
  639MOL0     H88124   6.431   3.371  11.175 -0.8543  1.4379  0.3436
  639MOL0     H88125   6.515   3.392  10.887  0.4063  4.0718  2.5924
  639MOL0     H88126   6.505   3.237  10.991  0.2146  0.3989  1.1547
  639MOL0     H88127   6.294   3.418  10.859 -0.8552  1.7172  2.3345
  639MOL0     H88128   6.251   3.317  10.998 -1.5278  0.2854 -0.1784
  639MOL0     H88129   6.289   3.107  10.854 -1.2268 -1.0452 -0.9238
  639MOL0     H88130   6.191   3.235  10.787  1.2330  3.2119 -1.8087
  639MOL0     H88131   6.323   3.412  10.603  2.3542  1.5179  0.6307
  639MOL0     H88132   6.611   3.376  10.386  0.0470 -0.1552 -0.1893
  639MOL0     H88133   6.471   3.465  10.410  3.1021  0.1747  0.1920
  639MOL0     H88134   6.378   3.253  10.223  0.8844 -3.1518  0.0241
  639MOL0     H88135   6.500   3.363  10.162  2.4571 -3.0109 -1.9909
  639MOL0     H88136   6.673   3.204  10.258  0.0803  0.4290  2.2299
  639MOL0     H88137   6.550   3.095  10.315 -0.2703  1.4524  0.2445
  639MOL0     H88138   6.605   3.178  10.026  2.1436  0.1596  0.8118
  639MOL0     H88139   6.640   3.029  10.107 -0.9097 -0.5070  2.1921
  639MOL0     H88140   6.286   2.887  10.127 -0.7990 -1.1651  0.1006
  639MOL0     H88141   6.170   2.692  10.085 -2.3453  1.2284 -1.6635
  639MOL0     H88142   6.253   2.555  10.004  0.4005 -1.0075  0.3398
  639MOL0     H88143   6.134   2.647   9.911  2.3045 -2.3182 -1.8287
  639MOL0     H88144   6.684   2.517   9.660 -2.2740 -0.1028  2.2430
  639MOL0     H88145   6.795   2.373   9.497 -0.1753  0.6485  3.0258
  639MOL0     H88146   6.651   2.401   9.132 -0.4415  0.3163  1.0262
  639MOL0     H88147   6.774   2.272   9.084  1.2069  1.3812  2.1450
  639MOL0     H88148   6.484   2.187   9.147  1.0325  3.0931  2.4222
  639MOL0     H88149   6.548   2.234   8.982 -0.0856 -1.8258 -0.2053
  639MOL0     H88150   6.616   2.006   9.164 -0.6247  1.8007  1.1412
  639MOL0     H88151   6.738   2.072   9.043 -1.6355  1.9462 -0.8372
  639MOL0     H88152   6.612   1.874   8.992 -1.7348  0.0733  1.7814
  639MOL0     H88153   6.606   1.996   8.862  0.5863 -1.6556 -0.6466
  639MOL0     H88154   6.388   1.945   9.069  0.6660 -0.5802  0.7015
  639MOL0     H88155   6.384   2.055   8.933 -0.3697 -0.5525 -2.4960
  639MOL0     H88156   6.411   1.756   8.894 -0.5781  0.8136  0.2104
  639MOL0     H88157   6.404   1.877   8.762  0.5803 -1.0198 -0.5897
  639MOL0     H88158   6.170   1.921   8.823  0.6709  0.2590  1.8283
  639MOL0     H88159   6.176   1.801   8.955 -0.9512  0.8536 -0.3062
  639MOL0     H88160   6.135   1.639   8.815  2.1015 -1.7094  0.2575
  639MOL0     H88161   6.276   1.683   8.718 -1.1962 -2.3827  0.1533
  639MOL0     H88162   6.458   2.403   9.239 -1.3998 -0.1770  0.9472
  639MOL0     H88163   6.354   2.553   9.392 -0.0028 -0.0198  1.7298
  639MOL0     H88164   6.545   2.841   9.709 -2.2086  0.0778 -0.3791
  639MOL0     H88165   6.554   3.047   9.842  0.3067  1.3297  0.4369
  639MOL0     H88166   6.998   3.897  11.112 -1.3265 -1.4028 -1.1052
  639MOL0     H88167   7.204   3.914  11.002 -0.9487  0.1667  0.0319
  639MOL0     H88168   7.572   3.602  10.905  0.0533  0.1511  1.1714
  639MOL0     H88169   7.777   3.537  10.753 -2.5559  0.1760 -1.7130
  639MOL0     H88170   8.082   3.885  10.722 -4.0506 -0.9358  2.1459
  639MOL0     H88171   8.168   3.753  10.636 -2.2809 -2.4211 -3.6996
  639MOL0     H88172   7.887   3.846  10.567  0.0971 -2.5469  1.3923
  639MOL0     H88173   7.982   3.755  10.459  1.9351  2.7450 -1.2517
  639MOL0     H88174   7.956   3.982  10.387 -1.3811 -2.9293  0.0738
  639MOL0     H88175   8.065   4.040  10.514 -1.0643  1.0983 -1.5389
  639MOL0     H88176   8.229   3.871  10.418 -2.9945 -0.2215  2.2021
  639MOL0     H88177   8.196   4.005  10.300  1.9619 -0.9307 -1.2288
  639MOL0     H88178   8.038   3.681  10.089 -0.1692 -0.2540  1.4571
  639MOL0     H88179   7.910   3.947  10.824 -4.1050  4.3380  1.8965
  639MOL0     H88180   7.623   4.067  10.977  0.9343  1.7371 -0.3062
  639MOL0     H88181   7.769   4.045  11.076  2.0531  2.0297 -0.4595
  639MOL0     H88182   7.778   4.106  10.912  0.5012  1.8814  1.9503
  640MOL0     O88183  10.900   6.149  11.232 -0.3385  0.1632 -0.1613
  640MOL0     C88184  10.927   6.148  11.111 -0.3409 -0.3777 -0.6893
  640MOL0     O88185  11.061   6.111  11.063 -0.0843 -0.2100 -0.4984
  640MOL0     C88186  11.147   6.078  11.170 -0.7229  0.0946  1.0113
  640MOL0     C88187  11.174   5.937  11.183 -0.1116  1.0057 -0.1508
  640MOL0     C88188  11.241   5.899  11.294  0.2935 -0.2103  0.5548
  640MOL0     C88189  11.282   5.989  11.394  0.1354  0.5130 -0.0025
  640MOL0     O88190  11.321   5.949  11.517  0.5372 -0.1653  0.1018
  640MOL0     C88191  11.459   5.914  11.519 -0.1841  1.2591  0.4512
  640MOL0     C88192  11.482   5.789  11.599  0.4720  0.6361  0.4920
  640MOL0     C88193  11.636   5.744  11.589  0.3168 -0.0323  0.1501
  640MOL0     C88194  11.707   5.690  11.714  0.0689 -1.0540  0.6474
  640MOL0     C88195  11.849   5.652  11.689  0.0020 -0.4882  1.1167
  640MOL0     C88196  11.868   5.503  11.645 -0.2142  0.4420 -0.2649
  640MOL0     C88197  12.012   5.481  11.576  0.6313  0.0324  0.4172
  640MOL0     C88198  12.129   5.469  11.675  0.3652  0.6474 -0.3774
  640MOL0     N88199  12.237   5.396  11.605  0.4100  0.1819  0.4164
  640MOL0     C88200  12.261   5.264  11.612  0.9729  0.0037 -0.8550
  640MOL0     C88201  12.385   5.236  11.563 -0.0716 -0.2539  0.2377
  640MOL0     C88202  12.451   5.100  11.563 -0.0814  0.6010 -0.4861
  640MOL0     C88203  12.589   5.115  11.629 -0.3266  0.6590 -0.4774
  640MOL0     C88204  12.672   4.987  11.640  0.0485 -0.5480  1.0589
  640MOL0     C88205  12.665   4.904  11.512 -1.1354 -0.4477  0.5031
  640MOL0     O88206  12.734   4.778  11.530  0.2380 -0.0651 -0.1468
  640MOL0     C88207  12.679   4.665  11.587 -0.0742 -1.4325 -0.2097
  640MOL0     C88208  12.558   4.656  11.668 -0.2338  0.7205  0.2972
  640MOL0     C88209  12.507   4.528  11.713  0.3884 -0.3505 -0.3687
  640MOL0     C88210  12.370   4.525  11.774 -0.3110 -0.6508  0.7039
  640MOL0     C88211  12.588   4.413  11.694  0.0747  0.9154  0.5303
  640MOL0     C88212  12.553   4.271  11.750  0.8712 -1.4013  0.9269
  640MOL0     O88213  12.654   4.184  11.746  0.1944  0.3306  0.2135
  640MOL0     C88214  12.639   4.068  11.806 -1.1298  0.6383 -0.1207
  640MOL0     C88215  12.647   4.062  11.949 -0.6591 -0.2562 -0.5229
  640MOL0     C88216  12.636   3.936  12.010 -0.0435 -0.7193  0.4738
  640MOL0     C88217  12.611   3.818  11.942  0.9498 -0.2520  0.3233
  640MOL0     O88218  12.604   3.698  12.005  0.2978  0.0505 -0.0007
  640MOL0     C88219  12.733   3.631  12.027  0.5277  0.2302  0.6169
  640MOL0     C88220  12.794   3.594  11.886 -0.7324 -0.4995 -0.6138
  640MOL0     C88221  12.942   3.558  11.907  0.1911  0.1390  0.8658
  640MOL0     C88222  13.019   3.547  11.776  0.6674  0.1943 -0.2071
  640MOL0     C88223  12.979   3.419  11.706 -0.2924  0.2112 -0.4576
  640MOL0     C88224  13.024   3.440  11.561  0.0661  0.5234  0.4118
  640MOL0     C88225  13.030   3.316  11.482  0.1562  0.3770 -0.7187
  640MOL0     C88226  13.062   3.357  11.336  0.4184 -0.3056  0.7847
  640MOL0    Cl88227  13.093   3.218  11.238 -0.2425  0.4751  0.0080
  640MOL0     C88228  12.594   3.825  11.807  0.1893 -0.1070  0.5069
  640MOL0     C88229  12.605   3.947  11.739  0.4038 -0.2479  0.6774
  640MOL0     O88230  12.438   4.252  11.806 -0.1040 -0.0302  0.1512
  640MOL0     C88231  12.710   4.431  11.623  0.2716 -0.3089  0.6437
  640MOL0     C88232  12.753   4.552  11.564 -0.0872 -0.3404  0.3702
  640MOL0     N88233  12.430   5.354  11.507  0.3305 -0.3616  0.4431
  640MOL0     N88234  12.344   5.450  11.541 -0.0692  0.4295 -0.2259
  640MOL0     C88235  11.261   6.126  11.384  0.3284 -0.4141 -0.9688
  640MOL0     C88236  11.198   6.173  11.264  0.1686  0.0902 -0.2933
  640MOL0     C88237  10.830   6.192  11.004  0.7901 -0.4033 -0.4143
  640MOL0     C88238  10.851   6.163  10.877 -0.1277 -0.3067  0.9268
  640MOL0     C88239  10.789   6.228  10.768  1.1364  0.1345 -0.1834
  640MOL0     C88240  10.674   6.297  10.795 -0.0008 -0.0851 -0.9740
  640MOL0     O88241  10.588   6.335  10.693 -0.9060  0.2106 -0.2463
  640MOL0     C88242  10.637   6.373  10.564  0.2000  0.2601 -0.9032
  640MOL0     C88243  10.536   6.437  10.479  0.6059 -0.4785 -0.5031
  640MOL0     C88244  10.511   6.583  10.521 -0.2468  1.0256 -0.4980
  640MOL0     C88245  10.630   6.680  10.482 -0.1716  0.3720 -0.4586
  640MOL0     C88246  10.689   6.661  10.345 -0.9658 -0.8721 -0.5426
  640MOL0     C88247  10.754   6.641  10.239 -0.2263  0.0545 -0.2098
  640MOL0     C88248  10.636   6.332  10.920  0.0838  0.5503 -0.1839
  640MOL0     C88249  10.721   6.284  11.032  0.2044  0.1957  0.6620
  640MOL0     C88250  10.681   6.340  11.164  0.1941 -0.0490 -0.0513
  640MOL0     H88251  11.151   5.851  11.120 -0.7129 -0.8977  2.5002
  640MOL0     H88252  11.265   5.794  11.309 -0.0155 -0.3149  0.3256
  640MOL0     H88253  11.517   5.991  11.571 -0.4823  1.0196  1.1509
  640MOL0     H88254  11.491   5.900  11.415 -0.0399  0.2905  0.6203
  640MOL0     H88255  11.460   5.814  11.703  0.6485  2.8052  0.0579
  640MOL0     H88256  11.420   5.708  11.560  0.4834  0.3074  1.1564
  640MOL0     H88257  11.629   5.658  11.522 -3.1925  1.9425 -2.3456
  640MOL0     H88258  11.693   5.815  11.528  1.4917 -2.7498 -2.1451
  640MOL0     H88259  11.714   5.775  11.783  0.8537 -0.4386 -0.1637
  640MOL0     H88260  11.653   5.607  11.760  0.6733  0.3141  4.1224
  640MOL0     H88261  11.901   5.663  11.784 -0.9248  0.4793  1.5293
  640MOL0     H88262  11.890   5.720  11.614 -0.5627  2.6894  3.5035
  640MOL0     H88263  11.858   5.436  11.731 -1.4115  2.5107  1.3063
  640MOL0     H88264  11.783   5.492  11.576 -1.3382  2.0360  0.7834
  640MOL0     H88265  12.035   5.553  11.496  1.6530  0.7638  1.3446
  640MOL0     H88266  12.000   5.389  11.518 -1.1879  0.0592  0.6871
  640MOL0     H88267  12.169   5.563  11.713 -0.3648  0.7298  0.1967
  640MOL0     H88268  12.100   5.416  11.766 -1.3364 -3.0051 -2.7831
  640MOL0     H88269  12.205   5.187  11.666  0.9023 -1.0430 -2.3600
  640MOL0     H88270  12.446   5.059  11.462 -2.6505 -1.2758  0.3169
  640MOL0     H88271  12.395   5.034  11.630  0.8340 -0.0236 -0.3130
  640MOL0     H88272  12.650   5.186  11.573  1.0486 -0.4201 -0.3984
  640MOL0     H88273  12.577   5.150  11.732  0.0488 -0.6165  0.0124
  640MOL0     H88274  12.778   5.000  11.665  0.5422 -1.0793 -0.6212
  640MOL0     H88275  12.634   4.936  11.729  0.3488 -1.1096  0.8718
  640MOL0     H88276  12.560   4.882  11.491 -0.6795 -2.1608 -0.1834
  640MOL0     H88277  12.713   4.956  11.428 -0.1008 -1.8830  0.1514
  640MOL0     H88278  12.504   4.749  11.681 -1.4576  0.2600 -1.1538
  640MOL0     H88279  12.326   4.625  11.775 -1.5643 -1.0643 -2.1086
  640MOL0     H88280  12.369   4.492  11.878 -3.5278  1.0899  1.3402
  640MOL0     H88281  12.307   4.470  11.703  0.7285 -0.4898 -0.3634
  640MOL0     H88282  12.663   4.154  12.004 -4.4126  0.0737  0.2687
  640MOL0     H88283  12.623   3.931  12.118 -1.0993 -0.0935  0.3900
  640MOL0     H88284  12.791   3.700  12.088  1.3752  1.0568 -1.0561
  640MOL0     H88285  12.719   3.543  12.090  2.5691 -0.2209  0.4882
  640MOL0     H88286  12.745   3.508  11.838  1.1038 -1.3471 -1.0418
  640MOL0     H88287  12.799   3.684  11.825  2.1052 -1.9885 -2.8443
  640MOL0     H88288  12.949   3.458  11.952 -0.1533 -0.2172  0.1494
  640MOL0     H88289  12.986   3.628  11.978  1.8765  0.1478 -0.1140
  640MOL0     H88290  13.127   3.545  11.796  0.3091  1.0763  2.1449
  640MOL0     H88291  12.997   3.638  11.720 -0.4577  1.9401  2.8539
  640MOL0     H88292  13.027   3.330  11.746 -2.3503 -0.6915  0.1493
  640MOL0     H88293  12.869   3.414  11.711 -0.3757  1.9870  0.0200
  640MOL0     H88294  13.120   3.491  11.554  1.3886 -1.6771  1.6052
  640MOL0     H88295  12.963   3.515  11.510 -0.5723 -0.0000  0.3912
  640MOL0     H88296  12.939   3.254  11.477  0.6104 -0.2585 -1.2546
  640MOL0     H88297  13.109   3.252  11.523 -1.5055 -1.2906  0.0247
  640MOL0     H88298  13.141   3.433  11.331 -1.7359  2.0100 -0.7843
  640MOL0     H88299  12.970   3.407  11.304 -1.5619 -3.7522  0.6332
  640MOL0     H88300  12.561   3.737  11.752 -2.0164  0.9136  0.0891
  640MOL0     H88301  12.581   3.958  11.633  0.2492 -0.0438  0.7320
  640MOL0     H88302  12.784   4.352  11.616  0.8237  0.2888 -4.5436
  640MOL0     H88303  12.826   4.554  11.485 -0.5492  0.7920 -0.0544
  640MOL0     H88304  11.288   6.192  11.467 -2.8861  2.4184 -1.9150
  640MOL0     H88305  11.175   6.279  11.262  2.3127  0.6758  1.4660
  640MOL0     H88306  10.940   6.108  10.848 -1.9273 -2.2032 -1.4200
  640MOL0     H88307  10.814   6.202  10.665  1.7927 -1.0586  0.2487
  640MOL0     H88308  10.718   6.445  10.578  1.8202 -1.7468  0.8430
  640MOL0     H88309  10.686   6.283  10.524 -0.6161 -1.5249  1.8652
  640MOL0     H88310  10.442   6.380  10.487  1.0622 -1.2684 -0.6698
  640MOL0     H88311  10.583   6.432  10.380  0.4214  3.9266 -1.0037
  640MOL0     H88312  10.419   6.616  10.472 -0.3762 -0.3355 -1.2304
  640MOL0     H88313  10.502   6.584  10.630 -2.2296  2.3669 -0.6346
  640MOL0     H88314  10.713   6.656  10.549 -0.6331 -0.0721 -0.0381
  640MOL0     H88315  10.593   6.780  10.506  1.0400  1.3926 -2.4865
  640MOL0     H88316  10.805   6.611  10.149 -1.0644 -1.8476 -0.0904
  640MOL0     H88317  10.550   6.394  10.941  0.2808  1.3574 -1.6540
  640MOL0     H88318  10.667   6.248  11.220  0.8261 -0.3242 -0.3395
  640MOL0     H88319  10.769   6.392  11.203 -0.0841 -0.5551  1.3412
  640MOL0     H88320  10.587   6.397  11.162  0.1899  0.0624  1.4700
  641MOL0     O88321   6.820   8.934   3.099 -0.1913  0.2028 -1.3765
  641MOL0     C88322   6.883   8.833   3.071  0.0076  0.0469  0.9290
  641MOL0     O88323   6.970   8.826   2.966  0.3064 -0.8472  0.3445
  641MOL0     C88324   6.966   8.917   2.864  0.3591 -0.1268  0.3171
  641MOL0     C88325   6.849   8.952   2.792  0.6152  0.5053  0.3168
  641MOL0     C88326   6.845   9.036   2.690 -0.2279 -0.6104  1.2755
  641MOL0     C88327   6.968   9.095   2.642  0.3583 -0.8524  0.7458
  641MOL0     O88328   6.981   9.171   2.522  0.4635 -0.9977 -0.1230
  641MOL0     C88329   6.999   9.092   2.409  0.1988 -0.4238  0.4088
  641MOL0     C88330   7.059   9.195   2.302  0.2820  0.3359  0.8002
  641MOL0     C88331   7.202   9.227   2.344 -0.3865  0.5546 -0.2445
  641MOL0     C88332   7.281   9.306   2.250  0.1566  0.4662 -1.1715
  641MOL0     C88333   7.429   9.315   2.283  0.7900 -0.3948  0.5707
  641MOL0     C88334   7.509   9.408   2.189 -1.5300 -1.5367  0.0205
  641MOL0     C88335   7.481   9.376   2.041 -0.0409  0.7839 -0.1312
  641MOL0     C88336   7.600   9.407   1.950 -0.1705  0.4295 -0.8998
  641MOL0     N88337   7.714   9.322   1.980 -0.3884 -0.5967 -0.0132
  641MOL0     C88338   7.827   9.355   2.051  0.4694 -0.2383 -1.3648
  641MOL0     C88339   7.903   9.250   2.070 -0.0704 -0.3339  0.4058
  641MOL0     C88340   8.040   9.242   2.131 -0.2992  0.1763  0.1052
  641MOL0     C88341   8.150   9.207   2.031  0.3117 -0.3352 -0.3439
  641MOL0     C88342   8.287   9.176   2.106  0.1479 -0.6626 -0.2399
  641MOL0     C88343   8.344   9.285   2.193  0.7887  0.2871 -0.2256
  641MOL0     O88344   8.465   9.233   2.266 -0.8323  0.4631 -0.8104
  641MOL0     C88345   8.547   9.328   2.318  0.0996 -0.5586  1.3396
  641MOL0     C88346   8.500   9.456   2.354 -0.1321 -0.4129 -0.0660
  641MOL0     C88347   8.589   9.563   2.383 -0.0355  0.1953 -0.1668
  641MOL0     C88348   8.515   9.689   2.400 -0.4428 -0.3864  0.1872
  641MOL0     C88349   8.726   9.541   2.391  0.0445  0.3918 -1.1653
  641MOL0     C88350   8.822   9.659   2.393  0.1582  0.4362 -0.3925
  641MOL0     O88351   8.940   9.644   2.467  0.7321  0.2160  0.0739
  641MOL0     C88352   9.041   9.736   2.458  0.6587 -0.3789  0.9019
  641MOL0     C88353   9.026   9.860   2.531 -0.6369 -0.2717 -0.0277
  641MOL0     C88354   9.133   9.955   2.514  0.0799  0.2579 -0.3024
  641MOL0     C88355   9.253   9.933   2.446  0.5838 -0.6593 -0.4536
  641MOL0     O88356   9.339  10.037   2.434  0.6716  0.2391 -0.7108
  641MOL0     C88357   9.302  10.148   2.348  0.1070  0.4730 -0.1861
  641MOL0     C88358   9.342  10.281   2.406  0.2212 -0.0573  0.2798
  641MOL0     C88359   9.490  10.304   2.396  0.2127 -0.0747 -0.6900
  641MOL0     C88360   9.529  10.441   2.471 -0.3298 -0.2942 -0.2419
  641MOL0     C88361   9.657  10.507   2.405 -1.3466  0.7467  0.7697
  641MOL0     C88362   9.683  10.640   2.479 -0.4205  0.0828  0.3182
  641MOL0     C88363   9.783  10.729   2.407  0.8703  0.2671 -0.4094
  641MOL0     C88364   9.772  10.881   2.440 -0.2229 -0.3086 -0.4453
  641MOL0    Cl88365   9.611  10.943   2.394 -0.1221  0.1093  0.2309
  641MOL0     C88366   9.268   9.805   2.380  0.1967  0.2178 -1.1227
  641MOL0     C88367   9.162   9.712   2.383  0.5529 -0.4802 -0.0156
  641MOL0     O88368   8.799   9.757   2.319  0.4141 -0.4082 -0.2188
  641MOL0     C88369   8.772   9.408   2.375  0.7302 -0.7942 -0.7482
  641MOL0     C88370   8.688   9.306   2.330 -0.3859 -0.0101 -0.4004
  641MOL0     N88371   7.825   9.144   2.019 -0.5646 -0.3107  0.6014
  641MOL0     N88372   7.718   9.189   1.972  1.1328 -0.0768  0.6249
  641MOL0     C88373   7.082   9.067   2.709  0.3022  0.0569 -2.5177
  641MOL0     C88374   7.085   8.974   2.814  0.4089 -0.1347  1.5477
  641MOL0     C88375   6.849   8.710   3.145  0.9758  1.4271 -0.9427
  641MOL0     C88376   6.710   8.698   3.184 -0.3939 -0.2108 -0.1744
  641MOL0     C88377   6.663   8.570   3.235 -0.2084 -0.0583  1.2086
  641MOL0     C88378   6.749   8.468   3.272 -0.8042 -0.4643  0.9051
  641MOL0     O88379   6.693   8.350   3.329 -0.4547  0.8760 -1.1031
  641MOL0     C88380   6.764   8.221   3.325  1.1571 -0.4979  0.0040
  641MOL0     C88381   6.766   8.160   3.182  0.3810 -0.5564  1.1352
  641MOL0     C88382   6.636   8.118   3.120  0.8927  0.0235  0.1227
  641MOL0     C88383   6.645   8.006   3.008  0.0926 -0.5981  0.7951
  641MOL0     C88384   6.500   7.967   2.979  0.3844 -0.1505  0.9340
  641MOL0     C88385   6.390   7.920   2.949 -0.2774 -0.6029  0.6685
  641MOL0     C88386   6.889   8.483   3.240  1.2364  0.9285  0.4453
  641MOL0     C88387   6.938   8.603   3.177 -0.3070 -0.7847  0.3338
  641MOL0     C88388   7.086   8.600   3.159 -0.1269 -0.0158  0.8586
  641MOL0     H88389   6.755   8.904   2.815 -0.2327  1.4016 -1.1853
  641MOL0     H88390   6.755   9.036   2.629 -1.4713 -4.2234  2.8152
  641MOL0     H88391   6.900   9.060   2.373  1.6752 -2.1174 -2.5408
  641MOL0     H88392   7.059   9.001   2.416 -0.4083 -0.9500 -0.7880
  641MOL0     H88393   7.060   9.140   2.208  0.8775 -0.5226  1.2924
  641MOL0     H88394   6.998   9.285   2.296 -0.8025 -0.4479 -0.5826
  641MOL0     H88395   7.214   9.298   2.427  4.1786  1.1232 -1.1181
  641MOL0     H88396   7.248   9.129   2.359 -0.0400  0.4339 -1.9390
  641MOL0     H88397   7.267   9.259   2.153 -4.1068 -0.1960 -0.4118
  641MOL0     H88398   7.244   9.409   2.240  1.7710  1.0976 -1.0654
  641MOL0     H88399   7.474   9.215   2.271 -0.1487 -0.5930 -1.6634
  641MOL0     H88400   7.437   9.362   2.381 -0.2866 -0.4756  0.7035
  641MOL0     H88401   7.489   9.514   2.209  1.1295 -1.2619  1.6548
  641MOL0     H88402   7.616   9.406   2.211 -1.2882  0.2468 -0.8160
  641MOL0     H88403   7.402   9.449   2.020  0.9140  1.4654 -1.4690
  641MOL0     H88404   7.440   9.280   2.010 -0.2875 -0.0519  2.5532
  641MOL0     H88405   7.573   9.398   1.844  0.0889  0.1948 -0.9474
  641MOL0     H88406   7.623   9.512   1.973 -0.1786  0.7816 -2.3678
  641MOL0     H88407   7.858   9.451   2.091  1.1008 -1.3345  0.9245
  641MOL0     H88408   8.031   9.165   2.209  0.2247  0.7432  0.7386
  641MOL0     H88409   8.057   9.344   2.168 -3.0003  1.5151 -1.9574
  641MOL0     H88410   8.126   9.116   1.975  2.9626 -0.2216 -1.8215
  641MOL0     H88411   8.158   9.287   1.957 -1.0101 -1.0364 -1.2862
  641MOL0     H88412   8.279   9.088   2.169  0.0025 -1.1082 -0.8657
  641MOL0     H88413   8.357   9.142   2.030 -0.2382 -0.1805 -0.8303
  641MOL0     H88414   8.374   9.365   2.123 -0.6036 -0.4859 -1.7782
  641MOL0     H88415   8.263   9.322   2.256 -1.7637 -2.3756 -1.7586
  641MOL0     H88416   8.393   9.473   2.345 -0.5286 -2.4057  0.5161
  641MOL0     H88417   8.445   9.665   2.481 -2.3528 -1.0568 -1.5786
  641MOL0     H88418   8.452   9.709   2.313 -0.8760 -1.8662  0.1281
  641MOL0     H88419   8.585   9.771   2.421  0.1986 -0.3360 -1.9412
  641MOL0     H88420   8.932   9.894   2.572 -0.1806  0.9141  0.0716
  641MOL0     H88421   9.094  10.046   2.559  0.1056  0.0908  0.0699
  641MOL0     H88422   9.346  10.132   2.248  2.7722 -0.6999  1.0631
  641MOL0     H88423   9.194  10.158   2.340 -0.1221 -2.2778 -3.2836
  641MOL0     H88424   9.285  10.356   2.349 -3.1601 -0.3703  2.8786
  641MOL0     H88425   9.307  10.273   2.509 -1.3828  2.4881  0.0329
  641MOL0     H88426   9.531  10.298   2.294 -2.1340  0.6359 -1.7442
  641MOL0     H88427   9.534  10.215   2.443  0.7906  1.2527  1.4349
  641MOL0     H88428   9.543  10.423   2.578  0.1592 -1.4118 -0.4772
  641MOL0     H88429   9.454  10.520   2.464  2.8031  2.9466 -0.2475
  641MOL0     H88430   9.743  10.448   2.435  0.3181  3.8044  2.5418
  641MOL0     H88431   9.647  10.529   2.298 -1.3653  0.5954  0.7410
  641MOL0     H88432   9.717  10.639   2.583  1.8548 -0.3849 -0.3776
  641MOL0     H88433   9.593  10.702   2.485  0.4777  1.8864 -2.4916
  641MOL0     H88434   9.777  10.711   2.299  2.3227 -2.2108 -0.1613
  641MOL0     H88435   9.880  10.693   2.441 -0.5400 -3.4199  0.1744
  641MOL0     H88436   9.860  10.926   2.391  1.7711 -1.2105  2.0899
  641MOL0     H88437   9.785  10.894   2.547 -1.9474 -0.3285 -0.2193
  641MOL0     H88438   9.348   9.782   2.310  0.8129  2.2052 -1.1257
  641MOL0     H88439   9.171   9.617   2.333 -0.6792  0.2454 -1.7066
  641MOL0     H88440   8.877   9.380   2.384  0.8949 -0.0414 -0.2425
  641MOL0     H88441   8.743   9.218   2.299 -3.3908 -2.5602  0.8879
  641MOL0     H88442   7.174   9.124   2.705  0.1402  1.0462  2.1815
  641MOL0     H88443   7.185   8.947   2.846 -0.3567 -0.3182  4.0254
  641MOL0     H88444   6.646   8.786   3.180 -1.1584 -0.8072 -2.8168
  641MOL0     H88445   6.560   8.568   3.270 -0.7250  1.2472 -0.1273
  641MOL0     H88446   6.869   8.236   3.352  1.4519 -1.5935 -0.4715
  641MOL0     H88447   6.721   8.147   3.394  2.3096 -0.7758  0.4545
  641MOL0     H88448   6.833   8.074   3.189  1.0570  0.0890  3.8007
  641MOL0     H88449   6.797   8.237   3.110  1.5615 -0.3180  1.8659
  641MOL0     H88450   6.574   8.076   3.200  1.3672  0.3945  0.6961
  641MOL0     H88451   6.577   8.199   3.076  1.5673 -0.1473 -1.1633
  641MOL0     H88452   6.690   7.913   3.044 -2.0165 -2.4524 -1.0589
  641MOL0     H88453   6.707   8.048   2.927  0.0199  3.5633  2.6477
  641MOL0     H88454   6.294   7.888   2.913 -0.3946  1.1508 -0.7006
  641MOL0     H88455   6.960   8.409   3.275  1.4888  1.5569  1.2910
  641MOL0     H88456   7.130   8.641   3.250  0.1257 -0.3952  0.9119
  641MOL0     H88457   7.114   8.494   3.153 -5.3024 -1.5747 -1.0495
  641MOL0     H88458   7.122   8.656   3.073 -2.8098  2.8112  1.4085
  642MOL0     O88459   1.783   2.228   1.783 -0.3882 -0.7156 -0.5754
  642MOL0     C88460   1.734   2.334   1.740  0.6036  0.3650 -0.3494
  642MOL0     O88461   1.794   2.465   1.741  0.2766  0.0227 -0.3949
  642MOL0     C88462   1.913   2.479   1.812  0.1063 -0.2741 -0.0554
  642MOL0     C88463   1.970   2.402   1.917  0.7494  0.1852  0.3428
  642MOL0     C88464   2.091   2.430   1.972 -0.7116 -0.0846  0.3616
  642MOL0     C88465   2.172   2.544   1.921 -0.6661  0.3271  0.6154
  642MOL0     O88466   2.303   2.586   1.957  0.1443 -0.1088 -0.4566
  642MOL0     C88467   2.383   2.509   2.051  0.5681 -0.2829  0.2676
  642MOL0     C88468   2.470   2.408   1.987 -0.2998  0.4320  0.4048
  642MOL0     C88469   2.576   2.462   1.891 -0.2030 -0.0948  0.0057
  642MOL0     C88470   2.694   2.361   1.884  1.1272  0.0001 -0.2627
  642MOL0     C88471   2.802   2.436   1.815 -0.0707 -0.0633 -0.1454
  642MOL0     C88472   2.928   2.349   1.778 -0.0849  0.2245  0.0870
  642MOL0     C88473   3.023   2.311   1.892  0.5547 -0.4123 -0.4340
  642MOL0     C88474   3.131   2.210   1.849 -0.3674  1.0117 -0.3166
  642MOL0     N88475   3.190   2.164   1.972  0.2130 -0.1902 -0.0002
  642MOL0     C88476   3.136   2.061   2.051 -0.0894 -0.2614  0.4310
  642MOL0     C88477   3.193   2.067   2.168 -0.2094 -1.0822  0.6388
  642MOL0     C88478   3.160   2.021   2.308  0.1191 -0.9556 -0.4332
  642MOL0     C88479   3.106   1.879   2.318 -0.3240  0.1527  0.4350
  642MOL0     C88480   3.127   1.827   2.461  0.9262  0.2346 -1.1429
  642MOL0     C88481   3.057   1.681   2.467 -0.4013 -0.8099  0.9638
  642MOL0     O88482   2.921   1.682   2.428  0.0162  0.2915 -0.3384
  642MOL0     C88483   2.856   1.559   2.445  0.4728 -0.3160 -0.1835
  642MOL0     C88484   2.892   1.455   2.535 -0.9609  0.0812  0.6639
  642MOL0     C88485   2.822   1.331   2.537  0.2599 -0.1822  0.1854
  642MOL0     C88486   2.857   1.232   2.643  0.4450  0.5122 -0.4211
  642MOL0     C88487   2.702   1.313   2.448 -0.3461 -0.2849  0.2276
  642MOL0     C88488   2.613   1.202   2.456  0.3402 -0.1945  0.7823
  642MOL0     O88489   2.482   1.222   2.410  0.1494 -0.4945 -1.5015
  642MOL0     C88490   2.399   1.118   2.444 -0.6989  0.1436 -0.1349
  642MOL0     C88491   2.366   1.094   2.577 -0.8670  0.0404  0.2111
  642MOL0     C88492   2.283   0.985   2.603 -0.1383 -0.4418 -0.4925
  642MOL0     C88493   2.226   0.908   2.498 -0.3120  0.4738 -0.0029
  642MOL0     O88494   2.134   0.814   2.521  0.8079  0.4479  0.4577
  642MOL0     C88495   2.080   0.736   2.411  0.4067 -0.4099  0.9163
  642MOL0     C88496   1.961   0.631   2.450 -0.1790 -0.4132 -0.5256
  642MOL0     C88497   1.834   0.710   2.492  0.8260 -0.3667  0.4413
  642MOL0     C88498   1.727   0.612   2.554  0.5434  0.5157  0.0721
  642MOL0     C88499   1.684   0.644   2.690 -0.0868 -0.2122 -0.3810
  642MOL0     C88500   1.795   0.619   2.797  0.1610  0.2248 -0.4968
  642MOL0     C88501   1.726   0.593   2.939  0.3002 -0.1155  0.4556
  642MOL0     C88502   1.816   0.524   3.042  0.1420 -0.8437 -0.2628
  642MOL0    Cl88503   1.870   0.359   3.006  0.2734 -0.0226  0.1461
  642MOL0     C88504   2.269   0.934   2.364 -0.5024 -0.5148  0.1281
  642MOL0     C88505   2.350   1.042   2.339 -0.1404  0.7121 -0.1256
  642MOL0     O88506   2.664   1.091   2.489  0.0410  0.2191  0.6390
  642MOL0     C88507   2.667   1.418   2.362  0.3920  0.1189  0.0197
  642MOL0     C88508   2.748   1.534   2.360  0.6905 -0.6068  0.8102
  642MOL0     N88509   3.300   2.162   2.160 -0.0754 -0.3353  0.2847
  642MOL0     N88510   3.288   2.224   2.049  0.0353 -0.2223 -0.0413
  642MOL0     C88511   2.114   2.607   1.814 -0.7140  0.4044 -0.8307
  642MOL0     C88512   1.989   2.585   1.766  0.4918 -0.2522 -0.2418
  642MOL0     C88513   1.618   2.326   1.641  0.7920  0.0284 -0.4496
  642MOL0     C88514   1.603   2.431   1.546  0.8064  0.2543 -0.9462
  642MOL0     C88515   1.498   2.431   1.454  0.4609  0.1898 -0.7221
  642MOL0     C88516   1.397   2.333   1.463 -0.2648  0.2553  0.0114
  642MOL0     O88517   1.298   2.320   1.366 -0.9369  0.9335 -0.2554
  642MOL0     C88518   1.305   2.409   1.253  0.2167 -0.4985  0.1872
  642MOL0     C88519   1.203   2.360   1.157  0.3736 -0.1704  0.4619
  642MOL0     C88520   1.148   2.466   1.061 -0.4162 -0.9321  0.5212
  642MOL0     C88521   1.086   2.408   0.936  0.3543  0.6020 -0.1100
  642MOL0     C88522   1.179   2.353   0.844  0.0156  0.1456  0.2728
  642MOL0     C88523   1.250   2.317   0.753 -0.5497  0.2646 -0.1419
  642MOL0     C88524   1.413   2.227   1.562 -0.4931  0.2430 -0.8930
  642MOL0     C88525   1.518   2.223   1.649  1.8155  0.1137  0.1234
  642MOL0     C88526   1.491   2.116   1.749 -0.9648 -0.2520  0.7492
  642MOL0     H88527   1.917   2.320   1.964 -0.3589  0.5750 -0.1989
  642MOL0     H88528   2.133   2.371   2.053  1.5912  0.5818 -0.2735
  642MOL0     H88529   2.316   2.466   2.126 -1.7813  1.2568 -0.8209
  642MOL0     H88530   2.451   2.577   2.104  0.4824  2.1208 -2.4884
  642MOL0     H88531   2.528   2.353   2.062  0.4044 -0.0193 -0.4542
  642MOL0     H88532   2.400   2.343   1.934 -0.0343 -1.3055  2.0531
  642MOL0     H88533   2.529   2.497   1.799 -1.0596 -0.6541  0.2261
  642MOL0     H88534   2.620   2.548   1.943 -3.5166  2.1237 -0.5135
  642MOL0     H88535   2.732   2.337   1.983  1.4842 -3.5674 -1.1172
  642MOL0     H88536   2.657   2.275   1.827  2.3164 -1.2500  0.7738
  642MOL0     H88537   2.840   2.521   1.873  1.2441  0.2577 -1.4086
  642MOL0     H88538   2.764   2.465   1.716  1.3550 -0.4823 -0.8299
  642MOL0     H88539   2.891   2.253   1.739 -0.0103 -0.3599  1.4077
  642MOL0     H88540   2.979   2.406   1.700 -1.5779  1.7482  0.1743
  642MOL0     H88541   2.954   2.274   1.968  0.1019 -0.3978 -0.8388
  642MOL0     H88542   3.065   2.407   1.925 -0.6662  0.1055 -0.3524
  642MOL0     H88543   3.074   2.126   1.808 -1.9630  1.0434  1.6850
  642MOL0     H88544   3.204   2.260   1.785  2.4719 -0.5500  1.4637
  642MOL0     H88545   3.046   2.006   2.028  0.1653 -1.7660  2.7014
  642MOL0     H88546   3.081   2.092   2.336  1.5354  0.5865 -0.1476
  642MOL0     H88547   3.236   2.046   2.383 -2.9045 -1.8918  3.2813
  642MOL0     H88548   3.002   1.884   2.286  0.0349  0.0672 -0.8052
  642MOL0     H88549   3.164   1.814   2.251  2.4239  1.4278  1.4055
  642MOL0     H88550   3.232   1.819   2.491  0.2198 -0.4758  1.3446
  642MOL0     H88551   3.082   1.896   2.533  5.0765  1.2598  0.8091
  642MOL0     H88552   3.121   1.617   2.406 -0.1381 -0.2169  0.6081
  642MOL0     H88553   3.072   1.641   2.568  2.1488  0.0461  1.0038
  642MOL0     H88554   2.971   1.462   2.609 -0.2639 -2.3945  0.2523
  642MOL0     H88555   2.775   1.211   2.712 -0.2302  0.4853 -1.2114
  642MOL0     H88556   2.945   1.262   2.701 -0.5322  0.8862  0.9285
  642MOL0     H88557   2.889   1.139   2.595  0.0606  0.9146 -1.4934
  642MOL0     H88558   2.374   1.156   2.666 -1.5865  1.0842 -0.4253
  642MOL0     H88559   2.256   0.979   2.708  1.9014  0.8037  0.1716
  642MOL0     H88560   2.029   0.805   2.343  1.1902 -0.8540 -0.1330
  642MOL0     H88561   2.161   0.682   2.361 -0.8408 -1.8252  0.3122
  642MOL0     H88562   1.936   0.570   2.363  1.2972  0.8440 -1.9073
  642MOL0     H88563   1.997   0.571   2.535 -1.2852  0.3653  0.5363
  642MOL0     H88564   1.791   0.769   2.411 -0.3986 -3.0774 -0.9902
  642MOL0     H88565   1.861   0.780   2.573  1.5666 -2.3767  2.0266
  642MOL0     H88566   1.767   0.510   2.552 -1.1842 -0.1991  0.1263
  642MOL0     H88567   1.634   0.609   2.496 -0.8307  0.4081  2.1790
  642MOL0     H88568   1.647   0.745   2.707 -1.0997 -1.0790  3.5535
  642MOL0     H88569   1.607   0.571   2.717 -2.4961  2.6316  1.0286
  642MOL0     H88570   1.847   0.713   2.816 -1.5273  1.1835 -0.4212
  642MOL0     H88571   1.863   0.536   2.776  0.8925  0.4255  0.9664
  642MOL0     H88572   1.635   0.532   2.934  0.4300 -0.8237  4.1716
  642MOL0     H88573   1.703   0.692   2.980  3.3995  1.3903 -1.0919
  642MOL0     H88574   1.771   0.504   3.140  1.3042  0.1886  0.5201
  642MOL0     H88575   1.896   0.592   3.074 -1.3662  0.7604  0.2416
  642MOL0     H88576   2.229   0.893   2.272  1.4111 -0.7486 -0.6469
  642MOL0     H88577   2.373   1.062   2.235  0.5788 -1.3903 -0.4364
  642MOL0     H88578   2.574   1.421   2.306  0.2994  1.7914  0.2083
  642MOL0     H88579   2.715   1.620   2.302  0.6366  0.4856  2.4108
  642MOL0     H88580   2.163   2.691   1.766  2.0483 -0.7523 -0.1945
  642MOL0     H88581   1.954   2.654   1.690 -0.3997  0.2230  0.5708
  642MOL0     H88582   1.665   2.520   1.552 -2.1811  2.8287 -4.0665
  642MOL0     H88583   1.505   2.517   1.388 -3.4044  1.0025 -0.3225
  642MOL0     H88584   1.269   2.501   1.301 -4.4206 -2.9067  2.0039
  642MOL0     H88585   1.405   2.429   1.214  0.7364  2.7817  2.7339
  642MOL0     H88586   1.112   2.326   1.207 -1.6018  0.6554 -2.3446
  642MOL0     H88587   1.241   2.274   1.100  0.3451 -0.3688  0.7371
  642MOL0     H88588   1.066   2.517   1.111  0.5820 -0.3863  1.6548
  642MOL0     H88589   1.223   2.539   1.030 -0.4125 -0.5472  1.4150
  642MOL0     H88590   1.039   2.497   0.894 -1.1758  0.5380  1.3614
  642MOL0     H88591   1.016   2.331   0.971  2.0520 -0.8120  0.3365
  642MOL0     H88592   1.333   2.281   0.696 -0.0480  0.6461  0.3345
  642MOL0     H88593   1.342   2.144   1.566  0.9625 -1.0816 -1.6667
  642MOL0     H88594   1.402   2.140   1.808 -0.1082  0.8245  1.6403
  642MOL0     H88595   1.488   2.020   1.696 -0.5239  0.9428 -1.5636
  642MOL0     H88596   1.566   2.105   1.828 -1.0565  0.8624  0.9986
  643MOL0     O88597   5.169   5.024   3.934  0.2642 -0.2034  1.2307
  643MOL0     C88598   5.259   5.029   3.853 -0.7727 -0.3720  0.3542
  643MOL0     O88599   5.246   5.054   3.723 -0.0239 -1.2930 -0.1551
  643MOL0     C88600   5.141   5.114   3.665  0.8009  0.8089  1.4482
  643MOL0     C88601   5.134   5.091   3.522  0.4728  0.5404 -0.0566
  643MOL0     C88602   5.025   5.150   3.450  0.7490  0.4909 -0.4872
  643MOL0     C88603   4.927   5.226   3.516 -0.2394 -0.2595 -0.4080
  643MOL0     O88604   4.829   5.281   3.440 -0.3391 -0.1550  0.7924
  643MOL0     C88605   4.713   5.312   3.516  0.0457  0.0219  0.5795
  643MOL0     C88606   4.593   5.343   3.419  0.6546  0.3653  0.1470
  643MOL0     C88607   4.516   5.466   3.465  0.3623  0.3847  0.1296
  643MOL0     C88608   4.409   5.497   3.358 -1.1109 -0.2268  0.2985
  643MOL0     C88609   4.447   5.562   3.226  0.8767  0.3047 -0.0328
  643MOL0     C88610   4.511   5.708   3.240  0.2434 -0.3168  0.0955
  643MOL0     C88611   4.553   5.741   3.100 -0.0775  0.5194 -0.7494
  643MOL0     C88612   4.439   5.785   3.012  0.3863 -0.2175 -0.4791
  643MOL0     N88613   4.484   5.833   2.881  0.4735  0.4933 -0.9414
  643MOL0     C88614   4.420   5.915   2.798  0.1797  0.2309 -1.1498
  643MOL0     C88615   4.498   5.941   2.698  0.0977 -0.9968  0.2481
  643MOL0     C88616   4.452   6.039   2.591 -0.3212 -0.1028 -0.1638
  643MOL0     C88617   4.555   6.153   2.587 -0.2965 -0.2143  0.0999
  643MOL0     C88618   4.525   6.280   2.500  1.0331 -0.0425 -0.2030
  643MOL0     C88619   4.418   6.366   2.570 -0.0707  0.3125 -0.3393
  643MOL0     O88620   4.478   6.411   2.684 -0.0533 -1.0544 -0.3319
  643MOL0     C88621   4.421   6.525   2.737 -1.1654  0.2371 -0.2104
  643MOL0     C88622   4.506   6.586   2.830  0.0537 -1.8022  0.3069
  643MOL0     C88623   4.460   6.691   2.911 -0.3132 -0.7990  0.0096
  643MOL0     C88624   4.541   6.729   3.032 -0.8320 -0.1342 -0.7638
  643MOL0     C88625   4.329   6.743   2.887 -0.2801  1.0184  0.1471
  643MOL0     C88626   4.268   6.860   2.958 -0.3742 -0.0597 -0.8549
  643MOL0     O88627   4.134   6.855   2.961 -0.0326 -0.0745 -0.3281
  643MOL0     C88628   4.069   6.973   2.994 -0.9574 -0.1643  0.8327
  643MOL0     C88629   4.095   7.095   2.935  0.7346 -0.8776  0.1604
  643MOL0     C88630   4.012   7.201   2.962 -0.0007  0.5912  0.1524
  643MOL0     C88631   3.897   7.189   3.037 -0.1917 -0.3842  0.0595
  643MOL0     O88632   3.799   7.288   3.052 -0.1844 -0.1671 -1.0150
  643MOL0     C88633   3.840   7.393   3.138  0.1521  0.5909  0.1783
  643MOL0     C88634   3.719   7.492   3.174  0.0649  0.7961  0.5767
  643MOL0     C88635   3.608   7.430   3.265 -0.1281 -0.8456 -1.1155
  643MOL0     C88636   3.523   7.547   3.322 -0.1034  0.3916 -0.3290
  643MOL0     C88637   3.423   7.494   3.417  0.1036  0.4850 -0.2501
  643MOL0     C88638   3.349   7.600   3.493 -0.9645 -0.5779 -0.2459
  643MOL0     C88639   3.258   7.537   3.601  0.4299  0.3752 -0.5390
  643MOL0     C88640   3.196   7.645   3.693 -0.1735  0.5009 -0.8251
  643MOL0    Cl88641   3.114   7.560   3.818 -0.1874  0.1956  0.2290
  643MOL0     C88642   3.879   7.067   3.111  0.5607  0.3944 -0.2495
  643MOL0     C88643   3.964   6.962   3.092 -0.4161 -0.2220  0.7343
  643MOL0     O88644   4.333   6.955   2.992  0.0653 -0.5150  0.4751
  643MOL0     C88645   4.247   6.691   2.787 -0.5812 -0.2644 -0.1404
  643MOL0     C88646   4.292   6.580   2.714  0.1591  0.4066 -0.8867
  643MOL0     N88647   4.608   5.866   2.710 -0.0042 -0.0478  0.1608
  643MOL0     N88648   4.605   5.800   2.824 -0.1346 -0.1570 -0.7949
  643MOL0     C88649   4.939   5.253   3.654 -0.0211  0.4430 -0.8686
  643MOL0     C88650   5.050   5.204   3.725 -1.0775  0.0167  1.5449
  643MOL0     C88651   5.406   5.022   3.901 -0.0111  0.4100 -0.2660
  643MOL0     C88652   5.493   4.950   3.822  0.2527  0.5665 -0.0895
  643MOL0     C88653   5.622   4.904   3.872  0.0864 -0.0635 -0.2618
  643MOL0     C88654   5.659   4.934   4.004  0.1457  0.3691 -0.2907
  643MOL0     O88655   5.775   4.873   4.054 -0.0721 -0.0760  0.4951
  643MOL0     C88656   5.873   4.968   4.099 -0.6193  0.3338  0.8345
  643MOL0     C88657   5.969   4.989   3.982 -0.8508 -0.7981 -0.5362
  643MOL0     C88658   6.066   4.869   3.949 -0.0192 -0.5221 -1.1479
  643MOL0     C88659   6.005   4.764   3.849 -0.9167 -0.2005  1.0433
  643MOL0     C88660   5.973   4.820   3.712 -0.3256  0.5800 -1.0949
  643MOL0     C88661   5.945   4.887   3.615 -0.4231  0.2803  0.0979
  643MOL0     C88662   5.580   5.028   4.078  0.6457  0.1375  0.3435
  643MOL0     C88663   5.454   5.061   4.022 -0.6471  0.6667 -0.8298
  643MOL0     C88664   5.367   5.132   4.118  0.7456 -0.2050  0.5446
  643MOL0     H88665   5.213   5.042   3.467 -0.9951 -0.4555 -1.3610
  643MOL0     H88666   5.024   5.137   3.342 -0.1310  0.1693 -0.4400
  643MOL0     H88667   4.740   5.391   3.587  2.3679 -1.7610  1.8154
  643MOL0     H88668   4.684   5.230   3.582  0.9190  0.7335  1.8939
  643MOL0     H88669   4.631   5.344   3.317 -1.8872  0.0878 -0.8658
  643MOL0     H88670   4.526   5.257   3.430  0.1404  0.5407 -1.3895
  643MOL0     H88671   4.458   5.455   3.557 -1.5096  2.6385 -0.6717
  643MOL0     H88672   4.581   5.553   3.482 -2.0020  1.8795  2.2271
  643MOL0     H88673   4.345   5.411   3.336  2.3062 -3.6228  2.3921
  643MOL0     H88674   4.349   5.576   3.405  0.8490  2.6008 -1.6589
  643MOL0     H88675   4.356   5.577   3.166  2.2925 -0.3397 -2.5120
  643MOL0     H88676   4.516   5.497   3.171  0.2749 -0.1536 -0.2620
  643MOL0     H88677   4.445   5.786   3.280  0.2039  0.4481 -1.4096
  643MOL0     H88678   4.596   5.710   3.309  0.4651 -1.3618 -0.1416
  643MOL0     H88679   4.602   5.652   3.058  1.1908  1.0049 -0.3330
  643MOL0     H88680   4.632   5.817   3.100  0.5659 -0.1331 -0.4377
  643MOL0     H88681   4.364   5.709   2.989 -0.9918  1.3938 -1.6564
  643MOL0     H88682   4.392   5.872   3.060 -3.7340 -0.6748 -3.1345
  643MOL0     H88683   4.319   5.956   2.793  0.0473  0.1580  0.4431
  643MOL0     H88684   4.348   6.068   2.610 -1.5719 -3.1747 -1.6306
  643MOL0     H88685   4.465   5.980   2.500  5.0601 -3.1301  2.0921
  643MOL0     H88686   4.579   6.192   2.686  1.5573  1.6734 -1.0335
  643MOL0     H88687   4.644   6.111   2.540  0.5006  0.0075  1.3825
  643MOL0     H88688   4.614   6.340   2.480  0.9304  0.6021  1.1362
  643MOL0     H88689   4.483   6.256   2.402 -1.8554  3.1618  0.0422
  643MOL0     H88690   4.368   6.441   2.509 -2.1725  1.3811  2.4534
  643MOL0     H88691   4.331   6.309   2.606  0.6530  0.5836  2.0553
  643MOL0     H88692   4.601   6.536   2.846 -0.4825 -1.8794  4.1373
  643MOL0     H88693   4.646   6.744   3.006 -0.9798 -1.7274 -2.4939
  643MOL0     H88694   4.542   6.645   3.102 -2.0585  1.3813  1.1820
  643MOL0     H88695   4.510   6.819   3.085  1.6764  0.6013 -0.4358
  643MOL0     H88696   4.168   7.109   2.856 -0.0002  1.2703 -0.1930
  643MOL0     H88697   4.021   7.303   2.926 -0.8803  0.2013 -1.2733
  643MOL0     H88698   3.872   7.348   3.232 -3.1835  2.9188  2.6776
  643MOL0     H88699   3.915   7.455   3.087 -0.9778  1.7797 -0.0941
  643MOL0     H88700   3.764   7.577   3.228  0.2501  2.6768 -2.3109
  643MOL0     H88701   3.690   7.549   3.085  0.2068  1.1482  0.7502
  643MOL0     H88702   3.659   7.375   3.344  1.0551  0.1738 -1.1408
  643MOL0     H88703   3.551   7.350   3.216 -0.1447 -0.9671 -0.9002
  643MOL0     H88704   3.470   7.595   3.238  1.3903 -3.3876 -3.7570
  643MOL0     H88705   3.589   7.622   3.366 -1.3448 -0.1644  2.7535
  643MOL0     H88706   3.346   7.431   3.371  0.2085 -0.4093  0.7660
  643MOL0     H88707   3.479   7.430   3.485  0.4814 -0.1223 -1.1215
  643MOL0     H88708   3.284   7.653   3.422 -0.6154  1.5568  0.9669
  643MOL0     H88709   3.401   7.687   3.532 -3.3812  0.9710 -0.2726
  643MOL0     H88710   3.310   7.464   3.663 -0.2449  1.3935  1.2887
  643MOL0     H88711   3.172   7.484   3.559 -0.4303  0.0434  1.5123
  643MOL0     H88712   3.137   7.708   3.626  3.2206  1.6573 -2.9914
  643MOL0     H88713   3.269   7.707   3.746  0.0848 -0.5061  0.0266
  643MOL0     H88714   3.794   7.051   3.176  2.2890  0.5343  2.1582
  643MOL0     H88715   3.959   6.873   3.154 -4.5742  0.9317  2.3813
  643MOL0     H88716   4.149   6.730   2.762 -0.3823 -0.8115 -1.9563
  643MOL0     H88717   4.226   6.532   2.643  1.2844 -2.6782 -0.0068
  643MOL0     H88718   4.887   5.312   3.728  0.0903 -1.3431  0.7146
  643MOL0     H88719   5.072   5.232   3.827 -0.9074 -1.0778  1.8266
  643MOL0     H88720   5.472   4.912   3.722  2.8630 -1.4688 -0.0008
  643MOL0     H88721   5.681   4.836   3.811  0.3208 -0.7997  0.7659
  643MOL0     H88722   5.834   5.069   4.117 -0.0908  0.4000  1.6821
  643MOL0     H88723   5.929   4.944   4.190 -1.1813  0.1760  1.1447
  643MOL0     H88724   6.028   5.078   4.004  0.4081 -1.9682  1.0320
  643MOL0     H88725   5.914   5.012   3.890  0.6772  0.4850 -1.1827
  643MOL0     H88726   6.159   4.917   3.918 -1.4178  0.8731 -3.4172
  643MOL0     H88727   6.102   4.817   4.039  0.7976  1.4358 -0.2887
  643MOL0     H88728   5.911   4.733   3.896 -1.3728  0.4366  0.5595
  643MOL0     H88729   6.060   4.670   3.835 -4.5719 -2.0827 -2.6405
  643MOL0     H88730   5.944   4.957   3.534  2.1116 -1.8326 -1.9511
  643MOL0     H88731   5.612   5.050   4.179  2.2763 -1.4481  0.2461
  643MOL0     H88732   5.426   5.202   4.178  2.3047 -2.4823  1.8221
  643MOL0     H88733   5.284   5.185   4.070  1.8133  0.4838 -0.6171
  643MOL0     H88734   5.322   5.051   4.176 -3.0027 -0.8172 -2.7534
  644MOL0     O88735   6.383  10.760   2.695 -0.3532  0.6349  0.3942
  644MOL0     C88736   6.499  10.724   2.671 -0.0005  0.4233 -0.6887
  644MOL0     O88737   6.544  10.694   2.544 -0.2096 -0.1082 -0.6056
  644MOL0     C88738   6.450  10.705   2.441 -0.5329  0.2427  0.4977
  644MOL0     C88739   6.364  10.806   2.413  0.1325 -0.4677  0.0524
  644MOL0     C88740   6.278  10.801   2.303 -0.4428 -0.2274  1.1383
  644MOL0     C88741   6.266  10.682   2.232  0.6428  0.1482 -0.7675
  644MOL0     O88742   6.167  10.705   2.137 -0.4208  0.7352 -0.0348
  644MOL0     C88743   6.096  10.591   2.074  0.7741 -0.1982 -0.9236
  644MOL0     C88744   6.012  10.638   1.953  0.2373 -0.3743 -0.5295
  644MOL0     C88745   5.924  10.521   1.899 -0.1070 -0.3103  0.0889
  644MOL0     C88746   6.009  10.402   1.840  0.1647 -1.0659 -0.3680
  644MOL0     C88747   5.909  10.283   1.821 -0.1332 -0.0442 -0.2337
  644MOL0     C88748   5.833  10.293   1.685 -0.6177 -0.1073  0.4781
  644MOL0     C88749   5.733  10.182   1.658 -0.6824  0.3457  0.2324
  644MOL0     C88750   5.595  10.169   1.733  0.1264 -0.2889 -0.3727
  644MOL0     N88751   5.514  10.067   1.674 -0.3365 -0.7281  0.2734
  644MOL0     C88752   5.436  10.098   1.570 -0.5704  0.3253 -0.6282
  644MOL0     C88753   5.382   9.980   1.532 -0.7456  0.5832 -0.1785
  644MOL0     C88754   5.282   9.941   1.429 -0.1057  0.2841 -0.6896
  644MOL0     C88755   5.328   9.905   1.291  0.4014 -0.3612 -0.0455
  644MOL0     C88756   5.375   9.752   1.303 -0.2745  0.0562  0.6101
  644MOL0     C88757   5.400   9.707   1.158  0.0533 -0.2805 -0.8172
  644MOL0     O88758   5.424   9.571   1.159 -1.0802 -0.1440  0.6395
  644MOL0     C88759   5.463   9.523   1.036  1.0781  0.0476 -0.2253
  644MOL0     C88760   5.538   9.410   1.025 -0.2558 -0.0330  0.0515
  644MOL0     C88761   5.584   9.346   0.908 -0.5017 -0.0079  0.5878
  644MOL0     C88762   5.638   9.199   0.913  0.5701  0.1705  0.0529
  644MOL0     C88763   5.569   9.411   0.778 -0.1772 -0.4829 -0.6956
  644MOL0     C88764   5.601   9.366   0.642 -0.0817 -0.1359  0.7411
  644MOL0     O88765   5.517   9.418   0.541 -0.1854  0.1881  0.3061
  644MOL0     C88766   5.508   9.360   0.416  0.3345  0.4879 -0.3974
  644MOL0     C88767   5.631   9.339   0.348 -0.8648 -0.4277 -1.0419
  644MOL0     C88768   5.624   9.247   0.239  0.1405  0.1449 -0.1458
  644MOL0     C88769   5.511   9.169   0.209 -0.5137 -0.3191  0.3791
  644MOL0     O88770   5.522   9.087   0.095 -0.5502  0.4154 -0.7788
  644MOL0     C88771   5.404   9.015   0.057 -0.0787  0.0053 -0.1137
  644MOL0     C88772   5.415   8.980  -0.091  1.2245  0.8275  0.5994
  644MOL0     C88773   5.472   8.839  -0.116  0.3870 -0.3452  0.0185
  644MOL0     C88774   5.372   8.719  -0.082 -0.4644  0.0988 -0.2778
  644MOL0     C88775   5.438   8.585  -0.128 -0.4572 -0.9930 -0.2171
  644MOL0     C88776   5.571   8.540  -0.060 -0.2682  0.1111 -0.1398
  644MOL0     C88777   5.605   8.403  -0.105 -0.2425 -0.3912 -0.0132
  644MOL0     C88778   5.724   8.337  -0.041  0.0490  0.1344  0.9221
  644MOL0    Cl88779   5.789   8.213  -0.136  0.2732 -0.3326 -0.2405
  644MOL0     C88780   5.399   9.187   0.288 -0.2864 -0.0786 -0.6736
  644MOL0     C88781   5.393   9.285   0.389 -0.2274 -0.2280 -0.7612
  644MOL0     O88782   5.694   9.291   0.630 -0.5883  0.2213 -0.2217
  644MOL0     C88783   5.502   9.541   0.784  0.1670 -0.2247  0.5690
  644MOL0     C88784   5.457   9.589   0.909  0.0313  0.1143  0.1258
  644MOL0     N88785   5.433   9.884   1.621  0.4911  0.1081 -0.1372
  644MOL0     N88786   5.518   9.936   1.707  0.7894  0.4374 -0.2308
  644MOL0     C88787   6.342  10.572   2.256 -0.1867 -0.5007 -0.1210
  644MOL0     C88788   6.435  10.587   2.356  0.4250 -0.3712 -0.3992
  644MOL0     C88789   6.597  10.704   2.787  0.6964 -0.6639 -0.7477
  644MOL0     C88790   6.566  10.614   2.892 -1.0459 -0.0936  0.4423
  644MOL0     C88791   6.645  10.602   2.996  0.2326  1.2603  0.0691
  644MOL0     C88792   6.767  10.666   3.007  0.8036  0.5170  1.1082
  644MOL0     O88793   6.845  10.634   3.116 -0.0410 -0.0261  0.8274
  644MOL0     C88794   6.974  10.699   3.133 -0.2544 -0.0778 -0.1904
  644MOL0     C88795   7.089  10.615   3.068  1.1827  0.2535 -0.3725
  644MOL0     C88796   7.102  10.473   3.117 -0.6411 -0.6187  1.4108
  644MOL0     C88797   7.244  10.419   3.166 -0.3495 -0.4636  0.7695
  644MOL0     C88798   7.288  10.499   3.276  0.6828 -0.2545 -0.5131
  644MOL0     C88799   7.313  10.576   3.366 -0.2508  0.4051 -0.2736
  644MOL0     C88800   6.811  10.745   2.893 -0.5938  0.2347 -0.6645
  644MOL0     C88801   6.724  10.767   2.786 -0.7131  0.1789 -1.0745
  644MOL0     C88802   6.772  10.854   2.670  0.8820 -0.5639 -0.3612
  644MOL0     H88803   6.369  10.890   2.482  2.3707  0.0729 -0.6779
  644MOL0     H88804   6.219  10.889   2.276  3.1422  1.7463 -1.1048
  644MOL0     H88805   6.032  10.538   2.144 -0.1904 -1.7236 -2.8571
  644MOL0     H88806   6.168  10.519   2.035 -2.3576 -2.3700 -3.2252
  644MOL0     H88807   5.948  10.716   1.995  1.0607 -0.6847  1.4026
  644MOL0     H88808   6.075  10.693   1.882  0.3943 -0.9544 -0.8442
  644MOL0     H88809   5.864  10.483   1.982  0.9705 -2.8484 -0.2082
  644MOL0     H88810   5.855  10.560   1.824 -1.8138  1.3244  2.3333
  644MOL0     H88811   6.066  10.421   1.749  3.5553  0.7484  1.9168
  644MOL0     H88812   6.076  10.358   1.915  0.6277  0.5237  0.1736
  644MOL0     H88813   5.834  10.285   1.902  1.1100  2.1926  0.9536
  644MOL0     H88814   5.974  10.195   1.820 -0.3582 -0.2512  0.9822
  644MOL0     H88815   5.782  10.390   1.673 -0.1011  0.1038 -0.0230
  644MOL0     H88816   5.908  10.292   1.606 -2.0974  0.2577 -0.9771
  644MOL0     H88817   5.795  10.093   1.648 -0.6176  0.1841  1.8298
  644MOL0     H88818   5.688  10.189   1.558 -0.0552 -1.5179 -0.2231
  644MOL0     H88819   5.623  10.135   1.834  3.1312  1.3444 -0.5219
  644MOL0     H88820   5.545  10.265   1.746  1.5918  0.6217 -1.2463
  644MOL0     H88821   5.424  10.200   1.534  5.0969  0.9348 -1.7480
  644MOL0     H88822   5.221  10.031   1.410  0.2928  0.9332  0.9173
  644MOL0     H88823   5.213   9.867   1.469 -0.2346  1.4713  1.4238
  644MOL0     H88824   5.241   9.914   1.224 -0.2553  1.0148  0.9407
  644MOL0     H88825   5.406   9.969   1.250  1.2431 -1.3358 -0.0040
  644MOL0     H88826   5.469   9.735   1.356  0.6147 -0.8406 -1.1598
  644MOL0     H88827   5.299   9.690   1.353  0.3044  0.7550  2.4451
  644MOL0     H88828   5.320   9.737   1.090  0.8253  2.7165 -0.5136
  644MOL0     H88829   5.488   9.766   1.133  3.4187 -2.0956  4.8973
  644MOL0     H88830   5.562   9.362   1.120  0.1248 -0.3266 -0.1876
  644MOL0     H88831   5.585   9.144   0.992 -4.7551  0.0316 -3.0923
  644MOL0     H88832   5.746   9.193   0.930  0.6269 -0.4462 -0.4724
  644MOL0     H88833   5.616   9.145   0.821  0.1836  0.0893  0.1877
  644MOL0     H88834   5.721   9.388   0.383 -0.1681 -1.3414 -1.4975
  644MOL0     H88835   5.720   9.226   0.193  0.4643 -1.9741  1.3343
  644MOL0     H88836   5.410   8.924   0.117  0.1018  0.1671  0.1177
  644MOL0     H88837   5.311   9.062   0.089  0.8850  0.4648  2.3284
  644MOL0     H88838   5.315   8.984  -0.134  0.7493 -0.5761  1.4992
  644MOL0     H88839   5.471   9.051  -0.154  0.8064 -2.9925 -4.7707
  644MOL0     H88840   5.570   8.830  -0.068  2.0295  2.1084 -2.5479
  644MOL0     H88841   5.493   8.825  -0.223 -0.0078 -3.1734  0.2290
  644MOL0     H88842   5.275   8.729  -0.131 -0.9295 -0.1190  0.5709
  644MOL0     H88843   5.358   8.718   0.027  2.5828  0.0561  0.2178
  644MOL0     H88844   5.368   8.503  -0.110 -2.3956  1.0525  2.2354
  644MOL0     H88845   5.446   8.592  -0.237  0.7466 -0.1378 -0.0870
  644MOL0     H88846   5.554   8.533   0.047  0.0907  1.0630 -0.0101
  644MOL0     H88847   5.654   8.608  -0.083 -0.7254  0.6540 -0.1855
  644MOL0     H88848   5.631   8.402  -0.211 -1.1502  0.5026 -0.2532
  644MOL0     H88849   5.513   8.345  -0.102 -0.7776  0.4113 -0.6158
  644MOL0     H88850   5.703   8.287   0.054 -0.7904 -1.3246  0.0079
  644MOL0     H88851   5.804   8.406  -0.011 -0.9684  1.7177  0.1600
  644MOL0     H88852   5.314   9.122   0.271 -1.1681  1.1633 -1.1425
  644MOL0     H88853   5.294   9.299   0.432  0.1424  1.0011 -0.2852
  644MOL0     H88854   5.485   9.591   0.689  0.7167 -0.6414  0.2436
  644MOL0     H88855   5.415   9.689   0.905  2.8292  1.3694  0.0190
  644MOL0     H88856   6.325  10.476   2.208 -1.3939 -1.2080  1.6504
  644MOL0     H88857   6.508  10.508   2.370  3.8828  2.8024  1.2636
  644MOL0     H88858   6.466  10.573   2.899  0.2549 -3.3418  2.7823
  644MOL0     H88859   6.612  10.533   3.073 -0.9252 -1.0479 -2.3313
  644MOL0     H88860   6.982  10.803   3.100  2.3489  0.8051  2.7110
  644MOL0     H88861   6.983  10.706   3.242  0.6459 -1.2489 -0.1662
  644MOL0     H88862   7.187  10.657   3.096  1.9450 -3.5688  3.8207
  644MOL0     H88863   7.087  10.611   2.959 -0.9268 -1.1154 -0.3414
  644MOL0     H88864   7.028  10.451   3.195 -3.7373 -1.0648 -1.4445
  644MOL0     H88865   7.081  10.400   3.039  0.3125 -0.2098  0.7566
  644MOL0     H88866   7.306  10.429   3.076 -1.7524 -1.3432 -0.3440
  644MOL0     H88867   7.235  10.318   3.207 -0.1348 -1.5711 -1.7234
  644MOL0     H88868   7.323  10.630   3.459 -1.0683  3.7459 -1.9632
  644MOL0     H88869   6.906  10.798   2.897 -0.6331  0.4791 -2.3338
  644MOL0     H88870   6.828  10.937   2.713 -0.0624 -0.3369  0.4857
  644MOL0     H88871   6.833  10.803   2.596  0.1065  2.1917 -3.0744
  644MOL0     H88872   6.691  10.896   2.611 -2.0395  0.0521  3.6262
  645MOL0     O88873   0.801   4.048   0.700 -0.5237 -0.1024  0.0118
  645MOL0     C88874   0.701   4.109   0.684 -0.3265 -0.2486 -0.2836
  645MOL0     O88875   0.670   4.230   0.741  0.1009  0.7504  0.0371
  645MOL0     C88876   0.749   4.292   0.837 -0.1293 -0.2139 -0.3064
  645MOL0     C88877   0.818   4.233   0.944 -0.1548 -0.4232 -0.7947
  645MOL0     C88878   0.897   4.322   1.026 -0.2818  0.6251 -0.4961
  645MOL0     C88879   0.906   4.465   1.007 -0.2706  0.4108  0.3919
  645MOL0     O88880   0.989   4.522   1.088  0.5150 -0.4571 -0.8584
  645MOL0     C88881   1.041   4.661   1.055 -0.9925 -0.7878 -0.1846
  645MOL0     C88882   1.163   4.675   1.141  0.2156 -0.0955 -0.5924
  645MOL0     C88883   1.136   4.664   1.298  0.0419  0.5205  0.4544
  645MOL0     C88884   1.268   4.646   1.378 -0.1385  1.1913 -0.1028
  645MOL0     C88885   1.342   4.775   1.405 -1.0824  0.2541  0.5502
  645MOL0     C88886   1.461   4.768   1.495  0.4669 -0.2400 -0.3982
  645MOL0     C88887   1.586   4.830   1.434 -0.7433 -0.0589  0.9852
  645MOL0     C88888   1.561   4.977   1.384 -0.7906 -0.3070  0.6151
  645MOL0     N88889   1.558   5.081   1.487  0.2162  0.5443 -0.0356
  645MOL0     C88890   1.665   5.105   1.570 -0.2120 -0.2264 -0.8539
  645MOL0     C88891   1.653   5.234   1.613  0.1149  0.1755  0.9020
  645MOL0     C88892   1.762   5.308   1.684 -0.1158 -0.4575 -0.2194
  645MOL0     C88893   1.898   5.319   1.623 -0.2669 -0.4228 -0.4815
  645MOL0     C88894   1.993   5.375   1.727  0.3335  0.1742  1.1656
  645MOL0     C88895   2.029   5.291   1.845  0.0261 -0.3560  0.5145
  645MOL0     O88896   1.942   5.324   1.956  0.7159  0.2255 -0.3667
  645MOL0     C88897   1.917   5.231   2.050  0.5796  0.4744 -0.4285
  645MOL0     C88898   1.834   5.264   2.158 -0.2860  0.6529 -0.0030
  645MOL0     C88899   1.795   5.181   2.265 -0.1278  0.5564 -0.0919
  645MOL0     C88900   1.707   5.243   2.376 -0.1476 -0.2024 -0.6626
  645MOL0     C88901   1.854   5.056   2.278  0.0751 -0.5023  0.6917
  645MOL0     C88902   1.840   4.964   2.393 -0.4716 -0.5601 -0.0852
  645MOL0     O88903   1.889   4.842   2.369  0.2423  0.2399  0.7604
  645MOL0     C88904   1.873   4.743   2.463 -0.7046  0.0311  0.8815
  645MOL0     C88905   1.995   4.672   2.511  0.0754  0.7475 -0.4219
  645MOL0     C88906   1.990   4.568   2.603  0.3668  0.7041  0.5375
  645MOL0     C88907   1.867   4.523   2.643  0.2343 -0.2906 -0.1405
  645MOL0     O88908   1.839   4.413   2.716  0.9920  0.0709 -0.4583
  645MOL0     C88909   1.946   4.352   2.787 -0.8155  0.8132 -0.8792
  645MOL0     C88910   2.012   4.245   2.700 -0.7689 -0.5994  0.5577
  645MOL0     C88911   2.134   4.187   2.781 -0.8473  0.3714  0.1117
  645MOL0     C88912   2.267   4.259   2.766  0.1435 -0.0143  0.8600
  645MOL0     C88913   2.369   4.232   2.859 -0.7707  0.5322  0.0485
  645MOL0     C88914   2.421   4.085   2.871  0.2247 -0.2496 -0.1610
  645MOL0     C88915   2.523   4.044   2.771 -0.2133  0.7007  0.3888
  645MOL0     C88916   2.550   3.900   2.806 -0.4590  0.3797  0.4601
  645MOL0    Cl88917   2.696   3.844   2.702 -0.4027  0.0465  0.3469
  645MOL0     C88918   1.756   4.595   2.603 -0.6526 -0.6535 -0.2519
  645MOL0     C88919   1.757   4.697   2.504  0.8829 -0.4797 -0.1508
  645MOL0     O88920   1.771   4.995   2.493  0.0611 -0.8273 -0.3644
  645MOL0     C88921   1.948   5.028   2.174 -0.4406  0.0552  0.5638
  645MOL0     C88922   1.975   5.111   2.058  0.7957  0.3474 -0.2763
  645MOL0     N88923   1.537   5.288   1.556  0.2314 -0.1888 -0.2547
  645MOL0     N88924   1.484   5.198   1.484 -0.9762 -0.4872 -0.2331
  645MOL0     C88925   0.834   4.518   0.903 -0.4683 -0.6444 -0.6479
  645MOL0     C88926   0.752   4.431   0.826 -0.3511 -0.9515 -1.0351
  645MOL0     C88927   0.585   4.051   0.605 -1.1909 -1.0230  0.9782
  645MOL0     C88928   0.450   4.085   0.631 -0.4866  0.8294 -0.3487
  645MOL0     C88929   0.353   4.050   0.542 -0.1400  0.4537 -0.3166
  645MOL0     C88930   0.378   3.975   0.425  0.9505 -0.3501  0.5221
  645MOL0     O88931   0.270   3.950   0.346  0.6597  0.5763  0.5828
  645MOL0     C88932   0.281   3.899   0.214 -0.9309  0.5817 -0.6634
  645MOL0     C88933   0.153   3.885   0.134 -0.2697 -0.5775  0.1698
  645MOL0     C88934   0.076   4.017   0.113 -0.5233  0.0304  0.7626
  645MOL0     C88935  -0.015   4.061   0.238 -0.8904 -0.8943  0.3251
  645MOL0     C88936  -0.126   3.965   0.267 -0.2421 -0.0371 -0.0507
  645MOL0     C88937  -0.191   3.867   0.288 -0.4665 -0.1394 -0.2272
  645MOL0     C88938   0.511   3.937   0.398 -0.0603  0.6023 -0.1888
  645MOL0     C88939   0.618   3.981   0.480  0.2210  0.5304  0.3773
  645MOL0     C88940   0.760   3.971   0.431 -0.3079  0.6045 -0.5378
  645MOL0     H88941   0.810   4.127   0.969  0.4640 -0.0698  1.0798
  645MOL0     H88942   0.941   4.282   1.117  0.2233 -1.5368 -1.6167
  645MOL0     H88943   0.975   4.741   1.090 -0.6140 -0.0513 -1.0932
  645MOL0     H88944   1.073   4.682   0.953  2.5727 -1.9423  0.5418
  645MOL0     H88945   1.246   4.614   1.105  2.6418  3.4786 -1.6241
  645MOL0     H88946   1.209   4.773   1.124  2.9718 -1.0898  0.5576
  645MOL0     H88947   1.094   4.758   1.336  2.0827  1.4230  0.6244
  645MOL0     H88948   1.057   4.593   1.323  0.9413 -0.7672 -0.2447
  645MOL0     H88949   1.248   4.605   1.478 -0.1556 -0.0411 -0.5889
  645MOL0     H88950   1.324   4.571   1.322 -0.7227 -0.5114  1.4797
  645MOL0     H88951   1.263   4.836   1.451 -0.8417  2.3194 -1.6227
  645MOL0     H88952   1.357   4.822   1.307 -2.2527  0.8551  0.6384
  645MOL0     H88953   1.433   4.821   1.587 -1.2971  0.1391 -1.1108
  645MOL0     H88954   1.467   4.662   1.521 -0.2922  0.0350  1.0268
  645MOL0     H88955   1.631   4.775   1.352  1.5386  1.8052  0.8725
  645MOL0     H88956   1.661   4.835   1.514 -1.6390  0.8090  1.8071
  645MOL0     H88957   1.627   5.020   1.308 -2.6814 -0.7257 -1.3330
  645MOL0     H88958   1.466   4.985   1.331 -0.3799  5.4325  0.1646
  645MOL0     H88959   1.744   5.033   1.587 -0.6969 -0.3674  1.0213
  645MOL0     H88960   1.757   5.261   1.783 -2.7694  2.9976  1.4989
  645MOL0     H88961   1.729   5.409   1.711  0.7533 -0.4289  0.8484
  645MOL0     H88962   1.925   5.220   1.585  1.8885  1.6283 -5.0846
  645MOL0     H88963   1.894   5.380   1.533 -0.0345  0.4983  0.1289
  645MOL0     H88964   2.087   5.393   1.674  1.3376  0.4649  2.9347
  645MOL0     H88965   1.959   5.475   1.756 -1.0551  0.1292 -0.1690
  645MOL0     H88966   2.007   5.192   1.803 -1.5746  0.7133 -1.3553
  645MOL0     H88967   2.136   5.303   1.864  0.2306 -2.2003  0.7317
  645MOL0     H88968   1.805   5.369   2.161 -0.4029  0.8260 -3.4660
  645MOL0     H88969   1.688   5.349   2.359  1.6711  0.2221 -0.1805
  645MOL0     H88970   1.744   5.232   2.478 -0.7691 -1.5216 -0.5523
  645MOL0     H88971   1.618   5.179   2.363  0.9220 -1.5354 -1.7440
  645MOL0     H88972   2.093   4.703   2.477  0.8004  0.7155  1.5502
  645MOL0     H88973   2.084   4.529   2.640  0.8282  0.4828 -0.8198
  645MOL0     H88974   2.021   4.421   2.829  0.0577 -0.1314 -0.8415
  645MOL0     H88975   1.904   4.308   2.878  1.1234 -1.5193 -0.9991
  645MOL0     H88976   1.940   4.165   2.680 -2.4888  1.1041 -0.3151
  645MOL0     H88977   2.058   4.287   2.610  2.7459 -1.4285  1.7953
  645MOL0     H88978   2.171   4.087   2.756  0.5340  0.6408  1.0145
  645MOL0     H88979   2.112   4.174   2.887 -2.5848  1.0812 -0.1247
  645MOL0     H88980   2.233   4.362   2.751 -0.5237 -0.6227 -3.0254
  645MOL0     H88981   2.303   4.233   2.665 -3.4085  0.8542 -0.7925
  645MOL0     H88982   2.460   4.290   2.842 -0.5118  0.4815  1.1479
  645MOL0     H88983   2.317   4.268   2.949 -0.9965  0.0597  0.1138
  645MOL0     H88984   2.335   4.018   2.862 -0.0974  0.3046 -1.4991
  645MOL0     H88985   2.467   4.081   2.970 -0.1060 -1.0985 -0.0310
  645MOL0     H88986   2.616   4.102   2.771 -0.6416  1.5109 -2.6494
  645MOL0     H88987   2.478   4.053   2.672  0.2162 -4.1605 -0.4708
  645MOL0     H88988   2.464   3.832   2.801  2.0546 -2.9345 -1.6567
  645MOL0     H88989   2.581   3.888   2.910  0.4114  2.0095  0.4234
  645MOL0     H88990   1.654   4.567   2.628 -0.6582  0.5722  1.1912
  645MOL0     H88991   1.672   4.750   2.462  0.2825 -0.2901  1.2543
  645MOL0     H88992   2.011   4.940   2.181 -1.0682 -0.5678 -1.1249
  645MOL0     H88993   2.060   5.083   1.996  0.9764  0.6172 -0.1502
  645MOL0     H88994   0.824   4.626   0.897 -0.9072 -0.7780 -3.6082
  645MOL0     H88995   0.681   4.469   0.753  0.4861  0.1225 -1.3192
  645MOL0     H88996   0.440   4.141   0.723  0.6006  1.6070 -0.6727
  645MOL0     H88997   0.250   4.071   0.570  0.7280  5.5534  0.0176
  645MOL0     H88998   0.362   3.951   0.161  3.6769 -3.3899  1.7199
  645MOL0     H88999   0.325   3.799   0.224 -2.3622  0.0101  0.2261
  645MOL0     H89000   0.086   3.820   0.190  1.0454 -2.5423 -0.4262
  645MOL0     H89001   0.179   3.831   0.042 -1.0511  0.5372 -0.7381
  645MOL0     H89002   0.157   4.089   0.099  1.4050 -1.7294  2.4327
  645MOL0     H89003   0.011   4.010   0.025 -0.6668 -2.9978  0.9899
  645MOL0     H89004  -0.049   4.161   0.209  0.0941  0.4135  3.3030
  645MOL0     H89005   0.047   4.068   0.329  1.0730  0.6069 -1.0193
  645MOL0     H89006  -0.242   3.773   0.291 -2.3403  0.7033 -2.4307
  645MOL0     H89007   0.516   3.882   0.305 -0.6713 -0.0142  0.1332
  645MOL0     H89008   0.826   3.908   0.492  3.4886  3.5461 -1.1900
  645MOL0     H89009   0.772   3.949   0.324 -0.1216  1.3083 -0.6672
  645MOL0     H89010   0.804   4.071   0.435  3.3986 -0.8029 -1.8170
  646MOL0     O89011   2.967   4.522   0.021 -0.4918  0.8881 -0.4695
  646MOL0     C89012   2.998   4.633   0.017  0.7643 -0.5184 -0.2694
  646MOL0     O89013   3.019   4.712   0.126  0.9987  0.5942  0.1113
  646MOL0     C89014   3.024   4.651   0.252 -0.0987  0.0959  1.4900
  646MOL0     C89015   3.108   4.551   0.270 -0.4662 -0.3600 -0.2507
  646MOL0     C89016   3.126   4.492   0.397  0.5079 -0.4355  0.3342
  646MOL0     C89017   3.048   4.536   0.506  0.5071  0.4390 -0.0206
  646MOL0     O89018   3.088   4.488   0.634  0.0238  0.4862 -0.6404
  646MOL0     C89019   2.995   4.514   0.743  0.0099  0.5173  0.1421
  646MOL0     C89020   2.923   4.384   0.765  0.8332 -0.1942 -0.4539
  646MOL0     C89021   2.808   4.364   0.664  0.0477 -0.6865 -0.0287
  646MOL0     C89022   2.842   4.262   0.556  0.1377 -0.4217 -1.1599
  646MOL0     C89023   2.751   4.260   0.434  0.2380 -0.3782 -0.0833
  646MOL0     C89024   2.787   4.149   0.336  0.9426  0.3791 -0.4058
  646MOL0     C89025   2.909   4.168   0.255 -0.7736  0.0007 -0.4913
  646MOL0     C89026   3.038   4.106   0.313  0.7549  0.4848 -1.0335
  646MOL0     N89027   3.055   3.960   0.301 -0.5204 -0.2821  0.8447
  646MOL0     C89028   2.982   3.868   0.363  0.2520 -0.4571  0.6344
  646MOL0     C89029   3.012   3.752   0.312  0.5293 -0.0399  0.1310
  646MOL0     C89030   2.918   3.624   0.319 -0.4628  0.3596  0.5502
  646MOL0     C89031   2.888   3.560   0.455  0.6458  0.1951  0.0987
  646MOL0     C89032   2.812   3.431   0.437  0.3497 -0.2776  0.2841
  646MOL0     C89033   2.668   3.457   0.399 -0.5652 -0.7691  0.2226
  646MOL0     O89034   2.578   3.345   0.391 -0.6393 -0.0874 -0.4879
  646MOL0     C89035   2.548   3.284   0.271  0.2858 -0.3106 -0.3054
  646MOL0     C89036   2.429   3.214   0.260 -0.3692 -0.0950  0.4022
  646MOL0     C89037   2.390   3.141   0.143 -0.3624 -0.7595 -0.3818
  646MOL0     C89038   2.254   3.086   0.152 -0.2718  0.1321  0.3043
  646MOL0     C89039   2.474   3.131   0.036 -0.0003  0.0862  0.6556
  646MOL0     C89040   2.444   3.054  -0.088 -0.6798  0.7402  0.1869
  646MOL0     O89041   2.437   2.918  -0.094  0.5417 -0.0708  0.4692
  646MOL0     C89042   2.351   2.864  -0.186  0.0052  0.3214 -0.5703
  646MOL0     C89043   2.224   2.842  -0.135  0.2585  1.0137 -1.7399
  646MOL0     C89044   2.124   2.795  -0.215 -0.3214 -0.3550 -0.0939
  646MOL0     C89045   2.155   2.759  -0.356 -0.3316  0.4350  0.3883
  646MOL0     O89046   2.053   2.724  -0.447  0.5996  0.4163 -0.0862
  646MOL0     C89047   1.921   2.785  -0.425 -0.7984  0.0334 -0.2337
  646MOL0     C89048   1.896   2.920  -0.495 -0.2895 -0.4262 -0.8199
  646MOL0     C89049   1.978   3.038  -0.446  0.9114  1.0062  1.2350
  646MOL0     C89050   1.948   3.074  -0.299 -0.0636  0.7869  0.2221
  646MOL0     C89051   2.041   3.184  -0.257 -0.3900 -0.0596 -0.2626
  646MOL0     C89052   1.996   3.258  -0.125 -0.3723  0.3215 -0.3689
  646MOL0     C89053   2.091   3.367  -0.082  0.2313 -0.0760  0.1720
  646MOL0     C89054   2.031   3.509  -0.093  0.2176 -0.0579 -0.3204
  646MOL0    Cl89055   2.144   3.652  -0.044 -0.2893  0.0118 -0.6134
  646MOL0     C89056   2.285   2.758  -0.398  0.2938 -0.0577  0.6439
  646MOL0     C89057   2.387   2.810  -0.315  0.6418  0.5072  0.5322
  646MOL0     O89058   2.423   3.122  -0.186  0.0088 -0.4944  0.0802
  646MOL0     C89059   2.595   3.206   0.042 -0.0778  0.9522  0.5561
  646MOL0     C89060   2.635   3.277   0.157 -0.1136 -0.0098  0.2718
  646MOL0     N89061   3.123   3.760   0.226  0.0811 -1.0683  0.1649
  646MOL0     N89062   3.138   3.889   0.210  0.0913  0.2070 -0.2403
  646MOL0     C89063   2.958   4.643   0.480 -0.5583  0.3485  0.4328
  646MOL0     C89064   2.952   4.702   0.351 -0.4878  0.2685  0.4020
  646MOL0     C89065   3.017   4.700  -0.116 -0.6773  0.2919 -0.9481
  646MOL0     C89066   3.013   4.839  -0.122 -0.1956  0.2595  0.5925
  646MOL0     C89067   3.025   4.907  -0.237 -0.6033 -0.0925  0.3498
  646MOL0     C89068   3.056   4.848  -0.357 -0.4374 -0.3222  0.1299
  646MOL0     O89069   3.074   4.907  -0.476  0.2217 -0.0934  0.3201
  646MOL0     C89070   3.106   5.044  -0.474  0.5215  0.2539  0.3375
  646MOL0     C89071   3.241   5.079  -0.413  0.2152  0.0443 -0.0799
  646MOL0     C89072   3.369   5.050  -0.502  1.8301 -0.2693  1.2968
  646MOL0     C89073   3.477   4.961  -0.423  0.9653 -0.0488  0.3905
  646MOL0     C89074   3.504   4.986  -0.283  0.1747  0.6567 -0.8820
  646MOL0     C89075   3.503   5.005  -0.161  0.4322 -0.3982  0.1559
  646MOL0     C89076   3.079   4.711  -0.355  0.8412 -0.3275 -0.7952
  646MOL0     C89077   3.052   4.638  -0.236  0.0854  0.2806  0.6031
  646MOL0     C89078   3.091   4.489  -0.237  1.4533  0.1327  0.3192
  646MOL0     H89079   3.170   4.527   0.184 -0.7881 -0.2377 -0.5200
  646MOL0     H89080   3.193   4.407   0.409 -0.6425 -1.5721 -1.0151
  646MOL0     H89081   2.914   4.585   0.723 -0.7555 -0.1146  0.9536
  646MOL0     H89082   3.058   4.541   0.828  0.9920 -0.2106 -0.3257
  646MOL0     H89083   2.990   4.298   0.774  0.3735 -0.5358 -0.2465
  646MOL0     H89084   2.880   4.397   0.865 -0.3769 -2.5721 -0.6032
  646MOL0     H89085   2.722   4.335   0.724  2.4674 -3.7357  2.2948
  646MOL0     H89086   2.777   4.450   0.603 -4.5120 -0.9212  1.5654
  646MOL0     H89087   2.946   4.283   0.528  0.8975 -1.0843  0.9127
  646MOL0     H89088   2.834   4.160   0.597 -1.6449  0.8789  2.0996
  646MOL0     H89089   2.750   4.355   0.380 -0.7627 -1.1502 -1.4799
  646MOL0     H89090   2.648   4.244   0.465  0.1736  1.4592  0.8017
  646MOL0     H89091   2.787   4.059   0.399  2.3225  2.5726  3.0264
  646MOL0     H89092   2.704   4.145   0.265  0.3463 -1.5188  0.3150
  646MOL0     H89093   2.921   4.277   0.258 -2.8380  0.2618 -0.2287
  646MOL0     H89094   2.887   4.142   0.151 -0.1868  2.6679 -1.3649
  646MOL0     H89095   3.115   4.172   0.272 -1.1147  4.1771  0.8671
  646MOL0     H89096   3.033   4.118   0.422 -0.8905  3.0083 -1.3029
  646MOL0     H89097   2.895   3.888   0.425  0.6688  1.8113  0.5848
  646MOL0     H89098   2.955   3.553   0.246 -0.6717  1.3284 -0.5297
  646MOL0     H89099   2.825   3.643   0.266 -1.2323 -1.4770  1.1683
  646MOL0     H89100   2.986   3.540   0.498  0.5052 -0.4185  0.1492
  646MOL0     H89101   2.831   3.612   0.533  0.0100 -2.5846  1.6083
  646MOL0     H89102   2.856   3.367   0.359 -1.6404  0.5223 -1.5868
  646MOL0     H89103   2.808   3.378   0.533  1.9387  1.4661  1.3864
  646MOL0     H89104   2.627   3.534   0.465 -1.2415 -1.2097  0.3256
  646MOL0     H89105   2.670   3.505   0.301  2.9076 -2.1225 -0.4857
  646MOL0     H89106   2.370   3.210   0.351 -0.4712 -1.8336  0.2948
  646MOL0     H89107   2.189   3.133   0.226  1.3870 -2.0507  3.3795
  646MOL0     H89108   2.276   2.981   0.174  1.9813  0.2813 -0.9314
  646MOL0     H89109   2.220   3.092   0.048  0.3469  0.6502  0.1270
  646MOL0     H89110   2.194   2.877  -0.037  1.8544 -3.6443  0.7098
  646MOL0     H89111   2.024   2.791  -0.173 -0.9798  0.6828 -1.4696
  646MOL0     H89112   1.860   2.708  -0.474 -1.4870  0.7605 -0.5341
  646MOL0     H89113   1.887   2.790  -0.321  0.9067 -1.4275  0.4458
  646MOL0     H89114   1.907   2.901  -0.602 -1.6533 -0.7455 -0.9161
  646MOL0     H89115   1.790   2.945  -0.485  0.6894  3.9559  1.0309
  646MOL0     H89116   1.961   3.127  -0.507 -0.5251  0.8043  1.3008
  646MOL0     H89117   2.084   3.014  -0.459  0.9179  1.5282  0.3033
  646MOL0     H89118   1.952   2.994  -0.226 -0.4963 -0.4114 -1.0254
  646MOL0     H89119   1.847   3.114  -0.296 -1.6682 -2.9407  1.1662
  646MOL0     H89120   2.135   3.134  -0.233 -0.2172 -0.8275 -2.3098
  646MOL0     H89121   2.050   3.266  -0.330  0.0433  0.7325  0.6549
  646MOL0     H89122   1.993   3.178  -0.050 -0.4449 -0.2793 -1.0031
  646MOL0     H89123   1.896   3.301  -0.132  0.2810  1.6576 -2.0534
  646MOL0     H89124   2.183   3.369  -0.141  0.2207  2.3996  0.1411
  646MOL0     H89125   2.122   3.356   0.023  0.6309 -1.9447 -0.1038
  646MOL0     H89126   1.940   3.506  -0.033  1.1357  2.1322  1.2807
  646MOL0     H89127   2.006   3.530  -0.198  0.3112 -0.9655 -0.5313
  646MOL0     H89128   2.316   2.736  -0.499 -1.0236  2.7648 -0.4628
  646MOL0     H89129   2.491   2.798  -0.346  0.0429 -0.2059 -1.3081
  646MOL0     H89130   2.660   3.198  -0.045 -2.9008 -1.6617 -1.5296
  646MOL0     H89131   2.722   3.342   0.151  0.5963 -1.0605 -2.2724
  646MOL0     H89132   2.892   4.679   0.558 -1.3964  2.3319 -1.0983
  646MOL0     H89133   2.884   4.787   0.342  2.0514  2.7262  2.5955
  646MOL0     H89134   2.987   4.899  -0.036  0.0882 -0.6604  1.3447
  646MOL0     H89135   3.008   5.011  -0.210 -3.9809 -0.7931  1.4036
  646MOL0     H89136   3.107   5.072  -0.580  5.2389 -2.3982 -0.6028
  646MOL0     H89137   3.021   5.093  -0.427 -1.6547 -3.1039  0.2284
  646MOL0     H89138   3.247   5.033  -0.315  1.2062  0.5106  0.0901
  646MOL0     H89139   3.234   5.185  -0.388 -2.1534 -0.4140  1.4430
  646MOL0     H89140   3.336   4.991  -0.588  0.2713 -2.3118  3.1598
  646MOL0     H89141   3.411   5.148  -0.523 -2.1340  2.3783  4.1203
  646MOL0     H89142   3.565   4.961  -0.487  1.7523 -0.7757  1.4404
  646MOL0     H89143   3.440   4.858  -0.429 -0.2274  0.4187 -0.8808
  646MOL0     H89144   3.507   5.022  -0.055  1.0164 -2.4077  0.4823
  646MOL0     H89145   3.105   4.655  -0.444 -1.0875 -2.3362 -0.1961
  646MOL0     H89146   3.002   4.425  -0.235  0.4128  1.5077 -0.3191
  646MOL0     H89147   3.154   4.460  -0.321  1.1232  1.4812 -0.4217
  646MOL0     H89148   3.134   4.459  -0.141 -3.2776 -2.4346  1.9660
  647MOL0     O89149   7.727  11.492   1.773 -0.4359 -0.0697 -0.4025
  647MOL0     C89150   7.732  11.598   1.837 -0.2963  0.4265 -0.2082
  647MOL0     O89151   7.841  11.674   1.854 -0.2505  0.4605 -0.0382
  647MOL0     C89152   7.974  11.636   1.822  0.1059  0.0718  0.3181
  647MOL0     C89153   8.028  11.518   1.868  0.3614 -0.0601  0.5492
  647MOL0     C89154   8.163  11.486   1.846 -0.3004 -0.2726 -0.5551
  647MOL0     C89155   8.244  11.575   1.762  0.1620  1.0542 -0.6937
  647MOL0     O89156   8.372  11.554   1.732  0.5407 -0.4032  0.5699
  647MOL0     C89157   8.444  11.452   1.789  0.2817  0.6304 -0.6220
  647MOL0     C89158   8.590  11.441   1.757 -0.2636 -0.1104  0.7240
  647MOL0     C89159   8.620  11.402   1.617 -0.4712 -0.4998  0.5372
  647MOL0     C89160   8.767  11.396   1.611  0.5404 -0.1858  0.7205
  647MOL0     C89161   8.802  11.364   1.466  0.8629  0.1915 -0.2349
  647MOL0     C89162   8.952  11.375   1.427  0.5236  0.4721 -0.1927
  647MOL0     C89163   9.007  11.514   1.409 -0.0336 -0.1702 -0.0352
  647MOL0     C89164   9.147  11.521   1.346 -0.1279  0.7705  0.3849
  647MOL0     N89165   9.253  11.456   1.433 -0.5657  0.5142  0.8838
  647MOL0     C89166   9.297  11.512   1.550 -0.5459 -0.1038  0.4846
  647MOL0     C89167   9.374  11.422   1.618  0.0481  0.1256  0.6496
  647MOL0     C89168   9.443  11.421   1.743 -0.6874 -1.2749  0.2141
  647MOL0     C89169   9.570  11.511   1.713 -0.3899 -0.1200  0.2680
  647MOL0     C89170   9.678  11.519   1.828 -0.1572  0.1784 -0.0323
  647MOL0     C89171   9.798  11.596   1.774  0.7970  0.3845 -0.1780
  647MOL0     O89172   9.899  11.590   1.877 -0.4586  1.2652 -0.9995
  647MOL0     C89173  10.023  11.638   1.849  0.5874 -0.7667  0.0788
  647MOL0     C89174  10.063  11.713   1.743 -0.2772 -0.0439  1.3015
  647MOL0     C89175  10.202  11.737   1.721 -0.0438  0.2439  0.2433
  647MOL0     C89176  10.242  11.805   1.589 -0.0783  0.4336 -0.3264
  647MOL0     C89177  10.297  11.691   1.817 -0.1347 -0.2183 -0.1448
  647MOL0     C89178  10.440  11.705   1.807 -0.6676 -0.4393  0.4574
  647MOL0     O89179  10.481  11.820   1.750  0.6982  0.4646 -0.3852
  647MOL0     C89180  10.600  11.824   1.687  0.0372  0.3625 -1.3076
  647MOL0     C89181  10.702  11.866   1.768 -0.7030  1.0246 -0.7119
  647MOL0     C89182  10.829  11.876   1.714 -0.0055  0.7193  1.4050
  647MOL0     C89183  10.850  11.866   1.575 -0.2745  0.3629  0.1847
  647MOL0     O89184  10.967  11.885   1.499 -0.2323  0.5135  0.0867
  647MOL0     C89185  11.086  11.911   1.575  1.1715  0.8646  0.5700
  647MOL0     C89186  11.117  12.055   1.545 -0.4760  0.4969 -0.1310
  647MOL0     C89187  11.056  12.155   1.657 -0.2091  0.6422 -0.4143
  647MOL0     C89188  11.055  12.308   1.599  0.0226  0.7025  0.2058
  647MOL0     C89189  11.191  12.370   1.600 -0.3301  0.0451 -0.6399
  647MOL0     C89190  11.177  12.512   1.554  0.3310 -0.1265  0.5595
  647MOL0     C89191  11.303  12.581   1.512 -0.2628 -0.6956 -0.4999
  647MOL0     C89192  11.279  12.704   1.426 -0.0597  0.0459  1.3397
  647MOL0    Cl89193  11.176  12.806   1.526  0.2021  0.0998  0.2241
  647MOL0     C89194  10.741  11.834   1.492 -0.2492 -1.0872 -0.4802
  647MOL0     C89195  10.617  11.810   1.549  0.8031 -0.9669 -0.3850
  647MOL0     O89196  10.516  11.626   1.864 -0.6279 -0.7764  0.8593
  647MOL0     C89197  10.244  11.618   1.927 -1.0013  0.6413  0.7660
  647MOL0     C89198  10.108  11.610   1.947 -0.9225 -0.8970  0.1055
  647MOL0     N89199   9.370  11.308   1.530  0.0675 -0.5395  0.1135
  647MOL0     N89200   9.313  11.331   1.414  0.1554  0.1289  0.0105
  647MOL0     C89201   8.183  11.685   1.705  1.3032  0.3380  0.0382
  647MOL0     C89202   8.045  11.715   1.731 -0.7202 -0.1116  0.0238
  647MOL0     C89203   7.597  11.640   1.903 -0.6978 -0.0428 -0.8260
  647MOL0     C89204   7.478  11.598   1.848 -0.5073  0.7397 -0.6494
  647MOL0     C89205   7.354  11.643   1.893 -0.0664 -0.0456  0.3847
  647MOL0     C89206   7.352  11.728   2.009  0.0722  0.7210 -0.0740
  647MOL0     O89207   7.223  11.761   2.049  0.0536  0.2145 -0.4876
  647MOL0     C89208   7.206  11.866   2.146  0.3779 -0.4710 -0.3038
  647MOL0     C89209   7.056  11.880   2.174  0.1255  0.2897 -0.8093
  647MOL0     C89210   7.011  11.762   2.260 -0.2042 -0.3265 -0.1888
  647MOL0     C89211   6.878  11.798   2.338  0.4228  0.7397 -0.2349
  647MOL0     C89212   6.777  11.875   2.267  1.9761  0.8639  0.0788
  647MOL0     C89213   6.686  11.938   2.220  0.4228 -0.1528 -0.0794
  647MOL0     C89214   7.473  11.777   2.064  0.6404 -0.9965 -0.5048
  647MOL0     C89215   7.590  11.729   2.016 -0.0025  0.0195  0.7800
  647MOL0     C89216   7.714  11.756   2.103 -0.7206 -0.7505  0.0213
  647MOL0     H89217   7.963  11.457   1.929  2.4835 -4.1418 -0.9093
  647MOL0     H89218   8.196  11.394   1.893  1.9408  0.7972  0.1034
  647MOL0     H89219   8.406  11.352   1.765 -1.5569  0.9591  0.7576
  647MOL0     H89220   8.440  11.463   1.898  3.3260 -0.4773 -0.3122
  647MOL0     H89221   8.636  11.536   1.784 -1.8188 -0.0678  3.7610
  647MOL0     H89222   8.633  11.366   1.825 -0.9970 -0.1234  1.1863
  647MOL0     H89223   8.582  11.300   1.603  2.1149 -1.2515 -1.6822
  647MOL0     H89224   8.574  11.470   1.545 -1.5932 -3.2926 -1.5685
  647MOL0     H89225   8.807  11.497   1.625 -1.0697  1.0516 -2.5234
  647MOL0     H89226   8.810  11.329   1.686  1.8707  0.9320  0.9883
  647MOL0     H89227   8.734  11.418   1.399 -0.4030 -1.1837 -0.1340
  647MOL0     H89228   8.771  11.261   1.445 -3.2979  1.6152 -2.2310
  647MOL0     H89229   9.022  11.324   1.493 -0.3013 -0.8893 -0.3402
  647MOL0     H89230   8.960  11.334   1.326 -1.8998 -0.2065 -0.1885
  647MOL0     H89231   9.015  11.558   1.509  0.0885  1.1222 -0.5940
  647MOL0     H89232   8.939  11.571   1.345  1.2923  1.3195 -0.1670
  647MOL0     H89233   9.142  11.467   1.251  0.3580  1.4305 -0.0214
  647MOL0     H89234   9.179  11.623   1.326  0.8036  0.1580 -1.4560
  647MOL0     H89235   9.261  11.611   1.578  3.7383  1.8909 -0.2484
  647MOL0     H89236   9.476  11.319   1.763  0.8643 -0.5239  1.7197
  647MOL0     H89237   9.379  11.458   1.823  0.7067 -1.6900  1.5671
  647MOL0     H89238   9.611  11.459   1.625  2.1232 -2.4006  2.5835
  647MOL0     H89239   9.545  11.614   1.688 -2.9637 -1.1857 -2.1412
  647MOL0     H89240   9.642  11.567   1.920  2.1793  2.7744 -0.3074
  647MOL0     H89241   9.707  11.418   1.859  0.1839  0.4688  0.6394
  647MOL0     H89242   9.838  11.563   1.677  0.6310  1.3681 -0.5948
  647MOL0     H89243   9.771  11.701   1.764  2.5025  0.8856  0.2271
  647MOL0     H89244   9.991  11.746   1.669 -1.1554 -3.0541  0.6780
  647MOL0     H89245  10.155  11.829   1.527  1.5101  2.3142 -1.9963
  647MOL0     H89246  10.309  11.750   1.522 -2.6213  2.1720 -4.7067
  647MOL0     H89247  10.287  11.899   1.622 -3.1114  2.5061 -1.7099
  647MOL0     H89248  10.674  11.895   1.869  0.3022 -0.3512 -0.0148
  647MOL0     H89249  10.907  11.893   1.787  2.1511 -3.9852  0.5759
  647MOL0     H89250  11.082  11.888   1.682  1.0202 -0.6971  0.2604
  647MOL0     H89251  11.172  11.848   1.550  0.4139 -0.2210  0.5975
  647MOL0     H89252  11.226  12.061   1.549 -0.5615  1.8375  1.5371
  647MOL0     H89253  11.082  12.089   1.447 -1.0987  1.2793  0.3496
  647MOL0     H89254  11.105  12.158   1.755  0.8379 -0.6656 -0.8733
  647MOL0     H89255  10.953  12.127   1.679  0.3096  1.2551  3.5016
  647MOL0     H89256  10.977  12.357   1.657  1.4656  0.6593  2.3045
  647MOL0     H89257  11.027  12.302   1.493  3.6833  2.1612 -1.0143
  647MOL0     H89258  11.224  12.362   1.704 -0.4752  0.5555 -0.5511
  647MOL0     H89259  11.255  12.311   1.534 -0.4920  0.5448 -1.2491
  647MOL0     H89260  11.129  12.569   1.634  2.3141 -0.4801  2.1048
  647MOL0     H89261  11.116  12.506   1.464  1.3251  0.2318 -0.1488
  647MOL0     H89262  11.362  12.509   1.455 -0.8595 -1.3938 -0.2424
  647MOL0     H89263  11.347  12.612   1.607 -2.5673 -0.7151  0.6508
  647MOL0     H89264  11.231  12.671   1.333  0.2331  1.5759  0.6215
  647MOL0     H89265  11.371  12.759   1.404  0.1895 -1.0667 -0.6974
  647MOL0     H89266  10.766  11.840   1.386  0.2604  1.8140 -0.2682
  647MOL0     H89267  10.543  11.786   1.474 -0.2308 -0.3924  0.4289
  647MOL0     H89268  10.310  11.571   1.999  1.7507  0.5072 -1.6465
  647MOL0     H89269  10.070  11.555   2.033  1.0644  1.0283  2.3858
  647MOL0     H89270   8.237  11.747   1.634 -1.2391  1.3588 -1.1225
  647MOL0     H89271   8.008  11.806   1.684  0.8373  1.5280  1.7697
  647MOL0     H89272   7.476  11.526   1.767 -0.7273 -1.2049  1.0089
  647MOL0     H89273   7.259  11.610   1.853  0.7425  0.5717 -2.2680
  647MOL0     H89274   7.267  11.842   2.234  1.4295 -1.8610 -1.3672
  647MOL0     H89275   7.229  11.967   2.110  0.5499 -0.2936  0.2892
  647MOL0     H89276   6.995  11.901   2.086  0.4739  2.5401 -0.5742
  647MOL0     H89277   7.034  11.964   2.241  0.4795  1.2032 -1.8096
  647MOL0     H89278   6.997  11.676   2.193  2.6050 -1.6311  0.7457
  647MOL0     H89279   7.088  11.744   2.336  0.4316  0.8187 -0.5368
  647MOL0     H89280   6.906  11.858   2.425 -1.1955  0.0722  0.7856
  647MOL0     H89281   6.837  11.709   2.387  1.6607 -0.1844 -0.8213
  647MOL0     H89282   6.606  12.003   2.192 -2.3974 -2.9542  0.9286
  647MOL0     H89283   7.468  11.838   2.154 -1.8702  0.1958 -1.3401
  647MOL0     H89284   7.692  11.775   2.209 -1.3936  0.1015 -0.2667
  647MOL0     H89285   7.773  11.664   2.095 -0.0510 -0.3157 -0.1871
  647MOL0     H89286   7.780  11.838   2.071  0.7211  0.2928  4.7377
  648MOL0     O89287   6.726   9.816   8.218  0.1590 -0.4188  0.2281
  648MOL0     C89288   6.825   9.831   8.290 -0.6354  0.3104 -0.4276
  648MOL0     O89289   6.956   9.807   8.255 -0.0474  0.5645  0.0101
  648MOL0     C89290   6.979   9.752   8.124 -0.1961 -0.4765 -0.8810
  648MOL0     C89291   6.963   9.838   8.019  0.4824 -0.1735 -0.1356
  648MOL0     C89292   6.967   9.793   7.885  0.5826  0.3539 -0.4577
  648MOL0     C89293   7.008   9.658   7.869 -0.7341 -0.0739 -0.3495
  648MOL0     O89294   7.019   9.601   7.740 -0.1457  0.3011 -0.1571
  648MOL0     C89295   7.083   9.683   7.642  0.7973 -0.5034  0.3646
  648MOL0     C89296   7.121   9.590   7.524 -0.0035 -0.0394  0.4977
  648MOL0     C89297   7.132   9.679   7.403 -0.1629 -0.1230 -0.1215
  648MOL0     C89298   7.196   9.621   7.287  0.1243  0.3216  0.1711
  648MOL0     C89299   7.207   9.713   7.174 -0.6244  0.1096  0.0731
  648MOL0     C89300   7.299   9.836   7.211 -0.1583 -0.2105 -0.8240
  648MOL0     C89301   7.290   9.956   7.114  0.2433 -0.8815  0.3715
  648MOL0     C89302   7.386  10.057   7.159 -0.0864  0.2016 -0.3693
  648MOL0     N89303   7.527  10.015   7.168 -0.2403  0.5555  0.3657
  648MOL0     C89304   7.598   9.945   7.264 -0.0379 -0.1423 -0.0305
  648MOL0     C89305   7.718   9.906   7.209 -0.2914 -0.5392 -0.0459
  648MOL0     C89306   7.842   9.835   7.267 -0.2092 -1.0924 -0.2164
  648MOL0     C89307   7.867   9.717   7.175 -0.3637 -0.3275  0.3549
  648MOL0     C89308   7.737   9.627   7.152  0.8589 -0.2958  0.0104
  648MOL0     C89309   7.762   9.516   7.056 -0.1012 -0.8344  0.2210
  648MOL0     O89310   7.639   9.444   7.057 -0.2192 -0.7861 -1.2396
  648MOL0     C89311   7.535   9.496   6.980 -0.7622 -0.8761  1.1195
  648MOL0     C89312   7.412   9.436   6.985 -0.1689  0.4802  0.2929
  648MOL0     C89313   7.302   9.467   6.907 -0.3523  0.2244 -0.1545
  648MOL0     C89314   7.169   9.396   6.929 -0.0310  0.8039 -0.5659
  648MOL0     C89315   7.317   9.570   6.811  1.2728  0.4210  0.4418
  648MOL0     C89316   7.206   9.610   6.712 -0.2964  0.3518 -0.2916
  648MOL0     O89317   7.103   9.520   6.681 -0.7443 -0.0222  0.3055
  648MOL0     C89318   7.009   9.550   6.576 -0.0629 -0.1757 -0.0484
  648MOL0     C89319   6.945   9.669   6.554 -0.0993 -0.4424  0.1635
  648MOL0     C89320   6.852   9.672   6.453  1.2689 -0.8224  0.0980
  648MOL0     C89321   6.831   9.560   6.371 -0.2861  0.8912 -0.2396
  648MOL0     O89322   6.750   9.574   6.260 -0.0391 -0.4051 -0.3146
  648MOL0     C89323   6.812   9.568   6.133 -0.8987  1.4644 -0.2055
  648MOL0     C89324   6.811   9.716   6.073  0.2551 -1.2164 -0.6273
  648MOL0     C89325   6.891   9.715   5.940 -0.4151 -0.0026 -0.3818
  648MOL0     C89326   6.884   9.861   5.873 -0.7464  0.1331 -1.4474
  648MOL0     C89327   6.739   9.906   5.861  0.4191  0.9024 -0.2785
  648MOL0     C89328   6.649   9.810   5.801  0.4109 -0.5772 -0.3384
  648MOL0     C89329   6.498   9.846   5.816  0.2059  0.0778  0.2166
  648MOL0     C89330   6.432   9.804   5.953 -0.8245 -0.3469  0.8785
  648MOL0    Cl89331   6.257   9.852   5.975  0.1261 -0.2435 -0.1627
  648MOL0     C89332   6.886   9.432   6.396  0.3414  0.3803  0.1110
  648MOL0     C89333   6.985   9.434   6.500  0.0250 -0.9824 -0.1774
  648MOL0     O89334   7.222   9.715   6.658 -0.4731  0.2089  0.3937
  648MOL0     C89335   7.441   9.632   6.802 -0.2351  0.0010  0.3356
  648MOL0     C89336   7.546   9.598   6.876 -0.3962 -0.2680  0.0264
  648MOL0     N89337   7.711   9.953   7.077 -0.7460  0.0458  0.3627
  648MOL0     N89338   7.610  10.028   7.061  0.0253  0.3127  0.6227
  648MOL0     C89339   7.047   9.578   7.979 -0.3872 -0.6359 -0.8532
  648MOL0     C89340   7.035   9.625   8.105 -0.0823 -0.8855  0.0617
  648MOL0     C89341   6.803   9.860   8.436 -0.2658  0.5726  0.6945
  648MOL0     C89342   6.684   9.802   8.496 -0.2242  0.3398  0.0756
  648MOL0     C89343   6.654   9.827   8.626  0.4405  1.3429 -0.4212
  648MOL0     C89344   6.733   9.906   8.707  0.0996 -0.0170  0.5402
  648MOL0     O89345   6.706   9.931   8.835 -0.3554  0.3648 -0.5397
  648MOL0     C89346   6.573   9.938   8.884 -0.2345  0.4913 -0.0257
  648MOL0     C89347   6.578  10.042   9.004 -0.7072  0.2784 -0.3686
  648MOL0     C89348   6.649   9.998   9.128 -0.0615 -0.1916  0.6610
  648MOL0     C89349   6.571  10.021   9.253  0.1903 -0.3675 -0.9658
  648MOL0     C89350   6.608  10.143   9.330 -1.0372 -0.8106  0.2913
  648MOL0     C89351   6.610  10.240   9.401 -0.4966  1.1029  0.2966
  648MOL0     C89352   6.848   9.963   8.644 -0.4970 -0.2214 -0.5905
  648MOL0     C89353   6.876   9.953   8.508 -0.7872 -0.3654  0.2372
  648MOL0     C89354   6.983  10.039   8.438  0.3210 -0.1942 -0.5259
  648MOL0     H89355   6.938   9.938   8.053  2.8877  0.8884 -1.2652
  648MOL0     H89356   6.926   9.856   7.806 -0.4037 -1.3064 -1.3525
  648MOL0     H89357   7.167   9.736   7.689  0.9736 -0.8807  0.4825
  648MOL0     H89358   7.012   9.751   7.595  1.6094 -0.7781 -1.3000
  648MOL0     H89359   7.217   9.540   7.536 -0.0330 -0.2287 -0.0257
  648MOL0     H89360   7.036   9.526   7.502 -0.1760  0.7526 -1.3295
  648MOL0     H89361   7.032   9.702   7.367  0.8667  2.4316 -1.6017
  648MOL0     H89362   7.177   9.776   7.427 -1.5328  0.6500 -0.5666
  648MOL0     H89363   7.300   9.592   7.308  0.4247  0.3586 -1.1780
  648MOL0     H89364   7.144   9.530   7.256  1.2190  0.1348 -1.1986
  648MOL0     H89365   7.110   9.757   7.148 -0.8646 -0.9800 -0.9346
  648MOL0     H89366   7.254   9.670   7.085  2.4792 -1.6286  2.3504
  648MOL0     H89367   7.277   9.879   7.309 -1.5307  0.4160 -1.3818
  648MOL0     H89368   7.400   9.794   7.221 -0.5908 -0.6853  2.4734
  648MOL0     H89369   7.188   9.995   7.116  0.9187  1.1343  4.1278
  648MOL0     H89370   7.297   9.924   7.009 -0.7184  0.8589 -0.2562
  648MOL0     H89371   7.376  10.144   7.094 -4.7097  0.3868  0.3127
  648MOL0     H89372   7.351  10.102   7.252 -1.9465  5.9021 -3.3376
  648MOL0     H89373   7.559   9.926   7.364 -4.8587  3.9633 -0.7021
  648MOL0     H89374   7.820   9.795   7.366 -0.7702  3.3755  1.7149
  648MOL0     H89375   7.928   9.903   7.268 -0.4057 -0.8458  0.6499
  648MOL0     H89376   7.904   9.755   7.079 -2.5137  1.8854  0.3134
  648MOL0     H89377   7.951   9.658   7.212  0.9022 -1.4861 -3.8011
  648MOL0     H89378   7.697   9.585   7.245 -0.9301  0.2091 -0.4796
  648MOL0     H89379   7.651   9.683   7.114 -1.4335 -1.8613  2.5360
  648MOL0     H89380   7.797   9.545   6.957 -2.6566 -3.0497 -1.4533
  648MOL0     H89381   7.839   9.443   7.082 -2.6326 -3.2145  1.4621
  648MOL0     H89382   7.401   9.362   7.063  0.5178 -1.4895 -1.3890
  648MOL0     H89383   7.107   9.469   6.981  2.0333  1.1361  1.5950
  648MOL0     H89384   7.174   9.312   6.999  3.2870  1.8877  0.7273
  648MOL0     H89385   7.122   9.354   6.840  1.9029 -2.5663 -0.1791
  648MOL0     H89386   6.957   9.738   6.637 -0.7197 -2.6262  2.1892
  648MOL0     H89387   6.777   9.751   6.451  0.5103 -1.3554  2.8760
  648MOL0     H89388   6.910   9.520   6.143 -1.7862 -0.2946  0.5683
  648MOL0     H89389   6.751   9.509   6.064 -2.3241  0.5876  1.7174
  648MOL0     H89390   6.704   9.734   6.064  0.1391 -1.7324 -0.3365
  648MOL0     H89391   6.856   9.783   6.148  0.4930 -0.4436 -1.4463
  648MOL0     H89392   6.867   9.630   5.876  1.9666 -0.8040 -0.3081
  648MOL0     H89393   6.997   9.696   5.957 -0.7080 -2.0631 -0.6575
  648MOL0     H89394   6.939   9.859   5.778  0.8469  1.8582 -0.5987
  648MOL0     H89395   6.939   9.931   5.935  1.5380 -0.5808 -2.5362
  648MOL0     H89396   6.697   9.920   5.961 -1.8352  2.8116 -1.3979
  648MOL0     H89397   6.746  10.004   5.814  0.8032  0.8076 -0.4252
  648MOL0     H89398   6.658   9.706   5.833 -1.0133 -1.7820 -3.4157
  648MOL0     H89399   6.667   9.808   5.693  1.3695  2.5085 -0.3412
  648MOL0     H89400   6.451   9.782   5.740  1.0841 -1.4786  0.9290
  648MOL0     H89401   6.473   9.947   5.783 -2.0537 -0.7796 -0.9680
  648MOL0     H89402   6.493   9.847   6.033  3.1362 -1.7451 -1.0827
  648MOL0     H89403   6.437   9.695   5.958  1.1287 -0.6296 -2.9417
  648MOL0     H89404   6.847   9.343   6.347  0.1694 -0.1885  1.2544
  648MOL0     H89405   7.032   9.339   6.525  0.0234 -0.4879  1.8855
  648MOL0     H89406   7.474   9.686   6.714  0.6613 -1.1140 -0.0348
  648MOL0     H89407   7.639   9.645   6.845 -1.8883  1.3043 -2.4217
  648MOL0     H89408   7.102   9.485   7.966 -1.7427 -1.4422 -1.0410
  648MOL0     H89409   7.059   9.561   8.190 -0.0459 -0.1241  0.6281
  648MOL0     H89410   6.622   9.735   8.435 -2.2132  1.5111  0.7112
  648MOL0     H89411   6.578   9.767   8.675  2.9690 -3.0520 -1.3487
  648MOL0     H89412   6.502   9.978   8.811 -3.0567 -0.6937  1.9002
  648MOL0     H89413   6.534   9.845   8.926 -3.1194  0.2608 -2.8428
  648MOL0     H89414   6.479  10.077   9.034  0.8480  3.2241  1.9408
  648MOL0     H89415   6.620  10.133   8.959 -2.4363  0.1308 -2.4415
  648MOL0     H89416   6.662   9.890   9.123  1.1228 -0.2174  2.9091
  648MOL0     H89417   6.754  10.027   9.136  0.2565 -0.8649 -0.7403
  648MOL0     H89418   6.591   9.942   9.326 -2.0486  1.0490  1.3425
  648MOL0     H89419   6.462  10.020   9.239  0.2963  0.6128 -1.9598
  648MOL0     H89420   6.617  10.329   9.461  2.7536  2.1286 -1.3279
  648MOL0     H89421   6.912  10.025   8.706  1.6743  0.6073 -3.4608
  648MOL0     H89422   7.082   9.994   8.440  0.1773 -0.5325 -0.8620
  648MOL0     H89423   6.948  10.060   8.336 -4.4765  1.3953  1.1410
  648MOL0     H89424   6.994  10.129   8.499 -1.8992  1.2366 -2.0677
  649MOL0     O89425   5.411  10.325   6.199 -0.2256  0.0110  0.0578
  649MOL0     C89426   5.341  10.325   6.095 -0.7528 -0.0981  0.1234
  649MOL0     O89427   5.354  10.245   5.988 -0.3551  0.6237 -0.6956
  649MOL0     C89428   5.437  10.136   6.013  0.3545 -0.1832 -0.0701
  649MOL0     C89429   5.393  10.029   6.089 -0.0179  1.3363 -0.2751
  649MOL0     C89430   5.496   9.930   6.111 -0.6531  0.3168  1.4428
  649MOL0     C89431   5.634   9.940   6.075  1.0526 -0.8609 -1.1102
  649MOL0     O89432   5.738   9.859   6.112  0.0102  0.3368 -0.1182
  649MOL0     C89433   5.698   9.759   6.206 -0.2020 -0.0012  0.2967
  649MOL0     C89434   5.833   9.699   6.233 -0.7333  0.6124  0.2249
  649MOL0     C89435   5.944   9.801   6.272  0.6850 -0.9066  0.1592
  649MOL0     C89436   6.082   9.735   6.294  0.7204 -1.3043  0.4250
  649MOL0     C89437   6.194   9.848   6.292 -0.1874  0.0635 -0.3621
  649MOL0     C89438   6.328   9.781   6.306 -0.2758 -0.7864 -0.4115
  649MOL0     C89439   6.415   9.890   6.362 -0.5913 -0.3759 -0.0144
  649MOL0     C89440   6.562   9.843   6.352  0.1664 -0.3042 -0.9962
  649MOL0     N89441   6.646   9.965   6.364 -0.0999  0.5765 -0.1520
  649MOL0     C89442   6.672  10.042   6.468  0.0442 -0.7614 -0.3521
  649MOL0     C89443   6.743  10.140   6.412 -1.1111 -0.3113  0.5121
  649MOL0     C89444   6.820  10.244   6.480  0.0172 -0.0993 -0.6152
  649MOL0     C89445   6.777  10.378   6.442  0.2848 -0.0991 -0.0703
  649MOL0     C89446   6.679  10.466   6.534 -0.3167  0.3121  0.1502
  649MOL0     C89447   6.551  10.391   6.580  0.5625  0.0813 -0.1405
  649MOL0     O89448   6.490  10.328   6.472 -0.2175 -0.0635 -0.1612
  649MOL0     C89449   6.408  10.389   6.384  0.6225 -0.0980  0.5407
  649MOL0     C89450   6.366  10.526   6.391 -0.7776  0.4890  0.3500
  649MOL0     C89451   6.266  10.576   6.300 -0.5388 -0.0210  1.4678
  649MOL0     C89452   6.242  10.725   6.295  0.0747 -0.4855 -0.6046
  649MOL0     C89453   6.204  10.482   6.206 -0.4405 -0.4177 -0.5885
  649MOL0     C89454   6.101  10.523   6.108 -0.1443  0.4819  0.1561
  649MOL0     O89455   6.127  10.640   6.051  0.1618  0.6891  0.4584
  649MOL0     C89456   6.042  10.704   5.963  0.8195  0.5722  0.3813
  649MOL0     C89457   5.919  10.651   5.918  0.0775 -0.8767  0.0803
  649MOL0     C89458   5.850  10.721   5.825  0.0499 -0.8217  0.1802
  649MOL0     C89459   5.879  10.848   5.779  0.5273 -0.4657  0.2248
  649MOL0     O89460   5.802  10.924   5.695  0.6594 -0.5106  0.0823
  649MOL0     C89461   5.680  10.875   5.648 -0.4815  1.1676  0.3117
  649MOL0     C89462   5.625  10.973   5.544  0.5230  0.3281  0.3386
  649MOL0     C89463   5.724  11.026   5.443 -0.2641 -0.9280 -0.1467
  649MOL0     C89464   5.674  11.127   5.335  0.7101  0.4441  0.2204
  649MOL0     C89465   5.762  11.154   5.210 -0.5549  0.3408 -0.0748
  649MOL0     C89466   5.896  11.212   5.240 -0.1050 -0.6669 -0.1657
  649MOL0     C89467   5.900  11.369   5.258  0.3127  0.0275 -0.3848
  649MOL0     C89468   5.870  11.406   5.401  0.0919 -0.1009 -0.1247
  649MOL0    Cl89469   5.997  11.333   5.509 -0.1510  0.1743 -0.1054
  649MOL0     C89470   6.001  10.899   5.829  0.4244 -0.1431 -0.6499
  649MOL0     C89471   6.081  10.825   5.915 -0.4406  0.5131 -0.6327
  649MOL0     O89472   6.005  10.451   6.101 -0.5898 -0.0846  1.1389
  649MOL0     C89473   6.250  10.354   6.198 -0.3567 -0.1982 -0.5190
  649MOL0     C89474   6.356  10.309   6.280 -0.6071  0.5059  0.6053
  649MOL0     N89475   6.752  10.121   6.274 -0.5101 -0.2065 -0.4709
  649MOL0     N89476   6.701  10.019   6.244 -0.0623 -0.0038  0.6814
  649MOL0     C89477   5.664  10.062   6.011 -0.3881  0.2553 -0.2989
  649MOL0     C89478   5.566  10.151   5.973 -0.4915 -0.5394 -0.3129
  649MOL0     C89479   5.231  10.440   6.104 -0.2377  0.2344 -0.5775
  649MOL0     C89480   5.212  10.514   6.223  0.7114 -0.3203 -0.0720
  649MOL0     C89481   5.114  10.616   6.218  0.1877 -0.3324 -0.0778
  649MOL0     C89482   5.057  10.650   6.099  0.2836 -0.8589  0.2014
  649MOL0     O89483   4.986  10.773   6.093 -0.2652  0.7913  0.5908
  649MOL0     C89484   4.847  10.742   6.089  0.5605  0.0598  0.0743
  649MOL0     C89485   4.774  10.786   6.217  0.2708  0.5298 -0.1281
  649MOL0     C89486   4.626  10.841   6.180 -0.2514 -0.2860 -0.2584
  649MOL0     C89487   4.553  10.879   6.302 -0.3401  0.9261 -0.5241
  649MOL0     C89488   4.414  10.920   6.286 -0.9418 -0.4595  0.2657
  649MOL0     C89489   4.311  10.975   6.275  0.9156 -0.6092  0.0795
  649MOL0     C89490   5.080  10.573   5.987 -0.2259 -0.0830 -0.2733
  649MOL0     C89491   5.164  10.458   5.986  0.0754 -0.2790  0.0800
  649MOL0     C89492   5.155  10.379   5.866  0.2044 -1.0685 -0.2506
  649MOL0     H89493   5.293  10.012   6.127 -0.4788  0.2220 -1.8957
  649MOL0     H89494   5.474   9.841   6.169  4.1547 -2.4640 -0.4170
  649MOL0     H89495   5.624   9.689   6.166 -1.1497  0.3143  1.4466
  649MOL0     H89496   5.657   9.800   6.299  2.9724  0.3395  1.6734
  649MOL0     H89497   5.806   9.625   6.309  0.0147  1.2888  1.1803
  649MOL0     H89498   5.863   9.648   6.141  0.5652  2.6633 -0.5463
  649MOL0     H89499   5.959   9.868   6.187 -1.6305  1.2529  1.3385
  649MOL0     H89500   5.904   9.861   6.354  0.7016 -2.1851  1.1438
  649MOL0     H89501   6.094   9.694   6.395  2.6888  0.6111  1.0604
  649MOL0     H89502   6.105   9.661   6.217 -0.3144 -0.6678 -0.5294
  649MOL0     H89503   6.163   9.908   6.379 -3.2113  2.0524 -2.6068
  649MOL0     H89504   6.183   9.923   6.213  0.1722 -2.4774 -2.9396
  649MOL0     H89505   6.327   9.701   6.381  2.7277 -0.6796 -0.1099
  649MOL0     H89506   6.357   9.737   6.211  1.7255  1.2926 -0.8611
  649MOL0     H89507   6.384   9.922   6.462  0.4844  1.5500 -0.2629
  649MOL0     H89508   6.397   9.982   6.306 -1.6914  1.1132  2.6015
  649MOL0     H89509   6.577   9.789   6.446 -0.2204  2.6545  0.8924
  649MOL0     H89510   6.577   9.784   6.261  0.8419 -3.0085  0.7529
  649MOL0     H89511   6.650  10.027   6.573 -1.9678  1.8705 -0.2979
  649MOL0     H89512   6.926  10.235   6.454  0.2965 -1.4848  0.8594
  649MOL0     H89513   6.802  10.234   6.588 -0.2708 -0.2813 -0.6805
  649MOL0     H89514   6.851  10.450   6.405 -1.6517  1.6757 -0.7192
  649MOL0     H89515   6.715  10.365   6.352  1.4098  0.1509 -0.9056
  649MOL0     H89516   6.729  10.501   6.625 -0.7528  0.0113  0.5101
  649MOL0     H89517   6.652  10.551   6.472  0.8256  0.1364 -0.6195
  649MOL0     H89518   6.580  10.317   6.655 -1.1801  0.1076  0.6076
  649MOL0     H89519   6.486  10.463   6.630  1.9741  3.1081 -2.2963
  649MOL0     H89520   6.414  10.588   6.467  3.2118  0.4556 -1.8505
  649MOL0     H89521   6.275  10.768   6.200 -3.0640  3.7241 -0.0817
  649MOL0     H89522   6.286  10.773   6.383  1.0847 -0.5816 -1.0401
  649MOL0     H89523   6.134  10.735   6.300  0.1941  1.6885 -1.2405
  649MOL0     H89524   5.877  10.552   5.935 -1.5571 -0.2864 -0.3242
  649MOL0     H89525   5.761  10.672   5.785 -2.5590  0.9999  3.1961
  649MOL0     H89526   5.693  10.770   5.618  0.8943  1.5715 -0.5636
  649MOL0     H89527   5.602  10.869   5.725  0.1425  4.9608  1.4399
  649MOL0     H89528   5.542  10.922   5.495 -2.4587  3.9918  1.1410
  649MOL0     H89529   5.582  11.056   5.601 -0.1293  2.5628 -3.1303
  649MOL0     H89530   5.767  10.936   5.395 -1.7212 -0.6739 -2.0720
  649MOL0     H89531   5.806  11.076   5.494  0.3507 -3.7430  1.8956
  649MOL0     H89532   5.665  11.215   5.398  0.9256 -2.4065  4.7055
  649MOL0     H89533   5.575  11.093   5.300  0.0206  2.2699  0.3131
  649MOL0     H89534   5.780  11.062   5.153 -1.9477 -0.9979  1.5796
  649MOL0     H89535   5.700  11.226   5.155 -1.8777 -0.8461 -0.1848
  649MOL0     H89536   5.960  11.191   5.153 -2.1735  0.2293 -1.9910
  649MOL0     H89537   5.950  11.163   5.321  1.1045  2.3613  1.0151
  649MOL0     H89538   5.825  11.413   5.191 -0.3450  0.4403  0.5980
  649MOL0     H89539   5.998  11.410   5.234  0.3249  0.8322  0.9468
  649MOL0     H89540   5.773  11.366   5.432 -1.2252  1.6875 -1.7294
  649MOL0     H89541   5.850  11.513   5.406 -2.9522 -0.6362  1.2911
  649MOL0     H89542   6.038  10.990   5.784 -0.1730 -1.1574 -3.3810
  649MOL0     H89543   6.178  10.858   5.951  0.9757 -1.8518 -2.0075
  649MOL0     H89544   6.209  10.284   6.127  3.4448 -1.8909 -1.3142
  649MOL0     H89545   6.394  10.207   6.273  0.5782  0.8740  1.2654
  649MOL0     H89546   5.768  10.095   6.013 -0.5548  0.9111  2.5466
  649MOL0     H89547   5.610  10.237   5.923 -0.6119  0.4380  1.2134
  649MOL0     H89548   5.254  10.497   6.321  1.8405 -1.7109 -0.7697
  649MOL0     H89549   5.096  10.689   6.296 -2.0466 -1.2697  0.3604
  649MOL0     H89550   4.818  10.794   5.996  1.0434 -0.9609 -0.6638
  649MOL0     H89551   4.838  10.634   6.079 -0.9256 -0.0075  1.7103
  649MOL0     H89552   4.837  10.856   6.272 -0.1357  0.1166  0.8918
  649MOL0     H89553   4.771  10.697   6.281  0.5695  0.5963 -0.0185
  649MOL0     H89554   4.631  10.926   6.111  1.3991 -0.8396 -0.8625
  649MOL0     H89555   4.576  10.770   6.114  1.4180  0.8341 -2.8620
  649MOL0     H89556   4.602  10.970   6.338 -0.9863  1.4852 -1.0269
  649MOL0     H89557   4.544  10.795   6.371  1.5955 -0.2386 -1.6054
  649MOL0     H89558   4.219  11.030   6.284  1.2673 -0.2703  2.0218
  649MOL0     H89559   5.037  10.606   5.893 -0.8326 -1.9494 -0.6926
  649MOL0     H89560   5.077  10.418   5.800  1.0425  6.7520  2.3432
  649MOL0     H89561   5.249  10.383   5.810  1.0552  0.8216  1.1812
  649MOL0     H89562   5.136  10.278   5.902 -1.3270  0.1402  2.6792
  650MOL0     O89563   2.807   3.127   7.215  1.1052 -0.1255  0.0380
  650MOL0     C89564   2.864   3.206   7.286  0.4997  0.5687 -0.2438
  650MOL0     O89565   2.854   3.198   7.421  0.5547  0.3721  0.8004
  650MOL0     C89566   2.790   3.084   7.467  0.2946  0.1274 -0.3030
  650MOL0     C89567   2.819   2.955   7.437 -0.0788  0.1294  0.5358
  650MOL0     C89568   2.754   2.845   7.496  1.3604  0.4378 -0.1670
  650MOL0     C89569   2.657   2.870   7.593 -0.7023 -0.1410  0.0011
  650MOL0     O89570   2.596   2.786   7.674  0.3815  0.4185  0.2809
  650MOL0     C89571   2.630   2.648   7.675  0.0453 -0.2000 -0.8872
  650MOL0     C89572   2.541   2.561   7.577  0.2060 -0.3823  0.0585
  650MOL0     C89573   2.546   2.410   7.612 -0.3363 -0.2935  1.1009
  650MOL0     C89574   2.442   2.379   7.720 -0.0845  0.1604 -0.2639
  650MOL0     C89575   2.438   2.225   7.749  0.4766 -0.4843  0.2299
  650MOL0     C89576   2.321   2.194   7.845 -0.3833  0.2826 -0.8574
  650MOL0     C89577   2.313   2.041   7.846 -0.1174 -0.0180  1.0002
  650MOL0     C89578   2.211   2.000   7.953 -0.3992 -0.1023 -0.3585
  650MOL0     N89579   2.198   1.852   7.960  0.3342  0.3966  0.0510
  650MOL0     C89580   2.099   1.785   8.022 -0.0742  0.4040  1.2898
  650MOL0     C89581   2.115   1.651   7.997  0.9516  0.2217 -1.2552
  650MOL0     C89582   2.042   1.552   8.082  0.0646 -0.6925 -0.4791
  650MOL0     C89583   2.061   1.418   8.022  0.8742 -0.0176 -0.3934
  650MOL0     C89584   2.019   1.313   8.122 -0.1238 -0.1842  0.2849
  650MOL0     C89585   1.995   1.170   8.059 -0.5039  0.2558 -0.2679
  650MOL0     O89586   2.119   1.132   7.994 -0.3142  0.5122  0.2478
  650MOL0     C89587   2.115   1.020   7.916 -0.3010 -0.7092  0.5013
  650MOL0     C89588   2.234   0.982   7.844 -0.0604 -0.5464 -0.7346
  650MOL0     C89589   2.231   0.871   7.764  0.6231  0.7432 -0.0017
  650MOL0     C89590   2.352   0.837   7.687  1.1584 -0.4549  0.2747
  650MOL0     C89591   2.106   0.785   7.767 -0.2093 -0.3006  0.6903
  650MOL0     C89592   2.103   0.642   7.709 -0.0420  0.0695  0.1464
  650MOL0     O89593   1.996   0.603   7.630  0.8262 -0.1300 -0.1406
  650MOL0     C89594   1.984   0.465   7.618 -0.3409 -0.7878 -1.0054
  650MOL0     C89595   1.899   0.392   7.701 -0.7097 -0.0102 -0.3475
  650MOL0     C89596   1.887   0.249   7.680  0.5677  0.1481 -0.2589
  650MOL0     C89597   1.948   0.188   7.573  0.6230  1.3621 -0.0460
  650MOL0     O89598   1.914   0.061   7.526  0.2719 -0.3166 -0.2910
  650MOL0     C89599   1.886  -0.046   7.609 -0.3145  0.2181  0.2097
  650MOL0     C89600   2.015  -0.115   7.643 -0.1451 -0.4823  0.4389
  650MOL0     C89601   2.012  -0.262   7.605 -0.7715 -1.0655  0.9346
  650MOL0     C89602   1.906  -0.331   7.697 -0.4823 -0.1161 -0.0780
  650MOL0     C89603   1.813  -0.423   7.617 -0.5280 -0.0119 -0.0507
  650MOL0     C89604   1.729  -0.496   7.720 -0.8050 -0.2639  0.5401
  650MOL0     C89605   1.601  -0.549   7.655  0.6302  0.5849 -0.0765
  650MOL0     C89606   1.550  -0.690   7.695 -0.7949 -0.4006  0.2205
  650MOL0    Cl89607   1.441  -0.657   7.832  0.1089  0.1335  0.2787
  650MOL0     C89608   2.035   0.262   7.496  1.0860  0.1580  0.0803
  650MOL0     C89609   2.047   0.400   7.515 -0.1530 -0.0589 -0.5204
  650MOL0     O89610   2.195   0.566   7.737  0.3815 -0.5729 -0.2139
  650MOL0     C89611   1.993   0.833   7.828  0.3702 -0.5185 -0.0626
  650MOL0     C89612   1.998   0.949   7.898 -0.0749 -0.2574 -0.8070
  650MOL0     N89613   2.221   1.647   7.906  0.0934  0.3077 -0.4487
  650MOL0     N89614   2.274   1.762   7.896  0.3272 -0.1775  0.5369
  650MOL0     C89615   2.631   3.003   7.628  0.7214  0.2765  0.0738
  650MOL0     C89616   2.701   3.107   7.570 -0.5377  1.0245  0.3835
  650MOL0     C89617   2.945   3.316   7.212  0.8573  0.6278  0.1232
  650MOL0     C89618   3.053   3.282   7.122 -0.2202  0.0195  0.4670
  650MOL0     C89619   3.129   3.377   7.056 -0.6933 -0.7597 -0.0076
  650MOL0     C89620   3.106   3.519   7.070  0.5146 -0.0656  0.6431
  650MOL0     O89621   3.182   3.602   6.995 -0.5626  0.5282 -0.6869
  650MOL0     C89622   3.156   3.736   7.026  1.0933  0.1194  0.9881
  650MOL0     C89623   3.270   3.824   6.977  0.1897  0.2345 -0.4330
  650MOL0     C89624   3.273   3.856   6.821 -1.3221  0.4315 -0.2942
  650MOL0     C89625   3.215   3.985   6.783  0.3857 -0.5299  0.2870
  650MOL0     C89626   3.258   4.014   6.651 -0.1360 -1.6144 -0.3589
  650MOL0     C89627   3.301   4.051   6.540 -0.0322 -0.7332  0.9089
  650MOL0     C89628   2.991   3.549   7.149 -0.3312  0.4982  0.5484
  650MOL0     C89629   2.910   3.454   7.219  0.0480 -0.2740  0.6191
  650MOL0     C89630   2.788   3.499   7.289  0.0849 -0.7434 -0.2207
  650MOL0     H89631   2.909   2.941   7.379 -0.1993 -1.7590  0.7343
  650MOL0     H89632   2.783   2.741   7.492 -0.3662 -0.1544  1.3313
  650MOL0     H89633   2.602   2.599   7.768  0.4953  0.0243 -0.6312
  650MOL0     H89634   2.735   2.627   7.654  0.5880  0.1854  1.2929
  650MOL0     H89635   2.435   2.585   7.583 -0.0180 -0.9106 -1.5103
  650MOL0     H89636   2.573   2.579   7.474  2.3511  0.7031  0.8431
  650MOL0     H89637   2.532   2.343   7.526 -0.5891  0.0527  0.8721
  650MOL0     H89638   2.643   2.377   7.651 -1.2376 -5.0967 -0.0243
  650MOL0     H89639   2.467   2.433   7.813 -1.3553 -1.5928  1.1517
  650MOL0     H89640   2.347   2.420   7.687 -0.1664  0.3809  0.2283
  650MOL0     H89641   2.538   2.208   7.791  2.4253  0.8828 -3.3707
  650MOL0     H89642   2.422   2.179   7.651  3.0450  0.6703 -0.8315
  650MOL0     H89643   2.349   2.236   7.942  0.7107  1.1580 -1.5239
  650MOL0     H89644   2.224   2.237   7.821 -1.6239 -0.3296  2.5118
  650MOL0     H89645   2.409   1.998   7.877 -0.5113  0.3066  2.8415
  650MOL0     H89646   2.300   1.995   7.748 -1.5445  1.7121  0.3317
  650MOL0     H89647   2.234   2.049   8.048  1.4333 -0.5839 -0.5125
  650MOL0     H89648   2.116   2.046   7.927 -0.6254  1.2757  2.4995
  650MOL0     H89649   2.016   1.820   8.084 -3.3663  1.0234 -2.9918
  650MOL0     H89650   1.937   1.578   8.095  0.1908  1.4355 -2.9937
  650MOL0     H89651   2.089   1.547   8.181 -0.3580  0.3831 -0.2196
  650MOL0     H89652   1.985   1.415   7.943  0.8032 -2.3788 -0.3194
  650MOL0     H89653   2.162   1.389   7.990  2.1146  2.4780  0.9976
  650MOL0     H89654   2.098   1.297   8.196 -0.0278  0.2087  0.2672
  650MOL0     H89655   1.940   1.344   8.191  1.3025  0.1502  1.8550
  650MOL0     H89656   1.985   1.098   8.141 -0.2805  1.1613  0.5799
  650MOL0     H89657   1.913   1.176   7.988 -0.4084 -0.9815 -0.5080
  650MOL0     H89658   2.320   1.045   7.866 -1.0982  0.5562  0.3826
  650MOL0     H89659   2.320   0.777   7.602 -1.4354 -2.1372  2.2689
  650MOL0     H89660   2.429   0.781   7.741  2.9864  0.7308 -0.9962
  650MOL0     H89661   2.401   0.925   7.645  0.8289 -0.5269 -0.2627
  650MOL0     H89662   1.840   0.440   7.778  1.4138 -1.4309  2.3403
  650MOL0     H89663   1.822   0.193   7.746  1.6504 -0.0054  0.6975
  650MOL0     H89664   1.814  -0.025   7.689 -2.1886 -2.1726 -0.7448
  650MOL0     H89665   1.829  -0.109   7.541 -1.6401 -0.4696  1.8967
  650MOL0     H89666   2.099  -0.068   7.593 -0.2098 -0.7702  0.0536
  650MOL0     H89667   2.033  -0.098   7.750 -0.1116 -2.0285  0.7108
  650MOL0     H89668   2.111  -0.305   7.620 -0.4181 -1.1326 -1.2936
  650MOL0     H89669   1.991  -0.270   7.498 -1.2410  0.4484  0.8994
  650MOL0     H89670   1.862  -0.264   7.772 -1.0120 -0.8496  0.2859
  650MOL0     H89671   1.976  -0.398   7.749  2.3775  2.2491 -0.6279
  650MOL0     H89672   1.747  -0.363   7.554  1.4154  0.6695 -1.5115
  650MOL0     H89673   1.876  -0.492   7.560  2.8980  4.7129 -2.6650
  650MOL0     H89674   1.693  -0.429   7.799 -0.5863 -0.2069  0.5928
  650MOL0     H89675   1.786  -0.571   7.776 -0.7378  0.1190  0.9967
  650MOL0     H89676   1.620  -0.561   7.548 -1.1817 -1.5854 -0.2540
  650MOL0     H89677   1.518  -0.478   7.664  0.7752  0.9548 -1.5089
  650MOL0     H89678   1.630  -0.758   7.724  2.3796  2.5197 -1.0015
  650MOL0     H89679   1.501  -0.737   7.609  0.4073 -2.2997  0.5379
  650MOL0     H89680   2.088   0.214   7.415  1.2791  2.3146 -1.1419
  650MOL0     H89681   2.114   0.465   7.461 -0.4293  1.9626  1.4246
  650MOL0     H89682   1.904   0.771   7.820 -1.4676  2.0988 -1.6534
  650MOL0     H89683   1.896   0.969   7.930 -0.2603  0.0995 -1.5889
  650MOL0     H89684   2.538   3.021   7.682  1.2201 -1.5332  1.6913
  650MOL0     H89685   2.679   3.213   7.569  1.1416  1.4174 -1.5743
  650MOL0     H89686   3.076   3.176   7.112 -1.5377 -0.2441  0.0702
  650MOL0     H89687   3.212   3.352   6.990 -2.4909  1.0030 -3.1665
  650MOL0     H89688   3.065   3.774   6.978  1.1247  1.4664  1.9538
  650MOL0     H89689   3.140   3.748   7.133  4.1254 -1.6150  1.7368
  650MOL0     H89690   3.360   3.764   6.992  0.9931  1.2599 -0.9710
  650MOL0     H89691   3.263   3.913   7.040 -0.7825 -1.0392  1.3682
  650MOL0     H89692   3.377   3.829   6.798 -0.6488 -0.0816  2.8325
  650MOL0     H89693   3.223   3.775   6.768  1.0126 -1.7314  0.6091
  650MOL0     H89694   3.251   4.056   6.859 -1.3879 -1.3600  1.9778
  650MOL0     H89695   3.106   3.979   6.782  0.4197 -1.3138  0.9170
  650MOL0     H89696   3.327   4.100   6.448  1.4126 -2.7757  0.1563
  650MOL0     H89697   2.961   3.653   7.155  1.8755  1.1932  0.2427
  650MOL0     H89698   2.797   3.505   7.398 -2.1164  1.6874 -0.0551
  650MOL0     H89699   2.750   3.591   7.244 -0.4291 -1.6790 -1.7906
  650MOL0     H89700   2.705   3.430   7.267 -1.6006  1.0183  0.3203
  651MOL0     O89701   5.807   5.906  10.550 -0.4524  0.4165  0.2699
  651MOL0     C89702   5.918   5.946  10.584  0.0621  0.5411 -1.5504
  651MOL0     O89703   6.008   5.871  10.639  0.4524  0.1609  0.5750
  651MOL0     C89704   5.979   5.747  10.681 -0.8282 -0.2164 -0.4748
  651MOL0     C89705   6.055   5.636  10.653  0.5321 -0.6561  0.4807
  651MOL0     C89706   6.030   5.511  10.702  0.0036  0.4662  0.3282
  651MOL0     C89707   5.923   5.495  10.799  0.6961 -0.0865  0.0228
  651MOL0     O89708   5.883   5.372  10.850 -0.5103 -0.6170 -0.1912
  651MOL0     C89709   5.943   5.251  10.800 -0.3193 -0.5250  1.2172
  651MOL0     C89710   5.875   5.119  10.840 -1.1344 -0.5900 -0.9201
  651MOL0     C89711   5.739   5.113  10.759  0.5871  0.8220 -0.0331
  651MOL0     C89712   5.674   4.975  10.776 -0.4588  1.1316 -0.6102
  651MOL0     C89713   5.554   4.943  10.687 -0.2717 -0.6232  0.0650
  651MOL0     C89714   5.496   4.802  10.724  0.1287  0.2502  0.3713
  651MOL0     C89715   5.350   4.778  10.681  0.2560  1.5715 -0.6543
  651MOL0     C89716   5.303   4.628  10.705 -0.2676 -0.2786 -0.5661
  651MOL0     N89717   5.163   4.603  10.681  0.4001 -0.1233  0.2405
  651MOL0     C89718   5.079   4.554  10.778 -0.1537 -0.8319  0.1929
  651MOL0     C89719   4.958   4.553  10.712  0.2966  0.3288 -0.1639
  651MOL0     C89720   4.819   4.514  10.763  1.0015 -0.2904  0.3145
  651MOL0     C89721   4.747   4.643  10.813 -0.5916  0.3686 -0.0190
  651MOL0     C89722   4.630   4.676  10.717 -0.3937  0.1690 -0.4093
  651MOL0     C89723   4.520   4.749  10.777  0.9059  0.3089 -1.0810
  651MOL0     O89724   4.418   4.769  10.675  0.2294  0.1460  0.4138
  651MOL0     C89725   4.336   4.874  10.693  0.4435 -0.3386  0.0431
  651MOL0     C89726   4.257   4.901  10.581  0.1302  0.2963  0.6206
  651MOL0     C89727   4.161   5.003  10.573 -0.4120  0.2284 -0.2452
  651MOL0     C89728   4.083   5.022  10.449 -0.2859 -0.8153 -0.0728
  651MOL0     C89729   4.147   5.085  10.682  0.0183 -0.5911 -0.1743
  651MOL0     C89730   4.046   5.193  10.680 -0.1333  0.2828  0.1293
  651MOL0     O89731   3.908   5.165  10.675 -0.2279 -0.8454 -0.7168
  651MOL0     C89732   3.824   5.241  10.753  0.5872 -0.0095  0.3971
  651MOL0     C89733   3.856   5.298  10.878  0.2332 -0.9428  0.1622
  651MOL0     C89734   3.756   5.358  10.955  0.3842  0.7631  0.8559
  651MOL0     C89735   3.622   5.361  10.905 -0.2302  0.3439 -0.2325
  651MOL0     O89736   3.517   5.414  10.977  0.1441 -0.6719 -0.0376
  651MOL0     C89737   3.529   5.534  11.065 -0.2001 -0.9663  0.7868
  651MOL0     C89738   3.544   5.671  11.002  0.5418  0.1946  0.7737
  651MOL0     C89739   3.431   5.775  11.014  0.1562 -0.2042 -0.2650
  651MOL0     C89740   3.308   5.751  10.930 -0.7540 -0.0271 -0.1869
  651MOL0     C89741   3.185   5.814  10.992  0.0424  0.2393  0.8762
  651MOL0     C89742   3.158   5.962  11.002  0.5715 -0.8758  0.4657
  651MOL0     C89743   3.040   6.002  11.096  0.4629  0.0374  0.7097
  651MOL0     C89744   3.033   6.149  11.111 -0.4733 -0.0302  0.2951
  651MOL0    Cl89745   2.959   6.206  10.964 -0.3361 -0.5551  0.3298
  651MOL0     C89746   3.592   5.299  10.782 -0.6980 -0.3060  0.3469
  651MOL0     C89747   3.691   5.244  10.707 -0.1653 -0.7196  0.1982
  651MOL0     O89748   4.095   5.306  10.690 -0.2624  0.2574 -0.3919
  651MOL0     C89749   4.213   5.052  10.801 -0.0288  0.7183 -0.5406
  651MOL0     C89750   4.305   4.943  10.807  0.4784 -1.1642  0.7568
  651MOL0     N89751   4.975   4.589  10.577 -0.1871  0.0645  0.2123
  651MOL0     N89752   5.097   4.622  10.560  0.0225  0.1060 -1.0590
  651MOL0     C89753   5.851   5.610  10.837  0.0113  1.0729 -0.1228
  651MOL0     C89754   5.878   5.728  10.776  0.2901  0.3130 -0.0972
  651MOL0     C89755   5.954   6.086  10.556 -0.3027 -0.8348 -0.2865
  651MOL0     C89756   5.884   6.155  10.451 -0.2256 -1.3254  0.5677
  651MOL0     C89757   5.926   6.280  10.404 -0.0620  0.4104 -0.4727
  651MOL0     C89758   6.025   6.355  10.469  0.2845  0.3223 -0.7576
  651MOL0     O89759   6.088   6.475  10.425 -0.0965  0.2364  0.7159
  651MOL0     C89760   6.031   6.535  10.306  0.1153 -0.1740  0.3265
  651MOL0     C89761   5.957   6.667  10.360  0.7405 -0.6618  1.0666
  651MOL0     C89762   5.948   6.785  10.256  0.6852  0.9530 -0.0070
  651MOL0     C89763   5.909   6.909  10.325  0.3728  0.0536  0.1774
  651MOL0     C89764   5.781   6.898  10.402 -0.2985  0.0191 -0.5807
  651MOL0     C89765   5.664   6.899  10.450 -0.2321  0.5651  0.5214
  651MOL0     C89766   6.092   6.287  10.572  0.4833 -0.5728 -0.2592
  651MOL0     C89767   6.062   6.154  10.608  0.1227  0.4680  0.3270
  651MOL0     C89768   6.175   6.093  10.702  0.7943 -0.1337  0.8334
  651MOL0     H89769   6.133   5.661  10.582  3.0117 -0.0027  3.2252
  651MOL0     H89770   6.078   5.426  10.655  0.2119  0.0013  1.3398
  651MOL0     H89771   6.046   5.249  10.838  0.6370 -0.8211 -1.2213
  651MOL0     H89772   5.952   5.251  10.691  0.9628  3.0508  1.1831
  651MOL0     H89773   5.946   5.041  10.811  2.9715  2.9656 -1.5249
  651MOL0     H89774   5.861   5.105  10.947  2.2299  0.1131 -0.2786
  651MOL0     H89775   5.662   5.183  10.793 -0.6806 -0.3937 -0.2854
  651MOL0     H89776   5.752   5.133  10.653 -0.1510 -1.5144 -0.6320
  651MOL0     H89777   5.737   4.887  10.762  0.0654  1.3396  0.3385
  651MOL0     H89778   5.638   4.972  10.880 -1.9516 -2.4104 -1.0843
  651MOL0     H89779   5.577   4.946  10.580 -1.7134 -0.7857 -0.2703
  651MOL0     H89780   5.474   5.015  10.710  0.7323  0.7547 -0.5955
  651MOL0     H89781   5.566   4.723  10.691 -1.9975 -1.2827 -0.7047
  651MOL0     H89782   5.504   4.794  10.832 -1.3766  0.1073  0.4898
  651MOL0     H89783   5.314   4.812  10.584 -0.7978 -1.2931 -1.3592
  651MOL0     H89784   5.289   4.832  10.755 -2.2747  0.1697 -1.5948
  651MOL0     H89785   5.366   4.569  10.638  1.2495  1.2545 -0.5677
  651MOL0     H89786   5.336   4.595  10.804  1.3339 -1.4591 -1.4495
  651MOL0     H89787   5.094   4.537  10.884 -0.6208  1.1993  0.6306
  651MOL0     H89788   4.833   4.444  10.845 -4.0315  2.0742  3.6934
  651MOL0     H89789   4.764   4.457  10.687  1.5055  0.3165 -0.5247
  651MOL0     H89790   4.714   4.624  10.915  1.1928  0.6356  0.6551
  651MOL0     H89791   4.817   4.727  10.822 -0.1529 -0.0740  0.8630
  651MOL0     H89792   4.662   4.729  10.627  2.8047 -0.8210  0.0292
  651MOL0     H89793   4.583   4.582  10.686 -0.7729 -0.4898  1.9579
  651MOL0     H89794   4.470   4.697  10.859 -1.5494  1.7283 -1.5454
  651MOL0     H89795   4.553   4.846  10.815 -1.2034  1.4874 -2.0366
  651MOL0     H89796   4.258   4.824  10.504  0.1441 -1.6263  2.4803
  651MOL0     H89797   4.080   4.937  10.379  1.1957  2.6317 -4.8899
  651MOL0     H89798   4.117   5.101  10.381 -0.5387 -2.7208 -2.5876
  651MOL0     H89799   3.978   5.032  10.477  0.4791  0.7610  2.5175
  651MOL0     H89800   3.950   5.303  10.932 -0.1597  2.0043  0.7477
  651MOL0     H89801   3.782   5.397  11.053  3.0376 -0.8787  0.9183
  651MOL0     H89802   3.437   5.540  11.124 -0.1585 -0.4938  0.8038
  651MOL0     H89803   3.601   5.510  11.144 -0.7710 -4.9045  0.3319
  651MOL0     H89804   3.640   5.716  11.029  2.0105 -0.3585 -2.9541
  651MOL0     H89805   3.556   5.649  10.896  0.1121 -0.1764  0.7947
  651MOL0     H89806   3.475   5.871  10.985  0.9249  0.3709  2.4703
  651MOL0     H89807   3.418   5.788  11.122  4.1993 -1.3827  0.5318
  651MOL0     H89808   3.301   5.643  10.915  1.1849 -0.4936  1.8077
  651MOL0     H89809   3.323   5.793  10.830 -0.4473  0.2052 -0.0446
  651MOL0     H89810   3.104   5.772  10.931  1.7466  0.5607 -1.7097
  651MOL0     H89811   3.177   5.764  11.090 -0.1120 -0.5794  0.4605
  651MOL0     H89812   3.130   5.997  10.902 -1.6232  1.7615  1.8778
  651MOL0     H89813   3.251   6.006  11.037 -0.2219  0.4281  1.0094
  651MOL0     H89814   3.049   5.956  11.195 -4.6682 -3.9874 -0.1913
  651MOL0     H89815   2.940   5.978  11.059 -0.2617  2.4584  0.9311
  651MOL0     H89816   3.134   6.185  11.126 -0.4617 -0.7323  2.1150
  651MOL0     H89817   2.963   6.181  11.189  0.0333  0.5940  0.4970
  651MOL0     H89818   3.488   5.296  10.753 -0.0718 -3.6708 -2.2027
  651MOL0     H89819   3.660   5.206  10.610 -1.0662 -1.0423  0.5997
  651MOL0     H89820   4.189   5.110  10.890 -0.7768  1.0676 -0.9620
  651MOL0     H89821   4.357   4.928  10.901  1.3154 -1.6975  0.2233
  651MOL0     H89822   5.759   5.602  10.894  0.8344  3.1290  1.6283
  651MOL0     H89823   5.833   5.819  10.815  2.3309  1.1843  0.3405
  651MOL0     H89824   5.801   6.121  10.390  0.2105  1.2009 -1.6588
  651MOL0     H89825   5.860   6.301  10.320  0.4551 -3.2874 -1.9959
  651MOL0     H89826   6.117   6.561  10.244  0.1036  1.3691  0.8941
  651MOL0     H89827   5.957   6.478  10.248 -3.0059  3.6603  0.0214
  651MOL0     H89828   6.015   6.708  10.444  2.8016 -1.8943  0.3051
  651MOL0     H89829   5.858   6.631  10.390  1.0962 -1.0840  1.7760
  651MOL0     H89830   6.052   6.797  10.225  1.6003 -2.3359  1.3175
  651MOL0     H89831   5.880   6.763  10.173 -1.7933 -1.3453  2.4275
  651MOL0     H89832   5.902   6.988  10.250  1.4392  0.6143  0.6385
  651MOL0     H89833   5.981   6.941  10.401 -1.5406  2.5225  1.0660
  651MOL0     H89834   5.564   6.919  10.482 -0.8119 -1.8608  0.4767
  651MOL0     H89835   6.173   6.347  10.612 -2.1428  3.9215 -0.9573
  651MOL0     H89836   6.230   6.017  10.646 -1.5629  0.1333 -2.0652
  651MOL0     H89837   6.240   6.173  10.739  0.2259  1.1398 -0.7995
  651MOL0     H89838   6.126   6.042  10.785  0.4693 -0.8773  0.1948
  652MOL0     O89839   8.057   7.252  10.911  0.0434 -0.0447 -0.3776
  652MOL0     C89840   8.150   7.246  10.987  0.0989  0.7729 -0.1232
  652MOL0     O89841   8.213   7.125  11.015  0.6741 -0.0845 -0.0386
  652MOL0     C89842   8.161   7.018  10.950 -0.3039  0.0372 -0.2318
  652MOL0     C89843   8.108   6.914  11.030  0.7973  0.0759  1.3206
  652MOL0     C89844   8.090   6.789  10.968  0.1809 -0.2530  0.6824
  652MOL0     C89845   8.125   6.763  10.832  0.2331 -1.5469  0.2449
  652MOL0     O89846   8.118   6.633  10.773  0.2470 -0.4290 -0.0176
  652MOL0     C89847   8.016   6.548  10.822  0.0029  0.2235 -0.1805
  652MOL0     C89848   8.069   6.444  10.929  0.0609 -0.6362  0.0981
  652MOL0     C89849   8.115   6.317  10.858 -0.3165  0.2990 -0.7100
  652MOL0     C89850   8.201   6.223  10.948 -0.5668 -0.0855 -0.1380
  652MOL0     C89851   8.206   6.093  10.888  0.1063 -0.3307  0.2126
  652MOL0     C89852   8.266   5.977  10.967  0.0917  0.3081 -0.4173
  652MOL0     C89853   8.251   5.848  10.901  0.8181  0.1792 -0.2923
  652MOL0     C89854   8.335   5.737  10.973  0.7141  0.3879  0.1029
  652MOL0     N89855   8.482   5.743  10.971 -0.5433 -0.2645 -0.8521
  652MOL0     C89856   8.554   5.777  10.858 -0.1435  0.0830 -0.4655
  652MOL0     C89857   8.683   5.774  10.891 -0.7304  0.5687 -0.2036
  652MOL0     C89858   8.792   5.806  10.792 -0.9747  0.1912 -0.0439
  652MOL0     C89859   8.834   5.953  10.765 -0.2138 -0.1996  0.1610
  652MOL0     C89860   8.891   6.033  10.888  0.0923 -0.1237 -1.1609
  652MOL0     C89861   8.990   6.137  10.842 -0.1726  0.1627  0.4624
  652MOL0     O89862   8.920   6.226  10.751  0.4022  0.3409 -0.6610
  652MOL0     C89863   8.974   6.347  10.724  0.6067  0.3923  0.0172
  652MOL0     C89864   8.925   6.424  10.612 -0.0368 -0.2154 -0.1698
  652MOL0     C89865   8.978   6.559  10.591  0.3902  0.2881  0.5138
  652MOL0     C89866   8.917   6.641  10.481  0.4812  0.1272 -0.2897
  652MOL0     C89867   9.089   6.599  10.669  0.0828 -0.2624  0.7387
  652MOL0     C89868   9.161   6.723  10.641 -0.0273 -0.4874  0.1800
  652MOL0     O89869   9.206   6.791  10.755 -0.6129  0.3230  0.6983
  652MOL0     C89870   9.327   6.860  10.756 -0.1536  0.2371  0.3181
  652MOL0     C89871   9.341   6.960  10.851 -0.4960  1.5273  0.6034
  652MOL0     C89872   9.450   7.051  10.843 -0.0693 -0.4973 -0.3683
  652MOL0     C89873   9.551   7.041  10.755 -0.6440  0.1017  0.3626
  652MOL0     O89874   9.658   7.122  10.735  0.2362 -0.2667  0.0899
  652MOL0     C89875   9.686   7.215  10.847  0.7019  0.6960 -0.8203
  652MOL0     C89876   9.830   7.272  10.839  0.9990  0.0199  0.2720
  652MOL0     C89877   9.838   7.391  10.743 -0.3165  0.4539 -0.3605
  652MOL0     C89878   9.977   7.464  10.769  0.3861  0.3338 -0.0263
  652MOL0     C89879   9.980   7.608  10.729  0.2655  0.0472 -0.4140
  652MOL0     C89880   9.990   7.635  10.580 -0.3000  0.6577  0.8426
  652MOL0     C89881   9.954   7.773  10.525 -0.7811 -0.0851 -0.4248
  652MOL0     C89882  10.033   7.899  10.570  0.6533  0.3341  0.2536
  652MOL0    Cl89883  10.037   7.913  10.752 -0.3184 -0.0380 -0.0717
  652MOL0     C89884   9.528   6.937  10.653  0.2344  0.6698 -0.0141
  652MOL0     C89885   9.429   6.846  10.661 -0.2231 -0.0298  0.0454
  652MOL0     O89886   9.181   6.751  10.518  0.5267 -0.0288 -0.5112
  652MOL0     C89887   9.132   6.523  10.774 -0.9072  0.4893 -0.7023
  652MOL0     C89888   9.080   6.404  10.801  0.5401 -0.0001  0.9529
  652MOL0     N89889   8.690   5.745  11.032  0.2177 -0.0534  1.1840
  652MOL0     N89890   8.570   5.725  11.078  0.2288 -0.0787  0.4241
  652MOL0     C89891   8.189   6.870  10.757  0.4452 -0.1533 -0.7468
  652MOL0     C89892   8.204   7.000  10.818  0.2416 -0.6976 -0.8398
  652MOL0     C89893   8.189   7.366  11.059 -0.5051  0.3274 -0.7827
  652MOL0     C89894   8.298   7.352  11.155 -0.2461 -0.7285  0.6815
  652MOL0     C89895   8.335   7.452  11.245  0.4953 -0.0415 -0.3682
  652MOL0     C89896   8.278   7.575  11.231  0.7597 -0.5928  0.6015
  652MOL0     O89897   8.331   7.668  11.320  0.0254 -0.8861 -0.0409
  652MOL0     C89898   8.286   7.801  11.343  0.5617 -0.4299 -0.3069
  652MOL0     C89899   8.141   7.818  11.395  0.8881 -0.2218  0.8077
  652MOL0     C89900   8.124   7.823  11.545 -0.2578  0.1847 -0.5331
  652MOL0     C89901   7.981   7.808  11.590 -0.2944 -0.3226  0.2043
  652MOL0     C89902   7.902   7.929  11.548 -0.6461 -0.1116  0.1252
  652MOL0     C89903   7.838   8.023  11.512 -0.5771  0.3410 -0.2672
  652MOL0     C89904   8.172   7.594  11.135 -0.4149 -1.0013  0.2879
  652MOL0     C89905   8.120   7.488  11.055  0.0710 -0.4361  0.3588
  652MOL0     C89906   7.997   7.510  10.981  1.2625  1.0712 -0.3681
  652MOL0     H89907   8.081   6.939  11.132  0.5974  1.4308  0.9542
  652MOL0     H89908   8.036   6.718  11.031 -0.5835 -0.2180  0.0836
  652MOL0     H89909   7.970   6.486  10.745 -0.9809  3.6055 -2.5761
  652MOL0     H89910   7.934   6.610  10.860 -0.0998 -0.0150 -0.0138
  652MOL0     H89911   8.152   6.473  10.994  1.8328 -1.6415 -1.6037
  652MOL0     H89912   7.981   6.414  10.988 -0.5927  1.6707  0.3984
  652MOL0     H89913   8.032   6.262  10.811  0.3708  0.8024 -2.6150
  652MOL0     H89914   8.169   6.345  10.767  1.2236 -0.7662 -0.1597
  652MOL0     H89915   8.296   6.264  10.984  0.3742 -1.4197 -0.9852
  652MOL0     H89916   8.143   6.223  11.041 -2.2850  0.5461 -1.1578
  652MOL0     H89917   8.258   6.092  10.792 -0.3160  1.6244 -0.0700
  652MOL0     H89918   8.103   6.057  10.886 -0.0304 -0.0078  0.9617
  652MOL0     H89919   8.370   6.003  10.985 -0.6124  2.0851  1.4836
  652MOL0     H89920   8.226   5.957  11.067  1.1093  0.4625  0.0263
  652MOL0     H89921   8.283   5.861  10.797  1.1637 -0.3066 -0.2516
  652MOL0     H89922   8.146   5.819  10.910 -0.3416  3.7598 -0.4237
  652MOL0     H89923   8.291   5.735  11.073  0.5351  1.2272  0.0441
  652MOL0     H89924   8.319   5.638  10.929  0.1738  0.6698 -0.3366
  652MOL0     H89925   8.495   5.819  10.778 -2.6372  3.4129  2.7663
  652MOL0     H89926   8.765   5.766  10.694  1.9741 -1.0880 -0.4374
  652MOL0     H89927   8.886   5.754  10.815 -0.7108  1.6281  2.5153
  652MOL0     H89928   8.903   5.945  10.681 -0.6317 -1.9710 -0.0645
  652MOL0     H89929   8.744   6.005  10.729  0.9443  0.1442 -2.5208
  652MOL0     H89930   8.813   6.080  10.950 -1.0284 -1.7806 -1.2551
  652MOL0     H89931   8.930   5.953  10.951 -0.3794 -1.9327 -3.0873
  652MOL0     H89932   9.029   6.188  10.930 -0.9565  1.2838  0.1803
  652MOL0     H89933   9.074   6.095  10.787 -1.0691 -0.3698 -0.5459
  652MOL0     H89934   8.837   6.382  10.564  1.5662 -0.3664 -3.2342
  652MOL0     H89935   8.985   6.694  10.415  0.6856 -0.9098 -0.9313
  652MOL0     H89936   8.853   6.717  10.527  1.7428 -0.0558  1.9203
  652MOL0     H89937   8.867   6.577  10.407  2.9675  0.2769 -2.2123
  652MOL0     H89938   9.265   6.975  10.927 -1.6747 -3.3981  0.7208
  652MOL0     H89939   9.460   7.134  10.912  2.3119  1.9689 -3.3562
  652MOL0     H89940   9.617   7.299  10.845 -0.3340 -0.1288 -0.6397
  652MOL0     H89941   9.670   7.164  10.943 -3.0486  0.1788 -1.5687
  652MOL0     H89942   9.835   7.310  10.941  1.8563  0.7019 -0.0123
  652MOL0     H89943   9.911   7.199  10.828  4.4723  2.7196  4.4800
  652MOL0     H89944   9.761   7.467  10.759  0.6030  2.0659 -2.8930
  652MOL0     H89945   9.841   7.359  10.638  1.1438  2.0245 -0.8555
  652MOL0     H89946  10.051   7.405  10.715 -0.3275 -2.5510  1.9385
  652MOL0     H89947  10.007   7.460  10.875  0.4311 -2.7259 -0.0833
  652MOL0     H89948   9.892   7.656  10.771  0.3920 -0.3271  0.2873
  652MOL0     H89949  10.068   7.654  10.775  0.5844 -2.4865  1.6879
  652MOL0     H89950   9.929   7.566  10.521  1.8495  0.3143 -1.1663
  652MOL0     H89951  10.093   7.625  10.544 -1.1352  0.5934 -1.7135
  652MOL0     H89952   9.849   7.792  10.546 -0.8907  0.2598 -1.2366
  652MOL0     H89953   9.962   7.768  10.416  0.6424 -0.7206 -0.3174
  652MOL0     H89954   9.982   7.987  10.530 -0.3972  0.0989  1.0033
  652MOL0     H89955  10.136   7.886  10.538  0.7631 -2.2411  1.3910
  652MOL0     H89956   9.604   6.921  10.577 -0.8187  1.9620 -1.3996
  652MOL0     H89957   9.413   6.765  10.590 -0.9613 -1.8235  2.1587
  652MOL0     H89958   9.208   6.563  10.840  1.9714 -1.2323 -2.7380
  652MOL0     H89959   9.132   6.350  10.879  2.1633 -0.4532 -0.3836
  652MOL0     H89960   8.213   6.853  10.652  1.1150 -0.3696 -0.5649
  652MOL0     H89961   8.247   7.077  10.755  0.2038 -1.7249 -2.1578
  652MOL0     H89962   8.357   7.261  11.160 -0.5266 -0.9767 -0.1883
  652MOL0     H89963   8.421   7.441  11.311  1.6423  2.6364 -1.2664
  652MOL0     H89964   8.349   7.836  11.426  0.1303 -0.7676  0.1629
  652MOL0     H89965   8.299   7.858  11.251 -1.6292 -0.3258 -0.5862
  652MOL0     H89966   8.074   7.736  11.369  1.7020 -0.4191 -0.8066
  652MOL0     H89967   8.114   7.919  11.364 -1.2869 -0.6360  1.2165
  652MOL0     H89968   8.175   7.747  11.604 -0.5509  1.7212  1.7957
  652MOL0     H89969   8.168   7.919  11.572 -2.2080  1.1697 -0.6604
  652MOL0     H89970   7.988   7.828  11.698 -0.0554  4.4486 -0.4589
  652MOL0     H89971   7.938   7.716  11.550 -0.6833  0.2087 -0.6348
  652MOL0     H89972   7.776   8.104  11.480  0.3591 -0.1801 -3.7581
  652MOL0     H89973   8.139   7.696  11.121  1.5124 -0.0530  2.1607
  652MOL0     H89974   8.013   7.527  10.874 -0.4632  1.5355 -0.5718
  652MOL0     H89975   7.928   7.426  10.987  2.0796  0.5033  2.1529
  652MOL0     H89976   7.951   7.598  11.025  0.2843  0.9999 -1.2115
  653MOL0     O89977   9.611  11.200   0.233  0.0954  0.5536  0.4511
  653MOL0     C89978   9.679  11.147   0.152 -0.3359  0.1841 -0.6941
  653MOL0     O89979   9.811  11.119   0.177  0.4005 -0.3669 -0.7392
  653MOL0     C89980   9.883  11.196   0.272  0.0213 -0.3904  0.8711
  653MOL0     C89981   9.983  11.277   0.226 -0.8232 -1.0194 -0.0282
  653MOL0     C89982  10.061  11.338   0.328 -0.0810  0.6519 -0.3853
  653MOL0     C89983  10.026  11.333   0.458 -0.0314 -0.2663  0.2869
  653MOL0     O89984  10.108  11.397   0.553  0.7158  0.3775  0.5942
  653MOL0     C89985  10.146  11.327   0.671  0.1541  0.5768 -0.1100
  653MOL0     C89986  10.190  11.431   0.773  0.0231  0.9404 -0.0616
  653MOL0     C89987  10.280  11.373   0.879 -1.0942 -0.4310 -0.1156
  653MOL0     C89988  10.226  11.265   0.964  0.3598 -0.3573  0.1955
  653MOL0     C89989  10.308  11.137   0.945  0.8730  1.0591  0.1776
  653MOL0     C89990  10.274  11.009   1.022 -0.7445  0.4945  1.3059
  653MOL0     C89991  10.323  11.006   1.172  0.8596  0.0071 -0.1815
  653MOL0     C89992  10.481  10.990   1.182 -0.5488 -0.6202  0.3341
  653MOL0     N89993  10.540  10.879   1.113  0.2785 -0.4135 -0.2959
  653MOL0     C89994  10.637  10.896   1.026 -0.5468 -0.3630  1.8649
  653MOL0     C89995  10.677  10.763   1.001  0.1252  0.0627  0.5736
  653MOL0     C89996  10.782  10.725   0.899  0.7331  0.3634 -0.4235
  653MOL0     C89997  10.852  10.590   0.938 -0.4157 -0.1726  0.3509
  653MOL0     C89998  10.981  10.578   0.852 -0.7081 -0.6130  0.0299
  653MOL0     C89999  10.949  10.505   0.720 -0.8899 -0.3629 -0.1771
  653MOL0     O90000  11.078  10.484   0.669 -0.1780 -0.2544  0.6746
  653MOL0     C90001  11.083  10.447   0.530  1.1711 -0.9460  0.0851
  653MOL0     C90002  11.205  10.418   0.486 -0.6890 -0.6872 -1.2475
  653MOL0     C90003  11.234  10.352   0.366  0.1388 -1.0189  0.2507
  653MOL0     C90004  11.374  10.311   0.334 -0.3454 -0.0319 -0.7823
  653MOL0     C90005  11.115  10.329   0.284  0.1352  0.0484  0.4111
  653MOL0     C90006  11.122  10.277   0.153 -0.3385 -0.0624 -0.2087
  653MOL0     O90007  11.239  10.284   0.083  1.3096  0.9249  0.5793
  653MOL0     C90008  11.270  10.196  -0.009 -0.7399  1.2678  0.6245
  653MOL0     C90009  11.397  10.214  -0.078  0.9439  0.0663  0.1121
  653MOL0     C90010  11.441  10.119  -0.180 -0.3219  0.4681  0.2115
  653MOL0     C90011  11.365  10.006  -0.214 -0.1861  0.1496 -0.3877
  653MOL0     O90012  11.417   9.933  -0.320  0.4511 -0.5082 -0.5423
  653MOL0     C90013  11.350   9.931  -0.439 -0.2458 -0.3504 -0.5472
  653MOL0     C90014  11.334   9.788  -0.494 -0.7014 -1.6893 -0.5209
  653MOL0     C90015  11.298   9.812  -0.644  0.6625  0.9017 -0.3023
  653MOL0     C90016  11.164   9.891  -0.666  0.1108 -0.5747  0.3765
  653MOL0     C90017  11.096   9.880  -0.806  0.7136 -0.3985 -0.2915
  653MOL0     C90018  11.181   9.877  -0.928  0.2145 -1.1161 -1.1855
  653MOL0     C90019  11.166   9.759  -1.014 -0.8550  0.1025  0.5342
  653MOL0     C90020  11.267   9.754  -1.129 -0.1031  0.5711 -0.6477
  653MOL0    Cl90021  11.432   9.718  -1.069 -0.1711 -0.0614  0.2441
  653MOL0     C90022  11.246   9.980  -0.136  0.5507  0.4539 -0.3051
  653MOL0     C90023  11.208  10.069  -0.033 -0.0783  0.1685  1.4522
  653MOL0     O90024  11.025  10.221   0.105  0.5500 -0.5522  0.0256
  653MOL0     C90025  10.987  10.373   0.329 -0.6915  0.2702  0.3987
  653MOL0     C90026  10.969  10.434   0.449 -0.7219 -0.3776 -0.0386
  653MOL0     N90027  10.604  10.675   1.081 -0.9895  0.0245  0.1642
  653MOL0     N90028  10.522  10.751   1.143 -1.1786 -0.2522  0.5203
  653MOL0     C90029   9.920  11.254   0.501 -0.0892 -0.6278  0.8257
  653MOL0     C90030   9.852  11.184   0.411  0.8921  0.9963  0.4381
  653MOL0     C90031   9.598  11.067   0.054 -0.2894 -0.9356  0.8968
  653MOL0     C90032   9.654  10.953   0.003 -0.3612  0.1809  0.2690
  653MOL0     C90033   9.590  10.867  -0.086 -0.7720 -0.1402  0.2312
  653MOL0     C90034   9.458  10.896  -0.118  0.2463 -0.0819 -0.7032
  653MOL0     O90035   9.399  10.782  -0.185  0.2397  0.7617 -0.9697
  653MOL0     C90036   9.256  10.792  -0.219  0.4440 -0.0264 -0.2301
  653MOL0     C90037   9.204  10.669  -0.293  0.3827 -1.0715  0.3182
  653MOL0     C90038   9.287  10.632  -0.422  0.7693  0.0531 -0.0020
  653MOL0     C90039   9.324  10.739  -0.526  0.8734 -0.6801  0.1582
  653MOL0     C90040   9.426  10.720  -0.623  0.4072 -0.0645  0.3815
  653MOL0     C90041   9.511  10.708  -0.704 -1.1054 -0.6493 -0.1125
  653MOL0     C90042   9.406  11.020  -0.090 -0.4312 -0.3843  0.3777
  653MOL0     C90043   9.479  11.107  -0.009  0.2829 -0.4685  0.0384
  653MOL0     C90044   9.419  11.244   0.013  0.2703 -0.4032  0.6215
  653MOL0     H90045  10.009  11.275   0.121  0.5265 -0.2880  0.2740
  653MOL0     H90046  10.152  11.391   0.301  0.0044  0.5685 -0.2611
  653MOL0     H90047  10.223  11.251   0.650 -0.7229 -0.4825  0.3955
  653MOL0     H90048  10.058  11.279   0.716  2.4838 -2.5345  1.6177
  653MOL0     H90049  10.245  11.513   0.725 -0.3939  0.9467 -0.5455
  653MOL0     H90050  10.105  11.480   0.822  0.2749 -1.8048  3.5085
  653MOL0     H90051  10.364  11.337   0.818 -0.6051 -0.0235  0.3017
  653MOL0     H90052  10.314  11.453   0.946 -2.5705 -0.6313  0.9213
  653MOL0     H90053  10.229  11.297   1.069  2.4339  0.8098 -0.1612
  653MOL0     H90054  10.122  11.274   0.933  0.4853  0.2354 -0.0557
  653MOL0     H90055  10.415  11.160   0.955  0.4084  4.1303 -0.7089
  653MOL0     H90056  10.296  11.106   0.841  3.0597 -1.3351  0.5416
  653MOL0     H90057  10.165  11.004   1.018 -0.7173  0.3953 -1.1964
  653MOL0     H90058  10.319  10.920   0.976 -1.4392 -0.4734  2.4419
  653MOL0     H90059  10.290  10.919   1.230  0.8272  0.3628  0.3364
  653MOL0     H90060  10.280  11.091   1.226  1.9330 -0.2268  1.1188
  653MOL0     H90061  10.531  11.077   1.138 -1.8662 -1.5118 -3.2912
  653MOL0     H90062  10.496  10.991   1.291 -1.7527  0.9595  0.5217
  653MOL0     H90063  10.682  10.985   0.983 -0.9761  0.4072  2.9581
  653MOL0     H90064  10.849  10.811   0.892  1.3305  0.1528  1.8569
  653MOL0     H90065  10.737  10.716   0.799  0.1728  2.0127 -0.3424
  653MOL0     H90066  10.883  10.595   1.043  0.2462 -2.3464  0.3127
  653MOL0     H90067  10.790  10.502   0.922  0.8946 -1.0395 -0.1541
  653MOL0     H90068  11.027  10.672   0.821  0.8351 -2.3246 -3.4090
  653MOL0     H90069  11.055  10.517   0.905  1.3203  1.8243  0.1696
  653MOL0     H90070  10.900  10.408   0.727 -0.9759 -0.3750 -0.9353
  653MOL0     H90071  10.882  10.568   0.660 -3.4269 -3.0136 -0.3101
  653MOL0     H90072  11.282  10.442   0.558 -2.1825  0.9436 -0.1368
  653MOL0     H90073  11.363  10.217   0.279 -1.8701  1.3864 -3.0794
  653MOL0     H90074  11.435  10.279   0.419 -1.2451 -2.2126 -0.8940
  653MOL0     H90075  11.411  10.405   0.291 -0.6934 -0.2941 -1.6912
  653MOL0     H90076  11.441  10.312  -0.060 -1.8452  1.6870 -1.3177
  653MOL0     H90077  11.524  10.143  -0.247 -1.2336  0.5551 -0.9123
  653MOL0     H90078  11.253   9.979  -0.425  0.8711  2.5059 -1.7242
  653MOL0     H90079  11.406   9.990  -0.513  0.4931 -1.7300 -1.1325
  653MOL0     H90080  11.427   9.730  -0.488  1.7613  2.0599  1.6293
  653MOL0     H90081  11.248   9.743  -0.444 -2.4295 -1.4605 -3.0917
  653MOL0     H90082  11.294   9.720  -0.703  1.5291 -0.0326  1.0417
  653MOL0     H90083  11.378   9.871  -0.689  1.6836  1.1219  1.6689
  653MOL0     H90084  11.190   9.995  -0.643  2.8953 -1.5929  2.4624
  653MOL0     H90085  11.094   9.856  -0.590 -0.3988 -1.4709 -0.4822
  653MOL0     H90086  11.053   9.780  -0.817  2.9908 -1.3834 -0.8862
  653MOL0     H90087  11.006   9.941  -0.818  0.8214 -0.0396  0.6090
  653MOL0     H90088  11.287   9.894  -0.907 -0.5971 -0.9259  4.0960
  653MOL0     H90089  11.146   9.966  -0.981  0.7840  0.1620  0.4591
  653MOL0     H90090  11.066   9.754  -1.057 -0.9478 -1.2043  0.8533
  653MOL0     H90091  11.184   9.663  -0.964  0.7500 -0.2320 -0.6031
  653MOL0     H90092  11.264   9.854  -1.174 -0.4000  1.7283  1.7654
  653MOL0     H90093  11.239   9.688  -1.212 -4.1189  1.4320 -0.1704
  653MOL0     H90094  11.181   9.895  -0.157 -0.0331  1.0863 -1.1484
  653MOL0     H90095  11.120  10.040   0.024 -1.6025  1.3008 -0.2035
  653MOL0     H90096  10.900  10.347   0.269  1.5829 -1.5401 -2.3562
  653MOL0     H90097  10.865  10.452   0.473 -0.8808 -0.7331 -0.4438
  653MOL0     H90098   9.887  11.256   0.604 -0.6452  1.3392  0.6429
  653MOL0     H90099   9.766  11.125   0.442  1.6303 -1.5349 -1.9926
  653MOL0     H90100   9.759  10.937   0.026  1.1162  3.9068 -2.7158
  653MOL0     H90101   9.637  10.770  -0.102 -2.1010 -0.9476  1.0436
  653MOL0     H90102   9.199  10.803  -0.126  2.3902 -3.3504  1.5289
  653MOL0     H90103   9.241  10.877  -0.286 -2.6653 -2.0893 -2.3907
  653MOL0     H90104   9.097  10.677  -0.314 -0.3394 -0.8781  3.5525
  653MOL0     H90105   9.206  10.586  -0.221 -0.6907 -0.8185  0.6668
  653MOL0     H90106   9.374  10.576  -0.386  0.5981  0.0911  0.4708
  653MOL0     H90107   9.226  10.559  -0.475  0.0968 -0.8182  1.8947
  653MOL0     H90108   9.359  10.832  -0.481 -1.6359  1.1620 -1.4008
  653MOL0     H90109   9.233  10.763  -0.582  0.5084 -0.8251  0.6818
  653MOL0     H90110   9.581  10.707  -0.785 -1.3341 -1.6819 -0.3073
  653MOL0     H90111   9.302  11.044  -0.111 -0.4165  0.7661  1.5410
  653MOL0     H90112   9.346  11.259   0.093  1.8819  2.2137  1.7450
  653MOL0     H90113   9.489  11.321   0.047 -0.1568  0.1796  0.1936
  653MOL0     H90114   9.367  11.276  -0.077 -0.5867 -0.3052  1.1446
  654MOL0     O90115   5.819  10.304   3.541 -0.5927  0.0228 -0.6437
  654MOL0     C90116   5.827  10.231   3.646  0.4110 -0.9506  0.5109
  654MOL0     O90117   5.718  10.164   3.700 -0.1073  0.0590 -0.5179
  654MOL0     C90118   5.594  10.138   3.642  1.1185 -0.3126  1.0043
  654MOL0     C90119   5.530  10.220   3.553  0.1538 -0.6232  1.3118
  654MOL0     C90120   5.402  10.188   3.491  0.6832 -0.2426  0.1308
  654MOL0     C90121   5.334  10.066   3.522 -0.1674  0.3028 -0.4338
  654MOL0     O90122   5.205  10.051   3.479 -0.7406  0.0670  0.2652
  654MOL0     C90123   5.159   9.919   3.477  0.3870  0.0556 -0.2792
  654MOL0     C90124   5.042   9.919   3.376 -0.3665 -0.0941  0.3167
  654MOL0     C90125   4.929  10.024   3.410 -0.1540  0.9422 -0.1284
  654MOL0     C90126   4.809   9.988   3.322  0.2217 -0.1405 -0.2227
  654MOL0     C90127   4.694  10.091   3.314  0.2528  0.6317  0.5066
  654MOL0     C90128   4.592  10.054   3.211  0.7592  0.0474  1.0045
  654MOL0     C90129   4.455  10.110   3.230 -0.0692 -0.4881  0.0580
  654MOL0     C90130   4.403  10.177   3.098  0.0823  0.4669  0.7777
  654MOL0     N90131   4.445  10.314   3.072  0.1072 -0.2740  0.1248
  654MOL0     C90132   4.557  10.373   3.118  0.9000 -0.2879  0.1372
  654MOL0     C90133   4.556  10.497   3.083  0.3768  0.0747  0.4516
  654MOL0     C90134   4.646  10.613   3.122 -0.6904 -0.3118  0.0821
  654MOL0     C90135   4.671  10.719   3.015  0.1038 -0.4553 -0.1171
  654MOL0     C90136   4.536  10.795   2.969 -0.4179  0.2439  0.4907
  654MOL0     C90137   4.577  10.925   2.903  0.4593  0.0201 -0.2430
  654MOL0     O90138   4.668  10.905   2.795 -0.3957  0.3092 -0.9561
  654MOL0     C90139   4.624  10.932   2.667 -0.7391 -0.1245  0.7673
  654MOL0     C90140   4.638  10.833   2.573 -0.4478  1.1534 -0.1176
  654MOL0     C90141   4.599  10.847   2.447 -0.3231  0.1081  0.1308
  654MOL0     C90142   4.632  10.732   2.351  0.3179  0.2703 -1.0057
  654MOL0     C90143   4.531  10.967   2.403 -0.6297  0.6651 -0.0734
  654MOL0     C90144   4.477  10.989   2.262  0.1840 -1.6062  0.4672
  654MOL0     O90145   4.424  11.110   2.249  0.0719 -0.4329  0.3271
  654MOL0     C90146   4.414  11.146   2.116 -0.8608 -0.7618  0.0773
  654MOL0     C90147   4.281  11.151   2.062 -0.2717 -1.1714  0.4688
  654MOL0     C90148   4.261  11.190   1.927  0.6812 -0.0049  0.7501
  654MOL0     C90149   4.366  11.222   1.844 -1.0122 -1.0220  0.1856
  654MOL0     O90150   4.357  11.254   1.709  0.0896 -0.4558 -0.8597
  654MOL0     C90151   4.233  11.283   1.645  0.6137 -0.5647  0.0281
  654MOL0     C90152   4.168  11.410   1.697  0.3960 -0.7677 -0.6136
  654MOL0     C90153   4.039  11.440   1.615  0.1778 -0.4927 -0.8839
  654MOL0     C90154   3.914  11.371   1.686 -0.5178 -0.5951  0.6749
  654MOL0     C90155   3.782  11.381   1.600  0.3342 -0.2678 -0.3383
  654MOL0     C90156   3.726  11.521   1.569 -0.0644  0.3169  0.4996
  654MOL0     C90157   3.678  11.591   1.699  0.4714  0.0947  0.7804
  654MOL0     C90158   3.594  11.724   1.653 -1.4576 -0.7627  0.5750
  654MOL0    Cl90159   3.702  11.867   1.627 -0.1809 -0.3585 -0.1151
  654MOL0     C90160   4.495  11.208   1.899  0.3396  0.0404 -0.6292
  654MOL0     C90161   4.521  11.168   2.027 -0.4355 -0.1290  0.0468
  654MOL0     O90162   4.470  10.901   2.184 -0.2666 -0.6489  0.2179
  654MOL0     C90163   4.518  11.075   2.499  0.5010 -0.1885  0.2918
  654MOL0     C90164   4.563  11.053   2.630  0.5245 -0.5072  0.3566
  654MOL0     N90165   4.430  10.514   3.029 -0.5649  0.1841  0.2090
  654MOL0     N90166   4.365  10.408   3.015 -0.5255  0.0129  0.1923
  654MOL0     C90167   5.406   9.985   3.609 -0.4319 -0.1143 -0.0580
  654MOL0     C90168   5.527  10.018   3.668 -0.0813 -0.4344 -0.3854
  654MOL0     C90169   5.952  10.232   3.711  0.0911  0.0298  0.7117
  654MOL0     C90170   6.050  10.323   3.667 -0.1353  0.7314  0.3441
  654MOL0     C90171   6.185  10.335   3.714  0.2621 -0.0696  0.3526
  654MOL0     C90172   6.211  10.255   3.830  0.2995  0.3413  0.6466
  654MOL0     O90173   6.337  10.249   3.875 -0.0162  0.2670  0.3513
  654MOL0     C90174   6.378  10.350   3.970 -0.9704 -0.3480  0.2317
  654MOL0     C90175   6.400  10.282   4.105  0.0234  0.2532  0.9787
  654MOL0     C90176   6.507  10.186   4.107  0.3703 -0.0319  0.0976
  654MOL0     C90177   6.555  10.132   4.241 -0.3167 -0.2129  0.4541
  654MOL0     C90178   6.689  10.063   4.230 -0.5871  0.5648  0.1177
  654MOL0     C90179   6.782   9.992   4.251 -0.1963 -1.5979 -0.0079
  654MOL0     C90180   6.105  10.175   3.885 -0.0753 -0.3625 -0.2396
  654MOL0     C90181   5.981  10.162   3.830  0.2021 -0.4592  0.1542
  654MOL0     C90182   5.886  10.070   3.900  0.8755  0.5448 -0.4572
  654MOL0     H90183   5.578  10.314   3.527  0.5368 -1.5298 -1.5572
  654MOL0     H90184   5.337  10.246   3.426 -0.2050 -0.9557  0.3429
  654MOL0     H90185   5.117   9.900   3.576 -1.2050 -0.1618 -0.9627
  654MOL0     H90186   5.232   9.841   3.451  0.9138  0.8227 -1.1775
  654MOL0     H90187   5.082   9.945   3.277 -2.2247 -0.2069 -0.5149
  654MOL0     H90188   5.002   9.818   3.365 -0.0241 -0.3419  1.2808
  654MOL0     H90189   4.893  10.021   3.513 -0.7129  0.2458 -0.3356
  654MOL0     H90190   4.964  10.127   3.405  0.7298  0.6616 -0.0562
  654MOL0     H90191   4.834   9.962   3.218  0.8472 -1.9113  0.3346
  654MOL0     H90192   4.762   9.894   3.352  0.3214 -0.4575 -1.0311
  654MOL0     H90193   4.740  10.186   3.286  2.1419 -0.2596  0.3870
  654MOL0     H90194   4.640  10.101   3.409 -0.1754  0.6552  0.2623
  654MOL0     H90195   4.634  10.091   3.117  0.2562  1.1786  1.2022
  654MOL0     H90196   4.583   9.945   3.220  1.7618  0.0425  2.3549
  654MOL0     H90197   4.443  10.184   3.310  0.5558 -1.5254  1.1474
  654MOL0     H90198   4.401  10.021   3.266  1.6639 -0.5192  2.9119
  654MOL0     H90199   4.439  10.112   3.017  2.9510  4.0648 -1.1574
  654MOL0     H90200   4.294  10.167   3.097  0.2723 -4.3647 -1.3835
  654MOL0     H90201   4.636  10.331   3.179  1.1242  3.0286  2.4049
  654MOL0     H90202   4.737  10.582   3.176  0.9100  2.6150 -0.7016
  654MOL0     H90203   4.589  10.660   3.203  0.4646  1.9422 -0.3155
  654MOL0     H90204   4.749  10.780   3.061  1.3091 -1.4530 -0.7855
  654MOL0     H90205   4.721  10.672   2.930 -0.5488 -0.0298 -0.7562
  654MOL0     H90206   4.498  10.731   2.889 -0.6777 -0.2101  0.9698
  654MOL0     H90207   4.449  10.812   3.033 -1.2973 -2.5401  0.1945
  654MOL0     H90208   4.485  10.979   2.877  0.1125 -0.4951 -0.1239
  654MOL0     H90209   4.625  10.989   2.977 -1.4660  0.8892  0.3367
  654MOL0     H90210   4.682  10.736   2.596  1.4588  1.2714 -2.7512
  654MOL0     H90211   4.536  10.685   2.325 -0.6134  1.2340  0.5265
  654MOL0     H90212   4.702  10.661   2.395  1.3114  1.3499 -0.7979
  654MOL0     H90213   4.671  10.776   2.259 -2.3592  0.7543 -2.0259
  654MOL0     H90214   4.194  11.146   2.126  0.4421 -1.8205  1.3977
  654MOL0     H90215   4.158  11.189   1.891  0.5626 -0.6460  1.0839
  654MOL0     H90216   4.242  11.293   1.537 -3.9085 -1.2835 -0.6231
  654MOL0     H90217   4.158  11.204   1.659 -2.0813  2.0615  1.5321
  654MOL0     H90218   4.132  11.404   1.800 -2.4230  2.7543 -1.2002
  654MOL0     H90219   4.239  11.492   1.687  0.5033 -0.8867 -0.8412
  654MOL0     H90220   4.049  11.391   1.517  4.0134  0.6942 -1.2818
  654MOL0     H90221   4.025  11.547   1.595 -4.2692 -0.5094  1.0257
  654MOL0     H90222   3.906  11.423   1.783  3.5344 -2.5700  2.3311
  654MOL0     H90223   3.943  11.268   1.707  1.1422  0.0830  2.0267
  654MOL0     H90224   3.808  11.329   1.507 -0.2162 -1.0406 -0.0688
  654MOL0     H90225   3.702  11.324   1.647 -0.2778  2.6817  2.5531
  654MOL0     H90226   3.648  11.504   1.494  2.0263 -1.7557 -1.3671
  654MOL0     H90227   3.808  11.581   1.527  1.8314 -2.2199  0.3566
  654MOL0     H90228   3.752  11.636   1.766 -1.2945  0.6960  2.4419
  654MOL0     H90229   3.602  11.530   1.749 -1.7559  1.0016 -1.2583
  654MOL0     H90230   3.533  11.759   1.737 -1.8107  0.2871 -0.1005
  654MOL0     H90231   3.532  11.705   1.565  1.2843  0.0420 -1.6827
  654MOL0     H90232   4.583  11.235   1.841 -0.0483  0.0958 -1.2058
  654MOL0     H90233   4.623  11.179   2.063 -0.3863  0.5162 -0.2647
  654MOL0     H90234   4.468  11.168   2.472  3.1580  1.2846  0.0730
  654MOL0     H90235   4.547  11.130   2.705 -0.3959  1.7468 -2.0067
  654MOL0     H90236   5.368   9.891   3.649  1.6457 -0.2585  1.7698
  654MOL0     H90237   5.573   9.949   3.738 -0.6365 -1.4475 -1.0020
  654MOL0     H90238   6.030  10.377   3.576 -0.7553 -0.4032 -0.2193
  654MOL0     H90239   6.254  10.410   3.675 -0.4858  1.0361  1.0989
  654MOL0     H90240   6.470  10.393   3.929 -0.6918 -0.7978  0.3854
  654MOL0     H90241   6.306  10.431   3.988  1.5919  2.0265  0.4810
  654MOL0     H90242   6.303  10.235   4.122 -0.1252 -1.0754 -2.7113
  654MOL0     H90243   6.411  10.352   4.189 -1.2568  1.7281 -0.0122
  654MOL0     H90244   6.480  10.098   4.049  1.3028  0.2615 -0.8232
  654MOL0     H90245   6.598  10.233   4.067  1.2532 -2.3444 -0.7795
  654MOL0     H90246   6.499  10.047   4.281  3.1408 -1.8044  2.3327
  654MOL0     H90247   6.567  10.211   4.315  0.1915  1.8356 -1.6851
  654MOL0     H90248   6.861   9.928   4.286  2.1619  1.4100  0.5883
  654MOL0     H90249   6.123  10.125   3.980 -5.5008  0.3197  1.4661
  654MOL0     H90250   5.937  10.000   3.968 -1.7098 -2.5404 -1.4180
  654MOL0     H90251   5.806  10.133   3.940  0.4590 -0.1430 -0.1884
  654MOL0     H90252   5.847   9.999   3.826  2.2182 -0.4706 -0.2351
  655MOL0     O90253   3.329  11.010   1.242 -0.6903 -0.5780  0.4883
  655MOL0     C90254   3.450  11.024   1.251  0.2048  0.1001 -0.1798
  655MOL0     O90255   3.508  11.143   1.273 -0.4475 -0.0634  0.2011
  655MOL0     C90256   3.429  11.240   1.336  0.0481  0.7351  0.0604
  655MOL0     C90257   3.422  11.234   1.474 -0.6771 -0.0487 -0.3563
  655MOL0     C90258   3.369  11.338   1.550  0.4600  0.1162 -0.4760
  655MOL0     C90259   3.323  11.459   1.484 -0.0294 -0.3159  0.0681
  655MOL0     O90260   3.274  11.581   1.540  0.3170 -0.5877  0.6083
  655MOL0     C90261   3.249  11.573   1.679 -0.6696  0.5077  0.2620
  655MOL0     C90262   3.176  11.699   1.726 -0.6318  0.6570 -0.1931
  655MOL0     C90263   3.025  11.702   1.677 -0.1681  0.0826 -0.7372
  655MOL0     C90264   3.007  11.785   1.552 -0.4942 -0.5919  0.3334
  655MOL0     C90265   2.857  11.810   1.525 -0.5157 -0.0327  0.0270
  655MOL0     C90266   2.839  11.878   1.390 -0.5563 -0.2719  0.0351
  655MOL0     C90267   2.684  11.896   1.370  0.5493 -0.4298  0.3643
  655MOL0     C90268   2.655  11.899   1.219  0.1953  0.2904  0.1661
  655MOL0     N90269   2.537  11.977   1.194 -0.3595  0.2507 -0.4115
  655MOL0     C90270   2.414  11.913   1.167  0.0105 -0.5640  1.0412
  655MOL0     C90271   2.348  12.016   1.103 -0.0876  1.1297  0.4682
  655MOL0     C90272   2.205  12.027   1.045 -0.7711 -0.0131 -0.0890
  655MOL0     C90273   2.199  12.080   0.903 -0.8358  0.0663  0.7403
  655MOL0     C90274   2.065  12.052   0.841  0.7649 -0.2503 -0.1054
  655MOL0     C90275   2.058  12.056   0.691 -0.3072  0.6433  0.7279
  655MOL0     O90276   2.123  12.172   0.637 -0.4515  0.4613 -0.7675
  655MOL0     C90277   2.089  12.229   0.516  0.0152  0.3941  0.2324
  655MOL0     C90278   1.983  12.178   0.429  0.2175  0.2593  0.6070
  655MOL0     C90279   1.945  12.232   0.307  0.7050  0.0841 -0.1875
  655MOL0     C90280   1.838  12.154   0.231 -0.0393 -0.3184 -0.1704
  655MOL0     C90281   2.009  12.341   0.254 -0.6806  0.8805  0.0923
  655MOL0     C90282   1.974  12.407   0.137  0.1546  0.0490  0.1708
  655MOL0     O90283   2.078  12.478   0.091 -0.2196 -0.7261  0.4115
  655MOL0     C90284   2.054  12.589   0.008  0.4771  0.1938 -0.7840
  655MOL0     C90285   2.113  12.578  -0.121  0.6464  0.4486  0.4817
  655MOL0     C90286   2.065  12.670  -0.221 -0.8566  0.8234  0.6686
  655MOL0     C90287   1.999  12.785  -0.192 -1.2629  0.0468 -0.2969
  655MOL0     O90288   1.995  12.878  -0.286  0.0521  0.3091  0.0252
  655MOL0     C90289   1.910  12.984  -0.286  0.8219 -0.1989 -0.1137
  655MOL0     C90290   1.855  13.008  -0.426  1.0389 -0.0011  0.7972
  655MOL0     C90291   1.785  13.139  -0.459  0.4038  0.4866 -0.4105
  655MOL0     C90292   1.677  13.186  -0.365  0.5163  0.2363 -0.8182
  655MOL0     C90293   1.629  13.321  -0.410  0.1068 -0.3441 -0.3373
  655MOL0     C90294   1.546  13.396  -0.309  0.4476 -0.1769  0.9350
  655MOL0     C90295   1.454  13.519  -0.354 -0.4164  0.7418  0.2644
  655MOL0     C90296   1.520  13.637  -0.412  0.1895  1.1471  0.3665
  655MOL0    Cl90297   1.667  13.674  -0.316  0.0043  0.5815 -0.3802
  655MOL0     C90298   1.955  12.800  -0.063  0.4912  0.2116 -0.5179
  655MOL0     C90299   1.968  12.698   0.028 -0.1246 -0.1360  0.1830
  655MOL0     O90300   1.862  12.397   0.089  0.3217  0.4929  0.2641
  655MOL0     C90301   2.119  12.390   0.330 -0.3379  0.0327 -0.0719
  655MOL0     C90302   2.154  12.335   0.457 -0.4027  0.0660  0.0924
  655MOL0     N90303   2.419  12.131   1.098  0.1448  0.6655  0.1132
  655MOL0     N90304   2.542  12.103   1.141  0.6797  0.8903 -0.2752
  655MOL0     C90305   3.330  11.460   1.340  0.3539  0.5126 -0.5381
  655MOL0     C90306   3.385  11.353   1.271 -0.5251  0.0284 -0.4118
  655MOL0     C90307   3.530  10.894   1.228 -0.5755  0.3594 -0.2331
  655MOL0     C90308   3.462  10.775   1.204  0.6056 -0.2943  0.0365
  655MOL0     C90309   3.521  10.650   1.214  0.4231 -0.4824 -0.2962
  655MOL0     C90310   3.658  10.642   1.236  0.3898 -0.1812 -0.2965
  655MOL0     O90311   3.712  10.515   1.236  0.2947  0.0510  0.1486
  655MOL0     C90312   3.747  10.469   1.362 -0.1998  0.9788 -0.1053
  655MOL0     C90313   3.806  10.326   1.358  0.2580  0.1814  0.7916
  655MOL0     C90314   3.909  10.321   1.254 -0.2150 -0.5458  0.3135
  655MOL0     C90315   3.984  10.193   1.259 -0.1838 -0.0883  0.6337
  655MOL0     C90316   4.057  10.188   1.130 -0.4366  0.9231 -0.2615
  655MOL0     C90317   4.103  10.191   1.017  0.2480 -0.2248  0.1840
  655MOL0     C90318   3.736  10.756   1.261 -0.1438  0.5525  0.6010
  655MOL0     C90319   3.675  10.884   1.245  0.1918 -0.7769  0.4404
  655MOL0     C90320   3.759  11.007   1.274  0.1710 -0.5036  0.7618
  655MOL0     H90321   3.471  11.157   1.532 -0.3760  1.1397  1.0373
  655MOL0     H90322   3.371  11.327   1.658  2.5304  3.3746 -0.0352
  655MOL0     H90323   3.342  11.558   1.735  0.4356  1.4761 -1.2253
  655MOL0     H90324   3.178  11.490   1.683 -2.1659  1.0433 -5.6241
  655MOL0     H90325   3.154  11.698   1.833 -0.9901 -3.3895 -0.1813
  655MOL0     H90326   3.237  11.788   1.708  0.5811 -0.2214 -0.4919
  655MOL0     H90327   2.991  11.599   1.667 -2.8445  1.0502 -2.8178
  655MOL0     H90328   2.968  11.743   1.760  1.0095  1.5426 -0.6073
  655MOL0     H90329   3.063  11.878   1.556  0.4018 -1.1487  1.0442
  655MOL0     H90330   3.039  11.729   1.463 -0.8871  2.0325 -1.5941
  655MOL0     H90331   2.807  11.862   1.608 -1.7151 -1.3813  0.1739
  655MOL0     H90332   2.806  11.714   1.520 -1.0425  0.1695  1.0852
  655MOL0     H90333   2.882  11.979   1.383 -2.3176  0.4336 -1.2622
  655MOL0     H90334   2.877  11.824   1.303 -1.1606  1.4449 -1.3705
  655MOL0     H90335   2.659  11.989   1.421  4.3112  0.3281  1.1781
  655MOL0     H90336   2.629  11.808   1.405  1.4186 -0.6201  1.2858
  655MOL0     H90337   2.744  11.914   1.157 -1.3271  0.9281 -1.9720
  655MOL0     H90338   2.625  11.798   1.192 -3.0354  1.4037 -0.8660
  655MOL0     H90339   2.383  11.810   1.183 -2.3610 -0.1155 -0.1814
  655MOL0     H90340   2.154  12.094   1.115  0.1616  0.7062 -0.0837
  655MOL0     H90341   2.163  11.926   1.045  1.5973 -1.0510  0.7772
  655MOL0     H90342   2.233  12.184   0.898  0.6887 -0.3665  1.4235
  655MOL0     H90343   2.276  12.037   0.839 -1.1705  3.2034 -2.0325
  655MOL0     H90344   2.032  11.953   0.874 -0.8638  0.3993  0.3143
  655MOL0     H90345   2.001  12.131   0.881  2.7210  0.5889  1.5974
  655MOL0     H90346   2.099  11.965   0.646 -0.0333  0.3002  1.6607
  655MOL0     H90347   1.951  12.057   0.668  0.4310 -0.4151 -3.7192
  655MOL0     H90348   1.941  12.090   0.477  2.5948 -0.9757  0.5529
  655MOL0     H90349   1.842  12.049   0.260 -1.4042 -0.5868 -0.8859
  655MOL0     H90350   1.858  12.150   0.124 -1.1513 -1.9299 -0.3376
  655MOL0     H90351   1.740  12.197   0.253 -1.0083 -3.4689  2.4639
  655MOL0     H90352   2.186  12.501  -0.138 -1.0589 -0.9907 -0.7148
  655MOL0     H90353   2.095  12.638  -0.320 -4.6013 -0.5417 -0.1842
  655MOL0     H90354   1.824  12.980  -0.218 -0.5537 -2.1392 -1.8414
  655MOL0     H90355   1.960  13.078  -0.262 -1.4377  0.5818  1.9192
  655MOL0     H90356   1.934  12.991  -0.500 -1.0599 -0.8454 -1.3701
  655MOL0     H90357   1.778  12.935  -0.451 -0.1114  1.2067  0.7062
  655MOL0     H90358   1.757  13.147  -0.564 -1.7426  2.1181  0.1955
  655MOL0     H90359   1.862  13.217  -0.461 -0.9799  2.0068  1.0836
  655MOL0     H90360   1.721  13.196  -0.266  1.9141 -0.5649 -1.3381
  655MOL0     H90361   1.591  13.118  -0.357 -0.5471  1.5661 -0.5436
  655MOL0     H90362   1.718  13.378  -0.438 -0.8065  2.0970  1.4727
  655MOL0     H90363   1.572  13.300  -0.501 -2.0246 -1.5263  1.1572
  655MOL0     H90364   1.608  13.428  -0.225  0.5209  1.6891  0.2036
  655MOL0     H90365   1.487  13.315  -0.265  1.8231 -0.7745  1.7285
  655MOL0     H90366   1.396  13.565  -0.274 -0.3005  1.5647 -0.1141
  655MOL0     H90367   1.376  13.485  -0.423 -0.4681  0.8504  0.2703
  655MOL0     H90368   1.452  13.722  -0.409  0.1525  1.1538  4.7678
  655MOL0     H90369   1.547  13.610  -0.515 -0.8402 -0.4300  0.4701
  655MOL0     H90370   1.887  12.880  -0.035 -0.2155 -0.0399 -1.5065
  655MOL0     H90371   1.926  12.698   0.128 -0.1987 -1.3126  0.1666
  655MOL0     H90372   2.173  12.478   0.298  1.3029 -0.5966  0.8836
  655MOL0     H90373   2.233  12.376   0.519  0.2573 -2.9626  1.4527
  655MOL0     H90374   3.322  11.556   1.288 -1.5210  1.0069  0.5867
  655MOL0     H90375   3.401  11.359   1.164 -1.2887 -2.3570 -0.7185
  655MOL0     H90376   3.355  10.784   1.192  0.5314  2.2321  1.7698
  655MOL0     H90377   3.471  10.556   1.191 -0.1430 -0.0412 -0.9027
  655MOL0     H90378   3.813  10.541   1.411 -1.0925  1.6559  0.1263
  655MOL0     H90379   3.665  10.480   1.433  0.1870  0.5625  0.4181
  655MOL0     H90380   3.729  10.251   1.338  0.4871 -0.7102  2.9838
  655MOL0     H90381   3.844  10.290   1.454  0.7800  1.4571  1.0845
  655MOL0     H90382   3.867  10.321   1.153  0.7482 -2.2858 -0.1313
  655MOL0     H90383   3.980  10.403   1.264  2.1322 -2.4515  0.2093
  655MOL0     H90384   3.916  10.109   1.243 -0.9948  0.9429 -1.8680
  655MOL0     H90385   4.052  10.174   1.343 -1.0966  0.2871  1.4829
  655MOL0     H90386   4.131  10.205   0.915 -0.1641  1.1214  0.2383
  655MOL0     H90387   3.844  10.757   1.268 -0.1089  4.2162  1.4438
  655MOL0     H90388   3.865  10.983   1.263 -0.3866 -2.3146 -1.4500
  655MOL0     H90389   3.728  11.079   1.197 -0.5921 -1.1205  0.4802
  655MOL0     H90390   3.748  11.049   1.375  0.1133  0.3236  0.4224
  656MOL0     O90391   0.269  10.738   3.891  0.6862 -0.0617  0.6938
  656MOL0     C90392   0.163  10.677   3.904  0.1433  0.1049 -0.7602
  656MOL0     O90393   0.072  10.644   3.809  0.7097  0.0936  0.9529
  656MOL0     C90394   0.109  10.650   3.676 -0.6671 -0.0880 -0.7647
  656MOL0     C90395   0.237  10.643   3.628  0.1016  0.2992  1.1799
  656MOL0     C90396   0.267  10.659   3.490  0.5921 -0.7486  0.3268
  656MOL0     C90397   0.169  10.700   3.405 -0.5165 -0.6343 -0.3878
  656MOL0     O90398   0.200  10.726   3.276 -0.2864  0.0444  0.3628
  656MOL0     C90399   0.112  10.730   3.169 -0.5987 -0.4546  0.5631
  656MOL0     C90400   0.180  10.676   3.047  0.4617 -0.4074  0.0830
  656MOL0     C90401   0.235  10.522   3.051 -0.0568 -0.0945 -0.1455
  656MOL0     C90402   0.125  10.417   3.059 -0.1100  0.0404  0.2365
  656MOL0     C90403   0.170  10.274   3.027 -0.3026  0.6836  1.0013
  656MOL0     C90404   0.050  10.181   2.987 -0.0038 -0.6587 -0.5490
  656MOL0     C90405   0.032  10.136   2.846  0.2694  0.6201 -0.1906
  656MOL0     C90406  -0.044  10.003   2.847 -0.7110 -0.3736  0.1069
  656MOL0     N90407  -0.034   9.936   2.717 -0.5306  0.3578  0.3059
  656MOL0     C90408   0.083   9.901   2.649  0.6107 -0.5361 -0.5229
  656MOL0     C90409   0.037   9.837   2.543  0.1769 -0.7571 -0.3837
  656MOL0     C90410   0.132   9.787   2.446 -0.5733 -0.2953  0.1286
  656MOL0     C90411   0.136   9.882   2.323 -0.4587  0.0533  1.0912
  656MOL0     C90412   0.042   9.824   2.208 -0.4570  0.6436  0.5614
  656MOL0     C90413   0.018   9.928   2.094 -0.1539  0.1721  0.0646
  656MOL0     O90414   0.134  10.008   2.066  0.1152  0.3842  0.4053
  656MOL0     C90415   0.171  10.022   1.933  0.2728  0.4290  0.3269
  656MOL0     C90416   0.268   9.940   1.868  0.3202 -0.9477  0.4634
  656MOL0     C90417   0.285   9.946   1.730  0.4211  0.7544 -0.3757
  656MOL0     C90418   0.395   9.856   1.671 -0.4448 -0.7934  0.6458
  656MOL0     C90419   0.206  10.027   1.649 -1.2707  1.0397 -0.3544
  656MOL0     C90420   0.204  10.023   1.505 -0.0402 -0.5047 -0.2941
  656MOL0     O90421   0.100  10.109   1.448 -0.2704  0.4940 -0.3321
  656MOL0     C90422   0.094  10.099   1.314  0.3494 -0.5646 -0.1322
  656MOL0     C90423   0.045   9.995   1.239  0.6447 -0.1743 -0.4016
  656MOL0     C90424   0.050   9.998   1.099  0.0459 -0.0687 -0.4201
  656MOL0     C90425   0.099  10.107   1.031 -0.2140  0.0046 -0.2805
  656MOL0     O90426   0.104  10.112   0.894  0.1192 -0.3237  0.5107
  656MOL0     C90427   0.083  10.241   0.834  0.4730 -0.7363 -0.1085
  656MOL0     C90428   0.076  10.214   0.683  0.9799  0.1571  0.1175
  656MOL0     C90429   0.199  10.174   0.602 -0.4319  0.5023  0.3143
  656MOL0     C90430   0.155  10.075   0.482  0.4591  0.5415  0.3593
  656MOL0     C90431   0.259  10.069   0.373  0.2925  1.3550 -0.5359
  656MOL0     C90432   0.393  10.006   0.412 -0.4508 -0.3344 -0.0598
  656MOL0     C90433   0.486   9.951   0.305 -0.3320 -1.0617 -0.4329
  656MOL0     C90434   0.608   9.877   0.367 -0.2659 -0.8572  0.3687
  656MOL0    Cl90435   0.567   9.721   0.412 -0.8032 -0.0190 -0.0375
  656MOL0     C90436   0.154  10.211   1.109 -0.8915 -0.0191 -0.4863
  656MOL0     C90437   0.146  10.210   1.244 -0.0286  0.1174 -0.1688
  656MOL0     O90438   0.279   9.963   1.438  0.2804  0.0092 -0.0438
  656MOL0     C90439   0.116  10.124   1.719 -0.0235 -0.5359 -0.4390
  656MOL0     C90440   0.095  10.107   1.857 -0.5116  0.2255 -1.0527
  656MOL0     N90441  -0.098   9.824   2.547  1.2812 -0.2233 -0.1606
  656MOL0     N90442  -0.146   9.880   2.651 -0.4820  0.3992  0.2738
  656MOL0     C90443   0.040  10.704   3.455 -0.9643  0.2732 -0.7604
  656MOL0     C90444   0.011  10.681   3.586 -0.8306  0.6253  0.1811
  656MOL0     C90445   0.147  10.611   4.044 -0.0429 -0.7578 -0.3064
  656MOL0     C90446   0.038  10.530   4.070  0.1692 -1.3359  0.1522
  656MOL0     C90447   0.016  10.465   4.189  0.1676 -1.1657 -0.6745
  656MOL0     C90448   0.113  10.480   4.295  0.5503 -0.8533  0.6607
  656MOL0     O90449   0.098  10.426   4.418  0.3005  0.4093 -0.2676
  656MOL0     C90450   0.023  10.303   4.432 -0.9067 -2.2263 -0.0847
  656MOL0     C90451   0.035  10.246   4.566  0.0745  0.1728  0.6813
  656MOL0     C90452   0.027  10.336   4.686 -0.0549 -0.4205  0.0933
  656MOL0     C90453   0.052  10.278   4.826 -0.0165 -0.0782  1.2116
  656MOL0     C90454  -0.072  10.210   4.867  0.4431 -0.7340  0.4497
  656MOL0     C90455  -0.171  10.142   4.887  0.1562 -0.7367  0.2854
  656MOL0     C90456   0.204  10.573   4.280 -0.1225 -0.9936 -0.6083
  656MOL0     C90457   0.222  10.641   4.159  1.4589 -0.8409 -0.5813
  656MOL0     C90458   0.323  10.761   4.171 -0.0727  0.3936  0.2881
  656MOL0     H90459   0.314  10.600   3.691  0.8329 -1.5614 -0.8280
  656MOL0     H90460   0.369  10.649   3.455  0.7723  0.0201  0.5963
  656MOL0     H90461   0.070  10.829   3.148 -0.0994 -0.9114 -3.2139
  656MOL0     H90462   0.033  10.654   3.171 -0.7093 -0.4330 -1.2287
  656MOL0     H90463   0.111  10.692   2.964  0.4969 -1.1831 -0.0964
  656MOL0     H90464   0.257  10.744   3.009  0.2209 -0.5247 -0.6173
  656MOL0     H90465   0.287  10.503   2.957  0.2506 -1.0379  0.2033
  656MOL0     H90466   0.310  10.513   3.130 -0.4690 -0.8236  0.1694
  656MOL0     H90467   0.087  10.415   3.161  0.9054  4.9355  0.9643
  656MOL0     H90468   0.049  10.440   2.984  1.6651  5.1646 -0.3447
  656MOL0     H90469   0.214  10.222   3.114 -0.7748 -1.8047 -0.1433
  656MOL0     H90470   0.236  10.289   2.942 -3.5727  3.9088 -1.2152
  656MOL0     H90471   0.069  10.093   3.049  0.2965  0.2472  0.6908
  656MOL0     H90472  -0.051  10.215   3.011 -0.7006 -0.8151 -3.0519
  656MOL0     H90473   0.131  10.133   2.799  0.3677  2.8505 -0.2461
  656MOL0     H90474  -0.024  10.203   2.780 -1.1592 -1.9779 -1.7982
  656MOL0     H90475   0.002   9.935   2.919  0.6256 -1.8574 -1.9973
  656MOL0     H90476  -0.147  10.013   2.882 -0.1692  3.4570  1.0374
  656MOL0     H90477   0.184   9.937   2.669  0.4299  0.8046 -1.8781
  656MOL0     H90478   0.100   9.688   2.414  0.0396 -0.2984 -0.5105
  656MOL0     H90479   0.232   9.773   2.487 -0.2434  0.4972 -0.3617
  656MOL0     H90480   0.121   9.984   2.358  4.1478  0.9500  1.0639
  656MOL0     H90481   0.238   9.886   2.284 -0.3336 -0.8453  1.2868
  656MOL0     H90482   0.082   9.729   2.172  0.0139 -0.3278  3.4130
  656MOL0     H90483  -0.051   9.800   2.259  0.1938  0.2867  1.6081
  656MOL0     H90484  -0.013   9.877   2.003  1.6361 -2.5246  0.8460
  656MOL0     H90485  -0.065   9.985   2.139 -0.8842 -1.0209  0.2864
  656MOL0     H90486   0.323   9.871   1.931 -1.3783 -1.6712  1.2290
  656MOL0     H90487   0.363   9.780   1.599  0.0824  2.2614 -3.1389
  656MOL0     H90488   0.443   9.796   1.749 -0.2911 -0.4095  0.8460
  656MOL0     H90489   0.465   9.925   1.625 -2.7205  2.3581  1.5363
  656MOL0     H90490   0.000   9.907   1.283  0.3715  0.1571 -0.0081
  656MOL0     H90491  -0.004   9.932   1.031 -0.1688 -0.5288  0.1848
  656MOL0     H90492  -0.012  10.277   0.874 -0.9931 -1.4065 -2.7261
  656MOL0     H90493   0.165  10.313   0.846  1.8425 -1.9320 -1.8237
  656MOL0     H90494  -0.009  10.146   0.673 -0.3462  1.4783  1.7465
  656MOL0     H90495   0.035  10.308   0.645  1.3714  1.6407  3.0562
  656MOL0     H90496   0.278  10.134   0.666 -0.4700  1.2324  0.8353
  656MOL0     H90497   0.229  10.273   0.565  1.4103 -0.4556 -0.9022
  656MOL0     H90498   0.063  10.108   0.432 -0.3513 -2.9845 -0.7409
  656MOL0     H90499   0.144   9.973   0.520  0.0665 -0.1447 -1.5127
  656MOL0     H90500   0.221  10.017   0.285  3.1870  0.1120 -1.1845
  656MOL0     H90501   0.279  10.167   0.329  1.0187  1.7860  0.6872
  656MOL0     H90502   0.374   9.926   0.484 -3.4664  0.1703 -0.1571
  656MOL0     H90503   0.446  10.088   0.461 -0.4253  0.2897 -1.0847
  656MOL0     H90504   0.524  10.032   0.243 -1.3111 -1.1224 -1.1343
  656MOL0     H90505   0.436   9.876   0.243  1.0840 -2.7669  0.3782
  656MOL0     H90506   0.652   9.935   0.449  0.8658 -4.7917  2.7926
  656MOL0     H90507   0.685   9.862   0.291 -1.2927 -0.5869 -0.7669
  656MOL0     H90508   0.201  10.297   1.064 -1.5375  0.8417  0.4526
  656MOL0     H90509   0.178  10.306   1.284 -0.4177 -0.7507  2.4163
  656MOL0     H90510   0.070  10.208   1.668 -2.6664  0.9700  3.9101
  656MOL0     H90511   0.039  10.178   1.918  4.1298  3.9297 -0.4797
  656MOL0     H90512  -0.039  10.737   3.389  0.6412  3.1125 -1.4011
  656MOL0     H90513  -0.091  10.684   3.623 -1.8512  1.4556 -2.5045
  656MOL0     H90514  -0.029  10.486   3.998  1.2149 -2.8326  0.0395
  656MOL0     H90515  -0.076  10.410   4.203 -1.4229  1.2918 -0.8550
  656MOL0     H90516  -0.083  10.326   4.413  0.1159  1.2136 -2.6528
  656MOL0     H90517   0.070  10.236   4.360 -0.7687  0.0779 -2.2490
  656MOL0     H90518   0.133  10.198   4.568 -0.1385 -0.3020 -0.0452
  656MOL0     H90519  -0.040  10.167   4.572 -0.3681  0.4745 -0.4609
  656MOL0     H90520   0.081  10.430   4.677  0.7940 -0.7734  1.2647
  656MOL0     H90521  -0.079  10.363   4.684  0.0031 -0.1680  0.3464
  656MOL0     H90522   0.077  10.358   4.896  3.5311  0.7463 -0.7288
  656MOL0     H90523   0.134  10.207   4.838 -0.5463 -0.3170  4.1603
  656MOL0     H90524  -0.261  10.092   4.917  0.4784 -1.3666  0.2115
  656MOL0     H90525   0.260  10.613   4.363 -1.4035  0.1754 -0.2692
  656MOL0     H90526   0.424  10.745   4.132 -0.0714 -1.8570  1.1130
  656MOL0     H90527   0.278  10.849   4.122 -0.9851 -0.4469 -0.4219
  656MOL0     H90528   0.341  10.786   4.276  1.9820 -2.3668  0.6944
  657MOL0     O90529   7.351   2.195   3.064 -1.0011 -0.3636 -0.0372
  657MOL0     C90530   7.316   2.076   3.064  0.6745  0.8518  0.3275
  657MOL0     O90531   7.392   1.972   3.067  0.4648  0.4702  0.3432
  657MOL0     C90532   7.520   1.988   3.053 -0.4605 -1.4817  0.2595
  657MOL0     C90533   7.587   2.013   2.932  0.1846 -0.1049  0.2253
  657MOL0     C90534   7.725   2.037   2.931  0.8704 -0.1967  0.1297
  657MOL0     C90535   7.802   2.027   3.044 -0.1979 -0.2297 -0.0997
  657MOL0     O90536   7.933   2.040   3.035  0.0291 -0.6049  0.1912
  657MOL0     C90537   8.018   1.956   3.117  0.2485 -0.3079  0.2631
  657MOL0     C90538   8.171   1.928   3.058  0.8709  0.1769 -0.3792
  657MOL0     C90539   8.177   1.862   2.920 -0.6403 -0.2701 -0.1492
  657MOL0     C90540   8.095   1.731   2.919  0.5280  0.4626  0.8953
  657MOL0     C90541   8.125   1.646   2.793  0.6509  0.0109  0.4915
  657MOL0     C90542   8.019   1.530   2.799  0.1138  0.6100  0.3074
  657MOL0     C90543   8.045   1.433   2.685  0.1479  0.1932  0.4708
  657MOL0     C90544   7.917   1.345   2.657  0.5376 -0.3961 -0.1837
  657MOL0     N90545   7.863   1.266   2.770  0.3865  0.3146 -0.0988
  657MOL0     C90546   7.787   1.308   2.878  1.3748 -0.3660  0.0302
  657MOL0     C90547   7.730   1.195   2.928  0.0422 -0.1649  0.1821
  657MOL0     C90548   7.624   1.182   3.028 -0.1528 -0.2889 -0.5575
  657MOL0     C90549   7.497   1.143   2.955 -0.7177  0.0116 -0.7229
  657MOL0     C90550   7.437   1.250   2.866 -0.7119  0.2802 -0.4122
  657MOL0     C90551   7.436   1.399   2.916 -0.1248  0.0138  0.6349
  657MOL0     O90552   7.338   1.431   3.018 -0.0773 -0.0806  0.6189
  657MOL0     C90553   7.362   1.412   3.152  0.6341 -0.3662 -0.5583
  657MOL0     C90554   7.466   1.483   3.218  0.1350  0.4214 -0.6670
  657MOL0     C90555   7.500   1.471   3.354 -0.2063  0.6493 -0.4626
  657MOL0     C90556   7.625   1.534   3.407  0.4329  0.1686  0.3407
  657MOL0     C90557   7.412   1.389   3.435  1.0809  0.5048  0.9766
  657MOL0     C90558   7.409   1.379   3.578 -0.2777 -0.5115 -0.1379
  657MOL0     O90559   7.389   1.258   3.624  0.3472  0.2764 -0.3765
  657MOL0     C90560   7.436   1.220   3.743 -0.3132 -0.3952 -0.0349
  657MOL0     C90561   7.535   1.129   3.748  0.0046 -0.6528 -0.1468
  657MOL0     C90562   7.579   1.075   3.876  0.1636  0.0361 -0.0583
  657MOL0     C90563   7.519   1.121   3.990 -0.0029 -0.0218 -0.4704
  657MOL0     O90564   7.545   1.051   4.104 -0.2114 -0.6408 -0.1020
  657MOL0     C90565   7.581   1.123   4.221  0.0726 -0.2512 -0.5481
  657MOL0     C90566   7.725   1.113   4.270 -0.3651 -0.6155 -0.1056
  657MOL0     C90567   7.826   1.169   4.169 -0.4849 -0.5351  0.2388
  657MOL0     C90568   7.826   1.334   4.159 -1.0370  0.2593 -0.2568
  657MOL0     C90569   7.920   1.375   4.271 -0.1315  0.3622 -0.3046
  657MOL0     C90570   8.059   1.406   4.227 -0.2446 -0.2967  0.0390
  657MOL0     C90571   8.146   1.463   4.338  0.3696  0.7157 -0.1084
  657MOL0     C90572   8.258   1.550   4.294 -0.0516 -0.6644 -0.3742
  657MOL0    Cl90573   8.329   1.621   4.443 -0.0836 -0.1568  0.3493
  657MOL0     C90574   7.426   1.223   3.982  0.6155  0.0885  0.1944
  657MOL0     C90575   7.391   1.288   3.857 -0.4279  0.3672 -0.1702
  657MOL0     O90576   7.422   1.483   3.636  0.2023 -0.4062 -0.1004
  657MOL0     C90577   7.317   1.310   3.368  0.7057  0.0291 -0.1518
  657MOL0     C90578   7.290   1.327   3.227 -1.0575  1.4855  0.7184
  657MOL0     N90579   7.787   1.089   2.868  1.7037  0.3101  0.3389
  657MOL0     N90580   7.854   1.123   2.760 -0.9020  0.3724  0.2708
  657MOL0     C90581   7.738   1.996   3.164  0.3282 -0.2330  0.6466
  657MOL0     C90582   7.601   2.003   3.168 -0.1179 -0.4800 -0.1398
  657MOL0     C90583   7.175   2.049   3.096  0.6538 -0.0387  0.7920
  657MOL0     C90584   7.087   2.159   3.141  0.2928 -0.3631  0.0559
  657MOL0     C90585   6.962   2.133   3.195 -0.4355 -0.5504  0.5931
  657MOL0     C90586   6.911   2.006   3.190  0.2477  0.2612 -0.3702
  657MOL0     O90587   6.794   1.986   3.253  0.3837 -0.4677 -0.1676
  657MOL0     C90588   6.697   1.897   3.199 -0.2605 -0.7314 -0.2177
  657MOL0     C90589   6.644   1.935   3.053  0.8244 -0.0502  0.4677
  657MOL0     C90590   6.580   2.072   3.034 -0.2165  1.1257  0.1107
  657MOL0     C90591   6.464   2.114   3.131  0.1201 -0.2261  0.2764
  657MOL0     C90592   6.370   2.011   3.164  0.3870 -1.1604  0.0931
  657MOL0     C90593   6.313   1.912   3.210 -0.2850 -0.1700 -1.0706
  657MOL0     C90594   6.979   1.903   3.128  0.8317 -0.2165  0.8363
  657MOL0     C90595   7.107   1.917   3.083 -0.5237  0.0459  0.9011
  657MOL0     C90596   7.162   1.796   3.008  0.2515 -0.1074  0.1793
  657MOL0     H90597   7.513   2.028   2.854 -2.2159 -1.1701  2.1364
  657MOL0     H90598   7.774   2.051   2.835 -0.2781  0.4618 -0.3794
  657MOL0     H90599   7.979   1.856   3.138  0.7308 -0.4181  0.6606
  657MOL0     H90600   8.044   2.008   3.210 -1.8460 -2.8987  2.4470
  657MOL0     H90601   8.218   2.026   3.044 -2.9238  2.2027 -0.1339
  657MOL0     H90602   8.220   1.869   3.136  2.0417  1.4814 -0.0879
  657MOL0     H90603   8.140   1.925   2.840  0.5595 -1.7333 -1.9402
  657MOL0     H90604   8.282   1.854   2.891 -0.6826  2.9071 -1.5035
  657MOL0     H90605   8.127   1.676   3.007  0.2202  2.0909  2.0698
  657MOL0     H90606   7.988   1.754   2.926  0.7473  1.5598  0.8430
  657MOL0     H90607   8.223   1.598   2.802  2.7798  3.8674  0.0807
  657MOL0     H90608   8.117   1.711   2.705  2.6019  2.5416  2.0380
  657MOL0     H90609   8.049   1.474   2.888  1.6605  0.7409 -0.0972
  657MOL0     H90610   7.915   1.561   2.788  0.0961  0.4415 -0.0183
  657MOL0     H90611   8.135   1.373   2.702  0.5686  0.0613 -1.9343
  657MOL0     H90612   8.062   1.497   2.598 -0.3216  0.2282  0.4011
  657MOL0     H90613   7.853   1.422   2.614 -0.4790 -1.7951 -1.2683
  657MOL0     H90614   7.929   1.269   2.579 -0.4793 -0.9760  0.2032
  657MOL0     H90615   7.753   1.409   2.894 -0.3845 -0.9553  0.2233
  657MOL0     H90616   7.609   1.275   3.082  1.6373  0.3471 -1.0809
  657MOL0     H90617   7.655   1.100   3.094  1.7994  1.9912  1.5610
  657MOL0     H90618   7.522   1.054   2.897  3.7422 -0.5576  1.5546
  657MOL0     H90619   7.429   1.118   3.037  1.2567 -0.8358  0.7287
  657MOL0     H90620   7.508   1.251   2.783 -0.9285 -0.5569 -0.6228
  657MOL0     H90621   7.340   1.215   2.828 -0.6935  1.3656 -1.5318
  657MOL0     H90622   7.532   1.417   2.964 -0.6497 -1.4054  2.3392
  657MOL0     H90623   7.427   1.464   2.828  0.9001  2.4674  2.2418
  657MOL0     H90624   7.535   1.553   3.172  0.4001 -0.5960 -1.8983
  657MOL0     H90625   7.709   1.517   3.340  0.5497  4.0836 -0.7763
  657MOL0     H90626   7.636   1.518   3.514 -0.8672 -2.3258  0.1691
  657MOL0     H90627   7.607   1.640   3.386 -1.9553 -0.1521  0.4260
  657MOL0     H90628   7.593   1.089   3.666  1.2235  0.4804  0.1257
  657MOL0     H90629   7.654   0.998   3.886  1.0633  0.7830 -0.8266
  657MOL0     H90630   7.549   1.228   4.226  1.0495  0.0543 -0.4588
  657MOL0     H90631   7.520   1.065   4.290 -0.7532  0.1822 -0.9016
  657MOL0     H90632   7.734   1.151   4.372 -0.3561 -1.2589  0.1368
  657MOL0     H90633   7.742   1.006   4.286 -0.3507 -0.5990 -0.0116
  657MOL0     H90634   7.791   1.132   4.072  0.1991 -0.5455 -0.0042
  657MOL0     H90635   7.922   1.124   4.193 -1.5892 -2.1552  1.8839
  657MOL0     H90636   7.721   1.365   4.160 -1.8345 -0.5879 -6.8792
  657MOL0     H90637   7.854   1.380   4.064 -3.7553  0.0911 -1.2413
  657MOL0     H90638   7.870   1.463   4.313 -0.0339 -0.5147  1.7497
  657MOL0     H90639   7.924   1.307   4.356  1.8701 -0.4555 -0.9995
  657MOL0     H90640   8.072   1.475   4.143  3.1372 -2.0570 -1.0666
  657MOL0     H90641   8.107   1.319   4.182  1.2893  0.0876  0.8700
  657MOL0     H90642   8.189   1.378   4.392 -0.8746  0.8987  1.2329
  657MOL0     H90643   8.088   1.520   4.412 -1.7445 -0.3912 -0.8630
  657MOL0     H90644   8.210   1.625   4.231  1.1719  1.3386  0.9627
  657MOL0     H90645   8.331   1.488   4.241 -0.5102 -1.0366 -0.5759
  657MOL0     H90646   7.366   1.246   4.069 -1.0249 -0.2163 -0.8204
  657MOL0     H90647   7.317   1.366   3.845  1.2492  1.9250 -0.8098
  657MOL0     H90648   7.253   1.238   3.418 -1.3421  0.8303 -1.4796
  657MOL0     H90649   7.205   1.270   3.190  0.0322  0.1227  0.2237
  657MOL0     H90650   7.789   2.002   3.260 -0.8682  0.6075  1.2610
  657MOL0     H90651   7.551   1.996   3.265 -0.0741  0.7044 -0.0214
  657MOL0     H90652   7.120   2.262   3.133  3.1287 -0.9984  1.9480
  657MOL0     H90653   6.909   2.216   3.241  1.1002 -0.5732  2.5160
  657MOL0     H90654   6.741   1.798   3.216 -1.2208 -1.0771  0.3332
  657MOL0     H90655   6.611   1.908   3.266 -1.4113 -1.5643 -1.5018
  657MOL0     H90656   6.567   1.860   3.030 -1.8721  0.8489  5.1849
  657MOL0     H90657   6.719   1.927   2.975 -1.7762  0.9308 -2.3388
  657MOL0     H90658   6.657   2.146   3.054  0.6959 -0.2691  2.0741
  657MOL0     H90659   6.541   2.084   2.933 -0.7151  2.9857  0.4871
  657MOL0     H90660   6.418   2.206   3.094  3.1743  1.2202 -0.2153
  657MOL0     H90661   6.513   2.139   3.225 -0.5574  1.0812  0.3013
  657MOL0     H90662   6.262   1.827   3.250 -0.7667  0.2984 -0.6602
  657MOL0     H90663   6.931   1.807   3.111 -0.0293  0.4321 -0.6758
  657MOL0     H90664   7.095   1.709   3.012 -2.0783  1.5551 -0.1528
  657MOL0     H90665   7.175   1.809   2.901 -1.5619 -2.2995 -0.3709
  657MOL0     H90666   7.259   1.767   3.050  0.9307  2.4717  0.5951
  658MOL0     O90667   6.211   8.209   6.201  0.0350 -0.2603 -0.4123
  658MOL0     C90668   6.291   8.119   6.173  0.5286 -0.7658  0.1586
  658MOL0     O90669   6.408   8.101   6.244 -0.2199 -0.1957  0.1478
  658MOL0     C90670   6.452   8.186   6.339  0.6990 -0.3405 -0.2317
  658MOL0     C90671   6.384   8.208   6.460  0.2960 -0.0341  0.3173
  658MOL0     C90672   6.427   8.305   6.546 -0.0245 -0.5100 -0.2468
  658MOL0     C90673   6.540   8.374   6.525 -0.6119 -0.5448 -0.0399
  658MOL0     O90674   6.587   8.478   6.603 -0.3851  0.1529 -0.1376
  658MOL0     C90675   6.555   8.475   6.749 -0.5191 -0.2694  0.3350
  658MOL0     C90676   6.614   8.587   6.838  0.5438  0.4409 -0.2400
  658MOL0     C90677   6.537   8.592   6.971  1.6612  0.0981  0.5695
  658MOL0     C90678   6.607   8.683   7.068 -0.4409  0.2163 -0.4520
  658MOL0     C90679   6.535   8.681   7.205  0.3695 -0.5673 -0.2881
  658MOL0     C90680   6.598   8.775   7.309 -0.3036 -1.0400 -0.2827
  658MOL0     C90681   6.512   8.807   7.430  0.6038  0.0077 -0.3268
  658MOL0     C90682   6.512   8.698   7.541 -0.1837 -0.1178  0.2150
  658MOL0     N90683   6.442   8.744   7.661  0.3697  0.3069 -0.5314
  658MOL0     C90684   6.336   8.678   7.717 -0.3486 -0.0790 -0.1497
  658MOL0     C90685   6.306   8.755   7.828  0.3772 -0.1535  1.2981
  658MOL0     C90686   6.176   8.739   7.902  0.3203  0.3341  0.3536
  658MOL0     C90687   6.076   8.835   7.856  0.8961 -0.6747 -0.8882
  658MOL0     C90688   5.923   8.816   7.899  0.6092  0.7510 -0.9513
  658MOL0     C90689   5.922   8.848   8.053 -0.4138 -0.4262  0.3771
  658MOL0     O90690   5.793   8.806   8.102 -0.4467 -0.1119  1.1556
  658MOL0     C90691   5.756   8.854   8.235  0.2213 -0.3458  1.4945
  658MOL0     C90692   5.835   8.856   8.352  0.0258 -0.1720  0.4317
  658MOL0     C90693   5.775   8.871   8.475  0.0361 -0.3699 -0.7541
  658MOL0     C90694   5.864   8.887   8.602  0.3609  0.6361  0.5801
  658MOL0     C90695   5.631   8.887   8.483 -0.7802 -0.6241  0.2216
  658MOL0     C90696   5.558   8.882   8.610 -0.3926  0.4646 -0.2858
  658MOL0     O90697   5.436   8.940   8.621 -0.5940 -0.0250 -0.3194
  658MOL0     C90698   5.365   8.954   8.741 -0.7366 -0.0018  0.5423
  658MOL0     C90699   5.394   8.894   8.870  0.8866 -0.1067  0.4706
  658MOL0     C90700   5.310   8.940   8.975 -0.2353  0.7125 -0.0133
  658MOL0     C90701   5.202   9.019   8.962  0.6173 -0.2186  0.0579
  658MOL0     O90702   5.130   9.044   9.077  0.0282 -0.0374 -0.2810
  658MOL0     C90703   5.007   9.109   9.068 -0.0245 -0.1624  0.2520
  658MOL0     C90704   4.937   9.118   9.200  0.0097  0.0750  0.4891
  658MOL0     C90705   5.005   9.218   9.317 -0.0057  0.3051  2.0692
  658MOL0     C90706   4.922   9.204   9.445  0.4609 -0.0926 -0.4057
  658MOL0     C90707   4.991   9.272   9.567 -0.5393  0.5067 -0.1655
  658MOL0     C90708   4.924   9.247   9.699  0.6881  0.5954  0.4711
  658MOL0     C90709   4.994   9.311   9.820  0.3959 -0.3026 -0.7120
  658MOL0     C90710   4.928   9.294   9.953  0.5743 -0.5229  0.0816
  658MOL0    Cl90711   4.806   9.416   9.987  0.0322  0.1254 -0.1329
  658MOL0     C90712   5.180   9.074   8.838 -0.1507 -0.8358 -0.1741
  658MOL0     C90713   5.262   9.045   8.727  0.2621  0.0265  0.2198
  658MOL0     O90714   5.604   8.815   8.699 -0.0034 -0.0638  0.5452
  658MOL0     C90715   5.549   8.882   8.360 -0.7066 -0.3028  0.4208
  658MOL0     C90716   5.615   8.869   8.236 -0.1157  0.5323 -0.0894
  658MOL0     N90717   6.377   8.866   7.825 -0.2583 -0.5122  0.6041
  658MOL0     N90718   6.469   8.859   7.733 -0.4803  0.3652  0.7754
  658MOL0     C90719   6.618   8.341   6.416  0.6242 -0.3613  0.5410
  658MOL0     C90720   6.568   8.257   6.313 -0.6494 -0.0066  0.4770
  658MOL0     C90721   6.259   8.001   6.091  0.6419 -1.1917 -0.0448
  658MOL0     C90722   6.259   7.875   6.158  0.3498 -0.3530 -0.0714
  658MOL0     C90723   6.226   7.756   6.089 -0.3880 -0.1177 -0.0217
  658MOL0     C90724   6.195   7.759   5.957  0.0098  0.0174 -0.0195
  658MOL0     O90725   6.147   7.657   5.873 -1.0698  0.5543 -0.0765
  658MOL0     C90726   6.126   7.530   5.922 -0.8457  0.2619 -0.1097
  658MOL0     C90727   6.024   7.462   5.836  1.0385  0.4278  0.2058
  658MOL0     C90728   6.011   7.311   5.866 -0.5453  0.1112 -0.3534
  658MOL0     C90729   5.967   7.273   6.009 -0.1700 -0.1882 -0.2456
  658MOL0     C90730   6.070   7.282   6.115  0.0238  0.1018 -0.7963
  658MOL0     C90731   6.172   7.278   6.183 -0.0487  0.6092 -0.2693
  658MOL0     C90732   6.200   7.881   5.896  0.6999 -0.0884  0.0349
  658MOL0     C90733   6.218   8.009   5.952 -1.2891  0.3784 -0.1111
  658MOL0     C90734   6.213   8.131   5.867 -0.1727 -0.6360 -0.6678
  658MOL0     H90735   6.297   8.144   6.469  2.4229 -3.3719 -0.8814
  658MOL0     H90736   6.362   8.318   6.632 -0.2594 -0.8532 -0.3722
  658MOL0     H90737   6.605   8.388   6.791  2.0693  0.1435 -1.6505
  658MOL0     H90738   6.446   8.481   6.752 -0.4847  1.3694 -0.5773
  658MOL0     H90739   6.721   8.578   6.857  0.6073  1.5549 -0.0259
  658MOL0     H90740   6.584   8.683   6.794  0.1668 -0.9641 -3.2734
  658MOL0     H90741   6.433   8.619   6.952 -0.0637 -5.8728 -0.4550
  658MOL0     H90742   6.520   8.492   7.012  0.2258 -1.5350 -3.5247
  658MOL0     H90743   6.710   8.644   7.077 -1.3432 -2.8657 -1.9497
  658MOL0     H90744   6.606   8.783   7.025 -0.6981  0.3024 -0.2469
  658MOL0     H90745   6.525   8.576   7.235 -0.6776 -0.6479 -0.8792
  658MOL0     H90746   6.441   8.729   7.177  0.9901  0.1591 -1.1425
  658MOL0     H90747   6.700   8.750   7.337  0.9117  1.3360 -2.1275
  658MOL0     H90748   6.605   8.873   7.260  0.4718 -1.1757 -0.4539
  658MOL0     H90749   6.413   8.819   7.386  0.8385  1.6033 -0.4705
  658MOL0     H90750   6.528   8.901   7.483 -3.8893 -0.4993  2.4461
  658MOL0     H90751   6.470   8.603   7.505  0.1460  0.5055 -1.9422
  658MOL0     H90752   6.616   8.679   7.572 -0.2047  0.2643  0.5264
  658MOL0     H90753   6.284   8.590   7.680 -0.9488 -0.3301  1.2457
  658MOL0     H90754   6.202   8.754   8.008  2.9157 -0.5682 -0.0655
  658MOL0     H90755   6.149   8.633   7.891 -0.2284  0.3872  1.1380
  658MOL0     H90756   6.112   8.936   7.876 -1.6859  0.2455 -0.4483
  658MOL0     H90757   6.071   8.831   7.746  0.5830 -1.3608 -0.8574
  658MOL0     H90758   5.863   8.883   7.837 -1.1359 -1.3581 -1.6926
  658MOL0     H90759   5.896   8.711   7.883  0.6702  0.7210 -0.8546
  658MOL0     H90760   5.999   8.791   8.105  2.9762  3.4302  0.1238
  658MOL0     H90761   5.946   8.954   8.068 -1.0286 -0.5289  2.2828
  658MOL0     H90762   5.940   8.832   8.338 -0.0270 -0.5754  0.7175
  658MOL0     H90763   5.861   8.993   8.627  0.0160  1.4116 -2.3560
  658MOL0     H90764   5.970   8.865   8.591  1.0362  2.3492  2.9293
  658MOL0     H90765   5.836   8.820   8.684  0.9595  0.0697  0.3341
  658MOL0     H90766   5.468   8.817   8.889 -0.9938 -2.0696  0.2693
  658MOL0     H90767   5.331   8.881   9.064 -1.1294 -1.0574 -0.9159
  658MOL0     H90768   5.020   9.208   9.022 -1.9216  0.3757  0.7787
  658MOL0     H90769   4.947   9.048   9.000 -2.5996  1.7663  0.6596
  658MOL0     H90770   4.838   9.164   9.189  1.1485  2.1791 -2.3600
  658MOL0     H90771   4.925   9.017   9.239 -1.8832  0.6068  1.3837
  658MOL0     H90772   5.000   9.322   9.284 -2.8887 -0.0474  1.0489
  658MOL0     H90773   5.106   9.181   9.338  1.0492  2.5576  1.2878
  658MOL0     H90774   4.895   9.102   9.472 -2.2441  1.1711  2.2925
  658MOL0     H90775   4.822   9.248   9.435 -1.1216 -3.4105 -0.5676
  658MOL0     H90776   5.093   9.233   9.572 -1.3047 -1.4908  1.1798
  658MOL0     H90777   5.005   9.379   9.548 -1.4774  0.8425  0.8901
  658MOL0     H90778   4.934   9.138   9.700 -1.9846  0.0576 -4.0938
  658MOL0     H90779   4.819   9.276   9.704  0.4985 -0.2500  2.1783
  658MOL0     H90780   5.004   9.419   9.810  0.8410 -0.2903 -0.1582
  658MOL0     H90781   5.095   9.271   9.835  0.3272  0.7638  3.8100
  658MOL0     H90782   5.003   9.312  10.030 -0.0171 -0.9406  0.7696
  658MOL0     H90783   4.880   9.197   9.971 -0.8541 -0.3322 -2.3639
  658MOL0     H90784   5.099   9.144   8.819  0.9475  0.8349  1.0661
  658MOL0     H90785   5.245   9.089   8.629  0.7069 -0.8564 -0.2623
  658MOL0     H90786   5.443   8.896   8.380  0.0876  2.7562  3.5095
  658MOL0     H90787   5.561   8.847   8.145  1.5287  2.3008 -1.5852
  658MOL0     H90788   6.711   8.391   6.393 -1.1924  3.3708  0.5056
  658MOL0     H90789   6.623   8.238   6.221 -1.8970 -2.7104  0.1977
  658MOL0     H90790   6.306   7.859   6.255  1.5934 -1.9505 -0.9100
  658MOL0     H90791   6.227   7.659   6.138  1.9187 -0.8791 -1.4228
  658MOL0     H90792   6.211   7.467   5.896 -0.6914  1.1698 -2.0340
  658MOL0     H90793   6.113   7.520   6.030 -0.6292 -1.0973 -0.1932
  658MOL0     H90794   6.047   7.488   5.732 -1.2133  0.0170 -0.4330
  658MOL0     H90795   5.928   7.505   5.866 -0.6084 -1.8537 -1.4829
  658MOL0     H90796   5.929   7.269   5.807 -0.5395 -0.3220 -0.0569
  658MOL0     H90797   6.101   7.256   5.838  0.9509  2.6533 -0.8048
  658MOL0     H90798   5.933   7.168   6.009 -0.7960 -0.0103  1.0477
  658MOL0     H90799   5.878   7.327   6.044  2.0911  1.7476  3.0429
  658MOL0     H90800   6.269   7.278   6.230 -0.6558 -2.8113  1.3539
  658MOL0     H90801   6.185   7.877   5.789  2.8931  0.4128 -0.3396
  658MOL0     H90802   6.182   8.219   5.924  0.8314 -2.1823  2.4663
  658MOL0     H90803   6.311   8.143   5.821 -0.4742  0.5631 -1.0446
  658MOL0     H90804   6.138   8.109   5.790 -0.0962  0.9946 -1.2475
  659MOL0     O90805   5.491   6.389   6.955  0.1482  0.1488  1.5099
  659MOL0     C90806   5.575   6.365   7.040  0.1791 -0.1408  0.7053
  659MOL0     O90807   5.539   6.322   7.166 -0.6908 -0.2644  0.1171
  659MOL0     C90808   5.406   6.330   7.212  0.1203  0.3367  0.9271
  659MOL0     C90809   5.318   6.442   7.192 -0.7958  0.4528 -0.1105
  659MOL0     C90810   5.187   6.449   7.242  0.5086 -0.0898  0.0872
  659MOL0     C90811   5.129   6.336   7.314 -0.6009 -0.5843 -0.0486
  659MOL0     O90812   4.995   6.343   7.360 -0.0824  0.1333 -0.8341
  659MOL0     C90813   4.921   6.232   7.418 -0.3218  0.4205 -0.3081
  659MOL0     C90814   4.907   6.231   7.569 -0.1649 -1.3047 -0.2639
  659MOL0     C90815   5.024   6.303   7.637  0.4277  0.7896  0.4218
  659MOL0     C90816   5.046   6.265   7.783 -1.0056  0.2878  0.0056
  659MOL0     C90817   5.067   6.114   7.810 -0.2329  0.2685  0.4499
  659MOL0     C90818   5.179   6.043   7.724 -0.1141 -0.0203  0.6412
  659MOL0     C90819   5.215   5.919   7.802  0.1486  0.4048 -0.1228
  659MOL0     C90820   5.293   5.819   7.719 -0.2645  0.2890 -0.0536
  659MOL0     N90821   5.404   5.897   7.660 -0.2090  0.4152  0.0808
  659MOL0     C90822   5.521   5.947   7.724 -0.7170  0.5590 -0.1069
  659MOL0     C90823   5.582   6.022   7.637  0.4948  0.3235 -0.2213
  659MOL0     C90824   5.716   6.093   7.659  0.0205 -0.4087 -0.2817
  659MOL0     C90825   5.752   6.207   7.561  0.2581  0.7156 -0.6870
  659MOL0     C90826   5.877   6.286   7.607 -0.2234 -0.4176 -0.3534
  659MOL0     C90827   5.841   6.436   7.641  0.6965  0.6223 -0.0552
  659MOL0     O90828   5.904   6.467   7.757 -1.1438 -0.7088  0.2519
  659MOL0     C90829   5.888   6.605   7.784  0.7538  0.1965 -0.9017
  659MOL0     C90830   5.942   6.700   7.708 -0.4930  0.2728 -0.5734
  659MOL0     C90831   5.933   6.833   7.734  0.3829 -0.6586 -0.1018
  659MOL0     C90832   5.998   6.928   7.626 -0.5098 -0.7055  0.5987
  659MOL0     C90833   5.867   6.876   7.853  0.4203  0.5143 -0.1239
  659MOL0     C90834   5.868   7.014   7.906 -0.7693  0.5199 -0.7274
  659MOL0     O90835   5.853   7.111   7.810  0.5754  0.0467 -0.0552
  659MOL0     C90836   5.839   7.237   7.838  0.1804 -0.8088 -0.1389
  659MOL0     C90837   5.923   7.305   7.928  0.0051  0.4886 -0.2287
  659MOL0     C90838   5.877   7.426   7.986 -0.3323 -0.5112  0.5070
  659MOL0     C90839   5.787   7.501   7.926  0.0297  0.0884  0.4076
  659MOL0     O90840   5.767   7.626   7.988 -0.3370  0.4960 -0.3511
  659MOL0     C90841   5.635   7.656   8.026 -0.6422 -0.3268 -1.0073
  659MOL0     C90842   5.608   7.630   8.181 -0.1976 -0.0817 -0.2455
  659MOL0     C90843   5.738   7.639   8.266  1.0846 -0.1494  0.1680
  659MOL0     C90844   5.698   7.600   8.406 -0.7984 -0.5238 -1.0678
  659MOL0     C90845   5.797   7.630   8.513 -0.5197 -0.5759 -0.1348
  659MOL0     C90846   5.759   7.572   8.640  0.3015  1.1105 -1.6350
  659MOL0     C90847   5.764   7.422   8.668 -0.9732 -0.2118 -0.6424
  659MOL0     C90848   5.749   7.382   8.813 -0.7756 -0.9683 -0.3283
  659MOL0    Cl90849   5.909   7.347   8.889  0.6500  0.1991  0.5013
  659MOL0     C90850   5.704   7.437   7.832 -0.0102 -0.1503 -0.0764
  659MOL0     C90851   5.729   7.298   7.788  1.0599 -0.5364 -0.8712
  659MOL0     O90852   5.877   7.031   8.030  0.1304  0.2068  0.0920
  659MOL0     C90853   5.813   6.773   7.933 -0.2543  0.5162  0.2578
  659MOL0     C90854   5.829   6.642   7.902  0.0172 -0.1732 -0.0357
  659MOL0     N90855   5.508   6.021   7.519  0.4804 -0.0521 -0.4089
  659MOL0     N90856   5.407   5.941   7.535 -0.4891 -0.1674 -0.0430
  659MOL0     C90857   5.217   6.231   7.340  0.2997 -0.1844 -0.2293
  659MOL0     C90858   5.345   6.222   7.279  0.3229 -0.7308 -0.5665
  659MOL0     C90859   5.711   6.386   7.010  0.0949  0.3223 -0.0116
  659MOL0     C90860   5.736   6.469   6.895 -0.4666  0.1277 -0.3935
  659MOL0     C90861   5.867   6.492   6.861  0.5534 -0.5951 -0.4740
  659MOL0     C90862   5.982   6.442   6.931 -0.0147  0.6903  0.2416
  659MOL0     O90863   6.113   6.454   6.891 -0.2417 -0.7027 -0.2760
  659MOL0     C90864   6.145   6.577   6.826  0.6441  0.3878 -0.0979
  659MOL0     C90865   6.144   6.692   6.934  0.7396 -0.1953  0.8933
  659MOL0     C90866   6.194   6.828   6.898 -0.1953 -0.2726  1.2726
  659MOL0     C90867   6.191   6.925   7.015  0.0632 -0.2676  0.4694
  659MOL0     C90868   6.173   7.056   6.965  0.2410  0.8458  0.1880
  659MOL0     C90869   6.163   7.170   6.918 -0.4284  0.3174  0.3682
  659MOL0     C90870   5.953   6.362   7.044  0.1838  0.0142  0.4551
  659MOL0     C90871   5.822   6.340   7.083  0.6713 -0.4121 -0.0019
  659MOL0     C90872   5.809   6.254   7.211 -0.2596  0.0457 -0.6882
  659MOL0     H90873   5.359   6.527   7.139  1.9158  0.5018  1.8521
  659MOL0     H90874   5.137   6.545   7.232 -1.9707 -1.2830  0.1762
  659MOL0     H90875   4.975   6.140   7.393  2.1687  2.2250 -2.1904
  659MOL0     H90876   4.824   6.231   7.367 -0.0511  3.5184 -1.0947
  659MOL0     H90877   4.815   6.284   7.596 -0.4159 -1.8368 -0.0395
  659MOL0     H90878   4.902   6.127   7.603  1.8814 -2.3516 -2.8855
  659MOL0     H90879   5.120   6.272   7.594 -0.9991 -2.4322 -0.6996
  659MOL0     H90880   5.018   6.411   7.619 -2.3297  0.7905  0.9779
  659MOL0     H90881   5.136   6.319   7.815  0.7890  0.2887 -4.2688
  659MOL0     H90882   4.961   6.298   7.842 -2.3527 -0.9625 -1.1679
  659MOL0     H90883   4.966   6.075   7.794  1.1546 -2.5244 -2.9753
  659MOL0     H90884   5.086   6.119   7.917 -0.8169  1.9814  0.4924
  659MOL0     H90885   5.138   6.009   7.629  1.3238 -1.5404  0.5200
  659MOL0     H90886   5.260   6.112   7.699  0.0868  0.0541  1.4523
  659MOL0     H90887   5.126   5.880   7.852 -0.3891 -0.6118 -1.7944
  659MOL0     H90888   5.276   5.958   7.885  0.6081  0.3688 -0.4397
  659MOL0     H90889   5.338   5.736   7.774  5.4074  0.0770 -4.0928
  659MOL0     H90890   5.224   5.781   7.643 -2.9360  0.3602  2.1829
  659MOL0     H90891   5.563   5.928   7.822 -0.3476  1.8824  0.0087
  659MOL0     H90892   5.804   6.028   7.660  1.6748  1.7222  0.7564
  659MOL0     H90893   5.717   6.141   7.758  3.7914 -0.7859 -0.0129
  659MOL0     H90894   5.784   6.144   7.478  0.9671 -0.3811  0.3801
  659MOL0     H90895   5.661   6.267   7.549 -1.5766 -0.4665  4.6207
  659MOL0     H90896   5.912   6.249   7.704  0.1732  3.2386  1.0556
  659MOL0     H90897   5.948   6.283   7.523 -1.4194 -0.0126 -1.4075
  659MOL0     H90898   5.870   6.497   7.555 -0.0731  0.0854 -0.7063
  659MOL0     H90899   5.736   6.459   7.659 -0.3301 -0.1692 -4.1657
  659MOL0     H90900   5.995   6.678   7.616 -2.5678 -0.6772 -1.6214
  659MOL0     H90901   6.001   7.035   7.649  3.8206 -0.5083 -0.0875
  659MOL0     H90902   5.949   6.922   7.529 -1.4407  3.3400  0.6325
  659MOL0     H90903   6.104   6.902   7.616 -0.9156 -2.8824  1.4154
  659MOL0     H90904   6.014   7.250   7.952  0.5907 -0.2181 -3.5599
  659MOL0     H90905   5.941   7.479   8.055 -0.3774 -0.4539  0.5051
  659MOL0     H90906   5.635   7.765   8.021 -1.5412 -0.1013  1.8580
  659MOL0     H90907   5.547   7.616   7.975 -1.7042  0.7908 -0.1296
  659MOL0     H90908   5.536   7.696   8.231  1.1257 -1.7548  4.2713
  659MOL0     H90909   5.558   7.533   8.186 -1.2422  0.4049 -0.7089
  659MOL0     H90910   5.772   7.743   8.258  0.0492  0.0782 -2.0218
  659MOL0     H90911   5.812   7.563   8.239  0.9055 -0.8207  1.4867
  659MOL0     H90912   5.658   7.498   8.415 -3.6533  0.6947  1.5609
  659MOL0     H90913   5.611   7.662   8.428 -1.7035 -2.7822  2.6887
  659MOL0     H90914   5.893   7.591   8.477 -0.7875 -1.2613 -0.1193
  659MOL0     H90915   5.816   7.735   8.534  0.8332 -0.8138 -0.0810
  659MOL0     H90916   5.652   7.590   8.651 -0.3960 -2.4924 -1.4217
  659MOL0     H90917   5.815   7.610   8.726  1.0911 -3.7079  0.2520
  659MOL0     H90918   5.851   7.373   8.625 -1.0980 -1.8147  0.8475
  659MOL0     H90919   5.695   7.367   8.602  2.5766 -0.6014 -4.4650
  659MOL0     H90920   5.702   7.283   8.818 -0.8974 -0.8833  0.2987
  659MOL0     H90921   5.690   7.458   8.865  2.3529  2.0917 -0.8595
  659MOL0     H90922   5.629   7.496   7.781  1.2855  1.7354  0.1292
  659MOL0     H90923   5.676   7.243   7.710 -0.6040 -1.4857  0.8491
  659MOL0     H90924   5.748   6.796   8.017 -2.0179  0.2412 -0.9602
  659MOL0     H90925   5.768   6.567   7.951  0.3563  0.8356  2.0367
  659MOL0     H90926   5.195   6.140   7.394 -0.9408  0.2309 -0.0076
  659MOL0     H90927   5.413   6.139   7.295 -0.1985 -0.8757  1.0315
  659MOL0     H90928   5.654   6.522   6.847  1.1406  1.9193 -1.3390
  659MOL0     H90929   5.883   6.555   6.774 -2.6225 -1.9127 -2.1943
  659MOL0     H90930   6.248   6.559   6.793  0.8745 -1.3013  1.4532
  659MOL0     H90931   6.077   6.603   6.744 -2.2596 -0.2265  1.9727
  659MOL0     H90932   6.204   6.653   7.016  0.2807 -2.4942  0.1922
  659MOL0     H90933   6.038   6.708   6.956 -0.6693 -2.7909 -3.0608
  659MOL0     H90934   6.293   6.812   6.853 -1.1009 -1.0149 -0.5509
  659MOL0     H90935   6.122   6.874   6.830  0.0489  1.6658  2.2637
  659MOL0     H90936   6.282   6.921   7.074  1.0136  2.9025 -0.6000
  659MOL0     H90937   6.108   6.892   7.078  1.6823 -2.6421  1.5012
  659MOL0     H90938   6.189   7.255   6.858 -0.3299  0.4011  0.5272
  659MOL0     H90939   6.038   6.316   7.094 -0.5775  0.3247  2.0787
  659MOL0     H90940   5.789   6.332   7.286 -1.5913 -0.0421 -0.9279
  659MOL0     H90941   5.724   6.186   7.214  0.9536 -1.4990  0.1712
  659MOL0     H90942   5.900   6.196   7.228 -0.4794 -0.6696 -1.8413
  660MOL0     O90943   2.840  10.212   9.382  0.0277  0.1321 -0.1531
  660MOL0     C90944   2.825  10.108   9.317 -0.3239 -0.6326  0.7675
  660MOL0     O90945   2.760   9.989   9.357 -0.1877  0.4193 -0.7055
  660MOL0     C90946   2.699   9.998   9.482 -0.4538 -0.3712  0.7185
  660MOL0     C90947   2.565  10.034   9.511  0.9620 -0.2416 -0.0080
  660MOL0     C90948   2.520  10.033   9.647 -0.0522 -0.0229 -0.3999
  660MOL0     C90949   2.602  10.002   9.752 -0.9454 -0.6874 -0.4425
  660MOL0     O90950   2.566  10.015   9.883 -0.4380 -0.9914  0.0266
  660MOL0     C90951   2.501   9.902   9.942  0.1311  0.3097  0.2198
  660MOL0     C90952   2.427   9.943  10.069 -0.1835 -0.5478 -0.2951
  660MOL0     C90953   2.392   9.816  10.155 -0.7261 -0.6133 -0.3539
  660MOL0     C90954   2.302   9.864  10.278 -0.3821 -0.1917  0.2191
  660MOL0     C90955   2.278   9.744  10.366  0.0987  0.0345  0.6141
  660MOL0     C90956   2.171   9.777  10.470  0.0021 -0.0282 -0.1128
  660MOL0     C90957   2.122   9.658  10.555  0.1544  0.0767  0.5361
  660MOL0     C90958   2.019   9.704  10.658  0.2533  0.6743 -0.4020
  660MOL0     N90959   1.979   9.596  10.745 -0.5402 -0.5184 -0.1586
  660MOL0     C90960   1.964   9.612  10.878  0.5729  0.3176  0.6209
  660MOL0     C90961   1.923   9.495  10.920 -0.2378  0.4781  0.5676
  660MOL0     C90962   1.872   9.458  11.057  0.6907 -1.0931 -0.0314
  660MOL0     C90963   1.826   9.318  11.075  0.3342 -0.2967  0.3489
  660MOL0     C90964   1.950   9.223  11.104  0.1179 -0.4891 -0.3609
  660MOL0     C90965   1.900   9.084  11.141 -0.9087  1.5409  0.0434
  660MOL0     O90966   2.012   8.992  11.157 -0.3696  0.1336 -0.3817
  660MOL0     C90967   1.966   8.876  11.203 -0.7312 -0.2291  0.4690
  660MOL0     C90968   1.922   8.778  11.115  0.0814 -1.1422  0.1448
  660MOL0     C90969   1.878   8.652  11.160  0.4013 -0.4296  0.3240
  660MOL0     C90970   1.853   8.553  11.050  0.2985  0.6564  0.9480
  660MOL0     C90971   1.873   8.620  11.293  0.5274  0.5515  0.5124
  660MOL0     C90972   1.829   8.477  11.342  0.3329 -0.3254 -0.2636
  660MOL0     O90973   1.801   8.462  11.471  0.4449  0.2011 -0.9614
  660MOL0     C90974   1.724   8.353  11.504 -0.0262  0.2707  0.6487
  660MOL0     C90975   1.584   8.358  11.514  0.7017 -0.0368  0.8486
  660MOL0     C90976   1.507   8.241  11.530 -0.4000 -0.0082  0.2209
  660MOL0     C90977   1.579   8.118  11.530 -0.1751  0.4167 -0.4182
  660MOL0     O90978   1.496   8.006  11.549 -0.3447 -0.2300  0.1875
  660MOL0     C90979   1.551   7.882  11.600 -0.5219  0.0603  0.3377
  660MOL0     C90980   1.594   7.786  11.483  0.2588 -0.2672  0.4307
  660MOL0     C90981   1.472   7.746  11.399 -0.4276  0.1960  0.7140
  660MOL0     C90982   1.384   7.639  11.459  0.0897  0.8488 -1.1890
  660MOL0     C90983   1.449   7.497  11.481  0.4213 -0.2070 -1.2882
  660MOL0     C90984   1.356   7.433  11.581 -0.3987  0.7230 -0.2401
  660MOL0     C90985   1.371   7.289  11.605 -0.5136  0.1292 -0.6403
  660MOL0     C90986   1.513   7.230  11.620 -1.1441  0.6999 -0.2702
  660MOL0    Cl90987   1.474   7.056  11.619 -0.1359 -0.0374  0.1490
  660MOL0     C90988   1.716   8.111  11.544 -0.6219 -0.7567 -0.1967
  660MOL0     C90989   1.789   8.226  11.526 -0.4677  0.1933 -0.6523
  660MOL0     O90990   1.846   8.385  11.268  0.6329  0.5073  0.3125
  660MOL0     C90991   1.917   8.726  11.382  0.0234  0.1979 -0.7710
  660MOL0     C90992   1.950   8.856  11.342 -0.1532 -0.1086  1.0124
  660MOL0     N90993   1.934   9.410  10.818 -0.3727  0.2266 -0.2241
  660MOL0     N90994   1.957   9.472  10.706  0.3538 -0.2465  0.1909
  660MOL0     C90995   2.739   9.964   9.725 -0.2882 -1.2701  0.4185
  660MOL0     C90996   2.781   9.967   9.592 -0.1829  0.2891 -0.1902
  660MOL0     C90997   2.888  10.098   9.178  0.1550 -0.7145 -0.4445
  660MOL0     C90998   2.879   9.977   9.115 -0.0563 -0.4818 -0.0470
  660MOL0     C90999   2.956   9.955   8.991  0.3721 -0.5934 -0.8522
  660MOL0     C91000   3.027  10.054   8.924 -0.4855 -0.0443 -0.3778
  660MOL0     O91001   3.072  10.032   8.794 -0.6559 -0.3616  0.3843
  660MOL0     C91002   3.167   9.927   8.780 -0.0912  0.3334 -0.4140
  660MOL0     C91003   3.286   9.967   8.684 -0.0147 -0.5915  1.0303
  660MOL0     C91004   3.225  10.042   8.558 -0.2259 -0.4054 -0.4727
  660MOL0     C91005   3.216  10.191   8.587  0.2534  0.3035  0.9559
  660MOL0     C91006   3.095  10.257   8.545 -0.1545  0.0921 -0.5961
  660MOL0     C91007   2.998  10.314   8.504 -0.2752 -0.3000 -0.0706
  660MOL0     C91008   3.021  10.179   8.972  0.9281 -0.3636  0.0152
  660MOL0     C91009   2.947  10.202   9.095  0.4400 -0.2783  0.2267
  660MOL0     C91010   2.939  10.356   9.135 -0.6967  0.7467 -0.7850
  660MOL0     H91011   2.498  10.035   9.426 -0.5328 -2.2906  1.0710
  660MOL0     H91012   2.413  10.029   9.663  0.1693 -1.6478  0.9481
  660MOL0     H91013   2.567   9.818   9.968 -0.7255 -0.4513 -0.0142
  660MOL0     H91014   2.427   9.849   9.881 -1.5553  2.5947  0.1456
  660MOL0     H91015   2.490  10.012  10.125 -1.1426  0.3592 -0.2928
  660MOL0     H91016   2.333   9.991  10.040 -0.7899 -0.6709  1.3738
  660MOL0     H91017   2.329   9.745  10.101 -2.9206 -0.1870  1.4927
  660MOL0     H91018   2.492   9.774  10.168 -1.0305 -2.1255 -2.4346
  660MOL0     H91019   2.355   9.943  10.332  1.7203 -2.0348  1.0084
  660MOL0     H91020   2.205   9.906  10.249  0.9675  2.2533 -1.1831
  660MOL0     H91021   2.372   9.716  10.414  1.3790  1.7494 -0.7863
  660MOL0     H91022   2.262   9.660  10.297 -0.9432  0.7041  0.0069
  660MOL0     H91023   2.207   9.858  10.535  1.3043  0.0662 -0.9137
  660MOL0     H91024   2.078   9.807  10.421 -1.0602  2.4413  3.0561
  660MOL0     H91025   2.200   9.609  10.614  2.0854  1.5292 -0.6961
  660MOL0     H91026   2.062   9.589  10.494 -1.9190  2.5677 -0.3938
  660MOL0     H91027   2.050   9.797  10.706 -2.8151  2.4382 -1.5809
  660MOL0     H91028   1.932   9.735  10.600 -0.1453  4.5897  1.9645
  660MOL0     H91029   1.986   9.701  10.936  1.2384 -0.6768  1.9455
  660MOL0     H91030   1.789   9.528  11.073  1.4066 -1.0417  5.0146
  660MOL0     H91031   1.944   9.486  11.133  0.6941 -0.5172 -0.2377
  660MOL0     H91032   1.752   9.312  11.155 -2.7512  1.2981 -2.1589
  660MOL0     H91033   1.767   9.283  10.990 -0.5492  3.9999 -1.0706
  660MOL0     H91034   2.007   9.211  11.011 -0.1265 -3.5423 -0.2323
  660MOL0     H91035   2.004   9.276  11.183 -1.7249  2.4188 -0.8978
  660MOL0     H91036   1.840   9.086  11.232  1.6969 -3.1106  2.1874
  660MOL0     H91037   1.824   9.055  11.067  0.8390  0.5903 -1.4342
  660MOL0     H91038   1.931   8.808  11.011 -1.8380 -2.1818 -0.3814
  660MOL0     H91039   1.952   8.514  11.027 -0.8370 -1.0532 -1.5410
  660MOL0     H91040   1.823   8.606  10.958 -2.0990  0.1679  1.3861
  660MOL0     H91041   1.771   8.486  11.075  0.2669  0.5658  0.6078
  660MOL0     H91042   1.536   8.455  11.505  1.3838  0.1436 -1.4095
  660MOL0     H91043   1.399   8.245  11.541 -0.4839  0.6320 -0.6993
  660MOL0     H91044   1.635   7.893  11.669 -1.5186  0.2144  1.5493
  660MOL0     H91045   1.470   7.835  11.657 -0.8494  2.0205  1.5747
  660MOL0     H91046   1.670   7.833  11.419  1.4822 -2.5587  0.0964
  660MOL0     H91047   1.650   7.700  11.519  1.7749  0.0467 -1.0483
  660MOL0     H91048   1.518   7.703  11.310 -1.4130  3.8898 -1.8074
  660MOL0     H91049   1.416   7.834  11.367 -0.0117 -0.3471 -1.7295
  660MOL0     H91050   1.300   7.613  11.394  0.3019 -3.7716  0.0144
  660MOL0     H91051   1.345   7.676  11.555 -2.6538 -0.6919 -1.5994
  660MOL0     H91052   1.444   7.440  11.388 -1.2717 -0.5664 -1.0194
  660MOL0     H91053   1.550   7.509  11.522 -0.2714  2.1553 -0.1000
  660MOL0     H91054   1.250   7.457  11.564 -0.8008  0.9373  2.2063
  660MOL0     H91055   1.386   7.487  11.671 -1.9853  3.4699 -1.2241
  660MOL0     H91056   1.336   7.249  11.510 -1.1641  2.6096 -1.5137
  660MOL0     H91057   1.312   7.257  11.692  2.1265 -3.3233  0.1380
  660MOL0     H91058   1.563   7.257  11.714  2.6110 -0.2309 -1.8082
  660MOL0     H91059   1.582   7.242  11.536 -0.7826 -1.2967 -0.3126
  660MOL0     H91060   1.781   8.026  11.563 -0.7906 -0.6747  0.7992
  660MOL0     H91061   1.897   8.232  11.524 -0.3920  0.3007  1.3155
  660MOL0     H91062   1.917   8.697  11.487  0.5361  1.4019 -0.4279
  660MOL0     H91063   1.972   8.932  11.416 -1.4771  2.6852 -1.2488
  660MOL0     H91064   2.806   9.937   9.805  0.1056  0.1689  0.5920
  660MOL0     H91065   2.882   9.942   9.559 -1.2228 -1.2216 -2.5347
  660MOL0     H91066   2.822   9.893   9.155  1.0758 -0.2423  2.2253
  660MOL0     H91067   2.952   9.855   8.948  1.1673 -0.4495 -1.2856
  660MOL0     H91068   3.211   9.898   8.876 -0.3089 -0.6161 -0.5872
  660MOL0     H91069   3.132   9.829   8.745  2.4371  0.6935 -4.7617
  660MOL0     H91070   3.338   9.876   8.652  1.1164  1.8340 -5.7305
  660MOL0     H91071   3.357  10.028   8.740  1.5287 -1.5219  0.1515
  660MOL0     H91072   3.287  10.030   8.469 -0.3469 -0.8934 -0.4971
  660MOL0     H91073   3.129   9.993   8.539 -0.3151 -0.1649 -0.6429
  660MOL0     H91074   3.288  10.250   8.529 -3.3378  2.6525 -1.5655
  660MOL0     H91075   3.236  10.196   8.694  0.6494 -3.1354  1.1636
  660MOL0     H91076   2.913  10.370   8.471  0.1824 -1.4134 -3.5264
  660MOL0     H91077   3.074  10.252   8.911  2.5617  1.0774  2.8966
  660MOL0     H91078   3.038  10.401   9.149  1.4195 -3.7731  1.2887
  660MOL0     H91079   2.901  10.414   9.051  2.7924  4.6696  0.0123
  660MOL0     H91080   2.877  10.378   9.222  1.0955 -0.1059  0.7730
  661MOL0     O91081   0.372   3.608  10.689 -0.7419 -0.2239 -0.5476
  661MOL0     C91082   0.443   3.674  10.764 -0.8995 -0.0626  1.2495
  661MOL0     O91083   0.456   3.806  10.758 -0.2412  0.6724  0.0191
  661MOL0     C91084   0.377   3.896  10.689 -0.2294  1.5601  0.3651
  661MOL0     C91085   0.354   4.025  10.742 -0.1711 -0.0028  0.6985
  661MOL0     C91086   0.290   4.129  10.670 -0.4998  0.4908  0.0648
  661MOL0     C91087   0.230   4.094  10.551  0.1714 -0.3938  0.4427
  661MOL0     O91088   0.141   4.199  10.503 -0.1541  0.2418 -0.1938
  661MOL0     C91089   0.042   4.151  10.407 -0.2693 -0.4245 -0.2668
  661MOL0     C91090  -0.088   4.104  10.470  0.2246  0.9806  0.2001
  661MOL0     C91091  -0.193   4.105  10.363 -0.3918 -0.4299  0.9128
  661MOL0     C91092  -0.183   3.972  10.283 -0.6876  0.1991 -0.2491
  661MOL0     C91093  -0.299   3.973  10.173  1.0444  0.2845  0.0828
  661MOL0     C91094  -0.310   3.836  10.095 -0.3002 -0.4999  0.2810
  661MOL0     C91095  -0.449   3.825  10.031 -1.2137  0.5784  0.9049
  661MOL0     C91096  -0.443   3.722   9.917  0.1039  0.1384 -0.1957
  661MOL0     N91097  -0.536   3.769   9.821 -0.0214  0.7941  0.7411
  661MOL0     C91098  -0.506   3.797   9.687 -0.0170 -0.2370 -0.0249
  661MOL0     C91099  -0.634   3.792   9.621 -0.1845  0.5938 -0.4065
  661MOL0     C91100  -0.657   3.828   9.479 -0.2019 -0.1093  0.1221
  661MOL0     C91101  -0.780   3.749   9.426 -0.5346  0.0341  0.1900
  661MOL0     C91102  -0.778   3.759   9.269  0.0085  0.5891 -0.0590
  661MOL0     C91103  -0.831   3.626   9.198  0.3991  0.3520  1.1003
  661MOL0     O91104  -0.842   3.664   9.059 -0.0873 -0.1418 -0.0598
  661MOL0     C91105  -0.960   3.630   9.000  0.1653 -0.1063  0.7326
  661MOL0     C91106  -0.998   3.496   8.991  0.1324  0.5021 -0.3986
  661MOL0     C91107  -1.126   3.466   8.949 -0.3957  0.4017 -0.3495
  661MOL0     C91108  -1.166   3.318   8.943 -0.4483 -0.3040  0.3453
  661MOL0     C91109  -1.226   3.569   8.942 -0.0658 -0.0136  0.3546
  661MOL0     C91110  -1.365   3.547   8.903  0.3415  0.1708  0.0017
  661MOL0     O91111  -1.460   3.635   8.959  1.0431  0.4885 -1.0685
  661MOL0     C91112  -1.587   3.625   8.909 -0.8455  0.6051  1.6283
  661MOL0     C91113  -1.619   3.702   8.788  0.2408 -0.1130 -0.2108
  661MOL0     C91114  -1.752   3.719   8.744  0.5271  0.4759  0.8951
  661MOL0     C91115  -1.857   3.670   8.827  0.8738 -0.3140  0.9075
  661MOL0     O91116  -1.987   3.686   8.792  0.0172 -0.2410 -0.5443
  661MOL0     C91117  -2.082   3.587   8.827 -0.1219  0.2662 -0.0687
  661MOL0     C91118  -2.188   3.592   8.722 -0.6276  0.1220 -0.9037
  661MOL0     C91119  -2.261   3.462   8.729 -1.2324 -0.5993  0.0797
  661MOL0     C91120  -2.366   3.453   8.611  0.4315 -0.4589 -0.1074
  661MOL0     C91121  -2.439   3.321   8.600 -0.2074  0.2491  0.4697
  661MOL0     C91122  -2.510   3.297   8.464  0.2124  0.0414  0.2252
  661MOL0     C91123  -2.615   3.407   8.431  0.1779  0.0789  0.5100
  661MOL0     C91124  -2.691   3.378   8.298  0.2488  0.3145 -0.5515
  661MOL0    Cl91125  -2.760   3.513   8.204 -0.0343  0.1034 -0.3326
  661MOL0     C91126  -1.829   3.599   8.952 -0.6208  0.4390  0.5041
  661MOL0     C91127  -1.697   3.583   8.987  0.1229  0.5267 -0.2205
  661MOL0     O91128  -1.389   3.455   8.819 -0.9501  0.1745  0.0079
  661MOL0     C91129  -1.189   3.703   8.961 -1.1572 -0.5284  0.0031
  661MOL0     C91130  -1.051   3.740   8.979 -0.0883  0.7191  0.4503
  661MOL0     N91131  -0.724   3.775   9.727 -0.2262 -0.6478 -0.5304
  661MOL0     N91132  -0.671   3.755   9.841 -0.3351  0.7969 -0.3104
  661MOL0     C91133   0.241   3.965  10.498 -0.7635 -0.5249  0.1587
  661MOL0     C91134   0.314   3.862  10.563  0.7385 -0.2915 -0.2725
  661MOL0     C91135   0.528   3.594  10.863  0.3226 -0.8593  0.4263
  661MOL0     C91136   0.638   3.663  10.927 -0.1861 -0.6237 -0.5344
  661MOL0     C91137   0.729   3.591  11.011  0.0019 -0.8120  0.2992
  661MOL0     C91138   0.705   3.456  11.035  0.8168 -0.7775 -0.3555
  661MOL0     O91139   0.780   3.371  11.110 -0.2400 -0.0222 -0.7884
  661MOL0     C91140   0.859   3.433  11.224 -0.0701 -0.2709  0.7997
  661MOL0     C91141   0.938   3.317  11.297 -0.6698 -0.3041  0.1008
  661MOL0     C91142   1.084   3.284  11.245 -1.4117  0.7452  0.6985
  661MOL0     C91143   1.099   3.307  11.086  0.2806 -0.1766 -0.0446
  661MOL0     C91144   1.218   3.239  11.030  0.6969 -0.4984  0.1369
  661MOL0     C91145   1.316   3.182  10.985  0.2426 -0.6849 -0.3896
  661MOL0     C91146   0.603   3.395  10.966  0.4432 -0.1337 -0.7217
  661MOL0     C91147   0.506   3.459  10.891 -0.7666  0.4984 -0.5917
  661MOL0     C91148   0.373   3.386  10.870 -0.3014  1.3561  0.3598
  661MOL0     H91149   0.401   4.061  10.833  1.2924  1.0799 -0.4253
  661MOL0     H91150   0.269   4.227  10.711 -0.1693  0.5214  0.1645
  661MOL0     H91151   0.088   4.082  10.336 -0.7875 -1.5197  0.4303
  661MOL0     H91152   0.013   4.242  10.353 -2.4979  1.9458  4.3145
  661MOL0     H91153  -0.072   4.000  10.497 -0.5370  0.6729 -0.4674
  661MOL0     H91154  -0.106   4.176  10.550  0.9496  1.0966  0.2620
  661MOL0     H91155  -0.283   4.106  10.424  0.4152 -0.1415  2.1404
  661MOL0     H91156  -0.184   4.194  10.300 -1.5868 -2.0072 -1.6711
  661MOL0     H91157  -0.088   3.980  10.229  0.2688  0.4171  1.4075
  661MOL0     H91158  -0.183   3.877  10.337  1.4550 -0.5297 -1.3663
  661MOL0     H91159  -0.310   4.057  10.104  1.7730  0.4189  0.1297
  661MOL0     H91160  -0.389   3.973  10.236  0.1344 -2.7223 -1.0302
  661MOL0     H91161  -0.224   3.825  10.027  2.3358 -4.5252  3.7915
  661MOL0     H91162  -0.295   3.747  10.156  1.8143 -0.9396 -0.7878
  661MOL0     H91163  -0.492   3.916   9.988 -0.9767 -0.9037 -2.8495
  661MOL0     H91164  -0.516   3.790  10.110 -0.0600 -0.3228  1.5269
  661MOL0     H91165  -0.346   3.724   9.866 -0.2105  1.0608 -0.7955
  661MOL0     H91166  -0.467   3.623   9.954 -0.8944 -0.0777 -1.3514
  661MOL0     H91167  -0.410   3.810   9.639 -0.1787 -0.3380 -0.3807
  661MOL0     H91168  -0.562   3.821   9.426  1.0037 -1.3413  2.3056
  661MOL0     H91169  -0.686   3.934   9.482 -0.1665 -0.1068  0.4267
  661MOL0     H91170  -0.770   3.641   9.440 -2.7040 -0.2559 -0.1861
  661MOL0     H91171  -0.873   3.773   9.478 -0.9907 -1.7906  0.2559
  661MOL0     H91172  -0.834   3.848   9.241  4.1692  3.2027 -0.8303
  661MOL0     H91173  -0.677   3.782   9.237  1.0199  0.7622  2.9580
  661MOL0     H91174  -0.758   3.545   9.211 -0.7714 -1.1593 -1.0723
  661MOL0     H91175  -0.928   3.594   9.235  1.0819 -0.7431  2.0236
  661MOL0     H91176  -0.929   3.421   9.028 -0.5854  0.2995  0.5619
  661MOL0     H91177  -1.212   3.300   8.845  1.8009  1.1605 -1.0797
  661MOL0     H91178  -1.241   3.297   9.020  0.7917 -2.0013  1.1487
  661MOL0     H91179  -1.081   3.251   8.955  1.2453  1.6968  0.1575
  661MOL0     H91180  -1.539   3.754   8.736  0.0964 -0.7680 -1.1072
  661MOL0     H91181  -1.775   3.758   8.645  1.4829  1.1365  0.9194
  661MOL0     H91182  -2.034   3.489   8.833  2.6403  1.5763  3.8818
  661MOL0     H91183  -2.130   3.610   8.923 -1.6592  2.3841 -1.2442
  661MOL0     H91184  -2.265   3.667   8.746 -2.5745 -2.1955  0.5165
  661MOL0     H91185  -2.149   3.606   8.621  0.4137 -3.7994 -1.1973
  661MOL0     H91186  -2.300   3.430   8.826 -3.2944 -1.4752 -0.9750
  661MOL0     H91187  -2.179   3.398   8.694 -0.9975  0.8608 -2.2473
  661MOL0     H91188  -2.311   3.461   8.516  4.8548 -0.9262  2.1309
  661MOL0     H91189  -2.432   3.540   8.615 -1.0374 -1.6023  2.1157
  661MOL0     H91190  -2.378   3.230   8.610  1.0122  0.8238 -1.2220
  661MOL0     H91191  -2.516   3.325   8.677  0.3256  2.7433  0.9324
  661MOL0     H91192  -2.550   3.195   8.459 -2.4629  1.0745 -2.6346
  661MOL0     H91193  -2.437   3.304   8.383 -0.1240 -1.8562 -0.2972
  661MOL0     H91194  -2.568   3.505   8.421 -1.2882  0.6796 -0.8038
  661MOL0     H91195  -2.685   3.397   8.514  2.8092 -3.4905  2.6204
  661MOL0     H91196  -2.772   3.311   8.327  1.4010 -0.8069  0.1932
  661MOL0     H91197  -2.631   3.314   8.232  0.9509 -3.5895  3.3340
  661MOL0     H91198  -1.904   3.554   9.016 -2.2860  0.9535 -1.0151
  661MOL0     H91199  -1.678   3.537   9.083 -2.6749 -0.5437 -0.0845
  661MOL0     H91200  -1.268   3.777   8.951 -0.1101  1.2792  3.4844
  661MOL0     H91201  -1.016   3.842   8.993  2.7046 -0.1630  0.4086
  661MOL0     H91202   0.183   3.936  10.412 -0.5193  3.0612 -1.3794
  661MOL0     H91203   0.323   3.764  10.519 -2.1088 -1.6610  1.9008
  661MOL0     H91204   0.648   3.769  10.907  0.8640 -1.1403 -3.1646
  661MOL0     H91205   0.805   3.652  11.059  0.4704 -2.2241  1.3981
  661MOL0     H91206   0.916   3.519  11.185 -2.8249 -0.0452 -3.3185
  661MOL0     H91207   0.784   3.475  11.291  0.1822  0.9511  0.3498
  661MOL0     H91208   0.868   3.233  11.284 -0.1671 -0.5117 -1.5177
  661MOL0     H91209   0.945   3.339  11.404 -1.4768  0.6016 -0.0134
  661MOL0     H91210   1.153   3.340  11.309  1.5983  1.3240 -2.7466
  661MOL0     H91211   1.093   3.183  11.288 -1.8545  0.0958 -0.6862
  661MOL0     H91212   1.100   3.413  11.061  3.9719 -0.2581 -0.7522
  661MOL0     H91213   1.003   3.277  11.041 -0.6831 -0.5250  2.1102
  661MOL0     H91214   1.402   3.125  10.958 -0.2246 -0.8003 -1.7342
  661MOL0     H91215   0.586   3.293  10.998  0.0941  0.6049  1.6872
  661MOL0     H91216   0.287   3.430  10.922 -2.9539 -1.4706 -1.3452
  661MOL0     H91217   0.341   3.393  10.765  1.1944 -0.9653 -0.3133
  661MOL0     H91218   0.384   3.283  10.903  3.4634  0.5092 -2.8453
  662MOL0     O91219   9.898   3.827   4.985 -0.0319 -0.4910  0.2008
  662MOL0     C91220   9.947   3.793   5.097 -0.1239 -0.5284  0.7833
  662MOL0     O91221   9.967   3.668   5.127 -0.6189  0.3252 -0.7341
  662MOL0     C91222   9.934   3.568   5.042 -1.0177  0.1958 -1.5916
  662MOL0     C91223   9.845   3.461   5.076  0.2752 -1.0934 -0.1684
  662MOL0     C91224   9.835   3.350   4.994 -0.6517  0.7223 -0.2774
  662MOL0     C91225   9.889   3.335   4.866 -0.5142 -0.9532 -0.1714
  662MOL0     O91226   9.863   3.212   4.814  0.1671 -0.1752 -0.3294
  662MOL0     C91227   9.937   3.172   4.712 -0.2386 -0.2797  0.3064
  662MOL0     C91228   9.882   3.035   4.657  0.0303 -0.0845  0.6528
  662MOL0     C91229   9.737   3.043   4.592  0.1671  0.9129 -1.1140
  662MOL0     C91230   9.732   3.097   4.448  0.9799 -0.3323  0.0315
  662MOL0     C91231   9.586   3.119   4.402 -0.6325 -0.7262 -0.6645
  662MOL0     C91232   9.501   3.212   4.496 -0.2050  0.2316 -0.1265
  662MOL0     C91233   9.368   3.255   4.437  0.6322  0.4215  0.8615
  662MOL0     C91234   9.265   3.144   4.417 -0.2017  0.3150 -0.1328
  662MOL0     N91235   9.145   3.209   4.386  0.2333 -0.3263 -0.2654
  662MOL0     C91236   9.101   3.330   4.427  0.5551 -0.0428 -0.3149
  662MOL0     C91237   8.978   3.348   4.374 -0.9057 -0.9980  0.0713
  662MOL0     C91238   8.857   3.446   4.397  0.0895 -0.3928 -0.4612
  662MOL0     C91239   8.809   3.449   4.541 -0.6279 -0.1153  0.1740
  662MOL0     C91240   8.797   3.317   4.616 -0.2492 -0.0610 -0.4710
  662MOL0     C91241   8.771   3.344   4.769 -0.4695  0.2791  0.1197
  662MOL0     O91242   8.658   3.415   4.803  0.6235 -0.5275  0.4415
  662MOL0     C91243   8.527   3.361   4.797 -0.9707  0.0108 -0.0925
  662MOL0     C91244   8.500   3.222   4.816 -0.3126 -0.2323  0.4924
  662MOL0     C91245   8.372   3.165   4.831  0.2236 -0.4252  0.2130
  662MOL0     C91246   8.363   3.022   4.884 -0.0520 -0.9814  0.3244
  662MOL0     C91247   8.260   3.248   4.823 -0.5587 -0.3909  0.0541
  662MOL0     C91248   8.125   3.201   4.825  0.3533  0.2282  0.0662
  662MOL0     O91249   8.031   3.291   4.882 -0.7615  0.0919 -0.4608
  662MOL0     C91250   7.903   3.238   4.902 -0.4818  0.0368  0.3001
  662MOL0     C91251   7.863   3.135   4.983 -0.1827  0.4804  0.4257
  662MOL0     C91252   7.725   3.094   4.985 -0.3162  0.6422 -0.4350
  662MOL0     C91253   7.625   3.150   4.899 -1.4761 -0.2880  1.0576
  662MOL0     O91254   7.502   3.091   4.894 -0.5940  0.6949 -0.4207
  662MOL0     C91255   7.392   3.184   4.856 -0.1370  0.5013 -0.1503
  662MOL0     C91256   7.299   3.207   4.975 -0.3156  0.1147 -0.6825
  662MOL0     C91257   7.359   3.287   5.092  0.2840 -0.3162  1.1026
  662MOL0     C91258   7.375   3.437   5.062 -0.1215  0.1806 -0.2346
  662MOL0     C91259   7.417   3.521   5.182  1.0585  0.1482  0.2663
  662MOL0     C91260   7.544   3.468   5.254 -0.0453 -0.5776  0.5177
  662MOL0     C91261   7.577   3.536   5.384  0.2447 -0.4029 -0.0977
  662MOL0     C91262   7.676   3.458   5.479 -0.8018 -0.0183  0.7515
  662MOL0    Cl91263   7.710   3.568   5.614  0.2473 -0.0992  0.0659
  662MOL0     C91264   7.675   3.243   4.809 -0.3736 -0.7890  1.4367
  662MOL0     C91265   7.811   3.294   4.809  0.7266  0.2822  0.6359
  662MOL0     O91266   8.100   3.090   4.780  0.0387 -0.7824  1.2679
  662MOL0     C91267   8.283   3.383   4.819 -0.7588  0.1951  0.8532
  662MOL0     C91268   8.415   3.435   4.803  1.3160 -0.9323  0.8790
  662MOL0     N91269   8.951   3.238   4.299  1.0618 -0.2255  0.3795
  662MOL0     N91270   9.050   3.157   4.298 -0.0130 -0.0400  0.2042
  662MOL0     C91271   9.965   3.450   4.824  1.1036 -1.0672  0.1284
  662MOL0     C91272   9.984   3.563   4.904 -0.0076 -0.1293  0.4917
  662MOL0     C91273   9.999   3.898   5.178 -0.6296 -0.4282  0.0043
  662MOL0     C91274  10.100   3.856   5.275  0.1077  0.2430  0.7152
  662MOL0     C91275  10.158   3.950   5.351  0.0665 -0.8783  0.7186
  662MOL0     C91276  10.115   4.084   5.351 -0.3982  0.0187  0.3825
  662MOL0     O91277  10.186   4.159   5.441  0.1797  0.2164  0.0124
  662MOL0     C91278  10.157   4.297   5.444 -0.3027  0.1901 -0.5730
  662MOL0     C91279  10.254   4.369   5.547 -0.1091 -0.0746  0.6449
  662MOL0     C91280  10.211   4.351   5.692 -0.0181  0.8327  0.2931
  662MOL0     C91281  10.299   4.380   5.805 -0.4424  0.4662 -0.5612
  662MOL0     C91282  10.317   4.529   5.815 -0.5663  0.2750 -0.9627
  662MOL0     C91283  10.321   4.648   5.808  0.7968  0.5459 -0.0094
  662MOL0     C91284  10.019   4.130   5.264 -0.8524  0.4143 -0.2597
  662MOL0     C91285   9.956   4.039   5.176 -0.5732  0.6674 -0.3968
  662MOL0     C91286   9.854   4.092   5.075  0.2802  0.3482  0.0074
  662MOL0     H91287   9.787   3.454   5.167  1.8953  1.9730  1.2481
  662MOL0     H91288   9.778   3.268   5.037 -1.1102  2.0054  1.6844
  662MOL0     H91289  10.041   3.173   4.745  0.5674  2.0859 -1.9848
  662MOL0     H91290   9.926   3.250   4.637 -1.9908 -0.2412  0.5613
  662MOL0     H91291   9.952   2.998   4.581  2.8235  2.3892  1.8149
  662MOL0     H91292   9.885   2.967   4.742  0.7379 -2.2370 -0.9986
  662MOL0     H91293   9.693   2.944   4.603  0.8913  0.7002  0.1098
  662MOL0     H91294   9.676   3.106   4.657  0.5689 -0.0657  0.2770
  662MOL0     H91295   9.764   3.201   4.447 -0.0065 -0.0155 -1.0767
  662MOL0     H91296   9.784   3.039   4.371 -0.1520  0.5673 -1.4652
  662MOL0     H91297   9.532   3.024   4.394 -0.5235 -1.0764  1.8771
  662MOL0     H91298   9.591   3.158   4.300  1.2138 -1.9125 -1.0710
  662MOL0     H91299   9.489   3.152   4.587  2.0273 -3.0230 -1.7694
  662MOL0     H91300   9.566   3.299   4.504  2.4757 -1.5144 -1.4368
  662MOL0     H91301   9.390   3.312   4.346 -0.0610  0.2987  0.6161
  662MOL0     H91302   9.335   3.330   4.510  0.5925  2.4699 -1.1481
  662MOL0     H91303   9.301   3.078   4.337 -1.1470 -0.9189  0.4278
  662MOL0     H91304   9.261   3.073   4.500 -0.1323  0.0127 -0.3857
  662MOL0     H91305   9.138   3.390   4.509 -2.2249  0.2995  0.7857
  662MOL0     H91306   8.773   3.418   4.333  0.0979  0.5133 -0.8864
  662MOL0     H91307   8.892   3.548   4.378  3.4248 -1.0035  1.5708
  662MOL0     H91308   8.884   3.497   4.606  0.0178 -2.7058  1.4740
  662MOL0     H91309   8.714   3.504   4.540  1.2511  3.4483 -0.4297
  662MOL0     H91310   8.728   3.246   4.569  1.5267 -2.0371 -0.2070
  662MOL0     H91311   8.895   3.272   4.605 -0.9281 -1.1821 -2.4957
  662MOL0     H91312   8.777   3.251   4.826  1.9106 -0.6254 -1.4627
  662MOL0     H91313   8.864   3.398   4.791  2.1337 -2.2382 -3.5582
  662MOL0     H91314   8.586   3.157   4.823  1.1827  1.7092  0.9215
  662MOL0     H91315   8.324   2.950   4.812  3.2602 -1.9897 -0.6327
  662MOL0     H91316   8.308   3.018   4.979  0.0018 -2.3640  0.3184
  662MOL0     H91317   8.465   2.990   4.910 -0.1701 -0.5540  1.3899
  662MOL0     H91318   7.943   3.079   5.029 -0.1621 -0.8959 -1.2080
  662MOL0     H91319   7.693   3.009   5.043  0.1398  2.1316  2.1762
  662MOL0     H91320   7.433   3.283   4.835  3.4238  0.0010  3.1646
  662MOL0     H91321   7.327   3.152   4.774  1.6741 -2.6667 -0.5048
  662MOL0     H91322   7.216   3.269   4.940 -0.9620  0.6963  1.6747
  662MOL0     H91323   7.260   3.113   5.015 -2.2524 -0.9595 -4.6306
  662MOL0     H91324   7.459   3.244   5.108  0.1080 -0.4850  1.7588
  662MOL0     H91325   7.291   3.277   5.177 -2.2980  4.7098  0.0023
  662MOL0     H91326   7.273   3.469   5.040  0.0168  1.2543  0.5677
  662MOL0     H91327   7.445   3.456   4.980  0.4425 -1.3349 -0.1212
  662MOL0     H91328   7.425   3.626   5.152 -1.0066 -0.3161 -2.2874
  662MOL0     H91329   7.336   3.519   5.255 -2.4893 -0.1040 -3.3531
  662MOL0     H91330   7.633   3.478   5.191 -0.3655  1.0610  0.2862
  662MOL0     H91331   7.533   3.361   5.275  1.0702 -0.7330  0.3425
  662MOL0     H91332   7.489   3.539   5.448 -1.6868  0.8447 -2.6411
  662MOL0     H91333   7.613   3.638   5.370  0.7836 -0.5725  0.0300
  662MOL0     H91334   7.771   3.443   5.425 -0.3682  0.6314  1.3177
  662MOL0     H91335   7.635   3.363   5.513  1.6795  0.0832  4.6726
  662MOL0     H91336   7.614   3.271   4.724  2.0048  1.7772  0.4152
  662MOL0     H91337   7.828   3.381   4.747 -2.0871  0.2579 -0.3042
  662MOL0     H91338   8.198   3.450   4.813  0.5652  1.8465 -0.6300
  662MOL0     H91339   8.431   3.542   4.804 -0.2633 -0.6492 -0.3955
  662MOL0     H91340  10.003   3.444   4.723 -1.8937  0.2686 -1.1880
  662MOL0     H91341  10.051   3.636   4.859  2.5229  1.0765  5.5168
  662MOL0     H91342  10.142   3.756   5.279  3.2881  1.1684 -3.2355
  662MOL0     H91343  10.240   3.930   5.419  0.5727 -0.2742  0.2961
  662MOL0     H91344  10.184   4.347   5.350  2.7231  1.3728  0.8155
  662MOL0     H91345  10.051   4.311   5.468 -1.0167 -4.2480 -0.3765
  662MOL0     H91346  10.252   4.475   5.521 -0.8600  0.5432  2.9394
  662MOL0     H91347  10.357   4.332   5.538  0.1097  0.9012 -1.5343
  662MOL0     H91348  10.117   4.408   5.696 -1.3118 -1.1474 -0.0078
  662MOL0     H91349  10.187   4.244   5.697 -0.7667  0.9996  0.4533
  662MOL0     H91350  10.396   4.332   5.791  0.8039  3.1454 -1.7839
  662MOL0     H91351  10.258   4.353   5.903 -1.2027 -0.0182 -1.0022
  662MOL0     H91352  10.319   4.755   5.801  2.8951  0.8281  2.1916
  662MOL0     H91353   9.989   4.234   5.262 -1.7635  0.1790 -3.1322
  662MOL0     H91354   9.794   4.174   5.117  0.8088 -0.7411  3.2008
  662MOL0     H91355   9.910   4.104   4.982 -0.8541 -2.1673 -1.0713
  662MOL0     H91356   9.775   4.018   5.059 -1.0645  1.4522  1.1939
  663MOL0     O91357   3.914   1.463   3.432 -0.0514 -0.1677  0.5104
  663MOL0     C91358   4.025   1.506   3.458  0.3460  0.2040  0.4498
  663MOL0     O91359   4.129   1.487   3.383  0.5102 -0.3838  0.1280
  663MOL0     C91360   4.133   1.397   3.287  0.3541  0.6720 -0.1028
  663MOL0     C91361   4.144   1.265   3.329  0.6729 -0.1735 -0.4201
  663MOL0     C91362   4.141   1.161   3.230 -0.0588 -0.7444  0.3696
  663MOL0     C91363   4.125   1.194   3.090  1.0463 -0.5871  0.0926
  663MOL0     O91364   4.142   1.115   2.979 -0.6360  0.0435 -0.0914
  663MOL0     C91365   4.197   0.988   2.989  1.0199  0.9619 -0.2019
  663MOL0     C91366   4.249   0.943   2.847 -0.1883  0.5409  0.2502
  663MOL0     C91367   4.131   0.900   2.756  0.2927  0.7097 -0.0742
  663MOL0     C91368   4.179   0.861   2.620 -0.8448  0.7497 -0.8172
  663MOL0     C91369   4.289   0.745   2.633 -0.1577 -1.0337 -0.2095
  663MOL0     C91370   4.326   0.686   2.494 -0.5515  0.1300 -0.8684
  663MOL0     C91371   4.410   0.559   2.527 -1.1318  0.7709 -0.6160
  663MOL0     C91372   4.451   0.478   2.406 -0.5776 -0.0042 -0.3848
  663MOL0     N91373   4.595   0.500   2.374 -0.3206  0.1230  0.0571
  663MOL0     C91374   4.694   0.424   2.436  0.2120  0.2307 -0.4238
  663MOL0     C91375   4.797   0.496   2.429  0.1552 -0.8872  0.7761
  663MOL0     C91376   4.935   0.449   2.474  0.1362  0.5524  0.3471
  663MOL0     C91377   4.942   0.407   2.617  0.3269 -0.2446 -0.6256
  663MOL0     C91378   5.068   0.325   2.633  0.8311 -0.4063 -0.3485
  663MOL0     C91379   5.185   0.413   2.677  0.8652  0.5414 -0.7015
  663MOL0     O91380   5.181   0.446   2.819  0.1346 -0.5325 -0.2687
  663MOL0     C91381   5.295   0.516   2.858  0.0280  0.5894  0.7478
  663MOL0     C91382   5.346   0.629   2.803 -0.7383 -0.5031  0.1323
  663MOL0     C91383   5.464   0.698   2.843  0.2321  1.3243 -0.6897
  663MOL0     C91384   5.502   0.828   2.781 -0.2752 -0.7058  0.7935
  663MOL0     C91385   5.545   0.637   2.944  0.6369 -0.0933  0.3176
  663MOL0     C91386   5.681   0.692   2.975 -0.2461 -0.0854 -0.9177
  663MOL0     O91387   5.714   0.823   3.002 -0.2331  0.1601 -0.7197
  663MOL0     C91388   5.843   0.846   2.969  0.2438 -0.3184 -0.6170
  663MOL0     C91389   5.893   0.852   2.838 -0.7494 -0.0517  0.3761
  663MOL0     C91390   6.023   0.893   2.810 -0.0738  0.3637  0.2443
  663MOL0     C91391   6.113   0.902   2.917 -0.5449  0.1961 -0.0377
  663MOL0     O91392   6.244   0.931   2.884 -0.3612  0.3711 -0.2809
  663MOL0     C91393   6.316   0.850   2.799  0.2885  0.1901  0.0284
  663MOL0     C91394   6.412   0.756   2.875  0.3014 -1.1533  0.6945
  663MOL0     C91395   6.430   0.621   2.804  0.1750 -0.4051  0.2885
  663MOL0     C91396   6.535   0.547   2.889  0.1285  0.2813 -0.2582
  663MOL0     C91397   6.519   0.394   2.888  0.2866  0.6793  0.1543
  663MOL0     C91398   6.476   0.317   2.763 -0.3533  0.1520 -0.6480
  663MOL0     C91399   6.488   0.153   2.754 -0.6027  0.4334 -1.9751
  663MOL0     C91400   6.452   0.101   2.624 -0.7340 -0.2498  0.0335
  663MOL0    Cl91401   6.557   0.169   2.500  0.4024 -0.0174  0.0239
  663MOL0     C91402   6.071   0.899   3.047 -0.6788 -0.1351 -0.3565
  663MOL0     C91403   5.937   0.869   3.073  0.2338  0.0606  0.7798
  663MOL0     O91404   5.771   0.599   2.955  1.3484 -0.0596 -0.3475
  663MOL0     C91405   5.502   0.515   2.997 -0.5295 -0.2633  0.1523
  663MOL0     C91406   5.374   0.468   2.968 -0.0307  0.4253  0.3998
  663MOL0     N91407   4.764   0.608   2.347 -0.5405 -0.0395 -0.2431
  663MOL0     N91408   4.641   0.603   2.305 -0.3354 -0.2670 -0.8295
  663MOL0     C91409   4.103   1.332   3.058 -0.0610  0.1094  0.3065
  663MOL0     C91410   4.109   1.433   3.156 -0.5240  0.0832  0.0031
  663MOL0     C91411   4.049   1.605   3.563  0.3225  0.0985 -0.9762
  663MOL0     C91412   4.179   1.603   3.619  0.0305 -0.5126 -0.7199
  663MOL0     C91413   4.206   1.682   3.732 -0.0243  0.5828  0.2124
  663MOL0     C91414   4.108   1.770   3.789  0.6457  0.1609  0.9486
  663MOL0     O91415   4.160   1.857   3.873  0.5398 -0.2559 -0.6543
  663MOL0     C91416   4.079   1.924   3.973 -0.3613 -0.2011  0.2945
  663MOL0     C91417   4.068   1.837   4.091 -0.7897  0.1979  0.1007
  663MOL0     C91418   4.198   1.777   4.152  0.7794 -0.5373 -0.5878
  663MOL0     C91419   4.175   1.728   4.296  0.8442 -0.3740  0.0033
  663MOL0     C91420   4.265   1.779   4.406  0.7876 -0.4928  0.0669
  663MOL0     C91421   4.330   1.810   4.502  0.2220 -0.9983 -0.3731
  663MOL0     C91422   3.979   1.764   3.736  0.9325 -0.1997  0.9501
  663MOL0     C91423   3.947   1.678   3.628  0.1744  0.4285 -0.5986
  663MOL0     C91424   3.802   1.681   3.603 -0.3914  0.0456  1.2344
  663MOL0     H91425   4.147   1.267   3.438  0.9220  1.0373 -0.4370
  663MOL0     H91426   4.163   1.057   3.255  1.2017 -1.8363 -4.2122
  663MOL0     H91427   4.114   0.923   3.015  3.0673 -3.3816 -3.2865
  663MOL0     H91428   4.268   0.990   3.073  1.6880  3.0707 -0.7372
  663MOL0     H91429   4.307   1.023   2.798 -0.3473  2.4846  2.9577
  663MOL0     H91430   4.311   0.854   2.863  1.8531  2.3317  3.5575
  663MOL0     H91431   4.073   0.818   2.798  0.6148  0.8832  0.7297
  663MOL0     H91432   4.069   0.989   2.744  1.0198  1.1492 -0.6970
  663MOL0     H91433   4.088   0.831   2.567 -2.8377  1.4970  1.9799
  663MOL0     H91434   4.227   0.936   2.556 -1.7192 -1.3872 -4.2124
  663MOL0     H91435   4.246   0.670   2.700 -0.0004  1.8271  3.3761
  663MOL0     H91436   4.382   0.775   2.681 -0.8657 -1.6760  1.6404
  663MOL0     H91437   4.241   0.649   2.436 -1.5959  0.6278  0.3303
  663MOL0     H91438   4.388   0.757   2.439  2.7428  0.6708  3.0453
  663MOL0     H91439   4.343   0.498   2.589  2.4717 -1.0505  1.8397
  663MOL0     H91440   4.498   0.567   2.591 -0.6082  0.5892 -1.2965
  663MOL0     H91441   4.427   0.372   2.419 -3.5867  0.7770  1.2283
  663MOL0     H91442   4.392   0.523   2.326  2.4389  0.8065 -2.3369
  663MOL0     H91443   4.690   0.326   2.482 -1.7456 -0.8528 -2.7008
  663MOL0     H91444   5.009   0.527   2.454  0.4603 -0.1057 -1.1541
  663MOL0     H91445   4.961   0.370   2.402 -3.1572 -0.5029  0.1300
  663MOL0     H91446   4.942   0.493   2.685 -0.8250 -1.4778  1.0017
  663MOL0     H91447   4.850   0.355   2.646 -0.4286  0.4229 -1.7446
  663MOL0     H91448   5.054   0.255   2.716 -0.9489  0.6340  0.2707
  663MOL0     H91449   5.113   0.271   2.549  4.4138 -0.0560  1.1635
  663MOL0     H91450   5.279   0.361   2.659  1.0466 -0.5389  2.6934
  663MOL0     H91451   5.190   0.506   2.619 -1.2386  0.8449 -0.4806
  663MOL0     H91452   5.285   0.680   2.729 -2.0793  0.6914  1.9583
  663MOL0     H91453   5.513   0.897   2.866 -2.4370 -1.8107  2.0483
  663MOL0     H91454   5.416   0.867   2.726  0.0181  0.6206  1.2432
  663MOL0     H91455   5.597   0.825   2.727 -0.2673  3.1698  0.2649
  663MOL0     H91456   5.832   0.824   2.752  1.2514 -0.3797 -1.0120
  663MOL0     H91457   6.070   0.903   2.713  1.3384 -0.3759  0.8245
  663MOL0     H91458   6.252   0.788   2.737 -2.1711  0.1692  2.4088
  663MOL0     H91459   6.379   0.904   2.728 -0.8245  0.1608 -1.0035
  663MOL0     H91460   6.508   0.806   2.857  0.5995 -2.3267 -1.3704
  663MOL0     H91461   6.395   0.742   2.982  2.0840  2.8745  1.6890
  663MOL0     H91462   6.478   0.637   2.707 -0.9521  0.8538 -0.1094
  663MOL0     H91463   6.341   0.558   2.794  1.5423 -2.2795 -0.5863
  663MOL0     H91464   6.523   0.588   2.989  0.5632  1.4096 -0.6535
  663MOL0     H91465   6.637   0.576   2.861  0.3373 -0.1503  0.0398
  663MOL0     H91466   6.610   0.348   2.928  0.2879 -0.3359 -0.9509
  663MOL0     H91467   6.438   0.359   2.953  0.9488 -1.3304 -0.0411
  663MOL0     H91468   6.542   0.357   2.685  1.7422  1.5419  1.6872
  663MOL0     H91469   6.377   0.349   2.730 -1.3891 -1.3415  0.8283
  663MOL0     H91470   6.410   0.126   2.827  2.1532  1.7425  1.7629
  663MOL0     H91471   6.580   0.101   2.781 -1.2999 -0.1451 -0.5942
  663MOL0     H91472   6.354   0.147   2.608 -0.3834  1.3698  2.1963
  663MOL0     H91473   6.446  -0.008   2.618 -0.0452 -0.3929  1.5617
  663MOL0     H91474   6.141   0.915   3.128 -0.5067 -1.0420 -0.3150
  663MOL0     H91475   5.911   0.853   3.177 -2.1888 -0.3947  0.1662
  663MOL0     H91476   5.568   0.477   3.074  0.8901  0.5539 -0.6179
  663MOL0     H91477   5.333   0.394   3.036  0.6117 -1.3954 -1.1078
  663MOL0     H91478   4.076   1.349   2.954  0.7685 -2.5465 -0.4285
  663MOL0     H91479   4.072   1.534   3.138  0.1677  0.3180 -0.1524
  663MOL0     H91480   4.256   1.544   3.570 -0.5408 -1.9009  0.0102
  663MOL0     H91481   4.307   1.677   3.770 -0.0671  0.2343  0.2876
  663MOL0     H91482   4.133   2.005   4.024 -3.8422 -0.0514  4.2443
  663MOL0     H91483   3.980   1.960   3.944  0.3795  1.1551 -0.6432
  663MOL0     H91484   4.009   1.747   4.070  1.6818 -1.4082 -0.3989
  663MOL0     H91485   4.024   1.898   4.170  1.4280  0.3931  1.2883
  663MOL0     H91486   4.228   1.694   4.088 -0.9920 -0.8872 -1.0230
  663MOL0     H91487   4.275   1.855   4.145  1.5831 -1.2915 -0.3644
  663MOL0     H91488   4.164   1.620   4.299  0.1449 -0.2951  0.6062
  663MOL0     H91489   4.078   1.772   4.322  1.6604  0.1651  2.3880
  663MOL0     H91490   4.371   1.844   4.595 -0.1781 -2.7858  0.5111
  663MOL0     H91491   3.912   1.832   3.788 -1.5841 -2.9645  1.6042
  663MOL0     H91492   3.781   1.698   3.497  0.2828 -1.2609  0.8654
  663MOL0     H91493   3.748   1.594   3.639  3.1669 -1.1679  4.3127
  663MOL0     H91494   3.757   1.772   3.643 -0.5552  1.0005 -0.9526
  664MOL0     O91495   0.808   2.976   1.194 -0.1400 -0.5037  0.3954
  664MOL0     C91496   0.698   2.925   1.179  0.5536 -0.7838  0.6194
  664MOL0     O91497   0.597   2.938   1.270 -0.1051 -0.2493 -0.2968
  664MOL0     C91498   0.628   2.970   1.401  0.4411  0.5440  0.6712
  664MOL0     C91499   0.735   2.911   1.476  0.1674 -0.1829 -0.2475
  664MOL0     C91500   0.750   2.943   1.610 -0.1313 -0.3642 -0.7212
  664MOL0     C91501   0.653   3.031   1.671  0.0712 -1.6727  0.1904
  664MOL0     O91502   0.653   3.084   1.801  0.4028 -0.4235 -0.7435
  664MOL0     C91503   0.640   2.979   1.897  1.1900 -0.0873  0.0253
  664MOL0     C91504   0.612   3.021   2.042  0.0102  0.2086 -1.2737
  664MOL0     C91505   0.742   3.079   2.102 -0.3043  0.3980 -0.2620
  664MOL0     C91506   0.722   3.141   2.241 -0.5858  0.3070  1.0269
  664MOL0     C91507   0.859   3.122   2.320  0.0520  0.3114  0.0017
  664MOL0     C91508   0.871   2.977   2.383  0.4141 -0.5189 -0.7782
  664MOL0     C91509   0.983   2.976   2.492  0.3726 -0.6938 -0.6313
  664MOL0     C91510   0.954   3.036   2.632  0.3407  0.4631 -0.6675
  664MOL0     N91511   1.052   2.971   2.721 -0.5249  0.6747 -0.3078
  664MOL0     C91512   1.028   2.870   2.803 -0.0797  0.2233 -0.7772
  664MOL0     C91513   1.131   2.862   2.888 -0.5731 -0.2679  0.0862
  664MOL0     C91514   1.143   2.765   3.004 -0.0098 -0.2184  0.6002
  664MOL0     C91515   1.138   2.625   2.958  0.0408  1.1392 -0.2450
  664MOL0     C91516   1.246   2.576   2.861 -0.7906  0.7304 -0.4453
  664MOL0     C91517   1.212   2.432   2.826 -0.4022  0.2322  0.3294
  664MOL0     O91518   1.330   2.383   2.757 -0.4871 -0.3273 -0.4150
  664MOL0     C91519   1.421   2.302   2.823  0.0419 -0.5475  0.4299
  664MOL0     C91520   1.427   2.259   2.959  0.9131 -0.6164 -0.3308
  664MOL0     C91521   1.525   2.171   3.004  0.2796 -0.9140  0.6191
  664MOL0     C91522   1.504   2.127   3.145  0.0089  0.1080  0.7421
  664MOL0     C91523   1.639   2.138   2.921 -0.6075 -0.1488 -0.6790
  664MOL0     C91524   1.762   2.065   2.977 -0.0354  0.5705  0.0177
  664MOL0     O91525   1.863   2.058   2.886 -0.6533  0.5205  0.1319
  664MOL0     C91526   1.985   1.999   2.929  1.1814 -0.4257 -0.1106
  664MOL0     C91527   1.993   1.856   2.962 -0.4653 -0.2414  1.0064
  664MOL0     C91528   2.112   1.804   3.001  0.1725  0.0021 -0.2293
  664MOL0     C91529   2.226   1.881   3.028  0.6590  0.5813  0.3938
  664MOL0     O91530   2.337   1.819   3.074 -0.3374 -1.0009 -0.2650
  664MOL0     C91531   2.458   1.888   3.094 -1.1074  0.0890  0.1717
  664MOL0     C91532   2.463   1.989   3.210  0.1879 -1.2933 -0.9245
  664MOL0     C91533   2.451   1.914   3.350  0.5356 -1.2381 -0.0701
  664MOL0     C91534   2.583   1.832   3.388  0.8270 -0.3093 -1.6773
  664MOL0     C91535   2.561   1.728   3.512 -0.3655 -0.8788  0.2370
  664MOL0     C91536   2.508   1.593   3.463 -0.5529 -0.4853  0.3316
  664MOL0     C91537   2.475   1.493   3.575  0.0732  0.0507  0.1153
  664MOL0     C91538   2.441   1.353   3.530 -0.6998 -0.0137  0.1651
  664MOL0    Cl91539   2.591   1.245   3.533  0.5163  0.3756 -0.2914
  664MOL0     C91540   2.212   2.020   3.003 -0.0340  0.2752 -0.1269
  664MOL0     C91541   2.099   2.083   2.952 -0.6618  0.0908  0.9773
  664MOL0     O91542   1.771   2.035   3.096 -0.0879  0.1113 -0.9272
  664MOL0     C91543   1.619   2.162   2.788  1.1090 -0.0220  0.2437
  664MOL0     C91544   1.517   2.246   2.742 -0.2915  0.0703 -0.3812
  664MOL0     N91545   1.218   2.966   2.850  0.0162 -0.2197  1.0762
  664MOL0     N91546   1.171   3.027   2.748 -0.0514 -0.1648  0.4611
  664MOL0     C91547   0.550   3.089   1.595 -0.7813  0.3179  1.0340
  664MOL0     C91548   0.543   3.058   1.458 -0.7050  0.3732  0.0507
  664MOL0     C91549   0.664   2.864   1.046 -0.0720  0.2275 -0.5534
  664MOL0     C91550   0.531   2.879   1.015  0.3285 -0.0057 -0.0899
  664MOL0     C91551   0.483   2.816   0.894  0.1189  0.3909  0.0148
  664MOL0     C91552   0.564   2.744   0.810  1.2924  0.1330  0.0244
  664MOL0     O91553   0.526   2.671   0.702  0.2418 -0.4906 -1.0129
  664MOL0     C91554   0.566   2.734   0.579  0.1733  0.3338 -0.3457
  664MOL0     C91555   0.495   2.670   0.467  0.9103  1.0108  0.8670
  664MOL0     C91556   0.559   2.529   0.454 -0.2829  0.6415  0.5967
  664MOL0     C91557   0.527   2.471   0.314  0.6719 -0.8725  0.8206
  664MOL0     C91558   0.380   2.442   0.298  0.6237 -0.0941 -0.5751
  664MOL0     C91559   0.268   2.402   0.274  0.8214 -0.2338  0.2105
  664MOL0     C91560   0.701   2.744   0.841 -0.0617 -0.0039  0.6276
  664MOL0     C91561   0.751   2.801   0.958 -0.2560  0.9002  0.3937
  664MOL0     C91562   0.903   2.782   0.987 -0.2875  0.4459  0.4255
  664MOL0     H91563   0.800   2.836   1.431 -1.2586 -0.9524 -1.1076
  664MOL0     H91564   0.826   2.907   1.679 -2.6040  0.5057  2.7530
  664MOL0     H91565   0.738   2.931   1.888  0.4129 -1.2731 -3.9253
  664MOL0     H91566   0.582   2.891   1.867  0.9523 -1.6833  4.4830
  664MOL0     H91567   0.530   3.094   2.043  0.0424  0.2408 -1.0869
  664MOL0     H91568   0.577   2.928   2.086 -2.9512  1.5409 -0.5068
  664MOL0     H91569   0.805   2.990   2.110 -0.4931  0.3489  1.0043
  664MOL0     H91570   0.780   3.159   2.039  2.7989 -1.3852 -0.8484
  664MOL0     H91571   0.717   3.249   2.227  3.3190  0.7418  1.8913
  664MOL0     H91572   0.629   3.104   2.286 -0.4624  1.4061  2.2400
  664MOL0     H91573   0.860   3.193   2.403  1.0145 -0.3457  0.5734
  664MOL0     H91574   0.943   3.140   2.253 -0.7809 -0.4132 -1.2632
  664MOL0     H91575   0.776   2.961   2.434  0.1124  0.9141 -0.8664
  664MOL0     H91576   0.899   2.910   2.301  4.2180 -0.2698  0.0894
  664MOL0     H91577   1.061   3.036   2.444 -1.4164  1.6951 -0.7437
  664MOL0     H91578   1.031   2.879   2.504  0.8610 -0.6802 -2.2504
  664MOL0     H91579   0.973   3.144   2.639 -0.9762  0.6534  0.3911
  664MOL0     H91580   0.848   3.025   2.656  0.8762 -0.9511  1.3751
  664MOL0     H91581   0.943   2.803   2.791  0.8771 -1.2162  0.1356
  664MOL0     H91582   1.066   2.789   3.077 -0.2324 -3.4793  1.5574
  664MOL0     H91583   1.240   2.781   3.052 -0.3924  3.0202  0.5381
  664MOL0     H91584   1.144   2.558   3.044 -0.0334  1.0738 -0.2905
  664MOL0     H91585   1.043   2.599   2.911  0.7191  0.2597 -1.1840
  664MOL0     H91586   1.246   2.629   2.765 -1.1349 -0.7078 -1.2653
  664MOL0     H91587   1.345   2.588   2.906 -0.9598  0.2793  0.0388
  664MOL0     H91588   1.177   2.373   2.912  2.4138 -2.7814 -0.4076
  664MOL0     H91589   1.132   2.428   2.751  0.9847  1.4584 -1.2882
  664MOL0     H91590   1.344   2.297   3.018 -0.6656  1.2871 -3.5084
  664MOL0     H91591   1.508   2.017   3.146 -1.9570  0.0079  0.4484
  664MOL0     H91592   1.410   2.164   3.186 -2.4892 -1.3021 -3.1908
  664MOL0     H91593   1.586   2.167   3.206  0.1130  1.4224 -0.2189
  664MOL0     H91594   1.900   1.800   2.955  0.0474 -1.1338  1.2414
  664MOL0     H91595   2.115   1.695   3.003  0.0294 -0.1453 -3.2978
  664MOL0     H91596   2.547   1.824   3.104 -2.6397 -2.5232 -1.5605
  664MOL0     H91597   2.471   1.947   3.003 -6.0030 -0.6119 -1.2366
  664MOL0     H91598   2.558   2.042   3.215  0.1146 -1.0788 -1.6438
  664MOL0     H91599   2.387   2.067   3.211 -0.2080 -1.6169  2.2119
  664MOL0     H91600   2.372   1.838   3.346 -0.4248 -0.2238 -0.9436
  664MOL0     H91601   2.442   1.995   3.423 -0.4306 -0.4237 -1.0745
  664MOL0     H91602   2.660   1.908   3.404  0.0870  0.1706 -0.0993
  664MOL0     H91603   2.608   1.770   3.302  0.6103 -1.3598 -1.0137
  664MOL0     H91604   2.655   1.712   3.566  0.8416  0.0552 -1.5028
  664MOL0     H91605   2.501   1.763   3.596  1.7247  0.8415  1.1122
  664MOL0     H91606   2.580   1.548   3.393  0.6022 -0.2201  1.3103
  664MOL0     H91607   2.416   1.602   3.405  0.2402 -0.2068 -0.9477
  664MOL0     H91608   2.403   1.546   3.639  0.2858  0.2379  0.2018
  664MOL0     H91609   2.563   1.486   3.640 -1.3547  0.7160  2.2178
  664MOL0     H91610   2.398   1.343   3.430  0.8612 -2.7528 -0.3242
  664MOL0     H91611   2.367   1.309   3.598 -0.4186 -0.6765  0.0498
  664MOL0     H91612   2.300   2.083   3.013  2.0608 -2.3409 -0.8812
  664MOL0     H91613   2.097   2.190   2.930  2.0143 -0.4953 -3.5856
  664MOL0     H91614   1.698   2.129   2.720 -0.2542  1.2816 -2.0982
  664MOL0     H91615   1.511   2.257   2.634  1.4762 -3.2314 -0.9433
  664MOL0     H91616   0.471   3.157   1.626 -1.1122  0.3685  0.1191
  664MOL0     H91617   0.461   3.096   1.396 -0.4990  2.9193  1.2100
  664MOL0     H91618   0.464   2.904   1.097  2.6676 -1.5907  2.4804
  664MOL0     H91619   0.380   2.825   0.862 -0.4824  0.8320  1.9572
  664MOL0     H91620   0.558   2.843   0.580 -2.0680  0.2286  1.8278
  664MOL0     H91621   0.674   2.717   0.578  0.2379  0.3749  2.0606
  664MOL0     H91622   0.522   2.731   0.380  2.3183 -2.1909 -1.1345
  664MOL0     H91623   0.386   2.670   0.475  0.6091  0.4530 -2.0507
  664MOL0     H91624   0.668   2.542   0.457 -0.4021  1.5269  2.6444
  664MOL0     H91625   0.527   2.457   0.530  1.5469 -1.7726 -0.7511
  664MOL0     H91626   0.576   2.375   0.296 -0.8577 -1.3166 -1.3882
  664MOL0     H91627   0.546   2.546   0.237  1.6476 -1.6411  0.2773
  664MOL0     H91628   0.171   2.368   0.244  0.9095  0.7008 -1.2971
  664MOL0     H91629   0.763   2.704   0.762 -0.9937 -0.5623  0.1594
  664MOL0     H91630   0.936   2.689   0.941  0.9264  1.2075 -0.2975
  664MOL0     H91631   0.963   2.858   0.936 -0.4229 -0.6453 -1.4299
  664MOL0     H91632   0.942   2.770   1.088  0.9747  0.4390 -0.0461
  665MOL0     O91633   1.929  10.880   4.715  0.4061 -1.0856  0.5714
  665MOL0     C91634   1.928  10.777   4.657 -0.2854 -0.1813 -0.8115
  665MOL0     O91635   2.030  10.716   4.585  0.2200 -0.1931  0.8561
  665MOL0     C91636   2.132  10.787   4.523  0.5200  0.6330  0.3617
  665MOL0     C91637   2.239  10.702   4.495 -0.5236 -0.1963 -0.1656
  665MOL0     C91638   2.351  10.753   4.433  0.3951  0.2549 -0.1811
  665MOL0     C91639   2.352  10.882   4.379 -0.2058 -0.0164  1.1051
  665MOL0     O91640   2.460  10.943   4.321 -0.6595 -0.2558 -0.7921
  665MOL0     C91641   2.574  10.859   4.286 -0.2948 -1.5114  0.6651
  665MOL0     C91642   2.673  10.953   4.212  0.3545 -0.9378 -0.7187
  665MOL0     C91643   2.634  10.965   4.060 -0.3298 -0.2638  0.0326
  665MOL0     C91644   2.750  11.020   3.979  0.2236 -0.4833 -0.1409
  665MOL0     C91645   2.721  11.034   3.831  0.4057  0.0702  0.6107
  665MOL0     C91646   2.705  10.902   3.746  1.0038  0.0525 -0.2998
  665MOL0     C91647   2.743  10.906   3.600  0.0244 -0.6267 -0.3895
  665MOL0     C91648   2.896  10.916   3.575  0.4580  0.3581 -0.7661
  665MOL0     N91649   2.928  10.957   3.442  0.4604  0.2911  0.3457
  665MOL0     C91650   2.959  11.086   3.407  0.4232 -0.4855  0.0563
  665MOL0     C91651   2.990  11.077   3.271  0.1042  0.6207  0.3882
  665MOL0     C91652   3.059  11.188   3.200  0.2115 -0.1987 -0.0549
  665MOL0     C91653   3.213  11.170   3.197  0.4677  0.5613 -0.2958
  665MOL0     C91654   3.287  11.293   3.165 -1.3465 -0.9099  0.1604
  665MOL0     C91655   3.441  11.277   3.157  0.3287 -0.0294  0.6457
  665MOL0     O91656   3.482  11.255   3.293 -0.2829 -0.1688 -0.3945
  665MOL0     C91657   3.601  11.310   3.323 -0.6465  0.0242  0.7474
  665MOL0     C91658   3.705  11.337   3.234  0.0067  0.8698 -0.3808
  665MOL0     C91659   3.822  11.391   3.275  0.2862  0.8580 -0.0029
  665MOL0     C91660   3.930  11.427   3.177 -1.4557 -0.1200 -0.0211
  665MOL0     C91661   3.839  11.428   3.415 -0.7312 -1.4036  0.9650
  665MOL0     C91662   3.964  11.497   3.478  0.3047 -0.1869 -0.0146
  665MOL0     O91663   3.928  11.563   3.593 -0.0935 -0.2601  0.3264
  665MOL0     C91664   4.026  11.658   3.632 -0.6151 -0.2771 -0.1670
  665MOL0     C91665   3.991  11.794   3.617 -0.2239  0.3425  0.7945
  665MOL0     C91666   4.091  11.889   3.664 -0.0129 -0.0865  0.1744
  665MOL0     C91667   4.211  11.852   3.738 -0.3487 -0.0116  0.1233
  665MOL0     O91668   4.306  11.949   3.776 -0.1146 -0.6035 -0.9982
  665MOL0     C91669   4.418  11.953   3.687 -0.2436 -0.5648  0.0431
  665MOL0     C91670   4.386  12.056   3.567  0.4744  0.5053  0.3125
  665MOL0     C91671   4.319  11.987   3.443  0.0217 -0.6791  0.2264
  665MOL0     C91672   4.426  11.930   3.342  0.6658  0.1288 -0.2307
  665MOL0     C91673   4.387  11.794   3.272 -0.2176 -0.4200 -0.2426
  665MOL0     C91674   4.305  11.836   3.152 -0.2352  0.7839 -0.1454
  665MOL0     C91675   4.264  11.719   3.070  0.5083 -0.1981 -0.3653
  665MOL0     C91676   4.324  11.716   2.929 -0.6261  0.7781 -0.0836
  665MOL0    Cl91677   4.267  11.861   2.838  0.2150 -0.4234  0.2072
  665MOL0     C91678   4.226  11.724   3.772  0.2414  1.1038 -0.0170
  665MOL0     C91679   4.142  11.632   3.712  0.7509 -0.2976 -0.0083
  665MOL0     O91680   4.073  11.483   3.427 -0.8430  0.3028 -0.0681
  665MOL0     C91681   3.722  11.411   3.491  0.1607 -0.4115  0.0027
  665MOL0     C91682   3.615  11.352   3.455 -0.6738  0.2892  0.2126
  665MOL0     N91683   2.971  10.951   3.228  0.6642 -0.4487  1.1672
  665MOL0     N91684   2.933  10.882   3.328 -0.4575  0.4059 -0.2137
  665MOL0     C91685   2.233  10.954   4.390  0.3170 -0.3299  0.3557
  665MOL0     C91686   2.123  10.914   4.466 -0.6256  0.2333  0.2076
  665MOL0     C91687   1.795  10.708   4.664  0.3792  0.6941 -0.5236
  665MOL0     C91688   1.683  10.782   4.700 -0.0245  0.0352  0.5187
  665MOL0     C91689   1.554  10.728   4.710 -1.3111  0.3402 -0.5725
  665MOL0     C91690   1.528  10.592   4.703 -0.5947 -0.4061  0.8322
  665MOL0     O91691   1.400  10.533   4.716  0.5404  0.5543  0.6671
  665MOL0     C91692   1.297  10.621   4.761 -0.5804  0.5219  0.9280
  665MOL0     C91693   1.163  10.547   4.745  0.2672 -0.1277 -0.2490
  665MOL0     C91694   1.057  10.649   4.762 -0.2798 -0.0439 -0.6605
  665MOL0     C91695   0.925  10.573   4.746 -0.6178  0.4930 -0.3624
  665MOL0     C91696   0.798  10.662   4.737 -0.3386  1.2607 -0.4776
  665MOL0     C91697   0.702  10.738   4.735  0.1768 -0.0591  0.9476
  665MOL0     C91698   1.638  10.513   4.665  0.0963 -0.6769  0.1408
  665MOL0     C91699   1.767  10.572   4.639  0.0213  0.2187  0.4424
  665MOL0     C91700   1.874  10.482   4.586  0.0956  0.3651  0.0214
  665MOL0     H91701   2.232  10.599   4.527  0.2256  0.6390  3.0774
  665MOL0     H91702   2.429  10.680   4.411 -0.6620 -1.6084  1.8649
  665MOL0     H91703   2.548  10.774   4.222 -2.0815 -0.6523  0.2113
  665MOL0     H91704   2.617  10.817   4.378  0.7813  1.4697  1.6602
  665MOL0     H91705   2.673  11.045   4.270  1.4727 -1.8194  0.7434
  665MOL0     H91706   2.771  10.911   4.233 -0.4807 -2.9162 -0.4811
  665MOL0     H91707   2.613  10.862   4.030 -2.2977 -1.1206  3.7325
  665MOL0     H91708   2.546  11.027   4.043  0.9436  1.2751 -1.2383
  665MOL0     H91709   2.783  11.119   4.012 -0.7644 -1.0505  2.8895
  665MOL0     H91710   2.830  10.946   3.989  3.0538  2.0198 -2.3477
  665MOL0     H91711   2.800  11.091   3.781  0.2079  0.5379  0.8351
  665MOL0     H91712   2.629  11.088   3.809 -1.1474 -1.6854  2.3937
  665MOL0     H91713   2.765  10.828   3.800  1.3707  0.9919  0.6328
  665MOL0     H91714   2.600  10.874   3.747 -0.1619  3.7648 -1.5471
  665MOL0     H91715   2.688  10.985   3.548  2.2917  0.7401 -0.8776
  665MOL0     H91716   2.712  10.811   3.556 -0.7156 -0.7007  0.2700
  665MOL0     H91717   2.933  10.999   3.635 -1.1396  1.6931 -1.5627
  665MOL0     H91718   2.939  10.818   3.597  0.0680  0.0410 -1.3732
  665MOL0     H91719   2.961  11.174   3.470 -1.8254  0.1552 -0.6932
  665MOL0     H91720   3.032  11.280   3.252 -0.9614 -0.2319 -0.5735
  665MOL0     H91721   3.040  11.181   3.092  1.7985  0.8615 -0.4463
  665MOL0     H91722   3.253  11.149   3.296 -1.8492 -0.5712  0.4635
  665MOL0     H91723   3.239  11.078   3.143 -1.4929 -1.2519  1.6476
  665MOL0     H91724   3.261  11.327   3.064  0.5978  0.2568  0.0049
  665MOL0     H91725   3.262  11.373   3.235 -1.6294  0.6494 -1.6384
  665MOL0     H91726   3.477  11.197   3.092  1.5548  0.6731  0.4445
  665MOL0     H91727   3.485  11.370   3.121  0.2732 -0.2161  0.0810
  665MOL0     H91728   3.686  11.307   3.132 -2.6670 -1.8867  0.7670
  665MOL0     H91729   4.028  11.391   3.209 -1.6556 -0.5885  0.0808
  665MOL0     H91730   3.943  11.533   3.153  2.4861 -0.4613 -0.0962
  665MOL0     H91731   3.912  11.370   3.085 -2.3403 -2.9801  1.7958
  665MOL0     H91732   3.894  11.820   3.577 -1.4959  0.5048  3.7946
  665MOL0     H91733   4.088  11.997   3.662 -2.0154 -0.1061  0.0759
  665MOL0     H91734   4.506  11.973   3.748 -2.4959 -1.4980  3.9355
  665MOL0     H91735   4.451  11.855   3.650  5.0699 -0.5263  3.5910
  665MOL0     H91736   4.313  12.132   3.595  0.1732  1.0310 -1.7716
  665MOL0     H91737   4.484  12.090   3.531  0.8294 -1.3264 -0.5904
  665MOL0     H91738   4.250  12.059   3.397  3.0041  1.9261 -0.4745
  665MOL0     H91739   4.247  11.909   3.471 -0.3354  0.2505  2.0226
  665MOL0     H91740   4.510  11.907   3.408 -0.9711 -2.6336  1.0726
  665MOL0     H91741   4.455  12.005   3.268 -2.9523 -0.7329 -2.8078
  665MOL0     H91742   4.482  11.744   3.249 -0.1842 -0.1942 -0.5998
  665MOL0     H91743   4.324  11.726   3.330 -2.5424  0.0947 -2.0069
  665MOL0     H91744   4.363  11.910   3.097  0.3063  0.2750 -0.2620
  665MOL0     H91745   4.210  11.873   3.194 -0.8768  0.6183 -1.4052
  665MOL0     H91746   4.157  11.729   3.049 -0.2575 -4.4448  0.4613
  665MOL0     H91747   4.282  11.619   3.112  0.5506  0.3573  0.9731
  665MOL0     H91748   4.302  11.626   2.871 -1.0609  0.6549  0.2732
  665MOL0     H91749   4.433  11.725   2.936 -0.4804  0.9389 -1.9223
  665MOL0     H91750   4.319  11.699   3.822 -0.1923  1.5981  1.0695
  665MOL0     H91751   4.169  11.527   3.710 -1.4810 -1.0770 -4.6440
  665MOL0     H91752   3.723  11.445   3.594 -2.2996 -1.6437  0.4851
  665MOL0     H91753   3.541  11.355   3.534  0.5761 -0.9072  1.4858
  665MOL0     H91754   2.242  11.058   4.361  0.2668 -0.2025  0.7978
  665MOL0     H91755   2.038  10.978   4.482 -0.0359  0.5500  2.3574
  665MOL0     H91756   1.680  10.889   4.719 -0.9794 -0.0900  1.1846
  665MOL0     H91757   1.475  10.803   4.713 -0.8899  0.7845 -0.5297
  665MOL0     H91758   1.314  10.651   4.865 -0.8834  0.4905  0.9855
  665MOL0     H91759   1.291  10.714   4.704 -3.8769 -0.4145 -0.5024
  665MOL0     H91760   1.139  10.463   4.810  0.7831  1.3462  1.9858
  665MOL0     H91761   1.155  10.513   4.641 -0.9441  1.0009 -0.5578
  665MOL0     H91762   1.074  10.707   4.853  5.0152  0.8758 -1.9584
  665MOL0     H91763   1.069  10.717   4.677  0.7691  1.2862  0.4959
  665MOL0     H91764   0.924  10.498   4.826  1.8225  0.3790 -0.3562
  665MOL0     H91765   0.927  10.510   4.657  0.4630  0.1090 -0.0795
  665MOL0     H91766   0.629  10.816   4.726  0.3691  0.0170 -0.2079
  665MOL0     H91767   1.617  10.408   4.653 -0.1403 -0.6671  0.4680
  665MOL0     H91768   1.847  10.376   4.585  0.2668  0.0911 -5.3156
  665MOL0     H91769   1.886  10.510   4.481  0.0154 -1.0909 -0.3895
  665MOL0     H91770   1.969  10.504   4.637  0.6388  3.4548 -2.0684
  666MOL0     O91771   5.847   9.825  11.054 -1.0355  0.4378  0.6059
  666MOL0     C91772   5.732   9.860  11.035  0.5508  0.4074  0.3455
  666MOL0     O91773   5.665   9.969  11.085 -0.6298 -0.4872  0.0627
  666MOL0     C91774   5.726  10.043  11.179  0.5328  0.5153  0.7340
  666MOL0     C91775   5.775  10.170  11.138  0.6098  0.1673  1.0820
  666MOL0     C91776   5.862  10.245  11.214  0.7674 -0.7193 -0.3678
  666MOL0     C91777   5.889  10.194  11.339 -0.0321 -0.3291  0.3011
  666MOL0     O91778   5.954  10.283  11.422 -0.2632 -0.0090 -0.3159
  666MOL0     C91779   6.046  10.224  11.515  0.2583 -0.1474  0.5988
  666MOL0     C91780   6.150  10.328  11.548 -0.3655 -0.0989  0.0783
  666MOL0     C91781   6.245  10.273  11.652 -1.0324  0.2420  0.0394
  666MOL0     C91782   6.201  10.227  11.787 -0.1197  0.9812  0.0178
  666MOL0     C91783   6.156  10.342  11.881 -0.2585 -0.5274 -0.1104
  666MOL0     C91784   6.292  10.399  11.942  0.8086 -0.1014  1.3278
  666MOL0     C91785   6.266  10.506  12.048  0.4097 -0.0438 -0.0905
  666MOL0     C91786   6.400  10.526  12.126  0.0956  0.3719  0.6664
  666MOL0     N91787   6.385  10.636  12.225 -0.7355  1.1264  0.0071
  666MOL0     C91788   6.496  10.701  12.269  0.1446  0.6560  0.2649
  666MOL0     C91789   6.449  10.790  12.353  0.4976  0.1147  0.1226
  666MOL0     C91790   6.536  10.894  12.415  0.0613 -0.6416 -0.1846
  666MOL0     C91791   6.468  10.983  12.520  0.2753  0.1770 -1.0250
  666MOL0     C91792   6.464  10.904  12.653  0.0502 -0.5323  0.4085
  666MOL0     C91793   6.348  10.954  12.729 -0.2764  0.2926 -0.5201
  666MOL0     O91794   6.230  10.868  12.714  0.5078  0.5181  0.7016
  666MOL0     C91795   6.221  10.741  12.750  0.5681  0.7263 -1.0338
  666MOL0     C91796   6.304  10.666  12.842  0.0331  0.2291  0.2209
  666MOL0     C91797   6.266  10.537  12.879  0.2169 -0.0692 -0.1702
  666MOL0     C91798   6.360  10.475  12.978  0.8405 -0.3723 -0.0581
  666MOL0     C91799   6.150  10.479  12.822 -0.3007 -0.2102 -0.1445
  666MOL0     C91800   6.113  10.334  12.851 -0.4874 -0.2541  0.4881
  666MOL0     O91801   5.977  10.304  12.864 -0.4085  0.4371  0.0420
  666MOL0     C91802   5.929  10.181  12.841 -0.0866 -0.3551 -0.9805
  666MOL0     C91803   5.995  10.074  12.772 -0.0632  0.3441 -0.1227
  666MOL0     C91804   5.940   9.942  12.764  0.4814 -0.5735 -0.4393
  666MOL0     C91805   5.803   9.925  12.802 -0.4359 -0.1021 -0.5049
  666MOL0     O91806   5.730   9.814  12.775  0.7815 -0.1223 -0.1657
  666MOL0     C91807   5.801   9.697  12.770 -0.6199  0.3215  0.8726
  666MOL0     C91808   5.804   9.652  12.624 -0.3305  0.1383  0.4423
  666MOL0     C91809   5.892   9.526  12.611 -0.8298 -0.1414  0.6801
  666MOL0     C91810   6.035   9.553  12.556 -0.3878 -0.0611 -0.1614
  666MOL0     C91811   6.034   9.549  12.407  0.8779 -0.4876  1.1117
  666MOL0     C91812   6.031   9.405  12.372 -0.4418 -0.5385 -0.2046
  666MOL0     C91813   6.181   9.341  12.358  0.4012  0.3215  0.3987
  666MOL0     C91814   6.190   9.190  12.405  0.5060  0.6280 -0.4092
  666MOL0    Cl91815   6.159   9.196  12.583 -0.3194 -0.3081 -0.0363
  666MOL0     C91816   5.725  10.032  12.855  0.2453  0.0652  0.1658
  666MOL0     C91817   5.790  10.161  12.863 -0.3542  0.3439 -0.3634
  666MOL0     O91818   6.201  10.250  12.865 -0.4884 -1.0601  0.1103
  666MOL0     C91819   6.079  10.549  12.730 -0.4649  0.9051 -0.0678
  666MOL0     C91820   6.115  10.676  12.691 -0.4440 -0.9823  0.8850
  666MOL0     N91821   6.313  10.782  12.359  0.2968 -0.8363 -0.5183
  666MOL0     N91822   6.276  10.679  12.289 -0.1169 -0.4176  0.0579
  666MOL0     C91823   5.832  10.072  11.392  0.2991 -0.6118  0.6527
  666MOL0     C91824   5.755   9.993  11.300 -0.3464 -0.2418 -0.4126
  666MOL0     C91825   5.657   9.769  10.949  0.5365  0.1453 -0.0533
  666MOL0     C91826   5.627   9.647  10.987  0.1734  1.0662 -0.2880
  666MOL0     C91827   5.550   9.557  10.904 -0.9353 -0.1792  0.5512
  666MOL0     C91828   5.518   9.591  10.779  0.0170 -0.2214  0.0773
  666MOL0     O91829   5.453   9.495  10.707 -0.6539  0.3392  0.3906
  666MOL0     C91830   5.382   9.529  10.585 -0.4575  0.2125  0.8080
  666MOL0     C91831   5.252   9.612  10.606 -0.0764 -0.6042 -0.3056
  666MOL0     C91832   5.186   9.574  10.741  0.0036  0.5687  0.0098
  666MOL0     C91833   5.034   9.615  10.738 -0.3186 -1.0733  0.8182
  666MOL0     C91834   5.012   9.757  10.707 -0.9257 -0.7132 -0.1225
  666MOL0     C91835   4.996   9.876  10.673  0.5080  1.0934  0.7051
  666MOL0     C91836   5.547   9.720  10.739  0.6990  0.0236  0.8799
  666MOL0     C91837   5.614   9.809  10.817  0.1502 -0.1262  0.6018
  666MOL0     C91838   5.639   9.954  10.772  0.7001  0.0057 -1.3273
  666MOL0     H91839   5.725  10.198  11.047  0.6972  0.7930  1.2254
  666MOL0     H91840   5.899  10.343  11.186  0.3696 -0.6885 -0.8087
  666MOL0     H91841   6.087  10.140  11.457  0.1137  0.6509 -0.6874
  666MOL0     H91842   5.990  10.194  11.604 -2.5837  3.7640  0.3889
  666MOL0     H91843   6.210  10.338  11.457  0.6276 -1.6080  0.5230
  666MOL0     H91844   6.096  10.414  11.588 -0.4559 -1.8245  4.2012
  666MOL0     H91845   6.293  10.188  11.602 -1.2592 -0.4375  0.9495
  666MOL0     H91846   6.318  10.352  11.668  1.1133 -1.6866  0.3528
  666MOL0     H91847   6.128  10.148  11.769  2.3402 -1.2582 -0.8317
  666MOL0     H91848   6.286  10.170  11.826 -1.3684 -0.3651  0.8838
  666MOL0     H91849   6.090  10.303  11.959  1.0141 -1.2617  0.6323
  666MOL0     H91850   6.095  10.416  11.828  0.5960 -0.6400 -1.2946
  666MOL0     H91851   6.359  10.321  11.978  1.1348 -0.5775 -0.2127
  666MOL0     H91852   6.340  10.453  11.860  2.4959  0.8266  2.8645
  666MOL0     H91853   6.188  10.464  12.113 -0.8548  1.7145 -0.3880
  666MOL0     H91854   6.236  10.607  12.019  0.2220 -0.5713 -1.8488
  666MOL0     H91855   6.423  10.433  12.179  0.3284 -1.0511 -1.7531
  666MOL0     H91856   6.479  10.535  12.051  1.5425 -1.3925  1.8779
  666MOL0     H91857   6.599  10.680  12.243  0.9232  1.5482  2.4263
  666MOL0     H91858   6.563  10.965  12.336  2.6018  0.7440  1.7620
  666MOL0     H91859   6.634  10.856  12.445  0.0202  0.3292  1.2522
  666MOL0     H91860   6.524  11.075  12.538  0.9470 -0.1137 -1.5773
  666MOL0     H91861   6.366  11.002  12.483  1.1596 -0.4945 -4.1135
  666MOL0     H91862   6.437  10.800  12.633 -0.5841 -0.5868  1.4760
  666MOL0     H91863   6.562  10.911  12.700  0.0768  2.7237  0.1439
  666MOL0     H91864   6.369  10.958  12.837 -2.2515  0.4765 -0.0998
  666MOL0     H91865   6.324  11.057  12.700  0.6291  0.4366 -0.7995
  666MOL0     H91866   6.391  10.716  12.884  1.3643 -0.6833 -1.3059
  666MOL0     H91867   6.420  10.555  13.022 -0.0889  0.4647 -0.2724
  666MOL0     H91868   6.429  10.405  12.931  0.4175 -0.7510 -0.1251
  666MOL0     H91869   6.300  10.432  13.059 -1.9848  2.0621 -0.6575
  666MOL0     H91870   6.100  10.086  12.749 -0.1915  2.1708  0.0780
  666MOL0     H91871   6.004   9.871  12.713 -0.4951 -0.6094 -1.6319
  666MOL0     H91872   5.900   9.707  12.815 -0.3476 -1.0552  0.6198
  666MOL0     H91873   5.747   9.627  12.836 -0.4181  1.7092  2.5872
  666MOL0     H91874   5.700   9.637  12.596 -0.3344  0.3364  0.3468
  666MOL0     H91875   5.845   9.733  12.562 -0.0410  0.2403  0.7607
  666MOL0     H91876   5.826   9.458  12.556 -1.3001 -2.1466  3.5183
  666MOL0     H91877   5.912   9.488  12.711 -1.2349  2.9316  2.0212
  666MOL0     H91878   6.109   9.481  12.592 -0.7427  0.3592  1.5216
  666MOL0     H91879   6.076   9.646  12.595  5.8112 -2.2448 -0.4584
  666MOL0     H91880   5.941   9.593  12.369  2.2447  1.6504  0.0177
  666MOL0     H91881   6.113   9.604  12.355 -2.0366  1.7910 -1.3184
  666MOL0     H91882   5.986   9.404  12.272 -1.9322  0.0475  0.4271
  666MOL0     H91883   5.968   9.340  12.433 -2.0168  1.2235  0.1288
  666MOL0     H91884   6.240   9.412  12.417 -2.0421  1.5363  1.4860
  666MOL0     H91885   6.221   9.341  12.256 -0.5498  0.0238  0.0163
  666MOL0     H91886   6.280   9.131  12.385 -1.2124 -2.6995  0.7680
  666MOL0     H91887   6.105   9.134  12.365  0.1738  0.4127  0.5510
  666MOL0     H91888   5.624  10.009  12.886 -0.1149  0.4253 -0.7170
  666MOL0     H91889   5.743  10.253  12.899 -0.9263 -0.7666  1.9169
  666MOL0     H91890   5.991  10.504  12.685 -0.8815  0.5522  1.0892
  666MOL0     H91891   6.055  10.730  12.619  0.4092  2.2380  2.4035
  666MOL0     H91892   5.856  10.034  11.490 -1.0017 -0.3129  1.1184
  666MOL0     H91893   5.725   9.892  11.328  0.6820 -0.9978 -1.8781
  666MOL0     H91894   5.659   9.596  11.077 -0.5792  1.5930  0.2928
  666MOL0     H91895   5.528   9.459  10.946  1.3279 -1.7289 -1.5822
  666MOL0     H91896   5.460   9.576  10.523  1.2577 -0.3846  2.4263
  666MOL0     H91897   5.350   9.438  10.534 -1.0489 -1.0454  3.2776
  666MOL0     H91898   5.188   9.596  10.519 -0.0266  0.7927 -0.6267
  666MOL0     H91899   5.280   9.718  10.609 -0.1751 -0.5953  0.4926
  666MOL0     H91900   5.189   9.466  10.759  0.9116  1.1183  4.3615
  666MOL0     H91901   5.234   9.616  10.830  0.0653  1.7031 -0.5444
  666MOL0     H91902   4.986   9.600  10.835 -0.8864 -1.3546  0.5044
  666MOL0     H91903   4.980   9.554  10.664 -3.1110  0.6044  1.3249
  666MOL0     H91904   5.005   9.978  10.643  0.9227  1.3443  1.6584
  666MOL0     H91905   5.520   9.763  10.643 -0.1204 -1.1206  0.5822
  666MOL0     H91906   5.745   9.974  10.791 -0.0952  1.2914  2.7176
  666MOL0     H91907   5.613   9.972  10.667 -0.8503  0.7419 -0.8517
  666MOL0     H91908   5.581  10.025  10.832  0.1899 -1.2574 -0.2771
  667MOL0     O91909   4.360   7.696   2.452  0.5045 -0.9339 -0.3790
  667MOL0     C91910   4.399   7.791   2.521  0.6615 -0.5557  0.6024
  667MOL0     O91911   4.349   7.916   2.506  0.2651 -0.3094 -0.1685
  667MOL0     C91912   4.234   7.928   2.424  0.0325  0.0931 -0.7282
  667MOL0     C91913   4.226   8.025   2.325  0.0536 -0.1175 -0.0053
  667MOL0     C91914   4.102   8.048   2.267  0.5667  0.9258 -0.4888
  667MOL0     C91915   3.983   7.982   2.309  0.2714 -1.3136  0.1612
  667MOL0     O91916   3.856   7.998   2.257  0.3921  0.3689  0.6400
  667MOL0     C91917   3.822   8.118   2.183  0.5490  1.1381  0.5200
  667MOL0     C91918   3.842   8.243   2.261  0.5543 -0.3206  0.5770
  667MOL0     C91919   3.707   8.298   2.325 -0.2340  0.3205 -0.3074
  667MOL0     C91920   3.696   8.445   2.347  0.3698 -0.6595 -0.1471
  667MOL0     C91921   3.557   8.498   2.333 -0.9931 -0.7603 -0.3048
  667MOL0     C91922   3.520   8.642   2.371 -0.0014  1.0255  0.2662
  667MOL0     C91923   3.604   8.746   2.303  0.3028 -0.2812  0.0554
  667MOL0     C91924   3.553   8.778   2.162 -1.2152  0.5898 -0.3309
  667MOL0     N91925   3.640   8.878   2.088  0.5459 -0.5977 -0.1777
  667MOL0     C91926   3.600   8.999   2.041  0.3872 -0.3541  0.0884
  667MOL0     C91927   3.706   9.032   1.964  0.8747 -0.6041 -0.7530
  667MOL0     C91928   3.710   9.158   1.885 -0.0358 -0.3952 -0.2406
  667MOL0     C91929   3.615   9.135   1.768 -0.7401  0.2551  0.2028
  667MOL0     C91930   3.666   9.243   1.671 -0.1331  0.6279 -0.5499
  667MOL0     C91931   3.582   9.241   1.542  0.7457  0.1661  0.8992
  667MOL0     O91932   3.649   9.325   1.440 -0.4351  0.2946  0.2585
  667MOL0     C91933   3.616   9.463   1.438 -0.1507  0.5792  0.1238
  667MOL0     C91934   3.715   9.543   1.385 -0.4401  0.0527  0.0394
  667MOL0     C91935   3.706   9.683   1.369  0.0920 -0.0068  0.3692
  667MOL0     C91936   3.826   9.740   1.306 -0.0437 -0.1473  0.0653
  667MOL0     C91937   3.590   9.756   1.414 -0.0819  0.3625  1.0077
  667MOL0     C91938   3.556   9.900   1.408 -0.3232  0.5982  0.0768
  667MOL0     O91939   3.427   9.930   1.407 -0.2330  1.0409  0.2598
  667MOL0     C91940   3.391  10.059   1.369 -0.6583  0.2490 -0.1086
  667MOL0     C91941   3.396  10.171   1.462 -0.3253 -0.2557  0.0724
  667MOL0     C91942   3.339  10.295   1.435 -0.1401  0.7715 -0.5583
  667MOL0     C91943   3.279  10.319   1.308  0.3392 -0.4762 -0.5902
  667MOL0     O91944   3.204  10.429   1.280 -0.3161 -0.3458  0.2062
  667MOL0     C91945   3.163  10.524   1.385  0.6208 -0.2976 -1.1573
  667MOL0     C91946   3.046  10.618   1.331 -0.6391 -0.3952 -0.3316
  667MOL0     C91947   3.068  10.659   1.191 -0.1306  0.0268  0.0487
  667MOL0     C91948   2.946  10.735   1.134  0.6714  0.3969 -0.5544
  667MOL0     C91949   2.935  10.883   1.171  0.3095  0.0481  0.3785
  667MOL0     C91950   2.806  10.941   1.110  0.4363 -0.2966  0.6053
  667MOL0     C91951   2.804  11.090   1.103  0.2530  0.9440  0.0885
  667MOL0     C91952   2.701  11.139   1.010  0.7685 -0.1731  0.4744
  667MOL0    Cl91953   2.539  11.172   1.092  0.8333 -0.4104 -0.6794
  667MOL0     C91954   3.283  10.217   1.214  0.7738 -0.1426  0.5519
  667MOL0     C91955   3.339  10.097   1.242 -0.0959  0.2597 -0.0436
  667MOL0     O91956   3.646   9.980   1.377  0.1242  0.9510  0.5575
  667MOL0     C91957   3.492   9.673   1.475 -0.1188 -0.4803 -0.5612
  667MOL0     C91958   3.509   9.533   1.491 -0.1934  0.9776  0.7251
  667MOL0     N91959   3.808   8.943   1.965 -0.3900 -0.3031  0.7136
  667MOL0     N91960   3.765   8.850   2.044  0.2193  1.0729  0.2364
  667MOL0     C91961   3.996   7.882   2.400  0.2723 -0.4510  0.0974
  667MOL0     C91962   4.120   7.864   2.464  0.1368  0.9352 -0.0969
  667MOL0     C91963   4.515   7.778   2.616 -0.1210  0.0782 -0.3358
  667MOL0     C91964   4.564   7.898   2.680  0.5870  1.2062 -0.0228
  667MOL0     C91965   4.664   7.893   2.783 -0.3132 -0.3139 -1.2056
  667MOL0     C91966   4.738   7.780   2.805 -0.3334  0.3155 -0.4444
  667MOL0     O91967   4.855   7.796   2.880 -0.3831  0.8613  0.3039
  667MOL0     C91968   4.924   7.682   2.929  0.9171 -0.3120  0.3044
  667MOL0     C91969   5.049   7.728   3.010  0.7216 -0.0175  0.6988
  667MOL0     C91970   5.014   7.807   3.120 -0.4779  0.0896  0.1405
  667MOL0     C91971   5.138   7.835   3.215 -0.5865  0.7329 -0.5344
  667MOL0     C91972   5.190   7.707   3.269  0.0873  1.0917 -0.4481
  667MOL0     C91973   5.224   7.597   3.310  0.1306 -0.5251 -0.3144
  667MOL0     C91974   4.694   7.662   2.742 -0.3321 -0.4058  0.1505
  667MOL0     C91975   4.590   7.660   2.648  0.9346 -0.0122  0.7817
  667MOL0     C91976   4.565   7.522   2.592 -0.0779  0.6437 -0.5252
  667MOL0     H91977   4.309   8.091   2.306 -1.1343  2.3584  2.5601
  667MOL0     H91978   4.103   8.121   2.187 -0.1864  0.0526 -1.3124
  667MOL0     H91979   3.720   8.108   2.144  0.8385  0.4935 -0.1101
  667MOL0     H91980   3.890   8.106   2.098  1.2151 -1.1431  1.2864
  667MOL0     H91981   3.914   8.234   2.342  0.3789 -1.9596  0.5876
  667MOL0     H91982   3.874   8.329   2.202  0.5953 -0.8543 -0.1994
  667MOL0     H91983   3.629   8.263   2.255  2.9356 -0.7508 -3.6413
  667MOL0     H91984   3.691   8.239   2.415 -1.8442  0.1836 -0.6515
  667MOL0     H91985   3.742   8.476   2.442 -0.8515 -1.8074  0.8510
  667MOL0     H91986   3.768   8.492   2.279 -0.7423  0.7399 -0.4130
  667MOL0     H91987   3.502   8.432   2.401 -2.7645 -0.9624 -1.8564
  667MOL0     H91988   3.511   8.472   2.237 -2.5577 -3.1386  0.9743
  667MOL0     H91989   3.414   8.656   2.348 -0.4637 -1.8574  0.2222
  667MOL0     H91990   3.528   8.651   2.480  2.2336 -2.1149  0.4961
  667MOL0     H91991   3.710   8.720   2.295  0.9816  1.0473  3.2265
  667MOL0     H91992   3.594   8.837   2.363 -0.7690  0.0625 -0.6157
  667MOL0     H91993   3.566   8.683   2.110 -1.5056 -0.6403  1.7644
  667MOL0     H91994   3.444   8.785   2.155 -1.4245 -2.0208 -0.3214
  667MOL0     H91995   3.510   9.057   2.063 -0.8058 -2.9360  2.7019
  667MOL0     H91996   3.813   9.183   1.859 -0.0382  0.3299  0.4124
  667MOL0     H91997   3.677   9.230   1.960 -4.5356  0.8355 -3.0713
  667MOL0     H91998   3.627   9.040   1.714  1.4435  1.8041 -2.2615
  667MOL0     H91999   3.509   9.155   1.785 -1.3228 -0.3635 -2.2864
  667MOL0     H92000   3.655   9.338   1.724  0.2030  1.3479 -1.7262
  667MOL0     H92001   3.773   9.237   1.646  0.2619  0.1055  1.0995
  667MOL0     H92002   3.584   9.135   1.515 -0.2503 -0.0272  1.5138
  667MOL0     H92003   3.476   9.265   1.557 -0.2455 -3.2355  0.2570
  667MOL0     H92004   3.807   9.496   1.351 -1.1302 -1.8379  0.6288
  667MOL0     H92005   3.879   9.808   1.374  0.1600 -1.4800  1.2778
  667MOL0     H92006   3.787   9.794   1.218  2.1811  1.3068 -0.1083
  667MOL0     H92007   3.895   9.666   1.266  0.4505  1.0492 -1.3977
  667MOL0     H92008   3.428  10.152   1.564 -1.3100  0.8394  0.6078
  667MOL0     H92009   3.329  10.373   1.510 -1.6566  0.5359 -0.4814
  667MOL0     H92010   3.111  10.476   1.468 -3.2503  4.3001 -0.4898
  667MOL0     H92011   3.253  10.575   1.421 -0.3712  0.3952  0.4444
  667MOL0     H92012   2.958  10.554   1.335 -0.2635 -0.9203  2.8636
  667MOL0     H92013   3.022  10.705   1.394 -0.4423 -0.1588 -0.5790
  667MOL0     H92014   3.075  10.572   1.125  0.3227 -0.7660  1.1166
  667MOL0     H92015   3.163  10.711   1.176 -1.7393  2.1202 -5.1841
  667MOL0     H92016   2.855  10.683   1.164  0.7529  1.4762  1.7682
  667MOL0     H92017   2.941  10.720   1.025 -0.3395 -0.0542 -0.4602
  667MOL0     H92018   2.942  10.905   1.278  1.5778 -0.0250  0.3281
  667MOL0     H92019   3.022  10.932   1.126  2.0747 -2.0939  1.2742
  667MOL0     H92020   2.722  10.904   1.169  1.0761  0.2129  1.8699
  667MOL0     H92021   2.810  10.903   1.007  3.7748  1.2684  0.0283
  667MOL0     H92022   2.900  11.111   1.056  1.1683  0.2336  1.5587
  667MOL0     H92023   2.807  11.145   1.198  0.8878  0.7927  0.1633
  667MOL0     H92024   2.690  11.071   0.926 -1.3431  0.1742  0.4156
  667MOL0     H92025   2.738  11.230   0.963  1.2910  0.5138  2.1259
  667MOL0     H92026   3.231  10.234   1.120  1.3055  0.1196  0.2999
  667MOL0     H92027   3.334  10.016   1.170  0.7887  0.3571 -0.2283
  667MOL0     H92028   3.409   9.718   1.528  1.1682  1.4338 -0.0827
  667MOL0     H92029   3.431   9.476   1.540  1.5577  0.0487  2.5349
  667MOL0     H92030   3.909   7.827   2.434  0.8101  0.0233  2.3579
  667MOL0     H92031   4.126   7.793   2.545 -0.2769  0.6517 -0.3114
  667MOL0     H92032   4.519   7.996   2.662 -1.3464  0.1936 -1.0205
  667MOL0     H92033   4.711   7.979   2.830 -0.2767 -1.8568  1.8201
  667MOL0     H92034   4.853   7.620   2.983 -0.8543  2.1646  0.9791
  667MOL0     H92035   4.955   7.625   2.841 -0.6422  1.1519 -1.2489
  667MOL0     H92036   5.125   7.778   2.950 -1.3418  1.3217 -0.9204
  667MOL0     H92037   5.089   7.632   3.044 -3.1047 -3.1911 -2.5794
  667MOL0     H92038   4.961   7.892   3.076 -2.4011 -3.1367 -4.7278
  667MOL0     H92039   4.947   7.747   3.182 -1.2132 -0.6470 -1.3075
  667MOL0     H92040   5.118   7.902   3.298 -0.9724  0.1080 -0.1147
  667MOL0     H92041   5.219   7.881   3.157 -1.2730  0.6725 -1.5704
  667MOL0     H92042   5.258   7.500   3.342  0.4768  0.0459  1.1010
  667MOL0     H92043   4.752   7.572   2.760 -1.3350 -0.8233  1.4515
  667MOL0     H92044   4.560   7.535   2.483 -1.2825 -1.2121 -0.7355
  667MOL0     H92045   4.646   7.453   2.615 -0.7568 -0.8081 -2.2754
  667MOL0     H92046   4.483   7.470   2.642  1.6789 -1.6241  0.1666
  668MOL0     O92047   4.297   9.716   0.848  0.2324 -0.1064  1.0319
  668MOL0     C92048   4.218   9.623   0.875  0.3869 -0.2886  0.2253
  668MOL0     O92049   4.091   9.621   0.850 -0.4069 -0.6489 -0.3131
  668MOL0     C92050   4.025   9.711   0.769 -0.8314 -0.0203 -0.6138
  668MOL0     C92051   3.902   9.672   0.723  0.3868  0.1943  0.1468
  668MOL0     C92052   3.825   9.753   0.646 -0.2339  0.3242  0.3063
  668MOL0     C92053   3.866   9.886   0.608  0.0240  0.6584  0.0986
  668MOL0     O92054   3.800   9.966   0.521  0.7295  0.2531  0.9290
  668MOL0     C92055   3.682   9.916   0.436 -0.7054 -0.0378 -0.9446
  668MOL0     C92056   3.546   9.924   0.514  0.5083  0.5242  0.4785
  668MOL0     C92057   3.443   9.920   0.408  0.7661 -0.0927 -0.2173
  668MOL0     C92058   3.302   9.948   0.468 -0.7868 -0.1122  0.3343
  668MOL0     C92059   3.261   9.866   0.592 -1.2053 -0.4010 -0.0714
  668MOL0     C92060   3.110   9.876   0.611 -0.4385 -0.4714 -0.4050
  668MOL0     C92061   3.069   9.782   0.728 -1.1418 -0.0180  0.1637
  668MOL0     C92062   2.919   9.771   0.726  0.8642  0.7830  0.5378
  668MOL0     N92063   2.869   9.734   0.856 -0.4013 -0.3621  0.3494
  668MOL0     C92064   2.886   9.803   0.983 -0.5652 -0.3708 -0.1661
  668MOL0     C92065   2.865   9.714   1.075  0.4150  0.0374  0.2140
  668MOL0     C92066   2.891   9.732   1.220 -0.5080 -0.2099  0.1182
  668MOL0     C92067   3.046   9.732   1.237  0.8183  0.3863  0.6664
  668MOL0     C92068   3.086   9.732   1.394  0.0658 -0.3720 -1.0654
  668MOL0     C92069   3.056   9.605   1.468  0.3894 -0.6008  0.7507
  668MOL0     O92070   3.161   9.589   1.569  0.9111  0.8994 -0.3484
  668MOL0     C92071   3.175   9.485   1.662 -0.2264 -1.4938  0.3666
  668MOL0     C92072   3.274   9.494   1.763  0.3167  0.1791  0.7140
  668MOL0     C92073   3.291   9.393   1.859  0.0452  0.0920 -0.2523
  668MOL0     C92074   3.391   9.417   1.971 -0.1656 -0.5449  0.0128
  668MOL0     C92075   3.222   9.266   1.837 -0.0451  0.3647  0.5231
  668MOL0     C92076   3.239   9.150   1.924 -0.7470 -0.5093 -0.5934
  668MOL0     O92077   3.180   9.031   1.893 -0.0375  0.4308  0.0529
  668MOL0     C92078   3.198   8.916   1.970  0.3253 -0.4035  0.5404
  668MOL0     C92079   3.131   8.892   2.092  0.0539 -0.8707  0.8994
  668MOL0     C92080   3.127   8.761   2.154  0.2594 -0.2118  0.6088
  668MOL0     C92081   3.203   8.657   2.096 -0.5534  0.0624 -0.5222
  668MOL0     O92082   3.218   8.538   2.161  0.1028 -0.3739  0.2970
  668MOL0     C92083   3.114   8.441   2.129  1.3499  0.2594 -0.3452
  668MOL0     C92084   3.152   8.309   2.198  0.4829  0.0139 -0.8757
  668MOL0     C92085   3.283   8.216   2.156  0.0494 -0.6390 -0.1345
  668MOL0     C92086   3.261   8.066   2.163 -0.2238 -0.1610 -0.3625
  668MOL0     C92087   3.388   7.985   2.149  0.0349  0.3576  0.1331
  668MOL0     C92088   3.431   7.953   2.286 -0.3360 -1.6595 -0.3907
  668MOL0     C92089   3.546   7.854   2.289  0.5155  0.1026  0.0254
  668MOL0     C92090   3.515   7.701   2.268  1.0622  0.4303 -0.3280
  668MOL0    Cl92091   3.446   7.630   2.418 -0.3503 -0.5373  0.6929
  668MOL0     C92092   3.280   8.681   1.980 -0.3525 -0.7973 -1.0969
  668MOL0     C92093   3.262   8.808   1.917  1.0876  0.9513  0.8714
  668MOL0     O92094   3.291   9.169   2.035 -0.4807 -0.1993  0.4905
  668MOL0     C92095   3.122   9.264   1.735 -0.0766 -0.8510 -0.5704
  668MOL0     C92096   3.101   9.370   1.654  0.3014  0.1273 -0.2670
  668MOL0     N92097   2.820   9.600   1.018 -0.3108 -0.6859  0.7258
  668MOL0     N92098   2.821   9.609   0.887 -0.5615  0.4812 -0.0357
  668MOL0     C92099   3.988   9.923   0.652  0.4475 -0.4330 -0.0729
  668MOL0     C92100   4.066   9.840   0.728  0.6981 -0.0956  0.7172
  668MOL0     C92101   4.274   9.498   0.944 -0.3472 -0.1010  0.4033
  668MOL0     C92102   4.420   9.491   0.951 -0.2422  0.3469 -0.1804
  668MOL0     C92103   4.478   9.379   1.014 -0.0359  0.0903  0.6061
  668MOL0     C92104   4.401   9.273   1.061 -0.4882 -0.1892 -0.1662
  668MOL0     O92105   4.454   9.150   1.107 -0.2956  0.0877  0.6187
  668MOL0     C92106   4.433   9.119   1.242  0.3076  0.5466 -0.1151
  668MOL0     C92107   4.551   9.128   1.339 -0.0196  0.6581  0.5215
  668MOL0     C92108   4.604   9.278   1.353  0.2333 -0.5186 -1.0152
  668MOL0     C92109   4.541   9.352   1.471  0.0754 -0.8509 -0.1497
  668MOL0     C92110   4.572   9.286   1.591 -0.6142 -0.8014 -0.2722
  668MOL0     C92111   4.616   9.218   1.688  1.4684 -0.6215  0.3859
  668MOL0     C92112   4.261   9.280   1.056  0.1524 -1.0709 -0.3200
  668MOL0     C92113   4.199   9.391   0.991  0.1768 -0.4680 -0.5776
  668MOL0     C92114   4.049   9.379   0.979  0.3994  0.0757  0.1734
  668MOL0     H92115   3.861   9.574   0.741  0.4609 -0.2412 -1.8213
  668MOL0     H92116   3.725   9.717   0.621 -0.4599  0.3781  1.1109
  668MOL0     H92117   3.712   9.815   0.408  0.5750  0.2302 -0.6041
  668MOL0     H92118   3.691   9.973   0.343 -1.3009  1.6193 -0.0388
  668MOL0     H92119   3.527   9.838   0.578  2.3304  1.0124  1.7384
  668MOL0     H92120   3.542  10.016   0.573  2.3557 -0.9651  3.0834
  668MOL0     H92121   3.474   9.996   0.335  2.7245  0.5273  1.1753
  668MOL0     H92122   3.452   9.821   0.363  2.5587  0.7884 -2.0184
  668MOL0     H92123   3.303  10.055   0.489 -1.2341  0.8225 -3.6412
  668MOL0     H92124   3.227   9.930   0.390 -1.2061 -2.1725  1.1382
  668MOL0     H92125   3.311   9.908   0.680 -1.2026 -1.5206  0.4765
  668MOL0     H92126   3.288   9.761   0.582  2.1086  0.3995 -0.7275
  668MOL0     H92127   3.084   9.981   0.628 -1.9111 -1.1340  1.9958
  668MOL0     H92128   3.050   9.838   0.528 -0.3673  0.1002 -0.7264
  668MOL0     H92129   3.106   9.832   0.818 -0.3858  1.3910 -0.8738
  668MOL0     H92130   3.128   9.690   0.721 -0.8915  0.1105  0.5469
  668MOL0     H92131   2.884   9.871   0.699  2.9371  1.6185  0.7589
  668MOL0     H92132   2.877   9.705   0.650 -0.1439  2.0300 -0.0351
  668MOL0     H92133   2.910   9.905   1.011 -2.8026 -0.1880  1.4403
  668MOL0     H92134   2.853   9.647   1.279 -0.9968 -1.2488 -1.6260
  668MOL0     H92135   2.839   9.825   1.246 -0.3121 -0.1637  0.3466
  668MOL0     H92136   3.086   9.642   1.189  0.3348  0.1144  0.7643
  668MOL0     H92137   3.093   9.815   1.185 -0.2408  1.7064  1.7491
  668MOL0     H92138   3.195   9.744   1.401  0.2259 -2.5316  2.5498
  668MOL0     H92139   3.048   9.823   1.443  1.7952 -0.0878 -0.1734
  668MOL0     H92140   2.960   9.604   1.520 -1.2511  1.8591 -1.9443
  668MOL0     H92141   3.053   9.530   1.389  0.8016 -0.9909  1.0986
  668MOL0     H92142   3.320   9.591   1.775  1.6601 -0.5995  2.2399
  668MOL0     H92143   3.465   9.338   1.985 -1.8586 -2.1102  0.5758
  668MOL0     H92144   3.338   9.441   2.063  0.7803  1.5689  0.0633
  668MOL0     H92145   3.448   9.506   1.945 -2.1071  0.5435 -0.7527
  668MOL0     H92146   3.072   8.971   2.138  2.4361  2.0958 -0.8146
  668MOL0     H92147   3.075   8.744   2.248 -0.7378 -2.8795 -0.3402
  668MOL0     H92148   3.013   8.469   2.160  0.8312 -0.0266 -1.6746
  668MOL0     H92149   3.107   8.426   2.021 -1.9129 -0.2872 -0.1625
  668MOL0     H92150   3.169   8.328   2.304  0.2310  1.0069 -1.0057
  668MOL0     H92151   3.071   8.238   2.183  0.2410  0.4182 -1.5050
  668MOL0     H92152   3.376   8.238   2.209  1.6762 -0.4239 -2.8606
  668MOL0     H92153   3.316   8.242   2.054 -1.3437  0.0679 -0.4273
  668MOL0     H92154   3.197   8.043   2.076  1.4934  0.3168 -1.8054
  668MOL0     H92155   3.208   8.037   2.254  0.8358  0.5033  0.4707
  668MOL0     H92156   3.370   7.889   2.100  0.4990 -2.0573  4.2166
  668MOL0     H92157   3.471   8.031   2.094  3.0592 -3.7480  0.8348
  668MOL0     H92158   3.354   7.914   2.352  0.7655 -0.7868  1.5029
  668MOL0     H92159   3.461   8.046   2.336  4.3527 -2.8374 -0.4922
  668MOL0     H92160   3.601   7.880   2.380 -0.5043  1.0346  0.4121
  668MOL0     H92161   3.609   7.881   2.205  2.0023 -1.6893  0.5049
  668MOL0     H92162   3.613   7.654   2.255  1.2768  1.2399 -1.9704
  668MOL0     H92163   3.456   7.691   2.177 -0.0177  1.5235  0.2084
  668MOL0     H92164   3.338   8.598   1.940 -0.4232 -0.1759 -2.5919
  668MOL0     H92165   3.305   8.813   1.817 -2.1017 -1.6973 -0.8031
  668MOL0     H92166   3.064   9.175   1.714 -2.0571  1.0781 -4.2292
  668MOL0     H92167   3.019   9.369   1.583  0.0494  1.2553 -0.0249
  668MOL0     H92168   4.031  10.014   0.612  1.2802 -1.2677 -1.1383
  668MOL0     H92169   4.168   9.875   0.741  1.1103 -0.1811 -1.7627
  668MOL0     H92170   4.476   9.568   0.898  0.1561  1.8064  2.1904
  668MOL0     H92171   4.585   9.362   1.013  0.2389  1.3035 -2.6213
  668MOL0     H92172   4.361   9.186   1.289  0.2646  0.9681 -0.7668
  668MOL0     H92173   4.398   9.016   1.243  0.2879  0.5492  0.7619
  668MOL0     H92174   4.636   9.074   1.295  1.4952  1.2570  2.5506
  668MOL0     H92175   4.534   9.078   1.434  0.2801  0.4296  0.4564
  668MOL0     H92176   4.712   9.268   1.370  0.2264  0.7228 -0.0715
  668MOL0     H92177   4.589   9.338   1.263 -1.9301 -1.1926 -1.1675
  668MOL0     H92178   4.432   9.351   1.461 -0.2455  3.9460  0.4030
  668MOL0     H92179   4.572   9.457   1.470  0.5318 -0.9399  1.5545
  668MOL0     H92180   4.631   9.154   1.772 -2.7582  1.5688  3.1425
  668MOL0     H92181   4.196   9.196   1.078  0.5453 -1.4108 -0.4298
  668MOL0     H92182   4.009   9.283   1.014  0.8326 -1.1734 -2.4938
  668MOL0     H92183   3.987   9.457   1.025  0.4761  0.7483 -0.8324
  668MOL0     H92184   4.026   9.374   0.872  3.8921  1.6468 -0.8007
  669MOL0     O92185   6.071   8.633   5.365 -0.1164  0.3852  1.2014
  669MOL0     C92186   6.078   8.756   5.346  0.8405  0.8019  0.6947
  669MOL0     O92187   5.971   8.842   5.329  0.2158 -0.0160  0.0768
  669MOL0     C92188   5.845   8.819   5.388 -0.1484 -0.1603  0.9596
  669MOL0     C92189   5.725   8.822   5.305 -0.3426  0.1003 -1.4396
  669MOL0     C92190   5.606   8.800   5.373  1.0181  0.4437 -0.0893
  669MOL0     C92191   5.597   8.768   5.507 -0.1883  0.1758  0.1100
  669MOL0     O92192   5.479   8.741   5.574 -0.5267 -0.0060 -0.2608
  669MOL0     C92193   5.384   8.663   5.498 -1.2777  0.4125  0.0618
  669MOL0     C92194   5.418   8.511   5.494 -0.5056 -0.6095 -0.3483
  669MOL0     C92195   5.404   8.450   5.632 -0.3746 -0.8037 -0.9218
  669MOL0     C92196   5.435   8.301   5.632 -0.5298  0.3707  0.4670
  669MOL0     C92197   5.335   8.226   5.724 -0.2443 -0.0176  0.3093
  669MOL0     C92198   5.373   8.074   5.726 -0.7238 -0.2584  0.0575
  669MOL0     C92199   5.259   7.979   5.730 -0.5951  0.3934 -0.3027
  669MOL0     C92200   5.326   7.836   5.734 -0.4175 -0.1369 -0.4552
  669MOL0     N92201   5.216   7.743   5.750  0.7115  0.0519  0.0005
  669MOL0     C92202   5.134   7.689   5.649 -0.7694  0.0676  0.8338
  669MOL0     C92203   5.056   7.606   5.718 -0.8575  0.4470 -0.2952
  669MOL0     C92204   4.955   7.513   5.662  0.5054  0.1295 -0.0498
  669MOL0     C92205   4.811   7.566   5.682  0.3281  0.3929  0.4275
  669MOL0     C92206   4.770   7.707   5.635  0.2062 -0.5542 -0.7032
  669MOL0     C92207   4.610   7.716   5.642 -0.3842 -0.2527  0.5218
  669MOL0     O92208   4.567   7.849   5.663 -0.1980  0.3474  0.9923
  669MOL0     C92209   4.430   7.870   5.647 -0.2735  0.0080  0.9124
  669MOL0     C92210   4.323   7.775   5.613 -0.1559  0.0422 -0.7114
  669MOL0     C92211   4.191   7.808   5.589 -0.3132 -0.7656  0.2695
  669MOL0     C92212   4.087   7.704   5.551 -0.6681  0.1569  0.7612
  669MOL0     C92213   4.161   7.946   5.583  0.5767 -0.6419 -0.6225
  669MOL0     C92214   4.026   8.005   5.553  0.0829 -0.1391  0.1423
  669MOL0     O92215   3.982   8.117   5.625 -0.1177 -0.0397 -0.5718
  669MOL0     C92216   3.882   8.194   5.574  0.2340  0.1646  0.4591
  669MOL0     C92217   3.745   8.152   5.550  1.2141  0.1491 -0.4969
  669MOL0     C92218   3.644   8.241   5.506 -0.5031  0.7921  0.3017
  669MOL0     C92219   3.679   8.376   5.486  0.1984 -0.0444  0.1367
  669MOL0     O92220   3.579   8.456   5.425 -0.6695 -0.1101  0.4613
  669MOL0     C92221   3.631   8.541   5.313 -0.1461 -0.6048  0.3725
  669MOL0     C92222   3.511   8.615   5.235  1.1084  1.1654  0.3043
  669MOL0     C92223   3.570   8.717   5.136 -0.2958  1.0197  0.5668
  669MOL0     C92224   3.547   8.864   5.164 -0.7823  0.5526 -0.3999
  669MOL0     C92225   3.562   8.947   5.032 -0.3961 -0.5692  0.4235
  669MOL0     C92226   3.566   9.091   5.087 -0.6257 -0.3630  0.2787
  669MOL0     C92227   3.444   9.138   5.174  0.3600 -0.4592 -0.1603
  669MOL0     C92228   3.301   9.125   5.115  0.2189 -0.1778 -0.8150
  669MOL0    Cl92229   3.187   9.161   5.247 -0.2781  0.2736  0.1416
  669MOL0     C92230   3.805   8.423   5.511  0.2946 -0.7331 -0.7672
  669MOL0     C92231   3.909   8.332   5.558  0.1570 -0.5867  0.9411
  669MOL0     O92232   3.966   7.957   5.455 -0.2023 -0.2268 -0.2854
  669MOL0     C92233   4.258   8.046   5.620 -0.2628 -0.7175 -0.3390
  669MOL0     C92234   4.400   8.008   5.655 -0.0928  0.1397  1.2234
  669MOL0     N92235   5.082   7.616   5.856 -0.4180  0.5266  0.4853
  669MOL0     N92236   5.185   7.694   5.870  0.5422  0.7914 -0.6048
  669MOL0     C92237   5.714   8.770   5.586 -0.6752  0.4765 -0.7065
  669MOL0     C92238   5.838   8.791   5.523 -0.4114  0.1716  0.9144
  669MOL0     C92239   6.214   8.823   5.353  0.2081 -0.3986  0.0623
  669MOL0     C92240   6.222   8.958   5.306  0.2854 -0.2583  0.3064
  669MOL0     C92241   6.329   9.036   5.340 -0.2899  0.3913  0.1571
  669MOL0     C92242   6.442   8.980   5.398 -0.2989  0.9135 -0.5877
  669MOL0     O92243   6.564   9.043   5.404  0.8708 -1.0443  0.0735
  669MOL0     C92244   6.640   9.044   5.522  0.4446 -0.1099 -0.1061
  669MOL0     C92245   6.648   9.181   5.589  0.7320 -0.3911 -0.3414
  669MOL0     C92246   6.510   9.227   5.634 -0.2357 -0.0353  0.5979
  669MOL0     C92247   6.531   9.331   5.747 -0.6763 -0.4324 -0.0581
  669MOL0     C92248   6.411   9.391   5.804 -1.0526 -0.3112  0.0228
  669MOL0     C92249   6.310   9.441   5.846  0.2415  0.1006 -0.1477
  669MOL0     C92250   6.441   8.843   5.428 -1.0719 -0.2960  0.1074
  669MOL0     C92251   6.328   8.761   5.406 -0.1032 -0.2546  0.4300
  669MOL0     C92252   6.326   8.619   5.469  0.6549 -0.5850 -0.9081
  669MOL0     H92253   5.719   8.842   5.198 -0.5037 -1.1859 -1.6878
  669MOL0     H92254   5.520   8.801   5.306 -0.6070 -3.4526  1.6219
  669MOL0     H92255   5.389   8.699   5.395  0.8483 -2.1094 -0.8315
  669MOL0     H92256   5.279   8.669   5.528 -1.7108 -1.7674 -0.8003
  669MOL0     H92257   5.359   8.464   5.415 -0.3898  2.5368 -2.4549
  669MOL0     H92258   5.524   8.498   5.470 -0.1740 -1.1887  1.2303
  669MOL0     H92259   5.465   8.501   5.707  2.5731 -0.7505 -3.1649
  669MOL0     H92260   5.302   8.463   5.668 -0.1340 -0.7903 -0.2440
  669MOL0     H92261   5.426   8.279   5.525 -0.6487  0.4604  0.4593
  669MOL0     H92262   5.541   8.289   5.659 -0.4129 -1.8997 -0.7670
  669MOL0     H92263   5.235   8.240   5.683  0.0067  0.7317 -0.0717
  669MOL0     H92264   5.337   8.255   5.830 -4.7847  0.9324  0.3431
  669MOL0     H92265   5.434   8.057   5.636  0.0995 -1.8166  0.8526
  669MOL0     H92266   5.439   8.056   5.811  1.4972  0.8684 -1.3314
  669MOL0     H92267   5.205   8.007   5.639 -0.3634  0.2928 -0.4716
  669MOL0     H92268   5.197   7.998   5.818 -1.0209  1.2465 -0.7714
  669MOL0     H92269   5.384   7.824   5.643 -2.1322  2.2167 -1.9742
  669MOL0     H92270   5.396   7.832   5.818 -3.5731 -2.0156  2.3684
  669MOL0     H92271   5.155   7.695   5.543  2.1434 -0.8889  1.2575
  669MOL0     H92272   4.962   7.418   5.716  2.8838  0.7528  0.8653
  669MOL0     H92273   4.987   7.493   5.559 -0.6644 -3.3153  0.1426
  669MOL0     H92274   4.752   7.497   5.620  1.1119  1.7503 -1.9867
  669MOL0     H92275   4.789   7.564   5.789  2.2308  2.5984  0.9264
  669MOL0     H92276   4.816   7.788   5.692  2.0981 -0.9327 -1.6393
  669MOL0     H92277   4.800   7.723   5.531 -2.9562  1.5861 -1.4477
  669MOL0     H92278   4.576   7.678   5.545  0.2614  2.3726 -0.8420
  669MOL0     H92279   4.571   7.663   5.729  0.1890  3.3378  3.2075
  669MOL0     H92280   4.351   7.670   5.610  3.1493  0.8334 -1.6268
  669MOL0     H92281   4.126   7.610   5.592 -0.6887 -0.2780 -0.1869
  669MOL0     H92282   4.082   7.708   5.442 -1.6678  2.0858  0.8388
  669MOL0     H92283   3.990   7.738   5.589 -0.3362  1.4703  0.4873
  669MOL0     H92284   3.720   8.052   5.585  2.9620  0.5955  2.3625
  669MOL0     H92285   3.545   8.209   5.475 -0.1460  0.0028 -0.0308
  669MOL0     H92286   3.697   8.622   5.345  0.0770 -0.4421 -0.4786
  669MOL0     H92287   3.682   8.476   5.241 -1.2428  0.0516 -1.0431
  669MOL0     H92288   3.451   8.541   5.181  1.4333 -0.8513  2.5641
  669MOL0     H92289   3.440   8.669   5.299 -1.6985  0.3617 -1.8808
  669MOL0     H92290   3.510   8.714   5.044  0.5747  3.6437 -0.1618
  669MOL0     H92291   3.674   8.701   5.104 -0.7597 -1.1148 -0.0903
  669MOL0     H92292   3.612   8.891   5.248  1.3932 -2.3145 -1.0035
  669MOL0     H92293   3.443   8.880   5.195 -0.4901  3.6505 -0.6921
  669MOL0     H92294   3.653   8.928   4.976 -0.6281  0.4548 -0.3284
  669MOL0     H92295   3.479   8.940   4.961 -1.3595  1.1560  1.2953
  669MOL0     H92296   3.572   9.153   4.996 -0.9407 -0.3057  0.2937
  669MOL0     H92297   3.656   9.108   5.147  0.2647 -2.1823 -0.4769
  669MOL0     H92298   3.456   9.244   5.198 -0.0542 -0.1803 -1.1183
  669MOL0     H92299   3.447   9.090   5.272  3.6857 -0.3423 -0.0941
  669MOL0     H92300   3.277   9.030   5.065 -0.2544 -1.0199  0.9229
  669MOL0     H92301   3.301   9.196   5.032 -2.1802 -1.5562 -2.1208
  669MOL0     H92302   3.844   8.524   5.508 -0.4384 -0.3575  1.0319
  669MOL0     H92303   4.009   8.372   5.567 -0.1525  0.6440 -0.5298
  669MOL0     H92304   4.238   8.152   5.607 -1.0802 -1.0358 -1.9736
  669MOL0     H92305   4.475   8.084   5.675  0.8286  0.7080 -3.3476
  669MOL0     H92306   5.703   8.734   5.688 -4.0827 -1.1177 -1.4897
  669MOL0     H92307   5.933   8.776   5.573  0.4527  0.6043 -0.5478
  669MOL0     H92308   6.155   9.022   5.251  4.2377  5.5132  1.2917
  669MOL0     H92309   6.332   9.144   5.323 -1.6062  0.0455 -2.9127
  669MOL0     H92310   6.601   8.965   5.588  1.1213 -1.8390 -1.6999
  669MOL0     H92311   6.735   9.005   5.485  0.7249  1.4525 -1.0981
  669MOL0     H92312   6.687   9.259   5.521  0.1118 -0.0330 -0.2908
  669MOL0     H92313   6.711   9.171   5.678  1.3762  0.1246 -0.7304
  669MOL0     H92314   6.442   9.269   5.559  0.2237 -0.6990 -0.1968
  669MOL0     H92315   6.465   9.141   5.684  0.7588 -2.1681 -1.9724
  669MOL0     H92316   6.580   9.422   5.709 -0.5255  0.9643  3.1509
  669MOL0     H92317   6.582   9.296   5.837 -1.2376  2.0703  1.3260
  669MOL0     H92318   6.225   9.497   5.879 -2.3464 -3.1322 -0.7002
  669MOL0     H92319   6.534   8.803   5.467  2.2936  4.0140 -2.5030
  669MOL0     H92320   6.291   8.535   5.408 -0.1566 -1.3547  0.5509
  669MOL0     H92321   6.423   8.588   5.507  1.4128 -0.7996 -2.9213
  669MOL0     H92322   6.271   8.627   5.564  2.5668  1.2958  0.1247
  670MOL0     O92323  10.882   6.691   2.736  0.1455 -0.2822 -0.2920
  670MOL0     C92324  10.885   6.809   2.758 -1.3345 -0.7998 -1.7008
  670MOL0     O92325  10.898   6.913   2.670  0.6039  0.3369 -0.0172
  670MOL0     C92326  10.898   6.868   2.542  0.6463 -0.9038  0.9683
  670MOL0     C92327  10.775   6.881   2.465 -1.1671  0.8533  0.8286
  670MOL0     C92328  10.757   6.825   2.339  0.4034  0.3061  0.0785
  670MOL0     C92329  10.857   6.746   2.277 -1.1311  0.1367  0.4529
  670MOL0     O92330  10.828   6.679   2.158 -0.2914 -0.0667  0.4165
  670MOL0     C92331  10.881   6.542   2.160  0.1909  0.3854 -0.4532
  670MOL0     C92332  11.008   6.532   2.081  0.1447 -0.1705  0.6262
  670MOL0     C92333  10.997   6.487   1.931  0.5466 -0.4602 -0.2411
  670MOL0     C92334  11.133   6.460   1.871 -0.8353 -0.2477  0.4014
  670MOL0     C92335  11.223   6.590   1.859  1.1645  0.1283 -0.5762
  670MOL0     C92336  11.352   6.565   1.792 -0.0808  0.3252  0.4817
  670MOL0     C92337  11.420   6.696   1.744  0.1621 -0.0046  0.3498
  670MOL0     C92338  11.469   6.768   1.875 -0.5357  0.6154 -0.3340
  670MOL0     N92339  11.470   6.917   1.845 -0.1763  0.0407  0.5945
  670MOL0     C92340  11.544   7.004   1.924  0.2041  0.3369 -0.6801
  670MOL0     C92341  11.507   7.131   1.897  0.4151 -0.4342  0.7595
  670MOL0     C92342  11.565   7.250   1.964  0.3502 -0.1756  0.6892
  670MOL0     C92343  11.546   7.381   1.882 -0.3508  0.0059 -0.2173
  670MOL0     C92344  11.662   7.470   1.914  0.0443  0.9006 -1.3233
  670MOL0     C92345  11.658   7.550   2.041  0.0568 -0.2501 -0.1528
  670MOL0     O92346  11.639   7.475   2.163  0.4814  0.2505 -0.5695
  670MOL0     C92347  11.638   7.534   2.284  0.8704  0.1653  1.0428
  670MOL0     C92348  11.650   7.670   2.307 -0.6566  0.5133  0.1033
  670MOL0     C92349  11.638   7.729   2.431 -0.1520  0.2491 -0.2964
  670MOL0     C92350  11.659   7.877   2.434  0.2955 -0.9521 -0.5722
  670MOL0     C92351  11.612   7.651   2.541 -0.3290  0.5177  0.1413
  670MOL0     C92352  11.591   7.699   2.686  0.3039 -0.3607 -0.2846
  670MOL0     O92353  11.541   7.831   2.702 -0.2547  0.1666  0.6012
  670MOL0     C92354  11.545   7.899   2.821 -0.3997  0.2048  0.4030
  670MOL0     C92355  11.668   7.899   2.884 -0.6794  0.3919 -0.1579
  670MOL0     C92356  11.691   7.983   2.987  0.5936  0.2419 -0.1904
  670MOL0     C92357  11.589   8.055   3.047  0.0167 -0.3402  0.5777
  670MOL0     O92358  11.610   8.152   3.143  0.5296  0.1241  0.1615
  670MOL0     C92359  11.736   8.156   3.225  0.1729 -0.6394  0.1586
  670MOL0     C92360  11.751   8.035   3.324  0.6760  0.1125  0.4550
  670MOL0     C92361  11.627   8.021   3.413  0.2840  0.5837 -0.1070
  670MOL0     C92362  11.665   7.997   3.560 -0.4264 -0.0720 -0.1928
  670MOL0     C92363  11.577   7.913   3.652  1.1195 -0.1850 -0.0659
  670MOL0     C92364  11.547   7.776   3.594 -0.2002 -0.4915 -0.8322
  670MOL0     C92365  11.480   7.682   3.708 -0.1083  0.0675  0.1593
  670MOL0     C92366  11.340   7.722   3.772  0.0555 -0.1893  0.3925
  670MOL0    Cl92367  11.230   7.747   3.629 -0.3572 -0.3424  0.0325
  670MOL0     C92368  11.463   8.038   2.995  0.2114 -0.3176  0.7897
  670MOL0     C92369  11.436   7.959   2.880  0.1755  0.7319 -0.6343
  670MOL0     O92370  11.642   7.631   2.778  0.1653  0.3060 -0.3042
  670MOL0     C92371  11.601   7.510   2.521  0.2124 -0.2234 -0.5169
  670MOL0     C92372  11.602   7.455   2.393  0.0351 -1.2685  0.1384
  670MOL0     N92373  11.397   7.120   1.816  0.6628  0.1913 -0.4224
  670MOL0     N92374  11.381   6.998   1.776 -0.5718 -0.1094 -0.2831
  670MOL0     C92375  10.985   6.741   2.351 -0.6933 -0.6189  0.5760
  670MOL0     C92376  11.000   6.804   2.474  0.4701 -0.6832  0.6673
  670MOL0     C92377  10.860   6.856   2.893  0.7653  0.3763  1.0068
  670MOL0     C92378  10.896   6.990   2.919 -0.3105 -0.1193 -0.2056
  670MOL0     C92379  10.882   7.049   3.046 -0.3124 -0.0659  0.6352
  670MOL0     C92380  10.843   6.967   3.153 -0.2503 -1.6313 -0.6351
  670MOL0     O92381  10.864   7.006   3.284 -0.3863  0.0867  0.2027
  670MOL0     C92382  10.792   7.121   3.326 -0.8328  0.3983  0.7860
  670MOL0     C92383  10.656   7.098   3.381  0.5146 -0.8184  0.6833
  670MOL0     C92384  10.590   7.227   3.439  0.0931 -0.3130 -0.1857
  670MOL0     C92385  10.448   7.210   3.493  0.7822  0.2317  0.7299
  670MOL0     C92386  10.380   7.333   3.543 -0.3045 -0.0201  0.2550
  670MOL0     C92387  10.326   7.428   3.604 -0.2476 -0.0963 -0.7134
  670MOL0     C92388  10.805   6.840   3.121  0.6123 -0.4736 -0.4168
  670MOL0     C92389  10.804   6.785   2.997  0.7717 -0.2210 -0.6365
  670MOL0     C92390  10.743   6.644   2.989 -0.5116 -0.1461 -0.1709
  670MOL0     H92391  10.687   6.931   2.505 -0.6264  1.3891  1.3602
  670MOL0     H92392  10.665   6.830   2.282 -2.1027  0.7374  3.7678
  670MOL0     H92393  10.802   6.479   2.118 -0.3794  0.3415  0.6446
  670MOL0     H92394  10.907   6.521   2.265 -0.5568  4.4121  0.7314
  670MOL0     H92395  11.071   6.621   2.085  0.9920 -0.4079 -3.4702
  670MOL0     H92396  11.059   6.452   2.136  2.4130 -0.3533 -1.5496
  670MOL0     H92397  10.936   6.397   1.925  0.0647 -0.1761  0.3068
  670MOL0     H92398  10.941   6.556   1.867  4.2173 -0.0578 -3.4735
  670MOL0     H92399  11.191   6.389   1.932 -0.2409 -0.9461 -0.9366
  670MOL0     H92400  11.115   6.394   1.786  0.7749 -2.4423  1.6455
  670MOL0     H92401  11.235   6.640   1.956 -0.0800  1.1270 -0.9070
  670MOL0     H92402  11.166   6.661   1.799 -1.1347 -1.4931 -0.4087
  670MOL0     H92403  11.423   6.514   1.858  3.0214  1.5649 -1.6675
  670MOL0     H92404  11.332   6.507   1.701 -1.0417  0.8616  0.3397
  670MOL0     H92405  11.351   6.760   1.688  1.4649 -0.8183 -2.4072
  670MOL0     H92406  11.507   6.679   1.680 -0.2419  0.3725 -0.3139
  670MOL0     H92407  11.420   6.771   1.973  0.3254  4.0924  0.1402
  670MOL0     H92408  11.572   6.732   1.882 -0.4461  0.8152 -0.6331
  670MOL0     H92409  11.611   6.980   2.006 -0.3808  0.5070 -0.1413
  670MOL0     H92410  11.667   7.235   1.999  0.7060  0.0740 -0.1954
  670MOL0     H92411  11.503   7.252   2.054 -1.0139 -1.0436 -0.1763
  670MOL0     H92412  11.550   7.348   1.778 -0.1627 -1.8357  0.3435
  670MOL0     H92413  11.448   7.427   1.899 -0.6874 -0.7195 -0.1719
  670MOL0     H92414  11.748   7.403   1.923 -0.2416  0.6973  0.1216
  670MOL0     H92415  11.660   7.544   1.833 -1.4062  2.1686 -0.1880
  670MOL0     H92416  11.750   7.605   2.060 -2.1189  2.9230  2.3317
  670MOL0     H92417  11.584   7.631   2.037  3.4868  3.2215  0.7428
  670MOL0     H92418  11.678   7.738   2.227  2.4669  0.0259  0.6672
  670MOL0     H92419  11.567   7.931   2.411  2.6246  3.0805 -1.4540
  670MOL0     H92420  11.726   7.906   2.352 -0.5124 -0.7635 -1.1683
  670MOL0     H92421  11.690   7.914   2.532  2.8148  0.8514 -1.9275
  670MOL0     H92422  11.754   7.848   2.841 -2.1253 -1.2877 -1.1892
  670MOL0     H92423  11.795   7.989   3.020  0.3766 -1.1683  0.8054
  670MOL0     H92424  11.822   8.154   3.158 -0.2901  0.1486 -0.4796
  670MOL0     H92425  11.727   8.249   3.282  0.5654  0.5815 -1.7061
  670MOL0     H92426  11.762   7.946   3.261  0.5682  1.6453 -1.8647
  670MOL0     H92427  11.836   8.064   3.386  1.2999 -0.8486  0.0648
  670MOL0     H92428  11.567   7.943   3.365  1.6994 -1.2257  0.9458
  670MOL0     H92429  11.572   8.114   3.400  1.0752  1.2213  0.9736
  670MOL0     H92430  11.683   8.094   3.606  0.0801  0.1842 -0.9111
  670MOL0     H92431  11.763   7.948   3.554  0.4828  1.5112  0.9590
  670MOL0     H92432  11.631   7.900   3.746  2.1426 -1.5768 -0.8014
  670MOL0     H92433  11.485   7.971   3.661  1.5617  0.6168 -0.6044
  670MOL0     H92434  11.641   7.735   3.557 -1.2414 -2.0538 -1.8788
  670MOL0     H92435  11.492   7.781   3.499  1.7808  0.6192 -1.9789
  670MOL0     H92436  11.553   7.672   3.789  0.5116  0.1036 -0.3862
  670MOL0     H92437  11.484   7.581   3.667  0.6037 -0.1747  0.7941
  670MOL0     H92438  11.338   7.815   3.830 -2.2331 -1.2868  2.2610
  670MOL0     H92439  11.297   7.643   3.834  1.3171  0.6144  2.3695
  670MOL0     H92440  11.375   8.075   3.046  0.4392  1.4960 -0.0633
  670MOL0     H92441  11.339   7.937   2.836 -2.0873 -1.0624  4.5646
  670MOL0     H92442  11.592   7.444   2.606  1.3866 -3.9657 -3.0377
  670MOL0     H92443  11.588   7.350   2.368  0.5672 -1.5215  0.8737
  670MOL0     H92444  11.062   6.676   2.311 -0.4972  0.5135 -1.0303
  670MOL0     H92445  11.081   6.781   2.542 -1.4670 -1.4811  2.8336
  670MOL0     H92446  10.924   7.064   2.844  0.2190  1.4763  1.4742
  670MOL0     H92447  10.919   7.148   3.070  1.4015 -0.3623 -0.6007
  670MOL0     H92448  10.858   7.161   3.403  1.6016  0.9462 -1.4343
  670MOL0     H92449  10.776   7.200   3.252  1.7609  0.6253  0.3638
  670MOL0     H92450  10.668   7.036   3.470  2.8291  1.0036  1.7251
  670MOL0     H92451  10.588   7.050   3.309  0.7506 -2.1832  1.3485
  670MOL0     H92452  10.651   7.252   3.527  0.6296 -2.9974  0.2830
  670MOL0     H92453  10.580   7.303   3.361  0.3105 -2.0997 -2.0446
  670MOL0     H92454  10.443   7.131   3.568 -0.2363 -1.2642 -0.8212
  670MOL0     H92455  10.381   7.176   3.413  0.8893  2.1880 -0.2431
  670MOL0     H92456  10.263   7.490   3.665 -2.9196 -1.2364 -2.1428
  670MOL0     H92457  10.781   6.762   3.192 -0.8105 -2.0247 -2.4863
  670MOL0     H92458  10.653   6.625   3.049 -0.8154  0.8374 -0.2894
  670MOL0     H92459  10.720   6.604   2.889  3.4484  2.1756 -2.2431
  670MOL0     H92460  10.819   6.579   3.034 -0.0652  1.7586  2.0102
  671MOL0     O92461   1.233  11.469   3.694 -0.5260  0.3454 -0.4138
  671MOL0     C92462   1.164  11.462   3.593  0.3947 -1.0976 -1.0750
  671MOL0     O92463   1.177  11.363   3.503  0.7878 -0.1041 -0.8284
  671MOL0     C92464   1.299  11.307   3.476 -0.4492 -0.0642 -0.4260
  671MOL0     C92465   1.419  11.356   3.519 -0.4203 -0.3576 -0.0983
  671MOL0     C92466   1.541  11.296   3.483 -0.8316 -0.1912 -0.7182
  671MOL0     C92467   1.544  11.166   3.430  0.0070 -0.6355 -0.5823
  671MOL0     O92468   1.653  11.086   3.405 -0.6400 -0.3481  0.2902
  671MOL0     C92469   1.742  11.087   3.518 -0.0127  0.2994  0.5089
  671MOL0     C92470   1.875  11.169   3.493 -0.0178 -0.4380 -0.0931
  671MOL0     C92471   1.932  11.152   3.355  0.4230 -0.2770  0.2030
  671MOL0     C92472   1.945  11.006   3.310  0.1038  0.7970  0.4183
  671MOL0     C92473   1.888  10.991   3.168  0.0879  0.1081 -0.2782
  671MOL0     C92474   1.936  10.856   3.107 -0.1270 -0.6876  0.2170
  671MOL0     C92475   1.883  10.854   2.959  0.0631 -0.6463 -0.0702
  671MOL0     C92476   1.730  10.796   2.960  0.6579  0.2911 -1.0340
  671MOL0     N92477   1.667  10.823   2.835 -0.3985 -0.0423 -0.7388
  671MOL0     C92478   1.531  10.801   2.807 -0.5787 -0.1796  0.2727
  671MOL0     C92479   1.524  10.805   2.673  1.0128  0.0918  0.7389
  671MOL0     C92480   1.392  10.837   2.610  0.7989 -0.7362 -0.0811
  671MOL0     C92481   1.344  10.738   2.505  0.2087 -0.1869  0.3358
  671MOL0     C92482   1.190  10.726   2.489 -0.0820  0.0151  0.5767
  671MOL0     C92483   1.141  10.630   2.385 -0.7473 -0.3589  0.1958
  671MOL0     O92484   1.148  10.494   2.435 -1.0988  0.1715 -0.3378
  671MOL0     C92485   1.172  10.401   2.343  0.7991  0.4702 -0.0131
  671MOL0     C92486   1.290  10.324   2.350 -0.3004  0.1072 -0.8279
  671MOL0     C92487   1.325  10.215   2.258  0.2592  0.2953  1.3696
  671MOL0     C92488   1.448  10.129   2.276  0.0358 -0.9072 -0.7983
  671MOL0     C92489   1.234  10.177   2.159  0.2688 -0.5666  0.4057
  671MOL0     C92490   1.244  10.062   2.063 -0.3473 -0.3284 -0.2585
  671MOL0     O92491   1.316   9.950   2.116  0.2817  0.0992 -0.4087
  671MOL0     C92492   1.335   9.827   2.058  0.3335 -0.8366  0.0527
  671MOL0     C92493   1.333   9.820   1.916  0.6341  0.3563  0.2422
  671MOL0     C92494   1.386   9.710   1.852 -1.0050  0.6527 -0.1832
  671MOL0     C92495   1.444   9.602   1.924 -1.1601 -0.7741 -0.1532
  671MOL0     O92496   1.507   9.490   1.866 -0.0491 -0.4346 -0.1523
  671MOL0     C92497   1.585   9.520   1.750 -0.1752 -0.7201  0.4679
  671MOL0     C92498   1.698   9.628   1.759 -0.8619  0.7472  0.1820
  671MOL0     C92499   1.753   9.665   1.618 -0.6103  0.1093  1.3765
  671MOL0     C92500   1.669   9.771   1.544  0.3249  0.1969  0.0046
  671MOL0     C92501   1.732   9.836   1.422  0.7232 -0.7761 -0.0095
  671MOL0     C92502   1.741   9.747   1.300 -0.0317  0.6692 -0.3687
  671MOL0     C92503   1.849   9.804   1.220 -0.6993  0.1027 -0.2760
  671MOL0     C92504   1.857   9.742   1.078  0.3274 -0.3695 -0.3881
  671MOL0    Cl92505   1.910   9.585   1.070  0.0878  0.2906 -0.0134
  671MOL0     C92506   1.448   9.612   2.059  0.2568 -0.2487  0.2217
  671MOL0     C92507   1.403   9.730   2.127  0.0189 -0.0383  0.3399
  671MOL0     O92508   1.183  10.067   1.957  0.5047  0.3119 -0.4883
  671MOL0     C92509   1.131  10.268   2.134 -0.2179  0.1295 -0.0799
  671MOL0     C92510   1.091  10.373   2.232  0.4399 -0.2263 -1.5249
  671MOL0     N92511   1.647  10.824   2.618 -0.1407  0.0893 -0.1249
  671MOL0     N92512   1.732  10.832   2.719 -0.7813  0.0391 -0.1898
  671MOL0     C92513   1.430  11.116   3.389  1.0213  0.2140  0.3238
  671MOL0     C92514   1.310  11.183   3.400  1.3656  0.1964 -0.0431
  671MOL0     C92515   1.053  11.574   3.575 -0.5301 -0.1146 -0.5485
  671MOL0     C92516   0.992  11.588   3.447  0.2346 -0.7734  0.5314
  671MOL0     C92517   0.898  11.687   3.412 -0.4559 -0.7652  0.9752
  671MOL0     C92518   0.843  11.764   3.518  0.6023 -0.1016  0.8020
  671MOL0     O92519   0.730  11.837   3.499 -0.3855  0.0769 -0.5943
  671MOL0     C92520   0.647  11.828   3.385  0.4878 -0.4653  0.1842
  671MOL0     C92521   0.535  11.711   3.393  0.2500 -0.5499  0.2178
  671MOL0     C92522   0.445  11.738   3.504 -0.3410 -0.9174 -0.0149
  671MOL0     C92523   0.334  11.640   3.524 -0.1573  0.3228 -0.4765
  671MOL0     C92524   0.252  11.671   3.644  0.4451 -0.4421  0.5561
  671MOL0     C92525   0.171  11.703   3.727 -0.3698 -0.6525 -0.0214
  671MOL0     C92526   0.889  11.746   3.645  0.5871  0.3062 -0.5492
  671MOL0     C92527   0.995  11.652   3.681 -0.4541 -0.0124 -0.5297
  671MOL0     C92528   1.034  11.651   3.821  0.1081  0.3043  0.3148
  671MOL0     H92529   1.427  11.457   3.558  0.5816 -0.4259 -0.0999
  671MOL0     H92530   1.633  11.345   3.515 -1.0732 -1.2458  1.8451
  671MOL0     H92531   1.748  10.981   3.542  0.2328 -0.0728 -1.1264
  671MOL0     H92532   1.684  11.127   3.602  1.4099 -1.4791  2.4405
  671MOL0     H92533   1.858  11.277   3.503  0.9593 -0.0264 -2.3259
  671MOL0     H92534   1.946  11.135   3.569  2.0299 -0.3185 -1.8811
  671MOL0     H92535   1.867  11.202   3.284  1.7443 -2.7000 -2.9898
  671MOL0     H92536   2.034  11.192   3.361  0.1895  0.2126  1.0590
  671MOL0     H92537   2.052  10.985   3.298  0.5030  3.5283 -1.5826
  671MOL0     H92538   1.903  10.938   3.384  0.7752 -1.1053 -0.8555
  671MOL0     H92539   1.901  11.073   3.096 -2.3819  0.3544 -0.5426
  671MOL0     H92540   1.780  10.994   3.188  0.0192  0.2580 -0.6574
  671MOL0     H92541   2.045  10.852   3.109 -0.0144  1.2307  0.6416
  671MOL0     H92542   1.915  10.762   3.159 -0.1120 -0.2802  0.9749
  671MOL0     H92543   1.949  10.794   2.896  2.9125  2.1415 -0.0320
  671MOL0     H92544   1.876  10.954   2.913  3.8366  0.7460  1.9676
  671MOL0     H92545   1.732  10.688   2.977 -4.3577 -0.0977 -1.2567
  671MOL0     H92546   1.670  10.835   3.043  2.9238  2.3165 -0.2370
  671MOL0     H92547   1.450  10.793   2.879  1.1307  2.5305  2.7412
  671MOL0     H92548   1.398  10.930   2.552 -0.3555 -0.9525 -0.5850
  671MOL0     H92549   1.326  10.851   2.696 -0.1597 -4.7333  0.0420
  671MOL0     H92550   1.378  10.792   2.416 -0.9008  0.1568  0.1092
  671MOL0     H92551   1.385  10.639   2.529 -0.8297 -0.0989  2.6573
  671MOL0     H92552   1.146  10.714   2.588  2.5461 -0.2916  1.7759
  671MOL0     H92553   1.160  10.824   2.449  1.6322 -0.0098 -0.8764
  671MOL0     H92554   1.035  10.652   2.375 -1.0401 -0.8981  1.8642
  671MOL0     H92555   1.188  10.653   2.289  1.4580 -2.1623  0.7560
  671MOL0     H92556   1.356  10.353   2.430 -0.1071 -3.3508  0.4215
  671MOL0     H92557   1.499  10.122   2.180  0.4368 -2.6170 -0.4987
  671MOL0     H92558   1.425  10.027   2.310 -1.2481 -0.7214 -1.0340
  671MOL0     H92559   1.521  10.164   2.350  0.1353 -2.0869 -0.3176
  671MOL0     H92560   1.299   9.898   1.849 -3.8965 -0.2960  1.5005
  671MOL0     H92561   1.384   9.699   1.744 -2.0854 -2.8135  0.0994
  671MOL0     H92562   1.632   9.422   1.732  1.2408 -0.6791  3.3182
  671MOL0     H92563   1.512   9.544   1.673  0.2784 -0.6502  0.0595
  671MOL0     H92564   1.667   9.723   1.802 -1.0299  0.6060  0.3782
  671MOL0     H92565   1.781   9.590   1.819 -0.0912 -0.5443 -1.5795
  671MOL0     H92566   1.756   9.576   1.555  1.2157  1.7984 -1.0777
  671MOL0     H92567   1.856   9.700   1.617 -0.7496  0.7651 -2.2672
  671MOL0     H92568   1.658   9.854   1.614  0.6640 -0.4781  0.8866
  671MOL0     H92569   1.570   9.730   1.522  1.7352 -2.7921 -1.3759
  671MOL0     H92570   1.669   9.922   1.398  1.4871 -0.2971 -0.3230
  671MOL0     H92571   1.830   9.875   1.452  0.0189 -1.6036  3.8964
  671MOL0     H92572   1.641   9.758   1.257  0.0538  3.8450 -0.0313
  671MOL0     H92573   1.762   9.646   1.334 -2.6465  0.1028 -0.2069
  671MOL0     H92574   1.942   9.790   1.277 -1.8930 -0.6018  1.6261
  671MOL0     H92575   1.841   9.912   1.203 -1.6821  0.0432 -0.2902
  671MOL0     H92576   1.929   9.800   1.018 -1.1178 -0.7645 -2.6459
  671MOL0     H92577   1.759   9.740   1.031 -0.9449 -2.5711  2.1279
  671MOL0     H92578   1.493   9.538   2.125 -0.0506  1.1732  2.1025
  671MOL0     H92579   1.403   9.734   2.235  0.8012 -0.2269  0.3470
  671MOL0     H92580   1.068  10.266   2.045  2.3103  1.0099 -2.0025
  671MOL0     H92581   1.003  10.421   2.191  1.1399 -2.6855 -6.7576
  671MOL0     H92582   1.440  11.016   3.349  2.6906  1.0185 -1.4358
  671MOL0     H92583   1.216  11.136   3.375  1.6322 -1.4680  1.7749
  671MOL0     H92584   1.037  11.525   3.371 -2.9419  0.1676 -2.3503
  671MOL0     H92585   0.864  11.703   3.310  1.0786  1.0214  0.6987
  671MOL0     H92586   0.586  11.918   3.372 -0.2155 -0.7248  1.5544
  671MOL0     H92587   0.698  11.810   3.290  0.2211  2.8833 -0.7253
  671MOL0     H92588   0.583  11.613   3.398  0.3240 -0.5820 -0.8589
  671MOL0     H92589   0.482  11.723   3.299  1.0309  2.2935  0.0251
  671MOL0     H92590   0.506  11.757   3.593  2.0113  0.7532 -1.8714
  671MOL0     H92591   0.388  11.830   3.486 -2.8115 -2.0104  1.6224
  671MOL0     H92592   0.367  11.536   3.539 -2.2389 -0.0495  2.4057
  671MOL0     H92593   0.272  11.634   3.434  0.0251  1.2817 -0.6679
  671MOL0     H92594   0.102  11.718   3.807  0.2640 -1.2773  0.6564
  671MOL0     H92595   0.839  11.796   3.727  1.9982 -0.9213  1.1342
  671MOL0     H92596   1.057  11.555   3.867 -2.4816 -0.4050  0.2474
  671MOL0     H92597   1.113  11.725   3.839 -0.6565  0.4721  3.5311
  671MOL0     H92598   0.960  11.692   3.890  0.1804  2.1839 -0.6402
  672MOL0     O92599   9.449   2.270   2.819  0.2913  0.6584  0.3133
  672MOL0     C92600   9.396   2.321   2.917 -0.8617  1.1658 -0.2987
  672MOL0     O92601   9.318   2.253   2.997  0.6372  0.6097 -0.1612
  672MOL0     C92602   9.292   2.111   2.987 -0.0990 -0.3185  0.2970
  672MOL0     C92603   9.250   2.046   2.874 -0.2064 -1.0025 -0.8638
  672MOL0     C92604   9.246   1.907   2.870  0.2222  0.1124 -0.2124
  672MOL0     C92605   9.271   1.826   2.982 -1.1430  0.9351  0.6512
  672MOL0     O92606   9.247   1.688   2.976  0.4365 -0.1846  0.1643
  672MOL0     C92607   9.287   1.620   2.853  0.5790  0.0726 -0.2637
  672MOL0     C92608   9.293   1.469   2.881  0.2856  0.6561  0.4332
  672MOL0     C92609   9.360   1.398   2.760 -0.1841 -0.7047 -0.4629
  672MOL0     C92610   9.365   1.243   2.765 -1.5493 -0.1588 -0.6211
  672MOL0     C92611   9.432   1.180   2.643  0.1118 -0.2229  0.2665
  672MOL0     C92612   9.379   1.240   2.512  0.3901  0.9492 -0.2897
  672MOL0     C92613   9.407   1.147   2.396  0.6351 -0.1743  0.7938
  672MOL0     C92614   9.387   1.218   2.257  0.1513 -0.4581 -0.5816
  672MOL0     N92615   9.248   1.277   2.250  0.2133 -0.3854 -0.2066
  672MOL0     C92616   9.128   1.214   2.270  0.7888 -1.0846 -0.4845
  672MOL0     C92617   9.033   1.307   2.244 -0.4546 -0.2040 -0.3833
  672MOL0     C92618   8.888   1.288   2.257 -0.8264 -0.7293 -0.5984
  672MOL0     C92619   8.818   1.260   2.113  1.2274  0.0240 -0.3679
  672MOL0     C92620   8.809   1.120   2.051  0.0718  0.2225 -0.0002
  672MOL0     C92621   8.730   1.031   2.148 -0.3162 -0.8267  0.2743
  672MOL0     O92622   8.660   0.918   2.088  0.9583  0.5527 -0.2168
  672MOL0     C92623   8.624   0.817   2.169  0.0422  0.0818  0.5840
  672MOL0     C92624   8.642   0.805   2.307 -0.0031 -0.0412  0.4191
  672MOL0     C92625   8.614   0.682   2.375 -0.7462 -0.5827 -0.7846
  672MOL0     C92626   8.676   0.677   2.518 -0.2876  0.1486  0.1084
  672MOL0     C92627   8.542   0.574   2.312  0.0822 -0.4849 -1.1578
  672MOL0     C92628   8.501   0.445   2.380  0.2596 -1.0064  0.5967
  672MOL0     O92629   8.533   0.431   2.512  0.5374 -0.3726  0.1420
  672MOL0     C92630   8.497   0.314   2.579 -0.4100  0.0968  0.7466
  672MOL0     C92631   8.373   0.253   2.569 -0.3407  0.3676  0.0177
  672MOL0     C92632   8.351   0.127   2.632  1.6176 -0.1299  0.3944
  672MOL0     C92633   8.450   0.065   2.706 -0.6548 -1.1382  0.2976
  672MOL0     O92634   8.437  -0.048   2.785 -0.0863 -0.0188  0.7161
  672MOL0     C92635   8.314  -0.120   2.764 -0.7744 -0.5751  1.4756
  672MOL0     C92636   8.335  -0.260   2.833 -0.4459 -0.1220 -0.4652
  672MOL0     C92637   8.428  -0.351   2.750  0.5965 -0.2232  1.0838
  672MOL0     C92638   8.349  -0.460   2.674 -0.3527 -0.8523  0.1303
  672MOL0     C92639   8.443  -0.535   2.577  0.0174 -0.0063  0.7383
  672MOL0     C92640   8.372  -0.653   2.515 -0.7485 -0.2222 -0.2230
  672MOL0     C92641   8.457  -0.724   2.411  0.5925  0.2108  0.8572
  672MOL0     C92642   8.384  -0.730   2.280 -1.0273  0.5837  0.5656
  672MOL0    Cl92643   8.233  -0.801   2.292 -0.0073  0.1549 -0.0357
  672MOL0     C92644   8.572   0.136   2.715  0.5228 -0.4465 -0.4174
  672MOL0     C92645   8.596   0.257   2.645 -0.0242 -0.0019 -0.8961
  672MOL0     O92646   8.423   0.377   2.308  0.3730 -0.3401  0.5031
  672MOL0     C92647   8.514   0.604   2.177  0.3842  0.5612 -1.1396
  672MOL0     C92648   8.553   0.716   2.112 -0.0839 -0.0036 -0.1351
  672MOL0     N92649   9.095   1.422   2.200  0.0674  0.4949 -0.5832
  672MOL0     N92650   9.219   1.410   2.202 -0.6652  0.3929  0.9547
  672MOL0     C92651   9.306   1.893   3.096 -0.9914 -0.1851 -0.0873
  672MOL0     C92652   9.324   2.032   3.102 -0.4408 -0.6993  0.1498
  672MOL0     C92653   9.414   2.468   2.922 -0.4869  0.2467 -0.7115
  672MOL0     C92654   9.534   2.528   2.862 -0.3926 -0.4796  0.3251
  672MOL0     C92655   9.558   2.664   2.870  0.3805 -0.9259 -0.1611
  672MOL0     C92656   9.465   2.746   2.923  0.2353 -0.6272 -0.0836
  672MOL0     O92657   9.486   2.882   2.920  0.1257  0.8584 -0.3098
  672MOL0     C92658   9.404   2.983   2.986 -0.1472  0.4218 -0.0683
  672MOL0     C92659   9.458   2.998   3.132  0.6541 -0.3354  0.9634
  672MOL0     C92660   9.604   3.028   3.140 -0.5639 -0.6889 -0.9103
  672MOL0     C92661   9.649   3.037   3.290 -0.4167  0.5577  0.0762
  672MOL0     C92662   9.573   3.141   3.357 -0.6920 -0.1893 -0.6929
  672MOL0     C92663   9.499   3.222   3.403  0.1447 -1.1511 -0.4712
  672MOL0     C92664   9.351   2.691   2.983 -0.1364  0.0068 -1.1053
  672MOL0     C92665   9.331   2.551   3.000 -0.3012  0.4512  0.3363
  672MOL0     C92666   9.210   2.512   3.080  0.2831  0.4917 -0.2600
  672MOL0     H92667   9.232   2.103   2.783 -0.5978 -0.0636 -0.2102
  672MOL0     H92668   9.228   1.861   2.773  0.7043 -1.6696  0.5060
  672MOL0     H92669   9.390   1.651   2.835  0.8254 -1.3358 -1.5414
  672MOL0     H92670   9.216   1.646   2.775  4.3405 -1.6758 -4.7448
  672MOL0     H92671   9.355   1.446   2.968  0.0193 -0.7100  0.2854
  672MOL0     H92672   9.188   1.440   2.890  0.0947  1.8832  3.3465
  672MOL0     H92673   9.309   1.427   2.667 -0.5066 -1.7782 -0.6280
  672MOL0     H92674   9.459   1.442   2.744 -0.1577 -0.9110 -0.8773
  672MOL0     H92675   9.427   1.210   2.848  0.5357 -0.5880 -2.2681
  672MOL0     H92676   9.260   1.213   2.778 -1.1638 -0.1987  4.4182
  672MOL0     H92677   9.398   1.076   2.644 -6.1779  1.3030 -3.5211
  672MOL0     H92678   9.540   1.199   2.642  0.0946 -0.0803 -1.6564
  672MOL0     H92679   9.274   1.268   2.521 -0.5668 -2.4332  0.5896
  672MOL0     H92680   9.438   1.331   2.496  2.0789 -0.3469 -1.9617
  672MOL0     H92681   9.346   1.057   2.410  2.1031 -1.1439  1.1406
  672MOL0     H92682   9.505   1.100   2.397  0.1233 -1.3194 -0.2032
  672MOL0     H92683   9.464   1.293   2.238  0.2846 -0.1254  1.1609
  672MOL0     H92684   9.400   1.149   2.172 -1.1942 -2.0021  0.4111
  672MOL0     H92685   9.102   1.114   2.301 -2.0270 -1.0313 -2.2864
  672MOL0     H92686   8.849   1.387   2.284  0.8125  0.5174 -2.5110
  672MOL0     H92687   8.862   1.217   2.336 -2.9717  3.3615  2.7602
  672MOL0     H92688   8.724   1.312   2.131  1.3957  1.3136 -2.8207
  672MOL0     H92689   8.875   1.321   2.042  0.7398  2.3063  1.0941
  672MOL0     H92690   8.770   1.116   1.948 -0.7738  0.7885  0.2835
  672MOL0     H92691   8.906   1.074   2.032  0.8058  1.2469  1.1268
  672MOL0     H92692   8.793   0.996   2.230  1.0263 -0.2934 -0.5046
  672MOL0     H92693   8.658   1.096   2.199 -0.4777  0.0442 -0.9947
  672MOL0     H92694   8.691   0.884   2.363  0.8088  2.3927 -3.3609
  672MOL0     H92695   8.607   0.665   2.601  0.5899  4.2864  1.6842
  672MOL0     H92696   8.732   0.769   2.540  1.2140 -0.5160 -0.7367
  672MOL0     H92697   8.750   0.600   2.541  1.6597  1.4846 -1.3674
  672MOL0     H92698   8.301   0.306   2.508 -1.1677 -1.0221 -0.2461
  672MOL0     H92699   8.252   0.085   2.639  0.8987  1.7221  2.3457
  672MOL0     H92700   8.226  -0.080   2.815 -1.7290 -2.1507  1.1370
  672MOL0     H92701   8.296  -0.123   2.656 -3.2584 -2.9640  1.8400
  672MOL0     H92702   8.372  -0.239   2.934  2.1103  0.2545 -1.3916
  672MOL0     H92703   8.238  -0.309   2.844 -1.2273  1.3228 -0.6874
  672MOL0     H92704   8.504  -0.390   2.819  0.7241 -3.3553 -0.6235
  672MOL0     H92705   8.481  -0.294   2.674  1.2196 -2.1587 -0.0020
  672MOL0     H92706   8.275  -0.406   2.614  2.0827  0.0731 -2.2501
  672MOL0     H92707   8.311  -0.535   2.744  0.7305  0.8023  2.6339
  672MOL0     H92708   8.486  -0.469   2.501 -0.6262  1.0413  1.2699
  672MOL0     H92709   8.529  -0.584   2.624  0.5262 -2.1495 -2.1190
  672MOL0     H92710   8.271  -0.629   2.481 -1.0956 -1.3470 -0.0260
  672MOL0     H92711   8.368  -0.723   2.599  2.5146 -0.4514 -0.1059
  672MOL0     H92712   8.468  -0.830   2.433 -2.2621 -0.0421  1.5236
  672MOL0     H92713   8.554  -0.677   2.395 -0.0237  0.4050 -3.8309
  672MOL0     H92714   8.439  -0.804   2.220 -0.4622  0.2859  1.4313
  672MOL0     H92715   8.389  -0.631   2.234 -1.6698  1.1523  1.6848
  672MOL0     H92716   8.649   0.094   2.779  0.4454 -0.1967 -0.1524
  672MOL0     H92717   8.694   0.303   2.648  0.5640 -1.1956  2.3572
  672MOL0     H92718   8.473   0.522   2.118 -1.0671 -0.6216  1.3588
  672MOL0     H92719   8.536   0.727   2.005  0.6081  0.8735 -0.1584
  672MOL0     H92720   9.324   1.835   3.186 -0.0984 -0.7259 -0.5954
  672MOL0     H92721   9.336   2.077   3.200  2.5597 -0.7008 -0.1187
  672MOL0     H92722   9.613   2.463   2.825 -0.0527  0.4893 -0.6872
  672MOL0     H92723   9.654   2.709   2.845 -1.0170  1.2404 -1.9744
  672MOL0     H92724   9.405   3.071   2.920  0.5721  2.0531  2.0008
  672MOL0     H92725   9.299   2.960   3.003 -0.3529  2.0993  1.1268
  672MOL0     H92726   9.435   2.909   3.191  1.5529  0.6253  2.8511
  672MOL0     H92727   9.399   3.081   3.173 -0.7633  0.1413 -1.8095
  672MOL0     H92728   9.646   2.935   3.103 -1.1007 -1.9837  1.5104
  672MOL0     H92729   9.639   3.119   3.091 -1.6386  0.3387  0.1610
  672MOL0     H92730   9.756   3.057   3.294  0.4863 -2.9735 -2.2460
  672MOL0     H92731   9.640   2.937   3.332 -1.8799  0.6313  0.0116
  672MOL0     H92732   9.430   3.294   3.441  2.5281  1.2397 -0.4202
  672MOL0     H92733   9.269   2.754   3.016  1.0974  1.0375  0.1364
  672MOL0     H92734   9.185   2.582   3.160  0.6850  0.0701  0.2432
  672MOL0     H92735   9.118   2.515   3.020  0.8179  1.6894 -1.0442
  672MOL0     H92736   9.226   2.421   3.139  2.6739  0.4523 -0.8808
  673MOL0     O92737   0.360   9.074   7.523 -0.1595  0.3026 -0.6222
  673MOL0     C92738   0.473   9.090   7.486 -1.1523 -0.3757  0.9070
  673MOL0     O92739   0.539   9.000   7.406  0.2266  0.1725  0.2077
  673MOL0     C92740   0.487   8.872   7.396 -0.2942  0.2374 -0.1936
  673MOL0     C92741   0.562   8.767   7.432  0.2313  0.7114 -0.7534
  673MOL0     C92742   0.521   8.635   7.414 -0.1909  0.0089  0.1411
  673MOL0     C92743   0.399   8.606   7.354  0.5706 -0.0463 -0.2227
  673MOL0     O92744   0.376   8.478   7.318 -0.0889  0.5082  0.0368
  673MOL0     C92745   0.289   8.450   7.207  0.0835 -0.6353  0.2175
  673MOL0     C92746   0.270   8.299   7.191 -0.5036  0.0032  0.1660
  673MOL0     C92747   0.178   8.261   7.084 -0.9848  1.0243 -0.2010
  673MOL0     C92748   0.166   8.110   7.096  0.6640 -0.6979 -0.0363
  673MOL0     C92749   0.105   8.047   6.968 -0.0410 -0.1641  0.1205
  673MOL0     C92750   0.195   8.061   6.843  0.1739 -0.0923 -0.1402
  673MOL0     C92751   0.104   8.055   6.722  0.9578  0.4437  0.9429
  673MOL0     C92752   0.067   8.197   6.670  0.2287  0.8019 -0.8452
  673MOL0     N92753  -0.031   8.173   6.567  0.6593 -0.1536 -0.0523
  673MOL0     C92754  -0.012   8.143   6.432 -0.3999  0.3089  0.2392
  673MOL0     C92755  -0.135   8.115   6.379 -0.4318 -1.0598 -0.1309
  673MOL0     C92756  -0.155   8.084   6.238  0.2284  0.1460  0.1322
  673MOL0     C92757  -0.177   7.932   6.216  0.6650  0.9993  0.1448
  673MOL0     C92758  -0.188   7.904   6.068 -0.1900 -0.6192  0.6828
  673MOL0     C92759  -0.260   7.779   6.017  0.1342  0.8085 -0.0597
  673MOL0     O92760  -0.221   7.756   5.880  0.4347 -0.2489 -0.4204
  673MOL0     C92761  -0.261   7.635   5.828 -0.3384 -0.2599  0.4581
  673MOL0     C92762  -0.342   7.533   5.884 -1.0511  0.4908  0.2277
  673MOL0     C92763  -0.376   7.415   5.811  0.6240  0.1341  1.2674
  673MOL0     C92764  -0.474   7.326   5.874  0.5000  0.7608 -0.6404
  673MOL0     C92765  -0.328   7.401   5.678  0.5797 -0.3459  0.1481
  673MOL0     C92766  -0.351   7.286   5.586  1.2495  0.6454 -0.3191
  673MOL0     O92767  -0.304   7.292   5.459  0.0759 -0.1936 -0.6143
  673MOL0     C92768  -0.362   7.201   5.372  1.3864  0.0518 -0.2595
  673MOL0     C92769  -0.489   7.215   5.309 -0.0765 -0.0262  0.0423
  673MOL0     C92770  -0.537   7.123   5.220 -0.0503 -0.0030  0.2838
  673MOL0     C92771  -0.453   7.020   5.180  0.2524  0.2714  0.2072
  673MOL0     O92772  -0.484   6.930   5.075 -0.0026 -0.3206 -0.2579
  673MOL0     C92773  -0.618   6.926   5.031  0.6457  0.1707  0.2981
  673MOL0     C92774  -0.633   6.810   4.929  0.1623  0.8430 -0.3592
  673MOL0     C92775  -0.539   6.824   4.811 -0.0293 -0.2519  0.2132
  673MOL0     C92776  -0.569   6.957   4.728 -0.2727  0.0981 -0.5102
  673MOL0     C92777  -0.460   6.988   4.620 -0.5819 -0.3458  0.1960
  673MOL0     C92778  -0.310   6.993   4.657 -0.1352 -0.3907 -0.9893
  673MOL0     C92779  -0.227   7.001   4.533 -0.1292 -0.5420 -0.3282
  673MOL0     C92780  -0.075   6.969   4.558 -0.2928  0.3698  1.0701
  673MOL0    Cl92781   0.000   7.081   4.678  0.1503 -0.0258 -0.0790
  673MOL0     C92782  -0.333   6.998   5.247  0.3263  0.0499 -0.3272
  673MOL0     C92783  -0.283   7.086   5.350 -0.0465 -0.5014  0.1251
  673MOL0     O92784  -0.431   7.198   5.622  0.2891  0.1513 -0.3839
  673MOL0     C92785  -0.255   7.510   5.631  0.9553  0.5554 -0.4164
  673MOL0     C92786  -0.211   7.615   5.706 -0.1344 -0.6015 -0.1015
  673MOL0     N92787  -0.221   8.120   6.485  0.9869  0.6857  0.3033
  673MOL0     N92788  -0.165   8.151   6.596  0.2924  0.3916  0.4989
  673MOL0     C92789   0.314   8.720   7.327 -0.7998  0.2070 -0.1172
  673MOL0     C92790   0.361   8.849   7.344  0.4181 -0.2488  0.3982
  673MOL0     C92791   0.500   9.230   7.476  0.8143  0.6081 -0.8035
  673MOL0     C92792   0.550   9.277   7.349 -0.1913  0.1902 -1.4621
  673MOL0     C92793   0.583   9.408   7.335 -0.1248 -1.4008  0.2698
  673MOL0     C92794   0.564   9.497   7.441  0.4471  0.3828 -0.5019
  673MOL0     O92795   0.617   9.622   7.430 -0.4251  0.0454 -0.6286
  673MOL0     C92796   0.624   9.689   7.306  0.6238 -0.4263  0.7893
  673MOL0     C92797   0.485   9.727   7.252  0.1648  0.2116 -0.1039
  673MOL0     C92798   0.494   9.764   7.100 -0.2386  0.4097 -0.7181
  673MOL0     C92799   0.357   9.810   7.049  0.1003 -0.0553  1.2116
  673MOL0     C92800   0.374   9.864   6.916 -0.5326 -0.7098 -0.9615
  673MOL0     C92801   0.385   9.916   6.807 -0.5822 -0.0297  0.6290
  673MOL0     C92802   0.518   9.447   7.567  0.6498  0.6187 -1.3550
  673MOL0     C92803   0.495   9.313   7.590  0.7269  0.2951 -0.4387
  673MOL0     C92804   0.457   9.267   7.731  0.3865 -0.2039 -0.1233
  673MOL0     H92805   0.661   8.774   7.477 -0.3738  1.6190  0.5036
  673MOL0     H92806   0.577   8.548   7.449  0.8822  0.0375 -1.3920
  673MOL0     H92807   0.341   8.490   7.120  2.1592  1.1684  2.1579
  673MOL0     H92808   0.195   8.496   7.239  0.2640  1.7806 -2.3992
  673MOL0     H92809   0.361   8.239   7.184  1.9391  3.5835 -2.5511
  673MOL0     H92810   0.213   8.277   7.282 -2.1082  1.1548 -0.5200
  673MOL0     H92811   0.075   8.300   7.087 -2.0266 -1.6071  0.7838
  673MOL0     H92812   0.231   8.288   6.993  1.6726 -0.5271  0.7777
  673MOL0     H92813   0.259   8.060   7.126  0.3291 -0.0948  2.2388
  673MOL0     H92814   0.100   8.094   7.182 -0.3256 -3.2429 -1.1833
  673MOL0     H92815   0.016   8.108   6.948 -0.2759  0.3327  2.4104
  673MOL0     H92816   0.065   7.946   6.983 -2.4898  0.8024  0.5705
  673MOL0     H92817   0.245   8.157   6.828 -0.5170  0.2908 -0.0298
  673MOL0     H92818   0.260   7.972   6.841 -1.1968 -1.2132 -3.7175
  673MOL0     H92819   0.010   8.004   6.742 -0.3185  1.0603 -2.7581
  673MOL0     H92820   0.165   8.001   6.649  1.5143  1.3013  0.7459
  673MOL0     H92821   0.035   8.260   6.754  0.3171 -0.9110  0.5193
  673MOL0     H92822   0.160   8.232   6.624  0.1278 -1.0712 -2.6072
  673MOL0     H92823   0.079   8.140   6.374 -0.9091 -1.4753 -0.5354
  673MOL0     H92824  -0.076   8.127   6.175  5.0571 -2.5684  3.6722
  673MOL0     H92825  -0.250   8.135   6.221  0.7948  1.2687  0.2143
  673MOL0     H92826  -0.093   7.866   6.241  0.8413  0.4503 -1.6989
  673MOL0     H92827  -0.264   7.901   6.275  1.1944  2.5126  1.8020
  673MOL0     H92828  -0.243   7.991   6.031  2.7192  1.9526  1.8236
  673MOL0     H92829  -0.088   7.908   6.023 -2.0003  0.5397 -3.6994
  673MOL0     H92830  -0.235   7.698   6.086  6.9216  1.6926 -0.8043
  673MOL0     H92831  -0.364   7.810   6.020  0.3213  1.3846  2.4644
  673MOL0     H92832  -0.396   7.542   5.978 -5.1182 -0.7898 -1.7598
  673MOL0     H92833  -0.511   7.362   5.970  0.9521  0.1951 -0.2445
  673MOL0     H92834  -0.438   7.223   5.887  0.1607  0.6574 -0.5073
  673MOL0     H92835  -0.553   7.304   5.801  0.3646  2.2743 -0.9772
  673MOL0     H92836  -0.543   7.308   5.319  0.4704  0.2494  0.5013
  673MOL0     H92837  -0.630   7.142   5.167  0.1942  0.8866  0.1569
  673MOL0     H92838  -0.687   6.914   5.116 -3.4657 -1.1121 -2.8475
  673MOL0     H92839  -0.647   7.023   4.989  1.2227  0.5751  0.8115
  673MOL0     H92840  -0.602   6.716   4.977 -0.0411  0.6683 -0.5695
  673MOL0     H92841  -0.735   6.798   4.893  0.1064 -0.8753  0.2677
  673MOL0     H92842  -0.548   6.738   4.744 -1.1423  0.4794 -0.6257
  673MOL0     H92843  -0.437   6.820   4.850 -0.4653 -1.3303  1.2989
  673MOL0     H92844  -0.571   7.042   4.797 -1.0975  0.2899 -0.7617
  673MOL0     H92845  -0.671   6.933   4.696 -0.3758 -1.6243  0.9175
  673MOL0     H92846  -0.470   6.909   4.546 -0.1002  0.6294 -0.9449
  673MOL0     H92847  -0.468   7.088   4.576  3.6816 -1.1973 -3.0717
  673MOL0     H92848  -0.288   6.904   4.717  0.9794 -0.0157 -0.8062
  673MOL0     H92849  -0.298   7.082   4.720 -0.3322 -0.0822 -1.3850
  673MOL0     H92850  -0.228   7.104   4.496 -0.6365 -0.6974 -0.7598
  673MOL0     H92851  -0.264   6.939   4.451 -0.1382 -3.0852  1.5032
  673MOL0     H92852  -0.026   6.973   4.460 -3.1580 -0.3758 -0.5003
  673MOL0     H92853  -0.052   6.867   4.591  0.3810  0.7313  1.7576
  673MOL0     H92854  -0.261   6.919   5.232  0.7972  0.5930 -0.9594
  673MOL0     H92855  -0.182   7.078   5.387  0.6478 -1.5741 -1.8822
  673MOL0     H92856  -0.215   7.495   5.532  0.8446 -0.7491 -0.2870
  673MOL0     H92857  -0.136   7.677   5.658 -0.4993 -1.8413 -2.4149
  673MOL0     H92858   0.216   8.714   7.280 -0.1085  0.9178 -1.7289
  673MOL0     H92859   0.288   8.925   7.315  0.1993 -0.2204  1.0064
  673MOL0     H92860   0.581   9.211   7.268  2.5297  0.4694 -0.7548
  673MOL0     H92861   0.601   9.445   7.235  1.1520 -0.2913  0.8745
  673MOL0     H92862   0.680   9.781   7.327 -0.6010  0.1825  1.4923
  673MOL0     H92863   0.680   9.631   7.232 -1.6135 -0.9538 -0.6133
  673MOL0     H92864   0.442   9.815   7.300 -1.2397 -0.7510  0.4441
  673MOL0     H92865   0.415   9.644   7.266 -0.0599  0.0432 -1.9509
  673MOL0     H92866   0.572   9.840   7.090  0.1729  0.2724  1.0717
  673MOL0     H92867   0.516   9.675   7.041  0.2927  0.0340  0.0374
  673MOL0     H92868   0.315   9.889   7.113 -2.5021  0.7986 -1.3297
  673MOL0     H92869   0.283   9.730   7.041 -1.8034  1.7589 -1.1207
  673MOL0     H92870   0.386   9.952   6.706 -1.4491  0.1559  0.6784
  673MOL0     H92871   0.498   9.509   7.654  1.6960 -0.7921 -0.0670
  673MOL0     H92872   0.481   9.162   7.749 -0.4965 -0.2143  1.1847
  673MOL0     H92873   0.507   9.334   7.802 -1.3361  1.9061 -0.7555
  673MOL0     H92874   0.354   9.290   7.761  0.4302 -0.2752  0.0851
  674MOL0     O92875   4.115   5.050   9.453 -0.5752 -0.1626  0.6295
  674MOL0     C92876   4.068   5.149   9.405  1.1040 -0.1970 -0.6452
  674MOL0     O92877   3.962   5.219   9.464 -0.7226  0.4423 -0.0175
  674MOL0     C92878   3.896   5.157   9.571 -0.4018  0.1325  1.1815
  674MOL0     C92879   3.835   5.240   9.670 -0.4790 -0.4080 -0.4872
  674MOL0     C92880   3.759   5.182   9.779 -0.8891 -0.6028  0.6823
  674MOL0     C92881   3.755   5.045   9.790 -0.2479  0.0091  0.8403
  674MOL0     O92882   3.685   4.985   9.891 -0.4854  0.0511 -0.2981
  674MOL0     C92883   3.755   4.964  10.020 -0.0668  0.6474  0.3496
  674MOL0     C92884   3.658   4.949  10.139 -0.1442 -0.0066 -0.0361
  674MOL0     C92885   3.552   4.842  10.114 -0.2284 -0.8108 -0.0707
  674MOL0     C92886   3.486   4.795  10.246  0.4373  0.0406  0.6869
  674MOL0     C92887   3.389   4.894  10.304 -0.1345  0.0340  0.0153
  674MOL0     C92888   3.337   4.835  10.431  0.0733  0.4980  0.0171
  674MOL0     C92889   3.243   4.921  10.517  0.0891  0.6220  0.3889
  674MOL0     C92890   3.221   4.868  10.653  0.0711 -0.4326 -0.0859
  674MOL0     N92891   3.340   4.822  10.735 -0.3178  1.1932 -0.2733
  674MOL0     C92892   3.453   4.901  10.745  0.1963  0.7549 -0.0629
  674MOL0     C92893   3.554   4.817  10.783  0.3753  0.4325  0.2566
  674MOL0     C92894   3.707   4.845  10.777  0.6822  0.5743  0.2003
  674MOL0     C92895   3.752   4.836  10.624  0.2749 -1.0725  1.4381
  674MOL0     C92896   3.898   4.792  10.603 -0.3622  0.9584 -0.3252
  674MOL0     C92897   3.922   4.649  10.644  0.4451  0.6384 -0.0731
  674MOL0     O92898   4.058   4.611  10.651  0.0949 -0.3049  0.1691
  674MOL0     C92899   4.118   4.608  10.777 -0.8279  0.7517  0.2942
  674MOL0     C92900   4.098   4.687  10.888 -0.0656 -0.1176  0.0335
  674MOL0     C92901   4.173   4.673  11.006 -0.7232  0.1184 -0.8603
  674MOL0     C92902   4.133   4.764  11.122  0.1286  0.3795 -0.0192
  674MOL0     C92903   4.273   4.569  11.010  0.2815 -0.7482 -0.0153
  674MOL0     C92904   4.366   4.549  11.114 -0.0732 -0.6365  0.9217
  674MOL0     O92905   4.449   4.441  11.101  0.0260  0.3538  0.7583
  674MOL0     C92906   4.463   4.364  11.213  0.3984 -0.6514 -0.1727
  674MOL0     C92907   4.357   4.306  11.285 -0.7085  1.0319 -0.0757
  674MOL0     C92908   4.370   4.192  11.374 -0.3622  0.2781  0.8199
  674MOL0     C92909   4.508   4.161  11.409  0.0298  0.0114 -0.3747
  674MOL0     O92910   4.547   4.060  11.498  0.0910 -0.0508  0.3644
  674MOL0     C92911   4.440   3.974  11.550  0.3328  0.2454 -0.7819
  674MOL0     C92912   4.505   3.857  11.627 -0.5534  0.7466  0.1679
  674MOL0     C92913   4.559   3.900  11.764  0.4513 -0.4303  0.7602
  674MOL0     C92914   4.443   3.907  11.853  0.4261 -0.5114 -0.1099
  674MOL0     C92915   4.486   3.987  11.974  0.6022 -0.6634 -0.1036
  674MOL0     C92916   4.363   4.017  12.059 -0.5045 -0.7464  0.1201
  674MOL0     C92917   4.379   4.136  12.167 -0.3195  0.4702  0.0705
  674MOL0     C92918   4.479   4.069  12.268  0.5972  0.0160 -0.7807
  674MOL0    Cl92919   4.524   4.174  12.410 -0.5053 -0.4689  0.2472
  674MOL0     C92920   4.617   4.238  11.353 -0.4075  0.1217  0.3011
  674MOL0     C92921   4.587   4.331  11.255  0.3790  1.1485 -0.2903
  674MOL0     O92922   4.348   4.613  11.217 -0.2232 -0.2838  0.3150
  674MOL0     C92923   4.283   4.488  10.895  0.0450  0.1938 -0.2190
  674MOL0     C92924   4.210   4.514  10.780 -1.2667  0.2461 -0.2962
  674MOL0     N92925   3.491   4.693  10.808 -0.2825  0.5234 -0.1652
  674MOL0     N92926   3.366   4.699  10.783 -0.2191  0.1344  0.7234
  674MOL0     C92927   3.816   4.960   9.694 -0.5020 -0.3652  0.1976
  674MOL0     C92928   3.877   5.013   9.582 -0.6457 -0.2217 -0.1386
  674MOL0     C92929   4.140   5.203   9.293 -0.0417 -0.2680 -0.5255
  674MOL0     C92930   4.193   5.337   9.306  0.1538  0.0124  0.1063
  674MOL0     C92931   4.292   5.377   9.213  0.6079 -0.1491  0.3433
  674MOL0     C92932   4.317   5.309   9.091  1.5446  0.2080 -0.6723
  674MOL0     O92933   4.389   5.348   8.981 -0.4975 -0.1966  0.1155
  674MOL0     C92934   4.443   5.482   8.990 -0.2928 -0.3730  0.0851
  674MOL0     C92935   4.507   5.530   8.858  0.0218  0.2467 -0.3508
  674MOL0     C92936   4.411   5.503   8.743  0.4976  0.6191  0.4164
  674MOL0     C92937   4.471   5.563   8.612  0.6244  0.0220 -0.8850
  674MOL0     C92938   4.467   5.713   8.624 -0.2203  0.4289 -0.6911
  674MOL0     C92939   4.470   5.833   8.644  0.4168 -0.7502 -0.3625
  674MOL0     C92940   4.249   5.184   9.071  0.1700 -0.1167 -0.1394
  674MOL0     C92941   4.165   5.132   9.174 -0.7135  1.2102  0.2689
  674MOL0     C92942   4.094   4.993   9.142 -0.7493 -0.0247 -0.2314
  674MOL0     H92943   3.834   5.348   9.667  0.6828 -0.1962  2.5285
  674MOL0     H92944   3.702   5.249   9.843  0.1406  1.5882 -0.5923
  674MOL0     H92945   3.822   5.049  10.037  1.1006 -0.2552  0.3927
  674MOL0     H92946   3.805   4.867  10.011 -1.3500  0.1336 -1.8380
  674MOL0     H92947   3.732   4.908  10.209 -0.1685 -0.4227 -0.2489
  674MOL0     H92948   3.621   5.046  10.170  1.2061 -0.2437  2.6046
  674MOL0     H92949   3.475   4.892  10.054 -0.4293 -2.6413 -1.4416
  674MOL0     H92950   3.601   4.761  10.059  0.2804  1.1501 -2.7470
  674MOL0     H92951   3.432   4.705  10.215  1.3341  0.4091 -2.2688
  674MOL0     H92952   3.568   4.750  10.304  0.9987 -1.4565 -1.1612
  674MOL0     H92953   3.300   4.917  10.244  0.8350  2.4979 -0.5833
  674MOL0     H92954   3.444   4.987  10.320  0.2672  0.2177 -2.1271
  674MOL0     H92955   3.267   4.751  10.419 -1.6414  1.8694  0.0513
  674MOL0     H92956   3.420   4.797  10.491 -0.5266 -3.1122 -1.1439
  674MOL0     H92957   3.148   4.919  10.463 -0.9495 -1.2099  2.1465
  674MOL0     H92958   3.278   5.024  10.523  0.8989  0.2975  4.3710
  674MOL0     H92959   3.174   4.943  10.719  0.8382 -0.6103  0.6843
  674MOL0     H92960   3.147   4.788  10.652 -0.7862  0.3465 -0.5804
  674MOL0     H92961   3.456   5.005  10.715 -0.2077 -0.0197 -3.0619
  674MOL0     H92962   3.765   4.772  10.835  1.7944  1.4872  0.2676
  674MOL0     H92963   3.735   4.947  10.806 -0.8180  0.6138  1.6834
  674MOL0     H92964   3.688   4.772  10.563 -1.3354  1.5096  0.2803
  674MOL0     H92965   3.746   4.937  10.583 -2.7755 -1.3596  0.9706
  674MOL0     H92966   3.927   4.799  10.498 -1.0388  0.9579 -0.5188
  674MOL0     H92967   3.962   4.858  10.663 -0.7379  3.0927 -2.1325
  674MOL0     H92968   3.860   4.619  10.729  0.6183 -2.8501 -1.0308
  674MOL0     H92969   3.893   4.579  10.566  0.7692  2.5368 -1.9935
  674MOL0     H92970   4.027   4.768  10.875  1.0884  0.7057 -1.3146
  674MOL0     H92971   4.041   4.818  11.097  0.4208  0.1736 -1.6314
  674MOL0     H92972   4.212   4.840  11.128 -1.8029  2.7883 -2.6052
  674MOL0     H92973   4.114   4.702  11.211  0.9125 -2.0458 -1.4642
  674MOL0     H92974   4.255   4.340  11.269 -1.4093  0.7740  3.1508
  674MOL0     H92975   4.280   4.142  11.410 -0.0937 -1.8511 -1.2601
  674MOL0     H92976   4.372   4.035  11.610  0.2733 -1.5480  1.0720
  674MOL0     H92977   4.389   3.922  11.469  2.8117 -0.3570 -2.0604
  674MOL0     H92978   4.451   3.762  11.631  2.1691 -0.8723  2.8058
  674MOL0     H92979   4.591   3.818  11.571  0.2548  2.3509  0.2195
  674MOL0     H92980   4.606   3.995  11.739  1.5197 -1.6899 -2.5692
  674MOL0     H92981   4.634   3.831  11.805  0.0563 -2.0359 -1.0347
  674MOL0     H92982   4.412   3.804  11.875 -1.1023 -0.8350 -3.1571
  674MOL0     H92983   4.361   3.954  11.798 -1.7352 -3.3160  0.4477
  674MOL0     H92984   4.564   3.931  12.027 -1.2497 -2.5315  0.7867
  674MOL0     H92985   4.521   4.088  11.951  1.4264 -0.8733  0.1922
  674MOL0     H92986   4.332   3.930  12.117 -0.0390  0.1229  1.7207
  674MOL0     H92987   4.286   4.044  11.986  1.0080  0.0758 -1.2229
  674MOL0     H92988   4.281   4.159  12.210 -0.1925 -1.0955  1.2673
  674MOL0     H92989   4.414   4.233  12.131 -0.3038  0.5917  0.4149
  674MOL0     H92990   4.575   4.051  12.218  0.7883  1.9296 -1.1699
  674MOL0     H92991   4.438   3.977  12.309 -0.1526  0.7888  0.2632
  674MOL0     H92992   4.718   4.216  11.388 -0.5076 -3.3474 -1.1140
  674MOL0     H92993   4.674   4.359  11.196  2.2641 -0.4953  1.5332
  674MOL0     H92994   4.367   4.420  10.891  0.9068  1.2859 -1.6210
  674MOL0     H92995   4.219   4.443  10.698 -1.8984 -1.3992  1.0117
  674MOL0     H92996   3.797   4.854   9.701 -1.3121 -0.0879  4.1282
  674MOL0     H92997   3.901   4.944   9.502  0.7976  0.6551 -0.4989
  674MOL0     H92998   4.176   5.394   9.397  0.7764  0.1796  0.1200
  674MOL0     H92999   4.329   5.479   9.219 -0.7213  0.2920  1.3615
  674MOL0     H93000   4.358   5.546   9.017  0.1599 -0.0277  0.7372
  674MOL0     H93001   4.510   5.486   9.076  1.9922 -2.0988 -1.4956
  674MOL0     H93002   4.602   5.479   8.840 -0.4075 -1.5967  2.0898
  674MOL0     H93003   4.520   5.638   8.871  1.8933 -0.0629  0.6741
  674MOL0     H93004   4.405   5.394   8.732  0.4104  0.2394  3.3326
  674MOL0     H93005   4.308   5.538   8.755 -0.3390 -1.1055 -1.0916
  674MOL0     H93006   4.408   5.533   8.528  2.8039 -1.2233 -2.1686
  674MOL0     H93007   4.568   5.519   8.587  0.6347 -0.1444 -0.5563
  674MOL0     H93008   4.444   5.936   8.663  0.8771 -0.6896 -0.0373
  674MOL0     H93009   4.273   5.144   8.973 -0.5380  0.9681 -0.7667
  674MOL0     H93010   4.091   4.945   9.240  1.3345 -1.6335 -0.8817
  674MOL0     H93011   3.994   5.026   9.111 -1.9386 -1.5159  1.7989
  674MOL0     H93012   4.138   4.922   9.071 -2.5887 -2.8204  1.2354
  675MOL0     O93013   7.189   3.843   7.644  0.3140 -0.3638  0.1786
  675MOL0     C93014   7.091   3.848   7.712 -0.1427  0.1552  0.2124
  675MOL0     O93015   7.053   3.956   7.784  0.8085 -0.4037  0.2197
  675MOL0     C93016   7.098   4.087   7.754 -0.4661  1.0652 -0.6930
  675MOL0     C93017   7.220   4.132   7.712 -0.2854  0.2783  1.2127
  675MOL0     C93018   7.236   4.274   7.690 -0.7431  0.3319  0.4491
  675MOL0     C93019   7.132   4.366   7.713 -0.1068  0.2518  0.6815
  675MOL0     O93020   7.147   4.502   7.691 -0.3599 -0.5045 -1.1630
  675MOL0     C93021   7.071   4.604   7.761  0.6600 -0.0271  0.1183
  675MOL0     C93022   7.049   4.714   7.666 -0.7630 -0.3092  0.5749
  675MOL0     C93023   6.972   4.832   7.724 -0.1020  0.3231 -0.6266
  675MOL0     C93024   6.917   4.922   7.618  0.1001 -0.7472  0.8268
  675MOL0     C93025   6.877   5.068   7.677 -0.3326  0.2672  0.5543
  675MOL0     C93026   6.838   5.157   7.556 -0.2358 -0.3976 -0.1738
  675MOL0     C93027   6.855   5.303   7.613 -0.7235 -0.6748  0.2900
  675MOL0     C93028   6.856   5.411   7.495 -0.4310  0.5829 -1.0196
  675MOL0     N93029   6.724   5.420   7.428  0.2035  0.1837 -0.0957
  675MOL0     C93030   6.610   5.358   7.456  1.0555  0.5899 -0.7925
  675MOL0     C93031   6.526   5.368   7.351 -0.2130 -0.9300 -0.7146
  675MOL0     C93032   6.399   5.288   7.340  0.0061  0.2622 -0.3852
  675MOL0     C93033   6.285   5.382   7.372  0.3886  0.1870 -0.2575
  675MOL0     C93034   6.281   5.511   7.300 -0.0905 -0.5083  0.0979
  675MOL0     C93035   6.145   5.581   7.299 -0.1270  0.0488  0.1362
  675MOL0     O93036   6.109   5.642   7.427 -0.6713 -0.6583 -0.9975
  675MOL0     C93037   6.129   5.776   7.448  0.5715  0.1905  0.9397
  675MOL0     C93038   6.131   5.828   7.577  0.2841 -0.1256 -0.3200
  675MOL0     C93039   6.160   5.965   7.605  0.7208  0.5706 -0.4128
  675MOL0     C93040   6.177   6.007   7.747 -0.1987  0.0744 -0.1307
  675MOL0     C93041   6.188   6.054   7.502 -0.4936 -0.0217  0.9313
  675MOL0     C93042   6.205   6.200   7.515 -0.0077  0.1799 -0.0826
  675MOL0     O93043   6.194   6.283   7.403  0.3637 -0.3887  0.5126
  675MOL0     C93044   6.247   6.410   7.406  0.7234  0.3907 -0.8025
  675MOL0     C93045   6.310   6.454   7.288  0.5738 -0.2809  0.6841
  675MOL0     C93046   6.365   6.573   7.273  0.1864 -0.4563 -0.8133
  675MOL0     C93047   6.356   6.662   7.380 -0.2703  0.1241 -0.4290
  675MOL0     O93048   6.399   6.787   7.347 -0.0337  0.2490 -0.2823
  675MOL0     C93049   6.423   6.886   7.443 -0.0962 -0.4872  1.2995
  675MOL0     C93050   6.511   6.998   7.385  0.3903 -0.2341  0.0810
  675MOL0     C93051   6.457   7.085   7.264  0.3050  0.4012  0.5127
  675MOL0     C93052   6.364   7.207   7.308  0.3117 -0.3372 -0.3374
  675MOL0     C93053   6.208   7.167   7.302  0.3495  1.1870 -0.0135
  675MOL0     C93054   6.124   7.291   7.314  0.5518 -1.0824 -0.3704
  675MOL0     C93055   5.976   7.264   7.359  0.0916  0.4253  0.3399
  675MOL0     C93056   5.889   7.382   7.360 -0.8893  0.6712 -0.2412
  675MOL0    Cl93057   5.854   7.427   7.189  0.4544 -0.1661  0.4531
  675MOL0     C93058   6.298   6.614   7.501 -0.0856  0.1453  0.2710
  675MOL0     C93059   6.234   6.496   7.518 -0.5029 -0.0241  0.1835
  675MOL0     O93060   6.209   6.239   7.632 -0.3276 -0.5484 -0.0150
  675MOL0     C93061   6.205   5.997   7.373 -0.4645 -0.6379  0.0322
  675MOL0     C93062   6.172   5.867   7.353  1.0733  0.4468  0.5462
  675MOL0     N93063   6.594   5.435   7.251 -0.2526 -0.8765  0.3144
  675MOL0     N93064   6.711   5.467   7.300  0.2331  0.3047 -0.1566
  675MOL0     C93065   7.010   4.319   7.760  0.1067 -0.5414  0.4531
  675MOL0     C93066   7.001   4.183   7.784  0.3984  0.5520 -0.6142
  675MOL0     C93067   7.032   3.715   7.740  0.4614  0.4585  0.1252
  675MOL0     C93068   6.987   3.685   7.870  1.0576 -0.3110 -0.3540
  675MOL0     C93069   6.951   3.561   7.914 -0.4214 -0.4000  1.1046
  675MOL0     C93070   6.947   3.459   7.817 -0.3823 -0.3170 -0.1807
  675MOL0     O93071   6.905   3.342   7.877 -0.1960  0.9267 -0.2093
  675MOL0     C93072   6.858   3.234   7.790  0.3731 -0.3745 -0.5220
  675MOL0     C93073   6.820   3.108   7.871  0.1178 -0.5638  0.2729
  675MOL0     C93074   6.751   3.013   7.782  0.9989  0.5403  1.0936
  675MOL0     C93075   6.728   2.867   7.828  0.7147 -0.1387 -0.5434
  675MOL0     C93076   6.686   2.857   7.965 -1.4292  0.0283 -0.6457
  675MOL0     C93077   6.681   2.837   8.085 -0.7031  0.0055 -0.3120
  675MOL0     C93078   6.996   3.483   7.692 -0.5490  0.8735  0.0448
  675MOL0     C93079   7.044   3.608   7.649  1.2022  0.2385 -0.5299
  675MOL0     C93080   7.108   3.607   7.515  0.1147  0.3421  0.0648
  675MOL0     H93081   7.299   4.063   7.687 -1.4303  0.0460 -2.2698
  675MOL0     H93082   7.337   4.303   7.661  0.4392  0.3470  4.0340
  675MOL0     H93083   7.117   4.638   7.854 -0.5349 -0.3566  0.8589
  675MOL0     H93084   6.976   4.566   7.800  0.8470 -0.6262 -0.0004
  675MOL0     H93085   7.136   4.754   7.613 -0.2279 -1.3881  0.6144
  675MOL0     H93086   6.998   4.671   7.579 -0.3755  0.0756  0.1560
  675MOL0     H93087   6.890   4.806   7.791  0.8243  1.0625  0.8630
  675MOL0     H93088   7.036   4.896   7.786  0.1161 -2.2228  2.0051
  675MOL0     H93089   6.997   4.936   7.545 -0.8061  0.5546  0.0404
  675MOL0     H93090   6.838   4.864   7.570  0.6845 -1.6057  0.8840
  675MOL0     H93091   6.969   5.106   7.723  0.4909  0.5848 -1.2531
  675MOL0     H93092   6.796   5.066   7.750 -0.9450 -0.6184 -0.1219
  675MOL0     H93093   6.905   5.151   7.469 -3.4840 -0.1120 -2.9118
  675MOL0     H93094   6.741   5.123   7.520  1.1897 -1.7112 -3.1563
  675MOL0     H93095   6.956   5.296   7.655 -0.0791 -2.7588 -1.4499
  675MOL0     H93096   6.787   5.324   7.696 -2.0377 -0.2358 -0.8628
  675MOL0     H93097   6.864   5.512   7.535 -1.0336 -0.0167  0.6895
  675MOL0     H93098   6.940   5.389   7.429  0.4027  1.7856 -0.3816
  675MOL0     H93099   6.596   5.300   7.546  2.8481  1.4327  0.0918
  675MOL0     H93100   6.397   5.199   7.404  1.6540 -0.1918 -0.9274
  675MOL0     H93101   6.389   5.258   7.236  0.1028  0.7279 -0.5297
  675MOL0     H93102   6.198   5.319   7.350 -0.3986  0.0624  2.7979
  675MOL0     H93103   6.283   5.396   7.481  0.1992 -1.8705  0.0320
  675MOL0     H93104   6.358   5.580   7.336 -0.0219 -1.2948  1.5297
  675MOL0     H93105   6.310   5.491   7.196  2.6471 -1.0600  0.8943
  675MOL0     H93106   6.147   5.648   7.213  1.1037 -1.6867 -1.2761
  675MOL0     H93107   6.081   5.495   7.278  1.2924 -0.9300 -0.3542
  675MOL0     H93108   6.106   5.762   7.660  2.9788  1.3379  1.8602
  675MOL0     H93109   6.156   5.914   7.800 -0.5828 -1.7778 -3.3123
  675MOL0     H93110   6.104   6.083   7.779  1.3799  2.4821 -1.8987
  675MOL0     H93111   6.279   6.044   7.758  0.5440 -2.0192  0.5365
  675MOL0     H93112   6.323   6.384   7.207 -0.0197 -0.2567  0.5610
  675MOL0     H93113   6.403   6.607   7.177 -1.1386 -0.5046 -1.3870
  675MOL0     H93114   6.322   6.913   7.475 -0.3672 -1.3520  1.1747
  675MOL0     H93115   6.474   6.861   7.537  0.6274  1.6701  1.5413
  675MOL0     H93116   6.548   7.072   7.457 -2.8358  2.9840 -1.2396
  675MOL0     H93117   6.598   6.944   7.347  0.9809 -0.8005  2.1268
  675MOL0     H93118   6.412   7.021   7.187 -0.6142  0.8492  0.6738
  675MOL0     H93119   6.541   7.136   7.216  3.1529 -0.7685  3.8376
  675MOL0     H93120   6.381   7.290   7.239  2.1747 -0.1833  0.2598
  675MOL0     H93121   6.401   7.252   7.401  0.6473  0.3128 -0.7836
  675MOL0     H93122   6.191   7.107   7.212 -2.2183 -0.9367  1.7406
  675MOL0     H93123   6.174   7.099   7.381  2.4053 -2.4333 -1.9891
  675MOL0     H93124   6.124   7.331   7.212 -1.5334 -0.5698 -0.2081
  675MOL0     H93125   6.165   7.365   7.383 -0.8537  0.6530 -1.3178
  675MOL0     H93126   5.983   7.225   7.462 -0.2317  1.5524  0.8029
  675MOL0     H93127   5.928   7.192   7.292 -1.4356 -1.0293  2.8140
  675MOL0     H93128   5.933   7.458   7.425  0.2435 -0.2275  0.0773
  675MOL0     H93129   5.793   7.355   7.406 -1.0219 -4.3281 -2.7451
  675MOL0     H93130   6.300   6.688   7.581 -1.2922 -0.3378  0.7736
  675MOL0     H93131   6.164   6.471   7.596 -0.6964  2.1281  0.7724
  675MOL0     H93132   6.229   6.060   7.287 -0.3919 -0.8397 -0.0950
  675MOL0     H93133   6.170   5.833   7.249 -3.0655 -2.3984  1.2894
  675MOL0     H93134   6.923   4.383   7.771  0.2656  0.0532 -1.3216
  675MOL0     H93135   6.905   4.138   7.810  1.7206 -1.9550  0.2239
  675MOL0     H93136   6.982   3.765   7.943  0.6369 -0.4075 -0.2749
  675MOL0     H93137   6.938   3.532   8.018  4.1261 -3.5959  1.0716
  675MOL0     H93138   6.769   3.276   7.742 -0.7460 -3.3615 -1.2537
  675MOL0     H93139   6.935   3.200   7.720 -0.1272 -4.1427  0.5263
  675MOL0     H93140   6.758   3.133   7.958  0.9111  0.5588  0.5401
  675MOL0     H93141   6.911   3.063   7.914  0.1437 -1.9457 -1.1339
  675MOL0     H93142   6.648   3.049   7.767  0.7404  0.2212  2.0065
  675MOL0     H93143   6.795   3.025   7.683  0.1006  0.1492  0.6279
  675MOL0     H93144   6.810   2.798   7.806  0.5225 -1.2025  1.7930
  675MOL0     H93145   6.647   2.833   7.762  0.7723 -0.3768 -0.4936
  675MOL0     H93146   6.688   2.800   8.185 -0.3412 -0.3870 -0.4822
  675MOL0     H93147   7.001   3.397   7.625  1.4338  1.5197 -0.6886
  675MOL0     H93148   7.081   3.702   7.467  0.5761  0.4109 -0.0615
  675MOL0     H93149   7.216   3.602   7.530  0.4300  1.5857 -1.4439
  675MOL0     H93150   7.068   3.533   7.445 -1.6303  2.8898 -1.8602
  676MOL0     O93151   2.200   7.346   4.396 -0.2009 -0.0180  0.3224
  676MOL0     C93152   2.102   7.271   4.399  0.5533 -0.0392  0.5825
  676MOL0     O93153   2.054   7.192   4.289 -0.3440 -0.0836 -0.6410
  676MOL0     C93154   2.115   7.169   4.174 -0.8638  0.0093 -0.1152
  676MOL0     C93155   2.229   7.244   4.137  0.3388  0.4596  0.1197
  676MOL0     C93156   2.306   7.200   4.024 -0.9895  0.9279  0.0112
  676MOL0     C93157   2.266   7.093   3.950 -0.4580 -0.7144 -0.2258
  676MOL0     O93158   2.336   7.063   3.836 -0.3862 -1.1799 -0.1938
  676MOL0     C93159   2.328   6.931   3.773 -0.4235 -0.0550  0.4828
  676MOL0     C93160   2.458   6.915   3.677 -0.5697  0.2945 -0.0227
  676MOL0     C93161   2.459   7.012   3.562  0.5286  0.1957  0.8024
  676MOL0     C93162   2.537   6.957   3.444 -0.5705  0.3812  0.4194
  676MOL0     C93163   2.686   6.940   3.471  0.2641 -0.0723 -1.0441
  676MOL0     C93164   2.750   7.079   3.489  0.4701 -0.5683  0.0244
  676MOL0     C93165   2.895   7.044   3.534 -0.6383 -0.2826 -0.2361
  676MOL0     C93166   2.902   6.986   3.682 -0.1207 -0.3502  0.3807
  676MOL0     N93167   2.908   7.092   3.786  0.1106  0.4639  0.1451
  676MOL0     C93168   2.798   7.146   3.837 -0.0013  0.0606  0.5849
  676MOL0     C93169   2.849   7.250   3.914 -0.3038 -0.9877 -0.0638
  676MOL0     C93170   2.756   7.361   3.969  0.3359 -0.1447 -0.7643
  676MOL0     C93171   2.702   7.316   4.111 -0.2261  0.3924 -0.0976
  676MOL0     C93172   2.649   7.439   4.187 -0.1593 -0.2630 -0.0398
  676MOL0     C93173   2.595   7.399   4.324 -0.2951 -0.9548  1.1477
  676MOL0     O93174   2.702   7.332   4.392 -0.3319  0.1567  0.1925
  676MOL0     C93175   2.677   7.261   4.510 -0.0344 -0.5235 -0.2458
  676MOL0     C93176   2.790   7.228   4.576  0.2805  0.0054 -0.1974
  676MOL0     C93177   2.782   7.184   4.713 -0.2174  1.2124 -0.1913
  676MOL0     C93178   2.924   7.147   4.775  1.0740  0.2882 -0.2968
  676MOL0     C93179   2.657   7.174   4.777  0.4958  0.3373 -0.0315
  676MOL0     C93180   2.633   7.124   4.920  0.0619 -1.2902 -0.7611
  676MOL0     O93181   2.509   7.091   4.951 -0.5031  0.8284  0.8327
  676MOL0     C93182   2.479   7.081   5.083 -0.3361  0.7519 -1.1176
  676MOL0     C93183   2.432   7.192   5.150  0.9337 -0.0280 -0.4861
  676MOL0     C93184   2.384   7.177   5.283  0.5362 -0.1581 -0.1578
  676MOL0     C93185   2.396   7.054   5.348 -0.4063 -0.3992 -0.6502
  676MOL0     O93186   2.355   7.042   5.478 -0.2635  0.5329  1.0028
  676MOL0     C93187   2.228   7.075   5.520  0.6671 -1.0280 -0.8787
  676MOL0     C93188   2.232   7.113   5.670 -1.0722 -0.0032 -0.2500
  676MOL0     C93189   2.250   6.986   5.764  0.6212 -0.6445 -0.7038
  676MOL0     C93190   2.213   7.024   5.906  0.2357 -0.9985  0.1130
  676MOL0     C93191   2.209   6.904   6.011 -0.3886  0.0421  0.9037
  676MOL0     C93192   2.219   6.969   6.150 -0.0989  0.6407 -0.4645
  676MOL0     C93193   2.214   6.853   6.256  0.1413 -0.0910  0.3722
  676MOL0     C93194   2.249   6.912   6.391  0.1230  0.5394 -0.0160
  676MOL0    Cl93195   2.124   7.014   6.463  0.0431 -0.0853  0.3510
  676MOL0     C93196   2.450   6.947   5.275  0.1065  0.9522 -0.5756
  676MOL0     C93197   2.500   6.962   5.143  0.6418 -0.0216 -0.1429
  676MOL0     O93198   2.725   7.137   5.002  0.0389 -0.0474  0.2647
  676MOL0     C93199   2.545   7.209   4.702 -0.2870  0.3465 -0.1542
  676MOL0     C93200   2.556   7.247   4.565  0.3624  0.4634  0.1790
  676MOL0     N93201   2.980   7.233   3.922 -0.3147 -0.1234 -0.2863
  676MOL0     N93202   3.023   7.151   3.828 -0.1260  0.4586 -0.7353
  676MOL0     C93203   2.163   7.009   3.999 -0.6289 -0.1786 -0.5256
  676MOL0     C93204   2.085   7.052   4.106  0.7073  0.2389  0.6567
  676MOL0     C93205   2.014   7.288   4.523  0.1833 -1.5493 -0.1720
  676MOL0     C93206   2.039   7.400   4.615 -0.1567 -1.5052 -1.2152
  676MOL0     C93207   1.955   7.423   4.728 -0.4461  0.0440  0.5469
  676MOL0     C93208   1.831   7.358   4.735  0.0503  0.3184 -0.7935
  676MOL0     O93209   1.737   7.377   4.828  0.5621  0.1142 -0.1227
  676MOL0     C93210   1.749   7.448   4.947 -0.0634 -0.9252 -0.0558
  676MOL0     C93211   1.640   7.415   5.054  0.0025  0.1557  0.5627
  676MOL0     C93212   1.497   7.463   5.023  0.3069 -0.3861 -0.5305
  676MOL0     C93213   1.427   7.343   4.947  1.6095 -0.5450 -0.3760
  676MOL0     C93214   1.293   7.379   4.900  0.7035  0.0479  0.7899
  676MOL0     C93215   1.179   7.390   4.865  0.7589  0.0576 -0.5822
  676MOL0     C93216   1.805   7.260   4.648  1.0450  0.3736  0.2588
  676MOL0     C93217   1.897   7.216   4.544 -0.3126 -0.0513 -0.3316
  676MOL0     C93218   1.863   7.089   4.466 -0.8818 -0.4185 -0.5923
  676MOL0     H93219   2.277   7.332   4.179  3.7051 -2.2851  2.6771
  676MOL0     H93220   2.387   7.259   3.983  1.8021 -0.8729  2.5365
  676MOL0     H93221   2.240   6.919   3.709 -1.6407  3.1259  1.3560
  676MOL0     H93222   2.325   6.851   3.847 -0.5343  0.4779  1.0587
  676MOL0     H93223   2.549   6.929   3.736 -0.0097  2.6580 -1.3122
  676MOL0     H93224   2.465   6.813   3.638  2.1314  0.2499  0.3806
  676MOL0     H93225   2.358   7.026   3.524 -0.9663 -4.4079  2.4642
  676MOL0     H93226   2.489   7.113   3.591  0.7655  0.3281  0.1164
  676MOL0     H93227   2.494   6.864   3.405  1.0908  0.5546 -2.0913
  676MOL0     H93228   2.527   7.035   3.367  1.2984 -0.5693 -0.8670
  676MOL0     H93229   2.732   6.896   3.382  0.1731 -2.7976  0.1634
  676MOL0     H93230   2.711   6.865   3.547  2.5711 -0.7123 -2.3458
  676MOL0     H93231   2.739   7.140   3.399  1.1062  0.8126  0.8579
  676MOL0     H93232   2.708   7.133   3.574  2.8929  2.8727 -0.7724
  676MOL0     H93233   2.951   7.137   3.529 -1.7363  0.4754  0.9824
  676MOL0     H93234   2.947   6.976   3.466 -0.0268  0.7513 -0.8230
  676MOL0     H93235   2.818   6.916   3.694  0.9997 -1.9424 -0.7025
  676MOL0     H93236   2.992   6.925   3.691  0.2067  0.2048  0.9846
  676MOL0     H93237   2.693   7.123   3.822 -0.1379  0.7837  0.4051
  676MOL0     H93238   2.674   7.384   3.901 -0.6377  0.8894  0.6840
  676MOL0     H93239   2.820   7.449   3.981  0.9221 -0.5922 -0.5525
  676MOL0     H93240   2.627   7.238   4.095 -0.9975  1.4273 -1.8229
  676MOL0     H93241   2.783   7.275   4.172 -1.5880  2.6074  3.5383
  676MOL0     H93242   2.729   7.513   4.196 -0.6517  0.1157  1.4958
  676MOL0     H93243   2.579   7.507   4.138 -1.4873 -1.3998  0.2311
  676MOL0     H93244   2.569   7.493   4.375  0.7655 -0.5103  0.9008
  676MOL0     H93245   2.500   7.346   4.318 -1.3822  0.8396  1.7140
  676MOL0     H93246   2.887   7.251   4.534  1.0529 -2.8001 -0.1556
  676MOL0     H93247   2.912   7.055   4.833  0.2995 -0.7112 -1.9676
  676MOL0     H93248   2.968   7.226   4.837 -0.5102 -1.5662  3.5277
  676MOL0     H93249   2.994   7.122   4.695 -1.4324 -4.0548 -1.4367
  676MOL0     H93250   2.443   7.277   5.083 -1.4189  0.4320 -0.3935
  676MOL0     H93251   2.347   7.266   5.333  0.6379  0.5436 -1.3041
  676MOL0     H93252   2.196   7.165   5.467 -1.1758  0.8557  3.0281
  676MOL0     H93253   2.154   6.995   5.510  0.9842 -1.4212 -0.1171
  676MOL0     H93254   2.297   7.195   5.701  0.6340 -1.3104 -0.1909
  676MOL0     H93255   2.136   7.161   5.692 -0.6961  0.2785  0.8529
  676MOL0     H93256   2.354   6.958   5.776  0.4758 -0.0354  3.0633
  676MOL0     H93257   2.193   6.899   5.730  1.9091 -1.6347 -0.4082
  676MOL0     H93258   2.122   7.085   5.917 -0.8681 -2.6599  0.6275
  676MOL0     H93259   2.293   7.087   5.945 -2.0699  0.6163  2.6478
  676MOL0     H93260   2.115   6.853   5.985 -1.7119  2.4709  0.5979
  676MOL0     H93261   2.289   6.831   6.001  0.3791  1.0408 -0.5263
  676MOL0     H93262   2.136   7.039   6.164 -0.3182  0.3414 -0.2495
  676MOL0     H93263   2.307   7.027   6.180 -0.0132 -1.6568  4.7516
  676MOL0     H93264   2.285   6.772   6.233  1.4692  0.7920  1.2024
  676MOL0     H93265   2.115   6.807   6.258  0.9069 -1.8809 -0.6334
  676MOL0     H93266   2.348   6.957   6.391  0.5203  0.0686 -4.0137
  676MOL0     H93267   2.248   6.817   6.446  1.7310 -1.5139 -3.2171
  676MOL0     H93268   2.461   6.853   5.327 -1.8861  0.2214 -1.3761
  676MOL0     H93269   2.536   6.876   5.087  0.5048  1.5599 -2.8347
  676MOL0     H93270   2.447   7.200   4.746 -0.0781 -0.9791  0.0844
  676MOL0     H93271   2.461   7.264   4.515 -1.0143  1.6223  2.9663
  676MOL0     H93272   2.130   6.928   3.935 -1.8906  0.1944 -0.3630
  676MOL0     H93273   2.001   6.992   4.141 -0.5161 -0.5504 -3.1174
  676MOL0     H93274   2.132   7.456   4.611 -1.9976  1.8673 -0.2460
  676MOL0     H93275   1.986   7.497   4.801  0.2030  0.6637 -0.3353
  676MOL0     H93276   1.843   7.423   4.998 -0.5180 -0.3578  1.0861
  676MOL0     H93277   1.741   7.552   4.916 -1.4428 -1.3121 -1.0835
  676MOL0     H93278   1.663   7.468   5.147 -0.5237  2.2191 -0.4432
  676MOL0     H93279   1.640   7.308   5.077  2.4747 -0.1854 -0.6837
  676MOL0     H93280   1.438   7.493   5.110 -1.0753  0.8176 -1.8176
  676MOL0     H93281   1.499   7.544   4.950 -0.0156  0.5435  0.4731
  676MOL0     H93282   1.409   7.263   5.018  0.7848 -0.9730 -1.0448
  676MOL0     H93283   1.480   7.311   4.857 -2.7472 -4.7179 -1.8958
  676MOL0     H93284   1.074   7.409   4.853  0.4445 -1.0343  0.3186
  676MOL0     H93285   1.727   7.185   4.656  0.8458  0.4003 -1.1602
  676MOL0     H93286   1.784   7.029   4.512 -2.1115  1.3697 -0.2720
  676MOL0     H93287   1.816   7.125   4.375 -0.3482  1.3993 -0.1909
  676MOL0     H93288   1.942   7.014   4.455  1.6392  2.1134 -1.0503
  677MOL0     O93289   0.637   0.092   9.962 -0.4681 -0.6663  0.4548
  677MOL0     C93290   0.578   0.130  10.056  0.8855 -0.3202  0.6438
  677MOL0     O93291   0.617   0.221  10.148 -0.5486 -0.5644 -0.3920
  677MOL0     C93292   0.738   0.275  10.125 -0.0018 -0.3945  0.5809
  677MOL0     C93293   0.832   0.240  10.223 -1.2411 -0.5688  0.5399
  677MOL0     C93294   0.961   0.306  10.229  0.5731 -0.1532  0.0052
  677MOL0     C93295   0.992   0.408  10.132  1.1320  0.6275 -0.2642
  677MOL0     O93296   1.097   0.483  10.135  0.1787 -0.2978  0.1485
  677MOL0     C93297   1.218   0.418  10.180 -0.2246  0.3800  0.3869
  677MOL0     C93298   1.329   0.504  10.131  0.1984 -0.0175  0.2018
  677MOL0     C93299   1.468   0.452  10.168 -0.0401  0.0832 -0.9125
  677MOL0     C93300   1.475   0.356  10.284 -0.7596 -1.3722 -0.4443
  677MOL0     C93301   1.624   0.337  10.308 -0.4820  0.2464  0.6130
  677MOL0     C93302   1.638   0.219  10.403 -0.3699  1.0123 -0.0509
  677MOL0     C93303   1.784   0.205  10.434 -0.4510 -0.4267 -0.0631
  677MOL0     C93304   1.807   0.107  10.547 -0.7787 -0.3994  0.6135
  677MOL0     N93305   1.744  -0.020  10.515 -0.1046 -0.5862 -0.2188
  677MOL0     C93306   1.781  -0.120  10.425  0.5508  0.6388  0.6696
  677MOL0     C93307   1.694  -0.226  10.450 -0.0055 -1.3768 -0.5201
  677MOL0     C93308   1.686  -0.356  10.375 -0.5080 -0.3662  0.4905
  677MOL0     C93309   1.682  -0.475  10.477 -0.4529  0.3582 -0.3752
  677MOL0     C93310   1.546  -0.497  10.548 -0.0451  0.2853 -0.0525
  677MOL0     C93311   1.568  -0.523  10.695  0.1538 -0.4622  0.3827
  677MOL0     O93312   1.449  -0.581  10.751  0.1185  0.3979  0.4005
  677MOL0     C93313   1.440  -0.592  10.890 -1.1972  0.0287 -0.7480
  677MOL0     C93314   1.346  -0.691  10.932 -0.3325  0.4660 -0.3524
  677MOL0     C93315   1.351  -0.725  11.065 -0.2360 -0.3219 -0.1090
  677MOL0     C93316   1.257  -0.845  11.104 -0.1398  0.2410  0.1468
  677MOL0     C93317   1.439  -0.657  11.164  0.1808 -0.3949  0.2838
  677MOL0     C93318   1.431  -0.682  11.309 -1.3605 -0.2587 -0.5059
  677MOL0     O93319   1.492  -0.583  11.392 -0.6053 -0.1665  0.8795
  677MOL0     C93320   1.480  -0.611  11.526 -0.3024  0.1479 -0.8845
  677MOL0     C93321   1.358  -0.608  11.595 -0.1679 -0.3885  0.4669
  677MOL0     C93322   1.356  -0.634  11.729  0.3490  1.4469 -0.8248
  677MOL0     C93323   1.467  -0.642  11.807 -0.5726 -1.1343  0.1251
  677MOL0     O93324   1.461  -0.627  11.943 -1.0060 -0.6037 -0.2799
  677MOL0     C93325   1.555  -0.690  12.030  0.6457 -0.2463 -0.7491
  677MOL0     C93326   1.480  -0.709  12.168 -0.8366 -0.6231  0.0904
  677MOL0     C93327   1.346  -0.773  12.163 -0.1897 -0.6420  0.1460
  677MOL0     C93328   1.281  -0.805  12.300 -0.2698 -0.2005 -0.6222
  677MOL0     C93329   1.171  -0.914  12.287 -1.0983  0.0107  0.0711
  677MOL0     C93330   1.096  -0.958  12.410  0.3195  0.2755 -0.0164
  677MOL0     C93331   1.070  -1.121  12.410  0.7830 -0.0476 -0.3403
  677MOL0     C93332   0.969  -1.160  12.525 -0.0874  0.5409 -0.5022
  677MOL0    Cl93333   1.027  -1.098  12.681  0.0849 -0.2517 -0.2932
  677MOL0     C93334   1.595  -0.646  11.744 -0.0072  0.4753  0.2298
  677MOL0     C93335   1.599  -0.639  11.601  0.4462 -0.4203  0.0855
  677MOL0     O93336   1.369  -0.778  11.352 -0.3897 -0.9436  0.4491
  677MOL0     C93337   1.517  -0.556  11.119  0.0583  0.1473  0.4183
  677MOL0     C93338   1.510  -0.519  10.983 -0.3161 -0.2077 -1.3990
  677MOL0     N93339   1.602  -0.174  10.544  0.0677 -0.4561  0.0573
  677MOL0     N93340   1.626  -0.045  10.575  0.8228  0.0946 -0.0460
  677MOL0     C93341   0.895   0.434  10.027 -0.0747  0.4569  0.1036
  677MOL0     C93342   0.763   0.370  10.033  0.2172 -0.6524 -0.4051
  677MOL0     C93343   0.441   0.064  10.070 -0.7221 -0.2191 -0.5670
  677MOL0     C93344   0.432  -0.075  10.043 -1.0306 -1.2552 -0.3249
  677MOL0     C93345   0.325  -0.159  10.071 -0.2694 -0.2848 -0.0500
  677MOL0     C93346   0.210  -0.091  10.121  1.3687  0.1482 -0.5446
  677MOL0     O93347   0.100  -0.160  10.161  0.1030 -1.2208 -0.2929
  677MOL0     C93348   0.082  -0.291  10.130  0.0434  0.6846 -0.0963
  677MOL0     C93349  -0.008  -0.348  10.244  0.6505  0.6149 -0.2692
  677MOL0     C93350  -0.039  -0.494  10.206  0.0571  0.0329  0.2853
  677MOL0     C93351  -0.147  -0.560  10.299  0.0447 -0.8516  0.4821
  677MOL0     C93352  -0.279  -0.545  10.234  0.0788 -0.6017 -0.7233
  677MOL0     C93353  -0.395  -0.528  10.198 -0.8538 -0.8963  0.0851
  677MOL0     C93354   0.214   0.047  10.151 -0.2751  0.6250 -0.2735
  677MOL0     C93355   0.326   0.123  10.123  0.4881 -0.3728 -0.3835
  677MOL0     C93356   0.310   0.271  10.133  0.4054 -0.1844 -0.4175
  677MOL0     H93357   0.804   0.174  10.304  1.6297  0.4427  2.5131
  677MOL0     H93358   1.016   0.294  10.322 -1.6125  2.8630  1.8537
  677MOL0     H93359   1.223   0.315  10.145  1.0390  0.9888 -1.3448
  677MOL0     H93360   1.226   0.422  10.290  1.9103 -2.1175  0.4033
  677MOL0     H93361   1.331   0.500  10.022 -2.1737 -2.6263  0.1489
  677MOL0     H93362   1.309   0.611  10.145  1.1617  0.3974 -1.3139
  677MOL0     H93363   1.516   0.399  10.085 -1.2005 -2.1447 -0.2167
  677MOL0     H93364   1.539   0.536  10.173  1.1889 -0.7391 -3.0505
  677MOL0     H93365   1.437   0.399  10.378 -1.6851  1.4218 -1.9836
  677MOL0     H93366   1.416   0.266  10.263 -0.7167 -1.7450  0.9176
  677MOL0     H93367   1.672   0.422  10.357  1.3408  0.1897 -0.9599
  677MOL0     H93368   1.680   0.325  10.215 -1.2964  1.9231 -0.1336
  677MOL0     H93369   1.589   0.257  10.493  1.5287  2.9318  0.2669
  677MOL0     H93370   1.585   0.131  10.367 -1.7690  2.4326 -1.5833
  677MOL0     H93371   1.830   0.299  10.466 -2.1506  1.0102 -1.5679
  677MOL0     H93372   1.820   0.157  10.343 -1.3102 -0.5048 -0.3741
  677MOL0     H93373   1.913   0.092  10.567 -0.9169 -0.7874  1.0636
  677MOL0     H93374   1.768   0.159  10.635 -0.8598 -0.3178  0.5302
  677MOL0     H93375   1.860  -0.119  10.351  0.7569 -1.6295  0.7795
  677MOL0     H93376   1.779  -0.370  10.320 -1.6333  1.2936 -1.9942
  677MOL0     H93377   1.609  -0.385  10.302 -0.6278 -3.2270  1.6207
  677MOL0     H93378   1.712  -0.569  10.431  1.6704  0.5385  0.5290
  677MOL0     H93379   1.760  -0.462  10.553 -0.1017 -0.7305 -0.5295
  677MOL0     H93380   1.481  -0.411  10.527  0.3377  0.5447 -0.1747
  677MOL0     H93381   1.497  -0.582  10.500  1.9431  1.0308 -3.8312
  677MOL0     H93382   1.646  -0.595  10.722 -1.0242 -1.9563 -0.0631
  677MOL0     H93383   1.586  -0.426  10.744 -3.1698  1.3679 -1.6476
  677MOL0     H93384   1.285  -0.746  10.862 -1.4013 -1.6903  2.1135
  677MOL0     H93385   1.304  -0.921  11.168  2.0461 -1.5089 -3.2361
  677MOL0     H93386   1.233  -0.892  11.008 -1.7328  2.9450 -0.8675
  677MOL0     H93387   1.168  -0.814  11.160  0.6838 -0.3256  1.8481
  677MOL0     H93388   1.263  -0.565  11.565 -1.6935 -2.4464  2.0605
  677MOL0     H93389   1.267  -0.633  11.791  0.9212 -0.4701  0.1152
  677MOL0     H93390   1.585  -0.787  11.989  2.6443  0.5541 -1.3376
  677MOL0     H93391   1.649  -0.636  12.047  1.1666 -1.9197  2.4588
  677MOL0     H93392   1.536  -0.781  12.228  0.8115 -0.7432 -1.5036
  677MOL0     H93393   1.462  -0.611  12.213  0.4119  0.2274 -1.1810
  677MOL0     H93394   1.359  -0.869  12.111  3.8095  1.3112 -3.0422
  677MOL0     H93395   1.289  -0.711  12.093 -2.0180 -0.4217  1.7304
  677MOL0     H93396   1.249  -0.709  12.341  1.1714  0.0333  0.0147
  677MOL0     H93397   1.354  -0.859  12.361 -2.2131 -2.5097 -0.1662
  677MOL0     H93398   1.101  -0.885  12.208 -0.1969  1.4571 -0.2386
  677MOL0     H93399   1.215  -1.004  12.243 -0.5534  1.1067 -1.7757
  677MOL0     H93400   1.008  -0.894  12.425 -1.6219 -2.2084 -0.1859
  677MOL0     H93401   1.164  -0.934  12.492  1.3969  1.5220 -1.2154
  677MOL0     H93402   1.162  -1.175  12.431  0.6258 -1.3513 -2.6995
  677MOL0     H93403   1.041  -1.162  12.313 -1.0035  1.8100 -0.6703
  677MOL0     H93404   0.980  -1.269  12.522  1.5551  0.6926 -0.8054
  677MOL0     H93405   0.863  -1.142  12.506 -0.6328 -1.7893  0.0367
  677MOL0     H93406   1.688  -0.657  11.799  1.0320  0.0325 -1.5598
  677MOL0     H93407   1.692  -0.645  11.547  0.9781  0.6369  0.8501
  677MOL0     H93408   1.580  -0.494  11.183 -0.8073 -0.2636  1.7018
  677MOL0     H93409   1.573  -0.434  10.958  0.7800  0.6989  3.3231
  677MOL0     H93410   0.934   0.494   9.946 -1.4730 -1.4182 -2.0575
  677MOL0     H93411   0.680   0.397   9.969 -0.4189  0.3716  0.7947
  677MOL0     H93412   0.518  -0.130  10.005 -0.2721  1.2344 -2.5175
  677MOL0     H93413   0.321  -0.265  10.048 -2.3844 -0.5847  1.3946
  677MOL0     H93414   0.042  -0.293  10.028  2.9249  0.1759 -1.3142
  677MOL0     H93415   0.168  -0.357  10.114  0.5196  1.8819 -3.2979
  677MOL0     H93416  -0.095  -0.282  10.245 -0.1648 -0.3883 -1.2638
  677MOL0     H93417   0.044  -0.350  10.340  0.1291  0.1331  0.0157
  677MOL0     H93418  -0.063  -0.509  10.100 -0.8212 -0.3523  0.5255
  677MOL0     H93419   0.056  -0.547  10.215 -0.3993 -1.1988 -1.5699
  677MOL0     H93420  -0.138  -0.504  10.393  1.2801  0.4309 -0.3617
  677MOL0     H93421  -0.138  -0.668  10.317 -4.7914 -1.3219  1.4562
  677MOL0     H93422  -0.501  -0.527  10.181 -1.0389 -1.3868  1.1208
  677MOL0     H93423   0.128   0.104  10.184 -0.2628 -0.2888  1.4403
  677MOL0     H93424   0.388   0.321  10.074 -0.8335  3.7574  0.9801
  677MOL0     H93425   0.217   0.298  10.083 -0.4803 -1.1592  0.6620
  677MOL0     H93426   0.301   0.306  10.236 -2.3907  0.9242 -0.9684
  678MOL0     O93427   9.565   8.601   6.579  0.1538  0.3991 -0.2217
  678MOL0     C93428   9.474   8.604   6.487 -0.3325 -0.7902  0.2069
  678MOL0     O93429   9.453   8.710   6.406 -0.9794 -0.4258  0.0690
  678MOL0     C93430   9.502   8.837   6.455  0.4152 -0.7484 -0.3252
  678MOL0     C93431   9.414   8.901   6.540  0.1338  0.2439  0.0375
  678MOL0     C93432   9.455   9.026   6.599  0.1624 -0.7004  0.1290
  678MOL0     C93433   9.574   9.088   6.570 -0.2425 -0.5074  1.3899
  678MOL0     O93434   9.585   9.216   6.632  0.0601 -0.5801  0.0566
  678MOL0     C93435   9.714   9.283   6.616  0.3542 -0.2493 -0.0225
  678MOL0     C93436   9.724   9.418   6.681 -0.7391 -0.6629 -0.1480
  678MOL0     C93437   9.658   9.422   6.827 -0.0643  0.0737 -0.0340
  678MOL0     C93438   9.731   9.515   6.918  0.7757 -0.2699  0.1019
  678MOL0     C93439   9.669   9.530   7.063  0.1025  0.2735 -0.2501
  678MOL0     C93440   9.774   9.493   7.166 -0.5479  0.9352  0.3902
  678MOL0     C93441   9.734   9.530   7.311 -0.9358  0.2203  0.4402
  678MOL0     C93442   9.643   9.428   7.386  0.6809 -0.3001 -0.4818
  678MOL0     N93443   9.648   9.444   7.534  0.0737 -0.3355 -0.3615
  678MOL0     C93444   9.575   9.536   7.602  0.3186  0.6760 -0.6706
  678MOL0     C93445   9.564   9.476   7.731  0.5162 -0.3004 -0.8276
  678MOL0     C93446   9.484   9.526   7.853  0.5038  0.2644  0.6448
  678MOL0     C93447   9.345   9.456   7.863  0.5677 -1.0707  0.7432
  678MOL0     C93448   9.260   9.516   7.976  0.2077  0.1073  0.9767
  678MOL0     C93449   9.131   9.431   8.001  0.8602 -0.0498 -0.1632
  678MOL0     O93450   9.052   9.430   7.881 -0.0145  0.5547 -0.3201
  678MOL0     C93451   8.995   9.550   7.835 -0.3177 -0.7383  0.4658
  678MOL0     C93452   8.947   9.554   7.706 -1.2732 -0.4249 -0.1497
  678MOL0     C93453   8.889   9.672   7.653  0.2880  0.7184  0.4559
  678MOL0     C93454   8.859   9.676   7.506  0.1269 -0.2974  0.0048
  678MOL0     C93455   8.881   9.792   7.731 -0.0988 -0.1508 -0.2718
  678MOL0     C93456   8.812   9.919   7.687 -0.7830  0.9104  0.2399
  678MOL0     O93457   8.861  10.033   7.748  0.3650 -0.4260 -0.1943
  678MOL0     C93458   8.804  10.158   7.739  0.2565  0.4901 -0.3261
  678MOL0     C93459   8.878  10.273   7.715 -0.1200 -0.0931  0.0505
  678MOL0     C93460   8.815  10.392   7.699  0.5463  0.2375  1.0325
  678MOL0     C93461   8.681  10.411   7.730 -0.0480  1.2918  0.7666
  678MOL0     O93462   8.624  10.536   7.732 -0.4725 -0.7242 -0.3456
  678MOL0     C93463   8.624  10.609   7.857 -0.0245  0.1169 -0.3122
  678MOL0     C93464   8.512  10.549   7.946 -0.6899 -0.5074  0.0555
  678MOL0     C93465   8.473  10.654   8.051 -0.2349 -0.3308 -0.0159
  678MOL0     C93466   8.368  10.752   7.983 -0.8522 -0.3953  0.4661
  678MOL0     C93467   8.384  10.891   8.040  0.3513  0.3322  0.9638
  678MOL0     C93468   8.291  10.998   7.979 -0.7430 -0.1887 -0.1427
  678MOL0     C93469   8.165  11.008   8.057 -0.2843 -0.2240  0.1734
  678MOL0     C93470   8.096  11.145   8.035 -0.3707 -0.5208 -0.4605
  678MOL0    Cl93471   8.042  11.157   7.857  0.4053 -0.0974 -0.0220
  678MOL0     C93472   8.602  10.293   7.753 -0.5855 -0.3076  0.1687
  678MOL0     C93473   8.660  10.166   7.752 -0.0079 -1.2519 -0.1484
  678MOL0     O93474   8.716   9.909   7.606  0.9523 -0.1405  0.4987
  678MOL0     C93475   8.924   9.782   7.864 -0.5913 -0.1605 -1.3463
  678MOL0     C93476   8.995   9.672   7.915  0.3034  0.5994  0.6549
  678MOL0     N93477   9.638   9.362   7.738 -0.0041 -0.3191 -0.0752
  678MOL0     N93478   9.693   9.349   7.618 -0.1944 -0.1675  0.0045
  678MOL0     C93479   9.658   9.026   6.486  0.2719  1.3589 -0.1602
  678MOL0     C93480   9.621   8.898   6.433 -0.5941 -0.3008 -0.0526
  678MOL0     C93481   9.393   8.490   6.444 -0.1346 -0.2727 -0.4741
  678MOL0     C93482   9.255   8.483   6.463 -0.0673  0.0227  0.7917
  678MOL0     C93483   9.180   8.375   6.418 -0.3494  1.3130 -0.2197
  678MOL0     C93484   9.242   8.270   6.355 -0.6301  0.5394  0.3054
  678MOL0     O93485   9.165   8.161   6.312 -0.0994 -0.0765  0.5143
  678MOL0     C93486   9.228   8.061   6.225 -0.2543  0.2864  0.2405
  678MOL0     C93487   9.118   8.011   6.142  0.9161 -0.5224 -0.3655
  678MOL0     C93488   9.167   7.906   6.053 -0.0934  0.0666  0.5729
  678MOL0     C93489   9.183   7.766   6.125 -0.8857  0.4272  0.5914
  678MOL0     C93490   9.237   7.660   6.031  0.3284 -0.1142 -0.1135
  678MOL0     C93491   9.290   7.585   5.957  0.4110 -0.6206  0.1844
  678MOL0     C93492   9.380   8.269   6.345  0.6389 -0.3728  0.2901
  678MOL0     C93493   9.454   8.381   6.379 -0.0552  1.8242  0.2896
  678MOL0     C93494   9.604   8.369   6.374 -0.6649  0.4742  0.7665
  678MOL0     H93495   9.327   8.841   6.564  0.9924 -0.3569  1.8887
  678MOL0     H93496   9.398   9.070   6.680  0.5967 -0.6064  0.3869
  678MOL0     H93497   9.746   9.306   6.515  2.2640 -1.0536  0.3598
  678MOL0     H93498   9.785   9.210   6.657 -0.1339 -2.3883 -2.7132
  678MOL0     H93499   9.831   9.431   6.702 -0.8072 -1.3984  0.7469
  678MOL0     H93500   9.673   9.487   6.613  0.6789 -0.4793 -1.0722
  678MOL0     H93501   9.553   9.453   6.823  0.6289  2.6979 -0.0260
  678MOL0     H93502   9.651   9.320   6.865 -1.3752  0.2572  0.3046
  678MOL0     H93503   9.833   9.475   6.914  1.1998  0.8379 -0.7107
  678MOL0     H93504   9.724   9.609   6.862  2.0319 -0.6629 -0.7523
  678MOL0     H93505   9.583   9.464   7.080 -0.0534  0.3792 -0.6162
  678MOL0     H93506   9.645   9.637   7.070  0.3388  0.3797 -0.9719
  678MOL0     H93507   9.788   9.385   7.169  0.9850  1.1309  1.8621
  678MOL0     H93508   9.868   9.547   7.147 -0.6601  0.5215 -1.4972
  678MOL0     H93509   9.683   9.626   7.307 -1.6018 -0.1730 -1.7262
  678MOL0     H93510   9.828   9.549   7.365  1.1952 -1.9140 -2.2003
  678MOL0     H93511   9.542   9.423   7.345 -0.1224  0.5247  1.3137
  678MOL0     H93512   9.683   9.330   7.359 -0.4277 -0.2514 -2.4716
  678MOL0     H93513   9.533   9.632   7.572  1.4701  1.7651  0.9872
  678MOL0     H93514   9.466   9.634   7.853 -0.0330  0.2670 -2.4165
  678MOL0     H93515   9.543   9.506   7.942  0.1156 -0.6392  0.7135
  678MOL0     H93516   9.300   9.464   7.764  2.6542 -3.3957 -0.4899
  678MOL0     H93517   9.362   9.349   7.879  1.4895 -1.3980 -2.0464
  678MOL0     H93518   9.323   9.509   8.065  2.3585  0.1132 -0.4837
  678MOL0     H93519   9.226   9.619   7.959  1.0805  0.3157  0.4456
  678MOL0     H93520   9.151   9.326   8.023 -0.2029 -1.1562 -3.7463
  678MOL0     H93521   9.059   9.471   8.073 -0.0974  3.0994 -2.6244
  678MOL0     H93522   8.978   9.479   7.635  2.2590  2.0002 -1.4697
  678MOL0     H93523   8.881   9.577   7.465  1.0957 -0.4876  0.9440
  678MOL0     H93524   8.928   9.750   7.464  1.2107 -0.9270  0.6496
  678MOL0     H93525   8.759   9.709   7.476  0.4819 -2.0169 -3.6143
  678MOL0     H93526   8.984  10.257   7.700  0.0770  2.3170 -1.6006
  678MOL0     H93527   8.877  10.477   7.672 -1.1580  0.8567 -1.1801
  678MOL0     H93528   8.716  10.619   7.917 -0.1458  0.4955 -0.1833
  678MOL0     H93529   8.604  10.714   7.837  0.0335  0.4891  1.3779
  678MOL0     H93530   8.419  10.524   7.895 -1.1515  2.2939 -0.6292
  678MOL0     H93531   8.560  10.463   7.994 -2.2181 -1.5750 -0.2687
  678MOL0     H93532   8.559  10.709   8.089 -0.3390  0.1012 -0.3904
  678MOL0     H93533   8.427  10.604   8.137  1.2912  3.1210  3.0848
  678MOL0     H93534   8.266  10.715   7.994 -0.7550 -1.1262 -0.8952
  678MOL0     H93535   8.389  10.760   7.876 -0.0857 -0.0667  0.6401
  678MOL0     H93536   8.376  10.886   8.149 -1.1046 -1.0579  0.8226
  678MOL0     H93537   8.486  10.922   8.018  1.2704 -2.6650  0.6271
  678MOL0     H93538   8.284  10.977   7.872  2.8128 -1.4292 -0.2688
  678MOL0     H93539   8.339  11.096   7.989  2.1756 -1.5525  0.3503
  678MOL0     H93540   8.189  11.015   8.164  1.4796  3.2939 -0.3151
  678MOL0     H93541   8.110  10.917   8.031 -2.8531  0.9391  1.1976
  678MOL0     H93542   8.170  11.221   8.063 -0.0643 -0.3771 -1.5980
  678MOL0     H93543   8.017  11.147   8.111 -1.0760 -1.2220 -1.1578
  678MOL0     H93544   8.496  10.313   7.765 -0.1597  1.1600  1.9084
  678MOL0     H93545   8.592  10.082   7.748  0.7901 -2.1562  2.6264
  678MOL0     H93546   8.917   9.856   7.943  0.6541 -0.4664 -0.9230
  678MOL0     H93547   9.021   9.667   8.020  0.3848  1.9267  0.7114
  678MOL0     H93548   9.754   9.071   6.465 -0.1529  1.0030 -3.3545
  678MOL0     H93549   9.696   8.839   6.382  1.5942  1.2040  1.2250
  678MOL0     H93550   9.199   8.561   6.512  1.5265  1.0568  1.0484
  678MOL0     H93551   9.072   8.362   6.424 -0.0157 -2.9712 -0.0845
  678MOL0     H93552   9.307   8.109   6.166 -0.3337 -0.2199 -0.2934
  678MOL0     H93553   9.269   7.981   6.287  2.0788  2.6601  1.9872
  678MOL0     H93554   9.070   8.084   6.076  1.8932 -0.2116 -0.7618
  678MOL0     H93555   9.038   7.973   6.205  0.5090  0.9049  0.0273
  678MOL0     H93556   9.102   7.895   5.966  0.7426 -0.2935 -0.0238
  678MOL0     H93557   9.264   7.932   6.009 -1.2592 -0.4258 -2.5237
  678MOL0     H93558   9.090   7.715   6.154 -0.8764  0.3483  0.4820
  678MOL0     H93559   9.258   7.776   6.204  2.8546 -1.7150 -2.3362
  678MOL0     H93560   9.335   7.525   5.880 -1.0406  1.5863 -2.5593
  678MOL0     H93561   9.435   8.183   6.310  0.8025 -0.4492  0.7303
  678MOL0     H93562   9.648   8.468   6.359 -1.7112  0.7254 -0.8261
  678MOL0     H93563   9.642   8.320   6.464  0.5091  2.4064  1.3840
  678MOL0     H93564   9.627   8.309   6.286 -1.3474 -1.5513  1.8971
  679MOL0     O93565   4.774   6.577   4.472 -0.7862 -0.4975 -0.0812
  679MOL0     C93566   4.891   6.626   4.487 -0.3706  0.0611 -0.3916
  679MOL0     O93567   4.925   6.759   4.456 -0.2276 -0.0935  0.5531
  679MOL0     C93568   4.833   6.821   4.375 -0.1552  0.1390  0.6980
  679MOL0     C93569   4.869   6.835   4.243 -0.1303 -0.6468  0.5852
  679MOL0     C93570   4.787   6.911   4.158 -0.5268  0.1144 -0.3623
  679MOL0     C93571   4.657   6.948   4.201  0.7708  0.3414 -0.3994
  679MOL0     O93572   4.564   7.015   4.123  0.0317  0.4740 -0.4257
  679MOL0     C93573   4.596   7.063   3.986  0.6240 -0.9407  0.2653
  679MOL0     C93574   4.480   7.144   3.941  0.2022 -0.6174 -0.1345
  679MOL0     C93575   4.345   7.086   3.958 -0.2296 -0.0156 -0.2229
  679MOL0     C93576   4.249   7.181   3.890  0.3712  0.6247 -0.3133
  679MOL0     C93577   4.103   7.158   3.922  0.3780  0.4890 -0.3231
  679MOL0     C93578   4.052   7.184   4.073 -0.1007  0.8039 -0.2325
  679MOL0     C93579   4.065   7.326   4.143  0.2962  0.4439 -0.0196
  679MOL0     C93580   4.054   7.315   4.297  0.5613 -0.4985 -0.4573
  679MOL0     N93581   3.944   7.253   4.369  0.5244 -1.3639  0.0697
  679MOL0     C93582   3.835   7.318   4.408 -0.3363  0.2585  0.0214
  679MOL0     C93583   3.753   7.239   4.473 -0.2164  0.2873  0.2984
  679MOL0     C93584   3.628   7.279   4.549  0.9877  0.0388 -0.6591
  679MOL0     C93585   3.495   7.249   4.480 -1.2039 -1.2261  0.5603
  679MOL0     C93586   3.462   7.104   4.458 -0.0639  0.3960  0.8073
  679MOL0     C93587   3.453   7.023   4.589 -0.5208 -0.0603  0.3798
  679MOL0     O93588   3.418   6.879   4.588 -0.0312 -0.3889 -0.3208
  679MOL0     C93589   3.503   6.791   4.528 -0.1276 -0.9280 -0.3749
  679MOL0     C93590   3.454   6.666   4.521  0.0151 -0.3397 -0.1671
  679MOL0     C93591   3.517   6.551   4.478  0.0307  0.1431 -0.9621
  679MOL0     C93592   3.440   6.426   4.476  0.8926 -0.5488 -0.1564
  679MOL0     C93593   3.651   6.572   4.426 -0.6543 -0.5988 -0.4528
  679MOL0     C93594   3.728   6.481   4.348 -1.0948  0.6995  0.1510
  679MOL0     O93595   3.716   6.347   4.372 -0.1203  0.6730 -0.6046
  679MOL0     C93596   3.826   6.269   4.357 -0.9708 -1.0743 -0.2750
  679MOL0     C93597   3.941   6.305   4.424  0.8638  0.4129 -0.2843
  679MOL0     C93598   4.058   6.239   4.417 -0.7606  0.7196 -0.0078
  679MOL0     C93599   4.079   6.136   4.314 -0.7584  0.4663  1.0861
  679MOL0     O93600   4.189   6.056   4.300  0.3696  0.0630  0.0944
  679MOL0     C93601   4.298   6.081   4.396  0.5981 -0.3157  0.3604
  679MOL0     C93602   4.406   5.975   4.378  0.2330  0.2975 -0.4346
  679MOL0     C93603   4.523   5.988   4.471 -0.3244 -0.0984  0.4719
  679MOL0     C93604   4.500   5.903   4.595 -0.9158 -0.5671  0.0579
  679MOL0     C93605   4.569   5.771   4.576 -0.5183  0.1113  0.1547
  679MOL0     C93606   4.572   5.700   4.709  0.3166 -0.3879 -0.1145
  679MOL0     C93607   4.612   5.564   4.684 -0.4173  0.1138 -0.2863
  679MOL0     C93608   4.653   5.502   4.809  1.1689 -0.1339 -0.7061
  679MOL0    Cl93609   4.498   5.462   4.900  0.1737 -0.1495 -0.3057
  679MOL0     C93610   3.960   6.104   4.234  0.0397 -0.0418 -0.1001
  679MOL0     C93611   3.841   6.171   4.259  0.1301  0.6524  0.0586
  679MOL0     O93612   3.788   6.524   4.255 -0.1288  0.6597  0.4422
  679MOL0     C93613   3.699   6.706   4.423  0.5923  0.7671  0.3309
  679MOL0     C93614   3.635   6.811   4.481  0.3757 -0.1185 -0.5111
  679MOL0     N93615   3.800   7.106   4.454 -0.8809 -0.4551  0.1419
  679MOL0     N93616   3.914   7.118   4.398 -0.7405 -0.4432  0.5323
  679MOL0     C93617   4.617   6.927   4.338 -0.8888  0.0677  1.1594
  679MOL0     C93618   4.715   6.878   4.429  0.3043  0.3601 -0.0248
  679MOL0     C93619   5.002   6.545   4.548  0.4566 -0.7947  0.6085
  679MOL0     C93620   4.994   6.407   4.546  0.3213  0.1937 -0.5635
  679MOL0     C93621   5.105   6.332   4.590 -0.8658  0.4555 -0.2621
  679MOL0     C93622   5.218   6.394   4.629 -0.1448 -0.6355 -0.6300
  679MOL0     O93623   5.316   6.310   4.672 -0.0340 -0.5040  0.5107
  679MOL0     C93624   5.449   6.351   4.691 -0.0839  0.1539  0.3417
  679MOL0     C93625   5.525   6.238   4.631 -0.3145 -0.5200  0.1581
  679MOL0     C93626   5.497   6.229   4.480 -0.5551 -0.0383 -0.1605
  679MOL0     C93627   5.453   6.091   4.442 -0.1788  0.5007 -0.5706
  679MOL0     C93628   5.382   6.075   4.311 -0.3445 -0.2461  0.5799
  679MOL0     C93629   5.316   6.061   4.213  1.2360  0.8147  0.4954
  679MOL0     C93630   5.229   6.531   4.634  0.5449 -1.7434 -0.0118
  679MOL0     C93631   5.119   6.610   4.599  0.0487  0.1955  0.7072
  679MOL0     C93632   5.133   6.755   4.626 -0.5753  0.3191  0.4574
  679MOL0     H93633   4.961   6.784   4.216  1.5655  2.4784  0.0102
  679MOL0     H93634   4.825   6.913   4.056  0.7315  1.2970  0.0876
  679MOL0     H93635   4.613   6.976   3.923  2.2224  0.1874 -0.9349
  679MOL0     H93636   4.690   7.117   3.977  0.1384 -0.2657 -0.9844
  679MOL0     H93637   4.477   7.244   3.986 -0.4482 -0.0171 -1.4450
  679MOL0     H93638   4.499   7.165   3.835 -0.3113 -2.1326 -0.5503
  679MOL0     H93639   4.349   6.989   3.907  1.6469  0.0092 -0.1946
  679MOL0     H93640   4.324   7.066   4.063 -2.7173 -2.0197 -0.9902
  679MOL0     H93641   4.276   7.285   3.910 -1.7018  1.2581 -0.5621
  679MOL0     H93642   4.273   7.173   3.784  1.9785  0.2886  0.0576
  679MOL0     H93643   4.076   7.059   3.886 -2.8227  1.2024 -0.2241
  679MOL0     H93644   4.039   7.220   3.859 -3.3332 -1.2776  1.3955
  679MOL0     H93645   3.951   7.146   4.088  1.7203 -4.4644  0.9785
  679MOL0     H93646   4.108   7.116   4.138 -0.7727 -0.4904 -0.9733
  679MOL0     H93647   4.005   7.409   4.104 -0.2210 -0.2196 -0.6658
  679MOL0     H93648   4.169   7.351   4.120  0.2333  2.0708  1.3608
  679MOL0     H93649   4.138   7.248   4.316  0.8910 -0.3829 -1.4598
  679MOL0     H93650   4.076   7.411   4.344 -0.9823 -0.6086  0.6063
  679MOL0     H93651   3.834   7.425   4.389  2.1766  1.0569  3.3271
  679MOL0     H93652   3.624   7.384   4.580  0.0254 -0.2417  0.2385
  679MOL0     H93653   3.641   7.231   4.647 -1.3223  1.2765  0.3164
  679MOL0     H93654   3.417   7.293   4.544  0.4154  0.8922  1.1965
  679MOL0     H93655   3.488   7.304   4.385 -0.7522  0.1423  1.2957
  679MOL0     H93656   3.366   7.091   4.408  0.3963 -2.2536  0.4591
  679MOL0     H93657   3.535   7.054   4.394 -1.2449  0.9484 -1.0234
  679MOL0     H93658   3.546   7.033   4.647 -1.7133  0.9395  2.1923
  679MOL0     H93659   3.372   7.079   4.636 -0.0238  0.2766  0.8613
  679MOL0     H93660   3.353   6.649   4.557  0.6389 -1.6311  1.0777
  679MOL0     H93661   3.338   6.443   4.512 -0.6355 -2.2881 -3.2295
  679MOL0     H93662   3.475   6.345   4.540 -1.6969 -2.6038 -1.1634
  679MOL0     H93663   3.433   6.397   4.370  0.3125  2.2529 -0.9688
  679MOL0     H93664   3.936   6.391   4.491 -1.7217  1.1345 -1.2474
  679MOL0     H93665   4.139   6.269   4.482  0.5877  0.9404 -1.7306
  679MOL0     H93666   4.340   6.178   4.368 -1.1127  0.9522  1.9773
  679MOL0     H93667   4.267   6.076   4.500  3.3761 -0.4702  1.2700
  679MOL0     H93668   4.369   5.872   4.387  1.1087 -0.2699 -2.5159
  679MOL0     H93669   4.441   5.983   4.274 -0.8018 -1.8903 -1.0327
  679MOL0     H93670   4.541   6.094   4.490  0.7938  0.2411 -2.0837
  679MOL0     H93671   4.612   5.966   4.411 -2.1216  0.6816 -2.7181
  679MOL0     H93672   4.396   5.894   4.626 -0.4879  2.7188  3.1846
  679MOL0     H93673   4.557   5.952   4.675  0.2618 -1.5159 -0.1640
  679MOL0     H93674   4.515   5.717   4.497 -0.9348 -1.0862  1.2194
  679MOL0     H93675   4.670   5.775   4.534  0.2759 -0.6084  1.9039
  679MOL0     H93676   4.471   5.699   4.750 -0.1531 -2.5285 -1.1598
  679MOL0     H93677   4.645   5.753   4.772 -0.6697 -0.9890  1.5875
  679MOL0     H93678   4.702   5.564   4.622  1.6039 -2.4176  2.3598
  679MOL0     H93679   4.536   5.506   4.631  1.3183  0.0604 -2.9152
  679MOL0     H93680   4.721   5.562   4.870  1.9602 -2.1667  0.5149
  679MOL0     H93681   4.716   5.415   4.789  0.1364 -0.6799 -1.7719
  679MOL0     H93682   3.962   6.043   4.144 -1.8559 -0.4055  0.0658
  679MOL0     H93683   3.763   6.132   4.194  0.0278 -2.0491  1.6832
  679MOL0     H93684   3.804   6.719   4.402  0.8700 -1.2382  0.2986
  679MOL0     H93685   3.685   6.908   4.480  0.4672 -0.1683 -0.9496
  679MOL0     H93686   4.521   6.970   4.366 -0.7691  0.1131  1.4942
  679MOL0     H93687   4.711   6.865   4.537  1.3988  0.0621 -0.0120
  679MOL0     H93688   4.905   6.356   4.512  0.2411  0.5363 -0.8730
  679MOL0     H93689   5.106   6.225   4.573  2.1911  0.3475  0.0766
  679MOL0     H93690   5.486   6.443   4.645  0.9116 -0.5700 -0.3790
  679MOL0     H93691   5.471   6.345   4.798  0.5252 -1.8607  0.1573
  679MOL0     H93692   5.501   6.143   4.681  0.5695  0.0578  1.7405
  679MOL0     H93693   5.629   6.264   4.650 -0.2082 -2.2859  2.4776
  679MOL0     H93694   5.422   6.298   4.441  1.1343  1.7116 -0.4690
  679MOL0     H93695   5.596   6.238   4.434 -0.4846 -2.6923 -0.7290
  679MOL0     H93696   5.406   6.029   4.519  1.3875 -1.7684 -1.3393
  679MOL0     H93697   5.549   6.040   4.431 -0.6630 -0.5232 -0.1438
  679MOL0     H93698   5.266   6.078   4.120  1.6774  1.4912  0.3717
  679MOL0     H93699   5.321   6.577   4.668  0.6454 -2.8261  1.2866
  679MOL0     H93700   5.218   6.771   4.693  0.1734 -1.8657  0.1039
  679MOL0     H93701   5.147   6.798   4.526 -0.4878  0.1815  0.4096
  679MOL0     H93702   5.051   6.800   4.682 -1.6491  2.4028 -2.5211
  680MOL0     O93703   3.477   9.913   4.647  0.4134  0.4383 -0.1739
  680MOL0     C93704   3.460   9.959   4.760  0.1985 -0.0900 -0.2675
  680MOL0     O93705   3.333   9.992   4.806  0.7764 -0.0264  0.5051
  680MOL0     C93706   3.227   9.984   4.713 -0.6464 -0.5159  0.0146
  680MOL0     C93707   3.143   9.871   4.700 -0.2731  0.1800 -0.8832
  680MOL0     C93708   3.049   9.863   4.598  0.2519 -0.0940 -0.8422
  680MOL0     C93709   3.050   9.964   4.499 -0.7610  0.6686  0.4529
  680MOL0     O93710   2.968   9.942   4.387 -0.1961  0.2620 -0.7812
  680MOL0     C93711   2.942  10.056   4.303  0.4156 -0.6137  0.6273
  680MOL0     C93712   2.845  10.019   4.188 -0.0766 -0.5404  1.0530
  680MOL0     C93713   2.744  10.122   4.142 -0.0298 -0.4424 -0.5978
  680MOL0     C93714   2.635  10.063   4.055  0.0809 -0.2019 -0.1922
  680MOL0     C93715   2.514  10.164   4.046 -0.4840 -0.1894 -0.4250
  680MOL0     C93716   2.409  10.106   3.950 -0.8035 -0.6581  0.0762
  680MOL0     C93717   2.275  10.176   3.964 -0.0490  0.2913 -0.4214
  680MOL0     C93718   2.158  10.109   3.906  0.2582  0.6737  0.1767
  680MOL0     N93719   2.148  10.138   3.761  0.0369  0.4505  0.0435
  680MOL0     C93720   2.184  10.048   3.657 -0.7995 -0.9241 -0.7566
  680MOL0     C93721   2.158  10.126   3.549  1.3620  0.1975  0.4190
  680MOL0     C93722   2.205  10.097   3.409  0.1676 -0.3998  0.2808
  680MOL0     C93723   2.119   9.994   3.331 -0.1890  0.0842  0.7456
  680MOL0     C93724   2.217   9.903   3.253  0.1408 -0.1724 -1.5518
  680MOL0     C93725   2.301   9.983   3.149  0.3836 -0.0444 -0.4975
  680MOL0     O93726   2.422  10.012   3.223 -0.3632  0.6544 -0.0549
  680MOL0     C93727   2.532  10.070   3.162  0.3470 -0.5253 -1.0770
  680MOL0     C93728   2.553  10.102   3.024 -0.3660  0.1539 -0.8760
  680MOL0     C93729   2.669  10.161   2.974  0.4757 -0.2091 -0.6655
  680MOL0     C93730   2.670  10.210   2.833 -0.3472  0.2923 -0.0514
  680MOL0     C93731   2.772  10.182   3.067 -0.1199  0.7935  0.1845
  680MOL0     C93732   2.908  10.201   3.024 -0.3293  0.8180  0.3213
  680MOL0     O93733   2.989  10.266   3.105 -0.1499  0.3687  0.0978
  680MOL0     C93734   3.113  10.318   3.055 -0.3668  0.0890 -1.0646
  680MOL0     C93735   3.126  10.368   2.924 -0.7392  0.0846  0.5477
  680MOL0     C93736   3.259  10.405   2.881  0.8374 -0.3475  0.0971
  680MOL0     C93737   3.370  10.411   2.969  0.0989 -0.2886  0.2983
  680MOL0     O93738   3.500  10.426   2.934 -0.0255 -0.3235  1.0085
  680MOL0     C93739   3.528  10.380   2.801  0.8911 -0.1071  0.2106
  680MOL0     C93740   3.675  10.358   2.771  0.4237  0.5443  0.6776
  680MOL0     C93741   3.736  10.494   2.739  0.0871  0.0137  0.0733
  680MOL0     C93742   3.890  10.489   2.708  0.2829 -0.7879  0.3455
  680MOL0     C93743   3.980  10.452   2.818 -0.9025  0.0386  0.7228
  680MOL0     C93744   4.117  10.415   2.752 -0.3696 -0.0919  0.1214
  680MOL0     C93745   4.198  10.531   2.701  0.9533 -0.7209  0.0964
  680MOL0     C93746   4.347  10.519   2.672  0.0016 -0.1574 -0.4361
  680MOL0    Cl93747   4.371  10.428   2.524 -0.0151  0.2159  0.0551
  680MOL0     C93748   3.344  10.376   3.102 -0.2073 -0.5174 -0.3613
  680MOL0     C93749   3.218  10.346   3.148 -0.6281 -0.2467  0.0634
  680MOL0     O93750   2.946  10.140   2.918 -0.1649 -0.5070 -0.6729
  680MOL0     C93751   2.747  10.162   3.206  0.0128  0.7744 -0.5459
  680MOL0     C93752   2.630  10.103   3.256 -0.3904  1.0747  1.2788
  680MOL0     N93753   2.093  10.237   3.592  0.2954  0.6761  0.2788
  680MOL0     N93754   2.075  10.250   3.716 -0.3511 -0.2091 -0.0283
  680MOL0     C93755   3.132  10.075   4.516  0.5681  0.6226  0.7701
  680MOL0     C93756   3.206  10.096   4.634  0.3958 -0.4735 -0.0132
  680MOL0     C93757   3.582   9.969   4.850  0.2823 -0.0476 -0.1181
  680MOL0     C93758   3.563   9.988   4.986 -0.3803 -0.4310 -0.3355
  680MOL0     C93759   3.669   9.992   5.077 -0.3101  1.0293 -0.9035
  680MOL0     C93760   3.795   9.983   5.031  0.0759 -0.7149  0.4802
  680MOL0     O93761   3.907   9.972   5.106  0.1872 -0.0866 -0.5148
  680MOL0     C93762   3.923  10.070   5.206  0.2217  1.2421  0.4289
  680MOL0     C93763   4.074  10.072   5.258 -0.6268 -0.2672  0.7949
  680MOL0     C93764   4.179  10.087   5.146 -0.0398  0.5859  0.3308
  680MOL0     C93765   4.172  10.217   5.067  0.8590 -0.0805 -0.0899
  680MOL0     C93766   4.245  10.225   4.937  0.8226 -0.5969 -0.1940
  680MOL0     C93767   4.320  10.224   4.850  0.3001  0.4407 -0.3252
  680MOL0     C93768   3.812   9.947   4.898 -0.7085  0.4876 -0.0700
  680MOL0     C93769   3.712   9.944   4.808 -0.3806  0.2038 -0.1489
  680MOL0     C93770   3.765   9.940   4.663 -0.0767  1.1963 -0.9135
  680MOL0     H93771   3.159   9.787   4.768  0.0637  0.3940 -0.6983
  680MOL0     H93772   3.003   9.766   4.579  2.3073 -1.3180  0.0515
  680MOL0     H93773   3.032  10.090   4.249 -1.2762 -2.3406 -3.8045
  680MOL0     H93774   2.893  10.127   4.370  1.1387 -0.1531  0.6810
  680MOL0     H93775   2.904   9.972   4.109 -2.9640 -1.8328 -0.4734
  680MOL0     H93776   2.778   9.937   4.214 -0.7916 -0.0520  0.7730
  680MOL0     H93777   2.711  10.159   4.239  0.1074 -3.1515  0.5560
  680MOL0     H93778   2.797  10.206   4.095  2.1841  0.0105  2.4007
  680MOL0     H93779   2.674  10.044   3.954 -0.2781 -0.8026 -0.2268
  680MOL0     H93780   2.593   9.971   4.097 -1.4882 -0.3829 -1.9868
  680MOL0     H93781   2.541  10.265   4.011  2.6219 -1.5285 -2.3550
  680MOL0     H93782   2.462  10.163   4.142 -0.4722 -4.1652 -0.3007
  680MOL0     H93783   2.449  10.119   3.850  0.5055  0.2441  0.6876
  680MOL0     H93784   2.392   9.999   3.967 -0.7467 -0.7996 -0.7339
  680MOL0     H93785   2.281  10.279   3.928 -1.7003  0.2378 -0.9548
  680MOL0     H93786   2.245  10.182   4.069  0.0007 -3.1269 -0.1018
  680MOL0     H93787   2.175  10.001   3.914 -0.2017  0.4302 -1.6977
  680MOL0     H93788   2.065  10.135   3.956  0.7303  0.1258  1.3913
  680MOL0     H93789   2.214   9.945   3.670 -0.3158 -0.9600 -2.0713
  680MOL0     H93790   2.305  10.060   3.430 -0.0470  1.1096  5.2680
  680MOL0     H93791   2.202  10.191   3.354 -2.6177 -0.3876  0.2664
  680MOL0     H93792   2.064   9.926   3.396  0.4672 -0.0815  1.1280
  680MOL0     H93793   2.043  10.044   3.269  1.6050  0.1338 -1.5888
  680MOL0     H93794   2.288   9.863   3.325 -4.0009 -1.6800  2.1151
  680MOL0     H93795   2.166   9.813   3.218 -0.2455 -0.0176 -1.3961
  680MOL0     H93796   2.313   9.931   3.054  0.3667 -0.0017 -0.5232
  680MOL0     H93797   2.251  10.078   3.130  1.0486  0.6792  1.1402
  680MOL0     H93798   2.473  10.086   2.953 -2.5304  3.0071  0.6853
  680MOL0     H93799   2.666  10.133   2.756 -1.9084 -1.6967  1.8568
  680MOL0     H93800   2.746  10.283   2.806 -0.8266  1.6426  2.0070
  680MOL0     H93801   2.589  10.279   2.808  0.3540  0.5287 -1.7614
  680MOL0     H93802   3.044  10.380   2.854 -0.2126  1.2750  0.1126
  680MOL0     H93803   3.260  10.442   2.778 -2.7726  0.5745  0.2558
  680MOL0     H93804   3.485  10.280   2.788 -1.7436  1.1864 -2.1619
  680MOL0     H93805   3.478  10.439   2.723  1.4247  1.8022  1.2594
  680MOL0     H93806   3.710  10.299   2.856 -0.2606  0.0474  0.6197
  680MOL0     H93807   3.667  10.306   2.676 -0.8261  1.6707  0.1363
  680MOL0     H93808   3.723  10.562   2.823  0.9878  0.4772 -0.1460
  680MOL0     H93809   3.689  10.533   2.648  0.1402  3.1582  1.2810
  680MOL0     H93810   3.922  10.588   2.673 -2.2923 -0.2775 -0.7731
  680MOL0     H93811   3.905  10.428   2.619 -1.6812  0.5820 -1.0017
  680MOL0     H93812   3.990  10.547   2.872  1.2377  1.3270 -1.6884
  680MOL0     H93813   3.955  10.366   2.881  0.4727  0.5442  2.0312
  680MOL0     H93814   4.115  10.341   2.671  0.5586  0.0531 -0.0484
  680MOL0     H93815   4.179  10.366   2.827  2.1395 -0.5361 -2.0679
  680MOL0     H93816   4.182  10.616   2.768 -0.4536 -0.7318 -0.1881
  680MOL0     H93817   4.149  10.564   2.608  0.1303 -0.6702  0.5415
  680MOL0     H93818   4.392  10.459   2.751 -1.2795  0.2217  0.6128
  680MOL0     H93819   4.394  10.618   2.663  1.4944 -0.8978 -1.2877
  680MOL0     H93820   3.423  10.376   3.176 -0.6632  1.3186  0.1923
  680MOL0     H93821   3.205  10.332   3.255 -0.5083 -0.5090  0.0469
  680MOL0     H93822   2.824  10.187   3.279 -0.8867  1.7622  0.0952
  680MOL0     H93823   2.635  10.065   3.357  0.1899 -2.8914 -0.0899
  680MOL0     H93824   3.124  10.156   4.445 -2.3591 -0.1608  0.0724
  680MOL0     H93825   3.263  10.188   4.634  1.0990 -0.8633  1.5748
  680MOL0     H93826   3.466   9.993   5.035 -0.5487 -0.1860 -0.6907
  680MOL0     H93827   3.642   9.991   5.182 -3.6942 -2.2984 -1.5719
  680MOL0     H93828   3.913  10.164   5.150 -1.0699  0.6522 -0.3786
  680MOL0     H93829   3.863  10.039   5.293  1.8173 -0.7385  0.8955
  680MOL0     H93830   4.089   9.981   5.317 -1.3862 -0.5883  0.5048
  680MOL0     H93831   4.090  10.157   5.325  0.9728 -0.9596  1.3330
  680MOL0     H93832   4.280  10.090   5.188  1.0866 -1.0131 -2.0309
  680MOL0     H93833   4.177  10.016   5.063  0.0036  1.3360 -0.3186
  680MOL0     H93834   4.220  10.288   5.135 -0.1422 -1.3032  1.9852
  680MOL0     H93835   4.066  10.242   5.055  0.8265 -0.5945 -0.9746
  680MOL0     H93836   4.382  10.204   4.764  0.5920  0.1656 -0.0531
  680MOL0     H93837   3.912   9.920   4.866 -1.8266 -4.1249 -0.2884
  680MOL0     H93838   3.831   9.854   4.651  0.4023  1.5177 -0.6214
  680MOL0     H93839   3.692   9.931   4.582 -1.0841  0.5557  0.0566
  680MOL0     H93840   3.830  10.027   4.646  1.0269  0.0436 -3.1073
  681MOL0     O93841   8.660   2.742   4.525 -0.5652  0.1421  0.3141
  681MOL0     C93842   8.644   2.780   4.639 -0.2685  0.0447 -0.2602
  681MOL0     O93843   8.527   2.759   4.713 -0.1537 -0.7505  0.6417
  681MOL0     C93844   8.415   2.711   4.653 -0.3674 -0.6629  0.1310
  681MOL0     C93845   8.384   2.578   4.651 -1.3890 -0.9384  0.1751
  681MOL0     C93846   8.269   2.530   4.588 -0.3380  0.2142  0.6660
  681MOL0     C93847   8.190   2.612   4.516 -0.9292  0.0443  1.1829
  681MOL0     O93848   8.090   2.550   4.444 -0.0683 -0.4711  0.0691
  681MOL0     C93849   8.014   2.631   4.357  0.0419 -0.3952  0.5795
  681MOL0     C93850   7.939   2.523   4.273 -0.0493 -0.3718 -0.3988
  681MOL0     C93851   8.012   2.455   4.159 -0.0202  0.7083  0.8591
  681MOL0     C93852   8.022   2.523   4.017  0.0641 -0.4915 -0.3476
  681MOL0     C93853   8.122   2.641   4.012 -0.0410  0.0259 -0.1904
  681MOL0     C93854   8.107   2.717   3.873  0.5920  0.0985 -1.2559
  681MOL0     C93855   8.167   2.854   3.866 -0.4715 -1.6913  0.0781
  681MOL0     C93856   8.209   2.907   3.724  0.6413 -0.2257 -0.0822
  681MOL0     N93857   8.266   3.040   3.736 -0.5863  0.7584  0.5749
  681MOL0     C93858   8.205   3.155   3.782 -0.0471 -0.1513 -0.2229
  681MOL0     C93859   8.305   3.231   3.833 -0.0416  0.9912  0.5741
  681MOL0     C93860   8.289   3.362   3.907  1.3547  0.3205  0.0728
  681MOL0     C93861   8.268   3.348   4.055 -0.1006  1.0986 -0.6676
  681MOL0     C93862   8.281   3.479   4.141  0.8124 -0.3549  0.4924
  681MOL0     C93863   8.158   3.575   4.127  0.4645 -0.0248  0.2058
  681MOL0     O93864   8.184   3.679   4.036  0.4134 -0.6094 -1.2763
  681MOL0     C93865   8.091   3.779   4.019  0.8715 -0.2696 -0.2568
  681MOL0     C93866   7.953   3.763   4.037  0.0487  0.6464 -0.2898
  681MOL0     C93867   7.872   3.873   4.042  0.9221  1.4161  0.2291
  681MOL0     C93868   7.731   3.864   4.096  0.7133  1.0207 -0.1995
  681MOL0     C93869   7.919   4.000   3.989 -0.2190 -0.4685 -0.0918
  681MOL0     C93870   7.829   4.128   3.958 -0.3139  1.5988 -0.4218
  681MOL0     O93871   7.869   4.205   3.857 -0.0685 -0.5045  0.1888
  681MOL0     C93872   7.834   4.338   3.850  0.2711  0.6647  0.6132
  681MOL0     C93873   7.849   4.393   3.723  0.5779  0.2128  0.2482
  681MOL0     C93874   7.829   4.527   3.703 -0.5078  0.3037 -0.6848
  681MOL0     C93875   7.820   4.618   3.814  0.1353  0.1329  0.1731
  681MOL0     O93876   7.779   4.745   3.782 -0.3217 -0.4823 -0.2423
  681MOL0     C93877   7.715   4.830   3.880 -0.0489  0.2023 -0.0650
  681MOL0     C93878   7.632   4.940   3.827  0.6815 -0.2365 -0.4344
  681MOL0     C93879   7.529   4.901   3.719 -0.1510 -0.3284 -0.2696
  681MOL0     C93880   7.413   4.997   3.719  0.6260  0.6578  0.8621
  681MOL0     C93881   7.311   4.957   3.615 -0.4540  0.1390  0.6815
  681MOL0     C93882   7.206   5.063   3.596 -0.0626  0.2779 -0.2945
  681MOL0     C93883   7.096   5.019   3.488 -0.1446 -0.3102 -0.2347
  681MOL0     C93884   6.977   5.123   3.497 -0.4499  0.0630  0.3099
  681MOL0    Cl93885   7.032   5.274   3.425  0.4172 -0.2562 -0.1041
  681MOL0     C93886   7.820   4.565   3.945  0.3235  0.5895 -0.1049
  681MOL0     C93887   7.821   4.420   3.966 -0.4283 -0.9984 -0.8692
  681MOL0     O93888   7.726   4.143   4.029  0.0715  0.4887  0.6486
  681MOL0     C93889   8.055   4.008   3.943  0.3985  0.4940 -0.4827
  681MOL0     C93890   8.138   3.907   3.981 -0.9433  0.1686  1.4351
  681MOL0     N93891   8.427   3.172   3.799  0.6746 -0.1494 -1.3137
  681MOL0     N93892   8.399   3.059   3.738 -1.0357  0.3834 -0.6710
  681MOL0     C93893   8.216   2.752   4.515 -0.3219 -0.9993  0.0155
  681MOL0     C93894   8.325   2.805   4.591 -1.2669  0.5208  0.2800
  681MOL0     C93895   8.745   2.862   4.714 -0.3773 -0.1045  0.1982
  681MOL0     C93896   8.748   2.843   4.860  0.8096 -0.4829  0.1322
  681MOL0     C93897   8.832   2.920   4.942  0.0048  0.2343 -0.5666
  681MOL0     C93898   8.906   3.025   4.883 -0.2484  0.1558 -0.0686
  681MOL0     O93899   8.975   3.112   4.957 -0.1370 -0.8187 -0.4797
  681MOL0     C93900   9.020   3.081   5.087  0.0409 -0.1792  0.2398
  681MOL0     C93901   9.121   3.197   5.133  0.6404  0.1542 -0.6530
  681MOL0     C93902   9.061   3.335   5.120  0.5979  0.4456  0.3088
  681MOL0     C93903   8.950   3.370   5.218 -0.3219 -0.1101  0.2125
  681MOL0     C93904   8.831   3.431   5.147  0.4061  0.7439 -0.0112
  681MOL0     C93905   8.727   3.495   5.112 -0.4572  0.5241  0.1219
  681MOL0     C93906   8.909   3.033   4.748 -1.4893 -0.0776 -0.1341
  681MOL0     C93907   8.830   2.952   4.663 -0.8981 -0.1833 -0.4907
  681MOL0     C93908   8.844   2.951   4.516  0.7463  0.8109  0.5379
  681MOL0     H93909   8.447   2.525   4.722 -0.3291  0.8792  0.6520
  681MOL0     H93910   8.225   2.434   4.614  0.0145 -0.1945 -0.1899
  681MOL0     H93911   8.082   2.693   4.298 -1.6999 -0.0792 -1.1992
  681MOL0     H93912   7.942   2.694   4.410 -0.1566  1.6217 -1.8799
  681MOL0     H93913   7.896   2.455   4.346 -1.3433 -0.2739 -1.0461
  681MOL0     H93914   7.871   2.582   4.211  0.8911  1.2499  0.0443
  681MOL0     H93915   8.112   2.435   4.199  0.4315  0.7217 -0.2312
  681MOL0     H93916   7.957   2.361   4.146 -0.1194  0.5196  2.4115
  681MOL0     H93917   8.049   2.461   3.932 -0.0670 -0.6372 -0.2834
  681MOL0     H93918   7.922   2.559   3.990  0.0051  1.2456  1.8575
  681MOL0     H93919   8.225   2.605   4.012 -0.0125 -0.3183  3.8091
  681MOL0     H93920   8.105   2.709   4.096  0.6906  2.0529 -1.6060
  681MOL0     H93921   8.153   2.646   3.804  1.4671 -0.7861  0.1785
  681MOL0     H93922   8.003   2.720   3.841  0.2062  2.1695 -0.0336
  681MOL0     H93923   8.269   2.858   3.904  0.4614 -0.5021 -2.3145
  681MOL0     H93924   8.095   2.921   3.914 -1.1299 -1.0234 -1.7497
  681MOL0     H93925   8.280   2.842   3.673  0.3646  1.2607 -2.5238
  681MOL0     H93926   8.114   2.906   3.671 -0.5836 -0.3665  2.0076
  681MOL0     H93927   8.100   3.152   3.806 -1.5186 -1.7033 -5.5464
  681MOL0     H93928   8.203   3.415   3.866 -0.8231 -1.4714  2.0635
  681MOL0     H93929   8.384   3.416   3.897  1.0783  0.7088 -0.5010
  681MOL0     H93930   8.174   3.296   4.075  0.1354 -0.7969 -3.8224
  681MOL0     H93931   8.353   3.291   4.093 -1.0811  0.8259  1.2280
  681MOL0     H93932   8.292   3.438   4.243  1.1290 -0.0460  0.5840
  681MOL0     H93933   8.369   3.534   4.108 -0.3708  1.7357  0.6666
  681MOL0     H93934   8.066   3.523   4.098  0.8540  0.0618 -1.2877
  681MOL0     H93935   8.150   3.619   4.227 -0.8239  1.0210 -0.3313
  681MOL0     H93936   7.900   3.672   4.065 -1.5734  1.0250 -1.9675
  681MOL0     H93937   7.720   3.942   4.172  0.6546  1.6152 -0.8020
  681MOL0     H93938   7.719   3.767   4.144  0.5344  1.3495  0.4309
  681MOL0     H93939   7.643   3.868   4.032 -2.0837 -0.8011  3.1719
  681MOL0     H93940   7.871   4.323   3.643  1.9852 -0.5680  1.2823
  681MOL0     H93941   7.830   4.553   3.598 -1.7364  0.1504 -0.7441
  681MOL0     H93942   7.647   4.769   3.942  0.1082  1.8985  1.8600
  681MOL0     H93943   7.786   4.877   3.947 -0.4862  0.9050 -0.0889
  681MOL0     H93944   7.595   4.990   3.917  1.9311  3.1561 -1.6328
  681MOL0     H93945   7.682   5.012   3.762 -2.4793  1.7908 -0.8849
  681MOL0     H93946   7.494   4.801   3.747 -0.9434  0.2089  0.7281
  681MOL0     H93947   7.588   4.901   3.627  3.6435 -0.6730  1.9597
  681MOL0     H93948   7.463   5.091   3.694  0.4682  0.4369 -0.3176
  681MOL0     H93949   7.365   4.995   3.817 -3.0359 -0.3785 -0.7617
  681MOL0     H93950   7.365   4.944   3.521  0.0712 -0.7763  1.0980
  681MOL0     H93951   7.262   4.865   3.649  0.5178 -0.7684 -0.3026
  681MOL0     H93952   7.251   5.157   3.563 -0.4051 -0.1178 -2.0091
  681MOL0     H93953   7.154   5.088   3.689  3.3038  2.9038  1.0712
  681MOL0     H93954   7.065   4.918   3.514 -2.2215  1.1301  3.7767
  681MOL0     H93955   7.131   5.018   3.384 -2.1825  0.6217 -0.9876
  681MOL0     H93956   6.948   5.143   3.600  0.4682 -1.2870  0.8592
  681MOL0     H93957   6.892   5.096   3.434  1.0137  0.2981 -1.8670
  681MOL0     H93958   7.800   4.629   4.030 -0.5393 -0.3298  0.4154
  681MOL0     H93959   7.801   4.389   4.068 -1.1274 -1.2441 -1.0788
  681MOL0     H93960   8.110   4.093   3.905  0.0389  1.0315  0.1841
  681MOL0     H93961   8.245   3.908   3.961 -0.7656 -0.5534  2.3021
  681MOL0     H93962   8.155   2.824   4.461 -0.7547  1.1696  3.1380
  681MOL0     H93963   8.365   2.904   4.607 -1.0408  0.2785  1.2868
  681MOL0     H93964   8.674   2.782   4.910 -3.5096  3.9323 -0.1650
  681MOL0     H93965   8.823   2.904   5.049  1.7875  0.2990 -0.3800
  681MOL0     H93966   8.932   3.084   5.153 -1.2327  4.0476 -1.3274
  681MOL0     H93967   9.084   2.992   5.092  2.1925  1.3350  1.2470
  681MOL0     H93968   9.214   3.195   5.075  0.6530 -0.3294 -0.6185
  681MOL0     H93969   9.147   3.167   5.235 -0.7060  1.7050  0.1910
  681MOL0     H93970   9.146   3.402   5.139  2.7929 -2.3451  1.0670
  681MOL0     H93971   9.042   3.352   5.013 -3.3159 -2.2291  0.4034
  681MOL0     H93972   9.005   3.440   5.282  0.6248 -0.8646  0.2424
  681MOL0     H93973   8.914   3.278   5.265 -0.5878 -0.7344 -1.1821
  681MOL0     H93974   8.643   3.546   5.070 -2.7147 -2.3411  0.8095
  681MOL0     H93975   8.969   3.105   4.693  0.0687 -0.8503  0.4884
  681MOL0     H93976   8.923   3.021   4.488  0.0377  0.5285 -2.4830
  681MOL0     H93977   8.873   2.857   4.468 -1.6159  1.6547 -2.9332
  681MOL0     H93978   8.752   2.988   4.470  1.1922  2.6515  1.0404
  682MOL0     O93979   1.366   3.131   5.007  0.4776 -0.4566  0.4584
  682MOL0     C93980   1.466   3.073   4.981 -0.3661  0.8296 -0.1290
  682MOL0     O93981   1.560   3.113   4.893 -1.0315  0.6714 -0.4235
  682MOL0     C93982   1.573   3.237   4.832  0.4904 -0.3154 -0.2760
  682MOL0     C93983   1.647   3.249   4.711 -0.9492  1.2590 -1.4386
  682MOL0     C93984   1.661   3.367   4.654 -0.4044 -1.6295  0.5264
  682MOL0     C93985   1.595   3.480   4.706 -0.8958 -0.5985 -0.8639
  682MOL0     O93986   1.603   3.607   4.647 -0.3244  0.1553  0.6240
  682MOL0     C93987   1.718   3.691   4.663 -0.6996 -0.6000 -0.3205
  682MOL0     C93988   1.761   3.761   4.535 -0.6241 -0.3265 -1.0942
  682MOL0     C93989   1.680   3.892   4.514  0.7080 -0.3909 -0.3480
  682MOL0     C93990   1.713   3.943   4.378 -0.2119 -0.0873  0.7491
  682MOL0     C93991   1.631   4.071   4.352  0.7452  1.3752  0.4482
  682MOL0     C93992   1.694   4.149   4.235  0.5511  0.6761  0.5547
  682MOL0     C93993   1.605   4.266   4.204  0.4475 -0.4086 -0.1001
  682MOL0     C93994   1.657   4.360   4.094  0.5818 -0.5294 -0.0070
  682MOL0     N93995   1.547   4.423   4.014 -0.2515 -0.8980 -1.0760
  682MOL0     C93996   1.513   4.395   3.891 -1.0296  0.0638 -0.2835
  682MOL0     C93997   1.400   4.466   3.878  0.0589 -0.0706  0.9011
  682MOL0     C93998   1.302   4.438   3.761  0.6575 -0.3448 -0.2971
  682MOL0     C93999   1.246   4.586   3.706  0.3793  0.3623 -0.2200
  682MOL0     C94000   1.100   4.586   3.702  0.6661  0.1901  0.8251
  682MOL0     C94001   1.037   4.531   3.568 -0.1736 -1.2401  0.6799
  682MOL0     O94002   1.072   4.392   3.571 -0.7500  0.1196  0.0411
  682MOL0     C94003   1.016   4.335   3.460 -0.1152 -0.5089  0.6347
  682MOL0     C94004   0.881   4.320   3.448  0.5231 -0.2392  0.0619
  682MOL0     C94005   0.822   4.276   3.325 -0.2609  0.4703 -0.3849
  682MOL0     C94006   0.667   4.255   3.320 -0.4091 -0.3036  0.3229
  682MOL0     C94007   0.907   4.239   3.219  1.0245  0.4196 -0.1480
  682MOL0     C94008   0.856   4.163   3.106 -0.4892  0.1841 -0.0649
  682MOL0     O94009   0.911   4.038   3.086  0.7153 -0.1639 -0.0669
  682MOL0     C94010   0.876   3.966   2.969 -0.7290 -0.3516 -0.4913
  682MOL0     C94011   0.859   4.014   2.837  0.4974 -0.6241  0.4499
  682MOL0     C94012   0.807   3.932   2.734 -1.0303 -0.7851 -0.7589
  682MOL0     C94013   0.763   3.803   2.768  0.0338 -0.1386 -0.5814
  682MOL0     O94014   0.709   3.703   2.678  0.6070 -0.2647  0.0373
  682MOL0     C94015   0.695   3.744   2.539 -0.1760  0.9468  0.3996
  682MOL0     C94016   0.559   3.800   2.486  0.0521  0.1347 -0.7331
  682MOL0     C94017   0.528   3.783   2.339  0.5698  0.1107  0.3560
  682MOL0     C94018   0.376   3.788   2.307 -0.3506  0.3760 -0.1836
  682MOL0     C94019   0.345   3.762   2.163 -0.8705 -0.1459  0.1458
  682MOL0     C94020   0.224   3.841   2.106 -0.2185 -0.0181 -0.4046
  682MOL0     C94021   0.200   3.773   1.967 -0.1489 -0.2144 -0.2525
  682MOL0     C94022   0.090   3.858   1.895 -0.1103  0.4046 -0.1033
  682MOL0    Cl94023  -0.074   3.866   1.972 -0.5484 -0.1358 -0.1721
  682MOL0     C94024   0.772   3.749   2.901  0.4569 -0.2635 -0.2502
  682MOL0     C94025   0.825   3.836   2.997  0.7488 -0.0127 -0.1289
  682MOL0     O94026   0.780   4.228   3.029  0.0785  0.3874 -0.2623
  682MOL0     C94027   1.045   4.280   3.226  0.0048 -0.0957  0.2920
  682MOL0     C94028   1.099   4.311   3.354 -0.4337 -0.3008  0.5280
  682MOL0     N94029   1.370   4.533   3.990  0.4137 -0.5900 -0.8194
  682MOL0     N94030   1.448   4.498   4.079 -0.1469  0.4682 -0.2115
  682MOL0     C94031   1.513   3.466   4.815 -0.0911 -0.2292 -0.0598
  682MOL0     C94032   1.508   3.347   4.877  0.3804  0.0542 -0.1467
  682MOL0     C94033   1.496   2.932   5.021 -0.1929  0.6853 -0.0338
  682MOL0     C94034   1.384   2.863   5.078  1.2916  0.1456 -0.2628
  682MOL0     C94035   1.393   2.737   5.134 -0.0852  0.2179  0.5083
  682MOL0     C94036   1.507   2.659   5.125  0.1277  0.5481 -0.9839
  682MOL0     O94037   1.536   2.531   5.173  0.1821  0.2350 -0.0539
  682MOL0     C94038   1.454   2.468   5.271  0.2380  0.8631  0.1019
  682MOL0     C94039   1.541   2.372   5.347 -0.3021 -0.7520 -0.1784
  682MOL0     C94040   1.658   2.445   5.412 -0.1883 -0.3597 -0.8927
  682MOL0     C94041   1.718   2.347   5.517  0.8005 -0.0861 -0.8813
  682MOL0     C94042   1.858   2.319   5.490 -0.1309  0.3642  1.0278
  682MOL0     C94043   1.978   2.294   5.463  0.5893 -0.0758 -0.2565
  682MOL0     C94044   1.608   2.719   5.059  0.4455 -0.4170 -0.8995
  682MOL0     C94045   1.607   2.850   5.018 -0.8278  0.5589 -0.3077
  682MOL0     C94046   1.743   2.910   4.978  0.8268 -0.0171  0.1498
  682MOL0     H94047   1.699   3.163   4.670 -0.4194  0.2267  1.2074
  682MOL0     H94048   1.725   3.388   4.569 -0.5599  1.1067  0.9766
  682MOL0     H94049   1.804   3.631   4.695 -2.4355 -1.8988  2.2535
  682MOL0     H94050   1.703   3.772   4.735  0.8115  3.5446 -4.1653
  682MOL0     H94051   1.867   3.789   4.545 -0.9904  0.4891  1.0774
  682MOL0     H94052   1.751   3.684   4.458 -0.8562 -3.1250  1.5191
  682MOL0     H94053   1.572   3.878   4.518  0.5735  0.8072  1.0025
  682MOL0     H94054   1.715   3.969   4.584 -0.4433 -0.5183  0.3911
  682MOL0     H94055   1.819   3.967   4.365 -0.7318  3.5549  1.9612
  682MOL0     H94056   1.692   3.872   4.298  0.6269  0.4282  0.0548
  682MOL0     H94057   1.640   4.141   4.436 -3.2916  1.1682  1.2406
  682MOL0     H94058   1.525   4.045   4.348  0.9641  0.3389  1.0716
  682MOL0     H94059   1.786   4.196   4.271  1.1458  0.2046 -0.3248
  682MOL0     H94060   1.710   4.081   4.151 -1.3964 -0.7906  1.2799
  682MOL0     H94061   1.584   4.333   4.288 -2.7950 -2.5761  1.0391
  682MOL0     H94062   1.506   4.228   4.176 -0.4569  0.1925  2.0522
  682MOL0     H94063   1.729   4.429   4.139 -0.0535  1.3224 -1.6805
  682MOL0     H94064   1.705   4.294   4.021 -2.3203 -2.6610 -0.1839
  682MOL0     H94065   1.543   4.311   3.830 -2.5476  0.0704 -1.0984
  682MOL0     H94066   1.215   4.374   3.784 -0.8468 -0.8915 -6.0341
  682MOL0     H94067   1.352   4.380   3.684  0.7232 -1.1679  0.3518
  682MOL0     H94068   1.288   4.662   3.773 -0.0682  1.0676 -0.7289
  682MOL0     H94069   1.293   4.617   3.612  1.7260 -0.0342  0.2852
  682MOL0     H94070   1.059   4.529   3.786 -1.8710 -1.5212 -1.4151
  682MOL0     H94071   1.067   4.690   3.711 -0.5155  0.2111 -2.3260
  682MOL0     H94072   0.929   4.547   3.574  0.1666  2.0353  0.0961
  682MOL0     H94073   1.082   4.570   3.477 -0.0096 -1.6682  0.5754
  682MOL0     H94074   0.829   4.347   3.540  0.8275  0.8844 -0.0725
  682MOL0     H94075   0.645   4.175   3.249 -0.5663 -0.0487  0.0849
  682MOL0     H94076   0.624   4.353   3.298  1.3534  1.0647  2.5274
  682MOL0     H94077   0.616   4.220   3.411 -0.2059  1.2218  1.0718
  682MOL0     H94078   0.894   4.111   2.805 -1.5289  0.0119 -0.0087
  682MOL0     H94079   0.794   3.973   2.635  1.8715  0.1721 -0.8333
  682MOL0     H94080   0.781   3.803   2.507 -0.4194 -0.3634 -3.0613
  682MOL0     H94081   0.705   3.650   2.483 -0.2365  0.8266  0.5876
  682MOL0     H94082   0.474   3.766   2.545  1.2914 -2.3943 -0.2806
  682MOL0     H94083   0.568   3.909   2.496  2.3296 -0.1634  1.8288
  682MOL0     H94084   0.577   3.698   2.291 -0.0377 -1.1058  1.8006
  682MOL0     H94085   0.576   3.871   2.295 -1.5146  0.5381 -1.2637
  682MOL0     H94086   0.358   3.892   2.334  1.0067  0.0289  2.3971
  682MOL0     H94087   0.310   3.726   2.367 -1.5381  0.7715 -1.0438
  682MOL0     H94088   0.426   3.807   2.103  0.8979 -0.6099  2.0674
  682MOL0     H94089   0.336   3.654   2.154  1.7757 -0.7551  3.0157
  682MOL0     H94090   0.235   3.950   2.106 -3.8307  0.4774  0.2150
  682MOL0     H94091   0.132   3.825   2.163 -1.6297  1.7232 -2.0676
  682MOL0     H94092   0.157   3.674   1.984 -3.0652  0.6885 -1.5974
  682MOL0     H94093   0.286   3.769   1.900  0.3293  1.7422  0.1605
  682MOL0     H94094   0.068   3.821   1.794  0.4322  2.1936 -0.9389
  682MOL0     H94095   0.127   3.961   1.886  0.6276  0.2040  0.5196
  682MOL0     H94096   0.728   3.655   2.932  1.6487 -0.3441  1.3183
  682MOL0     H94097   0.823   3.805   3.102 -1.1302  1.1529  0.2344
  682MOL0     H94098   1.108   4.254   3.141 -2.6374  1.7732 -2.4524
  682MOL0     H94099   1.207   4.302   3.359 -0.3066 -2.1430 -2.5020
  682MOL0     H94100   1.450   3.551   4.838  0.4340  0.3865 -0.8518
  682MOL0     H94101   1.446   3.334   4.965  1.4096 -2.1760  0.3147
  682MOL0     H94102   1.287   2.912   5.080  0.9491 -0.4087 -1.8245
  682MOL0     H94103   1.314   2.685   5.187 -0.5623  0.3729 -0.0465
  682MOL0     H94104   1.414   2.542   5.341  2.7902  0.6934  1.8670
  682MOL0     H94105   1.370   2.417   5.222 -0.4254  1.6558  0.3825
  682MOL0     H94106   1.576   2.289   5.285 -0.2300 -0.9557  0.1323
  682MOL0     H94107   1.482   2.322   5.424  0.2488  0.0168  0.7665
  682MOL0     H94108   1.726   2.464   5.328 -0.1875 -2.3901 -1.4096
  682MOL0     H94109   1.632   2.541   5.457 -1.2940  0.2108 -2.6342
  682MOL0     H94110   1.668   2.250   5.527 -0.7756  0.7356 -0.5026
  682MOL0     H94111   1.702   2.402   5.610 -0.1540 -1.7859  0.0133
  682MOL0     H94112   2.080   2.260   5.452  0.2314 -0.9325 -1.0851
  682MOL0     H94113   1.699   2.662   5.074  1.5946  1.4961 -0.2715
  682MOL0     H94114   1.826   2.845   5.008 -0.0743 -1.9861 -1.3869
  682MOL0     H94115   1.759   2.921   4.870  0.8048  0.1230  0.1609
  682MOL0     H94116   1.758   3.010   5.018 -1.6846  1.3432 -2.0243
  683MOL0     O94117   7.669   6.142   4.709 -0.2525  0.1508 -0.3073
  683MOL0     C94118   7.642   6.195   4.600  0.2433  0.4919 -0.2917
  683MOL0     O94119   7.713   6.271   4.518 -0.2808 -0.4384 -0.6228
  683MOL0     C94120   7.844   6.297   4.530 -0.0154 -0.4335 -0.7084
  683MOL0     C94121   7.939   6.211   4.592 -0.6171 -0.4220  0.2542
  683MOL0     C94122   8.076   6.222   4.568  0.3393 -0.1732  0.7186
  683MOL0     C94123   8.126   6.337   4.495 -0.0767  0.5522  0.2928
  683MOL0     O94124   8.258   6.350   4.492 -0.1982 -0.1587 -0.3946
  683MOL0     C94125   8.319   6.471   4.436  0.5840  1.2788  0.1632
  683MOL0     C94126   8.468   6.439   4.411  0.9366 -0.6675  0.2531
  683MOL0     C94127   8.494   6.305   4.347  0.1212  1.0539 -0.6525
  683MOL0     C94128   8.628   6.296   4.267  0.1859  0.4805  0.7202
  683MOL0     C94129   8.615   6.190   4.156 -0.1035 -0.1046 -0.6323
  683MOL0     C94130   8.730   6.194   4.061  0.4834 -0.1307 -0.1679
  683MOL0     C94131   8.710   6.088   3.951  0.0759  0.2400  0.6547
  683MOL0     C94132   8.714   5.942   4.009  0.2622  0.0365 -0.0786
  683MOL0     N94133   8.700   5.850   3.904 -0.0818 -0.0267  0.1091
  683MOL0     C94134   8.593   5.833   3.837  1.5367 -0.8520  0.0379
  683MOL0     C94135   8.617   5.749   3.730 -0.3986  0.4280 -0.2227
  683MOL0     C94136   8.518   5.695   3.631  1.0752  0.8329  0.1441
  683MOL0     C94137   8.471   5.551   3.665 -0.4233 -0.4220 -0.0677
  683MOL0     C94138   8.453   5.452   3.548 -0.3521 -0.3316  0.6281
  683MOL0     C94139   8.587   5.392   3.500 -0.6063 -0.3000  0.1781
  683MOL0     O94140   8.643   5.298   3.600  0.4133 -0.6118 -1.4102
  683MOL0     C94141   8.564   5.182   3.621 -0.3291 -0.2709 -1.4625
  683MOL0     C94142   8.542   5.088   3.521  0.0850 -0.2143 -0.8462
  683MOL0     C94143   8.475   4.970   3.541  0.3594 -0.3388 -0.2363
  683MOL0     C94144   8.453   4.876   3.423 -0.2104  0.4693 -0.0105
  683MOL0     C94145   8.430   4.937   3.671 -0.2029  0.5275 -0.9208
  683MOL0     C94146   8.363   4.815   3.703 -1.1005  0.5850 -0.8495
  683MOL0     O94147   8.256   4.830   3.785 -0.3582  0.0428 -0.2324
  683MOL0     C94148   8.228   4.712   3.852  0.1673 -0.3575  0.2537
  683MOL0     C94149   8.178   4.588   3.797 -0.2493 -0.4744 -0.6633
  683MOL0     C94150   8.167   4.476   3.889 -0.4974 -0.0481 -0.5404
  683MOL0     C94151   8.192   4.488   4.026  0.0210 -0.9636 -0.9235
  683MOL0     O94152   8.164   4.384   4.108  0.5288  0.2523 -0.1057
  683MOL0     C94153   8.259   4.361   4.212 -1.3703 -0.8679  0.3497
  683MOL0     C94154   8.257   4.211   4.232 -0.4818  0.1914  0.7386
  683MOL0     C94155   8.122   4.151   4.286 -0.0497 -0.0134  0.0702
  683MOL0     C94156   8.096   4.220   4.415  0.4483 -0.1052  0.2219
  683MOL0     C94157   8.008   4.148   4.519  1.2046 -0.0214 -1.0474
  683MOL0     C94158   7.855   4.133   4.472 -0.6851  0.3777  0.3292
  683MOL0     C94159   7.796   4.245   4.375  0.0168  0.6074 -0.1976
  683MOL0     C94160   7.645   4.244   4.376  0.6442 -0.0777 -1.4072
  683MOL0    Cl94161   7.573   4.337   4.245  0.5547 -0.1517  0.2676
  683MOL0     C94162   8.224   4.612   4.078  0.8460  0.8789 -0.3856
  683MOL0     C94163   8.244   4.718   3.993  0.2660 -0.0676  0.2637
  683MOL0     O94164   8.431   4.710   3.696  0.2883 -0.2475  0.0610
  683MOL0     C94165   8.454   5.031   3.774 -0.7788  0.1634 -0.6138
  683MOL0     C94166   8.522   5.149   3.751 -0.1337  0.2082 -1.2025
  683MOL0     N94167   8.751   5.708   3.753  0.0572 -0.5570  0.3993
  683MOL0     N94168   8.801   5.774   3.850  0.3042  0.0487  0.3405
  683MOL0     C94169   8.030   6.433   4.450  0.3360 -0.6604 -0.0174
  683MOL0     C94170   7.892   6.409   4.458  0.2877 -0.0743 -0.1137
  683MOL0     C94171   7.499   6.190   4.550 -1.0524 -0.1439  0.4668
  683MOL0     C94172   7.425   6.078   4.586 -0.3630 -0.5473  0.2521
  683MOL0     C94173   7.292   6.049   4.543  0.6730 -0.3965 -0.1889
  683MOL0     C94174   7.241   6.149   4.462  0.7085  0.3194  0.1919
  683MOL0     O94175   7.111   6.136   4.417 -0.1032  0.5559  0.4823
  683MOL0     C94176   7.100   6.056   4.293  1.0866 -0.3985  1.1051
  683MOL0     C94177   7.015   5.923   4.291  0.4444  0.1008  1.2254
  683MOL0     C94178   6.874   5.954   4.322 -0.4454  0.1910  0.3483
  683MOL0     C94179   6.814   5.850   4.405 -0.1507 -1.0058 -0.6832
  683MOL0     C94180   6.677   5.899   4.435 -0.4057 -0.2854 -0.2974
  683MOL0     C94181   6.562   5.926   4.452  0.7579  0.2666 -0.3205
  683MOL0     C94182   7.313   6.262   4.421  0.1741  0.0943 -0.4004
  683MOL0     C94183   7.437   6.287   4.464 -0.7311 -0.2392  0.1406
  683MOL0     C94184   7.506   6.424   4.423  0.7491  0.1290 -0.0057
  683MOL0     H94185   7.904   6.131   4.656  1.5347 -1.4221  0.2468
  683MOL0     H94186   8.144   6.143   4.597 -1.9146 -0.7710  5.3491
  683MOL0     H94187   8.322   6.558   4.503 -0.4931  0.6861  1.0171
  683MOL0     H94188   8.258   6.494   4.348 -0.0287 -3.0129 -0.7691
  683MOL0     H94189   8.499   6.530   4.358  1.7813 -1.2126 -0.2246
  683MOL0     H94190   8.523   6.444   4.505  1.7496  3.4780 -0.2280
  683MOL0     H94191   8.512   6.230   4.425  1.4115 -1.2177 -2.9938
  683MOL0     H94192   8.405   6.267   4.296 -0.1203 -2.1102  1.8042
  683MOL0     H94193   8.644   6.397   4.228  0.8605  0.9339  2.1090
  683MOL0     H94194   8.715   6.273   4.329 -0.0372 -0.6014  0.6504
  683MOL0     H94195   8.521   6.210   4.104 -1.0735  1.1887  1.4657
  683MOL0     H94196   8.604   6.090   4.199 -0.5679  0.5814  0.9203
  683MOL0     H94197   8.728   6.294   4.016  1.1903 -1.1764 -2.6781
  683MOL0     H94198   8.825   6.174   4.110  1.0751 -2.5225 -2.0971
  683MOL0     H94199   8.781   6.103   3.869  2.5394 -0.8246  2.4843
  683MOL0     H94200   8.611   6.111   3.911 -1.7854 -3.4533  2.6461
  683MOL0     H94201   8.808   5.924   4.063 -1.0136 -2.3154  1.5641
  683MOL0     H94202   8.635   5.929   4.084 -0.6665  0.4050 -0.9770
  683MOL0     H94203   8.500   5.884   3.863  2.3290  1.2955 -1.1180
  683MOL0     H94204   8.555   5.683   3.528  3.2062 -0.5207  0.9892
  683MOL0     H94205   8.427   5.756   3.638 -0.2311 -0.3900 -3.5405
  683MOL0     H94206   8.532   5.499   3.739  3.8409  1.5191 -1.9148
  683MOL0     H94207   8.371   5.564   3.708  0.3383  1.3233  1.2666
  683MOL0     H94208   8.379   5.384   3.591 -2.8016  2.7611  1.7195
  683MOL0     H94209   8.403   5.501   3.464 -3.5854 -1.8831  1.5179
  683MOL0     H94210   8.558   5.336   3.411 -2.0898 -0.3041  0.6470
  683MOL0     H94211   8.662   5.469   3.481  0.7589 -1.2129  1.6275
  683MOL0     H94212   8.583   5.102   3.422  0.7602  0.7244 -0.4479
  683MOL0     H94213   8.459   4.772   3.456  0.1891  0.4274 -0.2141
  683MOL0     H94214   8.536   4.888   3.353 -1.9626 -0.3822 -2.3814
  683MOL0     H94215   8.363   4.914   3.374  2.2573  2.3171 -3.5960
  683MOL0     H94216   8.179   4.588   3.689  0.2520 -0.6400 -0.6629
  683MOL0     H94217   8.164   4.372   3.857  0.7020 -0.7892  1.5955
  683MOL0     H94218   8.361   4.390   4.186 -1.8947  0.9573  0.2030
  683MOL0     H94219   8.217   4.420   4.293 -3.6063  0.8230 -1.8721
  683MOL0     H94220   8.275   4.171   4.132  0.9653  2.4169  0.0207
  683MOL0     H94221   8.337   4.177   4.298  0.2750 -0.1020 -0.3025
  683MOL0     H94222   8.132   4.042   4.289  0.6427  0.0651  0.9547
  683MOL0     H94223   8.038   4.163   4.216 -0.6670  1.5970  1.0379
  683MOL0     H94224   8.073   4.324   4.392 -0.5640  0.2624  2.5924
  683MOL0     H94225   8.189   4.230   4.472  1.8248  2.9572 -2.2596
  683MOL0     H94226   8.046   4.047   4.531  0.9337  0.1518  2.0071
  683MOL0     H94227   8.011   4.211   4.609 -0.4516 -1.4377  0.0768
  683MOL0     H94228   7.793   4.136   4.562  0.9200 -0.1934  1.5183
  683MOL0     H94229   7.843   4.034   4.428 -2.2805  1.1129 -1.0000
  683MOL0     H94230   7.826   4.242   4.270  0.0799  1.7396 -0.2218
  683MOL0     H94231   7.817   4.347   4.407  0.8433 -0.3912  2.8111
  683MOL0     H94232   7.610   4.285   4.471  1.8746 -0.8072 -0.6112
  683MOL0     H94233   7.621   4.139   4.357  1.0026 -0.3393 -0.4466
  683MOL0     H94234   8.255   4.630   4.181  0.7134 -0.5403 -0.0867
  683MOL0     H94235   8.257   4.816   4.037  0.2830 -0.2132  0.5843
  683MOL0     H94236   8.427   4.992   3.871  0.0214 -0.9013 -0.7950
  683MOL0     H94237   8.551   5.210   3.836 -1.5155 -0.1717 -0.4375
  683MOL0     H94238   8.059   6.531   4.413  1.4233  0.4460  3.4193
  683MOL0     H94239   7.826   6.470   4.397  3.2728  2.0532 -1.4783
  683MOL0     H94240   7.477   6.000   4.641 -0.2786 -0.2323  0.6236
  683MOL0     H94241   7.243   5.957   4.574 -0.7322  0.1346 -0.7730
  683MOL0     H94242   7.067   6.129   4.219  0.9666  0.9533  2.4557
  683MOL0     H94243   7.200   6.025   4.262  0.1764 -0.8521 -1.6157
  683MOL0     H94244   7.060   5.844   4.351  2.9400 -1.3121 -2.1575
  683MOL0     H94245   7.017   5.892   4.186  0.2358 -0.2371  1.3219
  683MOL0     H94246   6.863   6.041   4.388 -0.4702 -1.5335  2.7754
  683MOL0     H94247   6.813   5.972   4.233  1.5407  0.3525 -1.0306
  683MOL0     H94248   6.873   5.853   4.497  0.6680  2.3043 -1.1860
  683MOL0     H94249   6.816   5.756   4.349  0.9218 -1.2207 -0.3021
  683MOL0     H94250   6.458   5.952   4.460  0.2735 -0.9179 -2.0398
  683MOL0     H94251   7.259   6.331   4.356  2.9010  1.8353 -1.0253
  683MOL0     H94252   7.579   6.465   4.493  0.9904 -0.2353 -0.0415
  683MOL0     H94253   7.556   6.395   4.330  0.1244 -0.7593 -0.0801
  683MOL0     H94254   7.426   6.498   4.418 -1.0595 -1.7150 -0.0261
  684MOL0     O94255   9.519   1.094   9.023 -0.0492 -0.5907  0.2820
  684MOL0     C94256   9.487   1.049   9.135  0.6586 -0.2495  0.3724
  684MOL0     O94257   9.497   0.926   9.178  0.7470  1.7753 -0.0294
  684MOL0     C94258   9.542   0.826   9.097 -1.2007 -0.4882 -0.2681
  684MOL0     C94259   9.670   0.755   9.141  0.1736  0.3737 -0.0352
  684MOL0     C94260   9.722   0.659   9.057 -0.3743 -0.6132  0.9267
  684MOL0     C94261   9.654   0.629   8.941 -0.1719  0.9165 -0.3352
  684MOL0     O94262   9.693   0.539   8.850  0.3854 -0.3421  0.2674
  684MOL0     C94263   9.819   0.474   8.854 -0.2775 -0.5670  0.6513
  684MOL0     C94264   9.845   0.435   8.710 -0.6095  0.3096 -0.4058
  684MOL0     C94265   9.853   0.547   8.604  0.8427  0.4185 -0.1283
  684MOL0     C94266   9.792   0.487   8.472 -0.7240 -0.7489 -0.4639
  684MOL0     C94267   9.795   0.583   8.343 -0.8483  0.2776 -0.4240
  684MOL0     C94268   9.937   0.601   8.287  0.3241 -0.2064 -0.4164
  684MOL0     C94269   9.933   0.711   8.177 -0.1327  0.5047 -1.1885
  684MOL0     C94270  10.062   0.782   8.174  0.0761 -0.5230 -0.2730
  684MOL0     N94271  10.179   0.689   8.149 -0.0214  0.4168  0.4015
  684MOL0     C94272  10.291   0.687   8.227  0.1485  0.4154  0.6399
  684MOL0     C94273  10.361   0.577   8.186  0.3612  0.3544  0.2488
  684MOL0     C94274  10.493   0.517   8.227  0.2002  1.1367 -0.2789
  684MOL0     C94275  10.489   0.417   8.346 -0.3747  0.6054  0.1787
  684MOL0     C94276  10.622   0.361   8.375  0.1742  0.0903 -0.7427
  684MOL0     C94277  10.664   0.245   8.280  0.3391  0.2774  0.1803
  684MOL0     O94278  10.753   0.146   8.332  0.4836  0.7295  0.1016
  684MOL0     C94279  10.874   0.132   8.270  0.0638 -0.7884 -0.3834
  684MOL0     C94280  10.890   0.131   8.131  0.8998  0.6122 -0.4003
  684MOL0     C94281  11.011   0.109   8.071 -0.3172  0.3667 -1.1085
  684MOL0     C94282  11.007   0.103   7.921 -0.6420 -0.3562  0.2859
  684MOL0     C94283  11.126   0.082   8.148  0.2456  0.3318  0.5170
  684MOL0     C94284  11.259   0.034   8.092 -0.3091  0.2263  1.2958
  684MOL0     O94285  11.285   0.024   7.952  0.1716 -0.3786 -0.9013
  684MOL0     C94286  11.407  -0.019   7.899 -0.0090  0.0235 -0.8348
  684MOL0     C94287  11.493   0.057   7.821  0.2953  0.6307  1.5062
  684MOL0     C94288  11.608   0.002   7.752  0.4395  0.5542  0.5443
  684MOL0     C94289  11.631  -0.139   7.766 -0.7269 -0.0141  1.1018
  684MOL0     O94290  11.738  -0.194   7.704 -0.2630  1.2134 -0.1134
  684MOL0     C94291  11.724  -0.329   7.645 -0.1916 -0.6352  0.3840
  684MOL0     C94292  11.648  -0.323   7.514  0.0686  0.3596  0.0161
  684MOL0     C94293  11.500  -0.356   7.522  1.7701 -0.8868 -0.2563
  684MOL0     C94294  11.477  -0.493   7.595  0.5230  0.6921 -0.5695
  684MOL0     C94295  11.554  -0.617   7.537  0.1972 -0.7627  0.5520
  684MOL0     C94296  11.480  -0.686   7.416 -0.0435 -0.8884  0.0205
  684MOL0     C94297  11.568  -0.775   7.339 -0.1177 -0.0853 -0.9535
  684MOL0     C94298  11.487  -0.826   7.219 -0.1257 -0.0973  0.4202
  684MOL0    Cl94299  11.615  -0.889   7.102  0.1549  0.0107 -0.1251
  684MOL0     C94300  11.555  -0.212   7.859 -0.3333 -0.4024  0.1105
  684MOL0     C94301  11.446  -0.155   7.920 -0.4574  0.0439 -0.7687
  684MOL0     O94302  11.334  -0.016   8.175  0.1527  0.0666  0.3021
  684MOL0     C94303  11.106   0.085   8.288 -0.3813 -0.5010 -0.4994
  684MOL0     C94304  10.989   0.114   8.344  0.6457  0.5026  0.5064
  684MOL0     N94305  10.289   0.527   8.077  0.6714  0.4137  0.0305
  684MOL0     N94306  10.186   0.594   8.049  0.0090  0.2881  0.5721
  684MOL0     C94307   9.545   0.700   8.898  0.3525 -1.0033 -0.0491
  684MOL0     C94308   9.487   0.800   8.976  0.7390 -0.2726 -0.3196
  684MOL0     C94309   9.420   1.148   9.226  0.6964  0.2423 -0.6029
  684MOL0     C94310   9.370   1.275   9.179 -0.2970 -0.4133  0.3156
  684MOL0     C94311   9.323   1.374   9.267 -0.0159  0.6340 -0.4342
  684MOL0     C94312   9.325   1.360   9.402  0.3729 -0.3534 -0.2983
  684MOL0     O94313   9.278   1.451   9.493 -0.2617  0.0132  0.9450
  684MOL0     C94314   9.245   1.584   9.456 -0.0548  0.4141  0.3010
  684MOL0     C94315   9.107   1.587   9.384  0.3021 -0.9905  0.3470
  684MOL0     C94316   9.042   1.716   9.405  0.7148 -0.7431  0.1751
  684MOL0     C94317   8.902   1.720   9.333  0.7204  0.1403 -0.9477
  684MOL0     C94318   8.824   1.834   9.372 -0.3430  0.3660  0.2508
  684MOL0     C94319   8.749   1.928   9.375  0.3563  0.7151  0.5109
  684MOL0     C94320   9.357   1.234   9.453 -0.6643  0.6389  0.4961
  684MOL0     C94321   9.414   1.136   9.365  0.3044 -0.8802 -0.1513
  684MOL0     C94322   9.475   1.015   9.440  0.7483 -0.5621  0.2216
  684MOL0     H94323   9.713   0.794   9.233 -0.0139  2.6266 -0.8442
  684MOL0     H94324   9.812   0.605   9.088 -0.4186 -2.3172 -1.6496
  684MOL0     H94325   9.822   0.383   8.914  2.1247 -2.8576 -2.6118
  684MOL0     H94326   9.905   0.537   8.881  1.5658 -1.6943 -2.1094
  684MOL0     H94327   9.941   0.386   8.693  0.6653  2.0626  1.2510
  684MOL0     H94328   9.767   0.361   8.693 -1.1003  1.1263 -1.9509
  684MOL0     H94329   9.802   0.638   8.635 -0.1309 -0.3549  0.6300
  684MOL0     H94330   9.960   0.567   8.587  0.5476  0.5352 -2.0925
  684MOL0     H94331   9.865   0.409   8.451  1.6161  0.2130  3.1778
  684MOL0     H94332   9.692   0.445   8.481  0.5408 -3.8539  0.3299
  684MOL0     H94333   9.757   0.683   8.368  1.8447  1.4627 -0.7409
  684MOL0     H94334   9.739   0.536   8.261  0.5497 -0.9202 -0.7208
  684MOL0     H94335  10.002   0.622   8.372 -1.2397  2.0980  0.3134
  684MOL0     H94336   9.973   0.508   8.242  0.0498  0.2982 -1.7273
  684MOL0     H94337   9.852   0.783   8.194 -0.8886 -0.1681 -1.8307
  684MOL0     H94338   9.903   0.672   8.079 -1.7346  2.7436 -1.6738
  684MOL0     H94339  10.055   0.849   8.088 -2.3631 -1.6184 -1.0120
  684MOL0     H94340  10.085   0.843   8.262 -3.0557  2.3067 -1.1905
  684MOL0     H94341  10.302   0.755   8.310 -0.8784  1.0568  0.2705
  684MOL0     H94342  10.561   0.598   8.255 -0.2435  1.5563 -0.4088
  684MOL0     H94343  10.535   0.464   8.141  3.1268 -5.3790  4.2937
  684MOL0     H94344  10.467   0.481   8.432  4.0378  1.3211  1.0292
  684MOL0     H94345  10.425   0.332   8.321  1.4392 -0.2202 -2.0298
  684MOL0     H94346  10.710   0.424   8.363  2.5083 -3.0759 -1.7622
  684MOL0     H94347  10.615   0.312   8.473  0.5075 -0.7310 -1.1199
  684MOL0     H94348  10.577   0.187   8.250  0.1682 -0.3170  1.6993
  684MOL0     H94349  10.704   0.289   8.189  3.0902 -2.4474 -0.0857
  684MOL0     H94350  10.802   0.139   8.068 -0.7520  1.5345  1.8724
  684MOL0     H94351  11.063   0.183   7.873  0.6893 -1.1353  0.4702
  684MOL0     H94352  10.909   0.114   7.873 -0.9753 -4.5227 -0.3931
  684MOL0     H94353  11.029  -0.000   7.891 -2.2669 -0.7972  0.5331
  684MOL0     H94354  11.469   0.162   7.811  1.0616  0.7321  0.5654
  684MOL0     H94355  11.673   0.068   7.696  0.7312 -1.5401 -1.7297
  684MOL0     H94356  11.829  -0.360   7.637 -0.2405 -0.4597 -1.5781
  684MOL0     H94357  11.669  -0.395   7.713 -0.3164 -0.1562  0.7540
  684MOL0     H94358  11.665  -0.224   7.471  2.0711 -0.1716 -0.5431
  684MOL0     H94359  11.695  -0.384   7.436  0.1127  1.9487 -1.2518
  684MOL0     H94360  11.454  -0.367   7.424 -3.3859 -5.0938  2.1045
  684MOL0     H94361  11.446  -0.277   7.575  2.2662 -2.8004  3.4426
  684MOL0     H94362  11.370  -0.515   7.588  0.4612  1.2721 -1.6938
  684MOL0     H94363  11.485  -0.483   7.704 -0.7598  5.0757 -0.6664
  684MOL0     H94364  11.652  -0.581   7.505  0.7228 -1.3111  1.4832
  684MOL0     H94365  11.570  -0.695   7.613  1.5142  0.5568  1.6953
  684MOL0     H94366  11.442  -0.614   7.343  0.6728 -3.5262 -3.2034
  684MOL0     H94367  11.406  -0.754   7.457  0.2254 -1.5293 -0.5448
  684MOL0     H94368  11.585  -0.859   7.407 -0.5441  1.3001  0.9669
  684MOL0     H94369  11.652  -0.718   7.297 -2.9595  2.9809 -2.9582
  684MOL0     H94370  11.437  -0.740   7.175 -0.5720 -1.4140 -1.8052
  684MOL0     H94371  11.420  -0.905   7.257  1.4320 -1.4595  0.4669
  684MOL0     H94372  11.550  -0.320   7.864 -2.4938 -0.2803  2.9475
  684MOL0     H94373  11.381  -0.218   7.980 -1.7393  1.6528 -0.3834
  684MOL0     H94374  11.188   0.062   8.356 -1.0241  0.7982  0.7631
  684MOL0     H94375  10.982   0.112   8.452 -2.1020  0.2358  0.3985
  684MOL0     H94376   9.503   0.678   8.800  1.7885  1.2168 -1.2528
  684MOL0     H94377   9.390   0.838   8.945  0.1181 -0.0911  1.7359
  684MOL0     H94378   9.387   1.316   9.080  0.7168  0.1098  0.6934
  684MOL0     H94379   9.297   1.472   9.226 -1.8957  1.1935  1.9140
  684MOL0     H94380   9.244   1.637   9.552 -1.2037  0.3047  0.3600
  684MOL0     H94381   9.329   1.627   9.399  0.5191 -0.4467  0.4769
  684MOL0     H94382   9.037   1.508   9.415 -2.2765  1.2821  0.7526
  684MOL0     H94383   9.121   1.582   9.276  0.1381  2.1562  0.0936
  684MOL0     H94384   9.021   1.746   9.509 -0.6890  0.6779 -0.4690
  684MOL0     H94385   9.102   1.800   9.369  0.1092 -1.0761 -1.7000
  684MOL0     H94386   8.840   1.631   9.348 -0.7939  1.1341 -1.0957
  684MOL0     H94387   8.920   1.732   9.225 -0.0925  0.3649 -1.0584
  684MOL0     H94388   8.689   2.016   9.369 -0.0505  0.4016 -0.1809
  684MOL0     H94389   9.356   1.230   9.562  0.2543 -3.2050  0.5071
  684MOL0     H94390   9.579   1.013   9.405  0.1950  1.1532 -1.7397
  684MOL0     H94391   9.483   1.038   9.547 -0.5169  0.0574  0.2025
  684MOL0     H94392   9.421   0.927   9.405 -0.8224  0.5337 -0.2086
  685MOL0     O94393   0.610   4.700  11.155 -0.2167  0.0638 -0.6031
  685MOL0     C94394   0.708   4.692  11.216  0.4278  0.0225  0.2226
  685MOL0     O94395   0.733   4.765  11.330  1.1452 -0.2943 -0.1607
  685MOL0     C94396   0.629   4.797  11.412 -0.8871  0.6476 -0.3638
  685MOL0     C94397   0.565   4.920  11.383  0.3419  1.0586 -0.0765
  685MOL0     C94398   0.457   4.970  11.450  1.0049 -0.3092 -0.0668
  685MOL0     C94399   0.415   4.903  11.568  0.8862 -0.3873 -0.2313
  685MOL0     O94400   0.311   4.942  11.650 -0.2114 -0.4945  0.1192
  685MOL0     C94401   0.257   5.071  11.627  0.0279 -0.6520 -0.2149
  685MOL0     C94402   0.154   5.104  11.733 -0.4502  0.2455 -1.1198
  685MOL0     C94403   0.036   5.007  11.723 -1.1839 -0.9778  0.6387
  685MOL0     C94404  -0.058   5.037  11.601 -0.1750 -1.2515 -0.1159
  685MOL0     C94405  -0.175   4.942  11.592 -0.2403  0.9933  0.1314
  685MOL0     C94406  -0.242   4.959  11.452  1.1346  0.4219  0.1000
  685MOL0     C94407  -0.345   4.846  11.420 -0.5050  0.5918 -0.3577
  685MOL0     C94408  -0.470   4.849  11.504  0.4238 -0.9796 -0.0861
  685MOL0     N94409  -0.536   4.978  11.504  0.3787 -0.1748 -0.1095
  685MOL0     C94410  -0.589   5.044  11.399  1.1726  0.8577 -0.6590
  685MOL0     C94411  -0.631   5.160  11.444 -0.6358 -1.2226 -1.1417
  685MOL0     C94412  -0.714   5.251  11.360  0.5101 -1.0523 -1.4569
  685MOL0     C94413  -0.828   5.315  11.457 -0.1304 -1.1567  0.9595
  685MOL0     C94414  -0.896   5.444  11.389 -1.9088  0.0575  0.4475
  685MOL0     C94415  -0.966   5.527  11.489  0.6250  0.2741 -1.2445
  685MOL0     O94416  -1.089   5.450  11.518  0.3399 -0.3224 -0.1413
  685MOL0     C94417  -1.138   5.448  11.647  0.2008  0.4887 -0.3503
  685MOL0     C94418  -1.058   5.448  11.758  0.0040 -0.1744 -0.6011
  685MOL0     C94419  -1.111   5.448  11.887  0.1342  0.1795 -0.7495
  685MOL0     C94420  -1.005   5.455  11.998 -0.3192  0.1753 -0.6370
  685MOL0     C94421  -1.252   5.440  11.907 -0.3415  0.6965  0.4771
  685MOL0     C94422  -1.320   5.443  12.033 -0.5172 -0.1148  0.2509
  685MOL0     O94423  -1.429   5.522  12.039  0.0645  0.4896  0.4873
  685MOL0     C94424  -1.497   5.525  12.160 -0.0027  0.0306  0.0939
  685MOL0     C94425  -1.452   5.561  12.292 -0.3562  0.9652  0.9551
  685MOL0     C94426  -1.535   5.571  12.400 -0.6483 -0.1181  0.6559
  685MOL0     C94427  -1.671   5.562  12.376 -0.3353 -0.2993 -0.8624
  685MOL0     O94428  -1.757   5.573  12.481 -0.5599 -0.2047 -0.1013
  685MOL0     C94429  -1.818   5.444  12.501  0.2370 -0.4870 -0.7130
  685MOL0     C94430  -1.921   5.456  12.614 -0.2949 -0.8649  0.3516
  685MOL0     C94431  -1.982   5.318  12.643  0.9669  0.2417  0.8013
  685MOL0     C94432  -2.117   5.333  12.714  0.2030 -0.0071  0.1932
  685MOL0     C94433  -2.205   5.200  12.699  0.2251  0.6478  0.7824
  685MOL0     C94434  -2.152   5.081  12.777  0.0403 -0.4409 -0.5798
  685MOL0     C94435  -2.257   4.964  12.797  0.0485  0.5904  0.1423
  685MOL0     C94436  -2.199   4.823  12.812  0.6923  0.0420  1.8359
  685MOL0    Cl94437  -2.099   4.839  12.959 -0.0232 -0.2601  0.0314
  685MOL0     C94438  -1.722   5.551  12.248  0.0403  0.6462 -0.2231
  685MOL0     C94439  -1.636   5.528  12.140  1.1778  0.4675 -0.2716
  685MOL0     O94440  -1.279   5.375  12.128  0.1364  0.0106  0.4807
  685MOL0     C94441  -1.343   5.452  11.796 -0.1653  0.8527 -0.4920
  685MOL0     C94442  -1.277   5.450  11.663  0.3527  0.0004  0.2338
  685MOL0     N94443  -0.605   5.164  11.578 -0.9970  0.2166 -0.2720
  685MOL0     N94444  -0.547   5.050  11.620  0.3431 -0.1897  0.4851
  685MOL0     C94445   0.485   4.793  11.614  0.4528 -0.2831  0.2506
  685MOL0     C94446   0.593   4.736  11.538  0.1604 -0.5790  0.8617
  685MOL0     C94447   0.828   4.620  11.160  0.0895  0.1259 -0.4809
  685MOL0     C94448   0.952   4.646  11.219 -0.2017  0.1897  0.1696
  685MOL0     C94449   1.077   4.583  11.189 -0.4777 -0.0883  0.6884
  685MOL0     C94450   1.066   4.475  11.097  0.3759 -0.5488 -0.7176
  685MOL0     O94451   1.174   4.403  11.054  0.7478 -0.1634  0.4291
  685MOL0     C94452   1.230   4.302  11.140 -0.4438 -0.0227 -0.6751
  685MOL0     C94453   1.150   4.177  11.166  0.2423 -0.1107  0.5176
  685MOL0     C94454   1.166   4.138  11.323 -0.7716  0.6463  0.2424
  685MOL0     C94455   1.285   4.040  11.331  0.4567 -0.2176 -0.0930
  685MOL0     C94456   1.320   4.004  11.473 -0.4342 -0.2292 -0.2909
  685MOL0     C94457   1.365   3.967  11.579  0.3315 -0.1278 -0.4089
  685MOL0     C94458   0.939   4.452  11.024  0.0113 -0.7074 -0.3190
  685MOL0     C94459   0.819   4.519  11.057 -0.2217 -0.7203 -0.1439
  685MOL0     C94460   0.696   4.469  10.988 -0.3600 -0.3611 -0.6943
  685MOL0     H94461   0.586   4.972  11.290  0.5945  0.3349 -0.4325
  685MOL0     H94462   0.389   5.049  11.422 -2.5989 -2.9440  0.5005
  685MOL0     H94463   0.191   5.076  11.540 -0.8101  1.6005  0.5036
  685MOL0     H94464   0.329   5.152  11.621  0.2630 -0.8684 -0.3614
  685MOL0     H94465   0.205   5.108  11.830  0.5766  2.6895 -1.6834
  685MOL0     H94466   0.121   5.206  11.712  1.8765  1.0779 -1.0266
  685MOL0     H94467   0.078   4.906  11.720 -1.0048 -0.9301 -2.7359
  685MOL0     H94468  -0.019   5.027  11.816  2.1690  1.2991  2.3164
  685MOL0     H94469  -0.084   5.144  11.600 -0.6861 -1.3669  0.1815
  685MOL0     H94470   0.004   5.024  11.512  2.8126  0.6224  1.5066
  685MOL0     H94471  -0.254   4.960  11.665  0.7893  0.2063  1.4926
  685MOL0     H94472  -0.138   4.840  11.605 -0.4869  1.0378  1.3452
  685MOL0     H94473  -0.296   5.054  11.448  0.4597  0.0511  0.1735
  685MOL0     H94474  -0.160   4.956  11.380 -0.1805 -1.6966 -1.4315
  685MOL0     H94475  -0.298   4.751  11.447  2.6612  0.0944 -6.0869
  685MOL0     H94476  -0.363   4.852  11.312  1.5363  4.2955 -0.6574
  685MOL0     H94477  -0.546   4.773  11.483 -1.0956 -0.4217  2.7726
  685MOL0     H94478  -0.421   4.831  11.600 -0.2655  3.1733  1.2624
  685MOL0     H94479  -0.599   5.000  11.300  1.2478 -1.1031  0.1576
  685MOL0     H94480  -0.770   5.201  11.280  0.1881  1.1981 -2.7146
  685MOL0     H94481  -0.647   5.327  11.318  1.3170 -0.4451  0.8014
  685MOL0     H94482  -0.909   5.243  11.471 -1.1790 -0.8948 -2.6864
  685MOL0     H94483  -0.785   5.345  11.553 -2.0069  1.1471  1.1802
  685MOL0     H94484  -0.817   5.513  11.359 -2.7121  0.5207 -0.6797
  685MOL0     H94485  -0.955   5.419  11.300  1.2065  0.3879 -1.8838
  685MOL0     H94486  -0.900   5.538  11.576  0.7024 -3.4265 -0.6543
  685MOL0     H94487  -1.005   5.622  11.453 -0.6380  0.0053 -0.6449
  685MOL0     H94488  -0.951   5.450  11.743 -0.0547 -0.3972 -1.0671
  685MOL0     H94489  -0.999   5.356  12.045  2.3060  0.9360  0.8291
  685MOL0     H94490  -1.026   5.535  12.069 -2.7167 -0.8981 -0.0082
  685MOL0     H94491  -0.908   5.481  11.956 -0.9735  3.7229 -0.2777
  685MOL0     H94492  -1.347   5.561  12.319 -0.7149  0.9229  2.4543
  685MOL0     H94493  -1.479   5.580  12.493  0.7017  0.8674 -0.2105
  685MOL0     H94494  -1.881   5.418  12.417 -2.6663  1.7483  0.5885
  685MOL0     H94495  -1.747   5.364  12.523 -0.8969 -1.9276 -2.1115
  685MOL0     H94496  -1.876   5.491  12.708 -1.1989  1.9035 -0.1570
  685MOL0     H94497  -2.002   5.520  12.579 -0.2654 -0.4881  0.9654
  685MOL0     H94498  -1.914   5.277  12.718  1.9225  3.0238  1.5742
  685MOL0     H94499  -1.987   5.255  12.553  0.1275  0.0060  1.0077
  685MOL0     H94500  -2.178   5.414  12.673  0.8542 -0.6720 -2.2507
  685MOL0     H94501  -2.094   5.371  12.814  2.7063  0.8432 -0.6249
  685MOL0     H94502  -2.301   5.210  12.750 -1.0647 -1.7924 -0.9426
  685MOL0     H94503  -2.245   5.182  12.598  0.5209 -1.2344  0.9602
  685MOL0     H94504  -2.109   5.103  12.875  1.0701  0.5234 -1.2427
  685MOL0     H94505  -2.063   5.046  12.725  2.5316  2.5454  1.3326
  685MOL0     H94506  -2.334   4.962  12.720 -0.7021 -1.2309  0.8840
  685MOL0     H94507  -2.307   4.971  12.894  3.2702 -2.5199  2.2676
  685MOL0     H94508  -2.138   4.808  12.722  1.1783  5.8026  0.7978
  685MOL0     H94509  -2.277   4.747  12.818  1.6766 -1.3509 -0.9749
  685MOL0     H94510  -1.829   5.541  12.235 -0.1475 -1.1783  2.0764
  685MOL0     H94511  -1.675   5.506  12.042 -1.9603 -1.5489  1.2461
  685MOL0     H94512  -1.452   5.456  11.793 -0.5537 -3.1308  1.3779
  685MOL0     H94513  -1.333   5.460  11.570  0.5184 -0.9401  0.0169
  685MOL0     H94514   0.453   4.745  11.706 -0.6502  1.7202  0.9787
  685MOL0     H94515   0.650   4.649  11.566 -2.9592 -3.9281 -2.1603
  685MOL0     H94516   0.961   4.726  11.292 -1.7392 -2.2320  3.2528
  685MOL0     H94517   1.174   4.596  11.237  0.1869 -1.3534 -0.2384
  685MOL0     H94518   1.319   4.271  11.085 -1.8400  0.4525 -3.3354
  685MOL0     H94519   1.258   4.352  11.234 -1.8875 -0.2880 -0.0707
  685MOL0     H94520   1.184   4.092  11.106  0.1166  0.7119 -0.7532
  685MOL0     H94521   1.045   4.188  11.136 -0.1693  1.3849  2.2898
  685MOL0     H94522   1.195   4.223  11.386  0.1720  0.7590 -0.3185
  685MOL0     H94523   1.076   4.095  11.367 -0.6973  2.1617  1.9761
  685MOL0     H94524   1.374   4.073  11.276  1.9733  0.0841  2.3652
  685MOL0     H94525   1.255   3.946  11.284 -0.0352  1.1746 -2.7724
  685MOL0     H94526   1.402   3.937  11.675  0.2866  1.2643  0.0637
  685MOL0     H94527   0.932   4.373  10.950 -3.5492  0.5514 -1.5163
  685MOL0     H94528   0.735   4.416  10.900  0.7844 -2.8222  1.1835
  685MOL0     H94529   0.647   4.397  11.054 -2.9285  2.6135  0.8619
  685MOL0     H94530   0.634   4.553  10.955 -1.9778 -0.5155  1.7039
  686MOL0     O94531  10.872   9.692   0.189 -0.0190 -0.2684 -0.4424
  686MOL0     C94532  10.836   9.710   0.308  0.5036  0.5042 -1.0704
  686MOL0     O94533  10.771   9.618   0.389  0.0431  0.0309  0.3458
  686MOL0     C94534  10.771   9.492   0.337 -0.9680 -0.6851 -0.6746
  686MOL0     C94535  10.880   9.411   0.371  0.1261  0.0044 -0.5027
  686MOL0     C94536  10.881   9.285   0.319 -1.0567  0.3458  0.3521
  686MOL0     C94537  10.774   9.236   0.245  0.6820  0.1362  0.1615
  686MOL0     O94538  10.803   9.107   0.210 -0.9517  0.1915  0.5107
  686MOL0     C94539  10.688   9.028   0.163 -0.0024 -0.3556  0.3046
  686MOL0     C94540  10.738   8.892   0.133  0.7121  0.8262 -0.6039
  686MOL0     C94541  10.840   8.873   0.038 -0.6929  0.1793  0.6191
  686MOL0     C94542  10.916   8.727   0.041 -0.0315  1.7799  0.3104
  686MOL0     C94543  10.871   8.626  -0.060 -0.2085  0.5396  1.0112
  686MOL0     C94544  10.964   8.508  -0.077 -0.5216  0.2041  0.0289
  686MOL0     C94545  10.916   8.430  -0.192  0.0383 -0.4034 -0.9000
  686MOL0     C94546  10.982   8.297  -0.225  0.3107  0.2352 -1.0283
  686MOL0     N94547  11.027   8.214  -0.117  0.1812 -0.4522 -0.9604
  686MOL0     C94548  10.949   8.140  -0.030  0.6400  0.2054 -0.7273
  686MOL0     C94549  11.031   8.074   0.046 -0.3150 -0.1922 -0.3541
  686MOL0     C94550  10.987   7.961   0.131 -0.8501  0.5592  0.0269
  686MOL0     C94551  11.047   7.833   0.077 -0.0029  0.4848 -0.5324
  686MOL0     C94552  10.986   7.709   0.140 -0.5833  0.0343  0.9485
  686MOL0     C94553  11.048   7.585   0.070 -0.1999  0.2821 -1.2071
  686MOL0     O94554  10.965   7.470   0.103 -0.3006 -0.0215 -0.8474
  686MOL0     C94555  11.004   7.347   0.055  0.7198  0.4963 -0.4839
  686MOL0     C94556  10.982   7.227   0.122  0.2206  0.2055  0.0225
  686MOL0     C94557  11.019   7.105   0.076 -0.4835 -0.3060 -0.1542
  686MOL0     C94558  10.992   6.984   0.157  0.0423 -0.7299  0.0611
  686MOL0     C94559  11.092   7.096  -0.045  0.2536  0.6580  0.6453
  686MOL0     C94560  11.145   6.964  -0.100  0.0958  0.5032 -0.7690
  686MOL0     O94561  11.088   6.841  -0.072  0.0013  0.2229  0.6892
  686MOL0     C94562  11.171   6.740  -0.107  0.6871  0.1407 -0.7483
  686MOL0     C94563  11.230   6.660  -0.006 -0.3801  0.1501 -0.5613
  686MOL0     C94564  11.306   6.542  -0.033 -0.3884 -0.1466  0.3344
  686MOL0     C94565  11.319   6.504  -0.165 -0.8121 -0.7490 -0.2256
  686MOL0     O94566  11.401   6.397  -0.202 -0.2482  0.3436  0.8327
  686MOL0     C94567  11.529   6.440  -0.226 -0.0900  0.0483 -0.9253
  686MOL0     C94568  11.580   6.354  -0.333 -0.1458 -0.0127  0.0157
  686MOL0     C94569  11.733   6.390  -0.349 -0.5922 -0.5360 -0.3069
  686MOL0     C94570  11.797   6.297  -0.451 -0.0364 -0.8909  0.0491
  686MOL0     C94571  11.781   6.355  -0.587 -0.4968  0.6949  0.7989
  686MOL0     C94572  11.808   6.245  -0.689 -0.7446 -0.3985  0.3112
  686MOL0     C94573  11.869   6.299  -0.823 -1.8611  1.0148 -0.5883
  686MOL0     C94574  11.786   6.402  -0.893 -0.0220  0.3444 -0.7274
  686MOL0    Cl94575  11.652   6.342  -0.990 -0.3894  0.1236  0.1657
  686MOL0     C94576  11.273   6.591  -0.269  0.5227  0.2209  0.0165
  686MOL0     C94577  11.191   6.702  -0.241 -0.0117 -0.3859 -0.7475
  686MOL0     O94578  11.247   6.981  -0.164  0.3524  0.2977 -0.5867
  686MOL0     C94579  11.126   7.216  -0.117  0.5955 -0.3377  0.0263
  686MOL0     C94580  11.087   7.337  -0.059  0.4905  0.2441 -0.6763
  686MOL0     N94581  11.151   8.116   0.020  0.1694  0.1262 -0.0318
  686MOL0     N94582  11.153   8.207  -0.071 -0.5943  0.5368  0.3871
  686MOL0     C94583  10.667   9.315   0.213 -0.4044 -0.3249 -0.4272
  686MOL0     C94584  10.660   9.446   0.260  0.2825 -0.0662  0.8264
  686MOL0     C94585  10.825   9.848   0.361 -0.5821 -0.9763 -0.5164
  686MOL0     C94586  10.786   9.952   0.271  0.2586 -0.4651  0.6360
  686MOL0     C94587  10.753  10.086   0.321  0.2026  0.0417  0.8823
  686MOL0     C94588  10.762  10.106   0.455  0.4436  0.8951 -0.6113
  686MOL0     O94589  10.729  10.233   0.504 -0.2968  0.3996 -0.1445
  686MOL0     C94590  10.645  10.228   0.622  0.3889 -0.1500 -0.3068
  686MOL0     C94591  10.540  10.333   0.603 -0.0692 -1.0061 -1.6636
  686MOL0     C94592  10.579  10.470   0.683  0.3345  0.4737  0.0660
  686MOL0     C94593  10.477  10.568   0.633  0.6074  0.3773 -0.5464
  686MOL0     C94594  10.509  10.650   0.519 -0.2423 -0.7332  0.5492
  686MOL0     C94595  10.539  10.700   0.412 -0.4093  0.0156  0.3850
  686MOL0     C94596  10.805  10.007   0.544 -0.1672 -0.9611 -0.2669
  686MOL0     C94597  10.844   9.879   0.501 -0.1921 -0.2160 -0.7728
  686MOL0     C94598  10.891   9.791   0.615  0.3741  0.3926 -0.7027
  686MOL0     H94599  10.959   9.447   0.436 -1.7622  0.9547  1.3702
  686MOL0     H94600  10.970   9.227   0.340  0.7277  2.2702 -1.3914
  686MOL0     H94601  10.661   9.083   0.072  3.1789 -1.2262 -1.3241
  686MOL0     H94602  10.602   9.021   0.231 -0.1517  2.1577  0.4686
  686MOL0     H94603  10.771   8.855   0.230 -0.1430  0.2962 -0.5032
  686MOL0     H94604  10.655   8.829   0.097  2.6137 -1.8734 -0.5485
  686MOL0     H94605  10.816   8.905  -0.064  1.4131  1.1916  0.3867
  686MOL0     H94606  10.922   8.942   0.059  0.5402 -1.0191 -0.1278
  686MOL0     H94607  11.024   8.738   0.024  0.1731 -0.3021 -0.0099
  686MOL0     H94608  10.894   8.672   0.133 -3.6447  0.2079 -1.3240
  686MOL0     H94609  10.869   8.681  -0.155 -0.8583  1.7942  1.7383
  686MOL0     H94610  10.775   8.586  -0.026  0.5720 -3.4713 -0.7854
  686MOL0     H94611  11.068   8.542  -0.083 -0.9636  2.2486  2.4141
  686MOL0     H94612  10.954   8.455   0.019  2.7213 -0.8677 -0.1075
  686MOL0     H94613  10.922   8.490  -0.283 -0.9215  0.1067 -0.6481
  686MOL0     H94614  10.809   8.409  -0.183  0.2235 -0.9104  0.3780
  686MOL0     H94615  10.922   8.243  -0.299 -3.7353  0.3677  1.8191
  686MOL0     H94616  11.075   8.324  -0.275  0.6686 -2.9368 -2.3417
  686MOL0     H94617  10.840   8.131  -0.033  0.7840 -2.4948 -0.4468
  686MOL0     H94618  10.878   7.959   0.142 -0.6055  0.4683  3.8269
  686MOL0     H94619  11.030   7.969   0.231  0.0195 -1.8229 -0.0985
  686MOL0     H94620  11.018   7.844  -0.028 -1.7719  0.0537 -0.1294
  686MOL0     H94621  11.154   7.847   0.089 -0.3659  2.3371  1.1341
  686MOL0     H94622  11.015   7.702   0.246  1.4765  1.0176  0.4991
  686MOL0     H94623  10.878   7.714   0.122 -0.5488  0.4155  0.8372
  686MOL0     H94624  11.025   7.604  -0.035  0.0775  0.1261 -1.2992
  686MOL0     H94625  11.156   7.571   0.083 -0.5312 -1.1115  0.4658
  686MOL0     H94626  10.937   7.242   0.220  2.5367  1.1261  1.0131
  686MOL0     H94627  11.086   6.950   0.201 -0.4300 -1.2245  0.7234
  686MOL0     H94628  10.939   6.906   0.101 -0.5422 -2.2009  2.4592
  686MOL0     H94629  10.927   7.012   0.241 -1.4919 -1.2355 -0.9113
  686MOL0     H94630  11.212   6.690   0.097 -0.8998  0.4362 -0.7318
  686MOL0     H94631  11.369   6.492   0.039 -1.0166 -0.4157  0.7004
  686MOL0     H94632  11.529   6.543  -0.263 -1.8104  0.3298 -0.2285
  686MOL0     H94633  11.592   6.430  -0.136 -1.8574 -1.3281  0.2189
  686MOL0     H94634  11.565   6.252  -0.298 -1.7614 -0.4658 -1.8864
  686MOL0     H94635  11.540   6.370  -0.433  1.0484  0.6580 -0.3851
  686MOL0     H94636  11.771   6.375  -0.247  1.7105  0.8090 -0.9082
  686MOL0     H94637  11.754   6.494  -0.373  2.4104 -0.5498  1.6472
  686MOL0     H94638  11.760   6.195  -0.440  1.7165 -1.3109  2.8543
  686MOL0     H94639  11.903   6.314  -0.428  0.0025  1.3100 -1.4301
  686MOL0     H94640  11.676   6.382  -0.596 -0.6488 -0.4195 -1.5774
  686MOL0     H94641  11.857   6.433  -0.598  2.3172 -1.7612  1.5061
  686MOL0     H94642  11.713   6.192  -0.701 -0.6360 -0.6699  0.6044
  686MOL0     H94643  11.886   6.177  -0.653  1.9289  0.8103 -2.7079
  686MOL0     H94644  11.895   6.215  -0.887 -1.7555 -1.0412  1.9804
  686MOL0     H94645  11.965   6.349  -0.803 -2.0030  1.2522 -0.4905
  686MOL0     H94646  11.846   6.438  -0.977 -0.3814  0.4056 -0.9591
  686MOL0     H94647  11.760   6.480  -0.821  2.6774  2.7484 -2.1879
  686MOL0     H94648  11.287   6.561  -0.372 -0.6617 -2.4875  0.5697
  686MOL0     H94649  11.153   6.762  -0.323 -1.6924  1.4718  1.2521
  686MOL0     H94650  11.188   7.212  -0.206  1.4136  0.7010  0.5322
  686MOL0     H94651  11.113   7.421  -0.124 -2.2965  0.0603 -2.1647
  686MOL0     H94652  10.595   9.275   0.142 -0.7961 -0.2026 -0.1032
  686MOL0     H94653  10.584   9.520   0.236  2.1991  1.4812 -0.8942
  686MOL0     H94654  10.777   9.932   0.165  1.3930  1.0249  0.2314
  686MOL0     H94655  10.719  10.167   0.257 -1.9197 -1.2066  0.3456
  686MOL0     H94656  10.587  10.135   0.629  0.0880 -0.7717 -5.9327
  686MOL0     H94657  10.713  10.233   0.707 -0.9976  2.0013  0.7586
  686MOL0     H94658  10.443  10.289   0.628 -0.1334  0.5611  1.2907
  686MOL0     H94659  10.534  10.355   0.497 -0.7461  5.1605 -0.7173
  686MOL0     H94660  10.580  10.458   0.792  0.4427  1.8063  0.2275
  686MOL0     H94661  10.675  10.494   0.637 -0.4005 -1.7285 -2.9286
  686MOL0     H94662  10.455  10.633   0.719 -2.0296 -1.2860  0.1456
  686MOL0     H94663  10.382  10.516   0.625  1.5415 -2.0512  2.2765
  686MOL0     H94664  10.576  10.744   0.321  1.3814  2.4502  2.1843
  686MOL0     H94665  10.795  10.031   0.650 -1.4550 -3.8009  0.3672
  686MOL0     H94666  10.883   9.685   0.592 -3.2269  0.2836  0.4259
  686MOL0     H94667  10.993   9.818   0.642 -0.1199 -0.5064  2.4573
  686MOL0     H94668  10.830   9.808   0.704 -1.8489 -0.5949 -1.9541
  687MOL0     O94669   8.173   0.398   7.934  0.5730  0.1796 -0.0928
  687MOL0     C94670   8.227   0.296   7.912 -0.0430  0.1638  0.9796
  687MOL0     O94671   8.353   0.270   7.932  0.5989  0.1829  0.3016
  687MOL0     C94672   8.429   0.359   7.986 -0.5028 -0.6362  0.1849
  687MOL0     C94673   8.504   0.454   7.912 -0.7443  0.2284 -0.3447
  687MOL0     C94674   8.596   0.536   7.981 -0.2759 -0.0747 -0.7000
  687MOL0     C94675   8.605   0.543   8.119 -0.7318  0.4269  0.5027
  687MOL0     O94676   8.696   0.615   8.188  0.3822 -0.0187  0.0488
  687MOL0     C94677   8.650   0.685   8.308  0.2680  0.2292  0.1533
  687MOL0     C94678   8.756   0.788   8.320 -0.4390 -0.2076  0.0687
  687MOL0     C94679   8.888   0.743   8.386 -0.3160  1.1176 -0.6329
  687MOL0     C94680   8.945   0.601   8.365  0.1586  0.4135 -0.5331
  687MOL0     C94681   9.053   0.563   8.468 -0.0085 -0.2520  0.0112
  687MOL0     C94682   9.122   0.440   8.423 -0.5124  0.7263  0.1982
  687MOL0     C94683   9.217   0.386   8.532 -0.0633  1.1821  1.2067
  687MOL0     C94684   9.344   0.463   8.576 -0.3489 -0.3552 -0.2784
  687MOL0     N94685   9.403   0.386   8.687  0.9978 -0.5072 -0.0968
  687MOL0     C94686   9.368   0.401   8.819 -0.2542 -0.3652  0.0072
  687MOL0     C94687   9.441   0.310   8.880  0.1333 -0.2333  0.2907
  687MOL0     C94688   9.432   0.287   9.024 -0.0074  0.1358  0.7094
  687MOL0     C94689   9.503   0.391   9.117  0.5975  0.3546 -0.1627
  687MOL0     C94690   9.458   0.350   9.260 -0.2170 -0.7373 -0.3934
  687MOL0     C94691   9.493   0.465   9.349  0.0994 -0.5435 -0.4705
  687MOL0     O94692   9.638   0.476   9.353 -0.4456  0.2145 -0.1002
  687MOL0     C94693   9.699   0.584   9.415 -0.3878  0.0894 -0.4174
  687MOL0     C94694   9.835   0.626   9.389 -0.2653  0.4027  0.0013
  687MOL0     C94695   9.901   0.737   9.439  0.0478 -0.3304 -0.5664
  687MOL0     C94696  10.045   0.768   9.394 -0.4457  0.2882  0.4648
  687MOL0     C94697   9.838   0.801   9.558 -0.2171 -0.3703  1.3837
  687MOL0     C94698   9.901   0.913   9.636  0.2496  0.3354  0.2927
  687MOL0     O94699   9.878   0.906   9.775  0.2353  0.4954  0.0826
  687MOL0     C94700   9.936   0.999   9.859 -0.4521 -0.0422  0.1178
  687MOL0     C94701   9.871   1.007   9.979  0.4202 -0.1146  0.6337
  687MOL0     C94702   9.899   1.095  10.081  0.1185  0.8441 -0.6364
  687MOL0     C94703  10.007   1.176  10.059 -0.7154  1.1231 -0.3349
  687MOL0     O94704  10.032   1.275  10.149  0.0755  0.0424 -0.5010
  687MOL0     C94705  10.164   1.296  10.190 -0.3425  0.9083  0.5387
  687MOL0     C94706  10.188   1.448  10.212 -0.5370  0.3809  0.5633
  687MOL0     C94707  10.096   1.509  10.309  0.0431  0.7582 -0.0725
  687MOL0     C94708  10.149   1.640  10.354 -0.0720 -0.3053  0.1165
  687MOL0     C94709  10.045   1.737  10.411 -0.1704 -0.4184  0.6006
  687MOL0     C94710   9.923   1.763  10.316 -0.2400  0.1976  0.0066
  687MOL0     C94711   9.845   1.892  10.347 -0.1173  0.3446  0.5745
  687MOL0     C94712   9.743   1.918  10.227  0.1062  0.6242 -0.5863
  687MOL0    Cl94713   9.598   1.999  10.272  0.0629  0.0802 -0.2652
  687MOL0     C94714  10.078   1.176   9.937 -0.0876 -0.3184 -0.5763
  687MOL0     C94715  10.051   1.082   9.844 -0.7774  0.5795 -0.4135
  687MOL0     O94716   9.954   1.002   9.580  0.0608  1.1282  0.7574
  687MOL0     C94717   9.713   0.750   9.599 -0.2362  0.9569  0.5832
  687MOL0     C94718   9.647   0.646   9.528 -1.0028  0.5520 -0.6521
  687MOL0     N94719   9.521   0.237   8.789 -0.5370 -0.3977  0.3447
  687MOL0     N94720   9.500   0.292   8.673  0.9221  0.6517 -0.1720
  687MOL0     C94721   8.519   0.458   8.189 -0.4331 -0.1516  0.0970
  687MOL0     C94722   8.436   0.364   8.127  0.7142 -1.2870  0.3386
  687MOL0     C94723   8.146   0.199   7.829 -0.5072 -0.4618 -0.1794
  687MOL0     C94724   8.031   0.249   7.767 -0.5598  1.1287  0.9380
  687MOL0     C94725   7.936   0.158   7.702  0.1776 -0.5482  0.5974
  687MOL0     C94726   7.968   0.024   7.691 -0.5925 -0.1218 -0.1385
  687MOL0     O94727   7.877  -0.043   7.615  0.8181  0.2196  0.1155
  687MOL0     C94728   7.911  -0.168   7.568  0.4098  0.3876 -0.7396
  687MOL0     C94729   8.004  -0.173   7.443  0.3118  0.3788 -0.6772
  687MOL0     C94730   7.954  -0.080   7.339 -0.1095 -0.9079  0.3040
  687MOL0     C94731   7.843  -0.144   7.251 -0.4235 -0.3727  1.2725
  687MOL0     C94732   7.824  -0.075   7.115 -0.0487 -0.7827 -0.1604
  687MOL0     C94733   7.800   0.002   7.031  0.9949  0.1393 -0.5505
  687MOL0     C94734   8.087  -0.025   7.742  0.3746  0.7110 -0.6223
  687MOL0     C94735   8.177   0.061   7.806  0.6096 -0.2196 -0.2730
  687MOL0     C94736   8.305  -0.009   7.850 -0.7750  0.1232  0.5057
  687MOL0     H94737   8.495   0.455   7.804 -1.8764 -0.7856 -0.2802
  687MOL0     H94738   8.670   0.592   7.925  1.4488 -1.9883 -0.4131
  687MOL0     H94739   8.652   0.622   8.398  0.1279  1.2009  0.8540
  687MOL0     H94740   8.559   0.738   8.281  1.3908  1.1967 -1.8814
  687MOL0     H94741   8.783   0.824   8.221  1.6759 -2.8980 -0.4749
  687MOL0     H94742   8.720   0.869   8.384 -0.5605 -0.7116  0.6570
  687MOL0     H94743   8.965   0.812   8.350  0.5628  0.2034 -0.5373
  687MOL0     H94744   8.881   0.772   8.492 -2.0786 -0.9598 -0.1083
  687MOL0     H94745   8.862   0.534   8.390  1.5193 -1.3749 -0.5779
  687MOL0     H94746   8.973   0.582   8.261 -1.8919 -1.5568 -0.8173
  687MOL0     H94747   9.018   0.547   8.570  1.4207 -0.6614  0.4626
  687MOL0     H94748   9.123   0.647   8.476 -2.2144  1.5260  2.3022
  687MOL0     H94749   9.050   0.368   8.383  1.1907 -1.5797  1.0846
  687MOL0     H94750   9.179   0.458   8.332  0.5040 -1.7529  0.2522
  687MOL0     H94751   9.260   0.290   8.503 -1.3361  1.3243 -1.4263
  687MOL0     H94752   9.154   0.356   8.616 -0.8951 -0.0142  0.1855
  687MOL0     H94753   9.416   0.470   8.494 -0.4747  0.1471 -0.3525
  687MOL0     H94754   9.323   0.566   8.606 -4.1526 -1.0304 -0.0463
  687MOL0     H94755   9.298   0.470   8.865 -0.0937 -0.0102 -0.2744
  687MOL0     H94756   9.472   0.187   9.043 -0.2895 -0.0044  0.5738
  687MOL0     H94757   9.328   0.275   9.056  0.5482 -2.9487  1.7900
  687MOL0     H94758   9.610   0.371   9.117  0.4444 -0.9668  2.7111
  687MOL0     H94759   9.485   0.493   9.082 -1.9036  0.0165 -0.0425
  687MOL0     H94760   9.350   0.348   9.275 -0.4314  1.7322 -1.0522
  687MOL0     H94761   9.509   0.265   9.305  1.7402  0.6116  0.1082
  687MOL0     H94762   9.453   0.561   9.316  1.1756  0.4267  0.8975
  687MOL0     H94763   9.464   0.443   9.452 -0.5488 -1.5907 -0.8630
  687MOL0     H94764   9.882   0.570   9.309 -1.1659 -0.1129 -0.1829
  687MOL0     H94765  10.050   0.729   9.291 -0.6720  1.1076  0.1349
  687MOL0     H94766  10.134   0.737   9.450  1.9474  3.9270 -0.8606
  687MOL0     H94767  10.059   0.876   9.381  2.8354 -0.1439 -0.7780
  687MOL0     H94768   9.787   0.940   9.996  2.7091 -3.0051  1.2013
  687MOL0     H94769   9.831   1.107  10.165  0.6950  2.7753 -0.3992
  687MOL0     H94770  10.193   1.235  10.276  0.7141 -2.1828 -1.8047
  687MOL0     H94771  10.238   1.255  10.121  0.1699  4.0793 -0.9440
  687MOL0     H94772  10.290   1.461  10.249 -0.0613 -0.4875 -0.4107
  687MOL0     H94773  10.179   1.497  10.115 -0.1819 -0.9302 -0.1545
  687MOL0     H94774  10.085   1.426  10.379  4.3712 -1.8523 -2.0657
  687MOL0     H94775   9.996   1.519  10.265 -0.3186 -3.1362 -0.4645
  687MOL0     H94776  10.196   1.691  10.269  0.2805  0.7306  0.9171
  687MOL0     H94777  10.232   1.625  10.424  0.9991 -0.3106 -1.1035
  687MOL0     H94778  10.004   1.694  10.502 -2.0593 -1.3080 -0.6128
  687MOL0     H94779  10.101   1.828  10.438  1.3534 -0.8653 -0.8455
  687MOL0     H94780   9.853   1.680  10.327 -0.7387  0.4681 -0.9972
  687MOL0     H94781   9.955   1.778  10.212 -0.4631 -3.3355 -0.7219
  687MOL0     H94782   9.904   1.984  10.348  2.7534 -1.3571 -0.3488
  687MOL0     H94783   9.795   1.862  10.440 -0.7108 -2.9509 -0.6675
  687MOL0     H94784   9.723   1.823  10.176 -2.0428  0.1607  0.9343
  687MOL0     H94785   9.801   1.975  10.155 -0.9781  1.2666 -0.9838
  687MOL0     H94786  10.158   1.243   9.907 -2.0183  1.6633 -1.5667
  687MOL0     H94787  10.113   1.082   9.755  1.2879  0.2393  0.9430
  687MOL0     H94788   9.655   0.790   9.681  1.8169  0.0864  2.5524
  687MOL0     H94789   9.544   0.618   9.549 -0.9897  0.5849 -0.5460
  687MOL0     H94790   8.512   0.468   8.297 -0.6697  0.6810  0.0159
  687MOL0     H94791   8.397   0.290   8.197 -1.9549 -0.2562  0.0271
  687MOL0     H94792   7.996   0.351   7.757  2.2159  2.2818  1.8501
  687MOL0     H94793   7.841   0.196   7.666  0.8315 -0.6860 -1.4044
  687MOL0     H94794   7.959  -0.225   7.648  1.6862  1.5726 -0.6315
  687MOL0     H94795   7.813  -0.211   7.545 -1.6433  2.5559  2.9045
  687MOL0     H94796   8.000  -0.272   7.395  1.7186  0.9845 -2.1389
  687MOL0     H94797   8.106  -0.158   7.478  0.3622 -2.1792  0.5019
  687MOL0     H94798   7.926   0.018   7.379  0.1354 -0.3915 -0.7773
  687MOL0     H94799   8.035  -0.057   7.270 -2.7953  0.4440 -2.6913
  687MOL0     H94800   7.750  -0.144   7.308 -0.8818 -2.1194  0.5940
  687MOL0     H94801   7.868  -0.247   7.224  4.2478  0.0854  3.0376
  687MOL0     H94802   7.774   0.074   6.956 -0.5792  0.0788 -0.0976
  687MOL0     H94803   8.119  -0.126   7.720 -1.4289  0.4715 -2.4253
  687MOL0     H94804   8.393   0.042   7.809  1.1194 -1.4366  2.4095
  687MOL0     H94805   8.310  -0.005   7.959 -1.4940 -2.1085  0.6850
  687MOL0     H94806   8.319  -0.113   7.816  1.6859  0.1752  1.1331
  688MOL0     O94807   0.428   0.038  11.334  0.7721  0.1478  0.7790
  688MOL0     C94808   0.521  -0.019  11.280  0.7008 -0.0584  0.6089
  688MOL0     O94809   0.513  -0.079  11.153  0.0825  0.0063  0.3692
  688MOL0     C94810   0.428  -0.024  11.062  0.1389  0.3312  0.3704
  688MOL0     C94811   0.406   0.110  11.048  0.4180 -0.4636 -0.2143
  688MOL0     C94812   0.309   0.162  10.952  0.3935  0.9335 -0.3521
  688MOL0     C94813   0.252   0.077  10.855 -0.4101  0.9036  0.1140
  688MOL0     O94814   0.168   0.114  10.757 -0.0094 -1.1093  0.1456
  688MOL0     C94815   0.102   0.239  10.781 -0.0101 -0.4757 -0.1856
  688MOL0     C94816   0.176   0.354  10.723  0.3601 -0.8145 -0.4286
  688MOL0     C94817   0.179   0.350  10.569  0.0144 -0.0038 -0.5742
  688MOL0     C94818   0.038   0.386  10.509  0.4370  0.1060  0.1167
  688MOL0     C94819   0.042   0.394  10.356 -0.3868  0.3769  0.1816
  688MOL0     C94820   0.106   0.524  10.318  0.2020  0.6362 -1.1656
  688MOL0     C94821   0.060   0.545  10.177  0.4218 -0.1955 -0.4807
  688MOL0     C94822   0.077   0.694  10.135  0.1492 -0.0545 -0.1481
  688MOL0     N94823   0.212   0.740  10.090 -0.5648  0.0169 -0.5269
  688MOL0     C94824   0.331   0.693  10.150 -0.4547 -0.4324  0.3307
  688MOL0     C94825   0.435   0.757  10.092  0.2881  0.1533  0.1432
  688MOL0     C94826   0.575   0.712  10.102  0.3362 -0.4289  0.3862
  688MOL0     C94827   0.654   0.807  10.189 -0.5248  0.9413  0.0530
  688MOL0     C94828   0.800   0.764  10.206 -0.5451 -0.4463 -0.3346
  688MOL0     C94829   0.904   0.879  10.231  0.4495  0.1892 -0.6418
  688MOL0     O94830   0.871   0.968  10.349  0.0962 -0.7613  0.1506
  688MOL0     C94831   0.902   0.938  10.478 -1.2875  0.0606 -0.1730
  688MOL0     C94832   0.910   1.045  10.561  0.1429 -0.2129  0.2201
  688MOL0     C94833   0.951   1.030  10.697  0.4654  0.1273  0.4095
  688MOL0     C94834   0.949   1.158  10.781 -0.5317 -0.0189 -0.5916
  688MOL0     C94835   0.979   0.901  10.742  0.1258  0.1840  0.1424
  688MOL0     C94836   1.015   0.867  10.878 -0.4337 -0.0416 -0.2138
  688MOL0     O94837   1.040   0.740  10.901  0.2342 -0.0763 -0.5080
  688MOL0     C94838   1.056   0.680  11.031 -0.3363 -0.7716  0.2953
  688MOL0     C94839   1.137   0.571  11.056 -0.7847  0.2867 -0.2720
  688MOL0     C94840   1.142   0.517  11.184 -0.6237  0.0512  0.1952
  688MOL0     C94841   1.074   0.572  11.296  0.7042  0.3554  0.4803
  688MOL0     O94842   1.094   0.517  11.417  0.1180 -0.1278  0.3921
  688MOL0     C94843   1.003   0.541  11.526  0.2135  0.2382 -0.0217
  688MOL0     C94844   1.031   0.465  11.652  0.1409 -0.2411 -0.9251
  688MOL0     C94845   0.961   0.511  11.777  0.8635 -0.5183 -1.0971
  688MOL0     C94846   0.977   0.423  11.897 -0.4879  0.2281 -0.0683
  688MOL0     C94847   0.949   0.509  12.023 -0.0962  0.3512  0.3694
  688MOL0     C94848   1.048   0.490  12.136 -0.4908  0.2494 -0.7860
  688MOL0     C94849   1.179   0.569  12.116  0.1715 -0.0169  0.4618
  688MOL0     C94850   1.264   0.577  12.243 -0.3086 -0.6241 -0.0145
  688MOL0    Cl94851   1.202   0.693  12.377  0.2771 -0.2435  0.6129
  688MOL0     C94852   0.990   0.678  11.269 -0.1535  0.8165 -0.3446
  688MOL0     C94853   0.983   0.736  11.140 -0.4487  0.6201 -0.5101
  688MOL0     O94854   1.022   0.954  10.960  0.4599  0.1820  0.1896
  688MOL0     C94855   0.977   0.790  10.652  0.2820 -0.1516  1.3890
  688MOL0     C94856   0.941   0.809  10.518 -0.5644 -0.4725 -0.5105
  688MOL0     N94857   0.382   0.849  10.010 -0.0417  0.7562  0.8150
  688MOL0     N94858   0.252   0.841  10.006 -0.2341 -0.2307 -0.1738
  688MOL0     C94859   0.288  -0.055  10.865 -0.7961  0.1240 -0.2491
  688MOL0     C94860   0.387  -0.101  10.957  0.7498  0.1898 -0.1639
  688MOL0     C94861   0.632  -0.055  11.363 -0.6038 -0.1028 -0.0016
  688MOL0     C94862   0.701  -0.176  11.344  0.2478 -0.2206 -0.9146
  688MOL0     C94863   0.813  -0.216  11.422 -0.3911  0.8993 -0.2326
  688MOL0     C94864   0.854  -0.134  11.520  0.0890  0.1111  0.1919
  688MOL0     O94865   0.954  -0.171  11.614  0.1799  0.2509 -0.3875
  688MOL0     C94866   0.973  -0.312  11.651  0.0116 -0.0651  0.2981
  688MOL0     C94867   0.999  -0.312  11.803 -0.2204 -0.1634  0.1591
  688MOL0     C94868   1.049  -0.436  11.865 -0.6335 -0.8149  0.2381
  688MOL0     C94869   1.050  -0.436  12.018  0.1209  0.0985  0.3424
  688MOL0     C94870   1.139  -0.333  12.074 -0.7126  0.4374  0.1204
  688MOL0     C94871   1.214  -0.247  12.119 -0.1326 -0.9028 -0.5455
  688MOL0     C94872   0.786  -0.015  11.544 -0.4245 -0.2504  0.4778
  688MOL0     C94873   0.689   0.032  11.460  0.5450 -0.1251  0.1663
  688MOL0     C94874   0.626   0.166  11.493  0.0362  0.5037 -0.0298
  688MOL0     H94875   0.449   0.184  11.115 -1.2232 -0.2761  0.7004
  688MOL0     H94876   0.268   0.261  10.964 -3.5279 -0.4039 -1.2197
  688MOL0     H94877   0.081   0.262  10.886 -0.0187 -0.0917 -0.2701
  688MOL0     H94878   0.005   0.240  10.731  0.6726 -0.8577 -1.5903
  688MOL0     H94879   0.142   0.450  10.763  2.5537 -0.4531  0.7607
  688MOL0     H94880   0.279   0.349  10.761 -0.0093 -0.2094  0.6952
  688MOL0     H94881   0.253   0.427  10.546 -0.3012  0.7147  0.7240
  688MOL0     H94882   0.208   0.252  10.530  2.6161  0.6202 -0.3715
  688MOL0     H94883  -0.032   0.306  10.533 -1.0995  1.1530 -0.7315
  688MOL0     H94884   0.001   0.478  10.555 -3.3664 -0.6097 -1.2112
  688MOL0     H94885  -0.056   0.375  10.311  0.5768 -1.5918 -1.2285
  688MOL0     H94886   0.107   0.316  10.314  1.5931  1.4179  1.1755
  688MOL0     H94887   0.072   0.597  10.393  4.7469  0.2535  1.6204
  688MOL0     H94888   0.213   0.505  10.319  0.1157  0.1077 -1.6825
  688MOL0     H94889  -0.044   0.525  10.153 -0.8990  2.5483  2.2726
  688MOL0     H94890   0.128   0.488  10.113  0.5899 -1.9301  1.1727
  688MOL0     H94891   0.013   0.702  10.047  1.0644  0.5832 -0.7720
  688MOL0     H94892   0.052   0.758  10.219 -1.1233  1.1568 -1.3981
  688MOL0     H94893   0.342   0.608  10.216  2.8511  0.0970  0.6433
  688MOL0     H94894   0.607   0.714   9.998 -0.4483  3.6574  0.0353
  688MOL0     H94895   0.576   0.611  10.144  0.3703 -0.5778  0.0299
  688MOL0     H94896   0.647   0.907  10.145  1.7021  0.7684 -0.8259
  688MOL0     H94897   0.616   0.810  10.292 -0.2657 -0.7824  0.2232
  688MOL0     H94898   0.804   0.699  10.295 -3.4854  2.6337  2.3322
  688MOL0     H94899   0.831   0.713  10.115 -1.9026  0.0734 -1.1144
  688MOL0     H94900   1.001   0.839  10.261  1.9244  3.2427 -0.8832
  688MOL0     H94901   0.920   0.923  10.132 -0.8659  0.2393 -0.8485
  688MOL0     H94902   0.893   1.146  10.526  2.6274 -0.3278 -1.5448
  688MOL0     H94903   0.883   1.141  10.867  0.2177  1.8804  0.4448
  688MOL0     H94904   0.897   1.237  10.726  1.6672 -0.3774 -3.3582
  688MOL0     H94905   1.043   1.192  10.824  0.9465 -0.2832 -3.3987
  688MOL0     H94906   1.186   0.522  10.972 -2.3621 -0.4478 -0.8041
  688MOL0     H94907   1.207   0.431  11.193  1.0720  1.1714 -0.6524
  688MOL0     H94908   1.015   0.649  11.539 -1.6971  0.5226 -0.2731
  688MOL0     H94909   0.904   0.508  11.492  0.4886 -1.0805  0.3778
  688MOL0     H94910   1.004   0.360  11.638 -1.3928  0.0906 -0.6844
  688MOL0     H94911   1.137   0.473  11.677  0.1474 -1.6219 -0.4364
  688MOL0     H94912   0.857   0.526  11.748  0.6990 -2.5536 -1.6802
  688MOL0     H94913   0.989   0.615  11.795  1.1726 -0.3945 -2.2310
  688MOL0     H94914   1.080   0.391  11.912  0.6736  0.5773 -5.4081
  688MOL0     H94915   0.905   0.340  11.900  0.9007 -1.0129  0.1155
  688MOL0     H94916   0.956   0.615  11.996 -0.6064 -0.2337 -2.4229
  688MOL0     H94917   0.849   0.496  12.064  0.3383 -0.9155  1.0656
  688MOL0     H94918   1.063   0.387  12.171 -1.9742  0.6938  1.3705
  688MOL0     H94919   1.001   0.539  12.222  1.3499 -0.5009  0.7414
  688MOL0     H94920   1.153   0.674  12.105 -2.2949 -0.2528  2.9294
  688MOL0     H94921   1.236   0.533  12.029 -0.0082 -0.1499  0.3996
  688MOL0     H94922   1.368   0.598  12.215  0.3597 -4.8407 -1.4245
  688MOL0     H94923   1.263   0.476  12.284 -1.3158  0.5223  3.0764
  688MOL0     H94924   0.926   0.717  11.348  0.1172 -0.8284  0.7244
  688MOL0     H94925   0.923   0.825  11.123  0.1823  0.9766 -0.9408
  688MOL0     H94926   1.006   0.688  10.674 -2.8863 -1.1765  1.4328
  688MOL0     H94927   0.930   0.726  10.450 -1.2443  0.1622 -1.1889
  688MOL0     H94928   0.254  -0.124  10.788 -1.3387  0.3751 -0.2379
  688MOL0     H94929   0.420  -0.204  10.958 -2.4269 -0.9424  0.1196
  688MOL0     H94930   0.671  -0.258  11.278  2.6866 -1.6162 -0.4419
  688MOL0     H94931   0.855  -0.315  11.404 -1.9412  0.5822 -2.4352
  688MOL0     H94932   0.887  -0.378  11.637  0.5484 -0.7854  0.3438
  688MOL0     H94933   1.062  -0.339  11.593 -0.2120 -2.6639  1.0699
  688MOL0     H94934   0.912  -0.287  11.864  1.1493  1.1565  1.6925
  688MOL0     H94935   1.058  -0.221  11.820  0.8829 -0.8492  0.1594
  688MOL0     H94936   0.990  -0.523  11.835 -1.1275 -1.3233  2.5042
  688MOL0     H94937   1.151  -0.447  11.828 -1.5636 -1.3383 -2.3703
  688MOL0     H94938   1.085  -0.533  12.055  0.8935  0.1360 -0.2717
  688MOL0     H94939   0.951  -0.407  12.056  1.0364  2.6143  0.9800
  688MOL0     H94940   1.280  -0.176  12.166 -1.5756  1.0646 -1.3357
  688MOL0     H94941   0.823   0.049  11.623 -2.6423 -0.9143  2.1639
  688MOL0     H94942   0.534   0.140  11.546  1.1527 -0.4363  1.5414
  688MOL0     H94943   0.691   0.224  11.559  0.0964 -1.6105  1.9151
  688MOL0     H94944   0.606   0.211  11.396 -2.1637 -4.3373 -2.1507
  689MOL0     O94945   5.863   3.167   1.715 -0.1343 -0.4527  0.3285
  689MOL0     C94946   5.947   3.090   1.669 -0.0431  0.0510  0.4130
  689MOL0     O94947   5.917   3.003   1.569  0.1829  0.2423 -0.2486
  689MOL0     C94948   5.834   3.037   1.465 -0.0263 -0.5211 -0.0034
  689MOL0     C94949   5.824   3.165   1.414 -0.5019 -1.1890  0.2462
  689MOL0     C94950   5.743   3.187   1.301 -0.0359 -0.0011 -0.1132
  689MOL0     C94951   5.687   3.083   1.226 -0.1340  0.0605  0.4730
  689MOL0     O94952   5.626   3.096   1.094 -0.2025 -0.2548 -0.2604
  689MOL0     C94953   5.626   3.212   1.016  0.4405  0.5732 -0.6711
  689MOL0     C94954   5.651   3.179   0.874 -0.2377  0.1568  0.7549
  689MOL0     C94955   5.789   3.117   0.849  0.0282  1.0177  0.4239
  689MOL0     C94956   5.913   3.193   0.898  0.3531  0.1260 -0.2087
  689MOL0     C94957   6.034   3.133   0.821 -0.1103 -0.4433 -0.6182
  689MOL0     C94958   6.171   3.154   0.894  0.7426  0.6655 -0.5213
  689MOL0     C94959   6.230   3.284   0.868  0.0304  0.9090 -0.1674
  689MOL0     C94960   6.379   3.277   0.844  0.1453 -0.1875 -0.2639
  689MOL0     N94961   6.425   3.404   0.779  0.2217 -0.6805  0.0608
  689MOL0     C94962   6.462   3.517   0.841  0.1192  0.2348 -0.0668
  689MOL0     C94963   6.489   3.605   0.744 -0.7461 -0.2470  0.0825
  689MOL0     C94964   6.546   3.737   0.743  0.0739  0.4300  0.6692
  689MOL0     C94965   6.688   3.763   0.686 -0.1293  0.6724 -0.2211
  689MOL0     C94966   6.728   3.911   0.654  0.0444  0.8116  0.0493
  689MOL0     C94967   6.713   3.996   0.781 -0.0223 -0.6117  0.2053
  689MOL0     O94968   6.794   3.941   0.890  0.1247  0.5942  0.2128
  689MOL0     C94969   6.799   4.018   1.005 -0.0882  0.7441 -0.6671
  689MOL0     C94970   6.924   4.046   1.048 -0.5820 -0.1966  0.5008
  689MOL0     C94971   6.947   4.151   1.152  0.2053  0.4187 -0.1687
  689MOL0     C94972   7.099   4.188   1.172  0.3402  0.7056 -0.0198
  689MOL0     C94973   6.834   4.201   1.226 -0.0721  0.7596  0.7036
  689MOL0     C94974   6.843   4.280   1.351 -0.6714 -0.2622  0.2367
  689MOL0     O94975   6.962   4.333   1.386 -0.4061 -0.1287  0.4895
  689MOL0     C94976   6.956   4.423   1.491  0.3690  0.0768  0.0264
  689MOL0     C94977   6.987   4.396   1.633  0.5637  1.0598  1.7318
  689MOL0     C94978   6.963   4.506   1.721  0.1888 -0.0501 -0.4498
  689MOL0     C94979   6.920   4.636   1.684  0.6452 -0.6632  0.0740
  689MOL0     O94980   6.918   4.747   1.768  0.1701 -1.1384  0.1850
  689MOL0     C94981   6.962   4.738   1.911 -0.2081 -0.9041  0.4477
  689MOL0     C94982   7.117   4.735   1.932  0.2430  0.4792 -0.4339
  689MOL0     C94983   7.146   4.774   2.081 -0.3532  0.4491 -0.0392
  689MOL0     C94984   7.141   4.658   2.184  0.2333 -2.0632 -0.8443
  689MOL0     C94985   7.167   4.718   2.321 -0.7566 -0.7274 -0.8383
  689MOL0     C94986   7.161   4.607   2.429 -0.0276  0.3845  0.0625
  689MOL0     C94987   7.183   4.680   2.567 -0.2163 -0.5852 -1.0930
  689MOL0     C94988   7.188   4.575   2.679  0.1668  0.4611  1.3359
  689MOL0    Cl94989   7.020   4.512   2.735 -0.2009  0.1862  0.2582
  689MOL0     C94990   6.885   4.650   1.552 -0.3440  0.1225  0.4312
  689MOL0     C94991   6.911   4.549   1.462  0.5517  0.3021  0.5097
  689MOL0     O94992   6.734   4.285   1.413 -0.2933 -0.7327  0.7525
  689MOL0     C94993   6.707   4.182   1.160  0.4642  0.1361 -1.1252
  689MOL0     C94994   6.691   4.086   1.059  0.2384  0.5422 -0.6642
  689MOL0     N94995   6.463   3.541   0.623  0.4911 -0.5643  0.2012
  689MOL0     N94996   6.431   3.417   0.644  0.3165 -0.2235 -0.8115
  689MOL0     C94997   5.693   2.955   1.281 -1.3458  0.2849 -0.2172
  689MOL0     C94998   5.763   2.927   1.405 -0.0621 -0.1079  0.3307
  689MOL0     C94999   6.084   3.070   1.737  0.6579 -0.5983 -0.4725
  689MOL0     C95000   6.104   3.129   1.867  1.2658 -0.3330  0.3370
  689MOL0     C95001   6.217   3.120   1.942  0.1680 -0.7279  0.2770
  689MOL0     C95002   6.328   3.059   1.889  0.1685 -0.2345  0.7190
  689MOL0     O95003   6.448   3.051   1.955 -0.2121 -0.7738  0.4255
  689MOL0     C95004   6.469   3.093   2.086  0.4276 -0.1402  0.3692
  689MOL0     C95005   6.495   3.240   2.087 -0.0715 -0.6669 -0.3999
  689MOL0     C95006   6.642   3.292   2.044  0.2969  0.6821  0.0133
  689MOL0     C95007   6.647   3.439   2.050 -0.0604 -0.6410 -0.9192
  689MOL0     C95008   6.774   3.495   2.005  0.0967 -0.4241 -1.3115
  689MOL0     C95009   6.881   3.538   1.971 -0.8342 -0.4505  1.0967
  689MOL0     C95010   6.315   2.997   1.765  0.3852 -0.7803  0.2447
  689MOL0     C95011   6.202   3.003   1.690  0.1999  0.7828  0.1259
  689MOL0     C95012   6.202   2.966   1.540 -0.5029 -0.1150  0.3856
  689MOL0     H95013   5.885   3.249   1.447  1.0925  0.5772 -5.9955
  689MOL0     H95014   5.741   3.287   1.259  1.3374  0.0045 -0.2037
  689MOL0     H95015   5.714   3.270   1.046 -0.3302  2.0164 -1.1172
  689MOL0     H95016   5.541   3.278   1.032 -0.4756 -0.4653 -1.1100
  689MOL0     H95017   5.569   3.116   0.838  3.4533 -3.9447 -1.3832
  689MOL0     H95018   5.645   3.259   0.800 -0.0569 -1.9260 -1.6355
  689MOL0     H95019   5.800   3.016   0.891  3.1440  1.0767 -0.0231
  689MOL0     H95020   5.793   3.106   0.741  1.3398  0.0413  0.5435
  689MOL0     H95021   5.908   3.301   0.879  0.6611 -0.0768 -1.6368
  689MOL0     H95022   5.919   3.182   1.006 -2.4088 -2.3718 -0.2038
  689MOL0     H95023   6.029   3.165   0.716 -1.0664 -1.3976 -0.8859
  689MOL0     H95024   6.032   3.024   0.807  3.6259 -0.4110 -3.1223
  689MOL0     H95025   6.154   3.131   0.999  1.8287 -3.0792 -1.0109
  689MOL0     H95026   6.236   3.079   0.848  0.8915  1.5158 -1.7800
  689MOL0     H95027   6.226   3.361   0.946  0.3722  1.9179 -1.1231
  689MOL0     H95028   6.185   3.332   0.780  0.1725 -1.3325 -1.5142
  689MOL0     H95029   6.434   3.267   0.938 -1.0312  4.2496  1.1373
  689MOL0     H95030   6.396   3.195   0.774 -0.9343 -0.1054 -0.6411
  689MOL0     H95031   6.489   3.520   0.946 -0.0891 -1.9146  0.0823
  689MOL0     H95032   6.526   3.781   0.842 -3.7156  0.2453  0.1111
  689MOL0     H95033   6.478   3.802   0.687 -3.2522  0.3328  4.1242
  689MOL0     H95034   6.761   3.713   0.751 -2.1085 -3.2138 -0.7004
  689MOL0     H95035   6.691   3.711   0.590  0.2742  0.9336 -0.3537
  689MOL0     H95036   6.831   3.918   0.618 -0.6930  2.3844 -2.0070
  689MOL0     H95037   6.672   3.949   0.568  1.5733  0.8040 -0.9914
  689MOL0     H95038   6.726   4.102   0.758 -1.4457 -0.4753 -0.0535
  689MOL0     H95039   6.609   4.003   0.815 -0.0709  2.8109 -0.2859
  689MOL0     H95040   7.010   3.999   1.000  0.0112 -0.6064  1.9199
  689MOL0     H95041   7.125   4.149   1.271 -2.8496 -1.9306 -0.0791
  689MOL0     H95042   7.110   4.297   1.181 -3.0212  1.1454  0.0384
  689MOL0     H95043   7.168   4.147   1.098  1.7767 -0.5485  1.9182
  689MOL0     H95044   7.004   4.292   1.661  0.0964  1.0186  1.8633
  689MOL0     H95045   6.974   4.486   1.828 -1.7173 -0.8049 -0.3586
  689MOL0     H95046   6.930   4.831   1.959  2.1296 -0.3939  1.1575
  689MOL0     H95047   6.904   4.660   1.961  1.3162 -0.5406  2.8831
  689MOL0     H95048   7.149   4.631   1.919  1.7467  0.6133  1.6776
  689MOL0     H95049   7.168   4.789   1.852 -1.3171  0.6971 -1.3241
  689MOL0     H95050   7.097   4.867   2.109 -1.8445 -1.1957  3.4144
  689MOL0     H95051   7.254   4.787   2.082  0.5388 -4.7587  0.0503
  689MOL0     H95052   7.215   4.587   2.147  0.5401 -1.0161 -2.3425
  689MOL0     H95053   7.045   4.605   2.186 -0.2651 -1.3129 -2.3583
  689MOL0     H95054   7.268   4.758   2.321 -1.0514  0.0964  0.8197
  689MOL0     H95055   7.102   4.803   2.342  1.5690  0.8985  0.1827
  689MOL0     H95056   7.233   4.528   2.408  1.4486  0.5649  3.7206
  689MOL0     H95057   7.064   4.555   2.437  0.6161 -0.7633  0.7237
  689MOL0     H95058   7.102   4.753   2.583  0.9425  0.7537 -1.0892
  689MOL0     H95059   7.279   4.732   2.575 -0.2787 -0.5699 -0.3821
  689MOL0     H95060   7.246   4.622   2.759  2.2488  1.5130 -0.6548
  689MOL0     H95061   7.244   4.487   2.649 -1.2045 -0.3225  0.9746
  689MOL0     H95062   6.850   4.748   1.519  2.7679  0.3009 -3.0470
  689MOL0     H95063   6.907   4.562   1.354  2.3704  0.4147  0.4143
  689MOL0     H95064   6.619   4.225   1.207  0.1904  0.1040 -1.6069
  689MOL0     H95065   6.589   4.070   1.025 -0.9010  0.4043  2.5235
  689MOL0     H95066   5.651   2.875   1.220 -4.1260 -0.3457  2.2437
  689MOL0     H95067   5.752   2.822   1.432 -1.5863 -0.9318 -3.0302
  689MOL0     H95068   6.023   3.197   1.893  0.8401 -0.0386 -1.5609
  689MOL0     H95069   6.229   3.173   2.036 -4.3958  2.7333 -0.7597
  689MOL0     H95070   6.386   3.062   2.150  0.3976 -0.3696  0.2187
  689MOL0     H95071   6.560   3.044   2.121  0.0545 -0.9243  0.2482
  689MOL0     H95072   6.490   3.266   2.193 -0.2143  0.5789 -0.6927
  689MOL0     H95073   6.427   3.298   2.024 -0.1885  4.2503  3.5924
  689MOL0     H95074   6.728   3.249   2.094  0.2004 -0.6731 -0.9251
  689MOL0     H95075   6.658   3.266   1.939  1.8308 -0.4600  0.5054
  689MOL0     H95076   6.626   3.467   2.153  0.5460  0.9080 -1.1910
  689MOL0     H95077   6.572   3.483   1.984  1.9909  0.7413 -2.4361
  689MOL0     H95078   6.981   3.571   1.951 -0.6429 -2.8189 -3.2424
  689MOL0     H95079   6.404   2.963   1.713 -0.4895 -1.6602 -0.7333
  689MOL0     H95080   6.296   2.943   1.488 -2.1508 -3.3944 -1.5129
  689MOL0     H95081   6.151   2.869   1.534 -0.9447  0.0189  1.6674
  689MOL0     H95082   6.149   3.029   1.468  0.6644 -2.1534 -2.4549
  690MOL0     O95083   0.979  10.932  10.853 -0.7335  0.6291  0.9392
  690MOL0     C95084   0.897  11.023  10.853 -0.9186  0.4266  0.4005
  690MOL0     O95085   0.840  11.078  10.963  0.1884 -0.4380  1.1415
  690MOL0     C95086   0.872  11.035  11.087  0.4661  0.7352 -0.4717
  690MOL0     C95087   1.001  11.017  11.151  0.5152 -0.4779  0.0450
  690MOL0     C95088   1.009  10.974  11.279  0.1238 -0.2936 -0.9050
  690MOL0     C95089   0.902  10.930  11.355  0.5013 -0.0669  0.0933
  690MOL0     O95090   0.913  10.882  11.483  0.4068  0.3142  0.2091
  690MOL0     C95091   1.011  10.780  11.516  0.9665 -0.5556 -0.6705
  690MOL0     C95092   0.996  10.716  11.665  0.6272  0.3386 -0.2597
  690MOL0     C95093   1.091  10.595  11.687 -0.6031  0.4638  0.3241
  690MOL0     C95094   1.019  10.479  11.770 -0.1504 -0.0283  0.2868
  690MOL0     C95095   1.121  10.364  11.785  0.0460 -0.3105 -0.7633
  690MOL0     C95096   1.062  10.229  11.819 -0.0338  0.0405 -0.8242
  690MOL0     C95097   0.950  10.248  11.927 -0.1837  0.7045  0.0028
  690MOL0     C95098   0.924  10.126  12.023 -0.2183  0.4176  0.3742
  690MOL0     N95099   0.834  10.170  12.139 -0.6161  0.0297 -0.2347
  690MOL0     C95100   0.751  10.084  12.204 -0.1025 -0.4067 -0.2946
  690MOL0     C95101   0.701  10.158  12.304  0.2095  0.5496  0.5350
  690MOL0     C95102   0.603  10.099  12.403 -0.1392  0.0081  0.3031
  690MOL0     C95103   0.585  10.179  12.530 -0.8010  0.3340  0.7214
  690MOL0     C95104   0.505  10.103  12.645 -0.1453  0.1285 -0.6194
  690MOL0     C95105   0.573   9.992  12.729 -0.0121  0.0690 -0.7391
  690MOL0     O95106   0.701  10.025  12.791 -0.1467 -0.0841 -0.0906
  690MOL0     C95107   0.703  10.140  12.870 -0.2034  0.1653 -0.0860
  690MOL0     C95108   0.618  10.149  12.977  0.8259 -0.7446  0.4763
  690MOL0     C95109   0.610  10.260  13.057 -0.5598  0.3260  0.3035
  690MOL0     C95110   0.519  10.252  13.170 -0.4148 -0.1746 -0.1391
  690MOL0     C95111   0.699  10.369  13.023  0.7550  0.8122 -0.7176
  690MOL0     C95112   0.692  10.515  13.081 -0.1184  0.2684 -0.3092
  690MOL0     O95113   0.608  10.524  13.192  0.5332  0.8587 -0.5858
  690MOL0     C95114   0.569  10.647  13.246  0.0711 -0.2470 -0.4070
  690MOL0     C95115   0.541  10.754  13.167 -0.5900  0.3604 -0.3707
  690MOL0     C95116   0.491  10.874  13.214 -0.4208 -0.9001  0.2560
  690MOL0     C95117   0.486  10.901  13.352  0.2476  1.2170  0.9781
  690MOL0     O95118   0.447  11.016  13.407 -0.0376  0.0214  0.2910
  690MOL0     C95119   0.511  11.129  13.335  0.3882 -0.3439 -0.4669
  690MOL0     C95120   0.401  11.198  13.258 -0.1997  0.0815  0.3499
  690MOL0     C95121   0.475  11.316  13.187 -0.0744  0.6043 -0.0300
  690MOL0     C95122   0.382  11.392  13.098  0.3012 -0.3850 -0.5133
  690MOL0     C95123   0.296  11.502  13.172 -0.2229  0.0973  0.2455
  690MOL0     C95124   0.221  11.592  13.069 -0.8672  0.0568 -0.5127
  690MOL0     C95125   0.140  11.700  13.142 -0.0896  0.1278  0.1377
  690MOL0     C95126   0.225  11.810  13.191 -0.0782 -0.8130  0.2779
  690MOL0    Cl95127   0.125  11.937  13.252 -0.1251  0.3111  0.3593
  690MOL0     C95128   0.517  10.791  13.432  0.7364 -0.1571  0.4519
  690MOL0     C95129   0.560  10.668  13.388 -0.9579 -0.3167  0.0706
  690MOL0     O95130   0.766  10.601  13.041  0.8529 -0.7479  0.0137
  690MOL0     C95131   0.799  10.348  12.928 -0.2714  0.3833 -0.4769
  690MOL0     C95132   0.797  10.229  12.845 -0.0912 -1.1166 -0.4759
  690MOL0     N95133   0.752  10.282  12.297  1.0224  0.4089 -0.1179
  690MOL0     N95134   0.831  10.290  12.190  0.0608 -0.4357 -0.3618
  690MOL0     C95135   0.781  10.949  11.300 -1.0428 -0.7658  0.0323
  690MOL0     C95136   0.762  10.995  11.163  0.0673  0.2643  0.3150
  690MOL0     C95137   0.856  11.095  10.727  0.5544 -0.4077 -0.4230
  690MOL0     C95138   0.766  11.205  10.743  0.0426  0.6503 -0.4524
  690MOL0     C95139   0.740  11.290  10.638 -1.1199  0.3183  0.3039
  690MOL0     C95140   0.782  11.256  10.504  0.7055 -0.6606 -1.0550
  690MOL0     O95141   0.748  11.353  10.412 -0.2896  1.0270 -0.1237
  690MOL0     C95142   0.810  11.339  10.288  0.0835 -0.3512  0.4157
  690MOL0     C95143   0.702  11.296  10.181 -0.1897 -1.2395  0.0205
  690MOL0     C95144   0.673  11.148  10.173 -0.0626  0.3380 -0.1760
  690MOL0     C95145   0.781  11.064  10.095 -0.7178  0.2295 -0.0641
  690MOL0     C95146   0.805  11.124   9.965 -0.8567  0.3502  0.0028
  690MOL0     C95147   0.835  11.166   9.856 -0.1182  0.7986 -0.3993
  690MOL0     C95148   0.845  11.129  10.485 -0.0596 -0.0804  0.0781
  690MOL0     C95149   0.896  11.060  10.597 -0.6983 -0.1500  0.2159
  690MOL0     C95150   1.004  10.957  10.572  0.0706 -1.1547 -0.0076
  690MOL0     H95151   1.093  11.021  11.094  0.8184  0.5194  0.5881
  690MOL0     H95152   1.106  10.971  11.327  0.2554  1.4378 -0.9908
  690MOL0     H95153   1.113  10.813  11.496  1.7709 -0.2115  3.2260
  690MOL0     H95154   0.995  10.697  11.446 -0.9240  0.0048 -0.9639
  690MOL0     H95155   1.041  10.796  11.725  0.7593  0.9096 -1.1141
  690MOL0     H95156   0.891  10.700  11.691  1.0539 -0.6225  1.0032
  690MOL0     H95157   1.123  10.550  11.593 -0.3598  2.2116 -0.4510
  690MOL0     H95158   1.179  10.626  11.745 -0.1885  0.9604 -0.5685
  690MOL0     H95159   0.982  10.520  11.864 -0.9407  1.1526 -0.5162
  690MOL0     H95160   0.932  10.456  11.708 -2.9494  2.2812  3.0395
  690MOL0     H95161   1.197  10.405  11.853 -0.7280 -1.5652  0.8998
  690MOL0     H95162   1.180  10.347  11.694  0.0933 -0.6842 -0.6629
  690MOL0     H95163   1.042  10.166  11.731  2.7860 -1.3162 -0.5901
  690MOL0     H95164   1.143  10.170  11.862 -0.2667  1.4963  1.8223
  690MOL0     H95165   0.853  10.245  11.878  0.6965 -0.6397 -1.7717
  690MOL0     H95166   0.973  10.338  11.985  0.8069  1.2144 -1.1373
  690MOL0     H95167   0.883  10.048  11.959 -0.4916  2.5828 -2.2798
  690MOL0     H95168   1.016  10.078  12.058 -1.9414 -2.3214  1.3828
  690MOL0     H95169   0.740   9.979  12.176 -0.1023 -0.4263 -0.2222
  690MOL0     H95170   0.644  10.012  12.456  2.0348 -0.4747 -1.9972
  690MOL0     H95171   0.512  10.057  12.360  0.5723  1.0588 -2.4853
  690MOL0     H95172   0.686  10.194  12.570 -0.5274 -0.6824  0.4512
  690MOL0     H95173   0.550  10.278  12.498 -2.5090 -0.2427  0.6772
  690MOL0     H95174   0.478  10.174  12.724  0.7288 -1.2180  0.9568
  690MOL0     H95175   0.414  10.056  12.607 -0.4316 -1.5679  1.9226
  690MOL0     H95176   0.491   9.959  12.794  0.9182  0.2157  0.5322
  690MOL0     H95177   0.603   9.904  12.672  1.0956 -0.6481  0.8612
  690MOL0     H95178   0.547  10.069  12.999  0.7319 -0.5919  0.7346
  690MOL0     H95179   0.564  10.231  13.268 -1.7078 -4.2144 -0.2262
  690MOL0     H95180   0.446  10.174  13.146 -0.9081  0.5358 -0.9941
  690MOL0     H95181   0.454  10.339  13.183  2.7831  2.5098 -0.7921
  690MOL0     H95182   0.544  10.739  13.060 -3.5946  0.2488 -0.5310
  690MOL0     H95183   0.456  10.943  13.139  3.3496 -4.2624 -5.3718
  690MOL0     H95184   0.551  11.195  13.412  3.6470 -1.1882 -1.3071
  690MOL0     H95185   0.595  11.097  13.274  1.3760 -0.7534  1.0422
  690MOL0     H95186   0.343  11.143  13.183 -2.8097  1.1693  1.4217
  690MOL0     H95187   0.336  11.226  13.341  0.9306 -1.1652  1.7204
  690MOL0     H95188   0.554  11.275  13.123  0.0961  0.0318  0.5357
  690MOL0     H95189   0.522  11.382  13.261  0.4184  0.8557 -0.5610
  690MOL0     H95190   0.325  11.327  13.032 -1.3286 -0.0389  0.4870
  690MOL0     H95191   0.444  11.460  13.039  1.0329  1.1771  1.8880
  690MOL0     H95192   0.226  11.461  13.246 -1.7998  1.8245 -0.1972
  690MOL0     H95193   0.364  11.564  13.230  1.1429 -0.8309 -0.3213
  690MOL0     H95194   0.156  11.523  13.014 -0.0976  1.0984 -2.8537
  690MOL0     H95195   0.287  11.642  12.999  0.5118  2.5470  2.3408
  690MOL0     H95196   0.083  11.656  13.225 -0.8176 -0.3982 -0.6263
  690MOL0     H95197   0.076  11.756  13.074  1.3478  2.1418  0.3707
  690MOL0     H95198   0.287  11.840  13.105  0.3051 -0.0417  0.8115
  690MOL0     H95199   0.298  11.777  13.265  0.0642 -1.1050  0.0100
  690MOL0     H95200   0.498  10.815  13.536 -1.3243  0.6146 -0.0627
  690MOL0     H95201   0.582  10.585  13.454  0.9150 -0.4234 -0.6290
  690MOL0     H95202   0.869  10.425  12.897 -1.6541  1.2264 -1.6480
  690MOL0     H95203   0.856  10.217  12.754 -0.2930 -2.6384 -0.4292
  690MOL0     H95204   0.704  10.909  11.365  0.5384 -1.9393  1.2660
  690MOL0     H95205   0.665  11.005  11.117  0.7787 -0.5627 -1.4379
  690MOL0     H95206   0.730  11.248  10.836  1.7179  3.0753 -0.8225
  690MOL0     H95207   0.677  11.377  10.654  0.3974  1.1747  1.9884
  690MOL0     H95208   0.838  11.440  10.258  3.3601 -1.8713 -2.2661
  690MOL0     H95209   0.910  11.296  10.279  0.3761  0.4695 -0.4379
  690MOL0     H95210   0.729  11.330  10.081  0.6129 -0.2938  0.5320
  690MOL0     H95211   0.611  11.354  10.199  1.1728  1.7803 -1.9023
  690MOL0     H95212   0.661  11.100  10.270 -2.4019  1.1861  0.0155
  690MOL0     H95213   0.582  11.129  10.115 -0.1242  0.3875 -0.0938
  690MOL0     H95214   0.741  10.963  10.079 -0.8191 -0.0219  1.6096
  690MOL0     H95215   0.871  11.047  10.154  1.7787  2.4331 -2.9143
  690MOL0     H95216   0.876  11.197   9.761 -1.6236  1.5450 -0.8330
  690MOL0     H95217   0.863  11.089  10.386 -1.9575  3.0649 -1.7099
  690MOL0     H95218   1.011  10.932  10.465 -0.1233  2.7236 -1.0925
  690MOL0     H95219   1.098  10.993  10.615 -0.8625  2.6146 -0.7675
  690MOL0     H95220   0.981  10.863  10.622 -0.0152 -1.7245 -1.0737
  691MOL0     O95221   2.102   3.920   2.320 -0.1201  0.3916 -0.1300
  691MOL0     C95222   2.190   3.833   2.310 -0.1462  0.1682  0.3895
  691MOL0     O95223   2.219   3.741   2.409  0.0248 -0.0787  0.4468
  691MOL0     C95224   2.152   3.738   2.530  1.0175  0.4111  0.4722
  691MOL0     C95225   2.011   3.750   2.554  1.2333  0.1292  0.7030
  691MOL0     C95226   1.957   3.722   2.683 -0.1588  0.2352  0.5500
  691MOL0     C95227   2.050   3.695   2.790 -0.4455  0.4690 -0.5466
  691MOL0     O95228   2.014   3.696   2.927 -0.2756 -0.8214  0.2033
  691MOL0     C95229   1.882   3.652   2.959  0.3126 -0.2108 -0.2232
  691MOL0     C95230   1.833   3.665   3.107 -0.7935 -0.1420  0.4623
  691MOL0     C95231   1.857   3.527   3.181  0.6318  0.9862 -0.5852
  691MOL0     C95232   1.805   3.541   3.324  0.1609  0.2178  0.4963
  691MOL0     C95233   1.874   3.645   3.417 -0.1006  0.4969  0.2464
  691MOL0     C95234   2.016   3.602   3.446 -0.0856 -0.0038  0.0309
  691MOL0     C95235   2.086   3.699   3.530 -0.5624  0.5775  0.6516
  691MOL0     C95236   2.129   3.831   3.464 -0.3936 -0.1409  0.2417
  691MOL0     N95237   2.233   3.904   3.537  0.7173  0.1545 -0.2878
  691MOL0     C95238   2.265   3.868   3.668  0.6451  0.3897  0.0391
  691MOL0     C95239   2.356   3.958   3.700 -0.0416  0.4602 -0.0316
  691MOL0     C95240   2.426   3.953   3.826  0.3285 -0.1779 -0.1427
  691MOL0     C95241   2.462   4.100   3.885  0.6644  0.2527  0.0499
  691MOL0     C95242   2.331   4.158   3.933 -0.0134 -0.1920 -0.1167
  691MOL0     C95243   2.332   4.306   3.939  0.5657 -0.5986 -0.4118
  691MOL0     O95244   2.322   4.370   3.809 -0.0338 -0.2918  1.1754
  691MOL0     C95245   2.198   4.400   3.758  0.8133  0.9253 -0.1993
  691MOL0     C95246   2.087   4.467   3.819  0.3951  0.2224 -0.4219
  691MOL0     C95247   1.958   4.481   3.764  0.6313 -0.0172  0.8329
  691MOL0     C95248   1.848   4.556   3.831  0.1222  0.1873 -0.1404
  691MOL0     C95249   1.935   4.425   3.634  0.2257  0.0430  0.0701
  691MOL0     C95250   1.803   4.432   3.571 -0.5592 -0.7064  0.8258
  691MOL0     O95251   1.815   4.489   3.442  0.1360 -0.2741  0.3160
  691MOL0     C95252   1.707   4.516   3.360 -1.7948  1.2376 -0.0993
  691MOL0     C95253   1.728   4.469   3.225  0.4589 -0.1576  0.1852
  691MOL0     C95254   1.638   4.482   3.125  0.6499 -0.2742  0.1115
  691MOL0     C95255   1.506   4.517   3.163 -0.5060 -0.8465  0.4814
  691MOL0     O95256   1.404   4.531   3.070 -1.0488 -0.8103 -0.0132
  691MOL0     C95257   1.432   4.497   2.935  0.0215 -0.6250 -0.2937
  691MOL0     C95258   1.290   4.472   2.872 -0.0059  0.0618 -0.1589
  691MOL0     C95259   1.299   4.401   2.734  0.4706  0.0093 -0.5520
  691MOL0     C95260   1.325   4.491   2.609  0.4522 -0.2849  0.4771
  691MOL0     C95261   1.358   4.400   2.496  0.4920  0.2209 -0.0393
  691MOL0     C95262   1.403   4.491   2.378 -0.5316  0.9545  0.6529
  691MOL0     C95263   1.449   4.409   2.256 -0.0864 -0.3334 -0.1581
  691MOL0     C95264   1.513   4.504   2.150 -0.3333 -0.4403 -0.0633
  691MOL0    Cl95265   1.657   4.599   2.197 -0.1083 -0.0089  0.3557
  691MOL0     C95266   1.475   4.536   3.299 -0.8273  0.2231  0.2538
  691MOL0     C95267   1.581   4.547   3.394  0.6482 -0.8488  0.8087
  691MOL0     O95268   1.702   4.390   3.622 -0.3117 -0.1284 -0.9770
  691MOL0     C95269   2.041   4.374   3.565  0.0339  1.2754 -0.5431
  691MOL0     C95270   2.164   4.352   3.632 -0.2698 -1.3264  0.2120
  691MOL0     N95271   2.379   4.048   3.594 -0.5270 -0.6810  0.2886
  691MOL0     N95272   2.300   4.016   3.495 -0.4205  0.2792 -0.6656
  691MOL0     C95273   2.189   3.677   2.762 -0.7792  0.4846 -0.9560
  691MOL0     C95274   2.232   3.704   2.633 -1.0134  0.0285  0.6119
  691MOL0     C95275   2.271   3.821   2.186 -0.7063  0.5373  0.2083
  691MOL0     C95276   2.389   3.742   2.189  0.7705  0.6085 -1.0656
  691MOL0     C95277   2.436   3.695   2.067 -0.7952  0.9342 -0.0152
  691MOL0     C95278   2.391   3.749   1.944  0.1992  0.8235 -0.9883
  691MOL0     O95279   2.444   3.709   1.821 -0.4705 -0.8331  0.7726
  691MOL0     C95280   2.541   3.595   1.807  0.0289 -0.6055  0.4995
  691MOL0     C95281   2.468   3.460   1.837  0.1275 -1.3820 -0.3112
  691MOL0     C95282   2.379   3.424   1.717  0.0271  0.4155 -0.3420
  691MOL0     C95283   2.282   3.308   1.739  0.7388 -0.2154  0.4475
  691MOL0     C95284   2.228   3.315   1.879  0.2872  0.5736  0.2423
  691MOL0     C95285   2.164   3.334   1.982 -0.3162 -0.6290 -0.0483
  691MOL0     C95286   2.297   3.847   1.946 -0.1274  0.2278  1.0915
  691MOL0     C95287   2.229   3.884   2.065 -0.6561  0.1140  0.3370
  691MOL0     C95288   2.131   3.995   2.042 -0.3723 -0.1773 -0.7493
  691MOL0     H95289   1.954   3.785   2.469  1.0472 -1.2285  0.2504
  691MOL0     H95290   1.851   3.735   2.703 -0.1841 -1.3442  1.5932
  691MOL0     H95291   1.855   3.554   2.918  2.0950 -0.4088 -1.0289
  691MOL0     H95292   1.822   3.729   2.909 -0.1214  0.9712  1.9864
  691MOL0     H95293   1.891   3.747   3.151  0.5268 -0.7975  0.0229
  691MOL0     H95294   1.727   3.691   3.102 -0.3056  1.7626 -2.3829
  691MOL0     H95295   1.804   3.447   3.129  3.1794 -1.2457  0.0473
  691MOL0     H95296   1.961   3.493   3.179  0.3502  0.1189 -2.5511
  691MOL0     H95297   1.706   3.584   3.305 -0.2809 -1.9389 -2.9041
  691MOL0     H95298   1.809   3.440   3.365  0.2130 -2.2081 -4.6511
  691MOL0     H95299   1.809   3.642   3.505 -1.0518 -1.8308 -0.4692
  691MOL0     H95300   1.884   3.745   3.373  1.7773 -1.4489 -4.4232
  691MOL0     H95301   2.027   3.497   3.475  2.0420  0.3557  0.6770
  691MOL0     H95302   2.058   3.602   3.346 -2.2744  0.3169 -0.9546
  691MOL0     H95303   2.180   3.650   3.555  1.2959  2.4770 -1.9973
  691MOL0     H95304   2.027   3.724   3.620  0.3592 -0.0459  1.4419
  691MOL0     H95305   2.175   3.817   3.366  0.6283  1.6384  0.4236
  691MOL0     H95306   2.037   3.888   3.448 -1.6140 -2.2551 -0.6428
  691MOL0     H95307   2.238   3.787   3.736 -2.3407  1.4243  0.2476
  691MOL0     H95308   2.523   3.902   3.817 -0.2728 -1.4356  0.2361
  691MOL0     H95309   2.367   3.905   3.905 -0.6402  1.4908  0.1819
  691MOL0     H95310   2.542   4.084   3.957  2.5925 -0.1870 -2.0862
  691MOL0     H95311   2.515   4.142   3.799 -1.8777  1.3368 -1.1073
  691MOL0     H95312   2.246   4.136   3.867  2.4456 -1.9494 -2.9281
  691MOL0     H95313   2.320   4.128   4.038  3.9751  5.7510  2.5634
  691MOL0     H95314   2.252   4.338   4.007  3.0942 -1.9031  3.5142
  691MOL0     H95315   2.424   4.335   3.990  0.3999 -3.3788  1.6787
  691MOL0     H95316   2.117   4.519   3.909  2.9001 -0.5318 -0.7458
  691MOL0     H95317   1.754   4.505   3.856 -0.5274  2.0566  1.4761
  691MOL0     H95318   1.808   4.630   3.762  0.6258 -0.8463 -1.5959
  691MOL0     H95319   1.884   4.598   3.925  2.6128 -3.9777  1.0290
  691MOL0     H95320   1.825   4.421   3.217  0.5029  0.0232 -0.4115
  691MOL0     H95321   1.689   4.455   3.034  0.2001  0.8053 -0.4774
  691MOL0     H95322   1.495   4.579   2.900 -0.3039 -0.4959 -0.5801
  691MOL0     H95323   1.494   4.407   2.925 -0.5667 -1.4145  2.3108
  691MOL0     H95324   1.243   4.396   2.935  3.3890 -1.2977  0.9204
  691MOL0     H95325   1.230   4.563   2.857  0.6962  0.0448 -4.2669
  691MOL0     H95326   1.200   4.356   2.727 -0.7959  2.5436  0.1792
  691MOL0     H95327   1.366   4.316   2.751  0.1611 -0.0975  0.1965
  691MOL0     H95328   1.410   4.557   2.629  1.7019 -1.3891 -0.9726
  691MOL0     H95329   1.247   4.567   2.593  2.1738  1.6856  0.9980
  691MOL0     H95330   1.430   4.323   2.528 -1.8816 -2.4698 -0.7070
  691MOL0     H95331   1.272   4.342   2.461  0.2782  1.1830 -1.1755
  691MOL0     H95332   1.494   4.545   2.408  2.8521 -4.2096  0.9216
  691MOL0     H95333   1.326   4.563   2.347 -0.0785  2.4927  2.8806
  691MOL0     H95334   1.370   4.349   2.210 -1.0878  0.9926 -0.2071
  691MOL0     H95335   1.528   4.339   2.288 -2.2280 -1.1084  4.1593
  691MOL0     H95336   1.434   4.575   2.122  1.6718  0.9114 -2.7847
  691MOL0     H95337   1.538   4.445   2.061 -0.8121  0.0143 -0.5125
  691MOL0     H95338   1.371   4.556   3.321 -1.6975 -3.3818 -0.1089
  691MOL0     H95339   1.538   4.567   3.492  0.5038  2.9794  0.1089
  691MOL0     H95340   2.034   4.349   3.459  3.5465  1.2051 -0.8630
  691MOL0     H95341   2.251   4.313   3.579  1.6346  1.6845  0.8852
  691MOL0     H95342   2.264   3.659   2.838 -1.0426  2.8805 -0.0314
  691MOL0     H95343   2.338   3.690   2.614 -0.4791  1.1183  2.4896
  691MOL0     H95344   2.430   3.712   2.285 -0.7812 -1.3452 -0.9548
  691MOL0     H95345   2.514   3.619   2.065 -1.4151  0.1912  2.0232
  691MOL0     H95346   2.589   3.597   1.709 -2.6442 -1.0191 -0.9096
  691MOL0     H95347   2.625   3.617   1.874  1.9816 -0.9339 -1.7183
  691MOL0     H95348   2.414   3.477   1.930  1.7077  3.4317 -0.0336
  691MOL0     H95349   2.551   3.389   1.845 -1.9677 -3.8170  1.3446
  691MOL0     H95350   2.317   3.509   1.687 -0.5891 -0.0143 -0.2965
  691MOL0     H95351   2.445   3.392   1.636  0.1913  3.0626 -1.3687
  691MOL0     H95352   2.328   3.210   1.724 -2.0170 -1.4649 -0.6498
  691MOL0     H95353   2.208   3.326   1.660  0.5677  1.8766  1.0262
  691MOL0     H95354   2.118   3.373   2.070  2.3198  2.9935 -0.0556
  691MOL0     H95355   2.285   3.893   1.849  1.0174 -3.9767 -1.3114
  691MOL0     H95356   2.176   4.085   2.084  0.5795 -1.3636  0.9101
  691MOL0     H95357   2.110   4.015   1.937  1.8882  0.4863 -1.1275
  691MOL0     H95358   2.036   3.983   2.096  0.3512 -2.2979  0.1900
  692MOL0     O95359   4.052   5.517   1.245  0.1262  0.7876 -0.2494
  692MOL0     C95360   4.087   5.604   1.167 -0.1719  0.3690 -0.0369
  692MOL0     O95361   4.133   5.725   1.197  0.4670 -0.0508 -0.0154
  692MOL0     C95362   4.166   5.752   1.327 -0.6587  1.2356  0.0043
  692MOL0     C95363   4.093   5.838   1.408  0.6145 -0.6326 -0.2431
  692MOL0     C95364   4.140   5.853   1.542  0.0745  0.5736 -0.5488
  692MOL0     C95365   4.233   5.768   1.603 -0.6338 -0.3701 -0.3945
  692MOL0     O95366   4.277   5.797   1.726  0.1006 -0.5774 -0.1530
  692MOL0     C95367   4.267   5.683   1.811  0.9137  0.5326 -0.4634
  692MOL0     C95368   4.389   5.673   1.894 -0.4173 -0.4788 -0.1957
  692MOL0     C95369   4.424   5.796   1.975 -0.3146 -0.1263 -0.3916
  692MOL0     C95370   4.505   5.765   2.108  1.0050 -0.0828  0.0746
  692MOL0     C95371   4.654   5.738   2.078 -0.0623 -1.1478  0.4357
  692MOL0     C95372   4.742   5.728   2.204 -0.4188 -0.6087  0.4315
  692MOL0     C95373   4.670   5.660   2.331 -0.1703 -0.3389 -0.5602
  692MOL0     C95374   4.776   5.596   2.433 -0.4982  0.5362 -0.6507
  692MOL0     N95375   4.718   5.514   2.535  0.1513 -0.1302  0.0097
  692MOL0     C95376   4.738   5.512   2.671 -0.1444 -0.7129  0.5064
  692MOL0     C95377   4.667   5.406   2.723 -0.4152 -0.1335 -0.4043
  692MOL0     C95378   4.693   5.346   2.857 -0.2298 -0.1717 -0.1237
  692MOL0     C95379   4.575   5.260   2.908 -0.1205  0.0599  0.7100
  692MOL0     C95380   4.450   5.359   2.924  0.4188  0.7401  0.5667
  692MOL0     C95381   4.340   5.305   3.017 -0.5171 -0.6181  0.7115
  692MOL0     O95382   4.286   5.192   2.955  0.6346  0.0576  0.2845
  692MOL0     C95383   4.176   5.118   3.008  0.1679 -0.0662 -0.0089
  692MOL0     C95384   4.116   5.014   2.935 -0.6946 -0.0425  0.5780
  692MOL0     C95385   4.012   4.938   2.974 -0.0413  0.0130 -0.3396
  692MOL0     C95386   3.963   4.835   2.871  0.5677 -0.7220  0.4400
  692MOL0     C95387   3.949   4.964   3.096 -0.2922 -0.4700  0.3309
  692MOL0     C95388   3.826   4.897   3.145  0.1858 -0.0434  0.1090
  692MOL0     O95389   3.770   4.934   3.263 -0.0538  0.0300 -0.3550
  692MOL0     C95390   3.635   4.895   3.295  0.4980 -0.2318  0.2534
  692MOL0     C95391   3.524   4.952   3.228  0.3087  1.2796  0.6605
  692MOL0     C95392   3.392   4.931   3.275 -0.7955  0.1817 -0.0454
  692MOL0     C95393   3.372   4.872   3.399 -0.1267 -0.1837 -0.3042
  692MOL0     O95394   3.251   4.856   3.462  1.2065 -0.6470  0.4998
  692MOL0     C95395   3.135   4.934   3.418  0.0287 -0.1573  0.0320
  692MOL0     C95396   3.026   4.925   3.523  0.3010 -0.0364 -0.3959
  692MOL0     C95397   2.892   5.007   3.490 -0.8268  0.4663  1.1790
  692MOL0     C95398   2.848   4.993   3.346 -0.5195  1.1099 -0.0579
  692MOL0     C95399   2.711   5.047   3.297 -0.6661 -0.2713  0.3819
  692MOL0     C95400   2.598   4.958   3.331  0.6857 -0.4258  0.1510
  692MOL0     C95401   2.481   4.985   3.228 -1.6130  0.7503  0.0417
  692MOL0     C95402   2.415   5.114   3.247  0.2271  0.0524  0.3930
  692MOL0    Cl95403   2.261   5.108   3.169 -0.2339  0.2361  0.4126
  692MOL0     C95404   3.482   4.821   3.469  0.1051 -0.3301  0.8686
  692MOL0     C95405   3.613   4.832   3.417  0.8041 -0.5733 -0.0977
  692MOL0     O95406   3.776   4.805   3.073 -0.4174  0.3164  0.7211
  692MOL0     C95407   4.002   5.069   3.174 -0.7034 -0.3779  0.5252
  692MOL0     C95408   4.120   5.142   3.135 -0.0896 -0.2464 -0.4658
  692MOL0     N95409   4.602   5.347   2.614  0.4329  0.5061 -0.1800
  692MOL0     N95410   4.629   5.413   2.504  0.5163 -0.4190  0.5571
  692MOL0     C95411   4.305   5.686   1.517  0.2538 -0.3626 -0.5787
  692MOL0     C95412   4.280   5.674   1.384  0.0326 -0.8845  0.9198
  692MOL0     C95413   4.060   5.575   1.030 -0.8091 -0.2679 -0.0111
  692MOL0     C95414   3.924   5.559   0.986  0.8518 -0.7976 -0.3150
  692MOL0     C95415   3.897   5.548   0.852  0.6090  0.1316  0.1222
  692MOL0     C95416   4.003   5.535   0.762 -0.3625  0.0170 -0.2672
  692MOL0     O95417   3.979   5.514   0.623 -0.0413 -0.9192 -0.2451
  692MOL0     C95418   3.871   5.430   0.578 -0.1615 -0.4266 -0.3903
  692MOL0     C95419   3.899   5.415   0.424  1.0201  0.0676 -0.2209
  692MOL0     C95420   3.800   5.331   0.344 -0.0302 -0.0706  0.0509
  692MOL0     C95421   3.654   5.356   0.370 -0.4557  0.1116  0.5315
  692MOL0     C95422   3.563   5.273   0.292 -0.4214  0.2891 -0.4133
  692MOL0     C95423   3.494   5.192   0.244  0.4036 -0.2230  0.8345
  692MOL0     C95424   4.129   5.534   0.803  0.2743 -1.1118 -0.3749
  692MOL0     C95425   4.164   5.563   0.936 -0.4786  0.3338 -0.2570
  692MOL0     C95426   4.308   5.584   0.973 -0.3675 -0.3881 -0.1583
  692MOL0     H95427   4.011   5.889   1.358  1.1506 -0.8859 -1.4352
  692MOL0     H95428   4.096   5.933   1.600 -2.6035 -0.3668 -1.1481
  692MOL0     H95429   4.241   5.587   1.765  1.8053  0.2883 -0.4657
  692MOL0     H95430   4.185   5.709   1.879  1.8482  3.1787 -0.2295
  692MOL0     H95431   4.363   5.586   1.955  0.7719 -1.3813 -0.9596
  692MOL0     H95432   4.473   5.654   1.827  1.2673 -0.0123  1.6631
  692MOL0     H95433   4.475   5.865   1.908 -1.2926  2.0999  1.0276
  692MOL0     H95434   4.334   5.854   2.000 -1.1773 -1.0564 -1.2148
  692MOL0     H95435   4.491   5.854   2.171 -1.5176 -1.1759  1.1965
  692MOL0     H95436   4.460   5.679   2.159  1.0999 -1.3127 -1.8093
  692MOL0     H95437   4.692   5.825   2.022  1.2681 -0.7126  1.9261
  692MOL0     H95438   4.668   5.646   2.021 -2.9297  0.1050 -2.5826
  692MOL0     H95439   4.840   5.687   2.180 -1.3465 -2.4517 -0.4259
  692MOL0     H95440   4.765   5.832   2.229 -1.6236  0.7418 -3.3491
  692MOL0     H95441   4.614   5.573   2.297  2.4810 -2.2963 -0.2701
  692MOL0     H95442   4.590   5.719   2.377 -1.1738 -1.1335 -1.2442
  692MOL0     H95443   4.843   5.530   2.377 -0.0665 -1.0474  1.6138
  692MOL0     H95444   4.831   5.682   2.472  1.8122 -0.6445 -1.1420
  692MOL0     H95445   4.799   5.582   2.727 -1.6002  0.9719  0.0770
  692MOL0     H95446   4.712   5.436   2.916  0.7155  2.4906 -4.1486
  692MOL0     H95447   4.788   5.293   2.869 -0.5763 -1.3003 -1.9919
  692MOL0     H95448   4.563   5.175   2.841  0.3065 -1.2246  2.1906
  692MOL0     H95449   4.602   5.217   3.005  1.1754 -1.6459 -0.3445
  692MOL0     H95450   4.470   5.458   2.965 -3.5013  2.6965 -1.6723
  692MOL0     H95451   4.405   5.363   2.825  0.5711 -0.4419  0.4363
  692MOL0     H95452   4.385   5.273   3.111 -2.1013 -1.4704  1.2215
  692MOL0     H95453   4.260   5.378   3.033  0.0281  0.8599 -2.4151
  692MOL0     H95454   4.167   5.012   2.839  1.9319  2.5406  1.7879
  692MOL0     H95455   3.855   4.846   2.857  0.8129  0.4211 -0.7350
  692MOL0     H95456   3.985   4.731   2.896 -2.6732 -1.0812  2.4464
  692MOL0     H95457   3.998   4.856   2.770  0.0805 -1.0423  0.1978
  692MOL0     H95458   3.540   5.020   3.145 -0.4778  0.3084 -0.3083
  692MOL0     H95459   3.319   4.969   3.204  0.7332  2.9954 -0.2772
  692MOL0     H95460   3.140   5.043   3.407  0.6845 -0.0480  1.2515
  692MOL0     H95461   3.105   4.904   3.317  2.7307  0.1159 -0.9087
  692MOL0     H95462   3.010   4.820   3.549  2.9817 -0.6838 -1.0780
  692MOL0     H95463   3.055   4.960   3.623 -0.3001 -3.7106  1.2502
  692MOL0     H95464   2.922   5.109   3.516  0.5077  0.8013 -1.3682
  692MOL0     H95465   2.814   4.968   3.556 -1.3561 -3.8112 -1.5577
  692MOL0     H95466   2.843   4.886   3.324 -3.3630  1.2371 -0.4316
  692MOL0     H95467   2.932   5.034   3.290  0.9217  0.1829  1.3470
  692MOL0     H95468   2.696   5.145   3.345 -1.1581  0.5691 -1.4002
  692MOL0     H95469   2.716   5.057   3.188 -2.5949  0.3469  0.2987
  692MOL0     H95470   2.573   4.971   3.437  0.4421 -1.7397  0.2718
  692MOL0     H95471   2.619   4.853   3.310 -2.7629 -1.0499 -0.8532
  692MOL0     H95472   2.413   4.899   3.235  0.7615 -1.1547  0.9033
  692MOL0     H95473   2.530   4.984   3.130  0.3935  1.1099  0.9899
  692MOL0     H95474   2.483   5.192   3.211  1.8638 -0.2988  2.5471
  692MOL0     H95475   2.391   5.126   3.353 -2.9611  0.7681 -0.3068
  692MOL0     H95476   3.467   4.793   3.573 -2.2982 -1.7142  0.1996
  692MOL0     H95477   3.701   4.793   3.468  0.9312  2.2904  2.1122
  692MOL0     H95478   3.955   5.083   3.270  0.1199 -2.0121  1.2043
  692MOL0     H95479   4.165   5.228   3.184 -1.3840 -0.5995  1.4916
  692MOL0     H95480   4.397   5.651   1.563 -0.9931 -3.1796 -0.0057
  692MOL0     H95481   4.332   5.606   1.316 -0.9577 -0.7798  0.0409
  692MOL0     H95482   3.843   5.575   1.057 -0.5601  1.8458 -2.3236
  692MOL0     H95483   3.798   5.548   0.807  0.0461  2.9542  1.1335
  692MOL0     H95484   3.886   5.335   0.631  0.9434 -0.0436  0.0109
  692MOL0     H95485   3.777   5.483   0.598  0.6894  0.7940  0.4985
  692MOL0     H95486   3.998   5.373   0.404  0.9215  0.8906 -2.7629
  692MOL0     H95487   3.891   5.513   0.377 -3.5759  0.3568  0.6442
  692MOL0     H95488   3.835   5.345   0.242  1.7824 -1.0053  0.5079
  692MOL0     H95489   3.821   5.226   0.364 -2.9033 -0.8089 -0.3161
  692MOL0     H95490   3.627   5.458   0.341  1.0444  0.0862 -1.1482
  692MOL0     H95491   3.631   5.339   0.475 -0.6331 -1.0355  0.3207
  692MOL0     H95492   3.432   5.108   0.220 -0.4742  0.0340  2.1086
  692MOL0     H95493   4.196   5.517   0.719 -1.0980  0.5720 -1.8912
  692MOL0     H95494   4.378   5.561   0.893  0.0008  5.1178 -1.8505
  692MOL0     H95495   4.338   5.683   1.009  1.5432 -1.9344  2.8907
  692MOL0     H95496   4.325   5.515   1.056 -0.2139  0.4483  0.5134
  693MOL0     O95497   3.461   6.703   6.901 -0.9637  0.5122 -0.1515
  693MOL0     C95498   3.524   6.775   6.825 -0.2540 -1.1514 -0.7765
  693MOL0     O95499   3.659   6.760   6.797  0.2407  0.3750  0.6042
  693MOL0     C95500   3.729   6.669   6.859 -0.2520  0.1492 -0.5496
  693MOL0     C95501   3.732   6.531   6.818 -0.1268 -0.7586 -0.4808
  693MOL0     C95502   3.813   6.437   6.886  0.2977  0.4671  0.2795
  693MOL0     C95503   3.898   6.474   6.991  1.3370  0.5170 -0.1050
  693MOL0     O95504   3.976   6.377   7.044  0.3594  0.0158  0.8249
  693MOL0     C95505   4.091   6.432   7.111  0.0820  0.0712  0.3839
  693MOL0     C95506   4.192   6.318   7.115 -0.0287  0.4054  0.1148
  693MOL0     C95507   4.328   6.364   7.171  0.1867 -0.4796 -0.0833
  693MOL0     C95508   4.395   6.465   7.075  0.0131  0.1765  0.4329
  693MOL0     C95509   4.540   6.479   7.126 -0.4697 -0.8521  0.7183
  693MOL0     C95510   4.620   6.374   7.043  0.2890  0.3901  0.4077
  693MOL0     C95511   4.767   6.407   7.068  0.1697  0.9119 -0.7804
  693MOL0     C95512   4.874   6.344   6.967  0.0971  0.3236 -0.2529
  693MOL0     N95513   4.848   6.199   6.962  0.8333 -0.7115 -0.4530
  693MOL0     C95514   4.878   6.106   7.060  0.0491 -0.1316  0.7668
  693MOL0     C95515   4.836   5.986   7.001  0.6330 -0.4056 -0.1005
  693MOL0     C95516   4.845   5.846   7.057 -0.1035  1.3521  0.4495
  693MOL0     C95517   4.883   5.739   6.950 -0.5960  0.0302  0.6325
  693MOL0     C95518   4.933   5.602   7.002  0.2875  1.3439 -0.4082
  693MOL0     C95519   4.994   5.506   6.897  0.1854 -0.7141  0.5582
  693MOL0     O95520   4.895   5.458   6.804  0.1882  0.0300  0.4932
  693MOL0     C95521   4.932   5.391   6.689 -0.5049 -0.3644 -0.8050
  693MOL0     C95522   5.044   5.299   6.688  0.7316 -0.1368  0.2732
  693MOL0     C95523   5.076   5.230   6.578 -0.6607  0.2555  0.2800
  693MOL0     C95524   5.182   5.123   6.590  0.9976  0.8822 -0.3268
  693MOL0     C95525   5.010   5.244   6.450  0.2638  0.6457 -0.3903
  693MOL0     C95526   5.068   5.187   6.323 -0.5404  0.6617  0.0075
  693MOL0     O95527   4.986   5.165   6.212 -0.7254  0.0744  0.4815
  693MOL0     C95528   5.044   5.110   6.100 -0.8656 -0.3909 -0.6602
  693MOL0     C95529   5.052   4.967   6.071  0.1216 -0.2112  0.0275
  693MOL0     C95530   5.099   4.923   5.951  0.5705  0.5495  0.6498
  693MOL0     C95531   5.148   5.013   5.858  0.7586 -0.2233 -0.4734
  693MOL0     O95532   5.172   4.965   5.739 -0.9775 -0.4966 -0.2939
  693MOL0     C95533   5.082   5.003   5.634 -0.1210 -0.2794 -0.6253
  693MOL0     C95534   5.045   4.898   5.539  0.5691 -0.5111 -0.7397
  693MOL0     C95535   4.973   4.954   5.416  0.1859  1.2363  0.7811
  693MOL0     C95536   4.949   4.845   5.310  0.1737  0.3043 -0.3684
  693MOL0     C95537   4.821   4.769   5.327 -0.2456  0.0594  0.0003
  693MOL0     C95538   4.697   4.844   5.261  0.2416 -0.8462 -0.1441
  693MOL0     C95539   4.695   4.858   5.110  0.6506  0.6320 -0.8284
  693MOL0     C95540   4.554   4.867   5.053  0.1083 -0.3652  0.4360
  693MOL0    Cl95541   4.461   4.992   5.130  0.7113 -0.6553 -0.1315
  693MOL0     C95542   5.157   5.153   5.884  0.1024 -0.1585 -0.3957
  693MOL0     C95543   5.102   5.201   6.006 -0.5161 -0.5687 -0.2666
  693MOL0     O95544   5.191   5.189   6.321  0.0046  0.2575  0.0380
  693MOL0     C95545   4.890   5.318   6.451 -0.4057 -0.6471 -0.2830
  693MOL0     C95546   4.851   5.395   6.568  0.1001  0.5735  0.3264
  693MOL0     N95547   4.770   6.012   6.882  0.2291 -0.2286 -0.0383
  693MOL0     N95548   4.775   6.140   6.869  0.6941  0.6554 -0.0321
  693MOL0     C95549   3.894   6.613   7.024 -0.3751  0.4173  0.6599
  693MOL0     C95550   3.805   6.704   6.969  0.2437 -0.0262 -0.7463
  693MOL0     C95551   3.453   6.886   6.767 -0.1468  0.1207  0.0429
  693MOL0     C95552   3.525   6.980   6.680 -0.8649 -0.3714 -0.7203
  693MOL0     C95553   3.460   7.092   6.614 -0.1001  1.3821  0.4485
  693MOL0     C95554   3.330   7.114   6.629 -0.1546 -0.0896  0.7455
  693MOL0     O95555   3.268   7.229   6.588  0.0710  0.3232 -0.2380
  693MOL0     C95556   3.345   7.325   6.522  0.3832 -0.6032 -0.0214
  693MOL0     C95557   3.405   7.435   6.624  0.4186 -0.6927  0.1523
  693MOL0     C95558   3.301   7.520   6.709  0.7388  1.3632 -0.0160
  693MOL0     C95559   3.358   7.616   6.812  0.0255  1.4585  0.0238
  693MOL0     C95560   3.437   7.715   6.742 -0.2413 -0.4051 -1.2468
  693MOL0     C95561   3.489   7.810   6.694  0.0971  0.2176 -0.7524
  693MOL0     C95562   3.257   7.036   6.710 -0.0776  0.3673  0.2464
  693MOL0     C95563   3.313   6.922   6.781 -0.3936 -0.0832 -0.1311
  693MOL0     C95564   3.216   6.840   6.866  0.5449 -0.4572  0.8577
  693MOL0     H95565   3.661   6.514   6.737 -1.6544  3.2618 -0.2147
  693MOL0     H95566   3.804   6.337   6.846  5.3389  0.5601 -1.7324
  693MOL0     H95567   4.060   6.448   7.215 -2.9518 -0.6398 -0.3276
  693MOL0     H95568   4.140   6.518   7.065 -0.5543  0.1481 -0.1643
  693MOL0     H95569   4.155   6.234   7.174  1.7412 -1.2094 -0.9937
  693MOL0     H95570   4.201   6.272   7.016 -3.6404  2.4790 -1.3935
  693MOL0     H95571   4.325   6.409   7.271  1.3197  1.2571 -0.7850
  693MOL0     H95572   4.389   6.273   7.176  2.3276  0.4528 -4.5072
  693MOL0     H95573   4.391   6.427   6.972 -2.3473 -2.1118  1.2659
  693MOL0     H95574   4.351   6.565   7.079  0.5333  0.5155 -1.2765
  693MOL0     H95575   4.557   6.464   7.233  0.9776  0.6804  0.7448
  693MOL0     H95576   4.582   6.577   7.103  0.5583 -1.5896 -0.7355
  693MOL0     H95577   4.601   6.270   7.071 -3.6419 -0.0041 -2.8532
  693MOL0     H95578   4.598   6.388   6.937 -0.4342  1.9756  0.7367
  693MOL0     H95579   4.794   6.362   7.164  2.4093  0.8805 -1.3537
  693MOL0     H95580   4.789   6.514   7.081 -0.8927  0.9286  1.1196
  693MOL0     H95581   4.859   6.381   6.865  1.2648 -2.1101 -1.3774
  693MOL0     H95582   4.978   6.359   6.998  0.4434 -0.5272 -0.9598
  693MOL0     H95583   4.922   6.128   7.157 -1.5585  0.3342  1.4311
  693MOL0     H95584   4.748   5.823   7.102 -1.8508  1.2191 -3.0757
  693MOL0     H95585   4.918   5.847   7.139  0.8438 -0.4668 -0.3104
  693MOL0     H95586   4.798   5.722   6.884 -0.7811 -2.3670  1.3865
  693MOL0     H95587   4.964   5.768   6.881 -2.8625 -1.8638 -3.1827
  693MOL0     H95588   5.011   5.616   7.078 -0.2034 -1.5198  0.7422
  693MOL0     H95589   4.854   5.545   7.052  0.0021  1.8340 -0.2981
  693MOL0     H95590   5.061   5.567   6.836  1.2120 -1.5350  0.8327
  693MOL0     H95591   5.051   5.427   6.947 -1.6499 -1.4472  1.5704
  693MOL0     H95592   5.097   5.274   6.779  0.9980  2.7591  1.0233
  693MOL0     H95593   5.151   5.034   6.535 -0.0700  1.3793 -0.5452
  693MOL0     H95594   5.204   5.096   6.694  0.2963  1.8746  0.0892
  693MOL0     H95595   5.282   5.158   6.560  0.6332  1.0199 -1.4102
  693MOL0     H95596   5.011   4.891   6.136 -2.7315  0.8432 -0.4112
  693MOL0     H95597   5.089   4.817   5.934 -0.9889  0.7388  0.2722
  693MOL0     H95598   4.993   5.041   5.685  0.6418 -0.0647  0.5760
  693MOL0     H95599   5.131   5.080   5.574  1.6427  0.7449  1.9546
  693MOL0     H95600   5.138   4.850   5.507  0.8650  0.0259 -0.6967
  693MOL0     H95601   4.983   4.822   5.587 -0.2329  0.9118  0.5859
  693MOL0     H95602   5.035   5.035   5.377  2.4135 -0.4208  0.6829
  693MOL0     H95603   4.874   4.987   5.450 -0.4848 -3.2962  4.1378
  693MOL0     H95604   5.034   4.776   5.307 -0.8878 -1.1070  0.5537
  693MOL0     H95605   4.944   4.905   5.219  1.0138  0.3475 -0.3965
  693MOL0     H95606   4.837   4.667   5.288  1.3608  0.4143 -0.3419
  693MOL0     H95607   4.804   4.753   5.434  0.5927 -0.0487  0.1204
  693MOL0     H95608   4.675   4.946   5.296 -1.4499 -0.7228 -1.4699
  693MOL0     H95609   4.620   4.777   5.299  0.7739 -0.6928  1.2723
  693MOL0     H95610   4.747   4.774   5.063  3.0741  2.4358 -1.5679
  693MOL0     H95611   4.752   4.944   5.074 -0.5062  0.1892 -4.0585
  693MOL0     H95612   4.498   4.775   5.072 -0.7857 -0.0440 -0.4844
  693MOL0     H95613   4.547   4.887   4.945 -0.4697 -0.4313  0.4547
  693MOL0     H95614   5.194   5.215   5.803  0.8238  1.0243  0.7970
  693MOL0     H95615   5.086   5.306   6.030 -1.7615 -0.4355 -1.5375
  693MOL0     H95616   4.827   5.329   6.363 -0.0632 -1.2300 -0.6061
  693MOL0     H95617   4.768   5.464   6.558 -2.0710 -2.1379 -2.3314
  693MOL0     H95618   3.959   6.649   7.102  1.6385 -0.2095 -0.6467
  693MOL0     H95619   3.794   6.802   7.015  1.6757 -0.7435  1.2772
  693MOL0     H95620   3.629   6.968   6.652  1.0543  4.6115  2.9067
  693MOL0     H95621   3.530   7.149   6.554  0.0957 -0.6764 -1.3892
  693MOL0     H95622   3.420   7.281   6.456  0.8455  0.0298  0.0637
  693MOL0     H95623   3.289   7.378   6.444 -0.3670 -0.6391  0.4896
  693MOL0     H95624   3.468   7.510   6.576  2.8803  0.7211  4.8772
  693MOL0     H95625   3.477   7.380   6.687  2.4766  0.3910 -1.1568
  693MOL0     H95626   3.233   7.566   6.636  1.4473  1.2320 -0.7754
  693MOL0     H95627   3.242   7.440   6.754  1.7737  0.4744 -0.2042
  693MOL0     H95628   3.413   7.562   6.890  0.5271  1.2949 -0.4419
  693MOL0     H95629   3.277   7.663   6.869 -3.0526 -0.7612 -2.2289
  693MOL0     H95630   3.525   7.897   6.642 -1.0573  0.3653 -1.3217
  693MOL0     H95631   3.150   7.051   6.706 -0.5051 -1.8292  1.5188
  693MOL0     H95632   3.250   6.842   6.970  3.5217  0.2178 -0.0120
  693MOL0     H95633   3.111   6.867   6.853  0.2745 -0.6486  2.4452
  693MOL0     H95634   3.227   6.735   6.836  0.3978 -1.8692  5.0472
  694MOL0     O95635  11.400   8.945   4.467 -0.0415 -0.9646 -0.4239
  694MOL0     C95636  11.372   9.005   4.569  0.1896 -1.4722  0.4327
  694MOL0     O95637  11.429   9.127   4.605  0.0524 -0.1447  0.0433
  694MOL0     C95638  11.524   9.165   4.521  0.0708 -1.6641  1.8469
  694MOL0     C95639  11.655   9.171   4.548 -0.5371 -0.5374 -0.8463
  694MOL0     C95640  11.753   9.227   4.472 -0.9553  0.3667  0.0006
  694MOL0     C95641  11.721   9.272   4.344  0.3418 -0.1573  1.1625
  694MOL0     O95642  11.823   9.328   4.266 -0.4752  0.9358  0.3093
  694MOL0     C95643  11.794   9.426   4.166  0.3999 -0.0379 -0.1221
  694MOL0     C95644  11.905   9.472   4.083 -0.2069 -1.0024  0.5969
  694MOL0     C95645  11.874   9.614   4.040 -0.5891 -0.7542  0.7547
  694MOL0     C95646  11.978   9.657   3.932  0.0256 -0.1610  0.3136
  694MOL0     C95647  11.930   9.779   3.847 -0.4130  0.4147  0.4210
  694MOL0     C95648  11.906   9.907   3.922  0.5760  0.1679  0.2534
  694MOL0     C95649  12.045   9.963   3.983  0.2060 -0.0622  0.4786
  694MOL0     C95650  12.144   9.980   3.868 -0.0091  0.1078 -0.3093
  694MOL0     N95651  12.248  10.080   3.921 -0.1559  0.3473 -0.4229
  694MOL0     C95652  12.376  10.033   3.941  0.1749 -0.3949 -0.5299
  694MOL0     C95653  12.445  10.133   4.000 -0.9351 -0.7022  0.0439
  694MOL0     C95654  12.592  10.134   4.029  1.0094  0.1176 -0.6517
  694MOL0     C95655  12.622  10.046   4.161  0.8328  0.1145 -0.5865
  694MOL0     C95656  12.619  10.133   4.280  0.2079  0.2471  0.3530
  694MOL0     C95657  12.645  10.060   4.411  0.4830  1.0873 -0.2149
  694MOL0     O95658  12.541   9.968   4.455  0.1266  0.3215 -0.1656
  694MOL0     C95659  12.444  10.026   4.532 -0.1795 -0.2543  0.6904
  694MOL0     C95660  12.355   9.931   4.591  0.1402 -0.2594 -0.8294
  694MOL0     C95661  12.237   9.972   4.646  0.1716  1.0043 -0.7186
  694MOL0     C95662  12.155   9.855   4.705 -0.4033  0.0222 -0.0500
  694MOL0     C95663  12.208  10.116   4.665 -0.6430 -0.3980 -0.9773
  694MOL0     C95664  12.101  10.179   4.746 -0.7509  0.7005 -0.8914
  694MOL0     O95665  12.105  10.309   4.777  0.1130 -0.0526 -0.8926
  694MOL0     C95666  12.001  10.365   4.855 -0.1540 -0.1346  0.1741
  694MOL0     C95667  11.953  10.307   4.976  0.5587 -0.6435 -0.3158
  694MOL0     C95668  11.864  10.381   5.062 -0.9243 -0.1724  0.5039
  694MOL0     C95669  11.810  10.504   5.014  0.0163  0.4136 -0.3776
  694MOL0     O95670  11.713  10.568   5.086 -0.3676  0.0317  0.1952
  694MOL0     C95671  11.604  10.608   5.006 -0.5376  0.6257  0.1825
  694MOL0     C95672  11.489  10.546   5.083  0.4654 -0.1275 -0.3682
  694MOL0     C95673  11.461  10.616   5.223  0.1161  0.4853 -0.4983
  694MOL0     C95674  11.323  10.556   5.274 -0.3580  0.2463 -0.8408
  694MOL0     C95675  11.283  10.620   5.414  0.1253  0.5002  0.5997
  694MOL0     C95676  11.354  10.586   5.547 -0.2332  0.4641 -0.2859
  694MOL0     C95677  11.326  10.689   5.664  1.0545  0.8918 -0.7263
  694MOL0     C95678  11.351  10.633   5.804  1.0277  0.2645  0.3409
  694MOL0    Cl95679  11.203  10.511   5.832  0.5148  0.1025  0.2413
  694MOL0     C95680  11.862  10.559   4.895 -0.0437 -0.0062  0.1153
  694MOL0     C95681  11.960  10.493   4.826 -0.0673 -0.5164 -0.2393
  694MOL0     O95682  12.007  10.097   4.767  0.6432 -0.3392 -0.2547
  694MOL0     C95683  12.294  10.205   4.608 -0.4395 -0.3051  0.5998
  694MOL0     C95684  12.409  10.155   4.548 -0.1867 -0.1266 -0.0223
  694MOL0     N95685  12.351  10.240   4.012  0.2450  0.1423 -0.3424
  694MOL0     N95686  12.236  10.209   3.963  0.6043 -0.0536  0.4457
  694MOL0     C95687  11.587   9.287   4.310 -0.2087 -0.0888  0.3335
  694MOL0     C95688  11.491   9.228   4.398 -0.2048  0.0303 -0.1517
  694MOL0     C95689  11.264   8.951   4.659 -0.4222 -1.2148 -0.2235
  694MOL0     C95690  11.253   9.026   4.771  0.4675  0.5187 -0.1793
  694MOL0     C95691  11.158   8.997   4.868  0.3575  0.2068  0.1741
  694MOL0     C95692  11.073   8.889   4.854  0.3928  0.4389 -0.9893
  694MOL0     O95693  10.990   8.840   4.955  0.4203 -0.6367  0.5478
  694MOL0     C95694  10.961   8.911   5.079  0.0882  0.0795  0.1073
  694MOL0     C95695  11.062   8.884   5.188 -0.1824 -0.5413  0.9307
  694MOL0     C95696  10.995   8.964   5.304  0.3486  0.6938 -0.4817
  694MOL0     C95697  11.057   8.929   5.425  0.1344  0.0288 -0.5465
  694MOL0     C95698  10.989   9.005   5.534  0.2827  0.4604  0.9475
  694MOL0     C95699  10.939   9.082   5.613 -0.3567 -0.8114 -0.1680
  694MOL0     C95700  11.088   8.803   4.744  0.1183  0.0358  0.1964
  694MOL0     C95701  11.185   8.834   4.642 -0.1563  0.2835 -0.7232
  694MOL0     C95702  11.189   8.734   4.530 -0.2815 -0.3994 -1.3311
  694MOL0     H95703  11.681   9.132   4.646 -0.9607  2.7753  0.7162
  694MOL0     H95704  11.852   9.242   4.513 -0.5410 -0.3928 -0.7017
  694MOL0     H95705  11.750   9.505   4.229 -4.0216 -2.2609 -0.0043
  694MOL0     H95706  11.714   9.381   4.107 -0.6068  0.7965  0.5548
  694MOL0     H95707  11.995   9.488   4.143 -0.5227 -0.3510  0.9133
  694MOL0     H95708  11.926   9.410   3.996  1.7688  2.8382 -1.9810
  694MOL0     H95709  11.774   9.624   3.996 -1.5726  0.8898  3.1031
  694MOL0     H95710  11.865   9.683   4.125  2.4536 -0.2481  0.7748
  694MOL0     H95711  12.076   9.680   3.974 -0.1750 -0.2861  0.8531
  694MOL0     H95712  12.001   9.578   3.860  4.6068  1.8232 -0.7164
  694MOL0     H95713  11.831   9.760   3.804 -0.5819  0.9804  0.5553
  694MOL0     H95714  11.993   9.804   3.761  1.4622  1.7083  2.0886
  694MOL0     H95715  11.849   9.975   3.858 -0.9788 -1.0355  0.2947
  694MOL0     H95716  11.837   9.882   4.003  1.4498 -4.3565 -0.1241
  694MOL0     H95717  12.094   9.888   4.047  4.3028  3.2923  1.7565
  694MOL0     H95718  12.024  10.058   4.032  1.1802 -0.9841  2.8490
  694MOL0     H95719  12.185   9.882   3.845 -1.1660 -0.4036 -0.2551
  694MOL0     H95720  12.098  10.029   3.781 -1.3192 -2.7872 -1.3960
  694MOL0     H95721  12.414   9.934   3.918 -0.5745 -0.9728  0.6131
  694MOL0     H95722  12.627  10.235   4.049 -1.1872  0.4824  1.7942
  694MOL0     H95723  12.634  10.091   3.937 -0.6499  1.2706 -2.0153
  694MOL0     H95724  12.556   9.959   4.164  2.0853 -0.8413  0.5402
  694MOL0     H95725  12.723  10.007   4.173  0.7614  0.6281  2.6056
  694MOL0     H95726  12.700  10.205   4.261 -0.4502  0.0097 -4.7582
  694MOL0     H95727  12.529  10.196   4.282  0.8239  1.3572 -2.4363
  694MOL0     H95728  12.724   9.985   4.400 -1.0613 -0.6535  0.0873
  694MOL0     H95729  12.676  10.130   4.490 -1.6215  0.6183  1.1022
  694MOL0     H95730  12.380   9.826   4.577  1.1559  0.0587 -1.4729
  694MOL0     H95731  12.047   9.871   4.692 -0.7619 -1.6234  0.5521
  694MOL0     H95732  12.182   9.841   4.810  0.3123 -1.9470 -0.4584
  694MOL0     H95733  12.173   9.764   4.646 -0.5699  1.5900 -2.6568
  694MOL0     H95734  11.973  10.201   4.993 -0.1352 -0.7566 -0.1805
  694MOL0     H95735  11.801  10.339   5.140 -0.4957 -2.1146 -0.1544
  694MOL0     H95736  11.595  10.717   5.001 -0.3167  0.5719 -2.5494
  694MOL0     H95737  11.609  10.565   4.906 -1.7404 -1.8805  1.1077
  694MOL0     H95738  11.405  10.579   5.021 -2.9089 -4.2073  1.5688
  694MOL0     H95739  11.497  10.437   5.082 -1.3164 -0.2944 -1.4597
  694MOL0     H95740  11.467  10.723   5.200  0.7165  0.4787 -0.3884
  694MOL0     H95741  11.541  10.601   5.296  0.6507  1.9156 -0.7571
  694MOL0     H95742  11.336  10.447   5.273 -0.1093  0.2785 -1.2706
  694MOL0     H95743  11.248  10.580   5.197 -0.2950 -2.0625 -1.7265
  694MOL0     H95744  11.292  10.728   5.394  3.3680  0.6190  2.1211
  694MOL0     H95745  11.181  10.583   5.428  0.2433  0.6684  2.0697
  694MOL0     H95746  11.462  10.575   5.536 -0.2817 -0.7520  0.3628
  694MOL0     H95747  11.308  10.490   5.570  0.3740  0.5816  1.5705
  694MOL0     H95748  11.221  10.720   5.657  0.3939 -1.3999 -2.3086
  694MOL0     H95749  11.394  10.773   5.650 -0.2159  1.8605 -1.3764
  694MOL0     H95750  11.345  10.714   5.878 -1.1408 -0.1131  0.6408
  694MOL0     H95751  11.448  10.583   5.811  1.2641  0.9219  2.1874
  694MOL0     H95752  11.832  10.657   4.859  0.7949  0.4816  0.6992
  694MOL0     H95753  12.006  10.544   4.742  1.7906 -3.1144 -0.8999
  694MOL0     H95754  12.291  10.313   4.611  2.1665 -0.1033 -1.1603
  694MOL0     H95755  12.480  10.232   4.519  0.4072 -0.5933  0.1553
  694MOL0     H95756  11.552   9.342   4.224 -2.1068  4.1733  3.4541
  694MOL0     H95757  11.384   9.236   4.381 -0.4556 -0.6434  1.0110
  694MOL0     H95758  11.299   9.122   4.791  0.0032  0.6674  0.1964
  694MOL0     H95759  11.161   9.060   4.957  2.7496  1.3168 -0.6060
  694MOL0     H95760  10.946   9.017   5.053  0.8313 -0.2724 -2.0106
  694MOL0     H95761  10.864   8.872   5.109  0.8204 -1.7366  0.1953
  694MOL0     H95762  11.160   8.925   5.163 -0.2770 -1.4850 -1.1655
  694MOL0     H95763  11.056   8.779   5.216 -2.9564 -0.0439  2.5942
  694MOL0     H95764  11.004   9.071   5.285  1.3251  0.7324  0.1394
  694MOL0     H95765  10.887   8.950   5.306  0.4994 -0.6874 -0.9048
  694MOL0     H95766  11.159   8.965   5.413 -0.4873  1.2235 -2.8377
  694MOL0     H95767  11.056   8.820   5.431  1.9187 -0.0061 -0.3609
  694MOL0     H95768  10.879   9.154   5.665  0.8660  1.0438 -1.2522
  694MOL0     H95769  11.037   8.708   4.734  0.9746 -0.3400 -0.8497
  694MOL0     H95770  11.103   8.668   4.526  1.3812 -2.7912 -0.1919
  694MOL0     H95771  11.197   8.780   4.431  1.7069  2.0897 -0.1625
  694MOL0     H95772  11.280   8.674   4.538  1.2496  1.6542 -2.2373
  695MOL0     O95773  11.082   9.082   0.506 -0.1889 -0.4728 -0.0882
  695MOL0     C95774  11.059   9.031   0.617 -0.6424  0.7636  0.3419
  695MOL0     O95775  11.037   9.089   0.732  0.2727  0.0198  0.2680
  695MOL0     C95776  10.999   9.221   0.764  0.5763  0.2012  0.3417
  695MOL0     C95777  11.026   9.336   0.683  0.4091 -0.8941  0.2442
  695MOL0     C95778  11.003   9.468   0.725 -0.0358  0.5562 -0.4680
  695MOL0     C95779  10.940   9.480   0.857 -0.8540  0.3977  0.6915
  695MOL0     O95780  10.902   9.607   0.888  0.2870 -0.2126 -0.0568
  695MOL0     C95781  10.833   9.646   1.008  0.7765 -0.6833 -0.1993
  695MOL0     C95782  10.927   9.627   1.127 -0.1184  0.3738 -0.7078
  695MOL0     C95783  10.864   9.688   1.256  0.0061  0.2849  0.0048
  695MOL0     C95784  10.920   9.630   1.383 -1.2992  0.3930  0.4527
  695MOL0     C95785  10.838   9.662   1.509 -0.5438  0.2609 -0.0818
  695MOL0     C95786  10.923   9.632   1.627  0.7240 -0.5807 -0.7323
  695MOL0     C95787  10.850   9.664   1.750 -0.2592  0.8077 -0.5553
  695MOL0     C95788  10.945   9.634   1.872  0.3079  0.0653 -0.0259
  695MOL0     N95789  11.056   9.727   1.894  0.9611 -0.1942  0.3720
  695MOL0     C95790  11.056   9.861   1.862  0.3633  0.5074 -0.1970
  695MOL0     C95791  11.173   9.900   1.908 -0.3332  0.4400  0.9481
  695MOL0     C95792  11.242  10.041   1.893 -0.6325  0.7189  0.4172
  695MOL0     C95793  11.229  10.108   1.762 -0.3679 -0.0798  1.3028
  695MOL0     C95794  11.285  10.038   1.642 -0.3712  1.0733 -0.1281
  695MOL0     C95795  11.271  10.110   1.507 -0.8691  0.3881  0.0937
  695MOL0     O95796  11.381  10.199   1.499  0.3455 -0.7290  0.0890
  695MOL0     C95797  11.377  10.297   1.403  0.3935  0.5401 -0.0683
  695MOL0     C95798  11.328  10.278   1.272  0.6394  0.3463 -0.9066
  695MOL0     C95799  11.352  10.377   1.175  0.4113 -0.2903  0.8616
  695MOL0     C95800  11.280  10.346   1.040 -0.0742 -1.1912 -0.1118
  695MOL0     C95801  11.424  10.496   1.203  1.2938 -0.9421 -0.1159
  695MOL0     C95802  11.453  10.603   1.102  0.5678 -0.3149 -0.2151
  695MOL0     O95803  11.424  10.734   1.126  0.3041 -0.2341  0.5999
  695MOL0     C95804  11.325  10.769   1.210  0.0380 -0.0133 -0.4501
  695MOL0     C95805  11.351  10.875   1.305 -1.7192  0.2958  0.1093
  695MOL0     C95806  11.257  10.920   1.385  0.2319  0.3827 -0.6918
  695MOL0     C95807  11.130  10.878   1.371  0.4957  0.1826  0.8568
  695MOL0     O95808  11.035  10.940   1.456 -0.3317 -0.1383  0.2774
  695MOL0     C95809  10.906  10.875   1.476  0.3935  0.1586  1.6913
  695MOL0     C95810  10.841  10.942   1.592  0.6267  0.3268 -0.6996
  695MOL0     C95811  10.716  10.866   1.646 -0.8729  0.0301 -0.3143
  695MOL0     C95812  10.747  10.724   1.700  0.8653 -0.2100  0.5867
  695MOL0     C95813  10.802  10.716   1.843 -0.6914 -0.1684 -0.3038
  695MOL0     C95814  10.708  10.784   1.943 -0.3104  0.6099  0.8503
  695MOL0     C95815  10.715  10.717   2.080  0.2260  0.3221 -0.6740
  695MOL0     C95816  10.671  10.823   2.192  0.0933  0.0056 -0.0900
  695MOL0    Cl95817  10.687  10.735   2.349  0.0973  0.2180 -0.0491
  695MOL0     C95818  11.100  10.764   1.290  0.1657 -0.4221 -1.0913
  695MOL0     C95819  11.192  10.714   1.200 -0.1676 -0.0553  0.3832
  695MOL0     O95820  11.505  10.570   0.994 -0.1563 -0.0228  0.5541
  695MOL0     C95821  11.470  10.507   1.336  1.1497 -0.8055  0.4079
  695MOL0     C95822  11.437  10.413   1.433 -0.2518 -0.4186  0.0119
  695MOL0     N95823  11.241   9.783   1.957  0.3759 -0.9058  1.0776
  695MOL0     N95824  11.165   9.686   1.955 -0.9180 -0.3963 -0.2716
  695MOL0     C95825  10.916   9.370   0.935 -0.1984  0.0889  0.3463
  695MOL0     C95826  10.945   9.242   0.891 -0.1855 -0.5046  0.3196
  695MOL0     C95827  11.105   8.894   0.630  0.8741 -0.5085 -0.0382
  695MOL0     C95828  11.197   8.864   0.728  0.1071 -0.0430 -0.1262
  695MOL0     C95829  11.251   8.733   0.740  0.7151  0.4051 -0.3822
  695MOL0     C95830  11.218   8.634   0.659 -0.1917  0.3958  0.3109
  695MOL0     O95831  11.283   8.515   0.681  0.5450 -0.6152  0.4511
  695MOL0     C95832  11.220   8.391   0.634  0.3499 -1.0409  0.5049
  695MOL0     C95833  11.085   8.350   0.709  0.5619 -0.8023  0.0914
  695MOL0     C95834  11.008   8.231   0.645 -0.0650  0.7154 -0.4023
  695MOL0     C95835  11.072   8.092   0.628 -0.5611  0.6443 -1.1130
  695MOL0     C95836  10.976   8.000   0.569  0.2172  0.7788 -0.9529
  695MOL0     C95837  10.897   7.917   0.517 -0.5947 -0.0023  0.5837
  695MOL0     C95838  11.130   8.658   0.552  0.6241  0.0832  0.0572
  695MOL0     C95839  11.067   8.786   0.538  0.1351  0.0739  0.4703
  695MOL0     C95840  10.967   8.818   0.425  0.1069  0.6908  0.2674
  695MOL0     H95841  11.063   9.326   0.581 -2.3040  3.8644 -1.5071
  695MOL0     H95842  11.039   9.548   0.661  0.3688 -0.6729 -1.8254
  695MOL0     H95843  10.743   9.589   1.032 -0.7664  1.2440 -1.1241
  695MOL0     H95844  10.803   9.751   1.001  1.7203 -0.1100  2.7304
  695MOL0     H95845  10.951   9.523   1.151 -0.4209  0.6273  0.8057
  695MOL0     H95846  11.027   9.668   1.116  1.2895 -2.1637  1.5122
  695MOL0     H95847  10.877   9.797   1.251 -0.4717  0.3031 -1.0792
  695MOL0     H95848  10.757   9.670   1.259  0.4035 -2.3692  1.5850
  695MOL0     H95849  10.920   9.521   1.367  0.7915  0.4905 -0.4625
  695MOL0     H95850  11.026   9.656   1.395 -1.4038  3.0677 -2.9063
  695MOL0     H95851  10.757   9.589   1.504  0.8192 -1.8834  4.3485
  695MOL0     H95852  10.795   9.762   1.496 -0.8088  0.2601  0.7362
  695MOL0     H95853  10.960   9.529   1.635 -0.9245 -1.1579 -0.0509
  695MOL0     H95854  11.005   9.702   1.613 -0.4047  1.8106  3.1295
  695MOL0     H95855  10.748   9.627   1.765  0.2593  0.3732  2.5107
  695MOL0     H95856  10.830   9.771   1.735  0.0463  0.7608 -1.3454
  695MOL0     H95857  10.878   9.630   1.959 -0.1781 -3.1773 -0.4202
  695MOL0     H95858  10.995   9.537   1.865 -2.0482 -1.2378  0.0954
  695MOL0     H95859  10.977   9.927   1.827  3.0781  3.6694 -0.7509
  695MOL0     H95860  11.350  10.037   1.908 -0.6079 -2.6457  0.1112
  695MOL0     H95861  11.206  10.109   1.970  4.9939  0.9479  3.3850
  695MOL0     H95862  11.123  10.127   1.744 -0.6720 -2.2206  0.5158
  695MOL0     H95863  11.274  10.207   1.774  1.0211 -0.4578 -0.4244
  695MOL0     H95864  11.393  10.040   1.662 -0.5437  2.3114  0.7884
  695MOL0     H95865  11.264   9.931   1.637  1.1116  0.8020 -0.9534
  695MOL0     H95866  11.285  10.037   1.427  2.6248 -0.7102  1.5225
  695MOL0     H95867  11.180  10.166   1.484 -0.4283  2.4871  2.9082
  695MOL0     H95868  11.288  10.180   1.250  3.4648 -1.0314 -0.3306
  695MOL0     H95869  11.220  10.434   1.013  0.7709 -0.4021  0.5520
  695MOL0     H95870  11.207  10.265   1.057 -1.7691  0.1197 -0.8302
  695MOL0     H95871  11.342  10.313   0.956 -0.0668 -1.3458 -0.0465
  695MOL0     H95872  11.446  10.927   1.313 -1.2466 -0.5485  0.0710
  695MOL0     H95873  11.287  10.987   1.464  0.5549  1.5182 -1.7424
  695MOL0     H95874  10.844  10.879   1.386 -0.2685  0.7026  2.1600
  695MOL0     H95875  10.923  10.769   1.497 -2.6047 -0.7000  0.2415
  695MOL0     H95876  10.904  10.941   1.682  2.2451  0.0263 -1.7993
  695MOL0     H95877  10.823  11.046   1.565 -2.8541  0.2034  0.5787
  695MOL0     H95878  10.645  10.852   1.565 -3.3953  1.1811  1.5644
  695MOL0     H95879  10.673  10.926   1.727 -0.4272 -1.9788  1.5190
  695MOL0     H95880  10.811  10.669   1.631  1.6241  0.9413  0.3486
  695MOL0     H95881  10.654  10.667   1.712 -0.0812  1.6610  2.9395
  695MOL0     H95882  10.803  10.610   1.870  0.0068 -0.4280 -1.2873
  695MOL0     H95883  10.906  10.746   1.860 -0.7902 -0.1256  0.2411
  695MOL0     H95884  10.606  10.791   1.904  0.1455 -0.6068 -0.6823
  695MOL0     H95885  10.748  10.886   1.942 -2.6872  1.6466 -2.0516
  695MOL0     H95886  10.818  10.683   2.093  0.9482  1.6692 -2.4541
  695MOL0     H95887  10.654  10.627   2.077  1.8100 -0.7661 -1.4348
  695MOL0     H95888  10.565  10.847   2.182 -0.1972 -0.9602  0.5568
  695MOL0     H95889  10.736  10.911   2.196  1.8999 -1.3169  0.8812
  695MOL0     H95890  10.999  10.726   1.301 -0.2202  1.0328  0.8170
  695MOL0     H95891  11.157  10.628   1.145  2.5498 -1.7773  1.1437
  695MOL0     H95892  11.531  10.595   1.355  0.6655 -0.6389  1.2321
  695MOL0     H95893  11.475  10.431   1.534 -2.9479 -2.6803  1.5857
  695MOL0     H95894  10.864   9.370   1.031 -0.0490  0.8169  0.4282
  695MOL0     H95895  10.916   9.158   0.954 -0.6344 -1.7340 -1.4351
  695MOL0     H95896  11.242   8.942   0.788 -2.4218  0.5987  1.0729
  695MOL0     H95897  11.328   8.710   0.813  0.2500 -1.9189 -0.5729
  695MOL0     H95898  11.198   8.395   0.527 -0.1261  2.0117  0.6479
  695MOL0     H95899  11.291   8.311   0.657  0.4625 -1.2939 -0.6706
  695MOL0     H95900  11.028   8.444   0.715  1.4526 -0.3214  2.0340
  695MOL0     H95901  11.108   8.324   0.813  1.0897  0.5525  0.3356
  695MOL0     H95902  10.921   8.230   0.712 -0.6018  0.5800 -1.0986
  695MOL0     H95903  10.966   8.271   0.553  0.6773  1.0642 -0.5939
  695MOL0     H95904  11.115   8.062   0.725  3.1180  1.5426 -2.3229
  695MOL0     H95905  11.160   8.107   0.566  1.2599 -0.0064  1.1509
  695MOL0     H95906  10.827   7.846   0.476 -0.7045 -1.3797  2.9368
  695MOL0     H95907  11.109   8.591   0.468 -0.6166  0.8394 -0.2546
  695MOL0     H95908  11.015   8.892   0.359 -0.4134 -1.4145 -2.6852
  695MOL0     H95909  10.962   8.727   0.365 -0.1740 -0.0875  1.4502
  695MOL0     H95910  10.870   8.843   0.470  0.3306 -0.6834  1.5504
  696MOL0     O95911   4.236   5.731   9.312  0.6073  0.2609  0.8970
  696MOL0     C95912   4.208   5.851   9.334 -0.6888  0.8437  0.1723
  696MOL0     O95913   4.089   5.893   9.382  0.2597 -0.0187 -0.3238
  696MOL0     C95914   3.994   5.806   9.425 -1.0436 -0.4219 -0.3287
  696MOL0     C95915   4.001   5.695   9.516  0.6050 -0.0270  0.9880
  696MOL0     C95916   3.893   5.617   9.546  1.0005  0.0091  0.0197
  696MOL0     C95917   3.763   5.640   9.489 -0.0697  0.5025  0.3943
  696MOL0     O95918   3.664   5.555   9.519 -0.9333  0.3874  0.6509
  696MOL0     C95919   3.638   5.570   9.663 -0.0198 -0.5033 -0.0380
  696MOL0     C95920   3.499   5.521   9.692 -0.1260 -0.6048 -0.0827
  696MOL0     C95921   3.396   5.622   9.640  0.5293 -0.3029  0.3615
  696MOL0     C95922   3.252   5.560   9.617  0.4425 -0.2242 -0.0755
  696MOL0     C95923   3.134   5.607   9.713  0.1201  0.0303  0.7033
  696MOL0     C95924   2.999   5.615   9.637  0.9870  0.3018  0.5621
  696MOL0     C95925   2.890   5.676   9.730  0.5935  0.4354 -0.1483
  696MOL0     C95926   2.757   5.712   9.656 -0.0186 -0.0610  0.6460
  696MOL0     N95927   2.637   5.709   9.741  1.0982 -0.8659  0.9046
  696MOL0     C95928   2.593   5.794   9.844 -0.0134  0.3805 -0.0107
  696MOL0     C95929   2.471   5.750   9.882  1.5013  0.7783  0.4438
  696MOL0     C95930   2.381   5.802   9.989 -0.6145  0.4514 -0.1992
  696MOL0     C95931   2.236   5.805   9.945 -0.7023  0.6735  0.3455
  696MOL0     C95932   2.208   5.906   9.837 -0.3924  0.2481  0.5810
  696MOL0     C95933   2.062   5.927   9.796  0.9742 -0.2900 -0.2638
  696MOL0     O95934   1.970   5.926   9.907 -0.2567 -0.1144  0.1847
  696MOL0     C95935   1.833   5.904   9.891 -0.3221  0.6173 -0.8041
  696MOL0     C95936   1.752   5.852   9.999  0.5036 -0.3551 -1.0150
  696MOL0     C95937   1.614   5.837   9.998  0.4067  0.7024  0.2450
  696MOL0     C95938   1.536   5.796  10.121  0.1700  0.0262  0.2861
  696MOL0     C95939   1.544   5.863   9.876  0.6616 -0.1195 -0.0481
  696MOL0     C95940   1.396   5.871   9.880 -0.4448  1.1957 -0.1104
  696MOL0     O95941   1.341   5.949   9.967  0.4922 -0.4717 -0.4037
  696MOL0     C95942   1.201   5.945   9.974 -0.7138  0.0621  0.0086
  696MOL0     C95943   1.122   5.834   9.983 -0.2757 -0.0739 -0.0327
  696MOL0     C95944   0.994   5.841  10.004 -0.3873 -0.4662 -1.0483
  696MOL0     C95945   0.931   5.965  10.029 -0.2510 -0.4893 -0.9181
  696MOL0     O95946   0.797   5.970  10.060  0.3927 -0.1219 -0.0008
  696MOL0     C95947   0.714   5.983   9.944  0.8520 -0.9079  0.0543
  696MOL0     C95948   0.584   6.059   9.989 -0.5628  0.2018 -0.3823
  696MOL0     C95949   0.515   5.986  10.108 -0.9927 -0.0532 -0.0728
  696MOL0     C95950   0.392   6.074  10.146 -0.1116  0.1864  0.3520
  696MOL0     C95951   0.301   5.992  10.237 -0.5173 -0.3475 -0.0196
  696MOL0     C95952   0.198   6.082  10.314 -0.5674  0.2110  0.6183
  696MOL0     C95953   0.072   6.016  10.347 -0.3557 -0.0491 -0.0218
  696MOL0     C95954   0.089   5.914  10.458 -0.9566 -0.8448  0.8520
  696MOL0    Cl95955   0.190   5.968  10.588 -0.3521 -0.1792  0.3873
  696MOL0     C95956   1.009   6.083  10.026  0.3284 -0.4984  0.6281
  696MOL0     C95957   1.141   6.067   9.997  0.0371  0.8088 -0.8725
  696MOL0     O95958   1.343   5.799   9.791  0.5823 -0.4891 -0.2926
  696MOL0     C95959   1.629   5.899   9.765  0.4318 -1.0387 -0.1282
  696MOL0     C95960   1.765   5.922   9.773 -0.1988  0.5068  0.7887
  696MOL0     N95961   2.431   5.643   9.793 -0.3885  0.4572 -0.3417
  696MOL0     N95962   2.536   5.619   9.715  0.0349 -0.7264 -0.4801
  696MOL0     C95963   3.752   5.746   9.399 -0.7135  0.1486  0.0180
  696MOL0     C95964   3.868   5.825   9.368 -0.7933 -0.8288  0.4442
  696MOL0     C95965   4.301   5.943   9.266 -0.4524 -0.5193 -1.1546
  696MOL0     C95966   4.245   6.068   9.218  0.1737 -0.0107  0.2301
  696MOL0     C95967   4.324   6.157   9.142 -0.1400 -0.2188 -0.1344
  696MOL0     C95968   4.460   6.129   9.112 -0.3280 -0.0332  0.1425
  696MOL0     O95969   4.513   6.219   9.023  0.5483  0.2050 -0.0754
  696MOL0     C95970   4.597   6.167   8.917  0.2762 -0.6462 -0.2500
  696MOL0     C95971   4.730   6.234   8.912  0.5814 -0.1191  0.4683
  696MOL0     C95972   4.719   6.368   8.843  0.1150  0.1172 -0.2827
  696MOL0     C95973   4.675   6.487   8.935  0.0600 -1.2538 -0.8593
  696MOL0     C95974   4.763   6.511   9.045 -1.0283  0.2017 -0.3672
  696MOL0     C95975   4.831   6.526   9.145  0.4392 -0.1853 -0.0140
  696MOL0     C95976   4.511   6.010   9.169 -0.7217 -0.7687 -0.9101
  696MOL0     C95977   4.443   5.919   9.251 -0.7653  0.6757  0.1884
  696MOL0     C95978   4.529   5.799   9.304  0.6064 -0.2998  0.3114
  696MOL0     H95979   4.099   5.670   9.557  0.0801 -0.7287  1.8523
  696MOL0     H95980   3.910   5.532   9.611  3.3575 -1.1627 -2.0022
  696MOL0     H95981   3.646   5.673   9.697  2.1021 -1.1461  1.7007
  696MOL0     H95982   3.715   5.513   9.718  3.2908  2.8747 -0.7499
  696MOL0     H95983   3.478   5.430   9.636 -0.0612  0.7458 -2.4516
  696MOL0     H95984   3.493   5.502   9.800  0.6677 -0.4577 -0.0060
  696MOL0     H95985   3.385   5.714   9.698 -2.3547  0.7386 -1.6183
  696MOL0     H95986   3.432   5.655   9.541  0.6378  1.2034  0.8740
  696MOL0     H95987   3.218   5.577   9.515 -2.7760 -3.5266  0.2352
  696MOL0     H95988   3.252   5.452   9.635 -1.2718 -0.7273 -2.5585
  696MOL0     H95989   3.162   5.706   9.751  2.6333 -0.3092 -0.0947
  696MOL0     H95990   3.132   5.541   9.800  4.6269  2.1034  2.6928
  696MOL0     H95991   3.023   5.684   9.555  2.5316 -2.7785 -1.8098
  696MOL0     H95992   2.968   5.517   9.600  0.3029  0.8081 -0.2486
  696MOL0     H95993   2.920   5.773   9.771  0.1798  0.5095 -0.0233
  696MOL0     H95994   2.873   5.607   9.813  2.6733 -0.5655 -0.4804
  696MOL0     H95995   2.764   5.813   9.615  1.4371 -0.1032  0.7413
  696MOL0     H95996   2.742   5.630   9.584 -0.1084  1.1038 -0.7047
  696MOL0     H95997   2.644   5.873   9.899  2.4512  0.5922 -2.4208
  696MOL0     H95998   2.415   5.905  10.002  2.7129 -0.8078  2.4259
  696MOL0     H95999   2.401   5.749  10.082 -4.9757  0.2982  0.8475
  696MOL0     H96000   2.216   5.704   9.909 -0.5269  1.2966 -1.6020
  696MOL0     H96001   2.182   5.828  10.038 -0.5268 -0.3617  0.7196
  696MOL0     H96002   2.259   6.001   9.855  4.8549 -2.1097 -0.1425
  696MOL0     H96003   2.250   5.862   9.746 -1.9167  0.0405 -0.0661
  696MOL0     H96004   2.047   6.024   9.746  0.3954 -0.8236 -1.1504
  696MOL0     H96005   2.040   5.838   9.737  0.8754 -0.9106  0.6847
  696MOL0     H96006   1.804   5.816  10.087 -0.7214 -1.6493 -0.7625
  696MOL0     H96007   1.474   5.875  10.164 -0.8700 -1.6663  2.0549
  696MOL0     H96008   1.605   5.752  10.194 -3.5156 -3.4282  2.0697
  696MOL0     H96009   1.471   5.712  10.099  0.4275 -0.4466  1.2758
  696MOL0     H96010   1.161   5.733   9.976  1.1022  0.4005  0.4872
  696MOL0     H96011   0.926   5.757  10.021 -0.4075 -0.1531  0.6043
  696MOL0     H96012   0.766   6.033   9.861  2.1686 -0.6566  1.0027
  696MOL0     H96013   0.676   5.884   9.921 -0.6412 -0.9047  2.2597
  696MOL0     H96014   0.599   6.163  10.019  0.1388  0.6753 -2.2182
  696MOL0     H96015   0.524   6.056   9.897 -1.5437  3.0150  0.0869
  696MOL0     H96016   0.579   5.977  10.197 -0.8385 -1.6783 -0.3226
  696MOL0     H96017   0.484   5.884  10.086  0.1785 -0.0530 -1.9759
  696MOL0     H96018   0.335   6.098  10.056 -0.5234  1.0993  0.8503
  696MOL0     H96019   0.425   6.163  10.200  3.9833 -0.3330 -0.9226
  696MOL0     H96020   0.258   5.908  10.182 -0.0820 -1.3993  1.2012
  696MOL0     H96021   0.361   5.945  10.315  0.0322  1.0503  0.4223
  696MOL0     H96022   0.169   6.161  10.245  3.9411  0.9738 -0.7337
  696MOL0     H96023   0.258   6.137  10.387  2.9635  0.1031 -1.9814
  696MOL0     H96024   0.044   5.965  10.255 -0.1973 -1.4804  0.7036
  696MOL0     H96025   0.005   6.097  10.378 -2.1266 -1.9152  1.3277
  696MOL0     H96026   0.140   5.826  10.416  1.7635  0.6130  0.8793
  696MOL0     H96027  -0.008   5.883  10.496 -1.2074  1.7506  2.5585
  696MOL0     H96028   0.960   6.177  10.050  0.2408  0.3124 -2.3749
  696MOL0     H96029   1.209   6.152  10.005  0.1304  0.7679 -1.2096
  696MOL0     H96030   1.578   5.921   9.671  0.1833 -3.1719 -0.5573
  696MOL0     H96031   1.808   5.947   9.677 -2.0822 -2.2682 -0.8973
  696MOL0     H96032   3.663   5.777   9.346 -1.1735  1.5426  1.5068
  696MOL0     H96033   3.861   5.903   9.293  4.0309 -0.0263  0.5102
  696MOL0     H96034   4.142   6.096   9.236  0.4187 -0.1430  2.0419
  696MOL0     H96035   4.270   6.244   9.106  2.5056  1.5412 -0.0770
  696MOL0     H96036   4.600   6.058   8.928 -0.6107 -0.7002 -0.4507
  696MOL0     H96037   4.556   6.174   8.816  2.4811  1.5625 -1.0960
  696MOL0     H96038   4.779   6.167   8.840 -2.4231 -2.0612  0.0561
  696MOL0     H96039   4.788   6.239   9.005 -0.2295  0.9918  0.9347
  696MOL0     H96040   4.819   6.385   8.803  0.5492  0.8882  1.0756
  696MOL0     H96041   4.660   6.353   8.752 -1.2658  0.0719  0.5946
  696MOL0     H96042   4.570   6.483   8.963  0.0523 -2.0803 -0.9739
  696MOL0     H96043   4.682   6.576   8.872  1.6608  0.2913  1.3841
  696MOL0     H96044   4.891   6.526   9.234 -0.5925 -0.2597  0.6973
  696MOL0     H96045   4.616   6.003   9.143 -0.4222 -1.1943  0.3511
  696MOL0     H96046   4.574   5.823   9.401 -1.8374  0.9373  1.2220
  696MOL0     H96047   4.479   5.702   9.318  2.5916 -1.7597 -1.9063
  696MOL0     H96048   4.608   5.773   9.233  0.7347 -2.6493  1.2022
  697MOL0     O96049   3.791   4.180   1.100  0.1057 -1.4046  0.0517
  697MOL0     C96050   3.710   4.098   1.068 -0.6847 -0.3400 -0.0221
  697MOL0     O96051   3.582   4.124   1.063 -0.5286 -0.2457 -0.4943
  697MOL0     C96052   3.537   4.252   1.056  0.0668  0.7059  0.4606
  697MOL0     C96053   3.540   4.324   1.177  0.3525  0.4989  0.3150
  697MOL0     C96054   3.474   4.450   1.174  0.3795  0.6961  0.8046
  697MOL0     C96055   3.423   4.507   1.057 -0.2774  0.2502 -0.0243
  697MOL0     O96056   3.349   4.625   1.048  0.6184  0.2501 -0.2763
  697MOL0     C96057   3.351   4.710   1.158 -0.0025  0.5434  0.5598
  697MOL0     C96058   3.310   4.858   1.120  1.7752 -0.2301 -0.1314
  697MOL0     C96059   3.151   4.851   1.089  1.1350 -0.1583  0.2484
  697MOL0     C96060   3.083   4.990   1.102  0.5354  0.4779 -0.1897
  697MOL0     C96061   3.012   5.009   1.244 -0.3794  0.2670  1.1629
  697MOL0     C96062   2.992   5.155   1.272  1.4345 -0.0463  0.0572
  697MOL0     C96063   2.889   5.224   1.184  1.0573 -0.4207  0.0303
  697MOL0     C96064   2.937   5.320   1.075  0.3870  0.2083 -0.0416
  697MOL0     N96065   3.008   5.438   1.123  0.3681 -0.5755 -0.8800
  697MOL0     C96066   2.958   5.512   1.220  0.8327  0.7147  0.1023
  697MOL0     C96067   3.027   5.627   1.217 -0.2488 -0.6769 -0.1973
  697MOL0     C96068   2.987   5.750   1.301 -0.0466 -0.2017 -1.0770
  697MOL0     C96069   3.035   5.888   1.243  0.7914 -0.4491  0.5842
  697MOL0     C96070   3.162   5.949   1.302 -0.0004  0.7838 -0.7115
  697MOL0     C96071   3.211   6.077   1.239  0.0977 -0.5939  0.4211
  697MOL0     O96072   3.335   6.118   1.294 -0.0198  0.0766 -0.4317
  697MOL0     C96073   3.396   6.235   1.262  0.2637 -0.7765 -0.5613
  697MOL0     C96074   3.345   6.330   1.171  0.7043  0.2705 -0.4859
  697MOL0     C96075   3.405   6.455   1.150  0.5795  0.1525  0.2468
  697MOL0     C96076   3.347   6.544   1.037 -0.5696 -0.8864  0.2784
  697MOL0     C96077   3.520   6.483   1.224 -0.0783 -0.1045  0.0806
  697MOL0     C96078   3.586   6.611   1.228  0.9015 -0.6935  0.0843
  697MOL0     O96079   3.603   6.680   1.349  0.2666 -0.0752  0.1811
  697MOL0     C96080   3.672   6.803   1.352 -0.3208 -0.4053  0.1478
  697MOL0     C96081   3.650   6.899   1.257 -0.0943 -0.7932  0.9626
  697MOL0     C96082   3.708   7.025   1.257 -0.5460  1.4887 -0.1113
  697MOL0     C96083   3.794   7.057   1.365  0.5089 -0.5598 -0.0845
  697MOL0     O96084   3.841   7.184   1.379  0.8259  0.2443 -0.1557
  697MOL0     C96085   3.882   7.243   1.497  0.8597 -0.3055  0.9403
  697MOL0     C96086   3.984   7.353   1.468 -0.0351 -0.1566 -0.7931
  697MOL0     C96087   4.082   7.384   1.576 -0.3166  0.5463 -0.2023
  697MOL0     C96088   4.206   7.281   1.577 -0.0521 -0.0243  0.3879
  697MOL0     C96089   4.304   7.311   1.692  0.2855 -1.0917 -0.9028
  697MOL0     C96090   4.455   7.268   1.680 -0.0189  0.4961 -0.3651
  697MOL0     C96091   4.547   7.346   1.778  1.2335  0.5808  0.2450
  697MOL0     C96092   4.689   7.295   1.780  0.0290  0.1169 -0.8492
  697MOL0    Cl96093   4.772   7.272   1.626 -0.0759  0.0276 -0.1669
  697MOL0     C96094   3.830   6.954   1.447  0.2582 -0.6901  0.1532
  697MOL0     C96095   3.764   6.833   1.456 -0.0060  0.6195 -0.0655
  697MOL0     O96096   3.625   6.647   1.117 -0.0046  0.3003  0.7790
  697MOL0     C96097   3.563   6.392   1.322 -0.4449  0.5690 -0.1219
  697MOL0     C96098   3.506   6.270   1.339  0.5304  0.2205 -0.5966
  697MOL0     N96099   3.128   5.612   1.120  0.7013  0.0534  0.0015
  697MOL0     N96100   3.116   5.505   1.060  0.3142 -0.3293 -0.1568
  697MOL0     C96101   3.423   4.424   0.938 -0.3889 -0.0563 -1.3237
  697MOL0     C96102   3.475   4.295   0.942  0.4230 -0.2645  0.5998
  697MOL0     C96103   3.775   3.966   1.038  0.8759  0.3632  0.1826
  697MOL0     C96104   3.902   3.940   1.093  0.1531 -0.9122 -0.1347
  697MOL0     C96105   3.967   3.818   1.074  1.5090 -0.1716  0.4431
  697MOL0     C96106   3.915   3.723   0.987  0.1305 -0.1932 -0.3825
  697MOL0     O96107   3.971   3.604   0.956 -0.4538 -0.4816  0.1230
  697MOL0     C96108   4.101   3.566   0.997  0.8941  0.5352  0.1279
  697MOL0     C96109   4.190   3.590   0.879 -0.8886 -0.3480 -0.4531
  697MOL0     C96110   4.338   3.595   0.913  0.1719  0.3345 -0.9437
  697MOL0     C96111   4.385   3.459   0.953  0.5045 -0.3372 -0.4621
  697MOL0     C96112   4.523   3.461   0.987 -0.3191 -0.9365 -0.2193
  697MOL0     C96113   4.641   3.464   1.024 -0.1232 -0.1454 -0.1611
  697MOL0     C96114   3.785   3.745   0.928 -0.3325  1.0424 -0.2899
  697MOL0     C96115   3.715   3.864   0.955 -0.7606 -0.9461  0.4617
  697MOL0     C96116   3.593   3.888   0.874  0.1131  0.2539 -1.0358
  697MOL0     H96117   3.587   4.281   1.265 -1.3014 -2.2704 -0.0335
  697MOL0     H96118   3.472   4.498   1.271  1.9766  0.8635  0.7718
  697MOL0     H96119   3.451   4.723   1.201  0.9237 -1.9565 -0.6538
  697MOL0     H96120   3.291   4.661   1.236  1.1044  1.3470  1.9495
  697MOL0     H96121   3.328   4.917   1.210  0.9678 -2.1849  1.3866
  697MOL0     H96122   3.374   4.895   1.039  0.5909  0.3036 -0.8532
  697MOL0     H96123   3.121   4.822   0.988 -3.7418 -3.3735  2.2549
  697MOL0     H96124   3.103   4.780   1.156  0.8988  0.0251  0.2761
  697MOL0     H96125   3.159   5.064   1.074 -0.9875  1.5097 -1.8133
  697MOL0     H96126   3.007   5.008   1.026  0.7366  0.9376 -0.2864
  697MOL0     H96127   3.071   4.971   1.328  1.9577  0.6918 -0.2176
  697MOL0     H96128   2.913   4.961   1.243  0.0863 -0.7263 -0.3173
  697MOL0     H96129   2.949   5.175   1.370  0.8752 -1.5201  0.1391
  697MOL0     H96130   3.087   5.209   1.269  1.0002  0.7136 -0.9580
  697MOL0     H96131   2.807   5.265   1.243  0.9603 -2.1776  1.2090
  697MOL0     H96132   2.840   5.148   1.122  2.7361 -1.8556  0.3798
  697MOL0     H96133   2.998   5.263   1.005  2.8123  3.3135 -0.6838
  697MOL0     H96134   2.853   5.362   1.020  0.2447  0.0144  0.0266
  697MOL0     H96135   2.873   5.492   1.283 -0.3703  1.5641 -1.1980
  697MOL0     H96136   3.021   5.744   1.405 -0.2093  0.7419 -0.9643
  697MOL0     H96137   2.879   5.742   1.319  0.4845 -0.4291  2.9601
  697MOL0     H96138   3.057   5.877   1.136  0.4393  3.6337 -0.0587
  697MOL0     H96139   2.952   5.958   1.259  1.8540  1.6717 -2.3406
  697MOL0     H96140   3.147   5.967   1.408  1.4982  0.3568 -0.3956
  697MOL0     H96141   3.241   5.874   1.312 -0.7961  0.0089 -0.1026
  697MOL0     H96142   3.212   6.066   1.130 -2.0797 -0.7323  0.3593
  697MOL0     H96143   3.139   6.158   1.258  2.0383  1.3320 -0.0549
  697MOL0     H96144   3.263   6.312   1.103  0.8052  0.0225 -0.5441
  697MOL0     H96145   3.261   6.484   1.004 -0.3105 -0.5156 -1.1127
  697MOL0     H96146   3.425   6.558   0.962  0.2783 -1.8277  0.9507
  697MOL0     H96147   3.319   6.645   1.069  4.9610  0.7107  1.0738
  697MOL0     H96148   3.571   6.894   1.182 -0.8025  3.0917  1.2359
  697MOL0     H96149   3.685   7.097   1.179  3.1396  1.6825 -1.2010
  697MOL0     H96150   3.793   7.289   1.540 -0.1234  0.3774 -1.6355
  697MOL0     H96151   3.920   7.164   1.563  0.7583 -0.2999  1.0047
  697MOL0     H96152   4.033   7.341   1.371  1.7203  0.6015 -0.0438
  697MOL0     H96153   3.918   7.440   1.464 -1.0836 -0.9409 -1.2837
  697MOL0     H96154   4.042   7.387   1.677  1.7181  0.6357  0.6415
  697MOL0     H96155   4.134   7.478   1.556  0.5123  0.0937 -0.2310
  697MOL0     H96156   4.261   7.282   1.482  2.6727 -2.2193  1.7790
  697MOL0     H96157   4.184   7.174   1.576  0.1306 -0.0817  1.2366
  697MOL0     H96158   4.298   7.420   1.703 -0.6013 -0.8292 -3.3480
  697MOL0     H96159   4.264   7.258   1.779 -1.7014  0.2042 -0.9688
  697MOL0     H96160   4.490   7.285   1.578 -1.4732 -0.1024 -0.9784
  697MOL0     H96161   4.470   7.161   1.699 -1.8913  0.3792  0.7492
  697MOL0     H96162   4.502   7.343   1.878  1.1931 -0.5278  0.2096
  697MOL0     H96163   4.541   7.453   1.756 -1.0529  0.3420 -0.5726
  697MOL0     H96164   4.688   7.200   1.836 -1.8375 -0.6244 -2.0269
  697MOL0     H96165   4.747   7.372   1.831 -3.4485  1.5198  1.3390
  697MOL0     H96166   3.908   6.976   1.519  1.3562  2.7468 -1.8475
  697MOL0     H96167   3.782   6.760   1.534  1.7148  2.4358  1.3403
  697MOL0     H96168   3.644   6.424   1.387  0.5042 -0.0724 -0.9468
  697MOL0     H96169   3.537   6.218   1.429 -3.9240 -3.8733 -1.0441
  697MOL0     H96170   3.378   4.465   0.848 -0.6302 -2.6527 -2.4657
  697MOL0     H96171   3.480   4.227   0.858 -0.9283 -1.2406  1.2664
  697MOL0     H96172   3.946   4.011   1.162 -3.4511  0.2374  1.1669
  697MOL0     H96173   4.056   3.795   1.133 -0.3345 -1.9494  2.7235
  697MOL0     H96174   4.143   3.619   1.083  1.3427  0.0132  0.2399
  697MOL0     H96175   4.102   3.457   1.010 -0.7259  0.2729 -1.5821
  697MOL0     H96176   4.166   3.690   0.842  1.0742  0.4857  0.3752
  697MOL0     H96177   4.171   3.524   0.794 -1.8001 -1.0237  0.2617
  697MOL0     H96178   4.396   3.636   0.829 -4.4825  2.7140 -3.3696
  697MOL0     H96179   4.356   3.647   1.007  0.7307  3.2790 -2.5347
  697MOL0     H96180   4.360   3.390   0.872  1.0270  0.0691 -0.9744
  697MOL0     H96181   4.340   3.428   1.048  2.5487  0.9143  0.9940
  697MOL0     H96182   4.740   3.463   1.064 -0.1733 -0.7536 -0.0436
  697MOL0     H96183   3.757   3.664   0.861 -1.6165  1.5608 -0.3953
  697MOL0     H96184   3.514   3.939   0.930 -0.2156  0.1261 -1.3754
  697MOL0     H96185   3.610   3.949   0.784 -0.4605  2.6228  0.3698
  697MOL0     H96186   3.547   3.798   0.832 -4.7429  2.4280 -1.0342
  698MOL0     O96187   5.105   8.009   1.721  0.2936  0.0126  0.1676
  698MOL0     C96188   5.180   8.067   1.641  0.3102  0.4305 -0.4946
  698MOL0     O96189   5.216   8.018   1.528 -0.0114 -0.3541  0.1722
  698MOL0     C96190   5.148   7.905   1.485  0.6742 -0.0085 -0.8544
  698MOL0     C96191   5.008   7.887   1.483  1.6561  0.8050 -1.4741
  698MOL0     C96192   4.944   7.778   1.425  0.2806 -0.3119 -0.4508
  698MOL0     C96193   5.019   7.680   1.367 -0.0629 -0.1640  0.3097
  698MOL0     O96194   4.947   7.591   1.290  0.2017  0.2596 -0.4132
  698MOL0     C96195   5.019   7.477   1.225  0.4450 -0.0148  0.0410
  698MOL0     C96196   4.906   7.401   1.154 -0.1146  0.5235  0.2191
  698MOL0     C96197   4.967   7.290   1.073 -0.9865 -0.1956  0.0605
  698MOL0     C96198   4.850   7.205   1.009 -0.9941  0.3093  0.0943
  698MOL0     C96199   4.896   7.085   0.925  0.3114  0.7354  1.0693
  698MOL0     C96200   4.815   6.969   0.994 -0.1070  0.7804  0.0037
  698MOL0     C96201   4.877   6.835   0.956 -1.3137  0.2496 -0.5922
  698MOL0     C96202   4.982   6.796   1.057  0.2513 -0.1314 -0.6440
  698MOL0     N96203   5.005   6.648   1.050 -0.2090 -0.2479 -0.0396
  698MOL0     C96204   4.961   6.558   1.138 -0.5597  0.2620  0.1301
  698MOL0     C96205   5.000   6.442   1.087  0.4202 -0.9042 -0.3240
  698MOL0     C96206   4.995   6.299   1.147  0.2639  0.5605  0.9146
  698MOL0     C96207   5.063   6.284   1.283 -0.4904 -1.3509  0.3512
  698MOL0     C96208   5.047   6.150   1.368  0.1387 -0.4382  1.0762
  698MOL0     C96209   4.898   6.101   1.370  0.1604 -1.0357  0.3006
  698MOL0     O96210   4.886   5.992   1.458 -0.4606 -0.9254  0.1609
  698MOL0     C96211   4.924   6.007   1.591 -0.1587  0.3323  0.4105
  698MOL0     C96212   4.950   5.892   1.663 -0.9369 -0.6730  0.7193
  698MOL0     C96213   4.971   5.893   1.802 -0.1961 -0.6860  0.2036
  698MOL0     C96214   5.010   5.770   1.873  0.4552  0.2195 -0.3812
  698MOL0     C96215   4.944   6.014   1.871  0.0162  0.4744  0.0017
  698MOL0     C96216   4.960   6.036   2.013 -0.9212 -0.2338  0.6274
  698MOL0     O96217   5.086   6.014   2.070  0.1110  1.2236  0.2415
  698MOL0     C96218   5.082   6.031   2.205  1.3807 -0.2281 -0.3085
  698MOL0     C96219   5.050   5.917   2.264  0.5051 -0.0309  0.1792
  698MOL0     C96220   5.027   5.920   2.402  0.9311  1.1668 -0.2251
  698MOL0     C96221   5.048   6.030   2.485  0.9179  0.2384 -0.2359
  698MOL0     O96222   5.030   6.032   2.624  0.0329  0.6200 -0.0623
  698MOL0     C96223   4.913   5.978   2.671 -1.1319 -0.0471 -0.6864
  698MOL0     C96224   4.907   5.978   2.816  0.7747 -0.4189  0.0643
  698MOL0     C96225   4.981   5.859   2.879 -0.1895  0.2053  0.4112
  698MOL0     C96226   4.968   5.861   3.036  0.6431  0.4820  0.0007
  698MOL0     C96227   5.021   5.738   3.111  0.2401 -0.6470  1.6637
  698MOL0     C96228   4.903   5.640   3.123 -0.3577 -0.9870  0.3390
  698MOL0     C96229   4.952   5.533   3.208 -0.8591  0.7294 -0.2409
  698MOL0     C96230   4.987   5.409   3.121  0.3994  0.1467 -0.0304
  698MOL0    Cl96231   5.126   5.434   3.009 -0.2089  0.4019 -0.5874
  698MOL0     C96232   5.085   6.148   2.419  0.0115 -0.4741 -0.1800
  698MOL0     C96233   5.097   6.147   2.281 -0.3680  0.0885 -0.0283
  698MOL0     O96234   4.867   6.098   2.074 -0.2601  1.2512 -0.1596
  698MOL0     C96235   4.921   6.128   1.794 -0.0910  0.5737 -0.5219
  698MOL0     C96236   4.908   6.130   1.655 -0.7892 -0.4394  0.7322
  698MOL0     N96237   5.058   6.464   0.963 -0.3171  0.3763 -0.1354
  698MOL0     N96238   5.068   6.589   0.946 -0.8419  0.5108  0.8671
  698MOL0     C96239   5.164   7.696   1.366  0.2123 -0.7904  0.7520
  698MOL0     C96240   5.225   7.805   1.424  0.4556 -0.5026  0.1880
  698MOL0     C96241   5.217   8.205   1.674  0.7008 -0.0312 -0.8965
  698MOL0     C96242   5.278   8.280   1.573  0.2255  0.5765 -0.2637
  698MOL0     C96243   5.287   8.416   1.575 -1.4229 -0.4457  0.8351
  698MOL0     C96244   5.249   8.486   1.687 -0.1167 -0.6825 -0.5936
  698MOL0     O96245   5.272   8.624   1.697 -0.1541 -0.8006 -0.0053
  698MOL0     C96246   5.286   8.683   1.830  0.6009 -0.2085  0.9073
  698MOL0     C96247   5.335   8.828   1.817  0.0334  0.0912 -0.6871
  698MOL0     C96248   5.353   8.889   1.954 -0.9978 -1.2177 -0.0702
  698MOL0     C96249   5.379   9.042   1.945  0.4149 -0.3098 -0.7149
  698MOL0     C96250   5.514   9.075   1.899 -0.1321  0.6773  1.3887
  698MOL0     C96251   5.623   9.102   1.867  0.0578  0.1307 -0.2631
  698MOL0     C96252   5.201   8.416   1.796 -0.6468 -0.1130  0.8326
  698MOL0     C96253   5.181   8.273   1.793 -0.7356 -0.4579 -0.8131
  698MOL0     C96254   5.124   8.217   1.916  1.0111  0.0254  0.4448
  698MOL0     H96255   4.946   7.959   1.536 -0.3800 -0.3218 -2.2440
  698MOL0     H96256   4.837   7.764   1.440  0.5653 -1.0520  1.0990
  698MOL0     H96257   5.070   7.416   1.300  1.4831  2.3219  1.3342
  698MOL0     H96258   5.094   7.516   1.155 -0.0023  1.1968  0.2175
  698MOL0     H96259   4.838   7.351   1.224 -0.9624 -1.4100 -1.8646
  698MOL0     H96260   4.845   7.461   1.086 -1.2439 -1.4705 -0.6349
  698MOL0     H96261   5.026   7.337   0.994  3.1818 -1.3983  2.1780
  698MOL0     H96262   5.041   7.234   1.132 -2.9169 -0.7785  2.0710
  698MOL0     H96263   4.785   7.171   1.090 -3.2625 -0.0764 -1.7970
  698MOL0     H96264   4.784   7.268   0.949  0.3307  0.4599 -1.2744
  698MOL0     H96265   5.004   7.069   0.929  0.3026  0.8407  1.8555
  698MOL0     H96266   4.863   7.083   0.821 -4.1602  1.8286  2.2388
  698MOL0     H96267   4.813   6.977   1.103 -2.5767  2.3776 -0.0727
  698MOL0     H96268   4.707   6.970   0.977 -0.4488 -2.5004  1.3647
  698MOL0     H96269   4.923   6.836   0.857 -0.5806  0.3794 -0.2525
  698MOL0     H96270   4.796   6.760   0.952 -1.2378 -0.0216  1.7126
  698MOL0     H96271   5.079   6.843   1.035 -0.5158  2.2337  0.6684
  698MOL0     H96272   4.962   6.812   1.163  3.4341 -2.3535  0.4362
  698MOL0     H96273   4.902   6.584   1.226 -1.3426 -0.3837 -0.1897
  698MOL0     H96274   5.035   6.218   1.084  1.7875  0.7362  1.6134
  698MOL0     H96275   4.890   6.279   1.169  0.4090  1.2662  2.3680
  698MOL0     H96276   5.170   6.296   1.266 -0.6110  2.8595  1.3356
  698MOL0     H96277   5.031   6.363   1.352  0.9017 -1.6435  1.4006
  698MOL0     H96278   5.121   6.082   1.325  1.2940  0.5370  1.5045
  698MOL0     H96279   5.087   6.166   1.468 -1.0840  0.3861  1.4658
  698MOL0     H96280   4.836   6.188   1.396  0.6344 -1.3301  2.6013
  698MOL0     H96281   4.874   6.077   1.266  2.4263 -0.9441 -0.2936
  698MOL0     H96282   4.964   5.808   1.596  2.5353  1.5384 -1.6158
  698MOL0     H96283   4.925   5.712   1.911  1.5975 -3.3404 -2.6885
  698MOL0     H96284   5.088   5.780   1.948  0.8856  0.0099 -0.7945
  698MOL0     H96285   5.054   5.701   1.800 -1.0425 -0.7891 -0.3855
  698MOL0     H96286   5.048   5.827   2.204 -2.4051  3.4141 -5.7709
  698MOL0     H96287   4.997   5.826   2.446  2.9706 -0.5085 -2.2057
  698MOL0     H96288   4.828   6.041   2.645 -1.4835 -0.7953 -1.4171
  698MOL0     H96289   4.907   5.875   2.633  1.6073  0.3521 -2.5899
  698MOL0     H96290   4.947   6.070   2.860 -1.4077  1.3708 -1.4657
  698MOL0     H96291   4.801   5.966   2.841 -0.1907  0.1889 -3.2999
  698MOL0     H96292   5.086   5.851   2.852  0.4380  1.3825  2.3069
  698MOL0     H96293   4.928   5.771   2.841  1.2296  0.5194 -2.6077
  698MOL0     H96294   4.863   5.877   3.061 -0.2137  2.4397 -3.9766
  698MOL0     H96295   5.025   5.943   3.081  3.1933 -0.5166 -1.1986
  698MOL0     H96296   5.107   5.696   3.057  0.4485  1.1083  0.5450
  698MOL0     H96297   5.055   5.765   3.212  0.5336  3.7487  0.5907
  698MOL0     H96298   4.880   5.605   3.022 -2.4532  0.7440  0.1341
  698MOL0     H96299   4.820   5.691   3.173  0.6588  0.8419  0.2844
  698MOL0     H96300   4.879   5.501   3.282  2.0017 -1.5191  1.8163
  698MOL0     H96301   5.041   5.553   3.268  0.7888 -1.2314 -1.8667
  698MOL0     H96302   4.904   5.385   3.053  2.1704 -1.6244 -1.6872
  698MOL0     H96303   5.008   5.319   3.181  1.5423  1.4586  1.6317
  698MOL0     H96304   5.091   6.238   2.478  2.0665 -0.5144 -0.2437
  698MOL0     H96305   5.102   6.239   2.224 -0.9620 -0.2594 -0.6644
  698MOL0     H96306   4.889   6.218   1.845 -2.2678  0.0844 -0.9252
  698MOL0     H96307   4.879   6.220   1.602  0.3671 -1.0097 -0.9432
  698MOL0     H96308   5.222   7.627   1.305 -1.6798 -0.6887 -1.2808
  698MOL0     H96309   5.333   7.812   1.428  0.5159 -0.9908 -0.3859
  698MOL0     H96310   5.296   8.237   1.474  0.2516 -3.0159  1.1303
  698MOL0     H96311   5.340   8.463   1.493 -0.6630  1.1719  2.1902
  698MOL0     H96312   5.195   8.686   1.891  1.7481 -2.9156  2.9690
  698MOL0     H96313   5.365   8.630   1.884  2.9740 -0.5291 -2.5713
  698MOL0     H96314   5.266   8.885   1.753  0.5399  2.5400  0.8067
  698MOL0     H96315   5.428   8.830   1.759 -0.7024  1.7520 -1.8900
  698MOL0     H96316   5.264   8.878   2.016 -0.5615  1.0213  1.0545
  698MOL0     H96317   5.439   8.850   2.010  1.0945 -1.7672 -3.3214
  698MOL0     H96318   5.370   9.074   2.049  2.2269 -1.1374 -0.2644
  698MOL0     H96319   5.295   9.087   1.890 -0.2181 -2.0323 -1.2100
  698MOL0     H96320   5.720   9.134   1.834 -1.0346  2.4885 -1.4275
  698MOL0     H96321   5.183   8.470   1.888  1.0813  1.2265  0.4296
  698MOL0     H96322   5.115   8.109   1.933  3.6750  0.0554  2.8684
  698MOL0     H96323   5.208   8.230   1.985  1.4511  0.2326 -0.1210
  698MOL0     H96324   5.034   8.275   1.936 -0.0838 -1.4421 -0.0418
  699MOL0     O96325   4.347   7.036   0.925  0.1545 -0.2595 -0.4177
  699MOL0     C96326   4.405   7.141   0.935  0.6950 -1.1529  0.6325
  699MOL0     O96327   4.405   7.229   1.037  0.4679  0.4427  0.1397
  699MOL0     C96328   4.382   7.176   1.162  0.0168 -0.2757 -0.1970
  699MOL0     C96329   4.483   7.185   1.264 -0.2663  1.1115 -0.3050
  699MOL0     C96330   4.482   7.104   1.379 -0.0381  0.5060 -0.2910
  699MOL0     C96331   4.369   7.018   1.396  0.2927 -0.1739  0.5731
  699MOL0     O96332   4.368   6.938   1.512 -0.2126  0.0211  0.1726
  699MOL0     C96333   4.315   6.804   1.495  0.3898 -0.5082  0.2736
  699MOL0     C96334   4.264   6.752   1.625 -0.6431 -0.5342  0.3709
  699MOL0     C96335   4.146   6.833   1.678 -0.5782 -1.2220  0.4685
  699MOL0     C96336   4.110   6.788   1.821  0.4842 -0.2325 -0.0390
  699MOL0     C96337   3.973   6.835   1.877 -0.7314 -0.8683  0.3732
  699MOL0     C96338   3.954   6.988   1.904  0.7986  0.1775 -0.4888
  699MOL0     C96339   4.035   7.067   2.006  1.9628 -0.4217 -1.2510
  699MOL0     C96340   4.010   7.033   2.160  0.2767  0.3147 -0.2276
  699MOL0     N96341   3.867   7.059   2.189 -0.3036  0.4084  0.3158
  699MOL0     C96342   3.810   7.180   2.190  0.0343 -0.5013 -0.0718
  699MOL0     C96343   3.679   7.157   2.201 -1.3276  0.2989 -0.3949
  699MOL0     C96344   3.578   7.267   2.209 -0.3707 -0.3998  0.2902
  699MOL0     C96345   3.449   7.255   2.130 -0.1492 -0.6729  0.9257
  699MOL0     C96346   3.315   7.301   2.211  0.6930 -0.8072 -0.5945
  699MOL0     C96347   3.196   7.338   2.114 -0.2841  0.9046 -0.5537
  699MOL0     O96348   3.131   7.217   2.058 -0.7936  0.2172  0.5449
  699MOL0     C96349   3.067   7.119   2.132 -0.4689  0.3702 -0.8007
  699MOL0     C96350   3.037   7.002   2.070 -0.5859  0.5383  0.6767
  699MOL0     C96351   2.972   6.899   2.137  0.5984  0.9405  0.1041
  699MOL0     C96352   2.926   6.777   2.059 -0.1330  0.1964  0.2182
  699MOL0     C96353   2.917   6.925   2.264  0.3738  0.3511  0.1675
  699MOL0     C96354   2.837   6.837   2.346  0.4437  0.1481  0.7671
  699MOL0     O96355   2.846   6.703   2.320  0.7633 -0.2057  0.3367
  699MOL0     C96356   2.746   6.617   2.370 -0.3805  0.3725 -0.4345
  699MOL0     C96357   2.761   6.549   2.491 -0.3580 -0.1541 -0.9388
  699MOL0     C96358   2.664   6.467   2.550 -0.5117  0.1886  0.7493
  699MOL0     C96359   2.542   6.457   2.477 -1.1231 -0.1038 -1.3408
  699MOL0     O96360   2.443   6.393   2.536  0.2812 -0.3631  0.1198
  699MOL0     C96361   2.307   6.443   2.523 -1.0324  0.4024 -0.5498
  699MOL0     C96362   2.297   6.582   2.580 -0.0542  0.0490 -0.4028
  699MOL0     C96363   2.264   6.584   2.729 -0.3229 -0.6435 -0.3635
  699MOL0     C96364   2.379   6.513   2.820  0.2655 -0.7239  0.7191
  699MOL0     C96365   2.335   6.518   2.973  0.2532  0.0026 -0.3414
  699MOL0     C96366   2.458   6.473   3.041 -0.6471  0.0667 -0.7884
  699MOL0     C96367   2.446   6.431   3.187  0.0037 -0.4894 -0.5042
  699MOL0     C96368   2.416   6.540   3.292 -0.9119  0.7093  0.4492
  699MOL0    Cl96369   2.258   6.614   3.276 -0.0933  0.2864 -0.3693
  699MOL0     C96370   2.536   6.520   2.353 -0.3290  0.1692 -0.2566
  699MOL0     C96371   2.634   6.596   2.296 -0.0692  0.1861 -0.0016
  699MOL0     O96372   2.770   6.890   2.430  0.5685 -0.8597 -0.4938
  699MOL0     C96373   2.953   7.048   2.326 -0.1577  1.1307 -0.3972
  699MOL0     C96374   3.024   7.138   2.253  1.0902 -0.5014 -0.7790
  699MOL0     N96375   3.654   7.021   2.223 -0.3419 -0.0790 -0.5642
  699MOL0     N96376   3.778   6.971   2.203  0.6982  0.0776  0.1188
  699MOL0     C96377   4.253   7.027   1.307 -0.5378 -0.5892 -0.9282
  699MOL0     C96378   4.259   7.106   1.190  0.3532 -1.4946 -0.4766
  699MOL0     C96379   4.481   7.191   0.816 -0.8574  0.5123  0.4158
  699MOL0     C96380   4.549   7.045   0.681  0.1159  0.5713  1.1518
  699MOL0     C96381   4.654   7.099   0.509 -0.3845  0.5508  0.2896
  699MOL0     C96382   4.698   7.304   0.470  0.0793  0.1259  0.4508
  699MOL0     O96383   4.759   7.343   0.353 -0.4424 -0.3058 -0.4605
  699MOL0     C96384   4.779   7.235   0.258 -0.6597 -0.1079  0.4915
  699MOL0     C96385   4.908   7.166   0.282  0.4081  0.1463 -0.5863
  699MOL0     C96386   4.940   7.068   0.168 -0.8832 -0.4686 -0.6674
  699MOL0     C96387   5.085   7.027   0.173 -0.2986  0.1535 -0.4573
  699MOL0     C96388   5.108   6.933   0.059 -0.3472  0.6133  0.5751
  699MOL0     C96389   5.130   6.841  -0.028  0.4809  0.2494  0.6364
  699MOL0     C96390   4.623   7.457   0.609 -0.5794  0.8481 -0.0698
  699MOL0     C96391   4.515   7.397   0.779 -0.2144 -0.3436 -0.0384
  699MOL0     C96392   4.459   7.506   0.882  1.5702  0.1690  0.6812
  699MOL0     H96393   4.559   7.256   1.230  0.9534 -1.3584 -3.2122
  699MOL0     H96394   4.563   7.114   1.451  0.0395 -0.4834 -0.2295
  699MOL0     H96395   4.399   6.741   1.466  0.3576 -0.8946  0.9952
  699MOL0     H96396   4.240   6.788   1.417  0.6307 -0.6161  0.0640
  699MOL0     H96397   4.249   6.645   1.615  0.6863 -0.5601 -2.1547
  699MOL0     H96398   4.345   6.751   1.699 -0.1078 -0.3143 -0.2018
  699MOL0     H96399   4.175   6.937   1.698 -0.4114 -1.7423  3.3703
  699MOL0     H96400   4.060   6.830   1.611  1.6180  1.1886 -2.8251
  699MOL0     H96401   4.095   6.681   1.838 -2.2455  0.1189  0.3361
  699MOL0     H96402   4.194   6.831   1.877  2.2348 -0.8279 -2.1053
  699MOL0     H96403   3.941   6.789   1.971 -2.0579 -0.2416  0.2549
  699MOL0     H96404   3.896   6.790   1.814 -0.9275 -3.9711  2.5838
  699MOL0     H96405   3.982   7.039   1.812 -0.8396 -0.1656 -1.2182
  699MOL0     H96406   3.846   7.000   1.923  1.2123 -1.2383  4.0282
  699MOL0     H96407   4.020   7.173   1.986 -1.7046 -1.1795 -3.4107
  699MOL0     H96408   4.140   7.038   1.996  1.3427 -3.0452 -0.8604
  699MOL0     H96409   4.030   6.927   2.173 -2.3949  0.0286  3.1000
  699MOL0     H96410   4.070   7.094   2.229  0.3389 -0.1722  0.1479
  699MOL0     H96411   3.873   7.268   2.180  2.0864 -2.0597 -1.5575
  699MOL0     H96412   3.610   7.368   2.182  1.9967 -0.6336  1.9483
  699MOL0     H96413   3.547   7.271   2.314  1.6263 -1.2849  0.9459
  699MOL0     H96414   3.461   7.319   2.042  0.5358 -1.1257  0.6859
  699MOL0     H96415   3.448   7.151   2.097 -0.5903 -0.5388  0.5033
  699MOL0     H96416   3.289   7.236   2.295  3.9573 -1.4401  0.0351
  699MOL0     H96417   3.345   7.391   2.266 -3.1665 -0.4045  1.2269
  699MOL0     H96418   3.116   7.395   2.162 -0.4108  0.7155 -0.5387
  699MOL0     H96419   3.246   7.398   2.037  4.8288 -1.2342  0.6880
  699MOL0     H96420   3.071   6.985   1.969  4.0850  0.8798  1.9483
  699MOL0     H96421   2.949   6.784   1.952  0.8275 -0.4904  0.3556
  699MOL0     H96422   2.818   6.768   2.071  0.1377 -1.3712  1.9201
  699MOL0     H96423   2.970   6.685   2.100  0.1131 -0.3458 -1.1817
  699MOL0     H96424   2.855   6.582   2.533 -1.3309 -1.5918  2.7543
  699MOL0     H96425   2.681   6.416   2.645  0.9494  0.6163  0.7386
  699MOL0     H96426   2.281   6.437   2.417 -1.5155  3.3057 -0.6562
  699MOL0     H96427   2.249   6.374   2.585  1.5023 -1.2180  0.1941
  699MOL0     H96428   2.386   6.644   2.566  1.1077 -1.6733 -0.9585
  699MOL0     H96429   2.217   6.644   2.537  1.8752  2.8186 -0.2465
  699MOL0     H96430   2.170   6.533   2.750 -0.1224 -1.3661 -1.1696
  699MOL0     H96431   2.257   6.686   2.768  1.2359 -0.7054  0.1424
  699MOL0     H96432   2.463   6.581   2.808 -1.3777  1.8724  2.9073
  699MOL0     H96433   2.394   6.411   2.783  0.0984 -0.0947 -1.2115
  699MOL0     H96434   2.300   6.613   3.014 -1.0926 -0.3415 -0.6392
  699MOL0     H96435   2.252   6.451   2.998 -0.5092  0.9698 -0.1997
  699MOL0     H96436   2.534   6.550   3.026 -1.7895  1.1117 -1.3847
  699MOL0     H96437   2.486   6.374   3.002  1.1699 -0.6242  1.9955
  699MOL0     H96438   2.534   6.373   3.216  1.6866  2.0531 -0.3090
  699MOL0     H96439   2.372   6.351   3.199 -0.7194  0.3629  1.2167
  699MOL0     H96440   2.468   6.630   3.257  0.2312  0.0541  0.3998
  699MOL0     H96441   2.449   6.513   3.393 -0.7421 -2.5727 -0.3895
  699MOL0     H96442   2.443   6.512   2.298 -1.2330 -0.3366  1.2731
  699MOL0     H96443   2.618   6.645   2.200 -0.9003  0.0488  0.0592
  699MOL0     H96444   2.923   7.064   2.429 -4.9398 -1.4673 -1.0734
  699MOL0     H96445   3.047   7.231   2.305 -2.0262  0.4839 -0.9435
  699MOL0     H96446   4.163   6.970   1.326  0.2616 -2.9462 -3.5810
  699MOL0     H96447   4.179   7.105   1.116 -1.3379  0.9380  1.1788
  699MOL0     H96448   4.536   6.939   0.702  0.2604  0.0907 -0.9523
  699MOL0     H96449   4.687   7.018   0.445 -0.0109  2.5784 -2.2221
  699MOL0     H96450   4.701   7.160   0.245 -0.8072  0.1926 -0.4790
  699MOL0     H96451   4.790   7.285   0.161 -0.2856 -1.3268 -0.1169
  699MOL0     H96452   4.890   7.112   0.376 -0.2197  1.7911  0.2802
  699MOL0     H96453   4.988   7.241   0.287  1.1105 -0.4753 -1.9475
  699MOL0     H96454   4.877   6.980   0.181 -2.6715  0.6894 -1.0031
  699MOL0     H96455   4.917   7.107   0.068 -1.5074 -0.5793 -0.5713
  699MOL0     H96456   5.111   6.983   0.271 -2.5755 -2.6375 -0.9712
  699MOL0     H96457   5.161   7.104   0.160  0.7209 -0.0654  2.9751
  699MOL0     H96458   5.144   6.757  -0.093  0.9989 -0.0277  1.0953
  699MOL0     H96459   4.637   7.563   0.586 -3.5557  1.8940  2.3220
  699MOL0     H96460   4.355   7.488   0.912  1.1520 -0.6103 -1.0999
  699MOL0     H96461   4.521   7.508   0.972  0.1071  1.5021  1.7000
  699MOL0     H96462   4.451   7.609   0.846 -0.9375 -0.2443 -0.1017
  700MOL0     O96463   5.191   5.022   1.181  0.1335 -0.4909  0.8932
  700MOL0     C96464   5.178   5.080   1.075 -0.1579 -0.9662  0.7032
  700MOL0     O96465   5.162   5.214   1.061  0.4425  0.3539  0.1078
  700MOL0     C96466   5.177   5.306   1.162  0.3403 -0.0668  0.0871
  700MOL0     C96467   5.291   5.305   1.233  0.0509  0.3489  0.3402
  700MOL0     C96468   5.311   5.408   1.329 -0.3608  0.3293 -0.1944
  700MOL0     C96469   5.217   5.500   1.359  0.3128 -0.0810  0.4054
  700MOL0     O96470   5.253   5.602   1.445  0.0469  0.2330 -0.0534
  700MOL0     C96471   5.260   5.733   1.382 -0.0522 -1.0307 -0.1141
  700MOL0     C96472   5.411   5.760   1.352 -0.3538 -0.1743 -0.2235
  700MOL0     C96473   5.425   5.903   1.305 -0.6495 -0.2316  0.1240
  700MOL0     C96474   5.569   5.947   1.354 -0.4825  0.8722  0.2136
  700MOL0     C96475   5.603   6.091   1.332  0.3885  0.2626  0.2797
  700MOL0     C96476   5.574   6.168   1.461  0.1939  0.0395 -0.6446
  700MOL0     C96477   5.641   6.303   1.461  0.0078  0.7335 -0.1789
  700MOL0     C96478   5.609   6.395   1.575  0.2318  0.2763  1.1187
  700MOL0     N96479   5.484   6.456   1.535 -0.0285 -0.1662 -0.4412
  700MOL0     C96480   5.477   6.548   1.435 -0.0519 -0.6414 -0.5978
  700MOL0     C96481   5.344   6.586   1.436  0.1941  0.3459  0.0814
  700MOL0     C96482   5.278   6.673   1.332 -0.8035 -0.9595  0.3684
  700MOL0     C96483   5.205   6.784   1.406  0.4889 -0.2223  0.2014
  700MOL0     C96484   5.294   6.870   1.493 -0.3684 -0.0842  0.3765
  700MOL0     C96485   5.317   7.018   1.440 -0.2665 -0.4629  0.3031
  700MOL0     O96486   5.373   7.029   1.304 -0.2051 -0.0896 -0.5459
  700MOL0     C96487   5.385   7.153   1.250 -0.0285  0.0382 -0.0585
  700MOL0     C96488   5.407   7.161   1.109 -0.7161  0.4479 -0.1180
  700MOL0     C96489   5.431   7.280   1.041  0.2099 -1.0701  0.5059
  700MOL0     C96490   5.485   7.268   0.903 -0.3385  0.0399  0.5871
  700MOL0     C96491   5.433   7.397   1.111  0.6457 -0.7986 -0.4083
  700MOL0     C96492   5.451   7.527   1.043 -0.3396 -0.9666 -0.7343
  700MOL0     O96493   5.517   7.621   1.127 -1.1650  1.7301 -0.5719
  700MOL0     C96494   5.575   7.742   1.079  0.1528 -0.0342  1.6188
  700MOL0     C96495   5.500   7.854   1.044  0.0629  0.8700 -0.5836
  700MOL0     C96496   5.549   7.974   0.977  0.5694  0.3343 -0.1739
  700MOL0     C96497   5.696   7.979   0.953  0.2224 -0.6669 -0.2742
  700MOL0     O96498   5.738   8.095   0.897 -0.5742 -0.0262 -1.2260
  700MOL0     C96499   5.884   8.125   0.910  0.3797 -0.1541  0.8803
  700MOL0     C96500   5.928   8.257   0.847 -0.1570 -0.7758 -0.7963
  700MOL0     C96501   5.862   8.374   0.937  0.6251 -0.1419  0.8996
  700MOL0     C96502   5.960   8.481   0.987 -0.2731  0.4447  0.1625
  700MOL0     C96503   5.893   8.590   1.066 -0.5279  0.3840  0.2386
  700MOL0     C96504   5.995   8.679   1.141 -0.4857 -0.2102  0.6257
  700MOL0     C96505   5.934   8.812   1.182 -0.4044  0.4126 -0.4228
  700MOL0     C96506   5.861   8.890   1.067  0.2840  0.3737 -0.4126
  700MOL0    Cl96507   5.959   8.902   0.924 -0.1655  0.1832  0.4186
  700MOL0     C96508   5.775   7.868   1.011  1.0288 -0.8443  0.3622
  700MOL0     C96509   5.712   7.754   1.058 -0.8830 -0.3896 -0.4912
  700MOL0     O96510   5.401   7.550   0.933 -0.5475  0.1182 -0.1024
  700MOL0     C96511   5.408   7.390   1.252 -0.1769 -0.7659 -0.7593
  700MOL0     C96512   5.384   7.273   1.317  1.0440  0.2554 -0.5353
  700MOL0     N96513   5.279   6.517   1.543  0.4270 -0.9797  0.1221
  700MOL0     N96514   5.365   6.443   1.600 -0.1933  0.2437 -0.3160
  700MOL0     C96515   5.097   5.503   1.284  0.0509 -0.4214 -0.2601
  700MOL0     C96516   5.083   5.412   1.177  0.1869 -0.4517 -0.1962
  700MOL0     C96517   5.177   5.001   0.946 -0.2935 -0.0136 -0.3590
  700MOL0     C96518   5.106   5.056   0.834 -0.1815 -0.3485 -0.5968
  700MOL0     C96519   5.081   4.981   0.725  0.1653 -0.6240  0.5054
  700MOL0     C96520   5.136   4.854   0.706 -0.3264 -0.0557 -0.3606
  700MOL0     O96521   5.095   4.805   0.584 -0.0635 -0.8902 -0.8039
  700MOL0     C96522   5.118   4.667   0.558  0.9485  0.5656  0.2663
  700MOL0     C96523   5.108   4.639   0.413 -0.3959 -0.4526  0.0297
  700MOL0     C96524   5.218   4.724   0.347  0.1417 -0.2092  1.4090
  700MOL0     C96525   5.245   4.667   0.201  0.2872 -0.7777  0.3213
  700MOL0     C96526   5.307   4.537   0.220  0.4261 -1.0145 -0.5387
  700MOL0     C96527   5.352   4.427   0.230  0.2189 -0.5531  0.2899
  700MOL0     C96528   5.209   4.801   0.816  0.3543  0.3763  0.3025
  700MOL0     C96529   5.235   4.874   0.935  1.6759  0.2244 -0.1906
  700MOL0     C96530   5.346   4.823   1.028 -0.2360  0.1145  0.0424
  700MOL0     H96531   5.380   5.248   1.208  0.1650  0.3066  0.8353
  700MOL0     H96532   5.399   5.410   1.393 -0.6335 -1.1060  0.2572
  700MOL0     H96533   5.223   5.801   1.459 -3.3523 -2.0301 -0.6514
  700MOL0     H96534   5.207   5.742   1.287  1.5938  2.3776 -0.8644
  700MOL0     H96535   5.461   5.753   1.449  0.7709 -0.3079 -0.7872
  700MOL0     H96536   5.453   5.690   1.278 -1.0479  0.1190 -0.9091
  700MOL0     H96537   5.407   5.920   1.199  2.5622 -0.9741 -0.6488
  700MOL0     H96538   5.357   5.971   1.358 -3.0472 -1.2840 -1.4030
  700MOL0     H96539   5.590   5.923   1.459 -1.3627 -0.8490  0.0327
  700MOL0     H96540   5.642   5.890   1.295 -1.3137  1.8595 -1.8636
  700MOL0     H96541   5.544   6.141   1.255 -1.1524  0.2204  1.3747
  700MOL0     H96542   5.707   6.105   1.304  0.7682 -2.1492  0.2559
  700MOL0     H96543   5.466   6.170   1.480  0.2165 -0.7708 -0.4087
  700MOL0     H96544   5.598   6.119   1.556 -3.4207  1.3707  1.1595
  700MOL0     H96545   5.615   6.355   1.368  1.0841 -1.3654 -1.7253
  700MOL0     H96546   5.749   6.288   1.449 -0.3314  0.0795 -3.1954
  700MOL0     H96547   5.608   6.329   1.663  2.3691 -0.8303  0.3860
  700MOL0     H96548   5.687   6.468   1.599  2.6133 -1.0032 -2.0301
  700MOL0     H96549   5.543   6.571   1.352 -0.7175 -0.3502 -1.0541
  700MOL0     H96550   5.204   6.610   1.281  0.1547  0.0029 -2.3570
  700MOL0     H96551   5.354   6.714   1.265  0.0578  0.1246  1.9413
  700MOL0     H96552   5.159   6.846   1.328  0.9390 -0.5025 -0.2944
  700MOL0     H96553   5.119   6.747   1.462 -2.0866 -0.1656 -3.3719
  700MOL0     H96554   5.259   6.878   1.597  5.0069 -2.1758  2.7390
  700MOL0     H96555   5.393   6.824   1.484 -1.5203 -2.3696 -2.2185
  700MOL0     H96556   5.224   7.076   1.445  0.3070  0.3904  1.5755
  700MOL0     H96557   5.386   7.070   1.506  1.4602 -0.1294 -1.6403
  700MOL0     H96558   5.417   7.067   1.055  0.3371  0.7381 -0.4454
  700MOL0     H96559   5.589   7.303   0.896  0.3255 -2.1655 -2.0688
  700MOL0     H96560   5.439   7.331   0.827  0.9308  1.7546  1.1709
  700MOL0     H96561   5.479   7.168   0.859 -4.9976  1.0952 -1.7223
  700MOL0     H96562   5.393   7.847   1.062  0.3330  0.5490  1.0561
  700MOL0     H96563   5.478   8.047   0.939 -2.1348 -0.5457  2.7006
  700MOL0     H96564   5.909   8.127   1.017  1.0050  0.5102  0.7311
  700MOL0     H96565   5.936   8.042   0.860  0.1974 -1.3701  2.5954
  700MOL0     H96566   6.036   8.260   0.835 -0.0720 -0.6123 -0.0343
  700MOL0     H96567   5.897   8.275   0.743 -0.0289  0.2199 -0.6717
  700MOL0     H96568   5.817   8.327   1.024  1.3929 -0.1235  1.3118
  700MOL0     H96569   5.779   8.425   0.886 -0.1911 -1.6031  0.7008
  700MOL0     H96570   6.012   8.520   0.899 -0.7176  1.9184  0.5254
  700MOL0     H96571   6.039   8.432   1.044  2.8484  2.2920 -2.2386
  700MOL0     H96572   5.828   8.635   0.989  0.5471  1.3175 -0.1561
  700MOL0     H96573   5.822   8.549   1.138  0.2017  0.9129  1.2939
  700MOL0     H96574   6.078   8.688   1.070 -0.4328 -2.0919  0.3920
  700MOL0     H96575   6.029   8.630   1.233  0.0663  2.6718  2.0959
  700MOL0     H96576   6.020   8.868   1.219  1.0105 -0.4568 -2.1879
  700MOL0     H96577   5.874   8.803   1.272  0.1921 -4.4477 -0.2787
  700MOL0     H96578   5.843   8.990   1.108 -0.2603  0.0910  0.0609
  700MOL0     H96579   5.764   8.843   1.044  1.1865 -0.7058 -2.3085
  700MOL0     H96580   5.883   7.863   0.995  0.9160 -3.6201  0.0464
  700MOL0     H96581   5.775   7.673   1.094  0.9008  1.2529  0.2073
  700MOL0     H96582   5.414   7.486   1.302 -1.4093  0.0068 -2.0103
  700MOL0     H96583   5.373   7.275   1.425  0.9447 -0.1617 -0.5372
  700MOL0     H96584   5.021   5.579   1.304 -1.3718 -1.1382 -2.4745
  700MOL0     H96585   4.990   5.433   1.126 -0.4280 -2.8190 -0.1739
  700MOL0     H96586   5.072   5.159   0.834  0.4867 -0.1190 -1.1176
  700MOL0     H96587   5.007   5.007   0.650 -0.5050 -2.1894  0.5876
  700MOL0     H96588   5.220   4.638   0.586  1.0483  2.4732  2.1437
  700MOL0     H96589   5.045   4.617   0.623  0.1150  0.1560 -0.9661
  700MOL0     H96590   5.012   4.678   0.376 -1.1662  0.8337  3.0809
  700MOL0     H96591   5.114   4.531   0.396  3.7633 -0.5449  1.0291
  700MOL0     H96592   5.181   4.826   0.333 -0.2524 -0.6282 -1.0644
  700MOL0     H96593   5.307   4.722   0.412  2.0117 -1.3675 -1.0482
  700MOL0     H96594   5.329   4.722   0.157  1.7736  0.0174  3.8034
  700MOL0     H96595   5.159   4.651   0.136  0.7318  2.7808 -1.4121
  700MOL0     H96596   5.391   4.327   0.240  0.0112 -0.6834 -0.1973
  700MOL0     H96597   5.263   4.707   0.808 -0.2709 -0.0470  0.9279
  700MOL0     H96598   5.295   4.751   1.093 -0.3603 -3.2500 -3.4297
  700MOL0     H96599   5.427   4.770   0.978  1.4390  1.5788  1.0727
  700MOL0     H96600   5.378   4.909   1.087 -3.7029  2.3272 -0.9665
  701MOL0     O96601   0.988   9.259   9.143  0.0454  0.5898  0.3777
  701MOL0     C96602   1.106   9.268   9.144  1.1421 -0.8471  0.3708
  701MOL0     O96603   1.173   9.343   9.050 -0.2382 -0.6356  0.2843
  701MOL0     C96604   1.106   9.392   8.937  0.3960 -0.8936  0.0858
  701MOL0     C96605   0.970   9.443   8.919  0.5528 -0.2063  0.0208
  701MOL0     C96606   0.956   9.522   8.805  0.6154 -0.4252  0.5674
  701MOL0     C96607   1.041   9.523   8.697  0.6086  0.5296  0.3765
  701MOL0     O96608   1.012   9.586   8.573  0.1194 -0.4043  0.5132
  701MOL0     C96609   0.977   9.507   8.461 -0.0364 -0.7992 -0.6587
  701MOL0     C96610   0.994   9.559   8.326 -0.4400  0.2054 -0.6297
  701MOL0     C96611   0.921   9.688   8.304  0.0445  1.5047 -0.0761
  701MOL0     C96612   0.952   9.760   8.169 -0.6385  0.3011  1.2612
  701MOL0     C96613   0.905   9.907   8.163 -0.3650  0.1832 -0.5373
  701MOL0     C96614   1.001  10.003   8.081  0.7968  0.5668 -0.3282
  701MOL0     C96615   0.958  10.145   8.068 -0.3994 -0.3290  0.1946
  701MOL0     C96616   1.067  10.241   8.032 -0.2753  1.0388 -0.2452
  701MOL0     N96617   1.144  10.275   8.159 -1.0844  0.3863 -0.4173
  701MOL0     C96618   1.113  10.368   8.255 -1.0227 -0.6770  0.6186
  701MOL0     C96619   1.207  10.360   8.347 -0.5212  0.5770 -0.9305
  701MOL0     C96620   1.217  10.453   8.460  0.1539 -0.8673 -0.2748
  701MOL0     C96621   1.281  10.586   8.415  0.0391  0.0216  0.3842
  701MOL0     C96622   1.332  10.663   8.530 -0.0272  0.4730 -0.9755
  701MOL0     C96623   1.382  10.804   8.485  0.0678  0.5416 -0.4355
  701MOL0     O96624   1.461  10.854   8.599  0.4630  0.2232  0.1888
  701MOL0     C96625   1.595  10.836   8.595 -0.2821  1.0812 -1.3474
  701MOL0     C96626   1.670  10.753   8.514  0.2200  0.5073  0.3970
  701MOL0     C96627   1.806  10.745   8.537 -0.4880 -0.6318  0.1400
  701MOL0     C96628   1.878  10.644   8.450  0.8641  0.0417  0.3455
  701MOL0     C96629   1.868  10.829   8.628  0.1391 -0.8903  0.5921
  701MOL0     C96630   2.020  10.825   8.658  0.0327 -0.3097 -0.3276
  701MOL0     O96631   2.075  10.952   8.682 -0.2150 -0.1118 -0.7745
  701MOL0     C96632   2.213  10.955   8.674  0.5053 -0.2719 -1.2211
  701MOL0     C96633   2.294  10.940   8.789  0.0790  0.2336  0.0190
  701MOL0     C96634   2.435  10.956   8.780  0.1824 -0.8658  0.5977
  701MOL0     C96635   2.493  11.005   8.661 -0.0613 -0.1455  0.8000
  701MOL0     O96636   2.631  11.028   8.655  0.6911  0.6127 -0.3138
  701MOL0     C96637   2.707  10.905   8.629 -0.3435 -0.0136  0.0518
  701MOL0     C96638   2.851  10.925   8.663 -0.9184 -0.5723 -0.4339
  701MOL0     C96639   2.913  10.812   8.746  0.9864  0.4434 -0.2222
  701MOL0     C96640   3.056  10.850   8.778 -0.7386  0.2809 -0.3760
  701MOL0     C96641   3.106  10.760   8.892  0.4123  0.6508 -0.0307
  701MOL0     C96642   3.120  10.616   8.841  1.0885 -0.4721  0.0171
  701MOL0     C96643   3.186  10.534   8.950 -0.0446  0.2738 -0.1061
  701MOL0     C96644   3.331  10.489   8.929  0.1170 -0.4452 -0.6662
  701MOL0    Cl96645   3.379  10.367   9.048  0.4232  0.3408 -0.2020
  701MOL0     C96646   2.418  11.018   8.551  0.1898  0.5635  0.8893
  701MOL0     C96647   2.280  10.984   8.555  0.1188  0.3138  0.2968
  701MOL0     O96648   2.076  10.718   8.639  0.3953 -0.1132 -0.3649
  701MOL0     C96649   1.797  10.916   8.705  0.3746 -0.4965  0.5882
  701MOL0     C96650   1.661  10.919   8.683  0.3302 -0.2955  0.0039
  701MOL0     N96651   1.291  10.258   8.307  0.0672 -0.3497 -0.3868
  701MOL0     N96652   1.257  10.204   8.195 -0.2781  0.1888  0.1506
  701MOL0     C96653   1.159   9.450   8.701  1.2244  0.2269 -0.2633
  701MOL0     C96654   1.194   9.403   8.828 -0.0387 -1.3339  0.6376
  701MOL0     C96655   1.184   9.216   9.256 -1.0995 -0.6141  0.1803
  701MOL0     C96656   1.301   9.285   9.305  0.3937  0.4440  0.8742
  701MOL0     C96657   1.369   9.235   9.424  0.5744 -0.1842  0.0202
  701MOL0     C96658   1.326   9.122   9.492  0.3722  0.4542  0.7314
  701MOL0     O96659   1.382   9.063   9.599 -0.2771  0.0061 -0.1465
  701MOL0     C96660   1.506   9.110   9.651  0.7616  0.6420  1.2698
  701MOL0     C96661   1.561   8.999   9.733 -0.6182 -0.4465  0.1328
  701MOL0     C96662   1.469   8.955   9.851  1.0713 -1.3748  0.1414
  701MOL0     C96663   1.530   8.825   9.900 -0.7780  0.2543  0.3860
  701MOL0     C96664   1.672   8.820   9.944  0.5479  0.6328  0.0343
  701MOL0     C96665   1.792   8.813   9.966  0.0098 -0.0702  0.3232
  701MOL0     C96666   1.216   9.055   9.440 -0.1973  0.4268  0.8282
  701MOL0     C96667   1.147   9.101   9.320  0.2070  0.7918  0.4135
  701MOL0     C96668   1.042   9.011   9.265  0.7824 -0.4113 -0.5864
  701MOL0     H96669   0.902   9.437   9.003 -1.6675  2.1908 -1.4647
  701MOL0     H96670   0.862   9.571   8.779  1.3648 -0.1567 -1.8467
  701MOL0     H96671   0.872   9.485   8.480  0.5907 -1.3827  2.9074
  701MOL0     H96672   1.032   9.412   8.459  2.4685  0.4429  1.8569
  701MOL0     H96673   1.101   9.572   8.303 -0.7478 -0.1639 -2.4728
  701MOL0     H96674   0.949   9.472   8.276  1.8330 -2.5484  1.7427
  701MOL0     H96675   0.814   9.665   8.296  0.5356 -0.8649 -0.7138
  701MOL0     H96676   0.930   9.762   8.383 -0.8397  0.0185  1.4905
  701MOL0     H96677   1.058   9.750   8.146 -0.5244 -0.5571  2.0703
  701MOL0     H96678   0.909   9.700   8.088 -1.3644  1.6339  0.6263
  701MOL0     H96679   0.892   9.939   8.267 -2.4771 -0.7956 -0.4370
  701MOL0     H96680   0.806   9.899   8.116  1.3802  0.4944 -4.6079
  701MOL0     H96681   1.098  10.007   8.131  0.9186  0.4728 -0.5575
  701MOL0     H96682   1.014   9.967   7.979 -0.5357 -0.3816 -0.1904
  701MOL0     H96683   0.913  10.173   8.164  0.9746 -0.0744  0.7839
  701MOL0     H96684   0.877  10.168   7.999 -0.1549 -2.9405 -1.0612
  701MOL0     H96685   1.129  10.190   7.957  0.2315  3.2032 -1.3682
  701MOL0     H96686   1.024  10.335   7.996  1.1123  1.6909 -0.2434
  701MOL0     H96687   1.033  10.440   8.237 -0.5087 -0.1612  0.3845
  701MOL0     H96688   1.287  10.402   8.527  0.6565 -0.0376 -0.1518
  701MOL0     H96689   1.121  10.483   8.502  2.0391  2.9468  1.9447
  701MOL0     H96690   1.358  10.553   8.345 -3.8698 -2.0077 -3.4265
  701MOL0     H96691   1.207  10.637   8.353  0.8997 -0.5977 -1.1899
  701MOL0     H96692   1.252  10.667   8.604  0.8083  1.6124 -0.1080
  701MOL0     H96693   1.412  10.606   8.578 -0.4043 -0.7946 -1.7824
  701MOL0     H96694   1.433  10.792   8.389  1.4783 -2.5227  0.5677
  701MOL0     H96695   1.294  10.867   8.470  0.1050  0.7206  0.0839
  701MOL0     H96696   1.621  10.711   8.427 -1.3422  4.2522 -0.7479
  701MOL0     H96697   1.823  10.621   8.359  3.4467 -2.2611 -0.7868
  701MOL0     H96698   1.902  10.561   8.517  1.8722  2.0871  2.6954
  701MOL0     H96699   1.977  10.676   8.416  0.9482 -1.5787 -1.0794
  701MOL0     H96700   2.259  10.894   8.881  0.4180 -0.6577 -0.2875
  701MOL0     H96701   2.502  10.947   8.865 -1.8260  1.1235  2.5254
  701MOL0     H96702   2.674  10.817   8.685  3.0940 -2.2878 -1.1725
  701MOL0     H96703   2.698  10.879   8.523 -0.6158  2.1801 -0.5197
  701MOL0     H96704   2.901  10.957   8.572 -0.1599  0.9069  0.4578
  701MOL0     H96705   2.842  11.013   8.727 -1.1493 -0.0318 -1.2011
  701MOL0     H96706   2.899  10.721   8.687 -1.7638 -0.1542  1.2083
  701MOL0     H96707   2.858  10.789   8.837  0.8588  1.2870 -0.0812
  701MOL0     H96708   3.069  10.955   8.807 -0.5632 -0.0527  0.8246
  701MOL0     H96709   3.121  10.846   8.690  0.9618  1.2504  0.7706
  701MOL0     H96710   3.203  10.796   8.927  0.8719 -0.9367  0.3952
  701MOL0     H96711   3.036  10.760   8.976 -0.6397 -4.3463 -0.5841
  701MOL0     H96712   3.183  10.609   8.752  1.0595  0.4233 -0.0824
  701MOL0     H96713   3.020  10.577   8.821  0.6720  1.5049 -2.2975
  701MOL0     H96714   3.128  10.442   8.966 -1.7334  1.4773  1.0110
  701MOL0     H96715   3.181  10.587   9.045  1.6733 -0.8940  0.6767
  701MOL0     H96716   3.406  10.568   8.935  1.3113 -1.3671 -2.5245
  701MOL0     H96717   3.325  10.444   8.830  0.8806 -1.7162 -0.1741
  701MOL0     H96718   2.457  11.051   8.456 -1.1929  0.1046  0.1317
  701MOL0     H96719   2.226  10.972   8.461  2.2333 -0.3154 -0.8980
  701MOL0     H96720   1.836  11.000   8.761 -3.2984  1.9870 -0.2187
  701MOL0     H96721   1.601  10.986   8.744 -1.5261 -1.2114 -0.7269
  701MOL0     H96722   1.237   9.444   8.626  1.0920 -1.2557 -0.2985
  701MOL0     H96723   1.298   9.377   8.843 -0.1173 -0.6221  2.6582
  701MOL0     H96724   1.332   9.368   9.242 -1.9264 -1.4698 -3.2078
  701MOL0     H96725   1.455   9.286   9.466 -0.1153  0.5795  0.5366
  701MOL0     H96726   1.573   9.133   9.567  0.3156  1.6213  1.1724
  701MOL0     H96727   1.487   9.209   9.694 -0.9027  1.9877 -2.1032
  701MOL0     H96728   1.650   9.041   9.781  1.1843 -0.5328 -2.8895
  701MOL0     H96729   1.595   8.916   9.670 -0.0218 -0.5348  0.5584
  701MOL0     H96730   1.464   9.034   9.926  1.4498 -0.5269 -0.7153
  701MOL0     H96731   1.366   8.939   9.818  0.3462 -3.8833  3.1619
  701MOL0     H96732   1.530   8.741   9.830  1.9143 -0.0555  0.6569
  701MOL0     H96733   1.475   8.793   9.989  3.8250  2.3197  4.4373
  701MOL0     H96734   1.895   8.792   9.985  0.5308  0.9363 -1.2613
  701MOL0     H96735   1.185   8.969   9.499 -0.3869  1.8067  2.8541
  701MOL0     H96736   1.032   9.006   9.156  0.0083  0.1047 -0.5429
  701MOL0     H96737   1.051   8.906   9.293 -2.2805 -0.8455 -0.8816
  701MOL0     H96738   0.945   9.038   9.307  1.7270  2.9033 -0.2330
  702MOL0     O96739   2.507   0.704   9.712 -0.0514  0.3913  0.3420
  702MOL0     C96740   2.585   0.684   9.802  0.6627 -0.5130 -1.1490
  702MOL0     O96741   2.611   0.560   9.859  0.3438 -0.5394 -0.9694
  702MOL0     C96742   2.519   0.463   9.838  0.4064 -0.7799 -0.7367
  702MOL0     C96743   2.553   0.331   9.803 -0.7367 -0.4495 -0.3315
  702MOL0     C96744   2.460   0.236   9.769  0.4682 -0.1734 -0.5358
  702MOL0     C96745   2.324   0.265   9.777  0.4910  0.3280 -0.0093
  702MOL0     O96746   2.212   0.176   9.753  0.3643  0.4915  0.5766
  702MOL0     C96747   2.251   0.032   9.753  0.7233 -0.0970  0.2633
  702MOL0     C96748   2.124  -0.050   9.729  0.1842 -0.3597 -0.6126
  702MOL0     C96749   2.025  -0.004   9.621  0.0269 -0.1503 -0.4000
  702MOL0     C96750   1.954  -0.115   9.552  0.1476  0.4203 -0.2068
  702MOL0     C96751   1.879  -0.070   9.432 -0.4809 -0.2991 -0.1315
  702MOL0     C96752   1.823  -0.172   9.332 -0.3810 -0.3409  0.2735
  702MOL0     C96753   1.694  -0.235   9.382  0.3727  0.7281 -0.5667
  702MOL0     C96754   1.610  -0.293   9.262 -0.1275 -0.5196 -0.2581
  702MOL0     N96755   1.471  -0.327   9.292 -0.6081  0.7642 -0.2052
  702MOL0     C96756   1.368  -0.328   9.201 -0.7232  0.1842 -0.0898
  702MOL0     C96757   1.260  -0.352   9.274 -0.8966 -0.0236 -0.3204
  702MOL0     C96758   1.114  -0.359   9.234 -0.4400 -0.4664  0.8750
  702MOL0     C96759   1.076  -0.252   9.135 -0.4690  0.2178  0.1831
  702MOL0     C96760   0.936  -0.286   9.075 -0.2873  0.1586 -0.1736
  702MOL0     C96761   0.818  -0.270   9.165  0.3311  0.1096  0.0795
  702MOL0     O96762   0.779  -0.143   9.192  0.3473  0.0719  0.7185
  702MOL0     C96763   0.676  -0.128   9.279  0.5251  0.2656  0.6083
  702MOL0     C96764   0.693  -0.147   9.417 -0.7661  0.6830 -0.2329
  702MOL0     C96765   0.585  -0.149   9.503  1.3672 -0.1340 -1.1643
  702MOL0     C96766   0.619  -0.164   9.645 -0.8072  0.4690 -0.4190
  702MOL0     C96767   0.449  -0.127   9.454 -0.2989  0.4456 -0.4780
  702MOL0     C96768   0.327  -0.137   9.538 -0.0423 -0.1899 -0.0761
  702MOL0     O96769   0.230  -0.048   9.506 -0.5681  0.7617  0.4010
  702MOL0     C96770   0.144  -0.004   9.604  0.0973 -0.4026  0.3780
  702MOL0     C96771   0.177   0.014   9.746 -1.5165  0.0016 -0.0180
  702MOL0     C96772   0.077   0.057   9.835  1.3944 -0.0117 -1.3259
  702MOL0     C96773  -0.049   0.093   9.783  0.0109  0.5514 -0.0077
  702MOL0     O96774  -0.153   0.139   9.851 -0.2132 -0.1985  0.0076
  702MOL0     C96775  -0.206   0.049   9.946 -0.3783 -0.0820  0.3426
  702MOL0     C96776  -0.169   0.088  10.087  0.4685 -0.6474 -0.2215
  702MOL0     C96777  -0.239   0.021  10.197  0.3589  0.3696 -0.5941
  702MOL0     C96778  -0.149   0.040  10.319  0.1711  1.0198  0.2588
  702MOL0     C96779  -0.216  -0.025  10.444 -0.2217 -0.9085 -0.3308
  702MOL0     C96780  -0.104  -0.088  10.533 -0.1893 -0.5421  0.0100
  702MOL0     C96781  -0.160  -0.131  10.678  0.2611  0.9133 -0.2551
  702MOL0     C96782  -0.066  -0.206  10.771 -0.5531  0.2133 -0.2276
  702MOL0    Cl96783  -0.060  -0.368  10.699  0.1549  0.1607  0.2780
  702MOL0     C96784  -0.081   0.079   9.644 -0.5004  0.6626 -0.1228
  702MOL0     C96785   0.023   0.036   9.560  0.9788  0.6363 -0.3998
  702MOL0     O96786   0.316  -0.217   9.630 -0.1766 -0.4688 -0.2943
  702MOL0     C96787   0.435  -0.116   9.312 -0.2142 -0.4366  1.1866
  702MOL0     C96788   0.549  -0.108   9.225 -0.0011  0.4052 -0.0908
  702MOL0     N96789   1.303  -0.354   9.411  0.5107  0.7283  0.3532
  702MOL0     N96790   1.427  -0.336   9.426  0.1739  0.6217  0.8409
  702MOL0     C96791   2.286   0.397   9.814  0.1607 -0.5200 -0.6160
  702MOL0     C96792   2.382   0.492   9.850 -0.3791 -0.0645 -0.1771
  702MOL0     C96793   2.663   0.797   9.864 -0.3581 -0.1551 -0.2375
  702MOL0     C96794   2.743   0.782   9.983 -0.3232 -1.1975 -0.1742
  702MOL0     C96795   2.822   0.889  10.041 -0.0093  0.1475 -0.5956
  702MOL0     C96796   2.826   1.011   9.976  0.2044 -0.5058 -0.5278
  702MOL0     O96797   2.919   1.110  10.006 -0.2504  0.7017 -0.4703
  702MOL0     C96798   2.988   1.112  10.131  0.0368 -1.7541  0.0618
  702MOL0     C96799   3.011   1.261  10.165 -0.3693  0.0352 -0.7020
  702MOL0     C96800   3.092   1.290  10.290  0.0605 -0.3024  0.7513
  702MOL0     C96801   3.238   1.273  10.249 -0.3711  0.0539  0.9431
  702MOL0     C96802   3.334   1.317  10.355 -0.2128 -0.8388  0.2466
  702MOL0     C96803   3.405   1.368  10.440  0.0092  0.0843  0.4868
  702MOL0     C96804   2.747   1.029   9.867 -0.3132  0.3434  0.6847
  702MOL0     C96805   2.662   0.930   9.819 -1.2915 -0.3566 -0.1139
  702MOL0     C96806   2.566   0.979   9.725 -0.3782  0.5979  0.0088
  702MOL0     H96807   2.660   0.329   9.783 -0.5709 -1.7435  0.5220
  702MOL0     H96808   2.495   0.134   9.755  0.9689  0.3308 -3.4548
  702MOL0     H96809   2.311   0.009   9.841 -0.6925 -2.1493  0.7722
  702MOL0     H96810   2.308   0.016   9.662  0.3493  2.3083 -0.4596
  702MOL0     H96811   2.152  -0.153   9.703  1.7525  0.3991 -2.1436
  702MOL0     H96812   2.060  -0.053   9.818  0.0039  0.3519 -0.7167
  702MOL0     H96813   1.952   0.059   9.673 -1.7633 -1.6646 -0.9596
  702MOL0     H96814   2.073   0.061   9.547 -3.1047  4.2181  0.9933
  702MOL0     H96815   2.026  -0.190   9.518  0.0970  0.5982 -0.7146
  702MOL0     H96816   1.889  -0.178   9.613  2.1905 -1.7538 -0.1024
  702MOL0     H96817   1.941  -0.001   9.374 -2.8434  3.0196  0.9832
  702MOL0     H96818   1.803  -0.000   9.468 -0.3622  1.1121 -2.4140
  702MOL0     H96819   1.810  -0.101   9.249 -0.2986  4.2613  3.7710
  702MOL0     H96820   1.897  -0.250   9.314 -1.0461 -0.4724 -2.2348
  702MOL0     H96821   1.640  -0.157   9.438 -0.6745  0.3206 -0.9908
  702MOL0     H96822   1.707  -0.317   9.453  3.2311 -0.2636 -2.0545
  702MOL0     H96823   1.609  -0.213   9.188 -2.5760 -0.6502 -0.4467
  702MOL0     H96824   1.674  -0.376   9.232  0.8383  0.7122 -1.7213
  702MOL0     H96825   1.365  -0.312   9.094  2.4830  0.3949 -0.2268
  702MOL0     H96826   1.051  -0.343   9.321 -0.2197  1.5468  0.7099
  702MOL0     H96827   1.089  -0.456   9.188 -1.7893  0.9485 -1.5940
  702MOL0     H96828   1.078  -0.156   9.188  0.5694  0.7974 -0.8646
  702MOL0     H96829   1.151  -0.255   9.055 -0.3335 -0.8444  0.3359
  702MOL0     H96830   0.925  -0.225   8.985 -1.0130  2.5332  1.4499
  702MOL0     H96831   0.933  -0.393   9.052 -1.8251 -0.6653  3.2855
  702MOL0     H96832   0.740  -0.332   9.122 -0.3093 -0.8303  2.4248
  702MOL0     H96833   0.860  -0.310   9.258 -0.8187 -0.6332  0.2957
  702MOL0     H96834   0.797  -0.171   9.438  0.8785  3.9924 -3.4692
  702MOL0     H96835   0.568  -0.252   9.685 -2.0948  0.3366 -2.2143
  702MOL0     H96836   0.591  -0.076   9.704  1.9737  0.8020  0.5446
  702MOL0     H96837   0.726  -0.185   9.656 -1.3832 -3.0840 -0.3387
  702MOL0     H96838   0.278   0.017   9.787 -0.5581  0.4870 -2.2619
  702MOL0     H96839   0.084   0.085   9.940  0.6840  0.3746 -1.3728
  702MOL0     H96840  -0.314   0.045   9.930 -0.3425  2.0142 -0.7587
  702MOL0     H96841  -0.162  -0.050   9.928 -1.5025 -0.4216 -0.6211
  702MOL0     H96842  -0.062   0.071  10.096 -0.0053 -3.5693  1.2656
  702MOL0     H96843  -0.183   0.196  10.101  3.3479  0.2675 -3.1711
  702MOL0     H96844  -0.242  -0.087  10.176  0.3415 -0.1832  1.9824
  702MOL0     H96845  -0.342   0.055  10.209 -1.5869 -3.2768 -4.1501
  702MOL0     H96846  -0.112   0.140  10.342  1.5301  0.3746  0.9838
  702MOL0     H96847  -0.057  -0.018  10.304 -1.1033 -0.8335 -0.8224
  702MOL0     H96848  -0.279   0.049  10.494  1.9380  0.2687  0.7649
  702MOL0     H96849  -0.284  -0.106  10.415 -1.7170  0.0916  0.2287
  702MOL0     H96850  -0.014  -0.032  10.558 -0.2294 -0.8355  0.8465
  702MOL0     H96851  -0.052  -0.161  10.471  1.5764  0.2966  0.4540
  702MOL0     H96852  -0.246  -0.194  10.654  1.7976 -1.1680 -0.5936
  702MOL0     H96853  -0.191  -0.040  10.731 -0.9476  0.5052 -0.2364
  702MOL0     H96854  -0.109  -0.217  10.871  2.6666 -3.0087  1.0346
  702MOL0     H96855   0.036  -0.171  10.787 -0.1396 -1.2435  0.5615
  702MOL0     H96856  -0.179   0.097   9.600 -0.1943 -0.1460 -1.1657
  702MOL0     H96857  -0.009   0.024   9.458 -1.7391 -1.2905  0.5628
  702MOL0     H96858   0.343  -0.076   9.269  0.2495  0.1393  0.6996
  702MOL0     H96859   0.543  -0.097   9.118  0.7685  1.9583 -0.0049
  702MOL0     H96860   2.179   0.410   9.828 -0.1079 -4.4857  3.0478
  702MOL0     H96861   2.341   0.591   9.869  1.1428  0.7397 -0.8675
  702MOL0     H96862   2.748   0.682  10.025 -3.3082 -0.3606  2.5382
  702MOL0     H96863   2.890   0.856  10.118  3.9018  0.5461 -3.5944
  702MOL0     H96864   2.922   1.068  10.206  1.8518 -0.6111  2.4793
  702MOL0     H96865   3.081   1.054  10.134  1.5306  0.2944 -2.4958
  702MOL0     H96866   2.911   1.303  10.175  0.0244  0.6960  0.6006
  702MOL0     H96867   3.068   1.304  10.082  0.7784 -0.2538 -0.0875
  702MOL0     H96868   3.086   1.393  10.327  3.3545 -0.6700  2.7384
  702MOL0     H96869   3.069   1.224  10.375  0.7515 -2.3280 -0.5649
  702MOL0     H96870   3.266   1.334  10.163 -1.1868 -0.6691  0.1385
  702MOL0     H96871   3.256   1.169  10.219 -2.3207 -0.2597  0.7712
  702MOL0     H96872   3.451   1.408  10.528  3.6774 -0.3309 -1.0564
  702MOL0     H96873   2.740   1.133   9.837 -3.8855  0.7030  2.2725
  702MOL0     H96874   2.562   0.916   9.635 -1.7637 -2.2013  1.8743
  702MOL0     H96875   2.466   0.975   9.770 -0.9142  2.0988 -0.9538
  702MOL0     H96876   2.585   1.084   9.699  0.7179  1.2850  3.2084
  703MOL0     O96877   5.578   2.293   6.072 -0.2164 -0.1354 -0.2645
  703MOL0     C96878   5.656   2.339   6.154 -0.5311  1.1750 -1.3314
  703MOL0     O96879   5.783   2.386   6.127 -0.5446  0.0070  0.5833
  703MOL0     C96880   5.850   2.374   6.005 -0.1603 -0.1719 -0.9779
  703MOL0     C96881   5.787   2.369   5.881  0.0972  0.5624  0.0581
  703MOL0     C96882   5.870   2.367   5.776 -0.3469 -0.1014  0.7125
  703MOL0     C96883   6.010   2.373   5.793 -0.2332 -0.7109 -0.1956
  703MOL0     O96884   6.081   2.366   5.675 -1.2734  0.5837 -0.6239
  703MOL0     C96885   6.080   2.479   5.588  0.6796 -0.1720 -0.8065
  703MOL0     C96886   6.191   2.451   5.491 -0.2138  0.0312  0.1140
  703MOL0     C96887   6.167   2.505   5.352  0.2647  0.2482 -1.0636
  703MOL0     C96888   6.303   2.477   5.287 -0.0170 -0.9134  0.1352
  703MOL0     C96889   6.313   2.526   5.128  0.8550 -0.6247 -1.5526
  703MOL0     C96890   6.238   2.431   5.033 -0.5676  0.1896  0.1963
  703MOL0     C96891   6.201   2.489   4.902  0.5279  0.4900 -0.3760
  703MOL0     C96892   6.094   2.423   4.822  0.2271  1.3241  0.2738
  703MOL0     N96893   6.103   2.277   4.829  0.4709 -0.4314  0.0168
  703MOL0     C96894   6.062   2.185   4.922  0.2858 -0.3770  0.3499
  703MOL0     C96895   6.111   2.064   4.893  0.5537  0.0305 -0.2394
  703MOL0     C96896   6.107   1.939   4.974  0.1648  0.3138 -0.2737
  703MOL0     C96897   6.243   1.917   5.067  0.3218  0.4372  0.4093
  703MOL0     C96898   6.259   2.018   5.175  0.1613  0.4614 -0.3264
  703MOL0     C96899   6.386   1.979   5.254 -0.1464  0.4028  1.0716
  703MOL0     O96900   6.431   2.093   5.318 -0.0611 -0.4552 -0.0155
  703MOL0     C96901   6.529   2.092   5.414 -0.3560  0.3289  0.2024
  703MOL0     C96902   6.618   1.988   5.415  0.0790 -0.0182  0.4251
  703MOL0     C96903   6.734   1.988   5.495  1.6172  0.0229 -0.6777
  703MOL0     C96904   6.808   1.857   5.491 -0.7871  0.2307  1.1252
  703MOL0     C96905   6.762   2.094   5.585  0.4613 -0.5286  0.2453
  703MOL0     C96906   6.881   2.086   5.688  1.2021 -0.8061  0.2824
  703MOL0     O96907   6.907   2.202   5.743  0.3919  0.3814  0.2761
  703MOL0     C96908   7.017   2.214   5.834  0.0492 -1.0324 -0.8987
  703MOL0     C96909   7.105   2.323   5.812  1.3687  0.8330  0.1695
  703MOL0     C96910   7.216   2.340   5.890  0.4999 -0.2543 -0.2105
  703MOL0     C96911   7.242   2.249   5.991 -1.3989  0.1646  0.1883
  703MOL0     O96912   7.338   2.259   6.086 -0.8578 -0.3180  0.1477
  703MOL0     C96913   7.419   2.375   6.095  0.2575 -0.5672  0.0984
  703MOL0     C96914   7.571   2.334   6.077  0.1221 -0.3691 -0.4425
  703MOL0     C96915   7.673   2.446   6.053  0.5578  0.3654  0.0238
  703MOL0     C96916   7.722   2.510   6.182 -0.4986  0.5956  0.1496
  703MOL0     C96917   7.784   2.639   6.147  0.5511 -0.2048  0.3019
  703MOL0     C96918   7.871   2.718   6.248 -0.1578 -0.5691  0.1456
  703MOL0     C96919   7.918   2.852   6.182  0.0694  0.5870 -1.5177
  703MOL0     C96920   7.997   2.933   6.282  0.7800 -0.4063  1.3684
  703MOL0    Cl96921   8.100   3.047   6.200 -0.7092  0.3083  0.7674
  703MOL0     C96922   7.155   2.138   6.015 -0.5823  0.9401 -0.1104
  703MOL0     C96923   7.046   2.116   5.932 -0.3082 -0.5138  0.1973
  703MOL0     O96924   6.946   1.981   5.705  0.1172 -0.6173  1.1028
  703MOL0     C96925   6.669   2.202   5.580 -0.3843  0.2637  0.1861
  703MOL0     C96926   6.552   2.205   5.498 -0.4749  0.2674 -0.0873
  703MOL0     N96927   6.185   2.082   4.783 -0.1722 -0.9126 -0.2020
  703MOL0     N96928   6.178   2.204   4.741 -0.0554  0.0605 -0.1762
  703MOL0     C96929   6.065   2.379   5.913 -0.7113  0.3596 -0.4285
  703MOL0     C96930   5.987   2.376   6.026  0.2442 -0.0076 -0.2445
  703MOL0     C96931   5.606   2.347   6.298 -0.2374 -1.1269  0.1269
  703MOL0     C96932   5.487   2.414   6.324 -0.0287 -0.3033  0.4184
  703MOL0     C96933   5.445   2.438   6.456 -0.7879 -0.3190 -0.1857
  703MOL0     C96934   5.531   2.403   6.565  0.0868  0.5759  0.6667
  703MOL0     O96935   5.501   2.456   6.691 -0.3061  0.7268 -0.9308
  703MOL0     C96936   5.619   2.503   6.762 -0.0548  0.2751 -0.3585
  703MOL0     C96937   5.592   2.616   6.864 -0.3507 -0.3560 -0.1664
  703MOL0     C96938   5.487   2.566   6.971  0.0261 -1.1093  0.2668
  703MOL0     C96939   5.498   2.654   7.094  0.5557  0.6351 -0.1625
  703MOL0     C96940   5.379   2.637   7.182 -1.3230 -0.1171 -0.0879
  703MOL0     C96941   5.277   2.639   7.252 -0.3403  0.3510  0.3785
  703MOL0     C96942   5.638   2.323   6.537 -0.5615 -0.1790 -0.2925
  703MOL0     C96943   5.685   2.302   6.407  0.2806 -0.3436  0.8610
  703MOL0     C96944   5.813   2.223   6.393  0.8699  0.4307 -0.2680
  703MOL0     H96945   5.681   2.383   5.860 -0.6537 -1.8812  1.6534
  703MOL0     H96946   5.838   2.376   5.672 -1.0928 -1.0899  0.8481
  703MOL0     H96947   6.110   2.567   5.646  0.9287 -1.4835  1.1463
  703MOL0     H96948   5.987   2.500   5.534  1.3096  0.7864 -1.5450
  703MOL0     H96949   6.273   2.505   5.540 -0.4783 -0.7891  1.5037
  703MOL0     H96950   6.208   2.343   5.494 -2.3039 -0.3270  0.4359
  703MOL0     H96951   6.080   2.465   5.298 -1.8861  0.6006  1.8875
  703MOL0     H96952   6.144   2.612   5.360 -0.9300 -0.1341  1.6311
  703MOL0     H96953   6.369   2.532   5.354  1.8716  0.8077 -2.8985
  703MOL0     H96954   6.338   2.374   5.292  2.9186  0.0407  0.9605
  703MOL0     H96955   6.417   2.549   5.102  0.6168  0.5923 -1.4700
  703MOL0     H96956   6.274   2.627   5.111 -1.1957 -1.1179 -0.2052
  703MOL0     H96957   6.301   2.343   5.015  4.7644  2.7751  3.6614
  703MOL0     H96958   6.143   2.398   5.076 -1.8203  2.2778 -0.7837
  703MOL0     H96959   6.291   2.487   4.840 -1.3957 -0.2556 -3.4253
  703MOL0     H96960   6.180   2.595   4.917  2.4279  0.8596 -0.0836
  703MOL0     H96961   6.001   2.454   4.871  1.0567 -0.7267  3.3994
  703MOL0     H96962   6.105   2.461   4.720 -1.9816  1.7187  0.1244
  703MOL0     H96963   6.003   2.211   5.008 -0.9224  0.2700 -0.6427
  703MOL0     H96964   6.110   1.853   4.906  1.0397  0.7726 -0.8344
  703MOL0     H96965   6.019   1.929   5.038  0.3607  0.1828 -0.0213
  703MOL0     H96966   6.236   1.816   5.109 -1.2540  0.1621 -0.4301
  703MOL0     H96967   6.333   1.918   5.005  0.8837 -1.0079  1.1570
  703MOL0     H96968   6.263   2.122   5.142  2.6509 -0.5724 -3.8511
  703MOL0     H96969   6.180   1.997   5.248 -0.2324  0.7781 -0.6594
  703MOL0     H96970   6.355   1.902   5.324  0.1853  0.0497  0.8312
  703MOL0     H96971   6.464   1.939   5.188  0.1849  2.6522 -0.0041
  703MOL0     H96972   6.599   1.905   5.348 -2.9476  0.6953  0.2459
  703MOL0     H96973   6.784   1.798   5.402  0.0895  1.6540 -0.1172
  703MOL0     H96974   6.778   1.791   5.573 -2.1130 -1.4794 -0.6604
  703MOL0     H96975   6.916   1.875   5.495 -0.3551 -1.9894  0.6330
  703MOL0     H96976   7.089   2.389   5.727  2.3120 -1.3640 -1.8259
  703MOL0     H96977   7.275   2.427   5.862 -0.8476 -0.0698 -2.8063
  703MOL0     H96978   7.396   2.455   6.024  3.3293 -2.1498 -3.0671
  703MOL0     H96979   7.395   2.420   6.191 -0.9098  2.4952 -1.5035
  703MOL0     H96980   7.605   2.282   6.167 -1.8096  1.2785  1.3416
  703MOL0     H96981   7.581   2.266   5.992  2.6490 -0.7892  0.1051
  703MOL0     H96982   7.626   2.534   6.008  0.7010  0.4903  0.1163
  703MOL0     H96983   7.755   2.410   5.990  0.5217  0.8466 -0.3036
  703MOL0     H96984   7.794   2.441   6.228 -0.5055  0.3273 -0.2401
  703MOL0     H96985   7.640   2.528   6.253 -0.8631 -0.5739  0.0484
  703MOL0     H96986   7.842   2.621   6.056 -0.0118 -1.5164  0.1802
  703MOL0     H96987   7.699   2.704   6.125  1.1159 -0.3440 -2.7118
  703MOL0     H96988   7.950   2.651   6.284  1.8453  2.6831  2.2667
  703MOL0     H96989   7.806   2.750   6.330 -3.3338 -2.3910 -1.4519
  703MOL0     H96990   7.834   2.913   6.148 -0.5171  1.0093  0.5272
  703MOL0     H96991   7.986   2.823   6.102  1.3514 -1.6550  0.2766
  703MOL0     H96992   8.071   2.876   6.340 -0.2203 -1.0991  1.9763
  703MOL0     H96993   7.933   2.971   6.363  0.2318 -2.3788  1.9062
  703MOL0     H96994   7.172   2.059   6.087  1.9134  1.9883  0.5689
  703MOL0     H96995   6.981   2.034   5.959  0.7103 -1.2682  0.4278
  703MOL0     H96996   6.695   2.276   5.655  0.2769  0.3982 -0.1630
  703MOL0     H96997   6.479   2.284   5.508 -0.2852  0.7232 -2.0530
  703MOL0     H96998   6.173   2.381   5.904 -0.7218 -1.3655 -1.4344
  703MOL0     H96999   6.024   2.377   6.128 -2.7852  1.3582  0.9897
  703MOL0     H97000   5.428   2.456   6.243  0.7811  0.6607  0.3187
  703MOL0     H97001   5.348   2.484   6.468 -1.0144 -0.4711 -1.3172
  703MOL0     H97002   5.669   2.414   6.800 -2.2794 -2.1004 -2.6183
  703MOL0     H97003   5.681   2.552   6.686  0.8948  0.2588  0.3830
  703MOL0     H97004   5.545   2.706   6.823 -3.0094 -0.2077  2.7639
  703MOL0     H97005   5.677   2.663   6.915 -1.4596  2.4059 -0.6633
  703MOL0     H97006   5.393   2.590   6.921  1.3497  1.1038 -1.3341
  703MOL0     H97007   5.488   2.459   6.996 -3.3702 -1.1163  0.7710
  703MOL0     H97008   5.519   2.757   7.065 -1.9474  1.6401  1.2787
  703MOL0     H97009   5.590   2.618   7.141 -0.0838  0.5877  1.0798
  703MOL0     H97010   5.195   2.643   7.321 -0.4653 -0.3951  0.2805
  703MOL0     H97011   5.698   2.286   6.620 -0.7634  0.1597  0.0065
  703MOL0     H97012   5.792   2.143   6.321  2.4636  0.7134 -1.0887
  703MOL0     H97013   5.892   2.292   6.361 -1.5890  2.9002 -1.4639
  703MOL0     H97014   5.843   2.184   6.491  3.2046  3.5270  0.4167
  704MOL0     O97015   7.029   2.894   7.596  0.4565  0.1723  0.4129
  704MOL0     C97016   7.034   2.771   7.597  0.2819 -0.0372 -0.7944
  704MOL0     O97017   7.125   2.706   7.672  0.6909  0.0347 -0.3509
  704MOL0     C97018   7.253   2.752   7.661  0.3104 -1.1608  0.2107
  704MOL0     C97019   7.300   2.803   7.539  0.6894  0.2607 -1.0360
  704MOL0     C97020   7.429   2.856   7.533  0.0926  0.0010  0.2124
  704MOL0     C97021   7.511   2.849   7.642 -0.5452 -0.2626 -0.1644
  704MOL0     O97022   7.642   2.889   7.650  0.7466 -0.0829 -0.2686
  704MOL0     C97023   7.711   2.947   7.541 -0.2033  0.8539 -0.3145
  704MOL0     C97024   7.673   3.098   7.532  0.0386 -0.7836 -0.2599
  704MOL0     C97025   7.760   3.171   7.427 -0.6066  0.5858  1.1149
  704MOL0     C97026   7.899   3.218   7.475  0.6565 -0.5767  0.1740
  704MOL0     C97027   7.988   3.291   7.369  0.0693  0.2466  1.0388
  704MOL0     C97028   8.130   3.321   7.411  0.4410  0.9536 -0.7491
  704MOL0     C97029   8.141   3.419   7.528 -0.3138 -0.0351  0.6660
  704MOL0     C97030   8.283   3.476   7.544 -0.1055 -0.9727  0.2880
  704MOL0     N97031   8.385   3.377   7.579  0.5033 -0.1147  0.6301
  704MOL0     C97032   8.378   3.283   7.671  0.0995  0.2470 -0.1503
  704MOL0     C97033   8.499   3.228   7.677  0.6388  0.4045  1.0626
  704MOL0     C97034   8.547   3.104   7.756  0.3547  0.3638  0.6833
  704MOL0     C97035   8.595   2.994   7.662  0.0436  0.8168  0.7554
  704MOL0     C97036   8.473   2.929   7.587 -0.2592  0.7186  0.0891
  704MOL0     C97037   8.510   2.845   7.465  0.4254  0.2294  0.0094
  704MOL0     O97038   8.480   2.923   7.346  0.2054 -0.8716 -0.1952
  704MOL0     C97039   8.356   2.891   7.287  0.1983 -0.0239 -0.1855
  704MOL0     C97040   8.247   2.824   7.351 -0.5284 -0.2771  0.4435
  704MOL0     C97041   8.125   2.809   7.283  0.4567 -0.1253  0.5863
  704MOL0     C97042   8.019   2.718   7.336  0.8578  0.2099  0.1246
  704MOL0     C97043   8.101   2.864   7.152 -0.8014 -0.2819  0.5515
  704MOL0     C97044   7.980   2.839   7.072  0.2950 -0.1949  0.6971
  704MOL0     O97045   7.857   2.876   7.116  0.4711 -0.5482  0.0935
  704MOL0     C97046   7.736   2.831   7.059 -0.3021  0.0367  0.6395
  704MOL0     C97047   7.712   2.737   6.958 -0.0345 -0.0684  1.2328
  704MOL0     C97048   7.594   2.727   6.882  0.1285  1.0708 -0.1898
  704MOL0     C97049   7.494   2.820   6.906 -0.1595 -0.5888 -0.3276
  704MOL0     O97050   7.386   2.843   6.825  0.0827  0.3311  0.3953
  704MOL0     C97051   7.332   2.726   6.768  0.2670 -0.4318  0.3739
  704MOL0     C97052   7.219   2.765   6.675 -0.7077 -0.4456 -0.2670
  704MOL0     C97053   7.156   2.634   6.615 -0.4591  1.0476 -0.1284
  704MOL0     C97054   7.063   2.662   6.490 -0.4054  0.8240 -0.4067
  704MOL0     C97055   7.055   2.521   6.419  0.0053  0.0289  0.7170
  704MOL0     C97056   6.996   2.535   6.282 -0.0069 -0.8012 -0.8710
  704MOL0     C97057   6.979   2.397   6.199 -1.0658 -0.4127 -0.5819
  704MOL0     C97058   6.873   2.402   6.093  0.2070 -0.0033 -1.1814
  704MOL0    Cl97059   6.723   2.458   6.178  0.0181 -0.3601 -0.1354
  704MOL0     C97060   7.516   2.908   7.017 -0.2240 -0.0754  0.3699
  704MOL0     C97061   7.634   2.908   7.091 -0.4433 -0.5908 -0.0158
  704MOL0     O97062   8.000   2.775   6.976  0.2390 -0.4101  0.5357
  704MOL0     C97063   8.206   2.942   7.096 -0.4319  0.2893 -0.6931
  704MOL0     C97064   8.331   2.952   7.156  1.4259 -0.0661  0.5959
  704MOL0     N97065   8.582   3.299   7.580  0.1823  0.6314  0.2003
  704MOL0     N97066   8.509   3.382   7.522 -0.5111  0.4723  0.1415
  704MOL0     C97067   7.463   2.813   7.766  0.0212 -1.5010 -0.6985
  704MOL0     C97068   7.332   2.759   7.780  0.3162 -0.2609  0.3360
  704MOL0     C97069   6.925   2.702   7.538  1.2790  0.4392 -0.5542
  704MOL0     C97070   6.912   2.568   7.573  0.0511 -0.0430  0.2837
  704MOL0     C97071   6.805   2.494   7.521  0.0866  0.4656  0.1442
  704MOL0     C97072   6.713   2.549   7.435  0.0135 -0.7010 -0.1700
  704MOL0     O97073   6.625   2.462   7.376 -0.0189  0.8146  0.6524
  704MOL0     C97074   6.524   2.517   7.285  0.7526 -0.3067 -0.7756
  704MOL0     C97075   6.425   2.408   7.260  0.3121 -0.0415 -0.3766
  704MOL0     C97076   6.333   2.452   7.141  0.1743 -0.5247  0.0421
  704MOL0     C97077   6.306   2.348   7.037  0.3709 -0.8026 -0.8186
  704MOL0     C97078   6.217   2.244   7.100 -0.2164 -0.8849  0.0636
  704MOL0     C97079   6.136   2.169   7.136 -0.5227  0.1658 -1.0926
  704MOL0     C97080   6.728   2.682   7.398  0.7671  1.0296  0.0804
  704MOL0     C97081   6.836   2.757   7.439  0.1858  0.2333 -0.5859
  704MOL0     C97082   6.853   2.889   7.377  0.1084  0.0731  0.4453
  704MOL0     H97083   7.231   2.793   7.456 -3.0470 -1.9737  1.9742
  704MOL0     H97084   7.463   2.886   7.434 -2.4312 -0.0979 -0.7536
  704MOL0     H97085   7.686   2.895   7.448  3.5706 -1.7193 -0.1127
  704MOL0     H97086   7.818   2.936   7.558 -0.1444  2.7444  0.8303
  704MOL0     H97087   7.567   3.110   7.507 -0.8692 -0.7346  3.0524
  704MOL0     H97088   7.684   3.146   7.630 -1.3649 -2.2831  0.6834
  704MOL0     H97089   7.777   3.107   7.340 -0.9548  1.8809  0.0792
  704MOL0     H97090   7.708   3.262   7.397  0.6989  0.5473 -1.5069
  704MOL0     H97091   7.882   3.275   7.566 -2.3066 -2.3334  0.8402
  704MOL0     H97092   7.967   3.134   7.497 -0.4445 -1.3877  0.5773
  704MOL0     H97093   7.928   3.375   7.334  1.1470  0.9441  0.8432
  704MOL0     H97094   7.990   3.225   7.281  2.5376  0.7139  0.6646
  704MOL0     H97095   8.185   3.235   7.448 -1.7086  0.9329  2.9242
  704MOL0     H97096   8.191   3.349   7.325 -2.4533  0.6648 -3.0645
  704MOL0     H97097   8.100   3.373   7.618  1.5198 -1.3358  0.9045
  704MOL0     H97098   8.070   3.498   7.501 -1.3441 -2.3096 -4.6104
  704MOL0     H97099   8.301   3.539   7.457 -1.1800 -0.2899  0.5413
  704MOL0     H97100   8.284   3.541   7.632 -2.3555 -1.2285  0.5663
  704MOL0     H97101   8.291   3.243   7.722  1.6864 -1.9221  1.0234
  704MOL0     H97102   8.475   3.051   7.818  0.5515 -2.8672 -1.5959
  704MOL0     H97103   8.629   3.138   7.820  0.3961  0.5067  0.5552
  704MOL0     H97104   8.674   3.036   7.598  0.3487  0.0360  0.6095
  704MOL0     H97105   8.636   2.922   7.733 -1.3935  1.6690  2.5402
  704MOL0     H97106   8.429   2.866   7.666  1.5154  1.1406  1.4781
  704MOL0     H97107   8.400   3.005   7.556 -0.4987 -0.0611 -1.3409
  704MOL0     H97108   8.616   2.820   7.469 -0.0518 -2.6903 -2.2894
  704MOL0     H97109   8.464   2.746   7.455  1.6925 -0.2119 -1.7523
  704MOL0     H97110   8.262   2.796   7.455  2.5403  0.5858  0.3308
  704MOL0     H97111   7.930   2.771   7.370  1.0792  0.9943 -0.4958
  704MOL0     H97112   8.075   2.661   7.410  3.4464 -1.6971 -3.0176
  704MOL0     H97113   7.972   2.644   7.271 -0.7136  0.4324  0.9588
  704MOL0     H97114   7.787   2.673   6.912  0.3327  2.0828 -1.4779
  704MOL0     H97115   7.578   2.659   6.799  0.1211  2.2895 -1.2194
  704MOL0     H97116   7.407   2.677   6.705  1.0270 -2.7406  2.8864
  704MOL0     H97117   7.303   2.646   6.835  1.1590 -2.2007 -1.2593
  704MOL0     H97118   7.147   2.818   6.738  0.0767  0.0740  0.2090
  704MOL0     H97119   7.260   2.818   6.589 -1.2136  0.7205  0.1905
  704MOL0     H97120   7.101   2.575   6.689  2.0457 -0.4436  0.6595
  704MOL0     H97121   7.238   2.565   6.593 -0.5310 -0.3916  3.3866
  704MOL0     H97122   7.126   2.729   6.432 -0.3751 -0.2095 -1.6086
  704MOL0     H97123   6.964   2.700   6.517 -1.0633 -0.3775 -1.0241
  704MOL0     H97124   7.160   2.499   6.395  0.4107  2.8308 -0.3980
  704MOL0     H97125   7.009   2.449   6.487  1.7783 -2.7740 -0.8403
  704MOL0     H97126   7.067   2.596   6.226  0.7224 -0.5179  0.3471
  704MOL0     H97127   6.902   2.590   6.296 -0.2403 -0.8906 -1.9361
  704MOL0     H97128   6.964   2.327   6.282 -1.1685  2.5495  2.0983
  704MOL0     H97129   7.069   2.371   6.143 -0.8747 -0.0776 -0.4359
  704MOL0     H97130   6.856   2.308   6.040 -2.2102  1.1684 -2.6709
  704MOL0     H97131   6.884   2.471   6.008 -1.0448 -1.5130 -2.6376
  704MOL0     H97132   7.434   2.973   7.046 -0.8026 -0.8490  0.5096
  704MOL0     H97133   7.652   2.971   7.178 -2.2199 -2.5390  1.8948
  704MOL0     H97134   8.189   2.983   6.997 -0.2439  0.3798 -0.6891
  704MOL0     H97135   8.400   3.019   7.106 -0.5268 -0.4087 -2.8514
  704MOL0     H97136   7.538   2.832   7.842  2.1774  0.5508 -3.1540
  704MOL0     H97137   7.289   2.740   7.878 -2.0373 -0.9373 -0.7628
  704MOL0     H97138   6.980   2.513   7.637 -1.1640  0.1027  1.7509
  704MOL0     H97139   6.793   2.390   7.549  0.7376  0.6190  1.0478
  704MOL0     H97140   6.469   2.595   7.340 -0.6035  0.3216 -2.9142
  704MOL0     H97141   6.559   2.571   7.197  1.8713 -0.3668 -0.3905
  704MOL0     H97142   6.376   2.380   7.354 -0.7798  2.5945 -0.0774
  704MOL0     H97143   6.469   2.317   7.217 -3.1249 -0.8278 -2.5929
  704MOL0     H97144   6.234   2.483   7.173  0.4061 -0.2133  0.4711
  704MOL0     H97145   6.375   2.542   7.095  1.1577  0.0955  2.0283
  704MOL0     H97146   6.398   2.305   6.994 -0.1447 -2.5652 -0.2747
  704MOL0     H97147   6.248   2.391   6.955 -0.1617 -2.2525 -1.2499
  704MOL0     H97148   6.068   2.098   7.178  2.6060 -0.4435  3.7964
  704MOL0     H97149   6.662   2.720   7.321  0.4611  1.1956  0.4243
  704MOL0     H97150   6.961   2.907   7.378  0.5987 -2.4392  1.8819
  704MOL0     H97151   6.829   2.889   7.270  1.8980 -1.2256 -0.0095
  704MOL0     H97152   6.810   2.971   7.435  1.8449  1.4093 -0.0796
  705MOL0     O97153   3.596   2.070   3.665  0.7479 -0.5675  0.9255
  705MOL0     C97154   3.695   2.137   3.651  0.8266 -1.0552 -0.0802
  705MOL0     O97155   3.720   2.257   3.706  0.7414 -0.0112 -0.9545
  705MOL0     C97156   3.643   2.291   3.815  0.3257 -0.2296  0.4933
  705MOL0     C97157   3.702   2.337   3.934  0.7162 -0.0163 -0.5670
  705MOL0     C97158   3.617   2.399   4.038  0.7891 -0.2053 -0.7963
  705MOL0     C97159   3.474   2.414   4.023 -0.8032  0.5626 -1.1627
  705MOL0     O97160   3.404   2.463   4.122 -0.1416  0.1981 -0.4496
  705MOL0     C97161   3.268   2.424   4.125  0.1882 -0.9006  0.9746
  705MOL0     C97162   3.221   2.473   4.261  0.5450 -0.1125  0.4752
  705MOL0     C97163   3.309   2.426   4.381 -0.1544 -0.9081  0.1214
  705MOL0     C97164   3.410   2.533   4.413  0.5737  0.2841 -0.0586
  705MOL0     C97165   3.501   2.488   4.526 -0.8938  0.1307  0.2756
  705MOL0     C97166   3.614   2.388   4.476  0.1122 -0.5307 -0.1428
  705MOL0     C97167   3.732   2.378   4.573  1.2327  0.1309  0.5167
  705MOL0     C97168   3.837   2.483   4.552  0.4470 -0.1992 -0.2887
  705MOL0     N97169   3.904   2.460   4.427 -0.3572  0.4799 -0.2402
  705MOL0     C97170   3.983   2.356   4.400  0.4301  0.2660  0.3469
  705MOL0     C97171   4.029   2.377   4.272  0.7217 -0.3794 -0.5351
  705MOL0     C97172   4.117   2.284   4.194  0.8543 -0.2848 -0.4873
  705MOL0     C97173   4.229   2.230   4.287  0.1612 -1.3222 -0.7582
  705MOL0     C97174   4.348   2.171   4.204  0.0280 -0.3025 -0.4502
  705MOL0     C97175   4.465   2.269   4.175 -0.5134  1.0322  0.6734
  705MOL0     O97176   4.582   2.201   4.125  0.3042  0.1350  1.1532
  705MOL0     C97177   4.561   2.097   4.035  0.0597  0.0886 -1.5776
  705MOL0     C97178   4.597   1.971   4.075  0.2612  0.2539 -0.2440
  705MOL0     C97179   4.599   1.860   3.991 -0.4828 -0.6540 -0.2245
  705MOL0     C97180   4.670   1.732   4.034  0.2878 -0.3575  0.3091
  705MOL0     C97181   4.575   1.883   3.853 -0.5627  0.0024  0.2650
  705MOL0     C97182   4.593   1.780   3.747  0.5518  1.0517 -1.0485
  705MOL0     O97183   4.591   1.825   3.620  0.3181  0.0596 -0.2709
  705MOL0     C97184   4.609   1.726   3.521 -0.7582  1.3548 -0.7531
  705MOL0     C97185   4.742   1.706   3.465  1.3765  0.3602  0.1925
  705MOL0     C97186   4.750   1.606   3.361  0.5402 -1.4451 -0.2797
  705MOL0     C97187   4.635   1.560   3.299 -0.0251  0.1978 -0.3985
  705MOL0     O97188   4.663   1.471   3.198  0.5218 -0.4616 -0.1415
  705MOL0     C97189   4.574   1.375   3.156  0.5030 -0.2203  0.2311
  705MOL0     C97190   4.601   1.248   3.236 -0.5989 -0.4514 -0.2616
  705MOL0     C97191   4.537   1.119   3.186  0.7332 -0.5110  0.2075
  705MOL0     C97192   4.561   1.064   3.042 -0.3389  0.0469 -0.4197
  705MOL0     C97193   4.543   0.910   3.027  0.3480 -0.4511  0.6982
  705MOL0     C97194   4.608   0.847   2.903 -0.2054 -0.2438 -0.5741
  705MOL0     C97195   4.599   0.691   2.919  0.3273  0.2827  0.9471
  705MOL0     C97196   4.720   0.610   2.853  0.2845 -0.9924  0.0104
  705MOL0    Cl97197   4.674   0.432   2.849  0.4449  0.0401  0.3378
  705MOL0     C97198   4.505   1.581   3.341 -1.4654 -0.5645  0.3450
  705MOL0     C97199   4.491   1.660   3.458 -0.3907  0.2357  0.6456
  705MOL0     O97200   4.583   1.660   3.777 -0.4655  0.7329 -0.1854
  705MOL0     C97201   4.521   2.014   3.810  0.5013  1.2998 -0.0480
  705MOL0     C97202   4.512   2.119   3.905 -0.8832  0.1851 -0.0222
  705MOL0     N97203   3.983   2.500   4.220  0.5028 -0.1152 -0.6584
  705MOL0     N97204   3.911   2.551   4.321 -0.6239  0.8419  0.7540
  705MOL0     C97205   3.431   2.369   3.892 -0.1722  0.0394 -0.6596
  705MOL0     C97206   3.505   2.309   3.792 -0.1945 -0.1284 -0.1310
  705MOL0     C97207   3.806   2.076   3.579 -0.1927 -0.4339 -0.3147
  705MOL0     C97208   3.777   2.008   3.462 -0.0614  0.0803 -0.3427
  705MOL0     C97209   3.880   1.960   3.383  0.0513 -0.4345  0.2393
  705MOL0     C97210   4.017   1.965   3.418  0.0134  0.3713  0.4505
  705MOL0     O97211   4.119   1.891   3.354 -0.1631 -0.2481  0.0380
  705MOL0     C97212   4.087   1.799   3.244  0.5108  0.2861 -0.4410
  705MOL0     C97213   4.090   1.877   3.108 -0.1908 -0.9404  0.1445
  705MOL0     C97214   4.228   1.915   3.050  0.9408  0.1163 -0.4884
  705MOL0     C97215   4.326   1.801   3.041  0.6340 -0.6931 -0.2221
  705MOL0     C97216   4.264   1.695   2.964  0.4746 -0.1081 -0.5293
  705MOL0     C97217   4.216   1.610   2.895  0.0572 -0.8562 -0.1348
  705MOL0     C97218   4.041   2.031   3.535 -0.2644 -0.3805 -0.0997
  705MOL0     C97219   3.941   2.093   3.618  0.0664  0.0322  0.2716
  705MOL0     C97220   3.995   2.179   3.730 -0.2617 -0.1228  0.0992
  705MOL0     H97221   3.810   2.328   3.943  0.6401  0.8583  1.7907
  705MOL0     H97222   3.643   2.446   4.132 -3.3508  3.0976 -0.9743
  705MOL0     H97223   3.246   2.318   4.108 -3.4234 -0.0040 -0.7561
  705MOL0     H97224   3.207   2.482   4.055  1.3629  1.0587  1.4842
  705MOL0     H97225   3.209   2.581   4.250  1.2696  0.1295  1.7786
  705MOL0     H97226   3.126   2.425   4.287  1.9993 -2.2600  2.2078
  705MOL0     H97227   3.243   2.413   4.467  0.0225 -0.2563  0.3630
  705MOL0     H97228   3.356   2.334   4.345 -0.0977 -0.5124 -0.8635
  705MOL0     H97229   3.474   2.554   4.327 -1.1277 -0.8712 -1.6593
  705MOL0     H97230   3.358   2.619   4.456 -1.7159 -0.8389 -0.4524
  705MOL0     H97231   3.443   2.437   4.604  1.7341 -0.1585  2.1638
  705MOL0     H97232   3.555   2.573   4.569  0.4513 -2.1768  3.5663
  705MOL0     H97233   3.568   2.289   4.480  2.4372 -1.7327  4.1944
  705MOL0     H97234   3.655   2.416   4.379  2.3767 -1.8428  0.3345
  705MOL0     H97235   3.791   2.286   4.567  0.9180 -0.3585  3.6122
  705MOL0     H97236   3.700   2.372   4.677  1.5863 -2.8191  0.5417
  705MOL0     H97237   3.784   2.578   4.548 -2.4649 -1.7694 -1.8386
  705MOL0     H97238   3.908   2.477   4.635 -0.4411  0.3419  0.5235
  705MOL0     H97239   3.981   2.256   4.443 -0.5673 -0.6446 -1.7216
  705MOL0     H97240   4.165   2.339   4.113 -2.3054  1.7606 -1.1294
  705MOL0     H97241   4.054   2.199   4.167 -2.1255  1.5253  0.3290
  705MOL0     H97242   4.259   2.307   4.359  0.5755  0.8088 -3.0346
  705MOL0     H97243   4.184   2.154   4.350  0.0157  1.1599  2.3887
  705MOL0     H97244   4.390   2.087   4.261  0.9835  0.3426 -0.1789
  705MOL0     H97245   4.304   2.128   4.114  1.7516  0.4250 -1.7032
  705MOL0     H97246   4.431   2.341   4.100  2.4289  1.1393 -0.6810
  705MOL0     H97247   4.499   2.327   4.260  2.8558  0.4599 -0.1448
  705MOL0     H97248   4.629   1.956   4.177  1.8367  1.9466 -0.4412
  705MOL0     H97249   4.626   1.636   4.006 -0.3598  0.1843 -0.5754
  705MOL0     H97250   4.665   1.721   4.143  1.3603  1.2836  0.5614
  705MOL0     H97251   4.777   1.729   4.010 -0.2407 -1.6506 -2.1908
  705MOL0     H97252   4.817   1.769   3.511  0.4095  0.8446  1.1497
  705MOL0     H97253   4.850   1.585   3.324  0.3244 -0.5070 -1.4303
  705MOL0     H97254   4.470   1.407   3.165  0.0413 -2.1772  2.7655
  705MOL0     H97255   4.597   1.353   3.051  2.0252  1.0094  0.2678
  705MOL0     H97256   4.708   1.231   3.249 -0.6921 -2.8083 -1.9408
  705MOL0     H97257   4.570   1.275   3.337  2.8192  1.2559  0.4673
  705MOL0     H97258   4.429   1.135   3.188  0.9755  1.4161 -0.4875
  705MOL0     H97259   4.564   1.038   3.254  4.0231 -1.1118 -1.6100
  705MOL0     H97260   4.666   1.084   3.019  0.3140 -0.9341  1.5380
  705MOL0     H97261   4.506   1.122   2.967 -0.4033  0.7665  0.1738
  705MOL0     H97262   4.593   0.865   3.114  0.2279 -2.4113 -0.2025
  705MOL0     H97263   4.440   0.876   3.036  0.7667 -2.1123 -0.3569
  705MOL0     H97264   4.711   0.881   2.889  0.5846 -1.3309  1.9071
  705MOL0     H97265   4.557   0.879   2.812 -1.0379  0.5890  0.1501
  705MOL0     H97266   4.504   0.669   2.869 -1.0703  1.5741  2.8982
  705MOL0     H97267   4.587   0.664   3.024 -1.0759 -2.2074  0.2304
  705MOL0     H97268   4.811   0.620   2.911 -0.0950 -2.3541  0.9021
  705MOL0     H97269   4.724   0.648   2.751 -3.1938 -1.8964 -0.6018
  705MOL0     H97270   4.421   1.530   3.295  0.9811 -2.7976 -1.9469
  705MOL0     H97271   4.391   1.683   3.494 -1.7872 -3.4986 -0.4124
  705MOL0     H97272   4.487   2.031   3.709 -0.8877  0.6028  0.2925
  705MOL0     H97273   4.487   2.218   3.868  1.0066  0.4183 -0.7890
  705MOL0     H97274   3.332   2.396   3.855  0.0124 -3.7163 -4.7235
  705MOL0     H97275   3.444   2.287   3.705 -4.2227  2.8659  1.6097
  705MOL0     H97276   3.673   2.001   3.433 -0.2199 -0.9398  0.4162
  705MOL0     H97277   3.858   1.922   3.284 -0.0682  0.3099 -0.0293
  705MOL0     H97278   4.155   1.714   3.250 -0.5072 -0.6840 -2.0321
  705MOL0     H97279   3.996   1.740   3.258 -0.3548  1.3926 -1.1571
  705MOL0     H97280   4.028   1.966   3.119 -1.5305 -1.4138 -2.6558
  705MOL0     H97281   4.041   1.824   3.026 -1.1411 -2.8070  1.8299
  705MOL0     H97282   4.225   1.967   2.954 -1.0346 -0.5528 -0.8399
  705MOL0     H97283   4.275   1.982   3.124 -1.7257  1.5110  0.0763
  705MOL0     H97284   4.357   1.763   3.139  4.4125  2.4586  0.0324
  705MOL0     H97285   4.422   1.828   2.997  0.6166 -2.3684 -1.3863
  705MOL0     H97286   4.165   1.552   2.821  0.6503  1.3030 -2.3313
  705MOL0     H97287   4.143   2.025   3.574 -0.2337 -0.6309 -0.2200
  705MOL0     H97288   3.987   2.283   3.694  0.6331 -0.6158 -1.6627
  705MOL0     H97289   3.928   2.157   3.813  0.0766 -0.7589  0.2096
  705MOL0     H97290   4.099   2.156   3.754 -0.3944 -3.0555 -1.6538
  706MOL0     O97291   4.391   1.548  11.166 -0.7868 -0.3425 -0.2403
  706MOL0     C97292   4.429   1.662  11.150 -0.2352  0.2267 -0.3202
  706MOL0     O97293   4.473   1.739  11.253 -0.3030  0.2223  0.5511
  706MOL0     C97294   4.503   1.674  11.371  0.7335 -0.1153  0.9434
  706MOL0     C97295   4.639   1.694  11.404 -0.2527 -0.1948 -0.0710
  706MOL0     C97296   4.681   1.633  11.520  0.0073  0.5579 -0.6499
  706MOL0     C97297   4.604   1.542  11.601  0.2301 -0.1418 -0.5759
  706MOL0     O97298   4.648   1.470  11.711 -0.0987 -0.8844 -0.1683
  706MOL0     C97299   4.780   1.417  11.686  0.0542 -0.2527 -0.7773
  706MOL0     C97300   4.807   1.338  11.816 -0.8272 -0.1135 -0.1183
  706MOL0     C97301   4.824   1.427  11.941  0.1102  0.2254  0.8067
  706MOL0     C97302   4.838   1.343  12.066 -0.0559  0.3502 -0.7261
  706MOL0     C97303   4.855   1.428  12.197  0.7129  0.3703 -0.0172
  706MOL0     C97304   4.721   1.498  12.244 -0.2216 -0.9043  0.6675
  706MOL0     C97305   4.614   1.397  12.279  0.7617 -0.5574  0.3771
  706MOL0     C97306   4.484   1.469  12.323 -0.3225  0.0240 -0.0876
  706MOL0     N97307   4.374   1.374  12.328 -0.2886  0.2810  0.1605
  706MOL0     C97308   4.314   1.300  12.223 -0.7925  0.2664 -0.1743
  706MOL0     C97309   4.232   1.210  12.288  0.7756 -0.3087  0.3739
  706MOL0     C97310   4.155   1.112  12.208  0.0536  0.1304 -0.0301
  706MOL0     C97311   4.228   0.976  12.218 -0.9243  0.5369  1.2530
  706MOL0     C97312   4.188   0.863  12.117 -0.0053 -0.2271 -0.8967
  706MOL0     C97313   4.055   0.794  12.143  0.5322 -0.1813  0.0117
  706MOL0     O97314   3.935   0.869  12.167  0.5469  0.0049  0.8357
  706MOL0     C97315   3.856   0.886  12.054 -0.0796 -0.8085 -0.4231
  706MOL0     C97316   3.905   0.950  11.941  1.0054  0.1220  0.0365
  706MOL0     C97317   3.818   0.982  11.841 -0.4660 -0.4760  0.2557
  706MOL0     C97318   3.872   1.056  11.724 -0.1196  0.0023 -0.0231
  706MOL0     C97319   3.691   0.921  11.840 -0.1819 -1.1573 -0.0006
  706MOL0     C97320   3.604   0.913  11.716  1.2584  0.4108  0.2553
  706MOL0     O97321   3.480   0.902  11.740  0.3324 -0.7249  0.2438
  706MOL0     C97322   3.397   0.891  11.633  0.0777  1.0339 -0.2911
  706MOL0     C97323   3.329   0.776  11.601  0.4173 -0.1623 -0.4192
  706MOL0     C97324   3.244   0.776  11.491  1.1126 -0.0952  0.0411
  706MOL0     C97325   3.228   0.889  11.410 -0.1170 -0.2695 -1.5022
  706MOL0     O97326   3.145   0.861  11.303 -0.2202  0.0605  0.5668
  706MOL0     C97327   3.079   0.977  11.244  1.4713  1.1101  0.0176
  706MOL0     C97328   2.993   0.917  11.122 -0.0263 -0.0056 -0.5168
  706MOL0     C97329   2.897   1.017  11.070  0.5513 -0.6780  0.6346
  706MOL0     C97330   2.812   0.977  10.938 -1.0760  0.0360 -0.1652
  706MOL0     C97331   2.734   1.102  10.882  0.0098 -0.5018  0.5291
  706MOL0     C97332   2.621   1.051  10.789  0.7302  1.4867 -0.4479
  706MOL0     C97333   2.540   1.170  10.737 -0.3009 -0.6101 -0.0758
  706MOL0     C97334   2.400   1.121  10.699 -0.1842  0.3471  0.5549
  706MOL0    Cl97335   2.403   1.003  10.560 -0.1335 -0.0369 -0.3790
  706MOL0     C97336   3.271   1.009  11.465  0.8039 -0.0188 -0.0721
  706MOL0     C97337   3.360   1.005  11.577 -0.5757 -0.0959  0.0503
  706MOL0     O97338   3.650   0.924  11.601  0.1718  0.2785 -0.2006
  706MOL0     C97339   3.636   0.869  11.957 -1.1855  0.3948  0.4059
  706MOL0     C97340   3.720   0.849  12.070 -0.4819 -0.0493  0.9066
  706MOL0     N97341   4.227   1.242  12.421  0.7572  0.2864  0.9228
  706MOL0     N97342   4.311   1.336  12.444  0.5790  0.0231 -0.2678
  706MOL0     C97343   4.468   1.539  11.572 -0.1135 -0.9749  0.1736
  706MOL0     C97344   4.418   1.609  11.461  0.4387 -0.5156  0.3300
  706MOL0     C97345   4.371   1.733  11.044  0.0934 -0.2290  1.2741
  706MOL0     C97346   4.329   1.875  11.056  0.2150 -0.1011 -0.0659
  706MOL0     C97347   4.256   1.945  10.961  0.0054 -0.0684  1.0079
  706MOL0     C97348   4.237   1.883  10.839  0.6832 -0.4362  0.3978
  706MOL0     O97349   4.184   1.976  10.755  0.4275 -0.3344  0.2839
  706MOL0     C97350   4.186   1.951  10.613 -0.1711 -0.0326 -0.1930
  706MOL0     C97351   4.166   2.085  10.539  0.0596  0.2539 -0.3046
  706MOL0     C97352   4.041   2.159  10.571  0.1749  0.9247  0.5925
  706MOL0     C97353   4.033   2.307  10.498 -0.0666  1.1345  0.2513
  706MOL0     C97354   3.950   2.382  10.589 -0.3212 -0.6510  0.4039
  706MOL0     C97355   3.887   2.453  10.661 -0.3284 -0.5627  0.5144
  706MOL0     C97356   4.279   1.754  10.820 -0.2501  0.3346  0.0927
  706MOL0     C97357   4.348   1.674  10.913  0.7991 -0.2224  0.8043
  706MOL0     C97358   4.394   1.534  10.869 -1.0103 -0.0192 -0.0860
  706MOL0     H97359   4.713   1.749  11.347  0.0041  2.2777  2.4425
  706MOL0     H97360   4.786   1.657  11.532 -0.7667  4.7858 -0.6395
  706MOL0     H97361   4.852   1.498  11.670  1.8688 -1.2422  1.6723
  706MOL0     H97362   4.792   1.342  11.608  0.1348 -0.9294 -0.1288
  706MOL0     H97363   4.720   1.272  11.824 -1.7267  1.0655  0.0998
  706MOL0     H97364   4.897   1.276  11.810 -1.0779 -0.4304 -0.6950
  706MOL0     H97365   4.903   1.499  11.916  0.3474 -0.8243 -1.8163
  706MOL0     H97366   4.735   1.489  11.955  1.3144  2.9368 -2.3454
  706MOL0     H97367   4.755   1.272  12.075 -0.1590  0.3038 -1.8672
  706MOL0     H97368   4.926   1.279  12.062 -1.7484 -2.1495 -0.7055
  706MOL0     H97369   4.935   1.502  12.187  0.1452  0.6847 -3.3983
  706MOL0     H97370   4.891   1.367  12.280  1.8614  0.6091 -0.3233
  706MOL0     H97371   4.738   1.541  12.343  0.2544 -1.0080  0.6359
  706MOL0     H97372   4.682   1.568  12.170 -0.3546  0.3257  1.8678
  706MOL0     H97373   4.630   1.327  12.361 -1.5546 -1.8211 -0.1718
  706MOL0     H97374   4.587   1.339  12.191 -0.5556  0.5869 -0.0149
  706MOL0     H97375   4.508   1.507  12.423  1.4689  2.4815 -1.3228
  706MOL0     H97376   4.461   1.543  12.245 -0.3953 -2.2681 -2.3580
  706MOL0     H97377   4.334   1.318  12.118 -2.1211  0.5396 -0.3936
  706MOL0     H97378   4.167   1.137  12.102  2.2198 -1.4304 -0.2253
  706MOL0     H97379   4.048   1.112  12.231  0.3752  1.0001  1.6483
  706MOL0     H97380   4.336   0.988  12.208 -1.1101  0.4854 -1.7402
  706MOL0     H97381   4.196   0.928  12.311 -1.7917 -3.2889 -0.8000
  706MOL0     H97382   4.200   0.906  12.017  2.5961  1.1972 -0.0810
  706MOL0     H97383   4.261   0.782  12.120  1.0316  0.6277 -1.9233
  706MOL0     H97384   4.031   0.722  12.064 -1.7720  0.0204  0.4633
  706MOL0     H97385   4.074   0.731  12.231  0.9833  0.1946  0.1904
  706MOL0     H97386   4.002   0.999  11.935  0.3160  1.3065 -2.9973
  706MOL0     H97387   3.899   0.998  11.635  3.1339 -1.2512  1.6089
  706MOL0     H97388   3.965   1.106  11.752  1.4207 -3.3047  1.3025
  706MOL0     H97389   3.796   1.130  11.701 -0.4190  0.0251  0.9769
  706MOL0     H97390   3.347   0.687  11.662  1.6493  0.6075  0.3868
  706MOL0     H97391   3.182   0.692  11.461  1.5941 -0.2358 -0.5655
  706MOL0     H97392   3.021   1.034  11.318  1.3626  0.8787  0.1147
  706MOL0     H97393   3.155   1.039  11.197  0.8413  0.6456 -1.7229
  706MOL0     H97394   3.066   0.891  11.045 -1.4652  0.9319 -2.2995
  706MOL0     H97395   2.944   0.823  11.150  1.5821 -1.0344 -1.0418
  706MOL0     H97396   2.962   1.097  11.034 -0.8009  0.5091  0.7084
  706MOL0     H97397   2.826   1.058  11.143  0.6325  0.1471  0.2645
  706MOL0     H97398   2.743   0.899  10.973  0.0773 -0.4612  1.0889
  706MOL0     H97399   2.882   0.928  10.871  0.7025 -0.1139  1.6935
  706MOL0     H97400   2.688   1.157  10.964  0.4989 -0.7070  0.9443
  706MOL0     H97401   2.805   1.162  10.824  0.9778 -2.6040 -0.6057
  706MOL0     H97402   2.557   0.978  10.841  1.7209 -0.3017 -1.6160
  706MOL0     H97403   2.663   0.990  10.708  0.5891  0.8535 -0.0569
  706MOL0     H97404   2.602   1.198  10.651 -0.4014 -3.1893 -1.0803
  706MOL0     H97405   2.525   1.249  10.811  1.7331 -1.2621  1.1295
  706MOL0     H97406   2.353   1.212  10.660 -0.2684  0.3858  0.7419
  706MOL0     H97407   2.342   1.078  10.781  2.7249 -2.7675  1.1847
  706MOL0     H97408   3.234   1.103  11.426  0.7389 -0.6222 -1.5213
  706MOL0     H97409   3.419   1.091  11.610  2.9075 -2.3354  0.2381
  706MOL0     H97410   3.543   0.814  11.953 -0.5667 -0.8651  2.0265
  706MOL0     H97411   3.693   0.796  12.160 -1.5956  0.8356  1.1119
  706MOL0     H97412   4.396   1.495  11.640 -0.5058 -0.5278  0.0560
  706MOL0     H97413   4.314   1.591  11.436  0.3827  1.7313 -1.3644
  706MOL0     H97414   4.351   1.923  11.151  0.1110  0.8530 -0.5089
  706MOL0     H97415   4.218   2.046  10.973 -1.6850 -0.8503  2.7924
  706MOL0     H97416   4.284   1.914  10.585  1.0303  2.0487  1.0037
  706MOL0     H97417   4.109   1.882  10.577  0.8991 -0.3035 -2.0789
  706MOL0     H97418   4.163   2.057  10.433  0.9587  1.1987 -0.5999
  706MOL0     H97419   4.251   2.152  10.558 -1.2404  2.0719 -0.6661
  706MOL0     H97420   3.949   2.106  10.542 -1.6524  3.6394  1.0560
  706MOL0     H97421   4.030   2.184  10.677 -5.2298  0.1893  0.5051
  706MOL0     H97422   3.983   2.309  10.400 -1.8887  2.1818  1.1540
  706MOL0     H97423   4.127   2.362  10.494  1.1833 -0.8580  0.6718
  706MOL0     H97424   3.819   2.506  10.725 -0.2736  0.1542 -0.0127
  706MOL0     H97425   4.264   1.712  10.721  2.4988 -0.3615 -0.1063
  706MOL0     H97426   4.336   1.459  10.924  1.2726 -3.6787 -2.2538
  706MOL0     H97427   4.372   1.523  10.762  0.4765  0.5493 -0.4647
  706MOL0     H97428   4.501   1.525  10.890 -0.6187  2.5973 -0.6318
  707MOL0     O97429   0.408   7.511   1.751  0.5962  0.1081 -0.4332
  707MOL0     C97430   0.514   7.459   1.710 -0.1674  0.1491  0.0713
  707MOL0     O97431   0.634   7.522   1.721  0.0590  0.6968  0.1109
  707MOL0     C97432   0.634   7.658   1.728 -1.1957  0.3984 -0.3917
  707MOL0     C97433   0.635   7.737   1.606 -0.8238  0.1318  0.3460
  707MOL0     C97434   0.639   7.875   1.603  0.3097 -0.5314 -0.5580
  707MOL0     C97435   0.644   7.941   1.721 -0.7214  0.0426 -0.1773
  707MOL0     O97436   0.644   8.077   1.731 -0.0006  0.0759 -0.1082
  707MOL0     C97437   0.601   8.163   1.625 -0.1637  0.1339 -0.0979
  707MOL0     C97438   0.591   8.312   1.693 -0.2104  0.3973 -0.1420
  707MOL0     C97439   0.726   8.361   1.748 -0.9457  0.6216  0.4130
  707MOL0     C97440   0.715   8.515   1.774 -0.0204 -0.4635 -0.4383
  707MOL0     C97441   0.826   8.580   1.864  0.6319 -0.2071  1.0187
  707MOL0     C97442   0.972   8.558   1.825  0.3973  0.4812  0.1092
  707MOL0     C97443   1.080   8.655   1.882  0.0217  0.0289 -0.0675
  707MOL0     C97444   1.091   8.638   2.029 -0.5387  0.0406  0.2237
  707MOL0     N97445   1.188   8.732   2.076 -0.3819  1.3974  0.1615
  707MOL0     C97446   1.324   8.700   2.073  0.4705 -0.1739  0.1464
  707MOL0     C97447   1.371   8.831   2.094  0.5316  0.3883 -0.3665
  707MOL0     C97448   1.516   8.877   2.085 -0.8678 -0.3513  1.2769
  707MOL0     C97449   1.561   8.957   2.209  0.9918 -0.3415 -0.3567
  707MOL0     C97450   1.710   8.995   2.212 -0.4668 -0.0991 -0.0247
  707MOL0     C97451   1.753   9.027   2.349  0.6512  0.0770  0.1761
  707MOL0     O97452   1.814   8.912   2.408  0.5551 -0.2484  0.4240
  707MOL0     C97453   1.948   8.901   2.445 -0.1143  0.5447 -0.1291
  707MOL0     C97454   2.046   8.994   2.444  0.0974  0.2280  0.9285
  707MOL0     C97455   2.172   8.958   2.495  0.6247 -0.6284  0.2265
  707MOL0     C97456   2.265   9.074   2.508 -0.3428 -0.2856  0.8123
  707MOL0     C97457   2.205   8.830   2.536  0.2436  0.0244  0.4908
  707MOL0     C97458   2.322   8.794   2.606 -0.5777 -0.0651  0.0892
  707MOL0     O97459   2.372   8.668   2.570  0.3206  0.4975  0.4763
  707MOL0     C97460   2.496   8.636   2.635  0.3967  0.0646 -0.4884
  707MOL0     C97461   2.513   8.498   2.691  0.0323  0.1934 -0.4836
  707MOL0     C97462   2.628   8.467   2.755 -1.0402 -0.1647 -0.5562
  707MOL0     C97463   2.726   8.566   2.779 -0.0235 -0.1634  0.3554
  707MOL0     O97464   2.844   8.522   2.844 -0.6323 -0.1399 -0.7080
  707MOL0     C97465   2.930   8.632   2.913 -1.7814 -0.0978  0.6389
  707MOL0     C97466   2.852   8.692   3.030 -0.6644  0.0124  0.1231
  707MOL0     C97467   2.798   8.582   3.125 -0.3055  0.4094  0.6962
  707MOL0     C97468   2.893   8.549   3.244 -0.0694  0.3077  0.3046
  707MOL0     C97469   2.830   8.453   3.349  0.0693 -0.0409 -0.7067
  707MOL0     C97470   2.910   8.434   3.475  1.0165  0.3343 -0.0297
  707MOL0     C97471   2.848   8.321   3.563  0.2151  0.6945 -0.4237
  707MOL0     C97472   2.918   8.321   3.694 -0.9432 -1.0765  0.2018
  707MOL0    Cl97473   2.913   8.163   3.770 -0.2635  0.1753 -0.0434
  707MOL0     C97474   2.711   8.693   2.725  0.4393  0.0166  0.6312
  707MOL0     C97475   2.601   8.729   2.641  0.6483 -0.3617  0.4235
  707MOL0     O97476   2.356   8.856   2.707  0.3153 -0.1892  0.1519
  707MOL0     C97477   2.103   8.738   2.520 -0.2026  0.1587  0.2162
  707MOL0     C97478   1.974   8.770   2.482  0.6290  1.1712 -0.0798
  707MOL0     N97479   1.266   8.909   2.127 -0.3097 -0.4500  0.6376
  707MOL0     N97480   1.153   8.849   2.113 -0.7033 -0.1386  0.8210
  707MOL0     C97481   0.641   7.876   1.838 -0.2810  0.2285 -1.2215
  707MOL0     C97482   0.632   7.734   1.850 -0.0093 -0.0839 -0.0149
  707MOL0     C97483   0.501   7.324   1.660 -0.4566  0.7662 -0.0940
  707MOL0     C97484   0.611   7.236   1.673  0.4194  0.4827 -0.7267
  707MOL0     C97485   0.606   7.104   1.637  0.4570  0.2595 -0.0764
  707MOL0     C97486   0.491   7.055   1.571 -0.3775 -1.0330  0.7398
  707MOL0     O97487   0.487   6.927   1.521  1.2714 -0.3626  0.9728
  707MOL0     C97488   0.592   6.835   1.533  0.1199 -0.2174 -0.1064
  707MOL0     C97489   0.561   6.708   1.458  0.3306 -0.3563 -0.1658
  707MOL0     C97490   0.598   6.568   1.505  0.3928 -0.0601  0.8610
  707MOL0     C97491   0.530   6.457   1.412 -0.4463 -0.5257  0.4804
  707MOL0     C97492   0.552   6.471   1.268  0.0853  0.5241  0.7866
  707MOL0     C97493   0.549   6.485   1.146  0.4937  0.2595 -0.1067
  707MOL0     C97494   0.389   7.140   1.545 -0.4231 -0.3534 -0.9611
  707MOL0     C97495   0.385   7.274   1.590  1.1237  0.5291 -0.1576
  707MOL0     C97496   0.250   7.337   1.587 -0.0128 -0.0133 -0.0082
  707MOL0     H97497   0.644   7.696   1.506 -2.0114  3.3093 -1.2322
  707MOL0     H97498   0.635   7.943   1.518  0.5385 -0.3951 -0.4624
  707MOL0     H97499   0.499   8.135   1.596 -2.1298  4.0426  2.1711
  707MOL0     H97500   0.674   8.161   1.544 -1.1504  0.5526 -1.0167
  707MOL0     H97501   0.542   8.380   1.623 -0.1286  4.1351  3.0779
  707MOL0     H97502   0.524   8.311   1.779  0.2318  2.6427  0.2966
  707MOL0     H97503   0.748   8.326   1.850 -2.1429  2.1582  1.2443
  707MOL0     H97504   0.807   8.350   1.676 -2.7919  0.0240 -1.6572
  707MOL0     H97505   0.721   8.551   1.671 -1.0054 -1.3164 -0.8037
  707MOL0     H97506   0.619   8.547   1.815 -0.8426  0.1751 -2.7029
  707MOL0     H97507   0.809   8.539   1.964  0.7217  0.7612  1.4352
  707MOL0     H97508   0.803   8.686   1.859  1.4912 -0.0682 -3.0287
  707MOL0     H97509   0.989   8.456   1.861 -1.3415 -0.2402 -0.9333
  707MOL0     H97510   0.985   8.580   1.719  0.3625  2.6093  0.5062
  707MOL0     H97511   1.063   8.761   1.862  0.3531  0.9265  3.6237
  707MOL0     H97512   1.177   8.630   1.839 -0.6269 -1.8321 -0.5702
  707MOL0     H97513   0.998   8.660   2.082 -2.0294  0.2917 -2.3725
  707MOL0     H97514   1.119   8.533   2.048  0.0853 -0.6032 -3.4855
  707MOL0     H97515   1.363   8.601   2.050 -1.4001 -0.6663 -1.1460
  707MOL0     H97516   1.542   8.927   1.991 -2.6614  0.7011  1.2783
  707MOL0     H97517   1.582   8.790   2.091 -0.6209 -0.0561  4.3647
  707MOL0     H97518   1.507   9.051   2.223 -0.4474 -0.9836 -1.3006
  707MOL0     H97519   1.530   8.889   2.288 -2.0701  2.3716  1.0017
  707MOL0     H97520   1.759   8.902   2.183 -2.3337 -1.9926  2.3672
  707MOL0     H97521   1.731   9.083   2.152 -0.7110 -0.1371 -0.1688
  707MOL0     H97522   1.831   9.103   2.338  1.3844 -0.5156  1.0974
  707MOL0     H97523   1.672   9.070   2.407 -1.2569 -0.6335 -1.8168
  707MOL0     H97524   2.022   9.097   2.422  1.6832  0.0847 -2.0466
  707MOL0     H97525   2.222   9.163   2.461 -3.6350 -3.5050 -3.0161
  707MOL0     H97526   2.359   9.056   2.457 -0.0788  0.5796  0.9786
  707MOL0     H97527   2.280   9.090   2.615  0.1589 -0.1946  0.7272
  707MOL0     H97528   2.431   8.426   2.696  0.4276 -0.1804  1.9167
  707MOL0     H97529   2.649   8.369   2.795  0.8461  1.3277  2.5346
  707MOL0     H97530   3.024   8.597   2.958 -0.1505  3.9608  0.7630
  707MOL0     H97531   2.970   8.704   2.842  1.3118 -4.0308 -2.1216
  707MOL0     H97532   2.914   8.760   3.089  0.4827 -3.4550  3.2650
  707MOL0     H97533   2.771   8.754   2.990 -0.6616  1.1266  1.7539
  707MOL0     H97534   2.784   8.488   3.072 -3.8086  0.8349  0.6267
  707MOL0     H97535   2.697   8.607   3.159 -0.1213  2.2816 -0.0429
  707MOL0     H97536   2.913   8.641   3.300 -2.2633  1.0270  0.0217
  707MOL0     H97537   2.983   8.508   3.199  1.2356  1.7197  1.5267
  707MOL0     H97538   2.734   8.497   3.378  0.9186  1.4606 -0.0276
  707MOL0     H97539   2.821   8.353   3.307 -0.9558 -0.3266  0.1556
  707MOL0     H97540   2.919   8.531   3.524  2.0528 -0.0871  0.6401
  707MOL0     H97541   3.017   8.411   3.462  0.6975 -0.8385 -0.7847
  707MOL0     H97542   2.852   8.225   3.511 -2.6992 -0.0160  0.4428
  707MOL0     H97543   2.741   8.342   3.578 -0.0943 -0.4688 -0.9050
  707MOL0     H97544   2.864   8.399   3.749  0.4825 -1.2625  1.9546
  707MOL0     H97545   3.021   8.357   3.687 -1.2083 -0.0626  1.3248
  707MOL0     H97546   2.796   8.760   2.725  1.2277 -0.8308 -2.2997
  707MOL0     H97547   2.599   8.830   2.602 -0.3060 -0.0331  1.2719
  707MOL0     H97548   2.109   8.636   2.556  0.2779  0.4242  0.9142
  707MOL0     H97549   1.897   8.693   2.481 -0.9961  2.7131 -1.6846
  707MOL0     H97550   0.634   7.940   1.926 -0.9353 -2.7272  1.0310
  707MOL0     H97551   0.625   7.680   1.944  0.6497 -0.4695 -0.1746
  707MOL0     H97552   0.712   7.255   1.708  0.4839 -0.2612 -0.4997
  707MOL0     H97553   0.690   7.040   1.663 -0.6594 -0.3585  2.3133
  707MOL0     H97554   0.673   6.888   1.482 -1.2480 -1.0933 -3.4671
  707MOL0     H97555   0.621   6.815   1.637 -0.7528  1.4510  0.4866
  707MOL0     H97556   0.622   6.730   1.369  0.4467  0.6147  0.1370
  707MOL0     H97557   0.457   6.728   1.432  0.0374  2.1540  2.4291
  707MOL0     H97558   0.708   6.564   1.507  0.5848  2.1000 -0.9891
  707MOL0     H97559   0.567   6.550   1.608 -2.3842 -1.2776 -0.0985
  707MOL0     H97560   0.422   6.463   1.429 -0.9323 -1.5728 -1.8241
  707MOL0     H97561   0.556   6.354   1.440 -1.2496 -0.6762  0.6833
  707MOL0     H97562   0.528   6.494   1.041 -3.3968 -2.0285  0.2761
  707MOL0     H97563   0.299   7.107   1.492 -2.6624  2.4134  0.8000
  707MOL0     H97564   0.173   7.289   1.526 -1.0920 -0.8513  1.9250
  707MOL0     H97565   0.207   7.342   1.687 -1.2238  2.2850 -0.5674
  707MOL0     H97566   0.261   7.441   1.556  2.4682 -0.5295 -1.1195
  708MOL0     O97567   3.174   1.458  10.851 -0.1520  0.1799  0.9510
  708MOL0     C97568   3.064   1.463  10.905  0.5430  0.0123  0.0600
  708MOL0     O97569   3.041   1.447  11.037  0.3706  0.4896 -0.6023
  708MOL0     C97570   3.150   1.431  11.115  1.3328 -0.7894 -0.1940
  708MOL0     C97571   3.218   1.314  11.112 -0.6355 -0.2457  0.4956
  708MOL0     C97572   3.326   1.279  11.192  0.7243  0.2870 -0.2308
  708MOL0     C97573   3.373   1.373  11.292 -0.0646  1.0272 -0.2674
  708MOL0     O97574   3.492   1.364  11.358  0.1747 -0.9962  0.5820
  708MOL0     C97575   3.549   1.243  11.399 -0.2255  0.7018  0.4003
  708MOL0     C97576   3.686   1.217  11.342 -0.3513  0.3744  0.3880
  708MOL0     C97577   3.778   1.329  11.346  0.0912 -0.1042 -0.4723
  708MOL0     C97578   3.840   1.354  11.482 -0.4229  0.6572 -0.2712
  708MOL0     C97579   3.945   1.467  11.472 -0.4564  0.6747 -0.2175
  708MOL0     C97580   4.014   1.497  11.603  0.8795 -0.6287  0.0973
  708MOL0     C97581   3.927   1.561  11.712  0.0649  0.4496  0.5840
  708MOL0     C97582   3.962   1.526  11.857  0.8286 -0.9529  0.0642
  708MOL0     N97583   4.107   1.550  11.868 -0.0924 -0.9224 -0.4759
  708MOL0     C97584   4.163   1.677  11.884  0.3216 -0.5347 -0.6276
  708MOL0     C97585   4.282   1.647  11.948  0.6304  0.1942 -0.3228
  708MOL0     C97586   4.361   1.759  12.009  0.3429 -0.1446 -0.8755
  708MOL0     C97587   4.498   1.765  11.939 -0.2314 -0.8540  0.8896
  708MOL0     C97588   4.587   1.890  11.966 -0.8909  1.0725  0.2410
  708MOL0     C97589   4.720   1.880  11.889  0.4431  0.8646 -0.6102
  708MOL0     O97590   4.815   1.820  11.975 -1.0851 -0.6334 -0.1502
  708MOL0     C97591   4.934   1.779  11.918  0.1848  0.0187 -0.6993
  708MOL0     C97592   5.049   1.758  12.004  0.2323  0.3230  0.0601
  708MOL0     C97593   5.181   1.735  11.956  0.8274  0.5788 -0.2374
  708MOL0     C97594   5.286   1.691  12.060  0.6582  0.7863  0.2309
  708MOL0     C97595   5.203   1.741  11.816 -0.6938 -0.1721 -1.0737
  708MOL0     C97596   5.327   1.714  11.751  0.1575  0.0401  0.3602
  708MOL0     O97597   5.404   1.611  11.784 -1.2118  0.6856  0.7727
  708MOL0     C97598   5.478   1.546  11.683  1.1316  0.5645 -0.8364
  708MOL0     C97599   5.596   1.607  11.643  0.2654 -1.3910  0.3443
  708MOL0     C97600   5.671   1.553  11.537  0.1542  0.7213 -0.1639
  708MOL0     C97601   5.644   1.434  11.473  0.2589 -1.0626  0.7082
  708MOL0     O97602   5.715   1.397  11.365 -0.1554 -0.1947  0.2690
  708MOL0     C97603   5.771   1.263  11.371  0.3536  0.0694 -0.2647
  708MOL0     C97604   5.878   1.249  11.256 -0.2933  0.6748  0.3958
  708MOL0     C97605   5.887   1.094  11.225  0.1057 -0.3258  1.2891
  708MOL0     C97606   5.956   1.081  11.085  0.0448  0.5347 -0.1538
  708MOL0     C97607   6.012   0.937  11.063  0.4883  0.3391  0.7639
  708MOL0     C97608   6.085   0.930  10.931  0.3339 -0.5118 -0.2566
  708MOL0     C97609   6.150   0.803  10.918  0.8879  0.6390 -0.0181
  708MOL0     C97610   6.233   0.795  10.790  0.1106 -0.2318  0.1585
  708MOL0    Cl97611   6.178   0.658  10.683  0.4898  0.1118  0.2066
  708MOL0     C97612   5.526   1.370  11.510 -0.3911  0.1473  0.1454
  708MOL0     C97613   5.447   1.424  11.611 -0.5070 -0.3362  0.5124
  708MOL0     O97614   5.346   1.776  11.650  0.5791 -1.2862  0.1808
  708MOL0     C97615   5.085   1.759  11.737  0.1440 -0.0619 -0.8006
  708MOL0     C97616   4.959   1.784  11.788 -0.1419  0.3796  0.6455
  708MOL0     N97617   4.295   1.506  11.966 -0.5618  0.4337 -0.8027
  708MOL0     N97618   4.191   1.450  11.914  0.3839 -0.5123  0.2395
  708MOL0     C97619   3.300   1.488  11.296  0.4207  0.3691  0.6347
  708MOL0     C97620   3.187   1.523  11.213  0.2513  0.0113  0.6380
  708MOL0     C97621   2.952   1.461  10.806 -0.5191  1.0528 -0.0366
  708MOL0     C97622   2.987   1.471  10.670 -0.3902 -0.4756 -0.0469
  708MOL0     C97623   2.890   1.493  10.579  0.8501  0.2509  0.1271
  708MOL0     C97624   2.760   1.486  10.610 -0.7905  0.6456 -0.9314
  708MOL0     O97625   2.668   1.515  10.513  0.6221 -0.9129 -0.5745
  708MOL0     C97626   2.684   1.475  10.377  0.0525 -0.5247  0.0184
  708MOL0     C97627   2.562   1.478  10.287  0.8753  0.7780 -0.8072
  708MOL0     C97628   2.455   1.382  10.341  0.5187 -0.0184  0.0445
  708MOL0     C97629   2.321   1.414  10.279  0.5676 -0.2025  0.7395
  708MOL0     C97630   2.259   1.539  10.331  0.3585 -0.3026  0.8847
  708MOL0     C97631   2.198   1.627  10.384 -0.3880 -0.1308  0.3021
  708MOL0     C97632   2.721   1.476  10.750 -0.3077  0.4909  0.5913
  708MOL0     C97633   2.814   1.453  10.847 -0.1414 -0.0843  0.1456
  708MOL0     C97634   2.771   1.442  10.987  0.0308  0.5938 -0.3658
  708MOL0     H97635   3.206   1.233  11.041  3.8091 -0.8244  0.1167
  708MOL0     H97636   3.381   1.190  11.162 -0.5950 -0.8401  0.6076
  708MOL0     H97637   3.487   1.154  11.383  0.6845 -1.0959  4.9983
  708MOL0     H97638   3.559   1.254  11.508  1.4352 -1.3501  0.5415
  708MOL0     H97639   3.721   1.124  11.389 -0.5233 -1.1201 -2.2311
  708MOL0     H97640   3.680   1.184  11.238  0.1081  0.3534  0.3680
  708MOL0     H97641   3.859   1.298  11.278  0.4044 -2.4086  0.8591
  708MOL0     H97642   3.727   1.422  11.317  2.0257  0.6050 -1.8235
  708MOL0     H97643   3.755   1.382  11.544  0.9368  2.6352  0.7915
  708MOL0     H97644   3.895   1.268  11.521  0.0846  0.4618 -1.3771
  708MOL0     H97645   3.894   1.559  11.442 -0.5659  0.7702  0.2555
  708MOL0     H97646   4.022   1.447  11.396 -2.0964 -2.1562 -1.3212
  708MOL0     H97647   4.047   1.402  11.644  0.1291  0.2348  2.9078
  708MOL0     H97648   4.097   1.566  11.586  2.0072 -0.8744  3.8790
  708MOL0     H97649   3.823   1.529  11.702 -0.1275  1.5843 -1.7138
  708MOL0     H97650   3.932   1.671  11.709  1.5147  0.4461  1.5003
  708MOL0     H97651   3.916   1.603  11.919  2.3924 -0.9642  1.2931
  708MOL0     H97652   3.937   1.425  11.889  2.6885 -0.5762  3.1191
  708MOL0     H97653   4.121   1.774  11.858  1.2794  0.1057  0.1756
  708MOL0     H97654   4.370   1.744  12.117  2.5227 -4.4634 -1.3934
  708MOL0     H97655   4.310   1.854  11.994 -3.2420 -1.9575 -1.2614
  708MOL0     H97656   4.556   1.677  11.966  3.5008  1.3695  0.8435
  708MOL0     H97657   4.478   1.765  11.832 -0.8197 -1.0199  0.9985
  708MOL0     H97658   4.530   1.982  11.947  0.2320  2.5280  3.1913
  708MOL0     H97659   4.618   1.912  12.069 -0.6311  0.7719  0.2273
  708MOL0     H97660   4.708   1.833  11.791 -0.8060 -1.4316  0.5517
  708MOL0     H97661   4.738   1.986  11.868  1.6405  1.5987  3.3803
  708MOL0     H97662   5.020   1.755  12.109  0.9790  1.0906  0.3003
  708MOL0     H97663   5.264   1.584  12.070  3.1277  0.2800  0.7283
  708MOL0     H97664   5.273   1.751  12.151  0.4699  0.6232  0.3119
  708MOL0     H97665   5.389   1.708  12.027  1.0136  1.0554  1.4427
  708MOL0     H97666   5.623   1.698  11.695 -1.7803 -0.8098  0.4628
  708MOL0     H97667   5.755   1.619  11.517  0.8140  0.1945  0.7655
  708MOL0     H97668   5.820   1.255  11.468  1.1592 -2.6820 -0.8107
  708MOL0     H97669   5.704   1.176  11.362  2.6122 -2.0256  1.7448
  708MOL0     H97670   5.841   1.298  11.166  1.8948  3.1624  0.7341
  708MOL0     H97671   5.979   1.286  11.275  0.7997 -1.6373 -0.4388
  708MOL0     H97672   5.787   1.051  11.211 -1.8582  3.5463  1.7771
  708MOL0     H97673   5.940   1.039  11.303 -1.4460 -1.6000  1.5036
  708MOL0     H97674   6.045   1.145  11.088 -0.6951  1.5762  2.4564
  708MOL0     H97675   5.904   1.124  10.999 -0.7769 -0.3784 -0.1279
  708MOL0     H97676   6.087   0.914  11.140  0.7645 -1.4725  0.0128
  708MOL0     H97677   5.934   0.861  11.068 -2.3141  3.0777  2.7670
  708MOL0     H97678   6.153   1.014  10.915 -0.3042  0.0723  0.0508
  708MOL0     H97679   6.007   0.934  10.854 -0.2419  0.6568  0.3680
  708MOL0     H97680   6.072   0.727  10.912  1.9519 -0.3958 -1.2842
  708MOL0     H97681   6.205   0.789  11.011  1.3160  1.7411 -0.0839
  708MOL0     H97682   6.335   0.779  10.825 -0.4621  1.2049  2.7316
  708MOL0     H97683   6.233   0.889  10.734  2.6647 -0.7867 -0.9182
  708MOL0     H97684   5.489   1.288  11.448  2.3972 -1.1263  0.0513
  708MOL0     H97685   5.374   1.353  11.647  3.0180 -4.0035  1.1944
  708MOL0     H97686   5.095   1.767  11.629  3.0628 -0.5428 -0.6513
  708MOL0     H97687   4.885   1.808  11.712  1.9378  2.5698 -0.8202
  708MOL0     H97688   3.332   1.562  11.369  0.1690  0.7702  0.3498
  708MOL0     H97689   3.120   1.608  11.219 -0.4645 -0.5537  0.8688
  708MOL0     H97690   3.092   1.482  10.644 -0.6503  0.0811 -0.9216
  708MOL0     H97691   2.913   1.527  10.479  1.9965  0.7418  0.5472
  708MOL0     H97692   2.754   1.536  10.319 -0.2434  0.0961  0.3079
  708MOL0     H97693   2.714   1.369  10.377  1.1206 -0.2474 -0.8439
  708MOL0     H97694   2.594   1.438  10.190  0.4515  2.0419 -1.4820
  708MOL0     H97695   2.518   1.577  10.273 -1.1532 -0.1512 -1.2865
  708MOL0     H97696   2.484   1.279  10.318  0.8097 -0.2356  1.3408
  708MOL0     H97697   2.441   1.378  10.449  2.4979 -0.6958  0.3201
  708MOL0     H97698   2.260   1.325  10.297  0.2737 -0.2735 -0.4815
  708MOL0     H97699   2.324   1.431  10.171 -2.2013  3.2490  0.9879
  708MOL0     H97700   2.160   1.714  10.433 -1.9340  1.5936 -3.5086
  708MOL0     H97701   2.617   1.494  10.775 -0.9906  2.2493 -2.8421
  708MOL0     H97702   2.664   1.422  10.997 -0.1985  1.7446 -0.3738
  708MOL0     H97703   2.812   1.355  11.039 -0.7530  0.2304 -0.3435
  708MOL0     H97704   2.795   1.520  11.059  1.5721 -1.1296  1.1060
  709MOL0     O97705   1.778   1.941  10.510  0.2871  0.6492 -1.3071
  709MOL0     C97706   1.749   1.984  10.623  1.1049 -0.1595 -0.3228
  709MOL0     O97707   1.809   1.960  10.745 -0.0846 -0.3685 -0.1941
  709MOL0     C97708   1.881   1.849  10.767  0.2200 -0.0409  0.4367
  709MOL0     C97709   1.989   1.864  10.854  0.1335 -0.4692 -0.5485
  709MOL0     C97710   2.074   1.752  10.875 -0.5368 -0.0339  1.1156
  709MOL0     C97711   2.047   1.627  10.814 -0.3315  0.4685 -0.4665
  709MOL0     O97712   2.117   1.518  10.839  0.4756  1.2903 -1.0173
  709MOL0     C97713   2.215   1.517  10.946  0.5526  0.6743 -0.2970
  709MOL0     C97714   2.243   1.368  10.965  0.0341  0.0711  0.7035
  709MOL0     C97715   2.349   1.358  11.082  0.2420  0.4785  0.3929
  709MOL0     C97716   2.376   1.213  11.106  0.9692 -0.1908 -0.9768
  709MOL0     C97717   2.459   1.200  11.229  0.5256 -0.2899 -0.1061
  709MOL0     C97718   2.492   1.050  11.252  0.8225 -0.1365  0.4798
  709MOL0     C97719   2.569   1.019  11.370 -0.3380  0.4849 -0.4258
  709MOL0     C97720   2.498   1.067  11.503 -0.8671  0.4628 -0.3948
  709MOL0     N97721   2.486   0.962  11.611  0.1879 -0.2522  0.9908
  709MOL0     C97722   2.458   0.831  11.587 -0.4258 -0.7546  0.4158
  709MOL0     C97723   2.464   0.774  11.708 -0.5474  0.3412  0.9551
  709MOL0     C97724   2.443   0.628  11.736 -1.0164 -0.0338  0.3222
  709MOL0     C97725   2.345   0.552  11.635 -0.7110  0.3514  0.2957
  709MOL0     C97726   2.203   0.603  11.633 -1.4879 -0.1347 -0.3221
  709MOL0     C97727   2.116   0.516  11.543 -0.0399 -0.0204 -0.5298
  709MOL0     O97728   2.185   0.516  11.415 -0.0591  0.6056  0.0307
  709MOL0     C97729   2.162   0.611  11.320  0.0867  0.2605  0.0186
  709MOL0     C97730   2.238   0.606  11.203  0.2442 -0.5159 -0.6759
  709MOL0     C97731   2.229   0.708  11.109  0.0957  0.1594 -0.2086
  709MOL0     C97732   2.326   0.693  10.995 -0.6947 -1.1847 -0.0194
  709MOL0     C97733   2.122   0.795  11.112  0.6532 -0.8730  0.1442
  709MOL0     C97734   2.099   0.902  11.015 -0.2284 -0.5116  0.2688
  709MOL0     O97735   1.969   0.935  10.994 -0.3974 -1.0597 -0.4952
  709MOL0     C97736   1.919   1.042  10.920 -0.4690  0.4432 -0.0629
  709MOL0     C97737   1.781   1.035  10.921 -0.3158  0.8794  0.2430
  709MOL0     C97738   1.703   1.133  10.857  0.7938  0.5422  0.2872
  709MOL0     C97739   1.768   1.232  10.782 -0.4645 -0.6083  0.2788
  709MOL0     O97740   1.710   1.319  10.698  0.1709 -0.6302  0.4492
  709MOL0     C97741   1.564   1.340  10.709 -0.5269 -0.0634  1.0096
  709MOL0     C97742   1.523   1.467  10.649 -0.3616 -0.1543 -0.5552
  709MOL0     C97743   1.377   1.448  10.576 -0.0755 -0.0157 -0.2816
  709MOL0     C97744   1.309   1.583  10.537  0.9302 -0.1983  0.1164
  709MOL0     C97745   1.171   1.563  10.467 -0.6389  0.2093 -0.3306
  709MOL0     C97746   1.082   1.695  10.435 -0.4404 -0.4861  0.1471
  709MOL0     C97747   1.144   1.793  10.332 -0.0186 -0.5772 -0.6553
  709MOL0     C97748   1.046   1.900  10.286 -0.5653  0.5408 -0.6025
  709MOL0    Cl97749   1.025   2.040  10.397 -0.5394 -0.3202 -0.0701
  709MOL0     C97750   1.905   1.225  10.771  0.6269 -0.5786 -0.8637
  709MOL0     C97751   1.983   1.139  10.848 -0.3706 -0.0218  0.0289
  709MOL0     O97752   2.191   0.964  10.960 -0.6399  0.4417 -0.8099
  709MOL0     C97753   2.035   0.808  11.233  0.8774  0.0738 -0.2800
  709MOL0     C97754   2.072   0.725  11.339  0.3766  0.2338 -0.2462
  709MOL0     N97755   2.499   0.862  11.806  0.4280  0.0578 -1.0594
  709MOL0     N97756   2.514   0.983  11.745 -0.1990  0.2347 -0.0874
  709MOL0     C97757   1.937   1.617  10.733  0.8722  0.1657 -0.2893
  709MOL0     C97758   1.856   1.732  10.706 -0.4080 -0.3294  1.2812
  709MOL0     C97759   1.647   2.090  10.634  0.5532  0.6416 -1.0218
  709MOL0     C97760   1.697   2.222  10.638  0.1528 -1.1350  1.1232
  709MOL0     C97761   1.596   2.324  10.660 -0.7709 -0.2275 -0.5173
  709MOL0     C97762   1.467   2.301  10.688 -0.0747  0.6275  0.4133
  709MOL0     O97763   1.393   2.415  10.707  1.2798  0.3604  0.0768
  709MOL0     C97764   1.253   2.407  10.708  0.1442 -0.3958 -1.5197
  709MOL0     C97765   1.206   2.402  10.860 -0.2226  0.0866 -0.4901
  709MOL0     C97766   1.263   2.522  10.952 -0.4621  1.0351 -0.0906
  709MOL0     C97767   1.271   2.662  10.879 -0.0468 -0.3150 -0.1318
  709MOL0     C97768   1.323   2.767  10.982  0.2887 -0.1718 -0.4030
  709MOL0     C97769   1.362   2.847  11.067  0.5428  0.0743  0.3967
  709MOL0     C97770   1.423   2.160  10.703  0.1680 -0.2203 -0.0899
  709MOL0     C97771   1.515   2.056  10.676 -0.1228 -1.1769  0.1608
  709MOL0     C97772   1.460   1.915  10.690  0.1184 -0.6633  0.4702
  709MOL0     H97773   2.021   1.948  10.914 -0.5824 -1.9876  2.1245
  709MOL0     H97774   2.146   1.769  10.954  0.4741 -0.0303  0.2073
  709MOL0     H97775   2.173   1.556  11.039  2.0972  1.1103  0.2473
  709MOL0     H97776   2.304   1.573  10.918 -1.3202  4.5752  0.9252
  709MOL0     H97777   2.148   1.323  10.995  1.3386 -3.1019  0.4648
  709MOL0     H97778   2.298   1.331  10.878 -1.4002  0.5342 -0.4528
  709MOL0     H97779   2.434   1.424  11.063  0.6058  0.3019  1.3271
  709MOL0     H97780   2.298   1.399  11.170  2.6372  4.2144  0.2556
  709MOL0     H97781   2.282   1.157  11.112  0.6116  0.5559  1.9570
  709MOL0     H97782   2.433   1.162  11.028  0.8645 -1.2864 -0.3548
  709MOL0     H97783   2.417   1.261  11.310 -0.9495  2.7922 -2.9574
  709MOL0     H97784   2.558   1.243  11.210  0.7896 -0.3519  1.0457
  709MOL0     H97785   2.398   0.992  11.247  0.7925  0.0020 -1.3109
  709MOL0     H97786   2.552   1.020  11.166  0.4702  0.7814 -0.1019
  709MOL0     H97787   2.667   1.068  11.372  0.6685 -1.3824  1.9436
  709MOL0     H97788   2.591   0.912  11.375 -0.5127  0.4454 -0.5117
  709MOL0     H97789   2.552   1.149  11.550 -0.6686 -0.6585  1.4191
  709MOL0     H97790   2.397   1.107  11.488 -2.4172 -2.8239  0.3214
  709MOL0     H97791   2.438   0.786  11.491 -2.1181 -0.1386  0.4471
  709MOL0     H97792   2.412   0.610  11.840 -0.2892  0.9625  0.7385
  709MOL0     H97793   2.544   0.590  11.719 -0.7024  2.0844 -3.6909
  709MOL0     H97794   2.395   0.559  11.538  1.8484 -0.5781  1.4765
  709MOL0     H97795   2.355   0.449  11.669  4.7163  0.6133  0.3238
  709MOL0     H97796   2.169   0.602  11.737 -2.6182  2.6850 -0.5895
  709MOL0     H97797   2.190   0.704  11.593  1.1648 -0.5355 -2.5240
  709MOL0     H97798   2.108   0.413  11.577  0.0350  0.0594 -0.2713
  709MOL0     H97799   2.014   0.556  11.539 -0.1869 -0.3411 -4.7915
  709MOL0     H97800   2.297   0.516  11.191 -1.2352 -1.4793 -0.8826
  709MOL0     H97801   2.410   0.629  11.023 -1.2094 -1.2515  1.4506
  709MOL0     H97802   2.358   0.784  10.943 -1.4264 -2.2696 -2.5003
  709MOL0     H97803   2.270   0.639  10.918  0.5859 -1.3908 -0.8247
  709MOL0     H97804   1.725   0.974  10.991 -0.4204  3.3175  2.4859
  709MOL0     H97805   1.596   1.134  10.871  0.6297  1.9553 -0.8925
  709MOL0     H97806   1.513   1.256  10.660 -0.1659  0.4732 -0.3352
  709MOL0     H97807   1.528   1.344  10.812  0.3369  0.7078  1.2919
  709MOL0     H97808   1.522   1.545  10.726  2.1260 -2.7887  2.4439
  709MOL0     H97809   1.589   1.498  10.568  1.2910 -1.7878  0.1110
  709MOL0     H97810   1.311   1.408  10.653 -2.8119  2.4509 -1.1869
  709MOL0     H97811   1.380   1.379  10.491 -0.8897 -2.0742  1.2725
  709MOL0     H97812   1.371   1.629  10.459  1.4570 -2.4403 -0.8836
  709MOL0     H97813   1.306   1.650  10.623  0.3201 -1.2676  0.9471
  709MOL0     H97814   1.185   1.505  10.376  0.5587 -4.2338  2.3586
  709MOL0     H97815   1.117   1.494  10.532 -0.3886 -2.7026 -3.0206
  709MOL0     H97816   1.072   1.742  10.534 -1.1947  1.9648 -1.0190
  709MOL0     H97817   0.982   1.657  10.412 -0.2627 -3.3736  3.2157
  709MOL0     H97818   1.173   1.737  10.242  1.4064  5.3330 -4.4494
  709MOL0     H97819   1.226   1.848  10.378 -0.6638  0.1953 -0.3928
  709MOL0     H97820   0.945   1.861  10.267  1.3626 -4.8219 -1.4095
  709MOL0     H97821   1.094   1.928  10.192 -1.3362 -1.4288 -1.6493
  709MOL0     H97822   1.958   1.290  10.702 -0.2865  0.7033 -0.3933
  709MOL0     H97823   2.092   1.142  10.839 -0.4023  0.6425 -0.1861
  709MOL0     H97824   1.954   0.880  11.237 -0.0983 -0.9305 -1.2869
  709MOL0     H97825   2.022   0.753  11.431  1.6102  0.7996  0.2720
  709MOL0     H97826   1.910   1.518  10.698  2.0331 -0.5507  0.7549
  709MOL0     H97827   1.776   1.720  10.633  1.8069  2.7640 -1.9736
  709MOL0     H97828   1.800   2.257  10.632 -0.0949 -0.3212  1.4794
  709MOL0     H97829   1.640   2.423  10.659  0.2583 -0.6751 -0.5637
  709MOL0     H97830   1.211   2.489  10.649  0.8303  0.9907 -0.1542
  709MOL0     H97831   1.221   2.316  10.657  1.4676 -1.4382 -0.5635
  709MOL0     H97832   1.224   2.302  10.900 -0.0132  0.2368 -0.2006
  709MOL0     H97833   1.098   2.420  10.865 -0.1313  1.7942 -2.8085
  709MOL0     H97834   1.210   2.526  11.047  2.1126 -3.3872  1.8401
  709MOL0     H97835   1.365   2.498  10.983 -1.0121 -2.5828 -0.6453
  709MOL0     H97836   1.167   2.685  10.851  0.1202  0.3759 -0.1957
  709MOL0     H97837   1.324   2.663  10.783 -0.2788  0.5340 -0.2672
  709MOL0     H97838   1.408   2.904  11.145 -1.4092 -1.9512  3.1963
  709MOL0     H97839   1.324   2.135  10.739  0.3475  0.6061  1.0510
  709MOL0     H97840   1.358   1.904  10.728  0.8840  0.2854  3.0261
  709MOL0     H97841   1.454   1.871  10.590  2.2283  0.3787 -0.1731
  709MOL0     H97842   1.539   1.865  10.747  0.8894 -1.1535 -0.9861
  710MOL0     O97843   6.454   2.340   2.889 -0.3755 -0.3441 -0.5789
  710MOL0     C97844   6.442   2.448   2.837 -0.2812 -0.4398  0.1956
  710MOL0     O97845   6.538   2.539   2.847 -0.0560 -0.6168 -0.0096
  710MOL0     C97846   6.622   2.523   2.961  0.4571  0.0245 -0.3186
  710MOL0     C97847   6.741   2.463   2.935  0.6257  0.2945  0.9816
  710MOL0     C97848   6.823   2.443   3.050 -0.2561  0.4886 -0.0890
  710MOL0     C97849   6.785   2.481   3.184 -0.0575  0.0765  0.3198
  710MOL0     O97850   6.872   2.466   3.278 -0.0260 -0.1212 -0.6998
  710MOL0     C97851   6.821   2.416   3.406 -0.0569 -0.6549 -0.0136
  710MOL0     C97852   6.936   2.338   3.473  0.1549 -0.4834 -0.0325
  710MOL0     C97853   6.904   2.193   3.525  1.0037 -0.6320  0.1959
  710MOL0     C97854   7.027   2.116   3.566  0.5900  0.1681 -0.3630
  710MOL0     C97855   6.991   1.973   3.621  0.3636 -0.3182  0.1528
  710MOL0     C97856   7.127   1.913   3.670  0.1450  0.2275  0.9703
  710MOL0     C97857   7.220   1.869   3.556 -0.3692 -1.0054  0.8912
  710MOL0     C97858   7.311   1.749   3.584 -0.3105 -1.1778  0.0134
  710MOL0     N97859   7.445   1.793   3.629  0.5089 -0.2250  0.4746
  710MOL0     C97860   7.543   1.851   3.550 -0.0793 -0.1950  0.2316
  710MOL0     C97861   7.637   1.884   3.636 -0.8782 -0.5018 -0.6269
  710MOL0     C97862   7.769   1.962   3.605  0.5988  0.3546 -0.8321
  710MOL0     C97863   7.896   1.881   3.590  0.3707 -0.2748 -1.3206
  710MOL0     C97864   7.883   1.775   3.483  1.1286 -0.7018  0.4311
  710MOL0     C97865   8.027   1.740   3.439  0.3968  0.6862  0.0312
  710MOL0     O97866   8.004   1.628   3.348  0.1142  0.4005  0.3980
  710MOL0     C97867   8.111   1.574   3.288  0.1772  0.2397  0.3056
  710MOL0     C97868   8.084   1.464   3.205 -0.3877  1.2190 -1.3640
  710MOL0     C97869   8.180   1.392   3.126  0.2865 -0.7219  0.4172
  710MOL0     C97870   8.127   1.276   3.040  0.0775  0.8063  0.1329
  710MOL0     C97871   8.321   1.444   3.141  0.4900  0.5175 -0.2895
  710MOL0     C97872   8.436   1.373   3.070 -0.5781 -0.4635  0.1941
  710MOL0     O97873   8.399   1.287   2.972  0.2768 -0.0714 -0.4085
  710MOL0     C97874   8.500   1.246   2.885 -0.7045 -1.1310  0.1355
  710MOL0     C97875   8.584   1.334   2.807  0.3212 -0.3360  0.6133
  710MOL0     C97876   8.685   1.291   2.716  0.5787  1.0861  0.5292
  710MOL0     C97877   8.700   1.147   2.704 -0.7672 -0.4813 -0.5929
  710MOL0     O97878   8.768   1.085   2.606 -0.2154  0.2056 -0.4318
  710MOL0     C97879   8.902   1.129   2.602 -0.7634 -0.0356  1.1235
  710MOL0     C97880   8.987   1.016   2.534  0.0931  0.1946 -0.9312
  710MOL0     C97881   9.018   0.898   2.626  0.3466  0.1355 -0.8818
  710MOL0     C97882   9.125   0.934   2.732  0.0212  0.2296  0.2265
  710MOL0     C97883   9.118   0.820   2.827  0.0206  0.9974  0.9697
  710MOL0     C97884   9.218   0.834   2.934 -0.4569 -1.1359 -0.0128
  710MOL0     C97885   9.232   0.707   3.019  0.0635  0.2974 -0.8811
  710MOL0     C97886   9.276   0.587   2.938 -0.5890 -0.1125 -0.7285
  710MOL0    Cl97887   9.417   0.613   2.832 -0.2650  0.2047 -0.5157
  710MOL0     C97888   8.622   1.063   2.774  1.0400 -0.4774 -0.5368
  710MOL0     C97889   8.520   1.107   2.860  1.2647 -0.4090  0.3952
  710MOL0     O97890   8.557   1.391   3.098 -0.0169 -0.6378  0.3692
  710MOL0     C97891   8.346   1.552   3.233 -0.1600 -0.0378  0.2570
  710MOL0     C97892   8.246   1.622   3.298  0.7277  0.6140 -0.1817
  710MOL0     N97893   7.601   1.831   3.761  0.5267  0.5707 -0.1063
  710MOL0     N97894   7.490   1.774   3.753 -0.1708  0.1420 -0.2740
  710MOL0     C97895   6.666   2.542   3.192  0.5720  0.9874 -0.6811
  710MOL0     C97896   6.579   2.562   3.085  0.1258 -0.3887  0.4701
  710MOL0     C97897   6.328   2.484   2.746  0.1444  0.1140  0.1989
  710MOL0     C97898   6.327   2.621   2.699 -0.6557  0.4853 -0.3159
  710MOL0     C97899   6.222   2.653   2.620  0.9691  0.0993  0.0842
  710MOL0     C97900   6.120   2.564   2.589  0.5225 -0.6369 -0.5319
  710MOL0     O97901   6.015   2.617   2.517 -0.3510 -0.0138 -0.2174
  710MOL0     C97902   5.922   2.530   2.445  0.1296  0.6351  0.3146
  710MOL0     C97903   5.808   2.619   2.386  0.4989  0.7048 -0.4352
  710MOL0     C97904   5.738   2.545   2.272  0.7732  0.0850  0.3838
  710MOL0     C97905   5.668   2.410   2.308 -0.1736 -0.7330  0.9709
  710MOL0     C97906   5.546   2.431   2.388  0.9881 -0.3516 -0.4525
  710MOL0     C97907   5.445   2.457   2.452  0.3662  0.5158  0.7968
  710MOL0     C97908   6.132   2.435   2.628 -0.3349  0.5521 -0.5829
  710MOL0     C97909   6.237   2.387   2.703  0.3914  0.0146  0.3243
  710MOL0     C97910   6.238   2.239   2.737  0.3835 -0.2605  0.2605
  710MOL0     H97911   6.766   2.434   2.834  1.0241 -0.5870  1.3262
  710MOL0     H97912   6.922   2.400   3.048  0.1058  1.1790  1.5555
  710MOL0     H97913   6.730   2.356   3.395  0.6789 -2.6123  3.2128
  710MOL0     H97914   6.793   2.495   3.476  4.4667  1.5078 -0.3245
  710MOL0     H97915   7.016   2.322   3.400  0.9033  0.5403  0.5305
  710MOL0     H97916   6.982   2.394   3.555 -3.2397  2.9351 -0.1733
  710MOL0     H97917   6.850   2.201   3.619 -1.0296 -0.8261 -0.8866
  710MOL0     H97918   6.833   2.146   3.457  1.7370 -0.1883 -0.9139
  710MOL0     H97919   7.094   2.106   3.481  1.8242  0.8107  0.5066
  710MOL0     H97920   7.077   2.172   3.646  0.8567 -0.9014  0.2339
  710MOL0     H97921   6.960   1.921   3.530 -0.2075  1.5852 -0.7950
  710MOL0     H97922   6.917   1.974   3.701 -1.3414  1.4983 -1.3385
  710MOL0     H97923   7.178   1.989   3.729  0.0964  0.4584  0.7175
  710MOL0     H97924   7.106   1.821   3.726 -0.3841  0.1552  0.6630
  710MOL0     H97925   7.273   1.962   3.533 -1.4273 -0.2981  1.2312
  710MOL0     H97926   7.170   1.843   3.462  3.1710 -3.7108 -0.4680
  710MOL0     H97927   7.253   1.695   3.659 -1.6621 -1.6883 -1.3557
  710MOL0     H97928   7.319   1.686   3.495  1.0870  0.2022 -0.8875
  710MOL0     H97929   7.542   1.865   3.442 -0.5587  0.5965  0.3299
  710MOL0     H97930   7.789   2.022   3.694  3.9281 -3.3951  1.2937
  710MOL0     H97931   7.744   2.026   3.519 -2.8765 -1.0175 -1.0217
  710MOL0     H97932   7.964   1.956   3.549 -1.8449  1.4350 -2.0882
  710MOL0     H97933   7.931   1.836   3.684  1.1554 -0.2166 -1.5791
  710MOL0     H97934   7.834   1.688   3.527 -1.0369  0.2470  0.0304
  710MOL0     H97935   7.829   1.814   3.396  0.3951 -0.5450  0.9441
  710MOL0     H97936   8.080   1.829   3.403  3.0303  0.1383  2.2625
  710MOL0     H97937   8.084   1.702   3.524  2.9547  0.8989 -1.4917
  710MOL0     H97938   7.980   1.436   3.203  0.3341 -2.0968 -0.0502
  710MOL0     H97939   8.018   1.280   3.051  0.1233  3.3262  0.2389
  710MOL0     H97940   8.172   1.187   3.086  2.3166  3.1562  2.9383
  710MOL0     H97941   8.157   1.300   2.938 -1.4183 -1.9648 -1.0489
  710MOL0     H97942   8.565   1.440   2.821 -2.1436 -0.8434  1.6654
  710MOL0     H97943   8.737   1.364   2.655 -0.9605  0.8004 -1.1958
  710MOL0     H97944   8.898   1.219   2.540 -0.2652 -0.1352  0.9413
  710MOL0     H97945   8.943   1.160   2.699  0.6607  1.6447  0.0358
  710MOL0     H97946   8.943   0.987   2.438 -0.4491  1.1642 -0.9984
  710MOL0     H97947   9.084   1.065   2.519 -0.4967  1.2908 -1.3473
  710MOL0     H97948   9.051   0.813   2.567  1.2342  0.9976 -1.6538
  710MOL0     H97949   8.929   0.859   2.677 -0.5237 -0.6937 -2.9560
  710MOL0     H97950   9.122   1.035   2.773 -0.6473  0.9845 -1.5877
  710MOL0     H97951   9.215   0.930   2.670 -1.1861 -0.0430 -1.5833
  710MOL0     H97952   9.023   0.810   2.881  0.4874  1.6855  1.9721
  710MOL0     H97953   9.135   0.729   2.769 -3.9626  1.4092 -1.2278
  710MOL0     H97954   9.183   0.915   2.999 -0.8434 -1.2578 -0.0608
  710MOL0     H97955   9.313   0.858   2.886  0.3307 -0.7383  1.6621
  710MOL0     H97956   9.134   0.675   3.054  0.7554  2.4005  3.6038
  710MOL0     H97957   9.297   0.731   3.103 -1.8273  0.3947  0.6101
  710MOL0     H97958   9.197   0.539   2.880  0.8410 -3.7304  0.0767
  710MOL0     H97959   9.308   0.520   3.018 -0.5871  0.6937 -0.0407
  710MOL0     H97960   8.627   0.959   2.743  0.6522  0.1367 -2.9194
  710MOL0     H97961   8.456   1.030   2.899  0.8972  1.5008  3.9531
  710MOL0     H97962   8.440   1.606   3.228 -0.5509  0.5324 -2.4916
  710MOL0     H97963   8.272   1.720   3.336  3.2400 -0.3142  0.7166
  710MOL0     H97964   6.636   2.563   3.294  1.2184 -1.0873 -0.0122
  710MOL0     H97965   6.481   2.610   3.089 -1.1620 -2.9193  1.1422
  710MOL0     H97966   6.403   2.692   2.733  0.7425 -1.9052  1.8646
  710MOL0     H97967   6.214   2.757   2.590 -1.4024  0.1910  0.8306
  710MOL0     H97968   5.969   2.459   2.377  2.0421 -0.6911  2.8467
  710MOL0     H97969   5.865   2.469   2.516 -0.8183  2.2088  0.9569
  710MOL0     H97970   5.856   2.700   2.330  1.4329 -0.0952 -0.8262
  710MOL0     H97971   5.735   2.657   2.459  1.7552  0.2269  1.1277
  710MOL0     H97972   5.678   2.626   2.228  1.9077  0.5905 -0.2692
  710MOL0     H97973   5.804   2.519   2.189  2.1152 -0.9389  1.7295
  710MOL0     H97974   5.735   2.334   2.351 -2.3265 -3.3632 -0.0853
  710MOL0     H97975   5.638   2.362   2.215 -0.2919 -0.5636  0.9224
  710MOL0     H97976   5.352   2.467   2.505 -1.1334 -3.5244 -0.7034
  710MOL0     H97977   6.050   2.368   2.602 -0.1422  1.3608 -3.6771
  710MOL0     H97978   6.229   2.222   2.844 -1.9365 -0.8281  0.0214
  710MOL0     H97979   6.150   2.189   2.697  0.1162  0.8388 -0.5707
  710MOL0     H97980   6.324   2.191   2.688  1.1501 -0.1719  1.4932
  711MOL0     O97981   1.099   3.921   7.886 -0.0424 -0.2254 -0.6670
  711MOL0     C97982   1.111   4.031   7.828  0.5070  0.5034  0.1563
  711MOL0     O97983   1.055   4.061   7.700  0.1286 -0.6380  0.3655
  711MOL0     C97984   0.993   3.966   7.618 -0.5567 -0.0813 -0.6629
  711MOL0     C97985   1.062   3.852   7.589  0.6677 -0.3178 -0.8767
  711MOL0     C97986   0.998   3.742   7.542 -1.1320 -0.4884  0.3695
  711MOL0     C97987   0.864   3.748   7.512  0.1223  0.5178  0.3139
  711MOL0     O97988   0.787   3.647   7.456  0.0285 -0.3280  0.6098
  711MOL0     C97989   0.803   3.511   7.499 -0.2326 -0.3348  0.9607
  711MOL0     C97990   0.710   3.412   7.429 -0.4616  0.4753  0.2550
  711MOL0     C97991   0.764   3.266   7.460  0.0356 -0.4638  0.9317
  711MOL0     C97992   0.655   3.170   7.447 -0.0602  0.5604  0.7093
  711MOL0     C97993   0.635   3.098   7.312  0.8417  0.6281  0.1464
  711MOL0     C97994   0.534   2.981   7.330 -1.2781  0.6561 -0.0156
  711MOL0     C97995   0.495   2.917   7.197 -0.4014 -0.5489 -0.3020
  711MOL0     C97996   0.440   2.779   7.209 -0.2375  0.7496 -1.0775
  711MOL0     N97997   0.294   2.794   7.251 -0.1818  0.0122  0.0816
  711MOL0     C97998   0.193   2.806   7.163 -0.4269  0.0966 -0.3237
  711MOL0     C97999   0.090   2.845   7.240  1.3718  0.1655  0.4196
  711MOL0     C98000  -0.054   2.857   7.206  1.0510 -0.0199  0.4163
  711MOL0     C98001  -0.079   2.953   7.087  0.3832 -0.4910  0.1262
  711MOL0     C98002  -0.228   3.000   7.074 -0.4344 -0.0948  0.3117
  711MOL0     C98003  -0.235   3.136   6.997 -0.5142 -0.6264  0.3732
  711MOL0     O98004  -0.367   3.201   7.024 -0.3375 -0.3201 -0.2040
  711MOL0     C98005  -0.364   3.280   7.139  0.2782  0.5650  0.4949
  711MOL0     C98006  -0.262   3.288   7.234  0.3901  0.0451 -0.5510
  711MOL0     C98007  -0.264   3.398   7.322  0.3431 -0.7671 -0.2682
  711MOL0     C98008  -0.135   3.411   7.400  0.6062  0.0929  0.1660
  711MOL0     C98009  -0.370   3.484   7.334 -0.0208 -0.2641 -0.8572
  711MOL0     C98010  -0.366   3.590   7.428  1.1867 -0.3216 -0.5971
  711MOL0     O98011  -0.434   3.703   7.399  0.5024 -0.4614 -0.0005
  711MOL0     C98012  -0.468   3.790   7.500  0.0704  1.1227 -0.7955
  711MOL0     C98013  -0.599   3.793   7.550 -0.1916 -0.4670 -0.7336
  711MOL0     C98014  -0.624   3.887   7.655  0.4587  1.4931  0.0173
  711MOL0     C98015  -0.539   3.986   7.694 -0.2671  0.3528 -1.0244
  711MOL0     O98016  -0.583   4.059   7.803 -0.0397 -0.5725  0.3485
  711MOL0     C98017  -0.553   4.203   7.795 -0.3576 -0.6191  0.0419
  711MOL0     C98018  -0.673   4.297   7.817  1.0687  1.0361 -0.3478
  711MOL0     C98019  -0.627   4.441   7.811 -0.3476  0.4900  0.0593
  711MOL0     C98020  -0.622   4.506   7.942 -0.6426  0.1169  0.0219
  711MOL0     C98021  -0.627   4.660   7.928  0.0247 -0.1737  0.6818
  711MOL0     C98022  -0.653   4.723   8.068  0.0804  0.6992  1.1800
  711MOL0     C98023  -0.658   4.864   8.083  0.4742  0.0068 -0.3284
  711MOL0     C98024  -0.687   4.916   8.219  0.8042 -0.1345  0.4596
  711MOL0    Cl98025  -0.552   4.891   8.328 -0.3315 -0.0952 -0.4175
  711MOL0     C98026  -0.416   3.980   7.637 -0.4121  0.3288 -0.6301
  711MOL0     C98027  -0.381   3.884   7.542 -1.2193 -1.0299 -0.2736
  711MOL0     O98028  -0.312   3.574   7.535  0.4255 -1.1176 -0.7400
  711MOL0     C98029  -0.482   3.469   7.247  0.5348 -0.4447 -0.2866
  711MOL0     C98030  -0.477   3.360   7.159 -0.3060  0.0381  0.2011
  711MOL0     N98031   0.120   2.836   7.373 -0.0623 -0.4276  0.0927
  711MOL0     N98032   0.246   2.807   7.378 -0.4061 -1.2450  0.9025
  711MOL0     C98033   0.806   3.869   7.525  1.1989 -0.1340  0.3854
  711MOL0     C98034   0.864   3.984   7.572 -0.4393  1.3355 -0.7954
  711MOL0     C98035   1.170   4.152   7.896 -0.5989 -0.5985 -0.5026
  711MOL0     C98036   1.222   4.137   8.022 -0.2941  1.3282 -0.6531
  711MOL0     C98037   1.282   4.239   8.103 -0.1179 -0.7162  0.5948
  711MOL0     C98038   1.278   4.371   8.057  0.0111 -0.2911  0.2820
  711MOL0     O98039   1.327   4.472   8.123  0.4328 -0.5341  0.8724
  711MOL0     C98040   1.283   4.473   8.259  0.8439 -0.1259  0.8542
  711MOL0     C98041   1.249   4.618   8.285 -0.3847  0.7213  0.2281
  711MOL0     C98042   1.219   4.639   8.428 -0.0219  0.6200  0.0780
  711MOL0     C98043   1.068   4.599   8.455 -0.1135 -0.8464  0.0553
  711MOL0     C98044   0.978   4.715   8.427  0.4374 -0.1141 -0.7806
  711MOL0     C98045   0.931   4.821   8.401 -0.2712 -0.3527  0.2875
  711MOL0     C98046   1.232   4.390   7.925 -0.0556 -0.0960  0.7847
  711MOL0     C98047   1.184   4.286   7.841 -0.5447  0.6228  1.0921
  711MOL0     C98048   1.144   4.326   7.705 -0.3494 -0.4570  0.0948
  711MOL0     H98049   1.163   3.825   7.617  0.1705 -1.4616 -0.0754
  711MOL0     H98050   1.062   3.656   7.525  0.0256  0.4639 -0.2538
  711MOL0     H98051   0.788   3.509   7.608  3.9634  0.3459  1.7297
  711MOL0     H98052   0.906   3.488   7.470  1.3182  4.5830  1.4951
  711MOL0     H98053   0.616   3.440   7.479  0.9214  2.7222  1.7701
  711MOL0     H98054   0.697   3.432   7.322 -1.0069 -3.0243 -0.4728
  711MOL0     H98055   0.851   3.229   7.404 -2.1895  0.6247 -3.8196
  711MOL0     H98056   0.774   3.266   7.569 -3.5425 -0.7733  1.3745
  711MOL0     H98057   0.687   3.091   7.517  0.0346  0.5957  0.7061
  711MOL0     H98058   0.565   3.219   7.484 -0.5785  3.4299 -3.6853
  711MOL0     H98059   0.725   3.059   7.263  0.2367  1.5226 -1.7452
  711MOL0     H98060   0.599   3.178   7.247  1.1634 -0.2548 -1.1565
  711MOL0     H98061   0.586   2.906   7.390  0.5182  2.8095  1.3010
  711MOL0     H98062   0.447   3.021   7.382 -1.1715  0.2074  0.5168
  711MOL0     H98063   0.584   2.894   7.139 -0.6484 -1.2202 -0.4191
  711MOL0     H98064   0.426   2.984   7.145  0.8612  0.0119 -1.2969
  711MOL0     H98065   0.451   2.731   7.111 -1.4688  1.4658 -1.5986
  711MOL0     H98066   0.490   2.723   7.288 -2.4898  1.4392  0.9519
  711MOL0     H98067   0.196   2.795   7.055  2.6744  2.4515 -0.5899
  711MOL0     H98068  -0.095   2.906   7.296  0.1540 -0.1473  0.0893
  711MOL0     H98069  -0.100   2.759   7.191  2.0514 -0.1274 -2.5723
  711MOL0     H98070  -0.021   3.044   7.101  2.3001 -1.4311 -1.2429
  711MOL0     H98071  -0.058   2.908   6.989 -1.5022 -1.5250  0.1400
  711MOL0     H98072  -0.280   2.921   7.019  2.3450 -1.2685 -0.7777
  711MOL0     H98073  -0.273   3.015   7.173  1.9837 -0.0105  1.4633
  711MOL0     H98074  -0.151   3.198   7.029  0.2655 -0.5890 -1.6217
  711MOL0     H98075  -0.219   3.134   6.889 -1.3026  2.9262  0.0625
  711MOL0     H98076  -0.174   3.225   7.222  1.1999  0.9771  0.3301
  711MOL0     H98077  -0.101   3.515   7.393  0.4083  0.0903 -0.9072
  711MOL0     H98078  -0.058   3.340   7.371 -1.4153 -1.8995 -0.6652
  711MOL0     H98079  -0.165   3.396   7.505 -0.0230 -0.9374 -0.1522
  711MOL0     H98080  -0.679   3.723   7.530 -0.1531 -0.7115 -0.0312
  711MOL0     H98081  -0.717   3.884   7.711  0.1702 -1.4965 -0.4390
  711MOL0     H98082  -0.473   4.233   7.863 -0.4443  5.8637 -2.0425
  711MOL0     H98083  -0.510   4.231   7.698  2.0628  0.4408  1.3500
  711MOL0     H98084  -0.736   4.285   7.729  3.0084  0.3821 -1.7117
  711MOL0     H98085  -0.728   4.274   7.909  0.3728 -0.0844 -1.0200
  711MOL0     H98086  -0.702   4.490   7.748 -1.8777 -0.6908  0.9014
  711MOL0     H98087  -0.527   4.439   7.766 -2.1533 -3.7073 -4.6153
  711MOL0     H98088  -0.549   4.456   8.006 -0.1203  0.8232  0.0008
  711MOL0     H98089  -0.718   4.486   7.992 -1.3178  3.7702  0.5417
  711MOL0     H98090  -0.534   4.693   7.883  0.3060 -2.6562 -0.7388
  711MOL0     H98091  -0.717   4.689   7.873  0.3518 -0.9020 -0.2589
  711MOL0     H98092  -0.578   4.681   8.135 -0.8396 -2.5136  0.3969
  711MOL0     H98093  -0.754   4.690   8.095 -1.1070  2.3609 -0.9156
  711MOL0     H98094  -0.736   4.907   8.019 -1.3819 -1.3824  0.9002
  711MOL0     H98095  -0.562   4.899   8.044 -1.1286  0.6985 -4.1842
  711MOL0     H98096  -0.778   4.877   8.265 -0.0528  1.9834  0.6820
  711MOL0     H98097  -0.692   5.025   8.208 -1.7245 -0.4854 -3.5663
  711MOL0     H98098  -0.347   4.061   7.653 -0.3850 -0.0774  1.5913
  711MOL0     H98099  -0.287   3.913   7.496 -0.2543  1.7944  3.0125
  711MOL0     H98100  -0.573   3.527   7.253 -0.4174 -1.6922 -1.8737
  711MOL0     H98101  -0.567   3.343   7.100  0.2404 -1.9693 -0.1177
  711MOL0     H98102   0.711   3.881   7.473  0.7893 -0.2272  1.1009
  711MOL0     H98103   0.802   4.073   7.576 -0.2914  1.4037  0.2634
  711MOL0     H98104   1.214   4.041   8.074 -0.6855  0.9402 -1.4107
  711MOL0     H98105   1.315   4.202   8.200  1.9704  2.0257  1.0610
  711MOL0     H98106   1.193   4.412   8.272  0.6808  0.1596  1.0699
  711MOL0     H98107   1.358   4.434   8.329 -0.2173  1.0267  2.7116
  711MOL0     H98108   1.162   4.648   8.226 -0.2815 -1.8704 -1.4059
  711MOL0     H98109   1.340   4.675   8.264  0.9105 -2.4695 -4.8040
  711MOL0     H98110   1.286   4.572   8.483 -0.1011  1.8081  1.6760
  711MOL0     H98111   1.235   4.739   8.469  0.7003  0.8888 -0.8165
  711MOL0     H98112   1.058   4.569   8.560 -1.2740 -0.5416  0.0446
  711MOL0     H98113   1.040   4.508   8.401 -0.2266 -0.6848 -0.1580
  711MOL0     H98114   0.869   4.908   8.410 -2.1673 -1.5353 -0.7199
  711MOL0     H98115   1.230   4.490   7.883  2.5512 -0.1393  0.3851
  711MOL0     H98116   1.181   4.255   7.631 -3.8495 -0.0949 -2.2261
  711MOL0     H98117   1.035   4.323   7.696 -0.3114  0.7715 -1.1271
  711MOL0     H98118   1.171   4.426   7.671  1.8019 -1.1999 -0.5067
  712MOL0     O98119   3.093  10.732   9.236 -0.6530 -0.6137  0.0492
  712MOL0     C98120   3.111  10.789   9.341 -0.1633 -0.2304  0.5165
  712MOL0     O98121   3.028  10.792   9.445 -0.1839  0.2061  0.0080
  712MOL0     C98122   2.907  10.734   9.436 -0.1254  0.3554  0.1144
  712MOL0     C98123   2.792  10.824   9.435 -0.5449  1.0391 -0.1900
  712MOL0     C98124   2.666  10.762   9.436 -0.3651  0.2466  0.5214
  712MOL0     C98125   2.652  10.626   9.429 -1.0494  0.2567 -0.1870
  712MOL0     O98126   2.525  10.583   9.433  0.0185  0.5546  0.2054
  712MOL0     C98127   2.484  10.445   9.425 -0.2945 -0.1577 -0.4915
  712MOL0     C98128   2.354  10.414   9.382 -0.1250  0.5019  0.7723
  712MOL0     C98129   2.313  10.271   9.407  0.0845 -0.3169  0.1533
  712MOL0     C98130   2.168  10.233   9.353 -0.1161  0.1811 -0.2933
  712MOL0     C98131   2.154  10.081   9.327 -0.8991 -1.0808 -0.0544
  712MOL0     C98132   2.005  10.045   9.297 -0.4538  0.2281 -0.5591
  712MOL0     C98133   1.957  10.076   9.162  0.9368  0.3056 -0.1479
  712MOL0     C98134   1.801  10.070   9.174 -0.1154  0.2950  0.8612
  712MOL0     N98135   1.748   9.937   9.182 -0.0020 -0.2284 -0.8024
  712MOL0     C98136   1.681   9.892   9.297  0.0484 -0.3058  0.3470
  712MOL0     C98137   1.693   9.756   9.293  0.2242  0.2321 -0.0953
  712MOL0     C98138   1.611   9.655   9.367  0.4489 -0.1752 -1.5155
  712MOL0     C98139   1.694   9.569   9.463  0.2544  0.3275  0.4219
  712MOL0     C98140   1.777   9.461   9.385 -0.3943  0.3631  0.5672
  712MOL0     C98141   1.874   9.372   9.469  0.3328 -0.1054 -0.3689
  712MOL0     O98142   1.793   9.292   9.550 -0.6762  0.2904 -0.3768
  712MOL0     C98143   1.871   9.211   9.635 -0.2724 -0.2510 -0.6207
  712MOL0     C98144   1.969   9.107   9.600 -0.0826  0.1662  0.2965
  712MOL0     C98145   2.044   9.032   9.684  0.1344 -0.6414 -0.2540
  712MOL0     C98146   2.147   8.942   9.611 -0.2315  0.9137 -0.4599
  712MOL0     C98147   2.021   9.044   9.827 -0.4827 -0.3376  0.0973
  712MOL0     C98148   2.100   8.964   9.920  0.8442 -0.8446 -0.5936
  712MOL0     O98149   2.131   9.021  10.035  0.0244  0.5026 -0.4769
  712MOL0     C98150   2.161   8.938  10.145 -1.2142 -1.0360  0.4733
  712MOL0     C98151   2.064   8.872  10.224 -0.5146  0.3865 -1.1728
  712MOL0     C98152   2.105   8.777  10.322 -0.0039  0.6484  0.4053
  712MOL0     C98153   2.239   8.739  10.326  0.1824 -0.6997 -1.4648
  712MOL0     O98154   2.279   8.643  10.417  0.2798  0.1743  0.3607
  712MOL0     C98155   2.196   8.529  10.439 -0.1452 -0.3165 -0.1475
  712MOL0     C98156   2.264   8.401  10.491  0.0650  0.7746  0.8010
  712MOL0     C98157   2.277   8.394  10.642  0.2314  0.3234  0.3736
  712MOL0     C98158   2.401   8.471  10.694 -0.9784 -0.4234 -0.4138
  712MOL0     C98159   2.436   8.466  10.838  0.0099 -0.0791 -0.4880
  712MOL0     C98160   2.314   8.496  10.930  0.5948  0.0628 -0.4094
  712MOL0     C98161   2.342   8.509  11.080  0.5067 -0.6493 -0.4472
  712MOL0     C98162   2.213   8.482  11.166 -0.1800 -0.9980  0.4363
  712MOL0    Cl98163   2.261   8.463  11.337  0.1758 -0.2039 -0.3541
  712MOL0     C98164   2.337   8.813  10.258  0.5308  0.2633 -0.3093
  712MOL0     C98165   2.294   8.913  10.166 -0.3027  0.0329 -0.9312
  712MOL0     O98166   2.118   8.847   9.889 -0.3042  0.2926 -0.0684
  712MOL0     C98167   1.923   9.129   9.864  0.3076  0.8241  0.5591
  712MOL0     C98168   1.854   9.209   9.774  0.2865  0.0148  1.1528
  712MOL0     N98169   1.788   9.725   9.192  0.1951  0.2187 -0.1222
  712MOL0     N98170   1.818   9.837   9.127  0.3195 -0.6516 -0.7912
  712MOL0     C98171   2.767  10.538   9.421  0.9072 -0.1590 -0.1849
  712MOL0     C98172   2.888  10.597   9.431 -0.4498 -0.4798 -0.3032
  712MOL0     C98173   3.236  10.863   9.364 -0.4458 -0.7050 -0.0144
  712MOL0     C98174   3.244  10.985   9.441 -0.0799  0.4026 -0.0655
  712MOL0     C98175   3.369  11.053   9.453 -0.0760 -0.2963 -0.2022
  712MOL0     C98176   3.484  11.003   9.399 -0.8290  0.4153  0.6319
  712MOL0     O98177   3.611  11.054   9.428 -0.5259 -0.4798  0.9599
  712MOL0     C98178   3.681  11.104   9.311 -0.4064 -0.2710  0.4060
  712MOL0     C98179   3.832  11.107   9.347 -0.6605 -0.6792  0.7700
  712MOL0     C98180   3.890  10.978   9.403  0.4286  0.3812 -0.2598
  712MOL0     C98181   3.917  10.865   9.294 -0.0873 -0.1847 -0.2245
  712MOL0     C98182   3.998  10.758   9.358  0.0182 -0.2573 -0.1983
  712MOL0     C98183   4.051  10.659   9.412 -0.1574 -0.2025  0.6173
  712MOL0     C98184   3.474  10.872   9.335 -0.8067 -0.0299 -1.4397
  712MOL0     C98185   3.353  10.806   9.313  0.1092  0.2296 -0.2134
  712MOL0     C98186   3.369  10.674   9.231  0.1029 -0.1560  0.5019
  712MOL0     H98187   2.808  10.931   9.444 -1.1421  0.9617  2.4284
  712MOL0     H98188   2.578  10.824   9.445  0.5006  1.7750 -0.9199
  712MOL0     H98189   2.510  10.396   9.519  3.3459 -1.8799 -2.1703
  712MOL0     H98190   2.552  10.402   9.350 -1.1782 -1.0962 -0.7720
  712MOL0     H98191   2.288  10.478   9.441  1.7492  2.4697  0.8264
  712MOL0     H98192   2.354  10.445   9.277  0.4731 -1.9396 -0.0219
  712MOL0     H98193   2.387  10.210   9.355  0.3173 -0.0635  0.1890
  712MOL0     H98194   2.311  10.234   9.510 -1.5541 -1.9486 -0.4148
  712MOL0     H98195   2.107  10.273   9.434 -0.2096  1.0717 -0.7937
  712MOL0     H98196   2.135  10.291   9.266  0.3953  2.8838  1.2076
  712MOL0     H98197   2.186  10.031   9.419 -1.9940  2.0154  2.1649
  712MOL0     H98198   2.223  10.050   9.248  0.1956 -0.7497  0.7382
  712MOL0     H98199   1.987   9.938   9.313  1.0379  0.2006  1.1979
  712MOL0     H98200   1.933  10.095   9.361 -2.4877  0.6665 -3.0116
  712MOL0     H98201   1.998  10.019   9.078  1.7596 -0.9704  1.0714
  712MOL0     H98202   1.988  10.179   9.142  0.3215  0.1320 -2.1349
  712MOL0     H98203   1.765  10.134   9.254 -0.7944 -1.1583  1.7621
  712MOL0     H98204   1.763  10.112   9.080 -1.1124 -0.1414  1.0551
  712MOL0     H98205   1.627   9.949   9.373  1.3110  0.5504  0.6333
  712MOL0     H98206   1.554   9.600   9.292  0.5521 -2.6151  0.0973
  712MOL0     H98207   1.535   9.710   9.423  0.7861 -0.2330 -0.9952
  712MOL0     H98208   1.762   9.631   9.523  0.0961 -0.0160  0.9609
  712MOL0     H98209   1.634   9.525   9.543  0.4904  1.2581  1.1410
  712MOL0     H98210   1.707   9.390   9.340  0.9276 -0.7984  0.3046
  712MOL0     H98211   1.836   9.516   9.311  0.0211 -1.3359 -0.3931
  712MOL0     H98212   1.929   9.313   9.397  3.3594  2.0813 -0.0442
  712MOL0     H98213   1.947   9.432   9.525 -0.6560  0.6839  0.1217
  712MOL0     H98214   1.992   9.097   9.495 -1.0904 -2.8837  0.2450
  712MOL0     H98215   2.170   8.972   9.509  0.0110 -2.2409 -1.4363
  712MOL0     H98216   2.101   8.843   9.604  2.4237 -1.1118  4.9733
  712MOL0     H98217   2.247   8.926   9.653 -0.9754 -3.0239  0.1841
  712MOL0     H98218   1.957   8.886  10.213 -0.3979  0.5830 -2.2398
  712MOL0     H98219   2.029   8.726  10.380 -0.1752 -0.0633 -0.4053
  712MOL0     H98220   2.124   8.559  10.516 -0.9835 -1.3722 -0.5078
  712MOL0     H98221   2.158   8.502  10.340 -0.4408  3.0087 -1.0708
  712MOL0     H98222   2.187   8.326  10.469 -0.7822  0.4837  4.1419
  712MOL0     H98223   2.359   8.381  10.442 -0.9914  0.5657 -1.2687
  712MOL0     H98224   2.299   8.290  10.668  1.3058  0.6835  0.9583
  712MOL0     H98225   2.183   8.429  10.687  0.3946 -0.7262  1.5677
  712MOL0     H98226   2.407   8.576  10.662  1.1206 -0.2778  0.3067
  712MOL0     H98227   2.484   8.424  10.640  0.2394  0.4841  0.6180
  712MOL0     H98228   2.480   8.369  10.861  1.9266  0.8311 -0.1851
  712MOL0     H98229   2.512   8.539  10.867  1.6079 -1.0653 -2.0236
  712MOL0     H98230   2.242   8.416  10.910  1.8227 -0.6978 -1.9965
  712MOL0     H98231   2.265   8.589  10.899 -1.8272 -0.0243  2.6492
  712MOL0     H98232   2.390   8.606  11.094  0.9702 -0.9472  0.0840
  712MOL0     H98233   2.413   8.432  11.112 -0.7948 -1.8611 -0.3700
  712MOL0     H98234   2.165   8.398  11.114 -1.8836 -0.1897  0.6179
  712MOL0     H98235   2.144   8.567  11.160  0.5091 -0.4661 -0.1149
  712MOL0     H98236   2.445   8.802  10.259  0.5012 -0.0521  0.2810
  712MOL0     H98237   2.372   8.976  10.125 -1.0755  1.7429  0.1096
  712MOL0     H98238   1.898   9.130   9.970  1.7602 -0.8693  0.9568
  712MOL0     H98239   1.767   9.258   9.817 -1.2952 -4.4296  3.6951
  712MOL0     H98240   2.747  10.433   9.405  0.6175 -0.2171  0.5258
  712MOL0     H98241   2.983  10.549   9.451 -0.4201  0.2649  1.6246
  712MOL0     H98242   3.155  11.033   9.481 -1.4527 -0.9628 -1.3516
  712MOL0     H98243   3.371  11.144   9.512 -1.9140  0.0491 -0.6280
  712MOL0     H98244   3.671  11.036   9.226 -0.9671 -1.8575  1.6941
  712MOL0     H98245   3.645  11.203   9.279  0.9671  1.2460  3.1935
  712MOL0     H98246   3.841  11.178   9.430 -0.1893 -1.6972  1.6260
  712MOL0     H98247   3.894  11.153   9.269 -0.4463 -0.6369  0.9636
  712MOL0     H98248   3.986  10.994   9.452  1.6453  0.1064 -2.4232
  712MOL0     H98249   3.824  10.934   9.479  0.4963 -0.8900 -0.9167
  712MOL0     H98250   3.974  10.915   9.216  0.2163 -1.3909 -0.7945
  712MOL0     H98251   3.825  10.822   9.254  1.6354 -1.8947 -2.5926
  712MOL0     H98252   4.087  10.563   9.443  1.1437 -0.9153 -2.6251
  712MOL0     H98253   3.564  10.827   9.295  0.9561 -0.4152  2.5072
  712MOL0     H98254   3.473  10.640   9.234  0.3378  0.6051  1.6401
  712MOL0     H98255   3.303  10.603   9.282  0.1389  0.0925  0.9038
  712MOL0     H98256   3.357  10.698   9.125  2.8967 -0.8286 -0.0533
  713MOL0     O98257   7.219   5.007   9.005  0.6724  1.0232  0.6602
  713MOL0     C98258   7.344   5.033   9.017  0.2481  0.2785  0.3003
  713MOL0     O98259   7.408   5.142   8.978  0.3584  1.0976 -0.1928
  713MOL0     C98260   7.322   5.245   8.952 -0.2377 -0.2571 -0.4015
  713MOL0     C98261   7.284   5.334   9.053 -0.0888 -0.1394  0.7125
  713MOL0     C98262   7.213   5.454   9.027 -0.1416  0.3792 -0.4826
  713MOL0     C98263   7.168   5.468   8.897  0.6567 -0.5868 -0.5676
  713MOL0     O98264   7.088   5.573   8.884  0.0453 -0.3617 -0.2877
  713MOL0     C98265   7.044   5.629   8.750 -0.7595 -0.2363 -0.9989
  713MOL0     C98266   6.928   5.549   8.697 -0.2447 -0.0148 -0.7165
  713MOL0     C98267   6.795   5.584   8.761 -0.2674  0.0606  0.3375
  713MOL0     C98268   6.693   5.471   8.742 -0.0214 -0.2907  0.0324
  713MOL0     C98269   6.556   5.514   8.779 -0.1315  0.4331 -1.2516
  713MOL0     C98270   6.504   5.618   8.698 -0.0012  0.2525 -0.1138
  713MOL0     C98271   6.341   5.643   8.729  0.0501  0.4134 -0.8437
  713MOL0     C98272   6.288   5.748   8.646  0.2530  0.2564  0.3868
  713MOL0     N98273   6.289   5.733   8.501 -0.2095  0.8743 -0.0017
  713MOL0     C98274   6.397   5.767   8.426 -0.3293 -0.2722  0.9842
  713MOL0     C98275   6.368   5.726   8.299 -0.4297  0.6475 -0.1632
  713MOL0     C98276   6.457   5.764   8.190 -0.7756  0.5552 -0.6280
  713MOL0     C98277   6.453   5.908   8.139  0.1485 -0.1777  0.0100
  713MOL0     C98278   6.306   5.937   8.104 -0.5817 -1.4514  0.4404
  713MOL0     C98279   6.277   6.087   8.080 -0.4706  0.0524 -0.2711
  713MOL0     O98280   6.391   6.156   8.027  0.3819 -0.1313  0.8072
  713MOL0     C98281   6.385   6.292   8.025 -0.4182  0.3225  0.7439
  713MOL0     C98282   6.489   6.342   8.099 -0.3819  0.9068  0.2926
  713MOL0     C98283   6.512   6.479   8.083 -0.8898 -0.6760 -0.2548
  713MOL0     C98284   6.635   6.536   8.156  0.3905  0.0091 -0.6535
  713MOL0     C98285   6.436   6.560   7.999 -0.5671  0.1788 -0.6072
  713MOL0     C98286   6.452   6.703   7.973 -0.8321  0.6083  0.0830
  713MOL0     O98287   6.368   6.754   7.882 -0.2298  0.5007  0.1095
  713MOL0     C98288   6.357   6.892   7.864  0.3493  0.1107 -0.7166
  713MOL0     C98289   6.231   6.957   7.892 -0.8493  0.2118  0.3475
  713MOL0     C98290   6.223   7.084   7.833 -0.4085  0.9684 -0.4937
  713MOL0     C98291   6.327   7.151   7.776  0.3437 -1.8415  1.4427
  713MOL0     O98292   6.284   7.275   7.724 -0.1794 -0.6532 -0.6156
  713MOL0     C98293   6.384   7.379   7.704 -0.1843 -0.9341 -0.4595
  713MOL0     C98294   6.328   7.517   7.737  0.6588 -0.0680 -0.2894
  713MOL0     C98295   6.236   7.563   7.625 -0.0968 -0.1352  0.0855
  713MOL0     C98296   6.212   7.718   7.637 -1.0201  0.7326  0.2581
  713MOL0     C98297   6.080   7.757   7.587  0.6021 -0.1478 -1.0806
  713MOL0     C98298   5.951   7.697   7.647 -0.3404 -0.7537 -0.5278
  713MOL0     C98299   5.819   7.706   7.557 -0.4839  0.5583 -0.6231
  713MOL0     C98300   5.701   7.762   7.643 -0.2021  0.0504  0.5541
  713MOL0    Cl98301   5.694   7.948   7.640 -0.0619 -0.1522  0.3830
  713MOL0     C98302   6.452   7.086   7.759  0.4590 -0.0876  0.3945
  713MOL0     C98303   6.463   6.956   7.798 -0.5143 -0.3547  0.0662
  713MOL0     O98304   6.542   6.765   8.028  0.1396 -0.8150  0.2324
  713MOL0     C98305   6.339   6.487   7.921  0.8231 -0.3038 -0.3008
  713MOL0     C98306   6.304   6.360   7.947  0.0446 -0.1628 -0.1760
  713MOL0     N98307   6.250   5.652   8.306 -0.3542 -0.0493  0.0825
  713MOL0     N98308   6.206   5.657   8.425 -0.0302  0.4736  0.9691
  713MOL0     C98309   7.210   5.387   8.794  0.8754  0.1535  0.3372
  713MOL0     C98310   7.278   5.270   8.819  0.2672  0.7902 -0.1434
  713MOL0     C98311   7.417   4.911   9.077  0.2133 -0.0930  0.1187
  713MOL0     C98312   7.389   4.784   9.020 -0.6169  0.9223  0.7083
  713MOL0     C98313   7.456   4.664   9.068  1.0594 -0.0402  0.2971
  713MOL0     C98314   7.552   4.671   9.169 -0.7177 -0.8568  0.2532
  713MOL0     O98315   7.614   4.551   9.201  0.0759  0.3849 -0.6328
  713MOL0     C98316   7.643   4.531   9.346 -0.4263 -0.4285  1.2621
  713MOL0     C98317   7.509   4.490   9.410  0.8300  0.0197 -0.1617
  713MOL0     C98318   7.544   4.497   9.556 -0.4972  0.3806 -0.8442
  713MOL0     C98319   7.423   4.452   9.639 -0.5797  0.2390  0.9375
  713MOL0     C98320   7.421   4.313   9.648  0.9597  0.7804 -1.2917
  713MOL0     C98321   7.423   4.189   9.666  0.7077  0.4085  0.5840
  713MOL0     C98322   7.592   4.799   9.221  0.3771  0.0802  0.1209
  713MOL0     C98323   7.527   4.920   9.174  0.8629 -0.4356  0.0699
  713MOL0     C98324   7.575   5.051   9.233 -0.9499  0.7652  0.1250
  713MOL0     H98325   7.327   5.327   9.152  1.2708 -0.1126  0.1389
  713MOL0     H98326   7.195   5.528   9.105 -1.6465  1.2617 -1.6062
  713MOL0     H98327   7.126   5.623   8.677 -1.1963 -0.8130 -1.4552
  713MOL0     H98328   7.025   5.735   8.766 -0.1118 -0.4639  1.7708
  713MOL0     H98329   6.933   5.581   8.592 -1.3934  0.9650 -0.4928
  713MOL0     H98330   6.938   5.440   8.708 -1.9512 -0.1729 -0.3751
  713MOL0     H98331   6.804   5.604   8.869  2.4708 -0.0722  0.1990
  713MOL0     H98332   6.765   5.676   8.710  2.4096 -0.5854 -2.7373
  713MOL0     H98333   6.709   5.430   8.642 -3.8905 -1.8978 -0.0735
  713MOL0     H98334   6.726   5.382   8.795 -1.4391 -1.3573 -0.8095
  713MOL0     H98335   6.544   5.536   8.886 -1.4247 -1.7168 -0.9033
  713MOL0     H98336   6.495   5.425   8.765 -0.8320  0.7760 -0.4808
  713MOL0     H98337   6.555   5.714   8.707 -1.1500  0.6877  3.1146
  713MOL0     H98338   6.506   5.586   8.593  2.0877  1.3296 -0.4664
  713MOL0     H98339   6.321   5.662   8.835 -0.6832 -2.5502 -0.3640
  713MOL0     H98340   6.287   5.551   8.705 -0.5941  0.1923  1.2368
  713MOL0     H98341   6.186   5.758   8.683  0.5663  0.1422  1.3091
  713MOL0     H98342   6.340   5.841   8.672 -0.1654  0.9118 -1.0238
  713MOL0     H98343   6.483   5.824   8.459  0.3780  0.1478 -1.3460
  713MOL0     H98344   6.438   5.690   8.111  0.0470 -0.7041  0.3163
  713MOL0     H98345   6.558   5.731   8.216 -1.1872 -0.0378  0.2387
  713MOL0     H98346   6.484   5.974   8.221 -4.7723 -1.1964  3.1321
  713MOL0     H98347   6.512   5.924   8.049 -1.5543 -0.5598 -1.2174
  713MOL0     H98348   6.278   5.881   8.014  0.3740  0.4614 -1.1211
  713MOL0     H98349   6.236   5.907   8.183 -0.0322  0.7226  1.8090
  713MOL0     H98350   6.189   6.094   8.015  0.9730 -2.8126 -2.8056
  713MOL0     H98351   6.251   6.130   8.177  2.0543 -2.7476  1.8653
  713MOL0     H98352   6.548   6.274   8.160 -0.3447  1.5585  0.9907
  713MOL0     H98353   6.596   6.617   8.219  0.0001  0.9562 -2.0583
  713MOL0     H98354   6.718   6.555   8.087  0.2532  0.4546 -0.7015
  713MOL0     H98355   6.659   6.464   8.234 -1.0450 -1.3235 -1.3758
  713MOL0     H98356   6.163   6.889   7.943 -1.1384 -0.6317 -1.1071
  713MOL0     H98357   6.129   7.136   7.818 -1.1424 -0.5308 -1.3460
  713MOL0     H98358   6.472   7.375   7.768  0.1249  3.2116 -0.3397
  713MOL0     H98359   6.422   7.373   7.602  1.7338  0.9879  0.0757
  713MOL0     H98360   6.276   7.525   7.832  2.4964  3.5755  0.6106
  713MOL0     H98361   6.418   7.576   7.760 -0.1685  2.4702 -2.9309
  713MOL0     H98362   6.152   7.493   7.630  1.1164 -1.8425 -1.9339
  713MOL0     H98363   6.277   7.535   7.528 -1.7357  3.0061 -1.6911
  713MOL0     H98364   6.287   7.773   7.579  2.0090 -1.3811  1.9133
  713MOL0     H98365   6.236   7.744   7.740  0.0180 -0.1416  0.2480
  713MOL0     H98366   6.076   7.867   7.590  1.7346 -0.1056  0.2726
  713MOL0     H98367   6.077   7.730   7.481 -1.1940  1.1191 -1.4058
  713MOL0     H98368   5.932   7.747   7.743  0.8785  0.0856 -0.7051
  713MOL0     H98369   5.947   7.590   7.669 -1.9250 -0.6037  0.0176
  713MOL0     H98370   5.782   7.606   7.532  0.8988  0.1728 -1.2051
  713MOL0     H98371   5.828   7.766   7.466 -0.6953  0.7406 -0.5244
  713MOL0     H98372   5.696   7.716   7.742 -1.0265 -0.6136  0.2191
  713MOL0     H98373   5.613   7.735   7.584 -0.0582 -0.4683  0.5744
  713MOL0     H98374   6.546   7.127   7.723  2.1644 -1.8241  2.5663
  713MOL0     H98375   6.560   6.909   7.790 -0.9927 -1.5067  0.7809
  713MOL0     H98376   6.283   6.540   7.845  0.2355  0.4416  0.6399
  713MOL0     H98377   6.233   6.319   7.876 -0.3871 -1.6272  1.0378
  713MOL0     H98378   7.175   5.395   8.691 -0.6672  1.7948  0.9338
  713MOL0     H98379   7.303   5.205   8.736  0.9427  0.3914  0.3606
  713MOL0     H98380   7.315   4.778   8.942 -0.0327  1.3301  0.1128
  713MOL0     H98381   7.435   4.569   9.022 -0.5164 -0.6051  2.0529
  713MOL0     H98382   7.715   4.448   9.352 -1.5060 -1.5036 -0.0882
  713MOL0     H98383   7.681   4.623   9.392 -0.0390  0.1929 -0.2517
  713MOL0     H98384   7.462   4.394   9.385  1.7149 -0.5879  0.4343
  713MOL0     H98385   7.430   4.565   9.399 -1.4005 -1.3614  4.0083
  713MOL0     H98386   7.628   4.430   9.576 -0.7602  0.7665  1.9720
  713MOL0     H98387   7.584   4.588   9.602  2.8259 -1.9751  1.4134
  713MOL0     H98388   7.326   4.491   9.605 -0.8949 -1.6387 -0.4554
  713MOL0     H98389   7.438   4.489   9.741  1.7063  0.9924  0.3774
  713MOL0     H98390   7.429   4.082   9.665 -0.1899  0.3414  1.0247
  713MOL0     H98391   7.668   4.813   9.297  0.7823 -0.0604 -0.2548
  713MOL0     H98392   7.510   5.132   9.200  0.5601  2.5440  1.2879
  713MOL0     H98393   7.566   5.043   9.342  1.1084 -3.2666  0.1966
  713MOL0     H98394   7.677   5.089   9.219 -0.8469  0.8979  1.1383
  714MOL0     O98395   3.191   4.118   2.828  0.1234  0.4077 -0.3775
  714MOL0     C98396   3.089   4.188   2.856  0.5200  0.4602 -0.1779
  714MOL0     O98397   3.068   4.312   2.814 -0.3262  0.5586 -0.3519
  714MOL0     C98398   3.173   4.383   2.758 -0.3448 -0.1245  0.6138
  714MOL0     C98399   3.305   4.399   2.808  0.2066  0.0269 -0.2539
  714MOL0     C98400   3.408   4.460   2.744 -0.5917  0.7893  0.1314
  714MOL0     C98401   3.389   4.523   2.615 -0.3273 -0.3839 -0.2146
  714MOL0     O98402   3.481   4.578   2.530  0.4018 -0.2902  0.2193
  714MOL0     C98403   3.611   4.535   2.535 -0.3873  0.5703 -0.3104
  714MOL0     C98404   3.692   4.588   2.416 -0.3344 -0.4852  0.6889
  714MOL0     C98405   3.708   4.742   2.430 -0.3498  0.4680 -0.4377
  714MOL0     C98406   3.785   4.794   2.307  0.3709  0.9737 -0.3185
  714MOL0     C98407   3.822   4.947   2.314  0.1152 -0.2975 -0.5677
  714MOL0     C98408   3.894   4.994   2.194 -1.2326  0.8407  0.2830
  714MOL0     C98409   3.836   5.130   2.140  0.1955  0.1367  0.2454
  714MOL0     C98410   3.875   5.163   2.002 -0.0605 -0.1188  0.0903
  714MOL0     N98411   4.023   5.165   1.978  0.3892 -0.3578 -0.4791
  714MOL0     C98412   4.099   5.067   1.917  0.1149 -0.4577  0.4866
  714MOL0     C98413   4.221   5.122   1.926 -0.3185 -0.5876  0.1388
  714MOL0     C98414   4.341   5.049   1.871 -0.1620 -0.0985 -0.2036
  714MOL0     C98415   4.431   4.961   1.961 -0.7870  0.2728 -1.0736
  714MOL0     C98416   4.578   4.933   1.901  0.4020  0.7559 -0.0563
  714MOL0     C98417   4.656   4.824   1.971  0.5125 -0.2104  0.0854
  714MOL0     O98418   4.789   4.823   1.906 -0.9296  0.7167  0.3235
  714MOL0     C98419   4.859   4.708   1.924 -0.1289  0.0538 -0.0389
  714MOL0     C98420   4.841   4.620   2.024 -0.6863  0.0913 -0.5786
  714MOL0     C98421   4.916   4.502   2.031 -0.6276  0.9439 -0.8819
  714MOL0     C98422   4.898   4.403   2.149  0.5505 -0.0508 -1.4158
  714MOL0     C98423   5.031   4.484   1.954  0.6882  0.7382  0.4912
  714MOL0     C98424   5.128   4.385   1.988  0.5634 -0.1912  0.3186
  714MOL0     O98425   5.242   4.415   1.920 -0.5163 -0.9323 -0.4015
  714MOL0     C98426   5.340   4.322   1.919 -1.0003 -0.3612  1.2921
  714MOL0     C98427   5.328   4.219   1.826  0.3030  0.8549 -0.2895
  714MOL0     C98428   5.417   4.112   1.831 -0.1707 -0.5039  0.7176
  714MOL0     C98429   5.517   4.102   1.933  0.9304  0.4806  0.3916
  714MOL0     O98430   5.601   3.999   1.926  0.1123  0.1388  0.2670
  714MOL0     C98431   5.742   4.024   1.923 -0.8540 -0.3263  0.1946
  714MOL0     C98432   5.801   3.905   2.004 -0.7046  0.5175 -0.2585
  714MOL0     C98433   5.828   3.777   1.929  0.7692 -0.3662 -0.2469
  714MOL0     C98434   5.694   3.703   1.900  0.5243 -0.5986  0.1552
  714MOL0     C98435   5.720   3.581   1.812 -0.0287 -0.5009  0.0870
  714MOL0     C98436   5.590   3.512   1.764 -0.1316 -0.2065  0.1120
  714MOL0     C98437   5.607   3.395   1.668  0.4762  0.3116  0.2173
  714MOL0     C98438   5.466   3.341   1.631  0.1718  0.2363  0.0858
  714MOL0    Cl98439   5.391   3.280   1.793 -0.1341  0.2197 -0.1341
  714MOL0     C98440   5.540   4.211   2.009 -0.5059 -0.1411 -0.8226
  714MOL0     C98441   5.453   4.319   2.005  0.9719  0.0575 -0.5679
  714MOL0     O98442   5.099   4.277   2.029  0.1481  0.4197 -0.3775
  714MOL0     C98443   5.029   4.567   1.840  0.3685 -0.3491 -0.2714
  714MOL0     C98444   4.945   4.675   1.820 -0.7661 -0.3037 -0.6790
  714MOL0     N98445   4.220   5.243   1.988  1.0979  0.7677  0.4123
  714MOL0     N98446   4.100   5.270   2.023  0.6881 -0.2090  0.3146
  714MOL0     C98447   3.263   4.525   2.570 -0.1982  1.4115  1.0953
  714MOL0     C98448   3.160   4.443   2.630 -0.7683  0.1526 -0.3267
  714MOL0     C98449   2.993   4.134   2.961 -0.4360  0.0267  0.5156
  714MOL0     C98450   2.918   4.230   3.031 -0.1580  0.1296 -0.4407
  714MOL0     C98451   2.812   4.195   3.109  0.3478  0.4652 -0.4056
  714MOL0     C98452   2.773   4.062   3.112 -0.6502  0.1071 -0.0417
  714MOL0     O98453   2.653   4.030   3.168 -0.4898  0.0748  0.2578
  714MOL0     C98454   2.651   4.012   3.318 -0.0028 -0.1997  0.1508
  714MOL0     C98455   2.647   3.864   3.358  0.3363 -0.6902  0.0942
  714MOL0     C98456   2.506   3.805   3.314  0.0248 -0.4265  0.5518
  714MOL0     C98457   2.508   3.750   3.167 -0.5952  0.9789  0.1360
  714MOL0     C98458   2.407   3.644   3.154 -0.2157  0.1425  0.4310
  714MOL0     C98459   2.307   3.571   3.135 -0.4598 -0.2306 -0.0570
  714MOL0     C98460   2.855   3.966   3.054  0.6704  0.3095 -0.4721
  714MOL0     C98461   2.959   3.999   2.970 -0.1894 -0.9383  0.2090
  714MOL0     C98462   3.024   3.874   2.911  0.1125 -0.7821  0.8389
  714MOL0     H98463   3.327   4.352   2.903  0.1606  0.7268  0.1027
  714MOL0     H98464   3.506   4.454   2.790 -0.4806 -0.0943 -0.2027
  714MOL0     H98465   3.616   4.426   2.542 -2.3971  0.3623 -1.2025
  714MOL0     H98466   3.663   4.566   2.627 -0.5621 -0.6017  0.1975
  714MOL0     H98467   3.793   4.546   2.419 -0.0092  0.3282  1.6310
  714MOL0     H98468   3.643   4.558   2.322 -0.0357 -1.7135  0.8977
  714MOL0     H98469   3.608   4.787   2.431 -1.8749 -2.6554  1.2482
  714MOL0     H98470   3.768   4.763   2.519 -0.7536  1.7222 -0.4427
  714MOL0     H98471   3.879   4.738   2.306  0.4803  1.0650  1.6079
  714MOL0     H98472   3.716   4.781   2.222  0.3894  0.9007 -0.3227
  714MOL0     H98473   3.878   4.980   2.402  0.0381 -0.2510 -0.5352
  714MOL0     H98474   3.725   4.997   2.324  0.1672 -0.4074  0.6410
  714MOL0     H98475   4.001   4.995   2.213 -0.8154 -0.4577 -1.7200
  714MOL0     H98476   3.894   4.916   2.117  2.1663  3.0030 -2.1704
  714MOL0     H98477   3.857   5.219   2.200 -0.1073  0.6029 -0.3246
  714MOL0     H98478   3.727   5.124   2.150  0.2347  1.2045  1.5292
  714MOL0     H98479   3.825   5.092   1.936 -0.4917  0.4904 -0.2486
  714MOL0     H98480   3.825   5.256   1.973 -1.5003 -0.6212  0.8761
  714MOL0     H98481   4.068   4.967   1.888  0.4699 -0.6657  0.8106
  714MOL0     H98482   4.399   5.127   1.821 -1.8209 -0.3162 -2.6641
  714MOL0     H98483   4.315   4.984   1.787  3.4813 -4.1989  1.4797
  714MOL0     H98484   4.440   5.020   2.053  0.5651 -1.0112 -0.3441
  714MOL0     H98485   4.385   4.865   1.986 -1.5334  0.6120 -1.1191
  714MOL0     H98486   4.555   4.906   1.798  0.1672  3.6722 -0.8378
  714MOL0     H98487   4.643   5.021   1.894  0.4165  0.8586  1.1490
  714MOL0     H98488   4.648   4.835   2.079 -2.0034  0.7955 -0.1301
  714MOL0     H98489   4.604   4.730   1.951 -2.7240  1.2684  0.8849
  714MOL0     H98490   4.756   4.634   2.091 -1.2252 -1.3579 -0.9223
  714MOL0     H98491   4.880   4.296   2.136 -1.9385 -0.1073  1.2900
  714MOL0     H98492   4.807   4.439   2.199  2.5622  2.1516  1.0177
  714MOL0     H98493   4.988   4.424   2.208 -0.9128  2.7348  0.0494
  714MOL0     H98494   5.244   4.203   1.759  2.2230 -2.2421 -2.2242
  714MOL0     H98495   5.419   4.028   1.761  1.6778  2.0520 -2.6209
  714MOL0     H98496   5.773   4.001   1.820 -0.3820 -0.5326  0.3830
  714MOL0     H98497   5.780   4.119   1.959  0.7534 -1.7117  2.4108
  714MOL0     H98498   5.894   3.931   2.055 -0.5589 -0.8975  0.2635
  714MOL0     H98499   5.731   3.883   2.086 -0.0475 -0.1071  0.1451
  714MOL0     H98500   5.897   3.719   1.990  2.3545  0.9603 -0.7079
  714MOL0     H98501   5.872   3.798   1.831 -0.4995 -1.4820 -1.0759
  714MOL0     H98502   5.628   3.766   1.841  2.8151 -0.9601 -3.0555
  714MOL0     H98503   5.638   3.667   1.987 -0.2298  1.9271  0.7945
  714MOL0     H98504   5.777   3.607   1.722 -0.4176  1.6899  0.4410
  714MOL0     H98505   5.782   3.501   1.855  0.8260 -0.9197 -1.7920
  714MOL0     H98506   5.535   3.597   1.722  0.9984  1.5592  2.0059
  714MOL0     H98507   5.532   3.483   1.851 -4.1717 -2.4708 -2.9721
  714MOL0     H98508   5.678   3.322   1.708  0.9081 -0.0539 -1.1467
  714MOL0     H98509   5.647   3.430   1.572  0.6671  0.7205  0.4456
  714MOL0     H98510   5.470   3.256   1.562 -0.5991 -0.0735  0.4069
  714MOL0     H98511   5.410   3.421   1.583  0.6065  1.6304  1.7978
  714MOL0     H98512   5.630   4.212   2.070 -0.8724 -0.1806 -0.2713
  714MOL0     H98513   5.458   4.405   2.071  1.1270  0.9377 -1.6958
  714MOL0     H98514   5.103   4.555   1.761  3.8735  2.1707  2.3107
  714MOL0     H98515   4.952   4.751   1.742  0.6645  2.4066  1.8846
  714MOL0     H98516   3.248   4.589   2.484 -2.0064  1.0130  1.0794
  714MOL0     H98517   3.070   4.433   2.570 -2.4103  2.3251  1.6262
  714MOL0     H98518   2.942   4.336   3.027  1.9037 -0.2715  0.2108
  714MOL0     H98519   2.746   4.264   3.160 -1.7566 -1.0568 -0.9597
  714MOL0     H98520   2.746   4.050   3.357 -1.2584  2.5735  0.7627
  714MOL0     H98521   2.567   4.073   3.353 -0.4263  1.4638 -3.3542
  714MOL0     H98522   2.663   3.849   3.465 -3.2446  2.8613  1.3796
  714MOL0     H98523   2.729   3.814   3.306  1.7928 -1.1278  2.6390
  714MOL0     H98524   2.481   3.731   3.391 -4.5660  2.6005  2.3890
  714MOL0     H98525   2.432   3.885   3.322 -1.4685 -1.7704  0.6648
  714MOL0     H98526   2.604   3.703   3.145 -0.7615  0.9645 -0.5991
  714MOL0     H98527   2.492   3.833   3.097 -1.2846  0.6783 -0.0768
  714MOL0     H98528   2.228   3.499   3.126 -1.1147  0.3573  0.8595
  714MOL0     H98529   2.824   3.862   3.054 -1.8621  0.9802 -0.1908
  714MOL0     H98530   3.069   3.810   2.987 -1.2361 -1.2988  1.2312
  714MOL0     H98531   2.953   3.804   2.866  2.0003 -1.4874 -1.1811
  714MOL0     H98532   3.101   3.892   2.836  0.5076  0.2932  1.4858
  715MOL0     O98533   8.958   3.369   0.201 -0.4893  0.4383 -0.0983
  715MOL0     C98534   9.023   3.266   0.180 -0.0474 -0.2799  0.6136
  715MOL0     O98535   9.133   3.222   0.247  0.8198  0.3412  0.6149
  715MOL0     C98536   9.176   3.295   0.357 -0.2661  0.3028  0.5261
  715MOL0     C98537   9.162   3.247   0.495 -0.6290 -0.1274  0.5822
  715MOL0     C98538   9.221   3.309   0.602  0.6360 -0.0660 -0.3501
  715MOL0     C98539   9.292   3.423   0.582 -0.3266  0.6418 -1.1110
  715MOL0     O98540   9.357   3.466   0.695 -0.1402  0.5654  0.0954
  715MOL0     C98541   9.345   3.609   0.713  0.0584  0.4987 -0.4057
  715MOL0     C98542   9.446   3.667   0.799  0.0955 -0.0904 -0.3474
  715MOL0     C98543   9.589   3.649   0.738 -0.3123 -0.1927 -1.1090
  715MOL0     C98544   9.683   3.767   0.738 -0.6382 -0.0057 -0.8324
  715MOL0     C98545   9.633   3.893   0.661  0.8590 -0.3301  0.2202
  715MOL0     C98546   9.734   4.000   0.677 -0.0252 -1.5798 -0.6404
  715MOL0     C98547   9.879   3.975   0.625  0.5637  0.6147 -0.0214
  715MOL0     C98548   9.995   4.023   0.715  0.2296 -0.4524  0.5614
  715MOL0     N98549  10.115   3.954   0.669 -0.3757  0.0564 -0.1752
  715MOL0     C98550  10.208   3.990   0.585 -0.1641 -0.2958  0.4957
  715MOL0     C98551  10.312   3.904   0.607  0.1417 -0.3613 -0.4878
  715MOL0     C98552  10.443   3.904   0.544  0.4623  0.4963  0.5296
  715MOL0     C98553  10.458   3.845   0.396  0.4740 -0.2636 -0.4903
  715MOL0     C98554  10.449   3.693   0.389 -0.0006  0.2478 -0.3338
  715MOL0     C98555  10.391   3.634   0.259  0.0055  1.1225  0.3367
  715MOL0     O98556  10.435   3.705   0.148  0.4102  0.1448 -0.2961
  715MOL0     C98557  10.421   3.635   0.033 -0.9018  0.4959  0.4890
  715MOL0     C98558  10.317   3.667  -0.059  0.6644 -0.1073 -0.1069
  715MOL0     C98559  10.301   3.603  -0.180  0.9630 -0.0616  0.3649
  715MOL0     C98560  10.197   3.653  -0.270  0.2906 -0.2086  0.5602
  715MOL0     C98561  10.380   3.490  -0.214 -0.0325  0.1253  0.0027
  715MOL0     C98562  10.351   3.414  -0.335 -0.3384  0.6955 -0.7080
  715MOL0     O98563  10.457   3.360  -0.401 -0.2591  0.4666 -1.3683
  715MOL0     C98564  10.443   3.277  -0.508  1.4834 -0.4967 -0.5412
  715MOL0     C98565  10.549   3.285  -0.605  0.3909  0.4160  0.4303
  715MOL0     C98566  10.560   3.187  -0.703 -1.0257 -0.1203 -0.8717
  715MOL0     C98567  10.459   3.091  -0.718 -0.8170 -0.3618  0.2902
  715MOL0     O98568  10.482   2.999  -0.817  1.4935  0.1270 -0.0717
  715MOL0     C98569  10.444   2.861  -0.779 -0.5567 -0.1897 -0.1864
  715MOL0     C98570  10.491   2.779  -0.900  0.1713  0.2342 -0.3187
  715MOL0     C98571  10.640   2.733  -0.880  0.0123  0.6070 -0.8336
  715MOL0     C98572  10.695   2.674  -1.010 -0.5464  0.0306  0.3075
  715MOL0     C98573  10.838   2.616  -0.991  0.0249 -0.3152  0.5227
  715MOL0     C98574  10.938   2.737  -0.949 -1.0839 -0.1582  0.5436
  715MOL0     C98575  11.086   2.706  -0.989  0.1820  0.2912  0.1895
  715MOL0     C98576  11.175   2.810  -0.922 -1.2431  1.0393 -0.3097
  715MOL0    Cl98577  11.348   2.779  -0.966 -0.1859 -0.0885  0.2352
  715MOL0     C98578  10.352   3.079  -0.627 -0.4972 -0.7135 -0.2096
  715MOL0     C98579  10.343   3.174  -0.522 -0.9241 -0.2642 -0.3330
  715MOL0     O98580  10.234   3.402  -0.369 -0.3913 -0.5767  0.1777
  715MOL0     C98581  10.488   3.464  -0.131  0.4691  0.1829 -0.2876
  715MOL0     C98582  10.505   3.532  -0.009 -0.1087 -0.8169  0.3290
  715MOL0     N98583  10.269   3.803   0.684  0.3996  0.6161  0.1800
  715MOL0     N98584  10.160   3.841   0.724 -0.2868 -0.4430  0.1400
  715MOL0     C98585   9.310   3.472   0.457 -1.0095 -0.3226  0.3749
  715MOL0     C98586   9.248   3.417   0.344 -0.8894  0.5318 -0.3034
  715MOL0     C98587   8.978   3.162   0.086  0.8526 -0.4000  0.0057
  715MOL0     C98588   9.074   3.070   0.041 -0.4124  0.6252  0.2265
  715MOL0     C98589   9.044   2.977  -0.053  0.6960  0.2248  0.2553
  715MOL0     C98590   8.931   2.990  -0.123 -0.4037  0.3825  0.5950
  715MOL0     O98591   8.918   2.910  -0.235  0.0399 -0.5148 -0.8448
  715MOL0     C98592   8.989   2.794  -0.248 -0.2310  0.9972  0.2626
  715MOL0     C98593   8.942   2.677  -0.340  0.3715  0.6950 -0.4123
  715MOL0     C98594   8.864   2.575  -0.260  0.7861 -0.8107 -0.5628
  715MOL0     C98595   8.822   2.444  -0.337  0.1888  0.1128 -0.3587
  715MOL0     C98596   8.761   2.469  -0.467 -0.9302 -0.9926 -0.9519
  715MOL0     C98597   8.700   2.493  -0.566 -0.2822 -0.1649  0.5904
  715MOL0     C98598   8.825   3.072  -0.083  0.5866 -0.4655 -0.5653
  715MOL0     C98599   8.850   3.166   0.019  0.0579  0.6183 -0.1762
  715MOL0     C98600   8.735   3.246   0.065 -0.1518 -0.6896  0.9919
  715MOL0     H98601   9.121   3.148   0.514 -1.8763  0.3411  0.4462
  715MOL0     H98602   9.204   3.265   0.700 -2.5218  3.1362  0.7495
  715MOL0     H98603   9.248   3.642   0.754 -0.0224  2.2472 -1.8709
  715MOL0     H98604   9.349   3.665   0.619 -0.0665 -1.3693 -1.5685
  715MOL0     H98605   9.420   3.773   0.799 -1.5482 -0.4429  1.1108
  715MOL0     H98606   9.430   3.642   0.904  1.0431 -2.8385 -0.7591
  715MOL0     H98607   9.634   3.562   0.785 -3.4670 -1.4442 -0.1383
  715MOL0     H98608   9.567   3.614   0.636  0.9005 -0.3485 -1.3325
  715MOL0     H98609   9.703   3.803   0.839 -0.3034  1.7534 -1.5034
  715MOL0     H98610   9.779   3.728   0.702  0.1362  1.4169 -0.4064
  715MOL0     H98611   9.545   3.938   0.709  0.8510  0.2134 -0.2993
  715MOL0     H98612   9.625   3.875   0.554  2.0371 -0.9701  0.2240
  715MOL0     H98613   9.706   4.086   0.616 -0.8277 -0.0522  1.7668
  715MOL0     H98614   9.720   4.037   0.779 -0.1946 -3.3648  0.0184
  715MOL0     H98615   9.882   3.999   0.518 -3.7472  0.3908 -0.3692
  715MOL0     H98616   9.889   3.866   0.628  0.2337  0.5097 -1.7805
  715MOL0     H98617  10.014   4.131   0.711  0.7761 -0.4451  2.6214
  715MOL0     H98618   9.975   4.006   0.821  3.4272  1.4195  1.5858
  715MOL0     H98619  10.206   4.075   0.516  0.8279 -1.2201 -0.7231
  715MOL0     H98620  10.513   3.851   0.610 -1.4647  0.5785  2.7715
  715MOL0     H98621  10.483   4.004   0.531 -1.3443  1.3488  1.1709
  715MOL0     H98622  10.394   3.898   0.325  2.4560  0.3035 -1.9729
  715MOL0     H98623  10.557   3.876   0.360  0.4294  0.4521 -0.0090
  715MOL0     H98624  10.541   3.639   0.412 -1.2467 -2.0480 -0.4533
  715MOL0     H98625  10.378   3.662   0.467 -0.3380  1.4739 -0.1198
  715MOL0     H98626  10.428   3.532   0.271  0.8069  1.6325  3.1476
  715MOL0     H98627  10.282   3.644   0.264  0.0048  2.5270 -1.6744
  715MOL0     H98628  10.234   3.736  -0.043 -0.3393 -0.7002 -2.2701
  715MOL0     H98629  10.105   3.594  -0.274  0.3775 -0.3539  0.7255
  715MOL0     H98630  10.235   3.657  -0.373 -0.7219 -1.7078  0.0928
  715MOL0     H98631  10.181   3.759  -0.246 -0.5368 -0.7247  2.4421
  715MOL0     H98632  10.625   3.362  -0.606  0.8719  0.0173  2.2870
  715MOL0     H98633  10.642   3.198  -0.774 -0.7943  0.7008 -0.4765
  715MOL0     H98634  10.494   2.829  -0.687 -0.5009  0.8307  0.1460
  715MOL0     H98635  10.335   2.861  -0.772 -0.5320  0.6011  0.2437
  715MOL0     H98636  10.419   2.697  -0.910 -0.7927  0.6006  2.5789
  715MOL0     H98637  10.477   2.847  -0.985  1.0935  1.0098  0.1316
  715MOL0     H98638  10.662   2.659  -0.802  2.7886 -1.5123 -3.3851
  715MOL0     H98639  10.694   2.825  -0.855 -1.3533  1.2676 -0.1706
  715MOL0     H98640  10.701   2.751  -1.088 -1.8538 -0.7375 -0.5981
  715MOL0     H98641  10.620   2.601  -1.041 -0.8736 -0.2208  1.6103
  715MOL0     H98642  10.839   2.527  -0.927 -3.0160  0.3041  1.5978
  715MOL0     H98643  10.869   2.579  -1.090 -1.7691  3.3332 -1.5959
  715MOL0     H98644  10.947   2.766  -0.843  0.2779  1.7592 -0.0307
  715MOL0     H98645  10.912   2.831  -0.999 -1.0475  0.6135  1.9144
  715MOL0     H98646  11.086   2.709  -1.098 -0.4551 -2.9236 -0.0022
  715MOL0     H98647  11.113   2.602  -0.973 -1.6608 -0.6155 -1.9841
  715MOL0     H98648  11.162   2.817  -0.814  0.2712  2.0089 -0.1737
  715MOL0     H98649  11.139   2.905  -0.962 -2.3878  0.7403 -0.0508
  715MOL0     H98650  10.274   3.006  -0.644 -1.3754  0.8799 -3.9310
  715MOL0     H98651  10.273   3.173  -0.439  0.8871  3.3121  1.5140
  715MOL0     H98652  10.563   3.393  -0.164  1.0365  0.5743  0.1431
  715MOL0     H98653  10.592   3.493   0.042  1.9820  0.8220 -1.8170
  715MOL0     H98654   9.376   3.556   0.441 -1.2696 -0.5363 -2.3306
  715MOL0     H98655   9.270   3.462   0.248 -0.6619  0.2178 -0.4000
  715MOL0     H98656   9.177   3.072   0.075  0.6784  1.4655 -2.8204
  715MOL0     H98657   9.122   2.903  -0.069  0.4042 -0.0335 -0.0007
  715MOL0     H98658   9.090   2.824  -0.278  0.5096 -2.1671 -0.7968
  715MOL0     H98659   8.999   2.752  -0.148  5.1371 -1.2609 -0.8713
  715MOL0     H98660   9.028   2.628  -0.387 -2.1636 -1.9772 -2.6476
  715MOL0     H98661   8.881   2.709  -0.426  0.4465 -0.8801 -1.0857
  715MOL0     H98662   8.915   2.540  -0.170  0.7053 -1.3016 -0.7067
  715MOL0     H98663   8.772   2.624  -0.227  1.0409 -0.5989 -0.1574
  715MOL0     H98664   8.748   2.389  -0.278 -0.0741 -1.1130 -1.7491
  715MOL0     H98665   8.915   2.387  -0.349  1.5375  1.4528  2.6939
  715MOL0     H98666   8.655   2.509  -0.662 -0.4270 -2.1536  0.2987
  715MOL0     H98667   8.726   3.052  -0.123  0.2287  0.5475 -0.2114
  715MOL0     H98668   8.646   3.207   0.016  0.9123  2.1026 -3.9140
  715MOL0     H98669   8.722   3.226   0.172 -1.0511 -1.4234  0.7573
  715MOL0     H98670   8.739   3.355   0.055 -1.9843 -0.4578  2.3764
  716MOL0     O98671   0.359   0.225   6.999  0.1853 -0.8642 -0.4276
  716MOL0     C98672   0.438   0.223   6.904 -0.4246 -0.8850 -0.4053
  716MOL0     O98673   0.463   0.327   6.816 -0.0536  0.2335  0.6278
  716MOL0     C98674   0.457   0.454   6.853  0.5108 -0.0941 -0.1325
  716MOL0     C98675   0.490   0.508   6.984 -0.5748  0.7126  0.4685
  716MOL0     C98676   0.484   0.637   7.016  0.5526  0.3835 -0.8347
  716MOL0     C98677   0.440   0.730   6.919  0.2213  0.4060 -0.3929
  716MOL0     O98678   0.423   0.866   6.944  0.1950  0.4407  0.2769
  716MOL0     C98679   0.380   0.902   7.075 -0.3719  0.1725  0.0952
  716MOL0     C98680   0.495   0.965   7.164 -0.1891  0.4050 -0.7989
  716MOL0     C98681   0.437   1.036   7.291 -0.4063 -0.1532  0.1543
  716MOL0     C98682   0.542   1.108   7.372  0.1351 -1.1131 -1.2337
  716MOL0     C98683   0.645   1.029   7.453  0.1666  0.4788  0.3031
  716MOL0     C98684   0.589   0.928   7.543  0.0415  0.6373  0.2936
  716MOL0     C98685   0.688   0.842   7.632 -0.2754  0.2611  0.9412
  716MOL0     C98686   0.684   0.882   7.781 -0.2863 -0.1401  0.1291
  716MOL0     N98687   0.780   0.979   7.815 -0.3923  1.4340  0.3554
  716MOL0     C98688   0.869   1.064   7.746 -0.1930 -0.3312  0.6124
  716MOL0     C98689   0.965   1.117   7.828  0.3844  0.5072 -1.1014
  716MOL0     C98690   1.064   1.203   7.777 -0.0093  0.4797 -0.9408
  716MOL0     C98691   1.199   1.175   7.834 -0.8208  0.1284 -0.2013
  716MOL0     C98692   1.257   1.046   7.771 -0.4230  0.6005 -0.6941
  716MOL0     C98693   1.377   0.981   7.849  0.3837 -0.0404  0.3095
  716MOL0     O98694   1.483   1.087   7.839  0.0704  0.3076  0.9148
  716MOL0     C98695   1.602   1.069   7.769  0.5718 -0.3869 -0.4090
  716MOL0     C98696   1.618   0.968   7.675 -1.3801  0.4028  0.5424
  716MOL0     C98697   1.749   0.943   7.618 -1.2018 -0.0977  0.3549
  716MOL0     C98698   1.764   0.817   7.552  0.4042  0.0037  0.3284
  716MOL0     C98699   1.836   1.055   7.618  0.1295  0.4475  0.1470
  716MOL0     C98700   1.966   1.054   7.543 -1.0243  0.0412 -0.1132
  716MOL0     O98701   2.031   1.175   7.555  0.3485  0.0377 -0.0439
  716MOL0     C98702   2.149   1.197   7.494 -1.0660  0.3115  0.2464
  716MOL0     C98703   2.171   1.192   7.359  0.5229 -0.5535  0.3923
  716MOL0     C98704   2.304   1.230   7.314  0.3381 -0.7511  0.6000
  716MOL0     C98705   2.403   1.282   7.394  0.2007  0.0200  0.5343
  716MOL0     O98706   2.503   1.338   7.318 -0.6494 -0.7890  0.8326
  716MOL0     C98707   2.602   1.410   7.383 -0.6466 -0.4928 -0.4001
  716MOL0     C98708   2.718   1.314   7.424  0.0897 -0.1355 -0.3437
  716MOL0     C98709   2.846   1.371   7.484 -0.1947 -0.0472  0.2810
  716MOL0     C98710   2.969   1.275   7.515  0.5004 -0.1261 -0.8481
  716MOL0     C98711   3.089   1.363   7.569 -0.1424 -0.5377  0.2302
  716MOL0     C98712   3.207   1.266   7.585 -0.2960 -0.6152 -1.1045
  716MOL0     C98713   3.340   1.347   7.605  0.6072  1.3434 -0.1074
  716MOL0     C98714   3.361   1.385   7.748  0.2933 -0.7768 -0.3837
  716MOL0    Cl98715   3.523   1.457   7.773 -0.6269  0.0286  0.1301
  716MOL0     C98716   2.378   1.296   7.523  0.1791  0.7067 -0.2335
  716MOL0     C98717   2.248   1.265   7.575  0.5334 -0.1447  0.2049
  716MOL0     O98718   1.998   0.962   7.476  0.0820  0.1998  0.0630
  716MOL0     C98719   1.803   1.170   7.698 -0.7178  0.2985 -0.1912
  716MOL0     C98720   1.688   1.170   7.777  0.2773 -0.2461 -0.5049
  716MOL0     N98721   0.924   1.074   7.957  0.0891 -1.2390  0.1084
  716MOL0     N98722   0.824   0.995   7.945 -0.0867  0.0539 -0.2939
  716MOL0     C98723   0.411   0.680   6.791 -0.2338 -0.9959 -0.6277
  716MOL0     C98724   0.429   0.552   6.761  0.1683  0.3129  0.8659
  716MOL0     C98725   0.503   0.095   6.876  0.5228 -0.5113 -1.0411
  716MOL0     C98726   0.585   0.036   6.975  0.0344 -0.1367  0.1540
  716MOL0     C98727   0.622  -0.100   6.963  0.3950  0.3770  1.0745
  716MOL0     C98728   0.625  -0.153   6.833 -0.0769 -0.5992 -0.2194
  716MOL0     O98729   0.666  -0.280   6.836 -0.2469 -0.2718 -0.4198
  716MOL0     C98730   0.643  -0.366   6.721  0.8235 -1.1571  1.0090
  716MOL0     C98731   0.716  -0.499   6.745 -0.5235  1.0523  0.2637
  716MOL0     C98732   0.864  -0.475   6.737  0.0339 -0.0508 -0.2575
  716MOL0     C98733   0.945  -0.595   6.773  0.1765  0.1788  1.5091
  716MOL0     C98734   0.967  -0.688   6.659 -0.7889 -0.4060 -0.2562
  716MOL0     C98735   0.995  -0.765   6.576 -0.9074 -1.4423 -0.2019
  716MOL0     C98736   0.567  -0.087   6.729  0.5919  0.3854 -0.5758
  716MOL0     C98737   0.495   0.029   6.753 -0.1584  0.5120  0.3204
  716MOL0     C98738   0.416   0.097   6.649  0.5273 -0.3445  0.0281
  716MOL0     H98739   0.514   0.441   7.066 -3.5946  0.0872  0.9596
  716MOL0     H98740   0.517   0.669   7.115  0.2606 -1.3181 -0.1566
  716MOL0     H98741   0.328   0.821   7.126 -2.5844 -1.1010 -3.7115
  716MOL0     H98742   0.296   0.968   7.049 -2.8362 -3.0717 -0.8132
  716MOL0     H98743   0.560   0.889   7.207 -3.8008 -0.8260  3.1200
  716MOL0     H98744   0.551   1.038   7.105  2.3163  0.0937  1.0392
  716MOL0     H98745   0.366   1.111   7.255 -1.9282 -2.3324 -1.6992
  716MOL0     H98746   0.373   0.964   7.342 -1.6574  2.8443  3.0825
  716MOL0     H98747   0.593   1.175   7.303  0.1436  1.3921  1.0342
  716MOL0     H98748   0.485   1.170   7.442 -1.6734 -0.2445 -3.3527
  716MOL0     H98749   0.713   1.089   7.514 -0.5969 -1.0212  2.7347
  716MOL0     H98750   0.706   0.963   7.389 -0.6708  0.2428 -0.2671
  716MOL0     H98751   0.510   0.975   7.602  1.4470 -0.6442  3.4209
  716MOL0     H98752   0.518   0.859   7.495  0.3433 -0.5372  1.4785
  716MOL0     H98753   0.782   0.834   7.576 -0.8405 -4.9631  0.2314
  716MOL0     H98754   0.653   0.739   7.619 -1.7653  0.8218  0.3471
  716MOL0     H98755   0.585   0.923   7.802 -0.5600  0.3279 -1.8222
  716MOL0     H98756   0.702   0.796   7.846  1.5250 -0.7416 -1.0884
  716MOL0     H98757   0.882   1.086   7.641 -1.9596  0.9598  0.6133
  716MOL0     H98758   1.028   1.303   7.801 -1.4440  0.3459 -2.3884
  716MOL0     H98759   1.064   1.200   7.668  0.8402 -1.3434 -0.9259
  716MOL0     H98760   1.260   1.265   7.823 -0.9397  0.2000 -0.2764
  716MOL0     H98761   1.177   1.153   7.939  1.7756  0.4283  0.4864
  716MOL0     H98762   1.184   0.968   7.747  0.9969 -0.5556 -1.3882
  716MOL0     H98763   1.292   1.075   7.671 -1.3835  0.0984 -1.1872
  716MOL0     H98764   1.360   0.962   7.956  1.1842  2.0609  0.8611
  716MOL0     H98765   1.408   0.894   7.791 -2.4824  0.0835 -1.6078
  716MOL0     H98766   1.544   0.895   7.645 -1.8071  1.2397 -0.5284
  716MOL0     H98767   1.702   0.751   7.613  0.1643  2.9093  3.5461
  716MOL0     H98768   1.867   0.785   7.568  0.0856 -1.2469  0.0061
  716MOL0     H98769   1.739   0.833   7.447  0.2701  0.3993  0.4196
  716MOL0     H98770   2.085   1.162   7.300 -2.5804  4.6661  1.5919
  716MOL0     H98771   2.332   1.211   7.210  1.4114 -1.6462  1.0363
  716MOL0     H98772   2.639   1.481   7.308 -0.6139 -2.2829 -2.1506
  716MOL0     H98773   2.563   1.463   7.471 -0.3348 -1.5418  0.3850
  716MOL0     H98774   2.679   1.256   7.507  3.8819 -2.2354  0.2105
  716MOL0     H98775   2.748   1.247   7.343  0.6165 -1.4988  0.9307
  716MOL0     H98776   2.823   1.412   7.583  0.9669 -0.2119  0.6418
  716MOL0     H98777   2.879   1.448   7.413 -2.5826  1.1278  0.3483
  716MOL0     H98778   3.008   1.230   7.423  0.1380  1.3423 -1.7623
  716MOL0     H98779   2.936   1.201   7.589  0.3898 -0.4943 -1.2552
  716MOL0     H98780   3.113   1.451   7.508 -0.1108 -2.1874 -2.2655
  716MOL0     H98781   3.059   1.404   7.666  1.1192 -2.1639  1.3719
  716MOL0     H98782   3.215   1.201   7.497 -1.2591  0.2947 -1.8956
  716MOL0     H98783   3.193   1.189   7.661  1.3626  0.2015  0.1060
  716MOL0     H98784   3.330   1.440   7.550  1.1726 -0.4119 -3.4675
  716MOL0     H98785   3.431   1.293   7.577 -1.9658 -3.4849 -0.2268
  716MOL0     H98786   3.365   1.297   7.813 -1.2162 -1.3579 -1.0270
  716MOL0     H98787   3.294   1.466   7.781  1.1307  0.7813 -2.3445
  716MOL0     H98788   2.437   1.342   7.602  0.8638  0.8606 -0.8237
  716MOL0     H98789   2.215   1.281   7.677 -2.7370 -1.3375 -0.5399
  716MOL0     H98790   1.877   1.249   7.708 -0.6136 -0.1485  4.5459
  716MOL0     H98791   1.665   1.258   7.836 -0.7291 -1.8691  1.6885
  716MOL0     H98792   0.370   0.758   6.727  1.2268  0.8137  0.5243
  716MOL0     H98793   0.410   0.526   6.658 -2.8235  3.6671  0.3818
  716MOL0     H98794   0.618   0.076   7.071  0.6341 -2.3365  0.9309
  716MOL0     H98795   0.674  -0.161   7.037 -2.7757 -0.3803  2.8558
  716MOL0     H98796   0.538  -0.392   6.702  1.3741 -2.0255 -1.1419
  716MOL0     H98797   0.690  -0.317   6.635  0.0951 -1.5513  0.3714
  716MOL0     H98798   0.692  -0.577   6.672  4.1629 -0.9566  0.5196
  716MOL0     H98799   0.681  -0.524   6.845 -0.5318 -1.0801 -0.2297
  716MOL0     H98800   0.901  -0.434   6.643 -0.4976  1.1128  0.0229
  716MOL0     H98801   0.870  -0.409   6.824  0.8034  1.4130 -1.3820
  716MOL0     H98802   0.889  -0.652   6.848  1.8510 -0.7058  2.1217
  716MOL0     H98803   1.043  -0.569   6.814  2.0768 -3.1500 -0.5520
  716MOL0     H98804   1.000  -0.832   6.492  0.2393 -1.4420 -0.1422
  716MOL0     H98805   0.564  -0.126   6.627  0.5159  1.4059 -0.9748
  716MOL0     H98806   0.311   0.109   6.675  0.1602 -1.2049 -0.9912
  716MOL0     H98807   0.451   0.191   6.606 -1.3695  0.5014  0.2727
  716MOL0     H98808   0.412   0.037   6.557  2.6439 -0.4979 -0.0130
  717MOL0     O98809   8.597   6.572  10.326 -0.4360 -0.7293 -0.2684
  717MOL0     C98810   8.488   6.627  10.314 -0.1368 -0.3494  0.0344
  717MOL0     O98811   8.378   6.577  10.240 -0.2712 -0.1079  0.2700
  717MOL0     C98812   8.389   6.457  10.172  0.5088 -0.7989  0.4875
  717MOL0     C98813   8.475   6.430  10.062  1.0078  0.4031 -1.0642
  717MOL0     C98814   8.488   6.303  10.012  1.6180  0.2530  0.3689
  717MOL0     C98815   8.404   6.201  10.052  0.0588  0.6778  0.4904
  717MOL0     O98816   8.409   6.076   9.990 -0.2376 -0.0177 -0.0307
  717MOL0     C98817   8.415   5.966  10.083 -0.2577 -0.3661  0.2708
  717MOL0     C98818   8.415   5.842   9.999  0.4605 -0.0929  0.4752
  717MOL0     C98819   8.464   5.718  10.076  0.3121 -0.0161  0.5797
  717MOL0     C98820   8.479   5.602   9.966  0.2383 -0.3748  0.2764
  717MOL0     C98821   8.521   5.471  10.033  0.3194  0.3928  0.0061
  717MOL0     C98822   8.481   5.348   9.952  0.1462  0.1942  0.4543
  717MOL0     C98823   8.522   5.209  10.018  0.8163  0.3566  0.1985
  717MOL0     C98824   8.670   5.191  10.048  1.0372 -0.7896  0.1760
  717MOL0     N98825   8.695   5.054  10.088 -0.1274 -0.3603  1.3066
  717MOL0     C98826   8.695   4.943  10.007  0.3280  0.8142 -0.0586
  717MOL0     C98827   8.698   4.844  10.101  0.9002  0.1600  0.1776
  717MOL0     C98828   8.718   4.704  10.064  0.2301  0.1474 -0.0431
  717MOL0     C98829   8.664   4.601  10.167 -0.8631 -0.2820 -0.6693
  717MOL0     C98830   8.659   4.464  10.098  0.7105 -0.1316 -0.3976
  717MOL0     C98831   8.605   4.356  10.184  0.7503  0.3063  0.0477
  717MOL0     O98832   8.637   4.231  10.129 -0.1824  1.0454 -1.1889
  717MOL0     C98833   8.598   4.127  10.217  0.1202 -0.8206 -0.7508
  717MOL0     C98834   8.639   4.006  10.176 -0.0991  0.1717 -0.2650
  717MOL0     C98835   8.624   3.892  10.251 -0.6712  0.0952 -0.0465
  717MOL0     C98836   8.704   3.759  10.223 -0.1112  0.1239  0.9959
  717MOL0     C98837   8.543   3.894  10.360  0.4295 -0.9816 -0.4260
  717MOL0     C98838   8.499   3.767  10.431 -0.4386 -1.0892  0.1816
  717MOL0     O98839   8.466   3.666  10.343  0.1045 -0.4669 -1.4453
  717MOL0     C98840   8.464   3.534  10.393  1.3896 -0.2802  0.1795
  717MOL0     C98841   8.556   3.450  10.338 -0.1725  0.5862 -0.0742
  717MOL0     C98842   8.580   3.320  10.397  1.1447 -0.3696  0.0646
  717MOL0     C98843   8.498   3.273  10.511 -0.3636 -0.2933  0.0881
  717MOL0     O98844   8.531   3.163  10.582 -0.3642  0.1287 -0.1180
  717MOL0     C98845   8.507   3.029  10.524 -0.4271 -0.2636  0.5136
  717MOL0     C98846   8.537   2.919  10.615  0.1817 -0.7964 -0.2856
  717MOL0     C98847   8.442   2.943  10.736 -0.1156  0.0608 -0.6042
  717MOL0     C98848   8.473   2.851  10.857 -0.4919  0.1890  0.9963
  717MOL0     C98849   8.466   2.928  10.988 -0.5098  0.2921  0.8649
  717MOL0     C98850   8.511   2.849  11.107 -0.2809  0.8279 -0.9195
  717MOL0     C98851   8.497   2.926  11.242  0.9282  0.0483  1.4330
  717MOL0     C98852   8.446   2.849  11.368  0.5862  0.0910  0.8229
  717MOL0    Cl98853   8.544   2.713  11.410 -0.1288 -0.1840  0.0697
  717MOL0     C98854   8.405   3.367  10.566  0.3007  0.6120  0.8656
  717MOL0     C98855   8.381   3.490  10.503 -1.2620 -0.3039 -0.5625
  717MOL0     O98856   8.511   3.767  10.555  0.0650  0.4746  0.1871
  717MOL0     C98857   8.487   4.023  10.406 -0.1225  0.1424  0.4212
  717MOL0     C98858   8.521   4.134  10.335  0.1886  0.1999 -0.7685
  717MOL0     N98859   8.698   4.887  10.227 -0.2871  0.3473 -0.6821
  717MOL0     N98860   8.693   5.019  10.219  0.4434  0.5182  0.7081
  717MOL0     C98861   8.317   6.230  10.164 -0.1688  0.3632  0.0153
  717MOL0     C98862   8.311   6.356  10.223  0.0214  0.3482 -0.1859
  717MOL0     C98863   8.464   6.754  10.392 -0.6323  0.2048  0.1744
  717MOL0     C98864   8.527   6.772  10.515 -0.2269 -0.3975 -0.0211
  717MOL0     C98865   8.517   6.900  10.577 -0.6207  0.4138  0.6537
  717MOL0     C98866   8.427   6.998  10.530  0.8740  0.4428 -0.3670
  717MOL0     O98867   8.426   7.117  10.605 -0.1834 -0.1808 -0.7647
  717MOL0     C98868   8.486   7.229  10.541  0.7547 -0.3072  0.2565
  717MOL0     C98869   8.402   7.352  10.582  0.1851 -0.6490  1.4295
  717MOL0     C98870   8.470   7.484  10.567 -0.4564  0.1863  0.0656
  717MOL0     C98871   8.354   7.583  10.587 -0.4729  0.9770 -0.5618
  717MOL0     C98872   8.386   7.723  10.571 -0.2308 -0.1076 -0.0887
  717MOL0     C98873   8.383   7.841  10.558 -0.2399 -0.3395  0.0773
  717MOL0     C98874   8.352   6.977  10.421  0.0218 -0.0046  0.9813
  717MOL0     C98875   8.382   6.859  10.340  0.3820 -0.0177 -0.7278
  717MOL0     C98876   8.310   6.844  10.211  0.6730 -0.0491  0.2468
  717MOL0     H98877   8.537   6.513  10.028  1.5680  1.1946  1.6342
  717MOL0     H98878   8.569   6.287   9.941 -1.5342 -1.0848 -3.3107
  717MOL0     H98879   8.327   5.962  10.148 -0.7845 -2.3641 -0.4704
  717MOL0     H98880   8.501   5.977  10.149  0.2559 -1.7084 -0.1550
  717MOL0     H98881   8.316   5.815   9.961  0.7027  0.5496 -0.6658
  717MOL0     H98882   8.468   5.880   9.911  1.4266 -0.0428  1.0627
  717MOL0     H98883   8.567   5.722  10.115  1.7861  0.4454 -2.9796
  717MOL0     H98884   8.394   5.685  10.153 -1.4651 -1.4163 -1.5270
  717MOL0     H98885   8.375   5.590   9.933  0.5798  0.1937 -1.0858
  717MOL0     H98886   8.533   5.632   9.876  1.1383  3.6774  1.9283
  717MOL0     H98887   8.476   5.465  10.133  4.5255 -1.1761  2.0379
  717MOL0     H98888   8.629   5.472  10.050  0.5958  1.4540 -1.6482
  717MOL0     H98889   8.372   5.347   9.945  0.1363  3.6065 -1.4417
  717MOL0     H98890   8.532   5.345   9.856 -0.6253  1.7967 -0.0337
  717MOL0     H98891   8.488   5.132   9.948  2.9868  0.1485 -0.7098
  717MOL0     H98892   8.459   5.204  10.107  1.7442  4.5826  1.3241
  717MOL0     H98893   8.717   5.207   9.950  1.7349 -2.3063  0.2396
  717MOL0     H98894   8.696   5.265  10.124 -3.9087 -2.7470  4.3773
  717MOL0     H98895   8.695   4.927   9.900  1.3431 -1.5584  0.2178
  717MOL0     H98896   8.823   4.678  10.052 -0.4200 -2.9147 -0.1344
  717MOL0     H98897   8.662   4.687   9.971  0.4266  2.4443 -0.6224
  717MOL0     H98898   8.730   4.595  10.254 -2.8326  0.8958  0.9992
  717MOL0     H98899   8.566   4.632  10.204 -0.1759  1.1795  0.0138
  717MOL0     H98900   8.610   4.474  10.001 -0.7370  1.7191  0.4650
  717MOL0     H98901   8.765   4.447  10.075  0.4013  1.2964 -3.3426
  717MOL0     H98902   8.633   4.368  10.289  3.4948 -2.1355 -0.3100
  717MOL0     H98903   8.496   4.371  10.179  1.0643  2.6428 -1.0152
  717MOL0     H98904   8.696   3.986  10.086 -2.6340 -3.6683 -1.2533
  717MOL0     H98905   8.794   3.795  10.172  0.3887  0.1424  1.8766
  717MOL0     H98906   8.661   3.679  10.163 -0.6813  0.2585  1.2206
  717MOL0     H98907   8.739   3.709  10.313  1.5233  0.4604  0.5820
  717MOL0     H98908   8.610   3.484  10.250 -2.0685  1.9484 -0.7775
  717MOL0     H98909   8.653   3.247  10.365  2.4972  0.2668  1.5954
  717MOL0     H98910   8.407   3.019  10.481 -1.8422  0.9817  3.2501
  717MOL0     H98911   8.586   3.018  10.449 -1.1833  2.4178 -0.7967
  717MOL0     H98912   8.514   2.819  10.578 -2.9349 -1.2683  2.4692
  717MOL0     H98913   8.645   2.928  10.634 -0.1035 -0.3948  1.2972
  717MOL0     H98914   8.343   2.905  10.707  0.3333 -1.6015 -0.0888
  717MOL0     H98915   8.440   3.047  10.767 -1.0053  1.0471 -3.6721
  717MOL0     H98916   8.569   2.800  10.845 -0.9642 -0.7228  0.9941
  717MOL0     H98917   8.393   2.777  10.852 -0.2654 -0.0111  0.0267
  717MOL0     H98918   8.520   3.023  10.977 -2.9409  1.4441 -3.4635
  717MOL0     H98919   8.362   2.960  10.996 -1.1730 -1.0156 -1.6663
  717MOL0     H98920   8.616   2.820  11.097 -0.2993  0.9351 -1.4946
  717MOL0     H98921   8.442   2.764  11.111 -0.5196  1.0138 -1.1054
  717MOL0     H98922   8.413   2.991  11.215  1.5372 -0.6810 -2.9020
  717MOL0     H98923   8.577   2.998  11.260  1.7402 -0.3664 -0.3690
  717MOL0     H98924   8.343   2.817  11.347  0.9109 -0.6466  0.3141
  717MOL0     H98925   8.452   2.917  11.454 -1.4659  0.3121  0.8298
  717MOL0     H98926   8.352   3.328  10.652 -1.3965  1.1448  0.1107
  717MOL0     H98927   8.309   3.561  10.543 -0.7254 -0.8328  1.4321
  717MOL0     H98928   8.418   4.035  10.488 -1.1394  0.7251 -0.4914
  717MOL0     H98929   8.485   4.225  10.382  0.3385  1.1541 -2.4136
  717MOL0     H98930   8.257   6.151  10.208  2.1195 -2.1804 -1.1162
  717MOL0     H98931   8.257   6.371  10.316 -2.1741 -3.3027 -0.6580
  717MOL0     H98932   8.600   6.703  10.555  2.1021  1.4972 -0.8301
  717MOL0     H98933   8.585   6.902  10.662  1.2720 -2.0060 -0.6654
  717MOL0     H98934   8.586   7.230  10.584  0.2009 -4.3159  2.0554
  717MOL0     H98935   8.498   7.209  10.434  2.6500  0.2038  0.3321
  717MOL0     H98936   8.351   7.341  10.678  1.3290 -2.3389  1.8883
  717MOL0     H98937   8.326   7.348  10.503  1.1191 -4.0072  0.5110
  717MOL0     H98938   8.556   7.483  10.635 -2.5720 -2.3346  2.9854
  717MOL0     H98939   8.506   7.487  10.464 -1.6820 -1.5849 -0.4602
  717MOL0     H98940   8.310   7.561  10.685  0.7335  0.9362 -0.0073
  717MOL0     H98941   8.272   7.556  10.521  0.4780  1.9703 -2.2179
  717MOL0     H98942   8.384   7.948  10.550 -1.2920 -0.2517  0.9601
  717MOL0     H98943   8.272   7.048  10.406 -0.7712 -0.4709  2.7834
  717MOL0     H98944   8.228   6.773  10.229  0.5465 -0.4644 -1.7433
  717MOL0     H98945   8.275   6.940  10.174 -0.1192  0.3251  1.8907
  717MOL0     H98946   8.378   6.800  10.138  2.3283 -0.2770  1.8554
  718MOL0     O98947   0.620  11.407   1.105  0.8759  0.0111 -0.2036
  718MOL0     C98948   0.500  11.443   1.096  0.3277 -0.5112  0.1729
  718MOL0     O98949   0.436  11.548   1.166 -0.1060  0.3559  0.1908
  718MOL0     C98950   0.498  11.626   1.255 -0.2659  0.6209  0.9194
  718MOL0     C98951   0.618  11.591   1.325 -0.4600  0.0709  1.0693
  718MOL0     C98952   0.674  11.693   1.408 -0.4687  0.0042  0.2675
  718MOL0     C98953   0.615  11.816   1.432  0.2936 -0.7049  0.5147
  718MOL0     O98954   0.664  11.921   1.503  0.0117  0.0050  0.2797
  718MOL0     C98955   0.682  11.906   1.640  0.0718  0.5305  1.0777
  718MOL0     C98956   0.678  12.054   1.677  0.0957  0.0882 -0.2726
  718MOL0     C98957   0.688  12.061   1.837  0.0755  0.8133  0.1630
  718MOL0     C98958   0.703  12.206   1.893  0.1205  0.7506  0.4338
  718MOL0     C98959   0.843  12.242   1.945 -0.9650  0.0690 -0.4064
  718MOL0     C98960   0.939  12.295   1.830 -0.5181  0.3165 -1.1792
  718MOL0     C98961   1.067  12.364   1.891 -0.0290  0.5013  0.7992
  718MOL0     C98962   1.148  12.282   1.991  0.7802  0.1185 -0.6880
  718MOL0     N98963   1.183  12.150   1.942 -0.3970  0.7809  0.6864
  718MOL0     C98964   1.273  12.118   1.831 -0.5790  0.6198 -0.7179
  718MOL0     C98965   1.283  11.986   1.844  0.8040 -0.4324 -0.5514
  718MOL0     C98966   1.364  11.892   1.771 -0.6397 -0.1048 -0.2317
  718MOL0     C98967   1.368  11.929   1.613  0.6169  0.3708 -1.0785
  718MOL0     C98968   1.419  11.802   1.536 -0.1700 -0.1402 -0.0877
  718MOL0     C98969   1.378  11.807   1.383 -0.1064 -0.2832  0.1619
  718MOL0     O98970   1.420  11.673   1.341 -0.3089 -0.2223 -0.3592
  718MOL0     C98971   1.418  11.666   1.207  0.2822  0.3703  0.1272
  718MOL0     C98972   1.307  11.710   1.132 -0.8357 -0.3892 -0.0766
  718MOL0     C98973   1.310  11.716   0.993 -0.2562 -0.4665  0.2471
  718MOL0     C98974   1.189  11.777   0.933  0.8501  0.2484 -0.5385
  718MOL0     C98975   1.425  11.677   0.919 -0.0368  0.1880 -0.4775
  718MOL0     C98976   1.450  11.689   0.777  0.4035  0.4169 -0.8129
  718MOL0     O98977   1.355  11.749   0.714 -0.4088 -0.1316  0.1639
  718MOL0     C98978   1.351  11.734   0.580 -0.2400 -0.6144  0.2296
  718MOL0     C98979   1.253  11.649   0.528 -0.0803  0.7663 -0.1713
  718MOL0     C98980   1.235  11.627   0.396 -0.2898  0.3636 -0.2707
  718MOL0     C98981   1.294  11.709   0.303 -1.4400  0.3857 -0.6554
  718MOL0     O98982   1.267  11.701   0.170  0.6811 -0.5035  0.6851
  718MOL0     C98983   1.219  11.570   0.124  0.5323 -0.3446 -0.2141
  718MOL0     C98984   1.230  11.564  -0.028 -0.8093  0.1902 -1.0132
  718MOL0     C98985   1.143  11.667  -0.095 -0.2504  0.2961  1.4142
  718MOL0     C98986   1.093  11.613  -0.227 -0.0127 -0.3324 -0.4153
  718MOL0     C98987   0.967  11.704  -0.270 -0.3899  0.7045 -0.6034
  718MOL0     C98988   0.899  11.640  -0.393 -0.1832  0.2820  0.4793
  718MOL0     C98989   0.977  11.631  -0.516 -0.1113  0.8344 -0.4029
  718MOL0     C98990   0.905  11.567  -0.635 -0.5528  0.8960  0.6231
  718MOL0    Cl98991   0.768  11.670  -0.663  0.2095 -0.1641  0.2094
  718MOL0     C98992   1.399  11.798   0.351  0.4134 -0.4295  0.1885
  718MOL0     C98993   1.417  11.818   0.487  0.6009  1.4921 -0.8468
  718MOL0     O98994   1.540  11.618   0.731  0.5819  0.0555  0.2366
  718MOL0     C98995   1.527  11.621   1.003  0.0750  0.6355 -0.0304
  718MOL0     C98996   1.523  11.611   1.147  0.2725  0.0820  0.2029
  718MOL0     N98997   1.207  11.946   1.953  0.2932  0.1477  0.7056
  718MOL0     N98998   1.144  12.039   2.010  0.2276 -1.2229 -0.6775
  718MOL0     C98999   0.492  11.839   1.377 -1.0888 -0.2597  0.0039
  718MOL0     C99000   0.435  11.746   1.284  0.2442  0.1687 -0.1690
  718MOL0     C99001   0.437  11.415   0.960 -1.1017  0.2162  1.3559
  718MOL0     C99002   0.362  11.514   0.903 -1.3181  1.3438 -0.5410
  718MOL0     C99003   0.306  11.507   0.775  0.3330  0.1325 -0.4610
  718MOL0     C99004   0.311  11.382   0.712  0.5367 -1.1802 -0.4800
  718MOL0     O99005   0.255  11.375   0.588  0.9650 -0.1437 -0.1554
  718MOL0     C99006   0.325  11.439   0.480 -0.8066  0.1426 -0.5600
  718MOL0     C99007   0.395  11.334   0.392 -0.3847 -0.7173 -0.5425
  718MOL0     C99008   0.451  11.413   0.266  0.8943  0.1708 -0.1868
  718MOL0     C99009   0.551  11.342   0.172  0.5261 -0.5002  0.2882
  718MOL0     C99010   0.473  11.250   0.080 -0.0283 -0.0324  0.4218
  718MOL0     C99011   0.407  11.175   0.008  0.0873 -0.4435 -0.3862
  718MOL0     C99012   0.377  11.280   0.768 -0.0568  0.1354 -0.6999
  718MOL0     C99013   0.446  11.296   0.884 -0.4065 -0.1845 -0.1438
  718MOL0     C99014   0.513  11.188   0.938  0.0604  0.5246 -0.9904
  718MOL0     H99015   0.662  11.491   1.322 -0.0920  0.2498  0.4311
  718MOL0     H99016   0.765  11.678   1.467  0.1595  2.0379 -0.1256
  718MOL0     H99017   0.776  11.854   1.663 -0.5546 -1.4528 -0.5431
  718MOL0     H99018   0.600  11.853   1.688  0.3463 -0.3694  0.5650
  718MOL0     H99019   0.758  12.113   1.631  1.4649  1.1072  3.1598
  718MOL0     H99020   0.578  12.093   1.653  0.8930  1.5463 -1.4167
  718MOL0     H99021   0.594  12.026   1.882 -0.2752 -0.0923 -1.2237
  718MOL0     H99022   0.769  11.996   1.871 -0.0069  1.2856  1.3021
  718MOL0     H99023   0.667  12.273   1.814 -2.1803  2.0996  2.4446
  718MOL0     H99024   0.630  12.236   1.969  0.4822  0.7573  0.7820
  718MOL0     H99025   0.898  12.159   1.990 -1.2890 -0.3662 -0.8120
  718MOL0     H99026   0.836  12.324   2.018 -0.2898 -0.0746 -0.1703
  718MOL0     H99027   0.948  12.207   1.765 -3.8767 -0.7702 -0.3678
  718MOL0     H99028   0.878  12.372   1.782 -1.6744  0.8727  1.0576
  718MOL0     H99029   1.031  12.458   1.933 -1.8632  0.1077  0.2216
  718MOL0     H99030   1.134  12.396   1.811 -1.5728 -0.8063 -1.1325
  718MOL0     H99031   1.246  12.325   2.014  1.8218 -1.4006 -2.0748
  718MOL0     H99032   1.100  12.278   2.089 -0.1707  0.9060 -1.0943
  718MOL0     H99033   1.317  12.176   1.751 -2.5473 -0.9663 -3.1037
  718MOL0     H99034   1.308  11.798   1.775 -0.0599 -0.4513 -0.0891
  718MOL0     H99035   1.463  11.878   1.815  0.3955 -1.8792 -2.9128
  718MOL0     H99036   1.266  11.937   1.575 -0.4566  0.7889  1.6709
  718MOL0     H99037   1.432  12.015   1.592  2.0445 -1.3760 -4.9260
  718MOL0     H99038   1.526  11.781   1.547 -0.6736 -2.6976  0.5447
  718MOL0     H99039   1.366  11.713   1.571  1.4528 -2.6733 -3.5129
  718MOL0     H99040   1.270  11.823   1.372 -0.0699 -1.3289 -2.6707
  718MOL0     H99041   1.424  11.885   1.321 -1.8470 -1.5806 -2.9623
  718MOL0     H99042   1.222  11.742   1.191 -1.2520 -0.7250 -0.4911
  718MOL0     H99043   1.217  11.875   0.893  1.0310 -0.3092 -1.8175
  718MOL0     H99044   1.106  11.796   1.002  2.0300 -2.7464  1.9658
  718MOL0     H99045   1.148  11.721   0.849 -0.7603  1.7368 -0.8162
  718MOL0     H99046   1.201  11.593   0.605  1.6532 -2.5012 -1.1721
  718MOL0     H99047   1.163  11.547   0.380 -1.1148  0.5485  2.0985
  718MOL0     H99048   1.287  11.497   0.168 -1.0721  0.1887  3.5683
  718MOL0     H99049   1.118  11.546   0.160 -0.6698  2.5876 -1.2820
  718MOL0     H99050   1.332  11.594  -0.054 -1.7696  2.6910 -2.2221
  718MOL0     H99051   1.206  11.461  -0.056 -2.2787  0.6388 -1.4904
  718MOL0     H99052   1.190  11.765  -0.104  2.5460 -1.1133 -1.6186
  718MOL0     H99053   1.052  11.664  -0.034  0.2714 -3.6218  2.2627
  718MOL0     H99054   1.051  11.512  -0.225 -2.0677  0.4663 -0.1148
  718MOL0     H99055   1.172  11.615  -0.302  2.1488  1.4323  1.7744
  718MOL0     H99056   0.898  11.703  -0.185 -1.0873  2.1960 -1.1212
  718MOL0     H99057   0.999  11.809  -0.274  2.4418 -0.1131 -1.4367
  718MOL0     H99058   0.821  11.714  -0.407 -0.3808  0.4053  2.1049
  718MOL0     H99059   0.857  11.541  -0.374  2.6714 -1.1562 -0.0592
  718MOL0     H99060   1.068  11.574  -0.497  1.8096  3.4334 -1.2828
  718MOL0     H99061   1.014  11.730  -0.545  3.1240 -0.0967  0.2076
  718MOL0     H99062   0.856  11.470  -0.619 -0.0547  0.2793 -1.3263
  718MOL0     H99063   0.977  11.560  -0.717 -1.0249  0.3303  0.2501
  718MOL0     H99064   1.459  11.862   0.287  1.5235 -3.5752 -2.1901
  718MOL0     H99065   1.485  11.886   0.536  2.0703 -0.8500  0.5985
  718MOL0     H99066   1.612  11.571   0.958 -1.5376 -0.2314 -2.3240
  718MOL0     H99067   1.597  11.581   1.220 -2.2102 -0.3365  2.7074
  718MOL0     H99068   0.448  11.938   1.377 -2.6016 -0.8866  0.7470
  718MOL0     H99069   0.337  11.774   1.247 -0.1465  1.2061  1.5500
  718MOL0     H99070   0.352  11.615   0.941 -4.1649  0.9339  0.0915
  718MOL0     H99071   0.236  11.586   0.751 -2.5209 -1.5164  1.8302
  718MOL0     H99072   0.252  11.498   0.425 -2.2154 -1.5417 -0.5729
  718MOL0     H99073   0.395  11.511   0.525  1.9820 -1.7826 -1.5118
  718MOL0     H99074   0.325  11.253   0.369 -1.0918  0.0073 -1.0331
  718MOL0     H99075   0.479  11.298   0.452  0.6870 -0.4377 -1.8314
  718MOL0     H99076   0.358  11.442   0.218  1.0820  1.4959  0.2272
  718MOL0     H99077   0.491  11.510   0.298  1.0964  0.2942 -0.8089
  718MOL0     H99078   0.617  11.285   0.238  1.7015  1.1977  0.6148
  718MOL0     H99079   0.610  11.411   0.111  1.6902 -1.6272  0.0896
  718MOL0     H99080   0.356  11.111  -0.062  0.2811  0.3838 -1.3119
  718MOL0     H99081   0.387  11.189   0.710  1.7966  0.2015 -0.5345
  718MOL0     H99082   0.479  11.184   1.042 -0.8104  0.5317 -1.2732
  718MOL0     H99083   0.478  11.095   0.893 -1.8711 -0.6483  2.5663
  718MOL0     H99084   0.622  11.199   0.928  0.2250  0.9440  0.8041
  719MOL0     O99085   2.162   3.993   4.575  0.0542  0.6153 -0.8054
  719MOL0     C99086   2.124   3.982   4.688  0.3391  0.3997  0.6191
  719MOL0     O99087   2.186   3.899   4.775 -0.4436 -0.8465  0.0791
  719MOL0     C99088   2.314   3.862   4.749  0.4649 -0.0540  0.3638
  719MOL0     C99089   2.329   3.719   4.732 -0.0287  0.6126  0.4897
  719MOL0     C99090   2.464   3.673   4.718  0.0172 -0.3548  0.1873
  719MOL0     C99091   2.573   3.756   4.717  0.1026  0.1893  0.5617
  719MOL0     O99092   2.694   3.701   4.714 -0.0674 -0.0785  0.4880
  719MOL0     C99093   2.811   3.791   4.725 -0.7572  0.5524 -0.1739
  719MOL0     C99094   2.942   3.721   4.711  1.1129  0.3397  0.7824
  719MOL0     C99095   2.959   3.618   4.820  0.1905  1.0038  0.8314
  719MOL0     C99096   3.082   3.539   4.791  0.1070 -0.3163 -0.3799
  719MOL0     C99097   3.206   3.623   4.769 -0.6630 -0.9141 -0.6063
  719MOL0     C99098   3.236   3.701   4.891 -1.1852  0.1957  0.4568
  719MOL0     C99099   3.389   3.729   4.909  0.7023  0.4487 -0.5885
  719MOL0     C99100   3.412   3.827   5.021 -0.3750 -0.4283  0.5859
  719MOL0     N99101   3.561   3.861   5.018  0.1715 -0.0904 -0.3709
  719MOL0     C99102   3.612   3.993   4.988  0.4570  0.7195  0.0555
  719MOL0     C99103   3.721   4.000   5.050 -0.5602 -0.1480  0.1314
  719MOL0     C99104   3.817   4.116   5.031  0.0472  0.2057  0.1659
  719MOL0     C99105   3.781   4.246   5.108  0.1625  0.6748  0.3544
  719MOL0     C99106   3.910   4.327   5.110 -0.4858 -0.0698  0.0397
  719MOL0     C99107   3.902   4.424   5.222 -0.1375 -0.4708  0.3993
  719MOL0     O99108   3.957   4.364   5.344  0.2054 -0.2208  0.3758
  719MOL0     C99109   4.081   4.399   5.390  0.0914 -0.3569 -0.3161
  719MOL0     C99110   4.183   4.438   5.296  0.5983  0.2181 -0.7912
  719MOL0     C99111   4.301   4.490   5.342 -0.2370  0.7464  0.1193
  719MOL0     C99112   4.393   4.528   5.230 -0.5587 -1.4305  0.1439
  719MOL0     C99113   4.324   4.499   5.483  0.1984  0.8011  0.3972
  719MOL0     C99114   4.451   4.545   5.540 -0.8718 -0.4794  0.4580
  719MOL0     O99115   4.473   4.509   5.664 -0.5048  0.1984 -0.3488
  719MOL0     C99116   4.609   4.506   5.712 -0.4550  0.4808  0.9771
  719MOL0     C99117   4.691   4.386   5.712 -0.0781 -0.5698  0.0319
  719MOL0     C99118   4.823   4.401   5.757 -0.0731 -0.0804  0.6459
  719MOL0     C99119   4.872   4.523   5.804  0.0188 -0.3576  0.0426
  719MOL0     O99120   5.005   4.524   5.842 -0.7183  0.3958  0.4990
  719MOL0     C99121   5.095   4.513   5.735 -0.2151  0.2177  1.0763
  719MOL0     C99122   5.244   4.506   5.783 -0.3687  0.0986 -0.6984
  719MOL0     C99123   5.354   4.499   5.678  0.6368 -0.0697 -0.9443
  719MOL0     C99124   5.346   4.608   5.571 -0.8384 -0.2950  0.4742
  719MOL0     C99125   5.259   4.582   5.450 -0.2902  0.0202 -0.1137
  719MOL0     C99126   5.311   4.677   5.340  0.3058  0.0420 -0.1978
  719MOL0     C99127   5.436   4.632   5.266  0.5228  0.1500  0.2210
  719MOL0     C99128   5.503   4.736   5.180 -0.1312  0.1584 -0.6954
  719MOL0    Cl99129   5.680   4.737   5.189 -0.2230 -0.1312 -0.2003
  719MOL0     C99130   4.787   4.632   5.811 -0.4274  0.3737 -0.1302
  719MOL0     C99131   4.662   4.623   5.769  0.3224 -0.0765  0.1245
  719MOL0     O99132   4.519   4.628   5.482  0.2749 -0.4618 -0.5389
  719MOL0     C99133   4.224   4.455   5.573  0.0674 -0.5252  0.6305
  719MOL0     C99134   4.108   4.402   5.528  1.5635 -0.5641 -0.6949
  719MOL0     N99135   3.746   3.891   5.125  0.3460 -0.1507 -1.1004
  719MOL0     N99136   3.654   3.801   5.105 -0.4615  0.2577  0.8148
  719MOL0     C99137   2.548   3.897   4.722  0.9808  0.4745  0.1456
  719MOL0     C99138   2.420   3.950   4.739 -0.4145  0.9617  0.0336
  719MOL0     C99139   1.994   4.030   4.723  0.7170 -0.1639  0.2304
  719MOL0     C99140   1.924   3.963   4.828 -0.4754 -0.6754 -0.5013
  719MOL0     C99141   1.810   4.028   4.882 -0.6962 -0.2397 -0.6584
  719MOL0     C99142   1.746   4.141   4.823  0.2933 -0.2439  0.4184
  719MOL0     O99143   1.631   4.193   4.870  0.3829  0.0142 -0.0044
  719MOL0     C99144   1.570   4.158   4.998  0.0185  0.4970 -0.3776
  719MOL0     C99145   1.471   4.267   5.041 -0.0866  0.0119 -0.6808
  719MOL0     C99146   1.545   4.392   5.087 -1.0630  0.6152 -0.3971
  719MOL0     C99147   1.462   4.508   5.043  0.6383  0.0267  0.0866
  719MOL0     C99148   1.520   4.636   5.074 -0.5312  0.1389  0.6018
  719MOL0     C99149   1.576   4.741   5.102  0.3368  0.0223 -0.4177
  719MOL0     C99150   1.813   4.203   4.717 -0.8012  0.9708  0.7813
  719MOL0     C99151   1.936   4.147   4.669  0.1906 -1.0278  0.0070
  719MOL0     C99152   1.992   4.234   4.552  0.5327  0.7646  0.5040
  719MOL0     H99153   2.245   3.651   4.740  1.5902 -1.8989 -1.9887
  719MOL0     H99154   2.496   3.570   4.700  2.0711  0.0427  1.2383
  719MOL0     H99155   2.822   3.831   4.826  1.2582  1.1965 -0.6024
  719MOL0     H99156   2.806   3.873   4.653 -0.4956  1.7238  1.1206
  719MOL0     H99157   2.947   3.672   4.613 -1.6179  1.8497 -0.2319
  719MOL0     H99158   3.019   3.799   4.708  0.3859  1.3520 -5.3727
  719MOL0     H99159   2.953   3.670   4.916 -3.9309 -0.2988  1.4714
  719MOL0     H99160   2.875   3.548   4.826  0.2438  0.8138 -0.3477
  719MOL0     H99161   3.107   3.459   4.861  1.6269 -0.4991 -1.0831
  719MOL0     H99162   3.065   3.498   4.692  0.3575 -0.0048 -0.5551
  719MOL0     H99163   3.194   3.693   4.686 -0.7121  2.6372  2.1589
  719MOL0     H99164   3.284   3.553   4.740 -0.2928 -0.7777  0.0290
  719MOL0     H99165   3.178   3.793   4.882 -0.0081  0.8712 -0.4452
  719MOL0     H99166   3.210   3.637   4.976  0.0821 -0.4941  0.3432
  719MOL0     H99167   3.432   3.766   4.815 -1.9685  0.6304 -1.8324
  719MOL0     H99168   3.429   3.631   4.935 -0.7711 -0.1499 -0.4700
  719MOL0     H99169   3.346   3.913   5.009  0.1170  0.1365  1.8585
  719MOL0     H99170   3.389   3.787   5.120  0.9907  0.8302  1.4572
  719MOL0     H99171   3.556   4.070   4.937 -2.8237 -1.7535 -0.4266
  719MOL0     H99172   3.817   4.149   4.927  0.2556  3.7922  1.1800
  719MOL0     H99173   3.921   4.089   5.053  0.5847  2.3485  0.4226
  719MOL0     H99174   3.693   4.294   5.065  0.3215  3.3667  2.7378
  719MOL0     H99175   3.752   4.210   5.207  1.4303 -2.0683 -0.1728
  719MOL0     H99176   3.992   4.259   5.133 -1.7610 -1.3960  0.8078
  719MOL0     H99177   3.926   4.378   5.015 -0.2085 -1.6305 -0.7864
  719MOL0     H99178   3.945   4.521   5.198  1.3262 -1.1569  0.1582
  719MOL0     H99179   3.796   4.444   5.240 -1.0244  0.8600 -4.6592
  719MOL0     H99180   4.161   4.423   5.190 -1.0264 -2.3809 -0.1693
  719MOL0     H99181   4.499   4.511   5.253  0.7319  1.8595 -2.4620
  719MOL0     H99182   4.379   4.633   5.202  1.4653 -1.3534 -0.8129
  719MOL0     H99183   4.380   4.474   5.136  1.3966 -0.5731 -0.6864
  719MOL0     H99184   4.670   4.289   5.667 -1.2376 -0.9588  1.3249
  719MOL0     H99185   4.896   4.321   5.751  0.7011  0.6570 -0.0927
  719MOL0     H99186   5.073   4.423   5.677 -2.4701 -1.3908  4.1706
  719MOL0     H99187   5.071   4.598   5.671  0.2877 -1.1288 -1.0012
  719MOL0     H99188   5.252   4.590   5.853 -0.6211 -1.3622  1.1821
  719MOL0     H99189   5.266   4.419   5.845  1.9715  2.7590  2.6169
  719MOL0     H99190   5.338   4.399   5.639 -2.8665  0.0029 -0.0552
  719MOL0     H99191   5.448   4.504   5.734 -0.7167 -0.2153  1.4990
  719MOL0     H99192   5.451   4.623   5.547 -0.2037 -0.6130  2.8248
  719MOL0     H99193   5.320   4.708   5.609  2.2659  1.0838 -0.7415
  719MOL0     H99194   5.266   4.480   5.412  0.4164 -0.2561  0.7209
  719MOL0     H99195   5.154   4.607   5.466  0.7898  2.5797  5.4014
  719MOL0     H99196   5.327   4.772   5.392  1.6000  0.3534 -1.1247
  719MOL0     H99197   5.230   4.698   5.270  0.1338  0.8338  0.2244
  719MOL0     H99198   5.394   4.551   5.206 -0.1042 -0.6611  1.6922
  719MOL0     H99199   5.507   4.584   5.335  1.0479 -2.9551 -2.2661
  719MOL0     H99200   5.475   4.837   5.211  2.4657  0.5116  0.7694
  719MOL0     H99201   5.473   4.727   5.075  0.4104  0.2626 -0.8644
  719MOL0     H99202   4.818   4.725   5.858  0.2189 -0.0947  0.3801
  719MOL0     H99203   4.600   4.711   5.776  0.3215 -0.1418  1.2859
  719MOL0     H99204   4.237   4.473   5.680 -0.1608  0.1356  0.5514
  719MOL0     H99205   4.023   4.382   5.592  1.1661 -1.2333 -1.4158
  719MOL0     H99206   2.631   3.967   4.724  1.5720 -0.2192  1.4195
  719MOL0     H99207   2.410   4.056   4.757  1.2391  1.0392  0.6587
  719MOL0     H99208   1.958   3.868   4.869  1.0420  0.3980  0.8675
  719MOL0     H99209   1.752   3.980   4.960 -4.2731  2.7440 -1.2433
  719MOL0     H99210   1.514   4.064   4.994 -0.8643  1.0212 -0.6818
  719MOL0     H99211   1.646   4.148   5.076 -2.4415 -0.0390  2.1040
  719MOL0     H99212   1.395   4.229   5.111 -0.7659 -0.5414 -1.6928
  719MOL0     H99213   1.426   4.282   4.943 -0.3178  1.2194 -0.4033
  719MOL0     H99214   1.550   4.397   5.196 -0.3922  0.8684 -0.4368
  719MOL0     H99215   1.638   4.417   5.034 -0.6536  1.1070  0.5280
  719MOL0     H99216   1.368   4.500   5.096 -0.6455  3.1837 -1.4364
  719MOL0     H99217   1.439   4.498   4.936  1.8412  1.6624 -0.3835
  719MOL0     H99218   1.617   4.836   5.129 -0.5825  0.0854  0.8744
  719MOL0     H99219   1.778   4.288   4.659 -1.4321 -2.4953 -4.7425
  719MOL0     H99220   1.940   4.330   4.544 -2.8726 -1.0229 -0.7111
  719MOL0     H99221   2.099   4.255   4.559  0.6202  0.1931  0.9285
  719MOL0     H99222   1.967   4.181   4.460  0.1173 -1.1918  1.6880
  720MOL0     O99223   1.949   9.404   3.840  0.1805  0.9945 -0.5653
  720MOL0     C99224   1.874   9.488   3.799 -0.5578  0.1182  0.5794
  720MOL0     O99225   1.878   9.619   3.843  0.0480 -1.0537  0.2488
  720MOL0     C99226   1.979   9.647   3.933 -0.0302 -0.0909  0.5476
  720MOL0     C99227   2.107   9.638   3.882 -0.0412 -0.4711  0.2033
  720MOL0     C99228   2.220   9.668   3.967  0.1588 -0.2452 -0.7041
  720MOL0     C99229   2.196   9.704   4.100  0.9151  0.5639 -0.7072
  720MOL0     O99230   2.297   9.746   4.176 -0.0875  0.2404  0.1524
  720MOL0     C99231   2.273   9.808   4.311  0.6041 -0.2811 -0.7008
  720MOL0     C99232   2.376   9.907   4.346 -0.4643 -0.5041 -0.1863
  720MOL0     C99233   2.367   9.938   4.495 -0.5371  0.3393 -0.1841
  720MOL0     C99234   2.479  10.029   4.541 -0.3846  0.7591 -0.5480
  720MOL0     C99235   2.588   9.943   4.612 -0.1904  0.2600 -0.4798
  720MOL0     C99236   2.716  10.022   4.629  0.0545  0.3640 -0.2105
  720MOL0     C99237   2.735  10.087   4.775  0.3784  0.3529 -0.1192
  720MOL0     C99238   2.843  10.192   4.780  0.9141 -0.6493 -0.3725
  720MOL0     N99239   2.781  10.311   4.717 -0.3572 -0.7570  0.1735
  720MOL0     C99240   2.698  10.396   4.781 -0.4762  0.5007 -0.0696
  720MOL0     C99241   2.647  10.471   4.686  0.3291  0.3387  0.9924
  720MOL0     C99242   2.535  10.584   4.693  0.1649  0.5188  0.1695
  720MOL0     C99243   2.593  10.712   4.765 -0.2878 -0.3390 -0.9596
  720MOL0     C99244   2.732  10.761   4.713 -0.3223  0.0142  0.2670
  720MOL0     C99245   2.783  10.874   4.797  0.1328  0.2612 -0.9326
  720MOL0     O99246   2.892  10.821   4.882 -0.2199 -0.3656  0.1462
  720MOL0     C99247   2.978  10.902   4.945  0.2749  0.0463  0.5456
  720MOL0     C99248   2.956  11.046   4.948  0.3112  0.3533  0.1919
  720MOL0     C99249   3.039  11.129   5.028 -0.2913 -0.2745  0.4164
  720MOL0     C99250   3.013  11.281   5.045  0.7804 -0.2317  0.2730
  720MOL0     C99251   3.153  11.075   5.087 -0.2488  1.0355  0.0230
  720MOL0     C99252   3.247  11.140   5.182  0.4042  0.7471 -0.0805
  720MOL0     O99253   3.372  11.089   5.171  0.2548 -0.3013 -0.4415
  720MOL0     C99254   3.461  11.149   5.256 -0.3169  0.5993  0.4764
  720MOL0     C99255   3.562  11.209   5.184  0.7203  0.1301 -0.6673
  720MOL0     C99256   3.669  11.252   5.252 -0.4761  0.4122  0.3318
  720MOL0     C99257   3.669  11.261   5.394  0.1785 -0.5643  1.0925
  720MOL0     O99258   3.771  11.313   5.473  0.6773  0.6214 -0.4539
  720MOL0     C99259   3.901  11.313   5.419  0.0999  0.1450 -0.1894
  720MOL0     C99260   3.945  11.447   5.349 -0.5099  1.0240  0.2392
  720MOL0     C99261   4.078  11.440   5.269 -0.4298  1.0466  0.4213
  720MOL0     C99262   4.189  11.418   5.374  0.0565 -0.7385  0.2678
  720MOL0     C99263   4.328  11.457   5.308  0.6675  0.5573 -0.0073
  720MOL0     C99264   4.382  11.359   5.201 -0.0770  0.0334 -0.2611
  720MOL0     C99265   4.469  11.437   5.099 -0.7062 -0.3063 -0.1268
  720MOL0     C99266   4.550  11.348   5.004 -0.1607 -0.8108 -1.3054
  720MOL0    Cl99267   4.612  11.447   4.871 -0.1724 -0.0249  0.1246
  720MOL0     C99268   3.561  11.197   5.462  0.1636 -0.9571  0.2113
  720MOL0     C99269   3.459  11.134   5.392  0.5401 -0.1909 -0.1323
  720MOL0     O99270   3.201  11.227   5.253 -0.0574 -0.4194 -0.7612
  720MOL0     C99271   3.177  10.929   5.077  1.1360  0.6229 -0.3921
  720MOL0     C99272   3.089  10.848   5.008 -0.0890  0.2896 -0.1507
  720MOL0     N99273   2.720  10.444   4.566 -0.4188 -0.1064 -0.2016
  720MOL0     N99274   2.800  10.348   4.586  0.2412 -0.4365  0.7928
  720MOL0     C99275   2.061   9.708   4.140  0.7914  0.6148 -0.3272
  720MOL0     C99276   1.949   9.674   4.060  0.0416 -0.8820 -0.4988
  720MOL0     C99277   1.772   9.459   3.685  0.3414 -0.1164 -0.2088
  720MOL0     C99278   1.705   9.559   3.625  0.0609 -1.2024 -0.0952
  720MOL0     C99279   1.595   9.544   3.534  0.6456  0.8063  0.5843
  720MOL0     C99280   1.564   9.408   3.504 -0.1386  0.5631 -0.9879
  720MOL0     O99281   1.473   9.368   3.412  0.2163  0.2127  0.0683
  720MOL0     C99282   1.364   9.297   3.469 -0.4039 -0.6334 -0.6996
  720MOL0     C99283   1.349   9.150   3.417 -0.1592  0.0243  0.4849
  720MOL0     C99284   1.279   9.051   3.511 -0.6873 -0.3054 -0.2573
  720MOL0     C99285   1.304   8.908   3.470 -0.0503  0.5216 -0.0560
  720MOL0     C99286   1.201   8.865   3.376 -0.5896 -0.2781  0.4182
  720MOL0     C99287   1.123   8.792   3.316  0.8024  0.5395  0.4495
  720MOL0     C99288   1.636   9.306   3.566 -0.3080 -0.6485  1.0004
  720MOL0     C99289   1.740   9.329   3.650 -0.1172 -0.3366 -0.4958
  720MOL0     C99290   1.790   9.197   3.714 -0.6637  0.1870  0.3434
  720MOL0     H99291   2.130   9.612   3.779 -0.6521 -0.0887 -0.0330
  720MOL0     H99292   2.316   9.671   3.918  1.1936 -3.5232  0.8432
  720MOL0     H99293   2.290   9.724   4.379  0.6113  1.2820  1.3284
  720MOL0     H99294   2.174   9.847   4.334  1.5319  1.7508  0.1312
  720MOL0     H99295   2.472   9.861   4.324  0.4583  1.4175 -0.3819
  720MOL0     H99296   2.365  10.000   4.290  3.6313  0.4052  0.2360
  720MOL0     H99297   2.278  10.001   4.511  0.1594  1.3571 -0.2455
  720MOL0     H99298   2.361   9.839   4.542  3.1097  0.3680  0.6094
  720MOL0     H99299   2.514  10.080   4.450 -0.4741 -0.6449 -1.4001
  720MOL0     H99300   2.447  10.110   4.608  0.6684 -0.1205  1.0996
  720MOL0     H99301   2.610   9.866   4.538 -2.8877  0.6525 -1.8156
  720MOL0     H99302   2.537   9.902   4.700 -0.6077 -0.6227 -1.1244
  720MOL0     H99303   2.804   9.957   4.623 -0.5788 -0.4003 -4.6671
  720MOL0     H99304   2.729  10.095   4.549 -0.8270  3.1830  2.0488
  720MOL0     H99305   2.756  10.006   4.845 -2.4581 -2.0301 -1.8221
  720MOL0     H99306   2.642  10.129   4.815 -0.1295  1.1144 -2.0038
  720MOL0     H99307   2.879  10.204   4.883 -0.2294  0.3396 -0.0622
  720MOL0     H99308   2.937  10.167   4.729 -0.4729 -3.6649 -1.6938
  720MOL0     H99309   2.669  10.383   4.885 -0.0917 -3.1840 -0.2912
  720MOL0     H99310   2.463  10.541   4.764  2.2857 -0.3495  1.9318
  720MOL0     H99311   2.478  10.589   4.600 -0.2011 -1.2759  0.2616
  720MOL0     H99312   2.523  10.797   4.766  0.4230  0.2880  1.1451
  720MOL0     H99313   2.609  10.687   4.870  2.4014  2.2238 -0.6252
  720MOL0     H99314   2.796  10.672   4.713  0.5399  0.5985 -1.1077
  720MOL0     H99315   2.718  10.796   4.610 -2.0630  2.5060  1.2565
  720MOL0     H99316   2.832  10.950   4.736  1.8402  0.2254  0.3064
  720MOL0     H99317   2.699  10.914   4.855  1.6358  3.2944 -0.6478
  720MOL0     H99318   2.868  11.093   4.905  1.0202  1.0913 -0.5065
  720MOL0     H99319   2.979  11.305   5.146 -0.4006 -0.1669 -0.1169
  720MOL0     H99320   2.940  11.300   4.965  1.4925 -1.8568 -0.8068
  720MOL0     H99321   3.096  11.341   5.007 -0.5368  2.3412  1.1818
  720MOL0     H99322   3.561  11.211   5.076 -4.7545  0.5841 -0.8582
  720MOL0     H99323   3.757  11.273   5.191 -2.2443  1.2550 -2.1163
  720MOL0     H99324   3.966  11.270   5.495  0.1857  0.8295  0.1288
  720MOL0     H99325   3.902  11.236   5.342  1.3076  1.8341 -1.9593
  720MOL0     H99326   3.873  11.473   5.271 -2.6670  0.4940  1.9611
  720MOL0     H99327   3.946  11.525   5.427  1.7598  1.9090 -0.5690
  720MOL0     H99328   4.083  11.535   5.216 -0.2430  0.7227 -0.1534
  720MOL0     H99329   4.075  11.359   5.196  0.3633  1.5370 -0.1710
  720MOL0     H99330   4.187  11.314   5.409 -1.2564 -0.3500  1.4315
  720MOL0     H99331   4.182  11.495   5.452  0.5633  0.1721 -0.5592
  720MOL0     H99332   4.314  11.556   5.262  0.0229 -0.1067 -1.3175
  720MOL0     H99333   4.400  11.477   5.387 -0.7792 -0.0063  1.5037
  720MOL0     H99334   4.293  11.316   5.154  0.3800 -1.0703 -0.1320
  720MOL0     H99335   4.432  11.288   5.268 -2.6738  1.0958  3.0699
  720MOL0     H99336   4.540  11.500   5.152  1.8243 -0.6540 -2.8062
  720MOL0     H99337   4.411  11.502   5.033  1.1113  2.6669  1.0164
  720MOL0     H99338   4.483  11.267   4.974  0.7365 -1.1045 -2.6214
  720MOL0     H99339   4.629  11.292   5.053  4.2082  3.9388 -2.1347
  720MOL0     H99340   3.547  11.206   5.569 -0.0880 -0.7522  0.1593
  720MOL0     H99341   3.371  11.077   5.421  1.2825 -1.8142 -0.9066
  720MOL0     H99342   3.260  10.891   5.136  0.7437  3.9591  2.6996
  720MOL0     H99343   3.104  10.741   5.007 -0.0140  0.2780 -2.5142
  720MOL0     H99344   2.043   9.729   4.245  2.8053  0.4206  0.0983
  720MOL0     H99345   1.847   9.677   4.098 -1.1123  1.1075 -3.4105
  720MOL0     H99346   1.733   9.662   3.645 -0.0631 -1.0932 -0.4854
  720MOL0     H99347   1.533   9.620   3.489  1.3380  1.5612  0.8894
  720MOL0     H99348   1.378   9.295   3.577 -0.0923 -1.5760 -0.7497
  720MOL0     H99349   1.272   9.355   3.450 -0.6738 -0.8089  0.0286
  720MOL0     H99350   1.449   9.121   3.384 -0.0390  1.6820 -0.7550
  720MOL0     H99351   1.293   9.151   3.323 -0.2649 -0.7135  0.5322
  720MOL0     H99352   1.322   9.068   3.610 -0.0262  0.3493 -0.6338
  720MOL0     H99353   1.171   9.064   3.521 -0.7615 -2.0182  1.7102
  720MOL0     H99354   1.300   8.843   3.558  0.1475  1.0865  0.3865
  720MOL0     H99355   1.404   8.892   3.429  0.1981  1.2407  0.2499
  720MOL0     H99356   1.059   8.731   3.255 -2.2707  2.7022  1.2794
  720MOL0     H99357   1.610   9.203   3.548  3.8428 -1.5117 -1.2400
  720MOL0     H99358   1.744   9.108   3.671  0.6768  1.2511 -3.7528
  720MOL0     H99359   1.899   9.185   3.719 -0.9743 -4.1555  0.7163
  720MOL0     H99360   1.750   9.205   3.815  0.9896 -0.1193  1.0622
  721MOL0     O99361   3.339  10.718   7.222  0.4484  0.3162 -0.0121
  721MOL0     C99362   3.327  10.807   7.299 -0.5443 -0.0782 -0.7615
  721MOL0     O99363   3.230  10.818   7.393 -0.1232  0.1971  0.7087
  721MOL0     C99364   3.139  10.725   7.379  0.2888  0.5304  0.5975
  721MOL0     C99365   3.017  10.743   7.310  0.6653 -0.4537 -0.2770
  721MOL0     C99366   2.933  10.626   7.302 -0.7636  0.9755  0.4879
  721MOL0     C99367   2.964  10.506   7.374 -0.1796  0.6729  0.7186
  721MOL0     O99368   2.883  10.398   7.397 -0.5784 -0.5970 -0.1701
  721MOL0     C99369   2.741  10.424   7.410  1.3716 -0.0141 -0.6005
  721MOL0     C99370   2.651  10.295   7.443  0.7377  0.2675  0.0753
  721MOL0     C99371   2.692  10.216   7.566  0.4914  0.3750 -0.6916
  721MOL0     C99372   2.723  10.060   7.529 -0.1661 -1.2237 -0.1687
  721MOL0     C99373   2.844  10.016   7.619 -0.4003  0.0740 -0.5129
  721MOL0     C99374   2.813   9.999   7.767  1.0902  0.5874 -0.7852
  721MOL0     C99375   2.682   9.920   7.795  0.0710  0.8678  0.3291
  721MOL0     C99376   2.687   9.879   7.940 -0.6773  0.6253  0.7793
  721MOL0     N99377   2.555   9.837   7.995 -0.1342 -0.1419 -0.2956
  721MOL0     C99378   2.482   9.920   8.076 -0.0514  0.3996 -0.1205
  721MOL0     C99379   2.361   9.858   8.090 -0.2349 -0.6663  0.6675
  721MOL0     C99380   2.255   9.909   8.181 -0.5353 -0.0407 -0.1560
  721MOL0     C99381   2.308   9.932   8.332  0.4916  1.1001 -0.2392
  721MOL0     C99382   2.190   9.960   8.424 -0.2811 -0.4584  0.5468
  721MOL0     C99383   2.256   9.986   8.559 -0.3121  0.5392  0.6465
  721MOL0     O99384   2.304   9.858   8.615  0.1059 -0.7701  0.2972
  721MOL0     C99385   2.349   9.856   8.750  0.4554 -0.1513 -0.6255
  721MOL0     C99386   2.377   9.729   8.800 -0.2915  0.2130 -0.2910
  721MOL0     C99387   2.410   9.706   8.943  1.2773  0.9926  0.0249
  721MOL0     C99388   2.404   9.557   8.980  0.6590 -0.0502  0.2981
  721MOL0     C99389   2.431   9.820   9.027  0.6069  0.6935  0.2930
  721MOL0     C99390   2.450   9.801   9.170  0.3342  0.4201 -0.0230
  721MOL0     O99391   2.511   9.679   9.216 -0.0318  0.7585  0.2918
  721MOL0     C99392   2.543   9.666   9.350  0.0698 -0.4028 -0.5764
  721MOL0     C99393   2.666   9.600   9.397  0.7294 -0.2594  0.0425
  721MOL0     C99394   2.697   9.595   9.528  0.4736 -0.1692 -1.0162
  721MOL0     C99395   2.603   9.641   9.626  0.2624 -0.4078 -0.8896
  721MOL0     O99396   2.619   9.622   9.762  0.6176  0.5813  0.0039
  721MOL0     C99397   2.720   9.521   9.797  0.0385 -0.0380  0.1141
  721MOL0     C99398   2.688   9.477   9.935  0.2070 -0.6237 -1.1691
  721MOL0     C99399   2.731   9.583  10.041  0.6998 -0.0169  1.0370
  721MOL0     C99400   2.839   9.538  10.142 -0.1185  0.7841 -0.0294
  721MOL0     C99401   2.771   9.486  10.269 -0.0605 -0.3771  0.0090
  721MOL0     C99402   2.876   9.425  10.359 -0.1180 -0.9665 -0.9335
  721MOL0     C99403   2.804   9.343  10.473  0.1110  0.8887 -0.3156
  721MOL0     C99404   2.915   9.255  10.542  0.4874 -0.3878 -0.5150
  721MOL0    Cl99405   2.823   9.135  10.643  0.3831 -0.6309  0.2847
  721MOL0     C99406   2.482   9.693   9.588 -0.5263 -0.5364 -0.5430
  721MOL0     C99407   2.458   9.713   9.452 -0.6106  0.8132 -0.1954
  721MOL0     O99408   2.424   9.899   9.239  0.7365  0.2226 -0.5508
  721MOL0     C99409   2.419   9.945   8.968 -0.7524  0.5657  0.1345
  721MOL0     C99410   2.384   9.960   8.834 -0.0781  0.1031  0.7797
  721MOL0     N99411   2.372   9.740   8.028 -0.8343  0.1985  0.7005
  721MOL0     N99412   2.496   9.717   7.981 -0.6613  0.6192 -0.1605
  721MOL0     C99413   3.091  10.491   7.434  0.5991  0.8466 -1.2939
  721MOL0     C99414   3.171  10.603   7.437  0.0749 -0.2272  1.3454
  721MOL0     C99415   3.418  10.925   7.308  0.1383 -0.0147 -0.0571
  721MOL0     C99416   3.371  11.053   7.348  0.8554 -0.4059  0.3468
  721MOL0     C99417   3.451  11.167   7.366 -0.5271  0.2953 -0.8817
  721MOL0     C99418   3.581  11.161   7.328  0.1609  0.2342 -0.8701
  721MOL0     O99419   3.672  11.261   7.319 -0.7933  0.3888 -0.0504
  721MOL0     C99420   3.640  11.395   7.371  0.7224  0.1977  1.0147
  721MOL0     C99421   3.755  11.475   7.433  0.1599  0.0131  0.6776
  721MOL0     C99422   3.858  11.533   7.330  0.8530  0.3046 -1.2048
  721MOL0     C99423   3.987  11.588   7.400 -0.1397 -0.6365 -1.1499
  721MOL0     C99424   3.985  11.733   7.443  0.0660 -0.5625  0.9583
  721MOL0     C99425   3.986  11.848   7.490  0.7016  0.0259 -0.4215
  721MOL0     C99426   3.635  11.038   7.291 -0.5162  0.4196 -0.0441
  721MOL0     C99427   3.556  10.926   7.279 -0.9812  1.2474 -0.1552
  721MOL0     C99428   3.622  10.806   7.239 -0.2524  0.4054 -1.0034
  721MOL0     H99429   3.000  10.838   7.261 -0.8074  0.7453  2.3740
  721MOL0     H99430   2.833  10.628   7.260 -1.4438 -0.7160  1.8729
  721MOL0     H99431   2.708  10.466   7.314 -0.0072 -0.3624 -0.3019
  721MOL0     H99432   2.717  10.505   7.479 -0.7582  0.8239 -2.2111
  721MOL0     H99433   2.552  10.337   7.460 -0.0131 -1.2177 -0.4492
  721MOL0     H99434   2.654  10.224   7.359 -0.1774 -0.2464  0.4536
  721MOL0     H99435   2.779  10.264   7.613 -0.0504 -1.0231  1.9703
  721MOL0     H99436   2.610  10.205   7.637  0.0757 -1.5817 -1.3907
  721MOL0     H99437   2.625  10.012   7.536 -2.3845  3.0619  1.9273
  721MOL0     H99438   2.765  10.074   7.429 -0.2445  0.3916 -0.0066
  721MOL0     H99439   2.934  10.075   7.597 -1.8745  2.9552  0.5824
  721MOL0     H99440   2.859   9.917   7.576  2.1646 -1.2652  3.0176
  721MOL0     H99441   2.902   9.948   7.806 -1.1268 -1.2793  2.3060
  721MOL0     H99442   2.808  10.101   7.807 -1.0155  0.4106 -0.4840
  721MOL0     H99443   2.671   9.833   7.729  0.8336 -0.6710  2.1611
  721MOL0     H99444   2.595   9.981   7.770 -0.5691 -1.1214 -3.0532
  721MOL0     H99445   2.752   9.793   7.955 -1.8359 -0.5131 -0.3719
  721MOL0     H99446   2.718   9.961   8.005 -1.2197 -0.8231  2.9406
  721MOL0     H99447   2.514  10.021   8.099 -3.2734  0.9483  2.8735
  721MOL0     H99448   2.179   9.830   8.184  0.2524 -0.8424 -0.9767
  721MOL0     H99449   2.207   9.997   8.137  0.7223  0.6832 -0.1365
  721MOL0     H99450   2.354   9.837   8.361 -1.0926  0.6563  0.9868
  721MOL0     H99451   2.378  10.016   8.329  0.2321  1.3246 -0.0891
  721MOL0     H99452   2.136  10.053   8.402 -1.0597 -0.9718  0.2676
  721MOL0     H99453   2.113   9.883   8.430  0.0451 -1.0221 -1.7473
  721MOL0     H99454   2.337  10.055   8.537 -0.4453  0.8424  1.0951
  721MOL0     H99455   2.193  10.037   8.633 -0.2257 -1.0110  1.8568
  721MOL0     H99456   2.345   9.647   8.736 -0.9652  0.9775 -0.9600
  721MOL0     H99457   2.501   9.507   8.980 -0.2433 -1.8795  1.2083
  721MOL0     H99458   2.335   9.494   8.924 -2.2539  1.4889  1.8943
  721MOL0     H99459   2.372   9.560   9.085  0.8944  0.1454  0.3631
  721MOL0     H99460   2.736   9.559   9.324 -0.1866 -1.6537 -0.0977
  721MOL0     H99461   2.798   9.555   9.542  1.5711  2.3046 -1.3236
  721MOL0     H99462   2.704   9.437   9.729 -1.6348 -0.3035  0.7812
  721MOL0     H99463   2.820   9.562   9.781 -0.5707  2.0124  1.1334
  721MOL0     H99464   2.582   9.452   9.947 -0.9114  3.0181 -2.1723
  721MOL0     H99465   2.732   9.378   9.950 -3.1998 -2.3787 -1.6120
  721MOL0     H99466   2.643   9.619  10.094 -0.8524  1.0322 -2.0246
  721MOL0     H99467   2.764   9.673   9.988 -0.2896 -0.6596 -0.7574
  721MOL0     H99468   2.904   9.621  10.171  1.1073 -1.3255  4.2508
  721MOL0     H99469   2.893   9.460  10.087  0.9308  1.9452 -0.7011
  721MOL0     H99470   2.722   9.566  10.324  1.0556 -1.4487  2.7376
  721MOL0     H99471   2.697   9.410  10.242  0.2592 -1.3086  1.5904
  721MOL0     H99472   2.929   9.509  10.406 -1.3895 -2.3978  3.5443
  721MOL0     H99473   2.939   9.357  10.301 -0.4509 -1.6502 -0.5086
  721MOL0     H99474   2.730   9.282  10.419  2.2196 -2.5899  0.4279
  721MOL0     H99475   2.751   9.411  10.540 -2.7577 -0.8615 -0.5995
  721MOL0     H99476   2.983   9.317  10.601  0.0777 -0.0102 -0.4341
  721MOL0     H99477   2.971   9.199  10.466  3.4784  2.3556 -0.5828
  721MOL0     H99478   2.418   9.724   9.670  0.6960 -0.2882  0.3569
  721MOL0     H99479   2.363   9.761   9.429 -0.7451  0.7213  0.1560
  721MOL0     H99480   2.444  10.036   9.022 -1.1117  0.4374  0.5255
  721MOL0     H99481   2.381  10.059   8.790 -1.1259  1.6867  4.1075
  721MOL0     H99482   3.112  10.393   7.476  0.2715  1.2253 -0.2253
  721MOL0     H99483   3.266  10.604   7.490  0.8888 -0.6981 -0.0399
  721MOL0     H99484   3.265  11.075   7.349 -0.1875 -3.8611 -3.9607
  721MOL0     H99485   3.407  11.258   7.405 -2.3766 -2.5065  4.5766
  721MOL0     H99486   3.601  11.448   7.283  2.2423 -1.0609 -0.5069
  721MOL0     H99487   3.562  11.395   7.447  0.4363 -0.5067  0.7312
  721MOL0     H99488   3.809  11.406   7.498 -0.2239  0.1360  1.1260
  721MOL0     H99489   3.708  11.555   7.491 -4.1004 -2.1210  0.5970
  721MOL0     H99490   3.893  11.463   7.254  3.0381 -2.2466  1.8759
  721MOL0     H99491   3.806  11.616   7.280  0.1488 -1.0472 -2.7971
  721MOL0     H99492   4.069  11.573   7.329  1.7382 -1.8930  1.1240
  721MOL0     H99493   4.012  11.535   7.492  2.0671  3.2435  0.7398
  721MOL0     H99494   3.969  11.949   7.521 -1.3356  0.6221 -3.1546
  721MOL0     H99495   3.741  11.040   7.264 -0.3869  0.8351  0.4766
  721MOL0     H99496   3.728  10.829   7.243  0.4009 -2.2952 -0.8006
  721MOL0     H99497   3.601  10.718   7.301 -4.3313  2.1022  0.3866
  721MOL0     H99498   3.583  10.786   7.138 -0.0728 -1.0175 -0.8094
  722MOL0     O99499   4.551   3.953   2.450  0.1585 -0.1276 -0.6697
  722MOL0     C99500   4.437   3.913   2.444  0.5755  0.1686 -0.4792
  722MOL0     O99501   4.363   3.887   2.563 -0.4060 -0.8453  0.6211
  722MOL0     C99502   4.427   3.943   2.676 -0.2107 -0.3911  0.1086
  722MOL0     C99503   4.397   4.069   2.732  0.8712  0.1126  0.3593
  722MOL0     C99504   4.452   4.119   2.841  0.4411  0.9542  0.3456
  722MOL0     C99505   4.546   4.035   2.914  0.7662 -0.7285  0.1142
  722MOL0     O99506   4.609   4.086   3.023 -0.5477  0.5918  0.0082
  722MOL0     C99507   4.726   4.173   3.000  0.7320 -0.6061  1.5974
  722MOL0     C99508   4.841   4.157   3.084 -1.0275  0.3368 -0.4150
  722MOL0     C99509   4.883   4.011   3.115  0.6457  0.4495  0.4005
  722MOL0     C99510   4.965   3.933   3.020 -0.1299  0.4870 -0.7539
  722MOL0     C99511   4.977   3.781   3.039 -0.4550  0.6021  0.1809
  722MOL0     C99512   5.042   3.708   2.929  0.2792 -0.0160 -0.3757
  722MOL0     C99513   5.047   3.556   2.952  0.3680 -0.0029  0.8311
  722MOL0     C99514   5.117   3.483   2.830  0.6734 -0.4863 -0.6788
  722MOL0     N99515   5.054   3.354   2.794 -0.0944 -0.5432  0.1955
  722MOL0     C99516   5.085   3.241   2.861  0.2429  0.1214 -0.6086
  722MOL0     C99517   5.030   3.139   2.794 -0.1304 -0.0720  0.5346
  722MOL0     C99518   5.049   2.993   2.825  0.0784  0.0413 -0.9106
  722MOL0     C99519   5.116   2.915   2.706  0.1980 -0.2707 -0.4306
  722MOL0     C99520   5.151   2.766   2.741 -0.2290 -0.1041 -1.2187
  722MOL0     C99521   5.024   2.675   2.729 -0.7040 -0.3447  0.1900
  722MOL0     O99522   5.054   2.536   2.704 -0.5538  0.5412 -0.3954
  722MOL0     C99523   5.063   2.452   2.814  0.6234  0.6084 -0.2174
  722MOL0     C99524   5.166   2.354   2.816 -0.1552  0.1344 -0.0157
  722MOL0     C99525   5.199   2.272   2.925 -0.0628 -0.5525 -0.4869
  722MOL0     C99526   5.324   2.203   2.921 -0.0290 -0.9101  0.1828
  722MOL0     C99527   5.106   2.274   3.040 -0.5229 -1.2873 -0.6977
  722MOL0     C99528   5.116   2.188   3.161  0.2961 -0.5544 -0.7494
  722MOL0     O99529   5.027   2.220   3.264  0.4461 -0.4947  0.3403
  722MOL0     C99530   5.001   2.135   3.375  0.5131  0.1182  0.3219
  722MOL0     C99531   4.871   2.119   3.432 -0.1473  0.2578 -0.6509
  722MOL0     C99532   4.851   2.047   3.547  0.0019 -0.2474  0.1733
  722MOL0     C99533   4.956   1.987   3.610  0.1812  0.1623  0.1668
  722MOL0     O99534   4.934   1.924   3.727 -0.8546 -0.0079 -0.1788
  722MOL0     C99535   4.882   2.008   3.828 -0.1366 -0.2427 -1.2459
  722MOL0     C99536   4.995   2.051   3.920  0.9529 -0.9421  0.3293
  722MOL0     C99537   5.092   2.160   3.855 -0.2598  0.2308 -0.2448
  722MOL0     C99538   5.201   2.181   3.952  0.4741  0.2523 -0.8101
  722MOL0     C99539   5.297   2.292   3.908  0.0131  0.3742  0.2758
  722MOL0     C99540   5.399   2.261   3.798  1.1708 -0.3429  1.0023
  722MOL0     C99541   5.460   2.388   3.733  0.2417 -0.8836  0.9842
  722MOL0     C99542   5.386   2.450   3.614  0.5727  0.5875 -0.1675
  722MOL0    Cl99543   5.381   2.323   3.475 -0.0649  0.3213  0.9037
  722MOL0     C99544   5.080   2.005   3.558 -0.4453 -1.0065  0.8073
  722MOL0     C99545   5.109   2.074   3.444 -0.1195 -0.4078  0.5262
  722MOL0     O99546   5.200   2.102   3.164  0.2597  0.2045 -0.3453
  722MOL0     C99547   5.007   2.367   3.032  0.1970  0.0707  0.4528
  722MOL0     C99548   4.980   2.453   2.927  0.4111 -0.3099  0.4754
  722MOL0     N99549   4.958   3.193   2.683 -0.2087  0.6058  0.2598
  722MOL0     N99550   4.977   3.319   2.687  0.4674  0.1458  1.0700
  722MOL0     C99551   4.581   3.912   2.861  0.0478  0.8213  0.1007
  722MOL0     C99552   4.515   3.861   2.743 -0.0236 -0.3003 -0.9748
  722MOL0     C99553   4.373   3.898   2.316  0.0771 -0.0747 -0.5147
  722MOL0     C99554   4.243   3.844   2.308  0.4465  0.1100  0.5238
  722MOL0     C99555   4.177   3.835   2.184 -0.1348  0.2459  0.9295
  722MOL0     C99556   4.245   3.834   2.075  0.3733 -1.5885 -0.1044
  722MOL0     O99557   4.178   3.784   1.966 -0.1093  0.2006 -1.1140
  722MOL0     C99558   4.236   3.757   1.845 -0.2210 -0.4464 -0.4536
  722MOL0     C99559   4.223   3.887   1.753  0.2233  0.6459  0.6096
  722MOL0     C99560   4.080   3.922   1.709  0.0453 -0.1434 -0.5330
  722MOL0     C99561   4.088   4.045   1.610  0.5639 -0.8920  0.1585
  722MOL0     C99562   3.962   4.074   1.529  0.0844  0.0901 -0.6229
  722MOL0     C99563   3.881   4.096   1.435 -0.3771  0.2757 -0.5035
  722MOL0     C99564   4.369   3.893   2.070 -0.2451 -0.8188  0.2320
  722MOL0     C99565   4.437   3.926   2.188 -0.2418 -0.4186 -0.3035
  722MOL0     C99566   4.578   3.971   2.160  0.4637 -0.6811 -0.3134
  722MOL0     H99567   4.324   4.137   2.688 -1.3325 -1.6652  1.0325
  722MOL0     H99568   4.419   4.213   2.883  2.9110  1.5555  1.0738
  722MOL0     H99569   4.691   4.276   3.005 -1.3472 -1.0911 -0.6784
  722MOL0     H99570   4.756   4.150   2.897 -2.6951  0.8725  0.1300
  722MOL0     H99571   4.925   4.220   3.052 -1.3466 -0.1335 -2.3575
  722MOL0     H99572   4.818   4.207   3.178  0.6558  0.1373  0.1293
  722MOL0     H99573   4.914   3.996   3.219 -0.5175 -1.9753  0.4878
  722MOL0     H99574   4.785   3.961   3.117  1.0315 -0.3156  2.1135
  722MOL0     H99575   4.911   3.941   2.925 -2.3384 -1.7781  0.1678
  722MOL0     H99576   5.065   3.977   3.019  0.0987 -0.0137 -0.1501
  722MOL0     H99577   4.878   3.739   3.055 -0.4144 -1.3255 -3.4754
  722MOL0     H99578   5.038   3.760   3.128  3.7851  1.5663 -2.1873
  722MOL0     H99579   5.002   3.736   2.830 -0.5232 -0.0411 -0.0666
  722MOL0     H99580   5.146   3.741   2.936  0.6453 -1.1558 -0.1476
  722MOL0     H99581   4.945   3.518   2.963 -0.6863  1.3563 -2.6451
  722MOL0     H99582   5.093   3.527   3.047  0.5742 -2.9383 -0.0576
  722MOL0     H99583   5.106   3.551   2.745 -1.9236  2.3870  1.6898
  722MOL0     H99584   5.221   3.463   2.858 -0.2730 -0.9006  3.1942
  722MOL0     H99585   5.159   3.242   2.940 -0.4175  1.3474  0.0239
  722MOL0     H99586   4.953   2.947   2.851  0.2245  0.1140 -0.2256
  722MOL0     H99587   5.118   2.990   2.910 -0.5945 -2.5473 -0.3443
  722MOL0     H99588   5.052   2.914   2.617 -4.0732  3.4754  2.1719
  722MOL0     H99589   5.212   2.961   2.682 -1.2504  1.7882 -2.7685
  722MOL0     H99590   5.218   2.732   2.662  1.5155 -0.2404  0.2493
  722MOL0     H99591   5.199   2.768   2.839  2.0250  0.6970 -2.2625
  722MOL0     H99592   4.965   2.686   2.821 -0.3144  0.1021  0.3854
  722MOL0     H99593   4.963   2.709   2.645  0.6628  1.4262 -0.1241
  722MOL0     H99594   5.227   2.356   2.726  1.2339  0.4721  0.8958
  722MOL0     H99595   5.315   2.094   2.914 -2.6856 -0.8978  1.9614
  722MOL0     H99596   5.391   2.223   3.005 -2.6841  0.0549  2.2082
  722MOL0     H99597   5.376   2.243   2.833  0.2052 -1.5118  0.0426
  722MOL0     H99598   4.792   2.186   3.396 -1.5352 -1.9763 -1.9982
  722MOL0     H99599   4.748   2.049   3.581  0.3703 -0.0358  1.3266
  722MOL0     H99600   4.821   2.089   3.787 -0.7176 -0.2965 -0.5323
  722MOL0     H99601   4.818   1.944   3.891 -1.9012  1.3509 -1.3235
  722MOL0     H99602   4.944   2.101   4.003 -2.4548 -1.4450 -1.2994
  722MOL0     H99603   5.049   1.961   3.951 -1.2258 -1.2886  3.6025
  722MOL0     H99604   5.052   2.254   3.816  0.5293  0.3489 -0.7941
  722MOL0     H99605   5.130   2.109   3.766 -0.5733 -0.3558 -0.0484
  722MOL0     H99606   5.245   2.083   3.970  0.7497 -0.0273 -2.8153
  722MOL0     H99607   5.177   2.221   4.051  0.0011  1.8796 -1.5446
  722MOL0     H99608   5.239   2.381   3.879 -0.2932 -0.2535 -1.1170
  722MOL0     H99609   5.351   2.324   3.997  0.0488 -1.9751  1.1577
  722MOL0     H99610   5.345   2.202   3.723 -1.0875  0.7845  1.6551
  722MOL0     H99611   5.473   2.193   3.842  1.1761 -0.9926  0.0244
  722MOL0     H99612   5.560   2.355   3.705  1.7533  1.3654  3.3199
  722MOL0     H99613   5.478   2.468   3.806 -0.6106  1.6552 -1.3883
  722MOL0     H99614   5.426   2.546   3.580  1.4661  0.4723  0.5379
  722MOL0     H99615   5.286   2.467   3.654  0.0852 -1.5003 -0.3745
  722MOL0     H99616   5.160   1.961   3.617  0.3128 -0.4795  0.1878
  722MOL0     H99617   5.212   2.085   3.412 -0.3085  0.6441  0.2308
  722MOL0     H99618   4.935   2.360   3.113 -0.1567  0.3918  0.1675
  722MOL0     H99619   4.899   2.525   2.917  0.0135 -0.7220  0.6753
  722MOL0     H99620   4.654   3.858   2.921  0.9521  1.4540 -0.4163
  722MOL0     H99621   4.542   3.766   2.697  1.8796  1.6301 -4.2094
  722MOL0     H99622   4.175   3.817   2.388 -1.4600 -1.7490 -1.6061
  722MOL0     H99623   4.075   3.797   2.183 -0.4341  0.9282 -1.3706
  722MOL0     H99624   4.336   3.718   1.863 -0.9106 -1.6643  0.9075
  722MOL0     H99625   4.174   3.681   1.796  1.1963 -0.1842 -2.7736
  722MOL0     H99626   4.292   3.872   1.670  0.6316  3.3148  0.3950
  722MOL0     H99627   4.263   3.963   1.821  3.3271  0.1965 -0.5901
  722MOL0     H99628   4.029   3.837   1.662 -3.4822  1.1633  0.5960
  722MOL0     H99629   4.017   3.946   1.795  0.8089 -0.9889  0.2871
  722MOL0     H99630   4.160   4.013   1.534  1.4094  0.2838  0.4453
  722MOL0     H99631   4.126   4.136   1.657  1.3011  0.1369 -2.2694
  722MOL0     H99632   3.815   4.125   1.356 -0.9562  3.9487  1.0822
  722MOL0     H99633   4.419   3.908   1.975  0.6986 -0.9129  0.7042
  722MOL0     H99634   4.644   3.894   2.201  1.2667  1.1803  2.1299
  722MOL0     H99635   4.597   3.990   2.054  0.0206  1.6774 -0.0068
  722MOL0     H99636   4.601   4.064   2.212 -2.3752 -1.3933  2.4726
  723MOL0     O99637   6.273   7.292   8.419  1.1008  0.4813 -0.1801
  723MOL0     C99638   6.198   7.215   8.358  0.2976  0.1343 -0.6055
  723MOL0     O99639   6.225   7.173   8.240  0.1602  0.0308  0.3928
  723MOL0     C99640   6.353   7.196   8.176 -0.0525 -0.7084 -0.9630
  723MOL0     C99641   6.439   7.083   8.164  0.7901  0.4963 -0.7857
  723MOL0     C99642   6.570   7.098   8.116  0.1958 -0.2912 -0.4475
  723MOL0     C99643   6.615   7.228   8.079  1.3749 -0.0954  0.0879
  723MOL0     O99644   6.738   7.254   8.033  0.1739 -0.4856  0.2287
  723MOL0     C99645   6.854   7.214   8.111 -0.0144  0.2376  0.3688
  723MOL0     C99646   6.958   7.333   8.119 -0.4351 -0.4833  0.1465
  723MOL0     C99647   7.052   7.340   8.243 -1.3348  0.3496 -0.7537
  723MOL0     C99648   7.144   7.214   8.270 -0.0822 -0.6195  0.3918
  723MOL0     C99649   7.226   7.220   8.401  0.6884 -0.0562 -0.3607
  723MOL0     C99650   7.148   7.255   8.537 -0.1083  0.9548  0.0049
  723MOL0     C99651   7.244   7.241   8.659  0.0126  0.6932  0.5177
  723MOL0     C99652   7.323   7.375   8.693  0.0774 -0.3372  0.0920
  723MOL0     N99653   7.400   7.368   8.817  0.7916 -1.0567  1.1626
  723MOL0     C99654   7.495   7.270   8.836  0.5237 -0.5842  0.5002
  723MOL0     C99655   7.497   7.264   8.975 -0.0416  0.7045 -0.4261
  723MOL0     C99656   7.567   7.162   9.058  0.3166  0.7042  0.0251
  723MOL0     C99657   7.714   7.166   9.040  0.2098  0.6117 -0.2575
  723MOL0     C99658   7.779   7.308   9.064 -0.5874 -0.8180  0.5259
  723MOL0     C99659   7.940   7.295   9.086 -0.3214 -0.6160  0.1169
  723MOL0     O99660   8.009   7.415   9.093 -0.0680 -0.1554 -0.5419
  723MOL0     C99661   8.053   7.448   9.220  0.0127  0.1444 -1.1766
  723MOL0     C99662   7.981   7.412   9.335  0.0333  0.2192 -0.1481
  723MOL0     C99663   8.018   7.458   9.462  0.6127 -0.7647 -0.0912
  723MOL0     C99664   7.920   7.420   9.577  0.1956 -0.5612  0.1553
  723MOL0     C99665   8.138   7.537   9.479  0.3293  0.0997 -0.0231
  723MOL0     C99666   8.184   7.604   9.607 -0.2726 -0.0630 -0.2128
  723MOL0     O99667   8.312   7.655   9.610 -0.4753 -0.5141  0.6043
  723MOL0     C99668   8.371   7.723   9.709  0.6643 -0.8262 -1.0422
  723MOL0     C99669   8.488   7.796   9.690  0.1320 -0.4893 -0.6195
  723MOL0     C99670   8.543   7.883   9.791  0.3482 -0.4477  1.0383
  723MOL0     C99671   8.482   7.897   9.913  0.2847  1.3004  0.3786
  723MOL0     O99672   8.546   7.975  10.005 -1.3024 -0.3470 -0.3313
  723MOL0     C99673   8.466   8.027  10.110  0.5058  0.5318 -0.5630
  723MOL0     C99674   8.347   8.116  10.074  0.3960 -0.9440  0.0968
  723MOL0     C99675   8.289   8.192  10.196 -0.2800  0.5897  0.0854
  723MOL0     C99676   8.138   8.222  10.155  0.2791 -0.2239 -0.1723
  723MOL0     C99677   8.108   8.331  10.051 -0.1515 -0.1970 -0.0558
  723MOL0     C99678   8.158   8.470  10.116 -0.8239  0.2648 -0.7158
  723MOL0     C99679   8.120   8.572  10.009  0.2150  0.3407 -0.6881
  723MOL0     C99680   8.188   8.699  10.017 -0.4208 -0.5530 -0.0560
  723MOL0    Cl99681   8.120   8.781  10.157 -0.5527 -0.1054  0.0631
  723MOL0     C99682   8.368   7.816   9.933  0.0105 -0.2895 -1.0649
  723MOL0     C99683   8.326   7.721   9.844  0.3227 -1.3647  0.2172
  723MOL0     O99684   8.102   7.624   9.697 -0.9421 -0.0267  0.1628
  723MOL0     C99685   8.215   7.554   9.361 -0.6157 -0.4735  0.0326
  723MOL0     C99686   8.177   7.514   9.236 -0.4286  0.0582  1.1013
  723MOL0     N99687   7.430   7.369   9.028  0.2911 -0.4465 -0.4294
  723MOL0     N99688   7.369   7.431   8.936 -0.4932 -0.3096  0.1276
  723MOL0     C99689   6.518   7.341   8.082 -0.2596 -1.0765 -0.1338
  723MOL0     C99690   6.388   7.320   8.127 -0.1539 -0.0749  0.3443
  723MOL0     C99691   6.071   7.154   8.426 -0.9616  0.8884  0.8225
  723MOL0     C99692   5.965   7.117   8.344 -0.5314 -0.4925  0.8442
  723MOL0     C99693   5.839   7.069   8.396  0.6700 -0.6062 -0.2466
  723MOL0     C99694   5.835   7.047   8.529 -0.3496 -0.2280  0.3015
  723MOL0     O99695   5.719   6.987   8.578 -0.5204 -0.3120 -0.2611
  723MOL0     C99696   5.737   6.859   8.644  0.0383  0.2241  0.3605
  723MOL0     C99697   5.706   6.725   8.566 -0.8218  0.0339 -0.9222
  723MOL0     C99698   5.813   6.696   8.467  0.0506  0.2295  0.0191
  723MOL0     C99699   5.818   6.545   8.437  0.1416  0.0963 -0.1308
  723MOL0     C99700   5.910   6.502   8.330  0.2473  0.8744 -0.4169
  723MOL0     C99701   5.985   6.468   8.243 -1.1270 -0.5885  0.6569
  723MOL0     C99702   5.946   7.076   8.611 -0.2807 -0.9526  0.0770
  723MOL0     C99703   6.066   7.122   8.556 -0.0031 -0.2057 -1.1020
  723MOL0     C99704   6.172   7.149   8.663 -0.1036  0.4944  0.2091
  723MOL0     H99705   6.405   6.985   8.198 -0.9231  2.2856  3.3093
  723MOL0     H99706   6.642   7.020   8.094 -0.5035 -1.2871  0.6484
  723MOL0     H99707   6.900   7.126   8.066 -1.2455 -1.4297  2.1939
  723MOL0     H99708   6.828   7.195   8.216 -0.1557  1.6857  0.6179
  723MOL0     H99709   7.026   7.318   8.035 -1.2820 -0.6256 -0.5225
  723MOL0     H99710   6.903   7.427   8.109  0.7327  0.3088  0.9153
  723MOL0     H99711   7.115   7.424   8.213 -0.3733 -0.4152 -0.9141
  723MOL0     H99712   6.989   7.374   8.325 -1.9510 -1.3128 -0.5063
  723MOL0     H99713   7.081   7.125   8.272  1.1463 -1.5065  0.7463
  723MOL0     H99714   7.221   7.219   8.192 -0.2259  2.7014  0.3452
  723MOL0     H99715   7.310   7.290   8.407  1.2520 -0.7933  0.7712
  723MOL0     H99716   7.268   7.118   8.403  4.0675  1.1370 -1.9429
  723MOL0     H99717   7.104   7.355   8.525 -2.1581  0.1248  0.1537
  723MOL0     H99718   7.063   7.188   8.553  0.2388  0.3306 -0.6885
  723MOL0     H99719   7.317   7.164   8.633 -1.4186 -0.3614 -0.5326
  723MOL0     H99720   7.190   7.215   8.751 -1.1741  0.1282 -0.3044
  723MOL0     H99721   7.388   7.403   8.610 -1.8733 -1.2455 -1.8386
  723MOL0     H99722   7.252   7.456   8.714  1.8276  0.8898  1.5822
  723MOL0     H99723   7.539   7.197   8.768 -1.3262  1.6426 -3.3980
  723MOL0     H99724   7.518   7.065   9.044 -1.9632  1.4820  2.0730
  723MOL0     H99725   7.545   7.161   9.165  0.0583 -0.4977 -0.0279
  723MOL0     H99726   7.755   7.103   9.120  0.1528  0.5849 -0.2502
  723MOL0     H99727   7.751   7.132   8.943  2.5004 -3.9183  1.8927
  723MOL0     H99728   7.755   7.369   8.977 -1.1243 -1.4157  0.2429
  723MOL0     H99729   7.731   7.359   9.148 -0.5420  0.7906 -0.3805
  723MOL0     H99730   7.965   7.230   9.170  0.0425  1.4691  1.6883
  723MOL0     H99731   7.991   7.263   8.994  0.4475 -0.2243  0.4014
  723MOL0     H99732   7.890   7.353   9.332  1.5190 -2.2144 -0.1575
  723MOL0     H99733   7.907   7.501   9.649 -2.3842 -0.8644  0.1075
  723MOL0     H99734   7.965   7.341   9.637  3.6647  1.6308  0.7531
  723MOL0     H99735   7.822   7.395   9.536 -1.4017  3.1024  1.3164
  723MOL0     H99736   8.519   7.801   9.586 -0.5027 -0.3602 -0.8121
  723MOL0     H99737   8.638   7.933   9.774  0.4839 -1.1964 -0.5663
  723MOL0     H99738   8.434   7.944  10.174  0.4245 -1.6193 -3.2548
  723MOL0     H99739   8.539   8.083  10.170  3.0552 -1.6900 -1.4175
  723MOL0     H99740   8.379   8.179   9.990  1.1370 -0.3691  0.7810
  723MOL0     H99741   8.271   8.053  10.027  0.9529  0.0801 -2.3553
  723MOL0     H99742   8.354   8.274  10.227 -0.4715  0.8720 -0.2575
  723MOL0     H99743   8.285   8.120  10.279  0.7130 -0.9474 -1.1372
  723MOL0     H99744   8.077   8.244  10.243  1.2040 -1.5197  0.8364
  723MOL0     H99745   8.090   8.127  10.130  1.6531 -0.9328 -0.2422
  723MOL0     H99746   8.152   8.297   9.957 -1.8780 -0.5598 -0.7879
  723MOL0     H99747   8.001   8.344  10.029 -0.0144  0.7059 -0.1970
  723MOL0     H99748   8.265   8.476  10.138 -0.9734  1.1364 -0.1873
  723MOL0     H99749   8.113   8.482  10.215  1.1819  0.5405  0.1984
  723MOL0     H99750   8.013   8.592   9.999  0.1362  0.8686  0.9078
  723MOL0     H99751   8.140   8.529   9.910 -0.5040  0.0470 -0.7202
  723MOL0     H99752   8.177   8.758   9.926  0.4372  0.3457  0.3994
  723MOL0     H99753   8.294   8.695  10.044 -0.5007  1.0832  0.5927
  723MOL0     H99754   8.326   7.814  10.033  2.7644  1.0712  0.2237
  723MOL0     H99755   8.245   7.654   9.872 -0.1735 -0.9831 -0.2955
  723MOL0     H99756   8.303   7.618   9.358 -1.8886  1.3013 -1.6179
  723MOL0     H99757   8.236   7.539   9.148 -0.7312  2.5516  1.5349
  723MOL0     H99758   6.550   7.436   8.041 -2.2893 -0.9692 -1.6322
  723MOL0     H99759   6.313   7.398   8.120  0.2239  0.1736 -1.0599
  723MOL0     H99760   5.968   7.134   8.237 -3.5062  0.9591  0.8875
  723MOL0     H99761   5.755   7.047   8.331  0.9024  3.2468 -2.1427
  723MOL0     H99762   5.842   6.855   8.673 -0.1303  1.9958  1.3285
  723MOL0     H99763   5.685   6.854   8.740  2.0384  1.3020  1.5502
  723MOL0     H99764   5.602   6.734   8.533 -1.5624  2.4154  1.6327
  723MOL0     H99765   5.704   6.645   8.640  2.1368  0.7099 -0.0072
  723MOL0     H99766   5.800   6.765   8.384  3.1481  3.2829  1.8005
  723MOL0     H99767   5.907   6.727   8.514 -0.1067  0.2140  0.3465
  723MOL0     H99768   5.716   6.516   8.409  0.3320  0.4409 -1.2166
  723MOL0     H99769   5.844   6.493   8.530 -1.2338 -0.5699 -0.0969
  723MOL0     H99770   6.057   6.444   8.167 -0.4553  0.7482  0.8384
  723MOL0     H99771   5.937   7.064   8.719  0.1100 -0.0821  0.2076
  723MOL0     H99772   6.122   7.141   8.760 -1.6271 -2.5085 -0.7078
  723MOL0     H99773   6.263   7.088   8.655  0.3837  1.0460  1.2467
  723MOL0     H99774   6.214   7.249   8.651  0.2029  0.2823 -0.6271
  724MOL0     O99775  10.984   8.279   6.945 -0.3588 -0.0785  0.2948
  724MOL0     C99776  10.985   8.392   6.889  0.5999 -0.3510 -0.2219
  724MOL0     O99777  10.983   8.409   6.750  0.2749  0.4212  0.1296
  724MOL0     C99778  10.958   8.297   6.672  0.1923  0.1359  0.6004
  724MOL0     C99779  11.047   8.192   6.668 -0.6370  0.9647 -0.4898
  724MOL0     C99780  11.015   8.079   6.585 -0.1136 -0.4543 -0.7425
  724MOL0     C99781  10.895   8.067   6.518 -0.3339  0.0510  0.4775
  724MOL0     O99782  10.858   7.949   6.456  1.6537 -0.4810  1.0251
  724MOL0     C99783  10.959   7.871   6.379  0.2916  0.5154 -0.0709
  724MOL0     C99784  10.881   7.790   6.277  0.3106 -0.1833  0.7066
  724MOL0     C99785  10.971   7.696   6.198 -0.4170  0.3958 -0.3310
  724MOL0     C99786  10.895   7.566   6.151  0.8972 -0.4489  0.0214
  724MOL0     C99787  10.852   7.586   6.002  0.0438 -0.2783  0.3999
  724MOL0     C99788  10.730   7.488   5.967 -1.2731  0.6958  0.7519
  724MOL0     C99789  10.711   7.475   5.815  0.1728  0.5945  0.3168
  724MOL0     C99790  10.630   7.357   5.760 -0.2328  0.1046 -0.2072
  724MOL0     N99791  10.493   7.352   5.819 -0.3553  0.2158  0.2004
  724MOL0     C99792  10.382   7.415   5.780  0.2106 -0.3516 -0.0669
  724MOL0     C99793  10.279   7.360   5.841  0.4516 -1.1009 -0.4320
  724MOL0     C99794  10.142   7.418   5.839 -0.6672 -0.2798  0.7565
  724MOL0     C99795  10.077   7.401   5.693 -0.2324  0.0893 -0.5945
  724MOL0     C99796   9.929   7.451   5.682 -0.1272  0.9151 -0.8292
  724MOL0     C99797   9.843   7.406   5.808  0.4775 -0.0148 -0.2673
  724MOL0     O99798   9.857   7.491   5.921  1.4329 -0.1760  0.0228
  724MOL0     C99799   9.778   7.603   5.928 -0.3714 -0.7114  0.5115
  724MOL0     C99800   9.668   7.638   5.847 -0.1721  0.9760  1.1487
  724MOL0     C99801   9.613   7.769   5.858 -0.0222  0.4717 -0.4561
  724MOL0     C99802   9.505   7.807   5.760 -0.9058 -1.1352 -0.9608
  724MOL0     C99803   9.644   7.849   5.966 -1.0965  1.6730 -0.0242
  724MOL0     C99804   9.582   7.984   5.982  0.7850  0.3234 -0.1224
  724MOL0     O99805   9.554   8.072   5.877 -0.2989 -0.0858 -0.4257
  724MOL0     C99806   9.544   8.207   5.905  0.1624  1.2175 -0.8489
  724MOL0     C99807   9.416   8.255   5.939  0.1528 -0.5474  0.5505
  724MOL0     C99808   9.402   8.393   5.954  0.7823 -0.2762 -0.5913
  724MOL0     C99809   9.517   8.474   5.953 -0.1879 -0.8393  0.4980
  724MOL0     O99810   9.520   8.613   5.984 -0.8532  0.7893 -0.4032
  724MOL0     C99811   9.422   8.685   6.054  0.1332 -0.5465 -0.7604
  724MOL0     C99812   9.478   8.829   6.054 -0.7902 -0.6932 -0.6725
  724MOL0     C99813   9.494   8.917   5.925 -0.3641 -0.2214  1.4447
  724MOL0     C99814   9.371   8.911   5.836  0.9542 -0.0311  0.6058
  724MOL0     C99815   9.364   8.996   5.717  0.2112  0.0689  0.8849
  724MOL0     C99816   9.454   8.958   5.602 -0.0679  0.5666  0.1508
  724MOL0     C99817   9.431   9.029   5.470 -0.8452 -0.4848 -0.0797
  724MOL0     C99818   9.505   9.168   5.458 -0.8283  0.3184  0.2244
  724MOL0    Cl99819   9.681   9.145   5.468 -0.2807  0.4943  0.3426
  724MOL0     C99820   9.648   8.422   5.929  0.2793  0.4890 -0.8321
  724MOL0     C99821   9.652   8.289   5.893  0.7577  0.3451 -0.4994
  724MOL0     O99822   9.569   8.019   6.096  0.1474  0.2172  0.0652
  724MOL0     C99823   9.753   7.809   6.049  0.1225  0.3673  0.1906
  724MOL0     C99824   9.811   7.691   6.038 -0.2259  0.6380 -0.0530
  724MOL0     N99825  10.331   7.257   5.916  1.0031  1.2568  0.8464
  724MOL0     N99826  10.454   7.255   5.911 -0.2233  0.2464 -0.2196
  724MOL0     C99827  10.800   8.175   6.531  0.4420  0.6972  0.0560
  724MOL0     C99828  10.838   8.293   6.600 -0.1415 -0.0902  0.6860
  724MOL0     C99829  11.007   8.513   6.972  0.3057  0.1962 -0.1717
  724MOL0     C99830  11.057   8.627   6.909 -0.1142 -0.3366 -0.0884
  724MOL0     C99831  11.094   8.739   6.985  0.4281  0.1953  0.7374
  724MOL0     C99832  11.064   8.755   7.119  0.2380 -0.5368  0.2366
  724MOL0     O99833  11.100   8.881   7.170  0.0838 -0.5869  0.6495
  724MOL0     C99834  11.020   8.971   7.247 -0.2817  0.1441 -0.6597
  724MOL0     C99835  11.111   9.064   7.322  0.7858  0.0561 -0.0800
  724MOL0     C99836  11.033   9.177   7.383 -0.1005  0.1392  0.0157
  724MOL0     C99837  11.123   9.267   7.478 -0.5056  0.5196  0.2539
  724MOL0     C99838  11.056   9.381   7.530  0.4346 -0.0534 -0.8755
  724MOL0     C99839  10.989   9.476   7.577 -0.2686  0.1381 -0.3765
  724MOL0     C99840  11.003   8.640   7.183 -0.4239  0.3386 -0.3673
  724MOL0     C99841  10.976   8.523   7.111  0.1761  0.2117 -0.3703
  724MOL0     C99842  10.908   8.410   7.186 -0.2369  1.3009  0.3090
  724MOL0     H99843  11.137   8.189   6.728  0.6289  0.4529 -2.3269
  724MOL0     H99844  11.090   8.002   6.573  0.1895  0.0296 -2.1703
  724MOL0     H99845  11.009   7.813   6.457  0.9133 -0.9789 -1.5281
  724MOL0     H99846  11.028   7.941   6.333  0.1503  1.0093  0.4599
  724MOL0     H99847  10.820   7.719   6.334  0.3616  0.2977  1.3735
  724MOL0     H99848  10.821   7.846   6.204  2.2108 -2.0361 -2.5078
  724MOL0     H99849  10.994   7.755   6.109 -3.7030  0.7852 -1.0520
  724MOL0     H99850  11.060   7.680   6.259  0.9038  0.4212 -2.1620
  724MOL0     H99851  10.943   7.469   6.165 -2.0247 -1.7370  2.3223
  724MOL0     H99852  10.805   7.553   6.213  1.6768 -1.2792  1.0199
  724MOL0     H99853  10.939   7.560   5.941  0.7673 -2.4754  2.2000
  724MOL0     H99854  10.816   7.688   5.986 -3.5567 -1.5094 -0.2632
  724MOL0     H99855  10.763   7.389   6.001  2.4979  1.7664  0.5531
  724MOL0     H99856  10.641   7.520   6.022 -2.0646  1.1361 -0.7276
  724MOL0     H99857  10.809   7.465   5.769 -0.1739  2.8225 -1.0490
  724MOL0     H99858  10.685   7.576   5.784  1.1039  0.8945  0.4935
  724MOL0     H99859  10.613   7.362   5.652 -3.1219  0.6829  0.1935
  724MOL0     H99860  10.688   7.266   5.781 -0.1842  0.3975  1.0026
  724MOL0     H99861  10.362   7.489   5.704 -2.8530 -1.9793 -1.0104
  724MOL0     H99862  10.152   7.523   5.868  0.7567 -1.0711  3.5554
  724MOL0     H99863  10.083   7.361   5.912  2.4092 -3.1990  1.2556
  724MOL0     H99864  10.133   7.467   5.626  3.2376 -2.8734 -0.9311
  724MOL0     H99865  10.087   7.300   5.651 -2.9424 -1.0344  1.2316
  724MOL0     H99866   9.932   7.559   5.665  0.2726  0.9968 -0.2557
  724MOL0     H99867   9.889   7.408   5.590  2.2354 -1.3026 -0.9088
  724MOL0     H99868   9.739   7.390   5.778  1.2587 -3.1618 -1.7301
  724MOL0     H99869   9.882   7.306   5.830  1.6704  0.6675  0.8969
  724MOL0     H99870   9.646   7.581   5.757  1.7822  0.8066  0.7464
  724MOL0     H99871   9.541   7.896   5.708  1.3653 -1.9062 -0.8479
  724MOL0     H99872   9.410   7.826   5.810 -0.4646 -1.1649 -0.0837
  724MOL0     H99873   9.473   7.739   5.681 -2.8785 -1.3666 -0.0320
  724MOL0     H99874   9.329   8.192   5.953  0.0538 -0.7926 -1.0531
  724MOL0     H99875   9.304   8.432   5.980  0.5098 -0.6582 -1.0365
  724MOL0     H99876   9.322   8.674   6.010 -0.7535  0.6149  0.8880
  724MOL0     H99877   9.402   8.664   6.159 -2.9021  0.5709 -1.0065
  724MOL0     H99878   9.414   8.892   6.116 -2.0332  0.2477 -2.7875
  724MOL0     H99879   9.577   8.837   6.099 -0.7283  3.4446 -1.1223
  724MOL0     H99880   9.580   8.881   5.868 -0.6037  2.4408 -0.8192
  724MOL0     H99881   9.500   9.024   5.951  0.6027  0.1919 -0.3452
  724MOL0     H99882   9.286   8.930   5.903  2.1307 -0.3753  2.2680
  724MOL0     H99883   9.364   8.807   5.803 -1.0369  0.1920  0.2384
  724MOL0     H99884   9.262   8.995   5.679  0.0669  0.8352  1.2334
  724MOL0     H99885   9.385   9.099   5.747  0.2753 -0.3461  2.3607
  724MOL0     H99886   9.455   8.851   5.582  0.5368  0.2416  1.7353
  724MOL0     H99887   9.552   8.986   5.643  0.9481  1.4571 -2.6763
  724MOL0     H99888   9.326   9.055   5.452 -0.1450  1.7250 -1.3004
  724MOL0     H99889   9.460   8.964   5.387  1.1174  0.1414  0.0522
  724MOL0     H99890   9.466   9.234   5.535 -0.4087 -0.8847  1.5279
  724MOL0     H99891   9.483   9.226   5.368  4.1508  1.5475 -0.4783
  724MOL0     H99892   9.727   8.496   5.929 -2.1987  3.3366  0.4351
  724MOL0     H99893   9.749   8.243   5.877  0.7722  0.3169 -0.3319
  724MOL0     H99894   9.782   7.867   6.136  2.9748  0.0834 -0.4623
  724MOL0     H99895   9.896   7.660   6.099 -0.9250  0.3279  0.7753
  724MOL0     H99896  10.709   8.187   6.474  0.3164  2.0042  0.4930
  724MOL0     H99897  10.768   8.376   6.604 -0.8295 -0.6903  1.5663
  724MOL0     H99898  11.075   8.627   6.802 -3.2145  0.6734 -0.7236
  724MOL0     H99899  11.152   8.813   6.931 -1.9765  1.8742  0.2767
  724MOL0     H99900  10.947   9.028   7.189 -2.2044 -1.7397 -0.1955
  724MOL0     H99901  10.961   8.908   7.315 -1.9686  0.2099 -2.0000
  724MOL0     H99902  11.184   9.101   7.250  0.3017  0.1397 -0.5294
  724MOL0     H99903  11.160   9.007   7.402  1.3003 -3.3308 -2.5875
  724MOL0     H99904  10.985   9.234   7.303 -2.6020 -0.8053  0.7632
  724MOL0     H99905  10.954   9.129   7.441 -1.7284  2.6233  0.0252
  724MOL0     H99906  11.217   9.307   7.438 -0.7789  0.6476 -0.2669
  724MOL0     H99907  11.164   9.196   7.550  0.5703  1.2804  0.4038
  724MOL0     H99908  10.943   9.561   7.622 -0.4952 -0.0678 -0.2179
  724MOL0     H99909  10.962   8.662   7.281 -0.4083 -0.0411 -0.2740
  724MOL0     H99910  10.812   8.391   7.136  1.4080  0.0092 -2.6573
  724MOL0     H99911  10.965   8.317   7.196 -1.9390  0.2036  0.1957
  724MOL0     H99912  10.884   8.437   7.289  2.8323 -0.1811  1.5447
  725MOL0     O99913   2.806   4.329   9.654  0.2899 -0.7213  0.0013
  725MOL0     C99914   2.743   4.380   9.748  0.0286 -0.3493  0.6355
  725MOL0     O99915   2.700   4.322   9.869  0.2104  0.2179  0.0516
  725MOL0     C99916   2.752   4.196   9.899 -0.5878 -0.0168  0.3347
  725MOL0     C99917   2.881   4.150   9.859 -0.1389 -0.2437 -0.1652
  725MOL0     C99918   2.928   4.031   9.921  0.0242 -0.5891  1.6870
  725MOL0     C99919   2.844   3.946   9.998 -1.6849 -0.4360  0.3710
  725MOL0     O99920   2.889   3.821  10.040  0.8312  0.0035 -0.0837
  725MOL0     C99921   2.799   3.733  10.111 -0.8470  0.1531 -0.1732
  725MOL0     C99922   2.874   3.600  10.153  0.1819 -0.0603 -0.3591
  725MOL0     C99923   2.979   3.620  10.267 -0.5469 -0.0520  0.5732
  725MOL0     C99924   3.118   3.655  10.211  0.9121 -0.2470 -0.3023
  725MOL0     C99925   3.233   3.665  10.308  0.8268 -0.6187  0.4065
  725MOL0     C99926   3.366   3.602  10.269  0.2111 -0.1028 -0.3998
  725MOL0     C99927   3.463   3.636  10.378  0.3166  0.4184  0.8844
  725MOL0     C99928   3.605   3.603  10.333 -0.5473 -0.8727 -0.4870
  725MOL0     N99929   3.691   3.601  10.462 -0.6680 -0.3670  0.2784
  725MOL0     C99930   3.736   3.719  10.519  0.0830 -0.4072 -0.2600
  725MOL0     C99931   3.830   3.684  10.604  0.6315  0.5399  0.3347
  725MOL0     C99932   3.905   3.781  10.686  0.7250 -0.1444  0.0152
  725MOL0     C99933   3.847   3.786  10.832 -0.5071  0.2385  0.2551
  725MOL0     C99934   3.912   3.663  10.908  0.5360 -0.3814 -0.5995
  725MOL0     C99935   3.877   3.669  11.054  0.2637  0.5981  1.0280
  725MOL0     O99936   3.920   3.540  11.122 -0.3722 -0.4521 -0.0588
  725MOL0     C99937   3.827   3.468  11.199 -1.1772 -0.8126 -0.0499
  725MOL0     C99938   3.862   3.332  11.220 -0.1770  0.0698 -0.2715
  725MOL0     C99939   3.775   3.243  11.291  0.1407 -0.1423 -1.1028
  725MOL0     C99940   3.825   3.102  11.320  0.2861  0.2247  0.6221
  725MOL0     C99941   3.655   3.296  11.349 -0.2303 -0.8457 -0.5093
  725MOL0     C99942   3.568   3.213  11.443  0.1829  0.6131  0.2503
  725MOL0     O99943   3.467   3.273  11.513 -0.0686 -0.4095 -0.5430
  725MOL0     C99944   3.387   3.228  11.613  0.1900 -0.6904 -0.8621
  725MOL0     C99945   3.426   3.139  11.714 -0.1812  0.2367 -0.3840
  725MOL0     C99946   3.346   3.103  11.821 -0.4354  2.0299  1.0722
  725MOL0     C99947   3.222   3.147  11.820 -0.2314 -0.4743  0.5338
  725MOL0     O99948   3.137   3.116  11.921  0.2288 -0.2775  0.0749
  725MOL0     C99949   3.099   2.982  11.933  0.0427  0.1504  0.0713
  725MOL0     C99950   2.986   3.002  12.046 -0.5252 -0.0225  0.8857
  725MOL0     C99951   2.925   2.868  12.068 -0.5675  0.3252  0.1783
  725MOL0     C99952   2.858   2.854  12.200  0.4269 -0.8373 -0.0036
  725MOL0     C99953   2.702   2.859  12.191  0.5962 -0.0919 -0.2210
  725MOL0     C99954   2.639   3.003  12.180 -0.0191 -0.7689  0.1012
  725MOL0     C99955   2.667   3.100  12.294 -0.0218  0.0507  0.0518
  725MOL0     C99956   2.593   3.067  12.427  0.2658  0.0999  0.5859
  725MOL0    Cl99957   2.447   3.178  12.423 -0.1177 -0.1095 -0.2239
  725MOL0     C99958   3.176   3.241  11.729 -0.0532 -0.3423  0.2667
  725MOL0     C99959   3.261   3.286  11.629 -0.4507  0.5346 -0.3029
  725MOL0     O99960   3.604   3.098  11.466 -0.0261  0.0802 -0.8725
  725MOL0     C99961   3.629   3.428  11.333  1.7127  0.0672 -1.0479
  725MOL0     C99962   3.706   3.514  11.261 -0.2928  0.0983 -0.3906
  725MOL0     N99963   3.837   3.544  10.600  0.2005  0.9065  1.1306
  725MOL0     N99964   3.750   3.494  10.519 -1.0371  0.6242  0.0450
  725MOL0     C99965   2.713   3.990  10.019 -0.2066  0.5704 -0.1248
  725MOL0     C99966   2.676   4.119   9.982  0.4658 -0.2645  0.8165
  725MOL0     C99967   2.691   4.513   9.719  1.1092 -0.1202  0.6756
  725MOL0     C99968   2.769   4.604   9.642 -0.9644  0.8927 -0.1789
  725MOL0     C99969   2.728   4.727   9.594 -0.1234 -0.6685 -0.3671
  725MOL0     C99970   2.602   4.774   9.637 -0.8606 -0.0616  0.1728
  725MOL0     O99971   2.564   4.903   9.628 -0.2023 -0.7810 -0.5726
  725MOL0     C99972   2.627   5.013   9.557  0.1815 -0.0751  0.5484
  725MOL0     C99973   2.602   5.013   9.409  0.3475  0.5270 -0.0084
  725MOL0     C99974   2.684   5.125   9.331  0.5065  0.1946 -0.4135
  725MOL0     C99975   2.662   5.094   9.182 -0.6213  0.4382  0.6070
  725MOL0     C99976   2.723   5.206   9.101 -0.0073  0.4853 -0.4731
  725MOL0     C99977   2.762   5.302   9.036  0.9587  0.8581 -0.2393
  725MOL0     C99978   2.510   4.683   9.701  0.3517 -0.0541 -0.0858
  725MOL0     C99979   2.552   4.553   9.743 -0.3654 -0.2478  0.2257
  725MOL0     C99980   2.440   4.459   9.786  0.2016 -0.3799 -0.7867
  725MOL0     H99981   2.953   4.197   9.793 -1.8690 -0.1374 -2.0854
  725MOL0     H99982   3.033   4.013   9.899 -0.5121 -3.7305  1.2256
  725MOL0     H99983   2.718   3.706  10.042  1.4122 -5.1628 -1.1988
  725MOL0     H99984   2.750   3.785  10.194  0.2451 -1.6317  1.6656
  725MOL0     H99985   2.805   3.522  10.186  2.2955 -1.4830  0.9672
  725MOL0     H99986   2.914   3.551  10.064 -0.4204  0.8237 -1.1400
  725MOL0     H99987   2.963   3.709  10.328  1.1604  1.8117 -1.4916
  725MOL0     H99988   2.971   3.526  10.323 -3.7547 -0.6709 -0.7124
  725MOL0     H99989   3.137   3.586  10.128 -1.0880 -1.9849  0.5834
  725MOL0     H99990   3.119   3.750  10.158 -0.1822 -0.7359 -1.2336
  725MOL0     H99991   3.189   3.628  10.401 -3.5864  2.1366 -0.2902
  725MOL0     H99992   3.246   3.774  10.313 -0.5556 -0.2763 -1.8687
  725MOL0     H99993   3.360   3.493  10.260 -2.1295 -0.2541  1.9290
  725MOL0     H99994   3.394   3.641  10.171 -0.1351 -1.4933 -1.0777
  725MOL0     H99995   3.443   3.589  10.475  2.4167 -0.3896  0.9799
  725MOL0     H99996   3.461   3.743  10.398  0.5013  0.2017  2.1582
  725MOL0     H99997   3.608   3.505  10.285 -0.5350 -2.4820  2.5853
  725MOL0     H99998   3.651   3.682  10.272 -0.9245  0.6896  1.1686
  725MOL0     H99999   3.709   3.822  10.497  2.2886  0.3332  0.3235
  725MOL0     H    0   3.885   3.884  10.655 -1.0648  0.2547  2.2305
  725MOL0     H    1   4.012   3.757  10.686  1.5590  2.6665  3.4308
  725MOL0     H    2   3.895   3.880  10.862  1.1521 -1.1564  2.2900
  725MOL0     H    3   3.738   3.782  10.838 -0.5124 -1.3970 -0.4275
  725MOL0     H    4   3.859   3.572  10.879 -0.4478 -0.2011  0.5536
  725MOL0     H    5   4.019   3.650  10.889  0.1333 -3.0343 -1.4466
  725MOL0     H    6   3.941   3.746  11.098  0.6743  0.7316  0.2183
  725MOL0     H    7   3.768   3.678  11.065 -0.1946 -3.8250  1.7114
  725MOL0     H    8   3.956   3.288  11.188 -1.2509 -3.0278  0.4554
  725MOL0     H    9   3.759   3.025  11.279 -0.5494  1.1494  0.1770
  725MOL0     H   10   3.838   3.087  11.427  0.5120 -2.0318  0.3280
  725MOL0     H   11   3.923   3.087  11.273  1.1416 -1.9548  2.8955
  725MOL0     H   12   3.522   3.089  11.714 -0.4828 -0.3707  0.2017
  725MOL0     H   13   3.372   3.032  11.898 -2.7134 -0.0254  0.0580
  725MOL0     H   14   3.066   2.936  11.840  0.0402 -0.3671  0.3229
  725MOL0     H   15   3.164   2.915  11.990 -1.1979 -1.4461 -0.3282
  725MOL0     H   16   3.044   3.041  12.130 -0.2855 -0.1972  0.8031
  725MOL0     H   17   2.914   3.072  12.002  0.5543 -0.1552 -1.2422
  725MOL0     H   18   3.013   2.803  12.067 -0.8972 -0.1603 -2.1222
  725MOL0     H   19   2.856   2.834  11.991 -0.9270 -0.4162  0.8101
  725MOL0     H   20   2.898   2.929  12.269 -1.1534 -1.5928  1.8246
  725MOL0     H   21   2.900   2.763  12.245  1.4246 -1.7805 -2.6393
  725MOL0     H   22   2.682   2.800  12.101  0.5542  1.4303 -1.2550
  725MOL0     H   23   2.662   2.814  12.282  5.7491 -0.5686  2.1364
  725MOL0     H   24   2.533   2.987  12.160  0.2364  0.0628 -2.2619
  725MOL0     H   25   2.672   3.058  12.091 -1.5676  0.5988  0.3297
  725MOL0     H   26   2.635   3.197  12.254 -0.0826 -0.4283 -1.0949
  725MOL0     H   27   2.773   3.124  12.305  0.1770 -1.0625  0.6999
  725MOL0     H   28   2.661   3.091  12.510  1.3791  0.2829 -0.3524
  725MOL0     H   29   2.567   2.960  12.431  0.9260 -0.1341 -0.8347
  725MOL0     H   30   3.074   3.275  11.742  0.7600  2.9699 -0.9264
  725MOL0     H   31   3.212   3.340  11.549 -1.7723  0.0665  0.1640
  725MOL0     H   32   3.532   3.458  11.371  2.2254  2.3385 -1.3716
  725MOL0     H   33   3.679   3.618  11.249 -0.8581 -0.2230 -2.4336
  725MOL0     H   34   2.638   3.929  10.068  0.2696 -1.0730 -1.3606
  725MOL0     H   35   2.586   4.161  10.025  0.8133  3.0584 -1.3252
  725MOL0     H   36   2.862   4.567   9.600 -2.2404 -2.2276 -0.5112
  725MOL0     H   37   2.784   4.797   9.532 -1.1597  0.0824 -0.4803
  725MOL0     H   38   2.587   5.110   9.589 -1.0142  0.6459 -2.7019
  725MOL0     H   39   2.736   5.014   9.572 -0.0329  2.5706  2.7698
  725MOL0     H   40   2.494   5.009   9.391  0.4131  0.5992 -0.4293
  725MOL0     H   41   2.628   4.913   9.373 -3.0964 -1.4959  2.4227
  725MOL0     H   42   2.642   5.222   9.358  0.6432 -0.5502  2.9821
  725MOL0     H   43   2.786   5.123   9.370 -0.3171 -3.8897  2.1488
  725MOL0     H   44   2.555   5.092   9.161 -0.6748 -1.6491  0.8180
  725MOL0     H   45   2.691   4.991   9.159 -3.6551 -0.0993 -1.3794
  725MOL0     H   46   2.777   5.390   8.977 -0.3332  1.6476  0.5575
  725MOL0     H   47   2.411   4.725   9.719  0.2745 -0.2735  0.0095
  725MOL0     H   48   2.340   4.491   9.757  0.4987 -0.2639 -1.7170
  725MOL0     H   49   2.448   4.352   9.764 -1.9444 -0.4673 -1.3561
  725MOL0     H   50   2.460   4.458   9.893  0.3106 -0.9790 -0.8052
  726MOL0     O   51   1.448   3.831   7.989  0.2922  0.3463 -0.1975
  726MOL0     C   52   1.523   3.763   8.042 -0.1512 -0.6353 -0.0376
  726MOL0     O   53   1.625   3.808   8.128 -0.2615  0.2445  0.4751
  726MOL0     C   54   1.657   3.939   8.139 -0.1819  0.6646 -0.0997
  726MOL0     C   55   1.773   3.955   8.205  0.0934 -0.6998 -1.1970
  726MOL0     C   56   1.805   4.082   8.256 -0.3044 -0.5162  0.7795
  726MOL0     C   57   1.725   4.199   8.235 -0.2566 -0.3807  0.2346
  726MOL0     O   58   1.756   4.326   8.285  0.4387  0.1329 -0.0662
  726MOL0     C   59   1.680   4.373   8.395  0.5443 -0.7596  0.7287
  726MOL0     C   60   1.745   4.512   8.423 -0.2583  0.8646 -0.4112
  726MOL0     C   61   1.693   4.592   8.543  0.9563 -0.0897  0.4701
  726MOL0     C   62   1.739   4.740   8.539 -0.0999 -0.0495  0.6275
  726MOL0     C   63   1.680   4.820   8.658  0.9763 -0.7431  0.9500
  726MOL0     C   64   1.528   4.836   8.642 -0.0275 -0.1166  0.2853
  726MOL0     C   65   1.477   4.932   8.756 -0.1640 -0.4387  0.3900
  726MOL0     C   66   1.513   5.077   8.728 -0.1555  0.5856 -0.4162
  726MOL0     N   67   1.442   5.161   8.818 -0.2966  0.0176 -0.2101
  726MOL0     C   68   1.321   5.228   8.794 -1.0464 -0.2501 -0.0453
  726MOL0     C   69   1.309   5.293   8.915 -0.2459  0.2005 -0.3763
  726MOL0     C   70   1.186   5.388   8.943 -0.2155  0.3881  0.1964
  726MOL0     C   71   1.208   5.515   9.018 -0.0706  0.8102  1.0317
  726MOL0     C   72   1.228   5.506   9.170  0.8793  0.1993 -0.0725
  726MOL0     C   73   1.156   5.594   9.266 -0.9526 -0.1523 -0.8293
  726MOL0     O   74   1.159   5.722   9.209 -0.1449  0.5079 -0.3704
  726MOL0     C   75   1.072   5.801   9.280  0.1263 -0.1560  0.2860
  726MOL0     C   76   1.093   5.838   9.411 -0.5977 -0.1654  0.5769
  726MOL0     C   77   0.994   5.891   9.490  0.2606 -0.4276 -0.0062
  726MOL0     C   78   1.025   5.912   9.633 -0.2799  0.1070  0.0681
  726MOL0     C   79   0.859   5.909   9.429 -0.0592  0.9566 -0.5659
  726MOL0     C   80   0.735   5.934   9.506  0.8253  0.1714 -0.8245
  726MOL0     O   81   0.623   5.993   9.440 -0.6245  0.0081 -0.2706
  726MOL0     C   82   0.521   6.023   9.525 -0.7797 -0.0897 -0.0272
  726MOL0     C   83   0.398   5.941   9.525  0.0619 -0.4735 -0.4934
  726MOL0     C   84   0.292   5.990   9.595  0.1604 -0.1298 -0.4707
  726MOL0     C   85   0.297   6.115   9.664 -0.6020  0.9970 -0.4457
  726MOL0     O   86   0.182   6.149   9.734 -0.2391 -0.4554  0.1203
  726MOL0     C   87   0.174   6.283   9.789 -0.0106  0.9187 -0.0423
  726MOL0     C   88   0.032   6.311   9.796  0.4255 -0.7794 -1.1819
  726MOL0     C   89  -0.034   6.229   9.914  1.0397  0.1658  0.7255
  726MOL0     C   90  -0.178   6.265   9.964 -0.4490 -0.2441 -0.2029
  726MOL0     C   91  -0.209   6.168  10.085  0.1805 -0.5863 -0.0955
  726MOL0     C   92  -0.348   6.224  10.135 -0.2154 -0.8700  0.8920
  726MOL0     C   93  -0.401   6.174  10.273 -0.7083 -0.6095 -0.6799
  726MOL0     C   94  -0.504   6.275  10.339  0.4226  0.1571 -0.5692
  726MOL0    Cl   95  -0.673   6.283  10.261  0.0629  0.3311  0.1671
  726MOL0     C   96   0.411   6.194   9.674  0.9875  0.2804  0.1607
  726MOL0     C   97   0.520   6.144   9.597  0.3152  0.4577  0.3346
  726MOL0     O   98   0.732   5.889   9.620  0.0060 -0.2758  0.3613
  726MOL0     C   99   0.843   5.883   9.294 -0.2644  0.8987 -0.9035
  726MOL0     C  100   0.947   5.831   9.220  0.1755 -0.7361 -0.5882
  726MOL0     N  101   1.411   5.263   8.999 -0.0539 -0.1526 -0.3337
  726MOL0     N  102   1.494   5.191   8.939  0.3096  0.3317  0.3610
  726MOL0     C  103   1.609   4.182   8.169 -0.5585  0.0339 -0.4774
  726MOL0     C  104   1.577   4.049   8.115 -0.6793 -0.5453 -0.6624
  726MOL0     C  105   1.495   3.621   8.033  0.2120  0.6077  0.3341
  726MOL0     C  106   1.573   3.539   8.125 -0.0040  0.7525  0.4855
  726MOL0     C  107   1.538   3.410   8.158  0.7737 -0.9710 -0.6533
  726MOL0     C  108   1.438   3.345   8.077 -0.4398 -0.6309  0.0708
  726MOL0     O  109   1.377   3.219   8.105 -0.3938  0.6091 -0.2458
  726MOL0     C  110   1.425   3.102   8.031  0.5490 -0.1493 -0.0865
  726MOL0     C  111   1.307   3.080   7.933 -0.5070 -0.6188  0.0760
  726MOL0     C  112   1.320   2.952   7.860  0.2684 -0.9854 -1.2378
  726MOL0     C  113   1.462   2.910   7.823  0.2650 -0.0551 -0.5977
  726MOL0     C  114   1.528   2.974   7.715  0.5497 -0.0412  0.7737
  726MOL0     C  115   1.574   3.030   7.618  0.2433 -0.0006 -0.8427
  726MOL0     C  116   1.364   3.418   7.984 -0.6567  0.1200  0.0326
  726MOL0     C  117   1.398   3.552   7.958  0.2818  0.0858  0.3128
  726MOL0     C  118   1.309   3.620   7.862  0.2248  0.3171  0.7238
  726MOL0     H  119   1.828   3.867   8.237  0.4182  1.0898  3.9755
  726MOL0     H  120   1.891   4.088   8.322 -1.1179 -2.4707  2.1040
  726MOL0     H  121   1.691   4.302   8.478 -0.9040 -2.1495 -0.2116
  726MOL0     H  122   1.572   4.378   8.375  0.6613 -4.3132 -1.6906
  726MOL0     H  123   1.852   4.488   8.424 -0.8776 -2.6106 -2.3464
  726MOL0     H  124   1.726   4.572   8.334 -0.7856  0.4345 -0.5971
  726MOL0     H  125   1.584   4.592   8.540  0.9571  1.3727 -0.2868
  726MOL0     H  126   1.718   4.542   8.637 -0.2759  1.0174  1.4251
  726MOL0     H  127   1.848   4.736   8.553 -0.0880 -2.1130  0.2615
  726MOL0     H  128   1.717   4.792   8.445  1.6556 -0.3753  0.0028
  726MOL0     H  129   1.738   4.913   8.651  0.7303 -0.6766 -0.4079
  726MOL0     H  130   1.702   4.770   8.753 -2.4108 -0.3016  2.0876
  726MOL0     H  131   1.509   4.882   8.544 -0.2387 -2.6834 -0.9450
  726MOL0     H  132   1.471   4.744   8.654 -1.3306  0.9166  2.5934
  726MOL0     H  133   1.516   4.893   8.851  2.6274 -0.0454 -0.5010
  726MOL0     H  134   1.368   4.932   8.760 -0.1717 -1.5710  0.2913
  726MOL0     H  135   1.622   5.079   8.735  0.2678  0.6998 -4.5882
  726MOL0     H  136   1.483   5.110   8.628  0.3709 -3.5516 -2.1245
  726MOL0     H  137   1.260   5.202   8.709 -1.4340  0.7194 -0.0689
  726MOL0     H  138   1.126   5.330   9.015 -0.7024 -0.0795 -0.5735
  726MOL0     H  139   1.139   5.418   8.849 -0.7903 -0.3412  0.2383
  726MOL0     H  140   1.292   5.564   8.967  0.4549  1.3667  2.3899
  726MOL0     H  141   1.122   5.583   9.012 -0.7619  0.0675  2.2843
  726MOL0     H  142   1.212   5.402   9.202  1.5118 -0.5391 -2.0104
  726MOL0     H  143   1.333   5.528   9.188  0.7858  0.0894  0.6628
  726MOL0     H  144   1.056   5.556   9.289 -1.7477  1.5324 -1.2883
  726MOL0     H  145   1.218   5.603   9.356 -2.3164  0.3728  0.1018
  726MOL0     H  146   1.186   5.818   9.464 -1.3726 -1.4581  1.5425
  726MOL0     H  147   1.130   5.940   9.646 -0.0587 -0.4787 -0.4096
  726MOL0     H  148   1.016   5.816   9.686 -0.1745  1.1009  2.0083
  726MOL0     H  149   0.962   5.992   9.673 -0.0865  0.1676  0.2532
  726MOL0     H  150   0.397   5.848   9.470 -4.5562 -0.2472 -1.1511
  726MOL0     H  151   0.204   5.929   9.613 -1.8504  3.4032  3.1409
  726MOL0     H  152   0.231   6.284   9.883 -0.5657  1.9367  0.2964
  726MOL0     H  153   0.217   6.360   9.725 -0.8498  0.8612 -0.6936
  726MOL0     H  154   0.026   6.415   9.828  0.4281 -0.7530 -1.2674
  726MOL0     H  155  -0.013   6.300   9.697  0.2712  0.3115 -1.2431
  726MOL0     H  156   0.035   6.214   9.998  0.5495 -0.0607  1.0867
  726MOL0     H  157  -0.045   6.132   9.865  1.0258  0.9633 -0.9231
  726MOL0     H  158  -0.253   6.267   9.885 -1.3311  0.6954  0.6228
  726MOL0     H  159  -0.177   6.367  10.004 -2.1040  0.9518 -2.9232
  726MOL0     H  160  -0.209   6.064  10.052  0.9187 -0.5240 -0.2973
  726MOL0     H  161  -0.140   6.166  10.169 -1.2857  1.5615  1.2468
  726MOL0     H  162  -0.415   6.203  10.051  0.1762 -0.0492  0.3666
  726MOL0     H  163  -0.327   6.331  10.133  2.1647 -1.2315 -3.3635
  726MOL0     H  164  -0.311   6.173  10.335 -0.5585  1.3311 -0.8081
  726MOL0     H  165  -0.450   6.077  10.268  1.4141 -1.6490 -2.9363
  726MOL0     H  166  -0.463   6.376  10.329 -0.7409  0.8398  1.0759
  726MOL0     H  167  -0.507   6.275  10.448  1.4536  0.7999 -0.5294
  726MOL0     H  168   0.416   6.292   9.720 -0.6439  0.0093  0.9989
  726MOL0     H  169   0.604   6.212   9.589 -1.1989  2.6435  1.6801
  726MOL0     H  170   0.740   5.882   9.257 -1.2513 -0.4905  1.5955
  726MOL0     H  171   0.946   5.796   9.117 -1.1799 -1.7253 -0.2779
  726MOL0     H  172   1.535   4.258   8.147  2.4446  2.5244 -2.9635
  726MOL0     H  173   1.496   4.036   8.044  0.7498 -4.0519 -1.8424
  726MOL0     H  174   1.650   3.585   8.186  1.6352 -3.3138  1.8050
  726MOL0     H  175   1.590   3.357   8.237  3.2158 -0.7167 -1.9609
  726MOL0     H  176   1.518   3.125   7.979  0.9849  6.0593  2.5752
  726MOL0     H  177   1.436   3.015   8.097  0.8943 -0.9804 -1.2105
  726MOL0     H  178   1.285   3.160   7.862 -1.3398 -1.9305 -1.1880
  726MOL0     H  179   1.218   3.072   7.997  0.9301 -3.1327  1.9161
  726MOL0     H  180   1.258   2.877   7.910 -1.0611 -0.1771 -1.6218
  726MOL0     H  181   1.266   2.960   7.766 -2.8201  1.0132  0.5376
  726MOL0     H  182   1.464   2.806   7.788  0.5388  0.1858 -1.3110
  726MOL0     H  183   1.540   2.926   7.897 -0.3986  1.7417 -0.2418
  726MOL0     H  184   1.620   3.076   7.533 -0.1915  1.5129 -0.2883
  726MOL0     H  185   1.276   3.376   7.936 -0.2023  0.7837 -1.4666
  726MOL0     H  186   1.261   3.705   7.910  1.5246  1.8326 -0.5360
  726MOL0     H  187   1.364   3.666   7.779 -0.0170  1.7827  1.3398
  726MOL0     H  188   1.231   3.550   7.830  1.7607 -1.1169 -0.0497
  727MOL0     O  189   8.476   1.851  11.287  0.2373 -0.1557  0.0916
  727MOL0     C  190   8.563   1.819  11.209 -0.0796 -0.0578 -0.0095
  727MOL0     O  191   8.581   1.695  11.151 -0.4945 -0.0742  0.1099
  727MOL0     C  192   8.493   1.595  11.180  0.5315  1.1432  0.4514
  727MOL0     C  193   8.535   1.505  11.277 -0.0639  0.0693 -0.5524
  727MOL0     C  194   8.450   1.395  11.311  0.4805 -0.2382 -0.6606
  727MOL0     C  195   8.324   1.378  11.252 -0.4760  0.4243 -0.2354
  727MOL0     O  196   8.235   1.286  11.299 -0.3298 -0.5758  1.0976
  727MOL0     C  197   8.115   1.259  11.227 -0.2924  0.3570  0.8506
  727MOL0     C  198   8.023   1.154  11.289 -0.0965 -0.6194 -0.4353
  727MOL0     C  199   7.953   1.200  11.426  0.5439  0.6309  0.8884
  727MOL0     C  200   7.897   1.077  11.489 -0.1092 -0.3201 -0.3891
  727MOL0     C  201   7.771   1.100  11.583  0.2071 -0.6398  0.7388
  727MOL0     C  202   7.796   1.174  11.712 -0.5461  0.4901 -0.1250
  727MOL0     C  203   7.677   1.166  11.803  0.6112 -0.6626  0.3479
  727MOL0     C  204   7.693   1.246  11.931 -0.2006  1.1948  0.7835
  727MOL0     N  205   7.568   1.257  12.003  0.3467 -0.0947  0.5590
  727MOL0     C  206   7.485   1.353  11.986  0.2917 -0.2583  0.0405
  727MOL0     C  207   7.381   1.330  12.071 -0.4633  0.1013 -0.1564
  727MOL0     C  208   7.256   1.420  12.070 -1.1594  0.2866  0.0199
  727MOL0     C  209   7.172   1.367  11.948 -0.0691 -0.0753 -0.2918
  727MOL0     C  210   7.061   1.476  11.917  0.6646 -0.1644 -0.3618
  727MOL0     C  211   6.974   1.442  11.808 -1.4814 -0.4339  0.1127
  727MOL0     O  212   7.057   1.448  11.686  0.9217 -0.6839  0.0465
  727MOL0     C  213   7.058   1.557  11.602 -0.5443 -0.6243  0.1446
  727MOL0     C  214   6.957   1.620  11.539  0.1326  0.2869 -0.3822
  727MOL0     C  215   6.970   1.738  11.467 -0.6948 -0.1617  0.6702
  727MOL0     C  216   6.848   1.806  11.439  0.7850 -0.3411 -0.1403
  727MOL0     C  217   7.098   1.782  11.428  0.6005  0.2732  0.1623
  727MOL0     C  218   7.119   1.890  11.324 -0.4915  0.1424  0.0702
  727MOL0     O  219   7.012   1.954  11.260  0.2742  0.0232  0.4324
  727MOL0     C  220   7.039   2.048  11.163 -0.7130  0.5503 -0.6762
  727MOL0     C  221   7.048   2.016  11.021  0.5858  0.2966 -0.2908
  727MOL0     C  222   7.060   2.117  10.925 -0.0978  0.5875  0.3409
  727MOL0     C  223   7.066   2.251  10.968 -0.3764 -1.4971  0.4977
  727MOL0     O  224   7.069   2.365  10.891  0.2278  0.0886 -0.2406
  727MOL0     C  225   7.093   2.343  10.750 -0.2278  0.2064  0.3816
  727MOL0     C  226   7.073   2.471  10.670  0.4641 -0.5252  0.2159
  727MOL0     C  227   7.174   2.583  10.717  0.0153  0.2194  0.1453
  727MOL0     C  228   7.156   2.713  10.634  0.4488 -0.5906 -0.4564
  727MOL0     C  229   7.051   2.811  10.691 -0.2623  0.2370  0.6269
  727MOL0     C  230   7.020   2.915  10.585 -0.1041 -1.2682 -0.2255
  727MOL0     C  231   6.910   2.871  10.491  0.2303 -0.4029  1.1211
  727MOL0     C  232   6.876   2.986  10.391  0.1602 -0.2331 -0.0112
  727MOL0    Cl  233   7.014   3.043  10.297 -0.6576 -0.3882 -0.2173
  727MOL0     C  234   7.073   2.276  11.106  0.3309  0.0148 -0.4260
  727MOL0     C  235   7.061   2.173  11.207  0.3797 -0.1235  0.4364
  727MOL0     O  236   7.234   1.913  11.294 -0.2293  0.3494  0.4273
  727MOL0     C  237   7.207   1.715  11.484  0.0042  1.0318 -0.1206
  727MOL0     C  238   7.188   1.604  11.563 -0.4134 -0.8023 -0.0231
  727MOL0     N  239   7.398   1.207  12.135  0.2173 -0.0637  0.2208
  727MOL0     N  240   7.504   1.159  12.082 -0.0312 -0.1850 -0.5569
  727MOL0     C  241   8.281   1.471  11.159 -0.3070  0.7110 -0.4316
  727MOL0     C  242   8.375   1.574  11.118  0.3835 -0.3642  0.6977
  727MOL0     C  243   8.664   1.912  11.161 -0.2447 -0.1352  0.3586
  727MOL0     C  244   8.701   1.919  11.020  0.5217 -0.8364  0.1525
  727MOL0     C  245   8.795   2.014  10.971  0.1879 -0.3052  0.4974
  727MOL0     C  246   8.848   2.114  11.062  0.4003  0.8663 -0.1837
  727MOL0     O  247   8.946   2.211  11.031  0.3003  1.0323 -0.6309
  727MOL0     C  248   8.986   2.204  10.888  0.0037  0.7746 -0.4237
  727MOL0     C  249   9.087   2.093  10.857  0.8691  0.5676 -0.7058
  727MOL0     C  250   9.220   2.086  10.931 -0.0850 -0.3024 -0.1711
  727MOL0     C  251   9.199   2.092  11.087  1.2678 -0.1926 -0.2537
  727MOL0     C  252   9.319   2.051  11.151 -0.2633 -0.3302 -0.2360
  727MOL0     C  253   9.415   2.017  11.216  0.0564  0.8679 -0.7789
  727MOL0     C  254   8.808   2.100  11.201  0.1373 -0.3723  0.0138
  727MOL0     C  255   8.721   2.002  11.253 -0.4951  0.2223  0.6036
  727MOL0     C  256   8.678   2.013  11.393  0.7586  0.2274 -1.1545
  727MOL0     H  257   8.634   1.529  11.313 -0.4931  2.8680 -1.0116
  727MOL0     H  258   8.484   1.328  11.389  0.7395  0.4956 -0.1315
  727MOL0     H  259   8.137   1.237  11.122 -0.7664 -0.5995  0.9416
  727MOL0     H  260   8.060   1.354  11.228  1.7510  1.8275 -3.1645
  727MOL0     H  261   7.954   1.125  11.209  3.8419 -0.8405 -4.1243
  727MOL0     H  262   8.090   1.074  11.322  1.1197  1.6173  3.0803
  727MOL0     H  263   8.025   1.247  11.492  3.1044  0.7248 -1.7897
  727MOL0     H  264   7.869   1.269  11.416 -0.0972  0.0179  1.8085
  727MOL0     H  265   7.868   1.008  11.409  2.1684 -0.2576 -1.3354
  727MOL0     H  266   7.986   1.045  11.546  1.1025  3.5811  0.1802
  727MOL0     H  267   7.714   1.008  11.594  3.5240 -3.0630 -0.6601
  727MOL0     H  268   7.703   1.170  11.532  1.2289 -0.6425 -0.6853
  727MOL0     H  269   7.885   1.133  11.760 -1.9894 -0.7281  1.6595
  727MOL0     H  270   7.827   1.277  11.694  0.3628  0.0340 -1.3249
  727MOL0     H  271   7.644   1.062  11.808  0.8908 -1.2734 -4.9344
  727MOL0     H  272   7.596   1.222  11.755  0.5801 -1.5415 -0.6555
  727MOL0     H  273   7.770   1.195  11.989 -0.4240  0.0166  0.0878
  727MOL0     H  274   7.729   1.345  11.902 -3.5694  2.7898  1.6646
  727MOL0     H  275   7.501   1.442  11.927  4.5933  0.7709  2.3267
  727MOL0     H  276   7.294   1.523  12.065  2.4738 -0.9614 -1.0171
  727MOL0     H  277   7.213   1.404  12.170 -0.4284 -0.0949  0.2814
  727MOL0     H  278   7.224   1.344  11.855  1.0922 -0.0908  0.3507
  727MOL0     H  279   7.124   1.274  11.977  1.1824 -0.6966 -0.1720
  727MOL0     H  280   7.005   1.480  12.011  2.7192 -1.2553  0.9863
  727MOL0     H  281   7.099   1.576  11.892 -1.5227  0.3535 -1.9140
  727MOL0     H  282   6.937   1.341  11.825 -1.9074 -0.0997  1.2829
  727MOL0     H  283   6.891   1.513  11.810 -1.0674  0.0499  0.3798
  727MOL0     H  284   6.859   1.595  11.578  1.8679 -1.7150  3.1744
  727MOL0     H  285   6.825   1.828  11.334  0.4358  0.4224  0.0841
  727MOL0     H  286   6.833   1.895  11.501 -1.2893 -0.8354  0.1515
  727MOL0     H  287   6.761   1.748  11.471 -1.8706  2.9036 -0.8624
  727MOL0     H  288   7.050   1.907  11.012  0.0100 -0.1394  3.2713
  727MOL0     H  289   7.074   2.089  10.821 -0.0382 -2.6811  1.1231
  727MOL0     H  290   7.194   2.309  10.726 -0.1216  1.3017 -0.8087
  727MOL0     H  291   7.023   2.272  10.703  2.6913 -1.2106 -2.2076
  727MOL0     H  292   7.083   2.454  10.563 -0.3649  3.7283 -0.7125
  727MOL0     H  293   6.968   2.498  10.677  0.4187  0.8069 -3.5289
  727MOL0     H  294   7.270   2.538  10.692 -0.0680  1.4487 -2.9544
  727MOL0     H  295   7.183   2.597  10.825  0.5996  1.0776  0.0039
  727MOL0     H  296   7.129   2.688  10.531 -3.7536  0.0053  0.3311
  727MOL0     H  297   7.254   2.761  10.632  0.7900 -0.8433  3.3587
  727MOL0     H  298   6.955   2.760  10.709 -1.5204  2.7826  1.6681
  727MOL0     H  299   7.083   2.853  10.786 -0.3811 -1.6899  1.5690
  727MOL0     H  300   7.108   2.940  10.524 -1.3669 -2.6916 -2.8088
  727MOL0     H  301   6.990   3.002  10.643  2.4086 -1.9185  2.2795
  727MOL0     H  302   6.813   2.846  10.535 -0.4805  1.5403  0.7836
  727MOL0     H  303   6.942   2.783  10.434 -0.6878 -0.3471  0.4852
  727MOL0     H  304   6.833   3.081  10.425  2.4309  1.8751 -2.5157
  727MOL0     H  305   6.800   2.957  10.318  2.3120 -1.1850 -1.9737
  727MOL0     H  306   7.085   2.377  11.143  2.1370 -0.1520 -0.4803
  727MOL0     H  307   7.073   2.199  11.311  0.9310  1.0066  0.1118
  727MOL0     H  308   7.305   1.746  11.451 -1.1588  1.9433 -3.0958
  727MOL0     H  309   7.269   1.550  11.612 -0.4480 -1.0613 -0.2474
  727MOL0     H  310   8.189   1.481  11.101 -0.7326  1.4293  0.3442
  727MOL0     H  311   8.354   1.634  11.029  2.9488 -0.8494 -0.3189
  727MOL0     H  312   8.648   1.860  10.947  0.2872  0.5345 -0.8357
  727MOL0     H  313   8.809   2.037  10.866  1.5157  0.3657  0.8031
  727MOL0     H  314   8.903   2.188  10.818  1.0622  0.3349 -1.6043
  727MOL0     H  315   9.034   2.300  10.867  0.9318  0.5500  0.5837
  727MOL0     H  316   9.111   2.099  10.750 -1.5657  4.3791 -1.2395
  727MOL0     H  317   9.033   2.000  10.875 -2.0535  2.6297  2.3590
  727MOL0     H  318   9.269   1.993  10.900  1.1790 -0.2067  1.3969
  727MOL0     H  319   9.282   2.171  10.900  1.1256 -1.0016  0.2710
  727MOL0     H  320   9.125   2.021  11.123  1.1223  0.6467  1.1482
  727MOL0     H  321   9.173   2.194  11.118  1.9039  0.3175 -1.3343
  727MOL0     H  322   9.501   1.972  11.260 -0.7148  1.0157  0.9427
  727MOL0     H  323   8.852   2.166  11.276  3.7168 -2.9739  0.5057
  727MOL0     H  324   8.644   1.917  11.433 -2.7146  0.5105 -3.0730
  727MOL0     H  325   8.757   2.066  11.448  0.5786 -2.6447  2.2266
  727MOL0     H  326   8.594   2.082  11.408  1.6191  1.1598 -0.4033
  728MOL0     O  327  10.122   4.449   6.386 -0.4984  0.6398  0.0698
  728MOL0     C  328  10.038   4.390   6.457  0.3430  0.0661  0.1756
  728MOL0     O  329   9.955   4.446   6.546 -0.2873  0.6830 -1.0858
  728MOL0     C  330   9.990   4.568   6.600  0.2236 -0.5645  0.7183
  728MOL0     C  331   9.881   4.656   6.633 -0.7603  0.0427  0.0257
  728MOL0     C  332   9.909   4.785   6.662 -0.4662  0.8450 -1.4510
  728MOL0     C  333  10.040   4.833   6.656 -0.7302 -0.2484  0.6631
  728MOL0     O  334  10.074   4.963   6.667 -0.2545 -0.3540  0.4128
  728MOL0     C  335   9.973   5.052   6.633 -0.7279  0.1420  0.3459
  728MOL0     C  336  10.043   5.193   6.621 -0.1822 -0.0112  0.6264
  728MOL0     C  337  10.158   5.189   6.514 -0.8051 -0.3174 -0.0082
  728MOL0     C  338  10.245   5.310   6.529 -0.1585 -0.5214  0.2219
  728MOL0     C  339  10.339   5.319   6.412 -0.0500  0.0388  0.3350
  728MOL0     C  340  10.462   5.411   6.414  0.1501  0.1538  1.1092
  728MOL0     C  341  10.432   5.566   6.431 -0.2223  0.8984 -0.4711
  728MOL0     C  342  10.367   5.631   6.311  0.4617  0.3308 -0.4130
  728MOL0     N  343  10.455   5.616   6.193 -1.2575 -0.2927  0.6029
  728MOL0     C  344  10.535   5.716   6.121 -0.0301 -0.2931  0.1081
  728MOL0     C  345  10.559   5.659   6.001  0.6516  0.0084  1.5606
  728MOL0     C  346  10.649   5.716   5.887  0.9659  0.2904 -0.2409
  728MOL0     C  347  10.612   5.637   5.759  0.3329  0.0251 -0.1917
  728MOL0     C  348  10.694   5.661   5.642  0.6771  0.0126  0.3689
  728MOL0     C  349  10.636   5.580   5.524 -0.1018 -0.8102  0.9071
  728MOL0     O  350  10.498   5.602   5.503 -0.4840 -0.0618  0.1404
  728MOL0     C  351  10.465   5.698   5.410  0.6795  0.0027 -0.6878
  728MOL0     C  352  10.523   5.821   5.396 -0.8405 -0.4571  0.4296
  728MOL0     C  353  10.506   5.916   5.290  0.4816  0.4539 -0.3089
  728MOL0     C  354  10.578   6.055   5.277 -0.3335 -0.5426 -0.4112
  728MOL0     C  355  10.404   5.882   5.198  0.5263  0.1344 -1.0459
  728MOL0     C  356  10.355   5.959   5.084 -0.6868 -0.1769  0.1485
  728MOL0     O  357  10.329   6.099   5.081 -0.0098 -0.5345  0.1188
  728MOL0     C  358  10.330   6.172   4.963 -0.1389  1.1007 -0.7359
  728MOL0     C  359  10.283   6.134   4.841 -0.3283  0.8204 -0.2810
  728MOL0     C  360  10.293   6.216   4.731  0.3379 -0.3589  0.4011
  728MOL0     C  361  10.362   6.338   4.748  0.4323 -0.2636  0.7533
  728MOL0     O  362  10.371   6.436   4.648 -0.0266 -0.5630  0.5089
  728MOL0     C  363  10.308   6.418   4.526 -0.3566  0.1146 -0.9778
  728MOL0     C  364  10.375   6.331   4.417 -0.6544  0.0123  1.2817
  728MOL0     C  365  10.522   6.370   4.381  0.9293  1.0675 -0.2814
  728MOL0     C  366  10.577   6.350   4.243 -0.4073  0.3885  0.0505
  728MOL0     C  367  10.721   6.371   4.199 -0.7378 -0.7221  0.0528
  728MOL0     C  368  10.733   6.353   4.046 -0.6110  0.6930 -0.3743
  728MOL0     C  369  10.877   6.375   3.994  0.0176  0.2239  0.7908
  728MOL0     C  370  10.945   6.500   4.057  1.1459  0.2730 -0.1358
  728MOL0    Cl  371  11.111   6.501   3.991 -0.0999  0.2363  0.2170
  728MOL0     C  372  10.406   6.377   4.871  0.7732  0.1014 -0.1504
  728MOL0     C  373  10.388   6.292   4.975  0.0870  0.1364 -0.6354
  728MOL0     O  374  10.368   5.888   4.983  0.4065 -0.3373 -0.0966
  728MOL0     C  375  10.330   5.772   5.227 -0.4452  0.7101 -0.3036
  728MOL0     C  376  10.357   5.679   5.325  1.1188 -1.3006  0.3020
  728MOL0     N  377  10.502   5.537   6.005 -0.3149  0.1284  0.0577
  728MOL0     N  378  10.432   5.517   6.105 -0.8338  1.4110 -0.2596
  728MOL0     C  379  10.146   4.757   6.625 -0.8079  0.1292 -1.0043
  728MOL0     C  380  10.119   4.620   6.612 -0.0106 -0.0667 -0.3677
  728MOL0     C  381  10.004   4.241   6.423  1.0382  0.3178 -0.5809
  728MOL0     C  382   9.890   4.186   6.494  0.6752  0.2128  0.1966
  728MOL0     C  383   9.844   4.055   6.462 -0.3001  0.2480 -0.5332
  728MOL0     C  384   9.915   3.974   6.369  0.8371  1.2275 -0.2668
  728MOL0     O  385   9.893   3.843   6.340  0.9183  0.1893  0.6678
  728MOL0     C  386   9.757   3.812   6.337  0.6621  0.4640 -0.0314
  728MOL0     C  387   9.750   3.673   6.290 -0.5596 -0.4744  1.3055
  728MOL0     C  388   9.600   3.638   6.264 -0.1065  0.1182 -1.0403
  728MOL0     C  389   9.574   3.500   6.195  0.5518  0.3252 -0.4687
  728MOL0     C  390   9.652   3.491   6.075 -0.2680 -0.1641 -0.3596
  728MOL0     C  391   9.709   3.485   5.967  0.5646 -0.5498 -0.7750
  728MOL0     C  392  10.030   4.024   6.309 -0.9978  0.1278 -0.6619
  728MOL0     C  393  10.079   4.149   6.344  0.3720 -0.1114  0.5589
  728MOL0     C  394  10.210   4.181   6.276 -0.1881  0.1426 -0.7846
  728MOL0     H  395   9.778   4.622   6.634 -0.6366 -0.3635 -0.3496
  728MOL0     H  396   9.831   4.857   6.684 -0.7776 -0.0877  0.8182
  728MOL0     H  397   9.898   5.064   6.712 -0.8965  1.3351  0.0292
  728MOL0     H  398   9.932   5.022   6.537  0.4545  1.9335 -0.7955
  728MOL0     H  399   9.971   5.273   6.600 -0.8991 -0.7116  0.3997
  728MOL0     H  400  10.094   5.210   6.716  1.5085 -0.4995 -0.1719
  728MOL0     H  401  10.206   5.092   6.519  0.7760  0.4111 -0.4120
  728MOL0     H  402  10.102   5.195   6.420 -5.5459 -3.3504  2.2900
  728MOL0     H  403  10.179   5.397   6.531  0.8564  0.2727  1.5952
  728MOL0     H  404  10.289   5.293   6.628 -1.7754  0.6973  1.1933
  728MOL0     H  405  10.287   5.325   6.315  1.3253  0.9749 -0.3754
  728MOL0     H  406  10.382   5.219   6.404 -1.8141 -0.6191 -2.3389
  728MOL0     H  407  10.538   5.381   6.487  2.5701 -0.7836 -1.6022
  728MOL0     H  408  10.511   5.387   6.319  0.3408 -1.8103  1.6781
  728MOL0     H  409  10.525   5.611   6.468 -1.0007 -0.5124  3.8183
  728MOL0     H  410  10.358   5.581   6.510 -2.0097 -1.7684 -1.4849
  728MOL0     H  411  10.271   5.585   6.287  1.8912 -1.7054 -2.5685
  728MOL0     H  412  10.356   5.737   6.339  0.6668 -0.3497  2.6805
  728MOL0     H  413  10.579   5.809   6.155  0.2343 -0.0081 -0.9806
  728MOL0     H  414  10.751   5.689   5.918 -0.1306 -2.5380  1.3168
  728MOL0     H  415  10.630   5.823   5.885 -2.6304 -0.2085 -3.1011
  728MOL0     H  416  10.617   5.528   5.767  0.6637 -0.0868 -1.6276
  728MOL0     H  417  10.507   5.667   5.749  0.5644  1.3448  1.0059
  728MOL0     H  418  10.694   5.764   5.604 -1.1871 -0.3862 -0.8165
  728MOL0     H  419  10.800   5.635   5.645  0.5380 -0.4986  0.9299
  728MOL0     H  420  10.690   5.599   5.430 -0.5530 -0.7235  0.6574
  728MOL0     H  421  10.644   5.474   5.547  0.6107 -0.6783  1.3040
  728MOL0     H  422  10.591   5.866   5.467  2.4602 -1.6823 -1.7047
  728MOL0     H  423  10.514   6.128   5.328 -0.4897 -0.9965  0.0588
  728MOL0     H  424  10.587   6.083   5.172 -0.3666  2.0383  0.2061
  728MOL0     H  425  10.678   6.055   5.321 -1.1230  0.6011  1.4930
  728MOL0     H  426  10.225   6.043   4.825 -0.3216  1.0582 -1.8258
  728MOL0     H  427  10.243   6.189   4.639  0.5253 -1.2821  0.5630
  728MOL0     H  428  10.205   6.381   4.535 -0.0438 -0.4952  0.2712
  728MOL0     H  429  10.286   6.521   4.495 -0.5415  0.4725  0.3218
  728MOL0     H  430  10.372   6.230   4.459  1.8676  0.5210  2.9059
  728MOL0     H  431  10.318   6.333   4.324 -0.4538  3.7734  1.0587
  728MOL0     H  432  10.588   6.317   4.451 -0.9209 -2.6902 -1.1262
  728MOL0     H  433  10.532   6.476   4.406  2.6847  1.4296 -2.2104
  728MOL0     H  434  10.510   6.416   4.188  0.4917 -0.7109 -2.5028
  728MOL0     H  435  10.555   6.251   4.201 -1.6775  2.3924 -4.7153
  728MOL0     H  436  10.755   6.473   4.218 -0.7607 -0.2706 -2.1182
  728MOL0     H  437  10.789   6.305   4.253 -0.7666  0.0842  1.1122
  728MOL0     H  438  10.666   6.421   3.992  0.9834  1.0182 -2.0373
  728MOL0     H  439  10.704   6.250   4.022  1.6307 -0.3339  1.0536
  728MOL0     H  440  10.877   6.375   3.885 -1.3140  0.5224  0.7766
  728MOL0     H  441  10.942   6.290   4.017 -1.2909 -0.7649  0.9845
  728MOL0     H  442  10.943   6.487   4.165  1.6998  1.2805  0.0052
  728MOL0     H  443  10.886   6.588   4.030 -0.6646 -0.3508  1.5390
  728MOL0     H  444  10.451   6.473   4.895  0.4243  0.3150 -0.3413
  728MOL0     H  445  10.439   6.323   5.066 -1.0926 -1.5170  0.6548
  728MOL0     H  446  10.248   5.753   5.159 -0.0982 -0.5576 -0.3999
  728MOL0     H  447  10.292   5.593   5.314 -0.8479  0.1235  0.2613
  728MOL0     H  448  10.241   4.806   6.611 -1.0058  1.1486  0.8921
  728MOL0     H  449  10.201   4.550   6.594 -1.2549 -1.2812 -1.5137
  728MOL0     H  450   9.839   4.249   6.565  2.1365 -0.4340  1.9008
  728MOL0     H  451   9.748   4.027   6.504 -0.1132  1.6291  0.9065
  728MOL0     H  452   9.710   3.818   6.436  0.0790 -2.8611  0.0106
  728MOL0     H  453   9.693   3.864   6.265  1.2817 -2.1934 -2.6779
  728MOL0     H  454   9.805   3.609   6.359  1.3842 -0.0058  0.2820
  728MOL0     H  455   9.807   3.664   6.197 -1.3341 -1.7326  0.9194
  728MOL0     H  456   9.541   3.635   6.356  2.5927 -1.5353  0.7866
  728MOL0     H  457   9.573   3.711   6.187 -0.1130  0.2029 -0.9573
  728MOL0     H  458   9.468   3.481   6.172 -1.0619  2.1981  4.3091
  728MOL0     H  459   9.609   3.421   6.262 -0.3218  0.7512  0.5242
  728MOL0     H  460   9.736   3.480   5.863  0.1304  0.5301 -0.9572
  728MOL0     H  461  10.089   3.956   6.249  1.2328 -0.3958  1.9471
  728MOL0     H  462  10.286   4.116   6.320  0.7176  0.7479 -1.4035
  728MOL0     H  463  10.198   4.167   6.168 -1.1534  3.9807 -1.3496
  728MOL0     H  464  10.234   4.288   6.278 -3.6809  1.0706 -1.8882
  729MOL0     O  465  10.943   6.826   3.506  0.2919 -0.4538  0.2945
  729MOL0     C  466  11.049   6.802   3.456  0.6637  0.4360 -0.5775
  729MOL0     O  467  11.161   6.868   3.486  0.2188 -0.4985  0.4022
  729MOL0     C  468  11.156   6.962   3.586 -0.1100 -0.3391 -0.7584
  729MOL0     C  469  11.145   6.918   3.720  0.0581 -0.0197 -0.4623
  729MOL0     C  470  11.151   7.005   3.822 -0.5344  0.5677 -0.6738
  729MOL0     C  471  11.164   7.141   3.805  0.3464 -0.1758 -0.2269
  729MOL0     O  472  11.190   7.215   3.907  0.1159 -1.4479  0.0432
  729MOL0     C  473  11.294   7.307   3.901  0.5357 -1.0008  1.3447
  729MOL0     C  474  11.417   7.238   3.952  0.1528 -0.7769  0.3396
  729MOL0     C  475  11.543   7.319   3.972 -1.1589  0.7415  0.3210
  729MOL0     C  476  11.647   7.233   4.051 -0.9328  0.5226  0.1533
  729MOL0     C  477  11.784   7.301   4.085 -0.2398  0.3125  0.2532
  729MOL0     C  478  11.876   7.225   4.182  0.8711 -0.3891  0.3709
  729MOL0     C  479  11.942   7.101   4.131  0.1410  0.8593  0.4833
  729MOL0     C  480  12.080   7.067   4.191 -0.4097  0.6686  0.0041
  729MOL0     N  481  12.082   7.060   4.328 -0.5386  0.3127  0.3576
  729MOL0     C  482  11.997   6.991   4.410 -0.5646  0.9275  0.5449
  729MOL0     C  483  12.000   7.054   4.530  0.1844  0.8563 -0.1518
  729MOL0     C  484  11.922   7.001   4.642  0.0253  0.1907 -0.3314
  729MOL0     C  485  12.020   6.971   4.762  0.2013 -1.1299 -0.0688
  729MOL0     C  486  12.136   6.875   4.717  0.2580  0.2232  0.5898
  729MOL0     C  487  12.089   6.736   4.669 -0.3035 -0.5940  0.4725
  729MOL0     O  488  12.205   6.647   4.672 -0.7809  0.5601 -0.1257
  729MOL0     C  489  12.182   6.513   4.636 -0.0755 -0.2626 -1.0772
  729MOL0     C  490  12.284   6.430   4.610 -0.9609  0.6846 -0.1231
  729MOL0     C  491  12.271   6.300   4.563  0.6542  0.5600 -0.1161
  729MOL0     C  492  12.395   6.202   4.578  0.2434 -0.8979  0.1768
  729MOL0     C  493  12.146   6.246   4.532  0.2118 -0.6846  0.1107
  729MOL0     C  494  12.128   6.111   4.495 -0.0440 -0.3316  0.2756
  729MOL0     O  495  12.047   6.032   4.575  0.2395  0.0454  0.1866
  729MOL0     C  496  11.995   5.914   4.525  0.9670  0.6854 -0.1068
  729MOL0     C  497  11.941   5.879   4.402 -0.1815  0.7724 -1.0432
  729MOL0     C  498  11.863   5.762   4.390 -0.4321  0.6703  0.4001
  729MOL0     C  499  11.831   5.692   4.500 -0.5418  0.4508 -0.2498
  729MOL0     O  500  11.746   5.584   4.492 -0.3259 -0.6326  0.3094
  729MOL0     C  501  11.646   5.595   4.397  0.4181  0.4893  0.5715
  729MOL0     C  502  11.567   5.466   4.432  0.6355  0.2467 -0.1816
  729MOL0     C  503  11.472   5.511   4.544  0.4316 -0.1216 -0.4022
  729MOL0     C  504  11.363   5.399   4.572  0.1593 -0.4732  0.2586
  729MOL0     C  505  11.410   5.258   4.612 -0.7409 -0.6511 -0.2465
  729MOL0     C  506  11.532   5.241   4.701  0.2837  0.0654 -0.1525
  729MOL0     C  507  11.502   5.297   4.845  0.7898  0.6206 -0.2311
  729MOL0     C  508  11.415   5.211   4.929  0.0406  0.1324  0.0636
  729MOL0    Cl  509  11.523   5.159   5.069 -0.0506 -0.1405  0.0865
  729MOL0     C  510  11.889   5.716   4.623 -0.1258 -0.9353  0.0526
  729MOL0     C  511  11.971   5.829   4.639  0.5806 -0.9045  0.0178
  729MOL0     O  512  12.203   6.076   4.407 -0.6468 -0.3079 -0.1013
  729MOL0     C  513  12.036   6.329   4.563 -0.5323  1.1575 -0.0702
  729MOL0     C  514  12.055   6.457   4.610 -0.4918  0.4314 -0.3910
  729MOL0     N  515  12.086   7.158   4.514 -0.1082 -0.2523 -0.9869
  729MOL0     N  516  12.137   7.165   4.397  0.0245  0.7844 -0.3122
  729MOL0     C  517  11.171   7.190   3.676  0.3878  0.9651  0.9616
  729MOL0     C  518  11.153   7.102   3.568 -0.8155  0.1258  0.3846
  729MOL0     C  519  11.060   6.688   3.359 -0.4570 -0.0447  0.1802
  729MOL0     C  520  11.100   6.720   3.224 -0.3919 -0.0765  0.3933
  729MOL0     C  521  11.099   6.618   3.124 -0.7440  0.4697 -0.4557
  729MOL0     C  522  11.045   6.498   3.145 -0.2885  0.9757  1.4754
  729MOL0     O  523  11.027   6.399   3.052  0.5101  0.4676  0.1767
  729MOL0     C  524  11.082   6.430   2.921  1.0567  0.7018 -0.2982
  729MOL0     C  525  11.086   6.306   2.834  0.3097  0.8441 -0.8219
  729MOL0     C  526  10.957   6.270   2.744 -1.5845 -0.7912 -1.0408
  729MOL0     C  527  10.921   6.382   2.648 -0.5191 -0.3574 -0.4527
  729MOL0     C  528  11.039   6.424   2.573 -0.2801  0.3981  0.4021
  729MOL0     C  529  11.147   6.439   2.521 -0.3580 -0.5642 -1.0069
  729MOL0     C  530  11.003   6.469   3.275  0.2701 -0.5362  0.2307
  729MOL0     C  531  11.001   6.561   3.378  0.8630  0.2092  0.0351
  729MOL0     C  532  10.939   6.528   3.512 -0.4414  0.2360  0.0341
  729MOL0     H  533  11.134   6.811   3.737 -2.1152  0.5085  2.1187
  729MOL0     H  534  11.145   6.952   3.917  0.2306 -1.8620 -1.8989
  729MOL0     H  535  11.258   7.384   3.970 -4.0943  1.5721 -3.2709
  729MOL0     H  536  11.315   7.354   3.805  0.3544 -2.6569  0.4557
  729MOL0     H  537  11.397   7.183   4.044 -0.5316 -0.0285  0.6457
  729MOL0     H  538  11.427   7.164   3.872 -3.0202 -1.7746  0.7254
  729MOL0     H  539  11.581   7.340   3.872 -3.4747  0.1842 -0.7406
  729MOL0     H  540  11.522   7.414   4.022  1.1913  1.3242  0.3069
  729MOL0     H  541  11.610   7.196   4.146  1.3556  1.5732  1.5331
  729MOL0     H  542  11.671   7.146   3.989  0.1823  1.5430 -0.9320
  729MOL0     H  543  11.745   7.393   4.131 -5.1584 -2.2351  1.8890
  729MOL0     H  544  11.826   7.318   3.985 -1.8287  2.2824 -0.1420
  729MOL0     H  545  11.943   7.293   4.236  0.7955 -2.0535  2.7394
  729MOL0     H  546  11.812   7.194   4.266  2.0543 -0.8936  1.1172
  729MOL0     H  547  11.950   7.117   4.023  0.3376  0.7072  0.4734
  729MOL0     H  548  11.871   7.020   4.147  0.6114  0.8583  2.9682
  729MOL0     H  549  12.111   6.977   4.138  0.2526 -0.4325  2.1281
  729MOL0     H  550  12.144   7.148   4.155 -1.2590 -0.2786 -4.0958
  729MOL0     H  551  11.931   6.908   4.390  0.4219 -0.1866  1.7257
  729MOL0     H  552  11.879   6.903   4.616 -0.5229  0.3821 -0.1549
  729MOL0     H  553  11.848   7.078   4.665 -0.7854 -0.4618 -0.6778
  729MOL0     H  554  12.059   7.071   4.786 -0.1298 -1.0608  0.1762
  729MOL0     H  555  11.964   6.933   4.848  3.3020  0.3813  2.8470
  729MOL0     H  556  12.199   6.917   4.638  0.2033 -0.9749 -0.1155
  729MOL0     H  557  12.208   6.852   4.796  0.3761 -0.6139  0.2419
  729MOL0     H  558  12.012   6.701   4.738  1.6333 -2.2776  1.9020
  729MOL0     H  559  12.057   6.742   4.565 -0.4530  0.9519  0.5848
  729MOL0     H  560  12.386   6.468   4.612 -1.1422  1.4663 -2.5213
  729MOL0     H  561  12.363   6.116   4.637  0.2166 -0.1877  1.2422
  729MOL0     H  562  12.473   6.257   4.632 -0.7221  0.0396  0.6565
  729MOL0     H  563  12.430   6.167   4.481 -0.6602  1.6553 -1.1818
  729MOL0     H  564  11.971   5.933   4.313  0.3872  1.4670 -0.4394
  729MOL0     H  565  11.828   5.732   4.292 -1.4812  3.1253 -0.0626
  729MOL0     H  566  11.593   5.689   4.418  1.1527  0.0408  5.2932
  729MOL0     H  567  11.689   5.576   4.298  1.1414 -1.7542  1.2662
  729MOL0     H  568  11.515   5.438   4.340 -0.1541  0.9866  0.0295
  729MOL0     H  569  11.635   5.385   4.460  0.1503 -0.1454 -0.1419
  729MOL0     H  570  11.421   5.608   4.541 -0.8302 -0.7965 -1.9749
  729MOL0     H  571  11.526   5.519   4.639 -1.6568  0.8457  0.7871
  729MOL0     H  572  11.290   5.391   4.491 -1.3376  1.4266  1.3511
  729MOL0     H  573  11.294   5.430   4.651 -2.0541 -1.8230 -1.0591
  729MOL0     H  574  11.323   5.210   4.659 -0.7577 -1.5968 -1.2244
  729MOL0     H  575  11.416   5.206   4.516 -4.0723 -1.6142 -0.0700
  729MOL0     H  576  11.614   5.303   4.665  0.1359  0.2243 -0.2191
  729MOL0     H  577  11.547   5.133   4.698 -1.2640 -0.1686 -2.1924
  729MOL0     H  578  11.455   5.395   4.834 -1.0664  0.0848  2.1561
  729MOL0     H  579  11.595   5.328   4.894  1.4869  1.8855 -2.2023
  729MOL0     H  580  11.383   5.119   4.879 -1.6793  0.0014  1.2793
  729MOL0     H  581  11.331   5.270   4.966  0.1761  0.6174 -0.3882
  729MOL0     H  582  11.859   5.657   4.709  3.2896 -0.3449  1.8603
  729MOL0     H  583  11.998   5.855   4.740 -1.7553 -1.3910  0.8282
  729MOL0     H  584  11.939   6.280   4.558 -0.2159  0.4037  0.9725
  729MOL0     H  585  11.972   6.527   4.622 -1.0926 -0.3284  0.0120
  729MOL0     H  586  11.181   7.295   3.654 -0.1060  0.5096 -1.8321
  729MOL0     H  587  11.164   7.154   3.473  2.0038  0.6705  0.9130
  729MOL0     H  588  11.132   6.820   3.196 -1.4233 -0.7128 -3.6116
  729MOL0     H  589  11.139   6.655   3.030  1.3518 -0.6827 -0.0932
  729MOL0     H  590  11.029   6.516   2.879  1.2449  0.5151 -0.9223
  729MOL0     H  591  11.187   6.459   2.932  1.0100  1.9256 -2.4846
  729MOL0     H  592  11.097   6.219   2.899 -0.9795  0.2522 -1.3686
  729MOL0     H  593  11.173   6.316   2.769 -0.4310  2.4356 -1.6332
  729MOL0     H  594  10.993   6.191   2.677  0.2190 -2.4023  1.6628
  729MOL0     H  595  10.879   6.239   2.814  1.1694  1.3910  3.4449
  729MOL0     H  596  10.882   6.470   2.700  0.0143  1.0845 -2.3691
  729MOL0     H  597  10.834   6.358   2.586 -1.3066 -0.5942  0.7007
  729MOL0     H  598  11.245   6.440   2.479 -0.3794 -0.0445 -1.0552
  729MOL0     H  599  10.962   6.370   3.297 -0.5907 -0.3059 -0.2627
  729MOL0     H  600  10.892   6.430   3.504 -1.1651  0.7383 -4.6227
  729MOL0     H  601  11.019   6.531   3.586  0.0278 -1.9831 -0.3096
  729MOL0     H  602  10.858   6.593   3.548 -0.4466 -1.1019  2.6679
  730MOL0     O  603   9.039   6.666   5.630 -0.3142  0.1974  0.0709
  730MOL0     C  604   8.946   6.743   5.627  0.0301  0.2489 -0.0122
  730MOL0     O  605   8.825   6.717   5.573 -0.0719  0.0674 -0.0137
  730MOL0     C  606   8.793   6.598   5.511 -0.4045 -0.5412  0.0300
  730MOL0     C  607   8.704   6.518   5.571  0.3717 -0.1942 -0.2755
  730MOL0     C  608   8.653   6.404   5.504 -0.5702  0.3180 -0.3675
  730MOL0     C  609   8.708   6.367   5.379  0.4365  0.7113  0.2451
  730MOL0     O  610   8.640   6.270   5.305  0.3174 -0.6273  0.1496
  730MOL0     C  611   8.693   6.230   5.179 -0.7357  0.9919 -0.2287
  730MOL0     C  612   8.589   6.121   5.136 -0.4048 -0.4593  0.3632
  730MOL0     C  613   8.442   6.177   5.116  0.3980 -0.3245  0.1621
  730MOL0     C  614   8.366   6.070   5.029  0.0739  0.9353  0.0832
  730MOL0     C  615   8.218   6.083   5.052 -0.2402 -0.3228  0.0595
  730MOL0     C  616   8.124   6.026   4.943 -0.5738 -0.0307 -0.2184
  730MOL0     C  617   7.973   6.042   4.990  0.5132 -0.8385 -0.1365
  730MOL0     C  618   7.918   5.965   5.117  0.0659 -0.6582  0.1875
  730MOL0     N  619   7.924   5.820   5.108  0.6567 -0.3075 -1.0681
  730MOL0     C  620   7.829   5.740   5.043 -0.3810 -0.3849 -0.5024
  730MOL0     C  621   7.868   5.614   5.080  1.2814  0.0838 -1.2061
  730MOL0     C  622   7.803   5.478   5.056 -0.5216  0.2410  0.1599
  730MOL0     C  623   7.707   5.447   5.166 -0.7565  0.3114  0.7684
  730MOL0     C  624   7.660   5.309   5.148 -0.6523 -0.1488 -1.5458
  730MOL0     C  625   7.606   5.243   5.274  0.8774  0.9640 -0.1606
  730MOL0     O  626   7.685   5.266   5.394 -0.9291 -1.1937  0.0868
  730MOL0     C  627   7.659   5.198   5.505  0.2643  0.2669 -0.9929
  730MOL0     C  628   7.762   5.185   5.598  0.4225  0.3902  0.3010
  730MOL0     C  629   7.746   5.126   5.728 -0.2490  0.2114  0.2089
  730MOL0     C  630   7.869   5.124   5.815 -0.8379  0.2107 -0.2046
  730MOL0     C  631   7.619   5.070   5.755 -0.0783 -0.1326  0.4902
  730MOL0     C  632   7.594   4.989   5.886  0.0295 -0.1136  0.6800
  730MOL0     O  633   7.470   4.943   5.902 -0.0876 -0.2460  0.8636
  730MOL0     C  634   7.444   4.887   6.023 -0.2209 -0.2162 -0.2339
  730MOL0     C  635   7.471   4.957   6.142  0.3617  0.9714  0.2985
  730MOL0     C  636   7.446   4.890   6.262 -0.4308  0.0778 -1.0570
  730MOL0     C  637   7.385   4.758   6.269 -0.2601  0.0921  0.3959
  730MOL0     O  638   7.350   4.697   6.390  0.7290 -0.1184 -0.0803
  730MOL0     C  639   7.345   4.783   6.507 -0.8356 -0.8505  0.1371
  730MOL0     C  640   7.307   4.704   6.625 -0.2281 -0.4383  0.4586
  730MOL0     C  641   7.314   4.781   6.756  0.1885  0.6392  0.5669
  730MOL0     C  642   7.310   4.671   6.860 -1.1298 -0.7515  0.7143
  730MOL0     C  643   7.278   4.722   6.995 -0.2298  0.2716  0.0679
  730MOL0     C  644   7.243   4.618   7.103  0.3550  0.7798  0.4785
  730MOL0     C  645   7.229   4.677   7.240 -1.0815 -0.3932 -0.9291
  730MOL0     C  646   7.210   4.562   7.344  0.1786 -0.1138 -0.5252
  730MOL0    Cl  647   7.358   4.468   7.360  0.2985 -0.0975 -0.1737
  730MOL0     C  648   7.375   4.692   6.150  0.8319 -0.5884 -1.4538
  730MOL0     C  649   7.391   4.761   6.027 -0.3672  0.9853  0.9061
  730MOL0     O  650   7.688   4.986   5.973  0.2395  0.3106  0.1360
  730MOL0     C  651   7.510   5.093   5.661  0.3912 -0.0447  0.0355
  730MOL0     C  652   7.530   5.152   5.544  0.2951  0.3824 -0.6064
  730MOL0     N  653   7.986   5.626   5.149 -0.0504 -0.2836 -0.6633
  730MOL0     N  654   8.008   5.741   5.181  0.3920 -0.8711 -0.5556
  730MOL0     C  655   8.822   6.440   5.331 -1.7007 -0.1366 -0.5827
  730MOL0     C  656   8.872   6.550   5.398  0.7054  0.7009 -0.3137
  730MOL0     C  657   8.966   6.880   5.678 -0.6444 -1.4884 -0.4153
  730MOL0     C  658   8.865   6.980   5.650 -0.6225 -0.4542 -0.6881
  730MOL0     C  659   8.874   7.108   5.699 -0.0866 -0.5912  0.3880
  730MOL0     C  660   8.992   7.154   5.755 -0.7596 -0.3430 -1.0086
  730MOL0     O  661   9.017   7.289   5.780 -0.1855  0.0778 -0.2221
  730MOL0     C  662   8.906   7.381   5.741 -0.0597 -0.1634 -0.0245
  730MOL0     C  663   8.951   7.527   5.763  0.2232 -0.9190  0.0132
  730MOL0     C  664   9.075   7.578   5.687  0.4727  0.4303 -1.0097
  730MOL0     C  665   9.069   7.544   5.537 -0.4919  0.1744  0.2763
  730MOL0     C  666   8.959   7.591   5.467  0.6205 -0.6206 -0.1519
  730MOL0     C  667   8.871   7.635   5.395 -0.7527 -0.5256 -0.1748
  730MOL0     C  668   9.096   7.062   5.781 -0.0828 -0.5941  0.1698
  730MOL0     C  669   9.091   6.926   5.742  0.3686 -0.3966 -0.5217
  730MOL0     C  670   9.210   6.846   5.780 -1.0288  0.5093  0.6652
  730MOL0     H  671   8.655   6.535   5.667  0.0960  1.0175 -0.6132
  730MOL0     H  672   8.570   6.346   5.544  0.3587 -1.5339 -1.0138
  730MOL0     H  673   8.795   6.189   5.177 -0.8955  0.5831 -0.0895
  730MOL0     H  674   8.687   6.309   5.104  0.8390  1.1840 -0.1943
  730MOL0     H  675   8.622   6.091   5.036 -1.4970 -0.0767 -0.1384
  730MOL0     H  676   8.593   6.033   5.200 -0.9885 -0.6590  0.1362
  730MOL0     H  677   8.405   6.182   5.219  1.2653 -2.5023  0.6394
  730MOL0     H  678   8.438   6.271   5.061  4.3153  0.5056  1.0130
  730MOL0     H  679   8.384   6.076   4.921 -0.3528 -0.8907 -0.1118
  730MOL0     H  680   8.409   5.973   5.054  1.6629  0.6035 -3.3694
  730MOL0     H  681   8.198   6.191   5.051  2.5589  0.2779  1.3012
  730MOL0     H  682   8.197   6.038   5.149  4.2725 -1.3025  0.7657
  730MOL0     H  683   8.133   6.089   4.854  0.4375  0.3656  0.1606
  730MOL0     H  684   8.156   5.923   4.926 -2.3013 -0.2777 -2.5831
  730MOL0     H  685   7.910   5.992   4.915 -0.1427 -0.9803  0.5008
  730MOL0     H  686   7.951   6.149   4.989  1.3938 -0.6523 -0.9258
  730MOL0     H  687   7.975   5.994   5.206  1.5847 -0.9555 -0.6602
  730MOL0     H  688   7.820   6.007   5.143  1.1169  1.0014  1.7256
  730MOL0     H  689   7.739   5.760   4.985 -0.1522 -2.5651 -1.7449
  730MOL0     H  690   7.885   5.406   5.049  0.9923  1.9010 -0.2042
  730MOL0     H  691   7.753   5.471   4.959  0.7693 -0.5031 -0.4726
  730MOL0     H  692   7.759   5.454   5.261 -1.0161  1.5936  0.8303
  730MOL0     H  693   7.625   5.519   5.169  0.1289  1.3400  0.6169
  730MOL0     H  694   7.586   5.306   5.068  0.1298  2.0042 -2.4317
  730MOL0     H  695   7.746   5.252   5.112 -0.8473 -1.0685 -0.6308
  730MOL0     H  696   7.500   5.265   5.288 -0.1338 -3.7009  1.4168
  730MOL0     H  697   7.614   5.134   5.265 -2.7181  0.1904  3.2180
  730MOL0     H  698   7.845   5.248   5.568 -1.5801  2.0555 -2.2123
  730MOL0     H  699   7.955   5.188   5.790  0.7033 -1.2773  1.0097
  730MOL0     H  700   7.904   5.021   5.830 -0.0135  0.5662  0.4086
  730MOL0     H  701   7.836   5.155   5.914  2.6547 -1.3976  1.6653
  730MOL0     H  702   7.510   5.058   6.140 -0.2571  1.2121 -1.1376
  730MOL0     H  703   7.453   4.940   6.358 -3.7859 -1.9886  0.4458
  730MOL0     H  704   7.442   4.830   6.530 -1.3164 -0.5895  1.7319
  730MOL0     H  705   7.277   4.864   6.477 -2.5650 -2.0609  0.6702
  730MOL0     H  706   7.204   4.667   6.620 -0.4404 -0.2535  2.6622
  730MOL0     H  707   7.381   4.625   6.635  0.8030  0.5119  0.5885
  730MOL0     H  708   7.226   4.844   6.762 -2.5444 -2.8945  1.1946
  730MOL0     H  709   7.410   4.833   6.761  0.4406  0.1180  1.3495
  730MOL0     H  710   7.403   4.614   6.864  0.2118  1.2546 -0.0901
  730MOL0     H  711   7.244   4.592   6.824 -0.1248 -0.5098 -1.8746
  730MOL0     H  712   7.370   4.772   7.028 -2.0246  2.6496  1.7515
  730MOL0     H  713   7.191   4.788   6.990 -2.2632 -2.2884 -2.0323
  730MOL0     H  714   7.309   4.531   7.103 -3.2655 -2.2450  2.5251
  730MOL0     H  715   7.143   4.581   7.076  1.2522 -1.8011  0.3804
  730MOL0     H  716   7.140   4.739   7.254 -1.4819 -1.1032 -0.2073
  730MOL0     H  717   7.314   4.735   7.275 -1.2041 -1.7381  1.8904
  730MOL0     H  718   7.128   4.493   7.323  0.8399 -1.0616 -0.0822
  730MOL0     H  719   7.181   4.591   7.446 -2.7077  1.4205 -1.6696
  730MOL0     H  720   7.333   4.592   6.144 -0.5070 -0.1160 -0.4804
  730MOL0     H  721   7.357   4.707   5.940  1.0547  3.4662 -1.3240
  730MOL0     H  722   7.412   5.056   5.690 -0.7820  1.8305 -1.3256
  730MOL0     H  723   7.447   5.170   5.477  0.8534 -0.0697 -1.4513
  730MOL0     H  724   8.878   6.403   5.246 -0.7663 -1.7795  0.6779
  730MOL0     H  725   8.948   6.619   5.361  1.0950 -0.4969 -1.8692
  730MOL0     H  726   8.772   6.965   5.597  0.2308  0.2643 -2.4477
  730MOL0     H  727   8.800   7.186   5.686  0.2494 -0.5221 -1.2790
  730MOL0     H  728   8.880   7.354   5.638  1.1990 -0.7143 -0.2294
  730MOL0     H  729   8.812   7.361   5.793 -2.7694  0.3503 -4.1997
  730MOL0     H  730   8.978   7.525   5.869 -0.4985 -3.4942  0.2201
  730MOL0     H  731   8.863   7.587   5.739  0.4007  0.3256  2.2528
  730MOL0     H  732   9.074   7.687   5.702 -1.2986  0.2777  0.4068
  730MOL0     H  733   9.171   7.550   5.731 -0.3793  3.8138  3.9821
  730MOL0     H  734   9.080   7.436   5.521  2.8874  0.2944  0.9356
  730MOL0     H  735   9.155   7.591   5.488 -0.8363  1.7156  1.0773
  730MOL0     H  736   8.795   7.679   5.333 -0.3249 -0.3271 -0.5694
  730MOL0     H  737   9.192   7.098   5.818  1.1626 -3.1744 -0.2536
  730MOL0     H  738   9.272   6.822   5.693  0.0883  2.3171  0.9063
  730MOL0     H  739   9.275   6.896   5.852 -1.3779  3.2067 -0.7359
  730MOL0     H  740   9.172   6.750   5.815 -0.6907 -0.4506 -1.4447
  731MOL0     O  741  11.540   7.276   5.822  0.0669 -0.3292 -0.1871
  731MOL0     C  742  11.511   7.193   5.742  0.6635  0.4856 -0.0969
  731MOL0     O  743  11.553   7.189   5.611 -0.4306  0.1303 -0.6145
  731MOL0     C  744  11.637   7.294   5.559  0.0724 -0.6614 -0.4758
  731MOL0     C  745  11.758   7.313   5.605  0.2758 -0.6182  0.3133
  731MOL0     C  746  11.848   7.406   5.541  0.0561  0.2510 -0.2903
  731MOL0     C  747  11.803   7.489   5.427  0.3861 -0.4735  0.0434
  731MOL0     O  748  11.887   7.597   5.373  0.8018  0.0295 -0.8582
  731MOL0     C  749  12.019   7.620   5.418 -0.1562  0.4054 -0.3732
  731MOL0     C  750  12.093   7.730   5.342  1.2207 -0.0825  0.2580
  731MOL0     C  751  12.028   7.861   5.356 -0.8510 -0.5697  0.6248
  731MOL0     C  752  12.117   7.966   5.302  0.0645 -0.5616  0.4158
  731MOL0     C  753  12.041   8.100   5.303 -0.0399  0.4491  0.4503
  731MOL0     C  754  12.123   8.218   5.242 -0.4161  0.3376  0.1614
  731MOL0     C  755  12.170   8.198   5.096  0.3529  0.7943  0.4811
  731MOL0     C  756  12.228   8.324   5.040  0.4352  0.3657 -0.2017
  731MOL0     N  757  12.340   8.278   4.951 -0.3041  0.0223 -0.8542
  731MOL0     C  758  12.338   8.243   4.820  0.6544  0.3257  0.2204
  731MOL0     C  759  12.472   8.243   4.788  0.5756  0.7632 -0.7957
  731MOL0     C  760  12.512   8.235   4.641  0.4571  0.1956 -0.5433
  731MOL0     C  761  12.650   8.297   4.607 -0.1555  0.0278  0.9959
  731MOL0     C  762  12.779   8.217   4.657  1.4426 -0.3111  0.0256
  731MOL0     C  763  12.806   8.114   4.541  0.4331 -1.0925  0.1005
  731MOL0     O  764  12.854   8.179   4.423  0.7226 -0.0089 -0.2619
  731MOL0     C  765  12.889   8.107   4.311 -0.2642  0.7023 -0.0605
  731MOL0     C  766  12.904   7.967   4.302  0.4014  1.2259  0.7163
  731MOL0     C  767  12.942   7.904   4.182 -0.4629  0.6878 -0.5391
  731MOL0     C  768  12.954   7.754   4.189 -0.1172 -0.4663  0.2852
  731MOL0     C  769  12.965   7.982   4.066 -0.5225  0.0080  0.1875
  731MOL0     C  770  13.004   7.937   3.928 -0.9541 -0.2963 -0.0407
  731MOL0     O  771  13.014   8.040   3.841  0.3328 -0.2533  0.5503
  731MOL0     C  772  13.049   8.010   3.709  0.0934 -0.3249  0.0372
  731MOL0     C  773  12.958   7.949   3.624 -0.0031 -0.3544 -0.9486
  731MOL0     C  774  12.980   7.932   3.491 -0.4684 -0.2617 -0.7519
  731MOL0     C  775  13.102   7.978   3.430 -0.4891 -0.0764 -0.4446
  731MOL0     O  776  13.134   7.969   3.296 -0.5446 -0.3282  0.4023
  731MOL0     C  777  13.030   7.939   3.209  0.6945  0.8100 -0.6443
  731MOL0     C  778  12.943   8.050   3.175 -0.0236 -0.0601 -1.1004
  731MOL0     C  779  12.980   8.151   3.075  0.3314  0.4043  0.1375
  731MOL0     C  780  12.923   8.126   2.936 -0.2045 -0.4562 -0.2805
  731MOL0     C  781  12.984   8.235   2.829  0.8537  0.0654 -0.6482
  731MOL0     C  782  13.079   8.170   2.727 -0.0535  0.1280 -0.5697
  731MOL0     C  783  13.009   8.066   2.652  0.1824  0.0159 -0.0382
  731MOL0     C  784  13.069   8.064   2.509  0.1285  0.9527  0.4624
  731MOL0    Cl  785  12.984   7.944   2.402 -0.0454  0.1820 -0.4977
  731MOL0     C  786  13.207   8.029   3.515  0.2961 -0.2457 -0.2003
  731MOL0     C  787  13.175   8.050   3.659  0.4745 -0.7755 -0.5486
  731MOL0     O  788  13.027   7.818   3.898 -0.1362 -0.4365  0.2471
  731MOL0     C  789  12.940   8.120   4.072  1.9579  0.3735  0.0334
  731MOL0     C  790  12.905   8.180   4.195  0.4949 -0.0157  0.8420
  731MOL0     N  791  12.553   8.251   4.901  0.2729  0.2975  0.8081
  731MOL0     N  792  12.470   8.265   4.999  0.3383  0.4149  0.4902
  731MOL0     C  793  11.681   7.457   5.380  0.6369 -0.5151 -0.2141
  731MOL0     C  794  11.597   7.363   5.448 -0.7674  1.3439  0.0104
  731MOL0     C  795  11.431   7.080   5.774  0.1886 -1.0323  0.7407
  731MOL0     C  796  11.413   6.915   5.640  0.5935  0.2754  0.2870
  731MOL0     C  797  11.304   6.743   5.694  1.1467  0.3430  0.3663
  731MOL0     C  798  11.201   6.741   5.883 -0.8114 -0.2812  0.0055
  731MOL0     O  799  11.128   6.640   5.923  0.4122  0.0515 -0.9032
  731MOL0     C  800  11.131   6.542   5.820 -0.8659  0.5843  0.9974
  731MOL0     C  801  11.058   6.415   5.861  0.1799 -0.2966  0.8717
  731MOL0     C  802  11.094   6.371   5.997  0.0469  1.0103  0.0979
  731MOL0     C  803  10.971   6.377   6.091 -0.4677  0.2707  0.3763
  731MOL0     C  804  10.865   6.275   6.068  0.2233  0.1243 -0.0777
  731MOL0     C  805  10.781   6.196   6.040 -0.3161 -0.5355  0.1142
  731MOL0     C  806  11.218   6.903   6.014  0.0685  0.5652 -0.9861
  731MOL0     C  807  11.334   7.072   5.962 -0.3082 -0.3400 -0.7951
  731MOL0     C  808  11.339   7.174   6.061 -1.0244 -0.6559 -0.3395
  731MOL0     H  809  11.782   7.249   5.690  0.3364 -0.8580  0.1154
  731MOL0     H  810  11.950   7.407   5.579 -0.2680  1.9551  0.6315
  731MOL0     H  811  12.075   7.527   5.418 -2.2706 -0.9854 -2.4015
  731MOL0     H  812  12.024   7.649   5.524  0.6003 -1.2709  0.0869
  731MOL0     H  813  12.196   7.729   5.378  1.3124 -1.2012  0.0087
  731MOL0     H  814  12.086   7.711   5.234 -2.0931  1.7815  0.0071
  731MOL0     H  815  11.936   7.861   5.297 -0.2098 -1.4492 -0.4124
  731MOL0     H  816  12.009   7.872   5.463  0.5498 -1.2847  0.9621
  731MOL0     H  817  12.211   7.971   5.357  0.6747 -1.5268 -0.5011
  731MOL0     H  818  12.130   7.946   5.195  0.2780 -0.2455  0.3786
  731MOL0     H  819  12.024   8.111   5.410  2.7600 -3.8565  1.5662
  731MOL0     H  820  11.946   8.090   5.250  0.1348  0.0466  0.2112
  731MOL0     H  821  12.054   8.303   5.234 -3.5811 -1.9708  0.7791
  731MOL0     H  822  12.213   8.228   5.302 -1.3399  0.1099  1.6394
  731MOL0     H  823  12.087   8.173   5.030 -1.2832  1.3474  2.2640
  731MOL0     H  824  12.240   8.113   5.093  0.2285  0.7325 -1.2527
  731MOL0     H  825  12.147   8.375   4.985 -0.2461  0.2231  0.6499
  731MOL0     H  826  12.275   8.396   5.107  3.0223 -1.1147 -0.3260
  731MOL0     H  827  12.249   8.239   4.758  0.0886 -4.3204  0.9372
  731MOL0     H  828  12.435   8.285   4.581  1.0042  0.6816 -0.8488
  731MOL0     H  829  12.509   8.135   4.598 -4.3151  0.5636 -1.6916
  731MOL0     H  830  12.646   8.316   4.500  1.1307  0.7440  1.0463
  731MOL0     H  831  12.649   8.398   4.650 -0.1072 -0.4909  2.2833
  731MOL0     H  832  12.858   8.291   4.672 -1.0978  2.9324 -1.5760
  731MOL0     H  833  12.769   8.163   4.752  4.2493  0.7747  1.0471
  731MOL0     H  834  12.880   8.049   4.591  1.9641  0.4701 -0.0493
  731MOL0     H  835  12.713   8.066   4.508 -0.7262  2.5184 -2.4317
  731MOL0     H  836  12.893   7.899   4.386 -0.9957 -0.3281 -0.6631
  731MOL0     H  837  12.934   7.711   4.288 -1.1363 -3.3391 -1.0501
  731MOL0     H  838  13.060   7.732   4.171  0.0477 -0.7917  1.5867
  731MOL0     H  839  12.893   7.696   4.119  0.7836  1.6325 -2.3927
  731MOL0     H  840  12.864   7.909   3.660  0.3804 -2.1857 -1.9049
  731MOL0     H  841  12.896   7.890   3.435 -0.4507 -2.9734  1.0390
  731MOL0     H  842  13.084   7.898   3.124  3.3957 -3.0841  2.5856
  731MOL0     H  843  12.974   7.859   3.259  1.9785  1.7107  2.4793
  731MOL0     H  844  12.846   8.005   3.152 -1.0510  0.5386  1.6845
  731MOL0     H  845  12.936   8.101   3.271 -3.0396  0.9888 -1.7868
  731MOL0     H  846  13.089   8.146   3.067  0.1242 -2.2632 -3.8275
  731MOL0     H  847  12.948   8.251   3.106 -0.4638  0.6643 -1.4131
  731MOL0     H  848  12.814   8.133   2.946 -0.6265 -5.8349  2.4357
  731MOL0     H  849  12.948   8.023   2.911  1.3065 -0.1439 -0.1445
  731MOL0     H  850  12.900   8.286   2.781  0.1970  0.9691  1.3154
  731MOL0     H  851  13.035   8.316   2.883  1.6986 -0.4453 -0.6620
  731MOL0     H  852  13.168   8.129   2.775  1.1566 -1.7980 -4.0907
  731MOL0     H  853  13.121   8.246   2.659 -2.6420 -0.6391 -3.2575
  731MOL0     H  854  12.904   8.098   2.651  0.0312 -0.1271  3.0262
  731MOL0     H  855  13.020   7.966   2.695 -0.9246  0.8104  2.2319
  731MOL0     H  856  13.170   8.028   2.530 -1.0015 -1.7880  1.7473
  731MOL0     H  857  13.075   8.159   2.456 -4.2861  0.8680 -0.5348
  731MOL0     H  858  13.305   8.055   3.477  0.5476 -0.9531 -0.0605
  731MOL0     H  859  13.241   8.107   3.723  1.5084 -0.8631 -1.5176
  731MOL0     H  860  12.931   8.185   3.985 -7.4870  1.8071  1.0981
  731MOL0     H  861  12.891   8.286   4.213  0.1856  0.2435 -0.7854
  731MOL0     H  862  11.644   7.517   5.298 -3.2395  1.0189  2.3777
  731MOL0     H  863  11.498   7.350   5.406 -1.6620  0.9299  2.1475
  731MOL0     H  864  11.464   6.918   5.544  0.8684 -3.9060  0.1228
  731MOL0     H  865  11.315   6.651   5.637 -0.9927  1.3858 -1.8960
  731MOL0     H  866  11.093   6.592   5.730 -0.2899 -0.8096 -0.0636
  731MOL0     H  867  11.235   6.517   5.800 -1.5486 -1.2355 -0.6256
  731MOL0     H  868  11.082   6.344   5.782  0.7283  1.3678 -0.5368
  731MOL0     H  869  10.955   6.448   5.845  0.1985  0.0804  1.4752
  731MOL0     H  870  11.135   6.270   6.003  2.6700  2.0836  3.2185
  731MOL0     H  871  11.166   6.441   6.040 -1.3308  1.8464  1.1012
  731MOL0     H  872  10.915   6.470   6.081 -0.6527  0.4468  2.4597
  731MOL0     H  873  11.003   6.373   6.196 -1.8607  2.1372  0.9077
  731MOL0     H  874  10.716   6.111   6.031  2.3686 -2.6131 -0.7015
  731MOL0     H  875  11.166   6.885   6.107  1.6304 -0.4787 -0.2917
  731MOL0     H  876  11.330   7.272   6.012 -0.9520 -0.4473  0.0659
  731MOL0     H  877  11.256   7.158   6.130 -1.3335 -1.6740 -0.9358
  731MOL0     H  878  11.433   7.175   6.116 -0.3143  2.7291 -1.3384
  732MOL0     O  879  10.815   3.681   4.577 -0.7983 -0.2371 -0.5772
  732MOL0     C  880  10.753   3.573   4.578 -0.8314 -0.7738 -0.6120
  732MOL0     O  881  10.721   3.498   4.687  0.7375  0.3802  0.4237
  732MOL0     C  882  10.770   3.541   4.805 -0.6093 -0.9516 -1.0983
  732MOL0     C  883  10.901   3.519   4.851  0.4359 -0.6448  0.4763
  732MOL0     C  884  10.946   3.553   4.976 -1.0438  0.0571  0.3053
  732MOL0     C  885  10.862   3.617   5.063  0.8673 -0.1346 -0.2138
  732MOL0     O  886  10.891   3.645   5.191  0.3571  0.0240 -0.2157
  732MOL0     C  887  10.993   3.738   5.210 -0.2290  0.0182  0.8364
  732MOL0     C  888  10.920   3.861   5.269 -0.5099  0.6210  0.2403
  732MOL0     C  889  11.038   3.948   5.323  0.0179 -0.2180  0.3439
  732MOL0     C  890  10.978   4.078   5.359  0.4102 -0.0133  0.2303
  732MOL0     C  891  11.088   4.176   5.424  0.1531 -0.8468  0.8201
  732MOL0     C  892  11.215   4.206   5.340  1.0741  0.8479  0.0851
  732MOL0     C  893  11.251   4.353   5.365 -0.1723 -0.0516 -0.8585
  732MOL0     C  894  11.400   4.379   5.323  1.1908 -1.0118  0.1718
  732MOL0     N  895  11.408   4.417   5.181  0.1892  0.0988  0.1596
  732MOL0     C  896  11.451   4.552   5.154 -0.6816 -0.8361 -0.9496
  732MOL0     C  897  11.509   4.543   5.038  0.8000 -0.4728 -0.5265
  732MOL0     C  898  11.586   4.655   4.982  0.0627  0.1598 -0.9143
  732MOL0     C  899  11.540   4.723   4.852 -0.5041  1.3995  0.3672
  732MOL0     C  900  11.639   4.820   4.804  0.3293  0.0775  0.2402
  732MOL0     C  901  11.607   4.865   4.663  0.2911  0.4031  0.2312
  732MOL0     O  902  11.599   4.750   4.572 -0.5248 -0.3267  0.6281
  732MOL0     C  903  11.581   4.784   4.436  0.0936 -1.0310 -0.3163
  732MOL0     C  904  11.522   4.900   4.390  0.3928  0.0754 -0.5628
  732MOL0     C  905  11.511   4.924   4.257  1.3425 -1.0721  0.5899
  732MOL0     C  906  11.427   5.047   4.225  0.3842  0.4183 -0.0054
  732MOL0     C  907  11.573   4.840   4.162  0.7798  0.3782 -0.3642
  732MOL0     C  908  11.569   4.872   4.018 -0.3346 -0.3434 -0.6770
  732MOL0     O  909  11.684   4.823   3.954  0.6472  0.1238 -0.5240
  732MOL0     C  910  11.690   4.856   3.820 -0.2856  0.0487 -0.5683
  732MOL0     C  911  11.615   4.779   3.727  0.0745 -0.3057  0.2567
  732MOL0     C  912  11.647   4.785   3.591  0.6231 -0.8602  0.4271
  732MOL0     C  913  11.762   4.867   3.544  0.1697 -0.1242 -0.6514
  732MOL0     O  914  11.795   4.868   3.413  0.0303 -1.1616  0.7047
  732MOL0     C  915  11.922   4.928   3.385  0.6573  0.1978  0.7773
  732MOL0     C  916  11.957   4.865   3.248 -0.6642 -0.0535  0.5350
  732MOL0     C  917  11.927   4.717   3.235  0.2588  0.4358 -0.1706
  732MOL0     C  918  11.987   4.649   3.115 -0.3239 -0.4660  1.0712
  732MOL0     C  919  11.938   4.510   3.106 -0.3583 -0.3273 -0.4884
  732MOL0     C  920  12.005   4.438   2.983 -0.3487  0.2039 -0.2236
  732MOL0     C  921  11.962   4.289   2.960 -0.3111 -0.3232  0.1381
  732MOL0     C  922  11.812   4.288   2.930 -0.2408  0.9481 -0.0754
  732MOL0    Cl  923  11.786   4.336   2.756 -0.5099 -0.0832 -0.0588
  732MOL0     C  924  11.831   4.945   3.645  0.3818 -0.4084  0.0706
  732MOL0     C  925  11.800   4.935   3.777  1.2201  0.3897 -0.2910
  732MOL0     O  926  11.469   4.918   3.963 -0.4875 -0.4750 -0.5770
  732MOL0     C  927  11.637   4.732   4.210  0.2130 -0.9506 -0.4041
  732MOL0     C  928  11.638   4.705   4.346  0.1543  0.9599 -0.0398
  732MOL0     N  929  11.495   4.416   4.989  0.3974  0.4067 -0.1457
  732MOL0     N  930  11.449   4.341   5.079  0.9825  0.3875 -0.3588
  732MOL0     C  931  10.727   3.643   5.030  0.3041 -0.0481  0.6606
  732MOL0     C  932  10.690   3.607   4.894  0.2391 -1.3819 -0.1488
  732MOL0     C  933  10.702   3.524   4.446 -0.7356  0.3962 -0.2005
  732MOL0     C  934  10.642   3.398   4.442  0.2822  0.1285  0.1849
  732MOL0     C  935  10.564   3.358   4.332 -0.4176 -0.2322  0.3406
  732MOL0     C  936  10.556   3.441   4.213 -0.1808  0.1034 -0.8115
  732MOL0     O  937  10.469   3.400   4.116 -0.3792  0.1749  0.3101
  732MOL0     C  938  10.441   3.481   3.998  0.1317 -0.0732  0.7606
  732MOL0     C  939  10.346   3.395   3.900  0.1200  0.1964  1.0297
  732MOL0     C  940  10.307   3.466   3.766  0.5431  0.1067  0.1700
  732MOL0     C  941  10.208   3.577   3.759 -0.4761  0.2628  0.7919
  732MOL0     C  942  10.264   3.698   3.824 -0.1530 -1.5396 -1.2181
  732MOL0     C  943  10.319   3.800   3.866  0.0718  0.1029  0.5986
  732MOL0     C  944  10.621   3.560   4.214 -0.6270 -0.2853 -0.7225
  732MOL0     C  945  10.702   3.602   4.327 -0.4248  0.9944  0.3291
  732MOL0     C  946  10.760   3.736   4.313  0.1704 -0.1004  0.4822
  732MOL0     H  947  10.976   3.472   4.788  0.4370  0.0430 -0.0503
  732MOL0     H  948  11.046   3.533   5.011 -1.8745 -0.7319  2.3999
  732MOL0     H  949  11.048   3.766   5.119 -1.6457 -0.9673 -0.3763
  732MOL0     H  950  11.067   3.705   5.283 -0.1768  1.5971  1.5335
  732MOL0     H  951  10.868   3.910   5.187  1.4438  0.9991 -0.8298
  732MOL0     H  952  10.850   3.821   5.343  1.1491 -1.3648  0.8435
  732MOL0     H  953  11.073   3.900   5.415 -1.3070 -0.7154  0.6221
  732MOL0     H  954  11.113   3.961   5.244 -0.0127  5.1672  0.8623
  732MOL0     H  955  10.942   4.125   5.267  0.2972 -1.1542 -0.3265
  732MOL0     H  956  10.891   4.069   5.425  2.0661  1.8328  2.8746
  732MOL0     H  957  11.123   4.130   5.517 -1.2338  0.5087  2.0730
  732MOL0     H  958  11.031   4.269   5.438  0.4744 -0.2069 -1.6598
  732MOL0     H  959  11.300   4.145   5.373  1.3638  2.1860  2.0035
  732MOL0     H  960  11.192   4.192   5.235 -1.6985  1.5218  0.5194
  732MOL0     H  961  11.255   4.367   5.473  0.6047 -4.2379 -0.1624
  732MOL0     H  962  11.186   4.422   5.311  1.2836 -0.3303 -3.1122
  732MOL0     H  963  11.424   4.460   5.393 -3.5618 -2.1313  3.6456
  732MOL0     H  964  11.462   4.293   5.350 -0.3149 -0.7439  5.8128
  732MOL0     H  965  11.448   4.642   5.214 -2.0224 -0.9949 -0.7356
  732MOL0     H  966  11.686   4.613   4.966  1.7494  3.2108  0.7696
  732MOL0     H  967  11.598   4.732   5.058  0.6292 -1.2265  0.4488
  732MOL0     H  968  11.536   4.645   4.775  1.0127 -0.0641  1.7041
  732MOL0     H  969  11.443   4.772   4.865 -0.7680  0.9594  0.0747
  732MOL0     H  970  11.650   4.906   4.870 -0.0386  0.0104  0.3899
  732MOL0     H  971  11.738   4.772   4.800  1.7780  2.5743  2.4833
  732MOL0     H  972  11.510   4.915   4.663  0.3777  0.5733  0.0327
  732MOL0     H  973  11.689   4.928   4.627 -0.6822  0.7144 -1.5387
  732MOL0     H  974  11.470   4.959   4.464  0.1867 -0.3219 -0.3902
  732MOL0     H  975  11.424   5.112   4.313  1.5147  1.7299 -0.8861
  732MOL0     H  976  11.324   5.031   4.192 -0.0589  1.6900  0.6416
  732MOL0     H  977  11.477   5.108   4.150  0.6602 -1.7843 -1.6991
  732MOL0     H  978  11.524   4.725   3.755 -1.8712  2.3920 -0.4671
  732MOL0     H  979  11.584   4.743   3.514 -1.0343  0.0690  1.2277
  732MOL0     H  980  11.910   5.037   3.382 -1.6901 -0.0159  0.4751
  732MOL0     H  981  11.998   4.916   3.462  2.5499  2.6464 -0.5613
  732MOL0     H  982  11.897   4.914   3.171 -0.1531 -0.2865 -0.0152
  732MOL0     H  983  12.063   4.885   3.232 -0.8023  0.3991  0.1793
  732MOL0     H  984  11.820   4.694   3.237 -0.9069  5.0035  1.4164
  732MOL0     H  985  11.975   4.668   3.321  0.7298 -2.6537 -2.0486
  732MOL0     H  986  12.096   4.651   3.122 -0.1397  0.9544 -1.1735
  732MOL0     H  987  11.958   4.703   3.025  2.2773 -1.1492 -0.2724
  732MOL0     H  988  11.967   4.450   3.193  1.9391  1.6772  0.2248
  732MOL0     H  989  11.829   4.505   3.095 -0.6485  3.1400 -0.2540
  732MOL0     H  990  12.114   4.437   2.995 -0.5972  0.0623  2.7955
  732MOL0     H  991  11.978   4.494   2.893 -0.9795  1.2605  0.6015
  732MOL0     H  992  11.992   4.224   3.043 -0.8534 -1.7695 -0.7683
  732MOL0     H  993  12.004   4.254   2.866  1.6696  1.1466  0.3980
  732MOL0     H  994  11.752   4.345   3.001 -0.5664  1.2105 -0.5619
  732MOL0     H  995  11.777   4.184   2.932  0.6600  0.6252  1.6473
  732MOL0     H  996  11.918   5.005   3.621  1.0594 -1.2234  0.4530
  732MOL0     H  997  11.867   4.984   3.847  4.6270 -2.1878 -1.5017
  732MOL0     H  998  11.687   4.669   4.138  0.4341  0.3483 -1.4362
  732MOL0     H  999  11.687   4.612   4.373  1.7217  1.6063 -0.5503
  732MOL0     H 1000  10.672   3.696   5.107  0.0058  1.4828 -0.5572
  732MOL0     H 1001  10.585   3.620   4.869 -0.1599 -0.8226  1.6258
  732MOL0     H 1002  10.649   3.327   4.524 -1.8378 -1.0281 -0.5588
  732MOL0     H 1003  10.510   3.265   4.342 -2.1335  0.7334  0.4130
  732MOL0     H 1004  10.393   3.569   4.040  0.2771 -1.6163  4.4954
  732MOL0     H 1005  10.531   3.505   3.940 -0.5944  0.8228 -0.0259
  732MOL0     H 1006  10.261   3.368   3.963 -0.2260  0.7264  0.7970
  732MOL0     H 1007  10.384   3.297   3.868 -1.2864 -0.2567  0.6626
  732MOL0     H 1008  10.394   3.503   3.712 -0.6204  4.2978  0.8196
  732MOL0     H 1009  10.260   3.388   3.705 -4.6338  0.6141  2.8693
  732MOL0     H 1010  10.113   3.542   3.800 -0.2016 -2.4877 -0.6869
  732MOL0     H 1011  10.212   3.595   3.651  1.1265 -0.2955  0.7265
  732MOL0     H 1012  10.352   3.892   3.909 -0.6161  0.3854  0.5456
  732MOL0     H 1013  10.608   3.630   4.132 -2.7924 -2.3278 -2.2385
  732MOL0     H 1014  10.732   3.795   4.401 -0.6566  1.6580 -0.9073
  732MOL0     H 1015  10.868   3.717   4.304  0.1790 -0.0458  0.4687
  732MOL0     H 1016  10.711   3.783   4.227 -1.7119  0.5323  1.8435
  733MOL0     O 1017   0.799   7.482   7.417  0.0630 -0.1887  0.3909
  733MOL0     C 1018   0.764   7.410   7.321 -0.3120 -0.9711 -0.4566
  733MOL0     O 1019   0.629   7.379   7.294  0.3459 -0.3639 -0.9916
  733MOL0     C 1020   0.545   7.484   7.334  0.8542 -0.1570  0.2215
  733MOL0     C 1021   0.556   7.620   7.293 -0.6866  0.5329  0.1403
  733MOL0     C 1022   0.467   7.719   7.342  0.3351 -0.0330 -0.7387
  733MOL0     C 1023   0.368   7.671   7.429  0.5368 -0.4279 -0.1207
  733MOL0     O 1024   0.272   7.756   7.480  0.8428 -0.1257  0.3791
  733MOL0     C 1025   0.313   7.884   7.543 -0.6128  0.5725 -0.2626
  733MOL0     C 1026   0.198   7.951   7.619 -0.0688 -0.5153  0.1202
  733MOL0     C 1027   0.248   8.094   7.658 -0.2349  0.3673 -0.4362
  733MOL0     C 1028   0.139   8.196   7.682 -0.9595 -0.1177  0.4114
  733MOL0     C 1029   0.196   8.326   7.742 -0.0392 -0.0890  1.1175
  733MOL0     C 1030   0.262   8.429   7.650 -0.2471 -0.2002  0.9559
  733MOL0     C 1031   0.322   8.560   7.726  0.4708  0.7650 -0.0468
  733MOL0     C 1032   0.469   8.529   7.775 -0.3160 -0.4003  0.5882
  733MOL0     N 1033   0.526   8.642   7.841  0.7221 -1.1107  0.3907
  733MOL0     C 1034   0.540   8.764   7.778  0.5298  1.0379  0.5997
  733MOL0     C 1035   0.606   8.838   7.858 -0.1865 -0.4425  0.5509
  733MOL0     C 1036   0.658   8.964   7.805  0.8682  0.7639 -0.1350
  733MOL0     C 1037   0.811   8.950   7.765  0.8521  0.2528 -0.0801
  733MOL0     C 1038   0.858   9.092   7.717  0.4162  0.3658  0.0235
  733MOL0     C 1039   0.996   9.097   7.655 -0.3948  0.2696 -0.0209
  733MOL0     O 1040   1.068   9.210   7.699  0.6763  0.2139 -0.3214
  733MOL0     C 1041   1.024   9.326   7.658 -0.5468 -0.3683 -1.1278
  733MOL0     C 1042   1.078   9.424   7.747  0.7333  1.0176 -0.5657
  733MOL0     C 1043   1.039   9.563   7.724  0.7236  0.6611 -0.3860
  733MOL0     C 1044   1.069   9.669   7.830 -0.3094  0.7025 -0.8763
  733MOL0     C 1045   0.981   9.602   7.594 -0.6158 -0.9369  0.5394
  733MOL0     C 1046   0.966   9.743   7.540 -0.5326  0.3818 -0.1359
  733MOL0     O 1047   1.006   9.844   7.622  0.4557  0.4827  0.5127
  733MOL0     C 1048   0.975   9.967   7.587 -1.1437 -1.1702  1.0867
  733MOL0     C 1049   0.885  10.032   7.681  0.8056 -0.7159  0.3915
  733MOL0     C 1050   0.861  10.168   7.649 -0.3045 -1.5332 -0.2906
  733MOL0     C 1051   0.921  10.237   7.538 -0.0514  0.2576  0.3354
  733MOL0     O 1052   0.880  10.364   7.493  0.3058  1.2063  0.1620
  733MOL0     C 1053   0.773  10.427   7.557  0.3869 -0.6531 -1.0063
  733MOL0     C 1054   0.724  10.561   7.509  0.4704  0.4174  0.4610
  733MOL0     C 1055   0.835  10.669   7.490 -0.6048  0.3935  0.1363
  733MOL0     C 1056   0.873  10.746   7.617 -1.2563  0.0587 -0.3526
  733MOL0     C 1057   0.981  10.841   7.587  0.2244 -0.1668  0.2448
  733MOL0     C 1058   1.003  10.934   7.705 -0.6221 -0.3144  0.5574
  733MOL0     C 1059   1.068  11.070   7.664  0.4138 -0.4676  0.5804
  733MOL0     C 1060   1.138  11.146   7.777  0.1238 -0.8096 -0.1652
  733MOL0    Cl 1061   1.016  11.207   7.893 -0.4430 -0.5499  0.0382
  733MOL0     C 1062   1.009  10.171   7.455 -0.7712 -0.1638 -0.3174
  733MOL0     C 1063   1.032  10.036   7.482 -0.6725  0.6930 -0.0222
  733MOL0     O 1064   0.946   9.752   7.413  0.4202  0.4455  0.1748
  733MOL0     C 1065   0.929   9.494   7.516 -0.3129 -0.3323 -0.3469
  733MOL0     C 1066   0.948   9.361   7.547  0.4276 -0.1365 -0.0780
  733MOL0     N 1067   0.619   8.785   7.983  0.1658 -0.3035 -0.8066
  733MOL0     N 1068   0.555   8.666   7.969 -0.0202 -0.9272 -0.2066
  733MOL0     C 1069   0.357   7.538   7.466  0.2151  0.6346 -1.1041
  733MOL0     C 1070   0.430   7.446   7.403  0.0508  0.9253  0.1017
  733MOL0     C 1071   0.866   7.369   7.227 -0.6536  0.3918  0.9291
  733MOL0     C 1072   0.836   7.317   7.094 -0.0695  0.9593 -0.9731
  733MOL0     C 1073   0.928   7.249   7.006  0.1644 -0.2692  0.4377
  733MOL0     C 1074   1.057   7.237   7.033 -0.5228 -0.9358 -0.4725
  733MOL0     O 1075   1.151   7.157   6.956 -0.1527 -0.8383 -0.3518
  733MOL0     C 1076   1.287   7.211   6.945  0.0335  0.1416  1.0373
  733MOL0     C 1077   1.342   7.179   6.806 -0.4144  0.2356  0.4676
  733MOL0     C 1078   1.483   7.216   6.780 -0.2847 -1.1520 -0.2975
  733MOL0     C 1079   1.603   7.133   6.838 -0.2109  0.0094  1.0467
  733MOL0     C 1080   1.733   7.178   6.777  0.3692  0.6286 -0.1183
  733MOL0     C 1081   1.823   7.216   6.709 -0.7712  0.3725  0.2035
  733MOL0     C 1082   1.092   7.292   7.163  0.4715  0.0412 -0.8943
  733MOL0     C 1083   1.008   7.360   7.252  0.0873 -0.5262 -0.6490
  733MOL0     C 1084   1.070   7.389   7.390  0.6041 -1.2916 -0.2153
  733MOL0     H 1085   0.642   7.652   7.235 -0.1274 -0.8775  0.1446
  733MOL0     H 1086   0.490   7.820   7.309  0.2458  1.7108  3.8269
  733MOL0     H 1087   0.357   7.946   7.464  1.7309  0.4610  0.8775
  733MOL0     H 1088   0.394   7.854   7.610 -1.8536 -1.7792  0.3125
  733MOL0     H 1089   0.098   7.947   7.575 -0.2438  2.6008 -0.0099
  733MOL0     H 1090   0.186   7.902   7.716  2.0627 -2.6554 -0.6125
  733MOL0     H 1091   0.312   8.091   7.746  0.6456 -1.1579 -1.0971
  733MOL0     H 1092   0.313   8.133   7.579  2.8807  0.7916  2.1199
  733MOL0     H 1093   0.065   8.212   7.603 -0.2412  1.8330  0.0761
  733MOL0     H 1094   0.078   8.157   7.764  0.3062 -3.4329 -0.0870
  733MOL0     H 1095   0.273   8.308   7.819  0.7273 -1.3104  0.1003
  733MOL0     H 1096   0.116   8.378   7.796  0.8756  2.1286  0.4816
  733MOL0     H 1097   0.337   8.371   7.595 -2.1130 -0.4700 -1.4923
  733MOL0     H 1098   0.187   8.465   7.578 -1.0026 -0.4602  1.6030
  733MOL0     H 1099   0.256   8.585   7.809  2.2863  2.1945  1.0502
  733MOL0     H 1100   0.311   8.642   7.656 -1.8177 -0.3699 -1.1015
  733MOL0     H 1101   0.478   8.441   7.839 -0.5698 -1.0142 -0.2041
  733MOL0     H 1102   0.519   8.512   7.679  1.9118 -0.6161  1.7285
  733MOL0     H 1103   0.524   8.774   7.671 -1.1075  3.8005  0.9904
  733MOL0     H 1104   0.636   9.038   7.882  0.8291  1.1675 -0.5284
  733MOL0     H 1105   0.602   8.994   7.716 -0.1690  0.5468  0.4383
  733MOL0     H 1106   0.873   8.926   7.852  0.0491 -0.0155  0.4308
  733MOL0     H 1107   0.812   8.869   7.692  0.8432 -0.6475  0.8869
  733MOL0     H 1108   0.781   9.122   7.644 -0.3387 -1.8382 -0.1525
  733MOL0     H 1109   0.851   9.159   7.804  0.2530 -1.6370  1.6250
  733MOL0     H 1110   1.053   9.013   7.695 -1.7335 -0.1017  1.1892
  733MOL0     H 1111   0.994   9.085   7.546 -0.1626 -0.1552  0.0207
  733MOL0     H 1112   1.139   9.385   7.828  1.0814 -2.5970 -2.3573
  733MOL0     H 1113   1.101   9.637   7.929  1.0858  1.4591 -1.0623
  733MOL0     H 1114   0.978   9.730   7.836  0.9660  2.6125 -0.2526
  733MOL0     H 1115   1.163   9.716   7.804  2.5566 -3.2464  1.2367
  733MOL0     H 1116   0.829   9.973   7.752 -0.8037 -3.0633 -2.5656
  733MOL0     H 1117   0.796  10.224   7.715  2.6726  1.4682  0.3689
  733MOL0     H 1118   0.683  10.366   7.545 -0.5328  0.0363  1.6926
  733MOL0     H 1119   0.794  10.436   7.664 -1.4618  0.1698 -0.6839
  733MOL0     H 1120   0.664  10.548   7.419  1.0763  1.5007 -0.1111
  733MOL0     H 1121   0.663  10.585   7.597 -0.0288  0.1111  0.1997
  733MOL0     H 1122   0.813  10.742   7.411 -1.0887  2.6078  2.2028
  733MOL0     H 1123   0.925  10.614   7.460 -1.0111  0.2349 -0.8366
  733MOL0     H 1124   0.889  10.677   7.700 -0.3344  1.7152  0.9287
  733MOL0     H 1125   0.781  10.796   7.649 -2.1647 -0.8459 -1.4410
  733MOL0     H 1126   1.085  10.809   7.571  0.4143  1.2028 -1.6508
  733MOL0     H 1127   0.945  10.902   7.503  0.6694  2.5268  1.8985
  733MOL0     H 1128   1.072  10.899   7.783 -0.6094  1.3565  1.3413
  733MOL0     H 1129   0.907  10.951   7.755 -2.5368 -0.1662 -2.8809
  733MOL0     H 1130   1.001  11.135   7.607  1.8974  0.1744 -0.5168
  733MOL0     H 1131   1.155  11.048   7.601 -1.0576 -0.9002 -1.3703
  733MOL0     H 1132   1.207  11.222   7.739  1.1771 -2.0176 -0.7514
  733MOL0     H 1133   1.209  11.087   7.836  2.3991  1.2390 -0.7429
  733MOL0     H 1134   1.065  10.222   7.377  0.2005 -0.4412  0.1787
  733MOL0     H 1135   1.102   9.980   7.421 -0.3568  0.9342  0.1218
  733MOL0     H 1136   0.876   9.512   7.423  1.7894 -0.4329 -1.6443
  733MOL0     H 1137   0.911   9.288   7.476 -1.7257 -0.7913  1.6504
  733MOL0     H 1138   0.278   7.514   7.536  3.7919 -0.5894  2.9498
  733MOL0     H 1139   0.407   7.341   7.422  0.0267  0.7402 -0.9114
  733MOL0     H 1140   0.732   7.318   7.064  0.0301  1.8998 -1.2971
  733MOL0     H 1141   0.898   7.196   6.916  0.8654 -1.9337  1.1342
  733MOL0     H 1142   1.288   7.321   6.948 -2.5048  0.2147  2.5500
  733MOL0     H 1143   1.340   7.176   7.034  0.0533 -2.6825  0.0145
  733MOL0     H 1144   1.279   7.224   6.728  1.4037 -1.6176 -2.2773
  733MOL0     H 1145   1.327   7.072   6.789  0.3818 -0.3224  2.8798
  733MOL0     H 1146   1.503   7.222   6.673 -1.9473 -1.3646 -0.6467
  733MOL0     H 1147   1.492   7.321   6.809 -0.4562 -1.4224  0.7990
  733MOL0     H 1148   1.593   7.026   6.813  2.9031 -0.5174  1.6301
  733MOL0     H 1149   1.601   7.125   6.947  1.6983 -1.2349  1.0399
  733MOL0     H 1150   1.896   7.270   6.653 -0.3536 -0.1464  0.2433
  733MOL0     H 1151   1.196   7.285   7.192  0.6711  1.4833 -1.1473
  733MOL0     H 1152   1.016   7.331   7.465 -3.0000 -0.8196 -2.1999
  733MOL0     H 1153   1.174   7.358   7.383  0.7976 -0.5828 -0.7125
  733MOL0     H 1154   1.075   7.497   7.408 -1.4198 -1.3659  1.0804
  734MOL0     O 1155   2.004   7.722   6.410 -0.4443  0.4974 -0.9170
  734MOL0     C 1156   1.995   7.601   6.378  0.9193  0.5607  0.6824
  734MOL0     O 1157   1.912   7.512   6.439 -1.0424  0.1528  0.3568
  734MOL0     C 1158   1.843   7.533   6.552  0.4762  0.6249  0.7813
  734MOL0     C 1159   1.899   7.585   6.659 -0.4300  0.2060 -1.0961
  734MOL0     C 1160   1.824   7.599   6.773 -0.2145  0.3928  0.6297
  734MOL0     C 1161   1.685   7.571   6.781  0.3826  0.7297 -0.9138
  734MOL0     O 1162   1.598   7.572   6.890 -0.2920 -0.0081  0.3229
  734MOL0     C 1163   1.622   7.678   6.980 -0.6134  0.0985 -0.3817
  734MOL0     C 1164   1.500   7.690   7.080  0.5462  0.9218  0.8052
  734MOL0     C 1165   1.450   7.562   7.152  0.9228 -1.1942  0.6197
  734MOL0     C 1166   1.539   7.510   7.266  0.6273 -0.0206 -0.9365
  734MOL0     C 1167   1.459   7.411   7.360  0.6170  0.3411  0.5322
  734MOL0     C 1168   1.561   7.345   7.447 -0.5545  0.3240 -0.1820
  734MOL0     C 1169   1.487   7.263   7.549  0.3410 -0.0010 -0.5669
  734MOL0     C 1170   1.576   7.234   7.667 -0.7716  0.3305  0.7587
  734MOL0     N 1171   1.701   7.159   7.632  0.0422  0.0090 -0.2472
  734MOL0     C 1172   1.706   7.028   7.615 -0.3502 -0.7207 -0.1520
  734MOL0     C 1173   1.842   7.002   7.612 -0.1706 -0.0984 -0.1249
  734MOL0     C 1174   1.886   6.866   7.593  0.9574 -0.5684 -0.2616
  734MOL0     C 1175   1.943   6.826   7.724 -0.0178 -0.1808  0.4536
  734MOL0     C 1176   2.031   6.705   7.730  0.0598  0.1156 -0.2251
  734MOL0     C 1177   1.970   6.578   7.676  0.3668  0.1429 -0.2134
  734MOL0     O 1178   1.886   6.514   7.776 -0.2027  0.6180  0.8579
  734MOL0     C 1179   1.906   6.378   7.791  0.5705  0.4168 -0.6062
  734MOL0     C 1180   1.924   6.294   7.687 -0.2417  0.1663  0.0562
  734MOL0     C 1181   1.922   6.152   7.702 -1.3880 -0.5671 -1.3528
  734MOL0     C 1182   1.965   6.060   7.582  0.1673 -0.0561 -0.4697
  734MOL0     C 1183   1.909   6.096   7.833  0.2661  0.5501 -0.2749
  734MOL0     C 1184   1.926   5.955   7.863  0.1466  0.6805  0.6145
  734MOL0     O 1185   1.918   5.924   7.999  0.1143  0.2583  0.0682
  734MOL0     C 1186   1.925   5.794   8.028 -0.6219  0.7777 -0.1155
  734MOL0     C 1187   2.040   5.748   8.093 -0.0286 -0.0965 -0.1532
  734MOL0     C 1188   2.045   5.616   8.133  0.2544  0.2966 -0.1608
  734MOL0     C 1189   1.940   5.525   8.101 -0.8529  0.2243 -0.3638
  734MOL0     O 1190   1.944   5.398   8.147  0.2195  0.5190 -0.6782
  734MOL0     C 1191   2.030   5.359   8.256  0.3577  0.1275 -0.3036
  734MOL0     C 1192   1.985   5.224   8.312  0.1317 -0.0635  0.2270
  734MOL0     C 1193   2.077   5.104   8.290 -0.1182 -0.0780 -0.2714
  734MOL0     C 1194   1.989   4.991   8.244  0.2333  1.1714 -0.3254
  734MOL0     C 1195   2.067   4.858   8.271 -0.4482  0.2675  0.1501
  734MOL0     C 1196   2.175   4.839   8.159 -0.0922 -0.0070  0.3561
  734MOL0     C 1197   2.236   4.702   8.176  0.4197  0.1567  0.6587
  734MOL0     C 1198   2.306   4.668   8.042  0.7942  0.6175 -0.3776
  734MOL0    Cl 1199   2.479   4.712   8.026  0.2422 -0.3586  0.5119
  734MOL0     C 1200   1.831   5.572   8.035 -0.3151 -0.3140  0.0147
  734MOL0     C 1201   1.825   5.707   7.994 -0.8350  0.1653 -0.7779
  734MOL0     O 1202   1.959   5.874   7.774 -0.2584  0.2585  0.5146
  734MOL0     C 1203   1.880   6.186   7.936  0.4091 -0.0054  0.0188
  734MOL0     C 1204   1.879   6.325   7.913 -0.0634  0.4160 -0.0871
  734MOL0     N 1205   1.919   7.118   7.626 -0.2122  0.0671 -0.0830
  734MOL0     N 1206   1.820   7.213   7.659  0.2101  0.7562  0.3934
  734MOL0     C 1207   1.632   7.537   6.656 -0.4210 -0.0276  0.7785
  734MOL0     C 1208   1.709   7.498   6.549 -0.0713 -1.2489  0.1342
  734MOL0     C 1209   2.082   7.561   6.264 -0.1034 -0.0653 -0.2045
  734MOL0     C 1210   2.168   7.656   6.216  0.3122  0.3329  1.0147
  734MOL0     C 1211   2.275   7.618   6.125  0.2180  0.0764 -0.0452
  734MOL0     C 1212   2.291   7.489   6.073 -0.3701 -0.3729  0.6176
  734MOL0     O 1213   2.391   7.449   5.980  0.0065  0.0989 -0.3732
  734MOL0     C 1214   2.520   7.522   5.991  0.5720  0.0345 -1.3281
  734MOL0     C 1215   2.520   7.633   5.901 -0.2700 -0.9355  0.3622
  734MOL0     C 1216   2.461   7.598   5.766 -0.3580 -0.1355 -0.2079
  734MOL0     C 1217   2.443   7.723   5.669  1.0064  0.0440  0.5149
  734MOL0     C 1218   2.579   7.761   5.629 -0.0882 -0.3733  0.8359
  734MOL0     C 1219   2.691   7.798   5.598 -0.2106  0.1048 -0.2190
  734MOL0     C 1220   2.191   7.400   6.111  0.0268  0.0441  0.4466
  734MOL0     C 1221   2.093   7.429   6.211  0.0259  0.6580  0.4926
  734MOL0     C 1222   2.001   7.319   6.253 -0.6024  0.2698 -0.4896
  734MOL0     H 1223   2.004   7.608   6.668 -0.6729  1.2313 -0.8053
  734MOL0     H 1224   1.871   7.640   6.862  0.2427  0.5602  0.3138
  734MOL0     H 1225   1.636   7.774   6.931 -0.8857 -0.3153 -1.2993
  734MOL0     H 1226   1.711   7.658   7.041 -0.9364 -2.3081 -0.6004
  734MOL0     H 1227   1.552   7.748   7.157  0.7553 -0.8152  2.0303
  734MOL0     H 1228   1.413   7.735   7.030  0.7107  0.8487  0.4530
  734MOL0     H 1229   1.354   7.596   7.192  0.1487 -0.0178 -1.9649
  734MOL0     H 1230   1.436   7.485   7.075 -2.2270 -0.5545  0.4053
  734MOL0     H 1231   1.631   7.459   7.234  0.7894 -1.0037  0.9315
  734MOL0     H 1232   1.577   7.592   7.327 -0.8424  0.3491 -0.4793
  734MOL0     H 1233   1.408   7.338   7.297 -0.3078 -1.8178  3.5364
  734MOL0     H 1234   1.387   7.474   7.413  1.4340  2.7789 -1.0933
  734MOL0     H 1235   1.630   7.290   7.384  2.2415  1.0675  2.0256
  734MOL0     H 1236   1.620   7.426   7.491 -1.4686  0.4486  0.8784
  734MOL0     H 1237   1.453   7.171   7.500 -3.6912  1.0036 -0.0242
  734MOL0     H 1238   1.396   7.315   7.578 -0.6506 -1.1749 -1.4744
  734MOL0     H 1239   1.601   7.335   7.701  0.3085  2.0207 -4.1694
  734MOL0     H 1240   1.519   7.174   7.738  0.7583 -0.5611  1.2764
  734MOL0     H 1241   1.634   6.947   7.613 -1.1831  0.0027 -1.6855
  734MOL0     H 1242   1.944   6.875   7.501 -0.9542 -1.6808 -1.6665
  734MOL0     H 1243   1.803   6.802   7.560  1.6127 -1.2368 -0.6180
  734MOL0     H 1244   2.006   6.909   7.757 -1.3121  1.5492 -1.1900
  734MOL0     H 1245   1.859   6.808   7.792 -0.1645 -1.5119 -0.0596
  734MOL0     H 1246   2.118   6.738   7.672  1.3792 -1.5049  0.7500
  734MOL0     H 1247   2.064   6.678   7.830 -0.4864  1.6609  0.4104
  734MOL0     H 1248   1.929   6.608   7.580  0.2717  3.1770  0.6886
  734MOL0     H 1249   2.050   6.507   7.651  0.6476  0.7116 -0.9560
  734MOL0     H 1250   1.960   6.331   7.591  0.9238  3.2165  1.5483
  734MOL0     H 1251   1.878   5.995   7.562  0.5259 -0.2389 -1.5106
  734MOL0     H 1252   2.062   6.011   7.587 -1.7826 -4.2199  1.7153
  734MOL0     H 1253   1.977   6.127   7.496  0.6909 -0.3846 -0.6552
  734MOL0     H 1254   2.117   5.825   8.101 -0.4987  0.3886 -0.2213
  734MOL0     H 1255   2.139   5.585   8.178  0.2941  0.2423 -0.2795
  734MOL0     H 1256   2.132   5.348   8.218  0.5412 -1.0041  0.4555
  734MOL0     H 1257   2.015   5.441   8.327 -2.0643  0.5497 -1.1727
  734MOL0     H 1258   1.983   5.239   8.421 -2.8200  2.5568 -0.0373
  734MOL0     H 1259   1.883   5.192   8.290  0.7828 -1.9693 -0.1544
  734MOL0     H 1260   2.131   5.071   8.379 -2.2919 -3.3367 -0.0010
  734MOL0     H 1261   2.156   5.117   8.215  4.3416  1.5864  4.1157
  734MOL0     H 1262   1.961   5.002   8.139 -1.4179 -0.2814 -0.0983
  734MOL0     H 1263   1.906   4.963   8.311  2.8949 -1.1192  2.3119
  734MOL0     H 1264   2.103   4.857   8.375 -2.6392  3.3483  1.1197
  734MOL0     H 1265   1.996   4.780   8.246  0.0412 -0.1804  0.1536
  734MOL0     H 1266   2.247   4.920   8.175 -4.2519  3.7568  2.1771
  734MOL0     H 1267   2.135   4.853   8.058  0.1606 -0.5081  0.1847
  734MOL0     H 1268   2.162   4.623   8.193 -1.2490  1.9873  2.5442
  734MOL0     H 1269   2.304   4.704   8.262  1.4370 -0.5751 -0.0927
  734MOL0     H 1270   2.254   4.702   7.952 -1.9418 -0.2481  0.7636
  734MOL0     H 1271   2.308   4.558   8.042  2.5361  0.5501  2.3158
  734MOL0     H 1272   1.753   5.503   8.005 -1.1154 -0.2898  1.8808
  734MOL0     H 1273   1.727   5.740   7.961 -2.0996 -0.7287  1.7419
  734MOL0     H 1274   1.854   6.163   8.039  2.1941 -2.1404  0.0584
  734MOL0     H 1275   1.884   6.394   7.997  1.3172  0.5432 -0.2575
  734MOL0     H 1276   1.531   7.499   6.668  0.3856 -2.5524  0.1380
  734MOL0     H 1277   1.677   7.457   6.453  1.2472 -1.4024 -0.2513
  734MOL0     H 1278   2.164   7.757   6.254  1.2224  1.1198 -0.8702
  734MOL0     H 1279   2.367   7.677   6.125  1.3401 -1.6016  0.6251
  734MOL0     H 1280   2.543   7.555   6.092 -1.3589 -2.1958 -0.0402
  734MOL0     H 1281   2.601   7.451   5.972  2.3801  1.1688  1.5309
  734MOL0     H 1282   2.625   7.662   5.897 -0.4186  0.7062  4.1735
  734MOL0     H 1283   2.458   7.712   5.944 -2.1931 -2.3394  0.3008
  734MOL0     H 1284   2.527   7.534   5.707 -0.1591 -0.1744  0.0540
  734MOL0     H 1285   2.358   7.563   5.762 -0.9913  0.9293  3.3105
  734MOL0     H 1286   2.391   7.805   5.719  2.2335  1.3864 -0.3208
  734MOL0     H 1287   2.386   7.694   5.580 -1.1287 -1.1629  2.1789
  734MOL0     H 1288   2.791   7.831   5.579  0.1874 -1.4137 -0.9322
  734MOL0     H 1289   2.191   7.301   6.066  0.3203  0.9509 -1.6598
  734MOL0     H 1290   2.045   7.295   6.350  0.3377  2.1563 -0.4149
  734MOL0     H 1291   1.896   7.346   6.267  0.0201  1.9546  1.3174
  734MOL0     H 1292   2.008   7.236   6.182 -0.0346 -0.8828  0.8623
  735MOL0     O 1293   3.996   7.487  10.461  0.0077  0.1236 -0.0129
  735MOL0     C 1294   3.963   7.429  10.561 -0.5975 -0.1973  0.5162
  735MOL0     O 1295   3.839   7.439  10.610 -0.2494  0.6414 -0.1422
  735MOL0     C 1296   3.736   7.489  10.530  0.2098 -0.3612 -0.3733
  735MOL0     C 1297   3.733   7.602  10.439  0.3276  0.1912 -0.2361
  735MOL0     C 1298   3.613   7.627  10.370 -0.5397 -0.7272 -0.2518
  735MOL0     C 1299   3.495   7.553  10.390 -0.0620  0.3492  0.4426
  735MOL0     O 1300   3.379   7.567  10.314 -1.3245  0.0629 -0.6559
  735MOL0     C 1301   3.347   7.703  10.285  0.1306 -0.8553  0.2448
  735MOL0     C 1302   3.206   7.743  10.321  0.7860  0.7366 -0.0864
  735MOL0     C 1303   3.088   7.670  10.242  0.6314 -1.3345 -1.0609
  735MOL0     C 1304   2.956   7.674  10.322 -0.1872  0.6326  0.2145
  735MOL0     C 1305   2.849   7.617  10.230  0.0551  0.4592  0.1629
  735MOL0     C 1306   2.725   7.576  10.313  0.6039  0.1675 -0.9581
  735MOL0     C 1307   2.601   7.557  10.222 -1.3148 -0.1537  0.0200
  735MOL0     C 1308   2.468   7.544  10.299 -0.5021 -0.6915 -0.1553
  735MOL0     N 1309   2.355   7.545  10.201  0.5298  0.6525 -0.0738
  735MOL0     C 1310   2.290   7.655  10.161  0.3221 -0.8482  0.3836
  735MOL0     C 1311   2.197   7.604  10.083 -0.1173 -0.4043 -0.3815
  735MOL0     C 1312   2.109   7.701  10.008 -0.5311 -0.3490 -0.2798
  735MOL0     C 1313   1.992   7.631   9.949  0.5505 -0.6268 -0.3215
  735MOL0     C 1314   1.924   7.722   9.849 -0.0659 -0.0393  0.0974
  735MOL0     C 1315   1.807   7.655   9.774 -0.3806 -0.2802  0.8684
  735MOL0     O 1316   1.691   7.624   9.853  0.1474  0.6803 -0.6587
  735MOL0     C 1317   1.665   7.491   9.878  0.0837 -0.7116  0.3822
  735MOL0     C 1318   1.748   7.375   9.872 -0.9222 -1.0767  0.1768
  735MOL0     C 1319   1.702   7.248   9.913  0.4226 -0.7952  0.2700
  735MOL0     C 1320   1.803   7.140   9.907 -0.2713  0.4004  0.3586
  735MOL0     C 1321   1.565   7.230   9.948  0.1459  0.0520 -0.2960
  735MOL0     C 1322   1.506   7.092   9.974 -0.0897  0.2029 -0.7354
  735MOL0     O 1323   1.592   7.012  10.052  0.4668 -0.0602  0.3789
  735MOL0     C 1324   1.586   6.870  10.056  0.0733 -0.6951  0.2888
  735MOL0     C 1325   1.706   6.806  10.097  0.5815 -0.2764  0.4857
  735MOL0     C 1326   1.703   6.668  10.107  0.2502  0.1982  0.2077
  735MOL0     C 1327   1.596   6.590  10.062  0.3038 -0.0494 -0.3434
  735MOL0     O 1328   1.601   6.452  10.075 -0.5000  0.5946  0.4158
  735MOL0     C 1329   1.516   6.376   9.984 -0.0379  0.6055  1.4108
  735MOL0     C 1330   1.538   6.226  10.004 -1.2417 -0.3722 -0.2756
  735MOL0     C 1331   1.515   6.189  10.163 -0.4551  0.2088 -0.9187
  735MOL0     C 1332   1.646   6.180  10.241  0.4228  0.2560 -0.7545
  735MOL0     C 1333   1.624   6.118  10.382  0.9279 -0.2597  0.0085
  735MOL0     C 1334   1.768   6.071  10.443  0.8593  0.6398  0.3932
  735MOL0     C 1335   1.760   5.999  10.571 -0.7392  0.3088 -0.5261
  735MOL0     C 1336   1.894   5.927  10.577  0.5998 -0.3214  0.0266
  735MOL0    Cl 1337   1.902   5.780  10.495 -0.3663  0.2873  0.3230
  735MOL0     C 1338   1.482   6.654  10.032  0.3008 -0.5202  0.2691
  735MOL0     C 1339   1.476   6.791  10.036  0.0855 -0.2812 -0.1396
  735MOL0     O 1340   1.388   7.064   9.946 -0.6313 -0.1314 -0.5895
  735MOL0     C 1341   1.478   7.345   9.949 -0.3719 -0.0621 -0.2724
  735MOL0     C 1342   1.535   7.472   9.924 -0.4848 -0.8413  0.1765
  735MOL0     N 1343   2.201   7.470  10.079 -0.0025 -0.0788  0.3270
  735MOL0     N 1344   2.305   7.433  10.145 -0.2802 -0.4711 -0.1839
  735MOL0     C 1345   3.497   7.460  10.491 -0.5885 -0.8714 -0.6216
  735MOL0     C 1346   3.617   7.428  10.549 -0.1000  0.5226  0.2003
  735MOL0     C 1347   4.059   7.349  10.638  1.5728 -0.6950 -0.5912
  735MOL0     C 1348   4.038   7.359  10.779 -0.1481 -0.0242 -0.3148
  735MOL0     C 1349   4.117   7.288  10.866 -0.5901  0.2102 -0.0212
  735MOL0     C 1350   4.216   7.199  10.818  0.0670  0.4883  0.0925
  735MOL0     O 1351   4.298   7.121  10.902 -0.9461 -0.1757 -0.1867
  735MOL0     C 1352   4.322   7.156  11.032  0.7290  0.3280 -0.3281
  735MOL0     C 1353   4.427   7.054  11.094 -0.9377 -0.2260  0.2584
  735MOL0     C 1354   4.415   7.099  11.243  0.2740 -0.1741 -0.0238
  735MOL0     C 1355   4.540   7.047  11.325 -0.9119 -0.3806 -0.3995
  735MOL0     C 1356   4.509   7.063  11.468  0.2146  0.3659  0.5314
  735MOL0     C 1357   4.490   7.089  11.582  0.2360  0.0564  0.2231
  735MOL0     C 1358   4.231   7.178  10.682 -0.3853 -0.4527 -0.1518
  735MOL0     C 1359   4.161   7.263  10.593 -0.3993  0.3855 -0.2074
  735MOL0     C 1360   4.200   7.248  10.446  0.0210 -0.1257 -0.9817
  735MOL0     H 1361   3.829   7.649  10.421  1.2818  0.5559  4.4849
  735MOL0     H 1362   3.618   7.698  10.288  1.1737 -1.7240 -1.0650
  735MOL0     H 1363   3.366   7.724  10.180 -3.3457 -0.5625 -0.4342
  735MOL0     H 1364   3.409   7.773  10.343  0.1578 -2.0542  1.7365
  735MOL0     H 1365   3.186   7.739  10.429  1.9714  0.6397  0.1361
  735MOL0     H 1366   3.202   7.850  10.301 -0.1742  0.9741  1.2105
  735MOL0     H 1367   3.081   7.721  10.146 -2.1328  0.3446 -0.0978
  735MOL0     H 1368   3.111   7.569  10.209 -0.0789 -1.0713 -2.4534
  735MOL0     H 1369   2.973   7.614  10.412  3.1101 -1.0542 -1.3299
  735MOL0     H 1370   2.927   7.777  10.343 -3.7937 -0.1667 -0.1832
  735MOL0     H 1371   2.884   7.526  10.181 -2.0585 -0.6521  0.6050
  735MOL0     H 1372   2.824   7.679  10.143 -2.9521  0.4193  0.8857
  735MOL0     H 1373   2.732   7.489  10.379  2.5811  0.3838 -0.8211
  735MOL0     H 1374   2.702   7.665  10.373 -0.1084  0.1181 -1.1548
  735MOL0     H 1375   2.619   7.463  10.169  0.6796  0.3076 -0.1982
  735MOL0     H 1376   2.603   7.627  10.138  1.6613 -2.7983 -2.4008
  735MOL0     H 1377   2.461   7.445  10.343 -3.7006 -0.6249 -0.2737
  735MOL0     H 1378   2.454   7.623  10.373  1.1891  0.3090 -0.8567
  735MOL0     H 1379   2.300   7.759  10.191 -1.3666 -0.5124 -0.0927
  735MOL0     H 1380   2.169   7.750   9.930  0.1193 -0.7178 -0.0202
  735MOL0     H 1381   2.076   7.785  10.070 -1.7144  0.5688 -2.0824
  735MOL0     H 1382   2.024   7.541   9.897 -1.0886 -0.7384 -1.1701
  735MOL0     H 1383   1.918   7.596  10.021  0.1720  0.9147  0.0858
  735MOL0     H 1384   1.894   7.807   9.910 -3.5082 -0.6208 -0.6071
  735MOL0     H 1385   2.000   7.751   9.775  3.6637  1.0648  3.9253
  735MOL0     H 1386   1.774   7.731   9.703  1.9941 -1.7664 -2.0169
  735MOL0     H 1387   1.847   7.572   9.715 -0.2049  1.9538 -2.3729
  735MOL0     H 1388   1.852   7.379   9.843 -1.5444  1.2057 -2.0158
  735MOL0     H 1389   1.880   7.164   9.834 -1.7568  1.3364 -0.9536
  735MOL0     H 1390   1.762   7.053   9.855  2.9980  0.8698 -3.4896
  735MOL0     H 1391   1.843   7.108  10.004  1.3296  0.6341 -0.1951
  735MOL0     H 1392   1.798   6.859  10.118  1.0830 -0.6931 -0.6091
  735MOL0     H 1393   1.785   6.611  10.147  2.0931  3.1208  0.8732
  735MOL0     H 1394   1.418   6.405  10.021 -0.3950  3.4975 -1.3425
  735MOL0     H 1395   1.523   6.410   9.880  0.0136 -0.1211  1.1739
  735MOL0     H 1396   1.468   6.161   9.950 -0.7852 -0.3381 -0.9192
  735MOL0     H 1397   1.637   6.190   9.973  0.6977  3.9623  0.2248
  735MOL0     H 1398   1.473   6.089  10.174  0.6360 -0.1230  0.4554
  735MOL0     H 1399   1.449   6.265  10.206  0.7744  0.1573  1.2093
  735MOL0     H 1400   1.692   6.279  10.255 -1.5671  1.0519  0.8489
  735MOL0     H 1401   1.715   6.121  10.181  1.1961  3.3841 -3.1739
  735MOL0     H 1402   1.573   6.188  10.449  1.7004  0.3376 -0.0217
  735MOL0     H 1403   1.560   6.030  10.368  0.0213  0.5109 -0.7813
  735MOL0     H 1404   1.830   6.159  10.459 -0.8253  1.6379  1.7538
  735MOL0     H 1405   1.818   6.001  10.375  1.1732  0.2422  1.0257
  735MOL0     H 1406   1.677   5.928  10.566  0.4214 -1.3678  2.0751
  735MOL0     H 1407   1.747   6.061  10.660 -0.2878 -0.8805  0.3971
  735MOL0     H 1408   1.908   5.903  10.683 -3.2706 -1.4234  0.4379
  735MOL0     H 1409   1.974   5.993  10.542  2.6761 -3.2912 -1.2904
  735MOL0     H 1410   1.399   6.596   9.993  0.9871 -1.2902 -0.0832
  735MOL0     H 1411   1.376   6.828  10.015  0.6425  0.6439 -1.2662
  735MOL0     H 1412   1.372   7.340   9.969 -0.0832 -0.4768  1.2401
  735MOL0     H 1413   1.466   7.555   9.933 -0.6993 -1.2290  3.1357
  735MOL0     H 1414   3.414   7.395  10.516 -1.7633  1.2148  1.2946
  735MOL0     H 1415   3.620   7.344  10.617 -1.4154  1.8090  1.9242
  735MOL0     H 1416   3.950   7.415  10.808 -0.4495 -1.0661  0.8736
  735MOL0     H 1417   4.117   7.322  10.969 -2.2377 -1.8275  0.7126
  735MOL0     H 1418   4.350   7.261  11.044  1.8394 -0.0031  0.0920
  735MOL0     H 1419   4.225   7.141  11.081  2.1245  0.7385  2.7939
  735MOL0     H 1420   4.528   7.074  11.058 -0.1670  0.3280  2.5682
  735MOL0     H 1421   4.390   6.956  11.063  0.2908  0.0543 -2.3854
  735MOL0     H 1422   4.405   7.208  11.251  0.8431 -0.0180 -1.1694
  735MOL0     H 1423   4.324   7.052  11.280 -0.9410  1.2317 -1.0819
  735MOL0     H 1424   4.628   7.105  11.299  0.5199 -2.5715 -0.7464
  735MOL0     H 1425   4.575   6.945  11.305  1.2938  0.5726 -1.6450
  735MOL0     H 1426   4.470   7.135  11.677  0.7814  1.0074 -0.0986
  735MOL0     H 1427   4.319   7.120  10.658  3.3682  3.2508  3.0348
  735MOL0     H 1428   4.270   7.166  10.433 -0.1906 -0.0321 -3.0692
  735MOL0     H 1429   4.112   7.214  10.390 -0.4455 -1.0826  0.2771
  735MOL0     H 1430   4.244   7.339  10.405  2.3485 -0.0998  1.3142
  736MOL0     O 1431   9.103   7.696   6.814  0.4495  0.1315 -0.3965
  736MOL0     C 1432   9.029   7.600   6.793  0.0657  0.2489 -0.3850
  736MOL0     O 1433   8.911   7.564   6.861 -0.5278  0.2484  0.6140
  736MOL0     C 1434   8.857   7.672   6.929 -0.0703  0.0290  1.5238
  736MOL0     C 1435   8.762   7.744   6.862 -0.2071  0.2941  0.2539
  736MOL0     C 1436   8.702   7.847   6.930 -0.6715 -0.6044 -0.7007
  736MOL0     C 1437   8.732   7.879   7.064  0.3091  0.0449  1.4209
  736MOL0     O 1438   8.665   7.968   7.140  1.0245 -0.1126  0.6550
  736MOL0     C 1439   8.672   8.110   7.109  0.2511 -0.2128  0.2766
  736MOL0     C 1440   8.782   8.179   7.186 -1.2855  0.2980 -0.1251
  736MOL0     C 1441   8.933   8.122   7.168  0.6866  0.3599 -0.4165
  736MOL0     C 1442   9.034   8.242   7.186 -0.1785  0.5725  0.9100
  736MOL0     C 1443   9.150   8.211   7.286 -0.2196 -0.2337 -0.1628
  736MOL0     C 1444   9.229   8.332   7.308 -0.1181  0.2785 -1.4017
  736MOL0     C 1445   9.346   8.353   7.212 -0.3903 -0.4664 -0.3285
  736MOL0     C 1446   9.463   8.444   7.259  0.0858 -0.5428 -0.0842
  736MOL0     N 1447   9.585   8.477   7.173 -0.1278  0.2185 -0.9120
  736MOL0     C 1448   9.655   8.390   7.099 -0.6546 -1.1407 -0.0598
  736MOL0     C 1449   9.754   8.469   7.053 -0.0554 -0.0902 -0.9125
  736MOL0     C 1450   9.862   8.411   6.959 -0.5940  0.2894 -0.3865
  736MOL0     C 1451   9.837   8.447   6.814 -0.4690 -1.0529 -0.1871
  736MOL0     C 1452   9.964   8.438   6.736  0.0962  0.0943  1.2181
  736MOL0     C 1453   9.933   8.421   6.582 -0.2803  0.0112  0.0193
  736MOL0     O 1454   9.937   8.283   6.538  0.8032 -0.6190 -0.0891
  736MOL0     C 1455   9.950   8.256   6.407 -0.2233 -0.4379  0.1959
  736MOL0     C 1456  10.001   8.129   6.372 -0.7265 -0.1125 -0.4902
  736MOL0     C 1457  10.032   8.101   6.240  0.6817  0.2929  0.3111
  736MOL0     C 1458  10.105   7.982   6.204 -0.4927 -0.1504 -1.0029
  736MOL0     C 1459   9.987   8.190   6.133  0.1381 -1.0019 -0.9498
  736MOL0     C 1460  10.010   8.179   5.987 -1.0346  0.4630 -0.1272
  736MOL0     O 1461  10.001   8.301   5.918 -0.4936  0.2572 -0.2374
  736MOL0     C 1462  10.094   8.294   5.809  0.6185 -0.6171  0.1349
  736MOL0     C 1463  10.037   8.322   5.686  0.3162  0.8063 -0.4126
  736MOL0     C 1464  10.114   8.315   5.568 -0.3792 -0.2288  0.9935
  736MOL0     C 1465  10.256   8.287   5.569 -0.4656  0.5072  0.5013
  736MOL0     O 1466  10.341   8.283   5.461 -0.6544  0.4207  0.4906
  736MOL0     C 1467  10.323   8.392   5.365  0.3987  0.2353  0.4359
  736MOL0     C 1468  10.282   8.335   5.227 -0.3347  0.2281 -0.4464
  736MOL0     C 1469  10.244   8.446   5.134  0.8274  0.2638  1.0382
  736MOL0     C 1470  10.188   8.395   4.996 -0.1069  0.1418 -0.9317
  736MOL0     C 1471  10.298   8.343   4.904 -0.8073  0.0658  0.1810
  736MOL0     C 1472  10.245   8.225   4.810 -0.1839 -0.5133 -0.2824
  736MOL0     C 1473  10.250   8.089   4.896  0.0504 -0.4497 -0.1084
  736MOL0     C 1474  10.275   7.959   4.814  0.9168  0.1341 -0.7159
  736MOL0    Cl 1475  10.323   7.844   4.937  0.0966  0.1656 -0.3143
  736MOL0     C 1476  10.302   8.251   5.696 -0.0409  0.1280  0.3296
  736MOL0     C 1477  10.222   8.262   5.816  0.4141 -0.1696  0.5825
  736MOL0     O 1478  10.031   8.069   5.936  0.2684 -0.9345 -0.4496
  736MOL0     C 1479   9.928   8.314   6.170 -0.7622 -0.6600  0.8633
  736MOL0     C 1480   9.915   8.352   6.301 -1.0489 -0.4504  0.4059
  736MOL0     N 1481   9.739   8.602   7.091  0.0203  0.5719 -0.8388
  736MOL0     N 1482   9.634   8.602   7.173  0.5789 -0.4280  0.5211
  736MOL0     C 1483   8.829   7.796   7.127 -0.1240 -0.2458  0.3134
  736MOL0     C 1484   8.900   7.705   7.052  0.4337 -0.3202 -0.2347
  736MOL0     C 1485   9.073   7.514   6.686 -0.4597  1.5770 -0.5142
  736MOL0     C 1486   9.048   7.370   6.683  0.6466 -0.4098 -0.0578
  736MOL0     C 1487   9.098   7.280   6.586 -0.3915 -0.8180  0.0907
  736MOL0     C 1488   9.187   7.332   6.489 -0.7184 -0.0798  0.4733
  736MOL0     O 1489   9.239   7.242   6.397 -0.4501 -0.1894  0.5431
  736MOL0     C 1490   9.332   7.285   6.305 -0.0957 -0.2882 -1.1603
  736MOL0     C 1491   9.352   7.180   6.199 -1.0181 -0.9622  0.0992
  736MOL0     C 1492   9.477   7.212   6.121 -0.4047 -0.1101  0.1385
  736MOL0     C 1493   9.491   7.110   6.009  0.7753 -0.1718 -0.2207
  736MOL0     C 1494   9.484   6.966   6.047 -0.3103 -0.1423 -0.0343
  736MOL0     C 1495   9.500   6.848   6.059 -0.1507 -0.2274 -0.0376
  736MOL0     C 1496   9.214   7.472   6.490 -0.3973 -0.3064 -0.1704
  736MOL0     C 1497   9.148   7.558   6.577 -0.9305 -0.5604 -0.0850
  736MOL0     C 1498   9.177   7.715   6.553 -0.5145 -0.2380  1.0166
  736MOL0     H 1499   8.712   7.703   6.775 -2.5653  0.1179  1.6180
  736MOL0     H 1500   8.618   7.899   6.885 -0.2097 -0.4718 -1.4299
  736MOL0     H 1501   8.576   8.149   7.142  0.7400 -0.3433  1.9340
  736MOL0     H 1502   8.689   8.120   7.001 -1.1857  0.6906  0.1117
  736MOL0     H 1503   8.773   8.283   7.153  1.5487  0.3661 -0.9346
  736MOL0     H 1504   8.763   8.176   7.294  0.5824  1.1599  0.2674
  736MOL0     H 1505   8.948   8.038   7.237 -1.6777  1.4950  1.6190
  736MOL0     H 1506   8.949   8.077   7.070 -1.5599 -3.4770  0.7598
  736MOL0     H 1507   9.067   8.251   7.082  1.4818  0.5225  1.4025
  736MOL0     H 1508   8.975   8.333   7.199  0.1604  0.7816  0.9829
  736MOL0     H 1509   9.218   8.133   7.251 -2.5760 -2.0245 -1.0850
  736MOL0     H 1510   9.112   8.183   7.385 -0.0243  3.8681  1.2389
  736MOL0     H 1511   9.165   8.421   7.309 -0.4399  0.0670 -2.4051
  736MOL0     H 1512   9.274   8.306   7.404  2.8487  1.1103 -2.4534
  736MOL0     H 1513   9.301   8.387   7.118 -1.2552  0.4229  0.3902
  736MOL0     H 1514   9.393   8.257   7.187  0.0623 -0.4097  0.2961
  736MOL0     H 1515   9.416   8.536   7.293  2.1946  0.9469 -0.9981
  736MOL0     H 1516   9.500   8.390   7.347 -2.0254 -0.0829  1.1681
  736MOL0     H 1517   9.642   8.284   7.076  1.2688 -1.2976 -0.6080
  736MOL0     H 1518   9.866   8.303   6.973  1.2660  0.5180  1.3291
  736MOL0     H 1519   9.954   8.449   7.004  0.7019 -2.5588 -0.4246
  736MOL0     H 1520   9.762   8.374   6.784 -1.1221 -0.9832  1.2161
  736MOL0     H 1521   9.802   8.549   6.795 -1.8702 -1.4630  0.0888
  736MOL0     H 1522  10.027   8.524   6.760 -0.9136  0.8142  1.3533
  736MOL0     H 1523  10.015   8.344   6.762  3.7401  2.5097  3.7318
  736MOL0     H 1524   9.830   8.453   6.566 -0.3979 -0.2456  0.2579
  736MOL0     H 1525   9.996   8.493   6.529  0.7675 -0.6329  0.3652
  736MOL0     H 1526  10.035   8.065   6.454 -1.6955 -1.2097 -0.9224
  736MOL0     H 1527  10.048   7.924   6.132 -2.0356  2.9960 -2.5452
  736MOL0     H 1528  10.123   7.926   6.297  2.3294  1.2927 -0.5549
  736MOL0     H 1529  10.201   8.010   6.161  1.1357 -1.2364  1.6483
  736MOL0     H 1530   9.931   8.346   5.678  0.3767  0.4958 -3.1233
  736MOL0     H 1531  10.071   8.337   5.471  1.5937 -0.1825  0.0820
  736MOL0     H 1532  10.243   8.465   5.382  0.0853  0.7070 -2.5565
  736MOL0     H 1533  10.423   8.436   5.361  0.9756 -1.0715 -0.4503
  736MOL0     H 1534  10.363   8.273   5.187 -1.0045 -1.8340  1.1797
  736MOL0     H 1535  10.198   8.267   5.246 -0.5815  0.7852  0.5224
  736MOL0     H 1536  10.332   8.503   5.101 -0.2674  1.3223 -0.1434
  736MOL0     H 1537  10.174   8.517   5.178  0.8736  0.1047  1.3740
  736MOL0     H 1538  10.127   8.474   4.951 -2.1527 -0.1860  1.0977
  736MOL0     H 1539  10.114   8.319   5.023  0.1190 -0.2329 -1.3545
  736MOL0     H 1540  10.319   8.428   4.839 -0.6031 -2.1593 -2.8533
  736MOL0     H 1541  10.390   8.312   4.955 -0.1648 -0.5396 -1.2799
  736MOL0     H 1542  10.300   8.232   4.716  0.6206  0.4422  0.2420
  736MOL0     H 1543  10.140   8.248   4.789  0.0985  0.5198 -0.6478
  736MOL0     H 1544  10.153   8.080   4.947 -0.2748  0.5964 -0.5078
  736MOL0     H 1545  10.328   8.087   4.973  0.9926  3.1953 -0.7849
  736MOL0     H 1546  10.360   7.967   4.746  1.2742  0.4311 -0.2480
  736MOL0     H 1547  10.196   7.926   4.746  1.0500 -0.5259 -0.5526
  736MOL0     H 1548  10.407   8.226   5.695 -0.3627 -1.3621  1.0918
  736MOL0     H 1549  10.270   8.234   5.909  3.0754  1.9376 -0.0393
  736MOL0     H 1550   9.890   8.378   6.091 -2.0310 -0.8510  1.3083
  736MOL0     H 1551   9.880   8.451   6.328  1.8624  1.2192 -1.4085
  736MOL0     H 1552   8.825   7.809   7.234  1.1165 -0.4939  0.4037
  736MOL0     H 1553   8.978   7.654   7.107  0.2106 -0.8399 -0.3943
  736MOL0     H 1554   8.992   7.335   6.770 -0.2497  1.8674  0.3527
  736MOL0     H 1555   9.069   7.175   6.589  2.1564 -1.5883  1.3703
  736MOL0     H 1556   9.306   7.382   6.262  2.2658  0.4995 -0.9375
  736MOL0     H 1557   9.418   7.310   6.368 -1.6022  3.2121 -0.2173
  736MOL0     H 1558   9.271   7.199   6.128 -0.6389  5.6940  0.7558
  736MOL0     H 1559   9.354   7.082   6.247  1.3678 -1.0989 -0.1392
  736MOL0     H 1560   9.482   7.311   6.075 -0.1463 -0.6046 -0.9381
  736MOL0     H 1561   9.563   7.202   6.188 -0.2426 -1.6498 -0.2475
  736MOL0     H 1562   9.588   7.122   5.961  1.1716 -2.2533 -0.0393
  736MOL0     H 1563   9.420   7.137   5.930  1.8739 -1.9076 -1.8946
  736MOL0     H 1564   9.490   6.741   6.059 -2.0739 -0.0870 -0.2749
  736MOL0     H 1565   9.277   7.517   6.414  1.1559 -2.6863 -0.3841
  736MOL0     H 1566   9.206   7.740   6.451  2.1691  0.6620  1.9121
  736MOL0     H 1567   9.079   7.764   6.559 -0.8460 -0.8095  0.4408
  736MOL0     H 1568   9.235   7.767   6.631  2.1131 -0.7946 -0.4444
  737MOL0     O 1569   0.034   5.374   0.339  0.3101 -0.1476 -0.0411
  737MOL0     C 1570   0.011   5.311   0.442 -0.2010  0.7507 -0.1721
  737MOL0     O 1571   0.092   5.311   0.550 -0.4768  0.5562 -0.1746
  737MOL0     C 1572   0.195   5.403   0.535 -0.5835  0.5349  0.0405
  737MOL0     C 1573   0.179   5.537   0.562 -0.6277  0.1611 -0.1514
  737MOL0     C 1574   0.286   5.623   0.552 -0.1574 -0.6765 -0.1467
  737MOL0     C 1575   0.415   5.578   0.507  0.4428 -0.8516 -0.4060
  737MOL0     O 1576   0.527   5.648   0.480  0.5763 -0.0455  0.3494
  737MOL0     C 1577   0.542   5.788   0.513 -0.3556 -0.2207  0.5989
  737MOL0     C 1578   0.690   5.826   0.488  0.0317 -1.1559  0.2437
  737MOL0     C 1579   0.724   5.823   0.340  0.2350  0.3308  0.5332
  737MOL0     C 1580   0.880   5.832   0.319  0.4810  0.2696  0.3518
  737MOL0     C 1581   0.923   5.871   0.182 -0.1052  0.2057  1.3406
  737MOL0     C 1582   0.842   5.995   0.130 -0.4920  0.5028 -0.0503
  737MOL0     C 1583   0.943   6.076   0.045 -0.5962 -0.1245 -0.1487
  737MOL0     C 1584   1.016   6.172   0.138  0.2871 -0.2007  0.0889
  737MOL0     N 1585   0.942   6.300   0.157  0.7788 -0.5390 -0.2411
  737MOL0     C 1586   0.982   6.421   0.116  0.1044 -0.6244 -0.3343
  737MOL0     C 1587   0.889   6.511   0.152  0.2991  0.9218 -0.0357
  737MOL0     C 1588   0.897   6.655   0.120  0.1998 -0.1785 -0.9680
  737MOL0     C 1589   0.988   6.722   0.220 -0.3433 -0.5150 -0.2977
  737MOL0     C 1590   1.141   6.700   0.203  0.0004 -0.4273 -0.5450
  737MOL0     C 1591   1.195   6.749   0.066  0.0012 -0.1379  0.4576
  737MOL0     O 1592   1.154   6.887   0.047 -0.2314 -0.4769  0.1876
  737MOL0     C 1593   1.163   6.957  -0.073  1.1063  1.1277  0.3672
  737MOL0     C 1594   1.238   6.929  -0.183 -0.7320 -0.2998  0.1315
  737MOL0     C 1595   1.248   7.011  -0.293 -0.0742 -0.0281  0.2159
  737MOL0     C 1596   1.362   6.983  -0.386 -0.6708 -0.0397 -0.1741
  737MOL0     C 1597   1.178   7.135  -0.301 -0.4237  0.3093  0.6769
  737MOL0     C 1598   1.209   7.242  -0.398 -0.6326 -0.3082  0.3701
  737MOL0     O 1599   1.245   7.363  -0.348  0.1420 -0.7597  0.3989
  737MOL0     C 1600   1.307   7.448  -0.433 -0.1067 -0.2139  0.6885
  737MOL0     C 1601   1.270   7.589  -0.433 -0.0195  0.5908 -0.5561
  737MOL0     C 1602   1.342   7.675  -0.517  0.3262 -0.5487 -0.8902
  737MOL0     C 1603   1.433   7.618  -0.614 -0.2916 -0.5716  0.2680
  737MOL0     O 1604   1.496   7.684  -0.721 -0.0498 -0.1922  0.3565
  737MOL0     C 1605   1.436   7.812  -0.745 -0.2031 -0.0349 -0.6164
  737MOL0     C 1606   1.469   7.844  -0.888  0.2385 -0.0334  0.8145
  737MOL0     C 1607   1.440   7.997  -0.915  0.3614  0.3110 -0.3428
  737MOL0     C 1608   1.299   8.039  -0.950 -0.1677  0.3762 -0.5176
  737MOL0     C 1609   1.297   8.177  -1.014 -0.2308  0.1119  0.0529
  737MOL0     C 1610   1.332   8.287  -0.911 -0.1137 -0.2002 -0.4411
  737MOL0     C 1611   1.363   8.411  -0.997  0.0960  0.4220 -0.3027
  737MOL0     C 1612   1.373   8.539  -0.908  0.6539 -0.1094 -0.9944
  737MOL0    Cl 1613   1.410   8.691  -0.997  0.0041  0.1009  0.1842
  737MOL0     C 1614   1.467   7.489  -0.606 -0.7317 -0.0219 -0.3665
  737MOL0     C 1615   1.417   7.404  -0.505 -0.1689 -0.6179  0.0579
  737MOL0     O 1616   1.209   7.208  -0.518 -0.2254 -0.6276  0.2768
  737MOL0     C 1617   1.101   7.161  -0.196  0.4786 -0.1338 -0.4908
  737MOL0     C 1618   1.093   7.075  -0.083  0.2306  0.6481 -0.4215
  737MOL0     N 1619   0.780   6.440   0.200 -0.3834  0.0887 -0.5133
  737MOL0     N 1620   0.819   6.320   0.207  0.0750  0.3619  0.8229
  737MOL0     C 1621   0.430   5.440   0.503 -0.3384  0.2965  0.0430
  737MOL0     C 1622   0.321   5.354   0.506  0.8394 -0.4417 -0.7140
  737MOL0     C 1623  -0.107   5.220   0.456 -0.0772  0.2981  0.7804
  737MOL0     C 1624  -0.100   5.114   0.549 -1.2060 -0.2980  0.6943
  737MOL0     C 1625  -0.193   5.002   0.544  0.2975  0.5396 -0.7340
  737MOL0     C 1626  -0.304   5.018   0.472  0.9679  0.8238 -0.7932
  737MOL0     O 1627  -0.398   4.910   0.490 -0.6613  0.2822 -0.8070
  737MOL0     C 1628  -0.500   4.889   0.388  0.6066  0.3390 -0.6968
  737MOL0     C 1629  -0.501   4.741   0.339  0.1163 -0.9254  0.9110
  737MOL0     C 1630  -0.353   4.698   0.300 -0.0332  0.5893 -0.1971
  737MOL0     C 1631  -0.338   4.562   0.222 -0.9926 -0.3707 -0.7852
  737MOL0     C 1632  -0.364   4.448   0.303  0.6240 -0.1282 -0.1113
  737MOL0     C 1633  -0.383   4.360   0.376 -0.1740  0.2981 -0.0335
  737MOL0     C 1634  -0.323   5.129   0.390  0.1782 -0.4131 -0.4284
  737MOL0     C 1635  -0.228   5.226   0.379  0.1685  1.0109 -0.2861
  737MOL0     C 1636  -0.253   5.339   0.282  0.9126  0.6681 -0.5797
  737MOL0     H 1637   0.086   5.577   0.599 -0.9467  1.7950 -2.4786
  737MOL0     H 1638   0.273   5.731   0.560  0.5454 -0.7015  1.6287
  737MOL0     H 1639   0.537   5.810   0.620  1.4552 -0.3267  0.7458
  737MOL0     H 1640   0.478   5.856   0.457 -0.7942  0.2756  1.6766
  737MOL0     H 1641   0.697   5.926   0.532 -1.4470 -1.4567  1.2223
  737MOL0     H 1642   0.760   5.757   0.537 -0.9367 -3.7240 -1.7609
  737MOL0     H 1643   0.686   5.734   0.290  0.0517  0.7067 -0.0145
  737MOL0     H 1644   0.679   5.909   0.289 -3.3271 -2.0781 -0.8024
  737MOL0     H 1645   0.929   5.906   0.382 -0.9859  0.9163  0.7741
  737MOL0     H 1646   0.931   5.739   0.343  1.0854  1.3221  3.6619
  737MOL0     H 1647   0.917   5.793   0.106  1.6176  0.2308  1.1307
  737MOL0     H 1648   1.031   5.885   0.193 -0.2393  1.6329  1.0628
  737MOL0     H 1649   0.752   5.960   0.077  0.0653  0.3067 -0.8928
  737MOL0     H 1650   0.821   6.057   0.217  1.1890 -1.0480  1.5335
  737MOL0     H 1651   0.886   6.128  -0.033 -0.3957  0.5946  0.1825
  737MOL0     H 1652   1.018   6.017  -0.010  2.7338  1.4201  2.4273
  737MOL0     H 1653   1.032   6.125   0.236  0.0118 -0.1978  0.1356
  737MOL0     H 1654   1.107   6.202   0.085 -1.5513  1.7282 -2.2191
  737MOL0     H 1655   1.077   6.441   0.069 -0.7864  0.1879 -1.8705
  737MOL0     H 1656   0.798   6.700   0.123  0.2838  0.0911 -1.7719
  737MOL0     H 1657   0.937   6.667   0.018  0.5122  4.1297 -0.5429
  737MOL0     H 1658   0.968   6.830   0.222  0.5313 -0.2345 -2.9896
  737MOL0     H 1659   0.972   6.671   0.316  0.0948 -0.1785 -0.0389
  737MOL0     H 1660   1.198   6.749   0.282 -2.7109  0.9306  0.6858
  737MOL0     H 1661   1.154   6.592   0.211  0.0049 -0.5227 -1.5911
  737MOL0     H 1662   1.303   6.741   0.076 -0.0496  0.2244  1.3546
  737MOL0     H 1663   1.169   6.681  -0.015  0.1713  0.2462  0.0787
  737MOL0     H 1664   1.295   6.836  -0.189  0.6544  0.3454  2.2410
  737MOL0     H 1665   1.338   6.900  -0.452 -0.3302  0.3268 -0.7644
  737MOL0     H 1666   1.449   6.959  -0.325 -0.7807  4.2764  2.0538
  737MOL0     H 1667   1.396   7.070  -0.443 -1.7479 -1.0691 -2.4939
  737MOL0     H 1668   1.198   7.622  -0.359  1.3257  1.3847  0.4716
  737MOL0     H 1669   1.318   7.781  -0.524 -2.6941 -1.1571 -0.7734
  737MOL0     H 1670   1.327   7.817  -0.738 -0.2858 -0.1399 -1.6977
  737MOL0     H 1671   1.473   7.882  -0.669 -0.5848  0.8083 -1.1863
  737MOL0     H 1672   1.576   7.833  -0.908  0.1659  1.2065 -0.4199
  737MOL0     H 1673   1.409   7.786  -0.957 -1.4426  2.0158  0.4506
  737MOL0     H 1674   1.494   8.010  -1.009 -1.2401 -1.1970 -1.5487
  737MOL0     H 1675   1.483   8.054  -0.833  1.1279 -2.0099  0.9826
  737MOL0     H 1676   1.233   8.027  -0.864  0.1548  0.1092 -0.3069
  737MOL0     H 1677   1.262   7.968  -1.025 -2.7795  0.6413  0.3980
  737MOL0     H 1678   1.366   8.181  -1.099 -0.0949  4.7768  0.1370
  737MOL0     H 1679   1.198   8.195  -1.057 -0.1356  1.4886  0.3927
  737MOL0     H 1680   1.429   8.271  -0.863 -0.6132 -0.4259  0.5150
  737MOL0     H 1681   1.258   8.297  -0.831  1.9695 -0.2718  1.5644
  737MOL0     H 1682   1.292   8.412  -1.080 -0.0414 -1.2742 -0.2320
  737MOL0     H 1683   1.456   8.393  -1.052 -2.4466 -2.7487 -4.1712
  737MOL0     H 1684   1.451   8.540  -0.831 -1.6978  0.2716  1.5688
  737MOL0     H 1685   1.280   8.548  -0.850  1.2678  1.2466 -0.1696
  737MOL0     H 1686   1.534   7.451  -0.683 -2.0222 -0.5089 -1.2782
  737MOL0     H 1687   1.454   7.302  -0.502  1.1703 -0.1876  3.7907
  737MOL0     H 1688   1.045   7.254  -0.195 -0.8383 -0.8866  1.4216
  737MOL0     H 1689   1.017   7.090  -0.007  0.9799 -2.0507  0.9972
  737MOL0     H 1690   0.532   5.405   0.487 -0.1519  0.4780  0.7925
  737MOL0     H 1691   0.327   5.248   0.487  1.2674 -0.9412  1.8415
  737MOL0     H 1692  -0.014   5.109   0.615 -0.0024 -2.2921 -0.9058
  737MOL0     H 1693  -0.187   4.931   0.626  2.5082  0.8687 -0.5421
  737MOL0     H 1694  -0.600   4.910   0.429  1.4444 -0.7453  2.2003
  737MOL0     H 1695  -0.482   4.955   0.303  0.6895  3.2417  1.4316
  737MOL0     H 1696  -0.563   4.746   0.249  2.4950  0.7028 -0.7714
  737MOL0     H 1697  -0.549   4.683   0.418  2.4170 -1.8231  1.7425
  737MOL0     H 1698  -0.312   4.777   0.237 -0.7373 -0.4957 -2.0907
  737MOL0     H 1699  -0.305   4.697   0.398 -0.3073  1.8744 -0.0298
  737MOL0     H 1700  -0.230   4.550   0.205 -0.6233  2.1983 -0.5716
  737MOL0     H 1701  -0.390   4.561   0.126 -0.8857  2.6983 -0.9687
  737MOL0     H 1702  -0.415   4.280   0.441  1.4972  2.2761  3.5575
  737MOL0     H 1703  -0.415   5.146   0.336 -0.7074  1.7385  1.5702
  737MOL0     H 1704  -0.240   5.439   0.324  4.0771 -0.1097  0.5256
  737MOL0     H 1705  -0.185   5.344   0.197  2.0065  3.3802  0.3598
  737MOL0     H 1706  -0.354   5.325   0.243  1.6815 -1.9583 -1.8649
  738MOL0     O 1707   1.809   0.705   5.867 -0.5224 -0.2576  0.3550
  738MOL0     C 1708   1.893   0.615   5.882  0.4776  0.5601  0.2672
  738MOL0     O 1709   1.874   0.475   5.872 -0.1486 -0.0375 -0.5347
  738MOL0     C 1710   1.748   0.411   5.858  0.1352  1.1657 -1.3006
  738MOL0     C 1711   1.624   0.475   5.831  0.5561  0.0234 -0.6599
  738MOL0     C 1712   1.514   0.406   5.811  0.3331 -0.0550 -0.1456
  738MOL0     C 1713   1.508   0.271   5.832  1.2163  0.2191  0.1087
  738MOL0     O 1714   1.382   0.218   5.809 -0.6494 -0.5070 -0.2342
  738MOL0     C 1715   1.364   0.078   5.837  0.1576  0.8832 -0.6250
  738MOL0     C 1716   1.227   0.064   5.906  0.9727 -0.6579 -0.7904
  738MOL0     C 1717   1.181  -0.076   5.956  0.0274  0.3022  0.6167
  738MOL0     C 1718   1.126  -0.163   5.848  0.2020  0.6422 -0.1508
  738MOL0     C 1719   1.057  -0.297   5.902  0.3010  0.0318 -0.0663
  738MOL0     C 1720   1.142  -0.398   5.978  0.2124 -0.6664 -0.3059
  738MOL0     C 1721   1.080  -0.533   5.984 -0.3815 -0.1799  0.0655
  738MOL0     C 1722   1.178  -0.642   5.948 -0.4502 -0.0872 -0.2105
  738MOL0     N 1723   1.289  -0.654   6.047  0.4951  0.6508 -0.2039
  738MOL0     C 1724   1.393  -0.580   6.053  0.0034 -0.6073 -0.8669
  738MOL0     C 1725   1.458  -0.603   6.160 -0.0616 -0.5876  0.8718
  738MOL0     C 1726   1.588  -0.538   6.208 -0.4347  0.8732  0.1247
  738MOL0     C 1727   1.679  -0.641   6.271  0.0758  0.4643  0.0091
  738MOL0     C 1728   1.689  -0.765   6.184 -0.2249  0.0340 -0.2175
  738MOL0     C 1729   1.834  -0.826   6.185 -0.0566  0.0894 -0.3965
  738MOL0     O 1730   1.906  -0.812   6.314 -0.4963 -0.7734  0.9312
  738MOL0     C 1731   2.043  -0.813   6.330  0.2689  0.5078  0.4343
  738MOL0     C 1732   2.087  -0.796   6.461 -0.4494 -0.2789 -0.5547
  738MOL0     C 1733   2.224  -0.797   6.496 -0.5177 -0.1129 -0.4359
  738MOL0     C 1734   2.260  -0.791   6.646  0.6249 -0.5489 -0.7514
  738MOL0     C 1735   2.320  -0.816   6.389 -0.0673 -0.6439  0.3210
  738MOL0     C 1736   2.469  -0.833   6.405 -0.1377  0.0257  0.0077
  738MOL0     O 1737   2.555  -0.831   6.302  0.1122 -0.1638  0.6715
  738MOL0     C 1738   2.686  -0.852   6.329  0.3816 -0.2954 -0.7468
  738MOL0     C 1739   2.744  -0.968   6.282  0.1565  0.1384 -0.1960
  738MOL0     C 1740   2.872  -1.004   6.304  0.6429  0.1124  0.7618
  738MOL0     C 1741   2.961  -0.917   6.364  0.1173 -0.6056 -0.5217
  738MOL0     O 1742   3.085  -0.961   6.382 -0.2765 -0.2467 -0.1236
  738MOL0     C 1743   3.185  -0.874   6.429  0.0877 -0.6680 -0.4735
  738MOL0     C 1744   3.322  -0.943   6.405  0.8361  0.4175  0.8250
  738MOL0     C 1745   3.338  -1.076   6.461  0.3523 -0.1991  0.0442
  738MOL0     C 1746   3.490  -1.115   6.462 -0.5485 -0.4508 -0.1694
  738MOL0     C 1747   3.496  -1.242   6.549 -0.3971  0.3496 -0.3328
  738MOL0     C 1748   3.631  -1.304   6.542 -0.5889  0.5551  0.2282
  738MOL0     C 1749   3.649  -1.413   6.437  0.2829 -0.2860  1.0575
  738MOL0     C 1750   3.791  -1.459   6.413  0.2176 -0.5019  0.3749
  738MOL0    Cl 1751   3.901  -1.336   6.366 -0.8751 -0.3052  0.3626
  738MOL0     C 1752   2.907  -0.793   6.404  0.2416 -0.3335  0.2090
  738MOL0     C 1753   2.764  -0.765   6.388 -0.7419 -0.1306  0.1555
  738MOL0     O 1754   2.510  -0.843   6.522  0.4695 -0.0763 -0.3112
  738MOL0     C 1755   2.276  -0.840   6.261  0.2055 -0.8080 -0.9644
  738MOL0     C 1756   2.139  -0.837   6.234  0.2661 -0.0992 -0.2981
  738MOL0     N 1757   1.387  -0.691   6.232  0.3310 -0.4114 -0.2463
  738MOL0     N 1758   1.276  -0.708   6.174  0.0799  0.0807  0.8009
  738MOL0     C 1759   1.630   0.202   5.865  0.2915  0.0800  0.3777
  738MOL0     C 1760   1.746   0.278   5.884  0.1529  0.2543 -0.2236
  738MOL0     C 1761   2.030   0.649   5.908  0.4329 -0.3815 -0.0280
  738MOL0     C 1762   2.124   0.628   5.804  1.0315  0.0200 -0.4475
  738MOL0     C 1763   2.255   0.661   5.821  0.0542  0.4522 -0.8198
  738MOL0     C 1764   2.297   0.728   5.940 -0.3458  0.5420 -1.3985
  738MOL0     O 1765   2.429   0.762   5.975 -0.1613  0.7817  0.3844
  738MOL0     C 1766   2.531   0.672   5.919 -0.2503  0.6484 -0.8321
  738MOL0     C 1767   2.602   0.722   5.793  1.1932 -0.6787  0.1648
  738MOL0     C 1768   2.666   0.867   5.806 -0.2292  0.1751 -0.4386
  738MOL0     C 1769   2.739   0.902   5.680 -0.1705  0.2326  0.6387
  738MOL0     C 1770   2.848   1.003   5.699  0.2465 -0.0296  0.0490
  738MOL0     C 1771   2.945   1.076   5.729 -0.2986 -0.5644  0.8076
  738MOL0     C 1772   2.196   0.751   6.040  0.3250 -0.3919 -0.2607
  738MOL0     C 1773   2.065   0.719   6.025  0.0679  0.1276 -0.2102
  738MOL0     C 1774   1.970   0.762   6.133 -0.9881 -0.6013  0.7078
  738MOL0     H 1775   1.608   0.579   5.804 -3.9894 -0.0671  0.7494
  738MOL0     H 1776   1.426   0.466   5.789  1.0479  0.6344 -1.1998
  738MOL0     H 1777   1.445   0.039   5.899  0.1574  2.0965  0.1635
  738MOL0     H 1778   1.368   0.026   5.740  1.4386  2.7720 -1.6602
  738MOL0     H 1779   1.216   0.135   5.989  0.1713  0.9869 -2.2371
  738MOL0     H 1780   1.160   0.107   5.831  1.4936  3.1003  0.6736
  738MOL0     H 1781   1.274  -0.111   6.001  1.5927  2.9842 -0.3065
  738MOL0     H 1782   1.106  -0.058   6.033 -1.8180 -0.3382 -0.9339
  738MOL0     H 1783   1.059  -0.106   5.783  1.9653  0.1668 -2.5030
  738MOL0     H 1784   1.218  -0.180   5.792  0.1941 -0.2459  0.0847
  738MOL0     H 1785   1.003  -0.350   5.822  1.6415  0.5464 -1.3628
  738MOL0     H 1786   0.973  -0.267   5.966  0.0357  0.5312 -0.6338
  738MOL0     H 1787   1.241  -0.405   5.930  0.1639  1.0952 -0.7593
  738MOL0     H 1788   1.146  -0.342   6.072 -0.8311  0.3182 -0.8298
  738MOL0     H 1789   0.998  -0.541   5.911 -0.2792 -1.1352  0.0429
  738MOL0     H 1790   1.032  -0.570   6.076  0.9677 -3.8486 -0.5217
  738MOL0     H 1791   1.123  -0.736   5.953 -1.8628  0.7153 -0.3359
  738MOL0     H 1792   1.214  -0.619   5.847 -2.8258  1.3855 -0.7813
  738MOL0     H 1793   1.426  -0.510   5.976 -0.4319  2.2496  1.3810
  738MOL0     H 1794   1.571  -0.464   6.287 -3.1505 -1.6171  2.1370
  738MOL0     H 1795   1.633  -0.502   6.116 -0.7953 -2.6859 -1.6221
  738MOL0     H 1796   1.780  -0.602   6.288  0.1517 -0.3168  1.5432
  738MOL0     H 1797   1.642  -0.677   6.368  0.4757 -0.1933 -0.0733
  738MOL0     H 1798   1.623  -0.840   6.228 -0.4399  0.7083  0.6440
  738MOL0     H 1799   1.652  -0.762   6.082  2.0545 -2.7033 -1.2835
  738MOL0     H 1800   1.819  -0.930   6.156 -1.1207 -0.2305  1.1739
  738MOL0     H 1801   1.892  -0.771   6.110 -0.0574 -1.4138 -1.5279
  738MOL0     H 1802   2.011  -0.773   6.536 -1.7968 -3.5797 -0.7276
  738MOL0     H 1803   2.262  -0.895   6.681 -1.4662  0.1870  1.9350
  738MOL0     H 1804   2.183  -0.739   6.703  0.5512 -3.1671  1.8153
  738MOL0     H 1805   2.354  -0.744   6.676 -0.0012  2.0297 -2.5550
  738MOL0     H 1806   2.683  -1.046   6.238 -0.2449 -2.5105  4.4596
  738MOL0     H 1807   2.919  -1.096   6.272 -0.9552  0.3751 -2.8790
  738MOL0     H 1808   3.178  -0.779   6.376  0.2763 -2.3605 -3.8073
  738MOL0     H 1809   3.174  -0.860   6.537  4.4740 -1.4657  0.2850
  738MOL0     H 1810   3.333  -0.950   6.296  2.6617  1.6041  0.8861
  738MOL0     H 1811   3.406  -0.887   6.448  2.1431 -2.4603  2.3111
  738MOL0     H 1812   3.291  -1.152   6.397  1.8681  0.6223 -2.1591
  738MOL0     H 1813   3.292  -1.093   6.559  0.3283 -1.0809 -0.1063
  738MOL0     H 1814   3.560  -1.037   6.492 -1.1856 -0.0449  0.2756
  738MOL0     H 1815   3.510  -1.137   6.356 -3.7443  1.6967 -1.3710
  738MOL0     H 1816   3.491  -1.222   6.657  1.9361  2.6596 -0.5590
  738MOL0     H 1817   3.415  -1.313   6.529 -2.8989  2.8779  0.1743
  738MOL0     H 1818   3.649  -1.346   6.642 -0.9355  0.2175  0.1512
  738MOL0     H 1819   3.700  -1.220   6.541 -0.9192  0.8685  1.5539
  738MOL0     H 1820   3.617  -1.377   6.339 -1.2069 -5.0882 -0.4655
  738MOL0     H 1821   3.586  -1.496   6.471  1.6036 -0.9190  2.0169
  738MOL0     H 1822   3.795  -1.543   6.344 -4.0918  0.5067 -1.4283
  738MOL0     H 1823   3.836  -1.490   6.508  2.4453  0.2231 -0.3983
  738MOL0     H 1824   2.966  -0.706   6.432  0.8539  0.2526 -2.6503
  738MOL0     H 1825   2.729  -0.664   6.407  0.6307  0.5067 -0.5484
  738MOL0     H 1826   2.341  -0.846   6.174  0.6927 -0.3124 -0.6415
  738MOL0     H 1827   2.108  -0.854   6.131 -1.6854  2.9426 -0.3291
  738MOL0     H 1828   1.643   0.098   5.892  3.5424  0.5167  0.9231
  738MOL0     H 1829   1.832   0.227   5.926 -0.5160 -0.4447  0.3263
  738MOL0     H 1830   2.096   0.591   5.706  2.2622  1.4665 -1.3907
  738MOL0     H 1831   2.329   0.644   5.744 -0.8518  1.5280 -1.9703
  738MOL0     H 1832   2.606   0.661   5.998 -0.1939 -0.3388 -1.0057
  738MOL0     H 1833   2.497   0.569   5.905  4.3590 -1.6265  2.1871
  738MOL0     H 1834   2.538   0.718   5.705 -0.0216 -0.5874  1.0032
  738MOL0     H 1835   2.690   0.662   5.771  2.3928  0.8992  0.4794
  738MOL0     H 1836   2.598   0.945   5.841  2.1882  1.9138  0.7009
  738MOL0     H 1837   2.739   0.848   5.885 -3.5301 -1.4290  2.4808
  738MOL0     H 1838   2.664   0.930   5.605 -0.9907  0.3888  1.5032
  738MOL0     H 1839   2.777   0.803   5.655 -1.3555 -0.2535  0.7363
  738MOL0     H 1840   3.029   1.141   5.742  0.1709 -0.7572 -1.0251
  738MOL0     H 1841   2.216   0.796   6.136 -2.2771  0.1007  0.1123
  738MOL0     H 1842   2.004   0.723   6.229 -0.4701 -0.9746  0.3757
  738MOL0     H 1843   1.948   0.869   6.134 -3.8123 -1.0981  0.2196
  738MOL0     H 1844   1.877   0.704   6.123 -0.2969 -1.7382  0.7124
  739MOL0     O 1845   6.604   6.155   5.590 -0.1563 -0.4860  0.2431
  739MOL0     C 1846   6.542   6.158   5.483 -0.6286 -0.1687 -0.0216
  739MOL0     O 1847   6.524   6.056   5.401 -0.0053 -0.1710 -0.0311
  739MOL0     C 1848   6.597   5.938   5.417  0.4640  0.1991  0.6246
  739MOL0     C 1849   6.718   5.913   5.353  0.4679  0.2608  1.4252
  739MOL0     C 1850   6.793   5.792   5.360  1.2541  1.1565 -1.1285
  739MOL0     C 1851   6.734   5.689   5.441 -0.0610  0.1294  0.1348
  739MOL0     O 1852   6.795   5.566   5.465  0.7706 -0.5142 -0.0226
  739MOL0     C 1853   6.911   5.525   5.387  0.1715 -0.0847 -0.2293
  739MOL0     C 1854   6.966   5.389   5.436 -0.1551  0.0259 -0.4039
  739MOL0     C 1855   6.891   5.270   5.379  0.1073 -0.1370  0.1661
  739MOL0     C 1856   6.778   5.228   5.478 -0.2420  0.1296  0.4517
  739MOL0     C 1857   6.679   5.138   5.415  0.0656  0.1456 -0.2233
  739MOL0     C 1858   6.542   5.128   5.472  1.2990  0.3318 -0.2478
  739MOL0     C 1859   6.537   5.041   5.597 -0.0903 -0.2454 -0.0614
  739MOL0     C 1860   6.389   5.012   5.648  0.4646 -0.0369 -0.4370
  739MOL0     N 1861   6.327   4.919   5.550  0.0313  0.2981  0.9042
  739MOL0     C 1862   6.254   4.944   5.430 -0.1625  0.4855 -0.3058
  739MOL0     C 1863   6.239   4.813   5.381 -0.6225 -1.7215 -0.1739
  739MOL0     C 1864   6.166   4.778   5.245  0.7633 -0.6002  0.4210
  739MOL0     C 1865   6.094   4.638   5.266  0.8903  1.0839 -0.2716
  739MOL0     C 1866   6.008   4.610   5.136 -0.2083 -0.0706 -0.0568
  739MOL0     C 1867   5.932   4.472   5.148  0.4963  0.9184  0.5331
  739MOL0     O 1868   5.874   4.457   5.024  0.7130  0.4571 -0.0775
  739MOL0     C 1869   5.928   4.367   4.938  0.8072  0.3771  0.2126
  739MOL0     C 1870   5.833   4.298   4.862  0.4353  0.1850  0.4300
  739MOL0     C 1871   5.860   4.193   4.771 -1.3296 -0.5949 -0.1832
  739MOL0     C 1872   5.742   4.108   4.735 -0.0322  0.1457 -0.5233
  739MOL0     C 1873   5.995   4.165   4.754 -0.1754  0.4884  0.5298
  739MOL0     C 1874   6.041   4.063   4.652 -0.3620 -0.5834 -0.7793
  739MOL0     O 1875   6.178   4.044   4.641 -0.6879 -0.2944 -0.3686
  739MOL0     C 1876   6.215   3.920   4.587  0.1431  0.0485  0.5682
  739MOL0     C 1877   6.311   3.846   4.655  0.2231  0.0679  0.2339
  739MOL0     C 1878   6.352   3.718   4.607 -0.1952  0.0299 -0.4584
  739MOL0     C 1879   6.306   3.676   4.489  0.4270  0.4488  0.4012
  739MOL0     O 1880   6.335   3.543   4.454 -0.5712 -0.4488  0.1431
  739MOL0     C 1881   6.382   3.527   4.322  0.1417  0.5883  0.5234
  739MOL0     C 1882   6.334   3.389   4.279 -0.1402  0.0050 -0.4315
  739MOL0     C 1883   6.398   3.365   4.148 -0.9185 -0.3103 -0.7757
  739MOL0     C 1884   6.329   3.251   4.068  0.0001 -0.0095 -0.4773
  739MOL0     C 1885   6.393   3.226   3.928 -0.9526  0.9408 -0.3042
  739MOL0     C 1886   6.304   3.129   3.851 -0.2749 -0.2931 -1.0350
  739MOL0     C 1887   6.343   3.099   3.701 -0.7104 -0.1781  0.6283
  739MOL0     C 1888   6.312   3.223   3.614 -0.9316 -0.0914  1.7019
  739MOL0    Cl 1889   6.324   3.195   3.423  0.5942  0.0141  0.1193
  739MOL0     C 1890   6.214   3.746   4.419  0.0716  0.0924 -0.5395
  739MOL0     C 1891   6.173   3.874   4.460  0.2895  0.0422  0.2540
  739MOL0     O 1892   5.963   4.038   4.562 -0.3438  0.2066 -0.1629
  739MOL0     C 1893   6.097   4.246   4.815  0.0720  0.3324  0.3423
  739MOL0     C 1894   6.065   4.344   4.912 -0.5300 -0.1329  0.5604
  739MOL0     N 1895   6.313   4.723   5.456 -0.5508  0.2222  0.1471
  739MOL0     N 1896   6.358   4.788   5.559  0.9499  0.0869 -0.7554
  739MOL0     C 1897   6.608   5.714   5.504 -0.4625  0.3433 -0.3090
  739MOL0     C 1898   6.541   5.836   5.489  0.1142  0.4167 -0.0014
  739MOL0     C 1899   6.483   6.291   5.441  0.3270  0.5417  0.4532
  739MOL0     C 1900   6.507   6.313   5.308 -0.2765 -0.3390 -0.1265
  739MOL0     C 1901   6.457   6.429   5.244 -0.1431 -0.3597  0.5061
  739MOL0     C 1902   6.390   6.520   5.322  0.3508 -0.7286 -0.1262
  739MOL0     O 1903   6.356   6.634   5.245 -1.2775  0.0066  0.1400
  739MOL0     C 1904   6.296   6.737   5.321 -0.0001  0.0491 -0.7431
  739MOL0     C 1905   6.300   6.867   5.247 -0.2446  0.0961  0.5893
  739MOL0     C 1906   6.215   6.864   5.117 -0.7904  0.1086  1.0785
  739MOL0     C 1907   6.229   7.001   5.053  0.3244 -0.2416 -0.1138
  739MOL0     C 1908   6.136   7.008   4.931  0.6025  1.3162 -0.4873
  739MOL0     C 1909   6.057   7.019   4.840 -0.3652  1.3065 -0.2051
  739MOL0     C 1910   6.359   6.501   5.455 -0.2875  0.5384 -0.5054
  739MOL0     C 1911   6.405   6.387   5.525  0.1215  0.0148 -0.4357
  739MOL0     C 1912   6.370   6.369   5.664 -0.5345  0.8452 -1.2141
  739MOL0     H 1913   6.759   5.995   5.296  2.1037 -1.3955  0.1175
  739MOL0     H 1914   6.894   5.796   5.321  2.4945 -0.7005  1.6076
  739MOL0     H 1915   6.991   5.600   5.390  0.5840 -0.4933 -0.8722
  739MOL0     H 1916   6.877   5.520   5.283  1.7555  2.7922 -1.0102
  739MOL0     H 1917   7.074   5.386   5.417  0.0183  1.1330  0.3282
  739MOL0     H 1918   6.953   5.392   5.544  3.3982 -0.0933  0.1504
  739MOL0     H 1919   6.839   5.302   5.288 -3.3588  1.9354  2.6377
  739MOL0     H 1920   6.959   5.186   5.359 -1.2356 -0.8608 -1.5499
  739MOL0     H 1921   6.833   5.160   5.544  1.1732  0.1903 -0.6207
  739MOL0     H 1922   6.730   5.318   5.515 -1.0638  2.9060 -5.9990
  739MOL0     H 1923   6.722   5.038   5.425 -0.2164 -0.1399 -1.5755
  739MOL0     H 1924   6.660   5.171   5.313  3.7227  2.9519 -0.1852
  739MOL0     H 1925   6.493   5.224   5.489 -1.6392 -0.7717 -1.8538
  739MOL0     H 1926   6.484   5.061   5.408  3.1093 -2.3607  0.7346
  739MOL0     H 1927   6.587   5.085   5.684 -1.7896 -2.5986  2.2596
  739MOL0     H 1928   6.592   4.948   5.580 -0.9234 -1.1862  2.0321
  739MOL0     H 1929   6.400   4.972   5.749 -2.6747  0.4259  0.1951
  739MOL0     H 1930   6.334   5.107   5.643 -0.9137 -0.7900 -0.1580
  739MOL0     H 1931   6.231   5.041   5.388 -1.6546 -0.9047 -2.9641
  739MOL0     H 1932   6.242   4.771   5.167  0.5171  0.7192  0.0444
  739MOL0     H 1933   6.087   4.849   5.222 -2.3116 -3.2765  1.9023
  739MOL0     H 1934   6.164   4.554   5.271 -2.4967 -2.2816 -3.2281
  739MOL0     H 1935   6.028   4.623   5.352 -2.5863  1.8044 -2.6148
  739MOL0     H 1936   5.955   4.702   5.109  1.3662  0.7951 -0.2918
  739MOL0     H 1937   6.085   4.603   5.059 -0.4449  1.9894 -0.5380
  739MOL0     H 1938   5.988   4.380   5.169 -0.7841 -0.0180 -0.0768
  739MOL0     H 1939   5.860   4.479   5.230 -1.9189 -3.0222 -0.9997
  739MOL0     H 1940   5.726   4.314   4.871  0.7852  3.3353  0.3277
  739MOL0     H 1941   5.776   4.026   4.671  3.1012  0.9590 -0.1029
  739MOL0     H 1942   5.669   4.172   4.684  0.3668  2.0594  1.1759
  739MOL0     H 1943   5.704   4.067   4.829 -0.8382  0.6310 -0.6273
  739MOL0     H 1944   6.350   3.868   4.753 -2.3497 -0.5116  1.4809
  739MOL0     H 1945   6.391   3.643   4.675 -0.1348  0.5128  0.0548
  739MOL0     H 1946   6.335   3.592   4.247  0.2224 -1.9356 -1.8981
  739MOL0     H 1947   6.490   3.543   4.316  0.7450 -2.7910  0.3744
  739MOL0     H 1948   6.352   3.313   4.355 -1.4864  0.1370  0.0450
  739MOL0     H 1949   6.226   3.397   4.261 -0.4251 -1.9326  0.1420
  739MOL0     H 1950   6.501   3.335   4.170 -1.1054  0.0388  0.6458
  739MOL0     H 1951   6.382   3.448   4.079  0.4976 -1.7926 -3.0223
  739MOL0     H 1952   6.228   3.287   4.049 -1.1614 -0.0659  4.3377
  739MOL0     H 1953   6.327   3.160   4.127 -0.2267  1.0850  1.2825
  739MOL0     H 1954   6.398   3.324   3.880 -1.0487  1.3220  0.4509
  739MOL0     H 1955   6.493   3.183   3.936 -1.6843 -0.5043  2.2373
  739MOL0     H 1956   6.210   3.184   3.850  1.3370  2.9642  2.2676
  739MOL0     H 1957   6.305   3.031   3.901  4.6247  0.2918  0.5556
  739MOL0     H 1958   6.276   3.018   3.670  0.0152  0.0750 -1.7484
  739MOL0     H 1959   6.451   3.082   3.691 -0.3231  0.3583  3.1326
  739MOL0     H 1960   6.371   3.309   3.650  1.0170 -0.7899  0.3546
  739MOL0     H 1961   6.214   3.268   3.635 -0.8112  1.1154 -0.0343
  739MOL0     H 1962   6.187   3.704   4.323  0.7885 -2.3859  0.2644
  739MOL0     H 1963   6.108   3.932   4.396  1.4337 -0.2946 -1.2565
  739MOL0     H 1964   6.204   4.239   4.796  0.4606 -2.6574  2.8149
  739MOL0     H 1965   6.149   4.396   4.956 -0.3013  1.3291 -1.4491
  739MOL0     H 1966   6.559   5.630   5.553  0.2878 -0.8575 -1.5170
  739MOL0     H 1967   6.440   5.841   5.530 -0.5695 -1.1827 -1.3418
  739MOL0     H 1968   6.558   6.238   5.249  0.1243  0.3614 -0.6901
  739MOL0     H 1969   6.476   6.448   5.138 -0.3088  2.0689  0.8413
  739MOL0     H 1970   6.192   6.707   5.337  0.9011 -2.3461  1.2870
  739MOL0     H 1971   6.341   6.755   5.419 -0.8888 -1.4332 -0.0397
  739MOL0     H 1972   6.402   6.899   5.223 -1.4771  2.3978 -2.0434
  739MOL0     H 1973   6.256   6.943   5.312 -1.0110 -1.0930  1.4956
  739MOL0     H 1974   6.266   6.793   5.051  2.2254  4.1648 -1.4187
  739MOL0     H 1975   6.110   6.833   5.118 -0.6165 -0.5949  2.9115
  739MOL0     H 1976   6.329   7.024   5.016  0.6072  1.1339  1.3770
  739MOL0     H 1977   6.216   7.079   5.129 -0.3729 -1.0274  0.5798
  739MOL0     H 1978   5.980   7.051   4.773 -2.5205  0.4361  1.7389
  739MOL0     H 1979   6.292   6.572   5.503 -2.9318 -1.2316 -1.3027
  739MOL0     H 1980   6.345   6.267   5.694  3.0560 -0.0365 -0.7440
  739MOL0     H 1981   6.460   6.404   5.716 -0.4024 -0.0020 -0.8550
  739MOL0     H 1982   6.288   6.437   5.687  0.8722  2.1764  0.0686
  740MOL0     O 1983   2.127   7.835   3.553 -0.3118 -0.1969  0.7627
  740MOL0     C 1984   2.017   7.813   3.597  0.4229  0.0968 -0.1441
  740MOL0     O 1985   1.908   7.779   3.523  0.4953  0.3230  0.1614
  740MOL0     C 1986   1.916   7.697   3.405 -0.1638 -0.7004 -0.3507
  740MOL0     C 1987   2.027   7.635   3.343 -0.2042 -0.6152  0.0102
  740MOL0     C 1988   2.014   7.554   3.229  0.1942  0.9075  0.2276
  740MOL0     C 1989   1.891   7.528   3.171  0.3461 -0.9648 -0.7248
  740MOL0     O 1990   1.871   7.459   3.060 -0.3884 -0.3440  0.9196
  740MOL0     C 1991   1.962   7.437   2.957  0.0908  0.7746  0.6163
  740MOL0     C 1992   1.899   7.348   2.840  0.9128 -0.6952 -0.9661
  740MOL0     C 1993   1.998   7.311   2.733  0.2274 -0.4063 -0.1091
  740MOL0     C 1994   1.979   7.403   2.609 -0.9617  0.3009  0.5218
  740MOL0     C 1995   2.111   7.391   2.524 -0.1078 -0.0182  0.7028
  740MOL0     C 1996   2.112   7.497   2.414 -1.0247 -0.0675  0.6411
  740MOL0     C 1997   1.997   7.496   2.316  0.2200 -0.2663 -0.2703
  740MOL0     C 1998   1.993   7.360   2.235  0.1631  0.6323  0.7808
  740MOL0     N 1999   2.114   7.341   2.156 -0.0261 -0.3833  0.2526
  740MOL0     C 2000   2.164   7.429   2.064 -0.6560 -0.6350 -0.1996
  740MOL0     C 2001   2.271   7.359   2.018 -1.7597 -0.2634 -0.2803
  740MOL0     C 2002   2.370   7.395   1.905 -0.0158  0.7869  0.1828
  740MOL0     C 2003   2.411   7.269   1.822 -0.9319  0.4767  0.7063
  740MOL0     C 2004   2.306   7.229   1.711 -0.0287 -0.2115 -0.3023
  740MOL0     C 2005   2.176   7.147   1.748  0.5412 -0.1905  0.1762
  740MOL0     O 2006   2.210   7.016   1.795 -0.9292 -0.4039 -0.2575
  740MOL0     C 2007   2.106   6.949   1.833  0.3794  0.4225  0.2748
  740MOL0     C 2008   2.038   6.875   1.739  0.8798 -0.5022 -0.3795
  740MOL0     C 2009   1.925   6.803   1.778 -0.5831  0.4857 -1.0348
  740MOL0     C 2010   1.860   6.716   1.679 -0.5754  0.3643 -0.3013
  740MOL0     C 2011   1.887   6.796   1.915 -0.3067  0.3624  1.0722
  740MOL0     C 2012   1.777   6.717   1.971 -0.0238  0.1320 -0.7668
  740MOL0     O 2013   1.741   6.743   2.098  0.0321 -0.7832  0.0478
  740MOL0     C 2014   1.642   6.663   2.153  1.6781 -0.0542 -0.5122
  740MOL0     C 2015   1.647   6.522   2.153  0.1499 -0.3818 -0.0051
  740MOL0     C 2016   1.548   6.447   2.214 -0.1949 -0.3375  0.2912
  740MOL0     C 2017   1.449   6.509   2.292 -0.3004 -0.5970  0.4597
  740MOL0     O 2018   1.356   6.426   2.350 -0.5848  0.3504  0.1672
  740MOL0     C 2019   1.288   6.461   2.472  0.3542 -0.2956 -0.4468
  740MOL0     C 2020   1.258   6.330   2.558  0.0385 -0.3947 -0.4307
  740MOL0     C 2021   1.119   6.274   2.525 -0.5050  0.8094  0.5919
  740MOL0     C 2022   1.099   6.239   2.380  0.3985 -0.4409  1.1984
  740MOL0     C 2023   1.207   6.135   2.333  1.0075  0.4536  0.6394
  740MOL0     C 2024   1.210   6.004   2.412  0.1774  1.0336 -0.4316
  740MOL0     C 2025   1.282   5.895   2.331  0.1433 -0.2600 -0.6556
  740MOL0     C 2026   1.280   5.755   2.400  0.6181 -0.7207 -0.7619
  740MOL0    Cl 2027   1.102   5.685   2.420 -0.0105 -0.2321 -0.0738
  740MOL0     C 2028   1.438   6.646   2.290 -0.3175 -0.1128  0.4822
  740MOL0     C 2029   1.529   6.724   2.219  0.0333  0.5939  0.4167
  740MOL0     O 2030   1.711   6.649   1.897  0.5142 -0.3876 -1.0912
  740MOL0     C 2031   1.970   6.872   2.000  0.7111 -0.5763  0.2533
  740MOL0     C 2032   2.073   6.949   1.966  0.1260 -0.1974  0.1669
  740MOL0     N 2033   2.290   7.237   2.090 -0.3556  0.0597 -0.3355
  740MOL0     N 2034   2.185   7.228   2.157 -0.0323  0.2173 -0.0811
  740MOL0     C 2035   1.779   7.596   3.221  0.1148 -0.7801  0.0964
  740MOL0     C 2036   1.790   7.676   3.334  0.2711 -0.2101 -0.4132
  740MOL0     C 2037   1.987   7.842   3.746 -0.4181 -0.2923 -0.0126
  740MOL0     C 2038   1.858   7.818   3.789 -0.6462 -0.6268 -1.1524
  740MOL0     C 2039   1.812   7.849   3.922 -0.5701  0.7059  0.6852
  740MOL0     C 2040   1.897   7.910   4.013 -0.1778  0.8655  1.0023
  740MOL0     O 2041   1.848   7.956   4.133  0.4497  0.2068  0.6269
  740MOL0     C 2042   1.799   8.092   4.125 -0.2751 -0.4544 -0.1929
  740MOL0     C 2043   1.722   8.113   4.265  0.0639  0.8278  0.2282
  740MOL0     C 2044   1.816   8.084   4.385  0.1407  0.4300 -0.1927
  740MOL0     C 2045   1.923   8.197   4.399 -0.3490  0.4889  0.2443
  740MOL0     C 2046   1.873   8.320   4.461 -0.1799  0.5913 -0.4191
  740MOL0     C 2047   1.830   8.429   4.485 -0.0591  0.6076  0.0549
  740MOL0     C 2048   2.027   7.936   3.972 -0.2457 -0.4999 -0.5724
  740MOL0     C 2049   2.080   7.889   3.846  0.0956  0.3385  0.0793
  740MOL0     C 2050   2.220   7.918   3.822 -0.0016 -0.5872  0.1707
  740MOL0     H 2051   2.125   7.644   3.388 -0.9882 -2.4793  2.2817
  740MOL0     H 2052   2.105   7.519   3.182 -0.1533 -0.2044  0.3544
  740MOL0     H 2053   2.060   7.394   2.981 -0.3797 -1.3255 -0.9316
  740MOL0     H 2054   1.982   7.532   2.907  0.5003  0.4811  0.2134
  740MOL0     H 2055   1.860   7.253   2.877 -5.1075  0.8446 -2.1437
  740MOL0     H 2056   1.814   7.407   2.803  0.3243  1.2587  3.0119
  740MOL0     H 2057   2.102   7.311   2.767 -0.1157 -0.0413  0.9721
  740MOL0     H 2058   1.985   7.205   2.709 -0.0557  0.0311 -2.0991
  740MOL0     H 2059   1.892   7.368   2.553  0.4059  0.4662 -1.8187
  740MOL0     H 2060   1.960   7.506   2.638 -0.7249 -0.0673  2.0729
  740MOL0     H 2061   2.124   7.288   2.489  1.7404  0.9484 -1.8343
  740MOL0     H 2062   2.204   7.413   2.577  0.2229 -4.3335  2.2990
  740MOL0     H 2063   2.109   7.593   2.466  0.3775 -0.3270  1.2477
  740MOL0     H 2064   2.210   7.497   2.366 -1.8647 -0.3446 -1.1510
  740MOL0     H 2065   2.004   7.579   2.245 -0.2930 -0.7383 -0.8923
  740MOL0     H 2066   1.912   7.507   2.383  1.0866  1.5654  0.5930
  740MOL0     H 2067   1.978   7.272   2.297 -0.8239  0.7926  0.7888
  740MOL0     H 2068   1.916   7.356   2.157 -0.1265  1.4092  1.0207
  740MOL0     H 2069   2.129   7.526   2.031  0.5815 -0.1617 -0.1797
  740MOL0     H 2070   2.456   7.437   1.958  2.1323  0.7228 -2.9758
  740MOL0     H 2071   2.331   7.473   1.839  0.2137  1.9400  1.3658
  740MOL0     H 2072   2.504   7.292   1.770 -1.1771 -2.1788 -1.1278
  740MOL0     H 2073   2.421   7.181   1.886 -2.0054 -1.1431 -1.2034
  740MOL0     H 2074   2.271   7.319   1.660  1.6082  0.2312 -0.6752
  740MOL0     H 2075   2.369   7.182   1.635  0.6066 -0.4300  0.3465
  740MOL0     H 2076   2.121   7.196   1.828 -0.0335 -1.1175  0.3610
  740MOL0     H 2077   2.107   7.153   1.663  0.2253 -0.4862  0.4109
  740MOL0     H 2078   2.077   6.886   1.639 -0.3492  0.3172 -0.7904
  740MOL0     H 2079   1.911   6.734   1.584  0.9714  1.0588  0.6252
  740MOL0     H 2080   1.754   6.738   1.664 -1.0797 -2.2593 -1.1158
  740MOL0     H 2081   1.878   6.609   1.693 -0.0085  0.1592 -2.3003
  740MOL0     H 2082   1.724   6.460   2.108 -1.6525 -1.2352 -2.1389
  740MOL0     H 2083   1.551   6.339   2.210 -0.1589 -0.2983 -1.7186
  740MOL0     H 2084   1.342   6.538   2.527  2.5503 -0.8363 -1.7295
  740MOL0     H 2085   1.191   6.507   2.454  1.5038  3.0121  1.1386
  740MOL0     H 2086   1.343   6.264   2.540  1.8901  1.2747  1.6055
  740MOL0     H 2087   1.256   6.373   2.659  0.8659 -0.8540 -0.2100
  740MOL0     H 2088   1.042   6.343   2.560  1.5117  5.2124 -2.6403
  740MOL0     H 2089   1.122   6.185   2.588  2.9264 -1.3144 -2.2292
  740MOL0     H 2090   1.102   6.319   2.305 -1.3069 -1.7856 -0.4086
  740MOL0     H 2091   0.998   6.199   2.370  0.4429 -0.7025  1.7778
  740MOL0     H 2092   1.171   6.111   2.233  1.8462 -2.1797  0.9069
  740MOL0     H 2093   1.307   6.178   2.321  0.9054  0.8117  1.0473
  740MOL0     H 2094   1.107   5.980   2.443 -0.8700  3.4053 -1.8234
  740MOL0     H 2095   1.269   6.009   2.504  0.2243 -0.6642 -0.3337
  740MOL0     H 2096   1.387   5.927   2.332  0.9377 -2.4462  2.7945
  740MOL0     H 2097   1.256   5.893   2.224  0.5305  2.0681 -0.8481
  740MOL0     H 2098   1.325   5.752   2.499  3.3700  1.7944 -1.8065
  740MOL0     H 2099   1.339   5.681   2.345  1.6486 -1.4074  1.1914
  740MOL0     H 2100   1.351   6.686   2.340 -0.2251  0.6915  0.0146
  740MOL0     H 2101   1.515   6.832   2.224  1.3860  0.7236  2.4980
  740MOL0     H 2102   1.950   6.850   2.105 -1.8682 -1.5847 -0.3765
  740MOL0     H 2103   2.143   6.988   2.040 -0.2922  1.4500 -0.2507
  740MOL0     H 2104   1.680   7.587   3.177 -0.4612  1.0460  0.9227
  740MOL0     H 2105   1.698   7.712   3.379  1.4816 -0.9393  2.9153
  740MOL0     H 2106   1.783   7.770   3.728  0.2172  0.3235 -3.0192
  740MOL0     H 2107   1.710   7.825   3.949 -0.0763 -0.6523  1.4565
  740MOL0     H 2108   1.885   8.157   4.113  0.0990 -0.9324 -0.1340
  740MOL0     H 2109   1.728   8.106   4.042 -0.9396  3.9973  0.8984
  740MOL0     H 2110   1.644   8.037   4.271  1.2268 -0.3477  1.1098
  740MOL0     H 2111   1.674   8.210   4.279 -1.4320  0.3326 -1.2475
  740MOL0     H 2112   1.752   8.089   4.474  0.2353  0.9924 -0.1499
  740MOL0     H 2113   1.865   7.987   4.380  1.5547  1.1172 -0.2767
  740MOL0     H 2114   1.971   8.228   4.305  0.8327  1.9786  1.2900
  740MOL0     H 2115   1.999   8.161   4.468 -0.0041 -1.4676 -1.0627
  740MOL0     H 2116   1.797   8.530   4.495 -3.5596  0.0179 -3.2846
  740MOL0     H 2117   2.087   7.985   4.049  1.3729 -3.1721  0.0047
  740MOL0     H 2118   2.283   7.965   3.898 -0.5467 -0.0357  0.2850
  740MOL0     H 2119   2.272   7.825   3.799  1.1268  0.4145 -1.5787
  740MOL0     H 2120   2.235   7.987   3.738  0.7606  0.0030  0.7767
  741MOL0     O 2121   9.117   9.997   5.229 -0.1652 -0.4849 -0.1069
  741MOL0     C 2122   9.227  10.030   5.193 -0.2174  0.3796  0.1048
  741MOL0     O 2123   9.308  10.102   5.264  0.1252 -0.4281 -0.3534
  741MOL0     C 2124   9.274  10.158   5.382  0.6150 -0.0210  0.0105
  741MOL0     C 2125   9.152  10.217   5.406  0.1518 -0.0257 -0.0433
  741MOL0     C 2126   9.137  10.283   5.529 -0.1607  0.0365 -0.2044
  741MOL0     C 2127   9.225  10.277   5.633 -0.5268 -0.0703 -0.1759
  741MOL0     O 2128   9.219  10.350   5.748  0.1317  0.0124  0.3093
  741MOL0     C 2129   9.090  10.406   5.776  0.4238 -0.1012  0.2620
  741MOL0     C 2130   9.112  10.498   5.889 -0.2852  0.7864 -0.4490
  741MOL0     C 2131   8.998  10.610   5.917  0.5738 -0.3262  0.0684
  741MOL0     C 2132   8.880  10.559   6.006 -0.5448 -0.0746  0.0162
  741MOL0     C 2133   8.785  10.674   6.057 -0.2360 -0.4165 -0.2208
  741MOL0     C 2134   8.703  10.639   6.182 -0.0180  1.6446 -0.0167
  741MOL0     C 2135   8.606  10.751   6.233 -0.1897  0.5923  0.5049
  741MOL0     C 2136   8.512  10.788   6.112  0.0558  0.2245 -0.0483
  741MOL0     N 2137   8.420  10.671   6.085  0.2007  0.0632 -0.3276
  741MOL0     C 2138   8.360  10.585   6.163  0.6900 -0.5378 -0.0759
  741MOL0     C 2139   8.300  10.497   6.078 -0.7287 -0.2274 -0.0100
  741MOL0     C 2140   8.215  10.373   6.106  0.1597  0.5366 -0.1379
  741MOL0     C 2141   8.282  10.248   6.051  0.0853  0.3325 -0.8263
  741MOL0     C 2142   8.224  10.122   6.123  0.1026 -0.7806  0.1939
  741MOL0     C 2143   8.297   9.989   6.099 -1.0094  0.7405 -0.6298
  741MOL0     O 2144   8.330   9.963   5.964  0.0320  0.2225  0.1064
  741MOL0     C 2145   8.328   9.830   5.943  0.4987 -0.0146  0.3539
  741MOL0     C 2146   8.225   9.769   5.865 -0.6181 -0.6499 -0.4077
  741MOL0     C 2147   8.224   9.626   5.846 -0.1531 -0.6932  0.2791
  741MOL0     C 2148   8.099   9.565   5.791 -0.3873  0.2412  0.3040
  741MOL0     C 2149   8.342   9.556   5.868 -0.9684  0.4926  1.1969
  741MOL0     C 2150   8.377   9.419   5.809  0.1203  0.1270 -0.6460
  741MOL0     O 2151   8.495   9.371   5.839  0.2447 -0.5871 -0.1016
  741MOL0     C 2152   8.531   9.245   5.825  0.5189 -0.7542  0.2772
  741MOL0     C 2153   8.612   9.202   5.718 -0.8901  0.1052 -0.0166
  741MOL0     C 2154   8.652   9.075   5.711  0.7034  0.1779  0.4498
  741MOL0     C 2155   8.621   8.978   5.809  1.2810  0.1423  0.4343
  741MOL0     O 2156   8.655   8.851   5.787  0.7252  0.1825 -0.6492
  741MOL0     C 2157   8.541   8.765   5.760 -0.1765  0.7351  0.4184
  741MOL0     C 2158   8.592   8.642   5.679  1.0420 -0.0172  0.1912
  741MOL0     C 2159   8.724   8.589   5.735  0.5623  0.6531 -1.1725
  741MOL0     C 2160   8.785   8.481   5.648 -0.4063 -0.7934 -0.0335
  741MOL0     C 2161   8.901   8.417   5.736  0.5673  0.1396 -0.6714
  741MOL0     C 2162   8.991   8.315   5.649  0.3027 -0.1879  0.7473
  741MOL0     C 2163   9.120   8.260   5.725  0.6599  0.2110  0.0057
  741MOL0     C 2164   9.181   8.146   5.648 -0.2983  0.1157  1.1346
  741MOL0    Cl 2165   9.075   8.006   5.624 -0.3995  0.0220  0.2013
  741MOL0     C 2166   8.532   9.012   5.914 -0.6132 -0.9064 -0.3302
  741MOL0     C 2167   8.497   9.151   5.925  0.4654 -0.4436  0.2289
  741MOL0     O 2168   8.290   9.355   5.751  0.3639 -1.4257  0.3374
  741MOL0     C 2169   8.442   9.617   5.938 -0.6793 -0.1103  0.1696
  741MOL0     C 2170   8.431   9.750   5.981  0.1132 -0.7110 -0.3564
  741MOL0     N 2171   8.324  10.542   5.951 -0.1426 -0.4645 -0.1607
  741MOL0     N 2172   8.388  10.650   5.958  0.6683 -0.5447 -0.6936
  741MOL0     C 2173   9.334  10.197   5.614 -0.4620 -0.4370  0.0428
  741MOL0     C 2174   9.355  10.142   5.489 -0.5369  0.7524  0.4028
  741MOL0     C 2175   9.284   9.958   5.069 -0.3674 -0.3100 -0.2649
  741MOL0     C 2176   9.411   9.985   5.038  0.1906 -0.2287  0.5120
  741MOL0     C 2177   9.474   9.932   4.923 -0.5744  0.9414 -0.1941
  741MOL0     C 2178   9.408   9.838   4.850  0.0143 -0.8151 -0.6443
  741MOL0     O 2179   9.467   9.776   4.742 -0.4531  0.4062 -0.8250
  741MOL0     C 2180   9.439   9.837   4.615  0.7918 -0.1557  0.4749
  741MOL0     C 2181   9.550   9.856   4.514 -0.9675 -0.0474 -1.9959
  741MOL0     C 2182   9.640   9.988   4.538 -0.9798  0.9973 -0.7153
  741MOL0     C 2183   9.759  10.014   4.438  0.0174  0.0610  0.3757
  741MOL0     C 2184   9.858   9.906   4.443  0.1012 -0.1198  0.3096
  741MOL0     C 2185   9.940   9.819   4.452  0.2738 -1.0347 -0.7211
  741MOL0     C 2186   9.291   9.789   4.895 -0.4999  0.3521 -0.1064
  741MOL0     C 2187   9.217   9.854   4.996 -0.3389 -0.1214  0.6312
  741MOL0     C 2188   9.068   9.804   5.016  0.6303 -0.1562 -0.2622
  741MOL0     H 2189   9.069  10.225   5.336  0.6259 -0.8430 -0.7145
  741MOL0     H 2190   9.049  10.345   5.515 -0.9489 -1.3866 -2.0358
  741MOL0     H 2191   9.014  10.334   5.807 -1.0288  1.5370  0.6336
  741MOL0     H 2192   9.055  10.464   5.690 -0.4757  0.8475  1.2390
  741MOL0     H 2193   9.126  10.430   5.974 -0.4461 -3.1168 -3.2976
  741MOL0     H 2194   9.211  10.543   5.879 -0.5479  1.0542 -2.1342
  741MOL0     H 2195   9.043  10.697   5.965 -1.7977  2.1432 -1.9051
  741MOL0     H 2196   8.966  10.654   5.823  1.0104  0.0173  0.0752
  741MOL0     H 2197   8.821  10.480   5.959  0.2610  0.1018 -1.3398
  741MOL0     H 2198   8.922  10.512   6.095  1.6887  2.8650  0.6612
  741MOL0     H 2199   8.729  10.700   5.967  1.8761  1.6894 -1.0487
  741MOL0     H 2200   8.847  10.758   6.089  0.4915 -1.9116  2.5883
  741MOL0     H 2201   8.650  10.545   6.165  2.7026  0.2659 -1.5827
  741MOL0     H 2202   8.769  10.618   6.266 -0.5530 -0.5074 -0.0871
  741MOL0     H 2203   8.679  10.826   6.266  0.9538 -0.3112  0.1159
  741MOL0     H 2204   8.551  10.712   6.319 -2.6101 -1.0214 -1.6337
  741MOL0     H 2205   8.449  10.870   6.147 -0.9361 -0.5089 -0.0542
  741MOL0     H 2206   8.570  10.818   6.024  2.4713 -2.0195  0.6287
  741MOL0     H 2207   8.348  10.575   6.271 -0.0356  2.2256  0.1645
  741MOL0     H 2208   8.115  10.375   6.062  0.4216  0.8568 -0.7401
  741MOL0     H 2209   8.205  10.366   6.214  2.7370 -1.4742  0.0806
  741MOL0     H 2210   8.255  10.248   5.945 -0.7479  2.1556 -0.6535
  741MOL0     H 2211   8.388  10.256   6.077 -0.0472 -0.3754 -0.0090
  741MOL0     H 2212   8.242  10.136   6.229  1.0710  0.0824 -0.0679
  741MOL0     H 2213   8.117  10.111   6.101  0.2939  2.0183 -2.9412
  741MOL0     H 2214   8.395   9.986   6.147 -1.9264 -1.5928  1.3025
  741MOL0     H 2215   8.246   9.911   6.156 -0.8689  0.7245 -0.5264
  741MOL0     H 2216   8.143   9.833   5.835 -1.4264 -1.2251  0.4922
  741MOL0     H 2217   8.118   9.501   5.705  1.0525 -0.0381  0.8016
  741MOL0     H 2218   8.031   9.645   5.760  1.4620  1.7143 -0.1197
  741MOL0     H 2219   8.057   9.495   5.865  0.2569 -1.3227 -0.7443
  741MOL0     H 2220   8.646   9.273   5.644  3.7860 -0.9979  0.7669
  741MOL0     H 2221   8.729   9.047   5.640 -0.4235 -2.1411  0.0472
  741MOL0     H 2222   8.488   8.735   5.851 -1.5692  0.5345 -0.4308
  741MOL0     H 2223   8.470   8.810   5.691  0.8289  0.0338 -1.1236
  741MOL0     H 2224   8.503   8.579   5.679  0.9085  0.1638 -0.5445
  741MOL0     H 2225   8.605   8.683   5.579  2.7128 -0.4426  0.2006
  741MOL0     H 2226   8.710   8.560   5.840 -1.3020 -1.7752 -1.9828
  741MOL0     H 2227   8.796   8.671   5.738  0.9464  0.2927  0.5748
  741MOL0     H 2228   8.797   8.517   5.546 -1.2427  0.4376  0.2803
  741MOL0     H 2229   8.709   8.403   5.644 -0.5763 -0.8908  2.8857
  741MOL0     H 2230   8.978   8.483   5.778 -1.7243  0.4140  3.6170
  741MOL0     H 2231   8.861   8.368   5.825  1.5034 -1.5450 -1.1148
  741MOL0     H 2232   9.035   8.368   5.564  2.1794  1.5246  2.6582
  741MOL0     H 2233   8.932   8.238   5.598  1.4504 -0.2663 -0.5133
  741MOL0     H 2234   9.110   8.239   5.832 -1.4384  4.8273  0.9649
  741MOL0     H 2235   9.192   8.342   5.713  0.5718  0.2909  0.0304
  741MOL0     H 2236   9.284   8.125   5.678  1.4991  1.1546 -3.4721
  741MOL0     H 2237   9.199   8.184   5.547  1.7075 -1.4967  0.8376
  741MOL0     H 2238   8.492   8.943   5.988 -4.3426 -0.1833 -1.4098
  741MOL0     H 2239   8.442   9.199   6.006 -1.2443 -0.2780 -0.9841
  741MOL0     H 2240   8.536   9.570   5.965 -1.3871 -1.9821 -0.4756
  741MOL0     H 2241   8.513   9.794   6.036 -1.0598 -1.2811  1.9675
  741MOL0     H 2242   9.411  10.190   5.691 -1.3867 -0.4125  0.9870
  741MOL0     H 2243   9.453  10.099   5.478 -1.3041 -1.7333  2.4150
  741MOL0     H 2244   9.467  10.063   5.089  0.4099  1.7771 -2.4754
  741MOL0     H 2245   9.572   9.960   4.884  0.8436 -1.7461  1.1241
  741MOL0     H 2246   9.369   9.779   4.554  0.3952  0.2201  0.5678
  741MOL0     H 2247   9.386   9.931   4.631 -0.1608 -0.4462 -0.7887
  741MOL0     H 2248   9.513   9.857   4.411  2.4982 -2.9046 -3.4748
  741MOL0     H 2249   9.614   9.769   4.531  3.7246  2.8950 -2.6529
  741MOL0     H 2250   9.587  10.082   4.555  0.3698  1.5830  0.5226
  741MOL0     H 2251   9.692   9.969   4.632  1.0956  2.2528 -1.5242
  741MOL0     H 2252   9.814  10.100   4.477  0.4379  0.0155 -0.1049
  741MOL0     H 2253   9.718  10.026   4.337 -0.7923  0.2059  0.7190
  741MOL0     H 2254  10.009   9.737   4.457  4.9760  2.4909  3.7726
  741MOL0     H 2255   9.260   9.697   4.847 -1.2174 -0.2233  1.3977
  741MOL0     H 2256   9.035   9.734   4.939 -0.4699 -1.6869  1.4955
  741MOL0     H 2257   9.056   9.748   5.110 -3.1175  0.0402 -0.4735
  741MOL0     H 2258   9.003   9.892   5.013 -0.3908 -0.8759  0.1382
  742MOL0     O 2259   0.935   3.027   6.534 -0.5150  0.7004 -0.3310
  742MOL0     C 2260   1.016   2.986   6.447 -0.1704 -0.3360 -0.2108
  742MOL0     O 2261   1.079   3.075   6.358  0.8973 -0.2360 -0.3126
  742MOL0     C 2262   1.051   3.209   6.386  0.3014  1.8814  0.1109
  742MOL0     C 2263   1.083   3.272   6.507 -0.8450 -0.8405  0.3052
  742MOL0     C 2264   1.062   3.403   6.539 -1.0868 -0.3779 -0.5886
  742MOL0     C 2265   0.991   3.485   6.448 -0.5321 -0.5048 -0.2805
  742MOL0     O 2266   0.961   3.614   6.481  0.3530  0.0020  0.9929
  742MOL0     C 2267   1.002   3.706   6.379  0.2494 -0.1134  0.3135
  742MOL0     C 2268   1.123   3.800   6.418 -0.7639  0.2483 -0.3443
  742MOL0     C 2269   1.119   3.864   6.556  0.7894 -0.1873  0.1148
  742MOL0     C 2270   1.239   3.947   6.584  0.0375  0.4070 -0.2281
  742MOL0     C 2271   1.228   4.000   6.728  0.5290  0.1311 -0.0408
  742MOL0     C 2272   1.328   4.122   6.740 -0.2947  0.1092 -1.0559
  742MOL0     C 2273   1.356   4.152   6.901 -0.0174 -0.9036  0.6608
  742MOL0     C 2274   1.486   4.242   6.940  0.7992 -0.7416 -0.0429
  742MOL0     N 2275   1.448   4.370   7.010 -0.1808  0.3584  0.5106
  742MOL0     C 2276   1.539   4.466   7.037 -0.7512 -0.4435 -0.3450
  742MOL0     C 2277   1.480   4.544   7.128  0.0509  0.4457  1.1326
  742MOL0     C 2278   1.537   4.660   7.207  0.1511  1.0967  0.1334
  742MOL0     C 2279   1.518   4.625   7.357 -0.3776 -0.1762  0.2236
  742MOL0     C 2280   1.549   4.731   7.465  0.7541 -0.4126  0.4408
  742MOL0     C 2281   1.699   4.769   7.482  0.2463  0.0754  0.3476
  742MOL0     O 2282   1.769   4.829   7.367  0.4001 -0.3318  0.2523
  742MOL0     C 2283   1.895   4.877   7.409 -0.7356  0.2059  0.1709
  742MOL0     C 2284   1.942   4.865   7.540  0.0997  0.1297  0.1935
  742MOL0     C 2285   2.066   4.917   7.576 -0.1036 -0.3187 -0.5469
  742MOL0     C 2286   2.121   4.867   7.708  0.2641 -0.2345 -0.2742
  742MOL0     C 2287   2.146   5.000   7.487 -0.3951 -0.2234  0.1280
  742MOL0     C 2288   2.283   5.049   7.515 -0.6402  0.2949 -0.5674
  742MOL0     O 2289   2.354   5.095   7.411 -0.0728 -0.1258 -0.1509
  742MOL0     C 2290   2.468   5.156   7.451 -0.3735  0.5311  0.5822
  742MOL0     C 2291   2.474   5.294   7.462  0.3317 -0.2702  0.3209
  742MOL0     C 2292   2.594   5.358   7.500  0.0370  0.0595  0.6162
  742MOL0     C 2293   2.703   5.282   7.536  0.8278  0.2172 -0.2250
  742MOL0     O 2294   2.813   5.344   7.567  0.4764  0.3493 -0.4210
  742MOL0     C 2295   2.872   5.303   7.702  0.2062  0.0769  0.6257
  742MOL0     C 2296   2.995   5.211   7.693 -0.7924 -0.2703  0.0152
  742MOL0     C 2297   3.112   5.290   7.649 -0.0354  0.6411 -0.5618
  742MOL0     C 2298   3.254   5.224   7.659  0.3026  0.1284 -0.3716
  742MOL0     C 2299   3.360   5.284   7.565  0.0575 -0.2876  0.3819
  742MOL0     C 2300   3.504   5.298   7.624  0.0607  0.2246  0.3044
  742MOL0     C 2301   3.554   5.165   7.677  0.7681  0.0295 -0.0303
  742MOL0     C 2302   3.701   5.157   7.719 -0.4369  0.9528  0.6427
  742MOL0    Cl 2303   3.815   5.229   7.589 -0.2174  0.0441  0.4504
  742MOL0     C 2304   2.696   5.140   7.530 -0.3767  0.8255  1.2926
  742MOL0     C 2305   2.579   5.076   7.492  0.8355  0.5107  0.4652
  742MOL0     O 2306   2.318   5.058   7.633 -0.7755 -0.1855 -0.2608
  742MOL0     C 2307   2.087   5.026   7.358 -0.3357  0.1648 -1.4168
  742MOL0     C 2308   1.964   4.961   7.324 -0.7507 -0.0197 -0.0225
  742MOL0     N 2309   1.355   4.504   7.144  0.9545  0.0148  0.8681
  742MOL0     N 2310   1.338   4.394   7.083  0.3014  1.4030 -0.0437
  742MOL0     C 2311   0.960   3.427   6.322 -0.2368 -0.2332  0.4175
  742MOL0     C 2312   0.990   3.296   6.295 -0.0870 -0.0712 -0.0435
  742MOL0     C 2313   1.053   2.850   6.436 -0.4920 -0.4418 -0.1856
  742MOL0     C 2314   0.958   2.759   6.424 -0.3183  0.2281 -0.1264
  742MOL0     C 2315   1.000   2.625   6.416  0.6982 -0.7843  0.2359
  742MOL0     C 2316   1.130   2.585   6.432 -0.0761  0.4728 -0.0311
  742MOL0     O 2317   1.146   2.447   6.436  0.2811 -0.8069 -1.0874
  742MOL0     C 2318   1.266   2.379   6.474 -0.4766 -0.3651 -0.1079
  742MOL0     C 2319   1.241   2.286   6.599  0.2162 -0.5286 -0.3142
  742MOL0     C 2320   1.209   2.344   6.739 -0.1602 -0.9653 -0.2963
  742MOL0     C 2321   1.328   2.371   6.827  0.5935 -1.1089 -0.3148
  742MOL0     C 2322   1.349   2.242   6.894 -0.0112 -0.0340  0.5602
  742MOL0     C 2323   1.355   2.139   6.951  0.0251 -0.2349  0.1799
  742MOL0     C 2324   1.224   2.685   6.455  0.1261 -0.0144  1.3903
  742MOL0     C 2325   1.191   2.818   6.441 -0.5134 -0.0882 -0.5971
  742MOL0     C 2326   1.300   2.922   6.462 -0.4909  0.5964  0.5088
  742MOL0     H 2327   1.135   3.215   6.583 -0.7896 -0.6214  0.4312
  742MOL0     H 2328   1.097   3.441   6.635  0.5338  0.9031 -1.6430
  742MOL0     H 2329   0.908   3.761   6.368 -1.0322 -2.5301 -2.1858
  742MOL0     H 2330   1.013   3.674   6.275 -0.3776  0.2848  0.1153
  742MOL0     H 2331   1.211   3.734   6.417 -0.0825  1.1468 -0.6226
  742MOL0     H 2332   1.156   3.879   6.350  0.8610  1.3015  1.5817
  742MOL0     H 2333   1.025   3.920   6.559  0.3304 -0.9911  1.9751
  742MOL0     H 2334   1.098   3.787   6.632 -0.4108  0.2490  0.2470
  742MOL0     H 2335   1.333   3.891   6.573 -0.4454 -0.2885 -1.0014
  742MOL0     H 2336   1.235   4.031   6.514 -2.3783  1.3032  0.9003
  742MOL0     H 2337   1.248   3.927   6.807 -1.0470  0.6991  0.9236
  742MOL0     H 2338   1.130   4.036   6.761 -1.0241 -3.3327 -0.4661
  742MOL0     H 2339   1.429   4.090   6.710 -0.5968 -3.4388  1.0870
  742MOL0     H 2340   1.284   4.210   6.695 -1.7302  1.2819  2.3196
  742MOL0     H 2341   1.382   4.058   6.951 -1.0376 -1.3246  0.4218
  742MOL0     H 2342   1.263   4.189   6.945 -0.0229 -2.1323  1.7076
  742MOL0     H 2343   1.534   4.177   7.013 -1.9944 -1.4471  1.3260
  742MOL0     H 2344   1.558   4.261   6.860  1.4526 -0.3857  0.6214
  742MOL0     H 2345   1.644   4.477   7.013 -1.1106 -0.2765 -1.9640
  742MOL0     H 2346   1.484   4.754   7.187 -1.2700  0.8569  2.4322
  742MOL0     H 2347   1.642   4.674   7.178  0.6770 -2.5112 -0.1663
  742MOL0     H 2348   1.416   4.588   7.363  0.0537 -1.6511 -0.7757
  742MOL0     H 2349   1.593   4.549   7.380  1.1253  1.7583  2.1142
  742MOL0     H 2350   1.486   4.816   7.438  1.0697  0.5508  2.5406
  742MOL0     H 2351   1.511   4.695   7.561 -0.9005 -0.7497 -0.3113
  742MOL0     H 2352   1.696   4.818   7.579 -2.6941 -1.2133  1.0267
  742MOL0     H 2353   1.759   4.677   7.492 -0.9381 -0.9979 -1.7011
  742MOL0     H 2354   1.901   4.787   7.603  2.7860 -2.5753 -1.1534
  742MOL0     H 2355   2.096   4.937   7.788  2.0569 -0.3042  0.4001
  742MOL0     H 2356   2.229   4.846   7.706  0.6432  1.5201  0.0975
  742MOL0     H 2357   2.080   4.773   7.745 -0.0982  0.8802  2.3765
  742MOL0     H 2358   2.392   5.354   7.422  0.4055 -0.7822 -0.6226
  742MOL0     H 2359   2.608   5.465   7.487 -3.0370  0.4258 -0.3295
  742MOL0     H 2360   2.899   5.393   7.758 -0.1721  1.5613 -1.4375
  742MOL0     H 2361   2.795   5.244   7.753  0.5156 -1.7583 -0.9330
  742MOL0     H 2362   3.024   5.180   7.794  2.3491  3.0082  0.3299
  742MOL0     H 2363   2.972   5.125   7.629 -2.6541  1.1294 -1.3019
  742MOL0     H 2364   3.108   5.384   7.705 -0.6583  0.7265 -0.7521
  742MOL0     H 2365   3.094   5.309   7.542  0.2628 -0.9220 -0.9163
  742MOL0     H 2366   3.254   5.118   7.632 -0.1204 -0.1260  0.5827
  742MOL0     H 2367   3.279   5.219   7.765  0.9123 -2.0367 -0.5630
  742MOL0     H 2368   3.364   5.238   7.466 -1.5721 -0.0911  0.1933
  742MOL0     H 2369   3.325   5.386   7.548  0.3315  0.3671  3.3099
  742MOL0     H 2370   3.507   5.367   7.709 -2.4658 -0.0952  0.7163
  742MOL0     H 2371   3.571   5.334   7.545 -1.2587 -0.9698 -1.4504
  742MOL0     H 2372   3.526   5.078   7.617  2.5826 -1.8514  1.7055
  742MOL0     H 2373   3.509   5.135   7.772  2.7993 -2.1811  0.3390
  742MOL0     H 2374   3.725   5.050   7.725 -0.1480  0.9509 -0.4810
  742MOL0     H 2375   3.726   5.209   7.812  2.5114  1.2806 -0.2494
  742MOL0     H 2376   2.787   5.086   7.553  0.0086  1.3886  1.0851
  742MOL0     H 2377   2.561   4.969   7.486  0.7172  0.5798 -0.7656
  742MOL0     H 2378   2.137   5.093   7.288  2.5616 -0.4123 -0.0481
  742MOL0     H 2379   1.935   4.977   7.220  0.1859  0.1415 -0.2665
  742MOL0     H 2380   0.903   3.479   6.245 -0.5602 -1.7723 -0.4099
  742MOL0     H 2381   0.957   3.260   6.198  1.9900  2.2538 -1.7542
  742MOL0     H 2382   0.856   2.793   6.410  0.3328  1.7979 -1.4039
  742MOL0     H 2383   0.934   2.541   6.394 -1.3439  0.9615 -0.7250
  742MOL0     H 2384   1.290   2.317   6.387  1.4422  0.2801 -0.0926
  742MOL0     H 2385   1.354   2.443   6.486 -0.7947  0.5003 -2.0591
  742MOL0     H 2386   1.326   2.218   6.613  0.5231 -0.0044  0.4096
  742MOL0     H 2387   1.151   2.225   6.587 -1.3679  1.7011 -0.2603
  742MOL0     H 2388   1.148   2.430   6.711  1.8457  0.0088 -1.9157
  742MOL0     H 2389   1.141   2.271   6.785 -0.2642  0.2192  1.5346
  742MOL0     H 2390   1.301   2.452   6.896  1.0689 -0.1293 -1.2461
  742MOL0     H 2391   1.416   2.405   6.771  0.7198  1.2464  1.1585
  742MOL0     H 2392   1.355   2.049   7.010  2.8147 -0.6233 -0.2641
  742MOL0     H 2393   1.326   2.665   6.487  1.3183  1.7456 -0.9346
  742MOL0     H 2394   1.311   2.972   6.365  2.1850  0.7824  0.8175
  742MOL0     H 2395   1.273   3.002   6.532 -3.4087  0.9564 -0.9150
  742MOL0     H 2396   1.403   2.891   6.486  0.1178  1.2776 -1.0822
  743MOL0     O 2397   1.731   6.697   3.519 -0.4032 -0.9635  0.0340
  743MOL0     C 2398   1.777   6.794   3.447  0.3476 -0.0296 -0.6146
  743MOL0     O 2399   1.788   6.930   3.482 -0.3039 -0.7095  0.2572
  743MOL0     C 2400   1.754   6.967   3.612  0.7521  0.1648  0.0780
  743MOL0     C 2401   1.618   6.951   3.653  0.3899  0.4711 -0.4720
  743MOL0     C 2402   1.576   6.965   3.782  0.2242 -0.3130  0.6992
  743MOL0     C 2403   1.672   7.003   3.876 -0.2697  0.0732 -0.1600
  743MOL0     O 2404   1.650   7.006   4.013 -0.3572  0.6918  0.4434
  743MOL0     C 2405   1.558   6.926   4.075 -0.4579 -0.0166  0.6366
  743MOL0     C 2406   1.413   6.990   4.084 -0.3558  0.1539 -0.9123
  743MOL0     C 2407   1.322   6.944   4.203  0.3948  0.5651 -0.3478
  743MOL0     C 2408   1.346   7.042   4.318 -0.4580 -0.0913 -1.0732
  743MOL0     C 2409   1.300   6.983   4.454 -1.3037  0.2101 -0.5416
  743MOL0     C 2410   1.267   7.090   4.559 -0.3851 -0.8177  0.7138
  743MOL0     C 2411   1.201   7.032   4.697  0.5103  0.3572  0.3486
  743MOL0     C 2412   1.272   6.913   4.759 -0.4563 -0.4066  0.0730
  743MOL0     N 2413   1.423   6.926   4.774  0.4829  0.6070 -1.2710
  743MOL0     C 2414   1.485   6.987   4.876 -0.0926 -0.1932 -0.0608
  743MOL0     C 2415   1.600   6.935   4.890  0.4797  0.6487 -0.7187
  743MOL0     C 2416   1.704   6.983   4.983  0.2729  0.2117 -0.1357
  743MOL0     C 2417   1.630   6.980   5.126 -0.3523 -0.2044 -0.0749
  743MOL0     C 2418   1.556   6.849   5.170  0.6471  0.7621 -0.5093
  743MOL0     C 2419   1.517   6.860   5.319 -0.2015  0.0522 -1.0282
  743MOL0     O 2420   1.430   6.968   5.351  0.0003 -0.5905  0.1796
  743MOL0     C 2421   1.320   6.977   5.263 -1.1092  0.0431 -1.2498
  743MOL0     C 2422   1.242   6.869   5.213 -0.7709 -0.0774  0.4338
  743MOL0     C 2423   1.128   6.890   5.132  0.1684  0.6255 -0.0021
  743MOL0     C 2424   1.042   6.774   5.093  0.0974 -0.8257 -0.3841
  743MOL0     C 2425   1.103   7.023   5.092  0.9573 -0.7324  0.0734
  743MOL0     C 2426   0.996   7.065   5.000 -0.2663 -0.1157 -0.0447
  743MOL0     O 2427   0.958   7.195   5.015 -0.6907 -0.4173 -0.2840
  743MOL0     C 2428   0.885   7.267   4.926 -0.4366  0.1931 -0.7293
  743MOL0     C 2429   0.875   7.250   4.793 -0.0737 -0.4996  0.3683
  743MOL0     C 2430   0.796   7.340   4.716 -0.0847  0.0361 -0.5496
  743MOL0     C 2431   0.735   7.453   4.785  0.0770 -0.9144 -0.0553
  743MOL0     O 2432   0.677   7.548   4.715 -1.0666 -0.1298 -0.2885
  743MOL0     C 2433   0.563   7.508   4.644  0.2917  0.3560 -0.3432
  743MOL0     C 2434   0.581   7.559   4.502  0.1300 -0.0046 -0.3714
  743MOL0     C 2435   0.459   7.531   4.416  0.4891 -1.1190  0.7808
  743MOL0     C 2436   0.351   7.641   4.423  0.0641  1.0687 -1.1881
  743MOL0     C 2437   0.236   7.619   4.319 -0.4291  0.0763  0.3746
  743MOL0     C 2438   0.141   7.739   4.334  0.1689 -0.3495  0.4213
  743MOL0     C 2439   0.017   7.737   4.243  0.3922  0.5743  0.3519
  743MOL0     C 2440  -0.080   7.614   4.233  0.3004  0.1803 -0.3074
  743MOL0    Cl 2441  -0.211   7.664   4.119 -0.1723  0.4890 -0.2621
  743MOL0     C 2442   0.753   7.472   4.918 -0.2170 -0.4491 -0.7061
  743MOL0     C 2443   0.837   7.382   4.983  0.4816 -0.0977 -0.6097
  743MOL0     O 2444   0.971   6.993   4.900  0.4666 -0.1410 -0.0349
  743MOL0     C 2445   1.182   7.127   5.148  0.0152 -0.4541  0.4889
  743MOL0     C 2446   1.283   7.104   5.236 -0.1191  0.3194  0.3644
  743MOL0     N 2447   1.607   6.823   4.809 -0.2739  0.2556 -0.5928
  743MOL0     N 2448   1.502   6.821   4.723  0.8043 -0.8606 -0.9824
  743MOL0     C 2449   1.804   7.027   3.837  0.1944  0.6053  0.4093
  743MOL0     C 2450   1.848   6.991   3.707 -0.1851 -1.0044 -0.2272
  743MOL0     C 2451   1.814   6.760   3.307 -0.0977 -0.1279 -0.6916
  743MOL0     C 2452   1.708   6.702   3.227 -0.2693  0.2748  0.6243
  743MOL0     C 2453   1.733   6.682   3.089  0.0975  0.0640  0.4769
  743MOL0     C 2454   1.846   6.721   3.031 -0.4857 -0.6910  0.0014
  743MOL0     O 2455   1.847   6.705   2.904  1.0793 -0.6949  0.6801
  743MOL0     C 2456   1.957   6.751   2.818 -0.1129 -0.6024  0.1655
  743MOL0     C 2457   1.917   6.755   2.665  0.4105  0.3572  0.6044
  743MOL0     C 2458   1.799   6.829   2.616 -0.2701 -1.1974  0.3179
  743MOL0     C 2459   1.786   6.841   2.462 -0.2877  0.1119 -0.2068
  743MOL0     C 2460   1.901   6.904   2.410 -0.6605 -0.0194 -0.4755
  743MOL0     C 2461   1.988   6.971   2.355  0.1368 -0.5252 -1.6378
  743MOL0     C 2462   1.945   6.782   3.110  0.1896  0.1667  0.2507
  743MOL0     C 2463   1.930   6.803   3.244 -0.2831 -0.0227 -0.2461
  743MOL0     C 2464   2.043   6.869   3.318  0.1834  0.1200 -0.1033
  743MOL0     H 2465   1.551   6.915   3.575 -0.2082 -1.1570  0.7564
  743MOL0     H 2466   1.474   6.950   3.814  0.5412  0.8815  2.4516
  743MOL0     H 2467   1.600   6.918   4.175  1.8927  4.0613  0.1736
  743MOL0     H 2468   1.551   6.830   4.023 -0.6776  0.4437 -0.2056
  743MOL0     H 2469   1.431   7.097   4.092  0.2624 -0.0739  2.4661
  743MOL0     H 2470   1.353   6.970   3.995 -2.2886 -1.0962  0.5945
  743MOL0     H 2471   1.217   6.940   4.173  0.4554  2.4211 -0.9190
  743MOL0     H 2472   1.357   6.845   4.234  0.0381  0.4784 -0.2236
  743MOL0     H 2473   1.453   7.063   4.318 -0.7930  1.8737 -1.4709
  743MOL0     H 2474   1.302   7.140   4.296 -1.8192 -0.7165 -1.2522
  743MOL0     H 2475   1.383   6.929   4.500 -1.8179  1.9914  2.8104
  743MOL0     H 2476   1.210   6.923   4.433 -1.8068  1.5429 -2.4684
  743MOL0     H 2477   1.349   7.156   4.589 -0.1698 -0.7971  0.0914
  743MOL0     H 2478   1.191   7.153   4.510  0.6117 -1.1080 -1.3022
  743MOL0     H 2479   1.095   7.008   4.686 -0.2273  3.2958  0.2395
  743MOL0     H 2480   1.202   7.106   4.778  2.8535 -0.0159  0.7195
  743MOL0     H 2481   1.230   6.896   4.858 -0.3298 -1.7400 -0.0816
  743MOL0     H 2482   1.250   6.843   4.677 -0.2075  0.7432 -1.0080
  743MOL0     H 2483   1.435   7.064   4.934  0.5795 -0.8666  1.4716
  743MOL0     H 2484   1.732   7.083   4.947 -1.6275  1.1415  0.7931
  743MOL0     H 2485   1.796   6.925   4.976  0.0384 -0.2599  0.6080
  743MOL0     H 2486   1.703   6.992   5.206 -3.3280  0.2090  2.7683
  743MOL0     H 2487   1.568   7.069   5.139 -0.5388  0.2837 -3.3739
  743MOL0     H 2488   1.469   6.816   5.111  2.6334 -1.6320 -2.3590
  743MOL0     H 2489   1.634   6.775   5.147 -0.9875 -0.6724 -1.7769
  743MOL0     H 2490   1.470   6.764   5.344  0.2237 -0.0093 -0.4371
  743MOL0     H 2491   1.610   6.869   5.375 -0.4264  1.2190 -0.8295
  743MOL0     H 2492   1.251   6.765   5.242 -0.7604 -0.2274 -0.1115
  743MOL0     H 2493   1.023   6.708   5.178  2.7244 -2.4708 -0.9627
  743MOL0     H 2494   1.099   6.713   5.023 -0.2818 -1.9408  0.2506
  743MOL0     H 2495   0.943   6.801   5.056 -0.8710 -2.1671  1.0883
  743MOL0     H 2496   0.934   7.174   4.743 -0.5434 -1.4767  1.2498
  743MOL0     H 2497   0.794   7.329   4.608  2.0445 -1.2858 -0.5231
  743MOL0     H 2498   0.541   7.401   4.644  1.6483  0.0170 -2.2823
  743MOL0     H 2499   0.481   7.557   4.697 -0.0484  0.0329 -0.5606
  743MOL0     H 2500   0.601   7.667   4.499 -0.7176  0.2115 -4.8626
  743MOL0     H 2501   0.666   7.505   4.459  1.3534  0.2494  1.6064
  743MOL0     H 2502   0.413   7.440   4.456 -0.9109 -0.0985  1.5786
  743MOL0     H 2503   0.486   7.517   4.311  4.2348 -0.4791  1.5049
  743MOL0     H 2504   0.404   7.734   4.403  1.9270  0.3256 -0.0201
  743MOL0     H 2505   0.299   7.639   4.520 -0.5724 -0.3154 -1.5307
  743MOL0     H 2506   0.284   7.619   4.221 -1.3099  3.7400 -0.1767
  743MOL0     H 2507   0.185   7.527   4.351 -2.9015  1.6761  1.2870
  743MOL0     H 2508   0.185   7.834   4.303 -0.6662 -0.1503 -0.1885
  743MOL0     H 2509   0.104   7.741   4.437 -0.0677 -1.7625  0.3804
  743MOL0     H 2510   0.048   7.767   4.143 -1.0591 -2.4823 -1.1422
  743MOL0     H 2511  -0.049   7.815   4.284 -1.5345  0.2051 -1.8322
  743MOL0     H 2512  -0.128   7.594   4.329  0.3393  0.7236 -0.1723
  743MOL0     H 2513  -0.026   7.526   4.195 -0.6684 -1.4741  1.9183
  743MOL0     H 2514   0.732   7.565   4.969  4.6560  0.9321 -0.7016
  743MOL0     H 2515   0.850   7.410   5.087 -1.4890  1.3701 -0.7095
  743MOL0     H 2516   1.159   7.231   5.129  0.4210  0.0919  2.6504
  743MOL0     H 2517   1.331   7.185   5.290  2.4721  0.5026 -1.9920
  743MOL0     H 2518   1.875   7.055   3.913 -1.5091  2.9278  1.2445
  743MOL0     H 2519   1.955   6.985   3.692 -0.0954 -2.7256  0.9193
  743MOL0     H 2520   1.609   6.670   3.258 -0.9654  3.5781  2.2566
  743MOL0     H 2521   1.657   6.629   3.033  0.3639 -0.6449  0.7723
  743MOL0     H 2522   1.980   6.857   2.832  2.3185 -0.5149 -3.1986
  743MOL0     H 2523   2.049   6.692   2.829  2.4111  3.1045  1.0050
  743MOL0     H 2524   1.904   6.654   2.626 -0.6020  0.5703  0.3480
  743MOL0     H 2525   2.006   6.791   2.613 -0.3479  1.1903 -0.1661
  743MOL0     H 2526   1.711   6.773   2.647 -0.3958 -0.8252  0.6471
  743MOL0     H 2527   1.797   6.923   2.671 -1.1094 -1.1107  0.1475
  743MOL0     H 2528   1.700   6.900   2.428 -1.3749 -1.0991  0.3748
  743MOL0     H 2529   1.771   6.741   2.422  3.2493 -0.4407 -0.4396
  743MOL0     H 2530   2.068   7.027   2.310  1.2604  1.4346  2.2907
  743MOL0     H 2531   2.039   6.810   3.064  0.6940 -0.3703  0.9313
  743MOL0     H 2532   2.034   6.976   3.336  2.5504  0.3224  0.1811
  743MOL0     H 2533   2.064   6.825   3.416  0.5058  1.6395  0.5368
  743MOL0     H 2534   2.129   6.863   3.251 -2.0704 -0.0215 -3.1986
  744MOL0     O 2535   5.370   5.850   0.421  0.7008  0.1712  0.8659
  744MOL0     C 2536   5.386   5.925   0.330 -0.1250 -0.7866  0.5837
  744MOL0     O 2537   5.315   5.924   0.217 -0.6933 -0.1503  0.2097
  744MOL0     C 2538   5.206   5.846   0.196 -0.0447 -0.6634 -1.0820
  744MOL0     C 2539   5.070   5.900   0.191 -0.3080 -0.6992 -0.5233
  744MOL0     C 2540   4.966   5.811   0.174 -0.7194 -0.1448  0.4167
  744MOL0     C 2541   4.985   5.671   0.176  0.5788 -0.3684  0.5583
  744MOL0     O 2542   4.885   5.581   0.178 -0.1710 -0.6911 -0.0527
  744MOL0     C 2543   4.755   5.641   0.157 -0.7640 -0.1723  1.2673
  744MOL0     C 2544   4.693   5.702   0.282 -0.0490 -0.6077 -0.4347
  744MOL0     C 2545   4.711   5.592   0.390 -0.2301 -0.4336 -0.6801
  744MOL0     C 2546   4.583   5.565   0.485 -0.2498  0.4936 -0.8276
  744MOL0     C 2547   4.594   5.608   0.634  0.6611 -0.0534  0.5146
  744MOL0     C 2548   4.596   5.751   0.648  0.8193 -0.4570  0.0710
  744MOL0     C 2549   4.542   5.815   0.779  0.5921 -0.2342  0.5761
  744MOL0     C 2550   4.634   5.796   0.905  0.4734  0.5000 -0.0994
  744MOL0     N 2551   4.592   5.896   1.004  1.3260  0.7338 -0.1288
  744MOL0     C 2552   4.498   5.898   1.100  0.4313  0.2211 -0.9514
  744MOL0     C 2553   4.486   6.021   1.141  0.2577 -1.2355  0.0276
  744MOL0     C 2554   4.384   6.087   1.228 -0.1437  1.0193  0.4748
  744MOL0     C 2555   4.403   6.043   1.369  0.9003 -0.0782  0.5616
  744MOL0     C 2556   4.547   6.054   1.426  0.7512 -0.1003 -0.0555
  744MOL0     C 2557   4.542   6.074   1.579 -0.1027 -0.5863  0.4878
  744MOL0     O 2558   4.527   6.214   1.615  0.0926  0.7317 -0.4985
  744MOL0     C 2559   4.489   6.260   1.740  0.0836 -0.6487  0.3401
  744MOL0     C 2560   4.501   6.199   1.864 -0.8256 -0.1822  0.4319
  744MOL0     C 2561   4.446   6.252   1.985 -0.5057  0.2953 -0.3381
  744MOL0     C 2562   4.483   6.174   2.110 -0.3870 -0.0795  0.6776
  744MOL0     C 2563   4.363   6.364   1.987 -0.1703 -0.4414 -0.1713
  744MOL0     C 2564   4.289   6.410   2.109 -0.6496  0.8485 -0.2698
  744MOL0     O 2565   4.211   6.518   2.089  0.3206  0.2069 -0.4386
  744MOL0     C 2566   4.164   6.583   2.202  0.2957 -0.4169 -0.2857
  744MOL0     C 2567   4.246   6.656   2.284  0.0998 -0.3822 -0.8185
  744MOL0     C 2568   4.205   6.724   2.398 -0.0571 -0.1415  0.5513
  744MOL0     C 2569   4.073   6.723   2.429  0.1088  0.1913 -0.4250
  744MOL0     O 2570   4.037   6.808   2.532 -0.3270 -0.8284 -0.0341
  744MOL0     C 2571   3.906   6.866   2.525 -0.4840  0.1751  0.3498
  744MOL0     C 2572   3.918   7.017   2.527  0.2949  0.1905  0.3574
  744MOL0     C 2573   3.786   7.066   2.566  0.2771 -0.2517  0.0627
  744MOL0     C 2574   3.768   7.213   2.561 -0.1600 -0.0031 -0.4873
  744MOL0     C 2575   3.633   7.242   2.626  0.8355  0.4527  0.0488
  744MOL0     C 2576   3.586   7.388   2.653  0.6123  0.3906  0.2540
  744MOL0     C 2577   3.684   7.465   2.747  0.3267 -0.2359  0.5349
  744MOL0     C 2578   3.682   7.612   2.713  0.4265  0.4133 -0.1266
  744MOL0    Cl 2579   3.841   7.665   2.652 -0.3458  0.3786  0.4213
  744MOL0     C 2580   3.992   6.635   2.359 -0.1808 -0.9721 -0.3184
  744MOL0     C 2581   4.036   6.570   2.244  0.2302  0.0394  0.1657
  744MOL0     O 2582   4.302   6.350   2.222  0.3795 -0.0884  0.6726
  744MOL0     C 2583   4.345   6.423   1.857  0.6033 -0.0438 -0.9815
  744MOL0     C 2584   4.408   6.375   1.740 -0.0148 -1.1043 -0.2030
  744MOL0     N 2585   4.573   6.101   1.062 -0.6742  0.0824  0.8325
  744MOL0     N 2586   4.625   6.023   0.978 -0.3851 -0.0203 -0.8573
  744MOL0     C 2587   5.119   5.626   0.192 -0.1132  0.6108  0.0363
  744MOL0     C 2588   5.225   5.714   0.196 -0.3416 -0.2484 -0.3935
  744MOL0     C 2589   5.485   6.036   0.336  0.4673  0.2127  0.0923
  744MOL0     C 2590   5.538   6.083   0.213  0.3443 -0.6171 -0.4207
  744MOL0     C 2591   5.624   6.184   0.202 -0.7193  0.2378 -0.4915
  744MOL0     C 2592   5.669   6.244   0.318  0.3126 -1.3306  0.2808
  744MOL0     O 2593   5.748   6.350   0.286 -0.7039  0.2115 -0.2128
  744MOL0     C 2594   5.802   6.449   0.385  0.0476  0.2961  0.3209
  744MOL0     C 2595   5.918   6.405   0.468  0.3466 -0.1469 -0.0846
  744MOL0     C 2596   5.998   6.525   0.520 -1.0362 -0.0545 -0.4219
  744MOL0     C 2597   6.064   6.514   0.657 -0.7074  0.0970 -0.2014
  744MOL0     C 2598   5.976   6.539   0.775  0.0764 -0.3057  0.5514
  744MOL0     C 2599   5.897   6.556   0.864 -0.2848 -0.9011 -0.7456
  744MOL0     C 2600   5.625   6.208   0.439  0.2675  0.1348 -0.9525
  744MOL0     C 2601   5.531   6.104   0.454 -0.3971 -0.8014  0.0152
  744MOL0     C 2602   5.492   6.065   0.587  0.6968 -0.2758  0.6069
  744MOL0     H 2603   5.058   6.007   0.194  1.6961 -0.4589  1.0593
  744MOL0     H 2604   4.872   5.863   0.162  0.5458  2.7949  2.0469
  744MOL0     H 2605   4.691   5.557   0.130  0.7780 -1.3586  1.2263
  744MOL0     H 2606   4.763   5.704   0.068  0.4036 -1.3107  0.5336
  744MOL0     H 2607   4.750   5.789   0.315  1.0656 -1.7053  0.6417
  744MOL0     H 2608   4.590   5.732   0.263 -0.4976 -1.9258 -0.1569
  744MOL0     H 2609   4.723   5.492   0.349 -0.2684 -1.0468  0.7197
  744MOL0     H 2610   4.791   5.616   0.461  2.9066 -3.7303 -2.7484
  744MOL0     H 2611   4.499   5.625   0.449  1.7146  3.8363 -0.2345
  744MOL0     H 2612   4.555   5.459   0.479 -1.5249  0.7705 -0.0406
  744MOL0     H 2613   4.683   5.562   0.680  1.3794  0.1521 -0.6246
  744MOL0     H 2614   4.502   5.576   0.684  0.1643  1.6486  0.7409
  744MOL0     H 2615   4.696   5.793   0.637  0.0374  1.6183  0.3651
  744MOL0     H 2616   4.548   5.790   0.558 -0.0395  0.0475  0.7249
  744MOL0     H 2617   4.439   5.784   0.799 -0.2752  2.7813  1.1848
  744MOL0     H 2618   4.543   5.921   0.753 -0.6835 -0.5564 -0.9594
  744MOL0     H 2619   4.620   5.698   0.951 -0.1893  1.6630  2.3842
  744MOL0     H 2620   4.734   5.822   0.869 -0.3273 -0.5255 -3.3906
  744MOL0     H 2621   4.440   5.814   1.136  0.3729  0.8495  0.4480
  744MOL0     H 2622   4.280   6.063   1.203  1.0645 -3.6799 -0.9647
  744MOL0     H 2623   4.398   6.196   1.229  1.7793  0.8007  0.0705
  744MOL0     H 2624   4.334   6.108   1.424  0.9595  0.1096  0.4141
  744MOL0     H 2625   4.359   5.946   1.392  3.2980 -0.9619  1.7955
  744MOL0     H 2626   4.604   5.964   1.404  2.2258  1.0431 -1.1862
  744MOL0     H 2627   4.604   6.132   1.374  0.0461 -0.2661 -1.1055
  744MOL0     H 2628   4.460   6.012   1.616 -0.1013 -1.0776 -0.3195
  744MOL0     H 2629   4.632   6.035   1.626  1.8102  1.9842 -0.7978
  744MOL0     H 2630   4.559   6.108   1.868  1.3867  1.1757  1.5884
  744MOL0     H 2631   4.547   6.089   2.082 -1.7028 -0.8476 -0.1427
  744MOL0     H 2632   4.395   6.125   2.153  1.5448 -3.9214  0.7206
  744MOL0     H 2633   4.532   6.231   2.189  0.7760 -0.4248  0.2318
  744MOL0     H 2634   4.352   6.650   2.261  0.3581  1.6736 -0.3862
  744MOL0     H 2635   4.272   6.789   2.453 -0.2331  0.2490  0.3061
  744MOL0     H 2636   3.851   6.826   2.440  2.5105 -1.6337 -0.8935
  744MOL0     H 2637   3.852   6.831   2.614  0.8486  0.2053  1.1868
  744MOL0     H 2638   3.987   7.055   2.602  4.7199 -2.4238 -1.9771
  744MOL0     H 2639   3.947   7.053   2.428 -0.0418  0.8462  0.4961
  744MOL0     H 2640   3.753   7.019   2.659  1.1368  0.2186  0.6126
  744MOL0     H 2641   3.718   7.023   2.491  2.1329 -0.5841 -1.5111
  744MOL0     H 2642   3.775   7.245   2.457 -0.1284 -3.1574 -1.5481
  744MOL0     H 2643   3.848   7.268   2.612  0.2811 -0.5449 -0.5860
  744MOL0     H 2644   3.558   7.188   2.569  1.4721  0.4941 -0.8397
  744MOL0     H 2645   3.635   7.208   2.730  2.1680  3.5547  1.1699
  744MOL0     H 2646   3.489   7.413   2.697 -0.4377 -0.3729 -1.5063
  744MOL0     H 2647   3.560   7.418   2.551 -1.7185 -0.8178  0.4293
  744MOL0     H 2648   3.791   7.439   2.747  0.2571 -0.5595 -0.1885
  744MOL0     H 2649   3.648   7.444   2.848 -3.3542 -4.1884 -1.2906
  744MOL0     H 2650   3.661   7.668   2.805  2.1806 -0.3252  0.7704
  744MOL0     H 2651   3.612   7.636   2.632 -2.8019  1.4802  2.6944
  744MOL0     H 2652   3.894   6.611   2.400  0.2650  0.7170  1.8857
  744MOL0     H 2653   3.977   6.496   2.190  0.1710  0.9317 -1.0571
  744MOL0     H 2654   4.269   6.497   1.836  1.0169  0.3972 -0.9434
  744MOL0     H 2655   4.396   6.421   1.642 -0.7882 -0.9792 -0.0564
  744MOL0     H 2656   5.122   5.517   0.197  2.4113  0.6048 -0.4569
  744MOL0     H 2657   5.327   5.679   0.198 -0.0456  0.5671  2.3126
  744MOL0     H 2658   5.512   6.037   0.118 -2.8457 -1.2381  0.6371
  744MOL0     H 2659   5.673   6.213   0.109 -1.3122 -0.5273 -1.0584
  744MOL0     H 2660   5.832   6.538   0.328  0.9413 -0.5319 -0.5355
  744MOL0     H 2661   5.721   6.485   0.448 -0.9446  0.2724 -0.9092
  744MOL0     H 2662   5.972   6.326   0.415  0.8660 -0.2868  0.6392
  744MOL0     H 2663   5.864   6.364   0.554  0.4289  2.6780  1.4345
  744MOL0     H 2664   6.076   6.540   0.444  0.4079  0.8261  1.1537
  744MOL0     H 2665   5.932   6.612   0.523  0.2988  1.0545  3.8568
  744MOL0     H 2666   6.145   6.587   0.644 -0.5655  0.3360  1.7716
  744MOL0     H 2667   6.108   6.415   0.672  0.9960  0.6600 -1.1315
  744MOL0     H 2668   5.827   6.564   0.945  0.8708 -2.2118  0.4241
  744MOL0     H 2669   5.662   6.253   0.531  0.0215  2.2618 -1.8349
  744MOL0     H 2670   5.535   5.965   0.597 -0.6554 -1.1840 -1.7267
  744MOL0     H 2671   5.537   6.130   0.662  4.7638 -4.0569  1.8278
  744MOL0     H 2672   5.383   6.076   0.598  0.8909 -0.6116  3.5354
  745MOL0     O 2673   8.183   3.308   0.482 -0.4274 -0.7418 -0.3702
  745MOL0     C 2674   8.299   3.278   0.524 -0.6436 -0.6717 -0.1164
  745MOL0     O 2675   8.384   3.195   0.455  0.1712  0.1726 -0.1158
  745MOL0     C 2676   8.344   3.150   0.333  0.1266 -0.3797  0.5935
  745MOL0     C 2677   8.244   3.054   0.316  0.4322  0.5592  0.7186
  745MOL0     C 2678   8.208   3.016   0.177  0.8314  0.0428  0.3929
  745MOL0     C 2679   8.252   3.084   0.065  0.9522 -0.8095  0.0272
  745MOL0     O 2680   8.224   3.037  -0.064 -1.0134 -0.4126 -0.5121
  745MOL0     C 2681   8.098   3.086  -0.108  0.0658  0.7868 -0.2133
  745MOL0     C 2682   8.127   3.106  -0.250  0.4345 -0.0773 -0.7081
  745MOL0     C 2683   8.225   3.227  -0.266 -0.8030  0.3254  0.2507
  745MOL0     C 2684   8.256   3.242  -0.416 -0.0831 -0.3251  0.6563
  745MOL0     C 2685   8.350   3.359  -0.438 -0.1606  0.1771 -0.4273
  745MOL0     C 2686   8.494   3.324  -0.429  0.5482 -0.9892 -0.4525
  745MOL0     C 2687   8.588   3.440  -0.469 -0.3503 -0.3344  0.2560
  745MOL0     C 2688   8.602   3.441  -0.622  0.3470  0.5458 -0.7851
  745MOL0     N 2689   8.712   3.521  -0.669  0.9274 -0.4907  0.2702
  745MOL0     C 2690   8.710   3.580  -0.798  0.3888  0.5284  0.5491
  745MOL0     C 2691   8.808   3.666  -0.794 -0.2836 -0.8006  0.4351
  745MOL0     C 2692   8.863   3.744  -0.908 -0.6422  0.9260  0.5890
  745MOL0     C 2693   8.830   3.889  -0.885  1.0074 -0.4017 -0.4894
  745MOL0     C 2694   8.882   3.970  -1.003 -0.3129  0.4917 -0.3058
  745MOL0     C 2695   8.903   4.116  -0.970 -0.1900 -0.2908  0.5592
  745MOL0     O 2696   8.917   4.208  -1.082  0.4141  0.7516 -0.4283
  745MOL0     C 2697   8.963   4.335  -1.059 -0.1138 -1.0603  0.7297
  745MOL0     C 2698   9.009   4.389  -0.937 -0.7676 -0.9106 -0.5439
  745MOL0     C 2699   9.062   4.518  -0.924  0.2593  0.3049  0.2032
  745MOL0     C 2700   9.098   4.561  -0.788  0.7319 -0.1711  0.1401
  745MOL0     C 2701   9.079   4.594  -1.040 -0.0124 -0.8065 -0.2807
  745MOL0     C 2702   9.135   4.728  -1.041 -0.4311 -0.0554 -0.1422
  745MOL0     O 2703   9.104   4.802  -1.148 -0.2142  0.1447  0.8598
  745MOL0     C 2704   9.165   4.928  -1.167 -1.0560 -0.1584  0.4858
  745MOL0     C 2705   9.303   4.954  -1.152 -0.2885 -0.0419  0.6417
  745MOL0     C 2706   9.362   5.081  -1.172  0.8117  0.3083 -0.2028
  745MOL0     C 2707   9.279   5.186  -1.224 -0.1986  0.9519  0.1639
  745MOL0     O 2708   9.328   5.313  -1.253  0.9404  0.2372  0.5703
  745MOL0     C 2709   9.463   5.341  -1.240 -0.1105 -0.0957  0.3704
  745MOL0     C 2710   9.484   5.500  -1.247 -0.2307  0.2463 -0.2201
  745MOL0     C 2711   9.638   5.546  -1.248  0.2521  0.2068 -0.6545
  745MOL0     C 2712   9.734   5.464  -1.155 -0.0793 -0.2910 -0.3439
  745MOL0     C 2713   9.871   5.534  -1.154 -1.1518 -0.3361  0.1008
  745MOL0     C 2714   9.984   5.445  -1.081 -0.0116  0.2202 -0.0311
  745MOL0     C 2715   9.970   5.449  -0.933  0.6702  0.1652 -0.2389
  745MOL0     C 2716  10.082   5.389  -0.856 -0.4097  0.8038  0.5429
  745MOL0    Cl 2717  10.221   5.493  -0.842  0.3015 -0.3398  0.3638
  745MOL0     C 2718   9.146   5.152  -1.242 -0.6828 -0.2460  0.5699
  745MOL0     C 2719   9.087   5.028  -1.217 -0.2207  0.0917 -0.1049
  745MOL0     O 2720   9.202   4.777  -0.945 -0.0760  0.5178 -0.2336
  745MOL0     C 2721   9.040   4.544  -1.159 -0.1553  0.2579  0.6178
  745MOL0     C 2722   8.987   4.412  -1.171 -0.3857 -0.3007 -0.2718
  745MOL0     N 2723   8.882   3.661  -0.680 -0.7346  0.3965 -0.1761
  745MOL0     N 2724   8.818   3.573  -0.596 -0.0728 -0.7097 -0.0044
  745MOL0     C 2725   8.351   3.183   0.092  0.4917  0.3385  0.3807
  745MOL0     C 2726   8.401   3.204   0.221 -0.8163  0.7740 -0.6463
  745MOL0     C 2727   8.356   3.333   0.644  0.2798  0.4066  0.3474
  745MOL0     C 2728   8.438   3.258   0.724 -0.6980 -0.1366 -1.2317
  745MOL0     C 2729   8.482   3.302   0.850 -0.1191 -1.3072  0.4006
  745MOL0     C 2730   8.433   3.420   0.903  0.4773  0.3527  1.4838
  745MOL0     O 2731   8.478   3.478   1.018  0.2883 -0.4230  0.2106
  745MOL0     C 2732   8.571   3.413   1.096 -0.0989 -0.2328 -0.0461
  745MOL0     C 2733   8.506   3.304   1.185 -0.3154  0.3666 -0.1209
  745MOL0     C 2734   8.583   3.307   1.318 -0.0748  0.1327 -0.4132
  745MOL0     C 2735   8.502   3.236   1.428 -0.4751 -0.2379  0.6727
  745MOL0     C 2736   8.492   3.091   1.390 -0.5567  0.2345 -0.7851
  745MOL0     C 2737   8.488   2.975   1.377  0.0309  0.5105 -0.0560
  745MOL0     C 2738   8.349   3.496   0.824  0.0317 -0.5011  0.2926
  745MOL0     C 2739   8.304   3.458   0.696  0.7846 -0.5457  0.3823
  745MOL0     C 2740   8.181   3.536   0.639 -0.7698  0.2695  0.0845
  745MOL0     H 2741   8.199   2.995   0.395  0.2738 -0.4457 -0.0986
  745MOL0     H 2742   8.134   2.939   0.157  1.7404 -0.5540 -0.8094
  745MOL0     H 2743   8.058   3.175  -0.058 -1.3977 -0.1216  0.2956
  745MOL0     H 2744   8.020   3.010  -0.102 -1.9531  2.7912  0.1104
  745MOL0     H 2745   8.169   3.011  -0.282  2.0069  0.6838 -1.0216
  745MOL0     H 2746   8.030   3.120  -0.299 -1.3221 -1.9519  2.0013
  745MOL0     H 2747   8.176   3.318  -0.230  0.2905  1.2705 -0.5909
  745MOL0     H 2748   8.318   3.216  -0.210 -0.4552  0.0053 -0.3704
  745MOL0     H 2749   8.290   3.146  -0.455 -1.9414 -0.8934  0.3223
  745MOL0     H 2750   8.158   3.262  -0.460 -1.4310 -0.5408  3.3673
  745MOL0     H 2751   8.324   3.436  -0.365 -1.0880 -0.1441 -0.4021
  745MOL0     H 2752   8.329   3.407  -0.534 -0.7866  4.1342  1.5087
  745MOL0     H 2753   8.514   3.289  -0.327 -0.0752  0.1817  0.0991
  745MOL0     H 2754   8.519   3.237  -0.490  2.3840 -1.3317  0.7067
  745MOL0     H 2755   8.681   3.410  -0.420  0.7188 -3.1884 -3.0533
  745MOL0     H 2756   8.562   3.539  -0.432 -2.8810 -1.4014  1.6078
  745MOL0     H 2757   8.632   3.338  -0.646 -0.0200  0.5575 -1.3226
  745MOL0     H 2758   8.514   3.477  -0.676  0.3147 -2.1544 -2.7750
  745MOL0     H 2759   8.652   3.571  -0.889 -0.5194 -1.1346  1.2374
  745MOL0     H 2760   8.818   3.700  -0.998  1.7106  1.9817 -1.2115
  745MOL0     H 2761   8.968   3.729  -0.931 -0.5693  0.2418  1.3375
  745MOL0     H 2762   8.722   3.902  -0.898  1.1379  2.3789  0.5898
  745MOL0     H 2763   8.857   3.933  -0.788 -0.1585 -2.5770  0.9052
  745MOL0     H 2764   8.982   3.932  -1.027  0.2270  0.7847  1.3527
  745MOL0     H 2765   8.825   3.964  -1.097 -0.9211 -1.3928  0.1320
  745MOL0     H 2766   8.813   4.146  -0.916 -1.1055 -1.8177 -0.0407
  745MOL0     H 2767   8.980   4.134  -0.895  0.5336 -0.2216 -0.1938
  745MOL0     H 2768   9.008   4.334  -0.844  4.7782 -1.8349 -0.7023
  745MOL0     H 2769   9.066   4.663  -0.766  0.5199 -0.3857  0.8307
  745MOL0     H 2770   9.204   4.554  -0.762  0.3320 -0.4099  1.8369
  745MOL0     H 2771   9.046   4.500  -0.714 -0.2434  2.1050  1.4125
  745MOL0     H 2772   9.373   4.874  -1.130 -2.3418 -1.9892  0.3571
  745MOL0     H 2773   9.467   5.080  -1.141  0.2196 -2.6836  2.1786
  745MOL0     H 2774   9.503   5.299  -1.147  3.3773 -0.9199 -1.3188
  745MOL0     H 2775   9.522   5.291  -1.318  0.8202 -0.5496  1.3307
  745MOL0     H 2776   9.445   5.526  -1.346 -0.3057  0.3461 -0.1637
  745MOL0     H 2777   9.432   5.558  -1.171  0.3522  1.9510 -1.0737
  745MOL0     H 2778   9.655   5.649  -1.216  1.1287 -0.6304  1.8261
  745MOL0     H 2779   9.672   5.540  -1.352  0.4243  2.9808 -0.8472
  745MOL0     H 2780   9.744   5.368  -1.207 -2.2404  0.0270 -1.4403
  745MOL0     H 2781   9.682   5.439  -1.063  0.0390 -1.7171 -0.6324
  745MOL0     H 2782   9.910   5.561  -1.253  4.4999 -4.7792  0.5664
  745MOL0     H 2783   9.856   5.629  -1.103 -0.6715  0.0762 -0.5049
  745MOL0     H 2784  10.082   5.480  -1.114  0.3825 -1.7372 -1.0873
  745MOL0     H 2785   9.993   5.344  -1.121 -0.1302  0.6676 -1.2633
  745MOL0     H 2786   9.879   5.398  -0.900  2.0678 -1.5689  1.1277
  745MOL0     H 2787   9.949   5.554  -0.911 -2.7734  0.1807 -2.6869
  745MOL0     H 2788  10.122   5.299  -0.903  2.2241  1.6242  1.0496
  745MOL0     H 2789  10.038   5.368  -0.758  1.3020  0.8090  1.3373
  745MOL0     H 2790   9.087   5.234  -1.282  1.8946  0.9110 -1.1579
  745MOL0     H 2791   8.984   5.008  -1.245 -0.1446 -0.5397  0.0472
  745MOL0     H 2792   9.043   4.609  -1.245  0.0223 -0.3011  0.1955
  745MOL0     H 2793   8.962   4.376  -1.270  1.3115  1.4919 -1.4195
  745MOL0     H 2794   8.388   3.239   0.007  3.0150  0.9048  1.7604
  745MOL0     H 2795   8.478   3.277   0.244 -0.0306 -0.7436  1.9809
  745MOL0     H 2796   8.468   3.162   0.683 -3.5466 -1.4880 -0.4051
  745MOL0     H 2797   8.558   3.243   0.899  2.4145  1.0547 -0.4188
  745MOL0     H 2798   8.653   3.372   1.036  0.3233  0.4259  0.0750
  745MOL0     H 2799   8.615   3.490   1.160  2.3932 -0.6843 -1.0997
  745MOL0     H 2800   8.502   3.207   1.133 -1.5711 -0.7421  1.8855
  745MOL0     H 2801   8.403   3.331   1.207 -0.3937 -2.7420  5.0003
  745MOL0     H 2802   8.687   3.275   1.319 -0.1286 -0.4922  3.8210
  745MOL0     H 2803   8.575   3.415   1.336  0.4774  0.0910  0.0949
  745MOL0     H 2804   8.407   3.291   1.433  1.4758  3.4067  3.6693
  745MOL0     H 2805   8.566   3.246   1.517  0.9792  2.7170 -0.5699
  745MOL0     H 2806   8.482   2.869   1.361 -0.8128  0.5389  0.0168
  745MOL0     H 2807   8.307   3.585   0.871  0.2310 -0.2064 -0.0878
  745MOL0     H 2808   8.086   3.482   0.647 -1.5435  1.0303 -2.8002
  745MOL0     H 2809   8.170   3.626   0.700  0.8048  1.0515 -0.7249
  745MOL0     H 2810   8.194   3.564   0.534  0.8066 -1.9437 -0.3884
  746MOL0     O 2811  11.437   9.984  10.230  0.6639 -0.8813  0.0159
  746MOL0     C 2812  11.527  10.036  10.298 -0.4624  0.2648  0.3395
  746MOL0     O 2813  11.655  10.060  10.252 -0.3647 -0.5136  0.0345
  746MOL0     C 2814  11.729   9.974  10.167  0.2231  0.3965  0.5019
  746MOL0     C 2815  11.684   9.854  10.110  0.7813  0.2234 -0.1352
  746MOL0     C 2816  11.759   9.775  10.032  1.5395  0.7328 -0.2790
  746MOL0     C 2817  11.892   9.803  10.012  0.7113  0.0628  0.4642
  746MOL0     O 2818  11.982   9.728   9.955  0.0544 -0.0438  1.1923
  746MOL0     C 2819  11.980   9.597   9.985  0.3229  0.8590  0.9683
  746MOL0     C 2820  12.115   9.547   9.953 -0.0265 -0.3529 -0.0797
  746MOL0     C 2821  12.116   9.393   9.982  0.5984  0.1053  0.7158
  746MOL0     C 2822  12.239   9.309   9.950  0.1558  0.8684 -0.0988
  746MOL0     C 2823  12.271   9.293   9.805 -0.6867 -0.3949 -0.7381
  746MOL0     C 2824  12.389   9.199   9.770  0.6240 -0.4509 -0.4076
  746MOL0     C 2825  12.521   9.256   9.829  0.3729  0.5158  0.0757
  746MOL0     C 2826  12.644   9.169   9.818 -0.2493 -0.0660  1.2283
  746MOL0     N 2827  12.763   9.222   9.879 -1.1857  0.0703  0.7791
  746MOL0     C 2828  12.781   9.206  10.009 -1.3265  0.9249  0.3469
  746MOL0     C 2829  12.876   9.301  10.035  0.1790  0.2089  0.1887
  746MOL0     C 2830  12.928   9.316  10.175 -0.6500 -0.3699 -0.5914
  746MOL0     C 2831  13.067   9.252  10.201  0.5512 -0.1015 -0.8350
  746MOL0     C 2832  13.064   9.100  10.227  0.3334 -1.0952 -0.2274
  746MOL0     C 2833  13.208   9.046  10.206 -0.6376 -0.0756 -0.4438
  746MOL0     O 2834  13.286   9.120  10.300  0.0190  0.2329  0.0390
  746MOL0     C 2835  13.338   9.060  10.407 -0.1763  0.2680 -0.3939
  746MOL0     C 2836  13.316   8.927  10.459 -0.3947 -0.0933 -0.2853
  746MOL0     C 2837  13.391   8.891  10.573  0.0906  0.2965  0.5716
  746MOL0     C 2838  13.354   8.758  10.638  0.0015  0.6487 -0.3286
  746MOL0     C 2839  13.499   8.975  10.626  0.6449  0.2848 -0.4286
  746MOL0     C 2840  13.602   8.925  10.731  0.1871  0.1895  0.6748
  746MOL0     O 2841  13.711   9.009  10.746  0.2916 -0.0715  0.1085
  746MOL0     C 2842  13.819   8.947  10.808 -0.1825  0.4615 -0.0249
  746MOL0     C 2843  13.839   8.970  10.944 -0.3523 -0.4384 -0.4027
  746MOL0     C 2844  13.957   8.915  10.988  0.8752  0.7529 -0.0113
  746MOL0     C 2845  14.051   8.852  10.910 -1.2400 -0.0874  0.0928
  746MOL0     O 2846  14.180   8.819  10.954 -0.0169 -0.0008  0.4535
  746MOL0     C 2847  14.265   8.938  10.994  0.8457  0.5008  0.5375
  746MOL0     C 2848  14.286   8.949  11.144  0.2891 -0.4954  0.2493
  746MOL0     C 2849  14.282   8.814  11.217 -0.3362 -0.7524 -0.5399
  746MOL0     C 2850  14.359   8.821  11.348 -0.2725  0.0766  0.2391
  746MOL0     C 2851  14.333   8.708  11.448  1.3809  0.3752 -0.2661
  746MOL0     C 2852  14.190   8.706  11.505  0.3351 -0.7003  0.7993
  746MOL0     C 2853  14.178   8.613  11.624 -0.0821  0.5021  0.9536
  746MOL0     C 2854  14.038   8.578  11.664  0.7501 -0.1429  1.0388
  746MOL0    Cl 2855  14.026   8.413  11.714  0.9948 -0.2513 -0.1149
  746MOL0     C 2856  14.021   8.822  10.779 -0.8829  0.0429  0.6288
  746MOL0     C 2857  13.900   8.870  10.727 -0.5306 -0.6633 -0.0963
  746MOL0     O 2858  13.588   8.812  10.783 -0.1015  0.3902  0.5240
  746MOL0     C 2859  13.506   9.111  10.571  0.4483  0.6911 -0.2590
  746MOL0     C 2860  13.424   9.153  10.468 -0.5821  0.3179  0.2833
  746MOL0     N 2861  12.916   9.361   9.912 -0.3043 -0.1780 -0.0491
  746MOL0     N 2862  12.836   9.326   9.820  0.4552  0.3476  0.4886
  746MOL0     C 2863  11.934   9.924  10.062 -1.2167  0.3724 -0.1820
  746MOL0     C 2864  11.855  10.013  10.141  0.0937  0.6149  0.2487
  746MOL0     C 2865  11.516  10.075  10.439 -0.8363 -0.8371 -0.5346
  746MOL0     C 2866  11.390  10.116  10.479 -0.2163 -0.7019  0.6316
  746MOL0     C 2867  11.366  10.147  10.610  0.9512  0.7277 -0.0023
  746MOL0     C 2868  11.459  10.158  10.703  0.1833 -0.5825 -0.6171
  746MOL0     O 2869  11.430  10.204  10.831  0.1011 -1.2804  0.3460
  746MOL0     C 2870  11.546  10.256  10.905 -0.5159  0.2046  0.4809
  746MOL0     C 2871  11.480  10.334  11.014  0.5199 -1.0417 -0.1236
  746MOL0     C 2872  11.594  10.356  11.124 -0.2885 -1.0152  0.0443
  746MOL0     C 2873  11.567  10.473  11.229 -0.5480 -0.0519  0.6266
  746MOL0     C 2874  11.511  10.603  11.169  0.0076  0.1644  0.3812
  746MOL0     C 2875  11.478  10.713  11.118  0.9255  1.0876  0.2402
  746MOL0     C 2876  11.585  10.124  10.657  0.1691 -0.0438  0.1687
  746MOL0     C 2877  11.623  10.075  10.533 -0.0993 -0.2314  0.7127
  746MOL0     C 2878  11.769  10.019  10.518 -0.4270  0.7223  0.0208
  746MOL0     H 2879  11.587   9.809  10.131  1.9510 -1.3152  2.3379
  746MOL0     H 2880  11.716   9.682   9.998  1.8233  0.7297 -0.6297
  746MOL0     H 2881  11.907   9.549   9.920  0.8961  3.1202 -1.5251
  746MOL0     H 2882  11.969   9.562  10.088  1.0154 -2.5862 -0.0266
  746MOL0     H 2883  12.149   9.568   9.851  2.5813 -2.1816  0.3354
  746MOL0     H 2884  12.194   9.579  10.021  1.2905 -2.6689 -0.4295
  746MOL0     H 2885  12.094   9.372  10.087  2.1802 -2.1164  0.6731
  746MOL0     H 2886  12.040   9.343   9.922  2.3788 -2.0907  0.1660
  746MOL0     H 2887  12.319   9.344  10.015  1.9139 -1.8595 -0.6441
  746MOL0     H 2888  12.224   9.203   9.975 -0.7240  0.5565 -1.7742
  746MOL0     H 2889  12.304   9.396   9.783 -3.6636  0.8725  0.2539
  746MOL0     H 2890  12.187   9.272   9.739 -0.5987 -1.2569 -0.5770
  746MOL0     H 2891  12.379   9.093   9.793  0.7618 -0.9886 -2.6117
  746MOL0     H 2892  12.399   9.199   9.661 -3.0169  0.0481 -0.8766
  746MOL0     H 2893  12.515   9.284   9.934 -0.1110  1.6583 -0.2490
  746MOL0     H 2894  12.543   9.347   9.773 -0.2029  0.2183 -0.6582
  746MOL0     H 2895  12.623   9.073   9.868  0.9198 -0.5597  0.8047
  746MOL0     H 2896  12.666   9.137   9.716  0.5811  2.0153  0.7263
  746MOL0     H 2897  12.726   9.158  10.090  0.4774 -1.2767  0.3588
  746MOL0     H 2898  12.856   9.272  10.245 -3.3210 -0.3300 -3.1327
  746MOL0     H 2899  12.933   9.422  10.203  0.3315 -0.3989 -0.6460
  746MOL0     H 2900  13.125   9.250  10.108  0.4546  0.0463 -0.8992
  746MOL0     H 2901  13.116   9.303  10.284 -1.9267 -0.2797  0.8479
  746MOL0     H 2902  13.037   9.090  10.332  0.1543  1.6444  0.0500
  746MOL0     H 2903  12.989   9.051  10.164 -1.4929  0.1579  0.8923
  746MOL0     H 2904  13.219   8.938  10.213 -4.8937 -0.7840 -1.9303
  746MOL0     H 2905  13.243   9.069  10.105 -0.4568 -2.5652 -0.9933
  746MOL0     H 2906  13.234   8.865  10.423 -1.7543  2.4802 -1.8357
  746MOL0     H 2907  13.354   8.781  10.745  1.5931  1.1430 -0.4132
  746MOL0     H 2908  13.437   8.692  10.610 -1.5155 -0.8245 -1.5462
  746MOL0     H 2909  13.270   8.702  10.596 -1.0647  1.5347  0.5354
  746MOL0     H 2910  13.766   9.019  11.007 -1.8691 -2.6438 -0.3403
  746MOL0     H 2911  13.974   8.922  11.094 -1.2347  0.6971  0.3827
  746MOL0     H 2912  14.366   8.910  10.960  0.7195 -1.6391  1.7349
  746MOL0     H 2913  14.219   9.030  10.957 -1.8383 -0.5747  1.0079
  746MOL0     H 2914  14.377   9.007  11.161 -0.2964 -0.0053  1.9546
  746MOL0     H 2915  14.206   9.017  11.175  0.4984 -0.0384 -0.2002
  746MOL0     H 2916  14.329   8.737  11.155 -0.1438 -2.1659  1.2658
  746MOL0     H 2917  14.180   8.794  11.250 -0.4718  1.1624  0.3560
  746MOL0     H 2918  14.323   8.913  11.395  0.2440 -0.6486  2.1553
  746MOL0     H 2919  14.463   8.847  11.330 -1.3329  2.9618 -2.7067
  746MOL0     H 2920  14.349   8.614  11.395 -1.0683 -0.0553 -0.3259
  746MOL0     H 2921  14.387   8.708  11.544 -1.9718 -2.0963  1.8570
  746MOL0     H 2922  14.129   8.676  11.420  2.0285 -0.5025 -0.5381
  746MOL0     H 2923  14.166   8.806  11.540  0.9543 -0.2436 -0.0360
  746MOL0     H 2924  14.246   8.647  11.702  2.1377 -0.8206 -0.3185
  746MOL0     H 2925  14.219   8.521  11.582  0.7335  2.8008 -4.0854
  746MOL0     H 2926  13.953   8.595  11.597  1.0421  2.5658  1.2316
  746MOL0     H 2927  14.017   8.647  11.746  0.2317  0.5717  0.3294
  746MOL0     H 2928  14.089   8.768  10.715 -0.6861  2.5224 -1.4175
  746MOL0     H 2929  13.875   8.856  10.622  1.3716 -0.0612 -0.6658
  746MOL0     H 2930  13.592   9.169  10.603  2.0713 -2.2938  1.2190
  746MOL0     H 2931  13.429   9.254  10.428 -1.5010  0.6572  1.0058
  746MOL0     H 2932  12.039   9.945  10.040 -1.4260  0.5529 -1.0490
  746MOL0     H 2933  11.890  10.109  10.178  1.3118  0.6435 -0.8954
  746MOL0     H 2934  11.311  10.120  10.405  1.8739  3.8217 -1.8007
  746MOL0     H 2935  11.266  10.181  10.632  0.1759 -1.2533 -0.2396
  746MOL0     H 2936  11.584  10.162  10.946  0.2966  0.5636  0.5661
  746MOL0     H 2937  11.626  10.315  10.860  1.1792  0.2210  3.2876
  746MOL0     H 2938  11.406  10.270  11.064 -0.0684 -0.1806  0.1396
  746MOL0     H 2939  11.439  10.429  10.979  0.1722 -0.3069  2.0782
  746MOL0     H 2940  11.628  10.269  11.181  0.3520 -1.1672 -0.5563
  746MOL0     H 2941  11.689  10.389  11.082  0.4605  0.2231  2.5421
  746MOL0     H 2942  11.660  10.500  11.280 -0.3374  2.7257 -1.0705
  746MOL0     H 2943  11.492  10.429  11.295 -3.0323  0.7261 -1.5251
  746MOL0     H 2944  11.434  10.802  11.077 -0.3874 -0.3533 -1.6249
  746MOL0     H 2945  11.663  10.136  10.731 -2.1791 -1.4727  3.1133
  746MOL0     H 2946  11.809  10.086  10.441 -3.4883  2.2018 -0.4352
  746MOL0     H 2947  11.821  10.026  10.614 -2.0353 -1.6838  1.1558
  746MOL0     H 2948  11.760   9.912  10.496  0.5456 -0.0465  2.9375
  747MOL0     O 2949   8.954  10.704   1.545  0.0426  0.0223 -0.3021
  747MOL0     C 2950   8.961  10.824   1.580 -0.1505 -0.2067  0.5025
  747MOL0     O 2951   8.899  10.930   1.515 -0.4828  0.1558  0.2180
  747MOL0     C 2952   8.779  10.917   1.444  0.5983 -1.3261  0.1556
  747MOL0     C 2953   8.677  10.833   1.484 -0.2549  0.2070  0.6277
  747MOL0     C 2954   8.550  10.841   1.429 -0.4019  1.5072 -0.1240
  747MOL0     C 2955   8.519  10.949   1.344 -0.3479 -0.2078  0.2413
  747MOL0     O 2956   8.388  10.954   1.314  0.5873  0.3727 -0.5171
  747MOL0     C 2957   8.332  11.080   1.273  0.1128  0.7875  0.3250
  747MOL0     C 2958   8.333  11.188   1.382 -1.1112 -0.8073 -0.1341
  747MOL0     C 2959   8.276  11.151   1.523  0.8905 -0.1269 -0.4728
  747MOL0     C 2960   8.149  11.066   1.524 -0.5971 -0.5112 -0.7200
  747MOL0     C 2961   8.086  11.044   1.666 -0.3071  0.0792  0.1781
  747MOL0     C 2962   7.973  10.943   1.670 -0.0422  0.3550 -0.0958
  747MOL0     C 2963   7.957  10.865   1.803 -0.4852  0.7374  0.4727
  747MOL0     C 2964   7.938  10.948   1.924  0.3325 -0.3050  0.3227
  747MOL0     N 2965   7.802  11.005   1.912  0.9523 -0.2602  0.5353
  747MOL0     C 2966   7.774  11.141   1.873 -0.0189  0.0262 -0.3671
  747MOL0     C 2967   7.638  11.135   1.851  0.3463  0.1739 -0.3520
  747MOL0     C 2968   7.559  11.248   1.786  0.1412 -0.2321 -0.6780
  747MOL0     C 2969   7.416  11.197   1.749  0.0597 -0.3621 -0.3341
  747MOL0     C 2970   7.336  11.311   1.684  0.2572 -0.2198  0.5316
  747MOL0     C 2971   7.221  11.255   1.608  0.5568 -0.3503  0.0565
  747MOL0     O 2972   7.124  11.219   1.702  0.5547 -0.5986  0.4520
  747MOL0     C 2973   7.011  11.162   1.646  0.5935  0.0055  0.1248
  747MOL0     C 2974   6.968  11.162   1.512 -0.1255 -0.0736 -0.6556
  747MOL0     C 2975   6.845  11.092   1.471  0.7986  0.3192 -0.6589
  747MOL0     C 2976   6.814  11.099   1.324  0.8248 -0.3477 -0.0691
  747MOL0     C 2977   6.755  11.030   1.567 -0.5969 -0.2360 -1.0909
  747MOL0     C 2978   6.611  10.974   1.549  0.1139  0.9992 -0.4011
  747MOL0     O 2979   6.517  10.976   1.655 -0.1624 -0.7068  0.6404
  747MOL0     C 2980   6.407  10.892   1.631 -0.1978  0.1644  0.2003
  747MOL0     C 2981   6.397  10.769   1.693  0.1986 -0.4720 -0.1344
  747MOL0     C 2982   6.276  10.698   1.697 -0.5595  0.0765  0.2995
  747MOL0     C 2983   6.168  10.734   1.620 -0.3048 -0.4385  0.0663
  747MOL0     O 2984   6.049  10.660   1.622 -0.3072  0.2409 -0.8908
  747MOL0     C 2985   5.960  10.669   1.506  0.7870  0.4227  0.0194
  747MOL0     C 2986   5.832  10.746   1.536  0.9065 -0.7432  0.3305
  747MOL0     C 2987   5.740  10.745   1.412  0.1259 -0.6876  0.2452
  747MOL0     C 2988   5.788  10.847   1.303 -0.6410  0.9717 -0.1394
  747MOL0     C 2989   5.721  10.839   1.165  0.6858 -0.3836 -0.4291
  747MOL0     C 2990   5.727  10.697   1.110 -0.3944  0.4145  1.0248
  747MOL0     C 2991   5.649  10.685   0.978 -0.3092  0.2351 -0.3710
  747MOL0     C 2992   5.650  10.540   0.920 -0.4588  0.2135  0.1120
  747MOL0    Cl 2993   5.574  10.419   1.031 -0.2438 -0.3612 -0.3133
  747MOL0     C 2994   6.171  10.855   1.544 -0.4282 -1.0451 -1.3659
  747MOL0     C 2995   6.291  10.932   1.556 -0.0633 -0.5017  0.1269
  747MOL0     O 2996   6.583  10.935   1.440 -0.4018 -0.2246 -0.5685
  747MOL0     C 2997   6.792  11.034   1.702  0.9175  0.4469 -0.9026
  747MOL0     C 2998   6.913  11.103   1.738 -0.3571 -0.1127  0.1435
  747MOL0     N 2999   7.592  11.004   1.887  0.4692 -0.6115  1.1855
  747MOL0     N 3000   7.687  10.928   1.922 -0.4682  0.1081  0.2217
  747MOL0     C 3001   8.622  11.029   1.292 -0.4841 -0.8693 -0.4711
  747MOL0     C 3002   8.750  10.998   1.334 -0.0016 -0.3314  0.4881
  747MOL0     C 3003   9.075  10.859   1.669  0.3245 -0.8480 -0.7860
  747MOL0     C 3004   9.155  10.964   1.624 -0.6563 -0.7524 -0.3192
  747MOL0     C 3005   9.271  10.995   1.695  0.4120 -0.0617  0.0295
  747MOL0     C 3006   9.303  10.919   1.809 -0.2993 -0.9277  0.5432
  747MOL0     O 3007   9.403  10.952   1.900 -0.2143  0.3318 -0.8525
  747MOL0     C 3008   9.384  11.074   1.964 -0.2688 -0.0373  0.3740
  747MOL0     C 3009   9.417  11.059   2.120  0.3363  0.0266 -0.2435
  747MOL0     C 3010   9.354  11.174   2.213 -0.3824 -0.1069 -0.0248
  747MOL0     C 3011   9.411  11.303   2.176  0.0030  1.3162  0.2605
  747MOL0     C 3012   9.377  11.412   2.268  0.5065  0.6815 -0.1147
  747MOL0     C 3013   9.369  11.491   2.353 -0.1351  0.2992 -0.8168
  747MOL0     C 3014   9.211  10.833   1.866  0.1730  0.6726 -0.6985
  747MOL0     C 3015   9.092  10.805   1.792 -0.4508  0.0027  0.0967
  747MOL0     C 3016   8.984  10.716   1.838 -0.1627 -0.2927  0.3144
  747MOL0     H 3017   8.678  10.764   1.568 -1.4466  1.8197  2.0684
  747MOL0     H 3018   8.476  10.770   1.466 -0.3411  1.2627 -0.4634
  747MOL0     H 3019   8.225  11.060   1.266  0.1225  0.7421  0.2937
  747MOL0     H 3020   8.366  11.117   1.175  1.8104  0.2823  0.6761
  747MOL0     H 3021   8.436  11.218   1.402 -0.8903 -1.9695  0.5078
  747MOL0     H 3022   8.280  11.279   1.351  0.8605  0.8255  1.0473
  747MOL0     H 3023   8.357  11.092   1.568  1.2548  1.6283  1.3007
  747MOL0     H 3024   8.260  11.235   1.591 -1.1937 -1.0402  0.2498
  747MOL0     H 3025   8.079  11.099   1.446 -1.6867 -0.1522  0.3765
  747MOL0     H 3026   8.180  10.968   1.485 -0.0547 -1.5761  2.1097
  747MOL0     H 3027   8.050  11.137   1.709  0.8625  0.6953 -0.1101
  747MOL0     H 3028   8.167  11.009   1.731  2.0661 -1.2254 -3.1870
  747MOL0     H 3029   7.878  10.993   1.652 -0.5725 -0.2174  1.0426
  747MOL0     H 3030   8.011  10.866   1.601  0.8769  0.1035  0.6625
  747MOL0     H 3031   8.047  10.807   1.821 -0.5723  0.7890  1.1252
  747MOL0     H 3032   7.880  10.789   1.790  2.3374 -2.1106 -0.6365
  747MOL0     H 3033   7.932  10.879   2.009  2.9393  1.3066  1.9311
  747MOL0     H 3034   8.024  11.013   1.937 -1.1613  1.5675  1.3086
  747MOL0     H 3035   7.837  11.227   1.850  2.3313 -0.5208  3.2431
  747MOL0     H 3036   7.609  11.285   1.697 -1.4224 -0.0426 -1.5085
  747MOL0     H 3037   7.533  11.320   1.864  0.9436  0.5220 -1.1016
  747MOL0     H 3038   7.421  11.121   1.671  0.0059 -2.1223  1.2923
  747MOL0     H 3039   7.366  11.158   1.838 -2.9957  0.4661 -1.5623
  747MOL0     H 3040   7.305  11.383   1.760  3.3035  1.3974  0.3953
  747MOL0     H 3041   7.400  11.360   1.611  0.6049  1.7387  2.0577
  747MOL0     H 3042   7.180  11.342   1.556  3.1908  2.0931  1.7848
  747MOL0     H 3043   7.246  11.178   1.534 -1.4309  1.9166 -3.2454
  747MOL0     H 3044   7.041  11.183   1.434  1.3313 -0.8983  0.4094
  747MOL0     H 3045   6.778  10.999   1.298 -3.0003  0.6631  0.6311
  747MOL0     H 3046   6.893  11.124   1.253  0.4371 -0.5488 -0.5790
  747MOL0     H 3047   6.731  11.167   1.299 -0.9058 -2.2591  0.1654
  747MOL0     H 3048   6.483  10.740   1.752 -0.6153  0.0900  1.3754
  747MOL0     H 3049   6.277  10.602   1.749 -0.6580 -0.6593 -0.9967
  747MOL0     H 3050   6.004  10.703   1.412  0.2433 -1.7507 -1.0947
  747MOL0     H 3051   5.927  10.564   1.498 -0.9203  0.7258  2.1360
  747MOL0     H 3052   5.785  10.688   1.616 -0.4327  0.4594  0.4554
  747MOL0     H 3053   5.858  10.850   1.559 -0.7727 -0.6878  2.1910
  747MOL0     H 3054   5.643  10.788   1.439  0.2635  1.4186 -2.2028
  747MOL0     H 3055   5.733  10.641   1.381  0.2299 -0.8610  0.7951
  747MOL0     H 3056   5.892  10.817   1.287 -1.4608 -0.7516 -3.1526
  747MOL0     H 3057   5.776  10.952   1.328 -1.3207  0.5146  1.5978
  747MOL0     H 3058   5.618  10.869   1.187  0.1288 -1.5300 -1.3773
  747MOL0     H 3059   5.762  10.910   1.093 -0.7844 -1.0888 -2.0277
  747MOL0     H 3060   5.678  10.626   1.178 -2.2955  2.0010  1.3920
  747MOL0     H 3061   5.825  10.659   1.078 -2.5493 -1.8419 -3.8653
  747MOL0     H 3062   5.691  10.749   0.900  3.5076 -0.2048  1.1017
  747MOL0     H 3063   5.544  10.709   0.995 -0.2447  4.9669 -4.3948
  747MOL0     H 3064   5.755  10.513   0.914  0.2242  1.9752  2.6200
  747MOL0     H 3065   5.583  10.537   0.834  1.9775 -3.0931 -1.9149
  747MOL0     H 3066   6.075  10.887   1.504 -1.2920 -2.7435 -0.7374
  747MOL0     H 3067   6.298  11.024   1.499 -1.1289 -1.1641 -1.1289
  747MOL0     H 3068   6.730  10.985   1.775  1.3351  1.6477  0.3023
  747MOL0     H 3069   6.938  11.105   1.843 -2.3682 -0.3105  0.6627
  747MOL0     H 3070   8.599  11.113   1.227  0.6679  3.1288  3.7893
  747MOL0     H 3071   8.834  11.054   1.295 -0.7219  0.1101 -0.4656
  747MOL0     H 3072   9.128  11.018   1.533 -0.1236 -0.1979 -0.1562
  747MOL0     H 3073   9.330  11.082   1.669  2.0904 -0.2850  2.7337
  747MOL0     H 3074   9.461  11.138   1.918  1.0421 -0.9371  1.2491
  747MOL0     H 3075   9.281  11.109   1.950 -0.7419 -0.0732  3.1757
  747MOL0     H 3076   9.526  11.054   2.127  0.4013  0.5330 -0.7966
  747MOL0     H 3077   9.376  10.969   2.166 -0.9800  0.6434 -0.1550
  747MOL0     H 3078   9.245  11.177   2.204 -0.4263  0.8491  0.5817
  747MOL0     H 3079   9.365  11.151   2.320 -0.9691 -2.0591 -0.3485
  747MOL0     H 3080   9.387  11.329   2.072 -0.6957 -1.4586 -0.3636
  747MOL0     H 3081   9.520  11.301   2.184  0.2862 -1.2514 -2.2457
  747MOL0     H 3082   9.365  11.571   2.423 -0.0782 -0.7093  0.3622
  747MOL0     H 3083   9.223  10.790   1.965  0.9101 -0.7257 -1.3614
  747MOL0     H 3084   8.883  10.751   1.815  0.1092 -0.8873 -2.0515
  747MOL0     H 3085   8.992  10.614   1.800  1.0397  0.6986 -2.3303
  747MOL0     H 3086   8.974  10.710   1.947 -2.2184  1.7095  0.3244
  748MOL0     O 3087   9.136   3.176   3.055 -0.4139  0.2301 -0.1249
  748MOL0     C 3088   9.048   3.110   3.003 -0.0100  0.0134  0.2298
  748MOL0     O 3089   8.927   3.065   3.058 -0.9224 -0.1116 -0.1534
  748MOL0     C 3090   8.907   3.057   3.190  1.4167  0.4455  0.6435
  748MOL0     C 3091   9.009   3.014   3.281  0.4012  0.6924 -0.3019
  748MOL0     C 3092   8.993   3.002   3.412 -0.4346  0.1895  0.2711
  748MOL0     C 3093   8.870   3.025   3.468  2.1586  0.8148 -0.2937
  748MOL0     O 3094   8.865   3.003   3.604 -0.5948 -0.1244  0.8274
  748MOL0     C 3095   8.732   2.993   3.652 -0.0261  0.4398  0.2142
  748MOL0     C 3096   8.741   2.943   3.792 -0.9654  0.6533  0.2010
  748MOL0     C 3097   8.836   3.028   3.880 -0.3507 -0.2058  0.4391
  748MOL0     C 3098   8.804   3.173   3.874 -0.3420 -1.2292  0.1038
  748MOL0     C 3099   8.864   3.248   4.004  0.3335  0.0599  1.4415
  748MOL0     C 3100   8.821   3.397   4.014 -0.4261 -0.6879 -0.6127
  748MOL0     C 3101   8.869   3.496   3.905  0.1922 -0.2734 -0.6186
  748MOL0     C 3102   8.776   3.616   3.911 -0.3237  0.1135 -0.0069
  748MOL0     N 3103   8.761   3.681   4.041 -0.6959 -0.5993  0.1262
  748MOL0     C 3104   8.657   3.653   4.129 -0.3801  0.4705  0.6093
  748MOL0     C 3105   8.668   3.754   4.224 -0.0473  0.1490  0.3896
  748MOL0     C 3106   8.581   3.767   4.341 -0.1048 -0.6440 -0.0135
  748MOL0     C 3107   8.533   3.914   4.359 -0.4862  0.6237  0.5478
  748MOL0     C 3108   8.440   3.945   4.464  0.6438  0.1543  1.1851
  748MOL0     C 3109   8.317   3.870   4.468  0.5936  0.0851  0.0072
  748MOL0     O 3110   8.352   3.736   4.520  0.6451  0.2446 -0.5769
  748MOL0     C 3111   8.244   3.641   4.512 -0.7829  0.2646  0.8160
  748MOL0     C 3112   8.109   3.665   4.505 -0.0523 -0.2295 -0.6894
  748MOL0     C 3113   8.018   3.563   4.472  0.4310 -0.5374  0.2570
  748MOL0     C 3114   7.875   3.607   4.446  0.0208 -0.6500  0.3716
  748MOL0     C 3115   8.057   3.422   4.468 -0.6524 -0.3263 -0.0942
  748MOL0     C 3116   7.971   3.316   4.420 -1.1127  1.0164  0.5551
  748MOL0     O 3117   8.007   3.199   4.476  0.3981  0.6976  0.7219
  748MOL0     C 3118   7.932   3.099   4.427 -0.9336  0.1837 -0.9190
  748MOL0     C 3119   7.982   3.028   4.323 -0.1350  1.0267  0.1040
  748MOL0     C 3120   7.907   2.928   4.251 -0.4879 -0.3890  0.5106
  748MOL0     C 3121   7.781   2.887   4.298  0.7737 -0.2766  0.0107
  748MOL0     O 3122   7.722   2.780   4.239  0.9468  0.6387 -0.1832
  748MOL0     C 3123   7.595   2.735   4.301  0.1174  0.1868 -0.0453
  748MOL0     C 3124   7.479   2.821   4.246 -0.8428  0.5314 -0.4270
  748MOL0     C 3125   7.337   2.787   4.287  0.4533 -0.0107  0.1154
  748MOL0     C 3126   7.301   2.654   4.224 -0.3623  0.6178 -1.2521
  748MOL0     C 3127   7.161   2.608   4.256 -0.4157  0.0396  0.1716
  748MOL0     C 3128   7.140   2.490   4.174 -1.2562 -0.5535 -0.1159
  748MOL0     C 3129   6.991   2.439   4.178  0.1091  0.1183  0.1215
  748MOL0     C 3130   6.976   2.297   4.114 -0.1677  1.2251 -0.0087
  748MOL0    Cl 3131   7.008   2.287   3.939 -0.4139 -0.0974 -0.1614
  748MOL0     C 3132   7.731   2.948   4.422 -0.7358 -0.6342  0.2898
  748MOL0     C 3133   7.808   3.055   4.479  0.2294 -0.8198 -0.4656
  748MOL0     O 3134   7.872   3.335   4.345  0.5359  1.1006  0.6315
  748MOL0     C 3135   8.190   3.400   4.514 -0.5509  0.5180  0.3187
  748MOL0     C 3136   8.271   3.507   4.542  0.9798  0.0358 -0.1153
  748MOL0     N 3137   8.778   3.837   4.191 -1.0837  0.0489 -0.3005
  748MOL0     N 3138   8.834   3.780   4.089 -0.4904  0.0880  0.5058
  748MOL0     C 3139   8.763   3.072   3.386 -1.3941 -0.5462  0.5319
  748MOL0     C 3140   8.783   3.075   3.242 -0.8242  0.3835  0.2735
  748MOL0     C 3141   9.076   3.074   2.860 -0.6783  0.1057 -0.6543
  748MOL0     C 3142   9.145   3.175   2.786  0.0884 -0.1475 -0.5472
  748MOL0     C 3143   9.162   3.150   2.646  0.7368  0.0009 -0.5193
  748MOL0     C 3144   9.154   3.014   2.602  0.3664  0.1759  1.1345
  748MOL0     O 3145   9.180   2.977   2.474  0.5091 -0.0935  0.0998
  748MOL0     C 3146   9.243   3.070   2.389  0.0716  0.5296 -0.1352
  748MOL0     C 3147   9.243   3.020   2.245 -0.0147 -0.0341  0.5075
  748MOL0     C 3148   9.361   3.079   2.158  0.1118 -0.9909 -0.6753
  748MOL0     C 3149   9.356   3.231   2.135 -0.0118 -0.0543  0.1625
  748MOL0     C 3150   9.325   3.257   1.992  0.1897  0.5735  0.7327
  748MOL0     C 3151   9.295   3.272   1.875  0.2053  0.7378  0.0594
  748MOL0     C 3152   9.105   2.919   2.683 -0.2099  0.5457  1.0879
  748MOL0     C 3153   9.054   2.940   2.810  0.0451  0.8141 -0.4560
  748MOL0     C 3154   8.974   2.831   2.883 -0.5958 -0.8605  0.7151
  748MOL0     H 3155   9.105   2.979   3.244  0.3709  1.5041 -1.1991
  748MOL0     H 3156   9.088   2.993   3.463 -0.2540 -1.9275 -0.3256
  748MOL0     H 3157   8.656   2.934   3.599 -3.3407  2.7450  2.0235
  748MOL0     H 3158   8.695   3.095   3.643 -0.2278  0.4300  0.8744
  748MOL0     H 3159   8.639   2.942   3.830 -1.4099  0.6133 -0.9460
  748MOL0     H 3160   8.781   2.842   3.782 -1.5129  0.5254 -0.8312
  748MOL0     H 3161   8.836   2.995   3.985  1.4203 -0.1769  0.4852
  748MOL0     H 3162   8.940   3.008   3.854  0.7036 -1.9381  5.0024
  748MOL0     H 3163   8.839   3.213   3.778 -2.1864 -2.1552 -1.0026
  748MOL0     H 3164   8.696   3.191   3.864 -0.0619 -0.9274 -5.5914
  748MOL0     H 3165   8.972   3.249   3.991  0.1828 -0.1208 -0.0292
  748MOL0     H 3166   8.821   3.194   4.089 -1.2410  0.3733  0.8770
  748MOL0     H 3167   8.712   3.403   4.026 -0.4229 -2.5499  0.9057
  748MOL0     H 3168   8.871   3.435   4.103  2.1397 -1.2826 -1.7005
  748MOL0     H 3169   8.869   3.447   3.808  4.1905 -1.1122 -0.3725
  748MOL0     H 3170   8.970   3.523   3.936  0.1451 -0.8016  0.0310
  748MOL0     H 3171   8.798   3.696   3.841 -0.2138  1.4199  1.4667
  748MOL0     H 3172   8.674   3.593   3.878 -0.8718 -1.3278  2.4000
  748MOL0     H 3173   8.583   3.575   4.114  0.5287 -0.6339  1.6945
  748MOL0     H 3174   8.634   3.745   4.434  2.6090 -0.8117 -1.5114
  748MOL0     H 3175   8.499   3.699   4.319 -1.8730  1.4132 -0.1313
  748MOL0     H 3176   8.620   3.977   4.377 -2.6598  3.7079  1.1027
  748MOL0     H 3177   8.498   3.943   4.260  0.6975 -1.3437 -0.5319
  748MOL0     H 3178   8.486   3.934   4.562  3.8279 -2.8206 -0.4377
  748MOL0     H 3179   8.412   4.049   4.447  1.0225 -0.0976 -1.3169
  748MOL0     H 3180   8.243   3.920   4.532 -1.2684 -1.9158 -0.4696
  748MOL0     H 3181   8.266   3.864   4.371 -0.2849 -0.6113  0.5018
  748MOL0     H 3182   8.069   3.766   4.495  1.2614  0.1685 -2.4815
  748MOL0     H 3183   7.856   3.622   4.339 -0.5441 -0.1476  0.5389
  748MOL0     H 3184   7.869   3.707   4.489 -1.1488 -0.4896 -0.1103
  748MOL0     H 3185   7.802   3.536   4.487  0.2282 -0.4234  1.1463
  748MOL0     H 3186   8.077   3.065   4.288  0.7813  1.2798  2.6512
  748MOL0     H 3187   7.945   2.899   4.154  3.2883  0.2997  1.5977
  748MOL0     H 3188   7.577   2.630   4.276 -0.5266  0.3986 -0.4829
  748MOL0     H 3189   7.599   2.734   4.411 -0.3266 -0.1087 -0.0323
  748MOL0     H 3190   7.485   2.929   4.263 -1.0551  0.6648 -1.1655
  748MOL0     H 3191   7.476   2.804   4.138 -0.8900 -1.9046 -0.0967
  748MOL0     H 3192   7.264   2.860   4.250 -1.2088 -0.6541  1.9641
  748MOL0     H 3193   7.318   2.786   4.394  0.6919 -0.7087  0.1595
  748MOL0     H 3194   7.357   2.579   4.281 -3.1220  0.5215  1.6371
  748MOL0     H 3195   7.330   2.638   4.120  0.7431 -0.0026 -0.8637
  748MOL0     H 3196   7.155   2.584   4.362 -0.4194 -1.1930 -0.0958
  748MOL0     H 3197   7.095   2.692   4.233  0.0179  0.1335 -0.7854
  748MOL0     H 3198   7.196   2.408   4.220  2.7632  0.1192 -3.2207
  748MOL0     H 3199   7.179   2.502   4.073 -1.5991  2.0288 -0.0189
  748MOL0     H 3200   6.941   2.501   4.103 -1.7116 -0.1780  1.0420
  748MOL0     H 3201   6.958   2.428   4.282  1.8048 -4.1138  0.4177
  748MOL0     H 3202   6.875   2.264   4.141  0.7917 -0.9463  1.2574
  748MOL0     H 3203   7.042   2.228   4.167  0.0800  2.0297  0.7681
  748MOL0     H 3204   7.637   2.928   4.473  0.0110 -1.8744  1.2400
  748MOL0     H 3205   7.776   3.114   4.565  0.2747  1.2837 -1.8286
  748MOL0     H 3206   8.223   3.297   4.523  2.3166  1.2269 -0.7898
  748MOL0     H 3207   8.373   3.481   4.568  0.5108 -1.3305  0.4188
  748MOL0     H 3208   8.661   3.100   3.413 -2.7251  0.4118 -4.4956
  748MOL0     H 3209   8.699   3.093   3.176  0.1960  1.4349 -0.7748
  748MOL0     H 3210   9.164   3.273   2.829  2.1864 -0.2551 -1.1429
  748MOL0     H 3211   9.208   3.229   2.587 -0.7512  2.2408  1.1587
  748MOL0     H 3212   9.178   3.158   2.389 -3.3878 -1.8172 -0.7132
  748MOL0     H 3213   9.341   3.110   2.416  1.0387  0.5596 -3.3687
  748MOL0     H 3214   9.148   3.046   2.197 -0.2598 -2.4038 -0.4045
  748MOL0     H 3215   9.246   2.911   2.246 -1.7490 -0.1158  0.3444
  748MOL0     H 3216   9.448   3.041   2.213 -0.5139 -4.6198 -1.9807
  748MOL0     H 3217   9.368   3.035   2.059  0.6702 -0.1606 -1.0140
  748MOL0     H 3218   9.457   3.268   2.155  0.4709 -0.7383 -0.8717
  748MOL0     H 3219   9.275   3.268   2.199 -1.7428 -0.5926 -1.5967
  748MOL0     H 3220   9.291   3.284   1.769 -1.9936  2.3004  0.2507
  748MOL0     H 3221   9.089   2.826   2.630  1.8095  1.1443 -0.7333
  748MOL0     H 3222   8.995   2.735   2.834 -1.8371 -1.6092  1.6034
  748MOL0     H 3223   9.008   2.809   2.985 -0.1482 -2.4294  0.2612
  748MOL0     H 3224   8.867   2.854   2.886 -0.6103 -0.9690  1.1987
  749MOL0     O 3225   3.167  11.224   5.871 -0.0619  0.9346  0.0183
  749MOL0     C 3226   3.262  11.168   5.821  0.0485 -0.1107 -0.6708
  749MOL0     O 3227   3.388  11.213   5.830  0.3684  0.3486 -0.4328
  749MOL0     C 3228   3.431  11.299   5.927  0.5686 -0.9562  0.0541
  749MOL0     C 3229   3.376  11.430   5.948 -0.2488 -0.1863  0.3653
  749MOL0     C 3230   3.424  11.506   6.057 -0.8406  0.4743 -0.0622
  749MOL0     C 3231   3.515  11.455   6.148 -0.4622  0.0735  0.0096
  749MOL0     O 3232   3.564  11.502   6.265 -0.2316 -0.1279  0.0803
  749MOL0     C 3233   3.557  11.648   6.290 -0.8655 -0.4815 -1.1879
  749MOL0     C 3234   3.674  11.677   6.390 -0.3366 -0.4805 -0.2748
  749MOL0     C 3235   3.621  11.669   6.534 -0.5739  0.8201 -0.2927
  749MOL0     C 3236   3.735  11.695   6.634 -0.0529 -0.8249  0.4149
  749MOL0     C 3237   3.700  11.667   6.778 -0.3454 -0.9893 -0.2883
  749MOL0     C 3238   3.678  11.513   6.799  0.3238 -0.1713 -0.0566
  749MOL0     C 3239   3.609  11.496   6.936 -0.1316 -0.2484  0.5418
  749MOL0     C 3240   3.475  11.573   6.952  0.2883  0.0315 -0.7644
  749MOL0     N 3241   3.378  11.526   6.852  0.4541 -0.1054  0.4293
  749MOL0     C 3242   3.295  11.603   6.772  0.1904 -0.0775  0.6315
  749MOL0     C 3243   3.234  11.518   6.690  0.0832  0.2690 -0.3656
  749MOL0     C 3244   3.140  11.554   6.577 -0.8719 -0.8094 -1.3006
  749MOL0     C 3245   3.126  11.455   6.471 -0.3163  0.2692  0.9950
  749MOL0     C 3246   3.258  11.437   6.389  0.2421  0.5879 -1.6748
  749MOL0     C 3247   3.222  11.322   6.293  0.8453  0.3155  1.0211
  749MOL0     O 3248   3.211  11.190   6.356  0.3211  0.3075 -0.1449
  749MOL0     C 3249   3.297  11.098   6.301  0.6045 -0.5183 -0.3333
  749MOL0     C 3250   3.428  11.097   6.341 -0.8169  0.2593  0.6599
  749MOL0     C 3251   3.521  11.000   6.291 -0.1606  0.4380 -0.0624
  749MOL0     C 3252   3.665  11.007   6.332  0.3601 -0.4889  0.2832
  749MOL0     C 3253   3.477  10.905   6.193 -0.8586  0.3856 -0.2961
  749MOL0     C 3254   3.564  10.793   6.148 -0.3575  0.1828 -0.1280
  749MOL0     O 3255   3.528  10.731   6.026 -0.4148 -0.0529  0.2603
  749MOL0     C 3256   3.579  10.605   5.990 -0.9185  0.2855 -0.2228
  749MOL0     C 3257   3.625  10.495   6.067 -0.5123 -0.3947 -0.0037
  749MOL0     C 3258   3.679  10.383   5.998 -0.0312 -0.0498 -0.8647
  749MOL0     C 3259   3.687  10.379   5.860 -0.6072 -0.3360  0.6455
  749MOL0     O 3260   3.744  10.278   5.793  0.4478  0.1881  0.0289
  749MOL0     C 3261   3.804  10.176   5.863  0.5202 -0.1792  0.5320
  749MOL0     C 3262   3.702  10.062   5.902  0.1995  0.0411  0.4258
  749MOL0     C 3263   3.616  10.028   5.777  0.4510  0.3142  0.5657
  749MOL0     C 3264   3.534   9.902   5.799 -0.7538  1.1631 -0.6183
  749MOL0     C 3265   3.453   9.865   5.676  0.5670  0.0243 -0.1001
  749MOL0     C 3266   3.358   9.740   5.709 -0.3056  0.2553 -0.3631
  749MOL0     C 3267   3.241   9.724   5.607  0.3974  0.6061  0.2886
  749MOL0     C 3268   3.234   9.574   5.577  0.5273  0.1544 -0.7483
  749MOL0    Cl 3269   3.093   9.531   5.460  0.0602  0.2449  0.1542
  749MOL0     C 3270   3.634  10.481   5.779  0.1211  0.4064  0.1894
  749MOL0     C 3271   3.580  10.589   5.856 -0.0888 -0.1224  0.3594
  749MOL0     O 3272   3.642  10.741   6.237  0.8107 -0.1038  1.1752
  749MOL0     C 3273   3.344  10.912   6.161 -0.0644 -0.0713  0.7143
  749MOL0     C 3274   3.259  11.006   6.209 -0.0428 -0.2998 -0.6736
  749MOL0     N 3275   3.267  11.393   6.740 -0.3343 -0.4694 -0.5264
  749MOL0     N 3276   3.354  11.397   6.833  0.0233  1.2314 -0.4515
  749MOL0     C 3277   3.560  11.320   6.130 -0.3474 -0.2385  0.0593
  749MOL0     C 3278   3.521  11.254   6.016  0.3579 -0.0953 -0.0266
  749MOL0     C 3279   3.233  11.048   5.726  0.0639 -0.7999  0.1160
  749MOL0     C 3280   3.300  10.924   5.753  0.5947  0.4405  0.8524
  749MOL0     C 3281   3.269  10.815   5.668  0.5209 -0.0238  0.9503
  749MOL0     C 3282   3.190  10.825   5.546 -0.3212 -0.0321  0.5593
  749MOL0     O 3283   3.167  10.722   5.450  0.0087  0.0086 -0.7707
  749MOL0     C 3284   3.191  10.587   5.489 -0.2278  0.4690  0.1253
  749MOL0     C 3285   3.132  10.483   5.399  0.4485 -0.5220  0.3847
  749MOL0     C 3286   3.220  10.449   5.274  0.4110 -0.4384 -0.6392
  749MOL0     C 3287   3.133  10.355   5.186  0.7378 -0.2005 -0.1224
  749MOL0     C 3288   3.028  10.429   5.117 -0.2918 -0.2149  0.2553
  749MOL0     C 3289   2.950  10.491   5.043 -0.4586  0.5815 -0.0644
  749MOL0     C 3290   3.138  10.955   5.521 -0.0649  0.0660 -0.5191
  749MOL0     C 3291   3.150  11.061   5.613 -0.1531  0.2397 -0.0346
  749MOL0     C 3292   3.069  11.186   5.569  0.0073  0.0574  0.0219
  749MOL0     H 3293   3.298  11.477   5.890 -0.6982  2.5315  2.9326
  749MOL0     H 3294   3.380  11.603   6.077  1.5254  1.6220 -0.1079
  749MOL0     H 3295   3.463  11.663   6.344  0.3017 -0.0707  0.8368
  749MOL0     H 3296   3.569  11.721   6.208  2.4240  2.3051  1.4327
  749MOL0     H 3297   3.762  11.616   6.366  0.7620  1.4807 -1.5348
  749MOL0     H 3298   3.703  11.781   6.369  1.5753 -0.9131  0.0632
  749MOL0     H 3299   3.551  11.751   6.556  0.8457  1.6499  1.3686
  749MOL0     H 3300   3.561  11.578   6.547 -5.1735  3.6700  0.6228
  749MOL0     H 3301   3.826  11.642   6.605 -0.4692 -1.0494 -0.5320
  749MOL0     H 3302   3.756  11.803   6.631  0.1688 -0.8420  1.0819
  749MOL0     H 3303   3.606  11.720   6.798  2.2959  3.4532  1.7128
  749MOL0     H 3304   3.781  11.694   6.845  0.1081  0.7578 -1.4755
  749MOL0     H 3305   3.625  11.458   6.721 -1.3860  0.7021  0.4365
  749MOL0     H 3306   3.775  11.462   6.812  1.6783  2.8227  2.7709
  749MOL0     H 3307   3.683  11.525   7.011  3.0031 -0.5343 -2.1896
  749MOL0     H 3308   3.582  11.392   6.957  0.0297 -0.3161  0.4137
  749MOL0     H 3309   3.434  11.552   7.051 -0.9008  1.1494 -1.0034
  749MOL0     H 3310   3.481  11.682   6.952 -1.0948  0.2201  2.3178
  749MOL0     H 3311   3.279  11.710   6.765 -1.4819 -0.3699 -0.8128
  749MOL0     H 3312   3.181  11.636   6.518  0.7936 -2.1852 -2.1352
  749MOL0     H 3313   3.050  11.587   6.631  0.7307 -1.3387  1.9267
  749MOL0     H 3314   3.097  11.360   6.517  1.3163 -0.4616  0.5908
  749MOL0     H 3315   3.049  11.493   6.403  1.0653 -1.1168 -1.4862
  749MOL0     H 3316   3.279  11.523   6.325 -2.5342  3.5702  0.9883
  749MOL0     H 3317   3.352  11.423   6.444 -0.6376  2.4325  0.4903
  749MOL0     H 3318   3.124  11.351   6.253  0.8552  1.3649  1.7266
  749MOL0     H 3319   3.302  11.323   6.219  1.2709  1.9682  1.4642
  749MOL0     H 3320   3.463  11.169   6.415  2.8452 -1.4521  0.7874
  749MOL0     H 3321   3.739  10.987   6.253 -1.0542  2.6890 -2.0509
  749MOL0     H 3322   3.697  10.934   6.407  2.2704 -1.7477 -1.6475
  749MOL0     H 3323   3.688  11.103   6.380  2.3229  0.1621 -1.7975
  749MOL0     H 3324   3.636  10.508   6.174  0.8566 -0.3197 -0.1358
  749MOL0     H 3325   3.701  10.302   6.067 -0.2060  1.1674  0.6735
  749MOL0     H 3326   3.874  10.141   5.786  2.0343 -0.9031  2.1689
  749MOL0     H 3327   3.862  10.199   5.953  0.3250 -1.1130  0.9106
  749MOL0     H 3328   3.741   9.961   5.920 -2.0994 -0.8351  0.9611
  749MOL0     H 3329   3.638  10.099   5.983 -1.0718  0.5344 -0.7493
  749MOL0     H 3330   3.686  10.006   5.696  1.2575  3.0955  0.3950
  749MOL0     H 3331   3.551  10.106   5.736  0.2627 -0.3149 -0.3624
  749MOL0     H 3332   3.474   9.914   5.890  1.2456 -2.4213  1.4147
  749MOL0     H 3333   3.601   9.818   5.821 -0.6687  0.8203 -2.0791
  749MOL0     H 3334   3.391   9.946   5.639  0.3565 -1.1818 -2.5757
  749MOL0     H 3335   3.518   9.849   5.589  1.8288 -0.2761  0.8656
  749MOL0     H 3336   3.327   9.759   5.812  1.6091 -0.2123  0.3384
  749MOL0     H 3337   3.418   9.648   5.719 -0.9207  0.0005  1.2157
  749MOL0     H 3338   3.257   9.773   5.511  2.3964 -0.9577 -0.2339
  749MOL0     H 3339   3.157   9.773   5.657 -0.7987  1.1537 -2.1194
  749MOL0     H 3340   3.230   9.530   5.677 -1.3613  2.0426  0.0733
  749MOL0     H 3341   3.328   9.537   5.535 -0.1892 -4.6099  1.1388
  749MOL0     H 3342   3.641  10.463   5.673 -1.6547 -2.4359  0.4409
  749MOL0     H 3343   3.530  10.665   5.797  0.3618  1.2349  1.6671
  749MOL0     H 3344   3.297  10.841   6.094  1.0134  0.2239 -0.4083
  749MOL0     H 3345   3.157  11.000   6.174 -0.6447 -0.7360  1.0588
  749MOL0     H 3346   3.635  11.274   6.193 -3.1182 -0.3009  3.6334
  749MOL0     H 3347   3.579  11.163   6.006 -1.0451 -1.2730  1.7700
  749MOL0     H 3348   3.364  10.916   5.840  2.1215 -0.7759 -0.3086
  749MOL0     H 3349   3.307  10.715   5.689  1.5954 -0.0334 -0.8573
  749MOL0     H 3350   3.301  10.593   5.485  0.0362 -1.9002  1.7461
  749MOL0     H 3351   3.162  10.572   5.593 -1.6313 -0.2085 -0.3366
  749MOL0     H 3352   3.031  10.517   5.373  0.4738  1.6075  2.6858
  749MOL0     H 3353   3.121  10.390   5.454  2.8593 -0.9791  0.1912
  749MOL0     H 3354   3.247  10.532   5.208 -2.0687  2.4031  1.6762
  749MOL0     H 3355   3.307  10.389   5.303 -0.0144 -0.6790  0.1563
  749MOL0     H 3356   3.087  10.271   5.240 -1.9432  0.3910 -1.3155
  749MOL0     H 3357   3.202  10.304   5.118  5.0754  2.9253  1.4727
  749MOL0     H 3358   2.882  10.544   4.980 -3.0878 -4.2818 -1.7553
  749MOL0     H 3359   3.079  10.951   5.430 -0.0368  2.2913 -0.6997
  749MOL0     H 3360   3.130  11.244   5.499 -0.5375  0.7162  0.0965
  749MOL0     H 3361   2.982  11.153   5.512  0.1901 -0.7775  0.2073
  749MOL0     H 3362   3.051  11.253   5.653 -1.3899 -0.6271  0.2949
  750MOL0     O 3363   7.076   3.644   0.660 -0.1533 -0.4307 -0.2170
  750MOL0     C 3364   7.099   3.758   0.628  0.2866  0.3456  0.4195
  750MOL0     O 3365   7.087   3.802   0.503 -0.8295  0.4335 -0.2369
  750MOL0     C 3366   7.019   3.740   0.406  0.2650  0.4373  0.0884
  750MOL0     C 3367   6.923   3.639   0.427  0.2226  0.1461 -0.9374
  750MOL0     C 3368   6.863   3.573   0.321  0.8991 -0.5243  0.0109
  750MOL0     C 3369   6.901   3.601   0.191  0.1609 -0.4085 -0.4465
  750MOL0     O 3370   6.843   3.540   0.081 -0.8637  0.2007 -0.1795
  750MOL0     C 3371   6.696   3.521   0.089  0.2915 -0.7308  0.6274
  750MOL0     C 3372   6.642   3.384   0.103  0.0263  0.1114 -0.2492
  750MOL0     C 3373   6.665   3.303  -0.023 -0.0708 -0.0642 -0.8169
  750MOL0     C 3374   6.568   3.185  -0.040  0.4795  0.1580  0.3351
  750MOL0     C 3375   6.584   3.105  -0.173 -0.0237  0.2079 -0.2099
  750MOL0     C 3376   6.474   2.992  -0.188 -0.2546 -0.7150  0.2191
  750MOL0     C 3377   6.349   3.059  -0.246  0.6155 -0.3135 -0.3406
  750MOL0     C 3378   6.229   2.956  -0.255 -0.0183  0.3160  0.3921
  750MOL0     N 3379   6.112   3.031  -0.308  0.6758 -0.0095 -0.6575
  750MOL0     C 3380   6.008   3.082  -0.232  1.3214 -0.1249 -0.0948
  750MOL0     C 3381   5.910   3.101  -0.315  0.8894  0.0716  0.2294
  750MOL0     C 3382   5.777   3.164  -0.261 -0.0967  0.4592 -0.4783
  750MOL0     C 3383   5.665   3.145  -0.367 -0.6326 -0.0783  0.0670
  750MOL0     C 3384   5.515   3.164  -0.313  0.0003 -0.4318 -0.2986
  750MOL0     C 3385   5.413   3.154  -0.432  0.0796 -0.1024 -0.6905
  750MOL0     O 3386   5.292   3.234  -0.385 -0.1181 -0.8714 -0.2696
  750MOL0     C 3387   5.186   3.247  -0.466 -0.1838 -0.2466  0.1049
  750MOL0     C 3388   5.150   3.157  -0.563 -0.3745  0.6598 -0.9159
  750MOL0     C 3389   5.034   3.168  -0.637  0.8104  0.1413  0.0968
  750MOL0     C 3390   4.998   3.062  -0.734 -0.0951 -0.0729 -1.0084
  750MOL0     C 3391   4.957   3.287  -0.623  0.3911 -0.9733  0.1990
  750MOL0     C 3392   4.833   3.318  -0.700 -0.8887 -0.6723 -0.4092
  750MOL0     O 3393   4.762   3.405  -0.629  0.3224 -0.2556  0.0840
  750MOL0     C 3394   4.654   3.459  -0.705  0.1457  0.1045 -0.2242
  750MOL0     C 3395   4.516   3.440  -0.669 -0.4905 -0.6069 -0.2844
  750MOL0     C 3396   4.419   3.500  -0.746 -0.4564  0.4941 -0.2571
  750MOL0     C 3397   4.453   3.601  -0.841  0.4324  0.3839  0.0048
  750MOL0     O 3398   4.351   3.676  -0.892 -0.8467  0.7399  1.0086
  750MOL0     C 3399   4.390   3.777  -0.988 -0.3348 -0.0897 -0.0628
  750MOL0     C 3400   4.261   3.838  -1.024 -0.7779  0.6554  0.1354
  750MOL0     C 3401   4.280   3.972  -1.107  0.3746  0.2533  0.2542
  750MOL0     C 3402   4.160   3.996  -1.206  0.3008  0.0242  0.6403
  750MOL0     C 3403   4.179   4.140  -1.281  0.2944  1.6922 -0.2928
  750MOL0     C 3404   4.225   4.109  -1.433 -0.5623  0.5462  0.3927
  750MOL0     C 3405   4.235   4.234  -1.516  0.8763  0.6359 -0.2062
  750MOL0     C 3406   4.346   4.333  -1.462  1.1217 -0.0088 -0.3239
  750MOL0    Cl 3407   4.513   4.270  -1.479  0.4809  0.1504  0.1344
  750MOL0     C 3408   4.592   3.622  -0.874 -0.2137 -0.0456  0.3370
  750MOL0     C 3409   4.688   3.552  -0.805 -0.1464  0.0862  0.2179
  750MOL0     O 3410   4.801   3.265  -0.803 -0.1595 -0.4919 -0.4050
  750MOL0     C 3411   5.015   3.386  -0.548 -0.0143 -0.8050  1.4330
  750MOL0     C 3412   5.120   3.372  -0.463  0.6159 -0.6607  0.3272
  750MOL0     N 3413   5.961   3.096  -0.442  0.1639  1.0052  0.5916
  750MOL0     N 3414   6.082   3.040  -0.441 -0.0827 -0.7978 -0.8790
  750MOL0     C 3415   7.004   3.696   0.171 -0.8648  0.4522 -0.6029
  750MOL0     C 3416   7.059   3.768   0.276  0.7511 -0.1301  0.0486
  750MOL0     C 3417   7.189   3.833   0.727  0.5725  0.3579  0.3603
  750MOL0     C 3418   7.165   3.813   0.861  1.0792 -0.0885  0.3002
  750MOL0     C 3419   7.238   3.873   0.964 -0.2206  0.4274 -0.2027
  750MOL0     C 3420   7.339   3.957   0.930 -0.1429  0.4101 -0.0038
  750MOL0     O 3421   7.412   4.011   1.033 -0.5755  0.4453  0.0462
  750MOL0     C 3422   7.492   4.128   1.020  0.2446 -0.1630  0.1004
  750MOL0     C 3423   7.573   4.154   1.143 -0.2226  0.2687  0.4319
  750MOL0     C 3424   7.686   4.046   1.171 -0.9008  0.5550 -0.7035
  750MOL0     C 3425   7.635   3.916   1.228 -0.7290 -0.0977  0.4606
  750MOL0     C 3426   7.549   3.924   1.344 -0.6258 -0.4480 -0.4649
  750MOL0     C 3427   7.489   3.935   1.454 -0.3675  0.6450  1.1194
  750MOL0     C 3428   7.368   3.972   0.793 -0.0755 -0.9430 -0.2400
  750MOL0     C 3429   7.299   3.908   0.692 -0.3428 -0.5008 -0.4971
  750MOL0     C 3430   7.352   3.928   0.543 -0.3920 -0.2616  0.4806
  750MOL0     H 3431   6.882   3.596   0.517 -2.5668  2.0128 -1.1862
  750MOL0     H 3432   6.796   3.489   0.338  2.6096 -1.7534  1.0047
  750MOL0     H 3433   6.652   3.563  -0.001  1.8645  1.0097  0.5870
  750MOL0     H 3434   6.646   3.586   0.162 -1.2272 -0.3275 -0.7278
  750MOL0     H 3435   6.685   3.333   0.191 -2.0874 -1.9400 -0.3072
  750MOL0     H 3436   6.538   3.391   0.135  0.8566  1.0167  2.5314
  750MOL0     H 3437   6.674   3.364  -0.113  0.7804  1.2415  0.1092
  750MOL0     H 3438   6.765   3.261  -0.012  0.0361 -0.3302 -2.5468
  750MOL0     H 3439   6.594   3.122   0.046 -0.0671 -2.7402 -1.4911
  750MOL0     H 3440   6.465   3.220  -0.027  0.7706  1.7210 -1.2778
  750MOL0     H 3441   6.684   3.063  -0.170  0.4354  1.2305 -0.7346
  750MOL0     H 3442   6.592   3.173  -0.259  1.8252 -0.7925 -0.8823
  750MOL0     H 3443   6.518   2.912  -0.249  0.2604 -0.2614 -0.0097
  750MOL0     H 3444   6.445   2.965  -0.086  2.4870  0.9343  1.5418
  750MOL0     H 3445   6.368   3.085  -0.350  0.0085  0.1725 -0.3396
  750MOL0     H 3446   6.309   3.138  -0.181 -1.6390  1.5087 -3.6170
  750MOL0     H 3447   6.255   2.878  -0.327  2.4395  0.9033  0.5567
  750MOL0     H 3448   6.200   2.919  -0.157 -0.9989 -2.2460 -0.7664
  750MOL0     H 3449   6.007   3.104  -0.126 -1.9288  1.1619 -0.2903
  750MOL0     H 3450   5.792   3.269  -0.234 -0.5251  0.5777 -0.6902
  750MOL0     H 3451   5.740   3.121  -0.168  3.0573  0.6186  0.9664
  750MOL0     H 3452   5.685   3.208  -0.454 -1.0144 -1.5802 -1.1517
  750MOL0     H 3453   5.668   3.039  -0.393 -0.4686 -0.7972  2.7115
  750MOL0     H 3454   5.495   3.081  -0.245 -0.0768  0.4603  0.8094
  750MOL0     H 3455   5.514   3.258  -0.256 -0.3992 -1.2475  1.0904
  750MOL0     H 3456   5.458   3.188  -0.526  2.4408  2.6074  1.2232
  750MOL0     H 3457   5.387   3.050  -0.453  4.9161 -1.1570 -2.8983
  750MOL0     H 3458   5.207   3.066  -0.583 -0.2718 -0.0545  2.1311
  750MOL0     H 3459   5.044   3.088  -0.830  2.2061  4.0124  0.9377
  750MOL0     H 3460   4.890   3.054  -0.749 -0.9075  2.0477  2.4379
  750MOL0     H 3461   5.029   2.962  -0.703  1.2334  0.4568 -0.5324
  750MOL0     H 3462   4.483   3.372  -0.591  2.5367 -2.0563 -0.1332
  750MOL0     H 3463   4.317   3.471  -0.722 -0.1658  0.2063  0.6595
  750MOL0     H 3464   4.452   3.850  -0.935 -1.1967  0.6041  0.0013
  750MOL0     H 3465   4.440   3.735  -1.076 -1.5017  1.3194 -1.4543
  750MOL0     H 3466   4.201   3.762  -1.074  1.4454 -3.1360  2.7066
  750MOL0     H 3467   4.199   3.863  -0.937  1.2379 -0.6847  2.0875
  750MOL0     H 3468   4.379   3.998  -1.148  0.9398  1.6626  2.3761
  750MOL0     H 3469   4.274   4.052  -1.033  0.6418  0.6455 -0.1424
  750MOL0     H 3470   4.073   4.005  -1.141 -0.7867 -0.7546 -0.6708
  750MOL0     H 3471   4.146   3.913  -1.276  0.6050  0.3244  0.2157
  750MOL0     H 3472   4.075   4.173  -1.279  0.1662  1.2744  0.2175
  750MOL0     H 3473   4.232   4.213  -1.219 -0.8325  1.1763  1.3663
  750MOL0     H 3474   4.157   4.044  -1.489 -0.5192 -0.1841  1.1835
  750MOL0     H 3475   4.324   4.063  -1.427 -0.6586 -0.2288 -2.3310
  750MOL0     H 3476   4.136   4.276  -1.534 -0.1870 -1.2466  0.9182
  750MOL0     H 3477   4.257   4.195  -1.615 -0.5351  1.1082 -0.7178
  750MOL0     H 3478   4.325   4.369  -1.361  3.2445 -0.2323  0.2465
  750MOL0     H 3479   4.341   4.424  -1.524  2.5757  0.5296  0.3121
  750MOL0     H 3480   4.621   3.691  -0.953 -1.0553 -1.1321 -0.9621
  750MOL0     H 3481   4.793   3.566  -0.829 -0.6753  1.1343 -1.6050
  750MOL0     H 3482   4.964   3.482  -0.547 -0.5293 -0.9866 -0.8530
  750MOL0     H 3483   5.141   3.463  -0.407  0.9801  0.0455 -0.9266
  750MOL0     H 3484   7.039   3.718   0.070  0.8491 -1.9785 -0.6238
  750MOL0     H 3485   7.150   3.825   0.263  3.4307 -4.1478 -0.5598
  750MOL0     H 3486   7.078   3.751   0.880 -0.6812  1.2736 -2.5014
  750MOL0     H 3487   7.205   3.848   1.064 -2.3651 -2.0457 -1.3829
  750MOL0     H 3488   7.553   4.111   0.931 -1.3282 -1.0076 -0.8824
  750MOL0     H 3489   7.422   4.211   1.009  0.3771 -0.2193 -1.4532
  750MOL0     H 3490   7.505   4.159   1.229  0.2161 -2.0029  0.9854
  750MOL0     H 3491   7.637   4.242   1.134  2.8056 -1.6892  1.1624
  750MOL0     H 3492   7.743   4.028   1.080 -0.0320 -3.1005  0.3999
  750MOL0     H 3493   7.745   4.087   1.253 -0.8318  1.6558 -1.2924
  750MOL0     H 3494   7.723   3.854   1.248 -0.9194 -1.0787 -1.5515
  750MOL0     H 3495   7.595   3.853   1.148 -0.8653 -1.1793  1.3451
  750MOL0     H 3496   7.421   3.948   1.535 -0.0345 -0.4345  1.5889
  750MOL0     H 3497   7.461   4.028   0.789 -1.8675  2.8733  3.4889
  750MOL0     H 3498   7.331   3.836   0.487 -1.7119  2.0821 -3.2264
  750MOL0     H 3499   7.290   4.000   0.490  1.9442  1.7966  0.4027
  750MOL0     H 3500   7.457   3.958   0.534  0.2175 -1.9151  1.5041
  751MOL0     O 3501   8.781   7.622   3.274 -0.4682  0.1515  0.2276
  751MOL0     C 3502   8.748   7.547   3.372  0.1998  0.2612  0.6843
  751MOL0     O 3503   8.826   7.474   3.446  0.7277 -0.2843  0.4549
  751MOL0     C 3504   8.954   7.518   3.450  0.5018 -0.7979 -0.7953
  751MOL0     C 3505   8.982   7.653   3.479  0.7097 -0.7451 -0.3392
  751MOL0     C 3506   9.113   7.699   3.481 -0.5595 -0.0117  0.0020
  751MOL0     C 3507   9.217   7.603   3.463  0.2735 -0.0675  0.3997
  751MOL0     O 3508   9.350   7.638   3.471 -0.7251 -0.0506 -0.1893
  751MOL0     C 3509   9.437   7.625   3.356 -0.3844  0.0454 -0.6271
  751MOL0     C 3510   9.575   7.688   3.384 -0.2331  0.7651  0.1770
  751MOL0     C 3511   9.572   7.833   3.431 -0.4978 -0.0463 -0.2316
  751MOL0     C 3512   9.459   7.914   3.371  0.4841  0.0128  0.0401
  751MOL0     C 3513   9.450   8.066   3.400  0.1499 -0.4057 -0.4366
  751MOL0     C 3514   9.447   8.100   3.546  0.5611 -0.3132  0.0176
  751MOL0     C 3515   9.303   8.055   3.614 -0.1662 -0.4874  0.4687
  751MOL0     C 3516   9.280   8.144   3.735 -0.2090 -0.0652  0.0842
  751MOL0     N 3517   9.249   8.289   3.709 -0.4114  0.4343 -0.1022
  751MOL0     C 3518   9.184   8.349   3.609  0.0598  0.1302  0.5615
  751MOL0     C 3519   9.210   8.479   3.618  0.6113 -0.5630  0.2291
  751MOL0     C 3520   9.160   8.597   3.539  0.7205  0.5921 -0.1667
  751MOL0     C 3521   9.103   8.556   3.403 -0.4210 -0.0583  0.8905
  751MOL0     C 3522   9.209   8.501   3.307  0.3403  0.1198 -0.0445
  751MOL0     C 3523   9.138   8.469   3.172  0.4915 -0.9672  0.6146
  751MOL0     O 3524   9.176   8.587   3.092  0.0379  0.3001 -0.0751
  751MOL0     C 3525   9.145   8.589   2.963  0.6100 -0.7221 -0.6513
  751MOL0     C 3526   9.219   8.683   2.900 -0.0672 -0.1871 -0.7722
  751MOL0     C 3527   9.199   8.705   2.768  0.6835 -0.5292 -0.2891
  751MOL0     C 3528   9.285   8.801   2.689 -0.5074 -0.2809  0.6409
  751MOL0     C 3529   9.111   8.617   2.699 -0.5761 -0.0242 -0.7239
  751MOL0     C 3530   9.092   8.617   2.558 -0.0251  0.9646 -0.2017
  751MOL0     O 3531   9.199   8.636   2.483  0.0118 -0.8255  0.4925
  751MOL0     C 3532   9.196   8.625   2.340 -0.2061 -0.2205  0.4684
  751MOL0     C 3533   9.082   8.621   2.252 -0.1850 -0.4374  0.0301
  751MOL0     C 3534   9.096   8.601   2.114 -0.1837 -0.8060 -0.2000
  751MOL0     C 3535   9.220   8.578   2.054 -0.7792 -0.1861 -0.4689
  751MOL0     O 3536   9.253   8.551   1.922  0.1470 -0.2719 -0.3509
  751MOL0     C 3537   9.134   8.522   1.832 -0.1483  0.2753 -0.0057
  751MOL0     C 3538   9.089   8.654   1.770 -0.7359 -0.2830  0.8473
  751MOL0     C 3539   8.983   8.641   1.656 -0.2065  0.3509 -0.6001
  751MOL0     C 3540   9.022   8.723   1.532  0.8016  0.0960  0.6481
  751MOL0     C 3541   9.097   8.637   1.439 -0.0022  0.5820  0.0017
  751MOL0     C 3542   9.135   8.719   1.309  0.2552  0.0408  0.1591
  751MOL0     C 3543   9.190   8.628   1.206 -0.6656 -0.4410 -0.2768
  751MOL0     C 3544   9.304   8.694   1.120 -0.4283  1.2869  0.6575
  751MOL0    Cl 3545   9.453   8.709   1.215 -0.2913  0.1594 -0.1371
  751MOL0     C 3546   9.332   8.613   2.139  0.4634  0.3085 -0.3796
  751MOL0     C 3547   9.316   8.636   2.276  0.8704  0.0280 -0.2512
  751MOL0     O 3548   8.979   8.584   2.522 -1.1640  0.6385 -0.0390
  751MOL0     C 3549   9.043   8.512   2.763 -0.6397  0.3664  0.5711
  751MOL0     C 3550   9.071   8.503   2.895  0.3340  0.8378  0.0377
  751MOL0     N 3551   9.307   8.487   3.716 -0.1560  0.9093  0.3096
  751MOL0     N 3552   9.334   8.375   3.767  0.3754  0.9732 -0.4685
  751MOL0     C 3553   9.187   7.466   3.438 -0.7760 -0.7330 -0.7778
  751MOL0     C 3554   9.054   7.426   3.430  0.3968  0.1799 -0.4056
  751MOL0     C 3555   8.601   7.518   3.385  0.3573 -0.6990 -0.7456
  751MOL0     C 3556   8.517   7.532   3.279 -0.0671  1.6896 -0.5117
  751MOL0     C 3557   8.387   7.487   3.283  0.9854  0.6497 -0.0584
  751MOL0     C 3558   8.323   7.439   3.396  0.6071 -0.4252 -1.2872
  751MOL0     O 3559   8.191   7.439   3.387  0.3559  0.0251 -0.4876
  751MOL0     C 3560   8.106   7.420   3.502 -0.1916  0.0329 -0.4290
  751MOL0     C 3561   8.067   7.558   3.567 -1.0180 -0.0460 -0.8161
  751MOL0     C 3562   7.985   7.636   3.475 -0.6928 -0.0678 -0.4113
  751MOL0     C 3563   7.926   7.756   3.543 -0.3694 -0.9437  0.1710
  751MOL0     C 3564   7.882   7.865   3.441  0.1793 -0.6565 -0.2538
  751MOL0     C 3565   7.862   7.952   3.362  0.5219 -0.4098  0.0660
  751MOL0     C 3566   8.410   7.433   3.509 -0.1882 -0.5499  0.5375
  751MOL0     C 3567   8.547   7.474   3.509  0.8149  0.1685  0.1966
  751MOL0     C 3568   8.617   7.457   3.639 -0.3376  0.3731  0.9440
  751MOL0     H 3569   8.906   7.730   3.482  1.1307 -0.2473 -1.7250
  751MOL0     H 3570   9.131   7.805   3.490 -4.3343  0.6433  1.9484
  751MOL0     H 3571   9.392   7.671   3.268  3.0196 -2.7228 -4.1580
  751MOL0     H 3572   9.444   7.519   3.330 -0.2349  0.0883 -0.7575
  751MOL0     H 3573   9.625   7.624   3.457 -2.2851 -0.0166  0.9735
  751MOL0     H 3574   9.631   7.692   3.290 -2.2634  1.8620 -1.0629
  751MOL0     H 3575   9.551   7.843   3.538 -4.2854  2.2117 -0.9914
  751MOL0     H 3576   9.662   7.895   3.422  0.3444 -1.1566  0.3354
  751MOL0     H 3577   9.473   7.909   3.262  1.5631  3.5923 -0.1141
  751MOL0     H 3578   9.363   7.870   3.396  0.5683  0.4760  1.2244
  751MOL0     H 3579   9.361   8.109   3.353  0.9166  1.5053 -0.2028
  751MOL0     H 3580   9.538   8.112   3.355  2.6988 -1.4157  3.0973
  751MOL0     H 3581   9.525   8.046   3.601 -1.5151 -2.7803  0.7045
  751MOL0     H 3582   9.461   8.208   3.555 -0.4768 -0.2525  1.1755
  751MOL0     H 3583   9.312   7.948   3.634  1.1182 -0.7287 -1.1278
  751MOL0     H 3584   9.221   8.069   3.542  0.3824 -0.7542 -0.2228
  751MOL0     H 3585   9.214   8.094   3.806  1.0840 -0.9022  0.7373
  751MOL0     H 3586   9.366   8.148   3.802 -1.5065  2.4140  1.7375
  751MOL0     H 3587   9.133   8.299   3.528 -3.3196  0.5393  2.2566
  751MOL0     H 3588   9.242   8.667   3.521  1.6988 -0.5337 -0.1976
  751MOL0     H 3589   9.073   8.636   3.594  0.7297 -1.4193  1.4014
  751MOL0     H 3590   9.018   8.488   3.419  0.4292 -1.0895  1.1675
  751MOL0     H 3591   9.045   8.642   3.368 -3.3420 -1.2562  2.4275
  751MOL0     H 3592   9.285   8.577   3.287  1.2943 -0.3799  1.5143
  751MOL0     H 3593   9.258   8.410   3.340  0.8507 -0.1538 -1.4957
  751MOL0     H 3594   9.184   8.382   3.123  0.5680  1.1286 -3.5237
  751MOL0     H 3595   9.030   8.466   3.186  0.1338  2.3774 -0.4128
  751MOL0     H 3596   9.276   8.756   2.955 -2.0673  2.1450 -1.6477
  751MOL0     H 3597   9.328   8.875   2.757  1.5740 -1.8531  1.1632
  751MOL0     H 3598   9.219   8.847   2.615  1.2419 -0.4844 -1.1378
  751MOL0     H 3599   9.359   8.746   2.629 -0.9946  1.2934 -1.4894
  751MOL0     H 3600   8.978   8.623   2.282 -0.1316 -2.1454  0.3878
  751MOL0     H 3601   9.003   8.599   2.059 -1.1565  0.5042  1.3218
  751MOL0     H 3602   9.180   8.467   1.750 -0.6049  2.3961 -1.7903
  751MOL0     H 3603   9.047   8.471   1.873 -0.5695  0.5156 -0.5838
  751MOL0     H 3604   9.048   8.702   1.860  2.3372  3.0375  0.6996
  751MOL0     H 3605   9.181   8.709   1.746  0.9626 -3.2103  0.1884
  751MOL0     H 3606   8.889   8.679   1.695 -0.1888  2.1720 -2.1487
  751MOL0     H 3607   8.970   8.537   1.626 -1.9871 -0.2584  1.9872
  751MOL0     H 3608   9.073   8.816   1.556  1.2860  0.8454 -2.7722
  751MOL0     H 3609   8.927   8.754   1.486 -0.0565 -2.6480  0.3751
  751MOL0     H 3610   9.188   8.595   1.484 -0.3189  0.1654  0.2604
  751MOL0     H 3611   9.042   8.545   1.417 -0.6633  0.8986  0.3081
  751MOL0     H 3612   9.216   8.786   1.338  0.4346 -0.3517  0.5836
  751MOL0     H 3613   9.058   8.781   1.262  2.7454  0.7105 -3.4471
  751MOL0     H 3614   9.104   8.596   1.146 -1.3463 -1.9183  1.3677
  751MOL0     H 3615   9.237   8.542   1.256  3.8073  0.9213 -1.7442
  751MOL0     H 3616   9.280   8.794   1.081 -0.6649  0.6401 -0.9461
  751MOL0     H 3617   9.325   8.627   1.036 -0.4346 -1.3163  2.6267
  751MOL0     H 3618   9.426   8.627   2.086  0.2676  3.5295 -0.0765
  751MOL0     H 3619   9.386   8.649   2.357 -0.0762 -0.2677  0.6354
  751MOL0     H 3620   8.975   8.439   2.720  1.2045  0.2040 -2.3542
  751MOL0     H 3621   9.001   8.441   2.950  1.2363  2.2228  2.9187
  751MOL0     H 3622   9.261   7.390   3.420  0.1173  0.7899 -4.5097
  751MOL0     H 3623   9.022   7.326   3.401 -0.9651  0.7150 -0.8174
  751MOL0     H 3624   8.555   7.553   3.179 -0.4249 -3.9837 -2.1894
  751MOL0     H 3625   8.328   7.497   3.192 -0.2736 -3.2166  0.1474
  751MOL0     H 3626   8.010   7.380   3.468 -1.1854  2.0370 -0.1007
  751MOL0     H 3627   8.137   7.344   3.574  1.4406  0.8355 -0.2465
  751MOL0     H 3628   8.158   7.616   3.580 -1.3806  0.4550 -0.4968
  751MOL0     H 3629   8.013   7.541   3.661  0.2864 -0.3077 -0.0858
  751MOL0     H 3630   8.053   7.656   3.391 -0.9688  3.0785  0.0012
  751MOL0     H 3631   7.910   7.565   3.440  0.1798 -3.1903  3.2869
  751MOL0     H 3632   7.994   7.799   3.617 -2.6288  1.7208  0.8802
  751MOL0     H 3633   7.843   7.715   3.602 -0.1284 -0.7260  0.6628
  751MOL0     H 3634   7.841   8.023   3.285 -2.4775 -0.0768  1.0723
  751MOL0     H 3635   8.367   7.399   3.603 -0.9391 -2.7214 -0.5424
  751MOL0     H 3636   8.551   7.427   3.720 -1.1071  0.6669  0.4367
  751MOL0     H 3637   8.691   7.376   3.628 -0.8503  0.1820 -2.4136
  751MOL0     H 3638   8.657   7.554   3.668  1.0198 -0.2025  1.0890
  752MOL0     O 3639   6.384   1.307   7.478  0.6454  0.1005  0.0732
  752MOL0     C 3640   6.269   1.293   7.429  0.2812 -1.6945 -1.5012
  752MOL0     O 3641   6.187   1.400   7.377 -0.0015  0.4748 -0.2578
  752MOL0     C 3642   6.224   1.531   7.354  0.6040  0.1435  0.4015
  752MOL0     C 3643   6.131   1.631   7.355  0.3048 -0.3869  1.3988
  752MOL0     C 3644   6.152   1.769   7.329 -0.4661  0.6298 -0.5519
  752MOL0     C 3645   6.286   1.805   7.327 -0.5903  0.7092  0.4106
  752MOL0     O 3646   6.309   1.945   7.323  0.4880  0.9348 -0.1941
  752MOL0     C 3647   6.432   1.990   7.268  0.2572 -0.1701 -0.6103
  752MOL0     C 3648   6.521   2.043   7.391  0.9133 -0.6929 -0.0974
  752MOL0     C 3649   6.665   2.055   7.352 -0.0399 -0.1927 -0.2743
  752MOL0     C 3650   6.749   2.108   7.466  0.4405 -0.6175  0.0373
  752MOL0     C 3651   6.894   2.152   7.423  0.3426 -0.6552  0.0704
  752MOL0     C 3652   6.982   2.031   7.384 -0.0064  0.1619 -0.4182
  752MOL0     C 3653   7.134   2.067   7.371  0.4038  0.5671 -0.3349
  752MOL0     C 3654   7.208   1.942   7.341  0.0773 -0.7406 -0.0606
  752MOL0     N 3655   7.354   1.972   7.331 -0.8654  0.3289  0.2658
  752MOL0     C 3656   7.404   2.037   7.218  0.1014  0.7789  0.2987
  752MOL0     C 3657   7.538   2.020   7.232 -0.1445  0.0820 -0.6536
  752MOL0     C 3658   7.643   2.081   7.138 -0.1233 -0.8154  1.1828
  752MOL0     C 3659   7.716   2.197   7.214  0.6488  0.1017  0.4907
  752MOL0     C 3660   7.846   2.239   7.141 -0.0131  0.1116 -0.4844
  752MOL0     C 3661   7.810   2.343   7.035  0.6451 -0.6898 -0.4381
  752MOL0     O 3662   7.929   2.410   6.987  0.0578 -0.2956 -0.8051
  752MOL0     C 3663   8.016   2.347   6.903 -0.3007  0.2753 -0.6675
  752MOL0     C 3664   7.989   2.224   6.828 -0.9635 -0.0318  0.2506
  752MOL0     C 3665   8.082   2.182   6.733  0.8582  0.0461  0.4626
  752MOL0     C 3666   8.037   2.061   6.652  0.7395 -0.3053 -1.0642
  752MOL0     C 3667   8.212   2.238   6.723  1.0002  1.2492 -0.2783
  752MOL0     C 3668   8.315   2.194   6.625 -0.1290  0.0215  0.5638
  752MOL0     O 3669   8.390   2.289   6.575  0.4007 -0.0232  0.0932
  752MOL0     C 3670   8.496   2.267   6.491  0.1421  1.1708 -0.1244
  752MOL0     C 3671   8.481   2.273   6.356 -0.0128  0.5274  1.2180
  752MOL0     C 3672   8.599   2.281   6.268 -0.7995 -0.2812  0.1862
  752MOL0     C 3673   8.724   2.302   6.325 -0.5408 -0.3857 -0.7672
  752MOL0     O 3674   8.830   2.306   6.242 -0.0508 -0.6365  0.2088
  752MOL0     C 3675   8.952   2.254   6.293 -0.5934  0.2957 -0.2741
  752MOL0     C 3676   9.047   2.211   6.182 -0.4914 -0.4694 -0.3602
  752MOL0     C 3677   8.991   2.087   6.102  0.5132 -0.5603  0.1869
  752MOL0     C 3678   9.005   1.958   6.175 -0.8299  0.6602 -0.1045
  752MOL0     C 3679   8.954   1.839   6.108 -0.1942 -0.3808  0.4082
  752MOL0     C 3680   9.074   1.763   6.051 -0.4369 -0.6799 -0.1151
  752MOL0     C 3681   9.026   1.638   5.985  0.2369 -0.9064 -0.4173
  752MOL0     C 3682   8.954   1.677   5.849  0.2730  0.6263 -0.1308
  752MOL0    Cl 3683   8.883   1.534   5.774 -0.3821  0.1464 -0.2780
  752MOL0     C 3684   8.733   2.303   6.470 -0.3777 -0.1748  0.4628
  752MOL0     C 3685   8.619   2.279   6.545 -0.1482  0.6398  0.2111
  752MOL0     O 3686   8.330   2.077   6.595  0.6264  1.1997  0.2821
  752MOL0     C 3687   8.234   2.363   6.796  0.9724 -1.0681 -1.1908
  752MOL0     C 3688   8.141   2.415   6.887 -0.0378  0.3873  0.2860
  752MOL0     N 3689   7.568   1.949   7.353 -0.4281 -0.4362  0.2060
  752MOL0     N 3690   7.456   1.917   7.407  0.5032 -0.5780 -0.5164
  752MOL0     C 3691   6.390   1.714   7.330 -0.6948  0.6473 -0.0064
  752MOL0     C 3692   6.355   1.575   7.338 -0.2934 -0.2505  0.2619
  752MOL0     C 3693   6.222   1.154   7.423  0.6277  0.1342 -0.9466
  752MOL0     C 3694   6.303   1.050   7.404 -0.6638  0.7470  0.3786
  752MOL0     C 3695   6.259   0.920   7.367 -0.3346 -0.0861  0.1436
  752MOL0     C 3696   6.119   0.891   7.350  0.4899  0.5359  0.3005
  752MOL0     O 3697   6.047   0.778   7.321 -0.0047 -0.3196 -0.6742
  752MOL0     C 3698   6.126   0.665   7.282  0.2255  0.1922  0.3737
  752MOL0     C 3699   6.100   0.554   7.389  0.8763 -0.8656  0.8363
  752MOL0     C 3700   6.193   0.439   7.375  0.2696 -0.4990  0.2228
  752MOL0     C 3701   6.135   0.321   7.451  0.0363  0.1976 -0.5900
  752MOL0     C 3702   6.219   0.198   7.445 -0.3843 -0.6435 -0.8084
  752MOL0     C 3703   6.299   0.112   7.426  0.4983 -0.4853 -0.1317
  752MOL0     C 3704   6.043   1.003   7.373  0.6954  0.8327 -1.0426
  752MOL0     C 3705   6.084   1.128   7.408  0.2458 -0.7756 -0.6580
  752MOL0     C 3706   5.968   1.214   7.463 -0.0223 -0.5885  0.3533
  752MOL0     H 3707   6.029   1.596   7.369 -0.4014  1.1735  0.4743
  752MOL0     H 3708   6.066   1.835   7.328 -1.4903 -0.6565 -0.0711
  752MOL0     H 3709   6.416   2.077   7.203  3.0980  1.0122  0.0841
  752MOL0     H 3710   6.482   1.914   7.208  2.2241  0.3991  0.2062
  752MOL0     H 3711   6.491   2.147   7.410  0.9932  0.0332 -3.4287
  752MOL0     H 3712   6.502   1.972   7.472  0.8590  0.3294  0.8210
  752MOL0     H 3713   6.704   1.958   7.318  0.1306  0.3347 -1.6400
  752MOL0     H 3714   6.674   2.130   7.272  3.3800  1.3801  1.3743
  752MOL0     H 3715   6.697   2.193   7.511 -1.2479 -0.2742 -2.3934
  752MOL0     H 3716   6.760   2.017   7.527  1.6338  0.1065  0.9618
  752MOL0     H 3717   6.943   2.199   7.509  1.7830 -2.9483  0.5897
  752MOL0     H 3718   6.899   2.226   7.343  1.1584 -0.2292  0.5077
  752MOL0     H 3719   6.981   1.955   7.464 -1.1395  1.2126  0.6038
  752MOL0     H 3720   6.940   1.984   7.294 -0.7200  1.8025 -0.9709
  752MOL0     H 3721   7.186   2.123   7.450  0.9151  0.3663 -0.5231
  752MOL0     H 3722   7.141   2.132   7.283  1.9725  1.1848  0.1943
  752MOL0     H 3723   7.191   1.875   7.426 -0.0608 -0.2090  0.3418
  752MOL0     H 3724   7.169   1.889   7.254 -1.3158 -1.9868  1.2735
  752MOL0     H 3725   7.349   2.084   7.137  1.6254  1.6708 -0.2844
  752MOL0     H 3726   7.606   2.106   7.038 -0.8774 -1.8918  1.1826
  752MOL0     H 3727   7.710   2.001   7.104 -0.6403 -1.2011  1.0551
  752MOL0     H 3728   7.649   2.283   7.214 -0.0337 -0.2137 -3.6167
  752MOL0     H 3729   7.747   2.164   7.314  1.7035  4.4621  1.8163
  752MOL0     H 3730   7.898   2.300   7.216  1.0435 -1.1847 -0.1178
  752MOL0     H 3731   7.907   2.153   7.112 -0.2307 -0.7308  1.3524
  752MOL0     H 3732   7.766   2.293   6.948 -0.0312 -0.4049 -0.2699
  752MOL0     H 3733   7.741   2.422   7.066  1.7962  0.2459 -0.1717
  752MOL0     H 3734   7.888   2.187   6.834  0.0547 -2.8450  2.3674
  752MOL0     H 3735   7.936   2.027   6.678 -1.1888  3.5865 -2.6820
  752MOL0     H 3736   8.103   1.976   6.670 -0.3056 -1.5795 -2.8585
  752MOL0     H 3737   8.033   2.079   6.544 -2.0816  0.3060 -0.9321
  752MOL0     H 3738   8.378   2.275   6.323  0.1592 -0.2433  0.5912
  752MOL0     H 3739   8.599   2.276   6.159 -3.6650 -2.1895  0.1553
  752MOL0     H 3740   8.997   2.336   6.350  0.0376 -0.2571  0.0322
  752MOL0     H 3741   8.928   2.173   6.362 -0.2580  1.0340  0.7379
  752MOL0     H 3742   9.076   2.297   6.121  1.2297 -1.0318 -0.3983
  752MOL0     H 3743   9.140   2.196   6.238 -0.0625  1.9134 -0.3522
  752MOL0     H 3744   9.044   2.081   6.006  0.9130 -2.5430  0.4808
  752MOL0     H 3745   8.884   2.099   6.086 -0.1625 -5.1041  0.0067
  752MOL0     H 3746   8.938   1.962   6.261  0.1340 -1.0264  0.7680
  752MOL0     H 3747   9.109   1.951   6.208 -1.0780  1.5893  0.9238
  752MOL0     H 3748   8.904   1.781   6.186 -0.9817 -1.4949 -0.8932
  752MOL0     H 3749   8.877   1.857   6.033  0.6097 -1.9848 -0.8463
  752MOL0     H 3750   9.135   1.733   6.136 -0.4139  2.0251  0.9040
  752MOL0     H 3751   9.142   1.811   5.979 -1.7626 -0.8753 -1.5622
  752MOL0     H 3752   8.970   1.574   6.053 -3.0248  2.1219  0.0241
  752MOL0     H 3753   9.118   1.579   5.971 -0.4661 -2.1818  0.2040
  752MOL0     H 3754   9.033   1.729   5.794  1.9400 -0.2673  1.3031
  752MOL0     H 3755   8.870   1.745   5.866 -2.6390 -2.1563 -2.2856
  752MOL0     H 3756   8.823   2.308   6.530 -0.1605 -0.8786  0.2052
  752MOL0     H 3757   8.624   2.289   6.653  2.9815  0.0293  0.2241
  752MOL0     H 3758   8.327   2.419   6.801  0.5276 -0.4052  1.1887
  752MOL0     H 3759   8.165   2.498   6.952 -0.1583 -0.8654  2.0219
  752MOL0     H 3760   6.496   1.735   7.322 -0.1357 -2.1371 -0.9392
  752MOL0     H 3761   6.440   1.509   7.345  0.7017  1.0822  1.5290
  752MOL0     H 3762   6.409   1.074   7.403 -0.7001  1.0245  1.4837
  752MOL0     H 3763   6.335   0.843   7.360  1.2622  1.2954  1.5220
  752MOL0     H 3764   6.106   0.617   7.186  2.8270 -1.6143  0.6216
  752MOL0     H 3765   6.231   0.695   7.282 -0.1271  1.5298 -0.7743
  752MOL0     H 3766   5.995   0.527   7.373  0.7108  0.8525 -1.4969
  752MOL0     H 3767   6.112   0.582   7.493  1.6864 -1.7305  0.9945
  752MOL0     H 3768   6.209   0.412   7.270 -0.8017 -1.6015  0.3125
  752MOL0     H 3769   6.283   0.467   7.430  0.4666  1.6531 -1.0832
  752MOL0     H 3770   6.038   0.282   7.417 -1.2123 -0.7318  3.5148
  752MOL0     H 3771   6.112   0.347   7.555  0.5435 -0.8270 -0.2103
  752MOL0     H 3772   6.379   0.045   7.400  2.0280  1.7077 -1.4188
  752MOL0     H 3773   5.935   0.991   7.364  0.6576 -1.9320  1.7587
  752MOL0     H 3774   5.916   1.248   7.373  0.3283 -0.5262  0.1710
  752MOL0     H 3775   5.909   1.174   7.546  1.4040 -3.5223  0.0726
  752MOL0     H 3776   6.001   1.310   7.505 -4.6800  1.1213  0.6657
  753MOL0     O 3777   5.925   1.285   6.280 -0.2575  0.4630 -0.4298
  753MOL0     C 3778   5.926   1.314   6.158 -0.0219  0.2717 -0.8350
  753MOL0     O 3779   5.849   1.256   6.059 -0.3505  0.4656 -0.4471
  753MOL0     C 3780   5.755   1.161   6.092  0.5578 -0.0338  0.3224
  753MOL0     C 3781   5.618   1.173   6.052 -0.4593  0.0974  0.1318
  753MOL0     C 3782   5.533   1.064   6.080  0.1755  1.0272  0.2578
  753MOL0     C 3783   5.569   0.950   6.150  0.3180  0.3109 -0.8592
  753MOL0     O 3784   5.486   0.845   6.171 -0.1129  0.1531  0.9558
  753MOL0     C 3785   5.403   0.800   6.061  0.2184  0.5084  0.4236
  753MOL0     C 3786   5.359   0.653   6.065 -0.1852 -0.0544  0.7190
  753MOL0     C 3787   5.290   0.629   6.198  0.8077  0.9521 -0.4100
  753MOL0     C 3788   5.154   0.554   6.170  1.0793 -1.5437 -0.4686
  753MOL0     C 3789   5.052   0.673   6.132  0.2389  0.5416 -0.2106
  753MOL0     C 3790   4.922   0.597   6.148 -0.1632 -0.6003 -0.2694
  753MOL0     C 3791   4.799   0.676   6.108 -1.4538  0.9200  0.3878
  753MOL0     C 3792   4.674   0.596   6.142  0.3201 -0.9706  0.7184
  753MOL0     N 3793   4.558   0.687   6.136  0.4186  0.3886 -0.3700
  753MOL0     C 3794   4.449   0.673   6.216 -0.2855  0.0705 -0.1763
  753MOL0     C 3795   4.357   0.768   6.191 -0.1388 -0.3635  0.2719
  753MOL0     C 3796   4.224   0.784   6.256 -0.2081 -0.9236  0.3647
  753MOL0     C 3797   4.120   0.808   6.152 -0.7687  0.3943  0.6832
  753MOL0     C 3798   4.089   0.690   6.066  0.6114 -0.0289  0.4988
  753MOL0     C 3799   4.016   0.721   5.934 -0.2265 -0.8552 -0.1029
  753MOL0     O 3800   4.086   0.828   5.855  0.7177  0.2455 -0.1911
  753MOL0     C 3801   4.207   0.797   5.794 -0.8363  0.6087  1.0127
  753MOL0     C 3802   4.256   0.668   5.793 -0.9539  0.8356 -0.0352
  753MOL0     C 3803   4.387   0.641   5.744  0.2567 -0.1045 -0.2535
  753MOL0     C 3804   4.449   0.508   5.765  0.1138 -0.2473 -0.0177
  753MOL0     C 3805   4.466   0.749   5.692  0.0304 -0.9749 -0.4040
  753MOL0     C 3806   4.607   0.732   5.652 -1.4572 -0.1073  0.0071
  753MOL0     O 3807   4.645   0.816   5.556  0.1795  0.0062 -0.7979
  753MOL0     C 3808   4.774   0.831   5.538 -0.4162  0.7095  0.7654
  753MOL0     C 3809   4.847   0.720   5.485  0.0866  0.8363 -1.5226
  753MOL0     C 3810   4.980   0.740   5.455  0.6080  0.2960  0.8345
  753MOL0     C 3811   5.044   0.866   5.462  0.4571  0.1513  0.1893
  753MOL0     O 3812   5.163   0.865   5.394  0.1592  0.7057 -0.2422
  753MOL0     C 3813   5.228   0.983   5.362 -0.3266 -1.3506  0.0555
  753MOL0     C 3814   5.243   0.992   5.211  0.3262 -0.0594 -0.4906
  753MOL0     C 3815   5.328   0.888   5.150 -0.5961 -0.3660  0.3494
  753MOL0     C 3816   5.366   0.921   4.999  0.0911 -0.4012 -0.6653
  753MOL0     C 3817   5.391   0.791   4.923 -0.3857  1.2097  0.7941
  753MOL0     C 3818   5.539   0.766   4.927 -0.1883 -0.5487 -0.2643
  753MOL0     C 3819   5.594   0.644   4.852  0.0391  0.0582 -0.4888
  753MOL0     C 3820   5.744   0.643   4.836 -0.1249 -0.2724 -0.6496
  753MOL0    Cl 3821   5.788   0.490   4.751 -0.7431 -0.0749 -0.2913
  753MOL0     C 3822   4.973   0.974   5.513  0.0301 -0.1222 -0.1655
  753MOL0     C 3823   4.837   0.960   5.550 -0.6133 -0.1292 -0.5669
  753MOL0     O 3824   4.678   0.657   5.715 -0.1410  0.8987 -0.4425
  753MOL0     C 3825   4.404   0.872   5.668  0.5563 -0.5320 -0.4550
  753MOL0     C 3826   4.274   0.895   5.725  0.0936 -0.6219 -0.1130
  753MOL0     N 3827   4.414   0.843   6.083 -0.4679 -0.0092  0.0601
  753MOL0     N 3828   4.535   0.799   6.052 -0.4745 -0.0317 -0.5814
  753MOL0     C 3829   5.704   0.944   6.197  0.3215 -1.1765  0.0595
  753MOL0     C 3830   5.792   1.046   6.157  0.5526  0.4608 -0.5402
  753MOL0     C 3831   6.028   1.429   6.119 -0.2653  1.3757 -0.8861
  753MOL0     C 3832   6.130   1.447   6.208  0.0083 -0.4051 -0.0805
  753MOL0     C 3833   6.240   1.532   6.169 -0.1813 -0.3785  0.2428
  753MOL0     C 3834   6.239   1.607   6.049  0.1987  0.6474 -0.2623
  753MOL0     O 3835   6.333   1.702   6.034  0.5934 -0.4965  1.0886
  753MOL0     C 3836   6.340   1.792   5.917  0.6197  0.5713  0.2635
  753MOL0     C 3837   6.481   1.853   5.908  0.9617 -0.0450 -0.1262
  753MOL0     C 3838   6.475   1.963   5.788  0.8260  0.9866 -0.2418
  753MOL0     C 3839   6.389   2.092   5.814 -0.5729  0.4953 -0.1412
  753MOL0     C 3840   6.448   2.154   5.939  1.0252  0.1396  0.3561
  753MOL0     C 3841   6.488   2.211   6.035 -0.2392  0.3527 -0.2495
  753MOL0     C 3842   6.130   1.587   5.966  0.0633 -0.3627  0.1968
  753MOL0     C 3843   6.027   1.490   5.996 -0.9909 -0.2815  0.2444
  753MOL0     C 3844   5.923   1.474   5.885 -0.4080  0.1828 -0.8276
  753MOL0     H 3845   5.573   1.248   5.987 -3.1240 -0.8584  0.7261
  753MOL0     H 3846   5.430   1.063   6.046  0.3960 -0.0049 -0.3974
  753MOL0     H 3847   5.456   0.822   5.968  0.2048 -1.7555 -0.1743
  753MOL0     H 3848   5.319   0.871   6.061  0.4994  0.9571  3.3564
  753MOL0     H 3849   5.285   0.634   5.987 -2.5002  0.2683  2.6931
  753MOL0     H 3850   5.445   0.588   6.049 -0.4192  0.0667 -1.2911
  753MOL0     H 3851   5.354   0.565   6.261  1.3688  1.3614 -0.5654
  753MOL0     H 3852   5.257   0.717   6.255 -3.0628 -0.5662  0.0623
  753MOL0     H 3853   5.167   0.474   6.097  1.3526 -0.3896 -1.7325
  753MOL0     H 3854   5.125   0.507   6.264 -2.0779  0.5007 -0.2400
  753MOL0     H 3855   5.073   0.706   6.030 -0.6049 -1.6588 -1.1548
  753MOL0     H 3856   5.054   0.761   6.197 -0.5475 -0.2182  0.8907
  753MOL0     H 3857   4.922   0.500   6.097  0.3094 -1.9614  2.1712
  753MOL0     H 3858   4.922   0.569   6.254  2.0791  0.8258  0.1555
  753MOL0     H 3859   4.807   0.693   6.001 -2.1574 -1.4868 -0.1168
  753MOL0     H 3860   4.786   0.772   6.159 -1.4972 -0.2789  2.7905
  753MOL0     H 3861   4.657   0.511   6.075  0.5249 -0.5579  0.1334
  753MOL0     H 3862   4.674   0.549   6.241  1.9375 -3.0887 -0.2081
  753MOL0     H 3863   4.445   0.604   6.300 -0.4565  0.4004  0.0881
  753MOL0     H 3864   4.230   0.883   6.304  0.2562 -1.0504  0.5731
  753MOL0     H 3865   4.196   0.710   6.331 -0.3958 -0.9182  0.2997
  753MOL0     H 3866   4.032   0.839   6.209  0.1824  2.2715  1.2184
  753MOL0     H 3867   4.153   0.885   6.082 -2.2830 -0.2151 -0.7707
  753MOL0     H 3868   4.176   0.635   6.029  0.1219  1.2913 -3.1095
  753MOL0     H 3869   4.035   0.620   6.130 -0.7905  1.9221  1.5247
  753MOL0     H 3870   3.990   0.636   5.871 -2.2443  0.8933 -1.8029
  753MOL0     H 3871   3.923   0.775   5.957  0.9126  2.1622 -2.0118
  753MOL0     H 3872   4.214   0.576   5.833 -0.5044  0.7669  0.2881
  753MOL0     H 3873   4.501   0.506   5.861  0.9988 -1.0685 -0.4998
  753MOL0     H 3874   4.516   0.471   5.688 -0.2978 -0.3795 -0.3171
  753MOL0     H 3875   4.370   0.433   5.771  0.5453 -0.7077 -0.0168
  753MOL0     H 3876   4.794   0.627   5.470 -1.5333  0.9858  2.1219
  753MOL0     H 3877   5.043   0.662   5.413 -1.2456  0.2859 -2.2123
  753MOL0     H 3878   5.184   1.075   5.400  3.2734  0.5387  0.1099
  753MOL0     H 3879   5.331   0.987   5.398  0.5237 -0.4921 -2.2467
  753MOL0     H 3880   5.140   0.987   5.174 -0.3012  2.5315  0.6661
  753MOL0     H 3881   5.282   1.090   5.183  0.6443 -0.3430 -1.0577
  753MOL0     H 3882   5.272   0.794   5.151 -1.6955  0.2705  1.6826
  753MOL0     H 3883   5.426   0.873   5.197  1.1971  3.6207 -1.5683
  753MOL0     H 3884   5.449   0.992   4.991 -1.1403  0.9371 -2.6751
  753MOL0     H 3885   5.272   0.968   4.967 -0.4501 -0.0420  1.3391
  753MOL0     H 3886   5.332   0.704   4.955 -0.3537  1.2564  0.9825
  753MOL0     H 3887   5.369   0.813   4.818  1.4758 -1.5957 -0.2983
  753MOL0     H 3888   5.557   0.748   5.034  1.2262  0.4923 -0.2938
  753MOL0     H 3889   5.594   0.853   4.891 -0.4324 -0.8422 -1.4005
  753MOL0     H 3890   5.552   0.638   4.751  0.7235  0.7175 -0.8222
  753MOL0     H 3891   5.562   0.555   4.908 -1.2879  1.6429  1.3754
  753MOL0     H 3892   5.792   0.659   4.933  1.2186  0.1138 -1.3589
  753MOL0     H 3893   5.768   0.731   4.776 -0.6406  1.3046  1.3160
  753MOL0     H 3894   5.011   1.074   5.530 -0.6787  0.5685 -2.2704
  753MOL0     H 3895   4.785   1.052   5.575 -1.0832 -1.0618  2.2374
  753MOL0     H 3896   4.452   0.951   5.611  2.0372 -1.0282  0.0760
  753MOL0     H 3897   4.230   0.993   5.733 -3.2157 -1.9860  0.1530
  753MOL0     H 3898   5.738   0.865   6.263  2.0180 -0.6637 -0.1380
  753MOL0     H 3899   5.896   1.025   6.180  0.1536 -0.1207  0.8223
  753MOL0     H 3900   6.130   1.394   6.303 -0.9838 -1.8158 -0.8264
  753MOL0     H 3901   6.318   1.542   6.243  0.5104  2.9372 -0.7711
  753MOL0     H 3902   6.324   1.734   5.825  1.8726  0.0789  0.3391
  753MOL0     H 3903   6.257   1.862   5.932 -0.9581 -1.4128  1.4343
  753MOL0     H 3904   6.554   1.773   5.891  0.7777  0.0668 -1.5109
  753MOL0     H 3905   6.517   1.901   6.000  2.9785  1.5279 -1.6527
  753MOL0     H 3906   6.580   1.988   5.770  0.9495  0.6007 -0.0722
  753MOL0     H 3907   6.433   1.910   5.702 -0.8121  3.0566 -0.7719
  753MOL0     H 3908   6.291   2.070   5.858 -0.9312  2.7586  0.3178
  753MOL0     H 3909   6.378   2.155   5.726 -1.7161  2.2106  1.1625
  753MOL0     H 3910   6.531   2.243   6.128 -2.4307 -1.8450  1.6481
  753MOL0     H 3911   6.123   1.645   5.875 -1.5362  2.6892  2.1036
  753MOL0     H 3912   5.932   1.371   5.850  3.7954 -0.5067  1.6328
  753MOL0     H 3913   5.822   1.496   5.923 -0.1344 -1.1697  0.7893
  753MOL0     H 3914   5.945   1.547   5.806  3.8292  0.2625  0.2039
  754MOL0     O 3915   5.306   3.770   5.528  0.3802  0.4325 -0.4327
  754MOL0     C 3916   5.395   3.848   5.502 -0.0327 -0.2945 -0.0053
  754MOL0     O 3917   5.374   3.975   5.448 -0.1787 -0.7436  0.6147
  754MOL0     C 3918   5.247   4.012   5.434  0.0343  0.8887  0.1531
  754MOL0     C 3919   5.209   4.130   5.505  0.3709  0.5618  0.3683
  754MOL0     C 3920   5.084   4.184   5.471  0.0375 -0.0486 -0.0936
  754MOL0     C 3921   5.005   4.131   5.373 -0.6209 -0.0476 -0.5908
  754MOL0     O 3922   4.885   4.196   5.342 -0.0584  0.0191 -0.2516
  754MOL0     C 3923   4.906   4.319   5.273  0.2769 -0.2434 -0.2550
  754MOL0     C 3924   4.927   4.296   5.122  0.0427  0.0120  0.2830
  754MOL0     C 3925   4.806   4.317   5.025  0.0096 -0.5890  0.3339
  754MOL0     C 3926   4.707   4.438   5.050  0.5046  0.3730  0.0434
  754MOL0     C 3927   4.654   4.521   4.922 -0.3936  0.0410  0.7803
  754MOL0     C 3928   4.570   4.434   4.826  0.2685  0.3211 -0.6301
  754MOL0     C 3929   4.466   4.510   4.743 -1.1003 -0.4025  0.0587
  754MOL0     C 3930   4.522   4.631   4.659  0.7813  0.1309  0.4421
  754MOL0     N 3931   4.442   4.671   4.544  0.1846  0.2323  0.1945
  754MOL0     C 3932   4.368   4.596   4.452 -0.7832  0.5720 -0.6095
  754MOL0     C 3933   4.321   4.677   4.353  0.0255  0.0874  0.4641
  754MOL0     C 3934   4.240   4.651   4.229 -0.0707 -0.3526 -0.3330
  754MOL0     C 3935   4.324   4.566   4.133  0.7085  0.4823 -0.3567
  754MOL0     C 3936   4.261   4.554   3.991 -0.6145  0.3254  0.9729
  754MOL0     C 3937   4.373   4.523   3.887  0.4762  0.9649 -0.1735
  754MOL0     O 3938   4.407   4.386   3.911 -0.6113  0.1626 -0.1594
  754MOL0     C 3939   4.382   4.302   3.812 -0.1311 -1.2845  0.1209
  754MOL0     C 3940   4.248   4.293   3.764  0.4865 -0.2864 -0.1284
  754MOL0     C 3941   4.208   4.205   3.667 -0.6231  0.7743  0.0998
  754MOL0     C 3942   4.068   4.172   3.640  0.4928 -0.6723  0.0541
  754MOL0     C 3943   4.304   4.118   3.620  0.3235 -0.6274  0.7195
  754MOL0     C 3944   4.271   4.013   3.514  0.1145  0.1809  0.0575
  754MOL0     O 3945   4.202   4.047   3.406 -0.4227  0.5371  0.2696
  754MOL0     C 3946   4.152   3.949   3.317  0.0850  0.1221 -1.1445
  754MOL0     C 3947   4.194   3.948   3.179  0.2606  0.2373 -0.7227
  754MOL0     C 3948   4.111   3.892   3.091 -0.2495  0.5221 -0.1072
  754MOL0     C 3949   4.003   3.811   3.130  1.0000  0.6161 -0.8960
  754MOL0     O 3950   3.927   3.759   3.026  0.0118 -0.1287 -0.4865
  754MOL0     C 3951   3.948   3.620   2.993 -0.6036  0.2444  0.0109
  754MOL0     C 3952   4.000   3.586   2.852 -0.1433 -1.5473 -0.2748
  754MOL0     C 3953   3.915   3.646   2.734  1.0889  0.3820 -0.0663
  754MOL0     C 3954   4.015   3.681   2.625  0.5242  0.6962 -0.5430
  754MOL0     C 3955   4.091   3.558   2.575  0.3564 -0.2961 -0.2934
  754MOL0     C 3956   4.017   3.425   2.550  0.2203  0.0492 -0.2592
  754MOL0     C 3957   3.933   3.426   2.415 -0.4396  0.3907 -0.2095
  754MOL0     C 3958   3.891   3.284   2.369 -1.1065 -0.3505  0.1604
  754MOL0    Cl 3959   4.033   3.172   2.371  0.0081  0.3274  0.5387
  754MOL0     C 3960   3.978   3.791   3.269  0.2696  0.5975  0.0459
  754MOL0     C 3961   4.044   3.868   3.363 -0.4847 -0.3965 -0.3396
  754MOL0     O 3962   4.333   3.907   3.526  0.2123  0.8148 -0.3839
  754MOL0     C 3963   4.444   4.128   3.668  0.0881  0.0962  0.0244
  754MOL0     C 3964   4.483   4.223   3.762 -0.0024  0.0173  0.2741
  754MOL0     N 3965   4.356   4.807   4.392 -0.4632  0.2270 -0.3383
  754MOL0     N 3966   4.421   4.801   4.510 -0.7696 -0.2273  1.2117
  754MOL0     C 3967   5.043   4.014   5.302 -0.2926  0.3560 -0.3424
  754MOL0     C 3968   5.162   3.956   5.331 -0.2014 -0.4888 -0.5458
  754MOL0     C 3969   5.544   3.805   5.509 -0.0206  0.6364 -0.6816
  754MOL0     C 3970   5.637   3.903   5.492 -0.3640  0.5866  0.3681
  754MOL0     C 3971   5.775   3.878   5.517  0.0175  0.5239 -0.4126
  754MOL0     C 3972   5.817   3.760   5.564 -0.0992  1.1385 -0.3287
  754MOL0     O 3973   5.951   3.747   5.579 -0.4260 -0.0180  0.1524
  754MOL0     C 3974   5.996   3.629   5.654 -0.0069  0.1794  0.1761
  754MOL0     C 3975   6.153   3.633   5.678 -0.3682  0.5303  0.3485
  754MOL0     C 3976   6.233   3.611   5.551 -0.4509  0.4512  0.3103
  754MOL0     C 3977   6.380   3.592   5.583 -1.4308 -0.5694  0.4866
  754MOL0     C 3978   6.452   3.703   5.658 -0.5211  0.5768 -0.1057
  754MOL0     C 3979   6.516   3.769   5.738  0.1492 -0.6773  0.7804
  754MOL0     C 3980   5.721   3.649   5.584 -0.2519 -0.5601  0.4394
  754MOL0     C 3981   5.581   3.678   5.560 -0.8660  0.7166  0.8201
  754MOL0     C 3982   5.492   3.563   5.581 -0.2979  0.8778 -0.2336
  754MOL0     H 3983   5.268   4.181   5.580  1.8795  2.4856 -1.9776
  754MOL0     H 3984   5.054   4.273   5.525 -1.8437 -2.3651  3.1276
  754MOL0     H 3985   5.001   4.363   5.303  0.9166 -0.4679 -1.8344
  754MOL0     H 3986   4.823   4.387   5.294  1.5388  1.5044 -0.7236
  754MOL0     H 3987   4.999   4.371   5.086  1.8885 -2.3408 -1.2094
  754MOL0     H 3988   4.972   4.197   5.111  1.1655  0.1522  2.9668
  754MOL0     H 3989   4.846   4.325   4.923  1.5669 -3.4071  0.6074
  754MOL0     H 3990   4.752   4.222   5.028 -0.0499 -0.7168 -2.2309
  754MOL0     H 3991   4.619   4.401   5.105 -1.4578 -1.7851 -4.0511
  754MOL0     H 3992   4.754   4.518   5.107  0.5776 -0.9300  1.9132
  754MOL0     H 3993   4.737   4.564   4.865  1.1622 -2.3542  1.0968
  754MOL0     H 3994   4.596   4.609   4.952  0.7340  0.6170  1.3050
  754MOL0     H 3995   4.633   4.376   4.757 -0.9250  0.7501 -2.1552
  754MOL0     H 3996   4.518   4.355   4.881  2.5033 -2.2908 -2.0196
  754MOL0     H 3997   4.387   4.545   4.809 -0.8490 -1.1387  0.7653
  754MOL0     H 3998   4.427   4.447   4.662 -0.3489  0.1659 -0.7803
  754MOL0     H 3999   4.558   4.714   4.720  5.1495 -1.7693  0.7788
  754MOL0     H 4000   4.616   4.601   4.611  1.4759  1.3721  0.9921
  754MOL0     H 4001   4.355   4.488   4.451  1.1685  0.2839 -2.6463
  754MOL0     H 4002   4.200   4.745   4.191  1.6781  0.7662  0.4889
  754MOL0     H 4003   4.155   4.587   4.256  0.4478  0.5751  4.3456
  754MOL0     H 4004   4.423   4.611   4.124  0.7535  0.7721  1.2626
  754MOL0     H 4005   4.326   4.463   4.170 -0.6039  0.8891  0.9760
  754MOL0     H 4006   4.186   4.474   3.995  1.5496 -1.8680  0.8525
  754MOL0     H 4007   4.216   4.648   3.959 -2.6261 -1.3269 -1.4050
  754MOL0     H 4008   4.330   4.526   3.786  2.8921 -0.5287 -1.3549
  754MOL0     H 4009   4.452   4.599   3.896  1.3309  0.1890 -0.9673
  754MOL0     H 4010   4.176   4.361   3.809  0.3435  0.6634 -1.7365
  754MOL0     H 4011   4.001   4.251   3.676  0.1228 -1.4940  1.2348
  754MOL0     H 4012   4.027   4.078   3.678  2.5053 -0.5264  2.8440
  754MOL0     H 4013   4.047   4.174   3.532 -0.6795  3.8954  0.1575
  754MOL0     H 4014   4.283   3.994   3.138 -0.3620 -0.8885 -3.5531
  754MOL0     H 4015   4.135   3.911   2.987 -2.3590  2.6194 -0.3043
  754MOL0     H 4016   4.021   3.565   3.054 -0.7832  0.2861  0.2664
  754MOL0     H 4017   3.856   3.560   2.999 -2.6011  2.6108 -3.2910
  754MOL0     H 4018   4.096   3.639   2.854 -1.7134  1.5900  1.9941
  754MOL0     H 4019   4.009   3.478   2.839 -2.9152 -2.0369  1.0899
  754MOL0     H 4020   3.875   3.740   2.770 -0.9187 -0.4544  0.0163
  754MOL0     H 4021   3.836   3.578   2.700  1.9570 -0.3671 -0.6672
  754MOL0     H 4022   4.089   3.756   2.652 -0.4790  0.7055  2.5658
  754MOL0     H 4023   3.957   3.729   2.545 -0.5528 -2.2020 -1.6521
  754MOL0     H 4024   4.128   3.593   2.478  1.3696  2.9782  1.1305
  754MOL0     H 4025   4.171   3.538   2.647  0.0246  3.0473  1.1886
  754MOL0     H 4026   3.941   3.409   2.627 -0.3464  0.7158 -0.6656
  754MOL0     H 4027   4.082   3.337   2.554 -3.3219 -2.9409 -1.8519
  754MOL0     H 4028   3.992   3.467   2.333 -2.6107  0.4238 -1.8395
  754MOL0     H 4029   3.851   3.496   2.428  0.2950  0.9957  1.3732
  754MOL0     H 4030   3.851   3.284   2.267 -1.0103 -0.4652  0.1217
  754MOL0     H 4031   3.823   3.246   2.446 -1.8605 -1.7658 -1.1288
  754MOL0     H 4032   3.891   3.739   3.309  0.5196  0.6655  0.6992
  754MOL0     H 4033   4.011   3.859   3.466 -3.3659  1.3487 -1.0092
  754MOL0     H 4034   4.519   4.055   3.637  1.1908  2.0004 -2.1380
  754MOL0     H 4035   4.584   4.238   3.798  0.9791  3.7630 -3.3092
  754MOL0     H 4036   4.982   3.982   5.218 -1.1890  0.9855  0.0384
  754MOL0     H 4037   5.208   3.886   5.262  1.5072  1.8477 -1.9510
  754MOL0     H 4038   5.625   4.007   5.462  4.5250  1.8744  2.0088
  754MOL0     H 4039   5.847   3.959   5.526  3.4200 -2.4704  2.3008
  754MOL0     H 4040   5.944   3.640   5.749 -2.2646  2.3007 -1.1850
  754MOL0     H 4041   5.967   3.535   5.607 -0.3977  0.8413 -0.9544
  754MOL0     H 4042   6.183   3.552   5.745  0.6705  1.1151  0.6144
  754MOL0     H 4043   6.177   3.727   5.729 -3.1775  0.5669  1.7985
  754MOL0     H 4044   6.200   3.519   5.503 -0.3602 -0.8190  2.5524
  754MOL0     H 4045   6.213   3.701   5.492 -1.2952 -0.8308 -1.4642
  754MOL0     H 4046   6.443   3.586   5.494  0.3339  2.1985  1.4083
  754MOL0     H 4047   6.394   3.504   5.645  1.1074  0.2220  1.1636
  754MOL0     H 4048   6.572   3.836   5.800 -0.3152  0.1336  0.3420
  754MOL0     H 4049   5.756   3.558   5.630  1.4807  0.6263  1.5842
  754MOL0     H 4050   5.412   3.587   5.652 -1.5484 -0.0250 -1.2872
  754MOL0     H 4051   5.458   3.525   5.485 -1.2256 -0.9821  0.7697
  754MOL0     H 4052   5.546   3.495   5.648 -1.0280  0.4292 -0.0940
  755MOL0     O 4053   5.738   6.846   9.256 -0.3891 -0.4659 -0.3793
  755MOL0     C 4054   5.778   6.909   9.157  0.2445 -0.4730  0.2308
  755MOL0     O 4055   5.760   7.050   9.132 -0.2217  0.2792  0.4524
  755MOL0     C 4056   5.709   7.137   9.224  0.1133  1.4431  0.5448
  755MOL0     C 4057   5.717   7.124   9.365  0.3674 -0.1598 -0.8005
  755MOL0     C 4058   5.638   7.201   9.455  0.8400  0.2652  0.1736
  755MOL0     C 4059   5.553   7.302   9.401  0.2496  0.0454  0.5456
  755MOL0     O 4060   5.453   7.373   9.468  0.9287 -0.2718 -0.1620
  755MOL0     C 4061   5.431   7.343   9.612  0.5767 -0.0526 -0.2301
  755MOL0     C 4062   5.299   7.405   9.651  0.1833  0.0146  0.5799
  755MOL0     C 4063   5.243   7.336   9.780 -0.3168 -0.3223  0.6009
  755MOL0     C 4064   5.132   7.423   9.849  1.2885  0.6122 -0.0834
  755MOL0     C 4065   5.037   7.345   9.950  0.9213  0.2836  1.2931
  755MOL0     C 4066   5.098   7.273  10.069  0.1490  0.2489 -0.4954
  755MOL0     C 4067   5.178   7.358  10.163 -0.1097  0.4904  0.2678
  755MOL0     C 4068   5.222   7.272  10.286 -0.5486  0.6898 -0.0092
  755MOL0     N 4069   5.308   7.341  10.378 -0.3509  0.1136  0.3035
  755MOL0     C 4070   5.272   7.416  10.491 -0.3718  0.8284 -0.2660
  755MOL0     C 4071   5.386   7.476  10.521  0.0192 -0.0824 -0.4783
  755MOL0     C 4072   5.421   7.574  10.644 -0.3715 -0.6736 -0.0262
  755MOL0     C 4073   5.483   7.709  10.588 -0.1666 -0.3949 -0.5621
  755MOL0     C 4074   5.372   7.824  10.564 -0.5254  0.5026 -0.3881
  755MOL0     C 4075   5.434   7.962  10.562  0.1780  0.3312  0.2050
  755MOL0     O 4076   5.538   7.961  10.462 -0.1608  0.2597 -0.5796
  755MOL0     C 4077   5.627   8.057  10.445  0.9738  0.0062  0.4979
  755MOL0     C 4078   5.692   8.049  10.321 -0.1349 -0.1385  0.1450
  755MOL0     C 4079   5.791   8.140  10.289 -0.2815 -0.1707  0.5064
  755MOL0     C 4080   5.875   8.117  10.165 -0.5933  0.4744 -0.0230
  755MOL0     C 4081   5.810   8.262  10.368 -0.7014  0.1256 -0.3716
  755MOL0     C 4082   5.893   8.377  10.333 -0.5162 -0.0726  0.3433
  755MOL0     O 4083   5.924   8.462  10.438 -0.0835 -0.2127 -0.3015
  755MOL0     C 4084   6.010   8.573  10.415 -0.6564  0.2924  1.1498
  755MOL0     C 4085   6.018   8.677  10.508  0.9545  0.7239 -0.3210
  755MOL0     C 4086   6.112   8.781  10.501  0.6450  0.1859  0.6214
  755MOL0     C 4087   6.207   8.778  10.392 -0.0805 -0.5680 -0.1672
  755MOL0     O 4088   6.303   8.870  10.375 -0.4841 -0.2700 -0.0136
  755MOL0     C 4089   6.328   8.969  10.480 -0.9600 -0.2931  0.3707
  755MOL0     C 4090   6.470   9.030  10.455 -0.1559  0.0991 -0.4604
  755MOL0     C 4091   6.513   9.125  10.575 -1.0330  1.2236  0.9343
  755MOL0     C 4092   6.640   9.198  10.524  0.0424  0.9161 -0.0261
  755MOL0     C 4093   6.734   9.247  10.632 -0.3382 -0.5556  0.2837
  755MOL0     C 4094   6.666   9.327  10.747  0.4273  0.7583  1.3965
  755MOL0     C 4095   6.752   9.414  10.830 -0.4542 -0.4462  0.2041
  755MOL0     C 4096   6.672   9.510  10.914  0.2761  0.9809  0.4007
  755MOL0    Cl 4097   6.609   9.634  10.818  0.8090  0.1010  0.2100
  755MOL0     C 4098   6.213   8.666  10.310  0.1586 -0.4425  0.0707
  755MOL0     C 4099   6.116   8.570  10.322  0.3010  0.3617 -0.3940
  755MOL0     O 4100   5.910   8.399  10.221 -0.8587  0.6855 -0.4402
  755MOL0     C 4101   5.741   8.272  10.493  0.3017  0.3846  0.1646
  755MOL0     C 4102   5.649   8.165  10.530 -0.5671  0.3435  0.8996
  755MOL0     N 4103   5.493   7.424  10.442  0.1164 -0.1787  0.0030
  755MOL0     N 4104   5.439   7.342  10.347  0.2900 -0.8257 -1.0782
  755MOL0     C 4105   5.553   7.329   9.264 -0.7815  0.2059  0.0276
  755MOL0     C 4106   5.625   7.243   9.170 -0.0800  0.2918  0.5107
  755MOL0     C 4107   5.854   6.847   9.054  0.4226 -0.0960 -0.6501
  755MOL0     C 4108   5.953   6.915   8.989 -1.5937  0.8637  0.7233
  755MOL0     C 4109   6.022   6.865   8.881 -1.0751  0.3900 -0.0204
  755MOL0     C 4110   6.006   6.733   8.840  0.5958 -0.5213 -0.0857
  755MOL0     O 4111   6.063   6.669   8.731 -0.4369  0.1928 -0.4854
  755MOL0     C 4112   6.175   6.736   8.665  0.4860  0.9959  0.0744
  755MOL0     C 4113   6.222   6.632   8.557  0.1408  0.0443 -0.5303
  755MOL0     C 4114   6.343   6.680   8.467  0.1952 -0.6406  0.5349
  755MOL0     C 4115   6.326   6.824   8.417  0.4407 -0.1652 -0.2352
  755MOL0     C 4116   6.225   6.834   8.315  0.6196 -0.7786  0.1903
  755MOL0     C 4117   6.141   6.836   8.227 -0.3759  0.1567 -0.1715
  755MOL0     C 4118   5.910   6.656   8.917  0.0359  0.7736 -0.1730
  755MOL0     C 4119   5.828   6.716   9.017 -0.4226  0.2282  0.0030
  755MOL0     C 4120   5.711   6.635   9.061  0.7841 -0.3337  0.3027
  755MOL0     H 4121   5.786   7.054   9.411  3.0538  0.7617 -3.1396
  755MOL0     H 4122   5.632   7.177   9.561 -0.5268  1.9936  0.5383
  755MOL0     H 4123   5.513   7.371   9.679  0.0702  0.7446  0.0729
  755MOL0     H 4124   5.415   7.235   9.622 -1.1729 -0.2574 -3.8153
  755MOL0     H 4125   5.318   7.511   9.671  2.1667  0.3241 -2.3320
  755MOL0     H 4126   5.235   7.396   9.563  0.4759 -1.4653  0.4856
  755MOL0     H 4127   5.194   7.240   9.763 -1.3683  0.3403 -0.2853
  755MOL0     H 4128   5.330   7.331   9.845  1.4524  1.3140 -1.4975
  755MOL0     H 4129   5.179   7.513   9.889 -0.0415  1.9301 -1.3850
  755MOL0     H 4130   5.056   7.455   9.777  1.1159 -0.2707 -0.3064
  755MOL0     H 4131   4.989   7.268   9.890  0.2595  0.0438  2.1097
  755MOL0     H 4132   4.950   7.404   9.979  0.5765  1.2743 -1.4866
  755MOL0     H 4133   5.024   7.226  10.134 -1.2456  4.7740  1.6212
  755MOL0     H 4134   5.167   7.199  10.027  1.0610  0.8844 -0.1543
  755MOL0     H 4135   5.112   7.434  10.205 -1.6682 -1.4552  1.5044
  755MOL0     H 4136   5.259   7.405  10.106 -0.7587 -0.1670 -1.2684
  755MOL0     H 4137   5.136   7.234  10.341 -1.1509  2.4962  0.3696
  755MOL0     H 4138   5.265   7.184  10.237  1.5502  0.7967  1.5184
  755MOL0     H 4139   5.176   7.432  10.538  0.0379  2.7728 -0.0382
  755MOL0     H 4140   5.504   7.520  10.690  1.8599  0.1189 -2.8934
  755MOL0     H 4141   5.340   7.587  10.717 -1.3699  4.6600 -1.6512
  755MOL0     H 4142   5.556   7.726  10.668 -2.8046 -1.4886  2.2618
  755MOL0     H 4143   5.541   7.675  10.501  1.0180  1.8671 -0.7217
  755MOL0     H 4144   5.312   7.800  10.475  0.4840 -0.2296 -0.8863
  755MOL0     H 4145   5.302   7.828  10.648 -2.1244  1.2823 -1.6982
  755MOL0     H 4146   5.358   8.040  10.548  2.7219  3.2919  1.6902
  755MOL0     H 4147   5.470   7.987  10.662  1.9012 -0.5954 -0.1480
  755MOL0     H 4148   5.684   7.968  10.250  2.8875  0.5417 -1.1295
  755MOL0     H 4149   5.855   8.019  10.120 -0.2876  1.1571 -1.7114
  755MOL0     H 4150   5.979   8.131  10.193 -1.2798  0.7996  2.5671
  755MOL0     H 4151   5.844   8.184  10.084  1.2847 -0.1951 -1.3564
  755MOL0     H 4152   5.945   8.672  10.589 -0.3271  2.4681 -1.3003
  755MOL0     H 4153   6.102   8.867  10.567  1.0434  0.9415 -0.2864
  755MOL0     H 4154   6.248   9.041  10.496 -1.3405 -0.9704  1.6966
  755MOL0     H 4155   6.335   8.911  10.573  5.8127 -0.3326  0.3519
  755MOL0     H 4156   6.540   8.950  10.429  1.8744  1.2541  1.1577
  755MOL0     H 4157   6.460   9.089  10.364 -2.8854 -2.1723 -1.7600
  755MOL0     H 4158   6.533   9.080  10.673 -2.8172  3.5224  2.4709
  755MOL0     H 4159   6.432   9.197  10.586 -0.6616  1.6950  0.6431
  755MOL0     H 4160   6.595   9.282  10.470 -0.1925  0.8978  0.1421
  755MOL0     H 4161   6.691   9.134  10.452 -0.7766  0.3052 -0.0834
  755MOL0     H 4162   6.780   9.156  10.671 -0.6925 -0.8454  0.0445
  755MOL0     H 4163   6.798   9.317  10.577 -0.5255  2.2432  3.3106
  755MOL0     H 4164   6.623   9.246  10.806  2.7344 -3.7573 -2.4213
  755MOL0     H 4165   6.588   9.388  10.699  2.8547  2.7177 -0.3179
  755MOL0     H 4166   6.814   9.472  10.762 -3.2143  0.4743 -1.7112
  755MOL0     H 4167   6.815   9.360  10.901  0.1824  1.2559  0.9846
  755MOL0     H 4168   6.738   9.558  10.987 -2.3678 -0.6880  4.2180
  755MOL0     H 4169   6.585   9.461  10.959  0.9886  1.3239  2.2494
  755MOL0     H 4170   6.298   8.660  10.243  0.1534  1.7938 -0.2320
  755MOL0     H 4171   6.136   8.480  10.264 -0.0057 -1.2645  1.8857
  755MOL0     H 4172   5.762   8.347  10.568  0.4528  0.5444 -0.0396
  755MOL0     H 4173   5.597   8.163  10.625 -1.3183  1.8899  0.5529
  755MOL0     H 4174   5.489   7.408   9.226 -0.9226 -1.1678 -2.9111
  755MOL0     H 4175   5.623   7.246   9.062 -3.1233 -3.0419  0.2688
  755MOL0     H 4176   5.969   7.020   9.014 -4.7476  1.1950  1.8552
  755MOL0     H 4177   6.108   6.920   8.843  0.7608 -0.2042  2.9996
  755MOL0     H 4178   6.140   6.831   8.624  0.3212  0.3641 -1.2897
  755MOL0     H 4179   6.257   6.754   8.735 -0.2198  0.0207  1.2005
  755MOL0     H 4180   6.140   6.618   8.486  1.4952 -1.1674 -1.9298
  755MOL0     H 4181   6.246   6.532   8.595  2.0678 -0.0878 -1.9514
  755MOL0     H 4182   6.427   6.683   8.536  1.0485  1.7762 -0.4774
  755MOL0     H 4183   6.342   6.613   8.380  2.4202 -1.4240  1.0685
  755MOL0     H 4184   6.420   6.861   8.376  0.1975  0.7542  0.0193
  755MOL0     H 4185   6.290   6.900   8.488  0.4525  1.3411 -1.7859
  755MOL0     H 4186   6.071   6.862   8.150  0.3316  2.1001 -0.2206
  755MOL0     H 4187   5.899   6.548   8.906  0.3322  0.8385 -1.2543
  755MOL0     H 4188   5.737   6.564   9.140 -0.1257 -2.0971 -0.9216
  755MOL0     H 4189   5.623   6.697   9.080  2.0190  1.9861 -1.0966
  755MOL0     H 4190   5.672   6.570   8.983  1.2496  0.1002 -0.3045
  756MOL0     O 4191   6.510   9.195   2.650 -0.3682  0.3656  0.4724
  756MOL0     C 4192   6.559   9.271   2.574  0.5851  0.1896  0.0660
  756MOL0     O 4193   6.531   9.272   2.442  0.5550 -0.1854 -0.2740
  756MOL0     C 4194   6.435   9.191   2.393 -0.5481  0.1057 -1.2234
  756MOL0     C 4195   6.357   9.248   2.298  0.7566 -0.1816  1.3324
  756MOL0     C 4196   6.258   9.181   2.237 -0.4367 -0.0915  0.4120
  756MOL0     C 4197   6.209   9.054   2.278  0.7415  0.2952 -0.1476
  756MOL0     O 4198   6.115   8.977   2.215  0.1738  0.1302  0.1620
  756MOL0     C 4199   6.088   9.013   2.080 -0.0143 -0.8605 -0.0219
  756MOL0     C 4200   6.028   8.908   1.995  0.2382 -1.1416 -0.4171
  756MOL0     C 4201   5.901   8.841   2.063 -0.0886 -0.1240 -0.1726
  756MOL0     C 4202   5.834   8.742   1.976  0.4950  1.1651  0.5791
  756MOL0     C 4203   5.718   8.667   2.058 -0.3029  0.2905  0.3349
  756MOL0     C 4204   5.699   8.538   1.982  0.6971  0.0839  0.6304
  756MOL0     C 4205   5.668   8.561   1.834 -0.0794 -0.6772  1.0106
  756MOL0     C 4206   5.588   8.440   1.772  0.1296  0.2144  1.0164
  756MOL0     N 4207   5.638   8.309   1.822 -0.0767  0.0569  0.1820
  756MOL0     C 4208   5.572   8.241   1.923 -0.5280  0.0240 -0.1072
  756MOL0     C 4209   5.635   8.123   1.934  0.2904  0.8995  0.0557
  756MOL0     C 4210   5.609   8.018   2.036  0.4738 -0.4029  0.4618
  756MOL0     C 4211   5.654   7.877   1.989  0.1900 -0.0710  0.1656
  756MOL0     C 4212   5.608   7.832   1.845 -0.2274 -0.2036 -0.5669
  756MOL0     C 4213   5.459   7.815   1.826  0.0095  0.5977  0.0229
  756MOL0     O 4214   5.428   7.749   1.705 -0.2876 -0.5513 -0.8406
  756MOL0     C 4215   5.397   7.621   1.712  0.0885  0.7961  0.3687
  756MOL0     C 4216   5.264   7.591   1.709  0.4865  0.1039 -0.0304
  756MOL0     C 4217   5.211   7.457   1.730  0.1381  0.9063 -0.0733
  756MOL0     C 4218   5.060   7.428   1.722 -0.2330 -0.0301  0.2486
  756MOL0     C 4219   5.308   7.358   1.749  0.1253  0.3255 -0.2590
  756MOL0     C 4220   5.264   7.216   1.780 -0.3973  0.7787  1.1053
  756MOL0     O 4221   5.312   7.157   1.894 -0.6901 -0.4301  0.2798
  756MOL0     C 4222   5.279   7.027   1.916  1.6141  0.3177 -0.1433
  756MOL0     C 4223   5.181   7.009   2.011 -0.7477  0.0740 -0.4586
  756MOL0     C 4224   5.148   6.884   2.040 -0.7783  1.0223  0.4306
  756MOL0     C 4225   5.209   6.770   1.981  0.1758 -0.9011  0.2505
  756MOL0     O 4226   5.151   6.652   2.013 -0.0638 -0.2014 -0.1081
  756MOL0     C 4227   5.160   6.553   1.919  0.2033  0.1954 -0.2195
  756MOL0     C 4228   5.266   6.453   1.973 -0.1225  0.1606 -0.1267
  756MOL0     C 4229   5.237   6.313   1.909 -0.0445 -1.1000  0.3891
  756MOL0     C 4230   5.342   6.207   1.950 -0.3879  0.0310 -1.0466
  756MOL0     C 4231   5.354   6.111   1.824 -0.9767 -0.1708 -0.4072
  756MOL0     C 4232   5.441   5.986   1.848 -0.1402 -0.8818 -0.4033
  756MOL0     C 4233   5.441   5.903   1.728 -0.4333  0.3595  0.9007
  756MOL0     C 4234   5.549   5.800   1.737  0.4007 -0.2798  1.0342
  756MOL0    Cl 4235   5.544   5.721   1.893 -0.1167  0.2367 -0.4110
  756MOL0     C 4236   5.313   6.793   1.891  0.6550  0.4352  0.2872
  756MOL0     C 4237   5.346   6.922   1.854 -0.0536  0.0534 -0.0578
  756MOL0     O 4238   5.177   7.164   1.708 -0.3240  0.4729 -0.1946
  756MOL0     C 4239   5.446   7.385   1.731  0.4150  0.2201 -0.0805
  756MOL0     C 4240   5.490   7.513   1.723  0.2810 -1.2014  0.3291
  756MOL0     N 4241   5.737   8.130   1.838 -1.0596 -0.2725 -0.1354
  756MOL0     N 4242   5.734   8.236   1.775  0.1680 -0.5969 -1.0032
  756MOL0     C 4243   6.291   8.993   2.369 -0.5531  0.2874  0.6600
  756MOL0     C 4244   6.408   9.051   2.424 -0.6853  0.1930 -0.6169
  756MOL0     C 4245   6.682   9.342   2.628  0.9055  0.0145 -0.4806
  756MOL0     C 4246   6.709   9.335   2.768 -0.7859  0.4358 -0.6168
  756MOL0     C 4247   6.808   9.412   2.840 -0.8078  0.0946  0.2000
  756MOL0     C 4248   6.891   9.500   2.767  0.1123 -0.2558 -0.2117
  756MOL0     O 4249   6.981   9.576   2.835  0.4768  0.5230 -0.7452
  756MOL0     C 4250   7.060   9.678   2.772  0.6081 -0.6703  0.9423
  756MOL0     C 4251   6.970   9.798   2.754 -0.4847 -0.1450 -0.3948
  756MOL0     C 4252   7.029   9.919   2.672  0.7174  0.4842 -0.8719
  756MOL0     C 4253   7.074   9.881   2.528 -0.1936 -0.3366  0.0157
  756MOL0     C 4254   6.972   9.834   2.435  0.0762  0.3690 -0.3135
  756MOL0     C 4255   6.902   9.799   2.344  0.0184  0.3644  0.9087
  756MOL0     C 4256   6.876   9.499   2.632  0.4640 -0.1163  0.6271
  756MOL0     C 4257   6.768   9.430   2.556  0.4084 -0.3157 -0.3527
  756MOL0     C 4258   6.753   9.447   2.399  0.0689 -0.7730 -0.4135
  756MOL0     H 4259   6.382   9.347   2.260 -0.0904 -1.1741 -2.2055
  756MOL0     H 4260   6.204   9.230   2.156  0.4889 -2.5816 -1.8568
  756MOL0     H 4261   6.177   9.056   2.033 -1.4609 -1.0344 -3.1684
  756MOL0     H 4262   6.015   9.095   2.086  2.7467  1.7034  1.0925
  756MOL0     H 4263   6.011   8.946   1.894  2.4531 -0.0241 -0.4427
  756MOL0     H 4264   6.097   8.823   1.998  3.3943  1.2366  0.6088
  756MOL0     H 4265   5.921   8.787   2.156 -2.2502  1.2577  1.1833
  756MOL0     H 4266   5.830   8.921   2.089 -1.6465 -1.3853 -0.3403
  756MOL0     H 4267   5.798   8.805   1.895  1.4646  2.6231  1.2391
  756MOL0     H 4268   5.910   8.669   1.947 -1.0784 -0.9916  1.6002
  756MOL0     H 4269   5.631   8.731   2.070 -0.5747  0.1883 -0.9513
  756MOL0     H 4270   5.750   8.651   2.162  0.3991  2.2069  0.4486
  756MOL0     H 4271   5.781   8.467   1.997  1.2777  0.7287  0.5609
  756MOL0     H 4272   5.613   8.489   2.027 -0.7098  0.4266 -1.5535
  756MOL0     H 4273   5.758   8.567   1.772 -1.2186  1.0603 -0.6051
  756MOL0     H 4274   5.608   8.652   1.826  0.6784 -0.0405  2.3128
  756MOL0     H 4275   5.486   8.449   1.809  0.2325 -2.0048  1.9923
  756MOL0     H 4276   5.581   8.443   1.663  0.8861 -0.0178  0.9542
  756MOL0     H 4277   5.485   8.269   1.980 -0.1833 -0.0528  0.4695
  756MOL0     H 4278   5.500   8.011   2.048  0.2452 -2.4795 -1.9357
  756MOL0     H 4279   5.656   8.051   2.129  2.6303 -5.4205  1.4837
  756MOL0     H 4280   5.763   7.877   1.982  0.1549  2.2767 -1.6254
  756MOL0     H 4281   5.619   7.803   2.061  2.3082 -1.0186  0.3046
  756MOL0     H 4282   5.650   7.894   1.765 -2.5202 -2.3081 -3.6359
  756MOL0     H 4283   5.662   7.740   1.821 -1.3902  0.0841 -5.2959
  756MOL0     H 4284   5.430   7.746   1.906 -1.0311  3.4236  2.2521
  756MOL0     H 4285   5.393   7.898   1.852 -1.2503 -1.1637  3.0982
  756MOL0     H 4286   5.187   7.658   1.673  0.5155  0.1359 -0.0334
  756MOL0     H 4287   5.001   7.516   1.696 -0.3443 -0.7920 -2.4481
  756MOL0     H 4288   5.026   7.386   1.817 -0.8656 -0.7842 -0.2947
  756MOL0     H 4289   5.032   7.356   1.644 -1.9308 -0.9682  1.6542
  756MOL0     H 4290   5.128   7.093   2.055 -1.5567  0.4060 -1.9931
  756MOL0     H 4291   5.068   6.857   2.109 -1.1257  1.1830  0.0990
  756MOL0     H 4292   5.061   6.508   1.925  0.7193 -0.9131  0.2872
  756MOL0     H 4293   5.178   6.586   1.816  0.4660 -0.5131 -0.4085
  756MOL0     H 4294   5.367   6.494   1.959 -0.1344 -0.5958 -3.3314
  756MOL0     H 4295   5.244   6.435   2.078  3.0793 -3.7260  0.1405
  756MOL0     H 4296   5.245   6.334   1.802  0.0021 -2.4734  0.1083
  756MOL0     H 4297   5.134   6.281   1.930 -0.7544 -0.4519 -1.7993
  756MOL0     H 4298   5.311   6.152   2.039  0.4323  1.2199 -0.0046
  756MOL0     H 4299   5.436   6.259   1.972  0.0899 -1.5228  0.7621
  756MOL0     H 4300   5.259   6.078   1.780 -0.7587 -1.4833  0.0499
  756MOL0     H 4301   5.411   6.157   1.742  0.3637 -4.6690 -2.3415
  756MOL0     H 4302   5.402   5.937   1.937 -1.3458  3.9105  2.0614
  756MOL0     H 4303   5.545   6.014   1.868 -0.5241 -0.2277  0.7729
  756MOL0     H 4304   5.443   5.964   1.637  1.0858  2.4807  2.2663
  756MOL0     H 4305   5.343   5.854   1.731 -1.1197  1.7139  2.7937
  756MOL0     H 4306   5.649   5.841   1.721  1.3221 -2.3070  1.1739
  756MOL0     H 4307   5.530   5.722   1.663 -1.8230  1.2634 -0.1171
  756MOL0     H 4308   5.368   6.704   1.859  0.5150  0.3021  0.4154
  756MOL0     H 4309   5.442   6.939   1.805  0.5005 -1.7685  0.3182
  756MOL0     H 4310   5.515   7.302   1.734 -0.7164 -1.0994 -4.1753
  756MOL0     H 4311   5.597   7.527   1.734 -0.1945  1.3968  2.7572
  756MOL0     H 4312   6.268   8.888   2.384 -0.8179 -0.0250 -1.6519
  756MOL0     H 4313   6.461   8.990   2.497 -2.2589 -1.9610 -1.1697
  756MOL0     H 4314   6.661   9.260   2.830 -2.8381  1.4696 -0.8906
  756MOL0     H 4315   6.825   9.423   2.947 -0.6318  2.9830 -0.0626
  756MOL0     H 4316   7.149   9.696   2.833 -0.4091  0.8100  2.0629
  756MOL0     H 4317   7.093   9.649   2.672 -1.2569  1.9409 -0.5671
  756MOL0     H 4318   6.937   9.834   2.852  1.8270 -2.8072  1.5658
  756MOL0     H 4319   6.880   9.771   2.697 -0.9902  3.1516 -1.3544
  756MOL0     H 4320   6.949   9.991   2.652  1.1452  2.0145  2.3843
  756MOL0     H 4321   7.102   9.962   2.740  0.0833  1.4152 -0.7626
  756MOL0     H 4322   7.164   9.820   2.515 -1.7489 -2.1864 -3.7541
  756MOL0     H 4323   7.114   9.970   2.479  1.0051 -0.9306 -0.1407
  756MOL0     H 4324   6.830   9.773   2.270  2.8107 -2.0671 -1.1977
  756MOL0     H 4325   6.937   9.564   2.569 -2.4178  1.9697 -0.1964
  756MOL0     H 4326   6.696   9.535   2.370  1.3319 -0.2769 -1.5207
  756MOL0     H 4327   6.854   9.480   2.372 -0.5754  2.5464  0.8429
  756MOL0     H 4328   6.728   9.359   2.338 -0.8472 -3.0582  2.9924
  757MOL0     O 4329  10.527   7.033   2.627 -0.3545  0.1956  0.5425
  757MOL0     C 4330  10.495   7.149   2.618 -0.0833  0.8880 -0.5313
  757MOL0     O 4331  10.437   7.203   2.504 -0.5549  0.6039  0.5689
  757MOL0     C 4332  10.419   7.121   2.398 -0.2800  0.1344  0.2759
  757MOL0     C 4333  10.358   7.000   2.413  0.5029  0.1939 -0.1875
  757MOL0     C 4334  10.323   6.922   2.309 -0.2047 -0.1416  0.1608
  757MOL0     C 4335  10.363   6.959   2.182 -0.3758 -0.0874 -0.1106
  757MOL0     O 4336  10.343   6.860   2.080  0.3474 -0.5621  0.5210
  757MOL0     C 4337  10.465   6.809   2.040  0.2802  0.3053 -0.1646
  757MOL0     C 4338  10.424   6.691   1.956 -0.0852 -0.0181  0.2087
  757MOL0     C 4339  10.400   6.718   1.805  0.5171 -0.1113  0.2453
  757MOL0     C 4340  10.331   6.603   1.742 -0.0386 -0.3400  0.3431
  757MOL0     C 4341  10.317   6.618   1.590  0.4336  0.0312 -0.3186
  757MOL0     C 4342  10.455   6.646   1.516 -0.4341  0.1160 -0.0292
  757MOL0     C 4343  10.451   6.617   1.367  0.4044  0.3266  0.4203
  757MOL0     C 4344  10.340   6.678   1.282 -0.4653 -0.1668 -0.1331
  757MOL0     N 4345  10.343   6.823   1.302  0.2021 -0.2954 -0.3760
  757MOL0     C 4346  10.450   6.902   1.257 -0.4570  0.4174 -0.2769
  757MOL0     C 4347  10.409   7.028   1.262  0.2363 -1.3827  0.2202
  757MOL0     C 4348  10.479   7.155   1.214  0.4258  0.7787 -1.1080
  757MOL0     C 4349  10.630   7.162   1.260  0.5510 -0.5498  0.5680
  757MOL0     C 4350  10.734   7.086   1.170  0.6576 -0.1682 -0.0404
  757MOL0     C 4351  10.877   7.131   1.180  0.0682 -0.3793 -1.0174
  757MOL0     O 4352  10.958   7.094   1.067 -0.0663 -0.7954  0.2015
  757MOL0     C 4353  11.035   7.199   1.030  0.6070  0.4025 -0.0779
  757MOL0     C 4354  10.987   7.298   0.948  0.3726  0.0049 -0.8527
  757MOL0     C 4355  11.055   7.411   0.926 -0.5831  0.4301  0.3388
  757MOL0     C 4356  10.977   7.517   0.863 -0.3823 -0.0473  0.8622
  757MOL0     C 4357  11.185   7.423   0.983  1.3030 -0.7608  0.0219
  757MOL0     C 4358  11.258   7.560   0.993 -0.3259 -0.9301 -0.1389
  757MOL0     O 4359  11.181   7.672   1.037  0.2468  0.1230  0.3557
  757MOL0     C 4360  11.246   7.794   1.006 -0.1862  0.6345 -0.0180
  757MOL0     C 4361  11.227   7.899   1.103 -0.3615 -0.0647  0.5889
  757MOL0     C 4362  11.272   8.027   1.071  0.0084 -0.1538 -0.0231
  757MOL0     C 4363  11.338   8.055   0.959  0.3422  0.2801 -0.2181
  757MOL0     O 4364  11.394   8.180   0.928  0.0095 -0.1159 -0.3325
  757MOL0     C 4365  11.425   8.270   1.041 -0.1945  0.5891  0.0937
  757MOL0     C 4366  11.463   8.403   0.977 -0.9075 -0.3065 -0.3514
  757MOL0     C 4367  11.497   8.520   1.079 -0.5233  1.0408  0.4548
  757MOL0     C 4368  11.567   8.636   1.002  0.3621  0.1724  0.5095
  757MOL0     C 4369  11.563   8.766   1.097  0.4673  0.6100 -0.0247
  757MOL0     C 4370  11.419   8.812   1.112  0.1801  0.2671  0.1678
  757MOL0     C 4371  11.401   8.959   1.133 -0.5034 -0.1108 -0.5893
  757MOL0     C 4372  11.263   8.985   1.155  1.2808  0.0504 -0.6354
  757MOL0    Cl 4373  11.236   9.162   1.195 -0.1711  0.1924 -0.0662
  757MOL0     C 4374  11.355   7.959   0.859  0.5010 -0.7759  0.3239
  757MOL0     C 4375  11.312   7.835   0.884  0.0693  0.3823 -0.7448
  757MOL0     O 4376  11.380   7.554   0.997  0.2607 -0.5109  0.2397
  757MOL0     C 4377  11.237   7.319   1.052 -0.2759 -0.9030  0.1696
  757MOL0     C 4378  11.168   7.204   1.080  0.5961 -0.2472 -0.0520
  757MOL0     N 4379  10.275   7.022   1.314 -0.3780 -0.4052  0.1401
  757MOL0     N 4380  10.240   6.899   1.339  0.0627 -0.2860  0.3451
  757MOL0     C 4381  10.426   7.079   2.156 -0.4918 -0.5107 -0.9631
  757MOL0     C 4382  10.457   7.161   2.261  0.5381  0.2814 -0.3765
  757MOL0     C 4383  10.491   7.224   2.737 -0.0426 -0.5187 -0.1174
  757MOL0     C 4384  10.484   7.371   2.724  0.3096 -0.6063 -0.0387
  757MOL0     C 4385  10.460   7.456   2.833  1.0205 -0.3817 -0.4727
  757MOL0     C 4386  10.433   7.410   2.960  0.8506  0.7252 -0.7498
  757MOL0     O 4387  10.391   7.483   3.067 -0.0108  0.6560 -0.2923
  757MOL0     C 4388  10.367   7.626   3.052  0.4852  0.3401  0.1132
  757MOL0     C 4389  10.314   7.684   3.181 -0.4130 -0.5322  0.8862
  757MOL0     C 4390  10.416   7.692   3.290 -0.5558  0.1374  0.5719
  757MOL0     C 4391  10.358   7.735   3.426  0.1430  0.2584 -1.4823
  757MOL0     C 4392  10.322   7.876   3.426  0.1465  0.6330  0.1842
  757MOL0     C 4393  10.281   7.994   3.438  0.0391  0.5037 -0.4193
  757MOL0     C 4394  10.444   7.266   2.972 -0.6478  0.2816 -0.9123
  757MOL0     C 4395  10.477   7.179   2.867  0.1260  0.4206 -0.4709
  757MOL0     C 4396  10.488   7.027   2.909 -1.1372  0.3425  0.3123
  757MOL0     H 4397  10.333   6.961   2.511  3.9306 -1.4036  0.2163
  757MOL0     H 4398  10.295   6.818   2.324  0.9835 -0.8722 -2.2527
  757MOL0     H 4399  10.531   6.788   2.124  1.3024  0.0264 -1.0118
  757MOL0     H 4400  10.525   6.876   1.977 -0.0058  1.0144  0.3103
  757MOL0     H 4401  10.513   6.628   1.949  0.9584  1.5008 -0.7457
  757MOL0     H 4402  10.339   6.641   2.003 -1.2061 -0.6399 -2.3073
  757MOL0     H 4403  10.345   6.812   1.794  0.5359  0.3440  3.1512
  757MOL0     H 4404  10.496   6.733   1.755  0.0581 -1.8937 -1.2882
  757MOL0     H 4405  10.385   6.510   1.764 -1.0289 -1.1199 -0.3746
  757MOL0     H 4406  10.227   6.595   1.778 -1.0178  1.6271 -1.8093
  757MOL0     H 4407  10.246   6.700   1.573 -1.4184 -1.5585 -0.5441
  757MOL0     H 4408  10.261   6.531   1.557  0.5144 -1.0933  2.2792
  757MOL0     H 4409  10.495   6.744   1.544 -0.0904  0.7302 -2.4804
  757MOL0     H 4410  10.515   6.574   1.572  1.3079  3.3153  2.5756
  757MOL0     H 4411  10.464   6.510   1.347  1.7413  0.2854  1.4061
  757MOL0     H 4412  10.545   6.659   1.331  0.5648  1.2256  1.7905
  757MOL0     H 4413  10.365   6.652   1.179  0.6273 -0.8224  0.2872
  757MOL0     H 4414  10.245   6.630   1.307 -0.0098  0.2990  2.8540
  757MOL0     H 4415  10.547   6.872   1.217 -1.6552 -0.1832 -2.9553
  757MOL0     H 4416  10.422   7.247   1.234 -1.2525  0.4609 -3.8569
  757MOL0     H 4417  10.475   7.161   1.105  2.0459 -1.2231 -1.3322
  757MOL0     H 4418  10.656   7.268   1.260  1.6044 -0.6584 -3.1179
  757MOL0     H 4419  10.629   7.122   1.362  1.7440 -0.1815  0.7356
  757MOL0     H 4420  10.726   6.979   1.187 -0.0038 -0.3594 -1.3487
  757MOL0     H 4421  10.698   7.106   1.068 -0.9324  2.0186  0.8667
  757MOL0     H 4422  10.879   7.238   1.200  0.3708 -0.8962  2.1558
  757MOL0     H 4423  10.924   7.088   1.268 -0.2473 -0.4541 -0.8813
  757MOL0     H 4424  10.894   7.263   0.905  0.8002 -0.3483 -1.5205
  757MOL0     H 4425  10.935   7.598   0.924  0.6015  0.5457  0.7845
  757MOL0     H 4426  10.894   7.467   0.812  1.3379 -1.1862 -0.9328
  757MOL0     H 4427  11.043   7.556   0.785  1.2873 -2.9867  0.7004
  757MOL0     H 4428  11.169   7.891   1.194  0.9771 -3.6606  1.3041
  757MOL0     H 4429  11.245   8.111   1.135 -0.6523  0.0608 -0.5701
  757MOL0     H 4430  11.326   8.292   1.083 -2.1855  1.0906 -4.2564
  757MOL0     H 4431  11.496   8.231   1.113 -0.7179 -1.4065 -0.3832
  757MOL0     H 4432  11.559   8.389   0.927 -0.7776  2.6559 -1.1318
  757MOL0     H 4433  11.386   8.445   0.912  0.4486  1.2635 -1.0062
  757MOL0     H 4434  11.573   8.482   1.148 -0.6823 -0.6075 -0.2232
  757MOL0     H 4435  11.401   8.550   1.121 -1.2827 -1.9723  1.0889
  757MOL0     H 4436  11.520   8.660   0.906  2.7144  0.6332 -0.6186
  757MOL0     H 4437  11.670   8.612   0.974  0.5626  1.0694  0.4372
  757MOL0     H 4438  11.607   8.748   1.195 -0.9647 -4.5905 -0.0215
  757MOL0     H 4439  11.615   8.849   1.050 -0.6023  0.1720 -2.1155
  757MOL0     H 4440  11.378   8.770   1.204 -0.1129 -1.4503 -0.7042
  757MOL0     H 4441  11.361   8.772   1.028  1.3967 -1.0649 -0.0865
  757MOL0     H 4442  11.436   9.015   1.045  1.5791 -1.5845 -0.7843
  757MOL0     H 4443  11.453   8.996   1.222 -2.1431  0.7989  0.0207
  757MOL0     H 4444  11.223   8.931   1.241 -2.6368  4.7306  0.9732
  757MOL0     H 4445  11.189   8.954   1.080 -0.1695  0.5308  0.5325
  757MOL0     H 4446  11.403   7.989   0.767 -2.4209  3.5715 -0.0935
  757MOL0     H 4447  11.320   7.749   0.817  2.2123 -2.4173  2.7123
  757MOL0     H 4448  11.328   7.340   1.107  0.0081 -1.2245 -0.1720
  757MOL0     H 4449  11.199   7.127   1.151  2.5430  3.1790  3.2493
  757MOL0     H 4450  10.462   7.106   2.057  0.2662 -1.6364 -1.0171
  757MOL0     H 4451  10.510   7.254   2.243  1.2485  0.4440  2.2486
  757MOL0     H 4452  10.505   7.417   2.628 -1.3516  2.6397  1.0064
  757MOL0     H 4453  10.475   7.563   2.822 -0.4550  0.0949  1.5529
  757MOL0     H 4454  10.466   7.661   3.021  1.4257 -2.3650 -0.2311
  757MOL0     H 4455  10.304   7.639   2.964 -0.2382  0.7801  0.6821
  757MOL0     H 4456  10.220   7.635   3.209 -1.4211  0.4051 -0.6770
  757MOL0     H 4457  10.284   7.787   3.160 -0.9916 -0.6357  1.1975
  757MOL0     H 4458  10.454   7.591   3.305 -1.6891 -1.0965 -3.6862
  757MOL0     H 4459  10.494   7.763   3.260 -1.9465  0.2734 -3.0966
  757MOL0     H 4460  10.427   7.713   3.507 -2.0361  0.3106  0.4995
  757MOL0     H 4461  10.270   7.680   3.461  0.4966  0.3546 -0.4177
  757MOL0     H 4462  10.231   8.087   3.424 -2.3288 -0.8912 -2.0943
  757MOL0     H 4463  10.424   7.226   3.071  1.4831  0.2970 -0.4416
  757MOL0     H 4464  10.402   6.971   2.870 -0.6973 -1.3093  1.6340
  757MOL0     H 4465  10.580   6.984   2.870 -0.6124  0.3563  1.5076
  757MOL0     H 4466  10.495   7.008   3.016  2.8633 -3.1932 -0.2984
  758MOL0     O 4467   1.738   6.356   2.941 -0.2221 -0.6027  0.4062
  758MOL0     C 4468   1.844   6.333   2.874  1.1689 -0.4184 -0.4258
  758MOL0     O 4469   1.961   6.288   2.930  0.3797 -0.0273  0.2275
  758MOL0     C 4470   1.963   6.274   3.066  0.0777 -0.2688  0.2733
  758MOL0     C 4471   1.918   6.171   3.143  0.0057  0.9747  0.0622
  758MOL0     C 4472   1.925   6.174   3.280 -0.3833 -0.4056  0.1341
  758MOL0     C 4473   1.967   6.291   3.349 -0.4442 -0.2706  0.9152
  758MOL0     O 4474   1.962   6.319   3.485 -0.6507  0.1081 -0.2690
  758MOL0     C 4475   1.886   6.232   3.574 -0.1619 -0.5669 -0.0048
  758MOL0     C 4476   1.882   6.279   3.717  0.3941 -0.4683  1.1277
  758MOL0     C 4477   1.806   6.410   3.717  0.5635  0.7300  0.2366
  758MOL0     C 4478   1.763   6.468   3.859  0.1265  0.1996 -0.6644
  758MOL0     C 4479   1.670   6.585   3.850 -1.0052  0.1240  0.3090
  758MOL0     C 4480   1.533   6.553   3.915 -0.0680 -0.2355  0.0370
  758MOL0     C 4481   1.449   6.463   3.826 -0.4114 -0.5861 -0.2872
  758MOL0     C 4482   1.307   6.451   3.882 -0.7245  0.1562  0.9161
  758MOL0     N 4483   1.221   6.572   3.866  0.4689  0.6574 -0.3911
  758MOL0     C 4484   1.216   6.650   3.749  0.3528 -0.6457 -0.1308
  758MOL0     C 4485   1.179   6.769   3.802 -0.3518  1.2665  0.4057
  758MOL0     C 4486   1.177   6.882   3.716 -0.9903 -0.3290  0.0522
  758MOL0     C 4487   1.107   7.006   3.771 -0.2471 -0.1479 -2.0915
  758MOL0     C 4488   1.064   7.111   3.669  0.2152  0.0076  0.3114
  758MOL0     C 4489   1.173   7.205   3.617 -1.0476 -0.7216  0.0486
  758MOL0     O 4490   1.217   7.286   3.734 -0.4432 -0.6924  0.2963
  758MOL0     C 4491   1.167   7.417   3.743  0.4340  0.2389  0.3886
  758MOL0     C 4492   1.047   7.468   3.689  0.6376 -0.6087  0.1288
  758MOL0     C 4493   1.004   7.598   3.703 -0.0373 -0.0788 -0.2000
  758MOL0     C 4494   0.874   7.634   3.641 -0.8934  0.3117 -0.7353
  758MOL0     C 4495   1.080   7.687   3.785 -0.2904  0.3465  0.7937
  758MOL0     C 4496   1.037   7.830   3.810 -0.1729 -0.8479  0.4809
  758MOL0     O 4497   1.063   7.890   3.929 -0.2184 -0.1960 -0.6230
  758MOL0     C 4498   0.997   8.006   3.956  0.6279 -0.2121 -0.6456
  758MOL0     C 4499   0.877   8.063   3.895 -0.5370 -0.0489  0.2558
  758MOL0     C 4500   0.825   8.178   3.950  0.1499 -0.4713  0.0206
  758MOL0     C 4501   0.888   8.244   4.056  0.2009  0.0882 -0.5518
  758MOL0     O 4502   0.829   8.366   4.102  0.3084  0.3351 -0.9940
  758MOL0     C 4503   0.879   8.436   4.219 -0.7649  0.9621  0.0035
  758MOL0     C 4504   0.794   8.564   4.247 -0.0702  0.0347 -0.3737
  758MOL0     C 4505   0.842   8.657   4.360 -0.3201  0.8487  0.4756
  758MOL0     C 4506   0.839   8.589   4.503 -0.3639  0.3788 -0.1984
  758MOL0     C 4507   0.722   8.643   4.593 -0.1355 -0.4970  0.2309
  758MOL0     C 4508   0.689   8.549   4.701  0.7237 -0.6913 -0.2426
  758MOL0     C 4509   0.572   8.602   4.786 -0.6544 -0.2985 -0.1099
  758MOL0     C 4510   0.433   8.551   4.726 -0.0776 -0.2358 -0.1254
  758MOL0    Cl 4511   0.412   8.371   4.756  0.4238 -0.0702  0.1631
  758MOL0     C 4512   1.004   8.191   4.110 -0.0689  0.2957 -0.4704
  758MOL0     C 4513   1.052   8.068   4.060  0.2898  0.1008  0.0375
  758MOL0     O 4514   0.981   7.881   3.710 -0.6817 -0.1968 -0.4988
  758MOL0     C 4515   1.193   7.635   3.852  0.7862  0.4692  0.0360
  758MOL0     C 4516   1.237   7.508   3.831  0.7025  0.6974  0.9217
  758MOL0     N 4517   1.168   6.762   3.938 -0.2721  0.1585  0.8512
  758MOL0     N 4518   1.194   6.645   3.979 -0.6888 -0.3334  1.1422
  758MOL0     C 4519   2.015   6.395   3.267  0.5720  0.2645  0.6909
  758MOL0     C 4520   2.008   6.389   3.130  1.3372 -0.4392  0.6596
  758MOL0     C 4521   1.848   6.346   2.731 -0.5670 -0.0845  1.2620
  758MOL0     C 4522   1.965   6.307   2.659 -0.8976  0.4023  0.8635
  758MOL0     C 4523   1.963   6.290   2.522 -0.5313  1.5001 -0.1236
  758MOL0     C 4524   1.851   6.314   2.443  0.3684 -0.1366  0.4269
  758MOL0     O 4525   1.843   6.303   2.306 -0.1555  0.5534  0.3926
  758MOL0     C 4526   1.960   6.268   2.235 -0.1049  0.4455 -0.3269
  758MOL0     C 4527   2.074   6.360   2.202  0.3116 -0.6117 -0.5327
  758MOL0     C 4528   2.062   6.450   2.086  1.3790 -0.9148 -0.0412
  758MOL0     C 4529   2.197   6.524   2.066 -0.3054 -0.2415  0.0915
  758MOL0     C 4530   2.222   6.623   2.175 -1.1906  0.0007  0.1126
  758MOL0     C 4531   2.245   6.698   2.267 -0.6155 -0.1886  0.4627
  758MOL0     C 4532   1.752   6.379   2.510  0.2444  0.1114  0.1523
  758MOL0     C 4533   1.738   6.391   2.650  0.2828 -1.1057  0.4337
  758MOL0     C 4534   1.621   6.473   2.700  0.4426  0.2289 -0.7216
  758MOL0     H 4535   1.887   6.074   3.105  2.1709  1.0593 -2.0971
  758MOL0     H 4536   1.884   6.084   3.325 -1.8723 -1.0650 -2.3740
  758MOL0     H 4537   1.946   6.141   3.576  1.5986  0.5235  2.4935
  758MOL0     H 4538   1.784   6.210   3.542  0.1289 -1.0600 -0.6170
  758MOL0     H 4539   1.833   6.197   3.771  0.7105 -0.7850  0.9379
  758MOL0     H 4540   1.981   6.310   3.755  0.9807 -1.2279  0.2554
  758MOL0     H 4541   1.878   6.484   3.680 -1.4542  2.6658 -0.0675
  758MOL0     H 4542   1.718   6.402   3.653 -0.1128 -3.2293  1.3784
  758MOL0     H 4543   1.716   6.398   3.929  0.4760 -1.3197 -1.8957
  758MOL0     H 4544   1.856   6.491   3.912 -0.3100  1.8283 -0.5588
  758MOL0     H 4545   1.648   6.605   3.745  0.3737 -3.3145 -0.7700
  758MOL0     H 4546   1.712   6.676   3.895  0.0784 -1.4174  2.5960
  758MOL0     H 4547   1.549   6.507   4.013 -0.1029 -0.4410 -0.0517
  758MOL0     H 4548   1.481   6.649   3.923  0.2845 -0.1037  0.7712
  758MOL0     H 4549   1.491   6.362   3.824 -1.3761 -0.9881 -1.7922
  758MOL0     H 4550   1.440   6.501   3.724 -2.1627  1.1286  0.4364
  758MOL0     H 4551   1.254   6.384   3.814 -0.7819 -0.5719  1.6667
  758MOL0     H 4552   1.291   6.408   3.981 -1.6727 -1.2184  0.1929
  758MOL0     H 4553   1.205   6.623   3.644 -1.5288  2.4801 -0.8656
  758MOL0     H 4554   1.148   6.859   3.614  0.6436 -1.0673 -0.2738
  758MOL0     H 4555   1.280   6.915   3.702 -0.7492 -0.8121  0.6472
  758MOL0     H 4556   1.018   6.977   3.828  2.5032 -2.8735  1.3052
  758MOL0     H 4557   1.161   7.053   3.853 -1.7862  2.2115 -2.3481
  758MOL0     H 4558   1.010   7.065   3.586  0.7358 -0.9205  0.4745
  758MOL0     H 4559   0.980   7.162   3.717 -0.1928 -0.2375 -0.1268
  758MOL0     H 4560   1.256   7.156   3.566 -0.7012 -2.0795  1.7942
  758MOL0     H 4561   1.122   7.271   3.546  0.6545  0.8328  0.2114
  758MOL0     H 4562   0.974   7.405   3.639 -1.6124  2.2989 -0.5551
  758MOL0     H 4563   0.807   7.686   3.709 -0.3989 -0.1873  0.1516
  758MOL0     H 4564   0.821   7.544   3.608 -0.5017 -1.0534  2.0580
  758MOL0     H 4565   0.875   7.694   3.550 -0.4996  1.7955  0.2188
  758MOL0     H 4566   0.830   8.012   3.811  3.4587 -0.0116 -2.2361
  758MOL0     H 4567   0.741   8.218   3.893  0.2703 -3.5284 -2.5758
  758MOL0     H 4568   0.868   8.365   4.301  0.9504  0.8124  0.1402
  758MOL0     H 4569   0.985   8.458   4.205 -1.1147  2.4333 -0.5401
  758MOL0     H 4570   0.798   8.614   4.150 -1.3785 -0.4996 -0.7174
  758MOL0     H 4571   0.694   8.528   4.272 -0.7911  1.8491 -0.4556
  758MOL0     H 4572   0.786   8.750   4.359 -0.2407  0.9238 -1.4530
  758MOL0     H 4573   0.944   8.695   4.345 -0.1788  0.7155  1.0894
  758MOL0     H 4574   0.935   8.593   4.555  0.6281 -2.7113 -1.5305
  758MOL0     H 4575   0.817   8.481   4.498 -0.6734  0.3664  1.1639
  758MOL0     H 4576   0.752   8.743   4.626  1.5306 -0.3877 -1.4441
  758MOL0     H 4577   0.629   8.656   4.538  0.7633  1.8835 -0.8473
  758MOL0     H 4578   0.782   8.550   4.759  1.7713  3.9696 -1.5347
  758MOL0     H 4579   0.669   8.450   4.660  0.9471 -0.9690  0.3112
  758MOL0     H 4580   0.578   8.708   4.810  4.3400 -0.6067  1.2611
  758MOL0     H 4581   0.573   8.552   4.884 -2.7110  1.1011  0.6819
  758MOL0     H 4582   0.441   8.569   4.619  1.9386 -0.8027 -0.1078
  758MOL0     H 4583   0.350   8.604   4.773 -0.3423 -1.3608  0.7383
  758MOL0     H 4584   1.052   8.241   4.194 -0.6738  3.1973 -1.7411
  758MOL0     H 4585   1.135   8.028   4.117 -1.3008 -1.4716  1.3700
  758MOL0     H 4586   1.244   7.694   3.927  0.9600  1.5531 -0.9120
  758MOL0     H 4587   1.309   7.470   3.902 -0.0435  0.0671  1.3571
  758MOL0     H 4588   2.040   6.489   3.315 -0.6791  0.7552  0.4250
  758MOL0     H 4589   2.024   6.481   3.075 -1.3409 -1.3067 -1.7825
  758MOL0     H 4590   2.056   6.268   2.705  0.3862 -1.7837 -3.0326
  758MOL0     H 4591   2.055   6.262   2.472 -1.0088  1.0969 -0.7912
  758MOL0     H 4592   1.989   6.166   2.263  1.1570  0.4133 -1.6301
  758MOL0     H 4593   1.922   6.244   2.135  1.6642  0.2640 -1.0029
  758MOL0     H 4594   2.154   6.289   2.183 -0.2348 -1.2101 -0.6563
  758MOL0     H 4595   2.115   6.408   2.292 -0.5142 -0.6117 -0.1440
  758MOL0     H 4596   2.024   6.395   1.999 -1.7858  0.3713  0.3970
  758MOL0     H 4597   1.983   6.522   2.107  0.5123 -1.8187 -0.1090
  758MOL0     H 4598   2.189   6.589   1.979  0.0597  1.7010  1.4335
  758MOL0     H 4599   2.272   6.447   2.043 -1.0461 -0.5151 -1.5762
  758MOL0     H 4600   2.263   6.777   2.337  1.6043  2.0993 -2.4168
  758MOL0     H 4601   1.673   6.426   2.453 -2.0692 -0.9955  2.2340
  758MOL0     H 4602   1.547   6.413   2.753 -0.6614  3.9788  2.4367
  758MOL0     H 4603   1.661   6.543   2.774 -3.8253  1.4872  0.6314
  758MOL0     H 4604   1.568   6.532   2.624 -0.8040 -1.6500 -1.3769
  759MOL0     O 4605   8.580   7.918   4.640 -0.1239 -0.0984 -0.0305
  759MOL0     C 4606   8.486   7.874   4.710 -0.1515 -0.0823  0.0313
  759MOL0     O 4607   8.408   7.763   4.683  0.3067  0.1971 -0.1908
  759MOL0     C 4608   8.419   7.704   4.563  0.1113  0.6207 -0.8466
  759MOL0     C 4609   8.348   7.755   4.458 -0.6417 -0.0411  0.1030
  759MOL0     C 4610   8.342   7.688   4.338  0.0255  0.0584  1.0504
  759MOL0     C 4611   8.413   7.561   4.321 -0.1630 -0.6934 -0.0319
  759MOL0     O 4612   8.405   7.483   4.210  0.3260  0.5918  0.1058
  759MOL0     C 4613   8.317   7.522   4.103 -0.3217  0.1315  0.3126
  759MOL0     C 4614   8.392   7.628   4.012  0.4588 -0.4861  0.4290
  759MOL0     C 4615   8.279   7.681   3.924  0.0132 -0.3085 -0.3510
  759MOL0     C 4616   8.319   7.793   3.831 -0.0621  0.0431 -0.5356
  759MOL0     C 4617   8.422   7.751   3.722  0.1233  0.3449  0.2645
  759MOL0     C 4618   8.451   7.866   3.627  0.2282  0.8125 -0.1413
  759MOL0     C 4619   8.550   7.833   3.519 -1.5612  0.0540 -0.3315
  759MOL0     C 4620   8.605   7.951   3.440  0.8294  0.0644  0.0918
  759MOL0     N 4621   8.700   8.041   3.494 -0.4811 -1.0025 -0.1749
  759MOL0     C 4622   8.662   8.143   3.586 -0.0048  0.5017  0.7901
  759MOL0     C 4623   8.775   8.171   3.657  0.4156  0.5445  1.1920
  759MOL0     C 4624   8.788   8.235   3.789 -0.0223 -0.1005  0.3302
  759MOL0     C 4625   8.850   8.381   3.778  0.1182 -0.0885  0.8883
  759MOL0     C 4626   8.860   8.430   3.919 -1.0172 -0.7363 -0.1282
  759MOL0     C 4627   8.912   8.573   3.921 -0.5060  0.2425 -0.0431
  759MOL0     O 4628   8.820   8.675   3.873  0.0517  0.0193  0.0047
  759MOL0     C 4629   8.864   8.796   3.827 -0.3010  0.1820 -0.5503
  759MOL0     C 4630   8.770   8.895   3.815 -0.8299 -0.0462  0.8615
  759MOL0     C 4631   8.796   9.034   3.783  0.2432  0.5918  1.4350
  759MOL0     C 4632   8.664   9.124   3.782  0.3034  0.2472  0.0541
  759MOL0     C 4633   8.923   9.066   3.740 -0.4906  0.0127 -0.1401
  759MOL0     C 4634   8.969   9.201   3.692  0.8881 -0.3749 -0.3139
  759MOL0     O 4635   8.868   9.295   3.693  0.7226  0.4781 -0.5082
  759MOL0     C 4636   8.882   9.438   3.675 -0.5495  0.6039 -0.0403
  759MOL0     C 4637   9.003   9.505   3.644  0.1750 -0.0357  0.6223
  759MOL0     C 4638   9.001   9.640   3.625  0.7041 -0.5702 -0.0397
  759MOL0     C 4639   8.882   9.709   3.617 -0.7635  0.4725  0.1214
  759MOL0     O 4640   8.867   9.838   3.579 -0.0188 -0.3565  0.3123
  759MOL0     C 4641   8.958   9.938   3.627 -0.6232 -0.0270 -0.7822
  759MOL0     C 4642   8.891  10.075   3.642 -0.0596  0.5206  0.1800
  759MOL0     C 4643   8.994  10.170   3.683 -0.1510  0.8343  0.0900
  759MOL0     C 4644   8.947  10.307   3.719 -1.0044  0.3132 -0.0572
  759MOL0     C 4645   9.051  10.420   3.722 -0.4747  0.0651 -0.3858
  759MOL0     C 4646   9.061  10.492   3.598  0.3110 -0.0113 -0.6326
  759MOL0     C 4647   9.158  10.609   3.594  0.3507 -0.3376  0.3941
  759MOL0     C 4648   9.319  10.589   3.585 -0.0428 -0.3031 -0.2832
  759MOL0    Cl 4649   9.351  10.440   3.494  0.4346 -0.1615  0.1780
  759MOL0     C 4650   8.763   9.641   3.642 -0.1196  0.0468 -0.0156
  759MOL0     C 4651   8.758   9.503   3.669 -0.2778 -0.3718 -0.5178
  759MOL0     O 4652   9.089   9.220   3.677 -0.2516  0.7449 -0.3265
  759MOL0     C 4653   9.028   8.966   3.757 -0.6728 -0.7972  0.0741
  759MOL0     C 4654   9.000   8.835   3.799  0.3024 -0.2303 -0.4550
  759MOL0     N 4655   8.884   8.100   3.602  0.7090 -0.0331 -0.0806
  759MOL0     N 4656   8.834   8.031   3.498  0.5086  0.0094 -0.8874
  759MOL0     C 4657   8.492   7.518   4.431  0.6050  0.1113  0.0379
  759MOL0     C 4658   8.488   7.586   4.555 -0.1532  0.0411  0.5308
  759MOL0     C 4659   8.462   7.929   4.847 -0.4449 -0.3101 -0.2847
  759MOL0     C 4660   8.434   7.839   4.956  0.2976 -0.5129  0.1849
  759MOL0     C 4661   8.405   7.875   5.091  0.2724  0.3528 -0.0489
  759MOL0     C 4662   8.405   8.015   5.113 -0.1022 -0.4416  0.2017
  759MOL0     O 4663   8.397   8.062   5.244 -0.1584  0.5247 -0.2195
  759MOL0     C 4664   8.526   8.115   5.293 -0.0710 -0.0668 -0.8373
  759MOL0     C 4665   8.622   8.010   5.348 -0.0872 -0.7285 -0.4061
  759MOL0     C 4666   8.748   8.063   5.422  0.9815 -0.5498  0.2705
  759MOL0     C 4667   8.851   8.110   5.318 -0.5591  0.6838  1.0145
  759MOL0     C 4668   8.828   8.255   5.286  0.5711 -0.3782  0.0310
  759MOL0     C 4669   8.791   8.362   5.241 -0.1222 -0.1791  0.7535
  759MOL0     C 4670   8.424   8.102   5.004 -0.4506 -0.3310  0.0535
  759MOL0     C 4671   8.464   8.063   4.874  0.3367  0.7137 -0.8804
  759MOL0     C 4672   8.504   8.165   4.774 -0.4095 -0.6091 -0.8392
  759MOL0     H 4673   8.311   7.856   4.468 -0.7314  0.2067 -2.2429
  759MOL0     H 4674   8.289   7.740   4.259 -1.1017 -1.9991  0.3751
  759MOL0     H 4675   8.220   7.557   4.139 -1.4273 -2.5638  0.1764
  759MOL0     H 4676   8.310   7.430   4.044  1.0403  1.1267 -1.5049
  759MOL0     H 4677   8.443   7.713   4.060  1.2698 -0.3066 -0.6846
  759MOL0     H 4678   8.466   7.575   3.951 -0.7442  0.9408 -2.4899
  759MOL0     H 4679   8.226   7.603   3.869 -0.9402  0.7786 -0.9985
  759MOL0     H 4680   8.201   7.722   3.988  1.3348 -1.1288  1.9194
  759MOL0     H 4681   8.232   7.823   3.773  0.9895  1.1502 -1.5989
  759MOL0     H 4682   8.344   7.882   3.889 -2.8742  0.7400 -0.2675
  759MOL0     H 4683   8.374   7.675   3.660 -1.8099  0.3682  1.6441
  759MOL0     H 4684   8.517   7.720   3.766  0.0189  0.5237  0.6210
  759MOL0     H 4685   8.366   7.915   3.577 -1.6722 -2.4174 -0.3095
  759MOL0     H 4686   8.488   7.931   3.707 -1.0739  1.2066  0.1748
  759MOL0     H 4687   8.501   7.766   3.447 -0.0371 -3.2442  1.4806
  759MOL0     H 4688   8.634   7.783   3.568 -0.4784 -0.2344 -2.3909
  759MOL0     H 4689   8.661   7.895   3.364  0.8455 -0.3249  0.3858
  759MOL0     H 4690   8.522   8.010   3.400 -0.3067 -0.5362  1.4673
  759MOL0     H 4691   8.562   8.182   3.598  0.3190  2.2032 -1.4205
  759MOL0     H 4692   8.869   8.178   3.836  0.3022  0.3150  0.2902
  759MOL0     H 4693   8.699   8.233   3.852 -1.3604 -1.4016 -1.5071
  759MOL0     H 4694   8.943   8.367   3.722 -2.4351 -2.2885 -3.3448
  759MOL0     H 4695   8.790   8.455   3.724  0.4021 -0.5874 -0.1450
  759MOL0     H 4696   8.759   8.431   3.961 -1.2561  0.0601 -0.6924
  759MOL0     H 4697   8.923   8.368   3.983 -1.0534 -1.2213 -0.5536
  759MOL0     H 4698   8.939   8.599   4.023 -0.1184  1.8251 -0.5065
  759MOL0     H 4699   9.010   8.566   3.873  0.5489 -4.6788  2.2959
  759MOL0     H 4700   8.666   8.867   3.829 -0.9148 -0.2295 -0.0641
  759MOL0     H 4701   8.689   9.221   3.824 -2.9833  0.9016  0.7620
  759MOL0     H 4702   8.589   9.073   3.844 -0.1460  0.0009 -0.6812
  759MOL0     H 4703   8.616   9.134   3.684 -0.2853 -1.5744  0.1070
  759MOL0     H 4704   9.099   9.453   3.644 -1.5194 -3.4162  0.4964
  759MOL0     H 4705   9.096   9.689   3.605  1.2298 -1.3528  0.4394
  759MOL0     H 4706   8.991   9.909   3.727  0.3684 -0.3074 -1.1814
  759MOL0     H 4707   9.045   9.944   3.562 -2.5783 -3.0809 -4.0339
  759MOL0     H 4708   8.845  10.105   3.547 -0.5221 -0.7335 -0.0202
  759MOL0     H 4709   8.817  10.077   3.721  1.1049  0.6175  1.2979
  759MOL0     H 4710   9.066  10.167   3.601  0.0224 -0.9761  0.2731
  759MOL0     H 4711   9.046  10.123   3.766 -3.2999 -1.2690  1.0724
  759MOL0     H 4712   8.907  10.308   3.821  1.8377 -1.2274  1.1888
  759MOL0     H 4713   8.874  10.338   3.644  0.0033 -1.6217 -1.9579
  759MOL0     H 4714   9.025  10.500   3.792 -1.1419 -0.7235  0.2964
  759MOL0     H 4715   9.146  10.370   3.744  0.0230 -1.0781 -4.3432
  759MOL0     H 4716   8.964  10.539   3.579  0.3688  0.3534 -0.0707
  759MOL0     H 4717   9.075  10.429   3.511 -2.5114 -2.3720  0.4531
  759MOL0     H 4718   9.137  10.673   3.680 -0.0237 -1.7092  1.3524
  759MOL0     H 4719   9.138  10.663   3.501  2.3587  0.1728  0.1985
  759MOL0     H 4720   9.355  10.566   3.685 -0.9567 -0.8973 -0.0740
  759MOL0     H 4721   9.379  10.670   3.543 -2.6834  0.9760 -1.8818
  759MOL0     H 4722   8.671   9.698   3.631 -2.9825 -4.1433 -0.2276
  759MOL0     H 4723   8.670   9.440   3.668 -0.3146 -0.3418  0.1336
  759MOL0     H 4724   9.127   8.987   3.717 -0.2256 -3.3452 -0.3427
  759MOL0     H 4725   9.080   8.762   3.804  0.8457  0.3642 -0.3362
  759MOL0     H 4726   8.541   7.422   4.425 -0.6931 -0.4844 -3.1572
  759MOL0     H 4727   8.549   7.537   4.631  1.2904  1.4606  0.3531
  759MOL0     H 4728   8.429   7.736   4.922 -0.3343  0.4619 -3.0087
  759MOL0     H 4729   8.373   7.805   5.167 -1.9410  0.5323 -0.7463
  759MOL0     H 4730   8.573   8.174   5.214  0.5940 -2.6832 -2.5405
  759MOL0     H 4731   8.500   8.186   5.372  0.7592 -0.7032  0.0183
  759MOL0     H 4732   8.670   7.952   5.269  1.5697 -1.8670  1.3373
  759MOL0     H 4733   8.560   7.941   5.406 -0.4055  0.4154  0.6626
  759MOL0     H 4734   8.730   8.134   5.503  0.8729 -3.3709  2.8929
  759MOL0     H 4735   8.799   7.980   5.472  0.2628 -1.2406 -0.1301
  759MOL0     H 4736   8.840   8.055   5.224  2.1990 -0.2641  1.1738
  759MOL0     H 4737   8.954   8.104   5.353  0.0771  2.1684 -0.4587
  759MOL0     H 4738   8.770   8.454   5.192 -0.1774 -0.8362 -0.5015
  759MOL0     H 4739   8.413   8.206   5.029 -1.1956 -0.7655  1.6224
  759MOL0     H 4740   8.612   8.153   4.762 -0.0877 -0.7482  1.6144
  759MOL0     H 4741   8.449   8.165   4.680  0.0818 -0.7128 -1.1276
  759MOL0     H 4742   8.487   8.267   4.810  0.3867 -0.6904 -0.2071
  760MOL0     O 4743   3.312   6.270   1.776  0.9179 -0.2746 -0.7795
  760MOL0     C 4744   3.270   6.236   1.663  0.2397 -0.2604 -0.1234
  760MOL0     O 4745   3.240   6.107   1.626 -0.3752 -0.0485  0.1069
  760MOL0     C 4746   3.269   6.005   1.716 -0.2635 -0.5239 -0.3482
  760MOL0     C 4747   3.180   5.978   1.817 -0.5856 -0.3652 -0.3527
  760MOL0     C 4748   3.209   5.878   1.912  0.4870  0.2540  0.7435
  760MOL0     C 4749   3.334   5.814   1.905 -0.1457 -0.0237  0.6653
  760MOL0     O 4750   3.371   5.725   1.994 -0.1644 -0.3550 -0.3632
  760MOL0     C 4751   3.458   5.773   2.089  0.9661  0.0665  0.1169
  760MOL0     C 4752   3.485   5.663   2.187 -0.4342  0.4044  0.4802
  760MOL0     C 4753   3.345   5.627   2.244 -0.7396  0.2280  1.1380
  760MOL0     C 4754   3.304   5.724   2.358 -1.0079  0.7593 -0.0012
  760MOL0     C 4755   3.206   5.669   2.460 -0.7774  0.0458  0.4766
  760MOL0     C 4756   3.198   5.746   2.587  0.2600 -0.2892  0.6252
  760MOL0     C 4757   3.117   5.676   2.689 -0.4732 -0.6649  0.5268
  760MOL0     C 4758   2.969   5.717   2.659  0.4222 -0.8177  0.4943
  760MOL0     N 4759   2.862   5.634   2.711 -0.0303  0.3861 -0.1893
  760MOL0     C 4760   2.888   5.528   2.792  0.0848 -0.5731  0.2606
  760MOL0     C 4761   2.757   5.488   2.814  0.3730 -0.0366 -0.1565
  760MOL0     C 4762   2.715   5.386   2.918 -0.2242  0.0927 -0.6674
  760MOL0     C 4763   2.717   5.473   3.044  0.5018  0.0251 -0.6560
  760MOL0     C 4764   2.755   5.392   3.173 -0.6937  0.1438 -0.4327
  760MOL0     C 4765   2.895   5.324   3.189 -0.5612 -0.5894  0.1703
  760MOL0     O 4766   2.992   5.428   3.172 -0.0321  0.4047  0.2587
  760MOL0     C 4767   3.072   5.482   3.271 -0.5058 -0.1905  0.3035
  760MOL0     C 4768   3.051   5.447   3.405 -0.0162 -0.9532  0.2044
  760MOL0     C 4769   3.124   5.507   3.513  0.8844  0.0507  0.2612
  760MOL0     C 4770   3.092   5.465   3.654 -0.7946 -0.7255 -0.1828
  760MOL0     C 4771   3.221   5.607   3.479  0.2028 -0.0834 -0.2088
  760MOL0     C 4772   3.305   5.674   3.581  0.1128 -1.1497  0.4718
  760MOL0     O 4773   3.307   5.811   3.565 -0.0731  0.1446  0.7843
  760MOL0     C 4774   3.369   5.890   3.664  0.4012  0.1060 -0.0214
  760MOL0     C 4775   3.318   5.893   3.785  0.1743  0.2912  0.6529
  760MOL0     C 4776   3.380   5.970   3.880 -0.9843  0.1080  0.2971
  760MOL0     C 4777   3.484   6.059   3.853 -0.0778  0.5935  0.9622
  760MOL0     O 4778   3.546   6.132   3.955  0.2696  0.6204 -0.2708
  760MOL0     C 4779   3.465   6.237   4.014  0.9066  0.4084 -0.0008
  760MOL0     C 4780   3.541   6.349   4.074  0.5147  0.2525  0.5898
  760MOL0     C 4781   3.618   6.426   3.975  0.2185 -0.4768  0.7999
  760MOL0     C 4782   3.541   6.523   3.892 -0.7234 -0.8474  0.7465
  760MOL0     C 4783   3.588   6.531   3.749 -0.4941  0.1664 -0.1434
  760MOL0     C 4784   3.536   6.423   3.652  0.6742  0.4322 -0.8408
  760MOL0     C 4785   3.381   6.405   3.661 -0.6094 -0.0316 -0.5556
  760MOL0     C 4786   3.341   6.328   3.528 -0.4710 -0.1435 -0.7783
  760MOL0    Cl 4787   3.179   6.265   3.562  0.0944 -0.2130  0.1902
  760MOL0     C 4788   3.538   6.056   3.726 -0.3755 -0.6725  0.3804
  760MOL0     C 4789   3.473   5.976   3.628  0.0797 -0.0893  0.3330
  760MOL0     O 4790   3.356   5.607   3.673  0.2096  0.1062 -1.3369
  760MOL0     C 4791   3.257   5.627   3.349  0.6903  0.4723  0.4594
  760MOL0     C 4792   3.173   5.576   3.245  0.3011 -0.7142 -0.3431
  760MOL0     N 4793   2.662   5.564   2.751 -0.2265 -1.0380 -0.6793
  760MOL0     N 4794   2.735   5.659   2.691 -0.0376  0.2572 -0.2719
  760MOL0     C 4795   3.420   5.841   1.797 -0.5531 -1.0388  0.0332
  760MOL0     C 4796   3.385   5.936   1.704 -0.3959  0.8102 -0.3057
  760MOL0     C 4797   3.236   6.346   1.572 -0.9007  0.0273 -0.0314
  760MOL0     C 4798   3.118   6.331   1.495 -0.1722 -0.6055  0.2548
  760MOL0     C 4799   3.081   6.431   1.397 -1.6453 -0.9826  0.6664
  760MOL0     C 4800   3.154   6.552   1.399 -0.1279 -0.2316 -0.5701
  760MOL0     O 4801   3.129   6.632   1.294 -0.2327  0.3957 -0.2443
  760MOL0     C 4802   3.004   6.711   1.298  0.3588  0.0009  0.3842
  760MOL0     C 4803   3.001   6.842   1.223  0.2020 -0.3274  0.4617
  760MOL0     C 4804   2.894   6.932   1.298 -0.2163  0.2378 -0.1448
  760MOL0     C 4805   2.866   7.065   1.233 -0.2997  0.0889  0.4482
  760MOL0     C 4806   2.805   7.055   1.100  0.2548  1.5399  0.8036
  760MOL0     C 4807   2.774   7.022   0.987 -0.5623 -0.5479 -0.6447
  760MOL0     C 4808   3.275   6.563   1.461  0.0609  1.2982 -0.7532
  760MOL0     C 4809   3.315   6.460   1.553 -0.0294  0.5222 -0.1347
  760MOL0     C 4810   3.450   6.481   1.620  0.4319  0.1450  0.3719
  760MOL0     H 4811   3.089   6.036   1.824  0.9620  2.2496 -0.3227
  760MOL0     H 4812   3.139   5.855   1.992  0.6755 -0.5299  0.6913
  760MOL0     H 4813   3.419   5.858   2.147  0.4440 -0.0813 -0.0174
  760MOL0     H 4814   3.542   5.817   2.034 -0.7485  1.2614 -1.6884
  760MOL0     H 4815   3.524   5.574   2.137 -1.2124  0.9801 -1.2464
  760MOL0     H 4816   3.558   5.695   2.261  2.8780  1.0647 -2.7857
  760MOL0     H 4817   3.265   5.627   2.169  1.3164  1.9365 -1.2278
  760MOL0     H 4818   3.348   5.525   2.283 -2.4265 -0.5761 -0.6545
  760MOL0     H 4819   3.393   5.753   2.414 -0.6604 -1.1536  0.4787
  760MOL0     H 4820   3.266   5.818   2.315  2.0366  1.2412 -1.9380
  760MOL0     H 4821   3.237   5.568   2.488  0.3598  0.0597 -0.6269
  760MOL0     H 4822   3.105   5.655   2.421 -0.5411  0.2588 -0.2478
  760MOL0     H 4823   3.299   5.738   2.627  0.6428  1.1048 -0.0205
  760MOL0     H 4824   3.171   5.851   2.585 -1.1405 -0.4289  4.1305
  760MOL0     H 4825   3.151   5.720   2.783  0.7065  0.3120 -0.3274
  760MOL0     H 4826   3.128   5.567   2.692  1.3775 -0.5033  2.9340
  760MOL0     H 4827   2.950   5.813   2.708  0.4916 -0.2010 -0.6353
  760MOL0     H 4828   2.945   5.722   2.552  3.4716  0.1501 -0.2635
  760MOL0     H 4829   2.990   5.502   2.816  1.4009 -2.3332 -5.5630
  760MOL0     H 4830   2.785   5.303   2.918 -1.1799 -0.8130  1.7438
  760MOL0     H 4831   2.618   5.343   2.892 -1.9932  1.3124  3.1384
  760MOL0     H 4832   2.778   5.563   3.039 -0.3529  0.6994  0.5159
  760MOL0     H 4833   2.615   5.503   3.068  1.4170  1.6127  1.6958
  760MOL0     H 4834   2.746   5.464   3.255  1.4029  0.5873 -0.5315
  760MOL0     H 4835   2.675   5.317   3.172  0.3376 -0.9931 -2.3689
  760MOL0     H 4836   2.910   5.282   3.289 -0.5417 -0.8320  0.0648
  760MOL0     H 4837   2.913   5.246   3.115 -0.8909  2.9488 -4.0657
  760MOL0     H 4838   2.982   5.372   3.442 -2.7340  0.5669 -1.4512
  760MOL0     H 4839   3.190   5.433   3.691  0.1058  2.0406  0.0473
  760MOL0     H 4840   3.042   5.368   3.648  0.9174 -1.8437  1.9173
  760MOL0     H 4841   3.035   5.536   3.715 -1.7798  0.0000 -1.8848
  760MOL0     H 4842   3.225   5.842   3.812  0.8489 -1.9942 -1.0019
  760MOL0     H 4843   3.360   5.972   3.986  0.7229 -3.6699  0.8660
  760MOL0     H 4844   3.396   6.282   3.943  0.8654  3.2634  1.6738
  760MOL0     H 4845   3.414   6.193   4.100  2.0239 -3.0236 -0.9255
  760MOL0     H 4846   3.473   6.421   4.119 -1.9410 -0.0881 -2.2366
  760MOL0     H 4847   3.606   6.306   4.151 -0.1795  1.0576  1.6484
  760MOL0     H 4848   3.667   6.352   3.910 -1.9568  0.4369 -2.0597
  760MOL0     H 4849   3.698   6.473   4.033  1.1484 -1.3587  0.2678
  760MOL0     H 4850   3.574   6.615   3.941  0.8621 -0.2677 -1.2250
  760MOL0     H 4851   3.435   6.496   3.894 -0.7428 -0.7368  1.2141
  760MOL0     H 4852   3.542   6.622   3.711 -2.3176 -0.3914  0.6358
  760MOL0     H 4853   3.698   6.533   3.750 -0.3626 -2.0057  2.6142
  760MOL0     H 4854   3.586   6.331   3.682  0.9144  0.8478  0.0625
  760MOL0     H 4855   3.560   6.432   3.545 -2.0869 -2.0948 -1.8034
  760MOL0     H 4856   3.334   6.504   3.657 -0.8172 -0.1635 -1.5830
  760MOL0     H 4857   3.337   6.351   3.745 -2.2069  0.6966 -0.8743
  760MOL0     H 4858   3.411   6.254   3.488 -0.7373 -0.6287 -0.3702
  760MOL0     H 4859   3.339   6.411   3.458 -1.0625  2.8079  2.4640
  760MOL0     H 4860   3.626   6.110   3.692  0.6412 -0.1718  3.5450
  760MOL0     H 4861   3.517   5.985   3.529  0.7229  1.9264  0.7648
  760MOL0     H 4862   3.337   5.696   3.325 -1.0670  3.0024  1.4697
  760MOL0     H 4863   3.182   5.584   3.137  2.7352 -1.8138 -0.2954
  760MOL0     H 4864   3.511   5.783   1.789  0.0253 -0.1954  0.3194
  760MOL0     H 4865   3.460   5.959   1.629  0.8703  0.0957  0.6874
  760MOL0     H 4866   3.067   6.235   1.495 -1.7457  0.1837 -0.4564
  760MOL0     H 4867   3.010   6.413   1.318  2.5807 -4.3133 -2.9003
  760MOL0     H 4868   2.932   6.644   1.250 -0.3373  2.1333 -1.7689
  760MOL0     H 4869   2.974   6.726   1.402 -0.5528 -0.3796  0.1826
  760MOL0     H 4870   2.975   6.820   1.119  3.1488 -0.6702 -0.2885
  760MOL0     H 4871   3.098   6.891   1.218  0.9365 -1.7936 -3.0653
  760MOL0     H 4872   2.797   6.883   1.306 -0.2081 -0.4676 -3.3531
  760MOL0     H 4873   2.929   6.953   1.400  0.6795 -1.3341 -0.1108
  760MOL0     H 4874   2.967   7.105   1.226  0.4692 -1.9992 -2.3650
  760MOL0     H 4875   2.801   7.122   1.300 -0.6578  0.3947 -0.1524
  760MOL0     H 4876   2.760   6.984   0.888  2.9960 -3.8461 -0.1449
  760MOL0     H 4877   3.338   6.651   1.450 -1.3962  2.2260 -1.9060
  760MOL0     H 4878   3.505   6.385   1.621  1.3575  0.5159 -3.1976
  760MOL0     H 4879   3.505   6.559   1.567  0.6056 -0.3838 -0.2398
  760MOL0     H 4880   3.434   6.513   1.723 -0.4257  2.2282 -0.3649
  761MOL0     O 4881   0.282   6.108   5.499  0.6655  0.0485 -0.6097
  761MOL0     C 4882   0.338   6.042   5.411  0.6852 -0.3283 -0.3579
  761MOL0     O 4883   0.317   6.064   5.277  0.1544  0.0298 -0.1416
  761MOL0     C 4884   0.222   6.149   5.242  0.4730 -0.1596 -0.2998
  761MOL0     C 4885   0.122   6.100   5.159 -0.9245 -0.5904 -0.3545
  761MOL0     C 4886   0.007   6.171   5.118 -0.4834 -0.5447  0.9018
  761MOL0     C 4887  -0.020   6.292   5.174  0.2922 -0.2230 -0.1962
  761MOL0     O 4888  -0.142   6.342   5.141 -0.7113 -0.4983  0.8587
  761MOL0     C 4889  -0.187   6.473   5.187 -0.1567 -0.4002  0.1380
  761MOL0     C 4890  -0.331   6.496   5.151  0.0129  0.7451 -0.4737
  761MOL0     C 4891  -0.403   6.602   5.224 -0.1067 -0.7399  0.5107
  761MOL0     C 4892  -0.422   6.574   5.372 -0.4098  0.8424  0.9202
  761MOL0     C 4893  -0.552   6.617   5.435  0.4435 -0.1671  0.3271
  761MOL0     C 4894  -0.550   6.772   5.458  0.4735  0.8753 -0.4536
  761MOL0     C 4895  -0.683   6.824   5.502 -0.2187  0.5754  0.3661
  761MOL0     C 4896  -0.691   6.977   5.527 -0.1636 -0.8320  0.1032
  761MOL0     N 4897  -0.820   7.046   5.538 -0.0148  0.0603  0.5277
  761MOL0     C 4898  -0.923   7.017   5.621 -0.3408  0.2663  0.3051
  761MOL0     C 4899  -1.022   7.080   5.573 -0.1130 -0.1280  0.5974
  761MOL0     C 4900  -1.165   7.068   5.617 -0.3397 -0.6542  0.0580
  761MOL0     C 4901  -1.228   6.954   5.542  0.3541  0.2786  1.0403
  761MOL0     C 4902  -1.380   6.950   5.563  0.5921 -0.9206 -0.2382
  761MOL0     C 4903  -1.442   6.830   5.495 -0.1134 -0.5329  0.0689
  761MOL0     O 4904  -1.400   6.807   5.356  0.7081  0.3236 -1.0948
  761MOL0     C 4905  -1.476   6.710   5.291  0.1845 -0.3162  0.3366
  761MOL0     C 4906  -1.451   6.696   5.152 -0.0784 -1.2090 -0.3580
  761MOL0     C 4907  -1.499   6.591   5.071  0.1262 -0.7138 -0.0446
  761MOL0     C 4908  -1.444   6.598   4.932 -1.6149  0.5374 -0.3242
  761MOL0     C 4909  -1.586   6.495   5.132  0.2069 -1.0972  1.5594
  761MOL0     C 4910  -1.649   6.388   5.047  0.6965  0.3383 -0.0627
  761MOL0     O 4911  -1.572   6.340   4.955 -0.5699 -0.4220 -1.4479
  761MOL0     C 4912  -1.628   6.249   4.874  1.2110 -0.5741 -0.1958
  761MOL0     C 4913  -1.710   6.289   4.770 -0.0586 -0.4682  0.0127
  761MOL0     C 4914  -1.787   6.197   4.698  0.3531  0.4482  0.4871
  761MOL0     C 4915  -1.751   6.061   4.706 -0.0318  0.4175  0.1590
  761MOL0     O 4916  -1.810   5.978   4.625 -0.3987  0.6457 -0.1987
  761MOL0     C 4917  -1.811   5.839   4.683  0.1743  0.9954 -0.2912
  761MOL0     C 4918  -1.910   5.738   4.607 -0.9213 -0.6335 -0.5731
  761MOL0     C 4919  -1.904   5.729   4.451  0.5731 -0.7877 -0.3062
  761MOL0     C 4920  -2.028   5.628   4.407 -0.0668  0.1222 -0.2856
  761MOL0     C 4921  -2.020   5.596   4.261  0.4668  0.7246 -0.0334
  761MOL0     C 4922  -1.909   5.507   4.226  0.2555  0.0015 -0.3351
  761MOL0     C 4923  -1.899   5.500   4.073 -0.6009  0.2849 -1.1250
  761MOL0     C 4924  -1.791   5.403   4.040 -0.1239  0.1168  0.7412
  761MOL0    Cl 4925  -1.801   5.364   3.865  0.1050  0.3170 -0.2778
  761MOL0     C 4926  -1.658   6.026   4.805 -0.9532  0.2634 -0.2537
  761MOL0     C 4927  -1.598   6.117   4.895  0.4679 -0.0479  0.0943
  761MOL0     O 4928  -1.765   6.352   5.072 -0.9586  0.1460  0.7849
  761MOL0     C 4929  -1.616   6.512   5.269  0.2069  0.5682  0.9539
  761MOL0     C 4930  -1.560   6.615   5.346 -0.0850  0.5932  1.4091
  761MOL0     N 4931  -0.985   7.142   5.456 -1.3020  0.0399  0.4701
  761MOL0     N 4932  -0.863   7.120   5.435 -0.0883  0.0357  0.1788
  761MOL0     C 4933   0.076   6.353   5.260  0.0761 -0.3163  0.4198
  761MOL0     C 4934   0.195   6.280   5.297  0.3895  0.1717  0.6536
  761MOL0     C 4935   0.425   5.928   5.454 -0.1504  0.1121  0.3701
  761MOL0     C 4936   0.499   5.864   5.348  0.4269 -0.1751 -0.3854
  761MOL0     C 4937   0.573   5.752   5.385 -0.4171 -0.6095 -0.0111
  761MOL0     C 4938   0.580   5.695   5.514 -0.6814  0.0765 -0.4820
  761MOL0     O 4939   0.642   5.571   5.546 -0.2247 -0.0167 -0.5116
  761MOL0     C 4940   0.755   5.535   5.471 -0.3329 -0.4182  0.1101
  761MOL0     C 4941   0.882   5.617   5.493  0.1169  0.0761 -0.4226
  761MOL0     C 4942   1.001   5.562   5.413 -1.1288 -0.1848 -0.5654
  761MOL0     C 4943   1.135   5.609   5.485  0.6438 -0.5265 -0.2960
  761MOL0     C 4944   1.175   5.746   5.453  0.2762  0.5224  0.9960
  761MOL0     C 4945   1.212   5.867   5.438  0.2937  0.6402  1.0174
  761MOL0     C 4946   0.504   5.761   5.608  0.2676  0.3212 -0.6056
  761MOL0     C 4947   0.424   5.878   5.585  0.3656 -0.0932 -0.4802
  761MOL0     C 4948   0.337   5.918   5.695  0.3566 -0.5423 -0.1285
  761MOL0     H 4949   0.139   6.003   5.114 -0.7063  0.6069 -3.0351
  761MOL0     H 4950  -0.054   6.125   5.041 -0.9428 -0.9588  1.5086
  761MOL0     H 4951  -0.115   6.544   5.144  1.2588 -1.0955  1.2487
  761MOL0     H 4952  -0.175   6.466   5.296 -1.7410 -3.0146  0.2157
  761MOL0     H 4953  -0.325   6.530   5.048  3.1537  1.4167 -0.1653
  761MOL0     H 4954  -0.392   6.405   5.157 -1.1760  1.5506  0.1958
  761MOL0     H 4955  -0.342   6.692   5.219  0.0071 -0.7014  2.0194
  761MOL0     H 4956  -0.498   6.626   5.176  0.7397  3.2241  0.4821
  761MOL0     H 4957  -0.426   6.466   5.390 -1.7460  0.5775 -0.7317
  761MOL0     H 4958  -0.340   6.619   5.428  2.0578 -3.3759  1.1328
  761MOL0     H 4959  -0.561   6.572   5.534 -0.0022 -3.3501 -1.0280
  761MOL0     H 4960  -0.627   6.585   5.361  1.1473 -0.6340 -0.1947
  761MOL0     H 4961  -0.469   6.799   5.525  3.1891 -0.3560 -3.0234
  761MOL0     H 4962  -0.515   6.812   5.362 -1.2834 -1.6069 -2.2662
  761MOL0     H 4963  -0.716   6.769   5.591 -1.6937  0.1459 -0.4234
  761MOL0     H 4964  -0.757   6.797   5.427  2.2002 -1.9927 -1.2606
  761MOL0     H 4965  -0.633   7.004   5.616 -3.0247  1.8317  1.3322
  761MOL0     H 4966  -0.650   7.035   5.444 -2.5411 -0.5740 -0.9591
  761MOL0     H 4967  -0.935   6.949   5.705 -0.2206  2.6436  2.3785
  761MOL0     H 4968  -1.205   7.164   5.584  2.4260 -0.3875 -3.0946
  761MOL0     H 4969  -1.170   7.036   5.721  5.0981 -1.4842  0.3373
  761MOL0     H 4970  -1.213   6.957   5.434 -1.6329  1.7295  0.7504
  761MOL0     H 4971  -1.194   6.857   5.578 -1.3088 -0.5863  0.3755
  761MOL0     H 4972  -1.412   6.946   5.668 -1.5365  0.1390 -0.7897
  761MOL0     H 4973  -1.423   7.037   5.513  2.3543  0.6159  0.8104
  761MOL0     H 4974  -1.406   6.746   5.554 -0.9799 -0.2937  0.9565
  761MOL0     H 4975  -1.551   6.843   5.491 -0.2606 -1.8729 -3.0506
  761MOL0     H 4976  -1.384   6.771   5.112  0.2023 -0.2814  1.7600
  761MOL0     H 4977  -1.355   6.659   4.915 -0.4912 -0.7897  0.5899
  761MOL0     H 4978  -1.512   6.640   4.857 -1.0880 -1.0505 -1.7470
  761MOL0     H 4979  -1.414   6.497   4.903 -2.2538 -0.1219  1.1892
  761MOL0     H 4980  -1.705   6.397   4.756 -1.4289 -0.0500  2.2399
  761MOL0     H 4981  -1.867   6.220   4.628 -0.9765 -0.5405  1.6290
  761MOL0     H 4982  -1.715   5.792   4.662 -0.1706  0.4073 -0.5704
  761MOL0     H 4983  -1.836   5.844   4.789  0.7326 -0.4665 -0.0764
  761MOL0     H 4984  -1.885   5.639   4.648  2.1984 -0.1770 -1.1072
  761MOL0     H 4985  -2.011   5.759   4.643 -0.8486 -2.5633  0.9465
  761MOL0     H 4986  -1.811   5.691   4.408  0.5494  0.7929 -1.8782
  761MOL0     H 4987  -1.909   5.825   4.400  3.5467 -0.6209 -0.4750
  761MOL0     H 4988  -2.124   5.675   4.430  0.1242  1.2910 -1.6839
  761MOL0     H 4989  -2.016   5.536   4.464 -1.7742 -2.6835 -4.0634
  761MOL0     H 4990  -2.120   5.555   4.245  0.4007 -0.0679  2.0793
  761MOL0     H 4991  -2.019   5.689   4.203  2.9255  1.4065  0.9743
  761MOL0     H 4992  -1.937   5.413   4.274 -2.4501  0.9511  0.0903
  761MOL0     H 4993  -1.816   5.554   4.260 -2.7397  4.6915  2.6284
  761MOL0     H 4994  -1.875   5.603   4.047  0.7300  1.1929  2.9305
  761MOL0     H 4995  -1.996   5.470   4.033 -1.3302  3.3593 -1.9007
  761MOL0     H 4996  -1.805   5.311   4.098  2.3910 -1.6240 -1.1969
  761MOL0     H 4997  -1.689   5.440   4.055 -0.3343  0.7243  0.7097
  761MOL0     H 4998  -1.624   5.922   4.809  0.6213  0.7506  3.5852
  761MOL0     H 4999  -1.521   6.089   4.967  0.5648 -1.7133 -0.6321
  761MOL0     H 5000  -1.688   6.444   5.312 -1.9146  2.7634  1.1191
  761MOL0     H 5001  -1.575   6.611   5.454  2.7468  6.0692  2.3504
  761MOL0     H 5002   0.055   6.457   5.284 -2.8970  0.2011 -3.3826
  761MOL0     H 5003   0.258   6.319   5.376 -0.2168  1.0959  0.6983
  761MOL0     H 5004   0.499   5.890   5.243  1.1167 -0.6785 -0.5196
  761MOL0     H 5005   0.626   5.712   5.299 -1.2484  1.5254 -1.6146
  761MOL0     H 5006   0.759   5.432   5.508  0.9609 -0.8304 -1.0774
  761MOL0     H 5007   0.748   5.525   5.363  3.6200  0.6311 -0.4145
  761MOL0     H 5008   0.910   5.618   5.599  2.1643  1.2729 -0.9138
  761MOL0     H 5009   0.861   5.722   5.470 -1.3361  1.0460  4.3236
  761MOL0     H 5010   0.996   5.453   5.416  0.7004 -0.2931  0.0798
  761MOL0     H 5011   0.999   5.585   5.306  2.8644  0.8636 -0.5692
  761MOL0     H 5012   1.208   5.552   5.426 -0.4431 -0.8046 -1.4289
  761MOL0     H 5013   1.132   5.588   5.592 -0.0975 -3.0550 -0.7445
  761MOL0     H 5014   1.247   5.958   5.392  1.8498 -0.7449 -0.7094
  761MOL0     H 5015   0.505   5.716   5.707 -0.8421 -0.0805 -0.7590
  761MOL0     H 5016   0.339   6.023   5.726 -0.7200 -0.2119 -1.0796
  761MOL0     H 5017   0.231   5.897   5.674 -0.6456  0.1107  3.5503
  761MOL0     H 5018   0.365   5.854   5.779 -1.4119  0.8084  1.5938
  762MOL0     O 5019   6.051   5.173   9.151  0.5117 -0.1708  0.2558
  762MOL0     C 5020   6.136   5.235   9.097 -0.1048 -0.3950 -0.0145
  762MOL0     O 5021   6.138   5.374   9.076 -0.5398 -0.1923 -0.1477
  762MOL0     C 5022   6.026   5.444   9.101 -0.3493  0.0113 -0.6817
  762MOL0     C 5023   5.973   5.459   9.231 -1.2898 -0.2629 -0.4758
  762MOL0     C 5024   5.867   5.547   9.266 -0.3306  0.2644  0.4129
  762MOL0     C 5025   5.804   5.616   9.154 -0.0950  0.5533  0.7367
  762MOL0     O 5026   5.704   5.710   9.178 -0.2452  0.4510 -0.2049
  762MOL0     C 5027   5.614   5.740   9.069  0.3809  0.5995 -0.1286
  762MOL0     C 5028   5.519   5.621   9.033  0.2853  0.1788 -0.5713
  762MOL0     C 5029   5.417   5.663   8.935  1.2022  0.9359  0.5525
  762MOL0     C 5030   5.318   5.552   8.897 -0.9885  0.1125 -0.4111
  762MOL0     C 5031   5.208   5.600   8.792  0.3480  0.7316  0.2103
  762MOL0     C 5032   5.105   5.484   8.785  0.1399  0.1976  1.1008
  762MOL0     C 5033   4.976   5.521   8.710 -0.5853  0.5758  0.1586
  762MOL0     C 5034   4.983   5.583   8.563 -0.0608 -0.2954 -0.1658
  762MOL0     N 5035   5.053   5.476   8.474  0.3050  0.6463 -0.6139
  762MOL0     C 5036   5.006   5.345   8.465  0.7918 -0.1215  0.1957
  762MOL0     C 5037   5.097   5.289   8.378  0.3670  0.9470 -0.0842
  762MOL0     C 5038   5.083   5.150   8.324 -0.4467 -0.0255  0.0856
  762MOL0     C 5039   5.037   5.146   8.177 -0.0609 -1.4429  0.4486
  762MOL0     C 5040   5.037   5.010   8.125 -0.7622 -0.3053  0.0478
  762MOL0     C 5041   5.166   4.930   8.106  0.1815 -0.5664 -0.2954
  762MOL0     O 5042   5.249   5.007   8.029 -0.0504  0.6829  0.1017
  762MOL0     C 5043   5.350   4.947   7.958 -0.5441 -0.6168 -0.5711
  762MOL0     C 5044   5.404   4.819   7.970  0.9044 -0.5921  0.5423
  762MOL0     C 5045   5.487   4.763   7.877 -0.6800 -0.3469 -0.1305
  762MOL0     C 5046   5.535   4.629   7.907  0.9640  0.1639  0.2587
  762MOL0     C 5047   5.547   4.848   7.770  1.1075  0.0169  0.0959
  762MOL0     C 5048   5.645   4.805   7.665 -0.0137  0.8262 -0.3409
  762MOL0     O 5049   5.714   4.690   7.691 -0.8605 -0.8423  0.0753
  762MOL0     C 5050   5.809   4.646   7.597 -0.6478  0.0597 -0.2118
  762MOL0     C 5051   5.891   4.722   7.512 -0.5267  0.4476 -0.5578
  762MOL0     C 5052   5.984   4.658   7.421  0.1561 -0.2294 -0.1749
  762MOL0     C 5053   6.000   4.520   7.408 -0.0091 -0.8097 -0.5009
  762MOL0     O 5054   6.097   4.479   7.317  0.2355  0.1626  0.0400
  762MOL0     C 5055   6.114   4.345   7.279  0.0342  0.1790 -0.1907
  762MOL0     C 5056   6.244   4.341   7.203  0.1466 -0.6325 -0.1481
  762MOL0     C 5057   6.326   4.220   7.225  0.1370  0.4781 -0.5266
  762MOL0     C 5058   6.254   4.102   7.171  0.3473  1.1459 -0.5796
  762MOL0     C 5059   6.350   3.983   7.190 -0.5332  0.8394  0.6194
  762MOL0     C 5060   6.340   3.883   7.075 -0.8938  0.8995 -0.7329
  762MOL0     C 5061   6.417   3.752   7.092  0.2511 -0.3860 -0.1425
  762MOL0     C 5062   6.411   3.692   7.239  0.1103  0.2918 -0.0229
  762MOL0    Cl 5063   6.231   3.645   7.273  0.5261 -0.2112 -0.0637
  762MOL0     C 5064   5.905   4.440   7.485 -0.4620  0.3680  0.7270
  762MOL0     C 5065   5.818   4.505   7.576 -0.0387  0.9933  0.3421
  762MOL0     O 5066   5.660   4.882   7.568  0.5294  0.5215  0.0711
  762MOL0     C 5067   5.489   4.979   7.763  0.1147  0.0012  0.3964
  762MOL0     C 5068   5.391   5.020   7.851 -0.2672  0.7526  0.1888
  762MOL0     N 5069   5.197   5.377   8.345  0.0830 -0.5982  0.2383
  762MOL0     N 5070   5.163   5.490   8.396  1.2375  0.6636  0.3366
  762MOL0     C 5071   5.853   5.590   9.020  0.5684 -0.2520  1.2794
  762MOL0     C 5072   5.962   5.500   8.995  0.2303 -0.5833 -0.3497
  762MOL0     C 5073   6.258   5.161   9.041  0.3543  0.1666 -0.0122
  762MOL0     C 5074   6.358   5.235   8.972  0.3185  0.6008 -1.1534
  762MOL0     C 5075   6.458   5.163   8.905 -0.0815  0.8305 -0.7950
  762MOL0     C 5076   6.468   5.021   8.916 -0.4278 -0.3584  0.3944
  762MOL0     O 5077   6.575   4.971   8.855 -0.5531 -0.4108  0.2205
  762MOL0     C 5078   6.616   4.834   8.895 -0.2250  0.3652  0.9162
  762MOL0     C 5079   6.731   4.782   8.805 -0.1440  0.2354 -0.0061
  762MOL0     C 5080   6.815   4.682   8.884 -0.4705 -0.8176  0.4700
  762MOL0     C 5081   6.945   4.680   8.806 -0.3074  0.1281  0.1659
  762MOL0     C 5082   7.020   4.546   8.841  0.5365  0.1236 -1.1216
  762MOL0     C 5083   7.069   4.452   8.902 -0.3979 -1.1706  0.2728
  762MOL0     C 5084   6.378   4.950   8.995  0.7889 -0.6064  0.2011
  762MOL0     C 5085   6.270   5.016   9.068  0.0816  0.0892 -0.0140
  762MOL0     C 5086   6.186   4.922   9.150  0.4332 -0.5790 -0.0499
  762MOL0     H 5087   6.017   5.395   9.307  1.9846  2.2759 -0.0135
  762MOL0     H 5088   5.836   5.563   9.369 -0.2747  0.0127  0.4699
  762MOL0     H 5089   5.660   5.785   8.980  0.3249 -0.9349 -0.9635
  762MOL0     H 5090   5.554   5.814   9.122 -0.8434 -0.6554  0.3154
  762MOL0     H 5091   5.582   5.543   8.991  2.2490  0.3832  1.7483
  762MOL0     H 5092   5.471   5.590   9.127 -1.1332  0.7925 -1.0640
  762MOL0     H 5093   5.364   5.739   8.993  0.2399 -0.6711  1.8995
  762MOL0     H 5094   5.457   5.701   8.841 -1.2714 -1.2356 -1.5548
  762MOL0     H 5095   5.371   5.463   8.862 -1.7723  0.0950 -1.5872
  762MOL0     H 5096   5.260   5.521   8.985 -1.9668 -0.2321 -1.1523
  762MOL0     H 5097   5.252   5.625   8.695 -0.3507  0.2391 -0.2476
  762MOL0     H 5098   5.162   5.694   8.823 -1.4147  0.4965 -1.4973
  762MOL0     H 5099   5.155   5.395   8.746 -0.4981  1.0090 -1.8342
  762MOL0     H 5100   5.071   5.458   8.885 -1.6358  1.4695  0.8629
  762MOL0     H 5101   4.916   5.585   8.775  1.2381  1.8123  0.6893
  762MOL0     H 5102   4.917   5.429   8.704 -1.1179  0.9207 -0.0063
  762MOL0     H 5103   4.886   5.605   8.517 -0.0131 -0.4124 -0.3236
  762MOL0     H 5104   5.044   5.674   8.569 -1.3763  0.5978  0.0951
  762MOL0     H 5105   4.911   5.299   8.492  0.1340  0.4821 -0.9970
  762MOL0     H 5106   5.008   5.099   8.384  1.5103 -2.0744  0.9583
  762MOL0     H 5107   5.179   5.097   8.329  0.6887  1.9453  0.0839
  762MOL0     H 5108   4.935   5.186   8.170 -0.0507 -0.8745  2.7728
  762MOL0     H 5109   5.106   5.206   8.118 -0.2952 -1.2950  0.3216
  762MOL0     H 5110   4.960   4.948   8.172 -2.1423  1.0997 -0.2626
  762MOL0     H 5111   5.000   5.027   8.024 -1.3787 -0.9607  0.1594
  762MOL0     H 5112   5.216   4.893   8.196  0.6151  3.2718  1.2102
  762MOL0     H 5113   5.131   4.847   8.043  1.6092 -1.3532 -0.0985
  762MOL0     H 5114   5.363   4.764   8.055  2.1369  1.5161  2.6340
  762MOL0     H 5115   5.554   4.570   7.816 -0.5844  2.6388 -1.8175
  762MOL0     H 5116   5.488   4.572   7.987 -2.0259  3.1822  0.8283
  762MOL0     H 5117   5.636   4.639   7.948  1.0658  1.1137 -0.2066
  762MOL0     H 5118   5.892   4.830   7.518  0.5185  0.4053  0.5588
  762MOL0     H 5119   6.049   4.713   7.353  0.3557 -3.3512 -2.7384
  762MOL0     H 5120   6.095   4.294   7.374  0.9370 -3.0402 -1.5771
  762MOL0     H 5121   6.040   4.308   7.207  1.1969  0.2237 -1.4503
  762MOL0     H 5122   6.214   4.359   7.100 -3.6093 -0.3550  0.8245
  762MOL0     H 5123   6.295   4.429   7.242 -0.5017 -0.4726  0.3778
  762MOL0     H 5124   6.350   4.213   7.331  0.0697 -1.1158 -0.5970
  762MOL0     H 5125   6.415   4.223   7.162  0.3002  1.7083 -0.2749
  762MOL0     H 5126   6.226   4.109   7.066  1.7819 -1.8188 -1.2701
  762MOL0     H 5127   6.166   4.083   7.233  1.2428  0.7669  0.6059
  762MOL0     H 5128   6.456   4.008   7.200  0.3147 -1.5311 -1.3464
  762MOL0     H 5129   6.316   3.939   7.285  0.3692 -1.2794  0.0320
  762MOL0     H 5130   6.369   3.933   6.982  1.3611  0.6706 -0.2102
  762MOL0     H 5131   6.236   3.850   7.067 -1.0326  0.7602  1.1953
  762MOL0     H 5132   6.523   3.757   7.063  1.1639 -1.2857  2.7172
  762MOL0     H 5133   6.362   3.680   7.030 -3.4312  0.5837  1.7159
  762MOL0     H 5134   6.443   3.770   7.309  1.9524  1.4105 -1.9818
  762MOL0     H 5135   6.479   3.608   7.255  0.1335  0.7058  2.5069
  762MOL0     H 5136   5.921   4.333   7.492  2.2056  0.4172 -2.2956
  762MOL0     H 5137   5.748   4.456   7.643 -1.0859  1.1157 -0.6270
  762MOL0     H 5138   5.519   5.053   7.690  0.4977 -0.5313  0.0072
  762MOL0     H 5139   5.363   5.125   7.850 -0.4384  0.7125 -1.2133
  762MOL0     H 5140   5.808   5.636   8.932  0.8625  0.4641  1.4936
  762MOL0     H 5141   5.998   5.476   8.895  0.3683  0.9605 -0.6991
  762MOL0     H 5142   6.341   5.342   8.961 -1.2217  0.6635  1.1056
  762MOL0     H 5143   6.529   5.218   8.845  1.1417  1.6367  1.2648
  762MOL0     H 5144   6.648   4.827   8.999 -1.8034  1.3437  1.5046
  762MOL0     H 5145   6.538   4.759   8.908  0.1202  0.2165  2.2842
  762MOL0     H 5146   6.788   4.874   8.790 -0.4278  0.5513  0.8079
  762MOL0     H 5147   6.707   4.732   8.711 -0.1685 -3.1775  1.6628
  762MOL0     H 5148   6.839   4.718   8.984 -0.8953 -2.8836  1.3622
  762MOL0     H 5149   6.770   4.583   8.894  1.0534 -1.5861  0.1131
  762MOL0     H 5150   7.009   4.765   8.831 -1.5791  0.8513  1.0995
  762MOL0     H 5151   6.928   4.680   8.698  0.5702 -2.3032 -0.0240
  762MOL0     H 5152   7.135   4.382   8.949  2.8444  0.4359 -1.5833
  762MOL0     H 5153   6.377   4.844   9.022  0.5900 -0.5218  0.5304
  762MOL0     H 5154   6.145   4.965   9.242  1.0958 -0.3729  0.1588
  762MOL0     H 5155   6.119   4.874   9.078 -0.3391 -1.2420  1.0927
  762MOL0     H 5156   6.252   4.840   9.181  0.6676 -0.2037  0.4542
  763MOL0     O 5157   4.755   9.610   2.755 -0.0188  0.9965 -0.2008
  763MOL0     C 5158   4.682   9.635   2.847  0.1881 -0.0329  0.0328
  763MOL0     O 5159   4.569   9.714   2.840  0.6428  0.7589 -0.2217
  763MOL0     C 5160   4.489   9.700   2.727  0.2033  1.0319  0.0571
  763MOL0     C 5161   4.437   9.821   2.690 -0.3015 -0.9878 -0.4960
  763MOL0     C 5162   4.345   9.827   2.584  0.3368 -0.3468  0.1080
  763MOL0     C 5163   4.313   9.706   2.521 -0.4531 -0.2252 -0.0083
  763MOL0     O 5164   4.216   9.701   2.428  0.6363  0.0872  0.2033
  763MOL0     C 5165   4.091   9.765   2.469 -0.2207 -0.9636 -0.8424
  763MOL0     C 5166   3.976   9.773   2.358  1.0854 -0.0838 -0.2687
  763MOL0     C 5167   3.957   9.647   2.265  0.3057  0.5321 -0.5314
  763MOL0     C 5168   3.911   9.679   2.122 -0.6228  0.5813 -0.5185
  763MOL0     C 5169   3.896   9.555   2.036 -0.4096  0.1826 -0.0762
  763MOL0     C 5170   3.839   9.580   1.902 -0.4820  0.8526  0.7795
  763MOL0     C 5171   3.956   9.629   1.806 -1.2895  0.0964  0.5659
  763MOL0     C 5172   3.897   9.703   1.690 -0.4086  0.0966  0.3575
  763MOL0     N 5173   3.829   9.825   1.742 -0.2160 -0.7982  0.1523
  763MOL0     C 5174   3.889   9.911   1.832  0.1586  0.7551  0.7202
  763MOL0     C 5175   3.801  10.014   1.842 -0.2167 -0.7474 -0.7082
  763MOL0     C 5176   3.830  10.125   1.937 -0.1897 -0.2777 -0.1233
  763MOL0     C 5177   3.852  10.078   2.078  0.1795  0.2331 -0.5940
  763MOL0     C 5178   3.888  10.202   2.161 -0.3643  0.3908 -0.7493
  763MOL0     C 5179   3.961  10.168   2.293 -0.1405  0.1366 -0.7665
  763MOL0     O 5180   3.877  10.097   2.384  0.2348  0.2736  0.0377
  763MOL0     C 5181   3.919  10.082   2.513  0.0430 -0.1288  0.4741
  763MOL0     C 5182   3.823  10.034   2.605 -0.9612 -0.1956  0.9362
  763MOL0     C 5183   3.860  10.008   2.737  0.0775 -1.1843 -0.6024
  763MOL0     C 5184   3.751   9.938   2.819  0.0784 -0.1297  0.4134
  763MOL0     C 5185   3.989  10.030   2.785 -0.6082 -0.4786  0.2586
  763MOL0     C 5186   4.043  10.001   2.924 -0.9752  0.0332 -1.0336
  763MOL0     O 5187   3.965   9.952   3.031  0.1662  0.3301 -0.2211
  763MOL0     C 5188   4.022   9.960   3.160  0.0811  0.0127 -0.4781
  763MOL0     C 5189   4.028  10.091   3.207  0.2565  1.2221  0.6421
  763MOL0     C 5190   4.077  10.102   3.334  0.4786 -0.0612 -0.5198
  763MOL0     C 5191   4.121  10.002   3.411  0.3332  0.4631  1.3101
  763MOL0     O 5192   4.173  10.017   3.535  0.6118  0.5630  0.7725
  763MOL0     C 5193   4.210  10.144   3.577  0.0692 -0.5475  0.0497
  763MOL0     C 5194   4.283  10.117   3.704 -0.5153 -0.1750 -0.1167
  763MOL0     C 5195   4.248  10.220   3.807  0.7099  0.3210 -0.5720
  763MOL0     C 5196   4.313  10.187   3.940  0.7257  0.6754  0.2783
  763MOL0     C 5197   4.249  10.262   4.065  0.2957 -0.4282  0.5210
  763MOL0     C 5198   4.246  10.416   4.069  0.0722  0.5196 -0.5445
  763MOL0     C 5199   4.380  10.479   4.091 -0.3158  0.1562 -1.2461
  763MOL0     C 5200   4.362  10.634   4.099 -0.4305  0.0689  0.3845
  763MOL0    Cl 5201   4.508  10.698   4.170  0.0941 -0.2150 -0.0574
  763MOL0     C 5202   4.112   9.872   3.357  0.1519  0.0738 -0.3274
  763MOL0     C 5203   4.059   9.846   3.234  0.0310  0.0619 -0.0149
  763MOL0     O 5204   4.167  10.019   2.939  0.0854  0.3288 -0.4888
  763MOL0     C 5205   4.079  10.079   2.695 -0.3341 -0.1267 -0.4219
  763MOL0     C 5206   4.048  10.111   2.563 -0.0972  0.2723  1.0910
  763MOL0     N 5207   3.688   9.984   1.759 -0.0758  0.4608 -0.2827
  763MOL0     N 5208   3.713   9.877   1.696 -0.3109  0.1103 -0.5062
  763MOL0     C 5209   4.383   9.583   2.554 -0.5386 -0.2156 -1.0392
  763MOL0     C 5210   4.469   9.582   2.656 -0.0497  0.6517  0.5665
  763MOL0     C 5211   4.711   9.580   2.980  0.1409  0.5848  0.4722
  763MOL0     C 5212   4.839   9.516   2.993 -0.4210  0.4707  0.0397
  763MOL0     C 5213   4.892   9.490   3.123 -0.0361  0.2511 -0.6782
  763MOL0     C 5214   4.820   9.509   3.242 -0.3754 -0.0990  0.4438
  763MOL0     O 5215   4.868   9.501   3.364  0.3434 -0.5624 -0.2185
  763MOL0     C 5216   5.012   9.495   3.381 -0.5154  0.5254 -0.0773
  763MOL0     C 5217   5.053   9.496   3.529 -0.0221 -0.5901 -0.2378
  763MOL0     C 5218   5.009   9.363   3.592 -0.5425  0.4704 -0.3010
  763MOL0     C 5219   5.106   9.317   3.700  0.5457  0.1748 -0.5502
  763MOL0     C 5220   5.241   9.286   3.639  0.2047 -1.4386  0.2627
  763MOL0     C 5221   5.352   9.268   3.595  0.4414 -0.3495 -0.2484
  763MOL0     C 5222   4.687   9.535   3.223 -0.2544  0.1843  0.4125
  763MOL0     C 5223   4.630   9.574   3.096  0.3965  1.0498 -0.2248
  763MOL0     C 5224   4.488   9.605   3.091 -0.8762 -0.6537 -0.0063
  763MOL0     H 5225   4.458   9.912   2.745 -1.7497 -1.1523  0.3825
  763MOL0     H 5226   4.289   9.919   2.568 -3.3020 -2.6954 -2.0263
  763MOL0     H 5227   4.100   9.870   2.496 -2.3810 -0.5138 -1.6047
  763MOL0     H 5228   4.050   9.701   2.548 -0.1544 -1.4126 -1.1648
  763MOL0     H 5229   3.878   9.806   2.396  0.8070  1.6320 -2.3099
  763MOL0     H 5230   4.011   9.842   2.281 -0.7183 -1.0740 -2.1084
  763MOL0     H 5231   4.046   9.583   2.261 -1.0782 -1.4428 -2.1438
  763MOL0     H 5232   3.879   9.580   2.304  0.1663  0.8253 -0.2988
  763MOL0     H 5233   3.811   9.722   2.130 -0.1031  1.4891  2.3419
  763MOL0     H 5234   3.978   9.749   2.072 -1.9943  1.5517 -1.0417
  763MOL0     H 5235   3.833   9.478   2.083 -0.4872 -1.6017 -2.8596
  763MOL0     H 5236   3.990   9.499   2.032 -1.1751 -1.1856  0.3658
  763MOL0     H 5237   3.800   9.481   1.877  1.7620 -0.9418  3.6452
  763MOL0     H 5238   3.760   9.656   1.914 -1.3644  0.4388 -1.8075
  763MOL0     H 5239   4.018   9.547   1.768 -0.7690  0.2396  1.0864
  763MOL0     H 5240   4.028   9.692   1.859 -0.5554  2.6694 -3.0472
  763MOL0     H 5241   3.967   9.739   1.614  0.6172  1.4104  1.8876
  763MOL0     H 5242   3.823   9.641   1.637  0.9011 -0.9287 -0.3334
  763MOL0     H 5243   3.987   9.901   1.878  1.9279 -1.2366 -3.0014
  763MOL0     H 5244   3.745  10.194   1.932  3.6104  4.8916 -3.1669
  763MOL0     H 5245   3.921  10.174   1.902  0.3245  0.0681  1.6123
  763MOL0     H 5246   3.771  10.019   2.122  2.0815 -1.0147  1.4585
  763MOL0     H 5247   3.935  10.007   2.080 -0.7506 -0.8994 -0.9189
  763MOL0     H 5248   3.945  10.276   2.103  2.4144 -1.8756 -1.1120
  763MOL0     H 5249   3.794  10.251   2.191 -0.0386 -0.6295  2.2592
  763MOL0     H 5250   4.052  10.111   2.277 -0.2567 -0.5295  0.7434
  763MOL0     H 5251   3.981  10.260   2.349  1.0803 -1.1920  1.1117
  763MOL0     H 5252   3.726  10.004   2.567 -0.7834 -0.8980  1.0150
  763MOL0     H 5253   3.668   9.899   2.759 -1.0176  2.6381 -0.0223
  763MOL0     H 5254   3.714   9.998   2.903 -2.5282 -1.3373  0.2267
  763MOL0     H 5255   3.802   9.850   2.859  0.6588  0.6597  1.4719
  763MOL0     H 5256   3.984  10.170   3.148 -0.4115 -0.1502 -0.7833
  763MOL0     H 5257   4.065  10.198   3.383  0.5047 -1.6100  2.7460
  763MOL0     H 5258   4.273  10.194   3.503  1.3847 -1.4033  0.5616
  763MOL0     H 5259   4.118  10.198   3.601 -0.8110 -1.8410 -0.3231
  763MOL0     H 5260   4.243  10.020   3.736  0.6303 -1.7121 -2.9158
  763MOL0     H 5261   4.391  10.101   3.690 -0.6435 -0.6188 -0.6590
  763MOL0     H 5262   4.140  10.230   3.820  1.0324  1.0340  2.1664
  763MOL0     H 5263   4.287  10.317   3.776 -0.2255  1.0296  0.4004
  763MOL0     H 5264   4.421  10.206   3.941  0.9632 -0.5694  2.1292
  763MOL0     H 5265   4.299  10.081   3.960  1.5290  0.7727  1.4603
  763MOL0     H 5266   4.146  10.226   4.075  0.4174 -0.3897  2.1611
  763MOL0     H 5267   4.305  10.233   4.154  1.3090  1.6716  0.6151
  763MOL0     H 5268   4.182  10.453   4.150 -0.1807  3.4756 -1.9542
  763MOL0     H 5269   4.196  10.450   3.978  0.0027 -0.5726 -0.9299
  763MOL0     H 5270   4.465  10.438   4.036 -0.8532 -3.9555  0.6168
  763MOL0     H 5271   4.413  10.452   4.192 -1.9495  1.6781 -0.2559
  763MOL0     H 5272   4.272  10.656   4.157 -3.0198  0.1371 -3.3036
  763MOL0     H 5273   4.345  10.668   3.996  0.4400 -1.6115 -0.3475
  763MOL0     H 5274   4.131   9.794   3.430  2.0297  0.6979 -0.1045
  763MOL0     H 5275   4.043   9.742   3.210 -2.7971  0.0172  1.6098
  763MOL0     H 5276   4.177  10.107   2.731 -0.1559  0.8699 -1.5975
  763MOL0     H 5277   4.125  10.153   2.499 -1.3018  2.6813  1.1444
  763MOL0     H 5278   4.376   9.490   2.498  0.0178  0.2041 -1.8171
  763MOL0     H 5279   4.507   9.483   2.681 -0.8602 -0.4327 -2.1367
  763MOL0     H 5280   4.901   9.490   2.907  2.2407  1.8416  1.4262
  763MOL0     H 5281   4.994   9.453   3.123  0.1265  0.7002 -0.3853
  763MOL0     H 5282   5.055   9.403   3.341  1.9500  0.9303  1.4761
  763MOL0     H 5283   5.060   9.580   3.333 -0.1189  0.5593  0.3829
  763MOL0     H 5284   5.019   9.585   3.583  4.2547  0.6424  0.8542
  763MOL0     H 5285   5.159   9.515   3.549  0.6460 -2.8815 -1.2454
  763MOL0     H 5286   4.907   9.377   3.627 -1.8021 -1.0004 -3.0472
  763MOL0     H 5287   5.004   9.276   3.525 -0.0823 -2.3454  2.9947
  763MOL0     H 5288   5.077   9.226   3.753 -1.8200 -0.5481 -2.8620
  763MOL0     H 5289   5.121   9.403   3.765 -1.0575  0.3649 -0.4071
  763MOL0     H 5290   5.443   9.269   3.539 -0.5806  0.2228 -2.0029
  763MOL0     H 5291   4.626   9.537   3.313 -0.6223  3.5764  0.2225
  763MOL0     H 5292   4.484   9.712   3.073  0.6876 -0.6704 -0.5829
  763MOL0     H 5293   4.432   9.534   3.030  0.0518 -2.7227  1.4140
  763MOL0     H 5294   4.447   9.587   3.191  2.3500 -0.4158  1.4779
  764MOL0     O 5295   6.409   4.756   1.965 -0.3341 -0.1159 -0.4453
  764MOL0     C 5296   6.425   4.673   2.057 -0.0849 -0.0138 -0.4119
  764MOL0     O 5297   6.373   4.682   2.180 -0.2614  0.8673  0.3889
  764MOL0     C 5298   6.262   4.761   2.203 -0.0384 -0.5766 -0.1920
  764MOL0     C 5299   6.240   4.803   2.340  0.1173  0.3821  0.3842
  764MOL0     C 5300   6.123   4.876   2.369 -0.1036  0.4918 -0.3029
  764MOL0     C 5301   6.024   4.898   2.280 -0.9584  0.3713 -0.0788
  764MOL0     O 5302   5.907   4.965   2.307 -0.3210  0.0394  0.5655
  764MOL0     C 5303   5.833   4.918   2.417  0.2655  0.8833  0.3543
  764MOL0     C 5304   5.697   4.985   2.428  0.5486  0.1117 -0.3546
  764MOL0     C 5305   5.604   4.956   2.301 -0.3726 -0.4066 -0.1476
  764MOL0     C 5306   5.454   4.947   2.332  0.1794 -0.1185  1.0355
  764MOL0     C 5307   5.384   4.853   2.227  0.2671  0.4000  0.2480
  764MOL0     C 5308   5.236   4.837   2.274 -0.2586  0.3724  0.2926
  764MOL0     C 5309   5.144   4.796   2.157 -0.8727  0.7178  0.0994
  764MOL0     C 5310   5.119   4.903   2.046  0.3417 -0.3880 -1.0382
  764MOL0     N 5311   5.060   5.027   2.101  0.0991  0.3212  0.4339
  764MOL0     C 5312   4.923   5.044   2.128  0.3038  0.2581  0.0907
  764MOL0     C 5313   4.916   5.170   2.176  0.9422  0.7509  0.3729
  764MOL0     C 5314   4.799   5.255   2.222 -0.1075  0.3075  0.1005
  764MOL0     C 5315   4.750   5.356   2.101  0.5752  0.1629 -0.0890
  764MOL0     C 5316   4.671   5.281   2.002  0.5489  1.0618  0.6791
  764MOL0     C 5317   4.609   5.357   1.881 -0.1519  0.4581 -0.4913
  764MOL0     O 5318   4.713   5.408   1.801 -0.1935 -0.0326  0.3610
  764MOL0     C 5319   4.699   5.416   1.667  0.1022 -0.4799  0.5770
  764MOL0     C 5320   4.700   5.539   1.598  0.6633  0.5142  0.5281
  764MOL0     C 5321   4.669   5.552   1.463 -0.1763  0.5929  0.2217
  764MOL0     C 5322   4.674   5.685   1.404 -0.4781 -0.2565 -1.0896
  764MOL0     C 5323   4.638   5.428   1.395 -0.3303 -0.5016  0.7498
  764MOL0     C 5324   4.600   5.412   1.257  0.4710 -0.3917  0.6507
  764MOL0     O 5325   4.605   5.290   1.199  0.0854 -0.3533  0.8315
  764MOL0     C 5326   4.639   5.263   1.069 -0.5517  0.4419 -0.7376
  764MOL0     C 5327   4.698   5.365   0.985  0.4997 -1.1221  0.2154
  764MOL0     C 5328   4.739   5.336   0.856  1.1660  0.0985 -0.2385
  764MOL0     C 5329   4.715   5.206   0.807  0.5144  0.3816 -0.4311
  764MOL0     O 5330   4.765   5.174   0.680  0.2878 -0.6914 -1.1843
  764MOL0     C 5331   4.698   5.073   0.611 -0.1846 -0.0590 -0.2579
  764MOL0     C 5332   4.767   5.060   0.476  0.5789 -0.3924 -0.2361
  764MOL0     C 5333   4.670   5.003   0.374  0.2345  0.2457 -0.1172
  764MOL0     C 5334   4.730   4.928   0.263  0.5836  0.6422  0.5405
  764MOL0     C 5335   4.859   4.984   0.202 -0.7355  0.6953  0.6067
  764MOL0     C 5336   4.866   4.995   0.045  0.7006  0.5076  0.0308
  764MOL0     C 5337   4.757   5.077  -0.018  0.2676 -0.1040 -0.5250
  764MOL0     C 5338   4.699   5.199   0.062  0.1699 -0.2370  0.8990
  764MOL0    Cl 5339   4.594   5.286  -0.049  0.3094 -0.3027 -0.0006
  764MOL0     C 5340   4.655   5.106   0.885  0.1601  0.6426 -0.3902
  764MOL0     C 5341   4.614   5.129   1.014  1.0816 -0.7318 -1.4495
  764MOL0     O 5342   4.568   5.515   1.196 -0.1975 -0.7845 -0.2140
  764MOL0     C 5343   4.647   5.299   1.461  0.9490 -0.6718 -1.0357
  764MOL0     C 5344   4.673   5.295   1.598 -1.0733  0.3892 -0.2813
  764MOL0     N 5345   5.036   5.227   2.180 -1.0694  0.4731  0.4127
  764MOL0     N 5346   5.119   5.138   2.136  1.0837  0.6250 -0.0158
  764MOL0     C 5347   6.053   4.865   2.147  0.8608 -1.3234 -0.9507
  764MOL0     C 5348   6.158   4.787   2.113 -0.5946 -0.6719 -0.0730
  764MOL0     C 5349   6.521   4.564   2.024 -0.7978 -0.9922  1.2103
  764MOL0     C 5350   6.548   4.467   2.119 -0.2056  0.6954  0.0860
  764MOL0     C 5351   6.651   4.372   2.103 -0.0740 -0.6622 -0.7622
  764MOL0     C 5352   6.720   4.373   1.985  0.0005 -0.5250 -0.3437
  764MOL0     O 5353   6.826   4.295   1.968 -0.0919  0.3520  0.5092
  764MOL0     C 5354   6.944   4.320   2.044  0.2001 -0.0554 -0.6378
  764MOL0     C 5355   6.936   4.233   2.173  0.5544 -0.8030  0.4629
  764MOL0     C 5356   7.057   4.147   2.207  0.2651  0.0171  0.5032
  764MOL0     C 5357   7.176   4.227   2.260 -0.5525 -0.5583 -0.7453
  764MOL0     C 5358   7.294   4.144   2.295  0.5542 -0.0480  0.3492
  764MOL0     C 5359   7.402   4.099   2.325 -0.0941  0.3354  0.3135
  764MOL0     C 5360   6.693   4.470   1.887 -0.0284 -0.6121 -0.0657
  764MOL0     C 5361   6.597   4.564   1.901  0.7532 -0.0745  0.0568
  764MOL0     C 5362   6.580   4.660   1.785 -0.5900  0.2880  0.4329
  764MOL0     H 5363   6.305   4.767   2.420 -0.2489 -0.0457  0.4938
  764MOL0     H 5364   6.125   4.911   2.472  2.2461 -1.2213  0.3236
  764MOL0     H 5365   5.887   4.939   2.510  0.6568 -0.5554  0.4645
  764MOL0     H 5366   5.810   4.811   2.418 -3.6037  1.5405 -0.0428
  764MOL0     H 5367   5.649   4.951   2.520  1.2304  2.4196  0.9396
  764MOL0     H 5368   5.698   5.093   2.447  0.6653 -0.0657  0.7029
  764MOL0     H 5369   5.612   5.034   2.225 -1.6310 -0.7735 -0.6920
  764MOL0     H 5370   5.633   4.862   2.253 -2.6871  0.7623 -4.3788
  764MOL0     H 5371   5.428   4.906   2.430 -0.8981 -1.3239  0.2819
  764MOL0     H 5372   5.407   5.044   2.318  1.3182  0.2484 -0.5108
  764MOL0     H 5373   5.433   4.756   2.225  0.9567  0.7452 -0.6744
  764MOL0     H 5374   5.385   4.892   2.124  0.4503 -0.2153  0.0115
  764MOL0     H 5375   5.223   4.759   2.350 -0.9322 -2.2820 -2.3645
  764MOL0     H 5376   5.201   4.935   2.309  0.0607 -0.3467  2.8256
  764MOL0     H 5377   5.047   4.772   2.202 -0.2129 -2.5493  0.0249
  764MOL0     H 5378   5.185   4.706   2.108  0.0163  1.5193 -0.6735
  764MOL0     H 5379   5.216   4.939   2.011  0.1799  1.2500  0.0478
  764MOL0     H 5380   5.052   4.867   1.968 -0.0400 -1.7606 -0.1069
  764MOL0     H 5381   4.839   4.980   2.102  0.5374  0.2689 -0.7345
  764MOL0     H 5382   4.842   5.301   2.312  1.9873  0.2346 -0.7905
  764MOL0     H 5383   4.716   5.192   2.254  0.5756  0.9244  3.4462
  764MOL0     H 5384   4.695   5.442   2.141 -0.1031 -1.5782  3.0133
  764MOL0     H 5385   4.839   5.393   2.049  1.7790  0.8738  2.3720
  764MOL0     H 5386   4.728   5.199   1.958  0.1561  1.6432 -1.0047
  764MOL0     H 5387   4.596   5.239   2.069  1.9100 -1.1530  0.8986
  764MOL0     H 5388   4.541   5.291   1.826 -0.1878 -0.1517  0.2853
  764MOL0     H 5389   4.548   5.435   1.928  1.8211  2.5734 -1.2548
  764MOL0     H 5390   4.729   5.626   1.655  1.2782  1.0086 -0.5114
  764MOL0     H 5391   4.717   5.664   1.306  0.6127  2.4420 -1.2453
  764MOL0     H 5392   4.736   5.755   1.459 -0.7482 -0.3403 -0.6679
  764MOL0     H 5393   4.572   5.726   1.404 -1.2751 -2.0921 -0.3361
  764MOL0     H 5394   4.721   5.465   1.019  1.3783 -0.8189 -1.2078
  764MOL0     H 5395   4.790   5.419   0.808  0.0641 -0.3320 -2.2659
  764MOL0     H 5396   4.716   4.977   0.660 -1.2987  0.8078  1.9858
  764MOL0     H 5397   4.593   5.102   0.600 -0.2137 -0.2510 -0.4858
  764MOL0     H 5398   4.783   5.165   0.450 -1.3893 -0.7352 -3.4072
  764MOL0     H 5399   4.861   5.005   0.490 -0.8726 -2.8485  0.6023
  764MOL0     H 5400   4.595   5.075   0.341 -2.4886 -1.3840  2.0722
  764MOL0     H 5401   4.619   4.929   0.437  0.8910 -0.0798  0.0365
  764MOL0     H 5402   4.656   4.922   0.182  0.4219 -0.3649  0.7452
  764MOL0     H 5403   4.746   4.823   0.290  0.8674  1.2872  3.0918
  764MOL0     H 5404   4.898   5.072   0.253  3.8872 -2.2421  2.8523
  764MOL0     H 5405   4.937   4.911   0.224  1.4611  2.2760 -1.3996
  764MOL0     H 5406   4.856   4.901  -0.010 -2.1397  0.7328 -0.0092
  764MOL0     H 5407   4.960   5.044   0.020  0.8397 -0.1391 -0.7537
  764MOL0     H 5408   4.670   5.026  -0.059  1.8826 -2.3191 -1.3881
  764MOL0     H 5409   4.802   5.117  -0.110 -0.3217 -1.2251 -1.3287
  764MOL0     H 5410   4.782   5.262   0.094 -3.8615  5.9323  1.0241
  764MOL0     H 5411   4.634   5.168   0.144  0.1779 -2.1573  0.2270
  764MOL0     H 5412   4.634   5.004   0.854  2.6231  0.3976 -1.5245
  764MOL0     H 5413   4.567   5.053   1.076  1.8571  0.3553  0.5738
  764MOL0     H 5414   4.617   5.205   1.415 -0.7677 -0.9377  0.5038
  764MOL0     H 5415   4.671   5.200   1.651  1.9757 -0.6863 -1.8556
  764MOL0     H 5416   5.982   4.881   2.067 -1.5338 -1.8440  0.9535
  764MOL0     H 5417   6.176   4.751   2.012  2.3914 -2.7954  1.0619
  764MOL0     H 5418   6.494   4.463   2.213 -0.3860 -0.1101 -0.0455
  764MOL0     H 5419   6.667   4.293   2.176  0.6753 -0.7390 -0.9963
  764MOL0     H 5420   7.030   4.296   1.980 -0.9115 -0.2977 -2.0793
  764MOL0     H 5421   6.964   4.427   2.059  2.1091  0.2397 -4.1895
  764MOL0     H 5422   6.849   4.168   2.156  0.4685 -0.0807 -2.5033
  764MOL0     H 5423   6.900   4.295   2.255 -0.3121 -2.8784  1.7172
  764MOL0     H 5424   7.024   4.066   2.273  0.8891 -0.9400 -0.3316
  764MOL0     H 5425   7.096   4.096   2.118 -0.9080 -0.5384  0.2956
  764MOL0     H 5426   7.139   4.285   2.345  0.3647  0.0402 -0.7486
  764MOL0     H 5427   7.213   4.287   2.176  0.9195 -0.9247 -0.3852
  764MOL0     H 5428   7.502   4.063   2.340  0.2399 -0.1380 -2.5454
  764MOL0     H 5429   6.744   4.461   1.792 -0.5783 -1.2800 -0.3088
  764MOL0     H 5430   6.476   4.662   1.749 -1.1583  4.0769  1.7795
  764MOL0     H 5431   6.596   4.766   1.806  0.8215  0.1630  0.0209
  764MOL0     H 5432   6.648   4.628   1.706  0.1838 -0.4424  1.3748
  765MOL0     O 5433   2.553   6.414   3.813  0.1023  0.0976  0.2512
  765MOL0     C 5434   2.481   6.424   3.714 -0.5809  1.5678  0.5878
  765MOL0     O 5435   2.361   6.498   3.705 -0.2024  0.2074  0.1353
  765MOL0     C 5436   2.298   6.541   3.821 -0.6638 -0.9069 -0.1816
  765MOL0     C 5437   2.353   6.560   3.958 -0.1850 -0.2633  0.5323
  765MOL0     C 5438   2.275   6.611   4.065  0.1908  0.2274 -0.3706
  765MOL0     C 5439   2.137   6.644   4.035 -0.2191 -0.7820  0.3633
  765MOL0     O 5440   2.038   6.689   4.127 -0.3347 -0.1764 -0.0148
  765MOL0     C 5441   2.086   6.731   4.257 -0.3064 -0.2013 -0.3279
  765MOL0     C 5442   2.052   6.622   4.365  0.7083  0.0158 -0.6033
  765MOL0     C 5443   2.001   6.679   4.498 -0.2850  1.1922  0.4535
  765MOL0     C 5444   2.014   6.598   4.628  0.1709  0.5700  0.1822
  765MOL0     C 5445   1.899   6.644   4.721 -0.7150 -0.0966 -0.2815
  765MOL0     C 5446   1.938   6.601   4.851  0.5988  0.8190  0.0813
  765MOL0     C 5447   1.834   6.617   4.970  0.3919  0.3881 -0.3870
  765MOL0     C 5448   1.864   6.529   5.075 -0.0147  0.1355  0.9121
  765MOL0     N 5449   1.796   6.562   5.200 -0.4727  0.8816 -0.3445
  765MOL0     C 5450   1.674   6.509   5.254  0.7832 -0.4951 -0.3515
  765MOL0     C 5451   1.672   6.549   5.380 -0.3117  0.1965 -0.0794
  765MOL0     C 5452   1.577   6.506   5.491  0.6736 -0.1655  1.5263
  765MOL0     C 5453   1.604   6.584   5.626  0.7002  0.0699  0.2775
  765MOL0     C 5454   1.520   6.512   5.735  0.4588 -0.2697 -0.0396
  765MOL0     C 5455   1.526   6.591   5.857  0.6762 -1.7367  0.1720
  765MOL0     O 5456   1.469   6.511   5.961 -0.2222 -0.6345  0.1353
  765MOL0     C 5457   1.364   6.572   6.024  1.3432  0.0561  0.8564
  765MOL0     C 5458   1.244   6.507   6.005  0.0205  0.2491 -0.5919
  765MOL0     C 5459   1.131   6.552   6.075 -0.0680 -1.1245  0.1166
  765MOL0     C 5460   1.008   6.478   6.032  0.3391  1.9943 -0.8804
  765MOL0     C 5461   1.141   6.660   6.168  0.1693  1.4597 -1.2470
  765MOL0     C 5462   1.026   6.718   6.242  0.0609  0.2443  0.2132
  765MOL0     O 5463   1.049   6.832   6.302 -0.5463 -0.1898 -0.2230
  765MOL0     C 5464   0.976   6.856   6.424 -0.1103 -0.1175  1.2839
  765MOL0     C 5465   0.852   6.920   6.419  0.0159  0.5173  0.1607
  765MOL0     C 5466   0.773   6.931   6.532  0.0862 -0.1181 -0.2750
  765MOL0     C 5467   0.810   6.882   6.652 -0.5196  1.4090 -0.0750
  765MOL0     O 5468   0.717   6.897   6.751  0.2980  0.8513 -0.7540
  765MOL0     C 5469   0.725   6.844   6.881  0.5219  0.8016  0.3181
  765MOL0     C 5470   0.576   6.826   6.926  0.0086  0.5139 -0.3534
  765MOL0     C 5471   0.481   6.934   6.883 -0.3313 -0.2743  0.0429
  765MOL0     C 5472   0.344   6.931   6.954  0.5228 -0.0832  0.5342
  765MOL0     C 5473   0.242   6.867   6.867  0.1997  0.3160 -1.0026
  765MOL0     C 5474   0.106   6.867   6.939 -0.2064 -0.7360 -0.9500
  765MOL0     C 5475  -0.006   6.850   6.837  0.1217 -0.2902  0.1726
  765MOL0     C 5476  -0.046   6.703   6.819 -0.5578  0.6118  0.1774
  765MOL0    Cl 5477  -0.129   6.637   6.966 -0.3517 -0.8395  0.0395
  765MOL0     C 5478   0.940   6.824   6.664  0.7434  0.2642 -0.1702
  765MOL0     C 5479   1.028   6.815   6.554  0.8003  0.0394 -0.5332
  765MOL0     O 5480   0.918   6.656   6.239 -0.3309  0.6309  0.2380
  765MOL0     C 5481   1.273   6.717   6.186 -1.2938 -0.1170 -0.2458
  765MOL0     C 5482   1.384   6.673   6.118 -0.3757  0.5924 -0.3256
  765MOL0     N 5483   1.790   6.630   5.399 -0.6127  0.1467  0.4785
  765MOL0     N 5484   1.869   6.635   5.294  0.1125  0.1033 -0.0155
  765MOL0     C 5485   2.087   6.631   3.902 -0.1841  0.3030  0.1367
  765MOL0     C 5486   2.175   6.588   3.797  0.4433 -0.3039 -0.3671
  765MOL0     C 5487   2.515   6.327   3.604  0.0273  0.4451  0.6469
  765MOL0     C 5488   2.646   6.313   3.561 -0.9249  0.4457  0.1086
  765MOL0     C 5489   2.680   6.223   3.456 -0.7812 -1.0196  0.5320
  765MOL0     C 5490   2.579   6.144   3.397  0.1499 -0.1500  0.6862
  765MOL0     O 5491   2.614   6.047   3.300  0.4817  0.6271 -0.5272
  765MOL0     C 5492   2.518   5.971   3.217 -0.0554  0.7831  0.0271
  765MOL0     C 5493   2.608   5.925   3.102 -0.5524 -0.8570  0.0912
  765MOL0     C 5494   2.549   5.818   3.015 -0.2618  0.4917  0.4038
  765MOL0     C 5495   2.427   5.842   2.925  0.5390  0.0163  0.4086
  765MOL0     C 5496   2.457   5.937   2.828  0.3950  0.2171  0.2159
  765MOL0     C 5497   2.476   6.024   2.741  0.0543  0.4812 -0.6279
  765MOL0     C 5498   2.446   6.158   3.441 -0.2842  0.3027 -0.3851
  765MOL0     C 5499   2.413   6.251   3.542  0.3117 -0.7293 -0.0210
  765MOL0     C 5500   2.261   6.268   3.568 -0.5181 -0.2184  0.1379
  765MOL0     H 5501   2.456   6.537   3.980  1.1745  2.9740 -1.6496
  765MOL0     H 5502   2.314   6.612   4.166  3.5329  0.0277 -1.5333
  765MOL0     H 5503   2.004   6.802   4.269 -0.7674 -0.8896  0.7111
  765MOL0     H 5504   2.189   6.770   4.260  1.1710 -3.7756  0.1539
  765MOL0     H 5505   1.969   6.569   4.318  0.3603  1.8969 -2.2588
  765MOL0     H 5506   2.132   6.548   4.372 -0.9021 -1.7800 -0.2575
  765MOL0     H 5507   2.052   6.772   4.521  1.5372  0.0532  1.2914
  765MOL0     H 5508   1.898   6.710   4.480  0.2260  2.5787 -0.1597
  765MOL0     H 5509   2.020   6.489   4.619 -0.0830  0.4480  1.3796
  765MOL0     H 5510   2.099   6.630   4.689 -1.0561  2.1606  1.1533
  765MOL0     H 5511   1.801   6.601   4.698 -0.1930 -2.6429  1.7590
  765MOL0     H 5512   1.903   6.753   4.719  4.1983 -0.0702 -0.3627
  765MOL0     H 5513   1.950   6.492   4.850  1.0867  0.8756 -0.2304
  765MOL0     H 5514   2.029   6.653   4.880  0.7122  0.5367  0.2417
  765MOL0     H 5515   1.736   6.600   4.923  0.6958  2.2502 -1.7831
  765MOL0     H 5516   1.842   6.715   5.016 -1.2323  0.5294 -0.3390
  765MOL0     H 5517   1.825   6.434   5.036 -3.1408  2.4730 -2.2540
  765MOL0     H 5518   1.971   6.515   5.092 -0.0050  0.0678  0.7987
  765MOL0     H 5519   1.603   6.440   5.210  0.9708 -0.3033 -0.9660
  765MOL0     H 5520   1.566   6.398   5.510 -1.1874 -0.5350 -0.9923
  765MOL0     H 5521   1.475   6.535   5.463  1.5240  1.2161 -0.4085
  765MOL0     H 5522   1.711   6.587   5.651  0.7295 -0.8337  0.3042
  765MOL0     H 5523   1.576   6.686   5.601  0.8649  0.4864  1.6905
  765MOL0     H 5524   1.412   6.511   5.713  0.4968  0.9785 -0.3626
  765MOL0     H 5525   1.558   6.411   5.753 -1.1292 -0.9388 -0.2689
  765MOL0     H 5526   1.633   6.598   5.882  0.7747 -4.4089  0.8394
  765MOL0     H 5527   1.486   6.693   5.855  2.3121 -1.0136  1.6331
  765MOL0     H 5528   1.235   6.429   5.930  1.2421  0.1804 -0.6851
  765MOL0     H 5529   0.925   6.542   6.001 -0.1956  0.5482 -2.6580
  765MOL0     H 5530   0.971   6.426   6.121  1.6900  1.1922 -0.7539
  765MOL0     H 5531   1.025   6.399   5.959  0.8664  0.4330  0.8565
  765MOL0     H 5532   0.803   6.957   6.330  2.0587  2.9852 -0.0241
  765MOL0     H 5533   0.676   6.978   6.525  1.3813  2.6891 -0.9234
  765MOL0     H 5534   0.777   6.748   6.876  2.5124  1.7866  1.3090
  765MOL0     H 5535   0.764   6.913   6.956  1.1165  1.2012 -0.3550
  765MOL0     H 5536   0.541   6.733   6.881 -2.8568  0.9873  0.7361
  765MOL0     H 5537   0.579   6.804   7.033 -2.7420  2.4565  0.2376
  765MOL0     H 5538   0.475   6.944   6.775 -3.3442 -1.8634 -0.0402
  765MOL0     H 5539   0.529   7.022   6.926 -0.2736  0.0024 -0.5822
  765MOL0     H 5540   0.322   7.036   6.974  0.0105 -0.3844  1.5715
  765MOL0     H 5541   0.341   6.865   7.041  0.2979  0.0288  0.6118
  765MOL0     H 5542   0.230   6.918   6.771  1.4213  1.4468 -0.5784
  765MOL0     H 5543   0.285   6.770   6.840  1.9524  0.9595 -0.6446
  765MOL0     H 5544   0.088   6.963   6.989  0.0479 -1.6385  0.9815
  765MOL0     H 5545   0.103   6.799   7.025 -1.3877  0.1266 -0.2781
  765MOL0     H 5546   0.016   6.905   6.744 -0.3035 -1.9028 -0.9204
  765MOL0     H 5547  -0.094   6.906   6.870  0.1681 -0.3754  0.4381
  765MOL0     H 5548   0.032   6.634   6.784  0.6929  0.9180  2.1999
  765MOL0     H 5549  -0.127   6.706   6.746 -1.1512  2.1290  0.8606
  765MOL0     H 5550   0.959   6.761   6.751 -3.0178 -0.4894  0.2910
  765MOL0     H 5551   1.122   6.767   6.577 -0.2698 -0.6060  3.3486
  765MOL0     H 5552   1.295   6.789   6.263  2.6570 -2.7969  1.4705
  765MOL0     H 5553   1.481   6.710   6.150  0.3881 -0.7850 -0.9626
  765MOL0     H 5554   1.994   6.680   3.877 -0.2007 -0.9493 -2.5679
  765MOL0     H 5555   2.137   6.580   3.696  0.7338 -3.5278 -0.3335
  765MOL0     H 5556   2.719   6.384   3.600  1.9616 -1.6964 -1.0596
  765MOL0     H 5557   2.785   6.212   3.435  0.2242  0.0022  4.2405
  765MOL0     H 5558   2.475   5.892   3.279  0.7943  0.2966  0.0172
  765MOL0     H 5559   2.441   6.039   3.180 -2.4178 -0.8290  1.6957
  765MOL0     H 5560   2.701   5.882   3.140 -2.2495 -2.9238  2.2114
  765MOL0     H 5561   2.638   6.015   3.048  0.6101 -0.1555  1.7920
  765MOL0     H 5562   2.630   5.772   2.958 -2.7694  0.5593 -3.6134
  765MOL0     H 5563   2.521   5.734   3.080  1.4354 -0.0299  0.5160
  765MOL0     H 5564   2.340   5.870   2.987  0.2982 -1.6200  0.8592
  765MOL0     H 5565   2.389   5.753   2.874  1.4120  0.6742 -1.4576
  765MOL0     H 5566   2.480   6.096   2.662 -1.1624 -0.3468 -1.4743
  765MOL0     H 5567   2.381   6.091   3.385  3.1117 -2.2072 -1.6495
  765MOL0     H 5568   2.213   6.179   3.526  0.2456 -0.1105 -1.0186
  765MOL0     H 5569   2.233   6.281   3.673 -2.4939 -0.6352 -0.2962
  765MOL0     H 5570   2.231   6.350   3.502 -0.7843 -1.9691 -2.0301
  766MOL0     O 5571  10.603   2.998   9.702 -0.7352 -0.5627  0.8136
  766MOL0     C 5572  10.634   3.026   9.817  0.7879  0.0402 -0.4223
  766MOL0     O 5573  10.574   3.121   9.891  0.4574 -0.2891 -0.1503
  766MOL0     C 5574  10.450   3.164   9.873 -0.0104 -0.0435 -0.3059
  766MOL0     C 5575  10.410   3.272   9.945  0.0014 -0.2080  0.0168
  766MOL0     C 5576  10.276   3.320   9.947  0.3635 -0.3080  0.1548
  766MOL0     C 5577  10.183   3.252   9.874  0.0324 -0.8680  0.8642
  766MOL0     O 5578  10.061   3.304   9.899  0.5616 -0.1992  0.0302
  766MOL0     C 5579   9.952   3.259   9.819 -0.5383 -0.3913 -0.0487
  766MOL0     C 5580   9.835   3.352   9.848 -0.5275  0.0262 -0.4517
  766MOL0     C 5581   9.832   3.480   9.752 -0.8576 -0.6306  0.2099
  766MOL0     C 5582   9.719   3.571   9.791 -0.6845 -1.0839  0.6320
  766MOL0     C 5583   9.698   3.672   9.677  0.3249 -0.3900  0.4846
  766MOL0     C 5584   9.590   3.776   9.703  0.6638  0.1400  1.4907
  766MOL0     C 5585   9.569   3.889   9.594  0.2722  0.3812 -0.9961
  766MOL0     C 5586   9.518   3.825   9.465 -0.3170  0.2579 -0.4036
  766MOL0     N 5587   9.383   3.762   9.476  0.2758  0.1793  0.7830
  766MOL0     C 5588   9.289   3.815   9.560 -0.4390  0.7665 -0.1404
  766MOL0     C 5589   9.194   3.718   9.566  0.6779 -0.6165  0.0530
  766MOL0     C 5590   9.050   3.725   9.619 -0.2588  0.1149  0.1849
  766MOL0     C 5591   9.050   3.680   9.764 -0.4393 -0.2650 -0.1727
  766MOL0     C 5592   9.113   3.769   9.872 -0.2965  0.3965  0.3053
  766MOL0     C 5593   9.044   3.898   9.888  0.5286 -0.3379 -0.4494
  766MOL0     O 5594   9.102   4.011   9.826 -0.6042 -0.2125  0.0035
  766MOL0     C 5595   9.226   4.056   9.846  0.0553 -0.4118 -0.5004
  766MOL0     C 5596   9.320   4.014   9.940 -0.3984  0.5688  0.5945
  766MOL0     C 5597   9.449   4.063   9.940 -0.9417 -0.6319  0.1571
  766MOL0     C 5598   9.546   3.980  10.019 -0.5519  0.4222  0.8018
  766MOL0     C 5599   9.489   4.160   9.850  0.2743  0.2167 -0.5424
  766MOL0     C 5600   9.626   4.217   9.847  0.9208  0.5615  0.4914
  766MOL0     O 5601   9.655   4.293   9.739 -0.4745  0.3748 -0.5802
  766MOL0     C 5602   9.744   4.390   9.754  0.1312  0.5629 -0.7514
  766MOL0     C 5603   9.699   4.514   9.802 -0.2234 -0.0344  0.3703
  766MOL0     C 5604   9.786   4.626   9.813  0.3328 -0.1482 -0.1732
  766MOL0     C 5605   9.914   4.612   9.772 -0.5119 -0.3768 -0.2926
  766MOL0     O 5606   9.988   4.723   9.790 -0.5194 -0.2497 -0.2568
  766MOL0     C 5607  10.113   4.714   9.866 -0.5140 -0.4354  0.4453
  766MOL0     C 5608  10.171   4.856   9.899 -0.1458  0.4211 -0.6558
  766MOL0     C 5609  10.315   4.849   9.951  0.2831  0.4163 -0.3169
  766MOL0     C 5610  10.374   4.984   9.974  0.0119 -0.0015 -0.6116
  766MOL0     C 5611  10.505   4.985  10.052 -0.4344  0.5446 -0.2029
  766MOL0     C 5612  10.614   4.934   9.968  0.0526  1.0504  0.4380
  766MOL0     C 5613  10.735   4.925  10.059  0.1948 -1.0019 -0.0253
  766MOL0     C 5614  10.867   4.905   9.990 -0.8035  0.8057  0.0836
  766MOL0    Cl 5615  11.011   4.946  10.106  0.1604 -0.1291  0.0941
  766MOL0     C 5616   9.958   4.489   9.716  0.4132 -0.1189  0.4295
  766MOL0     C 5617   9.870   4.383   9.712  0.4135  0.0005  0.6126
  766MOL0     O 5618   9.690   4.215   9.948 -0.1893 -0.0213 -0.1190
  766MOL0     C 5619   9.387   4.214   9.765 -0.3771 -0.0791 -0.7113
  766MOL0     C 5620   9.251   4.173   9.769 -0.3723 -0.3308 -0.4268
  766MOL0     N 5621   9.242   3.611   9.490  0.5375  0.3191 -0.3238
  766MOL0     N 5622   9.358   3.634   9.442  0.0296 -0.0489 -0.3036
  766MOL0     C 5623  10.217   3.144   9.791  0.3876  0.4627 -0.8482
  766MOL0     C 5624  10.350   3.106   9.791 -0.4916  0.2168  1.2998
  766MOL0     C 5625  10.768   2.990   9.858  0.1671  0.1603  0.2639
  766MOL0     C 5626  10.845   3.080   9.922 -0.1538  0.3565  0.8667
  766MOL0     C 5627  10.964   3.041   9.982  0.3080 -0.8286 -0.0462
  766MOL0     C 5628  11.021   2.922   9.958  0.5031  0.4385  0.0723
  766MOL0     O 5629  11.151   2.898  10.012  0.0998 -0.6904 -0.1524
  766MOL0     C 5630  11.246   2.805   9.951 -0.7409  0.7461  0.5885
  766MOL0     C 5631  11.374   2.810  10.029 -0.0612  0.1846  0.1455
  766MOL0     C 5632  11.363   2.768  10.178  0.3240  0.7619 -0.1573
  766MOL0     C 5633  11.482   2.684  10.225 -0.3224 -0.0502  0.6739
  766MOL0     C 5634  11.609   2.726  10.165  0.8361 -0.6096 -0.0526
  766MOL0     C 5635  11.709   2.796  10.143 -0.6159  0.5939  0.1573
  766MOL0     C 5636  10.949   2.825   9.885 -0.0634  0.2321  0.5689
  766MOL0     C 5637  10.815   2.857   9.842 -0.5197 -0.4616 -0.0074
  766MOL0     C 5638  10.731   2.744   9.782  0.5905 -0.0863  0.3824
  766MOL0     H 5639  10.476   3.325  10.013 -0.2825  1.5982 -1.0687
  766MOL0     H 5640  10.255   3.408  10.007 -0.8117 -1.6187  1.7586
  766MOL0     H 5641   9.924   3.158   9.847  3.2204 -2.3582 -2.5203
  766MOL0     H 5642   9.979   3.267   9.713  0.6383  0.7410  0.3080
  766MOL0     H 5643   9.745   3.289   9.843  0.4686 -1.6576  1.4528
  766MOL0     H 5644   9.835   3.393   9.950 -2.0815  2.1131 -1.1989
  766MOL0     H 5645   9.929   3.530   9.756 -1.0987  0.1346 -1.8657
  766MOL0     H 5646   9.822   3.455   9.646 -0.3291  0.6162 -0.1513
  766MOL0     H 5647   9.625   3.517   9.807 -2.4747  2.0709  1.4283
  766MOL0     H 5648   9.746   3.621   9.884 -1.6380 -1.1741  0.9671
  766MOL0     H 5649   9.686   3.630   9.577  2.3717  0.7532 -0.3025
  766MOL0     H 5650   9.790   3.731   9.685 -0.0361  0.1111  1.0841
  766MOL0     H 5651   9.498   3.720   9.721  1.5013 -2.0932 -0.5035
  766MOL0     H 5652   9.613   3.819   9.800  2.2588 -1.7878  2.0422
  766MOL0     H 5653   9.661   3.944   9.574  0.7218 -0.7111 -2.0704
  766MOL0     H 5654   9.497   3.945   9.654 -2.8559 -3.0907 -1.1599
  766MOL0     H 5655   9.509   3.900   9.386 -0.8764 -0.6027 -1.1808
  766MOL0     H 5656   9.577   3.740   9.429 -0.2848  0.1609 -0.1188
  766MOL0     H 5657   9.290   3.917   9.598 -1.6997  0.1572  1.7086
  766MOL0     H 5658   8.977   3.670   9.559 -0.5665 -0.5668  1.1502
  766MOL0     H 5659   9.010   3.825   9.597 -4.4724 -0.7952  2.5839
  766MOL0     H 5660   8.944   3.677   9.791 -0.6919 -1.7260 -1.2187
  766MOL0     H 5661   9.087   3.578   9.780 -1.7675 -0.4849  1.8873
  766MOL0     H 5662   9.118   3.706   9.962  0.5650 -1.9554 -1.3066
  766MOL0     H 5663   9.218   3.788   9.849 -0.5223 -1.6139 -2.9627
  766MOL0     H 5664   8.940   3.891   9.855 -1.0520  2.5863  3.1594
  766MOL0     H 5665   9.036   3.907   9.997  1.4036  0.6870 -0.4579
  766MOL0     H 5666   9.293   3.945  10.019  1.7258 -2.2414 -0.9139
  766MOL0     H 5667   9.497   3.887  10.049  0.3294 -1.4250 -2.9667
  766MOL0     H 5668   9.572   4.032  10.112  1.3888  0.6948  0.1653
  766MOL0     H 5669   9.637   3.951   9.965 -1.9635 -0.5007 -1.1511
  766MOL0     H 5670   9.602   4.528   9.848 -0.6433  1.1998 -0.8050
  766MOL0     H 5671   9.754   4.725   9.845 -1.9193 -0.3025 -1.7106
  766MOL0     H 5672  10.096   4.665   9.962  1.1349 -1.9488  0.0261
  766MOL0     H 5673  10.182   4.660   9.800 -1.0344 -1.5835  0.8232
  766MOL0     H 5674  10.169   4.917   9.808 -0.2147 -1.2733 -1.8470
  766MOL0     H 5675  10.118   4.898   9.985  2.0095 -2.6268  2.3735
  766MOL0     H 5676  10.382   4.807   9.875 -0.8257 -1.0714 -0.5122
  766MOL0     H 5677  10.315   4.786  10.040 -1.9253 -1.6998 -1.6842
  766MOL0     H 5678  10.292   5.035  10.026 -3.6336 -0.4164 -5.3118
  766MOL0     H 5679  10.381   5.043   9.882 -0.2935  2.1238  0.6485
  766MOL0     H 5680  10.528   5.089  10.079  0.3744  0.0891  0.9332
  766MOL0     H 5681  10.490   4.931  10.146 -1.0455  2.3011  0.7545
  766MOL0     H 5682  10.625   5.002   9.883  0.5816 -0.2208 -0.5573
  766MOL0     H 5683  10.585   4.834   9.933 -0.0943  0.2106  2.7944
  766MOL0     H 5684  10.724   4.843  10.130  0.3725  1.1940  2.7062
  766MOL0     H 5685  10.739   5.017  10.119  2.0738 -0.2547 -1.1892
  766MOL0     H 5686  10.862   4.966   9.900  3.4420 -2.0479 -2.4149
  766MOL0     H 5687  10.877   4.802   9.955  0.9397  1.2752 -0.8981
  766MOL0     H 5688  10.061   4.485   9.682  1.1636  2.6669  2.0727
  766MOL0     H 5689   9.904   4.293   9.661 -0.3798  1.3485 -2.4891
  766MOL0     H 5690   9.419   4.307   9.719  2.7038 -0.2486  0.8319
  766MOL0     H 5691   9.166   4.218   9.720  0.4116  0.4259 -1.1284
  766MOL0     H 5692  10.136   3.093   9.739 -1.8056  0.2780  2.3832
  766MOL0     H 5693  10.373   3.026   9.723 -1.6227  0.0905  1.0488
  766MOL0     H 5694  10.800   3.178   9.934 -1.2017 -0.1954  1.5896
  766MOL0     H 5695  10.998   3.126  10.038 -2.8527  2.8304 -3.0911
  766MOL0     H 5696  11.196   2.707   9.947 -2.7726  1.7837 -0.8931
  766MOL0     H 5697  11.266   2.830   9.847 -1.6793 -0.3445  0.1210
  766MOL0     H 5698  11.425   2.906  10.025  1.1245 -0.4287  0.1001
  766MOL0     H 5699  11.446   2.747   9.976  1.0472  3.2511 -2.3004
  766MOL0     H 5700  11.360   2.856  10.242  3.1319  1.8133 -1.2905
  766MOL0     H 5701  11.272   2.716  10.207  0.3555  1.1363  0.6361
  766MOL0     H 5702  11.467   2.577  10.203  0.9467 -0.2790  0.8367
  766MOL0     H 5703  11.485   2.687  10.334  0.6260  0.0468  0.6530
  766MOL0     H 5704  11.795   2.854  10.116  0.2182 -1.2181 -1.2771
  766MOL0     H 5705  10.981   2.721   9.882 -0.4949  0.1132 -0.0538
  766MOL0     H 5706  10.717   2.762   9.675  3.0309 -0.8001 -0.1189
  766MOL0     H 5707  10.774   2.644   9.794 -1.6727 -1.2062 -0.2118
  766MOL0     H 5708  10.630   2.733   9.823  1.6263 -4.3096  2.3129
  767MOL0     O 5709   6.930   3.957   9.511  0.1446 -0.2058  0.3256
  767MOL0     C 5710   6.828   3.984   9.567 -0.5812 -0.7371 -0.4049
  767MOL0     O 5711   6.699   3.941   9.537  0.9950  0.2348  0.0249
  767MOL0     C 5712   6.683   3.862   9.423  0.6478 -0.5503 -0.0456
  767MOL0     C 5713   6.712   3.726   9.434  0.1993 -0.2604 -0.1940
  767MOL0     C 5714   6.714   3.642   9.324 -0.3120  0.9961 -0.4104
  767MOL0     C 5715   6.666   3.681   9.202 -0.6365 -0.6858  0.3191
  767MOL0     O 5716   6.649   3.591   9.100 -0.0787 -0.4505 -0.4390
  767MOL0     C 5717   6.742   3.605   8.993 -0.8420  0.6838  0.0448
  767MOL0     C 5718   6.701   3.516   8.874 -0.0346  0.4215  0.1799
  767MOL0     C 5719   6.812   3.497   8.766  0.8221  0.1417  0.4656
  767MOL0     C 5720   6.937   3.429   8.824  0.2024 -0.2944 -0.0343
  767MOL0     C 5721   7.037   3.398   8.704 -0.1146 -0.4924  0.2755
  767MOL0     C 5722   7.185   3.368   8.735  0.4556 -0.3970 -0.0013
  767MOL0     C 5723   7.173   3.248   8.815 -0.6298 -0.0714 -0.0623
  767MOL0     C 5724   7.290   3.145   8.810 -0.0772 -0.0310  0.1893
  767MOL0     N 5725   7.432   3.193   8.799  0.2064  0.2004  0.5602
  767MOL0     C 5726   7.489   3.295   8.868 -0.7104 -0.0094 -0.1586
  767MOL0     C 5727   7.594   3.323   8.793  0.0297 -0.0429  0.4213
  767MOL0     C 5728   7.680   3.437   8.817  0.1339  0.2175 -0.3374
  767MOL0     C 5729   7.824   3.421   8.769  0.0417  0.1687 -0.1810
  767MOL0     C 5730   7.909   3.552   8.777  0.1215  0.0833 -0.3798
  767MOL0     C 5731   8.050   3.533   8.709 -0.6180 -0.6142 -0.6359
  767MOL0     O 5732   8.095   3.647   8.639  0.0744  0.4877  1.3489
  767MOL0     C 5733   8.024   3.675   8.523 -0.2656 -1.5719 -1.0153
  767MOL0     C 5734   7.924   3.605   8.459 -0.9596  0.4937 -0.0099
  767MOL0     C 5735   7.866   3.648   8.340  0.5153  0.8508  0.2018
  767MOL0     C 5736   7.738   3.574   8.303  0.2187  0.5561  0.5573
  767MOL0     C 5737   7.905   3.772   8.284 -0.3727  1.3338  0.9344
  767MOL0     C 5738   7.850   3.812   8.159 -0.0187 -0.0259 -0.1771
  767MOL0     O 5739   7.818   3.942   8.151  0.2887 -0.5635  0.0410
  767MOL0     C 5740   7.753   3.987   8.032  0.2120 -0.0999  0.0972
  767MOL0     C 5741   7.832   4.038   7.922  0.1018  0.1429 -0.0066
  767MOL0     C 5742   7.767   4.043   7.798  0.5737  0.7144  0.0600
  767MOL0     C 5743   7.633   4.010   7.782  0.1727 -0.7630  0.1298
  767MOL0     O 5744   7.573   4.014   7.658 -0.2281 -0.3189  0.3608
  767MOL0     C 5745   7.653   4.048   7.534 -0.5121  0.3019 -0.3098
  767MOL0     C 5746   7.564   4.060   7.417  0.2802  0.7202 -0.3430
  767MOL0     C 5747   7.498   3.921   7.383  0.5910  0.8652  0.0285
  767MOL0     C 5748   7.381   3.934   7.283 -0.4805 -0.3951 -0.1140
  767MOL0     C 5749   7.372   3.800   7.201 -0.8126  0.4193  0.0436
  767MOL0     C 5750   7.254   3.797   7.106 -0.0978 -0.3760  0.0052
  767MOL0     C 5751   7.228   3.661   7.041  0.3348 -0.6537  0.6390
  767MOL0     C 5752   7.272   3.650   6.891  0.2251  0.0089 -0.1967
  767MOL0    Cl 5753   7.161   3.761   6.794 -0.6212 -0.0120 -0.1162
  767MOL0     C 5754   7.558   3.959   7.883 -0.3260  0.6014 -0.3074
  767MOL0     C 5755   7.617   3.948   8.010  0.2610 -0.5063 -0.0665
  767MOL0     O 5756   7.837   3.730   8.072 -0.1536  0.3296 -0.3809
  767MOL0     C 5757   8.008   3.847   8.340 -0.1289 -0.7293 -0.1875
  767MOL0     C 5758   8.061   3.800   8.467 -0.7575 -0.2094 -0.5176
  767MOL0     N 5759   7.603   3.231   8.689 -0.5157 -0.0344  0.4350
  767MOL0     N 5760   7.498   3.155   8.691 -0.5152  0.5073  0.5589
  767MOL0     C 5761   6.634   3.821   9.190 -0.6738  0.1547 -0.7735
  767MOL0     C 5762   6.635   3.905   9.296 -0.9006 -0.0002  0.4314
  767MOL0     C 5763   6.846   4.067   9.696  1.4991 -0.3621 -0.4820
  767MOL0     C 5764   6.900   4.195   9.683 -0.2300 -0.0983  0.6153
  767MOL0     C 5765   6.921   4.274   9.797  0.6760 -0.4764 -0.1250
  767MOL0     C 5766   6.902   4.222   9.927 -0.2396 -0.3939 -0.0161
  767MOL0     O 5767   6.920   4.288  10.045  0.1490  0.5110  0.1082
  767MOL0     C 5768   6.999   4.400  10.059 -0.7568  0.5488  0.3927
  767MOL0     C 5769   7.031   4.409  10.215  0.5818  0.4426 -0.1542
  767MOL0     C 5770   7.146   4.507  10.241  0.1617 -0.6160  0.6696
  767MOL0     C 5771   7.146   4.524  10.395  0.2219  0.5202 -0.1668
  767MOL0     C 5772   7.239   4.630  10.418 -0.2737  0.3276 -0.8544
  767MOL0     C 5773   7.311   4.726  10.433 -0.6087  0.5306  0.4255
  767MOL0     C 5774   6.857   4.086   9.938  0.1692 -0.3469 -0.4549
  767MOL0     C 5775   6.841   4.004   9.825  1.4763 -0.3397 -0.4668
  767MOL0     C 5776   6.791   3.864   9.846  0.2487  0.8556  0.3936
  767MOL0     H 5777   6.721   3.689   9.535 -2.7096  6.1906  3.0382
  767MOL0     H 5778   6.741   3.538   9.340 -0.7091  0.6799 -1.7448
  767MOL0     H 5779   6.834   3.561   9.032 -1.0652 -0.1212 -0.3054
  767MOL0     H 5780   6.760   3.707   8.958 -4.7115  1.8788  1.0259
  767MOL0     H 5781   6.669   3.415   8.903 -1.9085  1.4800  2.1610
  767MOL0     H 5782   6.613   3.554   8.821 -1.9086 -4.5135 -0.7785
  767MOL0     H 5783   6.777   3.429   8.689  2.0306 -0.4751  0.4298
  767MOL0     H 5784   6.844   3.590   8.717 -0.1413  0.9782  1.3767
  767MOL0     H 5785   6.988   3.501   8.889 -1.3522 -0.9713  2.0286
  767MOL0     H 5786   6.915   3.337   8.878  1.7443 -0.4280  0.4032
  767MOL0     H 5787   7.035   3.491   8.647 -0.0919 -1.6766 -1.7955
  767MOL0     H 5788   6.992   3.316   8.647  0.9325 -0.0009 -1.3274
  767MOL0     H 5789   7.228   3.357   8.635 -1.2222 -0.6368 -0.7369
  767MOL0     H 5790   7.235   3.445   8.793  1.8169 -2.1246  1.2043
  767MOL0     H 5791   7.086   3.191   8.783 -0.6661  0.5265 -1.0592
  767MOL0     H 5792   7.175   3.281   8.920 -1.9270 -0.9540  0.2596
  767MOL0     H 5793   7.268   3.090   8.902 -2.0873  0.1721 -0.1093
  767MOL0     H 5794   7.280   3.077   8.724  0.7407 -1.3281  1.0930
  767MOL0     H 5795   7.450   3.348   8.954  0.0132  0.3698 -0.0581
  767MOL0     H 5796   7.679   3.459   8.924  0.5330  2.8698 -0.7956
  767MOL0     H 5797   7.627   3.523   8.775  0.9133  1.3703  0.9341
  767MOL0     H 5798   7.885   3.350   8.826 -2.0424  0.9360  3.2615
  767MOL0     H 5799   7.823   3.385   8.666 -1.1046 -4.3240  1.1990
  767MOL0     H 5800   7.863   3.631   8.718  2.0627  1.4501 -0.1466
  767MOL0     H 5801   7.914   3.599   8.876 -1.3726  1.8686 -1.1092
  767MOL0     H 5802   8.126   3.517   8.785  0.0420 -2.3649 -1.6052
  767MOL0     H 5803   8.065   3.442   8.651 -1.0674 -2.2560  1.6966
  767MOL0     H 5804   7.914   3.505   8.500  1.6168 -0.8222 -2.2768
  767MOL0     H 5805   7.703   3.507   8.382  2.4040  0.4647  1.5032
  767MOL0     H 5806   7.746   3.514   8.212 -1.3412  2.1431 -0.7011
  767MOL0     H 5807   7.655   3.644   8.291 -0.6937 -0.6087 -0.2089
  767MOL0     H 5808   7.935   4.070   7.932 -0.2015  1.3556 -0.5307
  767MOL0     H 5809   7.814   4.087   7.710  0.1844  0.5872 -0.2168
  767MOL0     H 5810   7.705   4.144   7.545  2.0598 -0.5806 -3.1733
  767MOL0     H 5811   7.739   3.984   7.511  0.1570  1.3198 -0.7791
  767MOL0     H 5812   7.489   4.138   7.423 -1.9339 -1.1049 -2.4159
  767MOL0     H 5813   7.629   4.078   7.331  0.9532 -0.1417 -0.0350
  767MOL0     H 5814   7.453   3.884   7.476  0.7605  3.9386  1.4437
  767MOL0     H 5815   7.564   3.847   7.338 -3.1608 -1.4096 -2.2867
  767MOL0     H 5816   7.402   4.016   7.213 -2.3172  0.1616 -0.0724
  767MOL0     H 5817   7.287   3.965   7.330 -0.1101  0.6708 -0.0404
  767MOL0     H 5818   7.470   3.792   7.152 -0.4582  1.1007  0.6290
  767MOL0     H 5819   7.374   3.729   7.285  3.8952  0.9414  0.6544
  767MOL0     H 5820   7.267   3.875   7.030 -1.7598  0.0401  0.1083
  767MOL0     H 5821   7.161   3.820   7.159 -0.8016 -2.0955 -0.4227
  767MOL0     H 5822   7.122   3.634   7.046  0.1800  0.0473  1.5582
  767MOL0     H 5823   7.277   3.583   7.101 -0.8684 -0.2683  2.1967
  767MOL0     H 5824   7.275   3.545   6.861 -0.7707 -0.9284  2.6100
  767MOL0     H 5825   7.374   3.689   6.884  0.3825  0.9187  4.1963
  767MOL0     H 5826   7.456   3.927   7.865 -0.1011  0.7029 -1.9652
  767MOL0     H 5827   7.557   3.894   8.083 -1.8854  0.1180 -1.2847
  767MOL0     H 5828   8.054   3.932   8.290  0.8220 -2.2574 -2.0696
  767MOL0     H 5829   8.130   3.858   8.529 -2.1464  2.3560 -1.2474
  767MOL0     H 5830   6.612   3.862   9.092 -0.2033  0.7555 -0.6348
  767MOL0     H 5831   6.614   4.009   9.271  0.3016  0.2238  0.3224
  767MOL0     H 5832   6.917   4.227   9.580  1.8149 -2.0831  0.2250
  767MOL0     H 5833   6.970   4.371   9.788  0.2233 -0.3627 -1.6356
  767MOL0     H 5834   7.090   4.383  10.001 -1.2873 -0.1229 -0.2555
  767MOL0     H 5835   6.945   4.488  10.023 -1.4873 -0.6555 -1.6469
  767MOL0     H 5836   7.060   4.310  10.252 -0.9717  0.2875  0.7136
  767MOL0     H 5837   6.943   4.436  10.272  1.8226  2.6622  0.8323
  767MOL0     H 5838   7.247   4.471  10.220  0.6297  1.7688 -1.7892
  767MOL0     H 5839   7.128   4.599  10.185 -3.2794 -1.1252  0.7417
  767MOL0     H 5840   7.181   4.434  10.446  1.0351  1.4543  0.9871
  767MOL0     H 5841   7.044   4.560  10.409 -0.9288 -2.1545 -0.9864
  767MOL0     H 5842   7.379   4.804  10.459 -1.1569  0.5791  1.7923
  767MOL0     H 5843   6.837   4.050  10.039  3.9659  0.8086  0.8693
  767MOL0     H 5844   6.706   3.855   9.778  0.9839  4.6284 -1.2677
  767MOL0     H 5845   6.867   3.787   9.826  0.0346  0.2844  1.6499
  767MOL0     H 5846   6.766   3.845   9.951 -0.7668  1.7809  0.3238
  768MOL0     O 5847   3.079   0.998  10.540 -0.0180 -0.1053  0.3059
  768MOL0     C 5848   3.067   0.908  10.619  0.9449 -0.4332 -0.2249
  768MOL0     O 5849   2.977   0.809  10.610  0.3598 -0.0114  0.2403
  768MOL0     C 5850   2.872   0.804  10.515 -0.8990 -0.5511 -0.2499
  768MOL0     C 5851   2.831   0.686  10.460 -0.0116 -0.3677  0.2899
  768MOL0     C 5852   2.709   0.676  10.382  0.2605 -0.4393  0.2621
  768MOL0     C 5853   2.651   0.802  10.345 -0.0464  0.2780 -0.4702
  768MOL0     O 5854   2.539   0.788  10.270  0.6386  0.5304  0.0641
  768MOL0     C 5855   2.480   0.906  10.213  0.4968  0.1692 -1.0756
  768MOL0     C 5856   2.369   0.864  10.110  0.6766  0.2134  0.9621
  768MOL0     C 5857   2.259   0.781  10.163  0.5734  0.0847 -0.7766
  768MOL0     C 5858   2.132   0.788  10.081  0.4336  0.5619  0.0919
  768MOL0     C 5859   2.039   0.686  10.157  0.0749 -0.3914 -0.0270
  768MOL0     C 5860   1.893   0.669  10.108 -0.7217 -0.0440  0.3373
  768MOL0     C 5861   1.878   0.649   9.950 -0.0583  0.0281 -0.7023
  768MOL0     C 5862   1.745   0.595   9.901 -1.0362  0.8018 -0.5201
  768MOL0     N 5863   1.655   0.706   9.874  0.6174 -0.9906  0.6143
  768MOL0     C 5864   1.523   0.692   9.858  0.4872  0.3298 -0.7841
  768MOL0     C 5865   1.462   0.808   9.843 -0.0968 -0.3224  0.1252
  768MOL0     C 5866   1.320   0.824   9.817  0.2356 -0.0257  1.2392
  768MOL0     C 5867   1.219   0.801   9.932 -0.4296 -0.0042 -0.5563
  768MOL0     C 5868   1.076   0.797   9.900 -0.1868 -0.5762 -0.1335
  768MOL0     C 5869   1.035   0.926   9.815 -0.4553  0.8295 -0.6320
  768MOL0     O 5870   0.896   0.924   9.777 -0.1775  0.3158 -0.4891
  768MOL0     C 5871   0.841   1.042   9.760 -0.2821 -0.0076  0.3718
  768MOL0     C 5872   0.702   1.049   9.743 -0.5332  0.6688 -0.4949
  768MOL0     C 5873   0.640   1.167   9.710 -0.4298 -0.4253  0.0548
  768MOL0     C 5874   0.501   1.156   9.677 -0.2139 -0.7814  0.6429
  768MOL0     C 5875   0.710   1.285   9.692 -0.8261 -0.4782  1.4785
  768MOL0     C 5876   0.651   1.410   9.634 -0.6655 -0.4293  0.4359
  768MOL0     O 5877   0.732   1.525   9.660  0.0216 -0.3159 -0.8541
  768MOL0     C 5878   0.677   1.652   9.638  0.0964  0.6758 -0.6689
  768MOL0     C 5879   0.712   1.711   9.517 -0.2523 -0.0718 -1.0457
  768MOL0     C 5880   0.643   1.822   9.475 -0.0890  0.0787  0.1055
  768MOL0     C 5881   0.551   1.883   9.568 -0.1466  0.0502 -1.0347
  768MOL0     O 5882   0.512   2.013   9.555  0.8366 -0.2163  0.3404
  768MOL0     C 5883   0.532   2.092   9.432  0.7188  0.7189 -0.2308
  768MOL0     C 5884   0.477   2.243   9.440 -0.4683 -0.2140 -0.8460
  768MOL0     C 5885   0.469   2.313   9.301 -0.0760 -0.7947  0.3388
  768MOL0     C 5886   0.445   2.463   9.314  0.1589 -2.2198  0.6040
  768MOL0     C 5887   0.293   2.503   9.329 -1.0268  0.5779  0.2118
  768MOL0     C 5888   0.217   2.553   9.211  0.6429  1.1459 -0.2268
  768MOL0     C 5889   0.074   2.590   9.242  0.6225  0.4979 -0.0139
  768MOL0     C 5890   0.064   2.746   9.257 -0.1067  0.4060  1.2578
  768MOL0    Cl 5891  -0.101   2.790   9.290 -0.1894  0.4740  0.2367
  768MOL0     C 5892   0.521   1.825   9.688 -0.0050  0.3018  0.0728
  768MOL0     C 5893   0.577   1.705   9.726  0.5274  0.5528 -0.9137
  768MOL0     O 5894   0.545   1.421   9.574 -1.1060  0.2479  0.2962
  768MOL0     C 5895   0.852   1.281   9.701 -0.2054  0.1933  0.2212
  768MOL0     C 5896   0.910   1.156   9.729  0.6841 -0.2327  0.4086
  768MOL0     N 5897   1.566   0.906   9.858 -0.2123  0.8541  0.1342
  768MOL0     N 5898   1.677   0.842   9.880  0.2021  0.5307  0.1453
  768MOL0     C 5899   2.699   0.917  10.390  0.9212 -0.6654  0.4160
  768MOL0     C 5900   2.807   0.915  10.473  0.5318 -1.0726 -0.3425
  768MOL0     C 5901   3.168   0.906  10.724  0.6331 -0.2264 -0.5226
  768MOL0     C 5902   3.197   0.791  10.792 -0.6206  0.3260 -0.3635
  768MOL0     C 5903   3.299   0.794  10.893 -0.1809 -0.0149 -0.2095
  768MOL0     C 5904   3.366   0.915  10.934 -0.3174  0.0262 -0.5723
  768MOL0     O 5905   3.468   0.921  11.029  0.1344  0.2852 -0.2902
  768MOL0     C 5906   3.506   0.787  11.085  0.4690  0.3085 -0.0483
  768MOL0     C 5907   3.622   0.809  11.186 -0.2453  0.3447 -0.7299
  768MOL0     C 5908   3.729   0.908  11.132  0.4888 -0.1546  0.5871
  768MOL0     C 5909   3.792   0.862  11.005 -0.4613 -0.4100 -0.0605
  768MOL0     C 5910   3.913   0.938  10.973  0.2630 -0.1925  1.0143
  768MOL0     C 5911   3.992   1.025  10.945 -0.3497  0.1840 -0.1129
  768MOL0     C 5912   3.332   1.035  10.876  0.3947 -0.4143 -1.0961
  768MOL0     C 5913   3.229   1.028  10.770  0.4272  0.6630 -0.4347
  768MOL0     C 5914   3.214   1.162  10.701 -0.8188 -0.3976 -0.4862
  768MOL0     H 5915   2.893   0.600  10.481 -0.6288 -1.1547 -0.9743
  768MOL0     H 5916   2.671   0.579  10.349  2.6444 -2.0080  1.8595
  768MOL0     H 5917   2.555   0.965  10.159  2.0354 -0.8757 -0.1939
  768MOL0     H 5918   2.432   0.965  10.292 -1.5509 -1.9670 -0.6475
  768MOL0     H 5919   2.325   0.953  10.065  0.4642  1.0046  2.6441
  768MOL0     H 5920   2.403   0.809  10.022  1.0799 -0.4146  1.5013
  768MOL0     H 5921   2.285   0.675  10.171  0.5875  0.1954  0.7802
  768MOL0     H 5922   2.238   0.811  10.265  2.4015 -0.3736 -0.2267
  768MOL0     H 5923   2.087   0.887  10.086 -1.0261 -0.1035  4.1153
  768MOL0     H 5924   2.145   0.762   9.975 -2.6521 -3.7447  0.4735
  768MOL0     H 5925   2.018   0.731  10.254 -0.0032  1.0234 -0.6786
  768MOL0     H 5926   2.090   0.589  10.157  2.0722  0.6061 -1.1298
  768MOL0     H 5927   1.855   0.576  10.151 -0.2981 -0.0937  0.6060
  768MOL0     H 5928   1.835   0.753  10.148  3.2245  2.4113  1.5049
  768MOL0     H 5929   1.955   0.574   9.928  2.2202  1.7028  1.1148
  768MOL0     H 5930   1.906   0.743   9.902  1.0091  2.4419  4.0988
  768MOL0     H 5931   1.759   0.551   9.802  1.3412  6.0704 -2.9519
  768MOL0     H 5932   1.698   0.517   9.962  0.0431  0.3653 -0.2211
  768MOL0     H 5933   1.484   0.593   9.836 -1.3086  1.0121 -0.8309
  768MOL0     H 5934   1.292   0.755   9.736 -0.7294  1.3428  0.3593
  768MOL0     H 5935   1.305   0.927   9.783  0.7155 -0.1585  0.5989
  768MOL0     H 5936   1.246   0.711   9.988  0.9833  0.3494 -0.6491
  768MOL0     H 5937   1.244   0.882  10.001 -1.5183  0.0209 -0.1573
  768MOL0     H 5938   1.044   0.704   9.852 -2.0848 -0.8991  1.6108
  768MOL0     H 5939   1.020   0.793   9.994 -2.1093 -3.2647 -1.2662
  768MOL0     H 5940   1.044   1.017   9.875  1.5472  0.4959 -0.3370
  768MOL0     H 5941   1.098   0.920   9.725  1.2532 -1.9032  0.6249
  768MOL0     H 5942   0.639   0.964   9.765  2.7081 -1.8332 -0.0661
  768MOL0     H 5943   0.446   1.071   9.719 -3.2318 -1.6999 -4.3454
  768MOL0     H 5944   0.488   1.131   9.572  0.0697  0.4241  0.3030
  768MOL0     H 5945   0.450   1.248   9.708 -1.4685 -1.1307 -0.2864
  768MOL0     H 5946   0.792   1.672   9.456 -1.3625 -2.5867 -1.0304
  768MOL0     H 5947   0.674   1.864   9.380 -0.9279 -1.2520 -0.7975
  768MOL0     H 5948   0.635   2.091   9.396  1.2202 -0.5006  1.0821
  768MOL0     H 5949   0.465   2.042   9.362 -1.0527  0.5867  1.4542
  768MOL0     H 5950   0.379   2.223   9.483 -0.6130 -1.2107 -1.5825
  768MOL0     H 5951   0.532   2.304   9.512  0.6252 -0.1797 -1.6712
  768MOL0     H 5952   0.387   2.273   9.242  0.1541 -0.2119 -0.4047
  768MOL0     H 5953   0.567   2.294   9.256  0.5072  2.4484 -0.0172
  768MOL0     H 5954   0.485   2.501   9.219 -2.4410 -0.3177  0.1407
  768MOL0     H 5955   0.505   2.506   9.394  3.5158 -0.6857 -2.4271
  768MOL0     H 5956   0.242   2.420   9.378  0.5275  0.3682  1.5341
  768MOL0     H 5957   0.299   2.576   9.410 -0.0266  0.6434  0.0959
  768MOL0     H 5958   0.213   2.477   9.133 -1.5469  1.2922 -0.3209
  768MOL0     H 5959   0.267   2.641   9.171 -0.0227  1.8903  0.5483
  768MOL0     H 5960   0.027   2.544   9.329  0.4882 -4.8150 -2.5364
  768MOL0     H 5961   0.009   2.573   9.155 -1.7181  2.4208  1.2219
  768MOL0     H 5962   0.111   2.803   9.177  1.6511 -0.3969  1.6629
  768MOL0     H 5963   0.121   2.762   9.349  0.7889 -2.8522  1.3945
  768MOL0     H 5964   0.457   1.873   9.761  2.0456  0.5305  1.8208
  768MOL0     H 5965   0.543   1.652   9.814 -0.4888 -0.7330 -2.0422
  768MOL0     H 5966   0.919   1.360   9.668 -1.0124  1.1776  0.9048
  768MOL0     H 5967   1.019   1.153   9.724  0.7844  1.6077  0.8659
  768MOL0     H 5968   2.642   1.008  10.377  3.3977  0.8589 -0.6104
  768MOL0     H 5969   2.839   1.011  10.511  0.7170 -1.3395  0.1901
  768MOL0     H 5970   3.173   0.691  10.756  0.5238  0.9305 -3.0657
  768MOL0     H 5971   3.335   0.700  10.932 -0.5725  0.8918  2.5696
  768MOL0     H 5972   3.430   0.718  11.123  1.3311  0.5711  2.3371
  768MOL0     H 5973   3.547   0.728  11.003 -3.5185 -0.6619 -1.6157
  768MOL0     H 5974   3.672   0.713  11.201 -1.3003 -0.0068  0.7131
  768MOL0     H 5975   3.577   0.843  11.280 -1.2811 -2.6472 -0.0565
  768MOL0     H 5976   3.679   1.002  11.103 -0.7849 -1.0084 -0.0625
  768MOL0     H 5977   3.810   0.925  11.204  1.7544 -2.9693 -0.0565
  768MOL0     H 5978   3.723   0.878  10.921  2.8546 -0.8730 -3.1541
  768MOL0     H 5979   3.803   0.753  11.004 -1.1946 -0.4863 -0.6693
  768MOL0     H 5980   4.067   1.100  10.932 -0.6855  0.3130 -1.4636
  768MOL0     H 5981   3.371   1.130  10.909  2.0761 -1.1010 -1.0171
  768MOL0     H 5982   3.114   1.206  10.701 -0.2360  0.9750  0.0311
  768MOL0     H 5983   3.280   1.238  10.743 -1.2073  0.7865 -1.9414
  768MOL0     H 5984   3.245   1.148  10.596  1.2379  1.9914 -0.2934
  769MOL0     O 5985   1.047   3.708   8.931 -0.6360 -0.3275 -0.0246
  769MOL0     C 5986   0.981   3.808   8.894 -0.5538  0.5242  0.2657
  769MOL0     O 5987   1.024   3.940   8.905 -0.1844  0.4894 -0.1981
  769MOL0     C 5988   1.131   3.952   8.996 -0.2904  0.0841  0.8849
  769MOL0     C 5989   1.228   4.048   8.971 -0.1497  0.2579  0.1973
  769MOL0     C 5990   1.329   4.075   9.066 -0.2301 -0.0441  0.5958
  769MOL0     C 5991   1.337   4.004   9.184  0.3456  0.3516 -0.1844
  769MOL0     O 5992   1.424   4.023   9.287 -0.6463 -0.0488  0.1618
  769MOL0     C 5993   1.522   4.123   9.289  0.3243 -0.9836  0.0881
  769MOL0     C 5994   1.593   4.128   9.422  0.1358  1.1125  0.5103
  769MOL0     C 5995   1.663   4.262   9.449  0.4049 -0.1660 -0.1125
  769MOL0     C 5996   1.729   4.270   9.595 -0.0432 -0.1799 -0.1471
  769MOL0     C 5997   1.756   4.425   9.626  0.5738 -0.3953 -0.2573
  769MOL0     C 5998   1.879   4.444   9.714 -0.6517 -1.3795 -1.0916
  769MOL0     C 5999   1.892   4.359   9.841 -0.5110  0.0487 -0.3535
  769MOL0     C 6000   1.811   4.409   9.968  0.9954  0.5875  0.1108
  769MOL0     N 6001   1.671   4.375   9.956  0.0781 -1.0990  0.3764
  769MOL0     C 6002   1.560   4.462   9.968 -0.3920  0.2085  0.6542
  769MOL0     C 6003   1.453   4.380   9.952  0.5157  0.7104 -0.0721
  769MOL0     C 6004   1.303   4.419   9.936 -0.7549 -0.4958 -0.1285
  769MOL0     C 6005   1.251   4.357   9.801  0.3935 -0.0159  0.1195
  769MOL0     C 6006   1.306   4.416   9.666  0.0962 -0.1967 -0.4849
  769MOL0     C 6007   1.217   4.367   9.550  0.2829 -0.1694  0.0776
  769MOL0     O 6008   1.270   4.428   9.423  0.0343 -0.1093 -0.4850
  769MOL0     C 6009   1.203   4.385   9.312 -0.5400  0.0567 -0.4748
  769MOL0     C 6010   1.098   4.286   9.318  0.2607 -0.0273  0.3257
  769MOL0     C 6011   1.018   4.258   9.208 -0.6717  0.5095  0.4556
  769MOL0     C 6012   0.927   4.139   9.237  0.5546  0.4286 -0.1118
  769MOL0     C 6013   1.044   4.318   9.080  0.5769 -0.0627  0.1446
  769MOL0     C 6014   0.961   4.301   8.959 -0.5070  0.3863  0.8303
  769MOL0     O 6015   0.840   4.243   8.982  0.4646 -0.6690  0.4869
  769MOL0     C 6016   0.754   4.224   8.877  0.4401  0.2221 -0.7619
  769MOL0     C 6017   0.795   4.177   8.756 -0.5780 -0.2437  0.1873
  769MOL0     C 6018   0.705   4.184   8.644 -0.3134  0.1785 -0.4103
  769MOL0     C 6019   0.585   4.251   8.654 -0.3638  0.1752  0.0624
  769MOL0     O 6020   0.496   4.263   8.547  0.3381 -0.9114  0.5026
  769MOL0     C 6021   0.435   4.139   8.503 -0.6403 -0.7651  0.1728
  769MOL0     C 6022   0.310   4.134   8.562 -0.4275  0.0868  0.7401
  769MOL0     C 6023   0.237   4.265   8.569 -0.7407 -0.6188 -0.0877
  769MOL0     C 6024   0.183   4.320   8.433 -0.2806  0.7092 -0.7225
  769MOL0     C 6025   0.117   4.452   8.461  0.3802 -0.2496  0.7174
  769MOL0     C 6026   0.063   4.524   8.332  0.3108 -0.5054 -0.7370
  769MOL0     C 6027  -0.018   4.647   8.387 -0.1529 -0.6711  0.8059
  769MOL0     C 6028  -0.066   4.745   8.285  0.2073 -0.1654 -0.4496
  769MOL0    Cl 6029  -0.194   4.681   8.180 -0.4551  0.1624 -0.3035
  769MOL0     C 6030   0.543   4.291   8.784  0.6028  0.6559 -0.1650
  769MOL0     C 6031   0.625   4.268   8.899 -0.5033 -0.6163  0.4199
  769MOL0     O 6032   0.999   4.341   8.844  0.7003  0.5953  0.4358
  769MOL0     C 6033   1.148   4.417   9.080  0.2751 -0.0875  1.0217
  769MOL0     C 6034   1.227   4.440   9.189  0.4449 -0.8033  0.2148
  769MOL0     N 6035   1.492   4.244   9.952  0.3844  0.4905 -0.0120
  769MOL0     N 6036   1.622   4.252   9.940  0.4246  0.8230  0.2900
  769MOL0     C 6037   1.245   3.897   9.208  0.5818  0.2653 -0.5208
  769MOL0     C 6038   1.128   3.879   9.124  0.3613 -0.4310  0.2155
  769MOL0     C 6039   0.860   3.787   8.800 -0.0408 -0.1034 -0.1704
  769MOL0     C 6040   0.886   3.718   8.681  0.8944 -0.1527 -0.1314
  769MOL0     C 6041   0.789   3.704   8.585 -0.2692 -0.0491 -0.1515
  769MOL0     C 6042   0.655   3.738   8.612  1.2483 -0.4709 -0.3267
  769MOL0     O 6043   0.546   3.707   8.535  0.4638 -0.0473 -0.0132
  769MOL0     C 6044   0.574   3.677   8.398 -0.1405 -0.6586 -0.2853
  769MOL0     C 6045   0.445   3.672   8.318 -0.6955  0.7603  0.2516
  769MOL0     C 6046   0.359   3.795   8.311  0.0654 -0.5037  0.3466
  769MOL0     C 6047   0.263   3.801   8.189 -0.9256  0.3165  0.5846
  769MOL0     C 6048   0.193   3.931   8.187  0.3022 -1.4752  0.1247
  769MOL0     C 6049   0.149   4.043   8.187  0.0306 -0.4093 -0.2363
  769MOL0     C 6050   0.623   3.804   8.730  0.2380  0.1431  0.4774
  769MOL0     C 6051   0.725   3.835   8.826 -0.8014 -0.6585 -0.0458
  769MOL0     C 6052   0.688   3.902   8.960  0.7348  0.2196  0.4187
  769MOL0     H 6053   1.208   4.110   8.885 -0.3282  2.1445  1.5453
  769MOL0     H 6054   1.398   4.155   9.039 -1.0195 -0.2204 -2.3029
  769MOL0     H 6055   1.481   4.219   9.256 -1.2419 -0.4386  3.2473
  769MOL0     H 6056   1.599   4.101   9.215  0.7876  2.2454 -0.5340
  769MOL0     H 6057   1.524   4.122   9.507  1.7298  1.2459  1.8578
  769MOL0     H 6058   1.664   4.045   9.418  1.7163  2.4378 -0.3541
  769MOL0     H 6059   1.733   4.285   9.369  0.3372  2.7644  0.5401
  769MOL0     H 6060   1.582   4.335   9.437  0.4390 -0.5443 -3.2093
  769MOL0     H 6061   1.663   4.224   9.669  3.0138 -0.5122  2.6043
  769MOL0     H 6062   1.809   4.198   9.608 -1.0428 -0.8360  3.2004
  769MOL0     H 6063   1.666   4.463   9.675  0.6731  0.6844 -0.8507
  769MOL0     H 6064   1.778   4.482   9.535  3.5592  2.4229  2.0065
  769MOL0     H 6065   1.959   4.424   9.642  1.8718  0.8385  0.8590
  769MOL0     H 6066   1.877   4.550   9.738 -4.1068 -1.3932 -0.8261
  769MOL0     H 6067   1.995   4.378   9.875 -0.3979  0.1305 -0.7400
  769MOL0     H 6068   1.891   4.252   9.822  1.2559 -0.2573  1.0077
  769MOL0     H 6069   1.841   4.369  10.065 -0.0407 -1.4900 -0.3481
  769MOL0     H 6070   1.822   4.518   9.969 -3.7896  1.3055  0.9732
  769MOL0     H 6071   1.558   4.569   9.954  1.9880  0.1426 -0.8479
  769MOL0     H 6072   1.292   4.526   9.921 -0.2695 -0.6254 -1.6025
  769MOL0     H 6073   1.249   4.394  10.028 -0.1571 -1.8665 -0.1182
  769MOL0     H 6074   1.274   4.250   9.807 -1.8444 -0.6169 -0.8043
  769MOL0     H 6075   1.143   4.371   9.794  0.7573  2.8101 -1.5824
  769MOL0     H 6076   1.301   4.524   9.684 -0.0038  0.0610 -1.9848
  769MOL0     H 6077   1.410   4.387   9.655  0.2960  0.4209 -0.2605
  769MOL0     H 6078   1.207   4.258   9.555 -1.3263 -0.0126  0.9778
  769MOL0     H 6079   1.117   4.401   9.576  0.4383 -1.1338  2.2357
  769MOL0     H 6080   1.077   4.226   9.406 -1.3715  0.1370  0.0932
  769MOL0     H 6081   0.931   4.074   9.149 -0.8558  0.4405 -0.2033
  769MOL0     H 6082   0.823   4.170   9.252 -0.5800 -0.0189 -5.2124
  769MOL0     H 6083   0.958   4.084   9.326 -1.6040  1.3450  1.2851
  769MOL0     H 6084   0.894   4.134   8.756  0.0740  1.1064 -1.6425
  769MOL0     H 6085   0.737   4.149   8.546  0.5385  0.3188 -0.1825
  769MOL0     H 6086   0.426   4.128   8.394  0.4881 -2.3542  0.2107
  769MOL0     H 6087   0.488   4.051   8.541 -0.9365 -1.4541 -0.9556
  769MOL0     H 6088   0.252   4.062   8.503  0.4990 -1.5446  1.7149
  769MOL0     H 6089   0.318   4.094   8.664  0.0066  1.5816  1.3173
  769MOL0     H 6090   0.288   4.345   8.623 -3.4696  0.9257  0.4034
  769MOL0     H 6091   0.149   4.241   8.629  0.5259  1.5032  2.8336
  769MOL0     H 6092   0.110   4.246   8.399 -1.1923 -0.1133  2.6036
  769MOL0     H 6093   0.267   4.331   8.364 -1.4846 -3.5831 -3.2387
  769MOL0     H 6094   0.036   4.427   8.531  1.1222 -2.1087  0.9824
  769MOL0     H 6095   0.191   4.520   8.505  1.8951 -2.1738  1.3018
  769MOL0     H 6096  -0.017   4.468   8.282 -3.2689  2.0307  1.6896
  769MOL0     H 6097   0.143   4.548   8.261 -0.3469 -1.6973 -1.9345
  769MOL0     H 6098   0.044   4.700   8.461  2.3372 -0.8355 -1.0309
  769MOL0     H 6099  -0.104   4.615   8.446 -0.8177  2.2439  1.5760
  769MOL0     H 6100   0.007   4.795   8.222 -0.4178  2.5294  0.8321
  769MOL0     H 6101  -0.102   4.821   8.354 -0.4431 -0.2489 -0.6877
  769MOL0     H 6102   0.438   4.312   8.801  0.9588  2.8002 -0.3247
  769MOL0     H 6103   0.604   4.293   9.002  0.6768  0.3949  0.4409
  769MOL0     H 6104   1.170   4.462   8.984 -1.1036 -1.6336 -0.0869
  769MOL0     H 6105   1.302   4.515   9.165 -1.2870  0.6831 -0.9078
  769MOL0     H 6106   1.254   3.830   9.293 -0.9988 -2.8182 -2.5936
  769MOL0     H 6107   1.059   3.799   9.150  1.2499 -1.1791  0.3310
  769MOL0     H 6108   0.980   3.666   8.663 -1.0961 -3.0751 -3.3961
  769MOL0     H 6109   0.822   3.663   8.491  1.0024 -0.1968  0.3382
  769MOL0     H 6110   0.648   3.745   8.355 -0.5141  0.7763  1.2245
  769MOL0     H 6111   0.624   3.580   8.406  0.5786 -0.1512  2.1700
  769MOL0     H 6112   0.387   3.585   8.352 -0.9241  0.1357 -1.6333
  769MOL0     H 6113   0.470   3.631   8.220 -0.3139 -0.6464  0.9181
  769MOL0     H 6114   0.311   3.809   8.408  1.4875 -1.2733  1.1903
  769MOL0     H 6115   0.417   3.887   8.302  2.2362 -1.8529  0.0645
  769MOL0     H 6116   0.190   3.719   8.194 -4.1492  2.9554  0.8804
  769MOL0     H 6117   0.323   3.809   8.099 -0.4376  0.5899  0.9259
  769MOL0     H 6118   0.096   4.136   8.175 -0.5353 -0.2858  2.5012
  769MOL0     H 6119   0.519   3.826   8.752 -0.3494 -0.8948 -1.0965
  769MOL0     H 6120   0.741   3.839   9.032 -0.7780 -3.3718 -1.3357
  769MOL0     H 6121   0.726   4.004   8.963 -0.1190  0.5989 -0.6356
  769MOL0     H 6122   0.579   3.903   8.971  0.7696  1.0684  0.7389
  770MOL0     O 6123  10.551   7.083   7.387 -0.0845  0.0312 -0.4570
  770MOL0     C 6124  10.442   7.026   7.418 -0.6075  0.5589 -0.0048
  770MOL0     O 6125  10.417   6.888   7.416 -0.3035  0.9310  0.6990
  770MOL0     C 6126  10.528   6.796   7.434 -0.1915 -0.0972 -0.1050
  770MOL0     C 6127  10.517   6.666   7.374  0.3283 -1.2974  0.5881
  770MOL0     C 6128  10.621   6.576   7.377 -0.6383  0.1412 -0.0410
  770MOL0     C 6129  10.743   6.612   7.438  0.5457 -0.1179  0.0893
  770MOL0     O 6130  10.852   6.529   7.447 -0.2970  0.4445 -0.3305
  770MOL0     C 6131  10.857   6.428   7.346  0.2787 -0.0988  0.9930
  770MOL0     C 6132  10.997   6.360   7.352  0.8565  0.2055 -0.4181
  770MOL0     C 6133  11.001   6.246   7.255 -0.3263 -0.8186 -0.7723
  770MOL0     C 6134  11.140   6.195   7.233 -0.1916 -0.5620 -0.2965
  770MOL0     C 6135  11.150   6.060   7.166 -0.4925 -0.0835  0.5056
  770MOL0     C 6136  11.179   5.949   7.271  0.2259 -0.4745  0.1149
  770MOL0     C 6137  11.144   5.816   7.207 -0.4921 -0.8926 -0.6439
  770MOL0     C 6138  11.200   5.703   7.290  0.8173 -0.7190 -0.4100
  770MOL0     N 6139  11.144   5.575   7.251  0.3155  0.5878  0.4189
  770MOL0     C 6140  11.083   5.489   7.340 -1.0276  0.3766 -0.7772
  770MOL0     C 6141  11.053   5.382   7.277 -0.1312  0.2167  0.3935
  770MOL0     C 6142  10.984   5.269   7.338 -0.7419  0.2656  0.5079
  770MOL0     C 6143  11.076   5.139   7.341  1.2340  0.3988  0.4334
  770MOL0     C 6144  11.189   5.132   7.441 -0.1885  0.1173  1.0269
  770MOL0     C 6145  11.256   4.998   7.415  0.1870  0.0914  0.2058
  770MOL0     O 6146  11.180   4.887   7.469 -0.0569 -0.4289  0.6553
  770MOL0     C 6147  11.254   4.764   7.468 -0.3936 -0.3479 -0.4117
  770MOL0     C 6148  11.393   4.743   7.455  0.1191  0.3659 -0.3123
  770MOL0     C 6149  11.456   4.622   7.460 -0.5012 -0.5108  0.0675
  770MOL0     C 6150  11.608   4.621   7.469  0.1944  0.1342  0.4712
  770MOL0     C 6151  11.375   4.505   7.473  0.4371  0.0603  0.5780
  770MOL0     C 6152  11.415   4.363   7.451  0.0830 -0.3561 -0.3711
  770MOL0     O 6153  11.498   4.338   7.345  0.1544 -0.4790 -0.9221
  770MOL0     C 6154  11.499   4.208   7.286  0.0251 -0.3833  0.2474
  770MOL0     C 6155  11.620   4.181   7.219 -0.8568  0.2315 -1.3704
  770MOL0     C 6156  11.628   4.050   7.164 -0.4362  0.0882 -0.0646
  770MOL0     C 6157  11.521   3.964   7.159 -0.6888 -0.0707 -0.3167
  770MOL0     O 6158  11.547   3.852   7.084 -0.1628  0.2539  0.7868
  770MOL0     C 6159  11.464   3.740   7.106 -0.7229  0.2639  0.4690
  770MOL0     C 6160  11.355   3.743   7.000 -0.2586  0.1188  0.7649
  770MOL0     C 6161  11.268   3.619   7.012  0.1661  0.4821  0.3068
  770MOL0     C 6162  11.191   3.625   6.869  0.8073 -0.3008 -0.3135
  770MOL0     C 6163  11.053   3.692   6.895  0.8364  0.7913  0.6473
  770MOL0     C 6164  10.959   3.673   6.778  0.0101 -0.4529  0.2557
  770MOL0     C 6165  10.845   3.781   6.761 -0.8465  0.7871 -0.2920
  770MOL0     C 6166  10.786   3.797   6.618 -0.5723  0.1298  0.1470
  770MOL0    Cl 6167  10.672   3.659   6.569 -0.2366  0.3651 -0.5079
  770MOL0     C 6168  11.402   3.992   7.216 -0.1290 -0.4761 -0.0969
  770MOL0     C 6169  11.392   4.115   7.279 -0.1098 -0.7389  0.5375
  770MOL0     O 6170  11.362   4.279   7.524  0.1803 -0.4082  0.2611
  770MOL0     C 6171  11.237   4.526   7.492 -0.3121 -0.6440 -0.1698
  770MOL0     C 6172  11.185   4.654   7.497 -0.3039  1.0108  0.6169
  770MOL0     N 6173  11.105   5.393   7.142  0.2708 -0.0898  0.3520
  770MOL0     N 6174  11.149   5.513   7.131 -0.4186  0.5370  0.4714
  770MOL0     C 6175  10.757   6.737   7.496  0.7466 -0.3482 -0.2702
  770MOL0     C 6176  10.655   6.830   7.491  0.8129 -0.4038  0.3638
  770MOL0     C 6177  10.323   7.105   7.443  0.8435 -1.2647  0.8066
  770MOL0     C 6178  10.314   7.232   7.383 -0.5298  0.0736 -0.0841
  770MOL0     C 6179  10.209   7.325   7.399 -1.0393  0.1347  0.9752
  770MOL0     C 6180  10.101   7.288   7.475  0.4598  0.9927 -0.2404
  770MOL0     O 6181   9.994   7.366   7.513  0.6142  0.1335  0.1506
  770MOL0     C 6182   9.996   7.509   7.485  0.6978  0.6653 -0.4753
  770MOL0     C 6183  10.089   7.592   7.565  1.1444 -0.3001 -0.4435
  770MOL0     C 6184  10.050   7.742   7.561  1.1151 -0.6187  0.0270
  770MOL0     C 6185  10.170   7.842   7.569  0.0220  0.1471  0.5971
  770MOL0     C 6186  10.267   7.831   7.463 -0.0940  0.7686 -0.7028
  770MOL0     C 6187  10.348   7.808   7.373  0.6887 -0.1177  0.8358
  770MOL0     C 6188  10.105   7.166   7.535  0.1245  0.9778 -0.1739
  770MOL0     C 6189  10.212   7.066   7.521  0.0330 -0.4768  0.2653
  770MOL0     C 6190  10.190   6.926   7.569 -0.1030 -1.0251 -0.4466
  770MOL0     H 6191  10.428   6.641   7.318 -0.5108  0.2845  1.1426
  770MOL0     H 6192  10.603   6.477   7.336  2.4864  0.8736 -3.7496
  770MOL0     H 6193  10.838   6.470   7.247  2.8382  0.1397  0.5478
  770MOL0     H 6194  10.775   6.356   7.356 -0.6740  0.9574  1.0805
  770MOL0     H 6195  11.082   6.422   7.323  1.5048 -1.9240 -3.5921
  770MOL0     H 6196  11.008   6.326   7.455 -4.3963 -4.0443 -0.8128
  770MOL0     H 6197  10.948   6.165   7.307  1.9541  0.2234  3.7167
  770MOL0     H 6198  10.959   6.258   7.155 -0.9048 -2.3164 -0.7413
  770MOL0     H 6199  11.201   6.265   7.174  0.9689 -4.4987 -4.3032
  770MOL0     H 6200  11.194   6.190   7.328 -2.0501  0.5901  0.8868
  770MOL0     H 6201  11.236   6.058   7.099 -2.4537 -0.4884 -2.1542
  770MOL0     H 6202  11.064   6.037   7.102 -0.4506 -3.8447  1.5748
  770MOL0     H 6203  11.281   5.950   7.310  0.5318  0.9296 -0.6641
  770MOL0     H 6204  11.101   5.970   7.345 -0.2081 -0.4965 -0.3343
  770MOL0     H 6205  11.194   5.817   7.110 -0.3420  2.9904 -0.6902
  770MOL0     H 6206  11.037   5.804   7.189 -1.5401  2.9684  1.7623
  770MOL0     H 6207  11.309   5.706   7.288  0.8031  2.0236 -0.1691
  770MOL0     H 6208  11.167   5.716   7.393  2.0987  2.4513 -0.2982
  770MOL0     H 6209  11.085   5.500   7.448  1.4613  4.3978 -1.0391
  770MOL0     H 6210  10.900   5.242   7.273 -0.3869  2.9025 -1.2033
  770MOL0     H 6211  10.956   5.287   7.442 -1.8119 -0.8644  0.4341
  770MOL0     H 6212  11.014   5.055   7.374 -2.0100  2.5742  0.3763
  770MOL0     H 6213  11.117   5.116   7.242  0.5711  2.6236 -0.4146
  770MOL0     H 6214  11.259   5.216   7.432  0.4357 -0.3405  1.4681
  770MOL0     H 6215  11.143   5.126   7.541 -2.6523 -0.8043 -0.0864
  770MOL0     H 6216  11.287   4.985   7.311  2.7707 -0.8914  1.0140
  770MOL0     H 6217  11.340   4.988   7.484 -2.1552 -2.9678  2.9010
  770MOL0     H 6218  11.457   4.830   7.467 -0.6957  1.2288 -1.9205
  770MOL0     H 6219  11.648   4.519   7.461  2.5457  1.0014  0.5128
  770MOL0     H 6220  11.645   4.677   7.554  0.2732  1.5360 -0.4615
  770MOL0     H 6221  11.642   4.664   7.374 -2.0784 -0.3733 -0.6590
  770MOL0     H 6222  11.704   4.249   7.215  0.6287 -0.8985  3.7078
  770MOL0     H 6223  11.718   4.015   7.115 -2.1256 -1.4109 -2.2950
  770MOL0     H 6224  11.522   3.650   7.086  1.9030  1.7341  0.9703
  770MOL0     H 6225  11.424   3.723   7.206  1.4630 -3.3178  0.8634
  770MOL0     H 6226  11.299   3.833   7.026  1.4847  2.1048 -1.8541
  770MOL0     H 6227  11.393   3.768   6.901 -0.1419 -0.1654  0.7376
  770MOL0     H 6228  11.206   3.618   7.102  3.7523 -0.6189  2.9652
  770MOL0     H 6229  11.332   3.531   7.008  0.4214  0.6897 -0.3322
  770MOL0     H 6230  11.182   3.522   6.834  0.5861 -0.8672  1.3322
  770MOL0     H 6231  11.235   3.689   6.792 -0.8924  0.1939 -0.9100
  770MOL0     H 6232  11.017   3.646   6.987  3.4215 -3.7941 -0.3324
  770MOL0     H 6233  11.066   3.800   6.908  1.7309  1.1762 -2.5260
  770MOL0     H 6234  10.908   3.579   6.800 -3.5231  1.0530 -0.7535
  770MOL0     H 6235  11.007   3.674   6.680 -1.2936  0.6895 -0.4245
  770MOL0     H 6236  10.886   3.876   6.794  1.0510  0.7268 -2.2169
  770MOL0     H 6237  10.768   3.747   6.831  0.5094 -0.7484  0.5466
  770MOL0     H 6238  10.875   3.800   6.554  1.8493  1.3625  3.2621
  770MOL0     H 6239  10.730   3.891   6.612 -0.7714  0.1673  1.9198
  770MOL0     H 6240  11.311   3.933   7.210 -0.6909  0.4441 -0.9422
  770MOL0     H 6241  11.293   4.133   7.318  0.0098 -3.0276  2.0450
  770MOL0     H 6242  11.167   4.446   7.514  0.5639 -0.9614  1.5915
  770MOL0     H 6243  11.079   4.664   7.517 -0.7359 -1.6017 -0.0215
  770MOL0     H 6244  10.847   6.766   7.549  0.4342  2.2391 -1.0204
  770MOL0     H 6245  10.666   6.937   7.505  0.6808 -0.3701  0.2009
  770MOL0     H 6246  10.388   7.260   7.310  0.5067 -0.3618  0.7677
  770MOL0     H 6247  10.219   7.415   7.340  1.0983  1.6403  3.4222
  770MOL0     H 6248  10.019   7.526   7.379 -0.8556  1.5327 -0.7045
  770MOL0     H 6249   9.896   7.544   7.512  1.2386  0.8678  1.4303
  770MOL0     H 6250  10.195   7.575   7.542  0.8560 -1.0316 -1.2861
  770MOL0     H 6251  10.070   7.562   7.668  1.2395  0.2303 -0.2666
  770MOL0     H 6252   9.978   7.768   7.483  0.6455 -0.8541  0.3808
  770MOL0     H 6253   9.983   7.774   7.641 -0.6206 -0.1053 -1.5397
  770MOL0     H 6254  10.218   7.842   7.667 -0.3600 -1.0352  0.8071
  770MOL0     H 6255  10.125   7.941   7.557  1.3308  0.6881  0.0618
  770MOL0     H 6256  10.419   7.809   7.293  1.0450 -0.3387  1.1472
  770MOL0     H 6257  10.013   7.145   7.588  0.3522 -1.6259 -0.6601
  770MOL0     H 6258  10.192   6.849   7.491  0.5563 -0.8233 -0.6414
  770MOL0     H 6259  10.252   6.902   7.656  1.4643 -1.8123 -1.7225
  770MOL0     H 6260  10.089   6.919   7.608 -0.1657 -0.8983 -0.5853
  771MOL0     O 6261   1.718   4.753   4.608 -0.3240  0.3272  0.4307
  771MOL0     C 6262   1.816   4.741   4.536  0.0195 -0.4472 -0.3302
  771MOL0     O 6263   1.800   4.738   4.395 -0.3045  0.5313  0.1295
  771MOL0     C 6264   1.690   4.799   4.343  0.1955 -0.1402 -0.2236
  771MOL0     C 6265   1.679   4.940   4.351  0.3765  0.0898  0.2869
  771MOL0     C 6266   1.561   5.001   4.311  0.2149 -0.2981 -0.9720
  771MOL0     C 6267   1.460   4.919   4.255  0.2459 -0.5970 -0.4149
  771MOL0     O 6268   1.347   4.987   4.215 -0.9501  0.1550 -0.2363
  771MOL0     C 6269   1.233   4.910   4.162  0.7200  0.2914  0.0701
  771MOL0     C 6270   1.104   5.007   4.157 -1.1403 -0.4819  0.5678
  771MOL0     C 6271   1.045   4.995   4.015  0.3511  1.1333 -1.2064
  771MOL0     C 6272   1.091   5.100   3.923  1.2048  0.1758  0.0484
  771MOL0     C 6273   1.032   5.089   3.784  0.1364  0.4690  0.1275
  771MOL0     C 6274   1.087   5.201   3.689 -0.1658 -1.0180  0.1095
  771MOL0     C 6275   1.022   5.181   3.550 -0.2211  0.0469  0.2298
  771MOL0     C 6276   1.013   5.302   3.463 -0.1497 -0.3315  0.4890
  771MOL0     N 6277   0.963   5.410   3.538  0.2633 -0.2562 -0.1564
  771MOL0     C 6278   0.999   5.544   3.557  0.7471  1.3746  0.1059
  771MOL0     C 6279   0.907   5.607   3.633  0.4870 -0.0150 -0.2355
  771MOL0     C 6280   0.902   5.756   3.663 -0.3520  0.1045 -0.4730
  771MOL0     C 6281   0.853   5.831   3.544  0.0013  0.3059  0.1018
  771MOL0     C 6282   0.776   5.963   3.563  0.6147 -0.3111 -0.3143
  771MOL0     C 6283   0.703   6.026   3.437 -0.2617 -0.1916 -0.3265
  771MOL0     O 6284   0.678   6.162   3.465  0.3455 -0.2962 -0.0188
  771MOL0     C 6285   0.609   6.241   3.375  0.0920  0.1391  0.3395
  771MOL0     C 6286   0.560   6.218   3.248 -0.0030  0.3246  0.1405
  771MOL0     C 6287   0.496   6.316   3.163  0.2074  0.4190 -0.1712
  771MOL0     C 6288   0.467   6.281   3.018 -0.5327  0.1034 -0.6311
  771MOL0     C 6289   0.454   6.434   3.230 -0.5949  0.2471  0.1412
  771MOL0     C 6290   0.356   6.521   3.153  0.2971  0.4095 -0.0255
  771MOL0     O 6291   0.236   6.537   3.209 -0.1569  0.4125 -0.6705
  771MOL0     C 6292   0.140   6.593   3.131 -0.6544  0.0363 -0.7943
  771MOL0     C 6293   0.068   6.523   3.035 -1.1950 -0.0258 -0.0951
  771MOL0     C 6294  -0.037   6.588   2.969 -0.4612 -0.8860  0.0342
  771MOL0     C 6295  -0.052   6.726   2.975  0.1995  0.6607 -0.5613
  771MOL0     O 6296  -0.137   6.785   2.890  0.0993 -0.3525  0.9617
  771MOL0     C 6297  -0.230   6.885   2.930 -0.6055  0.3403  0.8955
  771MOL0     C 6298  -0.306   6.943   2.813  0.1430 -0.1804  0.1071
  771MOL0     C 6299  -0.203   6.974   2.699  0.4285 -0.2138 -0.4876
  771MOL0     C 6300  -0.280   7.060   2.602  0.1342 -0.3969 -0.3257
  771MOL0     C 6301  -0.190   7.088   2.480  0.2999 -0.4197  1.2315
  771MOL0     C 6302  -0.144   6.973   2.387  0.0118 -0.2209  0.3443
  771MOL0     C 6303  -0.136   7.015   2.240 -0.4204 -1.4272 -0.6366
  771MOL0     C 6304  -0.274   7.040   2.173  0.2493  0.1704  0.6654
  771MOL0    Cl 6305  -0.342   6.879   2.121 -0.8551 -0.1110 -0.3521
  771MOL0     C 6306   0.018   6.792   3.073 -0.6575  0.6021 -0.3254
  771MOL0     C 6307   0.113   6.729   3.160 -0.5500 -0.6107  0.9150
  771MOL0     O 6308   0.395   6.578   3.051  0.2600  0.7076  0.3782
  771MOL0     C 6309   0.500   6.464   3.351 -0.4526 -0.2215  1.2298
  771MOL0     C 6310   0.573   6.375   3.430 -0.5475  0.6383 -0.0765
  771MOL0     N 6311   0.812   5.520   3.674  0.6957  0.4042 -0.5329
  771MOL0     N 6312   0.843   5.407   3.605  0.6756 -0.1215 -0.1315
  771MOL0     C 6313   1.477   4.785   4.231 -0.3173  0.6263  0.9963
  771MOL0     C 6314   1.590   4.722   4.283 -1.0438  1.1695  0.8741
  771MOL0     C 6315   1.951   4.715   4.601  0.1282  0.4258  0.5223
  771MOL0     C 6316   2.065   4.778   4.550 -0.1705 -0.2308 -0.1446
  771MOL0     C 6317   2.192   4.741   4.599 -0.2883 -0.2158  0.2518
  771MOL0     C 6318   2.201   4.650   4.710  0.3890 -0.8937  0.2523
  771MOL0     O 6319   2.316   4.642   4.781  0.7039 -0.2367 -0.2127
  771MOL0     C 6320   2.328   4.576   4.910 -0.8410  0.8028 -1.3367
  771MOL0     C 6321   2.350   4.420   4.884 -0.6409 -0.2264  0.5200
  771MOL0     C 6322   2.383   4.351   5.016 -0.1411  0.1517  0.6023
  771MOL0     C 6323   2.274   4.343   5.113 -0.3552 -0.1797 -0.0477
  771MOL0     C 6324   2.132   4.334   5.065  0.4080 -0.4647 -0.8793
  771MOL0     C 6325   2.012   4.330   5.044  0.3588 -1.3163  0.0399
  771MOL0     C 6326   2.084   4.589   4.758  0.4136 -0.7481  0.1761
  771MOL0     C 6327   1.958   4.623   4.700  0.5026 -0.2779  0.3190
  771MOL0     C 6328   1.841   4.561   4.769  0.1385  0.5324  0.4042
  771MOL0     H 6329   1.751   4.995   4.412 -0.5441 -1.1864  2.6289
  771MOL0     H 6330   1.538   5.107   4.319 -0.9572 -0.5174 -1.2402
  771MOL0     H 6331   1.209   4.833   4.236 -0.3787  1.5712  1.0864
  771MOL0     H 6332   1.259   4.871   4.063  0.1902  4.0823 -1.7477
  771MOL0     H 6333   1.023   4.995   4.230 -1.4519  1.0401  0.5096
  771MOL0     H 6334   1.143   5.108   4.172  0.4900 -0.8926 -0.6917
  771MOL0     H 6335   1.059   4.894   3.974 -6.3296 -0.8895  0.1934
  771MOL0     H 6336   0.936   4.999   4.020  0.3009  0.2335 -1.3442
  771MOL0     H 6337   1.085   5.204   3.956 -1.2286  0.5914 -1.5164
  771MOL0     H 6338   1.197   5.077   3.903  0.6974 -0.5647 -2.0651
  771MOL0     H 6339   0.923   5.094   3.795  0.2504 -1.7821  5.3849
  771MOL0     H 6340   1.075   5.001   3.735 -0.5446  0.3877 -0.3388
  771MOL0     H 6341   1.069   5.305   3.719  0.5756 -1.3508  1.8127
  771MOL0     H 6342   1.195   5.191   3.684  0.2800  2.6330 -0.2816
  771MOL0     H 6343   0.923   5.136   3.554  0.2456 -1.0798 -0.4105
  771MOL0     H 6344   1.074   5.108   3.487 -0.8427  2.6081 -3.5853
  771MOL0     H 6345   1.106   5.331   3.414 -1.4602  2.3753 -0.6499
  771MOL0     H 6346   0.952   5.279   3.375  2.6829 -2.1459 -1.1519
  771MOL0     H 6347   1.089   5.598   3.527  1.5157  1.9232  3.0760
  771MOL0     H 6348   1.007   5.783   3.679 -0.9082  1.3971  1.3104
  771MOL0     H 6349   0.844   5.775   3.754 -0.1774  0.4557 -0.4305
  771MOL0     H 6350   0.943   5.844   3.483  1.4469 -1.0175  1.8452
  771MOL0     H 6351   0.783   5.758   3.503 -0.8024 -1.1597  3.7200
  771MOL0     H 6352   0.703   5.955   3.644  2.6600  0.4550  1.7058
  771MOL0     H 6353   0.845   6.040   3.595 -0.8548  1.7087 -1.7560
  771MOL0     H 6354   0.760   6.029   3.344  1.5022  0.9558  0.7215
  771MOL0     H 6355   0.616   5.967   3.408  0.4950 -1.7153  0.3725
  771MOL0     H 6356   0.582   6.118   3.211  3.9263  1.6495 -1.7002
  771MOL0     H 6357   0.498   6.180   2.989 -0.2182 -0.2391  0.8240
  771MOL0     H 6358   0.521   6.356   2.959 -4.5089  3.8351 -0.0285
  771MOL0     H 6359   0.363   6.296   2.987 -1.7342 -3.0727  1.3609
  771MOL0     H 6360   0.086   6.416   3.023  0.8114  0.0261  1.8846
  771MOL0     H 6361  -0.099   6.535   2.897 -2.2647  0.6925  0.3431
  771MOL0     H 6362  -0.311   6.850   2.995 -1.0770  0.0227  0.1537
  771MOL0     H 6363  -0.179   6.969   2.979  0.4637 -0.2757  0.8719
  771MOL0     H 6364  -0.385   6.878   2.775 -0.7292  1.7082 -1.4903
  771MOL0     H 6365  -0.346   7.037   2.854 -0.1005 -0.9596  1.7483
  771MOL0     H 6366  -0.174   6.885   2.642  0.2973  2.1450 -4.6839
  771MOL0     H 6367  -0.106   7.009   2.735  0.2670 -1.1772  0.9500
  771MOL0     H 6368  -0.326   7.146   2.652 -0.6786 -2.3084  2.4277
  771MOL0     H 6369  -0.370   7.009   2.567  0.6290 -0.3503 -1.7383
  771MOL0     H 6370  -0.233   7.159   2.409  0.2374  1.7835  3.3428
  771MOL0     H 6371  -0.105   7.148   2.513  0.4571 -0.4368  0.8698
  771MOL0     H 6372  -0.205   6.882   2.388 -0.4304  0.0483 -0.7285
  771MOL0     H 6373  -0.046   6.938   2.421 -0.5699 -0.3376  1.9932
  771MOL0     H 6374  -0.072   6.943   2.188  2.1777  0.7580 -0.7225
  771MOL0     H 6375  -0.082   7.110   2.236 -3.2032  0.2590 -0.9644
  771MOL0     H 6376  -0.250   7.096   2.082  1.5795 -2.7254 -0.9298
  771MOL0     H 6377  -0.340   7.091   2.244 -0.6410  0.2214 -0.1820
  771MOL0     H 6378  -0.001   6.897   3.093 -2.1091  0.3073 -0.0403
  771MOL0     H 6379   0.169   6.795   3.225  1.4524 -0.0595 -1.2282
  771MOL0     H 6380   0.489   6.564   3.392  1.1080  0.5264 -0.0762
  771MOL0     H 6381   0.618   6.414   3.521 -2.0527  0.4706  0.7740
  771MOL0     H 6382   1.390   4.732   4.196 -0.5699  1.7123 -0.0735
  771MOL0     H 6383   1.592   4.614   4.276  0.8082  1.2767 -1.6996
  771MOL0     H 6384   2.044   4.832   4.458 -0.7618  0.7573  0.5423
  771MOL0     H 6385   2.279   4.782   4.549 -0.9108 -0.4746 -1.0789
  771MOL0     H 6386   2.418   4.615   4.959  0.3284 -2.7585 -0.3084
  771MOL0     H 6387   2.242   4.599   4.973  0.0888 -1.5957  1.0581
  771MOL0     H 6388   2.434   4.395   4.819  0.6742 -3.2705  3.0714
  771MOL0     H 6389   2.264   4.365   4.845  0.0274 -1.1508  0.2999
  771MOL0     H 6390   2.415   4.251   4.987 -0.8914  1.6032 -7.5561
  771MOL0     H 6391   2.461   4.411   5.066  2.1137 -2.3688  0.3200
  771MOL0     H 6392   2.281   4.432   5.176 -1.1216 -0.5723  0.6106
  771MOL0     H 6393   2.301   4.256   5.174 -2.3625 -0.4027  0.5903
  771MOL0     H 6394   1.907   4.343   5.023 -0.1796 -0.2090  2.8844
  771MOL0     H 6395   2.093   4.516   4.838  0.7698 -1.5060 -0.5411
  771MOL0     H 6396   1.761   4.530   4.702 -0.2961  0.7245  0.8274
  771MOL0     H 6397   1.881   4.480   4.831  0.6196 -0.7999 -1.5628
  771MOL0     H 6398   1.801   4.636   4.838 -1.7187 -1.1062  1.2146
  772MOL0     O 6399   8.887   7.526   2.580 -0.4389  0.2108  0.4536
  772MOL0     C 6400   8.962   7.452   2.643 -0.2565 -0.7139  0.1801
  772MOL0     O 6401   9.083   7.425   2.610 -0.2654  0.4058 -0.1805
  772MOL0     C 6402   9.159   7.511   2.545 -0.8634 -0.9079 -0.8399
  772MOL0     C 6403   9.139   7.648   2.523 -0.2826 -0.3169  0.8585
  772MOL0     C 6404   9.240   7.730   2.483 -0.0029  0.1455 -0.4362
  772MOL0     C 6405   9.371   7.678   2.453  0.9456  0.0554 -0.0066
  772MOL0     O 6406   9.469   7.765   2.412  0.1799 -0.2453  0.0355
  772MOL0     C 6407   9.597   7.705   2.377  0.1536 -0.5462 -0.0356
  772MOL0     C 6408   9.666   7.817   2.290 -0.4933 -0.2364 -0.1553
  772MOL0     C 6409   9.813   7.797   2.275  0.3553 -0.1456  0.2486
  772MOL0     C 6410   9.888   7.925   2.234 -0.3599 -0.1871 -0.7162
  772MOL0     C 6411  10.035   7.892   2.231  0.6646 -0.4007 -0.6444
  772MOL0     C 6412  10.128   8.010   2.200 -0.3368 -0.0449  0.6756
  772MOL0     C 6413  10.273   7.977   2.233 -0.1772  0.5445  0.6951
  772MOL0     C 6414  10.381   8.095   2.214  0.5966  0.6421  0.3876
  772MOL0     N 6415  10.374   8.209   2.309  0.4406  0.2535  0.2884
  772MOL0     C 6416  10.447   8.215   2.429 -0.2433 -0.1805  1.3598
  772MOL0     C 6417  10.424   8.337   2.470  0.4854  0.1131  0.0144
  772MOL0     C 6418  10.483   8.412   2.594 -1.5219  0.0025 -0.1461
  772MOL0     C 6419  10.624   8.466   2.555 -0.1575  0.0152  0.2280
  772MOL0     C 6420  10.692   8.549   2.672 -0.5728 -0.9035 -0.1125
  772MOL0     C 6421  10.732   8.459   2.789 -0.2040  0.8524  0.0651
  772MOL0     O 6422  10.650   8.488   2.901 -0.2213 -0.4407 -0.4681
  772MOL0     C 6423  10.710   8.564   2.996  0.1906 -0.9797 -0.2586
  772MOL0     C 6424  10.638   8.658   3.068  0.0075  0.7370  0.4742
  772MOL0     C 6425  10.697   8.742   3.168 -0.4882 -0.1871  0.1527
  772MOL0     C 6426  10.600   8.836   3.244 -0.3245  0.1405 -0.1372
  772MOL0     C 6427  10.837   8.753   3.191  0.0735  0.0817 -0.2051
  772MOL0     C 6428  10.916   8.844   3.287 -0.0636 -0.5643  0.0082
  772MOL0     O 6429  11.044   8.804   3.295  0.1404 -0.4368  0.1950
  772MOL0     C 6430  11.123   8.851   3.391  0.2387  0.3796 -0.3754
  772MOL0     C 6431  11.167   8.760   3.492  0.2346 -0.0629 -0.2557
  772MOL0     C 6432  11.268   8.809   3.580  0.6378  0.1087 -0.6539
  772MOL0     C 6433  11.315   8.950   3.567  0.5043  0.9088 -0.4869
  772MOL0     O 6434  11.397   9.014   3.657 -0.0154  0.9686 -0.4794
  772MOL0     C 6435  11.451   8.944   3.774 -0.1022 -0.3188  0.0427
  772MOL0     C 6436  11.567   9.028   3.839  0.3670 -0.2709 -0.4630
  772MOL0     C 6437  11.623   8.966   3.976 -0.1996 -0.7694  0.3581
  772MOL0     C 6438  11.758   9.025   4.032 -0.8232 -0.4020 -0.7255
  772MOL0     C 6439  11.894   8.998   3.957 -0.8856 -0.0570 -0.5403
  772MOL0     C 6440  12.020   9.083   3.999  0.0743  0.1156  0.1167
  772MOL0     C 6441  12.146   9.032   3.911  0.5892  0.8543  0.5350
  772MOL0     C 6442  12.183   8.891   3.931 -1.1096  0.2575  0.1122
  772MOL0    Cl 6443  12.252   8.882   4.094  0.1318  0.3678 -0.0600
  772MOL0     C 6444  11.263   9.025   3.461 -1.1158 -0.2724 -0.9114
  772MOL0     C 6445  11.171   8.977   3.371  0.5891 -0.6777  0.1132
  772MOL0     O 6446  10.868   8.924   3.371 -0.0037 -1.0549  0.8580
  772MOL0     C 6447  10.904   8.655   3.117 -0.5973  0.5663 -0.0947
  772MOL0     C 6448  10.844   8.559   3.026 -0.5946 -0.1861  1.1367
  772MOL0     N 6449  10.325   8.390   2.392  1.4687  0.4187 -0.6612
  772MOL0     N 6450  10.290   8.306   2.295 -0.2051  0.0152  0.0539
  772MOL0     C 6451   9.386   7.539   2.477 -1.2140 -1.2853  0.1554
  772MOL0     C 6452   9.282   7.459   2.520 -0.1586  0.0600 -0.3767
  772MOL0     C 6453   8.903   7.385   2.756 -0.1142  0.6438  0.2625
  772MOL0     C 6454   8.802   7.449   2.831  0.0487 -0.9842  0.1185
  772MOL0     C 6455   8.753   7.395   2.948  0.4979 -0.0536  0.8083
  772MOL0     C 6456   8.793   7.272   2.992  0.2387  0.6867 -0.1929
  772MOL0     O 6457   8.742   7.237   3.114  0.1762 -0.0731 -0.3020
  772MOL0     C 6458   8.773   7.101   3.169 -1.1998 -0.6576 -1.3530
  772MOL0     C 6459   8.694   7.079   3.300  0.0509 -0.3295  0.1305
  772MOL0     C 6460   8.546   7.082   3.286 -0.5600 -0.4337  0.6743
  772MOL0     C 6461   8.475   7.062   3.425 -0.1673  1.3598  0.0995
  772MOL0     C 6462   8.334   7.087   3.396 -0.0803  0.0743 -0.1223
  772MOL0     C 6463   8.215   7.100   3.372 -0.3574  0.2726 -0.0108
  772MOL0     C 6464   8.891   7.205   2.919 -0.0189 -0.1986 -0.3749
  772MOL0     C 6465   8.942   7.255   2.793  0.2432  0.7362  0.2713
  772MOL0     C 6466   9.027   7.156   2.720 -0.2141 -0.2753 -0.3634
  772MOL0     H 6467   9.055   7.700   2.569 -0.5942 -0.3662  0.3506
  772MOL0     H 6468   9.230   7.837   2.473  1.4844  0.1677 -2.1353
  772MOL0     H 6469   9.590   7.620   2.308 -3.5691  0.4308 -1.0662
  772MOL0     H 6470   9.661   7.691   2.464  1.8999 -2.5567 -1.5337
  772MOL0     H 6471   9.626   7.827   2.188 -3.6032  0.3012  1.0025
  772MOL0     H 6472   9.638   7.913   2.335 -4.0662  0.1635 -2.7627
  772MOL0     H 6473   9.851   7.780   2.376 -2.9197  1.4238  1.9121
  772MOL0     H 6474   9.832   7.726   2.195 -4.8463 -2.8524  0.9793
  772MOL0     H 6475   9.848   7.945   2.135  0.6469 -1.1506 -1.3313
  772MOL0     H 6476   9.865   8.011   2.298 -0.4502 -1.0734  0.4944
  772MOL0     H 6477  10.057   7.823   2.149 -3.3072 -0.3542 -1.9667
  772MOL0     H 6478  10.071   7.862   2.330  1.4135 -0.3878 -0.9086
  772MOL0     H 6479  10.108   8.034   2.095 -1.7133  3.1924  1.5484
  772MOL0     H 6480  10.092   8.095   2.260 -0.8897 -0.1800  0.5395
  772MOL0     H 6481  10.306   7.910   2.153  1.7569  3.2697 -0.9701
  772MOL0     H 6482  10.284   7.939   2.335 -1.2838  1.5847  1.2258
  772MOL0     H 6483  10.484   8.060   2.204  0.9345  1.8733 -0.7463
  772MOL0     H 6484  10.358   8.140   2.117 -0.7598 -2.0117 -0.6151
  772MOL0     H 6485  10.519   8.143   2.465  2.3358  2.1741  1.2618
  772MOL0     H 6486  10.503   8.327   2.660  1.4023  0.7171  0.0198
  772MOL0     H 6487  10.436   8.491   2.654  1.0177 -0.3195  2.4946
  772MOL0     H 6488  10.691   8.393   2.509 -1.7577 -0.8504 -0.8336
  772MOL0     H 6489  10.607   8.529   2.467  0.6384  0.1063  0.1304
  772MOL0     H 6490  10.781   8.592   2.627 -1.8881  0.7091 -1.2929
  772MOL0     H 6491  10.619   8.623   2.704  0.4132 -0.1818  0.5091
  772MOL0     H 6492  10.717   8.355   2.759  0.7383  0.2671  1.4873
  772MOL0     H 6493  10.841   8.457   2.803 -0.2956  0.9442  0.8075
  772MOL0     H 6494  10.531   8.662   3.055  0.2871  2.5939 -2.1071
  772MOL0     H 6495  10.494   8.816   3.227  0.2032 -3.0844 -0.3165
  772MOL0     H 6496  10.612   8.943   3.226 -1.8109  0.4927  0.7523
  772MOL0     H 6497  10.612   8.841   3.353 -0.3469 -1.0581 -0.0647
  772MOL0     H 6498  11.128   8.659   3.502  0.7264 -0.1123  1.3161
  772MOL0     H 6499  11.299   8.747   3.663  0.0246  1.4760  0.6549
  772MOL0     H 6500  11.377   8.936   3.854  1.3741  1.6395  1.7197
  772MOL0     H 6501  11.498   8.847   3.756 -3.9383 -2.5499  0.9131
  772MOL0     H 6502  11.651   9.010   3.771  2.5167  0.5084  1.8005
  772MOL0     H 6503  11.544   9.132   3.863  4.9985  0.8373  0.3053
  772MOL0     H 6504  11.640   8.858   3.968 -0.4031 -0.8998  1.4389
  772MOL0     H 6505  11.547   8.977   4.054  0.0303  1.0891  0.3611
  772MOL0     H 6506  11.769   8.984   4.133 -1.7189  1.1714  0.0523
  772MOL0     H 6507  11.754   9.135   4.032  2.5534 -0.0640  2.6456
  772MOL0     H 6508  11.919   8.893   3.973  2.8445  0.1048 -3.8017
  772MOL0     H 6509  11.886   9.024   3.851  0.5912 -0.6838 -0.8277
  772MOL0     H 6510  12.048   9.091   4.104  1.1845 -0.6357 -0.0944
  772MOL0     H 6511  12.007   9.184   3.960  2.0113  0.6438  0.6985
  772MOL0     H 6512  12.232   9.097   3.933  0.4491  0.9304  0.8678
  772MOL0     H 6513  12.129   9.036   3.803  1.4217  0.7734  0.3959
  772MOL0     H 6514  12.263   8.866   3.861 -1.0041  3.3211 -1.0137
  772MOL0     H 6515  12.100   8.821   3.921 -0.5200 -0.6421  1.3309
  772MOL0     H 6516  11.289   9.130   3.447  0.7678 -0.8361 -2.1236
  772MOL0     H 6517  11.125   9.040   3.295  0.5637 -0.3298  0.4157
  772MOL0     H 6518  11.011   8.648   3.136 -0.2714 -0.6020 -2.0187
  772MOL0     H 6519  10.917   8.490   2.984 -0.9762  0.3844 -0.5419
  772MOL0     H 6520   9.485   7.501   2.453 -1.0790 -1.6547  1.2415
  772MOL0     H 6521   9.303   7.352   2.523 -0.8225 -0.0461  1.9429
  772MOL0     H 6522   8.755   7.546   2.816 -2.0510 -2.1323 -1.1583
  772MOL0     H 6523   8.699   7.452   3.023  1.9750 -0.6799  2.4079
  772MOL0     H 6524   8.748   7.020   3.100 -3.2443 -1.6674  0.4222
  772MOL0     H 6525   8.878   7.095   3.197 -0.3725  0.8491 -3.8292
  772MOL0     H 6526   8.722   7.161   3.367 -1.0844 -0.2209  0.4955
  772MOL0     H 6527   8.715   6.982   3.345  1.0968 -1.5101 -2.6689
  772MOL0     H 6528   8.515   7.170   3.230 -0.4105 -0.1968  0.9596
  772MOL0     H 6529   8.517   7.000   3.219 -0.8634 -0.2014  0.5230
  772MOL0     H 6530   8.483   7.137   3.505 -0.0538 -1.3198  2.8099
  772MOL0     H 6531   8.505   6.966   3.468 -1.9528  0.9212  0.4525
  772MOL0     H 6532   8.113   7.122   3.350  0.1639  2.1594 -0.7119
  772MOL0     H 6533   8.923   7.105   2.947 -0.6792 -0.5243 -0.7542
  772MOL0     H 6534   9.056   7.073   2.784 -3.0427 -0.8051  0.3701
  772MOL0     H 6535   8.972   7.110   2.637 -0.0703 -2.9879  0.9529
  772MOL0     H 6536   9.118   7.205   2.685  2.2447 -4.3786 -0.3454
  773MOL0     O 6537   2.865   0.333   4.884 -0.5727 -0.6168 -0.5243
  773MOL0     C 6538   2.912   0.245   4.820 -0.3266  0.7874 -0.0271
  773MOL0     O 6539   3.045   0.221   4.790 -0.3231 -0.4279  0.2970
  773MOL0     C 6540   3.147   0.313   4.792 -0.5255 -0.3561 -0.5947
  773MOL0     C 6541   3.141   0.457   4.799 -1.5679  0.0849  0.1318
  773MOL0     C 6542   3.259   0.525   4.817 -0.4208 -0.9339 -0.3188
  773MOL0     C 6543   3.384   0.464   4.838  0.6676 -0.1889  0.0205
  773MOL0     O 6544   3.489   0.550   4.841  0.5313 -0.1883 -0.3217
  773MOL0     C 6545   3.619   0.492   4.865 -0.8773 -0.8188 -1.3313
  773MOL0     C 6546   3.709   0.604   4.932 -0.6158  0.5798 -0.6751
  773MOL0     C 6547   3.644   0.649   5.071 -0.1491 -0.5933 -1.0719
  773MOL0     C 6548   3.752   0.687   5.170  0.1904  0.1633 -0.3849
  773MOL0     C 6549   3.713   0.742   5.309 -0.6224  0.0753 -0.8637
  773MOL0     C 6550   3.658   0.624   5.404  0.4112  1.7137  0.2632
  773MOL0     C 6551   3.602   0.681   5.533 -0.6859  0.1853  0.3112
  773MOL0     C 6552   3.680   0.801   5.604  0.0720 -0.9457 -0.0081
  773MOL0     N 6553   3.622   0.843   5.736 -0.5236 -0.7138  0.9266
  773MOL0     C 6554   3.501   0.902   5.753  0.5417 -0.7015 -0.2987
  773MOL0     C 6555   3.458   0.871   5.878 -0.8725  0.5628 -0.9022
  773MOL0     C 6556   3.320   0.893   5.947  1.0438  0.1195 -0.4294
  773MOL0     C 6557   3.293   0.834   6.086  0.3818  0.4571 -0.9961
  773MOL0     C 6558   3.357   0.917   6.199 -0.0363  1.0551  0.2316
  773MOL0     C 6559   3.350   0.842   6.335  0.1695  0.5265 -0.3410
  773MOL0     O 6560   3.416   0.717   6.341 -0.7798 -0.6810  0.1611
  773MOL0     C 6561   3.434   0.661   6.468 -0.1614 -0.0462 -0.1301
  773MOL0     C 6562   3.517   0.710   6.578  0.4173 -0.5476  0.7125
  773MOL0     C 6563   3.532   0.647   6.700 -0.0364  0.4808 -0.8226
  773MOL0     C 6564   3.596   0.733   6.810 -0.9803  0.6715  0.2985
  773MOL0     C 6565   3.464   0.522   6.724 -0.3460 -0.5697  0.4067
  773MOL0     C 6566   3.466   0.437   6.852  0.6841 -0.2349  0.2722
  773MOL0     O 6567   3.571   0.458   6.939 -0.2424 -0.0716  0.1569
  773MOL0     C 6568   3.570   0.406   7.065 -0.6918 -0.9162  0.1096
  773MOL0     C 6569   3.683   0.445   7.138 -0.2764  0.4833  0.1279
  773MOL0     C 6570   3.703   0.411   7.274 -0.2777  0.9439 -0.2937
  773MOL0     C 6571   3.613   0.327   7.348 -0.0337  0.3090  0.1057
  773MOL0     O 6572   3.638   0.288   7.474  0.5257 -0.7602  0.3273
  773MOL0     C 6573   3.527   0.242   7.554  0.1484  1.1173  0.0637
  773MOL0     C 6574   3.559   0.245   7.700  0.7137 -0.3265  0.7334
  773MOL0     C 6575   3.684   0.159   7.726  0.4845  0.0324 -0.1971
  773MOL0     C 6576   3.711   0.168   7.874  0.3754 -0.1193 -0.1834
  773MOL0     C 6577   3.857   0.156   7.914 -0.3584 -0.6330  0.3309
  773MOL0     C 6578   3.940   0.035   7.870 -0.5136  0.0511 -0.3366
  773MOL0     C 6579   3.933  -0.074   7.985  0.2176  0.5114  0.3832
  773MOL0     C 6580   3.806  -0.157   7.981 -0.8231 -0.4846 -0.5280
  773MOL0    Cl 6581   3.812  -0.279   8.116 -0.1092  0.5522 -0.0215
  773MOL0     C 6582   3.493   0.296   7.270 -0.4977 -0.4232 -0.2126
  773MOL0     C 6583   3.475   0.330   7.140  0.2629 -0.1655  0.1231
  773MOL0     O 6584   3.366   0.362   6.873 -0.3225 -0.6956 -0.2914
  773MOL0     C 6585   3.390   0.471   6.616  1.0240  0.2352  0.3910
  773MOL0     C 6586   3.371   0.539   6.488  0.7374  0.2167 -0.2648
  773MOL0     N 6587   3.557   0.793   5.931 -0.8019 -0.7099  0.0991
  773MOL0     N 6588   3.656   0.789   5.853  0.2249  0.4672  0.0603
  773MOL0     C 6589   3.378   0.326   4.846  0.3798  0.2328 -0.0689
  773MOL0     C 6590   3.266   0.246   4.821  0.0247 -0.2396 -0.2368
  773MOL0     C 6591   2.816   0.134   4.772 -0.2774 -0.6951  0.3275
  773MOL0     C 6592   2.798   0.108   4.630  0.1896 -0.0432  0.1396
  773MOL0     C 6593   2.717  -0.002   4.595 -0.8266  0.2925  0.3893
  773MOL0     C 6594   2.675  -0.095   4.695 -0.6282  0.3295 -0.5042
  773MOL0     O 6595   2.594  -0.197   4.650 -0.3614  0.1710  0.1852
  773MOL0     C 6596   2.624  -0.334   4.702 -0.2030 -0.3404 -0.1639
  773MOL0     C 6597   2.515  -0.422   4.625 -0.1194  1.1160 -0.0600
  773MOL0     C 6598   2.369  -0.376   4.633  1.3043 -0.4635 -0.4553
  773MOL0     C 6599   2.304  -0.355   4.772  0.0754  0.4459  0.1185
  773MOL0     C 6600   2.291  -0.485   4.836 -0.4041 -1.0337  0.4048
  773MOL0     C 6601   2.271  -0.586   4.891 -0.7274  0.6228  0.0031
  773MOL0     C 6602   2.697  -0.060   4.828  0.0451 -0.0068 -0.0923
  773MOL0     C 6603   2.765   0.056   4.869  0.1724 -0.3683 -0.8918
  773MOL0     C 6604   2.774   0.072   5.021  0.2967  0.1689  0.0255
  773MOL0     H 6605   3.043   0.499   4.815 -0.1786  3.1671  1.4854
  773MOL0     H 6606   3.263   0.634   4.814  2.2195 -0.8342  1.8874
  773MOL0     H 6607   3.664   0.450   4.775 -1.3979 -0.4281 -1.7788
  773MOL0     H 6608   3.609   0.417   4.945 -0.6036  2.0419  1.5614
  773MOL0     H 6609   3.807   0.557   4.946 -0.4898  0.9135 -0.3914
  773MOL0     H 6610   3.719   0.692   4.867 -0.4458  2.1111  1.3121
  773MOL0     H 6611   3.570   0.729   5.066  0.0162 -0.1144  2.2136
  773MOL0     H 6612   3.592   0.569   5.125 -2.9942  2.5137  1.1799
  773MOL0     H 6613   3.810   0.597   5.193  0.0488  0.2081  0.1744
  773MOL0     H 6614   3.816   0.753   5.112 -1.0442  1.2101 -0.6105
  773MOL0     H 6615   3.632   0.817   5.310 -1.3355 -0.6829 -0.9724
  773MOL0     H 6616   3.798   0.796   5.351 -1.6497  0.8983  0.2389
  773MOL0     H 6617   3.572   0.582   5.351 -0.4669 -2.2936  4.1943
  773MOL0     H 6618   3.733   0.546   5.421 -2.8001 -1.4983  0.9591
  773MOL0     H 6619   3.598   0.595   5.600  1.4044 -0.3298 -0.1641
  773MOL0     H 6620   3.501   0.720   5.517  0.5300  4.8927  2.3923
  773MOL0     H 6621   3.785   0.774   5.618  0.6138  0.5704 -0.9541
  773MOL0     H 6622   3.678   0.883   5.532  0.4080  1.8810  3.0225
  773MOL0     H 6623   3.438   0.954   5.681 -0.7336 -1.6731  0.0790
  773MOL0     H 6624   3.243   0.846   5.885 -0.1401 -0.9063  1.6872
  773MOL0     H 6625   3.305   1.002   5.942 -1.4197 -0.1364  0.0156
  773MOL0     H 6626   3.186   0.837   6.111  0.9773  0.3601  1.9332
  773MOL0     H 6627   3.323   0.729   6.095  0.0649  0.4335 -0.0437
  773MOL0     H 6628   3.466   0.925   6.184  0.1624 -0.4786  0.7115
  773MOL0     H 6629   3.305   1.013   6.197 -3.1906 -0.5647 -0.3912
  773MOL0     H 6630   3.380   0.910   6.415  0.6486 -1.9500  1.7515
  773MOL0     H 6631   3.247   0.812   6.356  0.4471  1.0756  2.1367
  773MOL0     H 6632   3.587   0.789   6.551  3.0290 -2.8498  0.2872
  773MOL0     H 6633   3.604   0.837   6.778  1.4785  0.3331 -0.3479
  773MOL0     H 6634   3.694   0.691   6.834 -0.8975  0.6004 -0.1615
  773MOL0     H 6635   3.533   0.740   6.900 -2.0726  3.5154 -0.5572
  773MOL0     H 6636   3.760   0.501   7.087  0.8900 -1.0150  0.1624
  773MOL0     H 6637   3.796   0.442   7.320  1.6679 -2.4237 -1.5282
  773MOL0     H 6638   3.439   0.307   7.546 -0.6808  0.1433  1.0198
  773MOL0     H 6639   3.499   0.138   7.534  1.2007  1.2968 -2.7393
  773MOL0     H 6640   3.560   0.348   7.735  1.7260  0.3607 -1.1729
  773MOL0     H 6641   3.487   0.191   7.762  0.0971  1.3462  1.5310
  773MOL0     H 6642   3.764   0.195   7.661  0.4832  0.3486 -0.0274
  773MOL0     H 6643   3.646   0.060   7.701 -0.4777  0.2053  0.5087
  773MOL0     H 6644   3.644   0.091   7.911  1.1183 -0.7958 -0.2199
  773MOL0     H 6645   3.688   0.268   7.911  1.0381 -0.0001 -0.0812
  773MOL0     H 6646   3.912   0.234   7.860 -1.9008  0.0988 -0.2359
  773MOL0     H 6647   3.863   0.172   8.022 -0.9993 -1.4239  0.4889
  773MOL0     H 6648   4.043   0.072   7.870 -1.1094  1.8805  1.1333
  773MOL0     H 6649   3.902  -0.001   7.774  0.0693 -0.5114 -0.3560
  773MOL0     H 6650   3.934  -0.017   8.079 -1.6964  1.8783 -0.3768
  773MOL0     H 6651   4.012  -0.150   7.982  0.9160  1.0883  2.2843
  773MOL0     H 6652   3.810  -0.207   7.884  1.0265  1.7006 -1.6692
  773MOL0     H 6653   3.713  -0.101   7.976 -1.0609 -0.8741 -0.5783
  773MOL0     H 6654   3.412   0.237   7.310 -2.9258  2.2427 -0.8560
  773MOL0     H 6655   3.375   0.320   7.099 -0.0462 -2.2040  1.2373
  773MOL0     H 6656   3.350   0.370   6.624  1.4248  0.1355  1.3170
  773MOL0     H 6657   3.323   0.490   6.403 -0.7594  0.8620  0.1791
  773MOL0     H 6658   3.461   0.275   4.893 -1.7194 -1.1200  2.4188
  773MOL0     H 6659   3.275   0.138   4.824  1.4592 -0.3326 -3.2513
  773MOL0     H 6660   2.835   0.180   4.558  2.1200 -0.1471  0.9620
  773MOL0     H 6661   2.700  -0.027   4.491  1.7668  0.9820 -0.2832
  773MOL0     H 6662   2.729  -0.360   4.687  0.5760  0.7420  2.7578
  773MOL0     H 6663   2.604  -0.338   4.810 -0.4607 -0.7806 -0.2232
  773MOL0     H 6664   2.512  -0.525   4.660 -1.4313  1.3179  0.4653
  773MOL0     H 6665   2.556  -0.417   4.524  0.8743 -0.8647  0.1982
  773MOL0     H 6666   2.361  -0.282   4.578  0.2275  0.0367  0.5241
  773MOL0     H 6667   2.311  -0.454   4.584 -1.1352  1.2017 -0.3643
  773MOL0     H 6668   2.206  -0.314   4.748 -0.5223 -0.5101  0.8832
  773MOL0     H 6669   2.359  -0.284   4.834 -0.2873  0.5428  0.3329
  773MOL0     H 6670   2.246  -0.678   4.939 -2.8317  1.3594  0.4076
  773MOL0     H 6671   2.652  -0.127   4.901  2.7424 -0.5237  1.2517
  773MOL0     H 6672   2.696   0.006   5.061 -1.2297 -0.1668 -3.2137
  773MOL0     H 6673   2.868   0.035   5.062  0.2884  0.1109 -0.0076
  773MOL0     H 6674   2.766   0.177   5.053 -3.4103 -0.0953  0.3625
  774MOL0     O 6675   4.149   3.645  10.074 -0.2261  0.1665  1.0938
  774MOL0     C 6676   4.220   3.625  10.173 -0.4608 -0.5022 -0.2156
  774MOL0     O 6677   4.325   3.714  10.220  1.0215 -0.3229  0.4858
  774MOL0     C 6678   4.402   3.750  10.120 -0.0472 -1.5693  0.6160
  774MOL0     C 6679   4.395   3.711   9.980 -0.3072 -0.3210 -0.7912
  774MOL0     C 6680   4.480   3.779   9.886 -0.3427  1.1019 -0.0318
  774MOL0     C 6681   4.579   3.866   9.935 -0.2973  0.7149  1.0079
  774MOL0     O 6682   4.672   3.929   9.855 -0.0836  0.7909  0.3114
  774MOL0     C 6683   4.647   3.949   9.706 -0.2742  0.6202 -0.7064
  774MOL0     C 6684   4.519   4.018   9.660 -0.0932  0.2256  0.0135
  774MOL0     C 6685   4.542   4.173   9.646  0.0959  0.5123 -0.3489
  774MOL0     C 6686   4.639   4.233   9.752  0.4625 -0.8415  0.5591
  774MOL0     C 6687   4.625   4.386   9.756 -0.3314 -0.5423  0.1130
  774MOL0     C 6688   4.758   4.452   9.813  0.3940  0.2891  0.0686
  774MOL0     C 6689   4.788   4.587   9.750 -0.1570 -0.2455  0.9839
  774MOL0     C 6690   4.929   4.629   9.787  0.5521 -0.6623 -0.2259
  774MOL0     N 6691   4.945   4.670   9.928  0.8214 -0.3712  0.0093
  774MOL0     C 6692   4.853   4.748   9.995 -0.4337 -0.0301 -0.3845
  774MOL0     C 6693   4.922   4.775  10.108 -0.4894  0.1147 -0.0093
  774MOL0     C 6694   4.861   4.867  10.210  0.1033  0.0433  0.7754
  774MOL0     C 6695   4.785   4.787  10.324  0.0355 -0.2936 -0.0104
  774MOL0     C 6696   4.640   4.745  10.289  0.2093 -0.1740  0.3739
  774MOL0     C 6697   4.533   4.868  10.306  0.2747  1.2311 -0.6490
  774MOL0     O 6698   4.560   4.972  10.218 -0.8788 -0.0236  0.2720
  774MOL0     C 6699   4.536   4.956  10.083  0.6774  0.0768 -0.1386
  774MOL0     C 6700   4.489   4.841  10.018  0.9922 -0.5653 -0.6686
  774MOL0     C 6701   4.485   4.832   9.878  0.1894 -0.3758  0.9831
  774MOL0     C 6702   4.409   4.709   9.830 -0.0528 -0.4049  0.3965
  774MOL0     C 6703   4.550   4.923   9.788  0.6353 -0.3156 -0.0499
  774MOL0     C 6704   4.551   4.939   9.640 -0.3749 -0.0329  0.6748
  774MOL0     O 6705   4.443   4.868   9.586  1.1140 -0.0311  0.1780
  774MOL0     C 6706   4.456   4.843   9.455  0.3803 -0.5329  0.3929
  774MOL0     C 6707   4.503   4.724   9.408 -0.9463 -0.3556 -0.7165
  774MOL0     C 6708   4.527   4.696   9.272  0.2140  0.0555 -0.3157
  774MOL0     C 6709   4.493   4.783   9.176  0.0086  0.1134  0.8138
  774MOL0     O 6710   4.481   4.764   9.041 -0.7427 -0.4615 -0.8485
  774MOL0     C 6711   4.501   4.634   8.993  0.0727  0.3609 -0.2463
  774MOL0     C 6712   4.467   4.612   8.849  0.2501  0.4437 -1.0460
  774MOL0     C 6713   4.507   4.475   8.805 -0.6989  0.3493  0.2344
  774MOL0     C 6714   4.661   4.456   8.803 -0.3534 -0.6424  0.5370
  774MOL0     C 6715   4.719   4.332   8.724  0.0872 -0.2320 -0.9260
  774MOL0     C 6716   4.697   4.215   8.805  0.5863  0.0719 -0.7375
  774MOL0     C 6717   4.743   4.081   8.735 -0.4845 -0.8145 -0.5990
  774MOL0     C 6718   4.679   3.961   8.785  0.6449  0.4631 -0.8745
  774MOL0    Cl 6719   4.677   3.962   8.965  0.7131  0.1935 -0.1901
  774MOL0     C 6720   4.438   4.902   9.221  0.4442 -0.3825 -0.1910
  774MOL0     C 6721   4.423   4.936   9.363  0.1114  0.6172  1.1974
  774MOL0     O 6722   4.643   4.997   9.580  0.4665 -0.4246  0.3182
  774MOL0     C 6723   4.607   5.028   9.856 -0.4491 -0.3039  0.6934
  774MOL0     C 6724   4.594   5.047   9.997  0.2407  0.5778  0.1863
  774MOL0     N 6725   5.040   4.701  10.114  0.3156 -0.1210  0.8697
  774MOL0     N 6726   5.057   4.652  10.001  0.7487 -0.9076 -0.6642
  774MOL0     C 6727   4.605   3.881  10.071 -0.5870  0.2921 -0.4612
  774MOL0     C 6728   4.508   3.831  10.164 -0.3765 -0.1725 -1.3995
  774MOL0     C 6729   4.187   3.511  10.263  0.8125  0.1159  1.1154
  774MOL0     C 6730   4.287   3.467  10.352 -0.1694  0.3319  0.2470
  774MOL0     C 6731   4.260   3.364  10.440 -0.4709 -1.1285  0.6005
  774MOL0     C 6732   4.135   3.308  10.444 -0.1886  0.5100 -0.2447
  774MOL0     O 6733   4.117   3.202  10.535 -0.8745 -0.6187  0.3492
  774MOL0     C 6734   4.003   3.126  10.553 -0.6337 -0.2288 -1.1361
  774MOL0     C 6735   4.046   3.040  10.677 -0.8938  0.1918  0.4369
  774MOL0     C 6736   4.056   3.119  10.804  0.3991  0.9522 -0.3370
  774MOL0     C 6737   4.148   3.038  10.896 -0.5548 -0.2251 -0.2867
  774MOL0     C 6738   4.163   3.109  11.023 -0.0250  0.3143  0.7711
  774MOL0     C 6739   4.190   3.173  11.118 -0.1707 -0.8053  0.2693
  774MOL0     C 6740   4.037   3.354  10.359  0.1590 -0.0541  0.2127
  774MOL0     C 6741   4.056   3.454  10.268 -0.1395 -0.3000  0.8647
  774MOL0     C 6742   3.934   3.485  10.183  0.0321  0.1109  0.0505
  774MOL0     H 6743   4.328   3.633   9.944  0.5599 -0.5524 -1.9645
  774MOL0     H 6744   4.483   3.739   9.785 -0.4792 -2.7332  1.3077
  774MOL0     H 6745   4.639   3.847   9.667  3.2241  0.6499 -1.9137
  774MOL0     H 6746   4.725   3.997   9.646 -2.2315  3.5670 -1.0994
  774MOL0     H 6747   4.494   3.982   9.560  2.6634  1.0063 -1.0662
  774MOL0     H 6748   4.434   4.005   9.728  2.0378  0.7586  2.9868
  774MOL0     H 6749   4.577   4.201   9.546  0.3315  3.4318  0.4824
  774MOL0     H 6750   4.444   4.220   9.648 -0.4234 -0.4882 -1.2428
  774MOL0     H 6751   4.619   4.188   9.849 -0.6371 -3.3265 -0.7352
  774MOL0     H 6752   4.737   4.209   9.712  0.0702  0.3022 -1.2326
  774MOL0     H 6753   4.542   4.427   9.813 -1.8370 -2.0049 -0.9162
  774MOL0     H 6754   4.606   4.412   9.651  1.8765  0.8721 -0.0133
  774MOL0     H 6755   4.747   4.471   9.921 -1.4529 -2.4896  0.4748
  774MOL0     H 6756   4.826   4.368   9.796 -1.1321 -1.1213  0.6368
  774MOL0     H 6757   4.710   4.647   9.797  0.8132 -0.6325  3.2128
  774MOL0     H 6758   4.773   4.581   9.642  0.2513  0.5892  0.8742
  774MOL0     H 6759   4.993   4.548   9.752  2.5811  1.4265 -1.6849
  774MOL0     H 6760   4.956   4.717   9.727  2.6429 -1.3033 -0.3277
  774MOL0     H 6761   4.748   4.769   9.975 -0.1509  2.3154  0.2476
  774MOL0     H 6762   4.800   4.944  10.163 -1.2675 -0.1929  2.0793
  774MOL0     H 6763   4.946   4.925  10.246 -0.0265  1.6366 -1.3067
  774MOL0     H 6764   4.843   4.695  10.337  2.5310  0.8648 -2.0843
  774MOL0     H 6765   4.794   4.856  10.408 -4.4518 -0.2678  0.7133
  774MOL0     H 6766   4.644   4.700  10.189 -1.1879 -0.5917  0.4800
  774MOL0     H 6767   4.609   4.660  10.350 -2.8015  0.6824  0.1844
  774MOL0     H 6768   4.435   4.820  10.299  1.4212 -1.2763 -0.5704
  774MOL0     H 6769   4.537   4.910  10.406 -0.7679  0.8097 -0.4194
  774MOL0     H 6770   4.440   4.766  10.079  0.9108 -0.4598 -0.6041
  774MOL0     H 6771   4.462   4.655   9.752 -0.3122 -2.5005  1.5884
  774MOL0     H 6772   4.322   4.749   9.777  1.4178  1.3768 -0.8115
  774MOL0     H 6773   4.374   4.639   9.907 -1.7896  1.6675  1.6058
  774MOL0     H 6774   4.555   4.660   9.478  1.6741  0.7832 -1.4901
  774MOL0     H 6775   4.581   4.605   9.245 -3.7000 -2.0366 -1.8559
  774MOL0     H 6776   4.605   4.602   9.003 -0.0057 -0.2672 -1.2883
  774MOL0     H 6777   4.449   4.563   9.058  2.0479  1.6903  3.0303
  774MOL0     H 6778   4.361   4.631   8.832  0.6710  3.1970 -1.0245
  774MOL0     H 6779   4.514   4.694   8.795 -0.7284  1.3761 -0.5239
  774MOL0     H 6780   4.479   4.468   8.699  0.5173 -0.7584 -0.0470
  774MOL0     H 6781   4.467   4.402   8.875 -0.8787 -1.2002 -1.4075
  774MOL0     H 6782   4.696   4.454   8.907 -1.4959 -0.2789  0.9464
  774MOL0     H 6783   4.705   4.543   8.754  0.6080 -0.4808  1.6357
  774MOL0     H 6784   4.669   4.327   8.627  3.1422 -1.9476 -2.5537
  774MOL0     H 6785   4.827   4.349   8.713  0.1810  3.8036  3.2185
  774MOL0     H 6786   4.590   4.210   8.828  0.7984 -0.1856  0.2880
  774MOL0     H 6787   4.743   4.222   8.904  0.2661 -0.5844 -0.5336
  774MOL0     H 6788   4.850   4.065   8.752 -0.4411  0.2506  0.2904
  774MOL0     H 6789   4.714   4.084   8.630  0.5133  0.6461 -0.8575
  774MOL0     H 6790   4.740   3.873   8.760  0.6474  0.1689  0.1030
  774MOL0     H 6791   4.576   3.946   8.753  1.0787 -1.8667 -1.3848
  774MOL0     H 6792   4.396   4.974   9.153 -1.6160 -1.3496 -0.0057
  774MOL0     H 6793   4.383   5.032   9.394 -2.5393 -0.3141  0.9249
  774MOL0     H 6794   4.640   5.115   9.799  0.5963  0.5664  2.5457
  774MOL0     H 6795   4.654   5.127  10.040  0.4417  1.3229 -1.4251
  774MOL0     H 6796   4.680   3.951  10.105  0.8534 -0.1266 -2.5548
  774MOL0     H 6797   4.511   3.868  10.266  3.4577 -2.0663 -0.6228
  774MOL0     H 6798   4.381   3.520  10.363  0.2209  0.0534 -1.4208
  774MOL0     H 6799   4.337   3.327  10.506  0.3404 -1.1905 -0.3665
  774MOL0     H 6800   3.920   3.191  10.582  0.5319  0.0326  1.9730
  774MOL0     H 6801   3.972   3.052  10.478 -1.3288 -3.5995  2.1660
  774MOL0     H 6802   4.131   2.978  10.648 -2.4629 -0.9209 -2.1146
  774MOL0     H 6803   3.971   2.963  10.695  1.3370 -1.8700  1.4102
  774MOL0     H 6804   4.085   3.223  10.785 -1.9870  1.5977 -0.7228
  774MOL0     H 6805   3.959   3.123  10.854  0.7752 -0.9747  0.6186
  774MOL0     H 6806   4.245   3.019  10.851  0.7155  3.2303  0.6930
  774MOL0     H 6807   4.100   2.940  10.910  2.5657 -1.5031  2.8506
  774MOL0     H 6808   4.203   3.229  11.209  0.2789 -0.3038 -0.0955
  774MOL0     H 6809   3.932   3.326  10.368  0.6369 -1.9599  0.2111
  774MOL0     H 6810   3.898   3.589  10.182  0.8103  0.4178 -2.1276
  774MOL0     H 6811   3.958   3.463  10.079  1.4367  0.4961  0.2668
  774MOL0     H 6812   3.844   3.427  10.205  0.6415 -1.2253 -0.8542
  775MOL0     O 6813   5.223   9.771   3.095 -0.4698  0.0354  0.1887
  775MOL0     C 6814   5.344   9.794   3.108 -0.1922 -0.4936  0.4054
  775MOL0     O 6815   5.419   9.871   3.026  1.0223 -0.0528  0.2955
  775MOL0     C 6816   5.384   9.924   2.907 -0.6254 -1.7763 -0.6626
  775MOL0     C 6817   5.344   9.847   2.799 -0.4449  0.2150  0.3075
  775MOL0     C 6818   5.305   9.914   2.678  0.3412  0.4199 -0.2673
  775MOL0     C 6819   5.306  10.052   2.667  0.5079  0.6278 -0.0025
  775MOL0     O 6820   5.282  10.105   2.542 -0.4155  0.7399 -0.6355
  775MOL0     C 6821   5.168  10.074   2.470 -0.2023 -0.2927 -0.4156
  775MOL0     C 6822   5.213  10.013   2.338 -0.0761  0.1418  0.6116
  775MOL0     C 6823   5.296  10.106   2.248  0.0825 -0.2712 -0.6999
  775MOL0     C 6824   5.373  10.029   2.144  0.0014  0.9777  0.0358
  775MOL0     C 6825   5.513   9.966   2.189 -0.1545  0.5495  0.2056
  775MOL0     C 6826   5.572   9.866   2.101  0.1364  0.6920 -0.2934
  775MOL0     C 6827   5.710   9.813   2.157 -1.6180  0.0476  0.0715
  775MOL0     C 6828   5.728   9.664   2.118  0.1021  0.3924  0.0289
  775MOL0     N 6829   5.815   9.581   2.200  0.2415  0.1323 -0.5026
  775MOL0     C 6830   5.809   9.580   2.340  0.3923 -0.5197 -0.5000
  775MOL0     C 6831   5.927   9.524   2.381 -0.4028  0.5410  0.1287
  775MOL0     C 6832   5.991   9.509   2.527  0.3410 -0.9181  0.3653
  775MOL0     C 6833   5.942   9.380   2.599 -0.3072  0.5274 -0.2770
  775MOL0     C 6834   6.026   9.254   2.572  0.6163  0.2719 -0.6081
  775MOL0     C 6835   6.137   9.219   2.668 -0.6485  0.2358 -0.0391
  775MOL0     O 6836   6.066   9.191   2.793  0.2210 -0.8218  0.2665
  775MOL0     C 6837   6.131   9.127   2.905  0.2668 -0.1477 -0.3448
  775MOL0     C 6838   6.265   9.095   2.909  0.3242 -0.2437  0.1116
  775MOL0     C 6839   6.322   9.024   3.015  0.1174  0.2984  0.1944
  775MOL0     C 6840   6.469   9.008   3.012 -0.1919  0.7585  0.1155
  775MOL0     C 6841   6.231   8.975   3.115 -0.5512 -0.2592  0.0115
  775MOL0     C 6842   6.281   8.887   3.224 -0.4748  0.6893 -0.0058
  775MOL0     O 6843   6.214   8.893   3.340  0.4661 -0.4015  0.1868
  775MOL0     C 6844   6.246   8.812   3.448  0.1112 -0.3046  0.0524
  775MOL0     C 6845   6.376   8.796   3.493  0.1069 -0.0131  0.0646
  775MOL0     C 6846   6.395   8.717   3.603 -0.8021 -0.1652 -0.2847
  775MOL0     C 6847   6.297   8.629   3.663 -0.0777 -0.3973 -0.8299
  775MOL0     O 6848   6.323   8.534   3.760  0.4344  0.2744  0.2076
  775MOL0     C 6849   6.461   8.492   3.779  0.9849  0.3525 -0.0440
  775MOL0     C 6850   6.463   8.352   3.854  0.6026 -0.0206  0.0854
  775MOL0     C 6851   6.595   8.290   3.899  0.6852 -0.3780  0.5299
  775MOL0     C 6852   6.655   8.360   4.016 -0.2634  0.2756 -0.5419
  775MOL0     C 6853   6.807   8.363   4.029 -0.2014  0.4261  0.3179
  775MOL0     C 6854   6.859   8.400   4.167 -0.0824  0.6125 -0.2684
  775MOL0     C 6855   7.009   8.430   4.173  0.6467  0.3584  0.5254
  775MOL0     C 6856   7.050   8.546   4.270 -0.5854 -0.3012 -0.6112
  775MOL0    Cl 6857   7.038   8.720   4.202 -0.2509 -0.2665  0.2099
  775MOL0     C 6858   6.180   8.639   3.594 -0.3648  0.7289 -0.1360
  775MOL0     C 6859   6.150   8.722   3.492 -0.5699 -0.7970 -0.8674
  775MOL0     O 6860   6.380   8.808   3.198  0.6698 -0.1622 -0.6766
  775MOL0     C 6861   6.101   9.005   3.108 -1.0005 -0.4662 -0.1657
  775MOL0     C 6862   6.051   9.083   3.010  0.4456  0.8460 -0.1066
  775MOL0     N 6863   5.998   9.497   2.267  0.2053  0.5091  0.8089
  775MOL0     N 6864   5.928   9.514   2.158 -0.2567  0.7623 -0.3413
  775MOL0     C 6865   5.350  10.131   2.774  0.1201  0.4517  0.1095
  775MOL0     C 6866   5.389  10.069   2.892 -0.7785 -0.2294  1.3482
  775MOL0     C 6867   5.403   9.713   3.216 -0.1952  0.4779  0.8192
  775MOL0     C 6868   5.493   9.783   3.299 -0.6324  0.2235 -0.4259
  775MOL0     C 6869   5.555   9.732   3.411 -0.4927  0.4979  1.0966
  775MOL0     C 6870   5.542   9.593   3.432  0.9693 -0.1813 -0.2476
  775MOL0     O 6871   5.605   9.524   3.532 -0.0416 -0.4531 -0.0319
  775MOL0     C 6872   5.715   9.586   3.610 -0.2802  0.1407 -0.3434
  775MOL0     C 6873   5.657   9.662   3.733  0.0760  0.2404  0.1209
  775MOL0     C 6874   5.552   9.583   3.808 -0.2926  0.1444  0.3672
  775MOL0     C 6875   5.471   9.673   3.894 -0.3071 -0.3627 -0.4588
  775MOL0     C 6876   5.562   9.739   3.989 -0.0066 -0.2315  0.2549
  775MOL0     C 6877   5.641   9.793   4.056  0.2660 -0.3698 -0.1085
  775MOL0     C 6878   5.465   9.518   3.350  0.5475 -0.3330 -0.1547
  775MOL0     C 6879   5.385   9.573   3.239 -0.2087  0.5023  0.5472
  775MOL0     C 6880   5.322   9.480   3.144  0.3003 -0.6998 -0.1851
  775MOL0     H 6881   5.348   9.740   2.817  1.1681  0.3547  0.9424
  775MOL0     H 6882   5.288   9.850   2.592  2.1685  0.2159 -0.5234
  775MOL0     H 6883   5.106  10.161   2.446  1.7575  1.1807 -0.3114
  775MOL0     H 6884   5.105  10.000   2.520  0.8979 -1.7442 -1.1197
  775MOL0     H 6885   5.285   9.934   2.358  1.9716  1.6112 -0.6066
  775MOL0     H 6886   5.120   9.982   2.289  0.5729  2.0019 -2.0260
  775MOL0     H 6887   5.227  10.183   2.213  1.2083  0.3397 -1.6186
  775MOL0     H 6888   5.368  10.157   2.314 -0.2110 -1.1158  0.2928
  775MOL0     H 6889   5.314   9.945   2.107 -0.4742  1.0890  0.5380
  775MOL0     H 6890   5.379  10.101   2.062 -0.4633  2.7808  1.5045
  775MOL0     H 6891   5.510   9.919   2.288  2.0637  1.2654  0.6630
  775MOL0     H 6892   5.591  10.041   2.202 -1.1126  2.2815 -3.0184
  775MOL0     H 6893   5.504   9.781   2.091  0.1302  0.8079 -1.4083
  775MOL0     H 6894   5.579   9.893   1.995 -2.8795 -2.1343 -1.3757
  775MOL0     H 6895   5.714   9.823   2.266 -1.6894  3.4623 -0.1352
  775MOL0     H 6896   5.794   9.877   2.130  1.0889 -2.9584  0.8050
  775MOL0     H 6897   5.633   9.615   2.097  0.5939 -0.6205  0.0968
  775MOL0     H 6898   5.773   9.667   2.018  1.6212  1.4271  0.6910
  775MOL0     H 6899   5.741   9.632   2.407  0.6629  3.0482 -2.7159
  775MOL0     H 6900   5.958   9.600   2.578 -0.3475 -0.7432 -0.3760
  775MOL0     H 6901   6.099   9.523   2.513  0.1574  3.7878  1.9286
  775MOL0     H 6902   5.933   9.399   2.706  0.5746 -1.5927  0.2282
  775MOL0     H 6903   5.841   9.353   2.566 -0.6889 -0.4216  1.5379
  775MOL0     H 6904   5.951   9.175   2.562  1.7693 -0.7290 -1.5215
  775MOL0     H 6905   6.057   9.260   2.468 -2.2186  1.4998 -1.4884
  775MOL0     H 6906   6.190   9.130   2.634 -0.6149 -0.3521  1.4615
  775MOL0     H 6907   6.202   9.305   2.690 -1.0454  0.1202  1.7253
  775MOL0     H 6908   6.330   9.134   2.831  0.5244 -0.1375  0.3309
  775MOL0     H 6909   6.510   9.099   2.966  0.3156 -0.3131 -1.6414
  775MOL0     H 6910   6.498   8.922   2.950  1.9907  0.0788  1.9416
  775MOL0     H 6911   6.509   9.006   3.114 -3.4892 -0.3741  1.4967
  775MOL0     H 6912   6.461   8.849   3.452 -0.7149  0.5847 -0.9188
  775MOL0     H 6913   6.497   8.707   3.637 -0.6962  1.1191 -0.1598
  775MOL0     H 6914   6.505   8.474   3.681 -0.8935 -3.2153 -0.4221
  775MOL0     H 6915   6.514   8.577   3.823  2.0325  0.1309 -0.8635
  775MOL0     H 6916   6.410   8.368   3.948  1.5884  0.1713  0.6213
  775MOL0     H 6917   6.410   8.274   3.799 -0.5388 -0.4080  1.6811
  775MOL0     H 6918   6.672   8.297   3.821  1.2345 -3.7512  0.6366
  775MOL0     H 6919   6.578   8.186   3.924 -1.8346 -0.6445 -1.7974
  775MOL0     H 6920   6.616   8.308   4.104  1.2930 -1.7429 -0.9729
  775MOL0     H 6921   6.630   8.466   4.014 -2.5779 -0.1707  0.9503
  775MOL0     H 6922   6.840   8.259   4.024  1.3828  0.8406  1.3417
  775MOL0     H 6923   6.858   8.417   3.948 -0.9040 -0.5382 -0.8127
  775MOL0     H 6924   6.841   8.320   4.240 -0.2957 -2.2782 -3.2625
  775MOL0     H 6925   6.803   8.487   4.203 -0.6386 -0.8169  2.6928
  775MOL0     H 6926   7.039   8.458   4.072  1.4343  0.6489  0.8285
  775MOL0     H 6927   7.061   8.345   4.217 -1.1820  0.3331  2.8874
  775MOL0     H 6928   7.156   8.522   4.280 -1.2355 -3.4263 -0.3566
  775MOL0     H 6929   7.016   8.541   4.373 -1.3031 -3.8100 -0.8934
  775MOL0     H 6930   6.106   8.562   3.610 -0.1320  0.1562 -1.7009
  775MOL0     H 6931   6.053   8.726   3.442 -0.0688 -0.6071 -1.8629
  775MOL0     H 6932   6.040   8.979   3.194 -0.8184  1.1823  0.5062
  775MOL0     H 6933   5.948   9.115   3.022 -0.0052 -0.9473  1.1405
  775MOL0     H 6934   5.365  10.238   2.767  4.5264  0.1036  1.4511
  775MOL0     H 6935   5.412  10.121   2.985 -0.4839 -0.9157  1.6676
  775MOL0     H 6936   5.510   9.889   3.280  0.9733  0.7410  3.1173
  775MOL0     H 6937   5.604   9.798   3.481  3.0434 -1.7042  0.9192
  775MOL0     H 6938   5.788   9.514   3.649  1.3795  2.0892  0.3184
  775MOL0     H 6939   5.778   9.634   3.534 -3.0701  2.0570 -1.6185
  775MOL0     H 6940   5.604   9.743   3.683 -2.4106  0.4435  2.8529
  775MOL0     H 6941   5.740   9.696   3.796 -2.3512  0.1738  3.6192
  775MOL0     H 6942   5.479   9.529   3.747 -1.6682  1.7118  0.5268
  775MOL0     H 6943   5.607   9.512   3.870  2.7450  1.7742 -0.2518
  775MOL0     H 6944   5.400   9.606   3.943  1.1500 -0.7010  1.3338
  775MOL0     H 6945   5.421   9.746   3.830 -0.8464  0.2378  0.6193
  775MOL0     H 6946   5.723   9.838   4.107 -0.2788  0.4978  0.0288
  775MOL0     H 6947   5.449   9.414   3.378 -1.5862 -0.2330 -0.7970
  775MOL0     H 6948   5.387   9.474   3.057  1.8774  0.6887  0.8312
  775MOL0     H 6949   5.324   9.381   3.191 -4.1860 -1.0127 -0.2025
  775MOL0     H 6950   5.217   9.505   3.126  0.5700 -0.1062 -0.9831
  776MOL0     O 6951   6.355   0.218   2.104  0.3957 -0.4538  0.0155
  776MOL0     C 6952   6.290   0.123   2.073 -0.6915 -0.1241 -0.6790
  776MOL0     O 6953   6.350   0.012   2.020 -0.3750  0.4347  0.2545
  776MOL0     C 6954   6.481  -0.028   2.020 -0.2927 -0.2957 -0.3652
  776MOL0     C 6955   6.514  -0.131   1.933  0.3019  0.2623 -0.0375
  776MOL0     C 6956   6.645  -0.177   1.924  0.5172  0.4195  0.3085
  776MOL0     C 6957   6.748  -0.104   1.975  0.0281  0.3519 -0.7458
  776MOL0     O 6958   6.871  -0.156   1.940  0.7242  0.0737 -0.6641
  776MOL0     C 6959   6.948  -0.159   2.058 -0.0413  1.0983 -0.4960
  776MOL0     C 6960   7.058  -0.266   2.038 -0.2627  0.2890 -0.3393
  776MOL0     C 6961   7.162  -0.274   2.154  1.2882  0.0814  1.3387
  776MOL0     C 6962   7.278  -0.351   2.100 -0.0502 -0.2751 -0.3543
  776MOL0     C 6963   7.360  -0.392   2.218 -1.3547  0.1715  0.1192
  776MOL0     C 6964   7.479  -0.478   2.178 -0.1751 -0.2659  0.2194
  776MOL0     C 6965   7.561  -0.541   2.291 -0.1283 -0.7740  0.0449
  776MOL0     C 6966   7.703  -0.579   2.259  0.3703 -0.0068  0.1341
  776MOL0     N 6967   7.772  -0.612   2.378  0.0288 -0.2805 -0.1698
  776MOL0     C 6968   7.852  -0.723   2.400  0.4191 -0.4464  0.5762
  776MOL0     C 6969   7.925  -0.699   2.512  1.0095 -0.1994 -0.0304
  776MOL0     C 6970   8.018  -0.777   2.605 -0.0483 -0.0760 -0.0045
  776MOL0     C 6971   7.933  -0.854   2.708 -0.5146 -0.4791 -1.0239
  776MOL0     C 6972   7.832  -0.948   2.639  0.2085 -1.0841 -0.0036
  776MOL0     C 6973   7.759  -1.037   2.735 -0.1704  0.8157  1.4656
  776MOL0     O 6974   7.647  -0.971   2.801 -0.1688  0.4810  0.2391
  776MOL0     C 6975   7.541  -0.926   2.726  0.3786  1.0813  1.0319
  776MOL0     C 6976   7.499  -0.963   2.594 -0.7798 -0.8689 -0.3369
  776MOL0     C 6977   7.396  -0.897   2.530 -0.8202 -0.3572  0.8988
  776MOL0     C 6978   7.391  -0.929   2.385  0.4620  0.0349  1.0348
  776MOL0     C 6979   7.332  -0.785   2.593  0.5643  0.1638  0.0894
  776MOL0     C 6980   7.233  -0.691   2.535  0.2661 -0.4404  0.0331
  776MOL0     O 6981   7.194  -0.731   2.407 -0.8184 -0.5420 -0.3927
  776MOL0     C 6982   7.095  -0.660   2.336  1.2251  0.8669 -0.0423
  776MOL0     C 6983   7.094  -0.672   2.190 -1.4360 -0.1615 -1.0705
  776MOL0     C 6984   6.990  -0.621   2.113  0.3749  1.0788  0.9383
  776MOL0     C 6985   6.881  -0.558   2.171  0.2100 -0.4218 -0.3737
  776MOL0     O 6986   6.780  -0.529   2.084 -0.2574 -0.1955 -0.7877
  776MOL0     C 6987   6.650  -0.484   2.132 -0.3843 -0.5142  0.3854
  776MOL0     C 6988   6.557  -0.487   2.022  0.1767  0.0351  0.3024
  776MOL0     C 6989   6.424  -0.440   2.074  0.4309 -0.1647  0.3185
  776MOL0     C 6990   6.322  -0.495   1.977  0.9386  1.0122  0.8534
  776MOL0     C 6991   6.188  -0.428   1.982  1.0143 -0.7215 -0.4692
  776MOL0     C 6992   6.097  -0.496   1.882 -0.1944 -0.8113 -0.1629
  776MOL0     C 6993   5.963  -0.415   1.869  0.5429  0.0388 -0.6353
  776MOL0     C 6994   5.862  -0.475   1.774 -1.1284  0.6589 -0.1122
  776MOL0    Cl 6995   5.744  -0.588   1.852 -0.3989  0.3003  0.0453
  776MOL0     C 6996   6.883  -0.536   2.309 -0.9079 -0.7046 -0.2991
  776MOL0     C 6997   6.985  -0.593   2.386  0.7950 -0.0817 -0.4257
  776MOL0     O 6998   7.201  -0.581   2.586  0.7676 -0.5258  0.1629
  776MOL0     C 6999   7.366  -0.769   2.727 -0.1636 -0.2906 -0.4643
  776MOL0     C 7000   7.471  -0.835   2.794  0.2466 -0.1620  0.1849
  776MOL0     N 7001   7.880  -0.574   2.559 -0.0475  0.1505 -0.7704
  776MOL0     N 7002   7.801  -0.523   2.476  0.4481  0.6981 -0.2217
  776MOL0     C 7003   6.722   0.004   2.066 -0.2344 -0.0844  0.9359
  776MOL0     C 7004   6.582   0.035   2.094  0.1052  1.0257  0.3327
  776MOL0     C 7005   6.143   0.132   2.094  0.0426 -0.4177 -0.0364
  776MOL0     C 7006   6.066   0.038   2.017  0.6592  0.8667  0.0848
  776MOL0     C 7007   5.930   0.037   2.030 -0.1104  0.1633  0.4034
  776MOL0     C 7008   5.865   0.138   2.095  0.7312 -0.0710 -0.0295
  776MOL0     O 7009   5.729   0.116   2.107  0.5907 -0.0373 -0.2521
  776MOL0     C 7010   5.650   0.214   2.171 -0.1984 -0.4000  0.2654
  776MOL0     C 7011   5.504   0.230   2.128  0.6262 -0.9936 -0.4399
  776MOL0     C 7012   5.432   0.099   2.122  0.8865  0.0781  0.3456
  776MOL0     C 7013   5.410   0.045   2.267  0.1670  0.5900  0.0660
  776MOL0     C 7014   5.305  -0.061   2.288 -0.2529  0.2046  0.5949
  776MOL0     C 7015   5.225  -0.152   2.295  0.1942  0.4253  0.3656
  776MOL0     C 7016   5.937   0.228   2.178  0.2136  0.6583  0.0378
  776MOL0     C 7017   6.080   0.221   2.175  0.4095  0.4362 -0.4587
  776MOL0     C 7018   6.145   0.325   2.260 -0.4198 -0.7467  0.5468
  776MOL0     H 7019   6.426  -0.180   1.893 -0.6001  0.3010  1.7919
  776MOL0     H 7020   6.667  -0.266   1.866 -1.5036  0.4857 -0.6475
  776MOL0     H 7021   6.883  -0.200   2.136  0.8530 -1.3985 -0.9460
  776MOL0     H 7022   6.988  -0.059   2.075  0.3602  0.7942  0.4652
  776MOL0     H 7023   7.009  -0.364   2.039  1.9432 -0.8907  1.6260
  776MOL0     H 7024   7.111  -0.240   1.946  0.1334  2.6926  0.5170
  776MOL0     H 7025   7.185  -0.170   2.178 -0.5728  0.8020  0.2355
  776MOL0     H 7026   7.113  -0.326   2.237  0.3900  3.0981  2.8488
  776MOL0     H 7027   7.248  -0.438   2.040  0.7184 -0.8265  0.0350
  776MOL0     H 7028   7.343  -0.288   2.040  1.0695 -1.7995 -0.8217
  776MOL0     H 7029   7.299  -0.452   2.286 -1.5560 -0.8628 -0.9475
  776MOL0     H 7030   7.399  -0.302   2.267 -1.8459  0.3968  0.1042
  776MOL0     H 7031   7.456  -0.553   2.102 -2.5893  0.9472 -0.3541
  776MOL0     H 7032   7.550  -0.413   2.127 -0.3908  0.0770  0.3491
  776MOL0     H 7033   7.514  -0.627   2.340 -1.1409  0.1674  0.7881
  776MOL0     H 7034   7.555  -0.471   2.376  1.0985  0.2201 -0.6426
  776MOL0     H 7035   7.691  -0.661   2.186 -2.7435 -0.6668  1.2456
  776MOL0     H 7036   7.759  -0.501   2.206  1.2668  0.5398  1.8368
  776MOL0     H 7037   7.846  -0.811   2.336 -3.2184 -0.1978  0.3640
  776MOL0     H 7038   8.084  -0.705   2.653 -3.9121  2.6640  1.7139
  776MOL0     H 7039   8.081  -0.840   2.542 -1.1976 -1.5329  0.2366
  776MOL0     H 7040   7.991  -0.915   2.777 -0.2463  3.3888  2.5547
  776MOL0     H 7041   7.886  -0.788   2.781  0.0741 -1.9821  0.7792
  776MOL0     H 7042   7.761  -0.896   2.574  0.8088 -1.9393 -1.4056
  776MOL0     H 7043   7.892  -1.003   2.565  1.8657  1.3437 -0.5824
  776MOL0     H 7044   7.719  -1.129   2.692 -1.5991  1.3411  1.6051
  776MOL0     H 7045   7.834  -1.067   2.809  0.8920  1.1517  0.5431
  776MOL0     H 7046   7.572  -1.025   2.544  2.1370  1.8577  0.2241
  776MOL0     H 7047   7.290  -0.957   2.350  1.4872 -0.7897 -1.5569
  776MOL0     H 7048   7.445  -1.024   2.375  0.9953  0.2743  1.6150
  776MOL0     H 7049   7.423  -0.851   2.315 -2.2397  0.2963 -0.0391
  776MOL0     H 7050   7.188  -0.704   2.149 -0.0473  1.7022  0.4673
  776MOL0     H 7051   6.992  -0.650   2.008  0.0102 -1.5986  1.6085
  776MOL0     H 7052   6.607  -0.549   2.209  1.2612 -3.0730 -0.7162
  776MOL0     H 7053   6.661  -0.382   2.169 -0.3595  0.3757 -1.9411
  776MOL0     H 7054   6.592  -0.438   1.930 -0.2400  2.4193  1.3264
  776MOL0     H 7055   6.562  -0.592   1.992  0.5907 -0.1578  1.0125
  776MOL0     H 7056   6.421  -0.331   2.072 -2.2310 -0.1030 -4.1091
  776MOL0     H 7057   6.401  -0.484   2.172 -0.0950 -3.7230 -1.2569
  776MOL0     H 7058   6.316  -0.605   1.979  0.9185  0.7925 -2.9363
  776MOL0     H 7059   6.366  -0.490   1.877  0.0975 -0.7325  0.3331
  776MOL0     H 7060   6.133  -0.425   2.076  2.1473 -2.1433  0.2740
  776MOL0     H 7061   6.207  -0.325   1.949 -2.1248 -0.4723 -1.8312
  776MOL0     H 7062   6.083  -0.601   1.910  3.7925 -1.6400 -0.6398
  776MOL0     H 7063   6.142  -0.486   1.783 -1.5732  2.2052 -0.5882
  776MOL0     H 7064   5.986  -0.310   1.846  2.9578 -0.6825 -1.8503
  776MOL0     H 7065   5.926  -0.413   1.973  2.3463  1.0074  0.0325
  776MOL0     H 7066   5.922  -0.528   1.701 -0.4694  3.0399 -1.3999
  776MOL0     H 7067   5.800  -0.394   1.734 -2.1233 -0.1468 -0.2618
  776MOL0     H 7068   6.808  -0.490   2.373  2.5821  0.3997  3.3914
  776MOL0     H 7069   6.962  -0.568   2.489 -2.8153  0.8515 -1.3087
  776MOL0     H 7070   7.323  -0.682   2.776  0.1950  0.4335 -1.4025
  776MOL0     H 7071   7.476  -0.834   2.903  0.2887 -1.5496  0.2135
  776MOL0     H 7072   6.802   0.057   2.116  0.4248 -0.4566  0.3005
  776MOL0     H 7073   6.556   0.112   2.166 -0.6366 -0.4866  1.7408
  776MOL0     H 7074   6.109  -0.044   1.961 -1.9480 -3.5909  3.8977
  776MOL0     H 7075   5.871  -0.048   1.994  1.9136 -1.0983 -0.0839
  776MOL0     H 7076   5.651   0.196   2.279  0.9632  0.7973  0.4689
  776MOL0     H 7077   5.685   0.315   2.150 -1.0623 -0.6351 -2.8130
  776MOL0     H 7078   5.497   0.272   2.027  0.0542 -3.4432 -1.4912
  776MOL0     H 7079   5.464   0.299   2.202  1.8934 -1.3114  0.5790
  776MOL0     H 7080   5.328   0.106   2.088  0.7157 -0.2842  0.7940
  776MOL0     H 7081   5.480   0.029   2.053  1.5166 -0.2198  1.0683
  776MOL0     H 7082   5.381   0.123   2.338  0.7865 -0.6394  1.7593
  776MOL0     H 7083   5.509   0.004   2.293  0.5218  0.8476 -0.8311
  776MOL0     H 7084   5.147  -0.225   2.295 -1.2188  1.8149 -1.7665
  776MOL0     H 7085   5.897   0.305   2.243  0.2079 -0.4772  1.4245
  776MOL0     H 7086   6.074   0.394   2.306  0.8971  1.6210 -0.7477
  776MOL0     H 7087   6.214   0.280   2.332  0.6923 -1.2598 -0.7960
  776MOL0     H 7088   6.216   0.385   2.202 -2.4860  0.6442 -0.6751
  777MOL0     O 7089  11.265   7.252   8.986  0.0316 -0.1463  0.4096
  777MOL0     C 7090  11.263   7.366   8.940 -0.5466 -0.3499  0.0022
  777MOL0     O 7091  11.230   7.480   9.007  0.7570  0.1689 -0.1109
  777MOL0     C 7092  11.220   7.492   9.142  0.3016 -0.7953  0.1928
  777MOL0     C 7093  11.202   7.624   9.164  0.4907  0.0786  0.3188
  777MOL0     C 7094  11.214   7.664   9.298 -0.7309 -0.2634  0.5292
  777MOL0     C 7095  11.243   7.575   9.402 -0.3207  0.3573  0.1204
  777MOL0     O 7096  11.280   7.622   9.528  0.3634 -0.0859 -0.8459
  777MOL0     C 7097  11.202   7.721   9.600 -0.3555 -0.0278 -0.6551
  777MOL0     C 7098  11.247   7.753   9.742 -1.5702  0.0345  0.8311
  777MOL0     C 7099  11.160   7.861   9.797 -0.8466 -0.7715 -1.0582
  777MOL0     C 7100  11.178   7.881   9.948 -0.3838 -0.3493  0.6014
  777MOL0     C 7101  11.055   7.959  10.017 -0.6808 -0.5955 -0.1987
  777MOL0     C 7102  11.090   8.109   9.997 -1.3667  0.3247 -0.7518
  777MOL0     C 7103  10.987   8.197  10.053  0.2907 -0.0186 -1.2204
  777MOL0     C 7104  11.001   8.335   9.990 -0.1566  0.9271  0.4733
  777MOL0     N 7105  10.909   8.435  10.047  1.4292 -0.3075 -0.4482
  777MOL0     C 7106  10.780   8.411  10.091 -0.1022 -0.0377  0.4744
  777MOL0     C 7107  10.728   8.528  10.148  0.0798  0.8289  0.1479
  777MOL0     C 7108  10.584   8.548  10.205 -0.4614  0.0992 -0.1384
  777MOL0     C 7109  10.572   8.632  10.321 -0.4984 -0.4686  0.2087
  777MOL0     C 7110  10.419   8.634  10.365 -1.6927 -0.3360  0.3658
  777MOL0     C 7111  10.393   8.696  10.495  0.4753  0.0996  0.1182
  777MOL0     O 7112  10.251   8.682  10.503 -0.1764  0.0858  0.5893
  777MOL0     C 7113  10.175   8.730  10.612 -1.3540  0.8532  1.0648
  777MOL0     C 7114  10.056   8.671  10.626 -0.8804  0.6878  0.3179
  777MOL0     C 7115   9.968   8.725  10.726 -0.9777  0.3952 -0.0362
  777MOL0     C 7116   9.833   8.667  10.734 -0.4692  0.5069  0.3692
  777MOL0     C 7117  10.016   8.821  10.820  0.3465  0.8773  0.7174
  777MOL0     C 7118   9.935   8.848  10.937 -0.3023 -0.2435 -0.3486
  777MOL0     O 7119   9.860   8.958  10.934 -0.5601 -0.3579  0.1031
  777MOL0     C 7120   9.772   8.983  11.033  0.4502  0.6858 -1.1069
  777MOL0     C 7121   9.695   9.101  11.005 -0.7100 -0.0261 -0.6970
  777MOL0     C 7122   9.619   9.164  11.100 -0.4431  0.2751  0.3108
  777MOL0     C 7123   9.593   9.104  11.227 -0.2587 -0.1818  0.2623
  777MOL0     O 7124   9.527   9.173  11.322 -0.4808 -0.0705  0.1494
  777MOL0     C 7125   9.429   9.083  11.385 -0.0716  0.6374 -0.3081
  777MOL0     C 7126   9.286   9.134  11.366  0.2478 -0.5854  0.5813
  777MOL0     C 7127   9.278   9.287  11.382 -0.4740  0.8313 -0.5181
  777MOL0     C 7128   9.340   9.329  11.523 -0.7214  0.2716  0.8282
  777MOL0     C 7129   9.260   9.292  11.652 -0.5493  0.4283  0.3225
  777MOL0     C 7130   9.140   9.388  11.671 -0.0070 -0.7010  0.7552
  777MOL0     C 7131   9.070   9.362  11.809  0.1378  0.2428 -0.1605
  777MOL0     C 7132   8.939   9.453  11.836  0.2789 -0.3314  0.6500
  777MOL0    Cl 7133   8.810   9.386  11.730 -0.0170 -0.6965  0.6294
  777MOL0     C 7134   9.670   8.985  11.255  0.2535 -0.3813 -0.5774
  777MOL0     C 7135   9.754   8.922  11.161 -0.0072  0.0501 -1.3112
  777MOL0     O 7136   9.947   8.769  11.029  0.6165 -0.3535 -0.1361
  777MOL0     C 7137  10.152   8.859  10.813 -0.3067 -0.1221 -0.1545
  777MOL0     C 7138  10.226   8.822  10.703  0.3723  0.7348  0.2089
  777MOL0     N 7139  10.831   8.617  10.121 -0.2212 -0.0485  0.3149
  777MOL0     N 7140  10.934   8.564  10.064  0.8972 -0.5727  0.4927
  777MOL0     C 7141  11.245   7.439   9.377  0.2858 -0.0046 -0.4516
  777MOL0     C 7142  11.244   7.395   9.245  0.7816 -0.1591  1.1287
  777MOL0     C 7143  11.307   7.387   8.796  0.6499  0.6956  0.7125
  777MOL0     C 7144  11.265   7.514   8.746 -0.4846  0.6350  0.5030
  777MOL0     C 7145  11.289   7.550   8.613  1.1183  0.0848  0.2429
  777MOL0     C 7146  11.377   7.473   8.536  0.8604  0.5465 -0.4449
  777MOL0     O 7147  11.421   7.545   8.425 -0.4962  0.4816  0.3745
  777MOL0     C 7148  11.457   7.474   8.297  0.1196  0.3141 -0.2507
  777MOL0     C 7149  11.323   7.441   8.226  0.8397 -0.8247 -1.8531
  777MOL0     C 7150  11.335   7.371   8.095  0.6955 -0.3038 -0.2823
  777MOL0     C 7151  11.393   7.441   7.978 -0.7968 -0.4139  0.5618
  777MOL0     C 7152  11.454   7.338   7.891  0.5850  0.4909 -0.6323
  777MOL0     C 7153  11.535   7.270   7.826  0.3359  0.4741 -0.4279
  777MOL0     C 7154  11.431   7.357   8.585  0.0575 -0.7735  0.1374
  777MOL0     C 7155  11.387   7.308   8.709  0.1049 -0.5730  0.4454
  777MOL0     C 7156  11.451   7.175   8.761  0.0847  0.2388 -0.2710
  777MOL0     H 7157  11.184   7.694   9.083 -3.7975  0.7113  1.5715
  777MOL0     H 7158  11.205   7.770   9.317 -0.8096 -0.2225  0.2643
  777MOL0     H 7159  11.101   7.679   9.596 -1.1349  1.5243  1.2222
  777MOL0     H 7160  11.207   7.818   9.550 -1.8646  0.0825 -0.6354
  777MOL0     H 7161  11.256   7.660   9.798  0.0638 -0.3228  0.0528
  777MOL0     H 7162  11.349   7.791   9.730 -2.1555  0.9953 -2.1796
  777MOL0     H 7163  11.194   7.958   9.760 -1.9934  0.4180  0.8185
  777MOL0     H 7164  11.059   7.842   9.760 -0.7345 -0.0624 -1.7525
  777MOL0     H 7165  11.186   7.783   9.997 -1.7280 -1.6431 -1.6117
  777MOL0     H 7166  11.271   7.935   9.969 -1.4459  1.2342  1.3915
  777MOL0     H 7167  11.068   7.939  10.124 -0.0753  2.9110  0.4958
  777MOL0     H 7168  10.959   7.925   9.976 -0.5678 -1.6293  0.3729
  777MOL0     H 7169  11.186   8.132  10.044 -2.4144 -1.4891  2.6279
  777MOL0     H 7170  11.108   8.121   9.890  2.6791 -3.1651 -0.7626
  777MOL0     H 7171  10.971   8.211  10.161 -1.3947  4.7872 -1.8689
  777MOL0     H 7172  10.893   8.151  10.019  0.1217 -0.0820 -0.6789
  777MOL0     H 7173  11.105   8.364  10.009 -0.5413  1.3154  2.2371
  777MOL0     H 7174  10.987   8.333   9.882  4.2307  0.9835 -0.2746
  777MOL0     H 7175  10.729   8.315  10.087 -1.2530  0.5910 -0.5734
  777MOL0     H 7176  10.551   8.447  10.230 -1.1106  0.1963 -0.5695
  777MOL0     H 7177  10.526   8.588  10.121  2.8540 -0.7953 -3.0851
  777MOL0     H 7178  10.642   8.600  10.400 -2.8295  0.3796  2.7714
  777MOL0     H 7179  10.596   8.737  10.304  0.4457 -0.1059  3.1752
  777MOL0     H 7180  10.360   8.698  10.298  0.0666  1.3994  0.4119
  777MOL0     H 7181  10.375   8.535  10.353 -3.4559  0.2076  1.8432
  777MOL0     H 7182  10.437   8.644  10.581  0.7061 -3.2373 -1.8237
  777MOL0     H 7183  10.419   8.802  10.499 -0.0196  0.1964  1.0910
  777MOL0     H 7184  10.031   8.592  10.555  3.4691 -2.8156  2.1828
  777MOL0     H 7185   9.830   8.590  10.812  1.9681 -1.1357 -0.9871
  777MOL0     H 7186   9.806   8.621  10.638  0.8649  1.2478 -0.3849
  777MOL0     H 7187   9.749   8.731  10.760 -2.5919 -2.8430  2.6174
  777MOL0     H 7188   9.735   9.150  10.918  0.3437 -1.9015 -1.3399
  777MOL0     H 7189   9.595   9.267  11.077 -1.3049 -0.0568 -0.3303
  777MOL0     H 7190   9.432   8.983  11.340  1.0553  0.9536 -0.9498
  777MOL0     H 7191   9.466   9.056  11.484  1.2769  1.5344 -0.5559
  777MOL0     H 7192   9.260   9.128  11.261 -0.5424 -1.3937  0.8171
  777MOL0     H 7193   9.206   9.082  11.419 -1.9736  0.2068 -1.7821
  777MOL0     H 7194   9.174   9.322  11.377 -1.6030 -1.8316  1.4820
  777MOL0     H 7195   9.341   9.340  11.310  1.0373  0.8371  0.7425
  777MOL0     H 7196   9.349   9.438  11.523  0.1815  0.2378 -1.2803
  777MOL0     H 7197   9.443   9.292  11.523 -0.1784  1.6131 -1.2224
  777MOL0     H 7198   9.223   9.190  11.658 -1.7613  0.9363  2.4856
  777MOL0     H 7199   9.334   9.303  11.731  0.5973 -0.0726 -0.6590
  777MOL0     H 7200   9.058   9.364  11.602 -0.7134 -0.2179  1.4109
  777MOL0     H 7201   9.167   9.494  11.678 -0.9722 -0.5186  1.9693
  777MOL0     H 7202   9.140   9.394  11.887  1.5153 -0.5630 -1.0283
  777MOL0     H 7203   9.034   9.259  11.810 -3.3646  1.3518  0.6649
  777MOL0     H 7204   8.957   9.561  11.828 -1.2025 -0.1782 -1.4695
  777MOL0     H 7205   8.898   9.435  11.936 -0.7529  0.1554  0.3231
  777MOL0     H 7206   9.668   8.958  11.361  1.9537  2.4510  0.2624
  777MOL0     H 7207   9.798   8.829  11.198 -0.4607 -0.3412 -1.7469
  777MOL0     H 7208  10.206   8.922  10.884  0.2404 -1.1972  0.4129
  777MOL0     H 7209  10.330   8.853  10.704  0.5329  0.3319 -1.0993
  777MOL0     H 7210  11.268   7.369   9.456 -0.0042  2.2394  1.7275
  777MOL0     H 7211  11.250   7.297   9.200 -2.3086  1.5049 -3.7819
  777MOL0     H 7212  11.212   7.591   8.801  0.5970  0.6223  1.5794
  777MOL0     H 7213  11.258   7.650   8.585  4.3716  1.2319  0.2275
  777MOL0     H 7214  11.502   7.543   8.225 -1.4275  1.7441  0.1035
  777MOL0     H 7215  11.523   7.389   8.318 -0.0276  0.5954  1.4878
  777MOL0     H 7216  11.255   7.526   8.221 -0.2157 -1.3265  1.5333
  777MOL0     H 7217  11.271   7.377   8.298  0.5562  0.7496 -0.6191
  777MOL0     H 7218  11.389   7.278   8.115  2.0527  0.5890  0.3308
  777MOL0     H 7219  11.235   7.341   8.063  1.2417 -2.8598  0.1733
  777MOL0     H 7220  11.481   7.497   8.012 -0.3645 -0.5230 -0.3370
  777MOL0     H 7221  11.342   7.512   7.914 -0.9245 -0.5959  0.4615
  777MOL0     H 7222  11.599   7.219   7.757 -0.5205  0.7263 -1.4385
  777MOL0     H 7223  11.509   7.315   8.523  2.2339  1.4390  1.2175
  777MOL0     H 7224  11.479   7.193   8.865  0.1516  1.6801 -0.5081
  777MOL0     H 7225  11.385   7.089   8.753  1.7994 -1.5402  2.7562
  777MOL0     H 7226  11.539   7.167   8.696 -0.6489 -3.0553 -1.0029
  778MOL0     O 7227   5.832   8.046  11.031  0.1880  0.7769  0.3139
  778MOL0     C 7228   5.909   7.970  10.961 -0.7857  0.7719 -0.8829
  778MOL0     O 7229   5.910   7.835  10.974  0.4552  0.3209 -0.3531
  778MOL0     C 7230   5.792   7.763  10.993  0.4400 -0.4838 -0.9431
  778MOL0     C 7231   5.669   7.791  10.939  0.4267  0.1588  1.2708
  778MOL0     C 7232   5.559   7.694  10.939  0.0153 -0.1578  0.2661
  778MOL0     C 7233   5.583   7.559  10.979 -0.0733  0.1048  0.0003
  778MOL0     O 7234   5.489   7.459  10.970 -0.2801  1.1924  0.2783
  778MOL0     C 7235   5.495   7.348  11.062  0.1853 -0.0769  0.0005
  778MOL0     C 7236   5.383   7.247  11.066 -0.3488  0.3576 -0.3537
  778MOL0     C 7237   5.368   7.180  10.926 -1.2127  0.5510 -0.4421
  778MOL0     C 7238   5.230   7.106  10.908 -0.9230  0.0964  0.0745
  778MOL0     C 7239   5.229   7.082  10.758  0.1792  0.1074  1.1690
  778MOL0     C 7240   5.129   6.984  10.687 -0.0673  0.3291 -0.1526
  778MOL0     C 7241   5.174   6.838  10.657 -0.2618 -0.0073  0.5621
  778MOL0     C 7242   5.267   6.840  10.527  0.1383  0.2455  0.6797
  778MOL0     N 7243   5.206   6.816  10.396 -0.3473 -0.0877 -0.6283
  778MOL0     C 7244   5.175   6.700  10.339 -0.2876  0.0007  0.1596
  778MOL0     C 7245   5.112   6.734  10.218  0.6285 -0.3297 -0.1353
  778MOL0     C 7246   5.051   6.631  10.123 -0.5417 -0.0135  0.6226
  778MOL0     C 7247   5.157   6.563  10.030  0.9787  0.6312  1.2160
  778MOL0     C 7248   5.084   6.500   9.911  0.1259 -0.0820  0.4417
  778MOL0     C 7249   4.978   6.382   9.935  0.0179  0.6139 -0.2239
  778MOL0     O 7250   4.861   6.380   9.842 -0.0532  0.1296 -0.3115
  778MOL0     C 7251   4.772   6.480   9.843  0.6450 -0.8634 -0.6275
  778MOL0     C 7252   4.721   6.545   9.957 -0.8948 -0.3184 -0.4669
  778MOL0     C 7253   4.623   6.646   9.951  0.6806  0.0037 -0.3902
  778MOL0     C 7254   4.555   6.685  10.081 -0.2102 -1.1505  0.3179
  778MOL0     C 7255   4.570   6.681   9.826 -0.3719  0.0844 -0.7874
  778MOL0     C 7256   4.455   6.770   9.791  0.1058 -0.5669  0.2594
  778MOL0     O 7257   4.411   6.777   9.667 -0.0218 -0.2056  0.4446
  778MOL0     C 7258   4.334   6.882   9.623  0.0119  0.9618  0.0694
  778MOL0     C 7259   4.401   7.001   9.576  0.0228  0.8559 -0.4760
  778MOL0     C 7260   4.326   7.108   9.527 -0.0152  0.4163 -1.1026
  778MOL0     C 7261   4.189   7.101   9.541 -0.4112 -0.4966 -0.8264
  778MOL0     O 7262   4.114   7.213   9.502 -0.4118 -0.1326  0.4101
  778MOL0     C 7263   3.989   7.183   9.442  1.0106  0.0852 -0.3725
  778MOL0     C 7264   3.950   7.298   9.348  0.2175 -0.3913 -0.7719
  778MOL0     C 7265   3.901   7.425   9.427  0.6514  0.2102  0.1876
  778MOL0     C 7266   3.822   7.534   9.350 -0.4896  0.3042  1.2514
  778MOL0     C 7267   3.891   7.552   9.214  0.1454  0.3321 -0.0209
  778MOL0     C 7268   3.808   7.645   9.120  0.8606 -0.7021 -1.1315
  778MOL0     C 7269   3.875   7.642   8.979  0.4195 -0.2932  1.4989
  778MOL0     C 7270   3.783   7.713   8.879 -0.3647  0.2984  0.4900
  778MOL0    Cl 7271   3.616   7.651   8.863 -0.0447  0.0249 -0.4374
  778MOL0     C 7272   4.120   6.993   9.602 -0.7402 -0.7035  1.3026
  778MOL0     C 7273   4.195   6.873   9.625 -0.1389 -0.1784 -0.0145
  778MOL0     O 7274   4.405   6.847   9.877 -0.1673 -0.5732 -0.8651
  778MOL0     C 7275   4.633   6.617   9.713  0.5145 -0.2808  0.5917
  778MOL0     C 7276   4.718   6.511   9.723 -0.6485  0.7253  0.5090
  778MOL0     N 7277   5.104   6.868  10.216  0.7056  0.2030  0.2794
  778MOL0     N 7278   5.175   6.913  10.312  0.9406  0.1249  0.2111
  778MOL0     C 7279   5.709   7.539  11.040  0.5068  1.3568 -0.7661
  778MOL0     C 7280   5.802   7.639  11.049 -0.2475  0.2023 -0.0953
  778MOL0     C 7281   6.006   8.045  10.877  0.2812  1.0492  0.2924
  778MOL0     C 7282   6.132   7.973  10.851 -0.7159 -0.7484  0.6529
  778MOL0     C 7283   6.220   8.030  10.767  0.3087 -0.1393 -0.5185
  778MOL0     C 7284   6.199   8.152  10.699  0.1096  0.4255 -0.3116
  778MOL0     O 7285   6.290   8.200  10.610 -0.4576  0.0365 -0.1638
  778MOL0     C 7286   6.226   8.258  10.493 -0.5250 -0.1840 -0.2587
  778MOL0     C 7287   6.307   8.264  10.361  0.1407  0.7902 -0.3972
  778MOL0     C 7288   6.396   8.140  10.340 -0.5214  0.7593  0.0523
  778MOL0     C 7289   6.444   8.131  10.190  0.5207 -0.2876 -0.1624
  778MOL0     C 7290   6.573   8.194  10.180 -0.2936  0.3109 -0.0313
  778MOL0     C 7291   6.683   8.238  10.171  0.4671 -0.8633  0.7950
  778MOL0     C 7292   6.080   8.215  10.722  0.1014 -0.2515 -0.5695
  778MOL0     C 7293   5.988   8.171  10.819  1.0346  1.2756  0.3814
  778MOL0     C 7294   5.875   8.262  10.863  0.2254  0.4784 -0.8243
  778MOL0     H 7295   5.650   7.881  10.881 -3.0775 -2.2994 -1.8435
  778MOL0     H 7296   5.464   7.715  10.890  0.2453 -0.0319 -0.1283
  778MOL0     H 7297   5.503   7.399  11.159  0.4397 -1.4476  0.7164
  778MOL0     H 7298   5.587   7.293  11.042  0.0637 -0.3375  0.1449
  778MOL0     H 7299   5.387   7.160  11.132 -2.8404 -0.5117 -1.2377
  778MOL0     H 7300   5.289   7.301  11.085 -0.1208  1.5166 -2.2408
  778MOL0     H 7301   5.387   7.254  10.848  1.3009  0.3445 -0.1046
  778MOL0     H 7302   5.445   7.108  10.899  0.0614  2.4561 -2.1291
  778MOL0     H 7303   5.215   7.011  10.959 -1.2131  1.0807  1.9267
  778MOL0     H 7304   5.151   7.176  10.940  0.6314  0.4963  3.5967
  778MOL0     H 7305   5.330   7.043  10.740  0.6290  0.5069  2.6945
  778MOL0     H 7306   5.219   7.180  10.710 -3.7530  0.5490  2.4933
  778MOL0     H 7307   5.044   6.980  10.756  0.1812 -0.0775  0.1380
  778MOL0     H 7308   5.090   7.020  10.592 -3.4640 -1.0841  0.5428
  778MOL0     H 7309   5.081   6.783  10.646  0.5791 -1.6113  1.1332
  778MOL0     H 7310   5.229   6.788  10.738  0.8620  0.2183 -0.0390
  778MOL0     H 7311   5.323   6.934  10.528  1.6246 -0.5818 -0.2381
  778MOL0     H 7312   5.342   6.761  10.534 -0.9771 -0.7152  4.9029
  778MOL0     H 7313   5.176   6.602  10.387  0.6160  0.1160  0.3939
  778MOL0     H 7314   4.980   6.689  10.063 -0.7026 -3.0929 -2.4796
  778MOL0     H 7315   4.991   6.555  10.172 -2.3596 -1.4409 -3.3787
  778MOL0     H 7316   5.226   6.634   9.984  0.1367  0.0526 -1.1204
  778MOL0     H 7317   5.210   6.484  10.084 -0.5599 -3.8423 -3.0891
  778MOL0     H 7318   5.031   6.587   9.871  1.8663  0.3265 -1.1052
  778MOL0     H 7319   5.151   6.476   9.828  0.0621  0.1563  0.3175
  778MOL0     H 7320   5.034   6.289   9.925  1.3310  1.3811 -0.3057
  778MOL0     H 7321   4.944   6.386  10.039  1.7901 -0.8551  0.4621
  778MOL0     H 7322   4.757   6.502  10.050  0.9282  0.7307 -0.6378
  778MOL0     H 7323   4.633   6.675  10.157  1.2019  1.1691 -0.7193
  778MOL0     H 7324   4.465   6.627  10.102 -1.5641  1.1448  1.1703
  778MOL0     H 7325   4.518   6.788  10.083  1.3187 -0.5556  3.1066
  778MOL0     H 7326   4.509   7.009   9.566 -0.1681  0.8676 -3.5768
  778MOL0     H 7327   4.384   7.192   9.491  2.6598  0.1714  2.1117
  778MOL0     H 7328   4.007   7.087   9.392  0.4653 -1.4895  2.2421
  778MOL0     H 7329   3.913   7.178   9.521  0.7218 -2.0646 -0.7398
  778MOL0     H 7330   4.029   7.336   9.282  0.3473 -2.0272 -1.6038
  778MOL0     H 7331   3.873   7.266   9.277 -2.6343 -0.6699  2.2172
  778MOL0     H 7332   3.988   7.472   9.472 -0.3002  1.3390  0.8947
  778MOL0     H 7333   3.831   7.385   9.501 -0.9547  1.1853 -0.7259
  778MOL0     H 7334   3.813   7.628   9.406 -1.0855  1.7590 -1.1523
  778MOL0     H 7335   3.718   7.500   9.343 -1.2416  2.5200  0.8089
  778MOL0     H 7336   3.994   7.582   9.237  0.4020 -0.5005 -0.0384
  778MOL0     H 7337   3.892   7.462   9.151 -0.7451  0.6247 -0.4616
  778MOL0     H 7338   3.814   7.743   9.169  4.3704 -2.1629  1.8204
  778MOL0     H 7339   3.705   7.609   9.115  1.0579 -1.4124 -0.2386
  778MOL0     H 7340   3.877   7.536   8.953 -2.1239 -0.0037 -0.1892
  778MOL0     H 7341   3.971   7.694   8.984  0.2460 -0.0283  2.4688
  778MOL0     H 7342   3.833   7.702   8.782 -2.7440  2.1205 -1.0735
  778MOL0     H 7343   3.788   7.822   8.890 -1.3623  0.3777  0.2010
  778MOL0     H 7344   4.012   6.989   9.608 -0.7155 -2.0306  1.0711
  778MOL0     H 7345   4.142   6.784   9.659  0.2230 -0.0774  0.8393
  778MOL0     H 7346   4.599   6.657   9.618  1.1809 -1.6178 -0.2444
  778MOL0     H 7347   4.752   6.450   9.640 -2.3507 -1.6038  1.4138
  778MOL0     H 7348   5.748   7.444  11.076  1.1450  0.3889 -3.7344
  778MOL0     H 7349   5.891   7.591  11.090 -0.9653  0.3900  1.7487
  778MOL0     H 7350   6.158   7.872  10.884 -0.6062 -0.9779 -0.1183
  778MOL0     H 7351   6.301   7.968  10.730  0.3385  0.0909 -0.8392
  778MOL0     H 7352   6.133   8.205  10.473  1.8550 -4.5539 -0.8888
  778MOL0     H 7353   6.204   8.363  10.517 -0.4879 -0.9631  3.8131
  778MOL0     H 7354   6.370   8.354  10.363  1.3128  0.0015 -0.5360
  778MOL0     H 7355   6.243   8.269  10.273 -0.5024  0.5231  0.0465
  778MOL0     H 7356   6.480   8.134  10.410  0.0708 -3.6848 -0.7573
  778MOL0     H 7357   6.334   8.054  10.367  2.4464 -1.4520  0.3359
  778MOL0     H 7358   6.370   8.170  10.120  0.7064 -1.2660 -0.9436
  778MOL0     H 7359   6.463   8.028  10.158  1.3007 -0.5227  1.0013
  778MOL0     H 7360   6.773   8.291  10.195 -0.0804  0.6980 -0.4202
  778MOL0     H 7361   6.061   8.320  10.699  1.8869  1.1750  3.4323
  778MOL0     H 7362   5.865   8.277  10.970  1.9342  1.2635 -0.7426
  778MOL0     H 7363   5.878   8.368  10.836  0.6011  1.5050  2.8346
  778MOL0     H 7364   5.782   8.217  10.827  0.4289  0.4954 -1.3948
  779MOL0     O 7365   9.568   9.406   3.863 -0.5285  0.3064 -0.8379
  779MOL0     C 7366   9.487   9.325   3.827  0.7101  0.0771  0.6648
  779MOL0     O 7367   9.386   9.346   3.735 -0.4314  0.2968 -0.0694
  779MOL0     C 7368   9.377   9.478   3.691  0.4627 -0.8933  0.5567
  779MOL0     C 7369   9.359   9.504   3.550 -0.3812 -0.3900  0.4798
  779MOL0     C 7370   9.342   9.633   3.506  0.7036 -0.4937 -0.1781
  779MOL0     C 7371   9.337   9.746   3.587  0.3142  0.4296  1.0077
  779MOL0     O 7372   9.332   9.865   3.516  0.0353 -0.7134 -0.0842
  779MOL0     C 7373   9.341   9.984   3.597 -0.1650 -0.6216  1.5544
  779MOL0     C 7374   9.451  10.078   3.551 -0.4229  0.4084 -1.0308
  779MOL0     C 7375   9.587  10.015   3.597 -0.4434 -0.7795  0.5568
  779MOL0     C 7376   9.699  10.116   3.545 -0.8043 -0.1792 -0.2925
  779MOL0     C 7377   9.838  10.086   3.600  0.0695 -0.4829 -0.4471
  779MOL0     C 7378   9.946  10.156   3.506  0.0063  0.9468 -0.1854
  779MOL0     C 7379  10.082  10.107   3.551  0.6545 -0.1180 -1.2023
  779MOL0     C 7380  10.207  10.144   3.458  1.1965  0.9068 -0.5845
  779MOL0     N 7381  10.313  10.186   3.545  0.3997 -0.2655 -0.0155
  779MOL0     C 7382  10.430  10.113   3.563  0.0915 -0.1235  0.5651
  779MOL0     C 7383  10.506  10.193   3.642  0.6161  0.0288  0.6356
  779MOL0     C 7384  10.632  10.163   3.711 -0.4514  0.1886 -0.2267
  779MOL0     C 7385  10.757  10.133   3.616 -0.3258  0.5144  0.4266
  779MOL0     C 7386  10.894  10.124   3.694 -0.6846  0.1209 -0.1681
  779MOL0     C 7387  11.004  10.100   3.586 -0.1196  0.7242  0.7841
  779MOL0     O 7388  11.038   9.963   3.565 -0.0239  0.1396 -0.3855
  779MOL0     C 7389  11.133   9.923   3.472 -0.1903  0.1214 -0.0541
  779MOL0     C 7390  11.242  10.015   3.439  0.5308  0.2366  0.2812
  779MOL0     C 7391  11.338   9.973   3.347  0.0395  0.8432 -0.3487
  779MOL0     C 7392  11.444  10.073   3.306 -0.4210  0.6570  0.5058
  779MOL0     C 7393  11.327   9.846   3.291  0.1337 -0.9432  0.4347
  779MOL0     C 7394  11.426   9.792   3.197  0.2830 -0.4320 -0.2643
  779MOL0     O 7395  11.373   9.714   3.095 -0.4289  0.8759  0.0588
  779MOL0     C 7396  11.440   9.633   3.000 -0.1762  0.6376  0.4138
  779MOL0     C 7397  11.575   9.592   3.013  0.4901 -0.1650 -0.3882
  779MOL0     C 7398  11.644   9.516   2.915  0.4617  0.4032  0.5483
  779MOL0     C 7399  11.575   9.492   2.792  0.2905 -0.1777  0.3481
  779MOL0     O 7400  11.647   9.417   2.702 -0.0341 -0.0206  0.2093
  779MOL0     C 7401  11.604   9.425   2.566 -0.3668  0.0114 -0.2665
  779MOL0     C 7402  11.511   9.315   2.514 -0.1216  0.0501  0.2835
  779MOL0     C 7403  11.469   9.322   2.366 -0.2540  0.3736  0.3869
  779MOL0     C 7404  11.375   9.434   2.339  0.9764 -0.1651 -0.1555
  779MOL0     C 7405  11.351   9.463   2.186  0.0287  0.4087  0.3476
  779MOL0     C 7406  11.295   9.332   2.110  1.1234 -0.2295  0.1165
  779MOL0     C 7407  11.237   9.367   1.974  0.0953  0.2069  0.1800
  779MOL0     C 7408  11.236   9.244   1.878  0.2099  0.0360  0.4132
  779MOL0    Cl 7409  11.139   9.253   1.729  0.5282 -0.1483  0.1268
  779MOL0     C 7410  11.450   9.555   2.767  0.4133  0.7646  0.1004
  779MOL0     C 7411  11.384   9.623   2.869 -0.3145 -0.0437 -0.6610
  779MOL0     O 7412  11.546   9.811   3.214  0.5839  0.9450 -0.8363
  779MOL0     C 7413  11.227   9.753   3.329  0.5582 -0.3008 -0.5349
  779MOL0     C 7414  11.137   9.795   3.428  1.5035 -0.8110  0.1286
  779MOL0     N 7415  10.441  10.308   3.670 -0.1712 -0.1731 -0.2587
  779MOL0     N 7416  10.332  10.303   3.607  0.2119 -0.4596  0.2745
  779MOL0     C 7417   9.339   9.717   3.725 -0.7429  0.6587 -0.5009
  779MOL0     C 7418   9.360   9.592   3.776 -0.7708  0.6316 -0.0109
  779MOL0     C 7419   9.491   9.190   3.895  0.5218 -0.3304  0.4218
  779MOL0     C 7420   9.373   9.104   3.879  0.0055 -0.4626  1.0981
  779MOL0     C 7421   9.371   8.974   3.932 -0.1536 -0.8602  0.0730
  779MOL0     C 7422   9.477   8.931   4.009  0.4415  0.9130  0.2106
  779MOL0     O 7423   9.470   8.817   4.081 -0.0295 -0.6002  0.4495
  779MOL0     C 7424   9.387   8.712   4.033 -0.5576  0.8048  0.3506
  779MOL0     C 7425   9.463   8.580   4.060 -1.2484 -0.3488 -0.3867
  779MOL0     C 7426   9.575   8.545   3.973 -0.1057 -0.2510  0.4900
  779MOL0     C 7427   9.703   8.617   3.997 -0.0213  0.4384 -0.8488
  779MOL0     C 7428   9.816   8.576   3.913 -0.9409 -0.0090  0.3925
  779MOL0     C 7429   9.921   8.560   3.849 -0.0415 -0.5692  0.1553
  779MOL0     C 7430   9.581   9.015   4.047  0.4148 -0.5888 -0.2886
  779MOL0     C 7431   9.595   9.140   3.981 -0.2628 -0.5936 -0.0328
  779MOL0     C 7432   9.718   9.224   4.020  0.1483  0.0445  0.2966
  779MOL0     H 7433   9.357   9.431   3.470 -1.6747  2.7058 -2.6397
  779MOL0     H 7434   9.329   9.651   3.400 -1.2212 -0.2932  0.0583
  779MOL0     H 7435   9.347   9.977   3.706  0.5841 -0.7696  1.5103
  779MOL0     H 7436   9.249  10.038   3.575 -0.4028 -1.5651  0.0973
  779MOL0     H 7437   9.451  10.100   3.444 -0.0601  2.6354 -0.6100
  779MOL0     H 7438   9.436  10.171   3.606 -0.5825 -0.2603  0.0911
  779MOL0     H 7439   9.591  10.003   3.706 -0.0608  0.3904  0.6852
  779MOL0     H 7440   9.602   9.910   3.570  1.1300 -0.9795  1.9571
  779MOL0     H 7441   9.696  10.112   3.436 -1.2804  2.4430 -0.4228
  779MOL0     H 7442   9.681  10.221   3.570  0.4829  0.5899 -2.3669
  779MOL0     H 7443   9.858   9.980   3.589 -1.1288 -0.6679 -1.0599
  779MOL0     H 7444   9.843  10.123   3.703 -2.0257  2.0709 -1.1377
  779MOL0     H 7445   9.933  10.128   3.401 -1.6651  0.9508 -0.0056
  779MOL0     H 7446   9.951  10.265   3.505  1.9179  0.9132  1.0299
  779MOL0     H 7447  10.079  10.000   3.571 -0.7121 -0.1203 -1.2890
  779MOL0     H 7448  10.085  10.161   3.647  1.2527  1.2914 -1.9861
  779MOL0     H 7449  10.216  10.053   3.397  1.0933 -1.2549  2.4046
  779MOL0     H 7450  10.173  10.232   3.402  1.3867  2.6679  1.9207
  779MOL0     H 7451  10.461  10.023   3.511  0.8010  0.8807 -0.8429
  779MOL0     H 7452  10.618  10.088   3.789  1.5961  1.2400  1.2432
  779MOL0     H 7453  10.658  10.244   3.780 -1.8342  1.6083 -1.2900
  779MOL0     H 7454  10.747  10.048   3.548 -1.5006  0.6555  0.3953
  779MOL0     H 7455  10.773  10.211   3.541 -1.5316 -1.7990 -2.4308
  779MOL0     H 7456  10.925  10.201   3.765 -0.8877 -3.3358  4.1168
  779MOL0     H 7457  10.886  10.041   3.764  1.0669 -1.0886 -1.2973
  779MOL0     H 7458  10.972  10.145   3.492 -0.5974  1.1623  1.1534
  779MOL0     H 7459  11.094  10.157   3.610 -1.5501  2.2136  3.0200
  779MOL0     H 7460  11.242  10.120   3.467  0.6113 -0.0785  1.5411
  779MOL0     H 7461  11.534  10.062   3.367  0.8011 -1.1796 -1.4866
  779MOL0     H 7462  11.408  10.176   3.296 -2.2599 -0.1382 -2.1684
  779MOL0     H 7463  11.475  10.045   3.205  0.5215  1.5078  0.5492
  779MOL0     H 7464  11.618   9.623   3.108  0.0571 -1.1513  0.1456
  779MOL0     H 7465  11.742   9.470   2.930  0.3859  0.1175  0.1641
  779MOL0     H 7466  11.555   9.521   2.546 -1.9970 -0.8160 -0.4068
  779MOL0     H 7467  11.701   9.430   2.516  0.2945  1.4937  1.0617
  779MOL0     H 7468  11.562   9.219   2.522 -0.1991  0.0273  0.5077
  779MOL0     H 7469  11.426   9.308   2.582  0.1718 -2.1163  0.4804
  779MOL0     H 7470  11.431   9.224   2.335  1.4352  0.6204 -2.9130
  779MOL0     H 7471  11.555   9.353   2.307 -2.3268  1.7150 -2.1680
  779MOL0     H 7472  11.416   9.528   2.377 -0.3622  2.0175 -3.5827
  779MOL0     H 7473  11.280   9.423   2.392  0.0118  1.4131 -1.4522
  779MOL0     H 7474  11.265   9.529   2.175 -1.0178 -0.9132  0.3447
  779MOL0     H 7475  11.431   9.524   2.143  1.0994 -0.2231  1.3477
  779MOL0     H 7476  11.222   9.297   2.184 -0.3806  2.2615 -0.0360
  779MOL0     H 7477  11.375   9.259   2.096  1.6695  0.2270  0.8110
  779MOL0     H 7478  11.290   9.445   1.918  4.0398 -2.3872 -0.0867
  779MOL0     H 7479  11.135   9.389   2.008  1.3638 -1.9721  7.0287
  779MOL0     H 7480  11.192   9.165   1.939 -0.2938  1.1575  1.5592
  779MOL0     H 7481  11.337   9.224   1.842 -0.4209  0.8082 -2.0062
  779MOL0     H 7482  11.392   9.552   2.675 -2.3486  3.2269  1.5756
  779MOL0     H 7483  11.284   9.664   2.856 -1.0516 -1.5018  0.0491
  779MOL0     H 7484  11.237   9.650   3.295  3.1866  0.1213 -1.3069
  779MOL0     H 7485  11.061   9.721   3.454 -0.1226 -0.2532 -2.5874
  779MOL0     H 7486   9.316   9.802   3.788 -1.1382  2.0967 -2.4713
  779MOL0     H 7487   9.364   9.583   3.884 -1.0817  2.9364  0.2480
  779MOL0     H 7488   9.290   9.141   3.819  2.2104  4.6303  0.6334
  779MOL0     H 7489   9.273   8.927   3.921  0.2109 -1.5346 -0.3441
  779MOL0     H 7490   9.287   8.728   4.073 -0.7719 -0.6708  0.4253
  779MOL0     H 7491   9.383   8.713   3.923  1.0085  0.2506  0.2655
  779MOL0     H 7492   9.390   8.500   4.067  1.4786 -3.2509 -2.2117
  779MOL0     H 7493   9.504   8.594   4.161  0.6211  2.2526 -1.4044
  779MOL0     H 7494   9.589   8.436   3.969  1.7526 -0.0201 -0.1812
  779MOL0     H 7495   9.550   8.565   3.868  2.1544 -1.1756 -0.2956
  779MOL0     H 7496   9.730   8.609   4.102 -0.8409  0.8583 -0.5972
  779MOL0     H 7497   9.692   8.724   3.976  0.8074  0.5096 -0.9352
  779MOL0     H 7498  10.014   8.537   3.802  0.1606  1.2964 -0.4532
  779MOL0     H 7499   9.649   8.988   4.127  0.8893  0.5670 -0.2842
  779MOL0     H 7500   9.800   9.154   4.041 -0.6947 -1.2512 -0.5542
  779MOL0     H 7501   9.752   9.283   3.935 -2.1283 -0.3268 -0.9554
  779MOL0     H 7502   9.700   9.292   4.104  1.7348 -1.0595  1.6032
  780MOL0     O 7503   4.620   1.225   7.803 -0.0029  0.4624 -0.5629
  780MOL0     C 7504   4.501   1.238   7.850 -0.5026  0.3894 -0.0716
  780MOL0     O 7505   4.474   1.206   7.971  0.4926  0.6201 -0.1317
  780MOL0     C 7506   4.576   1.178   8.063 -0.0396 -0.8058 -0.4095
  780MOL0     C 7507   4.570   1.060   8.138  0.7657  0.5201 -0.0587
  780MOL0     C 7508   4.670   1.023   8.228 -0.4472 -0.4555  0.2767
  780MOL0     C 7509   4.782   1.106   8.230 -0.8246 -0.2898  0.0778
  780MOL0     O 7510   4.875   1.082   8.325  0.0081 -0.7504  0.4308
  780MOL0     C 7511   5.001   1.042   8.272  0.2507  0.1459 -0.3928
  780MOL0     C 7512   5.079   0.982   8.395 -0.1675 -0.1181  0.2445
  780MOL0     C 7513   5.217   0.969   8.328 -0.0082 -0.3149 -0.1782
  780MOL0     C 7514   5.311   1.075   8.377 -0.1104 -0.0050  0.2177
  780MOL0     C 7515   5.295   1.207   8.307 -0.0138  0.0490  0.6914
  780MOL0     C 7516   5.406   1.304   8.352  0.4145 -0.2818  0.8967
  780MOL0     C 7517   5.390   1.426   8.265  0.6915  0.0464  0.1820
  780MOL0     C 7518   5.460   1.546   8.327 -0.8439  0.2884 -0.1740
  780MOL0     N 7519   5.366   1.624   8.404  0.2230  0.2512  0.9002
  780MOL0     C 7520   5.316   1.583   8.528  0.3746  0.4807 -0.2306
  780MOL0     C 7521   5.210   1.665   8.558  0.2527  1.3425 -0.1238
  780MOL0     C 7522   5.122   1.658   8.682 -0.3121  0.4885 -0.4027
  780MOL0     C 7523   5.064   1.514   8.699  0.2665  0.1688  1.4030
  780MOL0     C 7524   5.136   1.422   8.795 -0.6043  0.2299  0.9813
  780MOL0     C 7525   5.043   1.310   8.831  0.1490 -0.4637 -0.3228
  780MOL0     O 7526   5.000   1.243   8.708 -0.0485  0.5034 -0.3283
  780MOL0     C 7527   4.892   1.173   8.707  0.1628 -0.7840  0.1920
  780MOL0     C 7528   4.851   1.093   8.809 -0.0778 -0.0280  0.2573
  780MOL0     C 7529   4.744   1.000   8.795 -0.6772 -0.4807  0.3836
  780MOL0     C 7530   4.719   0.917   8.912  0.2612 -0.4833 -0.0795
  780MOL0     C 7531   4.674   1.002   8.674  0.1574  1.3383 -0.1326
  780MOL0     C 7532   4.546   0.926   8.642 -0.6875 -0.6364 -1.0423
  780MOL0     O 7533   4.501   0.917   8.514  0.1464 -0.1972 -0.3275
  780MOL0     C 7534   4.412   0.810   8.485 -1.3692  0.0156 -0.0693
  780MOL0     C 7535   4.462   0.678   8.500  0.4232 -0.1513  0.1978
  780MOL0     C 7536   4.385   0.573   8.456 -0.3375  0.5243 -0.4737
  780MOL0     C 7537   4.258   0.590   8.397 -1.1850 -0.4937  0.5335
  780MOL0     O 7538   4.194   0.482   8.340 -0.2413 -0.0233 -0.3221
  780MOL0     C 7539   4.072   0.499   8.258 -0.2750 -0.3096 -0.5770
  780MOL0     C 7540   3.950   0.516   8.341 -0.7376 -0.4973 -0.7425
  780MOL0     C 7541   3.833   0.564   8.254 -1.4097 -0.4741  0.0139
  780MOL0     C 7542   3.794   0.486   8.132  0.1820 -0.5311 -0.2955
  780MOL0     C 7543   3.648   0.506   8.078 -0.3293  0.5090 -0.0297
  780MOL0     C 7544   3.544   0.459   8.174 -0.3309 -0.5705  0.1874
  780MOL0     C 7545   3.415   0.416   8.109  0.6258 -0.2068  0.6873
  780MOL0     C 7546   3.344   0.542   8.040  0.2611 -0.3722 -0.0511
  780MOL0    Cl 7547   3.378   0.577   7.867  0.4042  0.0920  0.2222
  780MOL0     C 7548   4.212   0.728   8.377 -0.0639  0.9770  0.2880
  780MOL0     C 7549   4.287   0.832   8.428  0.6142 -0.5498  0.2646
  780MOL0     O 7550   4.494   0.870   8.741 -0.5027 -0.3851  0.2848
  780MOL0     C 7551   4.709   1.094   8.575 -0.2541 -0.0538 -0.2504
  780MOL0     C 7552   4.812   1.180   8.593  0.2681 -0.3905  0.6767
  780MOL0     N 7553   5.207   1.759   8.448  0.7107 -0.2572  0.6600
  780MOL0     N 7554   5.295   1.729   8.353 -0.4418  0.4271 -0.2967
  780MOL0     C 7555   4.794   1.230   8.160 -0.0649 -0.1983  0.1328
  780MOL0     C 7556   4.681   1.269   8.082 -0.2664 -0.1718  0.2130
  780MOL0     C 7557   4.407   1.309   7.760 -1.1756 -0.0994  0.5105
  780MOL0     C 7558   4.430   1.315   7.624  0.0386  0.4261  0.3731
  780MOL0     C 7559   4.340   1.391   7.541 -0.5553 -0.3162  0.3936
  780MOL0     C 7560   4.235   1.465   7.594 -0.1941  0.3485 -0.7536
  780MOL0     O 7561   4.157   1.534   7.505 -0.3761  1.1501 -0.4453
  780MOL0     C 7562   4.028   1.570   7.559 -0.0322  0.3922  0.0490
  780MOL0     C 7563   3.940   1.610   7.444  0.5797 -0.0575 -0.5011
  780MOL0     C 7564   3.892   1.482   7.379  0.1797  0.0643 -0.3198
  780MOL0     C 7565   3.742   1.458   7.389 -0.7189  0.4342 -1.0852
  780MOL0     C 7566   3.703   1.327   7.333  0.1686 -1.1439  0.2949
  780MOL0     C 7567   3.646   1.234   7.277  0.0253 -0.1403 -0.2860
  780MOL0     C 7568   4.210   1.452   7.733 -0.2248 -0.8051  0.4894
  780MOL0     C 7569   4.297   1.378   7.821 -0.0136 -0.2823  0.7206
  780MOL0     C 7570   4.260   1.376   7.975  0.7593  0.1275  0.3397
  780MOL0     H 7571   4.486   0.992   8.150  0.0592  1.0827 -1.5737
  780MOL0     H 7572   4.658   0.935   8.291 -0.7560 -2.6760 -2.6820
  780MOL0     H 7573   5.052   1.128   8.229 -1.7683  1.7796  0.3338
  780MOL0     H 7574   4.994   0.965   8.194 -2.7127  0.1471 -0.2381
  780MOL0     H 7575   5.077   1.039   8.489  0.1238  2.6672 -1.3231
  780MOL0     H 7576   5.037   0.885   8.423  1.3708 -0.8272  0.1874
  780MOL0     H 7577   5.253   0.868   8.349  0.2118 -0.5181 -1.5007
  780MOL0     H 7578   5.208   0.969   8.219 -2.0994 -0.5391 -0.0550
  780MOL0     H 7579   5.304   1.087   8.486 -2.1104 -2.0991  0.4047
  780MOL0     H 7580   5.412   1.047   8.347  0.8141  5.3782 -3.0138
  780MOL0     H 7581   5.199   1.255   8.327 -0.6021 -0.6646 -0.3061
  780MOL0     H 7582   5.302   1.194   8.198 -0.0496  0.5800  0.6232
  780MOL0     H 7583   5.392   1.316   8.460 -0.1588 -2.4677  1.1063
  780MOL0     H 7584   5.503   1.256   8.335  0.8191  0.6073  0.5645
  780MOL0     H 7585   5.286   1.459   8.257  0.0883 -1.8639 -0.5508
  780MOL0     H 7586   5.435   1.411   8.167  0.3797 -1.1545  0.2058
  780MOL0     H 7587   5.539   1.509   8.393 -1.6873 -0.6919  0.3313
  780MOL0     H 7588   5.510   1.610   8.254 -0.2632  3.6185  2.8617
  780MOL0     H 7589   5.359   1.498   8.582 -0.1663 -0.0078 -0.5566
  780MOL0     H 7590   5.034   1.721   8.668 -0.6120  0.2522  0.4147
  780MOL0     H 7591   5.174   1.687   8.773  0.1267 -0.5056 -0.3293
  780MOL0     H 7592   4.960   1.519   8.731 -0.0612 -4.3959  1.6173
  780MOL0     H 7593   5.051   1.483   8.596 -1.1788 -1.5300  2.0487
  780MOL0     H 7594   5.232   1.390   8.753  0.8362  4.6776  0.3166
  780MOL0     H 7595   5.169   1.480   8.882  2.1503  0.4968 -0.1309
  780MOL0     H 7596   5.101   1.247   8.899  0.8595  2.6168  2.1588
  780MOL0     H 7597   4.959   1.346   8.890  3.0312  1.2003  3.1272
  780MOL0     H 7598   4.893   1.109   8.908  1.4844  4.5320 -0.8642
  780MOL0     H 7599   4.680   0.819   8.880 -3.3383  0.8268 -0.1418
  780MOL0     H 7600   4.640   0.962   8.972 -1.2758 -1.1416 -1.5156
  780MOL0     H 7601   4.807   0.902   8.976  0.6966  2.9106  0.2852
  780MOL0     H 7602   4.562   0.662   8.539  0.9551 -2.6270 -1.8877
  780MOL0     H 7603   4.426   0.473   8.462 -1.8141 -0.1403 -1.0801
  780MOL0     H 7604   4.084   0.586   8.194  0.6081 -1.0141 -1.3875
  780MOL0     H 7605   4.057   0.409   8.198 -0.2112 -0.9016  0.2765
  780MOL0     H 7606   3.927   0.418   8.384 -2.4442 -1.3197 -3.2829
  780MOL0     H 7607   3.971   0.593   8.416  0.4838 -0.5836 -0.9743
  780MOL0     H 7608   3.852   0.668   8.227  1.5164 -1.1267 -0.7230
  780MOL0     H 7609   3.752   0.564   8.328 -1.3832  2.2708  0.1375
  780MOL0     H 7610   3.807   0.378   8.139  0.2543 -0.6056 -1.4855
  780MOL0     H 7611   3.864   0.517   8.054  1.5266  0.3426  1.1794
  780MOL0     H 7612   3.636   0.614   8.066  3.1365  1.2610  2.0202
  780MOL0     H 7613   3.637   0.464   7.977 -0.4117 -1.5069  0.7572
  780MOL0     H 7614   3.524   0.543   8.240  1.0875 -0.2144  0.1912
  780MOL0     H 7615   3.588   0.369   8.217 -0.0442 -0.0254  1.0391
  780MOL0     H 7616   3.360   0.374   8.194  0.1876 -0.3286  0.3491
  780MOL0     H 7617   3.429   0.326   8.047 -0.4092  0.4357 -0.5384
  780MOL0     H 7618   3.349   0.631   8.105 -0.1389 -1.6156  1.7514
  780MOL0     H 7619   3.237   0.523   8.044  0.5572 -2.9453 -1.9895
  780MOL0     H 7620   4.132   0.751   8.307  0.1593 -0.4004 -0.4567
  780MOL0     H 7621   4.264   0.938   8.424 -0.0452 -0.7135 -0.5362
  780MOL0     H 7622   4.648   1.115   8.488 -0.7923  0.3353  0.2150
  780MOL0     H 7623   4.831   1.245   8.509 -0.4763 -1.2337 -0.1683
  780MOL0     H 7624   4.879   1.295   8.175 -1.6165  1.3220  3.1875
  780MOL0     H 7625   4.666   1.370   8.046 -0.5096  0.7687  2.7670
  780MOL0     H 7626   4.523   1.272   7.586  1.3157  0.7309  2.9664
  780MOL0     H 7627   4.357   1.382   7.435  1.9909  0.1681  0.7092
  780MOL0     H 7628   3.976   1.498   7.622 -0.8039  1.1638  0.3157
  780MOL0     H 7629   4.042   1.662   7.617 -2.3080  1.1925 -0.5540
  780MOL0     H 7630   4.009   1.671   7.384  3.1340 -1.3869  0.9284
  780MOL0     H 7631   3.858   1.678   7.470  0.2483 -0.3810 -0.6865
  780MOL0     H 7632   3.919   1.482   7.273  0.5416 -2.6566 -0.3073
  780MOL0     H 7633   3.955   1.400   7.415  3.2197  1.2000 -2.6157
  780MOL0     H 7634   3.680   1.534   7.340 -1.9694  1.1563  1.4788
  780MOL0     H 7635   3.718   1.463   7.495  1.4334  3.5232 -0.6167
  780MOL0     H 7636   3.596   1.153   7.228  2.2445 -0.6632 -1.8286
  780MOL0     H 7637   4.121   1.487   7.784 -0.4971 -1.8338  0.7501
  780MOL0     H 7638   4.328   1.432   8.039 -0.0676  2.1838 -0.4797
  780MOL0     H 7639   4.164   1.429   7.975  1.6100  1.7578 -0.1209
  780MOL0     H 7640   4.243   1.274   8.011 -0.1956  1.2827  3.4528
  781MOL0     O 7641   6.618   0.601   8.508  0.2303  0.2933 -0.4445
  781MOL0     C 7642   6.562   0.487   8.515  0.1954 -0.6901 -0.3848
  781MOL0     O 7643   6.618   0.374   8.578  0.7784 -0.1315 -0.1579
  781MOL0     C 7644   6.688   0.385   8.700  0.1285  0.4376  0.2411
  781MOL0     C 7645   6.771   0.278   8.743  0.4227 -0.2278  0.1948
  781MOL0     C 7646   6.831   0.286   8.870 -0.3160 -0.6357  0.1273
  781MOL0     C 7647   6.817   0.393   8.957  0.0662 -0.0529 -0.1148
  781MOL0     O 7648   6.866   0.377   9.088 -0.4907 -0.1364  0.4067
  781MOL0     C 7649   6.901   0.495   9.166  0.6398  0.5909 -0.2935
  781MOL0     C 7650   6.971   0.447   9.290  0.1927  0.4368  1.1098
  781MOL0     C 7651   7.016   0.555   9.389 -0.1996 -0.1383 -0.1107
  781MOL0     C 7652   7.109   0.485   9.488  0.3145 -0.4198  0.3634
  781MOL0     C 7653   7.116   0.579   9.604 -0.0762  0.2350  0.7421
  781MOL0     C 7654   7.182   0.719   9.576 -0.7564 -0.7862  0.3273
  781MOL0     C 7655   7.338   0.732   9.575 -0.5202  0.3274 -0.2442
  781MOL0     C 7656   7.401   0.720   9.714 -0.8277  0.9200  0.2659
  781MOL0     N 7657   7.408   0.851   9.778  0.1538  0.8853  0.0970
  781MOL0     C 7658   7.317   0.903   9.870  0.0462 -0.2415  0.3293
  781MOL0     C 7659   7.361   1.029   9.894  0.6047  0.5527 -0.9047
  781MOL0     C 7660   7.286   1.141   9.956  0.8494  0.2666 -0.8169
  781MOL0     C 7661   7.320   1.120  10.102  1.2710 -0.4320 -0.0423
  781MOL0     C 7662   7.257   1.224  10.190  0.8345 -0.1105  0.5338
  781MOL0     C 7663   7.106   1.205  10.214 -0.6651  0.7527 -0.3939
  781MOL0     O 7664   7.087   1.107  10.325  0.7808  0.1810 -0.0494
  781MOL0     C 7665   7.107   0.968  10.295  0.1624 -0.4722 -0.4685
  781MOL0     C 7666   7.022   0.911  10.195 -1.0666 -0.1697 -0.5646
  781MOL0     C 7667   7.055   0.784  10.146  0.7983 -0.1608 -0.0067
  781MOL0     C 7668   6.962   0.728  10.042  0.6713 -1.5115 -0.5237
  781MOL0     C 7669   7.172   0.717  10.178 -0.6706 -0.4039 -0.8470
  781MOL0     C 7670   7.212   0.586  10.114 -0.3109  0.2220  0.1182
  781MOL0     O 7671   7.340   0.577  10.079  0.0594  0.2408  0.3753
  781MOL0     C 7672   7.408   0.461  10.060  0.4011  0.1398  0.4658
  781MOL0     C 7673   7.484   0.411  10.167 -0.1501  0.6090 -0.3633
  781MOL0     C 7674   7.566   0.298  10.149  0.0723 -1.1369 -0.6882
  781MOL0     C 7675   7.571   0.222  10.032 -0.9888  0.3598  0.0623
  781MOL0     O 7676   7.660   0.120  10.013 -0.2838  0.0254  0.2246
  781MOL0     C 7677   7.748   0.075  10.115  0.1255 -0.2991 -0.1470
  781MOL0     C 7678   7.838  -0.035  10.062  0.8395 -0.0922 -0.2666
  781MOL0     C 7679   7.942  -0.066  10.167  0.0756  0.1336  0.1491
  781MOL0     C 7680   8.016  -0.195  10.125 -0.8853 -0.3667 -0.2749
  781MOL0     C 7681   8.143  -0.156  10.041 -0.0050 -0.7381 -0.4311
  781MOL0     C 7682   8.239  -0.276  10.008 -0.6980 -0.0504 -0.0454
  781MOL0     C 7683   8.358  -0.231   9.918 -0.4031  0.3727  0.0288
  781MOL0     C 7684   8.436  -0.329   9.831  0.1790  0.0239  0.0946
  781MOL0    Cl 7685   8.608  -0.281   9.805  0.0766 -0.4548 -0.0653
  781MOL0     C 7686   7.469   0.253   9.940  0.8171  0.1741 -0.6019
  781MOL0     C 7687   7.388   0.367   9.955 -0.0316 -0.1499  0.6041
  781MOL0     O 7688   7.136   0.494  10.104 -0.1687  0.1903 -0.8534
  781MOL0     C 7689   7.258   0.775  10.279  0.4883  0.1941  0.4777
  781MOL0     C 7690   7.218   0.905  10.335  0.3416  0.9989  0.8415
  781MOL0     N 7691   7.483   1.038   9.830 -0.2017  0.2196  0.8561
  781MOL0     N 7692   7.516   0.933   9.764  0.5675 -0.3209 -0.1835
  781MOL0     C 7693   6.746   0.505   8.917  0.2014  0.1198 -0.0227
  781MOL0     C 7694   6.683   0.500   8.787 -0.2082 -1.1120 -0.5474
  781MOL0     C 7695   6.434   0.465   8.437  0.9786 -0.1412  0.3774
  781MOL0     C 7696   6.379   0.330   8.451 -0.2368 -0.7859  0.1319
  781MOL0     C 7697   6.262   0.284   8.376  0.2580  0.0618  0.0389
  781MOL0     C 7698   6.203   0.370   8.285  0.2885  0.2356 -0.2208
  781MOL0     O 7699   6.087   0.358   8.206  0.1733 -0.1225  0.3228
  781MOL0     C 7700   6.031   0.227   8.196  0.6506  0.2466 -0.0144
  781MOL0     C 7701   5.943   0.208   8.079 -0.2192 -0.4401 -0.2012
  781MOL0     C 7702   5.836   0.322   8.065 -1.1543  0.2796 -1.2585
  781MOL0     C 7703   5.857   0.403   7.949 -0.0473  0.0793  0.0338
  781MOL0     C 7704   5.803   0.333   7.832  0.3105 -0.8223  0.2126
  781MOL0     C 7705   5.758   0.294   7.720  0.5847 -0.3765 -0.1092
  781MOL0     C 7706   6.254   0.493   8.274  0.2958 -1.0109  0.0781
  781MOL0     C 7707   6.368   0.546   8.345 -0.2174  0.0067 -0.2077
  781MOL0     C 7708   6.397   0.693   8.328  0.7844  0.2670 -0.5241
  781MOL0     H 7709   6.770   0.190   8.679 -2.5601  2.8545 -4.6164
  781MOL0     H 7710   6.903   0.215   8.909 -1.5712 -0.7898  2.3532
  781MOL0     H 7711   6.812   0.546   9.205  0.5787  0.7491 -0.6400
  781MOL0     H 7712   6.963   0.566   9.112  0.5400  0.2976 -0.7964
  781MOL0     H 7713   6.904   0.378   9.342  0.5230 -0.7813 -0.0271
  781MOL0     H 7714   7.056   0.392   9.246 -1.2105 -0.2909 -0.8486
  781MOL0     H 7715   7.061   0.636   9.331 -1.4877  1.5411  1.1338
  781MOL0     H 7716   6.927   0.581   9.446  1.1423  2.5402  0.9348
  781MOL0     H 7717   7.061   0.394   9.525 -0.7546 -0.3538 -0.7937
  781MOL0     H 7718   7.201   0.451   9.440  0.6192 -1.7015  1.7882
  781MOL0     H 7719   7.162   0.518   9.682 -1.7902 -0.0602  1.5543
  781MOL0     H 7720   7.013   0.590   9.638 -0.3798 -2.0370  0.6642
  781MOL0     H 7721   7.153   0.752   9.475 -1.5535 -1.1422  0.4351
  781MOL0     H 7722   7.129   0.788   9.642 -2.2720 -1.5010 -0.1093
  781MOL0     H 7723   7.362   0.823   9.519 -3.7223  2.4926  1.6242
  781MOL0     H 7724   7.381   0.646   9.523  0.0431 -0.4728  1.4723
  781MOL0     H 7725   7.357   0.646   9.780  1.3407 -0.9424 -0.2391
  781MOL0     H 7726   7.504   0.693   9.687 -0.9492  0.4187  0.2955
  781MOL0     H 7727   7.214   0.874   9.892  0.9589 -3.5567  0.7968
  781MOL0     H 7728   7.182   1.114   9.936  1.3187 -2.0964 -0.3677
  781MOL0     H 7729   7.303   1.242   9.917  1.1371 -0.3497 -2.3178
  781MOL0     H 7730   7.305   1.015  10.131  2.8962 -0.9481 -0.9111
  781MOL0     H 7731   7.426   1.144  10.103  0.8918  1.9129 -2.8200
  781MOL0     H 7732   7.309   1.237  10.286  0.9688 -1.2398  0.6230
  781MOL0     H 7733   7.272   1.319  10.138 -3.1766  0.3612 -0.0890
  781MOL0     H 7734   7.062   1.298  10.249 -1.0825  1.1044 -1.8028
  781MOL0     H 7735   7.060   1.178  10.119  2.8084 -2.9875 -1.3018
  781MOL0     H 7736   6.932   0.967  10.172 -2.0496 -1.2480  0.4534
  781MOL0     H 7737   6.917   0.637  10.084  3.2193 -1.1338  3.5538
  781MOL0     H 7738   7.017   0.720   9.948  1.3173  0.4318 -0.3493
  781MOL0     H 7739   6.872   0.786  10.023  1.5059 -0.5385 -1.6778
  781MOL0     H 7740   7.489   0.491  10.240 -2.2846  1.4968 -1.1135
  781MOL0     H 7741   7.645   0.268  10.217  0.0362 -0.7684 -0.4786
  781MOL0     H 7742   7.797   0.158  10.168  0.6490  1.9103 -3.7219
  781MOL0     H 7743   7.687   0.016  10.184  0.5191 -1.8230 -1.0476
  781MOL0     H 7744   7.779  -0.127  10.054 -0.1222  0.6806 -4.3583
  781MOL0     H 7745   7.878  -0.016   9.961  0.9349  3.5208  0.3177
  781MOL0     H 7746   7.893  -0.087  10.262 -2.3791 -1.0003 -1.2762
  781MOL0     H 7747   8.008   0.017  10.193 -0.9415  0.6789  1.0209
  781MOL0     H 7748   7.944  -0.259  10.073  0.2437 -0.7426 -1.4241
  781MOL0     H 7749   8.048  -0.248  10.215  1.9056 -0.4359 -1.2039
  781MOL0     H 7750   8.111  -0.113   9.946 -1.6727  1.3024  0.9844
  781MOL0     H 7751   8.195  -0.075  10.093  0.6325 -0.1116 -1.9977
  781MOL0     H 7752   8.185  -0.351   9.950  0.3244 -0.8075 -0.0273
  781MOL0     H 7753   8.277  -0.316  10.103 -0.7342  0.6397  0.2674
  781MOL0     H 7754   8.422  -0.192   9.997  0.7333  0.0389 -0.6861
  781MOL0     H 7755   8.316  -0.152   9.856  1.4661  0.7552 -0.8298
  781MOL0     H 7756   8.391  -0.348   9.733  1.9465  3.4689 -1.5496
  781MOL0     H 7757   8.442  -0.419   9.894  1.5501  1.3697  2.0064
  781MOL0     H 7758   7.454   0.195   9.849  0.6707 -1.4905  0.4426
  781MOL0     H 7759   7.306   0.392   9.888 -0.3287  3.2508  2.0236
  781MOL0     H 7760   7.346   0.719  10.307  0.0348 -0.3791  0.7664
  781MOL0     H 7761   7.275   0.960  10.409  1.2580  2.8969 -1.1421
  781MOL0     H 7762   6.740   0.590   8.984 -0.4625  2.5277 -2.9152
  781MOL0     H 7763   6.614   0.581   8.765 -1.0828 -0.4711  3.6819
  781MOL0     H 7764   6.419   0.265   8.528 -1.8375 -0.4845  1.2731
  781MOL0     H 7765   6.229   0.184   8.402  0.1237  0.2908  0.7894
  781MOL0     H 7766   6.112   0.154   8.197  0.1297 -0.3418  1.6961
  781MOL0     H 7767   5.963   0.202   8.277 -3.0874  1.3574 -2.5376
  781MOL0     H 7768   5.893   0.111   8.089  2.8938 -1.9561  2.4989
  781MOL0     H 7769   6.009   0.220   7.993  2.0576  1.6934  1.7106
  781MOL0     H 7770   5.738   0.274   8.073 -0.2297 -1.4152  0.9391
  781MOL0     H 7771   5.857   0.383   8.153  0.8957  3.6849 -3.8733
  781MOL0     H 7772   5.965   0.410   7.934 -0.4377 -0.0550 -3.9733
  781MOL0     H 7773   5.818   0.504   7.959  3.8556  1.5662  2.4784
  781MOL0     H 7774   5.711   0.242   7.640 -0.9018  3.2357 -1.7927
  781MOL0     H 7775   6.212   0.555   8.195 -1.9988 -1.5341  0.7976
  781MOL0     H 7776   6.399   0.748   8.423 -1.2608  1.0576 -0.8856
  781MOL0     H 7777   6.495   0.693   8.279  0.2443 -0.1645 -1.6235
  781MOL0     H 7778   6.338   0.750   8.255  0.0944  1.5442  0.9603
  782MOL0     O 7779   5.825   0.235   9.293  0.1891  1.2747 -0.2710
  782MOL0     C 7780   5.791   0.124   9.252  0.0405 -0.5250  0.6769
  782MOL0     O 7781   5.871   0.012   9.259  0.6455 -0.0144  0.1407
  782MOL0     C 7782   5.945   0.009   9.378 -0.1404 -0.5515 -0.3426
  782MOL0     C 7783   6.067  -0.060   9.382  0.2660  0.2348 -1.1425
  782MOL0     C 7784   6.153  -0.046   9.493 -0.3439  0.3493  0.6472
  782MOL0     C 7785   6.113   0.011   9.617  0.4618  0.2811  0.0885
  782MOL0     O 7786   6.199   0.004   9.715  0.1686  0.3385 -0.0614
  782MOL0     C 7787   6.158   0.077   9.827 -0.5322  0.5534  0.2317
  782MOL0     C 7788   6.256   0.084   9.941  0.8710  0.2193 -0.2398
  782MOL0     C 7789   6.367   0.185   9.898 -0.0348 -0.0554 -0.3389
  782MOL0     C 7790   6.476   0.176  10.008 -0.8608 -0.2375  0.5193
  782MOL0     C 7791   6.600   0.250   9.951  0.5752  0.8675 -0.6297
  782MOL0     C 7792   6.598   0.398   9.977  0.3863 -0.3172 -0.6347
  782MOL0     C 7793   6.738   0.462   9.964  0.9282  0.4275 -0.1986
  782MOL0     C 7794   6.805   0.442   9.824 -0.1070  0.3328  1.1469
  782MOL0     N 7795   6.714   0.448   9.710  0.3113  0.1886  0.8563
  782MOL0     C 7796   6.683   0.349   9.614  0.0456  0.9902 -1.5249
  782MOL0     C 7797   6.635   0.414   9.510 -1.6699 -0.2330  0.9350
  782MOL0     C 7798   6.609   0.351   9.372  0.2315 -0.8066 -0.8083
  782MOL0     C 7799   6.496   0.249   9.350 -0.0838 -0.4449 -0.2124
  782MOL0     C 7800   6.525   0.139   9.246  1.1603 -0.5393  0.2181
  782MOL0     C 7801   6.556   0.190   9.108  0.2124 -0.1959 -0.0209
  782MOL0     O 7802   6.532   0.102   8.992  0.3521  0.4166 -1.1071
  782MOL0     C 7803   6.408   0.098   8.932  0.0543 -0.1561  0.4497
  782MOL0     C 7804   6.287   0.141   8.987  0.0165 -0.2136  0.1676
  782MOL0     C 7805   6.177   0.161   8.908 -0.6421  0.6942 -0.6748
  782MOL0     C 7806   6.065   0.239   8.965 -0.5425  0.1063  0.2851
  782MOL0     C 7807   6.179   0.113   8.772 -0.0766 -0.1881 -0.2801
  782MOL0     C 7808   6.066   0.086   8.696 -0.2003  0.8483  0.1720
  782MOL0     O 7809   5.951   0.056   8.763  0.4854  0.1081  0.2602
  782MOL0     C 7810   5.850   0.005   8.685 -0.6114 -0.5385 -0.4708
  782MOL0     C 7811   5.749   0.090   8.644  0.3189  0.3180  0.4953
  782MOL0     C 7812   5.644   0.037   8.560 -0.1087  0.1529  0.2238
  782MOL0     C 7813   5.646  -0.091   8.520 -0.8149 -0.4158  0.3276
  782MOL0     O 7814   5.530  -0.132   8.450  0.1784  0.6559  0.0952
  782MOL0     C 7815   5.565  -0.236   8.353  0.5885 -0.0125  0.1989
  782MOL0     C 7816   5.492  -0.208   8.226  0.9258 -0.1265 -0.0700
  782MOL0     C 7817   5.514  -0.058   8.178  0.1108  0.2225 -0.2131
  782MOL0     C 7818   5.426  -0.025   8.062  0.2248  0.2445 -0.0331
  782MOL0     C 7819   5.473   0.084   7.969 -0.3106  0.8987 -1.0039
  782MOL0     C 7820   5.368   0.116   7.866 -0.6328  0.6230  0.0031
  782MOL0     C 7821   5.394   0.245   7.777 -0.1148 -0.8252  0.8167
  782MOL0     C 7822   5.354   0.380   7.831  0.1120  0.0299  0.0120
  782MOL0    Cl 7823   5.174   0.375   7.858 -0.0750 -0.2457  0.0524
  782MOL0     C 7824   5.756  -0.178   8.566  0.2459 -0.1836 -0.2105
  782MOL0     C 7825   5.853  -0.122   8.642  0.3547 -0.2585 -0.2922
  782MOL0     O 7826   6.082   0.078   8.576 -0.0173  0.5829  0.3292
  782MOL0     C 7827   6.301   0.054   8.725 -0.5517 -0.1572 -0.6488
  782MOL0     C 7828   6.411   0.044   8.801 -0.3229  0.5703 -0.5838
  782MOL0     N 7829   6.619   0.549   9.539 -0.8528  1.7753  0.2728
  782MOL0     N 7830   6.660   0.565   9.662  0.6305  0.0815 -0.3712
  782MOL0     C 7831   5.978   0.061   9.616 -0.3799 -0.0515  0.3055
  782MOL0     C 7832   5.897   0.053   9.503  0.1759 -0.6382 -0.0119
  782MOL0     C 7833   5.680   0.120   9.152 -0.6655 -0.5384  1.2819
  782MOL0     C 7834   5.705   0.033   9.049 -0.3588 -0.0781  0.4770
  782MOL0     C 7835   5.603   0.010   8.964  0.3760  0.1957 -0.1040
  782MOL0     C 7836   5.479   0.063   8.987  0.9545  0.3916 -0.0309
  782MOL0     O 7837   5.375   0.048   8.906 -0.1747  0.9768 -0.0464
  782MOL0     C 7838   5.390   0.096   8.773 -0.8992  0.0907 -0.2703
  782MOL0     C 7839   5.255   0.119   8.712  0.6156 -0.5798  0.7187
  782MOL0     C 7840   5.193  -0.023   8.686 -0.8099 -0.1841  0.5406
  782MOL0     C 7841   5.054  -0.022   8.621  0.1536  0.0222  0.3410
  782MOL0     C 7842   5.012  -0.164   8.598 -0.4620 -0.2952  0.5621
  782MOL0     C 7843   4.993  -0.268   8.553  0.5389  0.1214 -0.1405
  782MOL0     C 7844   5.460   0.142   9.097  0.5383 -0.8728 -1.1010
  782MOL0     C 7845   5.555   0.174   9.183 -0.2541 -0.4494 -0.6777
  782MOL0     C 7846   5.520   0.257   9.300  0.9094 -0.5664  0.6700
  782MOL0     H 7847   6.091  -0.117   9.293 -0.0704 -3.1378  0.7428
  782MOL0     H 7848   6.243  -0.105   9.503  0.4249  1.8211  3.5085
  782MOL0     H 7849   6.075   0.021   9.872 -0.2830 -0.3589 -0.4091
  782MOL0     H 7850   6.136   0.183   9.814  3.6744  1.5301 -0.3404
  782MOL0     H 7851   6.192   0.126  10.019 -1.3919 -0.7896 -1.4556
  782MOL0     H 7852   6.296  -0.012   9.976  0.9607  1.1520  2.4728
  782MOL0     H 7853   6.401   0.158   9.798 -1.6368  0.6164 -1.1097
  782MOL0     H 7854   6.327   0.287   9.902 -1.2327 -0.4712 -1.1075
  782MOL0     H 7855   6.448   0.211  10.108  0.7552 -0.6087  1.1296
  782MOL0     H 7856   6.508   0.072  10.015 -1.0926 -0.5482 -2.1464
  782MOL0     H 7857   6.598   0.219   9.846 -2.8255  1.3564 -0.8378
  782MOL0     H 7858   6.690   0.209   9.998 -0.7509  0.6818  1.8697
  782MOL0     H 7859   6.525   0.451   9.915  1.1437  0.5066 -0.8454
  782MOL0     H 7860   6.570   0.414  10.082  1.3886 -0.2667 -0.3608
  782MOL0     H 7861   6.806   0.422  10.039  0.8897 -0.2433 -0.5161
  782MOL0     H 7862   6.721   0.568   9.988 -2.9882 -0.2776  0.8659
  782MOL0     H 7863   6.884   0.517   9.814  2.2087 -2.0002  0.8453
  782MOL0     H 7864   6.856   0.345   9.821  0.2547  0.5436  0.0016
  782MOL0     H 7865   6.702   0.242   9.621 -2.1750  0.5466 -1.7404
  782MOL0     H 7866   6.707   0.325   9.332  1.6887  0.2137  1.8613
  782MOL0     H 7867   6.584   0.436   9.309 -0.3974  0.6158  1.2504
  782MOL0     H 7868   6.480   0.204   9.448 -1.2624  1.0564  0.3188
  782MOL0     H 7869   6.397   0.278   9.315 -0.3713  0.9512  1.6410
  782MOL0     H 7870   6.601   0.068   9.283  0.8301 -1.8097 -1.3865
  782MOL0     H 7871   6.434   0.080   9.234  0.5432  0.6820 -1.4516
  782MOL0     H 7872   6.504   0.284   9.091  0.0965  0.1035  1.8129
  782MOL0     H 7873   6.662   0.216   9.114 -0.6916  3.7973  1.2993
  782MOL0     H 7874   6.291   0.164   9.093  1.1761 -3.5364  0.9730
  782MOL0     H 7875   5.985   0.166   8.973  0.5946 -1.2521 -0.2441
  782MOL0     H 7876   6.040   0.313   8.888  2.5836 -0.4229 -1.4140
  782MOL0     H 7877   6.089   0.303   9.051 -0.6310 -1.9756  1.9392
  782MOL0     H 7878   5.748   0.183   8.700 -0.1208  2.8420 -3.3367
  782MOL0     H 7879   5.557   0.096   8.534 -0.2597  0.7962  2.0677
  782MOL0     H 7880   5.669  -0.228   8.321  0.1219 -0.9820 -1.7685
  782MOL0     H 7881   5.540  -0.335   8.393  0.4068  0.1053  0.3788
  782MOL0     H 7882   5.530  -0.276   8.150  0.8440 -0.1055 -0.1284
  782MOL0     H 7883   5.387  -0.223   8.253  1.1646  2.5569  3.0484
  782MOL0     H 7884   5.615  -0.038   8.142 -0.1697  4.1718  0.7620
  782MOL0     H 7885   5.495   0.012   8.260  2.9765 -0.2622  0.9881
  782MOL0     H 7886   5.323  -0.000   8.089  0.2126  1.9486 -1.4560
  782MOL0     H 7887   5.419  -0.111   7.994 -1.5992  1.8049 -1.9453
  782MOL0     H 7888   5.495   0.172   8.030  0.6968  1.8629 -2.6604
  782MOL0     H 7889   5.565   0.057   7.916 -1.8561  0.1931 -3.5185
  782MOL0     H 7890   5.269   0.124   7.912 -0.8027 -1.3850  0.0739
  782MOL0     H 7891   5.369   0.029   7.800 -0.0415  2.1131 -2.0202
  782MOL0     H 7892   5.335   0.236   7.686  0.7061 -2.2410  0.4014
  782MOL0     H 7893   5.499   0.253   7.746 -0.7536  0.9036 -1.1255
  782MOL0     H 7894   5.367   0.448   7.746 -0.0246 -0.8027 -0.6838
  782MOL0     H 7895   5.419   0.408   7.915 -0.2738 -1.5691  0.8938
  782MOL0     H 7896   5.749  -0.285   8.550  4.7499 -1.0781  2.0691
  782MOL0     H 7897   5.949  -0.168   8.664  0.5285 -0.8708 -2.1848
  782MOL0     H 7898   6.300   0.021   8.622  2.0300 -1.6551 -0.2714
  782MOL0     H 7899   6.500  -0.002   8.760 -0.4258  1.1819 -1.5244
  782MOL0     H 7900   5.932   0.103   9.704  1.5777  0.6826  1.0125
  782MOL0     H 7901   5.792   0.080   9.496  0.0057 -1.6184 -1.9241
  782MOL0     H 7902   5.799  -0.020   9.035  1.3511  1.9511  3.2430
  782MOL0     H 7903   5.617  -0.065   8.888  2.5269  0.8760 -0.4419
  782MOL0     H 7904   5.451   0.186   8.782  1.7606 -1.6822  0.7271
  782MOL0     H 7905   5.441   0.019   8.714 -1.0350  0.8254 -1.3652
  782MOL0     H 7906   5.270   0.173   8.619 -0.4425 -0.7209  0.4571
  782MOL0     H 7907   5.198   0.181   8.782 -0.3887  0.3442 -0.8654
  782MOL0     H 7908   5.260  -0.074   8.616 -1.2869 -0.5474  0.3401
  782MOL0     H 7909   5.189  -0.082   8.778 -2.3009  0.8511  1.1899
  782MOL0     H 7910   5.067   0.026   8.523 -0.6802  1.6737  0.9998
  782MOL0     H 7911   4.982   0.035   8.681 -1.0118  1.8189 -2.5068
  782MOL0     H 7912   4.964  -0.362   8.510  0.0506  0.7516 -1.2255
  782MOL0     H 7913   5.361   0.170   9.132  1.7180  0.9658  0.9752
  782MOL0     H 7914   5.413   0.267   9.318  0.1618  0.4091 -3.3132
  782MOL0     H 7915   5.565   0.215   9.390  1.8231  1.2654  1.1085
  782MOL0     H 7916   5.546   0.361   9.282 -2.7700  0.5118  0.8436
  783MOL0     O 7917   9.346   4.702  11.404 -0.0438 -0.1580 -0.1384
  783MOL0     C 7918   9.305   4.607  11.471  0.9417  0.4954 -0.9923
  783MOL0     O 7919   9.181   4.601  11.535 -0.0437 -0.2508 -0.0262
  783MOL0     C 7920   9.089   4.713  11.534  0.2152  0.5283 -0.5600
  783MOL0     C 7921   8.957   4.674  11.555 -0.1838 -0.5874 -0.6852
  783MOL0     C 7922   8.859   4.774  11.570 -0.6052  0.9418 -0.3606
  783MOL0     C 7923   8.889   4.910  11.577 -0.2657  0.3625  0.3346
  783MOL0     O 7924   8.796   5.004  11.608 -0.4110 -0.3622  0.0895
  783MOL0     C 7925   8.670   4.984  11.552  0.8782 -0.0474  0.1653
  783MOL0     C 7926   8.580   5.106  11.564  0.0859  0.0929 -0.3771
  783MOL0     C 7927   8.656   5.220  11.494 -0.1309  0.3791 -0.6930
  783MOL0     C 7928   8.578   5.359  11.506  0.0191 -0.6417  0.1753
  783MOL0     C 7929   8.659   5.464  11.433 -0.4552 -0.4641  0.4699
  783MOL0     C 7930   8.593   5.600  11.452  0.3259  0.2811  0.7675
  783MOL0     C 7931   8.673   5.714  11.404  0.9080 -1.2670  0.2714
  783MOL0     C 7932   8.583   5.843  11.407  0.2544 -0.7790 -0.4491
  783MOL0     N 7933   8.493   5.853  11.528 -0.6454 -0.8753 -0.5824
  783MOL0     C 7934   8.528   5.827  11.656  0.2107  0.0969  0.1930
  783MOL0     C 7935   8.409   5.827  11.719  0.6458  0.5931  0.3531
  783MOL0     C 7936   8.385   5.804  11.866  0.0587  0.5357  0.8300
  783MOL0     C 7937   8.324   5.671  11.905 -0.6545  0.5520 -0.0501
  783MOL0     C 7938   8.378   5.544  11.826  0.0200  0.0386 -0.2096
  783MOL0     C 7939   8.320   5.412  11.892  0.1396 -0.1769 -0.5396
  783MOL0     O 7940   8.388   5.362  12.019  1.0310  0.3553  0.1285
  783MOL0     C 7941   8.462   5.248  12.027  0.3795 -0.6843  0.2284
  783MOL0     C 7942   8.450   5.150  12.122  0.8604  0.9206 -0.8807
  783MOL0     C 7943   8.537   5.033  12.131  0.5763 -0.1033  0.4065
  783MOL0     C 7944   8.507   4.934  12.230  0.1420 -0.4771 -0.4253
  783MOL0     C 7945   8.643   5.022  12.045 -0.0570 -0.7027  0.0279
  783MOL0     C 7946   8.740   4.910  12.044  0.3147 -0.5483  0.6349
  783MOL0     O 7947   8.792   4.856  11.932  0.0174  0.2675 -0.2752
  783MOL0     C 7948   8.923   4.797  11.950  0.4986  0.2354  0.5553
  783MOL0     C 7949   9.026   4.857  12.021  0.0335 -0.6119  0.5563
  783MOL0     C 7950   9.153   4.799  12.023  0.0890  0.5010 -0.0305
  783MOL0     C 7951   9.174   4.672  11.972  0.5053  0.0013 -0.6313
  783MOL0     O 7952   9.298   4.629  11.977 -0.4991 -0.0639  0.3395
  783MOL0     C 7953   9.334   4.516  11.897 -0.1099 -0.0357 -0.6751
  783MOL0     C 7954   9.488   4.517  11.887 -0.0115 -0.3851  0.3687
  783MOL0     C 7955   9.533   4.396  11.805 -0.1536 -0.0276  0.2757
  783MOL0     C 7956   9.531   4.261  11.888  0.1098  0.8162  0.6595
  783MOL0     C 7957   9.603   4.134  11.814  0.0396  0.4594  0.3517
  783MOL0     C 7958   9.752   4.160  11.806  0.3184 -0.3070  0.1469
  783MOL0     C 7959   9.822   4.043  11.752  0.0830 -0.2009  0.5193
  783MOL0     C 7960   9.969   4.081  11.724  0.1682  1.0793 -0.3410
  783MOL0    Cl 7961  10.057   3.949  11.651  0.5732  0.4274  0.6248
  783MOL0     C 7962   9.068   4.607  11.910 -0.4065 -0.1428  0.6770
  783MOL0     C 7963   8.945   4.668  11.897  0.7235 -0.6733 -0.4266
  783MOL0     O 7964   8.775   4.880  12.153  0.2387 -0.6610 -0.5546
  783MOL0     C 7965   8.653   5.114  11.939 -0.1619 -0.2238 -0.0924
  783MOL0     C 7966   8.562   5.224  11.935 -0.3371 -0.9959 -0.0935
  783MOL0     N 7967   8.301   5.860  11.633  0.3545  1.3718 -0.0655
  783MOL0     N 7968   8.360   5.876  11.520 -0.1504 -0.0752 -0.2290
  783MOL0     C 7969   9.024   4.954  11.554  0.7850  0.0741 -0.5511
  783MOL0     C 7970   9.125   4.847  11.547 -1.0875 -0.5700  0.4379
  783MOL0     C 7971   9.373   4.484  11.438 -0.0958  0.8129 -1.0441
  783MOL0     C 7972   9.302   4.387  11.372  0.2375 -0.6138 -0.7595
  783MOL0     C 7973   9.372   4.269  11.322  0.6689  0.8873 -0.3713
  783MOL0     C 7974   9.504   4.257  11.351 -0.0837 -0.5015 -0.3047
  783MOL0     O 7975   9.568   4.143  11.312  0.0832 -0.3383 -0.2152
  783MOL0     C 7976   9.688   4.097  11.374  0.0831  0.2356 -0.0675
  783MOL0     C 7977   9.716   3.956  11.317 -0.6242 -0.0403  0.0369
  783MOL0     C 7978   9.840   3.896  11.384 -0.2095  0.5758  0.6121
  783MOL0     C 7979   9.867   3.746  11.352 -0.2065  0.5883  0.0077
  783MOL0     C 7980   9.739   3.671  11.371 -0.5280  0.4556  0.7299
  783MOL0     C 7981   9.648   3.592  11.393  1.1087 -0.0241 -0.2377
  783MOL0     C 7982   9.578   4.355  11.416  0.6689  0.5040 -0.1714
  783MOL0     C 7983   9.521   4.480  11.450  0.9073  0.1028 -1.0749
  783MOL0     C 7984   9.595   4.602  11.491  0.8403  0.6018 -0.0107
  783MOL0     H 7985   8.919   4.573  11.540 -1.2046 -0.1252 -1.3560
  783MOL0     H 7986   8.759   4.735  11.584  0.2867 -1.3072  0.2806
  783MOL0     H 7987   8.628   4.894  11.597 -0.9797  0.5994 -0.1580
  783MOL0     H 7988   8.677   4.965  11.444 -2.7592 -1.0187 -0.0532
  783MOL0     H 7989   8.483   5.102  11.513  1.6937  1.5649 -3.8996
  783MOL0     H 7990   8.567   5.116  11.672  2.7548  3.3777 -0.2019
  783MOL0     H 7991   8.749   5.233  11.550  0.0060 -1.9130 -0.3181
  783MOL0     H 7992   8.675   5.199  11.388 -0.8681 -1.8824 -0.4148
  783MOL0     H 7993   8.485   5.360  11.450  1.3955 -0.0529 -2.2550
  783MOL0     H 7994   8.561   5.380  11.612 -0.2056 -2.9625  0.6596
  783MOL0     H 7995   8.651   5.444  11.326  1.0267 -0.5225  0.3426
  783MOL0     H 7996   8.763   5.457  11.465 -0.4031 -2.2333  0.0454
  783MOL0     H 7997   8.509   5.591  11.383  1.9228  1.3343 -1.4605
  783MOL0     H 7998   8.551   5.609  11.553  0.0103  0.7148  0.6005
  783MOL0     H 7999   8.723   5.704  11.307 -1.0748 -2.0260 -0.7267
  783MOL0     H 8000   8.744   5.738  11.484 -1.0710  4.1342  0.8554
  783MOL0     H 8001   8.654   5.926  11.401  0.5302 -1.1045 -5.1931
  783MOL0     H 8002   8.526   5.862  11.316  2.0301  0.0399 -1.4398
  783MOL0     H 8003   8.618   5.793  11.707 -1.9313 -1.0107  3.5626
  783MOL0     H 8004   8.322   5.886  11.903  3.6364  2.6207  2.9154
  783MOL0     H 8005   8.483   5.806  11.915  0.0114  2.3519  0.9331
  783MOL0     H 8006   8.349   5.666  12.012  0.8190 -1.7129 -0.4267
  783MOL0     H 8007   8.216   5.670  11.885 -0.6726 -0.6849 -0.0131
  783MOL0     H 8008   8.337   5.551  11.724  1.0390  1.9267 -0.5508
  783MOL0     H 8009   8.487   5.547  11.832  0.2382  1.4190 -2.9400
  783MOL0     H 8010   8.212   5.412  11.907  0.3659 -1.9502  1.5333
  783MOL0     H 8011   8.339   5.336  11.815 -3.2960 -0.2919 -1.4589
  783MOL0     H 8012   8.379   5.170  12.201 -1.3143 -0.2911 -2.4262
  783MOL0     H 8013   8.517   4.830  12.199  1.4081 -1.6778  3.4174
  783MOL0     H 8014   8.402   4.951  12.258  0.2556  0.7949 -0.6869
  783MOL0     H 8015   8.577   4.948  12.313  0.9233 -1.2976 -0.9334
  783MOL0     H 8016   9.001   4.952  12.067  1.2905  0.1132 -0.1968
  783MOL0     H 8017   9.227   4.855  12.079  0.7657  0.1154 -0.5221
  783MOL0     H 8018   9.303   4.425  11.949  1.3172  0.5541  1.3099
  783MOL0     H 8019   9.277   4.501  11.805 -0.5252  0.3652 -0.4878
  783MOL0     H 8020   9.519   4.606  11.831 -2.1237 -0.6835 -1.4182
  783MOL0     H 8021   9.519   4.522  11.992 -0.5443 -1.4029  0.5836
  783MOL0     H 8022   9.634   4.422  11.771 -0.2206  2.4561  1.7987
  783MOL0     H 8023   9.479   4.381  11.711 -5.3190 -2.0874  3.1919
  783MOL0     H 8024   9.428   4.233  11.910  0.9373 -1.9630  1.4271
  783MOL0     H 8025   9.575   4.279  11.987  1.9441 -0.9837  0.2323
  783MOL0     H 8026   9.593   4.042  11.873 -2.0395 -0.2235 -0.9357
  783MOL0     H 8027   9.563   4.119  11.713  1.0305  2.5096 -0.3899
  783MOL0     H 8028   9.789   4.177  11.908  2.1374  2.0324 -0.8174
  783MOL0     H 8029   9.786   4.250  11.755  2.6324 -1.2330 -0.0432
  783MOL0     H 8030   9.788   4.019  11.651  3.1471 -0.9665 -0.4471
  783MOL0     H 8031   9.815   3.953  11.815  1.0283  0.0922  1.0687
  783MOL0     H 8032  10.010   4.106  11.822 -3.3498  0.3363  1.4694
  783MOL0     H 8033   9.970   4.170  11.661  1.5378  1.7259  0.5367
  783MOL0     H 8034   9.076   4.508  11.866  0.0697  1.2368 -2.6009
  783MOL0     H 8035   8.857   4.617  11.857 -0.7007 -0.4843  2.2397
  783MOL0     H 8036   8.719   5.097  11.855  0.3222 -2.6562  0.7065
  783MOL0     H 8037   8.573   5.290  11.850 -1.9099  0.3876  0.7409
  783MOL0     H 8038   9.060   5.052  11.522  2.1218  0.5750  2.1510
  783MOL0     H 8039   9.227   4.876  11.525 -0.8454 -0.8584  1.1574
  783MOL0     H 8040   9.199   4.401  11.343  0.3036 -1.0635 -1.2168
  783MOL0     H 8041   9.313   4.190  11.275 -0.2214  2.4373 -1.9869
  783MOL0     H 8042   9.772   4.159  11.341  1.6122 -1.7736 -0.0884
  783MOL0     H 8043   9.686   4.104  11.483  0.5280  0.1485 -0.0525
  783MOL0     H 8044   9.741   3.974  11.212 -0.1485  0.9860  0.3188
  783MOL0     H 8045   9.624   3.898  11.325 -0.8597  0.5689  2.1374
  783MOL0     H 8046   9.929   3.958  11.375  0.5573 -0.1560  2.5891
  783MOL0     H 8047   9.820   3.891  11.492  2.7448 -3.0892  1.1873
  783MOL0     H 8048   9.935   3.703  11.426  1.5499 -2.3188 -3.0511
  783MOL0     H 8049   9.899   3.730  11.249  2.5923  1.3004  0.7022
  783MOL0     H 8050   9.569   3.520  11.396  1.9112 -0.9229 -0.0392
  783MOL0     H 8051   9.684   4.342  11.434  0.1662 -0.9965  2.1556
  783MOL0     H 8052   9.696   4.569  11.517  0.2867 -2.5466 -1.3922
  783MOL0     H 8053   9.608   4.678  11.414  1.3252  1.0231  0.4784
  783MOL0     H 8054   9.546   4.644  11.579  0.1596  2.1515 -1.0955
  784MOL0     O 8055   9.869   8.606   4.418  0.5556 -0.3609 -0.2926
  784MOL0     C 8056   9.860   8.504   4.346  1.2355 -0.0416 -0.2856
  784MOL0     O 8057   9.958   8.462   4.265  0.0461 -0.0638 -0.3250
  784MOL0     C 8058  10.059   8.551   4.238  0.2591  0.0451 -0.5890
  784MOL0     C 8059  10.187   8.511   4.272  0.1737  0.5153 -0.3341
  784MOL0     C 8060  10.299   8.581   4.243 -0.0662 -1.2239  0.3615
  784MOL0     C 8061  10.288   8.704   4.171  0.0738  0.4233 -1.3320
  784MOL0     O 8062  10.417   8.754   4.157  1.1733  0.6504 -0.7607
  784MOL0     C 8063  10.407   8.883   4.094 -0.3148 -0.2341 -0.2739
  784MOL0     C 8064  10.550   8.958   4.116  0.5144  0.2714 -1.2209
  784MOL0     C 8065  10.564   9.094   4.051  0.0234 -0.2164 -0.1186
  784MOL0     C 8066  10.542   9.086   3.903 -0.0236  0.5831 -0.1584
  784MOL0     C 8067  10.595   9.215   3.838 -0.3098 -0.0364 -0.0985
  784MOL0     C 8068  10.594   9.206   3.690 -0.7006  0.7846  0.9923
  784MOL0     C 8069  10.620   9.341   3.621  0.7687  0.2431  0.4551
  784MOL0     C 8070  10.534   9.460   3.665  0.2552 -0.6562  0.3054
  784MOL0     N 8071  10.559   9.577   3.570  0.5963  0.5690 -0.4711
  784MOL0     C 8072  10.669   9.613   3.502 -0.0009 -0.0519  0.1558
  784MOL0     C 8073  10.631   9.724   3.439 -0.6021  0.2737 -0.4116
  784MOL0     C 8074  10.725   9.794   3.343 -0.6730  0.3581  0.1995
  784MOL0     C 8075  10.697   9.752   3.197 -0.0041  0.0999 -0.3703
  784MOL0     C 8076  10.787   9.834   3.112 -0.1409 -0.2955  0.0851
  784MOL0     C 8077  10.939   9.839   3.132 -0.8475  0.5289 -0.1083
  784MOL0     O 8078  11.006   9.871   3.014 -0.5970  0.0121  0.0627
  784MOL0     C 8079  11.025  10.001   2.971  0.3945  0.4075  0.4980
  784MOL0     C 8080  11.061   9.995   2.836 -0.1030 -0.0867 -0.3339
  784MOL0     C 8081  11.102  10.112   2.767  0.3380 -0.3504  0.0560
  784MOL0     C 8082  11.149  10.117   2.631 -0.4822  0.8534 -0.1462
  784MOL0     C 8083  11.105  10.238   2.843 -0.0637  0.3744  0.5763
  784MOL0     C 8084  11.157  10.375   2.791 -0.1748  0.0243 -0.9231
  784MOL0     O 8085  11.252  10.374   2.695 -0.8603  0.3930  0.0471
  784MOL0     C 8086  11.315  10.489   2.677  1.1512  0.1649  0.4053
  784MOL0     C 8087  11.253  10.584   2.593  0.8728  0.2598 -0.8945
  784MOL0     C 8088  11.324  10.699   2.558  0.6345  0.2706 -0.0917
  784MOL0     C 8089  11.453  10.716   2.594  0.3173 -0.2368  0.2040
  784MOL0     O 8090  11.513  10.817   2.524 -0.8481 -0.8756  0.3720
  784MOL0     C 8091  11.631  10.870   2.580 -0.5112 -0.0903 -0.7843
  784MOL0     C 8092  11.661  11.006   2.513  0.6634 -0.6598  0.2637
  784MOL0     C 8093  11.536  11.098   2.505 -0.3021 -0.3776  0.8835
  784MOL0     C 8094  11.453  11.107   2.633 -0.1710  0.1723  0.1042
  784MOL0     C 8095  11.341  11.212   2.630 -0.4947  0.0637 -1.2631
  784MOL0     C 8096  11.258  11.193   2.508  0.3755 -0.2763  0.2042
  784MOL0     C 8097  11.129  11.272   2.508 -0.1625  0.0914 -0.6719
  784MOL0     C 8098  11.011  11.212   2.596  0.4701 -0.1927  0.0301
  784MOL0    Cl 8099  10.884  11.339   2.613 -0.0732  0.0067  0.3593
  784MOL0     C 8100  11.519  10.617   2.666 -0.4654 -1.0791 -0.4475
  784MOL0     C 8101  11.451  10.504   2.719  0.9335 -0.2639  0.1096
  784MOL0     O 8102  11.103  10.483   2.834 -0.2724 -0.1266 -0.3664
  784MOL0     C 8103  11.059  10.235   2.970  1.2657 -0.5910 -0.1821
  784MOL0     C 8104  11.023  10.115   3.041 -0.7488  0.5767 -0.2418
  784MOL0     N 8105  10.505   9.756   3.471  0.3270 -0.3415 -0.0046
  784MOL0     N 8106  10.457   9.673   3.557  0.2542 -0.4029  0.8168
  784MOL0     C 8107  10.156   8.751   4.144  0.4123 -0.5089 -0.3188
  784MOL0     C 8108  10.037   8.679   4.176  0.4064 -0.0586 -0.3922
  784MOL0     C 8109   9.736   8.417   4.356 -0.5353  0.0328 -0.3124
  784MOL0     C 8110   9.764   8.284   4.324  0.6197 -0.4535  0.4433
  784MOL0     C 8111   9.661   8.190   4.319 -0.3158  0.0134  0.2101
  784MOL0     C 8112   9.530   8.236   4.357 -0.1127  0.5106  0.4330
  784MOL0     O 8113   9.430   8.140   4.344 -0.8293 -0.2883 -0.5529
  784MOL0     C 8114   9.351   8.122   4.461 -0.2353  0.2387 -0.6051
  784MOL0     C 8115   9.397   8.016   4.556 -0.2610  0.3302  0.8013
  784MOL0     C 8116   9.371   7.873   4.523 -0.0409  0.2229 -0.7012
  784MOL0     C 8117   9.229   7.831   4.560  0.2226  0.0940  0.6378
  784MOL0     C 8118   9.228   7.684   4.566  0.2775  0.0079 -0.0001
  784MOL0     C 8119   9.254   7.574   4.576 -0.5009  0.3493 -1.1111
  784MOL0     C 8120   9.504   8.362   4.398 -0.5057 -0.1052  1.1271
  784MOL0     C 8121   9.606   8.459   4.399 -0.3428 -0.0795 -0.6536
  784MOL0     C 8122   9.572   8.598   4.449  0.1310  0.0868  0.8801
  784MOL0     H 8123  10.205   8.412   4.312  0.8485  0.4038 -0.8829
  784MOL0     H 8124  10.400   8.543   4.251  0.7546  0.4031 -1.5418
  784MOL0     H 8125  10.334   8.952   4.138  1.4182  0.7633  1.1871
  784MOL0     H 8126  10.373   8.874   3.991 -2.4220  3.7972 -0.1416
  784MOL0     H 8127  10.565   8.982   4.222 -2.9525  2.3924 -1.0647
  784MOL0     H 8128  10.624   8.887   4.079 -1.8663 -1.9166 -2.0970
  784MOL0     H 8129  10.498   9.171   4.091 -2.5983 -0.7675 -3.0072
  784MOL0     H 8130  10.666   9.125   4.075 -0.5704  0.5733  1.4983
  784MOL0     H 8131  10.592   8.996   3.865  1.7408 -0.4208  3.8941
  784MOL0     H 8132  10.435   9.074   3.883 -0.0720  1.5330 -0.4863
  784MOL0     H 8133  10.699   9.232   3.866 -0.7131  0.6886  1.0614
  784MOL0     H 8134  10.539   9.301   3.877  0.1055  0.1457  0.0989
  784MOL0     H 8135  10.673   9.134   3.669 -0.9954  0.2206  1.7529
  784MOL0     H 8136  10.509   9.150   3.650  0.1806  0.9900 -1.3420
  784MOL0     H 8137  10.606   9.326   3.513 -1.2261 -0.0139  0.7223
  784MOL0     H 8138  10.723   9.373   3.639 -0.0614  1.5886  3.3854
  784MOL0     H 8139  10.428   9.432   3.663  0.8790 -3.2680  0.6546
  784MOL0     H 8140  10.547   9.498   3.767  0.2664 -3.3342  1.3883
  784MOL0     H 8141  10.765   9.562   3.500  1.7137  2.2594  5.1771
  784MOL0     H 8142  10.831   9.772   3.358 -0.9463 -2.1852 -1.0433
  784MOL0     H 8143  10.710   9.903   3.348 -1.9164  0.4804 -3.4087
  784MOL0     H 8144  10.727   9.647   3.197  1.7812  0.5815 -0.3985
  784MOL0     H 8145  10.594   9.784   3.176  0.2445  1.6970  0.6491
  784MOL0     H 8146  10.777   9.793   3.011  1.0199  0.4986 -0.3731
  784MOL0     H 8147  10.744   9.934   3.113 -1.4891 -0.8548  0.0108
  784MOL0     H 8148  10.981   9.906   3.208 -0.5769  0.3507 -0.0998
  784MOL0     H 8149  10.967   9.738   3.163 -0.3364  0.6406 -0.1877
  784MOL0     H 8150  11.063   9.899   2.787 -2.3930  0.8069 -2.3827
  784MOL0     H 8151  11.100  10.192   2.568  0.3012 -1.0617 -3.3044
  784MOL0     H 8152  11.127  10.026   2.574 -0.1776  0.4957  0.3002
  784MOL0     H 8153  11.257  10.132   2.636 -0.6037  1.7983 -0.1992
  784MOL0     H 8154  11.156  10.564   2.548  0.3089  0.4289  0.2171
  784MOL0     H 8155  11.272  10.765   2.488 -0.1827 -1.9133 -1.6615
  784MOL0     H 8156  11.635  10.874   2.689  0.5538 -2.1636 -0.7174
  784MOL0     H 8157  11.714  10.806   2.551 -0.1523  0.6170 -1.3492
  784MOL0     H 8158  11.722  11.065   2.583  1.8893  2.1666 -2.9010
  784MOL0     H 8159  11.717  10.995   2.420 -0.7357  1.3676 -0.8926
  784MOL0     H 8160  11.469  11.052   2.432 -0.5569 -0.0238  0.8901
  784MOL0     H 8161  11.572  11.196   2.471 -3.5172 -0.6904 -4.6130
  784MOL0     H 8162  11.523  11.122   2.716 -2.0156  1.3038  1.5462
  784MOL0     H 8163  11.404  11.011   2.652 -2.0000  0.9066 -0.6404
  784MOL0     H 8164  11.286  11.207   2.725  2.3835 -1.9601  0.4555
  784MOL0     H 8165  11.380  11.314   2.627  3.7989 -1.4158 -3.4018
  784MOL0     H 8166  11.220  11.092   2.492  0.6208 -0.2194 -0.7633
  784MOL0     H 8167  11.328  11.234   2.434 -1.0621  2.9489  0.4350
  784MOL0     H 8168  11.083  11.285   2.409 -0.3565 -3.7301 -1.2514
  784MOL0     H 8169  11.151  11.374   2.540 -1.2888  0.9940 -2.5626
  784MOL0     H 8170  11.057  11.190   2.693  2.1198 -0.6928 -0.8336
  784MOL0     H 8171  10.975  11.117   2.555 -0.4855  0.2764 -0.2508
  784MOL0     H 8172  11.619  10.639   2.700 -0.7592  1.2967 -0.9380
  784MOL0     H 8173  11.505  10.427   2.774  2.5786  0.9112  0.1968
  784MOL0     H 8174  11.055  10.331   3.021  0.9172 -1.1841  0.9253
  784MOL0     H 8175  10.992  10.125   3.145 -2.8079 -0.7806 -0.6802
  784MOL0     H 8176  10.146   8.847   4.095  0.5365 -0.3425 -0.0221
  784MOL0     H 8177   9.942   8.720   4.143 -0.0785 -0.8792 -0.0387
  784MOL0     H 8178   9.870   8.262   4.310  1.8921  2.0351  4.2955
  784MOL0     H 8179   9.698   8.093   4.290  2.5272  0.7363  1.0520
  784MOL0     H 8180   9.348   8.217   4.514 -0.6429 -0.2573  0.2895
  784MOL0     H 8181   9.250   8.095   4.428  0.1368  0.3185 -1.8410
  784MOL0     H 8182   9.361   8.039   4.657  0.9572 -0.3662  1.4238
  784MOL0     H 8183   9.506   8.023   4.556 -0.1097 -1.2598  2.2812
  784MOL0     H 8184   9.389   7.851   4.417  1.6146 -2.6927  0.0681
  784MOL0     H 8185   9.433   7.808   4.586  0.5370  1.4027 -0.0280
  784MOL0     H 8186   9.153   7.868   4.491  1.9407  2.1065 -0.3021
  784MOL0     H 8187   9.204   7.883   4.653 -0.6577  1.9483 -0.5826
  784MOL0     H 8188   9.273   7.470   4.594  3.7460  1.3919  2.0298
  784MOL0     H 8189   9.403   8.387   4.430  0.4853  4.2034  1.5604
  784MOL0     H 8190   9.641   8.637   4.525  0.9625  3.1308 -1.2066
  784MOL0     H 8191   9.572   8.663   4.361 -3.3626  0.6360  1.1472
  784MOL0     H 8192   9.473   8.593   4.494  0.1247  0.5347  0.9273
  785MOL0     O 8193   5.113   7.835   9.607 -0.0596 -0.3564  0.1633
  785MOL0     C 8194   5.032   7.863   9.522  0.5030  0.0325 -0.9315
  785MOL0     O 8195   5.052   7.853   9.392  0.0974  0.0746  0.1387
  785MOL0     C 8196   5.178   7.853   9.340 -0.1687 -0.8648 -1.3811
  785MOL0     C 8197   5.213   7.960   9.256 -0.2933  0.0446  0.2992
  785MOL0     C 8198   5.340   7.958   9.196 -0.0049 -0.4137  0.1938
  785MOL0     C 8199   5.425   7.852   9.212  0.1844 -0.1571 -0.3904
  785MOL0     O 8200   5.552   7.859   9.162  0.5519 -0.2406 -0.4714
  785MOL0     C 8201   5.615   7.745   9.096  0.1749  0.1456 -0.3411
  785MOL0     C 8202   5.756   7.768   9.060  0.3265  0.2340  0.2278
  785MOL0     C 8203   5.771   7.881   8.950  0.1275 -0.7113 -0.7201
  785MOL0     C 8204   5.911   7.915   8.919  0.4159  0.3532 -0.6940
  785MOL0     C 8205   5.963   7.993   9.031  0.0948 -0.4574  0.0755
  785MOL0     C 8206   6.086   8.079   8.990  0.1941 -0.5926 -0.0670
  785MOL0     C 8207   6.148   8.155   9.119 -0.3444 -1.2068  1.3463
  785MOL0     C 8208   6.263   8.250   9.076  0.1089  0.4656 -0.0460
  785MOL0     N 8209   6.220   8.342   8.975  0.2749  0.4641 -0.0126
  785MOL0     C 8210   6.110   8.422   8.980  0.8942 -0.3447  0.1376
  785MOL0     C 8211   6.103   8.491   8.870 -0.3131  1.5369  0.4702
  785MOL0     C 8212   5.986   8.562   8.815 -0.2328  1.1034 -0.6523
  785MOL0     C 8213   5.870   8.485   8.753  0.2094  0.4233  0.2579
  785MOL0     C 8214   5.792   8.385   8.847 -0.2035 -0.0572 -0.3218
  785MOL0     C 8215   5.670   8.453   8.915 -0.3887  0.2093 -0.9815
  785MOL0     O 8216   5.623   8.342   8.992 -0.4305 -0.0548 -0.1998
  785MOL0     C 8217   5.536   8.375   9.104 -0.1983 -0.1980  0.5670
  785MOL0     C 8218   5.496   8.269   9.188  0.6514 -0.0942 -0.4862
  785MOL0     C 8219   5.427   8.298   9.312 -0.2170 -0.0106  0.5272
  785MOL0     C 8220   5.415   8.192   9.423 -0.1562 -0.4208 -0.4014
  785MOL0     C 8221   5.369   8.436   9.330 -0.4263 -0.6207  0.1805
  785MOL0     C 8222   5.291   8.484   9.457  0.5514  0.5117 -0.4011
  785MOL0     O 8223   5.244   8.611   9.452 -0.6551 -0.3885 -0.5610
  785MOL0     C 8224   5.149   8.649   9.543  0.8696  0.1335  0.6195
  785MOL0     C 8225   5.156   8.776   9.607 -0.5705  0.4554 -0.2874
  785MOL0     C 8226   5.045   8.822   9.678 -0.3033  0.9992 -0.5642
  785MOL0     C 8227   4.924   8.745   9.676 -1.0722 -0.1205  0.3662
  785MOL0     O 8228   4.808   8.795   9.741 -0.9774  0.6363 -0.5426
  785MOL0     C 8229   4.818   8.870   9.868 -0.4272 -0.3965  0.5355
  785MOL0     C 8230   4.700   8.855   9.957  0.1808  0.2885 -0.0133
  785MOL0     C 8231   4.726   8.913  10.097 -0.0257  0.8297  0.5075
  785MOL0     C 8232   4.629   8.873  10.216  0.0751 -0.8006 -0.1509
  785MOL0     C 8233   4.623   8.983  10.329  0.6449 -0.2880 -0.1892
  785MOL0     C 8234   4.521   8.945  10.427 -0.6845  0.0049 -0.9216
  785MOL0     C 8235   4.553   8.979  10.573 -0.5587 -0.2081  0.0264
  785MOL0     C 8236   4.419   8.941  10.647  0.0205  0.0319  1.1443
  785MOL0    Cl 8237   4.285   9.052  10.586  0.2139 -0.0100 -0.0827
  785MOL0     C 8238   4.915   8.629   9.604 -0.6493  0.0856  0.5988
  785MOL0     C 8239   5.029   8.580   9.534  0.4112 -0.1786  0.1476
  785MOL0     O 8240   5.271   8.400   9.543  0.1507  0.7743 -0.2463
  785MOL0     C 8241   5.395   8.533   9.230  0.2034 -0.5112 -0.6867
  785MOL0     C 8242   5.486   8.509   9.131 -0.2740  0.2720  0.2592
  785MOL0     N 8243   6.228   8.477   8.802 -0.3266  0.0241 -0.2012
  785MOL0     N 8244   6.293   8.393   8.872  0.5753 -0.6122 -0.3425
  785MOL0     C 8245   5.396   7.747   9.299  0.6151  0.5536  0.5276
  785MOL0     C 8246   5.271   7.751   9.365 -0.6522  0.5263  0.6025
  785MOL0     C 8247   4.907   7.923   9.566  0.7038 -0.7895 -0.7223
  785MOL0     C 8248   4.777   7.877   9.540  0.4936  0.6495  1.4614
  785MOL0     C 8249   4.661   7.952   9.578  0.0615  0.3537  0.6756
  785MOL0     C 8250   4.668   8.075   9.627  0.2168  0.4396 -0.4518
  785MOL0     O 8251   4.555   8.139   9.669 -0.0304  0.0133 -0.7181
  785MOL0     C 8252   4.555   8.288   9.665 -0.1378 -0.4237 -0.4433
  785MOL0     C 8253   4.426   8.337   9.737 -0.0993 -0.0926 -0.0650
  785MOL0     C 8254   4.434   8.480   9.774 -0.8463  1.0519  0.5866
  785MOL0     C 8255   4.416   8.567   9.649 -1.5824  0.1834 -0.9885
  785MOL0     C 8256   4.375   8.708   9.670  0.0799  0.8171  0.1990
  785MOL0     C 8257   4.345   8.826   9.678  0.8271  0.6562  0.1152
  785MOL0     C 8258   4.796   8.130   9.644  0.2843  1.4788  0.0087
  785MOL0     C 8259   4.916   8.052   9.629  0.6799 -0.0006 -0.7755
  785MOL0     C 8260   5.054   8.127   9.646 -0.8619 -0.0971  0.2164
  785MOL0     H 8261   5.137   8.034   9.232 -1.0298 -0.9562 -0.5883
  785MOL0     H 8262   5.381   8.038   9.135  1.3795 -2.7447 -2.1317
  785MOL0     H 8263   5.557   7.725   9.005  1.0681 -0.6851 -0.7517
  785MOL0     H 8264   5.610   7.656   9.159 -2.2135  0.4839  0.0443
  785MOL0     H 8265   5.813   7.787   9.151  2.4161 -1.8265 -0.5374
  785MOL0     H 8266   5.793   7.674   9.017 -0.6592 -0.0514 -0.0243
  785MOL0     H 8267   5.726   7.838   8.860  1.2198 -0.2073 -1.5289
  785MOL0     H 8268   5.715   7.972   8.973  1.4660  0.9570 -3.5281
  785MOL0     H 8269   5.973   7.827   8.899  0.9465  0.4815  0.3055
  785MOL0     H 8270   5.920   7.967   8.823 -2.4738  0.2091 -1.1121
  785MOL0     H 8271   5.999   7.933   9.115  0.0713  1.9348  1.9041
  785MOL0     H 8272   5.888   8.057   9.078  1.6171  0.9364  0.7169
  785MOL0     H 8273   6.173   8.023   8.954  0.5135 -1.3400  1.7742
  785MOL0     H 8274   6.057   8.152   8.914  0.9962  1.0468  1.1357
  785MOL0     H 8275   6.192   8.073   9.177  3.3807 -0.6346 -0.3556
  785MOL0     H 8276   6.071   8.214   9.170 -0.7007 -1.6486  1.3234
  785MOL0     H 8277   6.294   8.307   9.164 -2.0955  0.1737  0.9820
  785MOL0     H 8278   6.348   8.196   9.034 -0.9824 -0.9461 -0.5440
  785MOL0     H 8279   6.036   8.419   9.059  2.2332 -1.5828  1.4007
  785MOL0     H 8280   6.011   8.628   8.731  0.4318  0.6643 -0.8089
  785MOL0     H 8281   5.969   8.633   8.897  1.5407  0.5704  0.2200
  785MOL0     H 8282   5.800   8.557   8.710  3.2478  4.7419  1.8474
  785MOL0     H 8283   5.909   8.430   8.666 -2.9548 -0.5540 -0.6679
  785MOL0     H 8284   5.754   8.297   8.792 -1.5130  0.4599 -0.2755
  785MOL0     H 8285   5.859   8.341   8.922 -1.6001 -1.7660 -0.0111
  785MOL0     H 8286   5.706   8.540   8.971  0.3893 -0.2891 -0.6906
  785MOL0     H 8287   5.603   8.468   8.829  2.2855 -3.4325 -4.0434
  785MOL0     H 8288   5.540   8.172   9.171  1.7726  0.5867 -1.5649
  785MOL0     H 8289   5.477   8.104   9.405 -0.9713 -1.3580  1.1305
  785MOL0     H 8290   5.313   8.154   9.432  0.7212 -2.8302  0.1420
  785MOL0     H 8291   5.444   8.230   9.522 -1.2435  2.7212 -1.1540
  785MOL0     H 8292   5.253   8.824   9.603  0.0395 -0.8119 -1.6047
  785MOL0     H 8293   5.047   8.916   9.733 -0.0311  0.5361  0.2284
  785MOL0     H 8294   4.904   8.836   9.928  0.1495  2.0146  1.1762
  785MOL0     H 8295   4.819   8.978   9.850 -4.1993  0.3293  3.4625
  785MOL0     H 8296   4.614   8.909   9.917  0.2339  0.8642  0.6390
  785MOL0     H 8297   4.683   8.747   9.958  2.6735 -0.1763  2.3417
  785MOL0     H 8298   4.726   9.021  10.080 -1.2487  0.9272  1.0384
  785MOL0     H 8299   4.829   8.902  10.134 -0.3626 -1.0105  0.9865
  785MOL0     H 8300   4.674   8.787  10.266  0.9610 -0.8076 -0.9274
  785MOL0     H 8301   4.532   8.836  10.181 -0.5159  1.1105 -0.6648
  785MOL0     H 8302   4.724   9.006  10.364 -0.2865 -0.2864  2.7835
  785MOL0     H 8303   4.581   9.074  10.284 -3.6747 -0.5872  2.6709
  785MOL0     H 8304   4.510   8.837  10.430  2.3384 -0.3880 -0.6234
  785MOL0     H 8305   4.424   8.987  10.398 -1.1803  0.6731  1.4829
  785MOL0     H 8306   4.567   9.086  10.587 -0.6683 -0.5596  4.1051
  785MOL0     H 8307   4.631   8.914  10.612 -1.6891  0.7164  4.3568
  785MOL0     H 8308   4.436   8.948  10.755 -2.9345 -0.9905  1.7621
  785MOL0     H 8309   4.386   8.841  10.618  0.8306  0.5656 -1.9759
  785MOL0     H 8310   4.826   8.566   9.612 -1.5754  1.4912  2.1835
  785MOL0     H 8311   5.021   8.482   9.486 -2.8974  1.2217 -2.6192
  785MOL0     H 8312   5.367   8.636   9.249  0.4429 -0.3984 -0.9354
  785MOL0     H 8313   5.515   8.599   9.077 -1.0321  0.2203 -0.2595
  785MOL0     H 8314   5.462   7.663   9.317  1.6266  1.2810  0.3022
  785MOL0     H 8315   5.268   7.673   9.440 -0.8444  1.3943  1.5266
  785MOL0     H 8316   4.765   7.779   9.494  0.1924  0.3072  2.2462
  785MOL0     H 8317   4.570   7.899   9.553  1.7707 -2.2391 -0.4804
  785MOL0     H 8318   4.646   8.319   9.716  0.6445 -2.7982 -0.2649
  785MOL0     H 8319   4.551   8.318   9.560  2.3883 -0.8020 -0.7132
  785MOL0     H 8320   4.399   8.285   9.830  1.2513 -2.7855 -1.0705
  785MOL0     H 8321   4.342   8.313   9.672 -1.2626 -2.0300  2.0049
  785MOL0     H 8322   4.356   8.502   9.847 -1.3944  0.0424  0.3253
  785MOL0     H 8323   4.526   8.493   9.832 -0.5648 -2.2838  1.0668
  785MOL0     H 8324   4.332   8.519   9.598 -2.4828 -0.4391  0.9825
  785MOL0     H 8325   4.508   8.578   9.591 -1.5989  0.0552 -1.0373
  785MOL0     H 8326   4.324   8.930   9.693  0.6025  0.6477 -0.1399
  785MOL0     H 8327   4.810   8.235   9.669  0.5253  1.5777 -0.5253
  785MOL0     H 8328   5.094   8.127   9.544 -0.5335 -2.1696  0.2980
  785MOL0     H 8329   5.035   8.232   9.670 -3.3018  0.2852 -2.7864
  785MOL0     H 8330   5.126   8.077   9.711 -0.4682 -2.1759 -1.6979
  786MOL0     O 8331   7.647  10.606   6.807  0.2743  0.0732  0.0295
  786MOL0     C 8332   7.526  10.606   6.801  0.5803  0.3004  0.5632
  786MOL0     O 8333   7.446  10.718   6.787  0.6255 -0.6215 -0.5011
  786MOL0     C 8334   7.508  10.840   6.783 -0.7360 -0.4086  0.5125
  786MOL0     C 8335   7.513  10.919   6.900 -0.2801 -0.1165 -0.5012
  786MOL0     C 8336   7.597  11.033   6.898 -0.1643  0.1161  0.8622
  786MOL0     C 8337   7.664  11.071   6.779  0.2327  0.0424  0.2530
  786MOL0     O 8338   7.749  11.178   6.751  0.3017 -0.8380  0.0137
  786MOL0     C 8339   7.861  11.208   6.832  0.0491 -0.1628  1.1042
  786MOL0     C 8340   7.947  11.304   6.756  0.2458  0.3763  0.5307
  786MOL0     C 8341   8.078  11.343   6.822  0.5475 -0.2178 -0.2038
  786MOL0     C 8342   8.148  11.442   6.726 -0.0989 -0.5599  0.2714
  786MOL0     C 8343   8.263  11.513   6.784 -0.9985  0.1674  0.3782
  786MOL0     C 8344   8.317  11.608   6.673  0.1066  0.3316 -0.2628
  786MOL0     C 8345   8.465  11.646   6.707 -0.4106 -0.1269 -0.0689
  786MOL0     C 8346   8.553  11.697   6.585 -0.3218 -0.6010 -0.1358
  786MOL0     N 8347   8.575  11.600   6.478  0.4088 -0.3021 -0.5572
  786MOL0     C 8348   8.496  11.593   6.362  0.2161 -0.4475  1.2964
  786MOL0     C 8349   8.555  11.492   6.286 -0.6441  0.0813 -0.1522
  786MOL0     C 8350   8.508  11.431   6.160 -0.3664 -0.4195 -0.0836
  786MOL0     C 8351   8.420  11.324   6.193 -0.3237  0.7270  0.4684
  786MOL0     C 8352   8.350  11.242   6.080 -1.0434 -0.3449 -0.8593
  786MOL0     C 8353   8.439  11.198   5.971  0.1678 -0.6068  0.3719
  786MOL0     O 8354   8.548  11.133   6.025  0.3710 -0.9100 -0.1617
  786MOL0     C 8355   8.661  11.100   5.956 -0.2801  0.4328 -0.0483
  786MOL0     C 8356   8.658  11.058   5.821  0.4335  0.3896  0.0760
  786MOL0     C 8357   8.772  11.029   5.750 -1.0898 -0.1404 -0.6400
  786MOL0     C 8358   8.775  10.984   5.603  0.5419  0.1491 -0.9814
  786MOL0     C 8359   8.898  11.050   5.818  0.7922  1.2996 -0.2790
  786MOL0     C 8360   9.029  11.012   5.768 -0.5855  0.5873 -0.1392
  786MOL0     O 8361   9.026  10.890   5.706  1.0913  0.7051 -0.0720
  786MOL0     C 8362   9.131  10.815   5.679 -0.1505  1.2130 -0.1142
  786MOL0     C 8363   9.124  10.716   5.581  0.8413 -0.9076  0.2735
  786MOL0     C 8364   9.225  10.634   5.554  0.9441  0.5570 -0.4653
  786MOL0     C 8365   9.340  10.631   5.628  0.0226 -0.6145 -0.7700
  786MOL0     O 8366   9.425  10.536   5.578  0.4211  0.6639 -0.7693
  786MOL0     C 8367   9.500  10.571   5.468 -0.5845 -0.1264  0.4840
  786MOL0     C 8368   9.634  10.646   5.496 -0.1456 -0.4351  0.0040
  786MOL0     C 8369   9.723  10.550   5.582 -0.3251  0.0749  0.3798
  786MOL0     C 8370   9.787  10.448   5.486  0.3216 -0.0791 -0.0443
  786MOL0     C 8371   9.887  10.363   5.567  0.2643  0.1963  0.1300
  786MOL0     C 8372   9.973  10.294   5.471  0.4494 -0.4407  0.6719
  786MOL0     C 8373   9.897  10.193   5.382 -0.6950  0.2023 -0.3143
  786MOL0     C 8374   9.988  10.086   5.332  0.3677 -1.1668  0.2304
  786MOL0    Cl 8375  10.051   9.999   5.474 -0.0324 -0.5030 -0.0429
  786MOL0     C 8376   9.356  10.714   5.737 -0.3100 -0.5672 -0.4165
  786MOL0     C 8377   9.257  10.809   5.760  0.0335 -1.2198 -0.6947
  786MOL0     O 8378   9.131  11.071   5.801 -0.6296 -0.4558  0.0757
  786MOL0     C 8379   8.900  11.104   5.949  0.2030  0.4272 -1.0468
  786MOL0     C 8380   8.782  11.126   6.020  0.9493  0.2082 -0.8379
  786MOL0     N 8381   8.666  11.446   6.356 -0.0815  0.3190  0.1595
  786MOL0     N 8382   8.674  11.509   6.472 -0.1805 -0.0576  0.1064
  786MOL0     C 8383   7.656  10.993   6.664  0.7695  0.3495 -0.1587
  786MOL0     C 8384   7.583  10.878   6.670 -0.8301  0.6394 -0.7829
  786MOL0     C 8385   7.452  10.474   6.794  0.6904  0.3923 -0.6335
  786MOL0     C 8386   7.314  10.475   6.753 -0.3401  0.1660  0.7351
  786MOL0     C 8387   7.242  10.358   6.730  0.6017 -0.2602  0.5856
  786MOL0     C 8388   7.299  10.224   6.750 -1.2311 -0.4953 -0.7404
  786MOL0     O 8389   7.230  10.107   6.739  0.1151 -0.1216 -0.2376
  786MOL0     C 8390   7.086  10.120   6.764 -0.2825  0.4048 -0.1420
  786MOL0     C 8391   7.036   9.975   6.774  1.0033 -1.6600 -0.1533
  786MOL0     C 8392   6.880   9.961   6.755  0.2100  0.1038  0.4932
  786MOL0     C 8393   6.788  10.029   6.856 -0.2864  0.0233  0.1744
  786MOL0     C 8394   6.834  10.016   6.995  0.4343 -0.8242  0.4313
  786MOL0     C 8395   6.853  10.009   7.115  0.3250  0.2704 -0.1994
  786MOL0     C 8396   7.433  10.229   6.800  0.9128 -0.3647  0.3093
  786MOL0     C 8397   7.508  10.347   6.810 -0.8818  0.3217  0.9293
  786MOL0     C 8398   7.647  10.334   6.855 -0.5334  0.7505  0.7228
  786MOL0     H 8399   7.455  10.886   6.985 -0.6790  1.1101 -0.2679
  786MOL0     H 8400   7.611  11.092   6.988  0.8247  0.5643  0.4338
  786MOL0     H 8401   7.905  11.110   6.851  1.1476  0.4393  1.7698
  786MOL0     H 8402   7.832  11.257   6.925  0.8620 -2.1204  2.4567
  786MOL0     H 8403   7.987  11.263   6.663 -2.0123 -3.0742  0.8706
  786MOL0     H 8404   7.895  11.397   6.731 -0.2135  0.6690  2.3973
  786MOL0     H 8405   8.064  11.387   6.921 -0.8396 -1.1746  0.0558
  786MOL0     H 8406   8.132  11.255   6.856 -1.4893 -1.5444 -0.2608
  786MOL0     H 8407   8.168  11.396   6.628  1.4355  1.6074 -0.5034
  786MOL0     H 8408   8.075  11.517   6.693  1.7757  0.5498 -1.5553
  786MOL0     H 8409   8.328  11.431   6.818  0.8332  2.8247  3.8997
  786MOL0     H 8410   8.234  11.571   6.871  1.3475  1.3335  0.4528
  786MOL0     H 8411   8.339  11.543   6.587  1.7456 -1.7669  1.6272
  786MOL0     H 8412   8.247  11.691   6.665  1.6745  1.9504  1.8992
  786MOL0     H 8413   8.520  11.556   6.735  2.4065  1.8254  1.0694
  786MOL0     H 8414   8.466  11.719   6.789  0.0382 -0.9629  0.6833
  786MOL0     H 8415   8.508  11.788   6.542 -1.2686 -0.5205  0.9613
  786MOL0     H 8416   8.651  11.723   6.626 -1.5366  1.9890  1.3474
  786MOL0     H 8417   8.403  11.647   6.346  2.7493  4.0004 -0.2644
  786MOL0     H 8418   8.593  11.403   6.096  0.8110  2.4238  0.0820
  786MOL0     H 8419   8.463  11.500   6.088  3.6514  1.6624 -0.9098
  786MOL0     H 8420   8.467  11.252   6.261 -2.7481 -1.3229  0.0934
  786MOL0     H 8421   8.342  11.372   6.253  0.0840 -0.4569  2.0179
  786MOL0     H 8422   8.311  11.153   6.130  2.5930 -0.4005  2.3407
  786MOL0     H 8423   8.267  11.302   6.043 -0.6415  1.8430  1.5015
  786MOL0     H 8424   8.385  11.134   5.900  3.0125 -0.4544 -2.1127
  786MOL0     H 8425   8.474  11.281   5.908 -2.0670  0.0585 -0.0881
  786MOL0     H 8426   8.569  11.054   5.759  2.1193  0.3472 -2.4877
  786MOL0     H 8427   8.851  11.044   5.554  2.2635  0.9185  2.3032
  786MOL0     H 8428   8.673  10.984   5.564 -0.5809 -0.6201  1.6698
  786MOL0     H 8429   8.809  10.880   5.605  0.4170  0.1146  0.3531
  786MOL0     H 8430   9.038  10.718   5.515  1.4662 -4.8474 -0.8752
  786MOL0     H 8431   9.228  10.553   5.482  1.6035 -0.3771  0.5611
  786MOL0     H 8432   9.534  10.485   5.409  1.0302  0.1550  0.9441
  786MOL0     H 8433   9.430  10.632   5.410 -0.9335  0.5104  1.5571
  786MOL0     H 8434   9.684  10.692   5.410  1.0299 -1.2091  0.2507
  786MOL0     H 8435   9.611  10.731   5.560  0.7553  0.8663 -1.3325
  786MOL0     H 8436   9.663  10.500   5.658  0.9023 -0.8686  0.7555
  786MOL0     H 8437   9.797  10.601   5.645  0.6966 -3.1150  1.9378
  786MOL0     H 8438   9.847  10.506   5.416  2.8892 -0.5583  1.6440
  786MOL0     H 8439   9.717  10.384   5.431  1.8114 -0.6220 -1.4022
  786MOL0     H 8440   9.946  10.427   5.632  0.6682 -1.7572  1.7916
  786MOL0     H 8441   9.830  10.300   5.636 -2.2268  1.4414 -0.6758
  786MOL0     H 8442  10.045  10.240   5.534 -2.6415 -3.4509  1.9697
  786MOL0     H 8443  10.028  10.364   5.408  1.1309 -0.4931  1.1907
  786MOL0     H 8444   9.847  10.240   5.298 -1.0479  0.3469 -0.0253
  786MOL0     H 8445   9.824  10.143   5.447  0.6125 -0.6042  0.6081
  786MOL0     H 8446  10.070  10.120   5.267  2.3422  0.4142  3.3002
  786MOL0     H 8447   9.926  10.023   5.268 -0.6716  0.4890 -0.4340
  786MOL0     H 8448   9.445  10.709   5.800 -0.9053  0.9055  0.6149
  786MOL0     H 8449   9.271  10.877   5.844  2.8623 -2.9446  0.3769
  786MOL0     H 8450   8.998  11.126   5.990  1.5817 -0.8690 -3.3937
  786MOL0     H 8451   8.778  11.165   6.121  0.2716 -1.4128 -0.2070
  786MOL0     H 8452   7.700  11.022   6.569 -1.0879  2.5987 -0.4201
  786MOL0     H 8453   7.573  10.809   6.587 -0.0281  0.1267 -0.4632
  786MOL0     H 8454   7.260  10.566   6.729  0.2345 -0.1481 -2.0773
  786MOL0     H 8455   7.137  10.380   6.712  0.9643  1.1466  0.0570
  786MOL0     H 8456   7.083  10.171   6.861 -0.2098  1.3466 -0.6245
  786MOL0     H 8457   7.037  10.168   6.679  1.1438 -0.3148 -1.4111
  786MOL0     H 8458   7.052   9.950   6.879  0.8873 -1.1505 -0.0126
  786MOL0     H 8459   7.088   9.917   6.697  1.0152 -1.1863 -0.5119
  786MOL0     H 8460   6.842   9.989   6.656  0.9946 -1.7695 -0.3726
  786MOL0     H 8461   6.863   9.855   6.776  0.4986  0.4050  2.4473
  786MOL0     H 8462   6.692   9.977   6.854 -1.3502  1.7873  2.0266
  786MOL0     H 8463   6.786  10.137   6.840 -0.8444  0.5451  3.1099
  786MOL0     H 8464   6.875   9.998   7.219  3.9063 -1.2289 -0.9798
  786MOL0     H 8465   7.476  10.130   6.812 -1.4594 -1.4650  0.2353
  786MOL0     H 8466   7.648  10.408   6.936  2.5992  0.0945  1.4251
  786MOL0     H 8467   7.664  10.234   6.898  0.3512  0.6304  0.1211
  786MOL0     H 8468   7.723  10.355   6.780  1.4686 -2.6365  1.5871
  787MOL0     O 8469   4.685   6.118   5.491  0.1936 -0.2074 -0.0517
  787MOL0     C 8470   4.648   6.123   5.612 -0.4701 -0.1225  0.2900
  787MOL0     O 8471   4.729   6.112   5.721 -0.9670 -0.5285 -0.0553
  787MOL0     C 8472   4.862   6.089   5.698  0.3961  0.1007  0.1062
  787MOL0     C 8473   4.953   6.190   5.725 -0.1624 -0.4998 -0.1155
  787MOL0     C 8474   5.088   6.176   5.687 -1.0532  0.0897 -0.3870
  787MOL0     C 8475   5.136   6.055   5.627  0.0022 -0.0885 -0.9357
  787MOL0     O 8476   5.266   6.051   5.586  0.3273 -0.3373 -0.0403
  787MOL0     C 8477   5.339   5.933   5.599  0.4203  0.1938 -0.0882
  787MOL0     C 8478   5.483   5.971   5.582  0.9375  0.0193  0.3806
  787MOL0     C 8479   5.569   5.843   5.570  0.1809 -0.0936 -0.4120
  787MOL0     C 8480   5.711   5.892   5.535  0.6256  0.4833  0.5748
  787MOL0     C 8481   5.810   5.778   5.504 -0.1298 -0.0204  0.3629
  787MOL0     C 8482   5.948   5.838   5.458 -0.4634 -0.7177 -0.4437
  787MOL0     C 8483   6.039   5.724   5.439  0.1633  0.0984 -0.0613
  787MOL0     C 8484   6.167   5.778   5.381 -0.4413  0.1264 -0.3220
  787MOL0     N 8485   6.248   5.666   5.345  0.1367  0.3755 -0.4993
  787MOL0     C 8486   6.303   5.626   5.225 -0.0047 -0.1093  0.7840
  787MOL0     C 8487   6.346   5.503   5.251  0.4845  0.9853 -0.3767
  787MOL0     C 8488   6.397   5.406   5.144 -0.0105  0.2315  0.2412
  787MOL0     C 8489   6.356   5.256   5.174  0.3700  0.9842 -0.4917
  787MOL0     C 8490   6.362   5.156   5.061 -0.2067 -1.2166  0.2444
  787MOL0     C 8491   6.287   5.032   5.104 -0.3767 -0.3743  0.1909
  787MOL0     O 8492   6.239   4.960   4.986 -0.5610  0.3883  0.3788
  787MOL0     C 8493   6.114   4.976   4.931 -0.2925 -0.1091 -0.0187
  787MOL0     C 8494   6.058   4.869   4.864 -0.3858 -0.2782  0.2619
  787MOL0     C 8495   5.926   4.862   4.832  1.0362 -0.3266  0.9894
  787MOL0     C 8496   5.862   4.730   4.784  0.1288 -1.3334 -0.7479
  787MOL0     C 8497   5.848   4.978   4.843  0.7809 -0.5085  0.5735
  787MOL0     C 8498   5.704   4.987   4.801  0.4378  0.4788  0.9040
  787MOL0     O 8499   5.610   5.035   4.891 -0.4889 -0.0522  1.0299
  787MOL0     C 8500   5.481   4.984   4.888 -0.0094  0.2546  0.9969
  787MOL0     C 8501   5.397   5.048   4.982 -0.3355  0.0080 -0.1493
  787MOL0     C 8502   5.265   5.006   5.001  0.7461 -0.6195  0.3230
  787MOL0     C 8503   5.210   4.906   4.914  0.3854  1.1000 -0.3269
  787MOL0     O 8504   5.081   4.880   4.924 -0.1167 -0.6186 -0.8686
  787MOL0     C 8505   5.035   4.753   4.903  0.1459  0.7896 -0.8959
  787MOL0     C 8506   4.976   4.747   4.761 -0.3961  0.2598 -0.0697
  787MOL0     C 8507   4.854   4.841   4.738 -0.1920 -0.1812  0.2170
  787MOL0     C 8508   4.909   4.983   4.699  0.0012 -0.4137 -0.7099
  787MOL0     C 8509   4.799   5.049   4.613 -0.5510 -0.5616 -0.7933
  787MOL0     C 8510   4.661   5.080   4.690  0.2826  0.0080  0.7526
  787MOL0     C 8511   4.573   5.161   4.589 -0.0017 -0.2832  0.1290
  787MOL0     C 8512   4.443   5.194   4.654  0.1902  0.0517 -0.7059
  787MOL0    Cl 8513   4.347   5.283   4.546  0.4428 -0.7089  0.3504
  787MOL0     C 8514   5.291   4.848   4.819 -0.5390  1.2188 -0.1062
  787MOL0     C 8515   5.424   4.882   4.805  0.5890  0.2437 -0.5933
  787MOL0     O 8516   5.681   4.941   4.690  0.3785  0.2526  1.3231
  787MOL0     C 8517   5.909   5.087   4.903  0.4336 -0.8449  0.4679
  787MOL0     C 8518   6.031   5.086   4.957 -0.2926 -0.5223  0.3403
  787MOL0     N 8519   6.339   5.478   5.390  0.0750  0.3386  0.4525
  787MOL0     N 8520   6.282   5.575   5.439 -0.0156 -0.2480 -0.4169
  787MOL0     C 8521   5.043   5.956   5.599  0.1939 -0.3718  0.0926
  787MOL0     C 8522   4.906   5.973   5.636 -0.8677  0.7350 -0.2786
  787MOL0     C 8523   4.506   6.123   5.643  1.2310  0.1725  0.0806
  787MOL0     C 8524   4.452   6.062   5.758  0.0430 -0.8264 -0.3153
  787MOL0     C 8525   4.318   6.054   5.791 -0.5985  0.1918  0.3599
  787MOL0     C 8526   4.221   6.114   5.715 -0.2959  0.6907  1.1053
  787MOL0     O 8527   4.086   6.110   5.752 -0.1743  0.1964 -0.6220
  787MOL0     C 8528   4.002   6.049   5.657  0.4596  0.4060 -0.4276
  787MOL0     C 8529   3.866   6.049   5.711  0.3815  0.5713  0.1926
  787MOL0     C 8530   3.764   5.974   5.624 -0.3878  0.0608 -0.3703
  787MOL0     C 8531   3.700   5.863   5.699 -0.1053 -0.0732  0.2278
  787MOL0     C 8532   3.613   5.905   5.815 -0.1873 -0.6878 -0.0930
  787MOL0     C 8533   3.549   5.922   5.924  0.0758 -0.0703  0.6936
  787MOL0     C 8534   4.267   6.193   5.606 -0.0124  0.6093  0.7607
  787MOL0     C 8535   4.401   6.189   5.564  1.2094 -0.1419  0.4999
  787MOL0     C 8536   4.434   6.268   5.435  0.0708 -0.6930  0.2010
  787MOL0     H 8537   4.921   6.286   5.767  0.2343  0.2964 -1.5820
  787MOL0     H 8538   5.147   6.266   5.696 -3.2684  1.4601  2.3794
  787MOL0     H 8539   5.323   5.853   5.526 -0.1117  0.0939  0.1354
  787MOL0     H 8540   5.312   5.896   5.698 -0.9730  4.5491  1.4000
  787MOL0     H 8541   5.493   6.025   5.487  1.8337 -0.4282  0.2061
  787MOL0     H 8542   5.516   6.035   5.664 -0.1140  0.5307  0.4271
  787MOL0     H 8543   5.561   5.809   5.674 -2.8702 -1.1191 -0.8843
  787MOL0     H 8544   5.536   5.761   5.507 -0.6094  0.1266 -0.2885
  787MOL0     H 8545   5.703   5.956   5.447  2.2735  0.0589  0.0857
  787MOL0     H 8546   5.752   5.945   5.622  1.9384  1.0726 -0.3851
  787MOL0     H 8547   5.773   5.707   5.430  2.3430  0.3760 -1.3746
  787MOL0     H 8548   5.842   5.718   5.589 -0.4115 -1.9635 -0.8363
  787MOL0     H 8549   5.942   5.908   5.374 -1.0250  0.6633  0.7058
  787MOL0     H 8550   5.992   5.901   5.536 -2.4241  1.0121 -0.6522
  787MOL0     H 8551   5.995   5.648   5.373 -1.7207  1.4141 -0.4135
  787MOL0     H 8552   6.056   5.674   5.534 -1.0561  0.1489  0.2087
  787MOL0     H 8553   6.148   5.826   5.285 -3.9665 -3.1609 -1.4783
  787MOL0     H 8554   6.211   5.844   5.457 -3.9608  0.7999  1.3038
  787MOL0     H 8555   6.308   5.680   5.131 -1.9104  0.4149  0.9436
  787MOL0     H 8556   6.506   5.417   5.136 -0.0411  2.3990  1.8065
  787MOL0     H 8557   6.358   5.444   5.049 -0.9140  0.9286  0.8721
  787MOL0     H 8558   6.404   5.222   5.266 -1.8089 -0.7684  0.1060
  787MOL0     H 8559   6.250   5.260   5.201  0.4897  0.0248  0.1474
  787MOL0     H 8560   6.323   5.192   4.965  6.4889  0.1281 -2.4890
  787MOL0     H 8561   6.467   5.132   5.042  0.4725  0.5880  1.4660
  787MOL0     H 8562   6.353   4.968   5.163  0.7888 -0.0117 -0.6837
  787MOL0     H 8563   6.203   5.062   5.169 -1.6303 -0.7338 -1.2030
  787MOL0     H 8564   6.117   4.780   4.844 -0.9813 -0.9772  1.5025
  787MOL0     H 8565   5.827   4.739   4.681  0.6238 -0.2947 -0.8458
  787MOL0     H 8566   5.775   4.726   4.850  1.7110  0.5167  1.6460
  787MOL0     H 8567   5.922   4.643   4.813 -0.7385 -0.8062  3.3199
  787MOL0     H 8568   5.445   5.131   5.034  1.3183 -0.4997 -0.7911
  787MOL0     H 8569   5.206   5.047   5.083  2.7668  0.2711  1.4151
  787MOL0     H 8570   5.110   4.676   4.924 -3.6936 -3.2255 -0.2713
  787MOL0     H 8571   4.949   4.731   4.967  1.8987 -2.6726  0.5129
  787MOL0     H 8572   5.051   4.765   4.683  0.5830 -0.1508  0.7585
  787MOL0     H 8573   4.932   4.647   4.756 -0.6960  0.2757  1.6256
  787MOL0     H 8574   4.791   4.853   4.827  0.5762  0.3427  0.7007
  787MOL0     H 8575   4.795   4.796   4.657  0.1347 -1.6472  0.7489
  787MOL0     H 8576   5.003   4.981   4.643 -0.1624  0.1597 -1.0141
  787MOL0     H 8577   4.927   5.050   4.783 -3.2752 -0.2943  0.0571
  787MOL0     H 8578   4.844   5.138   4.568 -0.4371 -0.0957  0.2152
  787MOL0     H 8579   4.767   4.983   4.532 -1.9139 -0.0767 -0.6773
  787MOL0     H 8580   4.675   5.152   4.772  0.0838  3.1381 -1.7729
  787MOL0     H 8581   4.609   4.991   4.727 -1.4422  0.9838  0.7841
  787MOL0     H 8582   4.551   5.090   4.509  1.3357 -0.0151 -0.5007
  787MOL0     H 8583   4.616   5.253   4.548 -0.5188  0.1005  0.4335
  787MOL0     H 8584   4.476   5.259   4.736 -1.3617  1.2383 -0.9700
  787MOL0     H 8585   4.398   5.098   4.682  4.4992 -2.2799 -1.0500
  787MOL0     H 8586   5.258   4.770   4.752  1.8385 -1.8541  1.9787
  787MOL0     H 8587   5.473   4.845   4.716  1.3719  2.4510 -1.1231
  787MOL0     H 8588   5.836   5.164   4.927  0.5784 -0.9258  1.1950
  787MOL0     H 8589   6.073   5.165   5.018 -0.1793  1.3241 -2.0181
  787MOL0     H 8590   5.071   5.867   5.544  1.2635 -0.1976  0.3344
  787MOL0     H 8591   4.845   5.888   5.607  2.3437 -1.0307 -2.4315
  787MOL0     H 8592   4.520   5.998   5.813  0.0963  1.0576  2.0007
  787MOL0     H 8593   4.296   6.001   5.883  1.8646  2.2190  2.2704
  787MOL0     H 8594   4.005   6.112   5.567  0.0557 -1.1801 -1.6008
  787MOL0     H 8595   4.022   5.943   5.640 -1.6296 -0.2938  1.1370
  787MOL0     H 8596   3.830   6.152   5.705 -0.4774  0.2196 -0.8672
  787MOL0     H 8597   3.861   6.018   5.816 -0.1201  2.5247  0.8056
  787MOL0     H 8598   3.699   6.049   5.578  0.5101  0.1937 -1.4833
  787MOL0     H 8599   3.814   5.925   5.539 -2.8982 -2.8424 -0.3629
  787MOL0     H 8600   3.770   5.791   5.742 -0.1849 -2.1865 -2.8607
  787MOL0     H 8601   3.648   5.819   5.614 -0.6334  0.8235  0.0674
  787MOL0     H 8602   3.498   5.960   6.011 -1.7380 -1.5434  0.3448
  787MOL0     H 8603   4.201   6.256   5.548 -3.1084 -0.8433  2.4501
  787MOL0     H 8604   4.487   6.361   5.458 -3.9558  2.2167 -1.0651
  787MOL0     H 8605   4.492   6.218   5.357 -0.0150  0.2708 -0.5047
  787MOL0     H 8606   4.354   6.298   5.367  4.2445  0.7508 -4.7295
  788MOL0     O 8607   3.681   5.838   7.899 -0.0901  0.0173 -0.3864
  788MOL0     C 8608   3.795   5.786   7.890 -0.1411  0.0669  0.8244
  788MOL0     O 8609   3.833   5.669   7.957  0.0876 -0.2103  0.6621
  788MOL0     C 8610   3.755   5.588   8.032 -0.7473 -0.2872  0.6159
  788MOL0     C 8611   3.799   5.551   8.160 -0.0439 -0.6869  0.0921
  788MOL0     C 8612   3.726   5.471   8.247 -0.0001  0.5747 -0.1070
  788MOL0     C 8613   3.602   5.417   8.203 -0.3911  0.0964  0.1906
  788MOL0     O 8614   3.514   5.347   8.278  0.3517  0.8161 -0.7902
  788MOL0     C 8615   3.515   5.338   8.426  0.1781 -0.3311  0.8755
  788MOL0     C 8616   3.469   5.465   8.490 -0.1766 -0.0364  0.1410
  788MOL0     C 8617   3.328   5.508   8.468 -0.0567 -0.1438 -0.2449
  788MOL0     C 8618   3.219   5.400   8.517 -0.0756 -0.0416  0.2085
  788MOL0     C 8619   3.089   5.414   8.430  0.9148  0.1017  0.4802
  788MOL0     C 8620   2.979   5.321   8.475 -0.2558  1.3824  1.0074
  788MOL0     C 8621   2.913   5.362   8.609 -1.0420 -0.8444  0.7603
  788MOL0     C 8622   2.835   5.246   8.679  0.4978  0.3537  0.3981
  788MOL0     N 8623   2.870   5.105   8.686  0.0240  1.0740 -0.1873
  788MOL0     C 8624   2.848   5.033   8.800  0.4283 -0.0644 -0.2458
  788MOL0     C 8625   2.855   4.899   8.763 -0.3671 -0.0318  0.9780
  788MOL0     C 8626   2.867   4.791   8.861 -0.1093  0.6723 -0.5113
  788MOL0     C 8627   2.752   4.774   8.948 -0.3497  0.3443  0.0363
  788MOL0     C 8628   2.786   4.688   9.067 -0.3406 -0.1434 -0.6052
  788MOL0     C 8629   2.688   4.710   9.181  0.2248 -0.2222  0.6628
  788MOL0     O 8630   2.669   4.601   9.258 -0.2677  0.2231 -0.6071
  788MOL0     C 8631   2.589   4.496   9.219  1.1190 -0.1457  0.3895
  788MOL0     C 8632   2.564   4.400   9.315  0.3477  0.4664  0.0315
  788MOL0     C 8633   2.467   4.299   9.309  0.3361 -0.7906 -0.4079
  788MOL0     C 8634   2.417   4.235   9.431 -0.4563 -0.5847  0.4096
  788MOL0     C 8635   2.427   4.261   9.178 -0.0387 -0.4758  1.0337
  788MOL0     C 8636   2.328   4.149   9.143  0.2685  0.1005  0.2736
  788MOL0     O 8637   2.276   4.082   9.246 -0.2527  1.0851 -0.3623
  788MOL0     C 8638   2.188   3.982   9.244 -0.6284  0.5970  0.0348
  788MOL0     C 8639   2.082   3.974   9.152 -0.2366  0.1752 -1.7541
  788MOL0     C 8640   1.981   3.883   9.165 -0.0446  0.7244  0.6281
  788MOL0     C 8641   1.980   3.793   9.271  0.8415 -0.9347  0.6153
  788MOL0     O 8642   1.885   3.687   9.286 -0.5353 -0.7167 -0.5531
  788MOL0     C 8643   1.745   3.710   9.248 -0.3201  0.5128 -0.0982
  788MOL0     C 8644   1.690   3.615   9.142  0.1116 -0.6779  0.0440
  788MOL0     C 8645   1.720   3.471   9.169  0.2527  0.0513 -0.3216
  788MOL0     C 8646   1.672   3.382   9.051  0.4530 -0.2435  0.7590
  788MOL0     C 8647   1.684   3.230   9.070  0.4179  0.5178 -0.0274
  788MOL0     C 8648   1.604   3.154   8.968  0.1613  0.3519 -0.3374
  788MOL0     C 8649   1.604   3.003   8.991  0.3927  0.3624 -0.4452
  788MOL0     C 8650   1.482   2.958   9.074  0.3988  0.3791  0.7151
  788MOL0    Cl 8651   1.483   2.778   9.096  0.1886  0.5579 -0.9189
  788MOL0     C 8652   2.094   3.791   9.358  1.1125  0.2663 -0.4112
  788MOL0     C 8653   2.195   3.891   9.354  0.6220  0.0089  0.9226
  788MOL0     O 8654   2.308   4.127   9.021  0.1360 -0.9509 -0.6724
  788MOL0     C 8655   2.454   4.363   9.078  0.7529 -1.1775  0.9451
  788MOL0     C 8656   2.525   4.474   9.095  0.1442 -1.0024  0.6791
  788MOL0     N 8657   2.885   4.899   8.626 -0.5024  0.3199  0.9750
  788MOL0     N 8658   2.890   5.023   8.577 -0.4397 -0.5486  0.1796
  788MOL0     C 8659   3.566   5.445   8.074  0.1443 -0.1863 -0.5715
  788MOL0     C 8660   3.635   5.519   7.981 -1.1782 -0.2201 -0.3181
  788MOL0     C 8661   3.901   5.870   7.817  1.1802 -0.8471  0.5431
  788MOL0     C 8662   3.875   6.007   7.817 -0.3963  0.2370 -0.9687
  788MOL0     C 8663   3.944   6.096   7.737 -0.0852 -0.7699 -0.7916
  788MOL0     C 8664   4.058   6.053   7.667 -0.7976 -0.2153  0.3168
  788MOL0     O 8665   4.134   6.139   7.590 -0.1781  0.6582  0.4668
  788MOL0     C 8666   4.194   6.096   7.468 -0.9463  0.0725  0.5755
  788MOL0     C 8667   4.348   6.069   7.480  0.3362  0.9273 -0.4399
  788MOL0     C 8668   4.401   6.000   7.354  0.1732  0.3456  0.9281
  788MOL0     C 8669   4.549   6.040   7.352 -0.0838  0.3025  0.1964
  788MOL0     C 8670   4.627   5.993   7.462  0.8632 -0.0821  0.0825
  788MOL0     C 8671   4.685   5.944   7.559 -0.4467  0.1076 -0.4298
  788MOL0     C 8672   4.096   5.917   7.688  0.1711 -0.5073  0.1501
  788MOL0     C 8673   4.022   5.823   7.751  0.1497  0.2407  0.5173
  788MOL0     C 8674   4.083   5.693   7.771  0.2540  0.3212 -0.1031
  788MOL0     H 8675   3.880   5.607   8.204 -1.7689  2.2005 -0.1576
  788MOL0     H 8676   3.771   5.460   8.345  0.7311 -2.1636 -0.6729
  788MOL0     H 8677   3.612   5.309   8.467  1.0325 -0.2611 -0.9841
  788MOL0     H 8678   3.447   5.256   8.449 -0.7189 -0.6299 -2.2976
  788MOL0     H 8679   3.481   5.452   8.597 -1.0061  1.7280  0.4974
  788MOL0     H 8680   3.537   5.548   8.469  0.4518  0.1279  2.5541
  788MOL0     H 8681   3.312   5.609   8.507  3.4284  0.5755 -0.3635
  788MOL0     H 8682   3.315   5.513   8.359  0.6185  1.0827 -0.2926
  788MOL0     H 8683   3.255   5.297   8.515  0.4315  0.1416 -0.5216
  788MOL0     H 8684   3.196   5.415   8.623  1.4691 -3.2516  1.1310
  788MOL0     H 8685   3.117   5.391   8.327 -1.2173 -0.4888 -0.0120
  788MOL0     H 8686   3.056   5.518   8.420  1.5042  0.0580 -2.8611
  788MOL0     H 8687   2.904   5.308   8.397  0.0719  2.4834  0.4897
  788MOL0     H 8688   3.031   5.226   8.493 -1.7606  0.0903 -1.1282
  788MOL0     H 8689   2.845   5.445   8.590  1.1474  0.2863 -3.3423
  788MOL0     H 8690   2.992   5.410   8.666  2.8559 -1.9322 -3.1544
  788MOL0     H 8691   2.805   5.282   8.778 -1.7689  1.1007 -0.4821
  788MOL0     H 8692   2.745   5.249   8.617  2.0721  1.3672 -2.0220
  788MOL0     H 8693   2.831   5.065   8.902  0.7061 -1.0868  0.1301
  788MOL0     H 8694   2.957   4.824   8.915  2.4580 -0.7691 -3.5256
  788MOL0     H 8695   2.892   4.695   8.814 -0.8673  0.2713 -0.1135
  788MOL0     H 8696   2.702   4.870   8.964 -0.1441  0.2876  1.0892
  788MOL0     H 8697   2.677   4.715   8.896  0.4853 -1.6300  0.9839
  788MOL0     H 8698   2.776   4.586   9.028 -1.5006 -0.4137  0.3394
  788MOL0     H 8699   2.888   4.702   9.105  0.7417 -2.7776 -2.2716
  788MOL0     H 8700   2.724   4.790   9.247  0.1671  0.1244  0.2789
  788MOL0     H 8701   2.591   4.735   9.138  0.7503  2.1489  0.7176
  788MOL0     H 8702   2.608   4.424   9.411  0.7257 -0.0342 -0.0118
  788MOL0     H 8703   2.311   4.258   9.450 -0.7541 -0.8023 -0.8792
  788MOL0     H 8704   2.475   4.273   9.516  1.9452 -2.1909 -0.4255
  788MOL0     H 8705   2.430   4.127   9.423  2.3066 -0.3047  0.2067
  788MOL0     H 8706   2.076   4.029   9.058 -0.8248 -1.2517 -2.5889
  788MOL0     H 8707   1.900   3.880   9.093  1.7599  3.2765 -1.7043
  788MOL0     H 8708   1.694   3.689   9.342  1.6256 -1.4107  0.6089
  788MOL0     H 8709   1.728   3.816   9.224  1.7540  0.4356 -2.3187
  788MOL0     H 8710   1.582   3.636   9.146  0.5073  2.8214 -2.6522
  788MOL0     H 8711   1.727   3.644   9.044 -2.5770 -1.1962 -1.2199
  788MOL0     H 8712   1.674   3.429   9.258  0.2366 -1.0785 -0.8519
  788MOL0     H 8713   1.828   3.463   9.182  0.6662  2.7542 -1.3502
  788MOL0     H 8714   1.739   3.415   8.971 -0.8449  3.8739  1.1348
  788MOL0     H 8715   1.569   3.412   9.028  0.6144  0.0840  0.4450
  788MOL0     H 8716   1.788   3.198   9.059  0.4287  0.2456  0.7477
  788MOL0     H 8717   1.649   3.209   9.172  1.0611 -1.7882 -0.2196
  788MOL0     H 8718   1.643   3.165   8.867 -1.1317 -0.2358 -0.9285
  788MOL0     H 8719   1.501   3.191   8.971  0.3327  1.0893 -2.3443
  788MOL0     H 8720   1.693   2.968   9.044 -1.9956 -4.0155  1.2268
  788MOL0     H 8721   1.599   2.960   8.890  0.8759  0.7541 -0.6442
  788MOL0     H 8722   1.386   2.992   9.036 -0.3757 -0.4452  1.8685
  788MOL0     H 8723   1.492   2.998   9.175  1.8913 -2.0066  1.6027
  788MOL0     H 8724   2.091   3.723   9.443  0.6465  2.3347  1.3080
  788MOL0     H 8725   2.271   3.906   9.430  0.5940 -0.2792  1.0130
  788MOL0     H 8726   2.422   4.336   8.978 -0.3822 -2.7291  1.6766
  788MOL0     H 8727   2.542   4.538   9.010  2.4675 -1.6021  0.6290
  788MOL0     H 8728   3.466   5.408   8.055  0.3655 -2.4433  2.0042
  788MOL0     H 8729   3.598   5.522   7.879 -2.1354 -2.0389 -0.0628
  788MOL0     H 8730   3.796   6.050   7.878 -0.8450 -1.4275 -0.3129
  788MOL0     H 8731   3.902   6.196   7.743 -1.5440 -1.3685 -0.8178
  788MOL0     H 8732   4.144   6.007   7.428  1.1735 -0.7001 -0.5391
  788MOL0     H 8733   4.174   6.164   7.385 -0.6561 -0.8079 -0.2357
  788MOL0     H 8734   4.372   6.018   7.573 -1.9416  1.5580  0.5581
  788MOL0     H 8735   4.384   6.170   7.500 -0.7990  1.0997  0.9040
  788MOL0     H 8736   4.387   5.892   7.352  0.1845  0.3543  0.1189
  788MOL0     H 8737   4.356   6.036   7.261 -1.6153 -1.0208  1.2208
  788MOL0     H 8738   4.560   6.149   7.346 -2.1026  0.4889 -0.8595
  788MOL0     H 8739   4.602   6.000   7.265  1.1015 -0.5118  1.2481
  788MOL0     H 8740   4.733   5.918   7.651 -1.3725 -0.3524 -0.0617
  788MOL0     H 8741   4.199   5.885   7.669  0.0665 -0.2841 -0.8714
  788MOL0     H 8742   4.124   5.692   7.872  0.7961 -2.3007 -0.2838
  788MOL0     H 8743   4.014   5.609   7.781 -0.3658  0.8868  0.5246
  788MOL0     H 8744   4.144   5.674   7.682 -3.2997 -0.6491 -2.5376
  789MOL0     O 8745   9.630   3.088   9.356 -0.9952 -0.8454 -0.3155
  789MOL0     C 8746   9.561   3.160   9.432  0.0693 -0.0720 -0.3489
  789MOL0     O 8747   9.586   3.288   9.470 -0.9481  0.3832 -0.1880
  789MOL0     C 8748   9.697   3.346   9.413 -0.1790  0.0880  0.5387
  789MOL0     C 8749   9.679   3.471   9.362 -0.0217  0.4999  0.9666
  789MOL0     C 8750   9.798   3.545   9.320  0.5707  0.1846 -1.1965
  789MOL0     C 8751   9.932   3.498   9.336  0.2403  0.8386  0.5123
  789MOL0     O 8752  10.016   3.586   9.294  0.1069 -0.1611 -0.3448
  789MOL0     C 8753  10.155   3.568   9.327  0.1608 -0.2775  0.0036
  789MOL0     C 8754  10.181   3.591   9.473 -0.2962 -0.4205  0.2639
  789MOL0     C 8755  10.336   3.566   9.497 -0.7548 -0.4371  1.2975
  789MOL0     C 8756  10.384   3.619   9.629  1.1889  0.1760  0.1751
  789MOL0     C 8757  10.494   3.542   9.688 -0.7473 -0.1883  0.0138
  789MOL0     C 8758  10.542   3.600   9.831  0.6066 -1.3932  0.0933
  789MOL0     C 8759  10.661   3.512   9.892  0.1888  0.3316  0.0705
  789MOL0     C 8760  10.686   3.546  10.035 -0.7479 -0.4648 -0.5285
  789MOL0     N 8761  10.815   3.509  10.098  0.4912  0.0079 -0.0368
  789MOL0     C 8762  10.886   3.584  10.190 -0.1383 -0.1721 -0.3624
  789MOL0     C 8763  10.983   3.502  10.243  0.5202 -0.6407  0.5641
  789MOL0     C 8764  11.085   3.550  10.334 -1.1624 -0.1090 -0.0812
  789MOL0     C 8765  11.121   3.451  10.442 -0.2989  0.1628 -0.7071
  789MOL0     C 8766  11.249   3.483  10.518 -0.4485  0.0419 -0.4231
  789MOL0     C 8767  11.255   3.406  10.653 -0.6084 -0.6440  0.4042
  789MOL0     O 8768  11.220   3.269  10.641 -0.1640 -0.2344 -0.4733
  789MOL0     C 8769  11.141   3.224  10.743 -0.1112  0.2960  0.3086
  789MOL0     C 8770  11.154   3.251  10.875  0.2506 -0.3184 -0.2358
  789MOL0     C 8771  11.068   3.198  10.974 -0.5657  0.4313 -0.0725
  789MOL0     C 8772  11.104   3.228  11.116 -0.6955 -0.1367  0.1865
  789MOL0     C 8773  10.961   3.109  10.936 -0.3512 -0.3266 -0.1344
  789MOL0     C 8774  10.876   3.024  11.025 -0.4829 -0.0509 -0.5241
  789MOL0     O 8775  10.795   2.936  10.959  0.1322 -0.4262  1.1777
  789MOL0     C 8776  10.716   2.844  11.020  0.2145  0.3148 -0.7070
  789MOL0     C 8777  10.735   2.706  11.024 -0.5821  0.8675  0.5627
  789MOL0     C 8778  10.670   2.623  11.116  0.5587  0.1935  0.6611
  789MOL0     C 8779  10.561   2.670  11.182  0.8159 -0.4694 -0.7819
  789MOL0     O 8780  10.488   2.575  11.250 -0.3241 -1.0387  0.7794
  789MOL0     C 8781  10.389   2.614  11.344  0.0337 -1.2402  0.5968
  789MOL0     C 8782  10.291   2.505  11.388  0.1526 -0.0846 -0.4033
  789MOL0     C 8783  10.370   2.392  11.453 -0.3624  0.0417  0.1635
  789MOL0     C 8784  10.261   2.303  11.520 -0.5550  0.1388 -0.0002
  789MOL0     C 8785  10.324   2.165  11.542 -0.9701  0.3196 -0.1143
  789MOL0     C 8786  10.261   2.077  11.655  0.5490 -0.1030 -0.3879
  789MOL0     C 8787  10.316   1.935  11.644 -0.3965 -0.0143  0.9560
  789MOL0     C 8788  10.433   1.920  11.749  0.1850 -0.1136 -1.0637
  789MOL0    Cl 8789  10.366   1.910  11.905  0.4036 -0.0177 -0.2061
  789MOL0     C 8790  10.532   2.812  11.174  0.7040 -0.1157 -0.2231
  789MOL0     C 8791  10.612   2.892  11.096 -1.3369  0.0655  0.1756
  789MOL0     O 8792  10.884   3.033  11.146  0.3347  0.8007 -0.1551
  789MOL0     C 8793  10.939   3.095  10.799 -0.6364 -0.8629  0.5550
  789MOL0     C 8794  11.032   3.144  10.704 -0.0239  0.4128  0.2262
  789MOL0     N 8795  10.975   3.375  10.180  0.7674 -0.3852  0.6294
  789MOL0     N 8796  10.875   3.376  10.092  0.1050 -0.0398  0.6554
  789MOL0     C 8797   9.948   3.377   9.395  1.5368 -0.1727 -0.2492
  789MOL0     C 8798   9.831   3.301   9.436 -0.6429 -0.3734  0.5441
  789MOL0     C 8799   9.434   3.108   9.490 -0.1478  0.8486 -0.2707
  789MOL0     C 8800   9.400   3.158   9.618  0.1133 -0.5924  0.7194
  789MOL0     C 8801   9.281   3.114   9.684  1.6843  0.7314 -0.1544
  789MOL0     C 8802   9.197   3.007   9.632  0.3981 -0.8001 -0.2098
  789MOL0     O 8803   9.094   2.961   9.707 -0.5254 -0.0814 -0.4561
  789MOL0     C 8804   9.028   2.846   9.668 -0.4505  0.4428 -0.5782
  789MOL0     C 8805   8.912   2.806   9.769  0.0399  0.6830 -0.2543
  789MOL0     C 8806   8.807   2.922   9.792 -0.2036 -0.1682 -0.0599
  789MOL0     C 8807   8.737   2.958   9.661  0.4253 -0.0639  0.1934
  789MOL0     C 8808   8.631   3.060   9.676 -0.2062 -0.2397  0.8627
  789MOL0     C 8809   8.547   3.146   9.679 -0.0889 -0.2242 -0.3638
  789MOL0     C 8810   9.232   2.963   9.501  0.4189 -0.2866 -0.3940
  789MOL0     C 8811   9.347   3.010   9.435 -0.1233  0.4813  0.5099
  789MOL0     C 8812   9.363   2.955   9.291  1.4339  0.3208 -1.0091
  789MOL0     H 8813   9.572   3.482   9.342 -1.3024 -3.7441  3.9288
  789MOL0     H 8814   9.793   3.641   9.269 -1.1904 -0.3053 -2.0291
  789MOL0     H 8815  10.208   3.654   9.285  1.6377 -0.8666  0.5904
  789MOL0     H 8816  10.193   3.468   9.303 -4.1816 -1.6411 -2.2171
  789MOL0     H 8817  10.158   3.694   9.503 -2.2043 -0.2583 -1.5455
  789MOL0     H 8818  10.120   3.521   9.530  0.4505 -1.9808 -0.7648
  789MOL0     H 8819  10.353   3.458   9.500 -1.3953 -0.5704  0.4463
  789MOL0     H 8820  10.396   3.611   9.418 -1.0432  1.5493  2.1555
  789MOL0     H 8821  10.392   3.728   9.620 -0.9362  0.5128  1.6003
  789MOL0     H 8822  10.303   3.602   9.701  0.6725  2.6071  0.2644
  789MOL0     H 8823  10.584   3.558   9.628  0.5714 -4.5910  0.4556
  789MOL0     H 8824  10.473   3.435   9.688  0.7198 -0.4992  1.2629
  789MOL0     H 8825  10.582   3.702   9.834  3.3388 -2.4346  1.7407
  789MOL0     H 8826  10.452   3.597   9.893  0.8339 -0.7912  0.4680
  789MOL0     H 8827  10.750   3.536   9.834  0.3765  2.4021  1.1120
  789MOL0     H 8828  10.646   3.405   9.881 -0.5397  0.4284  0.0623
  789MOL0     H 8829  10.686   3.656  10.037 -2.3676 -0.4138  2.2069
  789MOL0     H 8830  10.608   3.518  10.106  1.4121 -1.9331  1.4158
  789MOL0     H 8831  10.876   3.688  10.217  1.2584 -0.6659  2.5457
  789MOL0     H 8832  11.038   3.638  10.380 -1.6026  0.2999 -1.2737
  789MOL0     H 8833  11.181   3.583  10.294  0.5192 -2.2669  1.9226
  789MOL0     H 8834  11.038   3.455  10.514  0.5682  2.5567  0.2640
  789MOL0     H 8835  11.138   3.353  10.398  0.7918 -0.4223  0.9217
  789MOL0     H 8836  11.337   3.459  10.458  0.5527 -0.6317  1.2304
  789MOL0     H 8837  11.242   3.589  10.545 -2.2067  0.0118 -0.6678
  789MOL0     H 8838  11.359   3.410  10.688 -0.6603 -1.4913  0.6697
  789MOL0     H 8839  11.186   3.466  10.714 -1.2538 -0.4897 -0.4653
  789MOL0     H 8840  11.233   3.317  10.908 -1.5342  0.7688  2.2122
  789MOL0     H 8841  11.174   3.312  11.116 -0.3392 -0.4253  1.2965
  789MOL0     H 8842  11.153   3.143  11.165  2.5803  2.2245  1.3653
  789MOL0     H 8843  11.017   3.260  11.173 -1.2024 -0.2578 -0.5135
  789MOL0     H 8844  10.807   2.655  10.960 -2.0353 -1.7122  0.8482
  789MOL0     H 8845  10.692   2.517  11.118 -1.9738 -0.3939  2.2075
  789MOL0     H 8846  10.433   2.653  11.436  0.3017 -0.9474  0.3478
  789MOL0     H 8847  10.328   2.691  11.296 -1.5839 -3.1274 -0.5073
  789MOL0     H 8848  10.226   2.553  11.461 -0.0454  0.1616 -0.7396
  789MOL0     H 8849  10.232   2.473  11.301 -0.0890 -1.2603  0.1688
  789MOL0     H 8850  10.439   2.423  11.532 -0.4701  0.1652  0.2091
  789MOL0     H 8851  10.423   2.340  11.373  1.5485  1.4729  0.4403
  789MOL0     H 8852  10.168   2.298  11.463 -2.3318 -1.2535  2.7928
  789MOL0     H 8853  10.232   2.345  11.617 -1.2183  1.1324 -0.6105
  789MOL0     H 8854  10.331   2.113  11.446  0.2473 -3.6137  1.9279
  789MOL0     H 8855  10.431   2.187  11.550 -0.6636 -0.9244 -0.5467
  789MOL0     H 8856  10.153   2.078  11.646  0.3945  1.7509  1.0905
  789MOL0     H 8857  10.295   2.127  11.747  0.2173 -1.1520  0.3281
  789MOL0     H 8858  10.365   1.912  11.548  1.3383  0.7775  1.6066
  789MOL0     H 8859  10.239   1.858  11.657 -1.5555  0.7492 -1.0035
  789MOL0     H 8860  10.501   2.003  11.728  0.6395 -0.8234 -2.5028
  789MOL0     H 8861  10.477   1.822  11.729 -1.3592 -1.1148  0.1387
  789MOL0     H 8862  10.451   2.858  11.229  0.8922 -0.2959  0.2085
  789MOL0     H 8863  10.593   2.998  11.101 -3.5270 -0.3033  0.7393
  789MOL0     H 8864  10.852   3.046  10.755 -2.4750  1.4811  1.3520
  789MOL0     H 8865  11.017   3.130  10.597  0.5453 -0.0317  0.1948
  789MOL0     H 8866  10.051   3.342   9.400  2.4829  2.4711  0.4602
  789MOL0     H 8867   9.846   3.209   9.491 -0.0800 -0.5319  0.1335
  789MOL0     H 8868   9.458   3.239   9.660  2.4373 -1.0160 -1.4587
  789MOL0     H 8869   9.237   3.160   9.772 -1.4282 -1.4864 -0.3797
  789MOL0     H 8870   8.999   2.847   9.562  2.2373  0.6337 -1.3860
  789MOL0     H 8871   9.092   2.759   9.651 -1.6838 -0.4822 -0.6053
  789MOL0     H 8872   8.962   2.772   9.860 -1.2697 -4.0840 -1.0278
  789MOL0     H 8873   8.864   2.716   9.729 -1.3264  1.1385  0.3172
  789MOL0     H 8874   8.738   2.906   9.875 -0.9310 -0.5045 -0.7137
  789MOL0     H 8875   8.862   3.012   9.820 -2.3787  1.1411  0.2648
  789MOL0     H 8876   8.692   2.864   9.628  1.0294 -0.6533  1.0234
  789MOL0     H 8877   8.809   2.988   9.584 -2.0127 -0.6859 -2.5525
  789MOL0     H 8878   8.483   3.230   9.695  2.4366  1.1676  4.0372
  789MOL0     H 8879   9.174   2.887   9.449  2.4104 -0.5151 -2.4269
  789MOL0     H 8880   9.303   2.865   9.275  0.3155  0.4100  1.9667
  789MOL0     H 8881   9.342   3.032   9.217 -0.0763  2.2710  1.2921
  789MOL0     H 8882   9.465   2.926   9.266  1.4600  1.0899 -1.8411
  790MOL0     O 8883   4.382   6.446  11.524  0.5726  0.0729 -0.0464
  790MOL0     C 8884   4.350   6.564  11.515 -0.2220  0.2729  0.3598
  790MOL0     O 8885   4.314   6.628  11.396 -0.7109 -0.2824  0.0653
  790MOL0     C 8886   4.305   6.571  11.270  0.4203 -0.4959  0.5974
  790MOL0     C 8887   4.347   6.439  11.235  0.3030  0.4588  0.5125
  790MOL0     C 8888   4.351   6.399  11.098 -0.3898  0.3139  0.2431
  790MOL0     C 8889   4.310   6.490  10.995 -0.2261  0.3219  0.3077
  790MOL0     O 8890   4.321   6.438  10.870  0.4769  0.1831  0.2989
  790MOL0     C 8891   4.231   6.488  10.769  0.2567 -0.2379 -0.0533
  790MOL0     C 8892   4.206   6.403  10.643  0.8371  0.7170 -0.7070
  790MOL0     C 8893   4.134   6.281  10.697 -1.3208 -0.4775  0.3267
  790MOL0     C 8894   4.036   6.238  10.582 -0.7614 -0.1388  0.1939
  790MOL0     C 8895   3.899   6.232  10.629  0.7053 -0.7612  0.0739
  790MOL0     C 8896   3.801   6.188  10.513  1.1905 -0.2301  0.0351
  790MOL0     C 8897   3.657   6.205  10.574 -0.0264  0.3492  0.6739
  790MOL0     C 8898   3.611   6.076  10.635 -0.0610  1.1297  0.4102
  790MOL0     N 8899   3.582   5.971  10.531 -0.3423  0.1014 -0.1579
  790MOL0     C 8900   3.649   5.860  10.514 -0.4471  0.2876  0.5333
  790MOL0     C 8901   3.568   5.779  10.445  0.4018 -0.8450 -0.0183
  790MOL0     C 8902   3.596   5.638  10.401 -0.5387  0.6998  1.0241
  790MOL0     C 8903   3.564   5.526  10.509 -0.2454 -0.7396  0.8914
  790MOL0     C 8904   3.433   5.541  10.578 -0.1522  0.4120  0.2045
  790MOL0     C 8905   3.322   5.472  10.493 -0.2756 -0.1055 -0.0286
  790MOL0     O 8906   3.230   5.419  10.594  0.0758 -1.1250  0.0968
  790MOL0     C 8907   3.134   5.496  10.653 -0.3588 -0.6503  0.2946
  790MOL0     C 8908   3.118   5.636  10.629  0.0838  1.5650  0.6129
  790MOL0     C 8909   3.006   5.707  10.685  0.5027  0.0433  0.8498
  790MOL0     C 8910   3.000   5.852  10.657  0.0391  0.5275  0.3425
  790MOL0     C 8911   2.914   5.636  10.766 -0.1189  0.1833 -0.3131
  790MOL0     C 8912   2.788   5.700  10.820  0.3497  0.5579 -0.0781
  790MOL0     O 8913   2.761   5.825  10.806  0.2312 -0.6430  0.0172
  790MOL0     C 8914   2.652   5.888  10.849 -0.3690  0.9091  0.0185
  790MOL0     C 8915   2.517   5.834  10.830 -1.2049 -0.0057  0.1198
  790MOL0     C 8916   2.410   5.904  10.894  0.2647  0.7698  0.4607
  790MOL0     C 8917   2.429   6.018  10.965  1.2951 -0.0454 -0.5421
  790MOL0     O 8918   2.314   6.083  11.025  0.2769 -0.0002 -0.2275
  790MOL0     C 8919   2.261   6.198  10.966 -0.1294  0.8932 -0.3281
  790MOL0     C 8920   2.140   6.141  10.890  0.2774  1.0621  0.1832
  790MOL0     C 8921   2.054   6.249  10.819 -0.1136  0.3870 -0.2190
  790MOL0     C 8922   2.124   6.299  10.686  0.3310 -0.4143  0.0789
  790MOL0     C 8923   2.044   6.404  10.611  1.0283 -0.1220  0.0961
  790MOL0     C 8924   2.018   6.536  10.690  0.3720 -0.5274 -0.3894
  790MOL0     C 8925   1.988   6.654  10.596  0.0096 -0.2833 -0.0731
  790MOL0     C 8926   1.881   6.636  10.476 -0.8769 -0.2579  0.1762
  790MOL0    Cl 8927   1.717   6.609  10.551  0.2194 -0.0633 -1.1355
  790MOL0     C 8928   2.559   6.063  10.991 -0.6829  0.1381 -0.3473
  790MOL0     C 8929   2.667   6.000  10.929 -0.3026  0.9658  0.0372
  790MOL0     O 8930   2.719   5.617  10.882 -0.1721  0.1483  0.0565
  790MOL0     C 8931   2.931   5.496  10.783 -0.3276  0.1228 -0.2463
  790MOL0     C 8932   3.040   5.427  10.724  0.4507 -0.2776  0.6706
  790MOL0     N 8933   3.448   5.847  10.416 -0.4236  0.3149  0.3220
  790MOL0     N 8934   3.459   5.961  10.476  0.4771 -0.0811 -0.5660
  790MOL0     C 8935   4.267   6.617  11.036  1.4767 -0.5442 -0.7131
  790MOL0     C 8936   4.261   6.658  11.169  0.0393 -0.8275  0.2016
  790MOL0     C 8937   4.357   6.647  11.644 -0.3927  0.3108 -0.0794
  790MOL0     C 8938   4.318   6.787  11.633 -0.9038 -0.3850 -0.5913
  790MOL0     C 8939   4.283   6.862  11.752  0.8524  0.0780 -0.4573
  790MOL0     C 8940   4.293   6.806  11.881  1.3916 -0.1953 -0.3276
  790MOL0     O 8941   4.263   6.869  12.004 -0.1337 -0.3694  0.3220
  790MOL0     C 8942   4.176   6.983  12.005  0.5342 -0.6254  0.7698
  790MOL0     C 8943   4.225   7.106  12.072 -0.6652 -0.3907 -0.3807
  790MOL0     C 8944   4.322   7.184  11.991  0.8654  1.2896 -0.4699
  790MOL0     C 8945   4.377   7.301  12.071  0.8796 -0.5204 -0.4788
  790MOL0     C 8946   4.506   7.260  12.136  0.1566  0.5344 -0.7526
  790MOL0     C 8947   4.668   7.245  12.233 -0.6660  0.3210 -1.0401
  790MOL0     C 8948   4.340   6.675  11.881  0.6821  0.2237  0.9419
  790MOL0     C 8949   4.373   6.592  11.773 -0.5260  1.0273 -0.5305
  790MOL0     C 8950   4.419   6.445  11.806 -0.3430  0.2505 -0.1982
  790MOL0     H 8951   4.384   6.367  11.308 -1.0397 -1.7417 -0.8716
  790MOL0     H 8952   4.382   6.298  11.071 -1.1686  0.6720 -2.2793
  790MOL0     H 8953   4.277   6.582  10.738  1.1074  0.5187  3.0648
  790MOL0     H 8954   4.134   6.513  10.812  1.0970  2.8542  0.2622
  790MOL0     H 8955   4.147   6.470  10.579  1.2398  4.6782  2.6334
  790MOL0     H 8956   4.290   6.376  10.579 -0.9651  0.9938 -3.3697
  790MOL0     H 8957   4.204   6.202  10.726 -0.4386  0.0646 -0.2455
  790MOL0     H 8958   4.088   6.309  10.792  0.4196 -0.4313  1.1895
  790MOL0     H 8959   4.061   6.297  10.493  1.3380 -1.5084 -0.1908
  790MOL0     H 8960   4.059   6.134  10.556  2.2690  0.5303 -0.2554
  790MOL0     H 8961   3.879   6.330  10.675  2.2004 -0.4930  0.2142
  790MOL0     H 8962   3.887   6.161  10.711  1.1443 -2.2077 -1.0664
  790MOL0     H 8963   3.822   6.266  10.439 -3.7360  4.5213  2.8421
  790MOL0     H 8964   3.819   6.089  10.471  0.7980  0.0964 -0.9330
  790MOL0     H 8965   3.596   6.221  10.485 -0.0905 -0.9853  0.4594
  790MOL0     H 8966   3.648   6.288  10.645 -0.6538 -0.9536  2.1823
  790MOL0     H 8967   3.685   6.027  10.700  0.3298  1.1757  0.0050
  790MOL0     H 8968   3.522   6.090  10.697 -1.5973 -1.0394 -1.1490
  790MOL0     H 8969   3.749   5.832  10.547 -0.0758  2.8252  1.7484
  790MOL0     H 8970   3.695   5.616  10.360 -0.7705  0.3564  0.6457
  790MOL0     H 8971   3.525   5.630  10.319 -0.4655  3.1733  0.6700
  790MOL0     H 8972   3.589   5.422  10.484  1.4531 -0.4498  1.2682
  790MOL0     H 8973   3.634   5.531  10.593  0.8753  1.7929 -0.1104
  790MOL0     H 8974   3.433   5.483  10.672  5.7570 -0.0960  0.2632
  790MOL0     H 8975   3.405   5.646  10.587 -0.5469  0.3989 -0.8061
  790MOL0     H 8976   3.282   5.541  10.419 -1.9253 -1.3747 -0.3770
  790MOL0     H 8977   3.369   5.393  10.433 -1.4912  0.0371 -1.2117
  790MOL0     H 8978   3.189   5.689  10.566  1.9411 -1.0884  0.2570
  790MOL0     H 8979   3.097   5.893  10.630 -0.0909 -0.6413 -2.1644
  790MOL0     H 8980   2.972   5.906  10.748 -3.3296 -0.1114 -0.1627
  790MOL0     H 8981   2.927   5.874  10.579  2.7387  0.4894 -2.3698
  790MOL0     H 8982   2.503   5.749  10.763  0.1324 -0.1422 -0.0189
  790MOL0     H 8983   2.309   5.868  10.878  1.0407 -0.5703 -1.7618
  790MOL0     H 8984   2.252   6.280  11.037  2.0299 -0.9484  2.3256
  790MOL0     H 8985   2.342   6.246  10.910  0.6167  0.1292  0.0528
  790MOL0     H 8986   2.161   6.061  10.819 -2.2322  0.3458  0.1518
  790MOL0     H 8987   2.069   6.100  10.963  0.9391  1.0730  0.8416
  790MOL0     H 8988   2.032   6.332  10.887 -3.6014  0.1410 -0.8664
  790MOL0     H 8989   1.955   6.207  10.797 -1.7747  0.6105  5.3426
  790MOL0     H 8990   2.123   6.211  10.622  0.4407 -1.6709  1.7465
  790MOL0     H 8991   2.224   6.341  10.705  0.2064 -0.1266  0.1067
  790MOL0     H 8992   2.086   6.428  10.513 -2.0480 -1.4646 -1.6779
  790MOL0     H 8993   1.942   6.370  10.590 -0.2100  2.2462  1.8483
  790MOL0     H 8994   2.112   6.565  10.736  0.8446  0.5235 -1.9300
  790MOL0     H 8995   1.939   6.529  10.765  0.0226 -1.9551 -0.8609
  790MOL0     H 8996   2.080   6.673  10.539  1.7776 -1.6057  2.1903
  790MOL0     H 8997   1.969   6.750  10.645  0.8155  0.2818 -0.8093
  790MOL0     H 8998   1.915   6.556  10.409  0.0544  0.3480 -0.1053
  790MOL0     H 8999   1.880   6.723  10.409 -0.9724 -2.0464 -2.2874
  790MOL0     H 9000   2.583   6.140  11.063  2.1904 -1.9193  1.1038
  790MOL0     H 9001   2.771   6.032  10.933 -0.0802  0.6114 -1.8544
  790MOL0     H 9002   2.860   5.425  10.825 -0.2093 -0.0981 -0.4195
  790MOL0     H 9003   3.043   5.319  10.734 -2.0334 -0.3835  0.8986
  790MOL0     H 9004   4.254   6.696  10.962  0.4155 -0.2939 -0.2837
  790MOL0     H 9005   4.246   6.760  11.204  0.0076 -0.3650 -1.0989
  790MOL0     H 9006   4.328   6.832  11.535  1.3698  1.4491  0.3666
  790MOL0     H 9007   4.249   6.962  11.729 -0.1779 -0.4509 -1.3387
  790MOL0     H 9008   4.135   7.016  11.909  0.1094  1.7864  1.7090
  790MOL0     H 9009   4.083   6.941  12.046 -0.1011  0.0295  0.0417
  790MOL0     H 9010   4.272   7.073  12.165  2.2560  0.9399 -1.2741
  790MOL0     H 9011   4.136   7.163  12.100 -1.6381  1.0730 -5.3921
  790MOL0     H 9012   4.393   7.106  11.962 -3.4208 -3.0749 -0.3452
  790MOL0     H 9013   4.281   7.220  11.896 -2.1316  1.3079  0.7135
  790MOL0     H 9014   4.299   7.331  12.140  0.5814 -1.5039 -0.3796
  790MOL0     H 9015   4.392   7.388  12.005 -0.1636 -0.1613 -0.2532
  790MOL0     H 9016   4.763   7.239  12.282 -0.7637  1.9593 -0.5885
  790MOL0     H 9017   4.353   6.636  11.981  1.6677 -3.0274 -0.3141
  790MOL0     H 9018   4.518   6.419  11.768 -1.7321 -3.6719 -1.6924
  790MOL0     H 9019   4.432   6.440  11.915  2.7068  2.1253 -0.3625
  790MOL0     H 9020   4.345   6.369  11.780  0.5994 -0.1140 -1.9762
  791MOL0     O 9021   1.566   2.338   0.622  0.1281 -0.6032 -0.2137
  791MOL0     C 9022   1.689   2.328   0.618 -0.0585 -0.0457 -0.1183
  791MOL0     O 9023   1.773   2.363   0.708  0.1420 -0.0238  0.5125
  791MOL0     C 9024   1.734   2.413   0.827  0.2168  0.8086  0.0924
  791MOL0     C 9025   1.705   2.550   0.821 -0.4316 -0.4647 -0.3076
  791MOL0     C 9026   1.673   2.620   0.935 -0.0406 -0.1639 -0.1705
  791MOL0     C 9027   1.658   2.550   1.058 -0.4613  0.2800 -0.4840
  791MOL0     O 9028   1.628   2.615   1.174 -0.9131  0.1237  0.3438
  791MOL0     C 9029   1.753   2.637   1.250  1.9453  0.2183  0.0638
  791MOL0     C 9030   1.805   2.781   1.236  0.2744  0.6904 -0.0559
  791MOL0     C 9031   1.958   2.779   1.246  0.5356 -0.3010  0.7543
  791MOL0     C 9032   2.018   2.699   1.367 -0.1316 -0.4863  0.1390
  791MOL0     C 9033   2.169   2.712   1.347 -0.2418 -0.8130  0.0034
  791MOL0     C 9034   2.250   2.712   1.479 -0.4917 -0.1848 -0.3348
  791MOL0     C 9035   2.400   2.666   1.456 -0.7092 -0.3301  0.3529
  791MOL0     C 9036   2.404   2.518   1.456  0.2325  0.6912  0.3887
  791MOL0     N 9037   2.547   2.481   1.454  0.1277 -0.2789 -0.1275
  791MOL0     C 9038   2.581   2.351   1.494 -0.5096  0.7587  0.4607
  791MOL0     C 9039   2.710   2.341   1.450 -0.7461 -0.2483  1.2426
  791MOL0     C 9040   2.796   2.214   1.439 -0.4528 -0.9537 -0.1839
  791MOL0     C 9041   2.732   2.115   1.349 -0.2667  0.5297  0.0763
  791MOL0     C 9042   2.767   1.970   1.396 -0.2890 -1.1229  0.1135
  791MOL0     C 9043   2.654   1.874   1.348 -0.9958 -0.1449  0.2322
  791MOL0     O 9044   2.544   1.886   1.433 -0.2691 -0.2151  0.2779
  791MOL0     C 9045   2.427   1.821   1.395  0.6619 -0.6203  0.1298
  791MOL0     C 9046   2.379   1.808   1.266  0.0653 -1.2083 -0.0038
  791MOL0     C 9047   2.261   1.737   1.229 -0.2576  0.9210  0.6963
  791MOL0     C 9048   2.231   1.739   1.085  0.5010  0.4080  0.5899
  791MOL0     C 9049   2.186   1.671   1.332  0.2185  0.7585 -0.0057
  791MOL0     C 9050   2.063   1.583   1.318 -0.6007 -1.0896 -0.4522
  791MOL0     O 9051   1.986   1.556   1.432  0.0655  0.3367 -0.0669
  791MOL0     C 9052   1.871   1.480   1.415  0.2901 -0.2083  0.8629
  791MOL0     C 9053   1.885   1.336   1.426  0.0609  0.8364 -0.0278
  791MOL0     C 9054   1.777   1.253   1.416  0.3336  0.3430 -0.6972
  791MOL0     C 9055   1.649   1.304   1.409 -0.6837 -0.3735  0.5109
  791MOL0     O 9056   1.534   1.225   1.421  0.1114 -0.5882  0.2906
  791MOL0     C 9057   1.529   1.089   1.372 -0.3033 -0.3076  0.0175
  791MOL0     C 9058   1.553   1.084   1.224  0.3487  0.4563  0.0830
  791MOL0     C 9059   1.499   0.951   1.171  0.3433 -0.4902  0.3014
  791MOL0     C 9060   1.566   0.930   1.021 -0.3982  0.5748 -0.1536
  791MOL0     C 9061   1.526   0.792   0.961 -0.5682  0.0425 -0.0102
  791MOL0     C 9062   1.616   0.746   0.840  0.8147 -0.9373  0.3108
  791MOL0     C 9063   1.639   0.841   0.725  0.9404 -0.1016 -0.2383
  791MOL0     C 9064   1.723   0.764   0.619 -0.0076  0.2820 -0.3699
  791MOL0    Cl 9065   1.620   0.637   0.552 -0.1609 -0.0023 -0.1548
  791MOL0     C 9066   1.633   1.443   1.408  0.0755  0.4349 -0.1758
  791MOL0     C 9067   1.740   1.526   1.411 -0.0036  0.0231  0.3714
  791MOL0     O 9068   2.050   1.527   1.213  0.4576  0.1454  0.4139
  791MOL0     C 9069   2.230   1.705   1.470  0.9029 -0.1369 -0.1363
  791MOL0     C 9070   2.346   1.776   1.491 -0.1989  0.1671 -0.8361
  791MOL0     N 9071   2.755   2.465   1.409  0.0544  0.8704  0.6172
  791MOL0     N 9072   2.654   2.538   1.399 -0.3014  0.5729 -0.4111
  791MOL0     C 9073   1.698   2.413   1.063  0.1610  0.5088  0.3005
  791MOL0     C 9074   1.734   2.343   0.953  0.2699 -0.1835 -0.7198
  791MOL0     C 9075   1.746   2.262   0.505  0.3397  0.6860 -1.2855
  791MOL0     C 9076   1.833   2.339   0.428 -0.0674 -0.3040 -0.3240
  791MOL0     C 9077   1.904   2.285   0.316  0.0614  0.2531  0.3429
  791MOL0     C 9078   1.870   2.164   0.268 -1.0325  0.3635  0.2733
  791MOL0     O 9079   1.929   2.112   0.159 -0.1352 -0.1800 -0.2825
  791MOL0     C 9080   2.073   2.119   0.149  1.1953 -0.1462 -0.3432
  791MOL0     C 9081   2.111   2.092  -0.002 -0.2501  0.2756 -0.9547
  791MOL0     C 9082   2.260   2.111  -0.030 -0.5965  0.6676 -0.5215
  791MOL0     C 9083   2.362   1.993   0.019  0.2500  0.0613 -0.3058
  791MOL0     C 9084   2.416   2.008   0.155  0.0440  0.2889  0.5099
  791MOL0     C 9085   2.459   2.045   0.258  0.7057 -0.1762  0.4243
  791MOL0     C 9086   1.763   2.100   0.335  0.3115 -0.5085  1.0267
  791MOL0     C 9087   1.710   2.139   0.454  0.1306 -0.4833 -0.0829
  791MOL0     C 9088   1.604   2.051   0.524  0.2203  0.1809 -0.3502
  791MOL0     H 9089   1.707   2.595   0.723  1.7896 -0.7220 -0.4313
  791MOL0     H 9090   1.653   2.727   0.936  1.2872  0.1573 -2.2997
  791MOL0     H 9091   1.830   2.563   1.227  2.3523 -0.6748  3.6422
  791MOL0     H 9092   1.734   2.615   1.356 -1.9777  2.0329 -0.0855
  791MOL0     H 9093   1.789   2.821   1.135  1.3787  1.1630 -0.0597
  791MOL0     H 9094   1.763   2.843   1.315  0.5815  0.2350  0.4721
  791MOL0     H 9095   1.990   2.734   1.152 -0.7978 -1.5643  0.8697
  791MOL0     H 9096   2.000   2.880   1.245 -0.4071  0.1026  1.1203
  791MOL0     H 9097   2.008   2.751   1.462 -3.6184 -1.1266  0.2638
  791MOL0     H 9098   1.992   2.593   1.369  1.8942 -1.0611 -0.8168
  791MOL0     H 9099   2.203   2.799   1.291 -1.6498  1.2364  2.1344
  791MOL0     H 9100   2.192   2.632   1.277  2.3908  1.0887 -1.4728
  791MOL0     H 9101   2.239   2.815   1.514  1.7545 -0.7735  2.5078
  791MOL0     H 9102   2.206   2.641   1.549 -2.1053 -0.0294 -1.1544
  791MOL0     H 9103   2.453   2.705   1.543 -2.1354  2.3758  0.1305
  791MOL0     H 9104   2.432   2.713   1.362  1.1169  0.4193  1.2991
  791MOL0     H 9105   2.360   2.470   1.544  1.6182 -2.0846 -0.3213
  791MOL0     H 9106   2.356   2.476   1.368 -0.2475 -0.2407  1.0746
  791MOL0     H 9107   2.522   2.274   1.543 -1.5046  2.5793  2.2471
  791MOL0     H 9108   2.816   2.165   1.535  0.3775  0.3115  0.3145
  791MOL0     H 9109   2.893   2.249   1.405  0.2293 -0.8756  1.6921
  791MOL0     H 9110   2.624   2.130   1.340 -0.7033 -1.2130  1.5849
  791MOL0     H 9111   2.770   2.122   1.247  3.2135  0.4100  1.2486
  791MOL0     H 9112   2.865   1.953   1.351 -0.5260  0.2814 -1.0250
  791MOL0     H 9113   2.775   1.969   1.505  0.3637 -0.3341  0.0815
  791MOL0     H 9114   2.628   1.885   1.243 -0.3695  3.7403  0.3240
  791MOL0     H 9115   2.707   1.780   1.369  1.5781  1.2223  0.2356
  791MOL0     H 9116   2.435   1.861   1.190 -0.4819  1.8824  1.5849
  791MOL0     H 9117   2.124   1.765   1.087  0.7219  1.6275  4.6054
  791MOL0     H 9118   2.233   1.638   1.043 -1.4606  0.3677  0.4886
  791MOL0     H 9119   2.268   1.820   1.022  1.5376  0.1833  0.8920
  791MOL0     H 9120   1.983   1.291   1.440 -0.5836 -1.8133 -2.7497
  791MOL0     H 9121   1.793   1.146   1.423  0.1268  0.2920 -0.9615
  791MOL0     H 9122   1.596   1.027   1.432 -0.2120 -1.3927 -1.1620
  791MOL0     H 9123   1.426   1.056   1.392  0.3153 -1.3976  1.6116
  791MOL0     H 9124   1.496   1.166   1.179  0.3203 -0.1597 -1.0536
  791MOL0     H 9125   1.660   1.094   1.200  1.0648 -1.0778  2.3358
  791MOL0     H 9126   1.391   0.938   1.162 -0.0344  1.1668  1.8433
  791MOL0     H 9127   1.524   0.868   1.238 -0.8749 -1.8343 -0.8682
  791MOL0     H 9128   1.674   0.927   1.030 -0.5925  0.4183  2.9319
  791MOL0     H 9129   1.540   1.016   0.957 -0.6628 -1.0139 -2.3031
  791MOL0     H 9130   1.524   0.716   1.039  0.6472  0.4086  0.3946
  791MOL0     H 9131   1.424   0.793   0.922 -0.6250 -0.6626  0.1026
  791MOL0     H 9132   1.556   0.666   0.795 -1.4587  0.0764  1.3447
  791MOL0     H 9133   1.712   0.703   0.870  1.5926 -2.7094 -3.9711
  791MOL0     H 9134   1.696   0.929   0.755 -0.0415  0.8384 -1.0433
  791MOL0     H 9135   1.549   0.886   0.682  3.1201  3.9688 -1.0307
  791MOL0     H 9136   1.800   0.711   0.676 -1.8461  0.0444  2.0861
  791MOL0     H 9137   1.775   0.816   0.539  0.7812 -0.4858 -0.3691
  791MOL0     H 9138   1.531   1.479   1.410 -0.0241  0.1694  2.2319
  791MOL0     H 9139   1.716   1.632   1.413 -1.4240 -0.2707 -0.0647
  791MOL0     H 9140   2.166   1.666   1.549 -3.4723  2.4437 -2.0337
  791MOL0     H 9141   2.374   1.792   1.595 -0.9291  0.3852 -0.6707
  791MOL0     H 9142   1.693   2.366   1.161  0.1407  1.5674  0.8222
  791MOL0     H 9143   1.755   2.237   0.958  0.1436 -0.2273 -1.0464
  791MOL0     H 9144   1.855   2.434   0.474 -0.3799  0.4564 -1.6735
  791MOL0     H 9145   1.978   2.346   0.264  2.0036 -1.3404  1.0826
  791MOL0     H 9146   2.113   2.217   0.177 -2.3129  1.1043  0.9718
  791MOL0     H 9147   2.112   2.050   0.225 -1.9566  0.0903  1.7053
  791MOL0     H 9148   2.050   2.154  -0.068  0.3919 -0.3427 -2.1587
  791MOL0     H 9149   2.077   1.994  -0.037 -3.1411  1.1678 -0.9493
  791MOL0     H 9150   2.280   2.126  -0.137  0.1542 -2.5581 -0.9524
  791MOL0     H 9151   2.298   2.196   0.028  0.1111  1.9324 -2.6940
  791MOL0     H 9152   2.445   1.981  -0.052  0.9964  1.1988  0.3421
  791MOL0     H 9153   2.315   1.895   0.021  1.5046 -0.5765  1.8318
  791MOL0     H 9154   2.518   2.081   0.340  0.1261  0.5662  0.5273
  791MOL0     H 9155   1.744   2.001   0.296 -0.0562 -0.6984  1.6659
  791MOL0     H 9156   1.517   2.117   0.534  0.8229  1.0294 -0.5349
  791MOL0     H 9157   1.571   1.970   0.458 -0.4320  1.4751 -1.6797
  791MOL0     H 9158   1.636   2.037   0.628  1.4015 -0.1236 -0.7474
  792MOL0     O 9159   7.448   7.359   1.708 -0.9151  0.2082 -0.1473
  792MOL0     C 9160   7.538   7.442   1.714 -0.1754  0.1469 -0.0519
  792MOL0     O 9161   7.515   7.572   1.743 -0.1859  0.6617  0.4773
  792MOL0     C 9162   7.391   7.618   1.775 -0.1348 -0.1363  0.1654
  792MOL0     C 9163   7.297   7.605   1.672 -0.0077 -0.4747 -1.1331
  792MOL0     C 9164   7.168   7.635   1.699  0.2248 -0.9396 -0.8922
  792MOL0     C 9165   7.123   7.682   1.823 -0.1340 -0.2606 -0.7438
  792MOL0     O 9166   6.996   7.701   1.856  0.0024  0.5420  0.3160
  792MOL0     C 9167   6.959   7.842   1.842 -0.9430 -0.4046  0.4189
  792MOL0     C 9168   6.813   7.862   1.825  0.7003  0.4639 -0.1779
  792MOL0     C 9169   6.761   8.000   1.889  0.2318 -0.2100 -0.1801
  792MOL0     C 9170   6.623   8.028   1.851 -0.0050 -0.0348  0.0077
  792MOL0     C 9171   6.556   8.139   1.940  0.5992 -0.3235 -0.4040
  792MOL0     C 9172   6.497   8.100   2.085 -0.6180 -0.5939  0.7166
  792MOL0     C 9173   6.440   8.224   2.158  0.2644  0.0933 -0.1887
  792MOL0     C 9174   6.544   8.299   2.244 -0.2719  1.9379 -0.7201
  792MOL0     N 9175   6.483   8.411   2.304 -0.2543  0.2253  1.2206
  792MOL0     C 9176   6.415   8.407   2.423 -0.0651  0.0898 -0.1051
  792MOL0     C 9177   6.389   8.538   2.429  1.1737 -0.1444 -1.0002
  792MOL0     C 9178   6.341   8.617   2.559  1.0276 -0.5286 -0.0920
  792MOL0     C 9179   6.414   8.591   2.693  1.1078  0.2937  0.2537
  792MOL0     C 9180   6.562   8.623   2.700  0.2223 -0.3850  0.3674
  792MOL0     C 9181   6.635   8.538   2.816 -0.2922 -0.8084  0.2564
  792MOL0     O 9182   6.713   8.441   2.749 -0.2379  0.4697  0.3448
  792MOL0     C 9183   6.665   8.320   2.703  0.4108  0.0056 -0.2607
  792MOL0     C 9184   6.730   8.247   2.610 -0.4464  0.8713  0.8433
  792MOL0     C 9185   6.690   8.127   2.553 -0.5042  0.3284  0.6144
  792MOL0     C 9186   6.784   8.049   2.461 -0.7226  0.1519  1.0332
  792MOL0     C 9187   6.575   8.072   2.598  0.4603  0.4111 -0.6854
  792MOL0     C 9188   6.530   7.938   2.557  0.5866 -0.9215 -0.3911
  792MOL0     O 9189   6.586   7.826   2.604  0.5080  0.3918 -0.4753
  792MOL0     C 9190   6.546   7.702   2.567 -0.0958 -0.6142  0.3205
  792MOL0     C 9191   6.641   7.612   2.521  1.1301  0.5675  0.5003
  792MOL0     C 9192   6.604   7.480   2.493  0.0678 -1.3023 -0.3800
  792MOL0     C 9193   6.480   7.434   2.527  0.2921  0.3196  0.2953
  792MOL0     O 9194   6.462   7.295   2.507  0.3989  0.2773  1.0828
  792MOL0     C 9195   6.329   7.257   2.464  0.1026 -0.1761 -0.9098
  792MOL0     C 9196   6.254   7.211   2.587  0.4688 -0.0469  0.2861
  792MOL0     C 9197   6.296   7.068   2.636 -0.6111 -0.1483  0.4841
  792MOL0     C 9198   6.206   7.026   2.750 -0.0867  0.3964 -0.0952
  792MOL0     C 9199   6.226   6.885   2.806  0.1727  0.3818 -0.0184
  792MOL0     C 9200   6.131   6.852   2.928 -0.2806 -0.6913  0.0841
  792MOL0     C 9201   6.160   6.718   2.988 -1.2127  0.4649 -0.2938
  792MOL0     C 9202   6.082   6.682   3.111  0.9176  0.4726 -1.1074
  792MOL0    Cl 9203   6.121   6.518   3.182 -0.2289 -0.4471  0.5075
  792MOL0     C 9204   6.381   7.517   2.571  0.2127 -0.1455 -0.2445
  792MOL0     C 9205   6.414   7.657   2.586  0.8994  0.5248 -0.8745
  792MOL0     O 9206   6.437   7.946   2.482  0.3710 -0.4848  0.0992
  792MOL0     C 9207   6.494   8.151   2.691 -1.2006 -0.0392 -0.3550
  792MOL0     C 9208   6.546   8.266   2.749 -0.5843  0.2701 -0.3838
  792MOL0     N 9209   6.430   8.613   2.323  0.5985 -0.3540 -1.0140
  792MOL0     N 9210   6.498   8.531   2.254 -0.3118 -0.8162  0.2676
  792MOL0     C 9211   7.211   7.696   1.925  0.0458 -0.7138 -0.5384
  792MOL0     C 9212   7.347   7.663   1.902 -0.4973 -0.2213 -0.7421
  792MOL0     C 9213   7.673   7.408   1.669 -0.0605 -0.5574 -0.8622
  792MOL0     C 9214   7.744   7.499   1.588 -1.1473 -0.2461  0.0509
  792MOL0     C 9215   7.875   7.475   1.537  0.2844  0.3226 -0.2810
  792MOL0     C 9216   7.946   7.360   1.575 -0.0018  0.3971  0.7048
  792MOL0     O 9217   8.079   7.340   1.544 -0.7516  0.2484 -0.5181
  792MOL0     C 9218   8.129   7.385   1.422 -0.1816 -0.7109  0.0649
  792MOL0     C 9219   8.255   7.309   1.382 -0.9089 -0.3637  1.0280
  792MOL0     C 9220   8.253   7.168   1.328 -0.0983 -0.0429 -0.4307
  792MOL0     C 9221   8.291   7.154   1.178  0.6696 -0.5401  0.3883
  792MOL0     C 9222   8.432   7.193   1.152 -0.2267 -0.6214 -0.2874
  792MOL0     C 9223   8.543   7.218   1.116  0.2675 -0.1784 -0.4400
  792MOL0     C 9224   7.878   7.271   1.657  0.4121  0.2170 -0.1813
  792MOL0     C 9225   7.744   7.288   1.701  0.4740  0.0088 -0.5675
  792MOL0     C 9226   7.693   7.193   1.805 -0.1027  0.7330  0.9451
  792MOL0     H 9227   7.332   7.573   1.574 -0.8652  3.5367 -2.9830
  792MOL0     H 9228   7.097   7.615   1.620 -0.8983  0.5717 -0.3075
  792MOL0     H 9229   7.008   7.897   1.761 -0.1669 -3.1216 -1.0790
  792MOL0     H 9230   6.988   7.904   1.928 -3.0159  3.9350 -1.6884
  792MOL0     H 9231   6.784   7.862   1.720  3.6071 -3.4032 -1.2705
  792MOL0     H 9232   6.761   7.779   1.874 -0.0296  0.8919 -0.2327
  792MOL0     H 9233   6.766   7.990   1.998 -0.6000 -0.8119 -0.1885
  792MOL0     H 9234   6.826   8.083   1.860 -0.1589  0.1387 -0.0703
  792MOL0     H 9235   6.634   8.076   1.753  0.1837  0.8072  0.4333
  792MOL0     H 9236   6.548   7.950   1.835 -2.7938  1.5591  3.8013
  792MOL0     H 9237   6.463   8.176   1.897  0.4737  1.1649  1.0710
  792MOL0     H 9238   6.629   8.220   1.950 -2.5548  2.9875 -2.3022
  792MOL0     H 9239   6.411   8.034   2.069 -1.2791  0.2527  0.7045
  792MOL0     H 9240   6.563   8.041   2.150 -1.0904  0.7919  2.5504
  792MOL0     H 9241   6.349   8.200   2.213 -0.7203  0.8645 -1.4249
  792MOL0     H 9242   6.398   8.302   2.094  1.9890  2.1684  1.0966
  792MOL0     H 9243   6.568   8.228   2.325 -2.4781  1.8961 -0.0444
  792MOL0     H 9244   6.636   8.315   2.188  0.9297  2.7608  1.3515
  792MOL0     H 9245   6.402   8.313   2.477  2.6725 -0.9235 -1.0337
  792MOL0     H 9246   6.238   8.579   2.563  1.1341 -0.8174 -0.0219
  792MOL0     H 9247   6.350   8.721   2.528  1.6765 -0.7171 -0.5366
  792MOL0     H 9248   6.366   8.665   2.758 -1.8330  1.6263 -3.0958
  792MOL0     H 9249   6.398   8.488   2.724 -1.4824  0.8218  0.9087
  792MOL0     H 9250   6.597   8.598   2.600 -0.0253  0.8156 -0.0395
  792MOL0     H 9251   6.581   8.730   2.716 -0.2896 -0.5926  2.7597
  792MOL0     H 9252   6.704   8.590   2.883  0.8926 -0.6189 -1.0793
  792MOL0     H 9253   6.562   8.501   2.888 -0.1866 -1.8202 -0.1395
  792MOL0     H 9254   6.829   8.289   2.592 -0.0359  0.7223  2.6037
  792MOL0     H 9255   6.777   7.940   2.470  0.5328 -0.3302 -2.4647
  792MOL0     H 9256   6.886   8.085   2.479 -1.2185  1.2494  1.7138
  792MOL0     H 9257   6.757   8.068   2.357 -0.2779 -1.3040  0.6289
  792MOL0     H 9258   6.740   7.648   2.494  0.9238 -1.0397 -2.9205
  792MOL0     H 9259   6.686   7.417   2.459  0.6337 -0.1691 -1.1810
  792MOL0     H 9260   6.275   7.341   2.420  0.0406  0.9438  1.1839
  792MOL0     H 9261   6.332   7.172   2.395 -2.6722 -3.2055  2.3172
  792MOL0     H 9262   6.267   7.275   2.675 -2.5808  0.1211  0.7180
  792MOL0     H 9263   6.150   7.208   2.554  0.9954  0.8902 -1.6125
  792MOL0     H 9264   6.401   7.070   2.666 -0.5389 -0.1338  0.2367
  792MOL0     H 9265   6.295   6.991   2.558  0.9295 -1.1625  1.4201
  792MOL0     H 9266   6.100   7.031   2.722 -0.3365 -2.6346 -0.0781
  792MOL0     H 9267   6.214   7.101   2.829 -0.0957  1.8853 -1.4681
  792MOL0     H 9268   6.217   6.812   2.725  2.7017 -0.1107  0.0555
  792MOL0     H 9269   6.330   6.866   2.834 -0.1044  3.1972  3.8401
  792MOL0     H 9270   6.024   6.858   2.906 -0.1988 -0.0186 -0.1559
  792MOL0     H 9271   6.160   6.936   2.990  2.1188 -1.5394  0.2210
  792MOL0     H 9272   6.268   6.704   3.001 -1.5700 -1.5391  0.9577
  792MOL0     H 9273   6.132   6.647   2.910 -1.4131  1.6894 -1.3750
  792MOL0     H 9274   5.975   6.694   3.089 -0.1088 -2.4122  1.4795
  792MOL0     H 9275   6.118   6.755   3.183  1.5304 -0.4784 -0.4249
  792MOL0     H 9276   6.284   7.487   2.610  0.5159 -2.0164 -0.8270
  792MOL0     H 9277   6.351   7.725   2.642  1.2593 -1.9100  2.9251
  792MOL0     H 9278   6.406   8.096   2.723  1.0765 -2.9008  1.6271
  792MOL0     H 9279   6.495   8.307   2.836 -1.4259 -1.5304  0.0187
  792MOL0     H 9280   7.179   7.717   2.027 -1.4529 -1.5053 -0.8071
  792MOL0     H 9281   7.431   7.671   1.971 -0.5653  1.9471 -0.8380
  792MOL0     H 9282   7.696   7.596   1.584 -0.9757 -0.1866 -0.7986
  792MOL0     H 9283   7.935   7.547   1.482  2.1175 -1.6451 -0.9771
  792MOL0     H 9284   8.061   7.368   1.338  0.5321 -6.3190  0.2639
  792MOL0     H 9285   8.146   7.493   1.419  0.2788 -0.6442  2.7193
  792MOL0     H 9286   8.313   7.300   1.474 -0.6881 -3.0648  0.7093
  792MOL0     H 9287   8.302   7.368   1.304 -0.4384 -3.7056 -1.4340
  792MOL0     H 9288   8.330   7.109   1.379 -1.6264 -1.2293  0.5819
  792MOL0     H 9289   8.154   7.123   1.339 -1.1105  1.1856 -3.5138
  792MOL0     H 9290   8.217   7.209   1.118  1.2338 -0.2199 -0.0180
  792MOL0     H 9291   8.270   7.050   1.153  1.0691 -0.9772  1.7586
  792MOL0     H 9292   8.645   7.243   1.093  0.3078 -0.3685 -0.4696
  792MOL0     H 9293   7.922   7.179   1.693 -1.6361 -0.6269  0.2758
  792MOL0     H 9294   7.597   7.152   1.770  0.0595  0.0451  1.2786
  792MOL0     H 9295   7.755   7.105   1.823 -0.3598  0.6758  1.5966
  792MOL0     H 9296   7.664   7.250   1.894 -1.5386  3.1682 -0.9591
  793MOL0     O 9297   7.269   9.332   1.332  0.4229  0.1029  0.3434
  793MOL0     C 9298   7.180   9.387   1.395 -0.8190  0.5487  0.0110
  793MOL0     O 9299   7.033   9.377   1.376  0.3756  0.3031 -0.3391
  793MOL0     C 9300   7.001   9.287   1.287 -1.2461  0.1091 -0.0938
  793MOL0     C 9301   7.022   9.149   1.312  0.1354  0.1470  0.1051
  793MOL0     C 9302   6.984   9.065   1.213 -0.1506  0.2901 -0.8227
  793MOL0     C 9303   6.926   9.099   1.100 -0.5112  0.3548 -0.2715
  793MOL0     O 9304   6.897   8.990   1.013  0.3371  0.1384 -0.3737
  793MOL0     C 9305   6.942   9.009   0.879  0.5097 -0.6718  0.2042
  793MOL0     C 9306   6.943   8.884   0.794 -1.0662  0.3031 -1.8527
  793MOL0     C 9307   6.954   8.923   0.641 -0.1463  0.2493 -0.5202
  793MOL0     C 9308   6.952   8.799   0.553  0.1594 -0.0032  0.0083
  793MOL0     C 9309   7.100   8.751   0.530 -0.9462  0.4511 -0.0831
  793MOL0     C 9310   7.090   8.615   0.461  0.1684 -1.3038 -0.7100
  793MOL0     C 9311   7.232   8.565   0.421  0.1666  0.6609 -0.4116
  793MOL0     C 9312   7.271   8.607   0.281 -0.0133 -0.1988 -0.3948
  793MOL0     N 9313   7.380   8.533   0.218 -0.0454  0.6735 -0.4110
  793MOL0     C 9314   7.481   8.453   0.271  0.9529 -1.2550  1.0176
  793MOL0     C 9315   7.552   8.415   0.158  0.5313  0.9229 -0.7807
  793MOL0     C 9316   7.671   8.327   0.159 -0.4419  0.0675  0.0791
  793MOL0     C 9317   7.804   8.391   0.180  0.4421 -0.3792 -0.2436
  793MOL0     C 9318   7.860   8.449   0.047  1.1540  0.4548 -0.0592
  793MOL0     C 9319   7.981   8.531   0.076 -1.2138 -0.1109  0.0435
  793MOL0     O 9320   7.944   8.648   0.151 -0.3156 -0.3623  0.4066
  793MOL0     C 9321   8.052   8.708   0.205 -0.4760 -0.3082  0.3787
  793MOL0     C 9322   8.145   8.642   0.291 -0.0098 -0.2279 -0.1533
  793MOL0     C 9323   8.252   8.712   0.351  0.1186  0.4793  0.4691
  793MOL0     C 9324   8.330   8.647   0.459 -0.3127 -0.5879  0.1472
  793MOL0     C 9325   8.277   8.846   0.314 -0.5527  0.0588  0.3059
  793MOL0     C 9326   8.396   8.919   0.350  0.5600 -0.3206 -0.1966
  793MOL0     O 9327   8.367   9.037   0.407  0.2623  0.2855  0.0239
  793MOL0     C 9328   8.477   9.101   0.454 -0.5514 -0.7052 -0.6102
  793MOL0     C 9329   8.534   9.222   0.397  0.2062  0.3995  0.1843
  793MOL0     C 9330   8.640   9.286   0.467  0.7527  0.8104 -0.3993
  793MOL0     C 9331   8.697   9.231   0.577  0.1904 -0.5707 -0.1201
  793MOL0     O 9332   8.798   9.306   0.632 -0.7212  0.6234 -0.3523
  793MOL0     C 9333   8.784   9.363   0.762 -0.1046 -0.8428 -0.1960
  793MOL0     C 9334   8.729   9.498   0.761 -0.5506 -0.2778 -0.4924
  793MOL0     C 9335   8.799   9.593   0.667 -0.0774 -0.2066  0.9834
  793MOL0     C 9336   8.739   9.730   0.682 -0.1864 -0.1970  0.2185
  793MOL0     C 9337   8.801   9.812   0.799  0.2493 -0.0717  0.3613
  793MOL0     C 9338   8.699   9.917   0.855 -1.0166  0.9432 -0.4256
  793MOL0     C 9339   8.692  10.034   0.763  1.6515  0.3816  0.4223
  793MOL0     C 9340   8.546  10.083   0.755  0.7105 -0.7621  0.8059
  793MOL0    Cl 9341   8.419   9.973   0.694 -0.3181  0.1222  0.0078
  793MOL0     C 9342   8.641   9.125   0.639  0.2857  0.2336  0.2812
  793MOL0     C 9343   8.534   9.047   0.577  0.4288 -0.8592 -0.0826
  793MOL0     O 9344   8.504   8.885   0.303 -0.3385  0.7177 -0.4577
  793MOL0     C 9345   8.191   8.908   0.219  0.2212 -0.2909 -0.3333
  793MOL0     C 9346   8.074   8.842   0.175  0.3726 -0.3269 -0.3053
  793MOL0     N 9347   7.495   8.469   0.047 -0.6814 -0.4753 -0.0209
  793MOL0     N 9348   7.397   8.545   0.084  0.5866  0.1045  0.8575
  793MOL0     C 9349   6.912   9.230   1.062 -0.9261 -0.4701  0.2866
  793MOL0     C 9350   6.954   9.324   1.155  0.7476  0.6214 -0.2502
  793MOL0     C 9351   7.228   9.460   1.515 -0.6220 -0.5078 -0.5080
  793MOL0     C 9352   7.214   9.395   1.642  0.1683 -1.0250 -0.1860
  793MOL0     C 9353   7.237   9.458   1.764 -0.0134 -0.2221 -1.1573
  793MOL0     C 9354   7.285   9.584   1.765  0.4941  0.2502 -1.3935
  793MOL0     O 9355   7.320   9.636   1.889  0.0046 -0.3787  0.5463
  793MOL0     C 9356   7.353   9.773   1.894 -0.1128  0.5728 -0.3962
  793MOL0     C 9357   7.396   9.796   2.039  0.2767  0.6990  0.2222
  793MOL0     C 9358   7.280   9.797   2.138 -0.7477  0.8563 -0.3055
  793MOL0     C 9359   7.335   9.858   2.271  0.5504 -0.1916  0.1992
  793MOL0     C 9360   7.459   9.800   2.328  0.1575 -0.2001 -0.7328
  793MOL0     C 9361   7.549   9.733   2.363 -0.5328 -0.8576  0.0767
  793MOL0     C 9362   7.295   9.653   1.647 -0.2834  0.5006  0.2560
  793MOL0     C 9363   7.266   9.598   1.519  0.7110  0.7455  0.2815
  793MOL0     C 9364   7.260   9.685   1.400  0.8650 -0.2663  0.4943
  793MOL0     H 9365   7.053   9.113   1.409  1.1253  3.1916  1.0410
  793MOL0     H 9366   7.003   8.958   1.221 -0.4094  0.3350  0.7707
  793MOL0     H 9367   7.040   9.057   0.870  0.4976 -0.8003 -0.6482
  793MOL0     H 9368   6.877   9.080   0.826  0.3920 -0.1803  0.9882
  793MOL0     H 9369   7.023   8.818   0.828 -0.7043  2.0161  0.9348
  793MOL0     H 9370   6.848   8.836   0.815 -0.4379 -1.5749 -3.0045
  793MOL0     H 9371   6.863   8.980   0.622 -0.5510  0.9544  2.9477
  793MOL0     H 9372   7.036   8.995   0.634 -0.7961  1.2000  1.0455
  793MOL0     H 9373   6.899   8.717   0.602  1.6476 -1.2958 -0.4607
  793MOL0     H 9374   6.897   8.818   0.460 -3.0223  1.9899  2.0710
  793MOL0     H 9375   7.174   8.747   0.610  3.4273 -0.2527 -3.7265
  793MOL0     H 9376   7.140   8.819   0.454  0.4115  1.6087  1.5963
  793MOL0     H 9377   7.059   8.542   0.537  1.2803 -1.1116 -0.0394
  793MOL0     H 9378   7.030   8.614   0.370  0.4201 -2.0023 -0.8815
  793MOL0     H 9379   7.229   8.457   0.407 -1.5990  0.7901 -1.3879
  793MOL0     H 9380   7.303   8.585   0.502  0.4557 -1.2108 -0.1598
  793MOL0     H 9381   7.184   8.595   0.216  2.2755 -0.6463 -3.5747
  793MOL0     H 9382   7.306   8.710   0.273 -0.7044 -0.0098 -1.0355
  793MOL0     H 9383   7.490   8.439   0.378  0.4280  0.4262  1.2989
  793MOL0     H 9384   7.680   8.263   0.071 -1.3543 -1.1181  0.8091
  793MOL0     H 9385   7.651   8.260   0.243 -0.4298 -0.2442 -0.1692
  793MOL0     H 9386   7.793   8.476   0.248 -2.3657 -1.2492  0.4909
  793MOL0     H 9387   7.872   8.318   0.226 -1.0956 -0.1473  2.5944
  793MOL0     H 9388   7.885   8.363  -0.016  1.0875 -1.0223  1.8503
  793MOL0     H 9389   7.789   8.511  -0.009  2.7805  1.1494 -1.4552
  793MOL0     H 9390   8.042   8.461   0.134 -1.1110 -1.8004 -1.9721
  793MOL0     H 9391   8.041   8.575  -0.004  0.1686 -0.9251  0.5921
  793MOL0     H 9392   8.110   8.544   0.323 -0.9767  0.2047  0.1778
  793MOL0     H 9393   8.277   8.637   0.554 -0.3829 -0.1052  0.1648
  793MOL0     H 9394   8.421   8.704   0.477 -0.0158 -0.7804 -0.6864
  793MOL0     H 9395   8.366   8.550   0.423  0.1614 -0.4019  0.1116
  793MOL0     H 9396   8.498   9.253   0.300  1.6793 -0.7179 -0.7703
  793MOL0     H 9397   8.679   9.377   0.423  1.4489 -0.2556 -2.1468
  793MOL0     H 9398   8.729   9.299   0.831  0.2366  0.6838  1.6038
  793MOL0     H 9399   8.884   9.361   0.807  0.4974  0.8763 -1.3344
  793MOL0     H 9400   8.623   9.486   0.736 -0.8571 -2.2818  1.4731
  793MOL0     H 9401   8.731   9.530   0.865  2.0777 -0.9903 -0.2426
  793MOL0     H 9402   8.775   9.558   0.566  0.4423  1.4198  0.2620
  793MOL0     H 9403   8.906   9.614   0.668  0.4434 -1.4158 -3.8454
  793MOL0     H 9404   8.630   9.724   0.688 -0.1173 -0.0150  2.6781
  793MOL0     H 9405   8.767   9.785   0.591 -0.5915 -0.9616 -0.3875
  793MOL0     H 9406   8.825   9.746   0.883 -1.8020  1.4528  2.2903
  793MOL0     H 9407   8.889   9.873   0.777  0.2144  0.8810  2.5342
  793MOL0     H 9408   8.733   9.950   0.954 -0.4403 -1.5007  0.2753
  793MOL0     H 9409   8.604   9.864   0.868  0.9446 -3.0106 -0.5105
  793MOL0     H 9410   8.720  10.010   0.660 -1.8213 -1.3029 -0.3023
  793MOL0     H 9411   8.769  10.107   0.786  2.4843 -0.0429 -0.8857
  793MOL0     H 9412   8.552  10.162   0.679 -1.9105  1.4581  2.6894
  793MOL0     H 9413   8.508  10.114   0.853  0.7507 -0.9307  0.8756
  793MOL0     H 9414   8.688   9.089   0.730  0.2454  1.8884  0.9765
  793MOL0     H 9415   8.472   8.974   0.628 -2.3249 -0.4516 -2.5828
  793MOL0     H 9416   8.209   9.010   0.188  3.8030 -1.0994 -1.3765
  793MOL0     H 9417   8.000   8.889   0.112 -0.5667  1.7701  2.1676
  793MOL0     H 9418   6.858   9.258   0.972  0.6923 -0.7233 -0.8009
  793MOL0     H 9419   6.954   9.427   1.120 -1.5496  0.1677 -1.7575
  793MOL0     H 9420   7.178   9.293   1.637  2.7110 -1.9788 -0.3990
  793MOL0     H 9421   7.221   9.400   1.855 -2.4643  0.4377 -1.0851
  793MOL0     H 9422   7.446   9.787   1.839  0.2148 -0.6415 -0.1733
  793MOL0     H 9423   7.281   9.850   1.863  0.2578  1.6710  1.3348
  793MOL0     H 9424   7.441   9.896   2.047  0.9286  0.2714  4.5554
  793MOL0     H 9425   7.474   9.725   2.067  0.3737  0.0117 -1.6514
  793MOL0     H 9426   7.200   9.860   2.097 -0.5503  1.4165  0.1577
  793MOL0     H 9427   7.242   9.695   2.147  1.0081 -0.0002 -1.9116
  793MOL0     H 9428   7.258   9.864   2.349  0.1963  1.6726 -0.2503
  793MOL0     H 9429   7.363   9.963   2.261  1.7911 -0.3531  1.6119
  793MOL0     H 9430   7.625   9.665   2.396  0.2350  0.6432  1.5791
  793MOL0     H 9431   7.335   9.753   1.650  1.5234 -0.2062  2.1327
  793MOL0     H 9432   7.345   9.662   1.335 -1.5069 -3.2259 -1.8874
  793MOL0     H 9433   7.164   9.665   1.351  1.9822 -1.5642 -1.3192
  793MOL0     H 9434   7.264   9.786   1.441 -1.1210 -0.7119  1.9485
  794MOL0     O 9435   2.117   1.993   3.693 -0.5387 -0.0730 -0.1463
  794MOL0     C 9436   2.112   2.011   3.571 -0.0913  1.6996  0.4509
  794MOL0     O 9437   2.116   1.904   3.478 -0.2000  0.4965 -0.6460
  794MOL0     C 9438   2.118   1.772   3.510 -0.5949  0.2366  0.2465
  794MOL0     C 9439   2.142   1.681   3.401  0.7233 -0.7362 -0.1860
  794MOL0     C 9440   2.131   1.542   3.423  0.7820  0.2937 -0.4784
  794MOL0     C 9441   2.108   1.482   3.550 -0.5067 -0.2228  0.2875
  794MOL0     O 9442   2.099   1.347   3.549  0.4115  0.0095  0.0819
  794MOL0     C 9443   2.071   1.288   3.670  0.0596  1.1108 -1.0383
  794MOL0     C 9444   2.092   1.139   3.651  0.5239  0.0949  0.0775
  794MOL0     C 9445   2.012   1.061   3.537  0.5828  0.0133  0.7448
  794MOL0     C 9446   2.050   0.913   3.549 -0.0564 -0.0290 -0.1482
  794MOL0     C 9447   2.011   0.834   3.425 -0.8159  0.2165  0.6612
  794MOL0     C 9448   2.038   0.692   3.456 -0.2588  0.3211 -0.2517
  794MOL0     C 9449   2.006   0.614   3.336 -0.1214 -1.4505 -0.0280
  794MOL0     C 9450   2.015   0.467   3.366 -0.6813 -0.5335 -0.1085
  794MOL0     N 9451   2.151   0.444   3.399  0.8098 -0.0336 -0.2880
  794MOL0     C 9452   2.263   0.467   3.323 -0.9689 -0.9032 -0.4474
  794MOL0     C 9453   2.372   0.430   3.400 -0.0902  0.3440  0.2118
  794MOL0     C 9454   2.525   0.444   3.370  0.4028  0.1358 -1.5128
  794MOL0     C 9455   2.594   0.317   3.332 -0.2645 -0.0472 -0.0755
  794MOL0     C 9456   2.748   0.309   3.311  0.8306 -0.2184 -0.0059
  794MOL0     C 9457   2.837   0.372   3.421  0.7234 -0.3299  1.4633
  794MOL0     O 9458   2.846   0.290   3.535  0.5935 -0.9149 -0.7708
  794MOL0     C 9459   2.942   0.322   3.626  0.3397 -0.3540 -0.4923
  794MOL0     C 9460   3.042   0.230   3.652  0.4840 -0.2154 -0.2948
  794MOL0     C 9461   3.137   0.263   3.752  0.6005  0.0037 -0.7121
  794MOL0     C 9462   3.245   0.157   3.769  0.0876  0.2939  0.0266
  794MOL0     C 9463   3.136   0.384   3.815  0.2088 -0.5638 -1.4361
  794MOL0     C 9464   3.246   0.429   3.898 -0.2942 -0.9180 -0.5353
  794MOL0     O 9465   3.231   0.543   3.967 -1.0399 -0.0122 -0.0224
  794MOL0     C 9466   3.342   0.604   4.023  0.4712  0.1030 -0.3015
  794MOL0     C 9467   3.415   0.686   3.945 -0.6052 -0.5472  0.1433
  794MOL0     C 9468   3.534   0.748   4.000 -0.6894  0.3692  0.3897
  794MOL0     C 9469   3.577   0.720   4.129  0.7867 -0.0664 -0.1854
  794MOL0     O 9470   3.679   0.786   4.191  0.4398 -0.1741  0.0057
  794MOL0     C 9471   3.705   0.920   4.152  0.7178 -0.2321  0.2172
  794MOL0     C 9472   3.848   0.940   4.108  0.4780 -0.2069  0.6818
  794MOL0     C 9473   3.953   0.935   4.221  0.4704  0.5246 -0.1027
  794MOL0     C 9474   4.000   0.800   4.279  0.1000 -0.1840 -0.3211
  794MOL0     C 9475   4.126   0.813   4.369  0.5787 -0.6746  0.6499
  794MOL0     C 9476   4.254   0.843   4.291 -0.5472  0.6870  0.0712
  794MOL0     C 9477   4.383   0.842   4.385  0.0445  0.0526  0.4182
  794MOL0     C 9478   4.502   0.857   4.287  0.3714  1.3325 -0.1952
  794MOL0    Cl 9479   4.649   0.885   4.375 -0.1937  0.4801 -0.2120
  794MOL0     C 9480   3.495   0.628   4.206  0.9257  0.0402  0.2941
  794MOL0     C 9481   3.372   0.576   4.157  0.4760  0.2973 -0.3394
  794MOL0     O 9482   3.345   0.367   3.923 -0.0506  0.3794  0.0779
  794MOL0     C 9483   3.035   0.479   3.780  0.3486  0.3384  0.3252
  794MOL0     C 9484   2.935   0.442   3.693 -0.6216  0.4268 -1.2391
  794MOL0     N 9485   2.329   0.379   3.530 -0.1124 -0.1357  0.6084
  794MOL0     N 9486   2.198   0.389   3.517  0.7964 -0.1632 -0.0466
  794MOL0     C 9487   2.079   1.565   3.656 -0.4243 -0.0832  0.6139
  794MOL0     C 9488   2.091   1.709   3.635 -0.5367 -0.4202 -0.2449
  794MOL0     C 9489   2.110   2.140   3.510 -0.0645 -0.0329 -0.4971
  794MOL0     C 9490   2.136   2.152   3.373  0.4970 -0.4625  0.4790
  794MOL0     C 9491   2.154   2.276   3.311  0.2719  0.6318  1.3663
  794MOL0     C 9492   2.132   2.387   3.382 -0.9765 -0.4725  0.1756
  794MOL0     O 9493   2.144   2.502   3.306  0.2588 -0.6855  0.7087
  794MOL0     C 9494   2.100   2.622   3.371  0.3604  0.0654  0.1718
  794MOL0     C 9495   2.048   2.728   3.277  0.4575 -0.6456 -0.3144
  794MOL0     C 9496   2.154   2.739   3.170 -0.0131 -0.3183  0.5174
  794MOL0     C 9497   2.135   2.859   3.081 -0.1022 -0.0672 -0.6742
  794MOL0     C 9498   2.223   2.858   2.960  0.1781 -0.2147  0.5083
  794MOL0     C 9499   2.294   2.849   2.862  0.4560 -0.5259 -0.1578
  794MOL0     C 9500   2.116   2.387   3.518  0.0395 -0.1267  0.6495
  794MOL0     C 9501   2.102   2.261   3.586 -0.5445 -0.2921  0.1112
  794MOL0     C 9502   2.060   2.275   3.729 -0.1783 -0.4903 -1.1910
  794MOL0     H 9503   2.156   1.712   3.298 -0.5715  0.5407 -0.0103
  794MOL0     H 9504   2.139   1.483   3.331  0.7589 -2.3644  1.1193
  794MOL0     H 9505   1.964   1.303   3.686 -1.0774 -1.8746 -4.5072
  794MOL0     H 9506   2.127   1.331   3.753 -0.2133 -0.3589 -0.0582
  794MOL0     H 9507   2.198   1.127   3.626  1.2247 -0.4204  2.9084
  794MOL0     H 9508   2.066   1.081   3.740  1.5948  0.6870  0.7923
  794MOL0     H 9509   1.902   1.066   3.541  0.4717 -1.9459  0.7788
  794MOL0     H 9510   2.043   1.099   3.439  2.2008  0.2919  1.3322
  794MOL0     H 9511   2.159   0.909   3.553 -0.0521  0.6768  0.8297
  794MOL0     H 9512   2.022   0.868   3.645  3.1558 -1.9923  0.0319
  794MOL0     H 9513   2.067   0.868   3.337 -0.4111  0.0089  0.8326
  794MOL0     H 9514   1.905   0.851   3.406 -0.3683  0.7806 -1.6513
  794MOL0     H 9515   2.138   0.670   3.495 -1.2782 -1.5334  1.5147
  794MOL0     H 9516   1.973   0.678   3.544  2.7496 -0.2116  2.0480
  794MOL0     H 9517   2.067   0.645   3.251 -1.1838 -1.3122 -0.7483
  794MOL0     H 9518   1.899   0.621   3.317 -0.1889  1.2430  0.9851
  794MOL0     H 9519   1.958   0.448   3.458 -0.4275  1.2692  0.4722
  794MOL0     H 9520   1.980   0.417   3.276 -0.6123 -0.0122 -0.4290
  794MOL0     H 9521   2.282   0.512   3.226  2.8855  0.8717  0.9185
  794MOL0     H 9522   2.562   0.483   3.466 -0.0712  2.7819 -2.3198
  794MOL0     H 9523   2.543   0.527   3.301  1.8549 -0.1492 -1.5047
  794MOL0     H 9524   2.590   0.239   3.408  2.9844 -0.3278 -0.0380
  794MOL0     H 9525   2.552   0.282   3.237  2.2175 -2.2119 -0.4888
  794MOL0     H 9526   2.789   0.207   3.308  1.6421 -0.0167  2.1658
  794MOL0     H 9527   2.770   0.359   3.217 -0.3299 -0.8058 -0.6176
  794MOL0     H 9528   2.936   0.370   3.374  0.4144  3.3089  0.3540
  794MOL0     H 9529   2.804   0.475   3.438  1.1250 -0.2836  1.9838
  794MOL0     H 9530   3.046   0.137   3.596 -1.6782 -0.3817 -0.2501
  794MOL0     H 9531   3.329   0.166   3.699 -1.3694 -0.9461 -1.9797
  794MOL0     H 9532   3.204   0.062   3.734 -0.1425 -1.0261  3.4850
  794MOL0     H 9533   3.287   0.147   3.870  3.5496  3.1135 -0.9030
  794MOL0     H 9534   3.378   0.718   3.848  0.2058  1.5925  0.4854
  794MOL0     H 9535   3.601   0.804   3.935  1.0205  1.1915  2.7279
  794MOL0     H 9536   3.627   0.949   4.081 -1.4043 -1.3624  1.9685
  794MOL0     H 9537   3.688   0.995   4.229 -0.8638  0.8122 -1.0732
  794MOL0     H 9538   3.889   0.866   4.038 -0.7081 -1.2732  1.0823
  794MOL0     H 9539   3.851   1.036   4.056 -1.0554  1.0077  2.6923
  794MOL0     H 9540   3.928   1.004   4.302  0.6789  0.4930 -0.0093
  794MOL0     H 9541   4.046   0.979   4.183  2.3640 -1.7865  1.5639
  794MOL0     H 9542   4.024   0.731   4.198  1.2390  0.2491 -0.3727
  794MOL0     H 9543   3.917   0.754   4.334  0.6066 -0.6547  0.0514
  794MOL0     H 9544   4.118   0.897   4.438  1.1846 -0.5031  0.5142
  794MOL0     H 9545   4.126   0.717   4.422 -0.2214 -0.5991  0.8023
  794MOL0     H 9546   4.249   0.938   4.236 -0.7554  0.0582 -1.0163
  794MOL0     H 9547   4.276   0.774   4.210  0.2872  2.0538 -0.9160
  794MOL0     H 9548   4.385   0.745   4.437 -0.0946 -0.3127 -0.2444
  794MOL0     H 9549   4.364   0.924   4.455 -3.5907 -0.1633 -0.1060
  794MOL0     H 9550   4.468   0.943   4.228 -2.8463 -0.5533 -1.3506
  794MOL0     H 9551   4.505   0.765   4.228 -1.8415  0.3588  1.0874
  794MOL0     H 9552   3.528   0.600   4.305 -0.6453  2.1666  1.5007
  794MOL0     H 9553   3.319   0.503   4.217  0.8431  0.0536 -0.3099
  794MOL0     H 9554   3.034   0.573   3.835 -2.3300  0.2861  0.4717
  794MOL0     H 9555   2.846   0.504   3.687 -0.1511  1.0659 -1.8838
  794MOL0     H 9556   2.059   1.533   3.758 -0.4135 -1.0812  0.3099
  794MOL0     H 9557   2.075   1.767   3.724  2.7522 -1.8927  1.4828
  794MOL0     H 9558   2.153   2.070   3.304 -0.7756  1.0879 -1.8134
  794MOL0     H 9559   2.179   2.281   3.205  2.4550 -2.3087  1.6226
  794MOL0     H 9560   2.014   2.616   3.439  0.3948  0.7021  0.2804
  794MOL0     H 9561   2.185   2.657   3.430  1.1011  0.5016 -1.1207
  794MOL0     H 9562   2.037   2.827   3.321 -3.5830 -0.6919 -0.9001
  794MOL0     H 9563   1.949   2.706   3.236  0.7399 -0.6673 -1.0152
  794MOL0     H 9564   2.250   2.747   3.223 -0.9377  1.0308  2.1125
  794MOL0     H 9565   2.134   2.657   3.101 -1.7187  1.7509 -1.6180
  794MOL0     H 9566   2.158   2.955   3.128 -0.4668 -0.7351  0.9348
  794MOL0     H 9567   2.029   2.856   3.056 -0.9039  0.5763  2.3332
  794MOL0     H 9568   2.350   2.830   2.773 -0.4237 -1.0536 -0.6064
  794MOL0     H 9569   2.118   2.481   3.572 -3.4310  1.8951 -2.2723
  794MOL0     H 9570   2.063   2.378   3.766  1.0107 -1.1154  0.6048
  794MOL0     H 9571   1.958   2.237   3.739  0.1311 -0.7648  2.4291
  794MOL0     H 9572   2.119   2.214   3.798 -1.1132  1.7347  1.8384
  795MOL0     O 9573   4.835   4.079   3.865 -0.5852  0.2511 -0.3020
  795MOL0     C 9574   4.921   3.987   3.876  0.4773 -0.2102 -0.0832
  795MOL0     O 9575   4.893   3.853   3.854 -0.7773  0.0760 -0.9864
  795MOL0     C 9576   4.766   3.815   3.849  1.0718 -0.0672  0.9801
  795MOL0     C 9577   4.679   3.832   3.949  0.6084  0.5943 -0.7095
  795MOL0     C 9578   4.551   3.776   3.945  0.5103 -0.5883  0.1566
  795MOL0     C 9579   4.513   3.701   3.832  0.9818 -0.2809 -0.0317
  795MOL0     O 9580   4.383   3.660   3.822  0.1364  0.0206  0.1581
  795MOL0     C 9581   4.332   3.605   3.689 -0.3235 -0.8430  0.0128
  795MOL0     C 9582   4.189   3.558   3.678 -0.0612 -0.3382 -0.2646
  795MOL0     C 9583   4.164   3.535   3.525  0.3912  0.3436 -0.2490
  795MOL0     C 9584   4.017   3.509   3.492  0.0234 -0.7002  1.2181
  795MOL0     C 9585   3.997   3.452   3.343 -1.4688 -0.2338 -0.2710
  795MOL0     C 9586   3.858   3.419   3.290  0.2460 -0.3097 -0.0420
  795MOL0     C 9587   3.845   3.274   3.242 -0.2699 -0.6250 -0.9969
  795MOL0     C 9588   3.861   3.176   3.361  0.3665  0.8290  0.6621
  795MOL0     N 9589   3.778   3.186   3.482  0.2078 -0.4411 -1.2122
  795MOL0     C 9590   3.808   3.231   3.605  0.6419  1.0096 -0.1287
  795MOL0     C 9591   3.689   3.206   3.679 -0.1533  1.1333 -0.7896
  795MOL0     C 9592   3.663   3.230   3.830  0.2207 -0.1956 -0.0016
  795MOL0     C 9593   3.799   3.193   3.907  0.5132  0.0796 -0.0569
  795MOL0     C 9594   3.803   3.234   4.056 -0.0419 -0.8060  0.6077
  795MOL0     C 9595   3.763   3.375   4.084  1.3459 -0.2080 -1.1266
  795MOL0     O 9596   3.836   3.451   3.989 -1.0079 -0.6761 -0.6140
  795MOL0     C 9597   3.804   3.579   3.984  0.9068 -0.1769 -0.6003
  795MOL0     C 9598   3.804   3.638   3.858  0.6979 -0.4146  0.5696
  795MOL0     C 9599   3.757   3.775   3.849 -0.4966 -0.0112 -0.5467
  795MOL0     C 9600   3.769   3.834   3.714 -0.6845  0.1445  0.5801
  795MOL0     C 9601   3.733   3.846   3.971 -0.6058  0.2268  0.1723
  795MOL0     C 9602   3.716   3.991   3.987  1.1436  0.3518  0.4566
  795MOL0     O 9603   3.688   4.033   4.107 -0.4110  0.8520 -0.5461
  795MOL0     C 9604   3.693   4.165   4.138  0.7969 -0.3744  0.0230
  795MOL0     C 9605   3.589   4.243   4.091  0.3412  0.8853  0.5664
  795MOL0     C 9606   3.587   4.375   4.137 -0.1535  0.4941  0.0931
  795MOL0     C 9607   3.681   4.431   4.223  0.7241 -0.2055  0.1841
  795MOL0     O 9608   3.671   4.565   4.259  0.6136 -0.0666  0.9889
  795MOL0     C 9609   3.782   4.620   4.327 -0.7185  0.0723 -0.3296
  795MOL0     C 9610   3.752   4.780   4.333 -0.0119  1.0471 -0.6787
  795MOL0     C 9611   3.856   4.872   4.389 -0.0844 -0.4873  0.7992
  795MOL0     C 9612   3.883   4.859   4.542  0.2679 -0.0409 -0.5552
  795MOL0     C 9613   3.981   4.971   4.591  0.1710  0.1857 -0.3275
  795MOL0     C 9614   4.026   4.953   4.735 -0.0624  0.6354 -0.0121
  795MOL0     C 9615   4.131   4.831   4.757  1.3333  0.1242  0.6970
  795MOL0     C 9616   4.235   4.852   4.861 -0.1755 -1.1267 -0.1193
  795MOL0    Cl 9617   4.175   4.781   5.012  0.2193  0.2446 -0.5103
  795MOL0     C 9618   3.781   4.348   4.266  0.6692  0.7293 -1.3245
  795MOL0     C 9619   3.788   4.214   4.226  0.4231 -0.5877  0.4444
  795MOL0     O 9620   3.718   4.066   3.888  0.1499 -0.0096 -0.6402
  795MOL0     C 9621   3.745   3.776   4.095  0.6349 -0.2990  0.4234
  795MOL0     C 9622   3.775   3.652   4.100  0.2265  0.0151 -0.5658
  795MOL0     N 9623   3.582   3.166   3.603  0.9268 -0.4787  0.4637
  795MOL0     N 9624   3.649   3.159   3.489  0.9766  0.1440 -0.9670
  795MOL0     C 9625   4.605   3.692   3.725  1.1793 -0.0396  0.3378
  795MOL0     C 9626   4.726   3.752   3.731  0.4734 -0.3180  0.2159
  795MOL0     C 9627   5.059   4.024   3.924 -0.3777  0.0560 -0.2305
  795MOL0     C 9628   5.154   3.917   3.919  0.3266 -0.2389 -0.6418
  795MOL0     C 9629   5.279   3.928   3.975  0.2069 -0.0300  0.0813
  795MOL0     C 9630   5.308   4.040   4.056  0.6766  1.0316 -0.0782
  795MOL0     O 9631   5.416   4.026   4.143  0.1373 -0.5820 -0.5447
  795MOL0     C 9632   5.542   4.074   4.096 -0.3037  0.3326  0.6762
  795MOL0     C 9633   5.622   3.974   4.012 -0.8309  0.9906 -0.9245
  795MOL0     C 9634   5.601   3.966   3.865  0.4156  0.0196  0.6258
  795MOL0     C 9635   5.708   3.880   3.794  0.0866 -0.1057  0.2919
  795MOL0     C 9636   5.651   3.852   3.668  0.7475  0.8281  0.9783
  795MOL0     C 9637   5.583   3.831   3.566 -1.1474  0.1292 -0.0432
  795MOL0     C 9638   5.225   4.149   4.066 -0.4097  0.4969 -0.0500
  795MOL0     C 9639   5.105   4.147   3.988 -1.0636 -0.5306  0.9783
  795MOL0     C 9640   5.023   4.270   3.969  0.6633 -0.7614  0.0841
  795MOL0     H 9641   4.706   3.904   4.025  1.0928 -0.8272  0.5178
  795MOL0     H 9642   4.484   3.798   4.028  4.4256  1.1796  3.1660
  795MOL0     H 9643   4.383   3.519   3.646 -0.1881 -1.3907  1.2219
  795MOL0     H 9644   4.340   3.689   3.619 -0.6099  1.7273  2.8358
  795MOL0     H 9645   4.170   3.471   3.741  3.2454 -3.3001 -2.9356
  795MOL0     H 9646   4.129   3.645   3.706 -1.1978 -0.5280 -1.9901
  795MOL0     H 9647   4.200   3.615   3.461  0.9712 -0.3510 -0.8023
  795MOL0     H 9648   4.228   3.454   3.489  2.1291  1.8000 -0.5628
  795MOL0     H 9649   3.975   3.438   3.565  0.3753 -2.1863  0.0228
  795MOL0     H 9650   3.955   3.599   3.491 -1.3046 -1.5815  0.2630
  795MOL0     H 9651   4.065   3.368   3.328  0.1995  1.3575 -2.2723
  795MOL0     H 9652   4.052   3.522   3.280 -1.2567 -0.1048  0.0578
  795MOL0     H 9653   3.790   3.429   3.376  3.0038  2.2107  2.0806
  795MOL0     H 9654   3.825   3.491   3.214  0.0759  0.8471  1.0864
  795MOL0     H 9655   3.914   3.252   3.160  2.9520 -1.9053  1.8480
  795MOL0     H 9656   3.741   3.262   3.208 -1.4471  1.4090  1.5272
  795MOL0     H 9657   3.849   3.077   3.316 -0.4160  1.3515 -0.3265
  795MOL0     H 9658   3.965   3.180   3.393  1.1163 -0.1569 -1.4928
  795MOL0     H 9659   3.899   3.279   3.640 -0.1486  2.6395 -0.2243
  795MOL0     H 9660   3.577   3.186   3.880  1.1393  2.9098  5.0656
  795MOL0     H 9661   3.644   3.337   3.842 -0.6551 -0.3905  0.4453
  795MOL0     H 9662   3.830   3.089   3.896 -2.1378 -1.1792  2.9340
  795MOL0     H 9663   3.872   3.260   3.859 -4.0282  6.0337  0.1753
  795MOL0     H 9664   3.732   3.167   4.106  0.7533  0.0671  3.0463
  795MOL0     H 9665   3.897   3.209   4.105  0.6712 -1.3195 -0.9483
  795MOL0     H 9666   3.654   3.375   4.075  0.8662 -4.9206  1.6338
  795MOL0     H 9667   3.772   3.410   4.188  2.1845  0.4452 -1.4015
  795MOL0     H 9668   3.840   3.583   3.772  0.9500  0.0027  0.4074
  795MOL0     H 9669   3.677   3.891   3.697 -1.2320 -0.4613  1.4155
  795MOL0     H 9670   3.788   3.758   3.638  2.2966 -1.6169  2.8385
  795MOL0     H 9671   3.849   3.908   3.721  2.0047 -2.6876  3.2697
  795MOL0     H 9672   3.501   4.216   4.034 -0.1099  1.6501  0.8871
  795MOL0     H 9673   3.503   4.429   4.096 -0.1859  2.1479  2.1824
  795MOL0     H 9674   3.792   4.570   4.424  0.1075 -0.7680 -0.8363
  795MOL0     H 9675   3.870   4.605   4.264  0.5346 -4.3471  2.0486
  795MOL0     H 9676   3.730   4.817   4.233  0.7930  0.8553 -0.9352
  795MOL0     H 9677   3.663   4.789   4.395  0.1588  3.8328 -0.6824
  795MOL0     H 9678   3.811   4.970   4.371 -3.4969 -1.3600  3.5422
  795MOL0     H 9679   3.947   4.854   4.329 -2.4654  0.1963 -3.4434
  795MOL0     H 9680   3.922   4.758   4.559 -1.6080 -0.2984  3.4926
  795MOL0     H 9681   3.784   4.873   4.585 -0.2677 -0.9193 -1.4725
  795MOL0     H 9682   4.066   4.966   4.522  0.7114 -1.3899  0.3991
  795MOL0     H 9683   3.922   5.062   4.577 -1.4426 -1.0650 -2.4252
  795MOL0     H 9684   3.941   4.946   4.804  1.1664  1.2587  1.6465
  795MOL0     H 9685   4.078   5.044   4.766 -0.4163  1.3548 -1.4734
  795MOL0     H 9686   4.190   4.823   4.666  1.3026 -0.8800  0.7520
  795MOL0     H 9687   4.082   4.736   4.782  1.1088 -0.0975 -0.5625
  795MOL0     H 9688   4.271   4.952   4.885  0.7376 -1.7925  1.4455
  795MOL0     H 9689   4.330   4.800   4.842  0.4333  0.3324 -1.1933
  795MOL0     H 9690   3.852   4.390   4.337  1.0902 -0.8353 -0.7754
  795MOL0     H 9691   3.860   4.142   4.263  0.3362 -0.3254  1.1293
  795MOL0     H 9692   3.743   3.825   4.192 -2.2101  5.3880 -2.0799
  795MOL0     H 9693   3.806   3.603   4.191  0.4019 -0.3423 -0.8175
  795MOL0     H 9694   4.580   3.638   3.634  1.4249  0.2824  0.0812
  795MOL0     H 9695   4.791   3.748   3.644 -0.1806  0.2107 -0.3022
  795MOL0     H 9696   5.134   3.812   3.897  1.1788 -1.1283  2.3067
  795MOL0     H 9697   5.343   3.842   3.955  1.1272  1.1771 -2.7548
  795MOL0     H 9698   5.526   4.159   4.029  0.3695 -2.8338 -3.9285
  795MOL0     H 9699   5.606   4.103   4.180  1.9386 -1.5279 -0.2847
  795MOL0     H 9700   5.607   3.885   4.073  1.8954  1.5865  0.7946
  795MOL0     H 9701   5.728   3.998   4.027 -0.9746 -0.5346  4.3814
  795MOL0     H 9702   5.505   3.919   3.842  1.7885 -1.7058 -2.0444
  795MOL0     H 9703   5.610   4.064   3.818 -0.5807 -0.1876 -0.0340
  795MOL0     H 9704   5.727   3.791   3.855 -2.8609 -0.0464  1.4882
  795MOL0     H 9705   5.805   3.930   3.792 -0.5814  1.4197  2.3625
  795MOL0     H 9706   5.524   3.814   3.478  1.6225  0.0061 -1.9924
  795MOL0     H 9707   5.247   4.236   4.127  0.4318  1.1068 -1.1904
  795MOL0     H 9708   5.036   4.291   3.863  2.7477 -0.3849  0.3580
  795MOL0     H 9709   4.919   4.250   3.997  0.4245  0.2628 -0.0123
  795MOL0     H 9710   5.062   4.357   4.023  0.0212 -0.7615  0.5679
  796MOL0     O 9711   3.333   9.570   9.829  0.1300 -0.2953  1.0408
  796MOL0     C 9712   3.254   9.655   9.874  0.0001  0.2148  0.7713
  796MOL0     O 9713   3.153   9.718   9.799  0.5477  0.2809  0.5209
  796MOL0     C 9714   3.142   9.674   9.664 -0.0611  0.4979  0.6215
  796MOL0     C 9715   3.162   9.764   9.558  1.0660  0.3321 -0.5807
  796MOL0     C 9716   3.153   9.713   9.428  0.4481  0.3302 -0.1836
  796MOL0     C 9717   3.110   9.586   9.396  0.9623 -0.0568  0.0307
  796MOL0     O 9718   3.088   9.548   9.263 -0.3972 -0.7343  0.2588
  796MOL0     C 9719   3.021   9.644   9.177  0.1453 -0.5322 -0.4989
  796MOL0     C 9720   2.964   9.580   9.054  0.2623  0.0980 -0.7003
  796MOL0     C 9721   3.072   9.484   8.989 -0.1325  0.0541 -1.2252
  796MOL0     C 9722   3.021   9.452   8.845 -0.2434  0.7230  0.0403
  796MOL0     C 9723   3.117   9.341   8.783 -0.5676 -0.5570 -0.1625
  796MOL0     C 9724   3.114   9.204   8.848  0.2535  0.1997  0.0244
  796MOL0     C 9725   3.187   9.095   8.753  1.4343 -0.6588 -0.1303
  796MOL0     C 9726   3.134   8.950   8.780 -0.7715  0.1514  0.4689
  796MOL0     N 9727   3.135   8.923   8.921 -0.1277 -0.1492 -0.5254
  796MOL0     C 9728   3.232   8.959   9.013  0.8630  0.2263  0.5355
  796MOL0     C 9729   3.176   8.927   9.129  0.2922  0.6226 -0.2615
  796MOL0     C 9730   3.228   8.956   9.276  0.2218  0.5823  1.6325
  796MOL0     C 9731   3.371   8.885   9.296  0.0065 -0.3932 -0.4114
  796MOL0     C 9732   3.431   8.931   9.440  0.1773  0.4655 -0.0824
  796MOL0     C 9733   3.557   8.861   9.463 -0.0207  0.0213 -0.3018
  796MOL0     O 9734   3.556   8.724   9.475 -0.7367  0.5666  0.2129
  796MOL0     C 9735   3.678   8.653   9.493 -0.1258  0.1749 -0.1044
  796MOL0     C 9736   3.805   8.708   9.510 -0.2806  0.1989  0.7497
  796MOL0     C 9737   3.914   8.626   9.510 -1.8341  0.4507  0.5649
  796MOL0     C 9738   4.044   8.692   9.501  0.1012 -0.0651 -1.0430
  796MOL0     C 9739   3.906   8.486   9.539 -0.1804  0.0173 -0.2716
  796MOL0     C 9740   4.012   8.390   9.582  0.0085 -1.0190  1.0923
  796MOL0     O 9741   3.973   8.298   9.677 -0.1289  0.4156 -0.2158
  796MOL0     C 9742   4.062   8.230   9.749  0.5030 -0.0124 -0.7302
  796MOL0     C 9743   4.050   8.253   9.887 -0.5292 -0.4363 -0.6948
  796MOL0     C 9744   4.135   8.183   9.971  0.7866  0.7464  0.0560
  796MOL0     C 9745   4.234   8.102   9.930 -0.4914 -0.6306  0.3979
  796MOL0     O 9746   4.300   8.027  10.023  0.2933 -0.4928 -0.5314
  796MOL0     C 9747   4.425   7.981   9.982 -0.5090 -0.9069 -0.3804
  796MOL0     C 9748   4.518   7.976  10.103 -0.1135  0.6871  0.2776
  796MOL0     C 9749   4.661   7.946  10.062 -0.5052 -0.2350  0.2158
  796MOL0     C 9750   4.750   8.075  10.037  0.6274  0.8612  0.3145
  796MOL0     C 9751   4.899   8.034   9.998  0.1622 -0.2414  0.3489
  796MOL0     C 9752   4.990   7.994  10.113  0.7196 -1.1901 -0.3299
  796MOL0     C 9753   5.137   7.953  10.064  1.0440  0.0623  0.2347
  796MOL0     C 9754   5.155   7.797  10.044  0.7968 -0.3730  0.2088
  796MOL0    Cl 9755   5.141   7.712  10.201  0.1510 -0.0901 -0.0757
  796MOL0     C 9756   4.242   8.071   9.787 -0.5305 -0.3662 -0.8892
  796MOL0     C 9757   4.158   8.144   9.693  0.4107  0.2134 -0.9516
  796MOL0     O 9758   4.122   8.407   9.531 -0.5406  0.4018  0.0651
  796MOL0     C 9759   3.779   8.436   9.535  0.6886 -0.2375 -0.4798
  796MOL0     C 9760   3.665   8.516   9.506  0.3110  0.6079 -0.9349
  796MOL0     N 9761   3.062   8.849   9.107 -0.1759 -0.4126 -0.5610
  796MOL0     N 9762   3.031   8.861   8.980  0.6934  0.9161 -0.5448
  796MOL0     C 9763   3.082   9.490   9.498 -0.2779 -0.5241 -0.3956
  796MOL0     C 9764   3.095   9.542   9.625 -0.1353  0.5057 -0.6023
  796MOL0     C 9765   3.271   9.683  10.015 -0.5710  0.4346  0.4770
  796MOL0     C 9766   3.193   9.609  10.098  0.0756 -0.1986 -0.5008
  796MOL0     C 9767   3.198   9.644  10.242  0.2551  0.2542  0.7613
  796MOL0     C 9768   3.275   9.751  10.294 -0.2176  0.1167 -0.0693
  796MOL0     O 9769   3.296   9.775  10.426  0.7849 -0.4410  0.2517
  796MOL0     C 9770   3.315   9.664  10.514 -0.5451 -0.2770  0.0557
  796MOL0     C 9771   3.455   9.677  10.571  0.0278 -1.2782 -0.6563
  796MOL0     C 9772   3.479   9.827  10.617  0.0425  0.4923  0.3465
  796MOL0     C 9773   3.589   9.824  10.725  0.7202 -0.5587  0.8198
  796MOL0     C 9774   3.531   9.825  10.858  0.0542  0.0160 -0.5459
  796MOL0     C 9775   3.484   9.823  10.968  0.0979  0.0756 -0.1508
  796MOL0     C 9776   3.352   9.823  10.205  0.1322  0.1576 -0.3409
  796MOL0     C 9777   3.348   9.790  10.065 -0.2629 -0.3629 -0.2676
  796MOL0     C 9778   3.436   9.875   9.978 -0.3098 -0.4263  0.0085
  796MOL0     H 9779   3.202   9.864   9.568  2.5321 -0.1562 -1.4073
  796MOL0     H 9780   3.178   9.786   9.351 -1.3971  0.0234 -1.1263
  796MOL0     H 9781   3.094   9.722   9.153 -0.0387 -0.0202  0.5737
  796MOL0     H 9782   2.945   9.690   9.241  0.1127 -1.9977  0.5466
  796MOL0     H 9783   2.887   9.520   9.102 -1.7987  3.7952  1.0421
  796MOL0     H 9784   2.921   9.649   8.981  0.0779 -0.1082 -0.7897
  796MOL0     H 9785   3.168   9.536   8.987 -0.4176  0.6730  0.4644
  796MOL0     H 9786   3.081   9.397   9.055 -5.7883 -1.4469 -1.8792
  796MOL0     H 9787   2.923   9.405   8.853  0.8592 -3.4080 -5.0061
  796MOL0     H 9788   3.003   9.539   8.780 -2.7373 -0.1916 -0.5878
  796MOL0     H 9789   3.220   9.378   8.786 -0.8746  0.3125 -0.0928
  796MOL0     H 9790   3.089   9.332   8.678  1.0003  2.2665 -0.9439
  796MOL0     H 9791   3.165   9.219   8.944  2.7552  1.3152 -1.4077
  796MOL0     H 9792   3.007   9.184   8.859  0.6269 -0.8102  2.8930
  796MOL0     H 9793   3.296   9.104   8.753  1.4368 -0.5797  1.2857
  796MOL0     H 9794   3.156   9.113   8.649  2.4825 -1.6839 -0.6456
  796MOL0     H 9795   3.031   8.944   8.742 -1.2353 -0.5070  1.7631
  796MOL0     H 9796   3.192   8.875   8.725 -0.6865 -0.0310  0.8035
  796MOL0     H 9797   3.314   9.026   8.990 -0.3368  1.4066 -0.4918
  796MOL0     H 9798   3.161   8.921   9.355 -0.4648  0.5814  1.0568
  796MOL0     H 9799   3.234   9.065   9.281 -0.9788  1.0047 -2.3432
  796MOL0     H 9800   3.343   8.781   9.279 -1.9784  0.2756 -1.5663
  796MOL0     H 9801   3.440   8.919   9.218  1.7421  0.5714  1.4578
  796MOL0     H 9802   3.453   9.038   9.448  1.7627  0.2731 -1.2848
  796MOL0     H 9803   3.362   8.926   9.525  3.1168 -2.0123  2.4291
  796MOL0     H 9804   3.619   8.891   9.378  2.0800  1.7434  1.6992
  796MOL0     H 9805   3.598   8.900   9.557 -0.0793 -1.2333  0.2633
  796MOL0     H 9806   3.813   8.815   9.489 -1.6038  0.1344 -0.2313
  796MOL0     H 9807   4.104   8.665   9.413  2.2606  0.6421  0.1217
  796MOL0     H 9808   4.115   8.675   9.584  1.6347 -0.6847 -2.4204
  796MOL0     H 9809   4.032   8.800   9.497  3.7367  0.6262  1.5010
  796MOL0     H 9810   3.978   8.322   9.928  0.6229  0.6010 -0.3532
  796MOL0     H 9811   4.137   8.184  10.080 -2.9316 -0.7107  0.2754
  796MOL0     H 9812   4.416   7.878   9.947  2.8375 -1.2704 -0.5573
  796MOL0     H 9813   4.472   8.049   9.911  1.7280 -0.4351  1.4233
  796MOL0     H 9814   4.515   8.071  10.157 -0.1935  1.5686 -1.2300
  796MOL0     H 9815   4.466   7.899  10.160  0.5954 -0.1734 -0.2198
  796MOL0     H 9816   4.668   7.882   9.973  2.5714 -1.2978  1.0858
  796MOL0     H 9817   4.713   7.881  10.133  0.3712 -1.3510 -1.3773
  796MOL0     H 9818   4.748   8.137  10.127  0.8570  0.3675  0.6643
  796MOL0     H 9819   4.709   8.136   9.956 -0.0749  1.3816  1.0470
  796MOL0     H 9820   4.892   7.950   9.929 -1.8358 -0.9129  1.2974
  796MOL0     H 9821   4.959   8.117   9.962 -0.0906 -0.7463 -1.2866
  796MOL0     H 9822   4.941   7.914  10.168  0.4923 -1.2591 -0.6281
  796MOL0     H 9823   4.996   8.080  10.180 -3.1679  0.7559 -2.1814
  796MOL0     H 9824   5.210   7.975  10.143  1.8084  1.6139 -0.8524
  796MOL0     H 9825   5.175   8.007   9.977 -1.9948  1.7713 -0.1822
  796MOL0     H 9826   5.257   7.778  10.011 -0.1345 -1.4587 -2.3064
  796MOL0     H 9827   5.094   7.756   9.964 -0.5936  3.1355 -0.7280
  796MOL0     H 9828   4.324   8.007   9.758  0.8737  1.0163 -0.0798
  796MOL0     H 9829   4.167   8.113   9.590 -0.7064 -0.1411 -0.9655
  796MOL0     H 9830   3.760   8.330   9.529 -0.4873  0.0069 -1.6105
  796MOL0     H 9831   3.572   8.463   9.485  0.7589 -0.2831 -0.7481
  796MOL0     H 9832   3.035   9.393   9.486 -3.0352  0.9809 -3.4048
  796MOL0     H 9833   3.087   9.480   9.714  0.5416  2.8885  1.2362
  796MOL0     H 9834   3.118   9.543  10.056  0.1612 -0.5586 -0.0977
  796MOL0     H 9835   3.131   9.581  10.300 -0.9821 -0.0955 -0.9302
  796MOL0     H 9836   3.241   9.661  10.594 -4.3101  2.1371 -2.9606
  796MOL0     H 9837   3.313   9.570  10.458  1.3827 -0.1368 -0.2971
  796MOL0     H 9838   3.534   9.663  10.496 -0.4611  2.8416 -2.2499
  796MOL0     H 9839   3.461   9.606  10.653 -0.3782 -0.0007  0.5051
  796MOL0     H 9840   3.496   9.891  10.530  2.4415 -2.7130 -1.8357
  796MOL0     H 9841   3.388   9.870  10.660 -1.0182 -0.8060 -0.5032
  796MOL0     H 9842   3.639   9.917  10.698 -0.6090  0.0575  0.4165
  796MOL0     H 9843   3.667   9.747  10.715  0.8843 -0.1005 -2.1374
  796MOL0     H 9844   3.449   9.832  11.069  1.0702  4.8986  0.0250
  796MOL0     H 9845   3.426   9.896  10.235 -0.1605  0.0612  0.6474
  796MOL0     H 9846   3.512   9.934  10.030 -1.2580 -0.3770  1.3903
  796MOL0     H 9847   3.475   9.808   9.901  0.0094  1.9147 -1.9885
  796MOL0     H 9848   3.368   9.942   9.925  1.8208 -1.0526 -3.9408
  797MOL0     O 9849   2.437   4.878   0.367 -0.0624 -0.3353  0.1450
  797MOL0     C 9850   2.378   4.774   0.329 -0.2823  0.7214 -1.0046
  797MOL0     O 9851   2.243   4.753   0.321  0.0944  0.0735 -0.3099
  797MOL0     C 9852   2.160   4.824   0.408 -0.5254  0.2388  1.0434
  797MOL0     C 9853   2.070   4.756   0.481 -0.5795 -0.3163  0.4176
  797MOL0     C 9854   1.973   4.828   0.560 -0.6832  0.0995 -0.2361
  797MOL0     C 9855   1.965   4.968   0.554 -0.5049 -0.1487  0.5964
  797MOL0     O 9856   1.853   5.017   0.616 -0.6692 -0.8411 -0.5318
  797MOL0     C 9857   1.819   5.153   0.595 -0.5531 -0.0563 -0.1155
  797MOL0     C 9858   1.698   5.174   0.692  0.6255  0.3600  0.5076
  797MOL0     C 9859   1.629   5.317   0.685  0.1797 -0.6822  0.0441
  797MOL0     C 9860   1.721   5.430   0.741  0.3487  0.9442  0.2224
  797MOL0     C 9861   1.654   5.562   0.715  0.8452  0.2965 -0.0612
  797MOL0     C 9862   1.517   5.596   0.790 -0.8412 -0.0715  0.0285
  797MOL0     C 9863   1.540   5.608   0.950 -0.5445 -0.1253 -0.3917
  797MOL0     C 9864   1.412   5.594   1.045  0.3824  1.2322  0.3526
  797MOL0     N 9865   1.422   5.638   1.187 -0.9765  0.2871 -0.2244
  797MOL0     C 9866   1.507   5.589   1.283 -0.7109  0.8948 -0.9327
  797MOL0     C 9867   1.510   5.673   1.384 -0.3041  0.2902 -0.5318
  797MOL0     C 9868   1.618   5.668   1.489 -0.9850  0.0893 -0.5787
  797MOL0     C 9869   1.755   5.714   1.426  0.0297  0.8906  0.3181
  797MOL0     C 9870   1.878   5.702   1.517  0.0441  0.7328  0.0156
  797MOL0     C 9871   1.855   5.775   1.647  0.1110 -0.6177 -0.2255
  797MOL0     O 9872   1.970   5.779   1.737  0.1186  0.4239 -0.2877
  797MOL0     C 9873   1.928   5.817   1.866  0.3347  0.1966 -1.1428
  797MOL0     C 9874   1.976   5.742   1.978  0.3787 -0.0746  0.4502
  797MOL0     C 9875   1.933   5.775   2.108  0.0984  0.0325  0.0162
  797MOL0     C 9876   1.960   5.670   2.209  0.2366 -0.1338  0.4989
  797MOL0     C 9877   1.860   5.891   2.125 -0.6476  0.4529 -1.3860
  797MOL0     C 9878   1.789   5.915   2.249  0.0433 -0.4488  0.6044
  797MOL0     O 9879   1.853   5.912   2.373 -0.1782  0.0998  0.4811
  797MOL0     C 9880   1.775   5.890   2.478 -0.0067 -0.7227 -0.9075
  797MOL0     C 9881   1.783   5.982   2.581 -0.5664  0.1738  0.0150
  797MOL0     C 9882   1.701   5.966   2.696 -0.0182 -0.5872 -0.4871
  797MOL0     C 9883   1.613   5.856   2.703  0.1924  0.3270 -0.4401
  797MOL0     O 9884   1.538   5.828   2.807  0.0730 -0.0911 -0.2350
  797MOL0     C 9885   1.509   5.933   2.907  0.0931  0.3819 -0.0081
  797MOL0     C 9886   1.425   6.045   2.861 -0.5827 -0.1391  1.2680
  797MOL0     C 9887   1.332   6.087   2.974  0.4535  0.2036  0.4071
  797MOL0     C 9888   1.381   6.198   3.067  0.0102 -0.2803  0.8045
  797MOL0     C 9889   1.514   6.167   3.144  0.4955 -0.3976  0.0407
  797MOL0     C 9890   1.556   6.284   3.241 -0.3913 -0.3407  1.0260
  797MOL0     C 9891   1.508   6.246   3.383 -0.1128  0.6467 -0.4450
  797MOL0     C 9892   1.529   6.359   3.486 -0.0173  0.7239  0.8413
  797MOL0    Cl 9893   1.405   6.496   3.452 -0.0051  0.3376 -0.0073
  797MOL0     C 9894   1.604   5.768   2.595 -0.6436 -0.9058 -0.0328
  797MOL0     C 9895   1.667   5.796   2.479 -0.6920  0.7010  0.6110
  797MOL0     O 9896   1.668   5.934   2.227 -1.8946 -0.0203 -0.2780
  797MOL0     C 9897   1.821   5.972   2.020  0.1182  1.2855  0.6483
  797MOL0     C 9898   1.848   5.935   1.886 -0.7871 -0.0855 -0.0299
  797MOL0     N 9899   1.413   5.770   1.366 -0.4151 -0.2722  0.4630
  797MOL0     N 9900   1.360   5.746   1.250  0.5037  0.2434  0.3623
  797MOL0     C 9901   2.048   5.036   0.465 -0.0534 -0.3596 -0.4795
  797MOL0     C 9902   2.149   4.966   0.399  1.5202  0.7350  0.0385
  797MOL0     C 9903   2.460   4.662   0.272 -0.5067  0.2491  0.5514
  797MOL0     C 9904   2.414   4.532   0.302  0.7437  0.5359  0.3291
  797MOL0     C 9905   2.475   4.422   0.236  0.2519  0.1583 -0.5093
  797MOL0     C 9906   2.571   4.439   0.140  0.4326 -0.3914  0.0227
  797MOL0     O 9907   2.612   4.331   0.075 -0.2806 -0.3187 -0.7773
  797MOL0     C 9908   2.696   4.330  -0.039 -0.2996 -1.3857  0.3903
  797MOL0     C 9909   2.693   4.186  -0.092  0.2081  0.8100  0.0577
  797MOL0     C 9910   2.803   4.157  -0.190  0.1993  0.6032  0.6658
  797MOL0     C 9911   2.811   4.001  -0.212 -0.2164 -0.4542  0.1697
  797MOL0     C 9912   2.904   3.978  -0.317 -0.2336  0.5768  1.4529
  797MOL0     C 9913   2.976   3.923  -0.400  0.1232  0.2716  0.3682
  797MOL0     C 9914   2.626   4.571   0.121  0.1487  0.6684 -0.0506
  797MOL0     C 9915   2.577   4.686   0.182 -0.0519  0.6101  0.1096
  797MOL0     C 9916   2.645   4.817   0.160  1.2530 -0.0321 -0.2553
  797MOL0     H 9917   2.066   4.647   0.487  2.8295 -0.7647 -2.5082
  797MOL0     H 9918   1.899   4.775   0.620  0.4971  0.9727  2.1531
  797MOL0     H 9919   1.800   5.176   0.490  1.0400  0.3460 -0.3503
  797MOL0     H 9920   1.898   5.223   0.623  0.2401 -0.3566 -1.5146
  797MOL0     H 9921   1.614   5.106   0.682  1.0197 -0.9275  4.3302
  797MOL0     H 9922   1.727   5.148   0.794  3.4179  0.6158 -0.1179
  797MOL0     H 9923   1.606   5.342   0.581 -1.9489  0.8734  0.8315
  797MOL0     H 9924   1.535   5.324   0.740 -0.8794  1.6783 -1.8507
  797MOL0     H 9925   1.743   5.408   0.845 -1.3683  0.3388  0.4911
  797MOL0     H 9926   1.813   5.438   0.682  1.2331 -2.4282  0.8861
  797MOL0     H 9927   1.616   5.586   0.615  0.3269  2.4922  0.6091
  797MOL0     H 9928   1.718   5.646   0.743 -1.2371  2.3991 -1.1759
  797MOL0     H 9929   1.472   5.690   0.756  0.1017 -0.5025 -2.6478
  797MOL0     H 9930   1.442   5.517   0.776 -0.8822 -0.5014  2.2587
  797MOL0     H 9931   1.586   5.705   0.972  0.5135 -0.6554 -0.1898
  797MOL0     H 9932   1.601   5.523   0.983 -0.6772 -0.3823 -0.8064
  797MOL0     H 9933   1.326   5.648   1.005 -2.3659 -4.3735 -2.3949
  797MOL0     H 9934   1.382   5.489   1.046  0.1557  1.2992  1.2886
  797MOL0     H 9935   1.561   5.505   1.240 -2.2716  0.9421 -3.1785
  797MOL0     H 9936   1.638   5.567   1.528  0.1828 -0.1132 -1.6603
  797MOL0     H 9937   1.579   5.719   1.578  0.9822 -0.5176  0.6763
  797MOL0     H 9938   1.784   5.641   1.350 -0.6428 -0.1897  1.0640
  797MOL0     H 9939   1.744   5.810   1.376  1.4616  0.9335  0.0499
  797MOL0     H 9940   1.891   5.594   1.530 -4.0112 -0.1871 -2.1753
  797MOL0     H 9941   1.966   5.739   1.464 -0.0304 -0.0151 -0.6581
  797MOL0     H 9942   1.820   5.877   1.629  1.5559  0.5174  2.6835
  797MOL0     H 9943   1.780   5.721   1.707  1.8970 -3.5278 -0.4367
  797MOL0     H 9944   2.040   5.655   1.966  0.9990  0.4410 -0.0509
  797MOL0     H 9945   1.872   5.661   2.272  0.1967  0.0949  0.4793
  797MOL0     H 9946   2.049   5.681   2.272 -0.6747  2.5822  1.4632
  797MOL0     H 9947   1.980   5.577   2.156  2.7323  0.5883  0.0163
  797MOL0     H 9948   1.864   6.053   2.594 -0.0964 -0.2156 -0.7346
  797MOL0     H 9949   1.725   6.038   2.773 -0.0604  1.4102 -2.2431
  797MOL0     H 9950   1.466   5.876   2.990 -1.4217 -0.1399 -1.1024
  797MOL0     H 9951   1.605   5.959   2.952 -0.8961 -0.8059  3.1172
  797MOL0     H 9952   1.494   6.124   2.831  1.9553 -2.4187  0.7313
  797MOL0     H 9953   1.375   6.015   2.768 -0.8034  1.6273  0.7935
  797MOL0     H 9954   1.288   6.000   3.024 -2.0589 -0.0050 -1.9391
  797MOL0     H 9955   1.249   6.138   2.924 -0.0518  1.7222  2.6369
  797MOL0     H 9956   1.304   6.216   3.143  1.5703  2.8466  1.8172
  797MOL0     H 9957   1.387   6.286   3.002  3.6551 -2.9329 -2.9474
  797MOL0     H 9958   1.484   6.076   3.197 -0.1608 -1.3528 -1.8849
  797MOL0     H 9959   1.605   6.154   3.083  2.2922  0.8083  2.3065
  797MOL0     H 9960   1.526   6.382   3.203  0.3688 -0.4794  0.0060
  797MOL0     H 9961   1.664   6.272   3.254  0.2541  1.5349 -1.7705
  797MOL0     H 9962   1.556   6.153   3.413  1.3613 -0.1096 -4.5067
  797MOL0     H 9963   1.399   6.233   3.381  0.2142 -2.9908 -0.0192
  797MOL0     H 9964   1.633   6.391   3.472  0.3363 -1.3606 -2.3366
  797MOL0     H 9965   1.508   6.321   3.586 -0.8552  1.9297  1.1442
  797MOL0     H 9966   1.538   5.681   2.602 -0.0319 -1.2616  1.8188
  797MOL0     H 9967   1.649   5.735   2.391  0.5263  2.6652 -1.0848
  797MOL0     H 9968   1.750   6.052   2.033 -0.0616  1.3614 -0.6258
  797MOL0     H 9969   1.823   6.013   1.815 -0.3591  0.7861  0.7490
  797MOL0     H 9970   2.049   5.143   0.447 -2.7478  0.2544  2.2158
  797MOL0     H 9971   2.205   5.023   0.325 -0.1210  0.4257 -1.5303
  797MOL0     H 9972   2.323   4.520   0.359 -0.2930 -3.4114 -1.8141
  797MOL0     H 9973   2.427   4.325   0.236  0.3096  0.1298 -0.1490
  797MOL0     H 9974   2.655   4.392  -0.120  0.4552 -0.3700  0.7713
  797MOL0     H 9975   2.792   4.361   0.003 -0.9931  2.1047 -0.2935
  797MOL0     H 9976   2.603   4.171  -0.152  0.5698 -2.6093  0.1872
  797MOL0     H 9977   2.693   4.110  -0.014  2.1333 -0.4892 -1.1360
  797MOL0     H 9978   2.774   4.213  -0.280 -2.8976 -2.7445 -0.6956
  797MOL0     H 9979   2.905   4.188  -0.166  0.8626  0.7861 -2.0686
  797MOL0     H 9980   2.710   3.959  -0.219 -0.0823 -0.8371  0.4985
  797MOL0     H 9981   2.845   3.951  -0.121 -2.1628 -0.6371  0.8396
  797MOL0     H 9982   3.045   3.875  -0.466 -0.9245 -0.3993 -0.2632
  797MOL0     H 9983   2.706   4.588   0.050 -1.1018  2.3412 -1.1101
  797MOL0     H 9984   2.743   4.796   0.117  0.0286  0.2837 -3.4674
  797MOL0     H 9985   2.594   4.867   0.078 -0.9018  0.4714  1.3064
  797MOL0     H 9986   2.654   4.883   0.246  1.5517  1.7877 -1.6293
  798MOL0     O 9987   1.984   2.839   7.278 -0.5888  0.4626  0.8659
  798MOL0     C 9988   1.939   2.829   7.395 -0.2521 -0.2367  1.1556
  798MOL0     O 9989   1.806   2.819   7.421 -0.2536  0.4958  0.5792
  798MOL0     C 9990   1.714   2.850   7.325 -0.1145  0.5627 -0.8423
  798MOL0     C 9991   1.726   2.958   7.232 -0.0820  0.2209  0.4672
  798MOL0     C 9992   1.633   2.970   7.132 -0.5551  0.6003 -1.2388
  798MOL0     C 9993   1.522   2.890   7.122 -0.0368 -0.4773  0.9969
  798MOL0     O 9994   1.436   2.890   7.018 -0.5551  0.4581 -0.5134
  798MOL0     C 9995   1.465   2.955   6.898 -0.5882 -0.2899  0.2343
  798MOL0     C 9996   1.590   2.907   6.820 -0.0496  0.2091  0.6647
  798MOL0     C 9997   1.588   2.754   6.798  0.0054 -0.0395  0.1619
  798MOL0     C 9998   1.682   2.717   6.681  0.6880  0.2387  0.6812
  798MOL0     C 9999   1.673   2.558   6.664 -0.4878 -0.7948  0.3507
  798MOL0     C10000   1.767   2.497   6.563 -0.0525  0.3157 -0.1798
  798MOL0     C10001   1.768   2.344   6.571 -0.0348 -0.1318  1.2910
  798MOL0     C10002   1.870   2.288   6.667  0.1314  0.6234  0.0423
  798MOL0     N10003   1.853   2.141   6.641 -0.9333  0.7538 -0.5198
  798MOL0     C10004   1.782   2.069   6.738 -0.3887 -0.1934  0.0323
  798MOL0     C10005   1.860   1.955   6.739 -0.4109 -0.2722  0.2006
  798MOL0     C10006   1.847   1.843   6.834  0.2031 -0.4005  0.0961
  798MOL0     C10007   1.962   1.846   6.934 -0.0915 -0.4088 -0.2348
  798MOL0     C10008   1.958   1.958   7.035 -0.4953 -0.0758 -0.1573
  798MOL0     C10009   1.865   1.915   7.157 -0.9029 -0.2399  0.0059
  798MOL0     O10010   1.881   2.005   7.272  0.1084  0.4445  0.4623
  798MOL0     C10011   1.776   2.096   7.278  0.5368  0.0849  0.8189
  798MOL0     C10012   1.777   2.211   7.206  0.0655 -0.2043  0.0423
  798MOL0     C10013   1.666   2.304   7.202  0.3383  0.5751  0.0394
  798MOL0     C10014   1.667   2.418   7.100 -0.9898  0.3453  0.0098
  798MOL0     C10015   1.552   2.269   7.282 -0.1927  0.4096 -0.5045
  798MOL0     C10016   1.429   2.353   7.277  1.2306 -0.2910 -0.0413
  798MOL0     O10017   1.312   2.285   7.262  0.9821  0.5227 -0.5031
  798MOL0     C10018   1.194   2.345   7.234  0.2539  0.7011  0.4628
  798MOL0     C10019   1.157   2.479   7.243  0.2865  1.0181  0.5863
  798MOL0     C10020   1.027   2.521   7.223  0.1641  0.1413  0.6034
  798MOL0     C10021   0.926   2.429   7.182 -0.5752 -0.3657 -0.8695
  798MOL0     O10022   0.811   2.491   7.136  0.6094  0.4443  0.1751
  798MOL0     C10023   0.716   2.416   7.055 -0.5329 -1.1388  0.0105
  798MOL0     C10024   0.772   2.370   6.915  0.3558 -0.4067  0.7017
  798MOL0     C10025   0.882   2.440   6.847 -0.7526 -0.2264  0.4472
  798MOL0     C10026   0.845   2.590   6.805  0.1082  0.7502  0.6342
  798MOL0     C10027   0.961   2.673   6.773 -1.0155  0.5793  0.1182
  798MOL0     C10028   1.056   2.721   6.889 -0.4155  0.4381  1.0808
  798MOL0     C10029   0.978   2.805   6.988  0.1640  0.6006  0.5065
  798MOL0     C10030   1.076   2.905   7.061  0.2907  0.0103 -0.8204
  798MOL0    Cl10031   1.121   3.042   6.958  0.1227 -0.4957  0.0671
  798MOL0     C10032   0.958   2.292   7.165  0.1851 -0.5404  0.2208
  798MOL0     C10033   1.094   2.257   7.184 -0.0730  0.5349  0.1603
  798MOL0     O10034   1.451   2.471   7.310 -0.2401  0.2996 -0.1251
  798MOL0     C10035   1.552   2.157   7.362  0.3479 -0.1337  0.8484
  798MOL0     C10036   1.662   2.069   7.357  0.2978 -0.2158  0.3010
  798MOL0     N10037   1.959   1.953   6.644 -0.0263 -0.1628 -0.2310
  798MOL0     N10038   1.951   2.067   6.590 -0.5532 -0.2379 -0.6157
  798MOL0     C10039   1.503   2.786   7.215 -0.0846  0.7766 -0.4897
  798MOL0     C10040   1.602   2.773   7.317  0.7430  0.0194  0.2736
  798MOL0     C10041   2.032   2.826   7.513 -0.4918 -0.4147  0.0679
  798MOL0     C10042   1.982   2.831   7.643  0.5334 -0.1867 -0.7808
  798MOL0     C10043   2.059   2.829   7.760 -0.2427 -0.7999  0.1841
  798MOL0     C10044   2.198   2.811   7.749 -0.3241 -0.1034  0.9795
  798MOL0     O10045   2.282   2.830   7.857  0.8087 -1.0091  0.3294
  798MOL0     C10046   2.222   2.830   7.986  0.3557 -0.4158  0.3326
  798MOL0     C10047   2.320   2.796   8.092  0.0260 -0.1232 -0.2743
  798MOL0     C10048   2.258   2.833   8.231  0.3083 -0.3088  0.1355
  798MOL0     C10049   2.325   2.761   8.347  0.3461  0.7468  0.6083
  798MOL0     C10050   2.452   2.815   8.385  0.5394 -0.1497  0.8576
  798MOL0     C10051   2.564   2.856   8.423 -0.3878  0.5260 -0.6672
  798MOL0     C10052   2.250   2.814   7.626 -1.0660  0.3923 -0.4520
  798MOL0     C10053   2.174   2.822   7.504  0.1120 -0.2514  0.5105
  798MOL0     C10054   2.255   2.851   7.381 -0.1972 -0.0827  0.5328
  798MOL0     H10055   1.812   3.025   7.233  0.3004 -0.2138 -0.7626
  798MOL0     H10056   1.652   3.061   7.076  0.9962  0.3349 -1.1951
  798MOL0     H10057   1.479   3.061   6.921  4.0920 -0.4079 -1.1056
  798MOL0     H10058   1.376   2.954   6.834 -0.6507 -0.7570  0.3253
  798MOL0     H10059   1.592   2.954   6.721  0.0324 -2.7933 -0.8685
  798MOL0     H10060   1.679   2.931   6.878 -0.4191  0.6509  1.0667
  798MOL0     H10061   1.619   2.709   6.892 -1.7723  1.8958  1.7856
  798MOL0     H10062   1.490   2.710   6.776  1.0281 -0.7946 -3.6230
  798MOL0     H10063   1.643   2.762   6.589  0.9189 -1.7635 -0.4351
  798MOL0     H10064   1.782   2.758   6.698  0.6686  1.5680 -1.9259
  798MOL0     H10065   1.566   2.537   6.652 -0.9847  1.7071 -0.1906
  798MOL0     H10066   1.698   2.506   6.757 -1.8334 -0.8821  0.6876
  798MOL0     H10067   1.736   2.528   6.463 -1.0095 -0.4610 -0.1467
  798MOL0     H10068   1.870   2.530   6.573  0.4321 -1.2527  0.3357
  798MOL0     H10069   1.778   2.293   6.475 -0.9105 -1.8199  2.0323
  798MOL0     H10070   1.672   2.303   6.604  1.7163 -3.9290  2.2805
  798MOL0     H10071   1.970   2.328   6.645 -0.3000  0.4530 -2.5323
  798MOL0     H10072   1.835   2.313   6.768 -2.0171  3.0712 -1.2011
  798MOL0     H10073   1.696   2.098   6.797 -1.7135 -3.6362  0.0170
  798MOL0     H10074   1.851   1.750   6.777  3.5284 -1.6614  2.1270
  798MOL0     H10075   1.750   1.849   6.885  0.9037  0.1624  1.4103
  798MOL0     H10076   1.962   1.747   6.982 -2.4018 -0.0948  0.5253
  798MOL0     H10077   2.047   1.856   6.866 -1.0469  0.8149 -1.2834
  798MOL0     H10078   2.055   1.991   7.073 -1.7310  0.9772  2.3652
  798MOL0     H10079   1.906   2.046   6.996 -0.0814  1.9700  3.3681
  798MOL0     H10080   1.761   1.906   7.125 -1.6710 -0.1375  2.2979
  798MOL0     H10081   1.887   1.815   7.194 -3.0753 -0.0550  2.0404
  798MOL0     H10082   1.869   2.225   7.149  0.1885 -1.8666 -0.2113
  798MOL0     H10083   1.579   2.410   7.037 -0.9875 -3.4286  0.2432
  798MOL0     H10084   1.758   2.402   7.040 -3.1773 -3.8163 -2.6738
  798MOL0     H10085   1.679   2.511   7.157  2.5843 -1.2652  2.2751
  798MOL0     H10086   1.227   2.552   7.283 -2.3814  1.8367  4.3199
  798MOL0     H10087   1.003   2.626   7.237  2.3283  0.7424  0.2564
  798MOL0     H10088   0.690   2.328   7.114 -1.6803  0.4274  1.9775
  798MOL0     H10089   0.628   2.481   7.054 -0.0974 -0.5237  0.7754
  798MOL0     H10090   0.817   2.271   6.924 -1.0069 -1.0030  1.1595
  798MOL0     H10091   0.684   2.362   6.851 -1.5416  3.0292  2.5596
  798MOL0     H10092   0.906   2.384   6.756 -0.4576 -0.3819  0.6204
  798MOL0     H10093   0.970   2.436   6.912 -1.7737  0.8687  1.9543
  798MOL0     H10094   0.782   2.631   6.884 -2.0064  0.1507 -0.6501
  798MOL0     H10095   0.776   2.571   6.722  0.5011 -1.0879  0.6928
  798MOL0     H10096   1.022   2.614   6.704  0.3517  2.2678 -0.1866
  798MOL0     H10097   0.933   2.761   6.714  0.7140  1.0974  0.0311
  798MOL0     H10098   1.136   2.778   6.841 -2.6894  4.0205  1.1153
  798MOL0     H10099   1.101   2.632   6.934  2.3403  0.8030 -0.7046
  798MOL0     H10100   0.928   2.743   7.063 -0.0156  2.1500  1.7103
  798MOL0     H10101   0.906   2.867   6.934 -1.0162  0.5779  1.9927
  798MOL0     H10102   1.169   2.853   7.087 -1.4035 -3.5042 -1.1263
  798MOL0     H10103   1.023   2.944   7.149 -0.7317 -2.4394 -0.2559
  798MOL0     H10104   0.883   2.218   7.138 -1.7036  2.0580 -2.1809
  798MOL0     H10105   1.116   2.151   7.179 -1.9296  0.1302  0.1369
  798MOL0     H10106   1.459   2.127   7.410  0.2846 -2.6045 -0.6289
  798MOL0     H10107   1.657   1.973   7.408 -0.7817 -2.1691 -3.1582
  798MOL0     H10108   1.425   2.711   7.218  1.6732 -1.2001 -1.0624
  798MOL0     H10109   1.585   2.698   7.394  2.0690  0.3440  0.9012
  798MOL0     H10110   1.875   2.837   7.659  0.7384  1.0271  0.3215
  798MOL0     H10111   2.007   2.840   7.854 -1.9066 -0.6919 -0.7187
  798MOL0     H10112   2.163   2.918   8.013 -1.4881 -1.1330 -1.1559
  798MOL0     H10113   2.146   2.752   7.994 -2.1453  1.8903  0.5347
  798MOL0     H10114   2.417   2.846   8.081  0.7479 -1.1346  1.0594
  798MOL0     H10115   2.334   2.687   8.094  1.0109 -0.0112 -0.4663
  798MOL0     H10116   2.250   2.941   8.244 -1.4980 -0.4972  0.8677
  798MOL0     H10117   2.158   2.790   8.231  0.5752 -0.9634 -1.0343
  798MOL0     H10118   2.342   2.655   8.326 -1.7812  0.2885  0.9497
  798MOL0     H10119   2.261   2.765   8.436 -1.2570 -1.4812 -0.3555
  798MOL0     H10120   2.663   2.886   8.448 -0.0310 -0.4205 -0.9104
  798MOL0     H10121   2.358   2.822   7.618 -1.0949  0.2024 -1.0180
  798MOL0     H10122   2.247   2.765   7.314 -1.1729  1.0968 -0.9309
  798MOL0     H10123   2.229   2.944   7.329  1.7769  0.7863  0.9886
  798MOL0     H10124   2.360   2.858   7.411  0.0158  1.6311 -0.4813
  799MOL0     O10125   0.902   4.638   9.653 -0.4872  0.6833 -0.0292
  799MOL0     C10126   0.969   4.704   9.575 -0.0348 -1.1551  0.6534
  799MOL0     O10127   0.929   4.748   9.457  0.6122  0.2450 -0.4081
  799MOL0     C10128   0.818   4.685   9.399  0.5802  0.9237 -0.8091
  799MOL0     C10129   0.825   4.567   9.325  0.6445  0.6367 -0.6279
  799MOL0     C10130   0.715   4.513   9.261  1.3273  1.1055 -0.3631
  799MOL0     C10131   0.582   4.569   9.270  0.2545  0.1471 -0.3348
  799MOL0     O10132   0.472   4.524   9.190 -0.7100 -0.2810 -0.0763
  799MOL0     C10133   0.385   4.625   9.139 -0.3776 -0.1883 -0.1654
  799MOL0     C10134   0.341   4.573   9.005 -0.5635  0.6941 -0.1345
  799MOL0     C10135   0.198   4.614   8.968  0.3008 -0.2952 -0.4054
  799MOL0     C10136   0.164   4.585   8.822  0.3415  1.2885 -0.2951
  799MOL0     C10137   0.026   4.633   8.781  0.6962  0.3815  1.0332
  799MOL0     C10138   0.024   4.784   8.768  1.1803  0.1290  0.4920
  799MOL0     C10139  -0.111   4.839   8.720  0.0135  0.4716  0.0894
  799MOL0     C10140  -0.112   4.994   8.715  0.8998  0.2740  0.3762
  799MOL0     N10141  -0.246   5.036   8.772  0.1165  0.0500 -0.8260
  799MOL0     C10142  -0.284   5.065   8.903  0.1210 -0.3380  0.9270
  799MOL0     C10143  -0.418   5.071   8.910  0.3719  0.3091  0.5895
  799MOL0     C10144  -0.492   5.093   9.032  0.3408 -0.4315  0.1283
  799MOL0     C10145  -0.620   5.178   9.005 -0.7695  0.5153 -0.7280
  799MOL0     C10146  -0.716   5.197   9.125 -0.5592 -0.3746 -0.6028
  799MOL0     C10147  -0.704   5.124   9.267 -0.2271  0.7764  0.3212
  799MOL0     O10148  -0.700   4.983   9.246 -0.7599  0.7369  0.9060
  799MOL0     C10149  -0.694   4.888   9.343 -1.0739  0.5268  0.1386
  799MOL0     C10150  -0.667   4.755   9.305  0.0585 -0.2536 -0.1012
  799MOL0     C10151  -0.659   4.651   9.404 -0.2136  1.2665 -0.9443
  799MOL0     C10152  -0.645   4.509   9.351  0.4003  0.1722  0.4139
  799MOL0     C10153  -0.687   4.680   9.543 -0.1808  0.7047 -0.4552
  799MOL0     C10154  -0.698   4.579   9.652 -0.3067 -0.6191 -0.5072
  799MOL0     O10155  -0.728   4.632   9.778 -0.4419 -0.1945 -1.0987
  799MOL0     C10156  -0.762   4.547   9.884  0.5835  0.2019 -0.0467
  799MOL0     C10157  -0.648   4.480   9.945 -0.3740 -0.5116 -0.1566
  799MOL0     C10158  -0.674   4.385  10.046 -0.0235 -0.0283 -0.7487
  799MOL0     C10159  -0.806   4.371  10.093 -0.4506  0.3376 -0.2238
  799MOL0     O10160  -0.833   4.303  10.209  0.3520  0.2666  0.3275
  799MOL0     C10161  -0.723   4.234  10.283 -0.4170 -0.5520  0.4093
  799MOL0     C10162  -0.799   4.184  10.405 -1.2311 -0.4454  0.1213
  799MOL0     C10163  -0.733   4.071  10.478  0.5802 -0.2546  0.3548
  799MOL0     C10164  -0.746   3.930  10.403 -0.4258  0.4142  0.2333
  799MOL0     C10165  -0.877   3.852  10.442 -0.2726 -0.3333 -0.4483
  799MOL0     C10166  -0.866   3.780  10.576  0.0317  0.3437  0.2552
  799MOL0     C10167  -0.809   3.639  10.556 -0.2088 -0.2240  0.8117
  799MOL0     C10168  -0.842   3.549  10.670 -0.4693  0.1436 -0.2712
  799MOL0    Cl10169  -0.709   3.540  10.791 -0.1570  0.0426  0.2841
  799MOL0     C10170  -0.915   4.433  10.027  0.7013  0.8512  0.5799
  799MOL0     C10171  -0.889   4.519   9.924 -0.1832  0.4899  0.3688
  799MOL0     O10172  -0.669   4.463   9.633  0.3868 -0.6362  0.4581
  799MOL0     C10173  -0.713   4.819   9.567 -0.0088 -1.4834 -0.0574
  799MOL0     C10174  -0.708   4.923   9.475  0.2009  0.1510  0.1358
  799MOL0     N10175  -0.453   5.079   8.775  0.2033 -0.1288  0.1258
  799MOL0     N10176  -0.355   5.062   8.700  0.3798 -0.4402 -0.4987
  799MOL0     C10177   0.566   4.683   9.353  0.4351 -1.1372  0.0985
  799MOL0     C10178   0.683   4.734   9.416 -0.0477 -0.4264 -0.2267
  799MOL0     C10179   1.097   4.767   9.618  0.8611 -0.0623  0.1275
  799MOL0     C10180   1.206   4.742   9.537 -0.6181 -0.2720  0.0776
  799MOL0     C10181   1.338   4.781   9.564 -0.9767 -0.6005  2.1569
  799MOL0     C10182   1.355   4.825   9.694 -0.2663 -0.4674 -0.2844
  799MOL0     O10183   1.489   4.844   9.726  0.7436  0.3134  0.5536
  799MOL0     C10184   1.511   4.931   9.836 -0.1622  0.2332  0.3826
  799MOL0     C10185   1.661   4.924   9.856 -0.0892  0.2229 -0.2193
  799MOL0     C10186   1.692   5.000   9.986  0.0529 -0.3171 -0.0725
  799MOL0     C10187   1.677   4.912  10.112  0.4018 -0.3030  0.3580
  799MOL0     C10188   1.796   4.819  10.113 -0.0368 -0.7013 -0.1162
  799MOL0     C10189   1.886   4.736  10.111 -0.5416  0.7258  0.1020
  799MOL0     C10190   1.243   4.862   9.775  0.1967  0.1573 -0.1554
  799MOL0     C10191   1.115   4.835   9.737 -0.4103 -0.7742  0.1038
  799MOL0     C10192   1.010   4.877   9.840 -0.4513  0.4415 -1.6413
  799MOL0     H10193   0.926   4.531   9.312  1.2282  2.8659 -3.1313
  799MOL0     H10194   0.716   4.417   9.210  0.0011  0.0764  1.4280
  799MOL0     H10195   0.419   4.728   9.141 -0.0435 -0.2921  2.0311
  799MOL0     H10196   0.307   4.634   9.216 -3.1228 -0.9173 -2.6679
  799MOL0     H10197   0.401   4.611   8.923  0.4803  0.4895  0.5144
  799MOL0     H10198   0.340   4.464   9.003  0.2198  0.6512  0.7392
  799MOL0     H10199   0.123   4.572   9.035  0.4175 -1.5911 -1.0552
  799MOL0     H10200   0.200   4.723   8.980  1.7289 -0.4646  1.4558
  799MOL0     H10201   0.241   4.628   8.756  1.3271 -1.5381 -1.1221
  799MOL0     H10202   0.175   4.476   8.824 -5.1274  0.4636  2.3172
  799MOL0     H10203  -0.052   4.606   8.852  2.9939 -0.8289  3.2732
  799MOL0     H10204  -0.002   4.586   8.686 -2.0909  0.3808  1.7559
  799MOL0     H10205   0.041   4.835   8.863 -1.9627  0.7812  0.8182
  799MOL0     H10206   0.100   4.816   8.697  0.3442 -1.9681 -1.4528
  799MOL0     H10207  -0.191   4.806   8.787 -1.1394  1.0469 -0.9531
  799MOL0     H10208  -0.155   4.797   8.628 -2.8180 -2.4980  2.5409
  799MOL0     H10209  -0.047   5.039   8.791  3.4237 -1.1545 -0.8148
  799MOL0     H10210  -0.094   5.035   8.616 -1.0162 -0.4838 -0.3305
  799MOL0     H10211  -0.208   5.091   8.976 -0.0029 -2.9591  2.0967
  799MOL0     H10212  -0.423   5.141   9.102  0.5684 -2.7965  1.6503
  799MOL0     H10213  -0.519   4.993   9.066 -1.3114 -0.2967 -0.7043
  799MOL0     H10214  -0.597   5.281   8.975 -4.2984  2.8962  3.5188
  799MOL0     H10215  -0.677   5.136   8.922  0.1403  0.3710 -1.3011
  799MOL0     H10216  -0.712   5.305   9.146  1.9816 -0.3260 -1.0671
  799MOL0     H10217  -0.820   5.195   9.090 -1.2645  1.6348  1.1397
  799MOL0     H10218  -0.611   5.170   9.301 -2.1041  2.3149  3.8501
  799MOL0     H10219  -0.781   5.146   9.342  0.7423  1.7305  1.0685
  799MOL0     H10220  -0.665   4.729   9.200 -3.1471 -0.9633 -0.1060
  799MOL0     H10221  -0.684   4.508   9.249 -1.6882 -1.4633  1.1351
  799MOL0     H10222  -0.712   4.443   9.407 -0.8928  2.1458  1.3271
  799MOL0     H10223  -0.541   4.476   9.356  0.8765  1.6306  0.8111
  799MOL0     H10224  -0.546   4.499   9.913 -0.6507  0.1919 -0.6483
  799MOL0     H10225  -0.585   4.344  10.093  1.3260  0.2263 -2.9231
  799MOL0     H10226  -0.677   4.157  10.220 -0.8494 -1.2288  0.8975
  799MOL0     H10227  -0.636   4.296  10.305  1.3782 -1.6987 -2.7305
  799MOL0     H10228  -0.809   4.260  10.483 -1.1184  1.6644 -1.8011
  799MOL0     H10229  -0.899   4.163  10.364 -1.1698  3.4374 -2.5906
  799MOL0     H10230  -0.779   4.081  10.577 -0.0355 -1.8950  0.2639
  799MOL0     H10231  -0.625   4.086  10.484  0.9396 -0.1659 -3.8929
  799MOL0     H10232  -0.655   3.871  10.412 -2.0186 -2.1656  0.5484
  799MOL0     H10233  -0.751   3.957  10.297  1.2809 -2.1749 -0.5847
  799MOL0     H10234  -0.966   3.914  10.448 -0.2693 -0.3592 -0.0996
  799MOL0     H10235  -0.887   3.771  10.369  1.7806 -1.1930  0.1250
  799MOL0     H10236  -0.967   3.764  10.615 -0.2182  1.1478 -0.0325
  799MOL0     H10237  -0.814   3.836  10.654 -2.9971 -0.1264  2.8482
  799MOL0     H10238  -0.700   3.634  10.546  0.1045 -0.5082  3.7329
  799MOL0     H10239  -0.851   3.583  10.471 -1.6240 -1.7469  2.4488
  799MOL0     H10240  -0.855   3.446  10.634  2.8242 -0.6936  0.5767
  799MOL0     H10241  -0.928   3.586  10.726  2.3072  3.2471  2.3578
  799MOL0     H10242  -1.018   4.418  10.058  0.8666  1.9390  1.7636
  799MOL0     H10243  -0.964   4.569   9.864  0.3331  1.7999  0.7697
  799MOL0     H10244  -0.742   4.853   9.666  0.8307 -0.1818 -0.2383
  799MOL0     H10245  -0.738   5.027   9.492  4.6174  2.1663 -2.6073
  799MOL0     H10246   0.471   4.730   9.373  0.8183 -0.8406  1.3619
  799MOL0     H10247   0.663   4.819   9.482 -2.2860 -0.0497 -1.2841
  799MOL0     H10248   1.178   4.675   9.457 -2.9542 -0.3851  0.9138
  799MOL0     H10249   1.418   4.777   9.491 -2.7993  0.1553 -0.0013
  799MOL0     H10250   1.484   5.034   9.813 -1.3905  0.2168  1.6174
  799MOL0     H10251   1.460   4.906   9.930 -0.6918  0.0929  0.0634
  799MOL0     H10252   1.709   4.975   9.772  0.6081  0.9912  0.6237
  799MOL0     H10253   1.689   4.819   9.845 -2.9208 -0.5028 -1.6620
  799MOL0     H10254   1.793   5.042   9.990  0.0387 -0.3388  0.8133
  799MOL0     H10255   1.633   5.092   9.995  1.8289  0.8585  0.2075
  799MOL0     H10256   1.590   4.845  10.105  0.2958 -0.2900  1.4637
  799MOL0     H10257   1.669   4.976  10.200 -0.1670 -0.0311  0.1145
  799MOL0     H10258   1.950   4.650  10.119 -1.3829 -0.0237 -0.8863
  799MOL0     H10259   1.265   4.910   9.870 -0.9530 -2.7503  1.7260
  799MOL0     H10260   1.057   4.889   9.938 -2.7667  0.5845 -0.4682
  799MOL0     H10261   0.965   4.970   9.806 -0.0752  0.9557 -0.7652
  799MOL0     H10262   0.936   4.797   9.849 -0.6581  0.8457  1.0427
  800MOL0     O10263   8.689   7.503   9.159  0.2264  0.5088 -0.8775
  800MOL0     C10264   8.622   7.404   9.200  0.5448  1.1076 -0.3351
  800MOL0     O10265   8.611   7.367   9.331  0.1098  0.9440 -0.1722
  800MOL0     C10266   8.694   7.427   9.421  0.2794  0.5587 -0.2478
  800MOL0     C10267   8.637   7.478   9.533  0.8187  0.7430  0.0489
  800MOL0     C10268   8.710   7.544   9.620 -0.7208 -1.1049  0.3015
  800MOL0     C10269   8.841   7.559   9.613 -0.1003 -0.2413  0.4653
  800MOL0     O10270   8.918   7.629   9.712 -0.6221 -0.1032 -0.2315
  800MOL0     C10271   8.850   7.679   9.826 -0.5734  0.4010 -0.1400
  800MOL0     C10272   8.959   7.765   9.886 -0.9229  0.1441  0.3891
  800MOL0     C10273   8.915   7.835  10.018 -0.2160  0.0268 -0.1063
  800MOL0     C10274   8.852   7.744  10.116 -0.0568 -0.6770 -0.3487
  800MOL0     C10275   8.889   7.769  10.266 -0.3242  0.4117  0.1167
  800MOL0     C10276   9.021   7.701  10.314 -0.0854 -0.1394 -0.4060
  800MOL0     C10277   9.062   7.796  10.427 -1.1966 -0.3886  0.1502
  800MOL0     C10278   9.189   7.744  10.498  1.2129 -0.2379 -0.8530
  800MOL0     N10279   9.306   7.829  10.465  1.0116  0.1047 -1.1531
  800MOL0     C10280   9.353   7.818  10.338 -0.8321  0.1007 -0.6336
  800MOL0     C10281   9.407   7.939  10.313  0.5585  0.1326  0.0177
  800MOL0     C10282   9.456   7.996  10.182  0.2447  0.8310  0.7855
  800MOL0     C10283   9.613   7.988  10.181  0.1899 -0.6570  0.7129
  800MOL0     C10284   9.655   8.009  10.031 -0.1835 -1.3818 -0.0256
  800MOL0     C10285   9.811   7.997  10.020  0.3309 -0.0622  0.0411
  800MOL0     O10286   9.881   8.095  10.103 -0.4794 -0.7862  0.1977
  800MOL0     C10287   9.912   8.222  10.061  1.2441 -0.3755 -0.8590
  800MOL0     C10288   9.989   8.307  10.139  1.1355 -1.0549 -0.0208
  800MOL0     C10289  10.006   8.445  10.114  0.3862  0.6482 -0.1789
  800MOL0     C10290  10.067   8.529  10.217 -0.6769  0.3528 -0.1472
  800MOL0     C10291   9.955   8.486   9.993  0.2056  1.0110 -1.7100
  800MOL0     C10292   9.964   8.626   9.946  0.1993  0.2199 -0.5857
  800MOL0     O10293   9.871   8.665   9.857 -0.7527  0.8357 -1.1486
  800MOL0     C10294   9.897   8.774   9.779 -0.3304 -0.5539 -0.6532
  800MOL0     C10295   9.920   8.903   9.839 -0.1607 -0.4377 -0.6118
  800MOL0     C10296   9.923   9.024   9.770  0.7247 -1.1087  0.7328
  800MOL0     C10297   9.897   9.019   9.628  1.0009  0.2668 -0.2970
  800MOL0     O10298   9.898   9.123   9.543  1.1692 -0.2183  0.2534
  800MOL0     C10299   9.824   9.239   9.585  0.1058  1.1938 -0.8054
  800MOL0     C10300   9.829   9.345   9.479 -0.3590 -0.2309  0.1871
  800MOL0     C10301   9.962   9.431   9.492  0.2789  0.3839  0.5491
  800MOL0     C10302   9.959   9.559   9.413 -0.0617 -0.2543 -0.5510
  800MOL0     C10303  10.085   9.638   9.438 -0.0188 -0.4676 -0.1265
  800MOL0     C10304  10.096   9.744   9.322  0.3497  0.3681 -0.2003
  800MOL0     C10305  10.239   9.804   9.316 -0.1811  0.2230  0.4807
  800MOL0     C10306  10.263   9.862   9.176  0.5336  1.0115  0.7251
  800MOL0    Cl10307  10.141   9.988   9.129  0.0979 -0.3797 -0.1421
  800MOL0     C10308   9.868   8.891   9.570  0.3552 -0.6551  0.1923
  800MOL0     C10309   9.879   8.767   9.638  0.3155 -0.6364  0.0878
  800MOL0     O10310  10.066   8.690   9.968  0.4372 -0.5828  0.5806
  800MOL0     C10311   9.890   8.394   9.908  0.6529 -0.0697  0.5087
  800MOL0     C10312   9.866   8.271   9.945 -0.0714  1.2481  0.6965
  800MOL0     N10313   9.395   8.011  10.433 -0.0591  0.0936 -0.0183
  800MOL0     N10314   9.330   7.945  10.520  0.0511 -0.6734 -0.1022
  800MOL0     C10315   8.912   7.494   9.510 -0.0008  0.1024  0.1135
  800MOL0     C10316   8.834   7.435   9.413 -0.0952 -0.9037  1.1535
  800MOL0     C10317   8.530   7.329   9.115 -0.3215 -0.0095 -0.1592
  800MOL0     C10318   8.440   7.238   9.182 -0.2035 -0.0570  0.6282
  800MOL0     C10319   8.334   7.201   9.095  0.0650 -0.8460  0.1811
  800MOL0     C10320   8.337   7.201   8.951 -0.1826 -0.3373 -0.1690
  800MOL0     O10321   8.240   7.139   8.881 -0.5075 -0.3873 -0.1529
  800MOL0     C10322   8.242   6.996   8.881  0.4681  0.0107  0.7627
  800MOL0     C10323   8.173   6.929   8.768 -0.4049  0.7201 -0.7264
  800MOL0     C10324   8.210   6.993   8.630 -0.8175  0.2715  0.1094
  800MOL0     C10325   8.159   6.900   8.523 -0.8179  0.1076 -0.1869
  800MOL0     C10326   8.108   6.978   8.412 -0.3600  1.1149 -0.9464
  800MOL0     C10327   8.065   7.056   8.333  0.0798  0.1729  0.8962
  800MOL0     C10328   8.447   7.264   8.895  0.3284  0.6620  0.1966
  800MOL0     C10329   8.537   7.336   8.976 -0.4915 -0.6587  0.3718
  800MOL0     C10330   8.627   7.429   8.901  0.4542  0.3954  0.4196
  800MOL0     H10331   8.529   7.477   9.546  0.5639 -3.7849 -0.5469
  800MOL0     H10332   8.652   7.587   9.701 -0.1530  1.2017 -0.4267
  800MOL0     H10333   8.818   7.595   9.889 -2.4883  1.2012  0.0321
  800MOL0     H10334   8.768   7.744   9.794 -0.4562 -0.2132 -1.7836
  800MOL0     H10335   9.052   7.708   9.900 -1.7561 -1.7602 -1.2496
  800MOL0     H10336   8.982   7.839   9.809 -2.2968  0.0141 -0.1735
  800MOL0     H10337   8.999   7.890  10.062 -1.1405 -1.2995  3.6628
  800MOL0     H10338   8.834   7.907   9.999 -4.1371 -2.8802  3.6014
  800MOL0     H10339   8.744   7.741  10.097 -0.3517 -0.4718  1.1391
  800MOL0     H10340   8.887   7.643  10.094 -2.1061 -1.4116 -0.4841
  800MOL0     H10341   8.807   7.746  10.335  0.7246 -1.5136  0.7916
  800MOL0     H10342   8.904   7.877  10.260  0.2863  0.2794 -0.8471
  800MOL0     H10343   8.995   7.604  10.357  0.5694  1.0042  2.7815
  800MOL0     H10344   9.089   7.697  10.228  1.0057  0.6963  0.4115
  800MOL0     H10345   8.984   7.814  10.502 -0.4964  0.8848  0.6066
  800MOL0     H10346   9.095   7.897  10.400  0.8036 -1.1164 -0.3052
  800MOL0     H10347   9.177   7.760  10.606 -0.0722  0.7748 -1.1324
  800MOL0     H10348   9.205   7.640  10.468 -0.5317 -0.5666 -0.7119
  800MOL0     H10349   9.349   7.734  10.270  0.9950  1.3268 -2.3773
  800MOL0     H10350   9.418   8.097  10.166  0.7285  0.7904 -0.7810
  800MOL0     H10351   9.416   7.933  10.102  1.1230 -1.3645  1.9654
  800MOL0     H10352   9.663   8.056  10.251 -3.2139 -1.0059  3.8038
  800MOL0     H10353   9.638   7.889  10.220  0.3235 -0.7717  0.3438
  800MOL0     H10354   9.614   7.933   9.964 -1.6311 -0.0925 -0.6511
  800MOL0     H10355   9.618   8.108  10.004  0.0815 -0.4454  2.7679
  800MOL0     H10356   9.825   7.890  10.041 -5.2020 -1.2684 -0.8352
  800MOL0     H10357   9.840   7.996   9.914 -0.1731 -0.9241 -0.0977
  800MOL0     H10358  10.016   8.272  10.239  0.4087 -1.9889 -0.1444
  800MOL0     H10359  10.175   8.511  10.215 -0.8761 -0.9323 -0.3482
  800MOL0     H10360  10.025   8.497  10.312  1.9258  0.6726  1.1998
  800MOL0     H10361  10.063   8.637  10.206  0.3276  0.3729 -0.4945
  800MOL0     H10362   9.930   8.915   9.947  0.9539  0.1519 -0.7649
  800MOL0     H10363   9.945   9.121   9.814 -1.5083  1.4163 -3.0612
  800MOL0     H10364   9.717   9.213   9.587  0.0846  1.2869 -0.5926
  800MOL0     H10365   9.858   9.281   9.680  2.2379  1.2359 -1.5333
  800MOL0     H10366   9.816   9.303   9.379  0.6533  2.5378 -1.2124
  800MOL0     H10367   9.745   9.411   9.502 -0.7119  0.4669 -2.7655
  800MOL0     H10368  10.030   9.358   9.447 -0.4266 -1.0965  1.7867
  800MOL0     H10369   9.988   9.437   9.598 -0.3420 -0.7491  0.7896
  800MOL0     H10370   9.861   9.600   9.438 -1.2288 -3.5404  0.8170
  800MOL0     H10371   9.950   9.540   9.306 -1.6997 -2.4309 -0.1184
  800MOL0     H10372  10.080   9.689   9.535  1.8377 -0.1653 -0.1540
  800MOL0     H10373  10.173   9.573   9.438 -0.6968 -1.4604 -2.1752
  800MOL0     H10374  10.024   9.825   9.340 -1.9944 -1.2540 -1.5762
  800MOL0     H10375  10.063   9.692   9.231 -3.5164  0.4436  0.9872
  800MOL0     H10376  10.309   9.723   9.340  0.2738  1.1294  2.4049
  800MOL0     H10377  10.246   9.879   9.396  1.5695  1.5825 -0.8762
  800MOL0     H10378  10.260   9.774   9.110  1.4761  0.4454  1.4114
  800MOL0     H10379  10.365   9.901   9.169 -0.1806  3.1793  1.6546
  800MOL0     H10380   9.831   8.900   9.468 -0.8379  1.3121  0.7360
  800MOL0     H10381   9.843   8.670   9.604 -0.5039  0.1897 -1.5179
  800MOL0     H10382   9.856   8.429   9.811 -2.0026  2.6034  2.2149
  800MOL0     H10383   9.813   8.196   9.887  0.0140 -0.8025  3.1249
  800MOL0     H10384   9.020   7.495   9.504  0.0869 -1.1641  1.0636
  800MOL0     H10385   8.885   7.394   9.327 -0.4508  0.5107  0.2455
  800MOL0     H10386   8.443   7.223   9.289  2.8352 -1.4223  0.4312
  800MOL0     H10387   8.251   7.145   9.137 -1.5697  1.8877  0.8651
  800MOL0     H10388   8.348   6.969   8.875  0.3485 -1.4874  3.7507
  800MOL0     H10389   8.224   6.938   8.972 -0.0360 -0.0280  0.6436
  800MOL0     H10390   8.066   6.919   8.787  0.0652 -1.4774  1.0884
  800MOL0     H10391   8.204   6.824   8.770 -0.5351  0.6986  0.5119
  800MOL0     H10392   8.171   7.094   8.615 -0.2145  0.4313 -0.4422
  800MOL0     H10393   8.315   7.022   8.619 -1.6546  4.6801  1.6918
  800MOL0     H10394   8.077   6.831   8.546 -0.5897 -0.7271 -1.7527
  800MOL0     H10395   8.250   6.848   8.493 -1.5681 -1.1070 -0.4018
  800MOL0     H10396   8.026   7.125   8.260  0.6076 -1.0421 -0.5903
  800MOL0     H10397   8.453   7.273   8.787 -2.9736  5.6183  0.1014
  800MOL0     H10398   8.731   7.404   8.924  0.6798  1.4611  0.6310
  800MOL0     H10399   8.613   7.417   8.793  1.0445  0.4294  0.3337
  800MOL0     H10400   8.608   7.535   8.917 -1.7352  0.0875  0.1270
  801MOL0     O10401   8.690   1.895  10.671 -1.5234  0.8907 -0.5126
  801MOL0     C10402   8.775   1.840  10.604 -0.6229 -0.0169 -0.2945
  801MOL0     O10403   8.783   1.703  10.574  0.5650  0.5387  0.2876
  801MOL0     C10404   8.706   1.615  10.644 -0.6237  0.7352 -0.5438
  801MOL0     C10405   8.765   1.485  10.669  0.2194 -1.1407 -0.8019
  801MOL0     C10406   8.708   1.389  10.748 -0.2063  0.1626 -0.3647
  801MOL0     C10407   8.574   1.410  10.797  0.3436 -0.4848 -0.1885
  801MOL0     O10408   8.503   1.318  10.878  0.2673 -0.5103  0.1676
  801MOL0     C10409   8.512   1.173  10.836  0.2626  0.1297  0.3379
  801MOL0     C10410   8.381   1.102  10.859  0.0040 -0.2477 -0.5000
  801MOL0     C10411   8.366   1.030  10.992 -0.7259 -0.0908  0.3267
  801MOL0     C10412   8.255   0.937  10.994  0.6602 -0.4007  0.5918
  801MOL0     C10413   8.230   0.883  11.127  0.2106 -0.2766 -0.1131
  801MOL0     C10414   8.104   0.811  11.145  0.3128 -0.4307 -0.1419
  801MOL0     C10415   8.069   0.763  11.291  0.1247  0.8325  0.3126
  801MOL0     C10416   7.928   0.679  11.288 -0.1249  0.3211  1.2340
  801MOL0     N10417   7.877   0.653  11.413 -0.4355  0.6571  1.3701
  801MOL0     C10418   7.905   0.533  11.478 -0.0945  0.4422  0.0703
  801MOL0     C10419   7.824   0.544  11.585 -0.3975  0.3010  0.1472
  801MOL0     C10420   7.815   0.457  11.708 -0.1724  0.0271 -0.2072
  801MOL0     C10421   7.950   0.392  11.756  1.0381 -0.6989 -1.4194
  801MOL0     C10422   8.023   0.502  11.843 -0.5562  0.2483 -0.7732
  801MOL0     C10423   8.053   0.635  11.772 -0.6109  0.6025  0.0314
  801MOL0     O10424   8.136   0.600  11.653  0.4672  0.0333  0.6201
  801MOL0     C10425   8.211   0.701  11.600  0.0257  0.5631  0.1946
  801MOL0     C10426   8.318   0.642  11.528 -0.6556 -0.2565  0.6829
  801MOL0     C10427   8.423   0.728  11.465  0.1477  0.2717 -0.0301
  801MOL0     C10428   8.532   0.655  11.393 -1.0307  0.7505  0.7909
  801MOL0     C10429   8.405   0.874  11.479  0.1134  0.2745 -0.0322
  801MOL0     C10430   8.499   0.973  11.403  0.7578 -0.1761 -0.2801
  801MOL0     O10431   8.575   0.942  11.294 -0.7510  0.5161  0.4475
  801MOL0     C10432   8.660   1.036  11.241  0.1546  0.1503  0.0055
  801MOL0     C10433   8.795   1.007  11.255 -0.4167 -0.0309  0.4191
  801MOL0     C10434   8.891   1.099  11.230 -0.3867  0.7330 -0.3545
  801MOL0     C10435   8.870   1.226  11.180  0.8084  0.1051 -0.1999
  801MOL0     O10436   8.964   1.312  11.141 -1.4282 -0.1294  0.1223
  801MOL0     C10437   8.954   1.396  11.020  0.9037  0.1882  0.3724
  801MOL0     C10438   8.895   1.530  11.053 -0.6419  0.3167  0.7308
  801MOL0     C10439   8.989   1.649  11.044 -0.2613 -0.0397  0.5984
  801MOL0     C10440   9.045   1.668  10.898 -1.5701 -0.2157  0.1290
  801MOL0     C10441   9.170   1.745  10.911 -0.3774 -0.5233  0.1190
  801MOL0     C10442   9.293   1.669  10.950 -0.3491  0.2527  0.1969
  801MOL0     C10443   9.350   1.705  11.089 -0.2345 -0.3967  0.8435
  801MOL0     C10444   9.425   1.591  11.151  0.4495 -0.2151 -0.9594
  801MOL0    Cl10445   9.299   1.472  11.206  0.0819  0.2780  0.3989
  801MOL0     C10446   8.737   1.257  11.149 -0.6203  0.5181  0.4899
  801MOL0     C10447   8.637   1.167  11.193 -0.1912  0.0321 -1.1273
  801MOL0     O10448   8.502   1.085  11.455 -0.0945  0.0863  0.0243
  801MOL0     C10449   8.286   0.924  11.553 -0.8548  0.3305  0.0334
  801MOL0     C10450   8.196   0.837  11.612  0.0939  0.4060 -0.2370
  801MOL0     N10451   7.752   0.660  11.576  0.5166 -0.3027 -0.0489
  801MOL0     N10452   7.782   0.723  11.466 -0.1525  0.0334  0.0597
  801MOL0     C10453   8.507   1.527  10.761 -0.6742  0.3847  0.2240
  801MOL0     C10454   8.570   1.630  10.679 -0.7686  1.2336 -0.2425
  801MOL0     C10455   8.884   1.919  10.538  0.2675 -0.2461  0.1854
  801MOL0     C10456   9.019   1.856  10.536  1.1050 -0.9810  0.3847
  801MOL0     C10457   9.127   1.914  10.485 -0.2895  0.7688 -0.4048
  801MOL0     C10458   9.113   2.057  10.447 -0.3432  0.0711 -0.2296
  801MOL0     O10459   9.210   2.115  10.377 -0.3820 -0.0970  0.3297
  801MOL0     C10460   9.266   2.225  10.451 -0.6653 -0.1123  0.1882
  801MOL0     C10461   9.343   2.319  10.359  0.3391  0.3438  0.9370
  801MOL0     C10462   9.407   2.432  10.457  0.8130 -0.1343  1.1481
  801MOL0     C10463   9.461   2.544  10.371 -1.8976  0.2058  0.9065
  801MOL0     C10464   9.593   2.500  10.319 -0.4670 -0.1670 -0.8464
  801MOL0     C10465   9.694   2.467  10.266  0.2990 -0.0889 -0.1332
  801MOL0     C10466   8.991   2.114  10.460  0.1712 -0.1780 -0.0738
  801MOL0     C10467   8.874   2.051  10.492 -0.3581 -0.3462  0.5402
  801MOL0     C10468   8.740   2.131  10.500  0.0496 -0.8232  0.0955
  801MOL0     H10469   8.864   1.480  10.625  0.8473  1.8397  0.0568
  801MOL0     H10470   8.758   1.295  10.766  1.8324  0.2869 -4.3168
  801MOL0     H10471   8.590   1.126  10.898  0.5405  0.0281 -0.0876
  801MOL0     H10472   8.550   1.181  10.734  1.9860  2.8275  1.0672
  801MOL0     H10473   8.300   1.177  10.859 -2.1299 -2.3851  1.7213
  801MOL0     H10474   8.357   1.032  10.779 -1.6761  1.4232 -1.5535
  801MOL0     H10475   8.463   0.983  11.010 -0.4120 -0.2537 -1.6268
  801MOL0     H10476   8.349   1.111  11.065  1.0486  0.3609  0.2941
  801MOL0     H10477   8.163   0.985  10.959  0.5202  1.0265  2.7324
  801MOL0     H10478   8.264   0.862  10.914  0.0964  0.7261 -0.5663
  801MOL0     H10479   8.237   0.963  11.201  0.4241 -2.2632  2.1352
  801MOL0     H10480   8.310   0.812  11.152  1.7660  1.1423 -0.8395
  801MOL0     H10481   8.029   0.888  11.123  0.7248 -0.1464 -0.5846
  801MOL0     H10482   8.083   0.729  11.076  2.2902 -0.9359 -0.1996
  801MOL0     H10483   8.052   0.852  11.352 -0.9124 -0.8098  2.5739
  801MOL0     H10484   8.149   0.708  11.341 -0.2949  0.4449  0.5625
  801MOL0     H10485   7.854   0.725  11.222  2.6252  3.0507 -0.1845
  801MOL0     H10486   7.951   0.588  11.232  0.0324  2.2797 -2.1752
  801MOL0     H10487   7.963   0.448  11.446 -2.5866 -1.7131  0.9565
  801MOL0     H10488   7.750   0.373  11.682  0.2911  0.0541 -1.5175
  801MOL0     H10489   7.769   0.513  11.790  1.6843  0.0329  0.8760
  801MOL0     H10490   7.912   0.312  11.820 -0.2719  0.3001 -0.9022
  801MOL0     H10491   8.006   0.358  11.668  1.8161  1.8601 -2.0057
  801MOL0     H10492   7.967   0.508  11.937 -2.7920 -0.5138 -1.9936
  801MOL0     H10493   8.123   0.461  11.862 -0.0126  2.4034  1.5653
  801MOL0     H10494   7.956   0.676  11.747 -0.9387 -0.5286 -0.6324
  801MOL0     H10495   8.098   0.708  11.840 -5.2804  1.2129  2.8752
  801MOL0     H10496   8.332   0.536  11.509 -1.5823 -0.5264  1.4685
  801MOL0     H10497   8.540   0.684  11.288  2.2341 -0.6475  0.5299
  801MOL0     H10498   8.523   0.546  11.389  1.5008  0.5304 -1.6681
  801MOL0     H10499   8.631   0.670  11.436  0.4053 -0.6683 -1.8024
  801MOL0     H10500   8.815   0.906  11.289 -0.2603 -0.3229 -0.5052
  801MOL0     H10501   8.992   1.059  11.239 -0.5771  0.5104  1.0578
  801MOL0     H10502   9.062   1.404  11.004  1.3957  0.8414  3.4487
  801MOL0     H10503   8.900   1.343  10.941  1.8419  1.8342 -1.4702
  801MOL0     H10504   8.809   1.550  10.989 -2.3922 -1.8749  2.2048
  801MOL0     H10505   8.865   1.521  11.158 -1.4013  0.3727  0.5224
  801MOL0     H10506   9.074   1.640  11.112  3.2122  2.0257 -3.0793
  801MOL0     H10507   8.939   1.742  11.071 -0.9880 -0.4258  0.6192
  801MOL0     H10508   8.974   1.719  10.834 -0.9509  1.9325  1.0581
  801MOL0     H10509   9.061   1.573  10.846  1.9860  0.3861 -0.1462
  801MOL0     H10510   9.196   1.798  10.819  0.9087 -0.8081  0.3016
  801MOL0     H10511   9.154   1.827  10.981 -2.7123 -1.8243  1.2453
  801MOL0     H10512   9.355   1.680  10.861  1.8213 -1.3173  1.4194
  801MOL0     H10513   9.259   1.565  10.957 -0.5537  0.2880 -0.2545
  801MOL0     H10514   9.269   1.738  11.154 -0.3527  0.7644  0.1239
  801MOL0     H10515   9.418   1.788  11.070 -0.8909 -0.6367 -3.7243
  801MOL0     H10516   9.479   1.637  11.234 -0.8573  0.7617 -0.6254
  801MOL0     H10517   9.493   1.537  11.084  0.5094  0.2794 -1.2979
  801MOL0     H10518   8.706   1.354  11.111  0.0501  0.2979 -0.6741
  801MOL0     H10519   8.541   1.215  11.176  0.6081  0.5851 -5.1508
  801MOL0     H10520   8.267   1.030  11.569  2.4743  0.6874  2.7549
  801MOL0     H10521   8.119   0.877  11.677 -2.0216 -1.8532 -1.2156
  801MOL0     H10522   8.411   1.561  10.798 -0.2584 -2.1188  4.1753
  801MOL0     H10523   8.509   1.717  10.656 -2.8402 -0.1330 -0.1371
  801MOL0     H10524   9.034   1.757  10.580 -0.3693 -0.5346  2.0247
  801MOL0     H10525   9.228   1.875  10.480 -0.4729  0.1688  0.3433
  801MOL0     H10526   9.184   2.279  10.499 -1.1452 -2.9453  2.8361
  801MOL0     H10527   9.324   2.181  10.533 -1.8115 -1.1704  0.4513
  801MOL0     H10528   9.265   2.364  10.297 -2.6136 -2.9655  1.9191
  801MOL0     H10529   9.416   2.258  10.307 -0.4932  0.5814 -0.5586
  801MOL0     H10530   9.326   2.475  10.515 -0.8690 -2.2012  0.4521
  801MOL0     H10531   9.486   2.386  10.517 -0.9136 -2.8243  1.5419
  801MOL0     H10532   9.480   2.635  10.429  1.9076  1.1377 -1.4506
  801MOL0     H10533   9.393   2.570  10.289 -1.7563  5.8764  2.1744
  801MOL0     H10534   9.786   2.423  10.233 -0.4230 -1.9326  0.1861
  801MOL0     H10535   8.984   2.222  10.445 -0.5150 -0.0842  0.7888
  801MOL0     H10536   8.672   2.057  10.457  0.7560 -0.8834 -0.9592
  801MOL0     H10537   8.715   2.145  10.606 -0.8789  0.2533 -0.2502
  801MOL0     H10538   8.720   2.224  10.447 -3.4964 -1.5565 -0.1316
  802MOL0     O10539   8.126   5.108   4.233  0.2448  0.0779  0.2726
  802MOL0     C10540   8.007   5.091   4.196 -0.4985 -0.3204  0.1925
  802MOL0     O10541   7.932   4.988   4.223 -0.0846  0.5956 -0.3874
  802MOL0     C10542   7.976   4.902   4.314 -0.7097 -0.2137  0.4601
  802MOL0     C10543   7.989   4.930   4.452 -0.1187 -0.3238  0.7554
  802MOL0     C10544   8.056   4.841   4.536  0.8764  0.6726  0.1439
  802MOL0     C10545   8.087   4.711   4.488 -0.6109  0.4836 -0.4132
  802MOL0     O10546   8.154   4.608   4.559  0.6495  0.9060  0.0733
  802MOL0     C10547   8.147   4.610   4.697 -0.7124 -0.2320 -0.0466
  802MOL0     C10548   8.195   4.476   4.742 -0.4777  0.4688 -1.1606
  802MOL0     C10549   8.340   4.444   4.715  0.4365 -0.0419  0.0625
  802MOL0     C10550   8.371   4.299   4.746  0.2061 -0.3734 -0.2612
  802MOL0     C10551   8.504   4.259   4.679 -0.0606  0.1445 -0.3041
  802MOL0     C10552   8.633   4.333   4.724  0.4683  0.2575 -0.2517
  802MOL0     C10553   8.693   4.315   4.868 -0.1086  0.4070 -0.3460
  802MOL0     C10554   8.788   4.425   4.898 -0.7348 -0.0197 -0.3943
  802MOL0     N10555   8.863   4.380   5.016 -0.7137  0.3537  0.0586
  802MOL0     C10556   8.812   4.368   5.144  0.3656  0.0531  0.7218
  802MOL0     C10557   8.901   4.299   5.210  0.5096 -0.5383  0.5484
  802MOL0     C10558   8.900   4.251   5.350 -0.7849 -0.5372 -0.3897
  802MOL0     C10559   8.912   4.372   5.454  0.0454 -0.2051  0.6221
  802MOL0     C10560   8.852   4.326   5.593 -0.5541 -0.3053  0.6773
  802MOL0     C10561   8.945   4.237   5.676  0.7746  0.3683  0.3866
  802MOL0     O10562   9.045   4.304   5.742  0.3047  0.0386 -0.5310
  802MOL0     C10563   9.014   4.382   5.842  0.2440 -0.1402  0.9776
  802MOL0     C10564   9.123   4.461   5.879  0.3202  0.4486 -0.5570
  802MOL0     C10565   9.120   4.547   5.995  0.5330  0.0376  0.9149
  802MOL0     C10566   9.248   4.619   6.020  0.1526 -0.4649 -0.7348
  802MOL0     C10567   9.004   4.533   6.087 -0.1300  0.4970 -0.4108
  802MOL0     C10568   8.983   4.604   6.212 -0.4483 -0.2739  0.5250
  802MOL0     O10569   8.892   4.563   6.294 -0.4670  0.4903  1.3646
  802MOL0     C10570   8.863   4.649   6.396  0.1750  0.1743  0.4662
  802MOL0     C10571   8.752   4.729   6.382  0.1146 -0.0502  0.1743
  802MOL0     C10572   8.702   4.810   6.487 -0.2092 -0.9073 -0.2126
  802MOL0     C10573   8.780   4.812   6.602  0.6407  0.0364  0.3484
  802MOL0     O10574   8.746   4.902   6.703  0.5289  0.4661  0.3827
  802MOL0     C10575   8.859   4.961   6.769  0.4429 -0.1735 -0.8925
  802MOL0     C10576   8.804   5.079   6.847 -0.2477  0.3706  0.0645
  802MOL0     C10577   8.730   5.059   6.990  0.4983 -0.2035  0.3116
  802MOL0     C10578   8.587   5.021   6.977  0.9660  0.0134  0.2804
  802MOL0     C10579   8.529   4.992   7.113 -0.0463 -0.2992 -0.9931
  802MOL0     C10580   8.386   4.939   7.103  0.7481  0.4215  0.4075
  802MOL0     C10581   8.334   4.895   7.246 -0.3217  1.2956 -0.1123
  802MOL0     C10582   8.198   4.826   7.238  0.3295  0.7900 -0.1739
  802MOL0    Cl10583   8.061   4.937   7.237  0.4630  0.7661 -0.0134
  802MOL0     C10584   8.890   4.725   6.620 -0.3703  0.3702  1.3018
  802MOL0     C10585   8.923   4.639   6.520  0.6902  1.2590 -0.0697
  802MOL0     O10586   9.046   4.714   6.215  0.0271  0.6571  0.0584
  802MOL0     C10587   8.902   4.435   6.050 -0.1965 -0.3314 -0.7304
  802MOL0     C10588   8.914   4.364   5.932 -0.3225 -0.9764  0.6731
  802MOL0     N10589   9.016   4.278   5.125  0.4755  0.4584 -0.1112
  802MOL0     N10590   8.985   4.318   5.007 -0.4687  0.1142  0.1250
  802MOL0     C10591   8.064   4.681   4.352  1.5668 -0.9427  0.2946
  802MOL0     C10592   8.009   4.776   4.267 -0.0654  0.1096 -0.1287
  802MOL0     C10593   7.959   5.186   4.093  0.6013  0.1980  0.7143
  802MOL0     C10594   7.877   5.301   4.124 -0.2601 -0.2453  0.2019
  802MOL0     C10595   7.804   5.374   4.020 -0.2537 -0.6500 -1.0494
  802MOL0     C10596   7.821   5.343   3.882 -0.6242  0.8769  0.3574
  802MOL0     O10597   7.759   5.430   3.794  0.4340 -0.4635  0.9932
  802MOL0     C10598   7.745   5.393   3.657 -0.5318 -0.1336 -0.4590
  802MOL0     C10599   7.641   5.485   3.598 -0.2192 -0.6181  0.0610
  802MOL0     C10600   7.499   5.431   3.610 -0.0900  0.0239  0.2590
  802MOL0     C10601   7.395   5.511   3.531  0.0765 -0.8049  0.2372
  802MOL0     C10602   7.362   5.633   3.600  0.5427  0.3311  0.0436
  802MOL0     C10603   7.357   5.730   3.673  0.1577 -0.3025  1.2707
  802MOL0     C10604   7.891   5.225   3.853  0.6351  0.2496  0.6636
  802MOL0     C10605   7.960   5.154   3.954  0.0916  0.7665 -0.3082
  802MOL0     C10606   8.022   5.037   3.900 -0.1133 -0.1298 -0.0532
  802MOL0     H10607   7.965   5.031   4.485 -0.6961 -0.9528  2.3345
  802MOL0     H10608   8.064   4.868   4.641 -1.5860  0.4178  0.4678
  802MOL0     H10609   8.046   4.612   4.740  0.1994 -3.2663  2.6210
  802MOL0     H10610   8.208   4.687   4.745 -0.0374 -2.7523  3.4992
  802MOL0     H10611   8.176   4.482   4.850 -2.9358 -1.3721 -1.3859
  802MOL0     H10612   8.131   4.390   4.721  0.8348 -1.0553  0.7306
  802MOL0     H10613   8.362   4.466   4.611 -1.8996  0.2186 -0.4372
  802MOL0     H10614   8.403   4.507   4.779  1.8646 -1.0115 -0.3418
  802MOL0     H10615   8.366   4.279   4.854  0.2727  1.8042  0.2079
  802MOL0     H10616   8.294   4.243   4.694  0.7766  0.3159 -1.9056
  802MOL0     H10617   8.509   4.279   4.571 -0.0871 -0.7790 -0.4895
  802MOL0     H10618   8.517   4.151   4.691  1.1418  0.2266 -0.7144
  802MOL0     H10619   8.711   4.297   4.658  1.0958  3.0998 -1.1783
  802MOL0     H10620   8.616   4.440   4.713 -0.6841  0.1006 -0.1709
  802MOL0     H10621   8.745   4.219   4.860  1.3479  1.2121 -0.9961
  802MOL0     H10622   8.609   4.319   4.938  0.2618  0.0982  0.1236
  802MOL0     H10623   8.863   4.445   4.822 -0.9564  4.2023  0.2552
  802MOL0     H10624   8.742   4.520   4.926  0.4387 -0.2931  2.9730
  802MOL0     H10625   8.713   4.401   5.173  0.0931  1.7352 -1.8231
  802MOL0     H10626   8.970   4.167   5.360 -0.7597 -0.6584 -1.4864
  802MOL0     H10627   8.802   4.207   5.373 -0.7852  0.8724  2.8173
  802MOL0     H10628   9.014   4.406   5.468  0.0426 -0.8372  2.5132
  802MOL0     H10629   8.852   4.454   5.414 -1.3277 -1.0108  0.9127
  802MOL0     H10630   8.831   4.417   5.650 -0.2861  1.5763 -2.0576
  802MOL0     H10631   8.756   4.275   5.586 -1.6810  1.7509  0.2796
  802MOL0     H10632   8.883   4.180   5.745  0.1680 -1.5099 -1.5679
  802MOL0     H10633   8.989   4.162   5.609 -2.7550  0.2152 -2.0461
  802MOL0     H10634   9.201   4.464   5.803 -1.3752 -0.9110 -2.4739
  802MOL0     H10635   9.227   4.718   6.062  2.0544 -1.9841  4.6893
  802MOL0     H10636   9.307   4.639   5.931 -0.4590  0.4320 -0.9526
  802MOL0     H10637   9.319   4.580   6.093 -1.5970  0.0126  1.3377
  802MOL0     H10638   8.706   4.728   6.284 -0.4576  3.1421  0.3158
  802MOL0     H10639   8.614   4.873   6.475  0.6479  0.6560  1.2106
  802MOL0     H10640   8.905   4.890   6.839 -0.2932 -1.5996 -1.8188
  802MOL0     H10641   8.925   5.006   6.695 -0.1097  3.1252  0.4251
  802MOL0     H10642   8.887   5.148   6.860 -0.7856  0.9747  0.3512
  802MOL0     H10643   8.740   5.139   6.782 -0.6725  0.6099  0.6937
  802MOL0     H10644   8.740   5.140   7.062 -1.2004 -0.4531  0.8838
  802MOL0     H10645   8.783   4.981   7.045 -0.7447 -0.5876  1.0011
  802MOL0     H10646   8.588   4.939   6.906  3.1229  1.5194 -1.5939
  802MOL0     H10647   8.530   5.107   6.941  0.4097  0.4024  1.9876
  802MOL0     H10648   8.593   4.911   7.149  2.5861  2.3440  0.7104
  802MOL0     H10649   8.531   5.077   7.181 -0.7433 -1.7674  0.9451
  802MOL0     H10650   8.391   4.856   7.032  0.2577 -0.2661  1.1583
  802MOL0     H10651   8.322   5.016   7.059  2.8817  2.0839  0.0042
  802MOL0     H10652   8.328   4.980   7.315  4.4038  1.4343  0.4162
  802MOL0     H10653   8.409   4.829   7.289 -0.2477  0.4338 -1.5037
  802MOL0     H10654   8.191   4.764   7.327  3.8173  1.0159  0.4070
  802MOL0     H10655   8.188   4.752   7.158 -3.7740  0.9630 -0.0087
  802MOL0     H10656   8.948   4.708   6.710  0.2914 -2.0498  0.4905
  802MOL0     H10657   9.002   4.566   6.536  0.5682  0.0169 -4.0637
  802MOL0     H10658   8.817   4.424   6.118  0.4743  2.7623  0.7961
  802MOL0     H10659   8.836   4.291   5.915  0.4344 -1.4778 -0.7897
  802MOL0     H10660   8.092   4.596   4.291  3.6599  1.5017 -2.3867
  802MOL0     H10661   8.003   4.753   4.161 -0.9707 -0.1588 -0.0278
  802MOL0     H10662   7.871   5.332   4.228  0.8436 -1.4479  0.6603
  802MOL0     H10663   7.744   5.451   4.067 -0.5203 -1.3455 -0.2304
  802MOL0     H10664   7.845   5.392   3.612  1.0588 -4.7348  2.5259
  802MOL0     H10665   7.706   5.292   3.645 -1.9393  0.4451 -0.9697
  802MOL0     H10666   7.662   5.493   3.491  2.8110  0.1018  0.6253
  802MOL0     H10667   7.655   5.584   3.642 -2.7525  0.0749 -0.5555
  802MOL0     H10668   7.498   5.330   3.568  0.6045 -0.7143  1.8938
  802MOL0     H10669   7.467   5.407   3.712 -1.5114 -1.1406 -0.4180
  802MOL0     H10670   7.301   5.457   3.526 -2.0288  2.4745  0.8326
  802MOL0     H10671   7.429   5.529   3.429 -1.0119 -1.9693 -0.3486
  802MOL0     H10672   7.339   5.808   3.744 -0.6634  1.2693 -0.5423
  802MOL0     H10673   7.904   5.192   3.750 -0.1002 -0.2499  0.7151
  802MOL0     H10674   8.119   5.083   3.875 -1.5015  3.4051  0.4470
  802MOL0     H10675   8.038   4.966   3.981  3.5236  1.7824  1.1501
  802MOL0     H10676   7.964   5.003   3.813 -1.9490  1.7239  0.3748
  803MOL0     O10677   9.531   6.490   4.392 -0.0999 -0.3577  0.1687
  803MOL0     C10678   9.516   6.454   4.506 -0.7422 -0.2915 -0.4711
  803MOL0     O10679   9.449   6.345   4.542  0.8686 -0.2804 -0.0337
  803MOL0     C10680   9.388   6.275   4.442 -0.2450  0.0652  0.1292
  803MOL0     C10681   9.479   6.177   4.386 -0.3664 -0.3727 -0.1194
  803MOL0     C10682   9.432   6.081   4.302  0.1707 -0.2528 -0.0020
  803MOL0     C10683   9.292   6.078   4.267 -0.6200 -0.0088 -0.4365
  803MOL0     O10684   9.249   5.968   4.195 -0.9836  0.0417 -0.1688
  803MOL0     C10685   9.113   5.939   4.223  0.0459  0.1892  0.1218
  803MOL0     C10686   9.098   5.791   4.217  0.7649  0.1345 -0.4956
  803MOL0     C10687   9.090   5.730   4.076  0.0298 -0.0986  0.3497
  803MOL0     C10688   9.075   5.578   4.073  0.0889  0.0915  1.0852
  803MOL0     C10689   9.001   5.525   3.956  1.2729 -0.2185 -0.1388
  803MOL0     C10690   9.006   5.373   3.949 -0.0700 -0.4623  0.6788
  803MOL0     C10691   8.921   5.317   3.833  0.3891 -0.2456 -0.9568
  803MOL0     C10692   9.011   5.306   3.713 -0.2381  0.2855  0.1802
  803MOL0     N10693   8.956   5.217   3.613  0.1022  0.7436  0.2640
  803MOL0     C10694   8.903   5.098   3.623  0.3725  0.3890  0.0801
  803MOL0     C10695   8.903   5.039   3.504 -0.5567  0.3799  0.6253
  803MOL0     C10696   8.854   4.905   3.463 -0.2135 -0.0898 -0.3528
  803MOL0     C10697   8.931   4.789   3.522  1.2320  0.3309 -0.4283
  803MOL0     C10698   8.904   4.657   3.440 -0.8070  0.0892 -0.6365
  803MOL0     C10699   8.761   4.607   3.456 -0.6725  0.6670 -0.1467
  803MOL0     O10700   8.755   4.489   3.367 -0.1834 -0.7405 -0.5024
  803MOL0     C10701   8.631   4.440   3.335  0.1051 -0.2235  0.2990
  803MOL0     C10702   8.504   4.478   3.383  0.7494 -0.4394 -0.2640
  803MOL0     C10703   8.388   4.430   3.321 -0.2659  0.2480 -0.1529
  803MOL0     C10704   8.257   4.491   3.367  0.3990  0.5808  0.9166
  803MOL0     C10705   8.402   4.338   3.217 -0.4869  0.6646 -0.3105
  803MOL0     C10706   8.296   4.286   3.140  0.3040 -1.1332  0.3052
  803MOL0     O10707   8.192   4.217   3.200  0.1744  0.0054 -0.1084
  803MOL0     C10708   8.210   4.155   3.324 -0.0459 -0.6873 -0.3014
  803MOL0     C10709   8.117   4.182   3.423  0.3138 -0.0256 -0.1076
  803MOL0     C10710   8.142   4.136   3.557  0.2458  0.2828  0.3638
  803MOL0     C10711   8.255   4.053   3.572  1.1163  1.3169  0.1145
  803MOL0     O10712   8.283   4.022   3.702  0.4269 -0.4498 -0.0881
  803MOL0     C10713   8.410   4.071   3.753 -0.0036 -0.7175  0.3251
  803MOL0     C10714   8.429   4.221   3.740 -0.0209 -0.3732  0.5263
  803MOL0     C10715   8.554   4.256   3.823  0.4357  0.2012  0.5262
  803MOL0     C10716   8.558   4.403   3.862  0.2069 -0.7900 -0.6361
  803MOL0     C10717   8.682   4.428   3.937 -0.2103  1.0698 -0.3499
  803MOL0     C10718   8.800   4.474   3.860  0.1350 -0.1562  0.1247
  803MOL0     C10719   8.930   4.448   3.934  0.0333  0.8077  0.4903
  803MOL0     C10720   9.047   4.480   3.854 -0.4121 -0.0729 -0.1671
  803MOL0    Cl10721   9.191   4.455   3.965  0.2014  0.0734 -0.1551
  803MOL0     C10722   8.340   4.021   3.465 -0.2270 -0.2041 -0.0113
  803MOL0     C10723   8.314   4.060   3.339  0.9888  0.4412  0.2845
  803MOL0     O10724   8.292   4.323   3.019  0.6624 -0.7882 -0.4070
  803MOL0     C10725   8.534   4.289   3.180  1.6209  0.3780 -0.6367
  803MOL0     C10726   8.646   4.339   3.241  0.3471 -0.9156  0.4955
  803MOL0     N10727   8.960   5.127   3.410  0.2051 -0.1855 -0.0877
  803MOL0     N10728   8.992   5.238   3.480  0.0277  0.0810 -0.2515
  803MOL0     C10729   9.204   6.184   4.302 -0.6253 -0.3903 -0.9598
  803MOL0     C10730   9.256   6.280   4.399  0.2169 -0.5465 -0.2941
  803MOL0     C10731   9.558   6.556   4.616  0.3276 -0.2846  0.7930
  803MOL0     C10732   9.617   6.676   4.570 -0.4481  0.5883  0.4177
  803MOL0     C10733   9.677   6.767   4.655 -0.3381  0.2063  1.0462
  803MOL0     C10734   9.668   6.739   4.795 -0.7769 -0.5848 -0.8680
  803MOL0     O10735   9.714   6.843   4.872 -0.4720 -0.3194 -0.9525
  803MOL0     C10736   9.678   6.855   5.022 -1.2836  0.0531 -0.1299
  803MOL0     C10737   9.775   6.956   5.104  0.8533  0.0051  0.0303
  803MOL0     C10738   9.731   6.978   5.251 -0.1100 -0.1582  1.1124
  803MOL0     C10739   9.841   7.054   5.318 -0.6783  0.1334  1.0147
  803MOL0     C10740   9.815   7.086   5.452  0.9427 -0.0953 -0.4889
  803MOL0     C10741   9.801   7.108   5.570  0.1210 -0.9329 -0.0529
  803MOL0     C10742   9.611   6.623   4.841 -0.1644 -1.1229  0.2353
  803MOL0     C10743   9.558   6.530   4.752  0.1324 -0.1500 -0.1985
  803MOL0     C10744   9.485   6.423   4.824 -0.1101  0.1632  0.5031
  803MOL0     H10745   9.579   6.178   4.427 -1.4338  1.7606  2.8595
  803MOL0     H10746   9.500   6.001   4.274  0.6129  0.2979 -0.5251
  803MOL0     H10747   9.034   5.995   4.173  0.5082 -1.5434 -2.7694
  803MOL0     H10748   9.102   5.950   4.331  3.8966 -2.6041  1.0277
  803MOL0     H10749   9.160   5.744   4.294 -0.1375 -1.1384 -0.5230
  803MOL0     H10750   8.994   5.788   4.248  0.9011  1.6071  0.2275
  803MOL0     H10751   9.009   5.785   4.027  1.5222  1.2317 -0.7110
  803MOL0     H10752   9.174   5.758   4.012 -0.1491  1.6021  0.8199
  803MOL0     H10753   9.176   5.537   4.075  0.0005 -0.2072  0.0354
  803MOL0     H10754   9.025   5.536   4.161 -4.3003 -3.2023 -2.4910
  803MOL0     H10755   9.042   5.552   3.858 -2.7349 -0.6708 -2.1941
  803MOL0     H10756   8.894   5.550   3.954  1.0837 -0.7832  1.6214
  803MOL0     H10757   9.108   5.334   3.939 -0.3828 -0.7451 -1.9968
  803MOL0     H10758   8.955   5.329   4.035  0.1410 -1.2573  0.4017
  803MOL0     H10759   8.833   5.379   3.811 -0.3851 -1.6281 -1.8922
  803MOL0     H10760   8.883   5.217   3.854 -3.4205  1.8590  4.7748
  803MOL0     H10761   9.013   5.406   3.668 -0.6201  0.9322  1.5242
  803MOL0     H10762   9.113   5.269   3.732 -0.1589  1.1058  1.4554
  803MOL0     H10763   8.859   5.055   3.713  0.0755  1.2986  0.3784
  803MOL0     H10764   8.854   4.910   3.354  1.6700 -1.4142 -0.4477
  803MOL0     H10765   8.750   4.900   3.498 -0.0799 -0.2032  0.0278
  803MOL0     H10766   9.038   4.810   3.518  2.0829 -2.1070  3.7128
  803MOL0     H10767   8.898   4.776   3.625 -3.2487 -0.4638 -1.7418
  803MOL0     H10768   8.927   4.667   3.333  2.4491 -3.3037 -0.4276
  803MOL0     H10769   8.977   4.594   3.491  0.0316  1.3298 -0.2590
  803MOL0     H10770   8.738   4.564   3.554  2.1694 -5.3327 -1.6404
  803MOL0     H10771   8.687   4.680   3.424  0.5998  1.2940 -1.8242
  803MOL0     H10772   8.497   4.547   3.466  1.1356  1.2862 -1.6228
  803MOL0     H10773   8.175   4.456   3.304  1.5593 -0.7780  0.0883
  803MOL0     H10774   8.275   4.599   3.365  2.9895  0.2161 -0.4483
  803MOL0     H10775   8.227   4.467   3.470  2.3389 -0.2751  1.3393
  803MOL0     H10776   8.035   4.251   3.403 -2.1449 -1.5996  3.4717
  803MOL0     H10777   8.081   4.168   3.641 -0.1851  2.0295 -0.5758
  803MOL0     H10778   8.408   4.039   3.858 -0.6991  1.1425  0.9231
  803MOL0     H10779   8.498   4.029   3.702 -0.1719  0.9209 -1.4122
  803MOL0     H10780   8.450   4.257   3.640  1.4473  1.0916  1.3254
  803MOL0     H10781   8.336   4.273   3.767 -0.5797  0.8892 -3.2521
  803MOL0     H10782   8.650   4.228   3.778 -0.7485  0.4177 -2.3840
  803MOL0     H10783   8.545   4.202   3.917 -1.8216 -1.3114 -0.4732
  803MOL0     H10784   8.466   4.438   3.910  0.7804  1.2565 -0.9198
  803MOL0     H10785   8.557   4.468   3.774 -1.7081  2.9760  1.8971
  803MOL0     H10786   8.663   4.498   4.019 -0.1501 -0.0045  0.6061
  803MOL0     H10787   8.713   4.334   3.985 -0.8060  0.8606 -0.3671
  803MOL0     H10788   8.790   4.578   3.827  1.8738  0.2859  0.8801
  803MOL0     H10789   8.796   4.419   3.765 -3.1155 -1.5260  0.9280
  803MOL0     H10790   8.939   4.340   3.954 -0.1007  0.0146 -3.0734
  803MOL0     H10791   8.932   4.506   4.026 -1.5694 -1.0532  1.7915
  803MOL0     H10792   9.046   4.588   3.836  1.2184  0.1758  0.9832
  803MOL0     H10793   9.054   4.419   3.763 -1.5376 -0.4203 -0.0399
  803MOL0     H10794   8.428   3.960   3.485 -2.2899 -2.7109  2.2418
  803MOL0     H10795   8.364   4.033   3.247 -0.5657  1.6760 -0.9813
  803MOL0     H10796   8.539   4.217   3.100 -0.5408 -0.7969  0.2171
  803MOL0     H10797   8.743   4.306   3.207  0.2162 -2.4697  1.5732
  803MOL0     H10798   9.098   6.169   4.281 -0.9384 -3.5922  2.0447
  803MOL0     H10799   9.206   6.366   4.442  3.1870 -0.2315  2.8935
  803MOL0     H10800   9.635   6.681   4.463 -0.3946  0.4372  0.4190
  803MOL0     H10801   9.722   6.857   4.613 -1.8695  1.7596  2.5875
  803MOL0     H10802   9.572   6.864   5.043 -0.7835 -0.6053  3.2934
  803MOL0     H10803   9.697   6.758   5.070  2.9332  1.5130  1.6736
  803MOL0     H10804   9.782   7.049   5.046  1.0642 -0.9666 -1.5510
  803MOL0     H10805   9.874   6.910   5.093  2.1062  2.5112  0.0585
  803MOL0     H10806   9.637   7.032   5.251  0.9636  1.8904 -0.9839
  803MOL0     H10807   9.713   6.879   5.294 -0.9386  0.0181  1.1686
  803MOL0     H10808   9.865   7.148   5.266 -2.9866 -0.1375 -0.7103
  803MOL0     H10809   9.936   7.001   5.306  0.3661  2.0289  0.5688
  803MOL0     H10810   9.786   7.124   5.675  2.4120 -0.5582  0.2616
  803MOL0     H10811   9.617   6.593   4.945 -2.0330 -4.5998 -0.4990
  803MOL0     H10812   9.517   6.328   4.780  1.3893  0.4567  0.9266
  803MOL0     H10813   9.505   6.413   4.931  0.5490 -0.6063  0.3138
  803MOL0     H10814   9.376   6.433   4.822 -0.0707  1.2704 -2.9538
  804MOL0     O10815   0.004   5.840   1.582 -0.7066  0.5078  0.6867
  804MOL0     C10816   0.058   5.854   1.694 -1.8342  1.5783  1.0681
  804MOL0     O10817   0.146   5.761   1.749  1.0739 -0.3895  0.3612
  804MOL0     C10818   0.149   5.635   1.681  0.7864  0.0628  0.4830
  804MOL0     C10819   0.099   5.510   1.730 -0.0770 -0.5304 -1.1177
  804MOL0     C10820   0.128   5.387   1.665  0.7663  0.2481  0.7024
  804MOL0     C10821   0.188   5.400   1.530 -0.0169  0.5909 -0.0869
  804MOL0     O10822   0.225   5.287   1.457  0.0436  0.6497 -0.8348
  804MOL0     C10823   0.125   5.188   1.445  0.4359 -0.1848 -0.2878
  804MOL0     C10824   0.178   5.083   1.350 -0.2678  0.2621  0.1727
  804MOL0     C10825   0.220   5.136   1.212  0.5282  0.3909  0.1327
  804MOL0     C10826   0.095   5.186   1.130  1.0805 -0.5677  0.4397
  804MOL0     C10827   0.132   5.192   0.982 -0.0253 -0.3521 -0.1667
  804MOL0     C10828   0.082   5.322   0.916 -1.0156  0.0558  0.5958
  804MOL0     C10829   0.163   5.441   0.969  0.1870 -0.3211  0.3399
  804MOL0     C10830   0.309   5.441   0.900  0.7649  0.1276 -0.9984
  804MOL0     N10831   0.386   5.565   0.935  0.8897 -0.2977  0.4496
  804MOL0     C10832   0.415   5.604   1.063 -0.0046 -0.4797  0.6367
  804MOL0     C10833   0.463   5.726   1.039 -0.8819 -0.1754 -0.6396
  804MOL0     C10834   0.495   5.810   1.156  0.4405  0.0361  0.1941
  804MOL0     C10835   0.455   5.960   1.142 -1.4359 -0.2343  1.2410
  804MOL0     C10836   0.491   6.025   1.275  0.5255  0.4701 -0.7042
  804MOL0     C10837   0.364   5.992   1.367 -0.8257  0.6536  0.7775
  804MOL0     O10838   0.399   5.987   1.505 -0.0274 -0.3181  0.2040
  804MOL0     C10839   0.394   6.099   1.583  0.7088 -1.2368 -0.2043
  804MOL0     C10840   0.278   6.177   1.577 -0.2062 -0.0795  1.3202
  804MOL0     C10841   0.280   6.297   1.654  0.1769 -0.0762  0.6635
  804MOL0     C10842   0.158   6.391   1.626 -0.1961  0.0664 -0.5337
  804MOL0     C10843   0.385   6.334   1.739 -0.2121 -0.0015 -0.3960
  804MOL0     C10844   0.382   6.452   1.828 -0.1327 -0.4667  0.2308
  804MOL0     O10845   0.353   6.569   1.778 -1.0644 -0.2199 -0.3693
  804MOL0     C10846   0.327   6.674   1.867  0.7607  0.0549 -0.1386
  804MOL0     C10847   0.350   6.802   1.810  0.1107 -0.2868  0.2032
  804MOL0     C10848   0.343   6.922   1.885 -0.0047 -0.1786  0.3233
  804MOL0     C10849   0.307   6.907   2.023 -0.4292  0.2841 -0.2214
  804MOL0     O10850   0.295   7.021   2.098 -0.0245  0.7200 -0.4183
  804MOL0     C10851   0.304   7.005   2.243 -0.0740 -0.4534  0.7427
  804MOL0     C10852   0.276   7.140   2.304  0.5685  0.1850 -0.3730
  804MOL0     C10853   0.317   7.155   2.453 -0.3759  0.5334 -0.7959
  804MOL0     C10854   0.246   7.059   2.541 -0.2800 -0.4985 -0.7130
  804MOL0     C10855   0.327   7.063   2.674  0.3773  0.7484  0.6912
  804MOL0     C10856   0.251   6.959   2.766 -1.2959  0.6898  0.2527
  804MOL0     C10857   0.328   6.939   2.891 -0.8454 -0.2696  0.4411
  804MOL0     C10858   0.279   7.037   2.994  0.2773 -0.9891  0.0926
  804MOL0    Cl10859   0.321   7.206   2.985 -0.7003 -0.0417  0.3782
  804MOL0     C10860   0.278   6.781   2.077  0.6769 -0.8225 -0.8297
  804MOL0     C10861   0.289   6.669   1.999 -0.4426  0.2670  0.1004
  804MOL0     O10862   0.411   6.426   1.951 -0.3009  0.4884 -0.1733
  804MOL0     C10863   0.502   6.263   1.723  0.6058 -0.3055 -0.0732
  804MOL0     C10864   0.502   6.147   1.657 -0.2554 -0.6563  0.3426
  804MOL0     N10865   0.462   5.768   0.903 -0.4376  0.2864  0.4040
  804MOL0     N10866   0.405   5.669   0.845 -0.0819 -0.2177 -0.7161
  804MOL0     C10867   0.231   5.531   1.483 -0.1485  0.1020  0.2445
  804MOL0     C10868   0.223   5.639   1.558  0.2351 -0.7827 -0.5564
  804MOL0     C10869   0.036   5.978   1.767  0.5210 -0.4946  0.3012
  804MOL0     C10870   0.108   6.005   1.889 -0.7660 -0.0086  0.5240
  804MOL0     C10871   0.100   6.123   1.950 -1.1440 -0.1600 -0.0743
  804MOL0     C10872  -0.009   6.213   1.929 -0.2274  0.4873 -0.1109
  804MOL0     O10873  -0.038   6.316   2.011  0.1341 -0.4621  0.0459
  804MOL0     C10874   0.026   6.331   2.136 -0.8081 -1.4734  0.2054
  804MOL0     C10875  -0.091   6.361   2.232 -1.0203 -0.2161  0.1344
  804MOL0     C10876  -0.151   6.503   2.201  0.6602  0.0473  0.7204
  804MOL0     C10877  -0.056   6.620   2.240  0.5515 -0.3741  0.1833
  804MOL0     C10878  -0.029   6.621   2.386 -0.1871  0.1913  0.2214
  804MOL0     C10879  -0.020   6.610   2.506  0.6339  0.6700 -0.2801
  804MOL0     C10880  -0.084   6.196   1.811 -0.1131 -0.8439  0.0791
  804MOL0     C10881  -0.055   6.083   1.732 -0.4624 -0.0450  1.0463
  804MOL0     C10882  -0.132   6.082   1.597  0.1459 -0.0681  0.1867
  804MOL0     H10883   0.034   5.493   1.815 -0.0677 -0.2391 -1.0522
  804MOL0     H10884   0.104   5.290   1.707  2.0969 -0.7670 -0.7377
  804MOL0     H10885   0.031   5.226   1.405  1.0196  0.9624 -0.5989
  804MOL0     H10886   0.105   5.139   1.541  0.4470  2.8665  1.3676
  804MOL0     H10887   0.264   5.036   1.399  1.0803  0.7133 -1.6912
  804MOL0     H10888   0.098   5.009   1.340 -1.4118  1.2141  1.7850
  804MOL0     H10889   0.286   5.224   1.210  2.2138 -0.8020 -1.8433
  804MOL0     H10890   0.272   5.053   1.162 -0.3918 -1.1921  1.6822
  804MOL0     H10891   0.013   5.115   1.142 -1.1386  0.8051 -4.0971
  804MOL0     H10892   0.066   5.285   1.165  0.9639  0.0973 -1.4185
  804MOL0     H10893   0.089   5.121   0.912 -0.5360  0.5270 -0.7533
  804MOL0     H10894   0.239   5.195   0.960 -0.5036 -0.2257 -2.6764
  804MOL0     H10895   0.089   5.316   0.807  0.4378  2.4861  0.4940
  804MOL0     H10896  -0.026   5.330   0.933 -0.8967 -0.7812  1.8719
  804MOL0     H10897   0.169   5.449   1.078  3.4122  0.1501  0.2125
  804MOL0     H10898   0.112   5.532   0.936 -0.2424 -0.6027  0.2163
  804MOL0     H10899   0.381   5.361   0.921 -1.1237 -1.4394 -0.1507
  804MOL0     H10900   0.306   5.426   0.792 -1.3024 -1.9314 -0.7342
  804MOL0     H10901   0.412   5.546   1.155 -1.1708  1.4148  1.8561
  804MOL0     H10902   0.605   5.811   1.159  0.4427 -1.4426  1.7688
  804MOL0     H10903   0.455   5.762   1.245  2.9497 -1.3490  0.6625
  804MOL0     H10904   0.513   6.002   1.060  0.6154 -2.1440  1.6098
  804MOL0     H10905   0.346   5.960   1.127 -1.3105 -3.3075 -0.5355
  804MOL0     H10906   0.584   5.987   1.318  0.4043  1.1167  0.1623
  804MOL0     H10907   0.504   6.134   1.283  3.0921  0.1835  0.0266
  804MOL0     H10908   0.274   6.053   1.356 -1.6362 -0.0552  3.0159
  804MOL0     H10909   0.325   5.892   1.346 -5.5648  1.2490  4.8346
  804MOL0     H10910   0.191   6.139   1.525  0.8731 -0.6861 -0.1025
  804MOL0     H10911   0.151   6.411   1.519 -1.0146 -0.2579 -0.5436
  804MOL0     H10912   0.147   6.486   1.679  2.3813  0.2188 -0.1615
  804MOL0     H10913   0.076   6.323   1.653  1.3635 -2.6390 -2.0997
  804MOL0     H10914   0.369   6.809   1.704  0.6350  3.6900  0.3992
  804MOL0     H10915   0.362   7.022   1.845  0.3410  1.0747  3.3822
  804MOL0     H10916   0.233   6.934   2.285  1.8735 -1.9351  1.7271
  804MOL0     H10917   0.406   6.984   2.276  0.3052 -1.9321 -1.1542
  804MOL0     H10918   0.319   7.220   2.243  0.4780 -1.9681 -3.4808
  804MOL0     H10919   0.168   7.149   2.288  0.1074 -0.3843  2.0567
  804MOL0     H10920   0.311   7.257   2.492  3.6335  0.5052  0.3646
  804MOL0     H10921   0.423   7.129   2.451 -0.3591 -1.0201  4.7057
  804MOL0     H10922   0.254   6.957   2.501 -0.4791 -0.6717 -0.3213
  804MOL0     H10923   0.138   7.076   2.546 -0.3158 -0.3477 -1.7837
  804MOL0     H10924   0.431   7.038   2.650  0.1537  0.5426 -0.0821
  804MOL0     H10925   0.330   7.156   2.730  0.5010  1.2819 -0.1893
  804MOL0     H10926   0.237   6.864   2.713 -2.3322  2.5568 -3.1617
  804MOL0     H10927   0.148   6.996   2.774 -0.4666  3.6683 -1.4158
  804MOL0     H10928   0.437   6.948   2.878 -0.9989 -0.4753 -1.1079
  804MOL0     H10929   0.302   6.839   2.925 -4.7595  0.7103  0.8339
  804MOL0     H10930   0.302   7.010   3.097 -0.2382  0.0074  0.4891
  804MOL0     H10931   0.172   7.031   3.017  0.3294  1.6497  1.4261
  804MOL0     H10932   0.225   6.771   2.171  2.6491  0.1387  0.4431
  804MOL0     H10933   0.260   6.574   2.042  3.6856 -0.6876  1.1528
  804MOL0     H10934   0.590   6.295   1.778  0.2923  0.8617 -0.2298
  804MOL0     H10935   0.593   6.096   1.625  0.7564  0.3380  1.5294
  804MOL0     H10936   0.269   5.546   1.383  0.7654  4.2690  1.0229
  804MOL0     H10937   0.263   5.732   1.521 -1.1285 -0.3415 -0.9857
  804MOL0     H10938   0.193   5.942   1.914  1.4374  3.0731  1.2429
  804MOL0     H10939   0.172   6.136   2.031 -2.6246 -1.8214  1.5914
  804MOL0     H10940   0.069   6.237   2.174  2.5078 -0.4445 -0.6585
  804MOL0     H10941   0.110   6.401   2.138  0.2645 -2.7326  0.5044
  804MOL0     H10942  -0.059   6.357   2.337  0.7569  2.2601 -0.2123
  804MOL0     H10943  -0.162   6.278   2.224 -1.2970 -0.0017  0.3491
  804MOL0     H10944  -0.177   6.510   2.095  0.9845 -1.0429  0.5531
  804MOL0     H10945  -0.248   6.509   2.253 -0.5540 -0.3436 -1.4025
  804MOL0     H10946  -0.105   6.712   2.208 -0.4965 -1.6396 -2.0796
  804MOL0     H10947   0.042   6.618   2.192  0.9619  2.6979  0.6957
  804MOL0     H10948  -0.008   6.622   2.611 -0.6572  2.0809 -0.2580
  804MOL0     H10949  -0.163   6.266   1.783 -0.6162 -0.9639  1.1448
  804MOL0     H10950  -0.202   6.166   1.606  0.6892  0.3356  0.7019
  804MOL0     H10951  -0.070   6.106   1.510  1.9858  2.8636  2.1073
  804MOL0     H10952  -0.189   5.990   1.584 -2.3818  1.6916 -2.7546
  805MOL0     O10953   1.908   2.410  10.448  0.4610 -0.1755 -0.7272
  805MOL0     C10954   1.878   2.526  10.410 -0.2984  0.4575  0.5331
  805MOL0     O10955   1.775   2.555  10.314  0.6279  0.6176 -0.3342
  805MOL0     C10956   1.680   2.455  10.288  0.8168 -1.1861  0.0778
  805MOL0     C10957   1.701   2.359  10.193 -0.6005  0.8385  0.3236
  805MOL0     C10958   1.601   2.260  10.172  0.7482  0.8161 -1.3887
  805MOL0     C10959   1.484   2.254  10.254 -0.2056 -0.1056 -0.8547
  805MOL0     O10960   1.399   2.151  10.242  0.2931 -0.0497 -0.9404
  805MOL0     C10961   1.452   2.033  10.304  0.6485  0.9923  0.0671
  805MOL0     C10962   1.462   1.925  10.188  0.3964 -0.2832  0.3906
  805MOL0     C10963   1.537   1.798  10.231  0.6290  0.7034 -0.4174
  805MOL0     C10964   1.683   1.804  10.176 -0.1431 -0.0408 -0.6649
  805MOL0     C10965   1.759   1.681  10.235 -0.7279  0.0136 -0.0001
  805MOL0     C10966   1.736   1.551  10.154 -0.6024  0.5821  0.4337
  805MOL0     C10967   1.765   1.421  10.235  0.8132  0.4174  0.0077
  805MOL0     C10968   1.920   1.398  10.256 -1.3889  0.5468 -0.2665
  805MOL0     N10969   1.941   1.259  10.282 -0.8091  0.2565 -0.5770
  805MOL0     C10970   1.940   1.191  10.400  0.0112  0.1168 -0.9315
  805MOL0     C10971   1.932   1.056  10.380  0.1125 -0.1110  0.6733
  805MOL0     C10972   1.906   0.943  10.473 -0.6222  0.8234  0.9248
  805MOL0     C10973   2.040   0.894  10.521 -0.1800 -0.4884  0.1652
  805MOL0     C10974   2.053   0.755  10.566 -0.0227  0.4641  0.7594
  805MOL0     C10975   2.194   0.716  10.603 -0.1605 -0.4235  0.7389
  805MOL0     O10976   2.205   0.588  10.662  0.5355  0.0459  0.1407
  805MOL0     C10977   2.337   0.543  10.700  0.2140 -0.2726 -0.3202
  805MOL0     C10978   2.343   0.430  10.785 -0.8776 -0.2421 -0.0620
  805MOL0     C10979   2.463   0.390  10.838  0.7577  0.1465 -0.3757
  805MOL0     C10980   2.446   0.266  10.921 -0.3612 -0.0271 -0.2265
  805MOL0     C10981   2.579   0.445  10.800 -0.8385  1.2218  0.7711
  805MOL0     C10982   2.719   0.398  10.827  0.2948  1.3496 -0.5749
  805MOL0     O10983   2.821   0.478  10.805  0.5470 -0.5587  0.0809
  805MOL0     C10984   2.938   0.456  10.864  1.1209 -0.2956  0.2439
  805MOL0     C10985   2.952   0.499  10.995  0.0231  0.5552  0.1413
  805MOL0     C10986   3.072   0.486  11.066  0.2339 -0.4951  0.5634
  805MOL0     C10987   3.179   0.429  11.003 -0.1832 -0.0583 -1.0216
  805MOL0     O10988   3.305   0.414  11.054  0.8812  0.6266  0.8171
  805MOL0     C10989   3.309   0.382  11.195  0.0870  0.3463  0.3471
  805MOL0     C10990   3.377   0.499  11.261 -0.3998  0.1009  0.9794
  805MOL0     C10991   3.433   0.467  11.403 -0.2114  0.1431  0.9952
  805MOL0     C10992   3.574   0.393  11.384  0.2382 -0.7941  0.3199
  805MOL0     C10993   3.642   0.377  11.521 -0.4115  0.0738 -0.0081
  805MOL0     C10994   3.676   0.231  11.543 -1.1496 -0.1397 -0.0523
  805MOL0     C10995   3.749   0.205  11.681 -0.2658  0.7368  0.8165
  805MOL0     C10996   3.738   0.061  11.744 -0.4611 -0.2172 -0.1567
  805MOL0    Cl10997   3.569   0.063  11.806 -0.4603  0.1853 -0.2929
  805MOL0     C10998   3.154   0.369  10.885  0.5658 -0.3886  0.1281
  805MOL0     C10999   3.041   0.387  10.806  0.3226  0.9457 -0.2810
  805MOL0     O11000   2.728   0.285  10.865 -0.2121 -0.8977  0.4539
  805MOL0     C11001   2.568   0.560  10.723 -0.6711  0.2908 -0.4333
  805MOL0     C11002   2.453   0.611  10.664 -0.2106 -0.4847 -0.5131
  805MOL0     N11003   1.948   1.043  10.245 -0.3347  0.4056  0.7678
  805MOL0     N11004   1.952   1.159  10.189  0.2712  0.3039  1.0483
  805MOL0     C11005   1.460   2.362  10.344  1.2333 -0.4551  0.3279
  805MOL0     C11006   1.552   2.470  10.355 -0.2793 -0.5631 -0.1210
  805MOL0     C11007   1.974   2.638  10.456 -0.0880 -1.1379 -1.0937
  805MOL0     C11008   2.064   2.625  10.557  0.9435  0.0545 -0.7868
  805MOL0     C11009   2.150   2.723  10.605  0.2486 -0.5108  0.4234
  805MOL0     C11010   2.147   2.853  10.550  0.1833  0.0292  0.1608
  805MOL0     O11011   2.220   2.955  10.595  0.2296 -0.3976  1.0628
  805MOL0     C11012   2.215   2.979  10.742  0.0231 -1.1202 -0.0765
  805MOL0     C11013   2.165   3.129  10.757  0.3206 -0.1831 -0.9784
  805MOL0     C11014   2.009   3.124  10.736 -0.0589 -1.0334 -0.4993
  805MOL0     C11015   1.948   3.268  10.741  0.0924 -0.7919 -0.2315
  805MOL0     C11016   1.805   3.258  10.722 -0.1385  0.4590 -0.4358
  805MOL0     C11017   1.688   3.252  10.689 -0.2798  0.3357  0.4432
  805MOL0     C11018   2.057   2.875  10.449  0.4337 -0.0301  0.5220
  805MOL0     C11019   1.975   2.770  10.395  0.6034 -0.1077  1.0885
  805MOL0     C11020   1.887   2.824  10.283 -0.2774 -0.0127 -0.0691
  805MOL0     H11021   1.776   2.354  10.115  0.5885  0.5583  1.4528
  805MOL0     H11022   1.612   2.193  10.087 -0.1264 -0.4035 -0.5644
  805MOL0     H11023   1.384   1.995  10.381 -0.0898 -0.3032 -1.1634
  805MOL0     H11024   1.541   2.050  10.365  0.6576 -0.0331  0.3612
  805MOL0     H11025   1.363   1.919  10.144  0.2069  0.6278  0.6659
  805MOL0     H11026   1.524   1.959  10.105  0.8685 -2.7891 -0.3552
  805MOL0     H11027   1.536   1.785  10.340  0.3118  0.0760 -0.4885
  805MOL0     H11028   1.473   1.720  10.188  0.5743  1.0312 -0.9378
  805MOL0     H11029   1.685   1.816  10.068 -2.3219  2.3428 -0.5171
  805MOL0     H11030   1.737   1.884  10.227  1.4148 -1.3323 -0.1819
  805MOL0     H11031   1.726   1.669  10.338 -1.0054 -1.1238 -0.2044
  805MOL0     H11032   1.863   1.716  10.236 -1.2283  2.0283  4.3384
  805MOL0     H11033   1.635   1.551  10.110  1.3915  3.4859 -5.1889
  805MOL0     H11034   1.807   1.563  10.072 -0.1745  1.5874  0.9482
  805MOL0     H11035   1.727   1.338  10.175 -2.0119  2.4279 -1.1909
  805MOL0     H11036   1.718   1.414  10.334  3.3667 -0.1908  1.2623
  805MOL0     H11037   1.970   1.425  10.162 -2.8782 -3.6692 -2.5640
  805MOL0     H11038   1.968   1.459  10.333  0.7424 -0.5131 -0.6799
  805MOL0     H11039   1.925   1.236  10.498  1.3239 -0.8841 -0.2268
  805MOL0     H11040   1.844   0.873  10.417 -2.5410  1.0373  2.6461
  805MOL0     H11041   1.836   0.968  10.553 -2.6880 -1.6679  0.0408
  805MOL0     H11042   2.108   0.916  10.438  1.5247  3.5634  2.3341
  805MOL0     H11043   2.077   0.967  10.594 -4.6210  2.0579  0.2542
  805MOL0     H11044   1.997   0.738  10.659 -0.3637 -3.7686 -0.0050
  805MOL0     H11045   1.999   0.690  10.496 -0.9245  0.2814  1.6073
  805MOL0     H11046   2.270   0.733  10.526  2.0525  2.0458  3.2548
  805MOL0     H11047   2.222   0.786  10.682 -0.2346 -1.3366  1.5940
  805MOL0     H11048   2.252   0.383  10.818  0.8559 -2.1579  2.3790
  805MOL0     H11049   2.393   0.305  11.008  0.7970 -0.3664  0.6595
  805MOL0     H11050   2.534   0.204  10.939  0.0013  0.0582 -1.6098
  805MOL0     H11051   2.371   0.199  10.878 -3.7450  2.8964  0.6678
  805MOL0     H11052   2.874   0.545  11.056 -2.3653 -2.7389 -0.1141
  805MOL0     H11053   3.083   0.534  11.163  1.2170  0.1637  0.1435
  805MOL0     H11054   3.220   0.357  11.252  0.3137 -1.5154 -0.0494
  805MOL0     H11055   3.374   0.294  11.193 -0.7092 -0.2683  0.9488
  805MOL0     H11056   3.457   0.525  11.191  1.4597 -0.8891  2.6456
  805MOL0     H11057   3.306   0.581  11.275 -0.1062  0.2835  1.3965
  805MOL0     H11058   3.360   0.430  11.476 -1.2164 -1.3605 -0.7118
  805MOL0     H11059   3.449   0.565  11.449  0.5015 -0.0142  1.1003
  805MOL0     H11060   3.649   0.436  11.317  0.9856 -0.6897  1.2052
  805MOL0     H11061   3.556   0.294  11.340  0.7884 -0.6492 -0.2471
  805MOL0     H11062   3.731   0.440  11.520 -0.8544  0.7278  0.3693
  805MOL0     H11063   3.581   0.417  11.603 -0.5570  3.8860 -1.7280
  805MOL0     H11064   3.721   0.193  11.451 -0.0761  0.9698  0.0034
  805MOL0     H11065   3.580   0.178  11.548 -2.9430  2.7864 -0.8348
  805MOL0     H11066   3.698   0.274  11.749 -1.8229  1.0753 -0.6129
  805MOL0     H11067   3.851   0.232  11.653 -0.4881  0.8499  0.0883
  805MOL0     H11068   3.817   0.029  11.812 -1.6944 -1.8962  0.5557
  805MOL0     H11069   3.755  -0.022  11.674  1.5469 -1.3128  1.5244
  805MOL0     H11070   3.236   0.308  10.849  0.3473 -1.4089  1.3121
  805MOL0     H11071   3.025   0.354  10.704 -1.0344  1.2238 -0.1739
  805MOL0     H11072   2.658   0.615  10.694  0.4457 -1.9261 -1.4261
  805MOL0     H11073   2.459   0.703  10.608  0.1931  1.2329  2.1436
  805MOL0     H11074   1.371   2.370  10.405  0.3150  1.9350 -1.1808
  805MOL0     H11075   1.524   2.558  10.413  0.1563 -1.3857  1.4032
  805MOL0     H11076   2.085   2.532  10.609 -3.7522 -0.8602 -0.0336
  805MOL0     H11077   2.228   2.718  10.681 -0.1708  3.9276  1.4286
  805MOL0     H11078   2.161   2.911  10.809  1.4150  0.5126  2.8848
  805MOL0     H11079   2.317   2.970  10.779  0.7822  2.0261 -1.1166
  805MOL0     H11080   2.206   3.194  10.679 -0.6411 -0.2336 -1.5473
  805MOL0     H11081   2.194   3.166  10.856 -1.2501  3.3475 -1.6578
  805MOL0     H11082   1.988   3.088  10.634  1.9885 -0.6636 -1.1000
  805MOL0     H11083   1.969   3.056  10.811  0.9908 -2.2356 -0.9768
  805MOL0     H11084   1.993   3.334  10.665 -2.7516  3.5646  1.4811
  805MOL0     H11085   1.974   3.313  10.837 -3.5705 -0.0888  0.5770
  805MOL0     H11086   1.582   3.255  10.673 -0.3594  0.8885  1.0537
  805MOL0     H11087   2.065   2.974  10.406  2.9225 -0.4328 -0.1532
  805MOL0     H11088   1.789   2.779  10.298  0.3280 -1.0125  1.1052
  805MOL0     H11089   1.875   2.930  10.307 -1.1640 -0.2319  0.5006
  805MOL0     H11090   1.935   2.804  10.187 -0.1572 -2.7309  0.4797
  806MOL0     O11091   5.825  10.823  10.839 -0.4362 -0.3259  0.4499
  806MOL0     C11092   5.795  10.773  10.946 -0.6374 -0.1346  0.4776
  806MOL0     O11093   5.831  10.649  10.985  0.0678 -0.2133  0.0876
  806MOL0     C11094   5.826  10.554  10.877 -0.3076 -0.0974  0.2424
  806MOL0     C11095   5.737  10.446  10.885 -0.5221  1.0006 -0.1749
  806MOL0     C11096   5.749  10.342  10.792  0.3007  0.0195  0.2646
  806MOL0     C11097   5.842  10.347  10.682 -0.7828 -1.6344  0.0982
  806MOL0     O11098   5.847  10.249  10.591  0.3130  0.0049 -0.9449
  806MOL0     C11099   5.826  10.297  10.455  1.1578 -0.4497  0.0042
  806MOL0     C11100   5.749  10.193  10.371  0.1669 -0.1790 -0.2625
  806MOL0     C11101   5.769  10.210  10.222 -0.2114  0.5174 -0.6297
  806MOL0     C11102   5.771  10.070  10.145  0.7471 -0.0959 -0.8537
  806MOL0     C11103   5.914  10.046  10.102  0.0361 -0.0017  0.3492
  806MOL0     C11104   5.947   9.905  10.038 -0.7656  0.1650  0.1934
  806MOL0     C11105   6.099   9.899  10.034  0.4830 -1.3073 -0.2179
  806MOL0     C11106   6.154   9.791  10.120  1.0541 -0.4727 -0.1239
  806MOL0     N11107   6.297   9.778  10.107 -0.7630 -0.4840  0.3896
  806MOL0     C11108   6.391   9.840  10.190  0.2438 -0.7667  0.4729
  806MOL0     C11109   6.512   9.811  10.138  0.2253 -0.2681  0.2030
  806MOL0     C11110   6.635   9.879  10.184 -0.1309 -0.2844  0.8807
  806MOL0     C11111   6.656  10.020  10.115 -0.0473  1.7478 -0.0245
  806MOL0     C11112   6.748  10.109  10.186 -0.2985 -0.0455  0.4728
  806MOL0     C11113   6.886  10.048  10.207 -0.7440  0.1218  0.3726
  806MOL0     O11114   6.971  10.104  10.103  0.0140  0.1085  0.2345
  806MOL0     C11115   7.091  10.035  10.091 -0.4952  0.2373 -0.0766
  806MOL0     C11116   7.090   9.908  10.051 -0.9508  0.6757 -0.5426
  806MOL0     C11117   7.210   9.832  10.018  0.4587 -0.2358  0.4050
  806MOL0     C11118   7.188   9.693   9.958 -0.7606 -0.1832  0.4644
  806MOL0     C11119   7.332   9.897  10.045  0.2717 -1.1368 -0.3765
  806MOL0     C11120   7.466   9.845  10.027  0.2691  0.1810 -0.3107
  806MOL0     O11121   7.470   9.732   9.959  0.3500  0.0943  0.4320
  806MOL0     C11122   7.577   9.664   9.910 -0.9752 -0.0415 -1.0694
  806MOL0     C11123   7.697   9.721   9.870  0.1046 -0.3114  0.5561
  806MOL0     C11124   7.799   9.647   9.801  0.1789  0.3712  1.5708
  806MOL0     C11125   7.773   9.504   9.775 -0.0772  0.5204  0.4766
  806MOL0     O11126   7.850   9.424   9.700 -0.2493 -0.1607 -0.4152
  806MOL0     C11127   7.973   9.469   9.638  0.8629 -0.0184 -0.3462
  806MOL0     C11128   7.989   9.393   9.509 -0.3387  0.5354 -0.6045
  806MOL0     C11129   8.119   9.431   9.438  0.0411  0.2896 -0.8046
  806MOL0     C11130   8.127   9.372   9.297  0.0465  0.6606  0.2064
  806MOL0     C11131   8.258   9.408   9.227  0.4712  0.2196 -0.8414
  806MOL0     C11132   8.255   9.352   9.082  0.8280  0.4536 -1.0975
  806MOL0     C11133   8.382   9.368   9.008  0.5811  0.0218 -0.4388
  806MOL0     C11134   8.370   9.282   8.885 -0.7425  0.1278  0.4920
  806MOL0    Cl11135   8.515   9.309   8.789 -0.0395 -0.4185  0.2799
  806MOL0     C11136   7.652   9.449   9.828 -0.1185  0.6493  0.5843
  806MOL0     C11137   7.560   9.533   9.891 -0.1720  0.6333  0.1619
  806MOL0     O11138   7.564   9.895  10.085 -0.6139 -0.0784  0.1376
  806MOL0     C11139   7.327  10.032  10.096  0.5546  0.4419  0.3609
  806MOL0     C11140   7.205  10.096  10.122 -0.1287 -0.1450 -0.1162
  806MOL0     N11141   6.494   9.724  10.031  0.7899 -0.0984  0.1936
  806MOL0     N11142   6.365   9.718  10.003  0.0279 -0.2012  0.0407
  806MOL0     C11143   5.928  10.455  10.673 -0.5414 -0.2364 -0.8526
  806MOL0     C11144   5.927  10.557  10.774  0.0898 -1.0274  0.0560
  806MOL0     C11145   5.733  10.865  11.045 -0.0073  0.5501  0.4190
  806MOL0     C11146   5.690  10.808  11.172  0.1349 -0.4140 -0.2893
  806MOL0     C11147   5.617  10.885  11.261 -0.1059  0.3185 -0.1187
  806MOL0     C11148   5.597  11.016  11.237  0.3099 -0.4793 -0.1229
  806MOL0     O11149   5.537  11.097  11.329 -0.8335 -1.1909  0.4910
  806MOL0     C11150   5.608  11.122  11.447 -0.4658 -0.0456 -0.8843
  806MOL0     C11151   5.601  11.269  11.473 -0.1826 -0.3856  0.0364
  806MOL0     C11152   5.464  11.316  11.509  0.4333  0.1746 -0.3284
  806MOL0     C11153   5.439  11.463  11.489  0.3107 -0.1359  0.0318
  806MOL0     C11154   5.298  11.504  11.505 -0.3582  0.0508  0.1006
  806MOL0     C11155   5.182  11.558  11.514 -0.6093  0.0512  0.2177
  806MOL0     C11156   5.627  11.073  11.116 -0.1788  0.2364 -0.2571
  806MOL0     C11157   5.690  10.997  11.014  0.3365 -0.6207  0.0963
  806MOL0     C11158   5.723  11.074  10.886  0.3260 -0.6376 -0.3464
  806MOL0     H11159   5.670  10.442  10.970  0.2585 -1.7914  0.4186
  806MOL0     H11160   5.676  10.262  10.788 -1.6288  1.7171 -0.7282
  806MOL0     H11161   5.923  10.315  10.407  1.0129  0.8032  0.1505
  806MOL0     H11162   5.773  10.392  10.453  1.2960 -0.3205  1.5595
  806MOL0     H11163   5.790  10.094  10.391  4.4533  1.2294 -1.1069
  806MOL0     H11164   5.644  10.208  10.400  1.3081  2.3152  3.1513
  806MOL0     H11165   5.683  10.266  10.182  2.2510  2.1969 -4.0971
  806MOL0     H11166   5.857  10.266  10.189 -1.2276 -0.1617 -5.1231
  806MOL0     H11167   5.738   9.992  10.215  0.3661 -0.8480 -1.8565
  806MOL0     H11168   5.694  10.065  10.068 -2.4021  0.0170  2.0668
  806MOL0     H11169   5.974  10.052  10.193  0.5692  0.6024 -0.0359
  806MOL0     H11170   5.938  10.123  10.028 -1.2819  1.0840  1.0033
  806MOL0     H11171   5.901   9.834  10.107 -1.7019  1.7547  1.2678
  806MOL0     H11172   5.912   9.889   9.935  1.4010  1.9665 -0.9115
  806MOL0     H11173   6.141   9.994  10.067 -2.6827  0.7513 -1.5709
  806MOL0     H11174   6.132   9.892   9.930 -2.5825 -1.8975 -1.2575
  806MOL0     H11175   6.125   9.816  10.223 -1.9733  0.1061 -0.9924
  806MOL0     H11176   6.112   9.691  10.102  0.1170  0.4424 -3.7204
  806MOL0     H11177   6.367   9.910  10.270  0.6421  1.4071 -1.2307
  806MOL0     H11178   6.718   9.815  10.152 -1.3918 -1.6121  0.1082
  806MOL0     H11179   6.635   9.886  10.294  0.8816  1.0744  0.8063
  806MOL0     H11180   6.699   9.998  10.016  0.0136  0.1205  0.3306
  806MOL0     H11181   6.566  10.077  10.091  0.9019  4.0398  1.5203
  806MOL0     H11182   6.744  10.206  10.136  0.1130  0.4406  1.3640
  806MOL0     H11183   6.703  10.141  10.280 -0.5605  0.2397  0.2524
  806MOL0     H11184   6.912  10.086  10.306 -1.7933 -0.3090  0.8269
  806MOL0     H11185   6.886   9.939  10.212 -4.1599 -0.0657 -1.2643
  806MOL0     H11186   6.995   9.867  10.019 -0.2542 -0.1427 -1.6464
  806MOL0     H11187   7.181   9.694   9.849 -2.1601 -0.4484  0.5337
  806MOL0     H11188   7.088   9.650   9.973 -0.8930  0.0146  0.1566
  806MOL0     H11189   7.260   9.620   9.996 -1.6134  0.5724  3.8688
  806MOL0     H11190   7.722   9.826   9.878  0.9931 -0.5437  0.9533
  806MOL0     H11191   7.885   9.699   9.761  1.1307 -0.8540  1.9639
  806MOL0     H11192   7.970   9.575   9.612 -3.0961 -0.4686 -2.5082
  806MOL0     H11193   8.054   9.459   9.710 -0.0424 -0.0176  0.7039
  806MOL0     H11194   7.991   9.288   9.541 -1.2103  0.1192 -1.8556
  806MOL0     H11195   7.907   9.396   9.437  0.1579  1.1525 -1.1511
  806MOL0     H11196   8.203   9.385   9.490 -1.1553 -0.8077  0.2228
  806MOL0     H11197   8.121   9.540   9.444 -1.9343  0.2802  0.9689
  806MOL0     H11198   8.047   9.402   9.229 -0.5425  0.4872  0.8142
  806MOL0     H11199   8.112   9.263   9.293  0.7869  0.6020 -2.0267
  806MOL0     H11200   8.248   9.517   9.226 -1.1207  0.1708  1.2349
  806MOL0     H11201   8.346   9.372   9.281  1.1046  0.2800 -1.8155
  806MOL0     H11202   8.182   9.420   9.035 -0.7454 -1.7672 -2.0354
  806MOL0     H11203   8.226   9.247   9.093  1.6790  0.4490  1.9863
  806MOL0     H11204   8.455   9.314   9.070  3.6179  1.1357 -2.8069
  806MOL0     H11205   8.410   9.473   8.992 -0.8438  0.1554 -2.3502
  806MOL0     H11206   8.293   9.320   8.817  1.2108  3.6485  0.0498
  806MOL0     H11207   8.363   9.176   8.914  2.2367 -0.3542 -0.2286
  806MOL0     H11208   7.632   9.342   9.820 -0.2552  0.7594 -0.8641
  806MOL0     H11209   7.471   9.485   9.929  0.5568  1.9306  3.9974
  806MOL0     H11210   7.422  10.079  10.121  1.2553 -0.4146 -0.5925
  806MOL0     H11211   7.203  10.197  10.163  0.5126 -0.0827 -0.2323
  806MOL0     H11212   6.002  10.465  10.595 -0.6841 -1.0641 -1.1020
  806MOL0     H11213   6.001  10.637  10.772 -1.5672  0.5890 -1.9893
  806MOL0     H11214   5.723  10.708  11.197  0.8190 -0.6288 -1.9449
  806MOL0     H11215   5.572  10.836  11.347  0.7990 -2.8189 -1.2879
  806MOL0     H11216   5.558  11.071  11.529  1.7018  1.2010  1.3453
  806MOL0     H11217   5.712  11.088  11.443 -0.1304  0.3685  2.1842
  806MOL0     H11218   5.653  11.322  11.392 -1.0507 -1.6551 -1.3991
  806MOL0     H11219   5.669  11.281  11.558 -1.7182  0.8065  1.1472
  806MOL0     H11220   5.392  11.261  11.448  0.1123  0.7183 -0.4446
  806MOL0     H11221   5.445  11.313  11.617  0.1400  0.9313 -0.3498
  806MOL0     H11222   5.473  11.488  11.388  1.5109 -1.4510  0.0836
  806MOL0     H11223   5.508  11.513  11.558  0.0165 -1.4636  1.3340
  806MOL0     H11224   5.094  11.620  11.521  1.2166  2.8190  0.1386
  806MOL0     H11225   5.613  11.180  11.106  0.4896  0.6112  2.1183
  806MOL0     H11226   5.652  11.043  10.810 -1.2649 -1.7022  1.4954
  806MOL0     H11227   5.722  11.182  10.903  1.9643 -0.6267 -0.1462
  806MOL0     H11228   5.827  11.053  10.858  0.9692  0.8705  0.7224
  807MOL0     O11229  10.919  10.308   1.144  0.9073 -0.2618  0.0179
  807MOL0     C11230  10.837  10.221   1.186 -0.0790  0.2494  0.3646
  807MOL0     O11231  10.845  10.092   1.145 -0.3014  0.3887  0.8392
  807MOL0     C11232  10.963  10.050   1.078 -0.4218 -0.0975  0.7635
  807MOL0     C11233  11.071   9.982   1.144 -1.0418  0.0919 -0.2656
  807MOL0     C11234  11.189   9.941   1.071 -0.2085 -1.6449  0.3085
  807MOL0     C11235  11.191   9.956   0.934  0.6983  0.1100 -0.5305
  807MOL0     O11236  11.298   9.918   0.865  0.1692 -0.0054 -0.6407
  807MOL0     C11237  11.309   9.944   0.720 -0.6783  0.4460 -0.3075
  807MOL0     C11238  11.424   9.858   0.679  0.8309 -0.9646 -0.0516
  807MOL0     C11239  11.399   9.713   0.709  0.8909  0.2277 -0.3729
  807MOL0     C11240  11.444   9.650   0.842  0.5202 -0.8021 -0.6443
  807MOL0     C11241  11.357   9.528   0.864 -0.4364  0.5818 -0.8466
  807MOL0     C11242  11.410   9.441   0.980 -0.6987 -0.4346 -0.1658
  807MOL0     C11243  11.393   9.489   1.124  0.2029 -0.7038  0.1253
  807MOL0     C11244  11.255   9.524   1.170 -0.7658  0.4072 -0.2187
  807MOL0     N11245  11.270   9.601   1.296  0.0850 -0.6714  0.1429
  807MOL0     C11246  11.313   9.531   1.406  0.0225 -0.6064  0.4950
  807MOL0     C11247  11.339   9.633   1.491 -0.2540  1.0638 -0.4138
  807MOL0     C11248  11.398   9.621   1.623 -0.1697  1.0970  0.0570
  807MOL0     C11249  11.544   9.586   1.624  0.5121  0.0468  0.0286
  807MOL0     C11250  11.641   9.667   1.529  0.4317  0.1156 -0.2729
  807MOL0     C11251  11.695   9.605   1.394 -0.3528  0.9526 -0.4682
  807MOL0     O11252  11.745   9.469   1.423 -0.5189 -0.2900  0.3955
  807MOL0     C11253  11.744   9.382   1.316 -0.0174  0.8247 -0.2466
  807MOL0     C11254  11.776   9.421   1.185 -0.0524  0.3251 -0.0248
  807MOL0     C11255  11.791   9.336   1.078  0.5672  0.6036  0.2381
  807MOL0     C11256  11.820   9.409   0.951  0.3206 -0.0147  0.4332
  807MOL0     C11257  11.771   9.194   1.106  0.2671 -0.5085  1.6228
  807MOL0     C11258  11.785   9.092   1.001 -0.4718  0.3368 -1.1859
  807MOL0     O11259  11.706   9.103   0.886  0.8675 -0.7279  0.3376
  807MOL0     C11260  11.715   8.990   0.799 -0.0111 -0.7022 -0.1082
  807MOL0     C11261  11.834   8.932   0.756 -0.8929  0.0357 -0.6928
  807MOL0     C11262  11.830   8.820   0.672  0.5383  0.9528  0.5395
  807MOL0     C11263  11.707   8.771   0.622  0.9494 -1.0346  0.3873
  807MOL0     O11264  11.709   8.661   0.536  0.0335 -0.7371  0.5233
  807MOL0     C11265  11.595   8.571   0.540 -0.1354  0.5289 -0.2619
  807MOL0     C11266  11.636   8.435   0.488  0.3018 -0.5357  1.0150
  807MOL0     C11267  11.519   8.339   0.477  0.0756 -0.1586  0.5317
  807MOL0     C11268  11.544   8.207   0.416 -0.3700  0.1877  0.3329
  807MOL0     C11269  11.413   8.120   0.397  0.1076 -0.2954 -0.1750
  807MOL0     C11270  11.430   7.967   0.371 -0.0485 -0.4566 -0.4963
  807MOL0     C11271  11.316   7.887   0.434 -0.1122  0.4385 -0.4380
  807MOL0     C11272  11.357   7.755   0.483 -0.3626 -0.9097  0.5741
  807MOL0    Cl11273  11.205   7.673   0.512  0.2378 -0.1979 -0.2484
  807MOL0     C11274  11.595   8.844   0.654  0.1160  0.8143 -0.3411
  807MOL0     C11275  11.596   8.948   0.739 -0.0425  0.6010  0.4414
  807MOL0     O11276  11.865   9.004   1.025  0.1885  0.4322 -0.3737
  807MOL0     C11277  11.740   9.152   1.229  0.3956  0.0566  0.8464
  807MOL0     C11278  11.716   9.245   1.332 -0.3450 -0.3896 -0.3429
  807MOL0     N11279  11.299   9.755   1.437 -0.5427 -0.1207  0.5681
  807MOL0     N11280  11.260   9.735   1.317  0.6710  0.2776 -0.6801
  807MOL0     C11281  11.081  10.021   0.871  0.1422  0.0346 -1.5266
  807MOL0     C11282  10.966  10.076   0.938 -1.3883 -0.7343 -0.8341
  807MOL0     C11283  10.717  10.266   1.260 -0.8247  0.0309 -0.8549
  807MOL0     C11284  10.705  10.406   1.283  0.4156 -0.7438 -0.2242
  807MOL0     C11285  10.599  10.466   1.351  0.2466  0.4015  0.0421
  807MOL0     C11286  10.502  10.383   1.408 -0.1432 -0.1673  0.1726
  807MOL0     O11287  10.406  10.439   1.486  0.4579  0.7436 -0.2370
  807MOL0     C11288  10.340  10.557   1.433  0.6565  0.6379  1.2606
  807MOL0     C11289  10.216  10.517   1.345  1.0686 -0.3030 -0.1191
  807MOL0     C11290  10.112  10.467   1.446  0.6985 -0.0839 -0.2914
  807MOL0     C11291  10.124  10.312   1.472 -0.0215  0.3156 -0.4773
  807MOL0     C11292  10.089  10.215   1.356  0.4625 -0.2342  0.4617
  807MOL0     C11293  10.069  10.128   1.271  0.3550 -0.3458 -0.5884
  807MOL0     C11294  10.516  10.242   1.383  0.7676  0.2955  0.8406
  807MOL0     C11295  10.621  10.182   1.318  0.3403  0.3176 -0.2636
  807MOL0     C11296  10.624  10.037   1.303 -0.2687  1.1050  0.1359
  807MOL0     H11297  11.057   9.972   1.251 -3.9817  2.1625 -0.3214
  807MOL0     H11298  11.280   9.898   1.112  0.7446 -1.4500 -1.5227
  807MOL0     H11299  11.336  10.048   0.704  1.7589  0.4971  2.9482
  807MOL0     H11300  11.225   9.903   0.664  0.5354 -1.0362 -1.1247
  807MOL0     H11301  11.444   9.877   0.573  1.4719  0.7141  0.3332
  807MOL0     H11302  11.507   9.887   0.745  0.0417 -0.4290  0.7267
  807MOL0     H11303  11.290   9.702   0.703  0.6947  0.7791  1.4520
  807MOL0     H11304  11.436   9.649   0.629  1.1884 -0.1445  0.0525
  807MOL0     H11305  11.553   9.637   0.845  0.8583  1.2400  3.2101
  807MOL0     H11306  11.422   9.723   0.921  3.4217 -0.4531 -0.0561
  807MOL0     H11307  11.362   9.473   0.770  1.6489  1.5263 -1.3452
  807MOL0     H11308  11.251   9.552   0.875  0.0399  2.9155 -0.7567
  807MOL0     H11309  11.366   9.342   0.974 -0.1573 -0.6836 -0.0804
  807MOL0     H11310  11.517   9.431   0.957 -1.1947 -1.7026 -2.0943
  807MOL0     H11311  11.458   9.576   1.137 -1.6683  0.7813 -0.0403
  807MOL0     H11312  11.447   9.423   1.193 -2.0171 -4.1156 -1.1819
  807MOL0     H11313  11.218   9.599   1.099 -2.5457  1.4925  1.7650
  807MOL0     H11314  11.185   9.441   1.180 -1.6840  1.0217 -1.3113
  807MOL0     H11315  11.328   9.425   1.427 -0.9494 -0.7010  0.7702
  807MOL0     H11316  11.337   9.547   1.674  1.4015 -1.2248 -1.2658
  807MOL0     H11317  11.392   9.720   1.669  0.3668  0.0240  2.6170
  807MOL0     H11318  11.584   9.611   1.723  0.5696  3.4407 -0.7216
  807MOL0     H11319  11.557   9.481   1.598 -0.0058  0.0668 -0.3358
  807MOL0     H11320  11.598   9.763   1.500  1.3843  0.1875 -1.5327
  807MOL0     H11321  11.730   9.687   1.588 -0.3282 -0.0893  0.9765
  807MOL0     H11322  11.620   9.606   1.315  1.0979  0.9831 -1.9078
  807MOL0     H11323  11.782   9.661   1.359  0.0920  0.8116  0.3893
  807MOL0     H11324  11.787   9.528   1.170  2.2266  0.1103 -0.3061
  807MOL0     H11325  11.755   9.495   0.935  0.5635 -0.3111 -2.9357
  807MOL0     H11326  11.802   9.334   0.873 -2.8872  0.4032  0.6308
  807MOL0     H11327  11.926   9.435   0.957  0.2582  0.2575  0.3548
  807MOL0     H11328  11.935   8.955   0.788 -0.2894 -3.2652  0.2414
  807MOL0     H11329  11.919   8.773   0.631 -0.0689  1.2152 -1.1210
  807MOL0     H11330  11.566   8.560   0.645 -1.5995  0.3481 -0.6597
  807MOL0     H11331  11.500   8.608   0.501 -0.2299  2.1438  1.4016
  807MOL0     H11332  11.677   8.455   0.389  2.1237  0.0290  1.8417
  807MOL0     H11333  11.714   8.386   0.547  0.6179  2.1435  3.0311
  807MOL0     H11334  11.437   8.392   0.428 -0.7246 -2.3853 -0.6916
  807MOL0     H11335  11.491   8.325   0.582  0.2771 -2.3563  0.3248
  807MOL0     H11336  11.619   8.156   0.477 -1.9366  0.6847  2.8155
  807MOL0     H11337  11.594   8.219   0.319  0.7373  0.3115  0.9000
  807MOL0     H11338  11.353   8.150   0.484  1.3951 -0.8010  0.9259
  807MOL0     H11339  11.378   8.164   0.304 -0.8723 -0.0031  0.3229
  807MOL0     H11340  11.533   7.941   0.400  0.6823 -1.1044 -3.3365
  807MOL0     H11341  11.423   7.946   0.264 -1.1450 -0.6163 -0.4049
  807MOL0     H11342  11.237   7.858   0.364 -1.2513  2.4426 -0.0433
  807MOL0     H11343  11.267   7.936   0.518 -0.6156  0.2183 -0.5979
  807MOL0     H11344  11.425   7.768   0.567  2.0177  1.5297 -1.5497
  807MOL0     H11345  11.401   7.698   0.400 -0.1806 -0.1003  0.1076
  807MOL0     H11346  11.501   8.808   0.613 -1.7705  1.4965  3.0574
  807MOL0     H11347  11.498   8.985   0.769 -1.0571 -1.6958  0.1568
  807MOL0     H11348  11.730   9.047   1.254  0.1215  0.1760  1.2565
  807MOL0     H11349  11.708   9.210   1.435 -3.4998  0.5580 -0.1270
  807MOL0     H11350  11.086  10.042   0.764 -1.0846  4.0938 -0.9454
  807MOL0     H11351  10.880  10.101   0.878 -2.7334  2.4417  2.1386
  807MOL0     H11352  10.781  10.472   1.243  1.9203 -0.7234  2.4576
  807MOL0     H11353  10.597  10.572   1.376 -2.6448 -0.0926  2.7005
  807MOL0     H11354  10.306  10.625   1.511 -1.0523  2.5607 -1.0204
  807MOL0     H11355  10.399  10.625   1.372 -1.9022  1.9509  0.1065
  807MOL0     H11356  10.230  10.454   1.257 -0.2131  3.2129 -3.0851
  807MOL0     H11357  10.169  10.609   1.307  0.3478 -0.9025 -0.7152
  807MOL0     H11358  10.124  10.519   1.541  1.9164 -3.8133  1.8045
  807MOL0     H11359  10.012  10.477   1.401 -0.0252 -4.9130 -0.3214
  807MOL0     H11360  10.053  10.289   1.552  0.3885  0.6565 -0.0112
  807MOL0     H11361  10.220  10.278   1.512  1.6299  0.6112 -3.8206
  807MOL0     H11362  10.064  10.046   1.203  1.0929 -0.9679  0.0881
  807MOL0     H11363  10.440  10.184   1.435 -0.8941  2.3456  0.8324
  807MOL0     H11364  10.718   9.995   1.338 -0.5066  1.7542  1.6346
  807MOL0     H11365  10.553   9.987   1.371  0.0417 -0.1348 -0.4361
  807MOL0     H11366  10.605  10.009   1.199  2.6993  1.3318 -0.5368
  808MOL0     O11367   6.203   2.422   1.217  0.2168 -0.1314  0.4709
  808MOL0     C11368   6.176   2.543   1.217 -0.1729 -0.3207 -0.5728
  808MOL0     O11369   6.202   2.629   1.314 -0.5604  0.3230 -0.2965
  808MOL0     C11370   6.307   2.601   1.404  0.5098 -0.2776  0.1193
  808MOL0     C11371   6.428   2.548   1.360  0.3126  0.7131 -0.4970
  808MOL0     C11372   6.535   2.533   1.445 -0.4910  0.8550 -0.6232
  808MOL0     C11373   6.515   2.552   1.586  0.0179  0.0841  0.4199
  808MOL0     O11374   6.619   2.538   1.675 -0.2792 -0.5730  0.7057
  808MOL0     C11375   6.723   2.638   1.670 -0.9103  0.3880  0.8118
  808MOL0     C11376   6.709   2.745   1.781 -0.5178 -0.1371 -0.1776
  808MOL0     C11377   6.835   2.839   1.768 -0.3057  0.4951  0.3620
  808MOL0     C11378   6.843   2.929   1.890  0.0848 -0.3135 -0.1023
  808MOL0     C11379   6.969   3.025   1.869 -0.0373 -0.0475 -0.2271
  808MOL0     C11380   6.978   3.142   1.979 -0.1176 -1.0657  0.3623
  808MOL0     C11381   7.085   3.244   1.927  0.7230  0.5430  0.5969
  808MOL0     C11382   7.233   3.185   1.893 -0.6896 -1.1455  0.5327
  808MOL0     N11383   7.334   3.287   1.871  0.0541 -0.3658  0.0924
  808MOL0     C11384   7.338   3.396   1.775 -0.3494 -0.1292 -0.5333
  808MOL0     C11385   7.435   3.485   1.825 -0.6244 -0.2112  0.8941
  808MOL0     C11386   7.451   3.628   1.780 -0.0884 -1.0306  0.2192
  808MOL0     C11387   7.350   3.711   1.869 -0.2353  0.5150  1.4790
  808MOL0     C11388   7.337   3.863   1.805 -0.1725  0.2653 -0.2554
  808MOL0     C11389   7.212   3.936   1.858  0.1965 -0.2841  0.1863
  808MOL0     O11390   7.231   4.072   1.871 -0.5035 -0.2919  0.8792
  808MOL0     C11391   7.256   4.144   1.756 -0.6907 -1.0037  0.1940
  808MOL0     C11392   7.301   4.276   1.788  0.2848 -0.3333  0.3629
  808MOL0     C11393   7.329   4.370   1.692  0.2510 -0.8068  0.0214
  808MOL0     C11394   7.379   4.516   1.731 -0.4780  1.0710 -0.4690
  808MOL0     C11395   7.313   4.334   1.551  0.9514  0.0624 -0.8576
  808MOL0     C11396   7.329   4.437   1.447 -0.0500 -0.0012 -0.8382
  808MOL0     O11397   7.412   4.402   1.348 -0.3099 -0.1886  0.0891
  808MOL0     C11398   7.415   4.482   1.235 -1.0467 -1.1754 -0.9358
  808MOL0     C11399   7.309   4.521   1.156  0.6807  0.5520  0.0554
  808MOL0     C11400   7.330   4.611   1.046  0.7448  1.2303 -0.2025
  808MOL0     C11401   7.463   4.657   1.016 -0.4038  0.6140 -0.3062
  808MOL0     O11402   7.472   4.728   0.896 -0.8179 -0.4110 -0.4600
  808MOL0     C11403   7.397   4.859   0.907  0.5833  0.4218 -1.0134
  808MOL0     C11404   7.298   4.858   0.791  0.5358 -0.1041  0.0918
  808MOL0     C11405   7.369   4.874   0.661 -0.1438  0.2266  0.3183
  808MOL0     C11406   7.426   5.010   0.629 -0.8879  0.1149 -0.1408
  808MOL0     C11407   7.454   5.018   0.479 -0.2974 -1.2103 -0.2681
  808MOL0     C11408   7.571   5.107   0.442  0.3630  0.9257 -0.1846
  808MOL0     C11409   7.570   5.142   0.287 -0.5059  0.6126 -0.5554
  808MOL0     C11410   7.695   5.227   0.248  1.4860  0.0424 -0.8816
  808MOL0    Cl11411   7.817   5.133   0.179  0.1609  0.2346  0.0346
  808MOL0     C11412   7.572   4.599   1.087  0.0684 -1.1201 -0.4230
  808MOL0     C11413   7.545   4.519   1.201  0.2115 -0.5882 -0.0921
  808MOL0     O11414   7.259   4.538   1.449 -0.0588  0.5684  0.0373
  808MOL0     C11415   7.269   4.203   1.523 -1.1883 -0.6510  0.7787
  808MOL0     C11416   7.250   4.110   1.618 -0.6090 -0.7689  0.0148
  808MOL0     N11417   7.474   3.434   1.948  0.8417  0.3806 -0.3592
  808MOL0     N11418   7.421   3.317   1.973 -0.2395 -0.1614 -0.0089
  808MOL0     C11419   6.393   2.592   1.626  0.5091 -0.0876  0.3202
  808MOL0     C11420   6.287   2.624   1.539  0.1884 -0.0574  0.5024
  808MOL0     C11421   6.088   2.594   1.112 -0.5512 -0.5918  1.2790
  808MOL0     C11422   6.061   2.512   1.000 -0.2326 -0.0383  0.9559
  808MOL0     C11423   5.977   2.564   0.897 -0.6128  0.8908 -0.0511
  808MOL0     C11424   5.932   2.686   0.900 -0.9254  0.2425 -1.1965
  808MOL0     O11425   5.870   2.754   0.799  0.0843 -0.8747  0.5927
  808MOL0     C11426   5.811   2.673   0.693 -0.1613  0.3645  0.2190
  808MOL0     C11427   5.708   2.758   0.617  1.2453  0.0086 -0.7689
  808MOL0     C11428   5.786   2.835   0.506 -0.3683 -0.5264  0.1065
  808MOL0     C11429   5.683   2.907   0.414  0.3998  0.0763  0.2395
  808MOL0     C11430   5.626   2.805   0.327  0.3887  0.1745  0.6560
  808MOL0     C11431   5.565   2.721   0.264 -1.0233  0.1806 -0.3989
  808MOL0     C11432   5.957   2.774   1.010 -0.0755 -0.5374  0.1183
  808MOL0     C11433   6.045   2.734   1.112 -0.1087 -0.8288  0.8635
  808MOL0     C11434   6.071   2.838   1.223  0.2167 -0.5207 -0.4424
  808MOL0     H11435   6.446   2.530   1.254 -3.1118  0.3616 -1.1495
  808MOL0     H11436   6.638   2.519   1.413  1.1012  3.6516  2.6340
  808MOL0     H11437   6.734   2.689   1.575  1.2946  1.4605  1.5847
  808MOL0     H11438   6.823   2.596   1.684 -1.1995 -1.7999 -2.5288
  808MOL0     H11439   6.618   2.806   1.780 -0.7867 -0.4415  1.8896
  808MOL0     H11440   6.718   2.714   1.885  0.6874  2.3185  0.5116
  808MOL0     H11441   6.923   2.776   1.781 -0.4945  0.3944  1.1989
  808MOL0     H11442   6.838   2.895   1.674 -3.9905  0.9227  0.3629
  808MOL0     H11443   6.748   2.984   1.890 -0.2648 -0.8804  1.2136
  808MOL0     H11444   6.858   2.880   1.987  0.0280  3.0292  1.7357
  808MOL0     H11445   6.966   3.084   1.777 -0.7042  2.1772  1.1491
  808MOL0     H11446   7.056   2.958   1.872 -1.4815 -1.9838  0.9459
  808MOL0     H11447   6.895   3.213   1.985  1.5395  0.9503  0.9543
  808MOL0     H11448   7.010   3.108   2.078 -0.6230  0.6196  1.1411
  808MOL0     H11449   7.102   3.311   2.013 -1.1324  0.1936  1.2802
  808MOL0     H11450   7.048   3.291   1.835  0.6091  3.0448  1.8210
  808MOL0     H11451   7.254   3.143   1.992  0.4908  1.1777  1.3178
  808MOL0     H11452   7.224   3.101   1.823 -2.0911 -1.3296  0.8868
  808MOL0     H11453   7.275   3.395   1.686  1.0429  0.8692 -1.5679
  808MOL0     H11454   7.427   3.627   1.673  0.6120  0.4532  0.0163
  808MOL0     H11455   7.555   3.659   1.795  0.4790 -0.8684 -3.2289
  808MOL0     H11456   7.253   3.660   1.868 -0.6884  1.2949 -0.8277
  808MOL0     H11457   7.392   3.713   1.970  1.7726 -0.3652  0.7071
  808MOL0     H11458   7.425   3.924   1.827  0.9607 -1.2959 -0.3087
  808MOL0     H11459   7.330   3.841   1.698  2.0985 -0.5646 -0.2679
  808MOL0     H11460   7.120   3.924   1.800  1.2381 -2.7059 -1.1098
  808MOL0     H11461   7.187   3.901   1.959  0.9650  1.7118  1.1176
  808MOL0     H11462   7.318   4.308   1.890  0.5333  0.5429  0.0516
  808MOL0     H11463   7.471   4.556   1.686 -1.1138  1.7379 -1.1866
  808MOL0     H11464   7.417   4.524   1.833 -1.7088  1.0641 -0.0003
  808MOL0     H11465   7.302   4.592   1.719 -0.9430  0.5164 -1.1168
  808MOL0     H11466   7.210   4.484   1.184  1.1517 -1.1599 -0.3874
  808MOL0     H11467   7.249   4.652   0.987  1.6162  0.3628 -2.0987
  808MOL0     H11468   7.349   4.866   1.005  2.0724 -1.1704 -0.1015
  808MOL0     H11469   7.461   4.947   0.898  1.8635 -0.5232 -1.6118
  808MOL0     H11470   7.243   4.764   0.793  0.6821 -0.1750  2.0036
  808MOL0     H11471   7.216   4.927   0.816  0.8669 -0.2162  1.5729
  808MOL0     H11472   7.297   4.853   0.580  1.8277  0.9274 -1.7049
  808MOL0     H11473   7.438   4.791   0.646  1.0432  0.6914  2.8501
  808MOL0     H11474   7.518   5.028   0.685 -2.1012  3.6739  0.9502
  808MOL0     H11475   7.359   5.091   0.659  1.0613  1.6097  0.3590
  808MOL0     H11476   7.475   4.917   0.442  0.3387 -1.2059  0.0656
  808MOL0     H11477   7.361   5.059   0.439  0.3044  0.9120  0.3796
  808MOL0     H11478   7.656   5.047   0.476 -1.2283 -1.9050 -0.8766
  808MOL0     H11479   7.570   5.204   0.494 -4.5885  1.4882 -0.8408
  808MOL0     H11480   7.478   5.197   0.263  0.1259  2.3710  0.8033
  808MOL0     H11481   7.569   5.049   0.230 -0.4409 -1.0485  1.9670
  808MOL0     H11482   7.709   5.293   0.334  0.1644 -1.0667  0.2249
  808MOL0     H11483   7.661   5.296   0.170 -0.6825  0.5065  0.3944
  808MOL0     H11484   7.672   4.627   1.058 -0.2743 -2.4901 -3.2152
  808MOL0     H11485   7.628   4.484   1.262 -0.8649  0.6155  2.1502
  808MOL0     H11486   7.279   4.154   1.427 -2.2432  0.0473  0.2832
  808MOL0     H11487   7.218   4.008   1.597 -0.3453 -0.8248 -0.1230
  808MOL0     H11488   6.364   2.589   1.731 -4.3591 -1.4299 -0.8156
  808MOL0     H11489   6.190   2.654   1.577 -1.4111 -1.6246 -2.0320
  808MOL0     H11490   6.099   2.410   0.992  0.1928  0.2148 -0.4525
  808MOL0     H11491   5.965   2.501   0.809  0.9981 -0.0827  0.3961
  808MOL0     H11492   5.893   2.635   0.631 -2.1176  0.0124 -2.3340
  808MOL0     H11493   5.755   2.589   0.734  1.0714  1.0157  3.5463
  808MOL0     H11494   5.647   2.827   0.676  1.4706  2.3923 -3.1135
  808MOL0     H11495   5.634   2.692   0.571 -1.3015  1.3490  1.1574
  808MOL0     H11496   5.845   2.912   0.558  1.9319 -0.3685 -2.4996
  808MOL0     H11497   5.859   2.780   0.446 -0.1362  0.2276 -0.3244
  808MOL0     H11498   5.735   2.988   0.363 -2.3666  1.5906 -0.3752
  808MOL0     H11499   5.602   2.964   0.462  0.3604  2.9253 -2.8567
  808MOL0     H11500   5.502   2.645   0.222 -1.3226 -1.7267  3.1096
  808MOL0     H11501   5.909   2.872   1.012 -3.1121 -1.8814 -0.1358
  808MOL0     H11502   6.017   2.804   1.312  0.9646 -1.3455 -0.2967
  808MOL0     H11503   6.174   2.851   1.255 -0.6427  0.2637  2.2626
  808MOL0     H11504   6.043   2.941   1.200 -0.9535 -0.5141  0.8677
  809MOL0     O11505   7.255   3.014   2.292  0.3850  0.3435 -0.0410
  809MOL0     C11506   7.221   3.111   2.355 -0.8028 -0.1747  0.1994
  809MOL0     O11507   7.312   3.197   2.420  0.6313 -0.5857 -0.7522
  809MOL0     C11508   7.441   3.185   2.379 -0.2148  0.8887  0.2168
  809MOL0     C11509   7.497   3.273   2.284 -0.3009  1.0963  0.4007
  809MOL0     C11510   7.627   3.257   2.236 -0.3685  0.3397  0.4530
  809MOL0     C11511   7.714   3.178   2.307 -0.8243  0.4801  0.4885
  809MOL0     O11512   7.848   3.194   2.267  0.0360 -0.2633  0.1425
  809MOL0     C11513   7.955   3.140   2.346 -0.2531  0.0329  0.2537
  809MOL0     C11514   7.999   2.999   2.295 -0.2255  0.4973  0.0466
  809MOL0     C11515   8.001   2.986   2.138 -0.0308  0.1698  0.6097
  809MOL0     C11516   8.133   3.057   2.076  0.2205  0.0982  0.0713
  809MOL0     C11517   8.191   2.972   1.958 -0.4378 -0.6313 -0.1475
  809MOL0     C11518   8.095   2.967   1.839  0.3889 -0.1120 -0.0115
  809MOL0     C11519   8.065   3.107   1.777 -0.7589 -0.5859 -0.2663
  809MOL0     C11520   7.961   3.098   1.674 -0.5538 -1.2332  0.0786
  809MOL0     N11521   8.026   3.038   1.561  0.4830  0.7251  0.9290
  809MOL0     C11522   8.102   3.101   1.461 -0.6752 -0.3302  0.3506
  809MOL0     C11523   8.113   3.011   1.360 -0.2553 -0.4953 -0.1221
  809MOL0     C11524   8.161   3.035   1.214 -0.0298  1.2740 -0.5141
  809MOL0     C11525   8.114   3.170   1.159 -0.0775 -0.3772 -0.6114
  809MOL0     C11526   7.971   3.175   1.116 -0.0754 -0.1225  0.7367
  809MOL0     C11527   7.938   3.317   1.053 -0.2041  0.2103  0.8038
  809MOL0     O11528   7.810   3.310   0.989  0.0101 -0.7777  0.2365
  809MOL0     C11529   7.701   3.369   1.047 -0.2246 -0.2931 -0.6649
  809MOL0     C11530   7.599   3.422   0.961 -0.4273 -0.5268  0.0788
  809MOL0     C11531   7.491   3.498   1.012  0.0926  0.3536  0.2319
  809MOL0     C11532   7.397   3.578   0.919  1.5032  1.0550 -0.0213
  809MOL0     C11533   7.479   3.506   1.150  0.0245 -0.0011 -0.3468
  809MOL0     C11534   7.354   3.562   1.215 -0.0923 -0.2956 -0.0741
  809MOL0     O11535   7.367   3.665   1.307  0.3943 -0.3462  0.5004
  809MOL0     C11536   7.252   3.708   1.367 -0.6558 -0.2829  0.3504
  809MOL0     C11537   7.204   3.838   1.355  0.3791  0.1805  0.9125
  809MOL0     C11538   7.089   3.877   1.425 -0.5059  0.1224 -0.0820
  809MOL0     C11539   7.020   3.790   1.508  0.9278  0.0102 -0.1630
  809MOL0     O11540   6.913   3.838   1.585  0.2129 -0.4208 -0.1610
  809MOL0     C11541   6.883   3.982   1.588  0.7304  0.1229 -0.7923
  809MOL0     C11542   6.813   4.005   1.718 -0.5373  0.2486  0.9639
  809MOL0     C11543   6.659   3.994   1.700 -0.1547 -0.5266  0.1878
  809MOL0     C11544   6.602   3.850   1.697 -0.7955 -0.3612 -0.0594
  809MOL0     C11545   6.450   3.837   1.695  0.4652  0.5565 -0.4834
  809MOL0     C11546   6.382   3.922   1.801  0.0716  0.2861 -0.4331
  809MOL0     C11547   6.229   3.934   1.811 -0.0390 -0.5135  0.0132
  809MOL0     C11548   6.159   3.999   1.682 -0.3723 -0.0123 -0.7116
  809MOL0    Cl11549   6.130   3.878   1.567 -0.5770  0.1263  0.2701
  809MOL0     C11550   7.077   3.665   1.529  0.5780 -0.0955  0.4397
  809MOL0     C11551   7.193   3.629   1.455 -0.4144 -0.0870 -0.6116
  809MOL0     O11552   7.243   3.514   1.184 -0.0142  0.1061 -0.2240
  809MOL0     C11553   7.582   3.463   1.240 -0.2773  0.6460  2.1161
  809MOL0     C11554   7.696   3.395   1.184 -0.5605 -0.0334 -0.6864
  809MOL0     N11555   8.064   2.889   1.417 -0.1221  0.5242  0.1297
  809MOL0     N11556   8.000   2.906   1.528 -0.5500  0.4987  0.0516
  809MOL0     C11557   7.668   3.091   2.405  0.6757  0.3462  0.1462
  809MOL0     C11558   7.532   3.094   2.438 -0.4253 -0.0955 -0.1302
  809MOL0     C11559   7.081   3.153   2.375 -0.1353  1.3221  0.0284
  809MOL0     C11560   7.062   3.295   2.393  0.3341  0.4036 -0.0751
  809MOL0     C11561   6.930   3.338   2.408 -0.0513 -0.1345  0.2704
  809MOL0     C11562   6.817   3.251   2.413 -0.2731 -1.0118  0.0312
  809MOL0     O11563   6.698   3.305   2.425 -0.1161 -0.5979  0.2945
  809MOL0     C11564   6.592   3.240   2.491  0.7849 -0.5358 -0.4906
  809MOL0     C11565   6.622   3.230   2.643 -0.3407 -0.1432 -0.9604
  809MOL0     C11566   6.621   3.361   2.733  0.1263 -0.2286 -0.2837
  809MOL0     C11567   6.480   3.395   2.777 -0.3176 -1.5303 -0.0544
  809MOL0     C11568   6.437   3.278   2.865 -0.3979 -0.1487  1.1367
  809MOL0     C11569   6.419   3.168   2.916  0.3357 -0.5216  0.7382
  809MOL0     C11570   6.845   3.114   2.395  0.0390  0.1392 -0.1077
  809MOL0     C11571   6.972   3.065   2.365 -0.6779 -0.5784  0.1376
  809MOL0     C11572   6.975   2.913   2.352 -1.1290  0.2741 -0.0412
  809MOL0     H11573   7.440   3.354   2.238 -1.9140  1.1730  2.3941
  809MOL0     H11574   7.658   3.314   2.149 -1.4538  2.6184  1.4544
  809MOL0     H11575   7.936   3.146   2.453 -0.1783  1.9428  0.1839
  809MOL0     H11576   8.038   3.202   2.314  0.8904 -2.7852 -2.8874
  809MOL0     H11577   8.099   2.969   2.328  0.7454 -0.7753 -3.5401
  809MOL0     H11578   7.932   2.926   2.341 -0.8860  1.1168  0.0839
  809MOL0     H11579   8.006   2.879   2.117  1.6343  0.3334 -0.0219
  809MOL0     H11580   7.912   3.038   2.101 -0.7738 -0.4410  1.5016
  809MOL0     H11581   8.120   3.165   2.061  1.3741  0.3408  0.6445
  809MOL0     H11582   8.209   3.047   2.155  1.9178  2.1167 -1.1919
  809MOL0     H11583   8.219   2.873   1.993 -0.7680 -1.0580 -1.0645
  809MOL0     H11584   8.291   2.999   1.924  0.4463 -3.5094 -0.0698
  809MOL0     H11585   8.120   2.892   1.764  1.6751 -1.6279  1.8383
  809MOL0     H11586   8.002   2.936   1.888 -2.3588  4.7877 -1.3550
  809MOL0     H11587   8.156   3.151   1.735  0.1619 -3.0806 -1.0737
  809MOL0     H11588   8.036   3.176   1.857  0.2006 -1.2101  0.6394
  809MOL0     H11589   7.887   3.032   1.720 -0.7471 -0.8864  0.2670
  809MOL0     H11590   7.915   3.192   1.640  0.3594  0.1997  2.5929
  809MOL0     H11591   8.126   3.206   1.475 -4.7300  0.5550  2.4537
  809MOL0     H11592   8.117   2.953   1.157  1.2473 -1.6146  2.3421
  809MOL0     H11593   8.270   3.028   1.208  0.0351  0.1435  1.4330
  809MOL0     H11594   8.129   3.247   1.236  0.8577 -0.2037 -0.9570
  809MOL0     H11595   8.188   3.190   1.081  1.1950 -2.2676  0.0355
  809MOL0     H11596   7.965   3.100   1.037  1.0364  1.9965 -1.4952
  809MOL0     H11597   7.895   3.142   1.188  0.1500 -0.8691  0.6448
  809MOL0     H11598   7.950   3.387   1.137  1.1376 -0.2316  1.0075
  809MOL0     H11599   8.010   3.340   0.974  0.2306  2.5068  1.7640
  809MOL0     H11600   7.612   3.411   0.853  2.3358  2.4688 -0.0519
  809MOL0     H11601   7.449   3.648   0.853  1.4818  1.5744  0.5046
  809MOL0     H11602   7.330   3.637   0.984  1.4357  0.6936  0.2405
  809MOL0     H11603   7.329   3.520   0.856  0.8462  2.2686 -0.4822
  809MOL0     H11604   7.254   3.904   1.286 -1.6992  3.2613  2.1334
  809MOL0     H11605   7.050   3.978   1.414 -0.7614 -0.1214 -1.6458
  809MOL0     H11606   6.972   4.046   1.583  1.7042 -1.2706 -4.4429
  809MOL0     H11607   6.826   4.019   1.502  0.9019  0.1906 -0.8794
  809MOL0     H11608   6.849   3.940   1.799  0.4657  1.0591  1.1872
  809MOL0     H11609   6.843   4.105   1.751  3.7703 -0.8049  0.8068
  809MOL0     H11610   6.625   4.044   1.609 -0.3010 -0.5183  0.2468
  809MOL0     H11611   6.613   4.041   1.787  0.0492 -0.6089  0.3401
  809MOL0     H11612   6.634   3.804   1.791 -0.3993  0.2944  0.1393
  809MOL0     H11613   6.631   3.791   1.610  1.4306 -0.0827  0.4407
  809MOL0     H11614   6.414   3.852   1.592  2.0698 -0.1252 -1.1760
  809MOL0     H11615   6.430   3.732   1.716  0.7833 -0.4337 -4.3763
  809MOL0     H11616   6.416   4.025   1.789 -3.0938  1.4490 -0.3432
  809MOL0     H11617   6.423   3.894   1.898 -1.2955  2.2957  0.8099
  809MOL0     H11618   6.203   4.004   1.890 -0.0660  3.0979 -2.9547
  809MOL0     H11619   6.177   3.840   1.836 -0.6080 -0.5040 -1.0646
  809MOL0     H11620   6.215   4.081   1.636  1.6768  0.3681  2.1988
  809MOL0     H11621   6.061   4.038   1.710  0.0703 -0.4360  1.6097
  809MOL0     H11622   7.031   3.601   1.604 -0.7405  2.0763  1.6157
  809MOL0     H11623   7.241   3.532   1.462 -0.1362  0.0580 -0.4880
  809MOL0     H11624   7.575   3.489   1.345  0.6170  1.1068  2.0713
  809MOL0     H11625   7.778   3.357   1.243 -1.4662 -0.6790  0.1898
  809MOL0     H11626   7.735   3.029   2.462  0.3563  0.3833  0.5650
  809MOL0     H11627   7.500   3.024   2.514 -0.7600  0.1310 -0.0584
  809MOL0     H11628   7.135   3.375   2.400  2.2564 -1.1985 -1.0504
  809MOL0     H11629   6.898   3.441   2.423  0.5550 -0.0064  0.7622
  809MOL0     H11630   6.500   3.297   2.477  0.0563 -1.9604 -1.9443
  809MOL0     H11631   6.572   3.148   2.435  1.0686 -0.0141 -1.4900
  809MOL0     H11632   6.715   3.177   2.664 -0.4506  0.0193 -0.0372
  809MOL0     H11633   6.544   3.164   2.681 -1.7929  2.4603  0.9071
  809MOL0     H11634   6.688   3.352   2.818  2.6353  1.4711 -1.9691
  809MOL0     H11635   6.658   3.444   2.673  0.8296 -1.6163 -1.8470
  809MOL0     H11636   6.424   3.418   2.686 -0.6137  2.4793  0.9546
  809MOL0     H11637   6.478   3.478   2.848 -0.6958 -0.7526 -0.9491
  809MOL0     H11638   6.392   3.073   2.957 -1.0390 -0.2277  0.5546
  809MOL0     H11639   6.756   3.052   2.406  0.5440 -0.4879  0.4910
  809MOL0     H11640   7.036   2.889   2.264 -0.6308 -0.2454  0.4442
  809MOL0     H11641   7.026   2.879   2.442 -0.4856  1.2682 -0.0095
  809MOL0     H11642   6.878   2.864   2.342 -1.0529  0.2811 -0.9187
  810MOL0     O11643   3.279   5.338   4.658 -0.6954  0.3590 -0.2269
  810MOL0     C11644   3.363   5.427   4.687  0.7707 -0.2093  0.3582
  810MOL0     O11645   3.335   5.562   4.698  0.0277  0.0028  0.1882
  810MOL0     C11646   3.198   5.586   4.684  0.2780 -0.3698 -0.2654
  810MOL0     C11647   3.159   5.638   4.555 -0.2313 -0.5561 -0.0126
  810MOL0     C11648   3.022   5.658   4.516 -0.6712 -0.9252 -0.3694
  810MOL0     C11649   2.928   5.635   4.621 -0.4281  0.8739  0.1722
  810MOL0     O11650   2.796   5.665   4.601 -0.1666 -0.1381 -0.2986
  810MOL0     C11651   2.760   5.787   4.527  0.4486  0.3498  0.4703
  810MOL0     C11652   2.774   5.921   4.610 -0.2661 -0.2299 -0.2014
  810MOL0     C11653   2.669   5.928   4.726 -0.0342 -0.2518 -0.9938
  810MOL0     C11654   2.657   6.076   4.779 -0.3293 -0.6210  0.2379
  810MOL0     C11655   2.597   6.103   4.913 -0.6776  0.4513 -0.0100
  810MOL0     C11656   2.595   6.252   4.945 -0.3259 -0.7283  0.1523
  810MOL0     C11657   2.498   6.330   4.847  0.5407 -0.0271  0.0120
  810MOL0     C11658   2.397   6.444   4.899 -0.3360  0.2492 -0.5667
  810MOL0     N11659   2.318   6.385   5.002 -0.0786 -0.3715  0.0430
  810MOL0     C11660   2.311   6.421   5.135 -0.6284 -0.3425  0.6768
  810MOL0     C11661   2.208   6.353   5.187  0.1626 -0.2944 -0.3243
  810MOL0     C11662   2.148   6.355   5.331  1.0146  0.5927  1.2370
  810MOL0     C11663   2.236   6.412   5.441 -0.0460  1.0767  0.3795
  810MOL0     C11664   2.175   6.379   5.573  0.4778  0.5617  1.0527
  810MOL0     C11665   2.226   6.476   5.676  0.2453 -0.6623 -0.1721
  810MOL0     O11666   2.152   6.435   5.794 -0.3973  0.2400 -0.3902
  810MOL0     C11667   2.086   6.533   5.863 -0.0777 -0.3524 -0.1255
  810MOL0     C11668   2.009   6.629   5.798  0.5092  0.4407  0.5116
  810MOL0     C11669   1.917   6.711   5.863 -0.2888  0.0935 -1.1298
  810MOL0     C11670   1.832   6.810   5.778  0.7734 -0.2508 -0.4183
  810MOL0     C11671   1.900   6.705   6.002  0.4621 -0.7656 -0.3660
  810MOL0     C11672   1.805   6.787   6.076 -0.2415 -0.3876 -0.2820
  810MOL0     O11673   1.798   6.923   6.057 -0.6488  0.4877  0.6019
  810MOL0     C11674   1.717   6.995   6.138 -0.0557  0.7268 -0.6987
  810MOL0     C11675   1.773   7.048   6.258  0.3476  0.4080 -0.1913
  810MOL0     C11676   1.683   7.108   6.346 -0.0616 -0.1007 -0.5813
  810MOL0     C11677   1.552   7.127   6.314  0.7464  0.1123  0.1592
  810MOL0     O11678   1.478   7.193   6.410  0.3133 -0.5041 -0.6408
  810MOL0     C11679   1.355   7.265   6.370 -0.4519  0.6088  1.2341
  810MOL0     C11680   1.244   7.171   6.427  0.2058 -0.6312  0.2989
  810MOL0     C11681   1.110   7.211   6.371 -0.2058  0.6189  0.0884
  810MOL0     C11682   1.060   7.328   6.440  1.6915 -0.9476 -0.5947
  810MOL0     C11683   0.945   7.392   6.380  0.5317 -0.7806 -0.2064
  810MOL0     C11684   0.826   7.309   6.370  0.9035  0.6435 -0.0558
  810MOL0     C11685   0.720   7.382   6.289 -0.5098 -0.6089 -0.0749
  810MOL0     C11686   0.641   7.484   6.371 -0.2892 -0.3251 -0.3684
  810MOL0    Cl11687   0.540   7.406   6.491  0.2116  0.3166 -0.1809
  810MOL0     C11688   1.492   7.076   6.196 -0.5012 -0.4998  0.2557
  810MOL0     C11689   1.579   7.011   6.099  0.2596  0.4921  0.1769
  810MOL0     O11690   1.747   6.734   6.165  0.0148 -0.2375  0.0479
  810MOL0     C11691   1.978   6.608   6.071  0.0895 -0.9846  0.7986
  810MOL0     C11692   2.075   6.531   6.001 -0.2687  0.0982  0.0413
  810MOL0     N11693   2.150   6.281   5.091  0.9009 -0.6627 -0.0008
  810MOL0     N11694   2.207   6.308   4.978 -0.5660 -0.7237 -0.4196
  810MOL0     C11695   2.963   5.565   4.745 -0.5119  0.4570  0.1370
  810MOL0     C11696   3.098   5.545   4.776  0.2212 -0.1951 -0.6807
  810MOL0     C11697   3.506   5.396   4.721  0.9907 -0.1729 -0.4328
  810MOL0     C11698   3.588   5.489   4.786  0.5292 -0.6691  0.1187
  810MOL0     C11699   3.730   5.466   4.825  0.7519 -0.9073 -0.3918
  810MOL0     C11700   3.785   5.342   4.786 -0.6596 -0.1029 -0.5947
  810MOL0     O11701   3.920   5.306   4.818  0.0676 -0.2057 -0.4703
  810MOL0     C11702   3.991   5.366   4.930  0.0796  0.0053 -0.0057
  810MOL0     C11703   4.114   5.434   4.869  0.6203  0.2644  0.5503
  810MOL0     C11704   4.066   5.550   4.773 -0.5270  0.0645  0.1378
  810MOL0     C11705   4.194   5.598   4.718  0.4383 -1.1685  0.4330
  810MOL0     C11706   4.149   5.714   4.637  0.8832 -0.0553 -0.4031
  810MOL0     C11707   4.114   5.808   4.569  0.3968  0.2453 -0.2635
  810MOL0     C11708   3.708   5.250   4.707  0.1624 -0.2702 -0.5440
  810MOL0     C11709   3.569   5.273   4.682  0.2849 -0.0966 -0.7204
  810MOL0     C11710   3.509   5.163   4.600  0.0434 -0.9049 -0.0116
  810MOL0     H11711   3.244   5.659   4.492  0.5702 -1.5642  0.7031
  810MOL0     H11712   2.994   5.687   4.416 -2.2518 -0.9509  0.0249
  810MOL0     H11713   2.653   5.775   4.508  0.1274 -0.3435  2.5446
  810MOL0     H11714   2.811   5.790   4.430 -0.2343  3.6709  0.1056
  810MOL0     H11715   2.875   5.937   4.648 -0.0743  0.0154 -0.8170
  810MOL0     H11716   2.758   6.005   4.542  0.4431 -1.0093 -1.3538
  810MOL0     H11717   2.574   5.897   4.682  0.2980 -1.9997 -0.5634
  810MOL0     H11718   2.703   5.856   4.801  1.1365  1.5656  0.3060
  810MOL0     H11719   2.759   6.115   4.780 -0.9913  1.1762  0.3670
  810MOL0     H11720   2.601   6.127   4.700 -2.7264 -1.3909  1.3271
  810MOL0     H11721   2.658   6.037   4.975  0.2261  0.3731 -0.9588
  810MOL0     H11722   2.494   6.067   4.902 -0.4997  0.0780 -0.5138
  810MOL0     H11723   2.554   6.273   5.044 -1.0897  0.9937 -0.4916
  810MOL0     H11724   2.690   6.305   4.950 -0.3000 -0.7579 -0.0044
  810MOL0     H11725   2.437   6.248   4.807  1.0816 -1.4946  2.0511
  810MOL0     H11726   2.553   6.379   4.767  0.8012 -0.5646 -0.1448
  810MOL0     H11727   2.453   6.530   4.940 -2.3925  1.0332  0.7637
  810MOL0     H11728   2.323   6.486   4.831  0.6218  2.4938 -0.3274
  810MOL0     H11729   2.362   6.500   5.191 -1.8806  0.3448  0.8713
  810MOL0     H11730   2.140   6.248   5.354  0.3475 -0.2329 -2.3123
  810MOL0     H11731   2.049   6.401   5.335  2.0172  3.0167  0.0777
  810MOL0     H11732   2.342   6.386   5.444  0.1819  1.7186 -1.0974
  810MOL0     H11733   2.241   6.519   5.420 -2.9313  0.8304 -2.4508
  810MOL0     H11734   2.066   6.382   5.570  0.5072  1.1171 -2.2343
  810MOL0     H11735   2.201   6.274   5.592  0.2385  0.1887 -0.6032
  810MOL0     H11736   2.334   6.487   5.690  0.5001  0.1442 -2.4277
  810MOL0     H11737   2.202   6.578   5.643  0.0059 -0.7548 -0.2861
  810MOL0     H11738   2.008   6.624   5.690  2.1809  0.4410  0.4742
  810MOL0     H11739   1.725   6.810   5.801  0.7338 -0.2152 -0.5974
  810MOL0     H11740   1.841   6.781   5.673 -1.0265 -1.5161 -0.2874
  810MOL0     H11741   1.874   6.909   5.792  0.9328 -0.4653  0.7411
  810MOL0     H11742   1.874   7.025   6.291 -0.1974 -0.2611  1.0766
  810MOL0     H11743   1.700   7.147   6.446  1.2540  0.4533 -1.0037
  810MOL0     H11744   1.354   7.358   6.427 -1.3287  2.5210 -1.6637
  810MOL0     H11745   1.354   7.278   6.262 -0.3335 -1.1146  0.9879
  810MOL0     H11746   1.270   7.074   6.384 -4.3570 -0.6751 -3.1969
  810MOL0     H11747   1.234   7.183   6.535 -0.0898  2.4075  0.0383
  810MOL0     H11748   1.047   7.124   6.391 -0.8174  0.6978 -1.3558
  810MOL0     H11749   1.118   7.220   6.262  1.3468  0.3036  0.1534
  810MOL0     H11750   1.139   7.404   6.443  0.6046  0.2175 -0.8812
  810MOL0     H11751   1.025   7.310   6.542  1.6440  5.4959  0.9147
  810MOL0     H11752   0.920   7.466   6.457 -0.2329 -1.7284  0.4683
  810MOL0     H11753   0.970   7.438   6.284  2.0939 -1.5686 -0.2031
  810MOL0     H11754   0.790   7.267   6.464  2.2118  1.2661  0.7580
  810MOL0     H11755   0.852   7.218   6.316  1.6270  1.5872 -1.3521
  810MOL0     H11756   0.646   7.305   6.264 -0.0442 -1.3108  0.6570
  810MOL0     H11757   0.766   7.428   6.201 -1.3454  0.8465  0.2217
  810MOL0     H11758   0.579   7.541   6.301 -2.7697 -0.2293  1.7621
  810MOL0     H11759   0.708   7.559   6.414 -2.4454  1.7518 -0.4094
  810MOL0     H11760   1.384   7.077   6.197 -0.5173  1.1594 -0.4442
  810MOL0     H11761   1.528   6.955   6.022 -3.6653  2.2780  1.2272
  810MOL0     H11762   1.972   6.593   6.178 -1.7971  0.6321  0.9957
  810MOL0     H11763   2.147   6.460   6.042  0.6555 -0.1748 -1.9526
  810MOL0     H11764   2.883   5.526   4.807  1.5008 -3.5206  0.4988
  810MOL0     H11765   3.134   5.493   4.863  3.6786  2.0810 -0.5574
  810MOL0     H11766   3.542   5.581   4.821  0.2770 -0.5905 -0.4081
  810MOL0     H11767   3.782   5.544   4.879  0.4294 -0.1992 -1.0876
  810MOL0     H11768   3.934   5.443   4.982 -1.5267 -0.8750 -0.4123
  810MOL0     H11769   4.024   5.286   4.996 -0.7441 -2.0786 -1.9860
  810MOL0     H11770   4.167   5.349   4.826  0.3523 -0.9281  2.4508
  810MOL0     H11771   4.182   5.482   4.940  2.8190  1.3614 -2.1166
  810MOL0     H11772   4.006   5.512   4.689  1.3537  3.0546 -2.8376
  810MOL0     H11773   4.016   5.622   4.839  1.9732  2.0142  0.0390
  810MOL0     H11774   4.260   5.524   4.672  0.4497 -0.8204 -0.1180
  810MOL0     H11775   4.250   5.648   4.798 -0.1287 -0.3667  0.3396
  810MOL0     H11776   4.067   5.891   4.520  1.0571  0.3241 -0.7741
  810MOL0     H11777   3.751   5.156   4.676  1.4527 -0.3231  1.2502
  810MOL0     H11778   3.424   5.120   4.653 -1.1667 -1.4159 -2.2468
  810MOL0     H11779   3.465   5.200   4.507 -0.1956 -2.6998 -0.6427
  810MOL0     H11780   3.567   5.074   4.576  0.3495 -0.5050 -0.7731
  811MOL0     O11781   2.840   2.842   6.833  0.2140  0.0507 -0.1693
  811MOL0     C11782   2.790   2.767   6.755 -0.8390  0.0406  0.5720
  811MOL0     O11783   2.865   2.678   6.679  0.1498 -0.5068  0.6335
  811MOL0     C11784   2.990   2.655   6.713  0.8262  1.1569  0.0277
  811MOL0     C11785   3.029   2.562   6.803  0.3757 -0.5909  0.1154
  811MOL0     C11786   3.165   2.559   6.828 -0.5534  0.3556  0.1438
  811MOL0     C11787   3.256   2.637   6.764  0.4970 -0.0492 -0.4903
  811MOL0     O11788   3.383   2.628   6.813  0.7058 -0.8431 -0.3275
  811MOL0     C11789   3.486   2.693   6.745 -0.1969  0.5270  0.4748
  811MOL0     C11790   3.611   2.639   6.819  0.3770 -0.5568  0.3306
  811MOL0     C11791   3.630   2.488   6.840  0.1829 -0.0850 -1.2213
  811MOL0     C11792   3.584   2.401   6.720 -0.7420 -0.2219 -0.3662
  811MOL0     C11793   3.563   2.259   6.772  0.0753 -1.0488 -0.7547
  811MOL0     C11794   3.543   2.161   6.658 -0.7693 -0.5758 -1.4491
  811MOL0     C11795   3.435   2.195   6.556 -0.9421 -0.1487 -0.5296
  811MOL0     C11796   3.304   2.234   6.619  1.1182  0.4316 -1.1217
  811MOL0     N11797   3.205   2.273   6.516  0.2999 -0.6761 -0.7453
  811MOL0     C11798   3.155   2.403   6.492  0.2676  0.0976 -0.3722
  811MOL0     C11799   3.049   2.390   6.403  0.2745  0.9218  0.0834
  811MOL0     C11800   2.969   2.485   6.321  0.1462  0.7221 -0.1001
  811MOL0     C11801   2.841   2.425   6.256  0.1471 -0.1889  0.0024
  811MOL0     C11802   2.892   2.367   6.123  0.5746 -0.4515 -0.5452
  811MOL0     C11803   2.787   2.282   6.047  0.2074 -0.4576 -0.0397
  811MOL0     O11804   2.798   2.155   6.102 -0.5899  0.9408  0.2514
  811MOL0     C11805   2.732   2.047   6.044 -0.1072  0.4680 -0.7307
  811MOL0     C11806   2.729   1.929   6.119 -0.4387  0.5200  0.1017
  811MOL0     C11807   2.661   1.812   6.065 -0.1214  0.1834 -0.7435
  811MOL0     C11808   2.653   1.688   6.161  0.2567 -0.5042 -0.2243
  811MOL0     C11809   2.612   1.823   5.929 -0.2754  0.6621  0.5657
  811MOL0     C11810   2.552   1.698   5.860  0.2991  0.1868  0.2069
  811MOL0     O11811   2.529   1.711   5.723 -0.8809  0.8502 -0.5031
  811MOL0     C11812   2.422   1.641   5.670  0.3570 -0.3999  0.0215
  811MOL0     C11813   2.295   1.617   5.735 -0.7280  0.1722  0.1746
  811MOL0     C11814   2.201   1.531   5.682 -0.2917 -0.0153 -0.4125
  811MOL0     C11815   2.213   1.481   5.560 -0.9911 -0.1704  0.9118
  811MOL0     O11816   2.136   1.390   5.498  0.5029 -0.8858  0.4836
  811MOL0     C11817   1.993   1.403   5.510  0.2221  0.2955  0.7305
  811MOL0     C11818   1.929   1.290   5.434  0.2635  0.0426  0.0871
  811MOL0     C11819   1.772   1.317   5.408 -0.7531 -0.9691  0.3549
  811MOL0     C11820   1.723   1.222   5.310  0.3455 -0.3320 -0.9458
  811MOL0     C11821   1.570   1.212   5.310  0.0695 -0.1432 -0.1668
  811MOL0     C11822   1.506   1.353   5.280  0.2611 -0.7779  0.0670
  811MOL0     C11823   1.543   1.406   5.135 -0.5900 -0.9669 -0.3643
  811MOL0     C11824   1.501   1.553   5.107 -0.3352 -0.4481 -0.3664
  811MOL0    Cl11825   1.325   1.572   5.140 -0.0345  0.0100 -0.7314
  811MOL0     C11826   2.339   1.494   5.502 -0.0075 -0.7950  0.8397
  811MOL0     C11827   2.444   1.567   5.560 -0.3286 -0.4806 -0.5750
  811MOL0     O11828   2.499   1.612   5.933  0.2561  0.8753 -0.1563
  811MOL0     C11829   2.612   1.943   5.867 -1.8158 -0.3853  0.6321
  811MOL0     C11830   2.677   2.054   5.920  0.5918  0.3749 -0.2361
  811MOL0     N11831   3.032   2.253   6.387  0.1828 -0.2034  0.2287
  811MOL0     N11832   3.111   2.190   6.464 -0.6417  0.2497 -0.5514
  811MOL0     C11833   3.208   2.740   6.676 -0.3118  0.4342 -0.1701
  811MOL0     C11834   3.077   2.750   6.659  0.3006 -0.4284 -0.4704
  811MOL0     C11835   2.650   2.797   6.708  0.1005  0.7081 -0.1962
  811MOL0     C11836   2.568   2.875   6.787 -0.1625 -0.3074 -0.3420
  811MOL0     C11837   2.436   2.896   6.772  0.2551 -0.2305  0.6475
  811MOL0     C11838   2.375   2.838   6.662 -0.4028 -0.9178 -0.2102
  811MOL0     O11839   2.238   2.849   6.651 -0.4491 -0.4781  0.0825
  811MOL0     C11840   2.151   2.751   6.588  0.0285 -0.4387 -0.2037
  811MOL0     C11841   2.169   2.612   6.649  1.0966  0.0572  0.1299
  811MOL0     C11842   2.126   2.594   6.799 -0.7302  0.4053 -0.7837
  811MOL0     C11843   2.224   2.499   6.876  0.1497  0.2155  0.1557
  811MOL0     C11844   2.209   2.358   6.834  0.7873 -0.3508  0.4535
  811MOL0     C11845   2.167   2.252   6.788 -0.2877  0.2614 -0.6585
  811MOL0     C11846   2.448   2.759   6.572 -0.2157  0.2310  0.3362
  811MOL0     C11847   2.587   2.738   6.596  0.0711  0.4536 -0.0748
  811MOL0     C11848   2.652   2.633   6.509  0.4484 -0.4914 -0.1903
  811MOL0     H11849   2.956   2.490   6.839  3.6620 -3.5706  1.4372
  811MOL0     H11850   3.205   2.481   6.893 -1.8128 -1.4882 -1.1706
  811MOL0     H11851   3.472   2.801   6.752  0.8572  0.6084  1.5413
  811MOL0     H11852   3.491   2.664   6.640 -1.2880 -4.5106  1.5793
  811MOL0     H11853   3.698   2.676   6.763  0.7239  0.5930  1.5559
  811MOL0     H11854   3.618   2.685   6.919  2.3275 -3.6609  1.7931
  811MOL0     H11855   3.736   2.471   6.863 -0.4943 -1.4450  1.2003
  811MOL0     H11856   3.572   2.461   6.928  1.9060 -3.3650 -0.9209
  811MOL0     H11857   3.487   2.441   6.689 -0.4082 -1.2223 -2.9093
  811MOL0     H11858   3.647   2.408   6.630 -0.5148  3.3240 -0.0715
  811MOL0     H11859   3.477   2.268   6.839 -1.1533  0.7264 -2.4455
  811MOL0     H11860   3.649   2.224   6.830 -0.1262  0.3961  0.4578
  811MOL0     H11861   3.638   2.146   6.605 -1.4469 -0.4102 -2.7520
  811MOL0     H11862   3.517   2.070   6.712 -1.5841  1.4244  1.8211
  811MOL0     H11863   3.416   2.106   6.495  0.1877  1.1429 -2.9231
  811MOL0     H11864   3.480   2.271   6.491  1.5981 -0.8369  0.2993
  811MOL0     H11865   3.265   2.146   6.671  1.4103  1.8041  1.5791
  811MOL0     H11866   3.304   2.327   6.676  1.4277  2.6568 -4.4919
  811MOL0     H11867   3.196   2.493   6.536 -2.1293  0.8319  0.5195
  811MOL0     H11868   3.036   2.538   6.252  2.0889  0.5036  1.5457
  811MOL0     H11869   2.933   2.557   6.395 -1.9534 -2.3263  2.0617
  811MOL0     H11870   2.805   2.352   6.328 -0.7647  1.8986  1.7855
  811MOL0     H11871   2.758   2.494   6.241  0.0942 -0.0391  0.9414
  811MOL0     H11872   2.906   2.458   6.063  3.4962  0.2966  1.0340
  811MOL0     H11873   2.991   2.325   6.142 -0.0297 -0.2597  4.3061
  811MOL0     H11874   2.688   2.325   6.062  1.5820  2.8800  0.4049
  811MOL0     H11875   2.813   2.291   5.941 -0.7908 -1.2271 -0.3622
  811MOL0     H11876   2.781   1.919   6.213  0.1728 -0.6664 -0.3394
  811MOL0     H11877   2.547   1.670   6.181 -0.9739  0.6198 -4.5039
  811MOL0     H11878   2.698   1.698   6.260 -1.0559 -0.0945  0.3415
  811MOL0     H11879   2.706   1.606   6.112 -1.4881  0.6715 -4.5323
  811MOL0     H11880   2.273   1.642   5.838  0.2642 -0.4263  0.5475
  811MOL0     H11881   2.120   1.501   5.749 -0.0655  0.6314  0.1602
  811MOL0     H11882   1.959   1.390   5.613 -0.5029  1.3614  0.6412
  811MOL0     H11883   1.947   1.500   5.487 -1.6523 -0.9198 -1.0423
  811MOL0     H11884   1.981   1.269   5.341  1.9215 -2.8679  1.5143
  811MOL0     H11885   1.931   1.197   5.492  1.3227 -0.2490 -0.3879
  811MOL0     H11886   1.739   1.418   5.383 -1.5019 -0.2079  3.7932
  811MOL0     H11887   1.723   1.307   5.506  1.9775 -0.9794  1.7960
  811MOL0     H11888   1.746   1.119   5.338 -3.3884 -1.0026  0.3183
  811MOL0     H11889   1.769   1.246   5.213  1.8095 -1.6559 -0.6092
  811MOL0     H11890   1.534   1.148   5.230  1.7571 -1.5967  0.2029
  811MOL0     H11891   1.542   1.169   5.407 -1.7250 -1.0564 -1.0515
  811MOL0     H11892   1.531   1.423   5.360 -2.1561 -2.3350  2.3739
  811MOL0     H11893   1.397   1.351   5.267  0.5861 -0.5728 -3.5715
  811MOL0     H11894   1.503   1.334   5.063 -2.6585  0.4880 -0.7684
  811MOL0     H11895   1.651   1.393   5.130 -0.6111 -2.5591  1.8088
  811MOL0     H11896   1.503   1.580   5.001 -3.9670  1.8945 -0.0121
  811MOL0     H11897   1.548   1.627   5.172 -3.7085 -2.5873  5.2705
  811MOL0     H11898   2.367   1.451   5.406  2.2151 -4.0701  2.7559
  811MOL0     H11899   2.537   1.593   5.511 -0.6544  1.4099 -0.2591
  811MOL0     H11900   2.565   1.961   5.771  0.7761  5.4600  0.0521
  811MOL0     H11901   2.677   2.146   5.862  0.3383  0.7059  0.2888
  811MOL0     H11902   3.276   2.818   6.646  0.4956  0.1921  0.9544
  811MOL0     H11903   3.040   2.843   6.617  2.1415  0.1039 -1.0402
  811MOL0     H11904   2.608   2.906   6.883 -0.8586 -3.8558  1.2574
  811MOL0     H11905   2.366   2.958   6.827 -2.7617 -0.3872 -2.5787
  811MOL0     H11906   2.052   2.792   6.606  0.5636  1.0183 -0.4483
  811MOL0     H11907   2.163   2.750   6.479 -1.1161 -0.3445 -0.3425
  811MOL0     H11908   2.273   2.579   6.648  0.4013 -2.4006 -2.1634
  811MOL0     H11909   2.100   2.555   6.586  0.2486  1.8737 -0.6662
  811MOL0     H11910   2.127   2.683   6.863 -0.1026 -1.4728  1.9911
  811MOL0     H11911   2.025   2.553   6.810 -1.0722  0.4706 -3.1462
  811MOL0     H11912   2.212   2.506   6.984 -0.0747 -2.6309  0.3956
  811MOL0     H11913   2.326   2.532   6.855  0.1457  0.7833  1.0015
  811MOL0     H11914   2.126   2.165   6.740  0.0896 -0.8397  0.9380
  811MOL0     H11915   2.394   2.723   6.486 -0.9278  2.4076 -0.1864
  811MOL0     H11916   2.585   2.607   6.426 -2.1428  3.9419  0.1744
  811MOL0     H11917   2.742   2.681   6.468  1.8879 -2.9293 -0.0412
  811MOL0     H11918   2.682   2.541   6.558  0.3849  0.0039  0.8032
  812MOL0     O11919   0.411   6.552   9.406  0.6291 -0.9463 -0.5586
  812MOL0     C11920   0.337   6.636   9.461  0.3556 -0.4503 -0.6111
  812MOL0     O11921   0.375   6.759   9.498  0.2039  0.0171  0.3525
  812MOL0     C11922   0.506   6.788   9.462 -0.6821 -1.2061 -0.0626
  812MOL0     C11923   0.560   6.789   9.330  1.1462 -0.6713  0.6981
  812MOL0     C11924   0.687   6.838   9.301 -0.1084  0.0527 -0.0565
  812MOL0     C11925   0.770   6.877   9.413  0.5355 -0.4463  0.0122
  812MOL0     O11926   0.897   6.903   9.403 -0.0876  0.5264 -0.2878
  812MOL0     C11927   0.950   6.944   9.273  0.1962  0.8465  0.4577
  812MOL0     C11928   1.073   7.020   9.277 -0.7253 -0.6985  0.1627
  812MOL0     C11929   1.086   7.104   9.152  0.1651  0.9923 -0.7283
  812MOL0     C11930   1.069   7.040   9.009 -0.8553  0.4476 -0.0760
  812MOL0     C11931   1.120   7.133   8.900  0.2429  0.7377 -0.1436
  812MOL0     C11932   1.058   7.280   8.908 -0.7074 -0.1522  0.5613
  812MOL0     C11933   1.109   7.354   8.784 -0.1958 -0.5052 -0.2508
  812MOL0     C11934   1.256   7.405   8.784  0.2582  0.4520 -0.7857
  812MOL0     N11935   1.280   7.504   8.680  0.2864 -0.2021 -0.1573
  812MOL0     C11936   1.246   7.629   8.696 -0.1112 -0.1318 -0.6797
  812MOL0     C11937   1.290   7.685   8.581 -0.6600 -0.4284  0.0104
  812MOL0     C11938   1.268   7.824   8.559 -0.4610  0.4450 -0.1188
  812MOL0     C11939   1.126   7.856   8.516 -0.0663 -0.1690  0.2800
  812MOL0     C11940   1.104   8.009   8.498  0.4857  0.2681 -0.1430
  812MOL0     C11941   0.957   8.034   8.468 -0.7708  0.3111  0.6341
  812MOL0     O11942   0.913   7.962   8.351 -0.4369 -0.2288  0.0970
  812MOL0     C11943   0.886   8.025   8.242  0.4011 -0.5894  0.8362
  812MOL0     C11944   0.952   7.991   8.122  0.1236 -0.0534  1.0734
  812MOL0     C11945   0.910   8.052   7.995 -0.0835  0.3399 -0.7843
  812MOL0     C11946   0.981   7.997   7.875 -1.2593 -0.5203 -0.0211
  812MOL0     C11947   0.796   8.146   7.990 -0.1811 -0.2034 -0.3164
  812MOL0     C11948   0.728   8.194   7.869  0.3104 -0.0832  0.2119
  812MOL0     O11949   0.811   8.198   7.754 -0.3597  0.2641  0.3098
  812MOL0     C11950   0.774   8.198   7.623  0.3945 -0.2290  0.3122
  812MOL0     C11951   0.873   8.204   7.524  0.2997 -0.6599 -0.5785
  812MOL0     C11952   0.846   8.214   7.392 -0.8568 -0.1787 -0.2225
  812MOL0     C11953   0.713   8.209   7.348  0.5316 -0.0419 -0.9536
  812MOL0     O11954   0.667   8.209   7.217 -0.4604 -0.0943 -0.0497
  812MOL0     C11955   0.756   8.183   7.111 -0.1123  0.5804  0.4960
  812MOL0     C11956   0.667   8.130   6.997 -0.4384  0.6720 -0.1826
  812MOL0     C11957   0.648   7.977   6.999 -0.4467  0.0315 -0.2858
  812MOL0     C11958   0.518   7.940   6.918 -1.1270  0.7742 -1.3040
  812MOL0     C11959   0.449   7.811   6.970 -0.2142  0.3665  0.4837
  812MOL0     C11960   0.535   7.686   6.944 -0.0473  0.4648  0.0850
  812MOL0     C11961   0.550   7.648   6.797  1.3414  1.9322  0.0058
  812MOL0     C11962   0.631   7.511   6.805 -0.0538 -0.2518 -0.1196
  812MOL0    Cl11963   0.806   7.551   6.754 -0.3311  0.4357  0.4030
  812MOL0     C11964   0.610   8.206   7.446 -0.2132  0.4637  0.0178
  812MOL0     C11965   0.636   8.202   7.582  0.4136  0.1240 -0.3867
  812MOL0     O11966   0.609   8.231   7.866 -1.4110 -1.1394 -0.0678
  812MOL0     C11967   0.740   8.172   8.117 -0.3966 -0.7271  0.1337
  812MOL0     C11968   0.776   8.118   8.238 -1.3813  0.2563 -0.2312
  812MOL0     N11969   1.362   7.590   8.505 -0.3585 -0.7520 -0.5697
  812MOL0     N11970   1.356   7.485   8.568  0.0448  0.7606  0.9577
  812MOL0     C11971   0.713   6.869   9.536 -0.0172  1.4070  0.3600
  812MOL0     C11972   0.587   6.830   9.563  1.2871  0.4963  0.5088
  812MOL0     C11973   0.195   6.605   9.479  0.6459 -0.3302 -0.0205
  812MOL0     C11974   0.108   6.701   9.522 -0.0442  0.8397 -0.5484
  812MOL0     C11975  -0.028   6.685   9.522 -0.5507 -0.1701 -0.1201
  812MOL0     C11976  -0.088   6.561   9.506  0.2629 -0.3068 -0.4776
  812MOL0     O11977  -0.223   6.532   9.530  0.2046 -0.2954  0.5492
  812MOL0     C11978  -0.311   6.630   9.598 -0.3436  0.5511 -0.3020
  812MOL0     C11979  -0.433   6.541   9.639  0.2100 -0.3397  0.5970
  812MOL0     C11980  -0.534   6.638   9.701 -0.1250  0.6586 -0.1860
  812MOL0     C11981  -0.640   6.563   9.782 -0.1353 -0.1553  1.1060
  812MOL0     C11982  -0.592   6.532   9.917  0.0044 -1.5139  0.6606
  812MOL0     C11983  -0.538   6.495  10.019 -0.3407 -0.0502  0.2733
  812MOL0     C11984  -0.003   6.467   9.457  0.6519  0.5319  0.1050
  812MOL0     C11985   0.134   6.471   9.453 -0.4496 -0.8155 -0.0864
  812MOL0     C11986   0.221   6.352   9.405  0.3743 -0.4417 -0.0092
  812MOL0     H11987   0.508   6.745   9.245 -0.3967 -2.5224  2.5110
  812MOL0     H11988   0.717   6.822   9.198 -2.3413 -0.1944 -0.7147
  812MOL0     H11989   0.878   7.014   9.231 -1.2866 -1.0785 -0.3865
  812MOL0     H11990   0.955   6.863   9.199  1.2729 -0.5438  1.9748
  812MOL0     H11991   1.069   7.084   9.366  1.3576  0.6046 -0.5952
  812MOL0     H11992   1.160   6.956   9.300 -2.2600 -2.1575  2.2990
  812MOL0     H11993   1.012   7.185   9.146 -1.3229 -0.2973 -0.3126
  812MOL0     H11994   1.190   7.139   9.157 -0.0254  1.3715  2.0680
  812MOL0     H11995   1.125   6.946   9.013 -0.9209  0.2383 -2.4713
  812MOL0     H11996   0.963   7.018   8.991 -0.4090 -1.4125 -0.5887
  812MOL0     H11997   1.096   7.080   8.808 -2.3642 -0.6057  1.2243
  812MOL0     H11998   1.229   7.139   8.916  0.2709 -0.6905  0.2844
  812MOL0     H11999   0.948   7.276   8.914 -0.9338  3.8969  2.0735
  812MOL0     H12000   1.088   7.337   8.996 -0.1424  0.6169 -0.1130
  812MOL0     H12001   1.046   7.443   8.770 -1.2145 -1.4501 -2.0597
  812MOL0     H12002   1.080   7.293   8.698  0.0753 -1.9606  0.6673
  812MOL0     H12003   1.281   7.434   8.886  1.0339 -0.0093 -0.8361
  812MOL0     H12004   1.316   7.315   8.767  0.5705  0.3400  0.7871
  812MOL0     H12005   1.192   7.683   8.773  1.3573  1.1412 -0.4947
  812MOL0     H12006   1.339   7.838   8.477  0.0985  1.1670  0.4793
  812MOL0     H12007   1.305   7.883   8.643  0.1241 -0.0037 -0.0525
  812MOL0     H12008   1.104   7.795   8.428  2.9388 -3.2287  1.4335
  812MOL0     H12009   1.057   7.806   8.584 -0.8435 -1.5569 -1.4574
  812MOL0     H12010   1.126   8.070   8.586  0.0734 -0.2473  0.3170
  812MOL0     H12011   1.150   8.054   8.409  0.3448  1.8155  0.5273
  812MOL0     H12012   0.903   8.009   8.560  2.0964  1.2559  2.7091
  812MOL0     H12013   0.934   8.139   8.447  1.6349  0.5857 -0.9858
  812MOL0     H12014   1.046   7.938   8.118 -0.2056 -0.6010  0.5489
  812MOL0     H12015   0.900   7.939   7.828 -1.7031  1.0137 -1.2082
  812MOL0     H12016   1.060   7.922   7.885 -0.1895  0.5448 -0.4115
  812MOL0     H12017   1.016   8.087   7.824 -1.8932  0.6594  1.5407
  812MOL0     H12018   0.978   8.212   7.553  0.4329 -3.1322 -0.2038
  812MOL0     H12019   0.931   8.227   7.326  1.9746  1.7260  3.4613
  812MOL0     H12020   0.807   8.270   7.068 -0.3057 -0.6902 -2.5849
  812MOL0     H12021   0.827   8.108   7.147  2.0321  0.5945 -3.1903
  812MOL0     H12022   0.576   8.192   6.994 -0.3006  0.8549 -2.6835
  812MOL0     H12023   0.714   8.155   6.901 -0.1564 -1.2262 -0.5713
  812MOL0     H12024   0.642   7.953   7.106  0.3096 -0.0309 -0.2510
  812MOL0     H12025   0.739   7.931   6.961  0.7928  0.3130  2.1338
  812MOL0     H12026   0.549   7.937   6.813 -2.0492 -0.3129 -1.5644
  812MOL0     H12027   0.446   8.019   6.937  3.1338  5.0278 -1.0131
  812MOL0     H12028   0.432   7.814   7.078 -2.5721 -1.9974  0.2808
  812MOL0     H12029   0.353   7.801   6.918  1.0089 -1.7194 -1.5669
  812MOL0     H12030   0.499   7.599   7.000  1.8736 -0.5819 -0.1999
  812MOL0     H12031   0.636   7.701   6.983 -0.8445 -1.5836  3.2811
  812MOL0     H12032   0.602   7.725   6.739 -0.2807  1.8726 -1.6181
  812MOL0     H12033   0.446   7.632   6.765  0.8193  1.5558  1.7920
  812MOL0     H12034   0.598   7.436   6.733 -0.7209 -1.2622  1.1939
  812MOL0     H12035   0.629   7.470   6.906 -0.6713 -0.3808 -0.1792
  812MOL0     H12036   0.503   8.208   7.425 -0.9177 -0.0875  3.0649
  812MOL0     H12037   0.551   8.201   7.650 -0.2512  3.7556 -0.9459
  812MOL0     H12038   0.658   8.243   8.128  0.1864 -0.3304  2.1807
  812MOL0     H12039   0.726   8.145   8.330  0.9694  1.6910  0.7314
  812MOL0     H12040   0.787   6.893   9.612  0.9331  1.2241 -0.4934
  812MOL0     H12041   0.552   6.833   9.666  0.7811 -1.5300  0.4509
  812MOL0     H12042   0.135   6.802   9.552  0.6087  0.1829  1.2120
  812MOL0     H12043  -0.091   6.770   9.542 -2.2708 -0.8377 -2.3478
  812MOL0     H12044  -0.257   6.674   9.681  5.0804 -1.2754 -2.4219
  812MOL0     H12045  -0.336   6.711   9.529 -1.1306  0.1022 -0.5640
  812MOL0     H12046  -0.393   6.466   9.708  3.7799 -0.9407 -1.8631
  812MOL0     H12047  -0.473   6.485   9.554 -0.2167 -1.4108  1.4769
  812MOL0     H12048  -0.491   6.721   9.758 -1.7752  3.1362 -2.3034
  812MOL0     H12049  -0.596   6.685   9.624 -0.0998 -0.6442 -1.0214
  812MOL0     H12050  -0.691   6.481   9.731 -2.0051  0.4926  1.8353
  812MOL0     H12051  -0.725   6.631   9.797 -2.3855 -2.6098  0.2606
  812MOL0     H12052  -0.496   6.464  10.112 -2.9832 -3.0322  0.6593
  812MOL0     H12053  -0.052   6.370   9.448  0.1009  0.4439  3.0147
  812MOL0     H12054   0.301   6.352   9.480  1.6651  0.8074 -1.3248
  812MOL0     H12055   0.166   6.258   9.402 -0.5845  0.1272 -1.4822
  812MOL0     H12056   0.262   6.381   9.308 -1.0584 -2.1626 -1.1853
  813MOL0     O12057   4.408   7.457   5.818  0.4006  0.3292  0.6450
  813MOL0     C12058   4.326   7.465   5.906  0.8285  0.4891  0.0173
  813MOL0     O12059   4.351   7.521   6.029 -0.0023  0.1932  0.0903
  813MOL0     C12060   4.475   7.581   6.052 -0.4963 -0.1536 -0.4292
  813MOL0     C12061   4.579   7.543   6.125 -0.5323  0.2233 -0.2747
  813MOL0     C12062   4.692   7.625   6.143 -0.3871 -0.1172  1.0945
  813MOL0     C12063   4.695   7.756   6.098  0.8338  0.5777  0.6751
  813MOL0     O12064   4.798   7.851   6.110  0.3922  0.4445  0.1476
  813MOL0     C12065   4.923   7.794   6.147 -0.2630  0.0921  0.0524
  813MOL0     C12066   5.016   7.911   6.150 -0.3274 -0.1096 -0.1156
  813MOL0     C12067   5.161   7.869   6.153  0.1797 -0.5695 -1.5750
  813MOL0     C12068   5.208   7.877   6.303 -0.3657  0.0498 -1.6534
  813MOL0     C12069   5.351   7.843   6.347 -0.3405  0.2210 -0.1567
  813MOL0     C12070   5.400   7.709   6.293  0.8909 -0.1038  0.6490
  813MOL0     C12071   5.305   7.581   6.303  0.3559 -0.2877  0.0975
  813MOL0     C12072   5.381   7.449   6.289 -0.5280 -0.5693  1.3156
  813MOL0     N12073   5.453   7.433   6.163  0.7433 -0.6699  0.3736
  813MOL0     C12074   5.406   7.453   6.034 -0.8811  0.1168  0.8913
  813MOL0     C12075   5.517   7.443   5.950 -0.0226 -0.4994  0.4827
  813MOL0     C12076   5.500   7.448   5.795 -0.3884  0.2687 -0.0625
  813MOL0     C12077   5.468   7.316   5.732 -0.0692  0.6009 -0.1583
  813MOL0     C12078   5.455   7.336   5.577 -0.3557  0.0720 -0.6834
  813MOL0     C12079   5.398   7.198   5.522 -0.9187 -0.2344  0.1667
  813MOL0     O12080   5.318   7.217   5.409  0.2743  0.7255  0.1631
  813MOL0     C12081   5.184   7.182   5.407  0.8152 -0.3155 -0.8636
  813MOL0     C12082   5.098   7.286   5.366 -0.4553  0.0313  0.0598
  813MOL0     C12083   4.963   7.264   5.359 -0.5869 -0.1653 -0.3258
  813MOL0     C12084   4.890   7.372   5.280  1.0444  0.5613 -0.5013
  813MOL0     C12085   4.903   7.140   5.395 -0.2313  0.3561 -0.7570
  813MOL0     C12086   4.754   7.126   5.393 -0.5432 -0.2007 -0.3098
  813MOL0     O12087   4.711   7.020   5.331  0.5793 -0.0342 -0.1641
  813MOL0     C12088   4.570   7.003   5.335 -0.7624  0.2127 -0.6750
  813MOL0     C12089   4.506   6.957   5.446 -0.0256  0.7456 -0.1058
  813MOL0     C12090   4.368   6.931   5.446 -0.9091 -0.6606 -0.0387
  813MOL0     C12091   4.296   6.955   5.327  1.5844  0.7133 -0.4715
  813MOL0     O12092   4.154   6.944   5.325 -1.2315 -0.1626 -0.3103
  813MOL0     C12093   4.113   6.808   5.363 -0.1015  0.8691 -0.3974
  813MOL0     C12094   3.963   6.813   5.407  0.5610  0.2125  0.2455
  813MOL0     C12095   3.935   6.892   5.543 -0.7781  0.0113 -0.4953
  813MOL0     C12096   3.775   6.873   5.594 -0.4315  0.3974  0.2230
  813MOL0     C12097   3.757   6.889   5.749 -0.1041 -0.4244 -0.4010
  813MOL0     C12098   3.629   6.828   5.804 -0.0428  0.1181 -0.6089
  813MOL0     C12099   3.630   6.822   5.958 -0.5490  0.0982  0.1418
  813MOL0     C12100   3.500   6.782   6.024  0.9022 -0.3574 -0.1086
  813MOL0    Cl12101   3.364   6.886   5.960 -0.2378  0.3234 -0.0243
  813MOL0     C12102   4.364   6.993   5.220  0.0422 -0.5401  0.5423
  813MOL0     C12103   4.498   7.023   5.218  0.3118  0.3180 -0.9168
  813MOL0     O12104   4.683   7.213   5.448 -0.2432  0.3170  0.4515
  813MOL0     C12105   4.991   7.036   5.436 -0.1464  0.0589  0.7077
  813MOL0     C12106   5.132   7.054   5.443  0.4055 -0.5342  0.5252
  813MOL0     N12107   5.623   7.393   6.021  0.7029 -0.7899  0.2451
  813MOL0     N12108   5.587   7.403   6.148 -0.4204 -0.0018  0.3489
  813MOL0     C12109   4.579   7.800   6.035 -0.0005 -0.0109 -0.1644
  813MOL0     C12110   4.473   7.709   6.016  1.1548 -0.1453  1.5837
  813MOL0     C12111   4.197   7.393   5.868  0.5561  0.5602 -0.8842
  813MOL0     C12112   4.090   7.432   5.958  1.1334  0.3628  0.0290
  813MOL0     C12113   3.969   7.367   5.945 -0.8248 -0.1408 -0.8216
  813MOL0     C12114   3.940   7.289   5.843 -0.3987 -0.2379  0.1745
  813MOL0     O12115   3.824   7.230   5.835  0.3994 -0.6058  0.3122
  813MOL0     C12116   3.730   7.322   5.779  0.5043 -0.1020  0.0967
  813MOL0     C12117   3.674   7.291   5.636 -1.0754  0.3095 -0.3659
  813MOL0     C12118   3.665   7.417   5.556 -0.3148 -0.7041  0.4108
  813MOL0     C12119   3.805   7.444   5.499  1.0147  0.1841 -0.4162
  813MOL0     C12120   3.845   7.346   5.397 -0.6688  0.2125 -0.4867
  813MOL0     C12121   3.891   7.250   5.333  0.5397 -1.0812  0.5714
  813MOL0     C12122   4.035   7.265   5.752 -0.2147  0.5015  0.6121
  813MOL0     C12123   4.170   7.313   5.762  0.9766 -0.8876  0.7392
  813MOL0     C12124   4.250   7.291   5.631 -0.7968 -0.1379  0.2849
  813MOL0     H12125   4.571   7.444   6.169  2.1916  0.2437  0.4373
  813MOL0     H12126   4.770   7.594   6.211  0.2344 -1.6629 -0.2811
  813MOL0     H12127   4.965   7.726   6.072 -1.2736  0.1486 -0.5781
  813MOL0     H12128   4.926   7.750   6.248  2.1663 -1.3336 -0.5542
  813MOL0     H12129   4.997   7.956   6.052 -1.8330 -1.1139 -0.3174
  813MOL0     H12130   4.989   7.990   6.222 -1.3892 -1.2757  0.8059
  813MOL0     H12131   5.186   7.774   6.104  0.3605 -1.2169 -0.2889
  813MOL0     H12132   5.228   7.945   6.110 -1.0837  1.9079  0.5531
  813MOL0     H12133   5.181   7.977   6.339 -2.4724 -0.2039 -2.3864
  813MOL0     H12134   5.141   7.817   6.365  0.5547  1.8006  1.1816
  813MOL0     H12135   5.345   7.843   6.456  1.8290  2.2582  0.0430
  813MOL0     H12136   5.415   7.924   6.312  1.8275 -0.1194  2.6731
  813MOL0     H12137   5.410   7.712   6.185  1.1202 -2.9694  0.5004
  813MOL0     H12138   5.494   7.687   6.344 -0.5900  0.4829  3.9323
  813MOL0     H12139   5.226   7.598   6.229  1.4107 -0.1569 -1.0256
  813MOL0     H12140   5.251   7.585   6.399  2.5884  2.1631  1.3737
  813MOL0     H12141   5.451   7.443   6.372  1.6801  1.1954 -0.2902
  813MOL0     H12142   5.303   7.373   6.300 -2.6547  1.6690  3.0025
  813MOL0     H12143   5.303   7.479   6.011 -0.4186  1.7252  0.5038
  813MOL0     H12144   5.594   7.483   5.751  0.7874 -1.5534  0.8841
  813MOL0     H12145   5.424   7.523   5.772  0.2117  0.1053 -2.9834
  813MOL0     H12146   5.539   7.238   5.758  0.0825 -0.4013 -3.2127
  813MOL0     H12147   5.373   7.278   5.771  0.8811  0.7785  2.5254
  813MOL0     H12148   5.387   7.418   5.552 -0.8655 -0.4722 -1.1214
  813MOL0     H12149   5.554   7.355   5.535  0.1779 -2.4047 -0.7192
  813MOL0     H12150   5.478   7.133   5.486  1.1685  1.1438  2.0490
  813MOL0     H12151   5.340   7.137   5.593 -1.5710 -1.4111 -1.3156
  813MOL0     H12152   5.138   7.383   5.340 -2.7184  0.6059 -1.5401
  813MOL0     H12153   4.962   7.401   5.203  2.1166 -1.9181 -0.5200
  813MOL0     H12154   4.860   7.451   5.349  0.1231 -1.4538  1.5422
  813MOL0     H12155   4.789   7.346   5.246  0.2061 -0.8187  2.6353
  813MOL0     H12156   4.576   6.939   5.528  0.7840 -1.0518 -1.1187
  813MOL0     H12157   4.322   6.904   5.541  3.6813 -2.2914  2.0030
  813MOL0     H12158   4.133   6.740   5.280 -2.0603 -2.6030  1.7553
  813MOL0     H12159   4.175   6.763   5.441  1.1200  1.6940 -0.8666
  813MOL0     H12160   3.899   6.862   5.333  0.0708  2.4911  2.0736
  813MOL0     H12161   3.941   6.707   5.419  3.8853 -0.3922  2.1109
  813MOL0     H12162   3.947   6.999   5.525 -2.3007  0.1374 -0.9676
  813MOL0     H12163   3.995   6.854   5.626 -0.3584 -0.5438 -1.0416
  813MOL0     H12164   3.736   6.772   5.580 -1.2376  0.1824  3.3340
  813MOL0     H12165   3.702   6.933   5.539  1.5700  1.1754 -1.7505
  813MOL0     H12166   3.841   6.833   5.793 -1.6113 -2.7014 -0.2647
  813MOL0     H12167   3.765   6.991   5.789 -0.5997 -0.6379  0.2687
  813MOL0     H12168   3.604   6.726   5.773 -2.7038  0.6096 -0.2759
  813MOL0     H12169   3.549   6.896   5.775 -0.3886  0.5055  1.1557
  813MOL0     H12170   3.658   6.920   5.998 -0.3203  0.7099 -1.4310
  813MOL0     H12171   3.708   6.750   5.986 -1.2305 -0.1301  1.5529
  813MOL0     H12172   3.513   6.798   6.131  0.7368  1.7608 -0.3748
  813MOL0     H12173   3.467   6.678   6.010 -3.1911  0.5511  1.4369
  813MOL0     H12174   4.298   7.018   5.138 -2.6556 -2.3939  1.9861
  813MOL0     H12175   4.558   7.058   5.134  3.7382 -1.8279  0.4308
  813MOL0     H12176   4.953   6.937   5.455 -0.7466 -0.1377 -1.2539
  813MOL0     H12177   5.186   6.967   5.479  0.8707  0.2231  1.7267
  813MOL0     H12178   4.581   7.897   5.988  5.0162 -0.4665 -1.4109
  813MOL0     H12179   4.380   7.739   5.969  2.1928 -0.6308 -0.9552
  813MOL0     H12180   4.103   7.502   6.040  2.2454 -1.0626  1.1255
  813MOL0     H12181   3.896   7.372   6.026 -0.2589  0.7689 -0.3504
  813MOL0     H12182   3.634   7.325   5.832 -0.6181 -0.4231 -1.8002
  813MOL0     H12183   3.768   7.425   5.777 -0.1276  0.1929  1.6983
  813MOL0     H12184   3.577   7.242   5.645 -0.7146 -0.3608 -0.0386
  813MOL0     H12185   3.735   7.216   5.586 -0.5060 -0.5449  1.5334
  813MOL0     H12186   3.596   7.413   5.471 -0.4543  2.9932  0.1797
  813MOL0     H12187   3.636   7.504   5.615  1.0759  0.1785 -0.1504
  813MOL0     H12188   3.873   7.425   5.582 -0.3802 -3.2563  0.1186
  813MOL0     H12189   3.827   7.541   5.455 -0.2276 -0.3168 -2.2656
  813MOL0     H12190   3.932   7.163   5.287  0.9032 -1.2012  1.1169
  813MOL0     H12191   4.012   7.194   5.673  2.2205 -1.0036  1.1569
  813MOL0     H12192   4.337   7.230   5.657  0.4586  1.9370  1.2114
  813MOL0     H12193   4.195   7.243   5.549 -1.5927 -0.5879  1.0596
  813MOL0     H12194   4.296   7.381   5.589 -1.9971  0.0157 -0.7855
  814MOL0     O12195   1.388   6.688   6.945 -0.2616  0.5856  0.7935
  814MOL0     C12196   1.344   6.611   7.039 -0.8071 -1.0604 -0.4336
  814MOL0     O12197   1.421   6.524   7.102  0.4688  0.5881  0.6347
  814MOL0     C12198   1.489   6.438   7.027 -0.6377 -0.1139  0.3535
  814MOL0     C12199   1.450   6.307   7.036  0.3709 -0.0313  0.2389
  814MOL0     C12200   1.523   6.209   6.961  0.3686 -0.4211  0.4748
  814MOL0     C12201   1.627   6.244   6.881 -0.5790 -0.1151 -0.5078
  814MOL0     O12202   1.705   6.143   6.821 -0.0478  0.3096 -0.8003
  814MOL0     C12203   1.779   6.168   6.700  0.2803  0.1784  0.4480
  814MOL0     C12204   1.865   6.044   6.657  0.2073  0.5775 -0.0108
  814MOL0     C12205   1.952   6.095   6.544 -0.3076  0.4417 -0.0689
  814MOL0     C12206   2.064   5.986   6.515 -0.0892 -0.0002  1.4279
  814MOL0     C12207   2.172   6.028   6.410  0.5085  0.0107 -0.0880
  814MOL0     C12208   2.124   6.091   6.279  0.5957  0.0314  0.1541
  814MOL0     C12209   2.239   6.096   6.176  1.2821 -1.1740 -0.7800
  814MOL0     C12210   2.306   5.966   6.138 -0.2741 -0.0536 -0.2071
  814MOL0     N12211   2.408   6.013   6.040 -0.7678 -0.0381  0.6495
  814MOL0     C12212   2.370   6.043   5.906 -0.5059  0.4178  0.3928
  814MOL0     C12213   2.482   6.099   5.858 -0.0382 -0.0872 -0.4942
  814MOL0     C12214   2.479   6.177   5.721  0.3387  0.6611 -0.4612
  814MOL0     C12215   2.619   6.204   5.662 -0.6861  0.2121 -0.2559
  814MOL0     C12216   2.688   6.073   5.625  0.1584  0.2470 -0.2951
  814MOL0     C12217   2.615   5.987   5.529 -0.5144 -0.0018 -0.3371
  814MOL0     O12218   2.544   6.048   5.425 -0.3130  0.8812  0.5418
  814MOL0     C12219   2.476   5.958   5.332 -1.5805 -0.1200 -1.1984
  814MOL0     C12220   2.464   5.825   5.361  0.0857 -0.0647 -0.5080
  814MOL0     C12221   2.419   5.723   5.277 -0.1013  0.7778 -0.7513
  814MOL0     C12222   2.408   5.586   5.332  0.9253  0.5771 -1.5245
  814MOL0     C12223   2.373   5.756   5.144  0.1111  0.7341 -0.4865
  814MOL0     C12224   2.314   5.674   5.039  0.1465 -0.6178 -0.3068
  814MOL0     O12225   2.293   5.735   4.912 -0.1308 -0.4064 -0.2755
  814MOL0     C12226   2.294   5.648   4.804 -0.3195 -0.2168  0.4088
  814MOL0     C12227   2.421   5.625   4.747  0.1791 -0.3291  0.5606
  814MOL0     C12228   2.426   5.546   4.632  0.5878 -0.0740  0.0793
  814MOL0     C12229   2.313   5.497   4.567 -0.9085 -0.4368 -0.6371
  814MOL0     O12230   2.318   5.425   4.455  0.7482 -0.1820  0.9994
  814MOL0     C12231   2.428   5.334   4.431 -0.4222  0.2956 -0.9165
  814MOL0     C12232   2.390   5.213   4.344 -0.0942  0.2385 -0.3751
  814MOL0     C12233   2.512   5.117   4.306 -0.2962 -0.0528  0.4618
  814MOL0     C12234   2.517   4.996   4.391 -0.8010  0.4273  0.4053
  814MOL0     C12235   2.643   4.914   4.352  0.1276 -0.0931 -0.4650
  814MOL0     C12236   2.653   4.775   4.427  0.5666 -0.0717  0.5435
  814MOL0     C12237   2.773   4.765   4.517 -0.3377 -0.6044 -0.1656
  814MOL0     C12238   2.755   4.653   4.621 -0.3801 -1.0198  0.8175
  814MOL0    Cl12239   2.769   4.491   4.549 -0.3284 -0.5393  0.0276
  814MOL0     C12240   2.193   5.533   4.623 -0.5355  0.3343 -0.5849
  814MOL0     C12241   2.185   5.612   4.739  0.5759 -0.0304  0.3805
  814MOL0     O12242   2.291   5.552   5.063 -0.0921  0.5783  0.4509
  814MOL0     C12243   2.379   5.898   5.122  1.2936  0.4255  0.1698
  814MOL0     C12244   2.433   5.996   5.212 -0.0306  0.3987 -0.1051
  814MOL0     N12245   2.572   6.113   5.958  0.4967  0.6325 -0.8893
  814MOL0     N12246   2.535   6.051   6.066 -0.0305 -0.3902  0.5737
  814MOL0     C12247   1.678   6.374   6.891  0.2048 -0.2899  0.2843
  814MOL0     C12248   1.608   6.476   6.960 -0.5793 -0.3574 -0.9651
  814MOL0     C12249   1.209   6.636   7.086  0.2554  0.6482 -0.3601
  814MOL0     C12250   1.168   6.557   7.195  0.3325  0.2546 -0.2360
  814MOL0     C12251   1.046   6.580   7.253  0.8918  0.2555 -0.6120
  814MOL0     C12252   0.964   6.681   7.211 -0.4442  0.2572  0.8074
  814MOL0     O12253   0.851   6.734   7.269  1.2120 -0.0768  0.5945
  814MOL0     C12254   0.787   6.654   7.364 -0.1731  0.0132 -0.1159
  814MOL0     C12255   0.670   6.733   7.430  0.5716  0.6565  0.4418
  814MOL0     C12256   0.578   6.792   7.332  0.1536  0.2520  0.2312
  814MOL0     C12257   0.633   6.929   7.280 -0.3517 -0.1919  0.2556
  814MOL0     C12258   0.527   7.032   7.265 -0.0828 -0.8402 -0.0129
  814MOL0     C12259   0.439   7.115   7.247  0.8355  0.3327 -0.5993
  814MOL0     C12260   1.001   6.751   7.096  0.0045 -0.3485  0.7071
  814MOL0     C12261   1.117   6.732   7.027  0.3313  0.5667  0.5380
  814MOL0     C12262   1.166   6.832   6.913 -0.7297  0.3600  0.2099
  814MOL0     H12263   1.363   6.280   7.095  0.0435  1.3012  0.3880
  814MOL0     H12264   1.498   6.104   6.971  1.1864 -0.5251  1.6976
  814MOL0     H12265   1.835   6.262   6.693 -1.0507  0.9649 -0.0085
  814MOL0     H12266   1.706   6.173   6.619  0.5845  0.2096  0.1769
  814MOL0     H12267   1.913   6.004   6.746 -0.1801  1.8568  0.8070
  814MOL0     H12268   1.792   5.972   6.620 -0.0618  0.4326  0.7888
  814MOL0     H12269   1.897   6.108   6.451  1.2697 -0.5740 -1.1961
  814MOL0     H12270   2.004   6.190   6.563  2.5202 -0.2646 -3.2958
  814MOL0     H12271   2.115   5.958   6.608  2.7700 -2.1480 -0.6206
  814MOL0     H12272   2.009   5.898   6.481 -0.9427  0.5436  1.3705
  814MOL0     H12273   2.231   5.937   6.397 -1.3895 -1.5007  1.2129
  814MOL0     H12274   2.237   6.101   6.459 -3.4585  4.6927 -0.9954
  814MOL0     H12275   2.043   6.031   6.236  1.3004 -1.4463  0.8071
  814MOL0     H12276   2.099   6.194   6.305 -0.2574 -0.6818  2.4196
  814MOL0     H12277   2.318   6.162   6.214  2.8019 -2.9915 -0.6432
  814MOL0     H12278   2.192   6.145   6.090 -1.3424  3.2583  2.7113
  814MOL0     H12279   2.349   5.923   6.229 -1.3859 -2.4110 -0.7064
  814MOL0     H12280   2.235   5.897   6.091 -1.3245  1.2587 -0.5933
  814MOL0     H12281   2.273   6.031   5.859 -0.5879  0.1041  0.6365
  814MOL0     H12282   2.433   6.276   5.735 -2.2695 -0.8132  2.7836
  814MOL0     H12283   2.417   6.122   5.649  0.1432  0.0047  0.2077
  814MOL0     H12284   2.622   6.271   5.575  0.4088 -0.4660 -0.7706
  814MOL0     H12285   2.687   6.260   5.726  2.2142  1.2603 -3.8563
  814MOL0     H12286   2.780   6.103   5.575 -0.4512 -0.5558 -1.9791
  814MOL0     H12287   2.715   6.020   5.717  1.5332  0.6978 -0.4276
  814MOL0     H12288   2.683   5.912   5.487 -2.5866 -3.5723  2.0620
  814MOL0     H12289   2.544   5.929   5.588 -2.4870  2.2669 -0.3450
  814MOL0     H12290   2.486   5.787   5.460 -0.3100 -0.9202 -0.7356
  814MOL0     H12291   2.391   5.590   5.440 -0.7326  0.8985 -1.7784
  814MOL0     H12292   2.504   5.533   5.331 -0.0993 -1.3717 -0.8757
  814MOL0     H12293   2.333   5.514   5.300  0.0903 -0.2216  1.8232
  814MOL0     H12294   2.506   5.643   4.812  0.0410 -4.2644  2.1083
  814MOL0     H12295   2.522   5.517   4.591  0.4069  1.3167 -1.4493
  814MOL0     H12296   2.518   5.384   4.392 -1.1434  2.0138 -0.4562
  814MOL0     H12297   2.454   5.293   4.529 -0.0489  0.7982 -0.8041
  814MOL0     H12298   2.312   5.150   4.387 -0.7208  0.0299 -1.7632
  814MOL0     H12299   2.356   5.246   4.245 -1.6855  0.5977  0.2598
  814MOL0     H12300   2.610   5.167   4.311 -1.0542  1.5156  0.0942
  814MOL0     H12301   2.497   5.105   4.198  3.0525  4.7433 -0.8604
  814MOL0     H12302   2.429   4.934   4.370  2.7796 -4.5803 -1.8307
  814MOL0     H12303   2.528   5.023   4.496  2.2623 -0.5961  0.4306
  814MOL0     H12304   2.645   4.898   4.244 -0.2307  4.1940 -1.3090
  814MOL0     H12305   2.725   4.979   4.385 -1.2349  1.5303 -0.1403
  814MOL0     H12306   2.651   4.704   4.345  1.4887 -1.1283  1.4068
  814MOL0     H12307   2.561   4.767   4.485 -0.7546 -0.3929 -1.5128
  814MOL0     H12308   2.787   4.858   4.573 -2.1500  0.0498 -0.7398
  814MOL0     H12309   2.866   4.750   4.462 -0.1084 -0.6294  0.2217
  814MOL0     H12310   2.653   4.682   4.646 -0.2110  1.3421 -0.9237
  814MOL0     H12311   2.823   4.671   4.705  1.0991  1.3463 -0.7657
  814MOL0     H12312   2.099   5.494   4.583  1.2639 -3.1376 -1.9229
  814MOL0     H12313   2.090   5.640   4.782 -1.7105 -2.1571 -2.8826
  814MOL0     H12314   2.334   5.937   5.031 -0.6990  1.3432  1.4694
  814MOL0     H12315   2.452   6.100   5.190 -1.7328  1.5515  3.1838
  814MOL0     H12316   1.769   6.402   6.840  1.2083 -0.1523  2.0567
  814MOL0     H12317   1.649   6.574   6.981 -0.7492 -0.6844  1.1429
  814MOL0     H12318   1.234   6.484   7.239 -1.5908 -2.8897 -2.1176
  814MOL0     H12319   1.031   6.520   7.343  1.0643  1.0551 -0.0330
  814MOL0     H12320   0.744   6.565   7.317  0.1439 -0.1446 -0.1114
  814MOL0     H12321   0.854   6.628   7.446 -1.2080 -0.8053  0.5046
  814MOL0     H12322   0.710   6.806   7.501  1.0726 -0.6591  1.5604
  814MOL0     H12323   0.611   6.665   7.493  2.2405 -1.2579  0.0558
  814MOL0     H12324   0.571   6.716   7.254 -2.6592 -1.4346  1.9300
  814MOL0     H12325   0.474   6.796   7.366  0.6107 -0.5016  1.7942
  814MOL0     H12326   0.687   6.922   7.185 -0.3537  0.1779  0.2270
  814MOL0     H12327   0.704   6.960   7.358 -1.7102  1.4601  0.8742
  814MOL0     H12328   0.341   7.159   7.239  0.2667 -0.8378 -0.3089
  814MOL0     H12329   0.938   6.830   7.056 -0.2860 -1.0027 -0.1669
  814MOL0     H12330   1.194   6.770   6.827 -0.2694  0.2750  0.4130
  814MOL0     H12331   1.085   6.903   6.900 -3.2556 -2.1158  1.2597
  814MOL0     H12332   1.254   6.888   6.947 -1.3095  1.8511 -0.6931
  815MOL0     O12333   4.388   4.952   0.699 -0.3159  0.0287 -0.2637
  815MOL0     C12334   4.284   5.007   0.661  0.4552 -0.4969  0.8456
  815MOL0     O12335   4.196   5.076   0.740  0.1476 -0.3444  0.0373
  815MOL0     C12336   4.200   5.073   0.880 -0.0126 -0.1392  1.0068
  815MOL0     C12337   4.189   4.957   0.949 -0.6229 -0.4719 -0.9760
  815MOL0     C12338   4.188   4.945   1.091  0.1652 -0.0799  0.1339
  815MOL0     C12339   4.200   5.060   1.162 -0.1266 -0.3147  1.1456
  815MOL0     O12340   4.209   5.049   1.299 -0.0219 -0.3094  0.5058
  815MOL0     C12341   4.317   5.119   1.355  0.3584 -0.4500  0.1182
  815MOL0     C12342   4.280   5.255   1.419  0.2386 -0.1687 -0.2535
  815MOL0     C12343   4.154   5.240   1.505  0.0524  0.4280  0.2203
  815MOL0     C12344   4.122   5.383   1.559 -0.0396 -0.0255  0.0559
  815MOL0     C12345   3.983   5.386   1.618 -0.6266 -0.8465 -0.2950
  815MOL0     C12346   3.942   5.515   1.698 -0.0540 -0.4827 -0.7014
  815MOL0     C12347   3.812   5.491   1.758  0.0703 -0.0094  0.0659
  815MOL0     C12348   3.693   5.463   1.664 -0.1175 -1.2238  0.1843
  815MOL0     N12349   3.665   5.567   1.564 -0.5464 -0.4194 -0.2156
  815MOL0     C12350   3.732   5.597   1.447  0.4504 -0.4929  0.2096
  815MOL0     C12351   3.650   5.687   1.385  0.7676 -0.4758  0.4150
  815MOL0     C12352   3.681   5.770   1.268 -0.2541  1.2495  0.3378
  815MOL0     C12353   3.622   5.714   1.139  0.2716  0.8071 -0.4831
  815MOL0     C12354   3.469   5.744   1.132 -0.2626  0.6098 -0.7594
  815MOL0     C12355   3.441   5.879   1.071 -0.2128  0.0702 -0.2501
  815MOL0     O12356   3.479   5.880   0.936 -0.7769 -0.5172 -0.0501
  815MOL0     C12357   3.381   5.877   0.841 -0.0771 -0.3106 -0.2418
  815MOL0     C12358   3.392   5.959   0.728  0.3621  0.1673 -0.0779
  815MOL0     C12359   3.299   5.951   0.623  0.6058 -0.0722 -0.1279
  815MOL0     C12360   3.303   6.056   0.509 -0.9557  0.1521 -0.1197
  815MOL0     C12361   3.179   5.871   0.643 -0.1351  0.0746  0.0420
  815MOL0     C12362   3.062   5.868   0.557  0.8590  0.8010  0.2238
  815MOL0     O12363   2.948   5.816   0.608 -0.2235  0.2257  0.0196
  815MOL0     C12364   2.835   5.832   0.543  0.3501 -0.3139 -0.2252
  815MOL0     C12365   2.746   5.934   0.570 -0.1686 -0.8310  0.2986
  815MOL0     C12366   2.630   5.951   0.494  0.4683  0.0790 -0.0165
  815MOL0     C12367   2.610   5.864   0.380 -0.0916  0.2987 -0.1231
  815MOL0     O12368   2.493   5.876   0.317  1.2319 -0.6864  1.3947
  815MOL0     C12369   2.477   5.830   0.173  0.3077  0.8778 -1.1619
  815MOL0     C12370   2.335   5.782   0.162  0.5113  0.2263 -0.1067
  815MOL0     C12371   2.312   5.653   0.227 -0.9592  1.5725 -0.6233
  815MOL0     C12372   2.167   5.598   0.213  0.2289  0.3420 -1.2228
  815MOL0     C12373   2.122   5.568   0.073  1.3444 -0.0345  0.2023
  815MOL0     C12374   1.976   5.514   0.062 -0.0350 -0.4540  0.3103
  815MOL0     C12375   1.861   5.605   0.109  0.7679 -0.2170  0.4655
  815MOL0     C12376   1.729   5.526   0.071 -0.4189  0.4813 -0.3331
  815MOL0    Cl12377   1.583   5.623   0.115  0.4087  0.1835 -0.2184
  815MOL0     C12378   2.697   5.753   0.357  0.9504 -0.1289 -0.1842
  815MOL0     C12379   2.806   5.741   0.441 -0.2877  1.0030 -1.0094
  815MOL0     O12380   3.074   5.896   0.434 -0.1556  0.3732  0.6647
  815MOL0     C12381   3.176   5.784   0.760 -0.4378  0.4365  0.2224
  815MOL0     C12382   3.274   5.790   0.855  0.1864  0.1784 -0.4810
  815MOL0     N12383   3.542   5.712   1.468 -0.8666  0.4721  0.0486
  815MOL0     N12384   3.548   5.628   1.569  1.0067  0.4970  0.1912
  815MOL0     C12385   4.207   5.193   1.094 -0.2462  0.2148  0.0504
  815MOL0     C12386   4.205   5.196   0.949 -1.2613 -0.3128  1.1670
  815MOL0     C12387   4.253   5.011   0.517 -0.0215  0.1440 -0.0811
  815MOL0     C12388   4.214   4.887   0.456 -0.5903  0.2065 -0.3862
  815MOL0     C12389   4.171   4.885   0.322 -0.2539 -0.0511  0.5797
  815MOL0     C12390   4.159   5.008   0.248  0.2550  0.1642 -0.1077
  815MOL0     O12391   4.119   5.019   0.119  0.0136 -0.4231  0.6871
  815MOL0     C12392   4.110   4.900   0.032 -0.4469 -0.5221  0.1617
  815MOL0     C12393   4.076   4.949  -0.112 -0.3773 -0.5606 -0.9429
  815MOL0     C12394   3.933   5.007  -0.116  0.4910  0.1324  0.4261
  815MOL0     C12395   3.913   5.109  -0.223 -0.3196 -0.0371 -0.4155
  815MOL0     C12396   3.897   5.054  -0.358  0.2635 -0.3434  0.2962
  815MOL0     C12397   3.902   5.020  -0.475 -0.1520  0.1654  0.1282
  815MOL0     C12398   4.193   5.125   0.316  0.2813  0.4866  0.4012
  815MOL0     C12399   4.247   5.134   0.446 -0.2529 -0.3430  0.2304
  815MOL0     C12400   4.274   5.268   0.505 -0.0245 -0.2760  0.4665
  815MOL0     H12401   4.185   4.863   0.896  3.4019 -2.1392  1.1848
  815MOL0     H12402   4.169   4.854   1.147 -5.8739  1.1474  0.7810
  815MOL0     H12403   4.393   5.127   1.277  2.6105 -0.9761  2.1379
  815MOL0     H12404   4.363   5.060   1.435  1.6595  1.0527  0.5465
  815MOL0     H12405   4.356   5.299   1.484 -0.5560  0.8149  0.0320
  815MOL0     H12406   4.261   5.324   1.336 -1.3256 -0.7737 -0.4405
  815MOL0     H12407   4.071   5.212   1.440  0.4805  0.1638 -0.2158
  815MOL0     H12408   4.175   5.166   1.583  2.7637  0.2259 -0.6053
  815MOL0     H12409   4.209   5.411   1.619  0.6482 -1.0302 -0.4456
  815MOL0     H12410   4.118   5.460   1.480 -0.7638  1.6726  1.6823
  815MOL0     H12411   3.988   5.312   1.698 -0.9133 -0.8558 -0.2844
  815MOL0     H12412   3.900   5.369   1.549 -1.1230 -1.6767  0.4864
  815MOL0     H12413   4.005   5.535   1.785  0.1583 -1.4954 -0.6103
  815MOL0     H12414   3.943   5.602   1.632 -3.8200 -0.5011 -0.9830
  815MOL0     H12415   3.777   5.580   1.812 -3.8324 -0.8411 -0.7908
  815MOL0     H12416   3.818   5.415   1.836  2.6163 -0.5106 -0.5450
  815MOL0     H12417   3.695   5.363   1.620 -0.1767  0.1822 -3.3566
  815MOL0     H12418   3.613   5.464   1.739 -1.3605  1.4467 -1.0186
  815MOL0     H12419   3.831   5.566   1.415 -0.3931  0.3141 -3.6308
  815MOL0     H12420   3.790   5.766   1.265 -0.2508 -1.2743  1.6288
  815MOL0     H12421   3.643   5.868   1.299 -3.1396  0.0848  0.8030
  815MOL0     H12422   3.683   5.746   1.054  1.0760 -2.1581 -1.1327
  815MOL0     H12423   3.635   5.605   1.143 -0.5464  0.7242 -0.0404
  815MOL0     H12424   3.413   5.662   1.086  2.4623 -1.3798 -0.7330
  815MOL0     H12425   3.431   5.746   1.234 -0.5524  0.1443 -0.8543
  815MOL0     H12426   3.338   5.912   1.085 -0.5799 -0.5306 -1.4233
  815MOL0     H12427   3.512   5.951   1.113 -0.7943  0.7990 -0.5078
  815MOL0     H12428   3.481   6.017   0.706  0.7235 -1.1487 -2.3990
  815MOL0     H12429   3.275   6.020   0.410  2.6957  2.2578 -2.1367
  815MOL0     H12430   3.397   6.104   0.480 -1.8751  0.6692 -2.3954
  815MOL0     H12431   3.237   6.136   0.542  2.0011  3.0126 -0.5863
  815MOL0     H12432   2.756   6.008   0.649 -0.5972  1.5432 -1.7630
  815MOL0     H12433   2.561   6.033   0.507  2.0007  0.9046  5.2411
  815MOL0     H12434   2.501   5.918   0.113  0.6534  0.1776 -2.0955
  815MOL0     H12435   2.545   5.755   0.131  0.3405  1.3775 -2.0342
  815MOL0     H12436   2.269   5.854   0.211 -0.3260 -0.8607  0.4268
  815MOL0     H12437   2.301   5.770   0.059 -0.9349  1.3623  0.2024
  815MOL0     H12438   2.338   5.672   0.331  1.9371 -0.2229 -0.9056
  815MOL0     H12439   2.377   5.570   0.197 -1.0002 -0.4368  4.0677
  815MOL0     H12440   2.090   5.663   0.256  2.3721  0.6615  2.6731
  815MOL0     H12441   2.161   5.502   0.265  0.7639 -0.2412 -2.2097
  815MOL0     H12442   2.141   5.650   0.002 -2.0469  0.6699 -0.0698
  815MOL0     H12443   2.184   5.486   0.036  0.9320 -0.0785 -0.4145
  815MOL0     H12444   1.965   5.426   0.126 -0.5525 -0.6077  0.0211
  815MOL0     H12445   1.960   5.468  -0.036  1.0682 -0.3052  0.0484
  815MOL0     H12446   1.866   5.702   0.058  1.2110 -1.4029 -1.8726
  815MOL0     H12447   1.875   5.622   0.216  0.5553  1.3395  0.2700
  815MOL0     H12448   1.745   5.437   0.133 -0.3369  1.7605  1.5735
  815MOL0     H12449   1.739   5.486  -0.031  1.8802  2.8501 -1.1296
  815MOL0     H12450   2.687   5.673   0.284 -0.7858 -1.3671  1.3282
  815MOL0     H12451   2.876   5.659   0.427 -0.1131  1.0641 -0.5067
  815MOL0     H12452   3.088   5.724   0.782 -2.4983  2.7086 -1.1764
  815MOL0     H12453   3.267   5.729   0.945  1.3342  0.9472  0.1409
  815MOL0     H12454   4.213   5.284   1.154  1.1840 -1.2099  2.2266
  815MOL0     H12455   4.212   5.288   0.892 -0.6372 -1.1970 -0.2251
  815MOL0     H12456   4.216   4.795   0.512  1.7590 -1.3721 -2.8300
  815MOL0     H12457   4.145   4.792   0.273 -0.2901  0.5136 -0.5003
  815MOL0     H12458   4.200   4.838   0.028 -0.6022 -0.7770  0.6131
  815MOL0     H12459   4.026   4.834   0.054 -0.3396 -1.8874 -2.9553
  815MOL0     H12460   4.080   4.857  -0.170 -3.1632 -1.3296 -0.0593
  815MOL0     H12461   4.150   5.023  -0.145  1.7370 -1.3664  1.6389
  815MOL0     H12462   3.859   4.926  -0.115  0.2607  0.3409  0.8017
  815MOL0     H12463   3.905   5.050  -0.019 -2.5028  0.7403 -0.5929
  815MOL0     H12464   4.002   5.172  -0.213  0.2132 -0.5994 -1.4513
  815MOL0     H12465   3.827   5.173  -0.201 -1.9500 -2.6371  1.3318
  815MOL0     H12466   3.906   4.977  -0.573 -0.8998  0.8198 -0.1937
  815MOL0     H12467   4.180   5.217   0.260  0.9238  0.6853  0.5717
  815MOL0     H12468   4.235   5.349   0.443 -2.0027 -0.3476  1.5501
  815MOL0     H12469   4.217   5.274   0.598  0.2142  4.0693  0.5086
  815MOL0     H12470   4.381   5.273   0.528  0.6446 -3.1943 -1.4713
  816MOL0     O12471  10.938   6.017   5.245 -0.1906 -0.4851 -0.2834
  816MOL0     C12472  10.899   5.925   5.176  0.2939  0.3930 -0.3766
  816MOL0     O12473  10.837   5.933   5.052  0.6648  0.8672  0.2748
  816MOL0     C12474  10.833   6.055   4.989  1.3053 -0.4191 -0.0557
  816MOL0     C12475  10.742   6.067   4.886  0.0862  0.3502 -0.0822
  816MOL0     C12476  10.736   6.189   4.822 -0.6519  0.2586  1.0241
  816MOL0     C12477  10.817   6.297   4.842  0.6229  1.0999 -0.0356
  816MOL0     O12478  10.809   6.418   4.780 -0.0285  0.0789 -0.3350
  816MOL0     C12479  10.812   6.403   4.638 -0.2578  0.3184  0.4215
  816MOL0     C12480  10.837   6.533   4.566  0.7990 -0.4286 -0.7927
  816MOL0     C12481  10.723   6.633   4.592 -0.2491 -0.1104 -0.5663
  816MOL0     C12482  10.709   6.731   4.482  0.1309 -0.2414 -0.2990
  816MOL0     C12483  10.604   6.846   4.512 -0.9113 -0.3727  0.7765
  816MOL0     C12484  10.465   6.785   4.523  0.3544  0.6072  0.3720
  816MOL0     C12485  10.356   6.877   4.571  0.2784 -1.0484 -1.0494
  816MOL0     C12486  10.356   6.871   4.723 -0.0009  1.1654 -0.5517
  816MOL0     N12487  10.264   6.957   4.788 -0.8910 -0.3876 -0.1601
  816MOL0     C12488  10.282   7.096   4.805 -0.1197 -0.1784  0.6676
  816MOL0     C12489  10.167   7.138   4.876 -0.3219  0.1340 -0.6244
  816MOL0     C12490  10.137   7.273   4.920 -0.0489 -0.0586 -0.2185
  816MOL0     C12491  10.209   7.310   5.056  0.4279 -0.1173 -0.2932
  816MOL0     C12492  10.138   7.227   5.171  0.5239  0.3497  0.4014
  816MOL0     C12493  10.213   7.267   5.290 -0.6431 -1.3985  0.4497
  816MOL0     O12494  10.172   7.402   5.318  0.0737  0.2094  1.1506
  816MOL0     C12495  10.278   7.500   5.307  0.2400 -0.2296 -0.3055
  816MOL0     C12496  10.410   7.482   5.348 -0.3410 -0.9460  0.4286
  816MOL0     C12497  10.502   7.588   5.332 -0.4116  1.3169 -0.0437
  816MOL0     C12498  10.638   7.537   5.382  0.2583  0.3527  0.1174
  816MOL0     C12499  10.458   7.713   5.283  0.1564  0.9110  0.8809
  816MOL0     C12500  10.547   7.835   5.263  0.4684  1.0660 -0.9298
  816MOL0     O12501  10.482   7.956   5.250  0.8776 -0.1903 -0.4927
  816MOL0     C12502  10.562   8.061   5.227  0.2431  0.1977  0.6545
  816MOL0     C12503  10.609   8.093   5.099  0.2952 -0.9163 -0.2362
  816MOL0     C12504  10.687   8.211   5.087 -0.3438  0.1364  0.1194
  816MOL0     C12505  10.724   8.292   5.197 -0.4945 -0.4455 -0.3214
  816MOL0     O12506  10.804   8.401   5.185  0.3848 -1.3703 -0.8100
  816MOL0     C12507  10.783   8.488   5.077 -0.0365  0.9132 -0.7698
  816MOL0     C12508  10.641   8.554   5.063  0.2643 -0.1842  0.1348
  816MOL0     C12509  10.649   8.663   4.967 -1.1139 -0.2013  0.5301
  816MOL0     C12510  10.543   8.774   4.984  0.1680  0.0457 -0.4693
  816MOL0     C12511  10.580   8.915   4.936 -1.2205 -0.4247 -0.5963
  816MOL0     C12512  10.472   9.010   4.933 -0.5395 -0.1419 -0.3285
  816MOL0     C12513  10.424   9.068   5.067  0.2539 -0.0619 -0.8243
  816MOL0     C12514  10.275   9.079   5.071  0.5411 -0.2224 -0.0943
  816MOL0    Cl12515  10.186   8.928   5.076 -0.3607 -0.1997  0.0891
  816MOL0     C12516  10.689   8.252   5.324  0.6528  1.2056  0.5444
  816MOL0     C12517  10.608   8.136   5.336  0.5622 -0.6470 -0.6960
  816MOL0     O12518  10.667   7.815   5.233  0.0340 -0.1278 -0.3308
  816MOL0     C12519  10.323   7.733   5.250 -0.5720 -0.1554 -0.1060
  816MOL0     C12520  10.242   7.629   5.256 -0.5762 -0.1805 -0.6174
  816MOL0     N12521  10.101   7.017   4.903 -0.9547 -0.4077 -0.3810
  816MOL0     N12522  10.155   6.915   4.853 -1.2818 -0.2242  0.1056
  816MOL0     C12523  10.916   6.283   4.942 -0.0505  0.0792 -0.9674
  816MOL0     C12524  10.924   6.166   5.016 -0.8239  0.2777  0.3399
  816MOL0     C12525  10.911   5.785   5.228  0.0117  0.2187 -0.1385
  816MOL0     C12526  10.990   5.769   5.350  0.6239 -0.0631  0.4306
  816MOL0     C12527  11.015   5.643   5.405  0.0341 -0.6534  0.5012
  816MOL0     C12528  10.973   5.532   5.343  0.2038  0.4565 -0.3771
  816MOL0     O12529  10.995   5.411   5.392 -0.1022  0.4566 -0.9755
  816MOL0     C12530  11.116   5.387   5.461 -0.4693  0.0510  0.2386
  816MOL0     C12531  11.144   5.242   5.481  0.0161 -0.2101 -0.8870
  816MOL0     C12532  11.236   5.213   5.596  0.4291  0.0092  0.4475
  816MOL0     C12533  11.300   5.072   5.577  0.1593  0.0753 -0.9861
  816MOL0     C12534  11.407   5.046   5.678  0.7143 -0.1949 -0.0856
  816MOL0     C12535  11.489   5.039   5.767  0.3108  0.5795  0.3285
  816MOL0     C12536  10.901   5.543   5.232  0.4261 -0.2473  0.3104
  816MOL0     C12537  10.857   5.668   5.174  0.3042  0.9971  0.3390
  816MOL0     C12538  10.779   5.660   5.046  0.0708 -0.1488  0.3718
  816MOL0     H12539  10.673   5.984   4.872 -0.4445  0.5504  1.2082
  816MOL0     H12540  10.664   6.219   4.747  1.5794  2.1884 -0.5007
  816MOL0     H12541  10.722   6.357   4.596  1.3249 -1.5929 -1.1209
  816MOL0     H12542  10.897   6.334   4.629  1.9236  1.6803  6.3329
  816MOL0     H12543  10.931   6.578   4.599 -0.0546  1.5648 -0.8969
  816MOL0     H12544  10.840   6.513   4.458 -0.1282  0.0975 -0.9334
  816MOL0     H12545  10.634   6.569   4.600  0.5424 -1.3501 -1.3816
  816MOL0     H12546  10.750   6.677   4.688  0.3382  0.3350 -0.9278
  816MOL0     H12547  10.807   6.777   4.468  1.1310 -2.4099 -0.8181
  816MOL0     H12548  10.681   6.680   4.390  0.6683  1.8190 -1.6591
  816MOL0     H12549  10.600   6.921   4.433 -2.1277 -2.2892 -1.0611
  816MOL0     H12550  10.640   6.894   4.604  1.8245  1.1016 -0.9419
  816MOL0     H12551  10.444   6.749   4.421 -0.7094  0.5996  0.5836
  816MOL0     H12552  10.469   6.694   4.583 -0.5553 -0.4229 -1.0402
  816MOL0     H12553  10.256   6.848   4.538  0.3068  0.0678 -2.1780
  816MOL0     H12554  10.380   6.975   4.530 -1.7425 -1.1291 -2.5977
  816MOL0     H12555  10.338   6.767   4.755  1.1689 -0.8652 -5.5450
  816MOL0     H12556  10.458   6.884   4.762  0.2105 -2.8927  0.7253
  816MOL0     H12557  10.364   7.163   4.782 -1.1477  1.0036  0.2782
  816MOL0     H12558  10.030   7.290   4.932  0.5596  2.2237  4.6297
  816MOL0     H12559  10.183   7.343   4.849  0.5391 -0.5545 -0.3379
  816MOL0     H12560  10.317   7.298   5.049  0.4091 -0.7743  0.5469
  816MOL0     H12561  10.193   7.418   5.063 -0.4195 -0.1625 -1.2507
  816MOL0     H12562  10.036   7.259   5.192  0.4591 -0.1307  0.8154
  816MOL0     H12563  10.142   7.118   5.164 -1.5704  0.3047 -1.0843
  816MOL0     H12564  10.174   7.200   5.367  2.4647 -2.8738  0.8619
  816MOL0     H12565  10.321   7.256   5.279 -0.6980 -1.7010  0.1935
  816MOL0     H12566  10.439   7.396   5.408  1.3103 -0.4316  0.4208
  816MOL0     H12567  10.640   7.434   5.419 -3.2138 -0.0387 -0.4500
  816MOL0     H12568  10.677   7.610   5.452  2.1316  0.9942 -1.4992
  816MOL0     H12569  10.716   7.536   5.305 -0.9397  0.6130 -1.1502
  816MOL0     H12570  10.575   8.024   5.022  1.0870 -3.1962  1.3327
  816MOL0     H12571  10.725   8.240   4.990 -0.2523  0.5369  0.2711
  816MOL0     H12572  10.861   8.565   5.087  0.8653 -0.1503  0.7101
  816MOL0     H12573  10.803   8.427   4.988 -2.1385 -0.6047 -0.2757
  816MOL0     H12574  10.583   8.469   5.025  0.4574 -0.3895  0.2912
  816MOL0     H12575  10.615   8.588   5.163 -1.1345  0.3949 -0.4103
  816MOL0     H12576  10.640   8.626   4.864  0.7781 -4.6321  1.7384
  816MOL0     H12577  10.744   8.717   4.976 -1.1638  0.2874 -1.3615
  816MOL0     H12578  10.527   8.792   5.091 -0.1963 -1.1028 -0.3148
  816MOL0     H12579  10.456   8.741   4.926  1.8687 -0.6388 -2.7987
  816MOL0     H12580  10.660   8.962   4.992 -3.1264  0.6667  1.3577
  816MOL0     H12581  10.607   8.912   4.830 -1.5425  1.0203 -0.7312
  816MOL0     H12582  10.384   8.965   4.885 -1.1582  2.0930 -1.4067
  816MOL0     H12583  10.502   9.092   4.868 -0.9430  0.9330  0.8059
  816MOL0     H12584  10.468   9.167   5.081 -0.2372  0.2379 -1.3507
  816MOL0     H12585  10.454   9.013   5.157 -0.1908  0.5618 -0.2845
  816MOL0     H12586  10.244   9.128   4.978 -3.8991 -2.6805 -0.2217
  816MOL0     H12587  10.238   9.134   5.158 -2.1594 -1.6805 -0.1824
  816MOL0     H12588  10.733   8.290   5.415 -1.3361 -0.7538  2.4530
  816MOL0     H12589  10.572   8.093   5.429  0.6200 -1.5385 -1.0688
  816MOL0     H12590  10.278   7.827   5.219  0.5897  0.8909  1.2131
  816MOL0     H12591  10.139   7.640   5.226 -0.6539  1.3734  0.1175
  816MOL0     H12592  10.973   6.375   4.946 -1.0681  0.8068 -2.5748
  816MOL0     H12593  11.021   6.157   5.064  1.9150  4.6666 -3.5771
  816MOL0     H12594  11.022   5.863   5.395 -0.6593  3.0775 -4.4972
  816MOL0     H12595  11.077   5.644   5.494  2.5824 -2.2341 -1.1167
  816MOL0     H12596  11.205   5.440   5.428  0.4201 -1.0968  0.6938
  816MOL0     H12597  11.099   5.427   5.561 -2.0249 -4.5046  2.0969
  816MOL0     H12598  11.177   5.215   5.380 -0.3869 -2.8364 -0.3926
  816MOL0     H12599  11.061   5.174   5.501  0.1038  0.4506  2.2054
  816MOL0     H12600  11.321   5.282   5.606 -0.9075  2.0922 -1.5593
  816MOL0     H12601  11.179   5.198   5.688 -2.5133 -1.3652 -1.4193
  816MOL0     H12602  11.349   5.054   5.481  0.8316 -1.6219 -0.3591
  816MOL0     H12603  11.226   4.992   5.578 -0.5711  0.7247  0.6119
  816MOL0     H12604  11.558   5.026   5.847  2.9377 -2.0730 -2.1075
  816MOL0     H12605  10.868   5.450   5.187  1.0179  0.4565 -1.6782
  816MOL0     H12606  10.753   5.556   5.023 -0.8549  0.0075  0.6835
  816MOL0     H12607  10.687   5.718   5.058 -1.6699 -2.7670  0.5634
  816MOL0     H12608  10.833   5.702   4.960 -0.4162  2.0606  1.0954
  817MOL0     O12609  11.352  11.000   5.528  0.0388 -0.1052  0.2045
  817MOL0     C12610  11.307  11.113   5.507  0.5783 -0.0975 -0.3769
  817MOL0     O12611  11.263  11.172   5.389 -0.6515  0.3217  0.1525
  817MOL0     C12612  11.251  11.092   5.277 -0.0359 -0.9059 -0.3076
  817MOL0     C12613  11.364  11.033   5.229  0.1186  0.6577  0.9104
  817MOL0     C12614  11.349  10.946   5.116  0.3081  0.0923 -0.4896
  817MOL0     C12615  11.227  10.917   5.063 -1.2192  1.2230  1.0555
  817MOL0     O12616  11.228  10.812   4.969  0.0658  0.3446 -0.2171
  817MOL0     C12617  11.110  10.788   4.895 -0.2633 -0.2708  0.7326
  817MOL0     C12618  11.156  10.709   4.768  0.5300  0.0135  0.1328
  817MOL0     C12619  11.026  10.667   4.680 -0.7378 -0.6609 -0.2506
  817MOL0     C12620  10.984  10.781   4.583  0.3212  0.4858  0.4079
  817MOL0     C12621  10.863  10.758   4.486 -0.7763  0.3298 -0.7316
  817MOL0     C12622  10.742  10.775   4.584 -0.5081 -0.4090  0.0424
  817MOL0     C12623  10.613  10.753   4.493 -0.4974 -0.7335  0.4611
  817MOL0     C12624  10.484  10.798   4.564  0.5641 -0.3317 -0.1370
  817MOL0     N12625  10.450  10.703   4.675 -0.1613 -0.0623  0.6797
  817MOL0     C12626  10.484  10.693   4.813 -0.0531 -0.2525 -0.3266
  817MOL0     C12627  10.463  10.558   4.848 -0.4111 -0.2748  0.4907
  817MOL0     C12628  10.498  10.506   4.980  0.1849  0.8028 -0.3256
  817MOL0     C12629  10.566  10.366   4.968  0.9993 -0.4196 -0.1916
  817MOL0     C12630  10.709  10.389   4.939 -0.0497  0.5167  0.7384
  817MOL0     C12631  10.781  10.262   4.906  0.4180 -0.6671 -0.1730
  817MOL0     O12632  10.751  10.220   4.773  0.9072  0.6567 -0.4617
  817MOL0     C12633  10.836  10.257   4.674 -0.0599 -0.0073 -0.3089
  817MOL0     C12634  10.973  10.217   4.678  1.1894  0.0295 -0.9111
  817MOL0     C12635  11.047  10.241   4.564 -0.8879 -0.7395  0.1274
  817MOL0     C12636  11.186  10.177   4.578 -0.3377  0.5992  0.2842
  817MOL0     C12637  10.992  10.309   4.446  0.7684 -0.0167  0.1905
  817MOL0     C12638  11.067  10.368   4.334  0.5678 -0.2313 -0.2869
  817MOL0     O12639  11.003  10.405   4.224 -0.0820  0.1130 -0.7130
  817MOL0     C12640  11.065  10.416   4.098 -0.4489 -0.0340 -0.8083
  817MOL0     C12641  11.183  10.356   4.044 -0.0437  0.3532  1.3082
  817MOL0     C12642  11.248  10.398   3.925 -0.6408  0.3030  0.4276
  817MOL0     C12643  11.181  10.488   3.848 -0.1802  0.3998 -0.1070
  817MOL0     O12644  11.219  10.544   3.729 -0.6328  0.4421  0.5751
  817MOL0     C12645  11.239  10.460   3.619 -0.8546  0.1704 -0.6351
  817MOL0     C12646  11.242  10.532   3.489  0.6601  0.6487 -0.2686
  817MOL0     C12647  11.231  10.437   3.369 -0.7376 -0.3367 -0.3788
  817MOL0     C12648  11.287  10.517   3.247 -1.0811 -0.8894  0.1360
  817MOL0     C12649  11.222  10.655   3.242  0.2066  0.4842  0.1498
  817MOL0     C12650  11.241  10.704   3.101  0.7357  0.0755  0.4559
  817MOL0     C12651  11.183  10.852   3.084  0.6694 -0.7143  0.2462
  817MOL0     C12652  11.172  10.898   2.942  0.3491  0.3052 -0.8607
  817MOL0    Cl12653  11.345  10.900   2.881 -0.2386  0.0753 -0.2317
  817MOL0     C12654  11.063  10.540   3.895 -0.1201  0.1862  0.2478
  817MOL0     C12655  11.001  10.500   4.017 -0.6983 -0.1280  0.2626
  817MOL0     O12656  11.186  10.381   4.360  0.1874 -0.0458 -0.0930
  817MOL0     C12657  10.854  10.342   4.459 -0.2488  0.3129 -0.2057
  817MOL0     C12658  10.781  10.330   4.571  0.1135  0.6014  0.1250
  817MOL0     N12659  10.388  10.503   4.748  0.4131 -0.7962 -0.0072
  817MOL0     N12660  10.384  10.592   4.649 -0.6613 -0.2246  0.1503
  817MOL0     C12661  11.118  10.987   5.112 -0.3420  0.3031  0.6201
  817MOL0     C12662  11.122  11.078   5.215 -0.3687 -0.6688  0.1156
  817MOL0     C12663  11.298  11.203   5.624 -0.1590 -0.6522  0.2731
  817MOL0     C12664  11.172  11.276   5.642  0.1383 -0.3877 -0.8764
  817MOL0     C12665  11.154  11.353   5.763  0.9460 -0.0159  0.0827
  817MOL0     C12666  11.255  11.375   5.860 -0.0964  0.4320  0.1830
  817MOL0     O12667  11.214  11.454   5.960  0.1250  0.3230 -0.5137
  817MOL0     C12668  11.230  11.390   6.092 -0.3112  0.4255  0.0153
  817MOL0     C12669  11.321  11.478   6.175  0.2191  0.7711 -0.5065
  817MOL0     C12670  11.263  11.616   6.214 -0.2856 -0.6423  0.2259
  817MOL0     C12671  11.339  11.683   6.328 -0.6954  0.7087  0.4208
  817MOL0     C12672  11.299  11.638   6.458 -0.2276  0.3847 -0.6148
  817MOL0     C12673  11.306  11.626   6.577 -0.0468 -0.0421 -0.1382
  817MOL0     C12674  11.378  11.307   5.839 -0.8556  0.0773  0.6267
  817MOL0     C12675  11.397  11.220   5.724  0.0446  0.9481  0.1877
  817MOL0     C12676  11.531  11.129   5.720 -0.6221 -0.0794  0.3233
  817MOL0     H12677  11.465  11.044   5.267  0.7558  2.5334 -1.1144
  817MOL0     H12678  11.445  10.908   5.085  2.4017  1.2009  3.8729
  817MOL0     H12679  11.058  10.881   4.870 -2.6685  0.3021  6.4514
  817MOL0     H12680  11.043  10.722   4.951  0.3602 -1.1071  0.5204
  817MOL0     H12681  11.221  10.774   4.709 -0.2317  0.3684 -0.3463
  817MOL0     H12682  11.202  10.618   4.807  0.4757  1.7162  4.8573
  817MOL0     H12683  11.055  10.580   4.619  1.5359  1.0872 -1.8580
  817MOL0     H12684  10.941  10.643   4.745 -0.0518 -2.5631  0.0279
  817MOL0     H12685  10.983  10.871   4.646  1.1258 -2.5312  5.2948
  817MOL0     H12686  11.079  10.784   4.528  0.9885  0.7569  1.5360
  817MOL0     H12687  10.865  10.654   4.453 -2.9365  0.1798 -0.5673
  817MOL0     H12688  10.853  10.830   4.404 -0.7290  0.5189 -0.5709
  817MOL0     H12689  10.754  10.700   4.663 -1.6707 -1.6904 -0.9295
  817MOL0     H12690  10.742  10.872   4.633 -2.0157  2.1791 -4.4730
  817MOL0     H12691  10.602  10.655   4.446  2.1811  1.3312 -5.4237
  817MOL0     H12692  10.616  10.829   4.414 -0.3803 -0.6453  0.5522
  817MOL0     H12693  10.491  10.899   4.606  0.8277 -1.2726  2.2417
  817MOL0     H12694  10.399  10.802   4.496 -1.2081 -0.4988  1.9566
  817MOL0     H12695  10.519  10.772   4.879 -1.8033  1.5266 -1.4152
  817MOL0     H12696  10.416  10.511   5.053  2.6497 -1.0582  2.8044
  817MOL0     H12697  10.577  10.570   5.021  1.6233 -0.0703 -1.6409
  817MOL0     H12698  10.564  10.309   5.062  3.4009 -4.5521 -2.3301
  817MOL0     H12699  10.516  10.308   4.890  2.2488  0.1098 -1.4372
  817MOL0     H12700  10.731  10.459   4.858  1.4341  0.3083  0.9382
  817MOL0     H12701  10.756  10.437   5.025  2.9363 -0.3592 -0.2927
  817MOL0     H12702  10.886  10.274   4.931  0.7442 -0.8010 -1.4178
  817MOL0     H12703  10.753  10.183   4.976 -0.0158 -0.8909 -0.5869
  817MOL0     H12704  11.007  10.151   4.757  2.4604  0.6666 -0.9023
  817MOL0     H12705  11.203  10.127   4.481 -0.9497 -0.8124  0.8688
  817MOL0     H12706  11.186  10.091   4.646  1.3401 -1.2247 -1.8509
  817MOL0     H12707  11.260  10.253   4.601 -2.7118  2.2275  3.3266
  817MOL0     H12708  11.244  10.285   4.100  0.7667 -0.4926 -0.5369
  817MOL0     H12709  11.343  10.357   3.891  0.0903  2.5141 -0.3855
  817MOL0     H12710  11.335  10.414   3.646 -1.1124  0.7378  1.4588
  817MOL0     H12711  11.160  10.384   3.620 -0.9598  0.2536  0.9100
  817MOL0     H12712  11.168  10.612   3.480 -1.6523 -0.8866  2.8909
  817MOL0     H12713  11.339  10.582   3.490  1.3766 -0.6906  0.0445
  817MOL0     H12714  11.125  10.407   3.369 -0.7619 -0.6152  2.7845
  817MOL0     H12715  11.305  10.357   3.382  0.2066  0.8551  2.0406
  817MOL0     H12716  11.282  10.455   3.157  1.7645 -1.7212  0.4462
  817MOL0     H12717  11.394  10.536   3.255 -1.2535  3.7130 -3.8030
  817MOL0     H12718  11.114  10.647   3.261 -0.2289 -1.4224 -2.5168
  817MOL0     H12719  11.268  10.724   3.313  1.8223  0.0101 -0.3858
  817MOL0     H12720  11.192  10.644   3.024 -2.2129  2.8810 -0.0843
  817MOL0     H12721  11.346  10.701   3.070  1.3018  1.4796  2.1060
  817MOL0     H12722  11.254  10.914   3.139  2.0787 -1.8587 -0.1976
  817MOL0     H12723  11.081  10.842   3.121  0.7503 -0.6429  0.4859
  817MOL0     H12724  11.134  10.999   2.933  0.5370  0.2106 -3.6010
  817MOL0     H12725  11.105  10.834   2.883 -0.3448 -1.9673  2.1887
  817MOL0     H12726  11.015  10.611   3.828 -1.7027  0.6042  1.7321
  817MOL0     H12727  10.907  10.543   4.050 -0.8633 -0.9029  0.8408
  817MOL0     H12728  10.813  10.397   4.376  0.4632 -0.8581 -1.3684
  817MOL0     H12729  10.681  10.370   4.584 -1.1142 -0.0067 -5.2125
  817MOL0     H12730  11.022  10.995   5.061 -0.5424  0.7687  1.0645
  817MOL0     H12731  11.041  11.140   5.251  0.5387  1.7418 -1.7129
  817MOL0     H12732  11.099  11.281   5.562  0.9399  1.1933 -1.5493
  817MOL0     H12733  11.056  11.395   5.783  0.3623 -1.6415  0.7924
  817MOL0     H12734  11.138  11.384   6.151 -1.4718  0.1156 -1.7439
  817MOL0     H12735  11.275  11.291   6.087  0.6506  0.6447  2.7460
  817MOL0     H12736  11.413  11.502   6.120  0.9083  1.4737  0.8944
  817MOL0     H12737  11.346  11.431   6.271 -1.2870  2.1962  0.6360
  817MOL0     H12738  11.270  11.680   6.125 -1.2258 -2.2077 -1.0308
  817MOL0     H12739  11.158  11.612   6.243 -0.5713 -0.3944 -0.7176
  817MOL0     H12740  11.334  11.790   6.308 -0.3101  0.6421 -0.0488
  817MOL0     H12741  11.445  11.658   6.316 -1.3382 -0.7781 -3.5139
  817MOL0     H12742  11.322  11.628   6.683  1.7013  1.6949 -0.3774
  817MOL0     H12743  11.457  11.313   5.914 -1.3020  4.1560  0.9674
  817MOL0     H12744  11.566  11.124   5.616  0.2791  3.4675  0.3403
  817MOL0     H12745  11.610  11.158   5.789 -1.0593  0.3496  0.6505
  817MOL0     H12746  11.502  11.028   5.752 -0.6018 -1.6755 -3.9677
  818MOL0     O12747   2.233   5.801   2.473  0.2399 -0.5980 -0.1547
  818MOL0     C12748   2.181   5.892   2.526 -0.6270 -0.1134  0.0992
  818MOL0     O12749   2.186   6.027   2.477  0.2831 -0.3099  0.1486
  818MOL0     C12750   2.258   6.043   2.366  0.2873  0.3192  0.5452
  818MOL0     C12751   2.386   6.102   2.367 -0.1651 -0.7909  0.4077
  818MOL0     C12752   2.475   6.107   2.259 -0.7929  0.2236 -0.3275
  818MOL0     C12753   2.430   6.038   2.139  0.4284  0.3157 -0.3986
  818MOL0     O12754   2.512   6.039   2.031  0.6626  0.6420  0.5433
  818MOL0     C12755   2.654   6.018   2.050  0.3964  0.4186 -0.0774
  818MOL0     C12756   2.718   5.932   1.938  0.2040  0.1514 -0.2013
  818MOL0     C12757   2.695   6.011   1.807  0.5021 -0.8327 -0.1860
  818MOL0     C12758   2.749   5.940   1.683 -0.3734 -0.0412 -0.1422
  818MOL0     C12759   2.721   6.017   1.562 -0.1253 -0.5775  0.1668
  818MOL0     C12760   2.810   6.141   1.555 -0.7200 -0.5075 -0.2681
  818MOL0     C12761   2.761   6.250   1.461  0.4698  0.1390  0.5083
  818MOL0     C12762   2.650   6.333   1.522 -0.2944 -0.5449 -0.2685
  818MOL0     N12763   2.643   6.475   1.469 -0.3318  0.3898  0.1599
  818MOL0     C12764   2.574   6.507   1.359  0.8523 -0.1727 -0.4615
  818MOL0     C12765   2.595   6.635   1.336 -0.3993 -0.8315  0.2305
  818MOL0     C12766   2.535   6.722   1.227 -0.7080  0.3904 -0.7820
  818MOL0     C12767   2.491   6.863   1.260  0.7322 -0.3035  0.1272
  818MOL0     C12768   2.356   6.859   1.322  0.5632  0.1231  0.3171
  818MOL0     C12769   2.291   6.994   1.352  0.2618  0.2260  0.6042
  818MOL0     O12770   2.160   6.967   1.402 -0.1436  0.0553  0.1293
  818MOL0     C12771   2.064   7.057   1.378 -0.2758 -0.0097 -0.3303
  818MOL0     C12772   1.943   7.019   1.421  0.0515  0.0691 -0.5733
  818MOL0     C12773   1.826   7.105   1.412  0.1733 -0.3191 -0.4471
  818MOL0     C12774   1.700   7.048   1.445 -1.6073  0.6770 -0.6116
  818MOL0     C12775   1.847   7.239   1.371  0.8551 -0.3243 -0.2426
  818MOL0     C12776   1.734   7.334   1.357  0.6811 -0.3452  0.0475
  818MOL0     O12777   1.767   7.442   1.283  0.2911  0.6457 -0.2298
  818MOL0     C12778   1.669   7.535   1.261  0.3333  0.4975  0.1668
  818MOL0     C12779   1.589   7.535   1.145  0.7272  0.5745 -0.2266
  818MOL0     C12780   1.487   7.632   1.139  0.2244  0.7456  0.8120
  818MOL0     C12781   1.469   7.734   1.231 -0.8340 -0.1706  0.1948
  818MOL0     O12782   1.381   7.840   1.223  0.2939  0.0634 -0.0477
  818MOL0     C12783   1.294   7.850   1.106 -0.0127  0.3212 -0.3542
  818MOL0     C12784   1.180   7.749   1.097 -0.4831  0.5314 -0.6383
  818MOL0     C12785   1.060   7.777   1.185 -0.5628 -0.4666  1.5144
  818MOL0     C12786   0.949   7.831   1.090 -0.8936 -0.4283 -0.1727
  818MOL0     C12787   0.812   7.851   1.153 -0.8938  0.5379  0.0737
  818MOL0     C12788   0.724   7.904   1.042 -0.1897 -0.5741 -0.2430
  818MOL0     C12789   0.573   7.925   1.089  0.5150  0.2432 -0.2394
  818MOL0     C12790   0.558   8.035   1.187 -0.3455  0.8808  0.9148
  818MOL0    Cl12791   0.388   8.065   1.211  0.5056  0.1004 -0.1896
  818MOL0     C12792   1.556   7.726   1.344 -0.1459 -0.1254 -0.2172
  818MOL0     C12793   1.654   7.634   1.365  0.0840  0.4809  0.7773
  818MOL0     O12794   1.625   7.322   1.420  0.4753 -0.6285  0.0872
  818MOL0     C12795   1.983   7.278   1.340 -0.0644  0.4079  0.6054
  818MOL0     C12796   2.087   7.188   1.340  0.4207 -0.5207  0.0739
  818MOL0     N12797   2.681   6.688   1.427 -1.3353 -0.7273  0.8537
  818MOL0     N12798   2.697   6.591   1.513 -0.4079 -0.6993  0.8804
  818MOL0     C12799   2.297   5.995   2.127  0.0056  0.7236 -0.1759
  818MOL0     C12800   2.210   5.995   2.242 -1.1044 -0.0851 -0.6905
  818MOL0     C12801   2.110   5.873   2.649 -0.0768  0.4881  0.4534
  818MOL0     C12802   2.100   5.976   2.740 -1.2189 -0.1895 -0.8034
  818MOL0     C12803   2.043   5.951   2.863  0.9283  0.3266 -0.9949
  818MOL0     C12804   1.966   5.836   2.882 -0.3174 -0.9242  0.4006
  818MOL0     O12805   1.896   5.832   2.995 -0.4315  0.1586 -0.8814
  818MOL0     C12806   1.850   5.710   3.056  0.6906  0.5010 -0.6567
  818MOL0     C12807   1.822   5.726   3.204 -0.6027  0.0665 -0.3390
  818MOL0     C12808   1.707   5.828   3.218 -0.0374 -0.6139 -0.4894
  818MOL0     C12809   1.649   5.832   3.359 -0.5715  0.5220  0.8528
  818MOL0     C12810   1.757   5.828   3.462 -0.4110 -0.7165  1.1600
  818MOL0     C12811   1.850   5.821   3.541  0.7194  0.4566  0.2989
  818MOL0     C12812   1.955   5.739   2.783 -0.6578 -0.4773  0.7128
  818MOL0     C12813   2.036   5.749   2.665  0.5328  0.2496 -1.1713
  818MOL0     C12814   2.025   5.637   2.575  0.4626  0.3264  1.0025
  818MOL0     H12815   2.403   6.154   2.460 -1.0182  1.4218 -0.6030
  818MOL0     H12816   2.567   6.165   2.265 -0.7816  0.5005 -2.4390
  818MOL0     H12817   2.663   5.962   2.144  0.3851  0.9786  0.2582
  818MOL0     H12818   2.711   6.111   2.056  2.7188 -1.0097  1.7364
  818MOL0     H12819   2.822   5.913   1.967  0.9500  0.5879 -2.4135
  818MOL0     H12820   2.665   5.838   1.922  1.7958 -0.9542  0.7263
  818MOL0     H12821   2.589   6.018   1.783  0.7972  0.3182 -1.2336
  818MOL0     H12822   2.744   6.109   1.816  2.7857 -1.7430 -1.8467
  818MOL0     H12823   2.855   5.917   1.702 -0.4362  0.1806  0.5119
  818MOL0     H12824   2.703   5.843   1.662 -2.1095  0.8307 -0.5426
  818MOL0     H12825   2.615   6.046   1.566 -1.6604 -5.0769 -1.3611
  818MOL0     H12826   2.730   5.957   1.471 -2.9920 -3.6113  1.6379
  818MOL0     H12827   2.837   6.184   1.652 -1.1190 -0.1302 -0.3252
  818MOL0     H12828   2.909   6.105   1.524 -0.5349 -2.0489  1.8695
  818MOL0     H12829   2.724   6.205   1.368 -2.5883 -0.0943  1.7056
  818MOL0     H12830   2.845   6.312   1.427 -0.3288  0.4817 -0.9642
  818MOL0     H12831   2.553   6.285   1.512 -0.5387 -0.0357 -0.3771
  818MOL0     H12832   2.664   6.346   1.630 -1.2468 -1.3027 -0.0396
  818MOL0     H12833   2.504   6.446   1.303 -1.0628  0.8459  0.7220
  818MOL0     H12834   2.455   6.661   1.183 -2.2262  0.7976  1.2511
  818MOL0     H12835   2.606   6.739   1.146  1.1448  0.5992  0.8176
  818MOL0     H12836   2.557   6.922   1.324 -0.9435  3.5661 -1.4064
  818MOL0     H12837   2.478   6.930   1.174 -1.4805  1.1270  1.4509
  818MOL0     H12838   2.293   6.809   1.248 -0.0808  2.7405 -1.0141
  818MOL0     H12839   2.363   6.810   1.419  1.5689 -0.1563  0.1213
  818MOL0     H12840   2.344   7.056   1.426 -1.3366 -0.1123  2.1090
  818MOL0     H12841   2.283   7.047   1.257  0.5879 -0.8720 -0.0474
  818MOL0     H12842   1.923   6.918   1.457 -1.3246  0.6895  0.4971
  818MOL0     H12843   1.711   6.940   1.430  0.5254  0.0386  4.0298
  818MOL0     H12844   1.620   7.090   1.382 -0.5195 -0.0537 -2.5718
  818MOL0     H12845   1.689   7.063   1.552 -1.9948  3.1708 -0.9430
  818MOL0     H12846   1.612   7.468   1.062  3.4045  2.1323 -0.8683
  818MOL0     H12847   1.440   7.645   1.042 -0.7635  0.0356  1.1762
  818MOL0     H12848   1.244   7.948   1.104  1.7291  1.2322 -1.0392
  818MOL0     H12849   1.365   7.849   1.023  1.8397 -0.8629  1.1733
  818MOL0     H12850   1.163   7.744   0.990 -1.0379  2.6022 -0.6892
  818MOL0     H12851   1.215   7.650   1.131 -0.9822  0.0930 -1.3817
  818MOL0     H12852   1.078   7.849   1.265 -3.3131  0.6924  1.1707
  818MOL0     H12853   1.033   7.686   1.239  2.5343 -3.3578 -1.2855
  818MOL0     H12854   0.940   7.766   1.003 -1.2757  0.7370 -1.0274
  818MOL0     H12855   0.993   7.925   1.055  3.7191 -1.8170  1.2300
  818MOL0     H12856   0.788   7.751   1.189 -2.4439  0.9383  0.2139
  818MOL0     H12857   0.808   7.931   1.228 -3.4822  2.4358 -1.8765
  818MOL0     H12858   0.722   7.828   0.964  1.8297 -1.3273  0.3665
  818MOL0     H12859   0.763   7.999   1.004 -0.8590 -0.7458 -1.4042
  818MOL0     H12860   0.541   7.831   1.134 -0.8602  0.6738 -0.2565
  818MOL0     H12861   0.515   7.952   1.001  0.9971 -2.8041 -1.6114
  818MOL0     H12862   0.614   8.123   1.154  0.7050  0.3543  1.2669
  818MOL0     H12863   0.605   8.009   1.282  0.4274  1.7621  0.7904
  818MOL0     H12864   1.549   7.802   1.422 -0.7892 -0.6716  0.2718
  818MOL0     H12865   1.708   7.621   1.458 -1.1910 -0.2439  1.4431
  818MOL0     H12866   2.001   7.383   1.320 -2.7590  0.7458 -0.4607
  818MOL0     H12867   2.188   7.222   1.323  0.3293 -1.0128 -1.6639
  818MOL0     H12868   2.257   5.965   2.032  0.5947  0.9381 -0.4991
  818MOL0     H12869   2.111   5.952   2.230 -1.2712 -0.5792  1.9138
  818MOL0     H12870   2.140   6.072   2.711 -2.2868 -0.2776 -2.7244
  818MOL0     H12871   2.047   6.017   2.949  1.4688 -3.1474  1.8812
  818MOL0     H12872   1.754   5.689   3.007  0.5562  1.4801 -0.8438
  818MOL0     H12873   1.917   5.624   3.052  0.3742  0.2411 -0.4408
  818MOL0     H12874   1.918   5.768   3.238 -1.4704  2.2956 -0.4857
  818MOL0     H12875   1.805   5.634   3.260  0.5260  0.0971  0.0937
  818MOL0     H12876   1.753   5.925   3.198 -0.6708  0.2248  1.7626
  818MOL0     H12877   1.620   5.803   3.158 -1.2014  3.6163 -0.8522
  818MOL0     H12878   1.587   5.743   3.363 -2.3376  1.3078 -3.5001
  818MOL0     H12879   1.587   5.921   3.372 -3.6114 -1.1543 -1.0872
  818MOL0     H12880   1.917   5.813   3.625  0.0311  0.0779  0.8291
  818MOL0     H12881   1.889   5.655   2.803 -2.4342  0.7668  0.3723
  818MOL0     H12882   2.125   5.593   2.568  0.1523 -0.3899  0.9475
  818MOL0     H12883   1.957   5.562   2.616 -0.6233  1.4722  1.3437
  818MOL0     H12884   1.995   5.660   2.472  3.8188  1.0701  0.0656
  819MOL0     O12885  10.162   7.944   8.161 -0.6577  0.0029  0.0427
  819MOL0     C12886  10.239   7.983   8.079 -0.3764  0.1606  0.9583
  819MOL0     O12887  10.318   7.898   8.001 -0.4243  0.1480  0.6795
  819MOL0     C12888  10.298   7.761   8.002  0.4918  0.4667  0.4298
  819MOL0     C12889  10.181   7.708   7.953  0.6083  0.5052 -0.4468
  819MOL0     C12890  10.166   7.571   7.934  0.4213 -0.0416  0.2429
  819MOL0     C12891  10.262   7.475   7.971 -0.6679  0.9352  0.8382
  819MOL0     O12892  10.266   7.339   7.953 -0.0694 -0.9081 -0.6685
  819MOL0     C12893  10.177   7.280   7.858  0.2585 -0.1127  0.0329
  819MOL0     C12894  10.027   7.263   7.913 -0.7357 -0.6057 -0.1793
  819MOL0     C12895  10.018   7.128   7.990 -0.2532  0.0746  0.2746
  819MOL0     C12896   9.873   7.128   8.048  0.5817 -0.0305  0.0770
  819MOL0     C12897   9.850   7.007   8.145  0.1815 -0.6252 -0.6519
  819MOL0     C12898   9.849   6.878   8.067 -0.8884 -0.1535  0.0163
  819MOL0     C12899   9.973   6.796   8.096  0.5307  0.4933 -0.3032
  819MOL0     C12900   9.947   6.654   8.044  0.2205  0.7254  0.2225
  819MOL0     N12901   9.968   6.642   7.900 -0.2430 -0.0146 -0.3211
  819MOL0     C12902   9.883   6.575   7.814 -0.6031  0.2492  0.4226
  819MOL0     C12903   9.931   6.605   7.689 -0.1504 -1.0395 -1.4102
  819MOL0     C12904   9.883   6.575   7.550  0.4246  0.1583 -0.4816
  819MOL0     C12905   9.816   6.694   7.492  0.1065 -0.3021 -0.1360
  819MOL0     C12906   9.775   6.667   7.349 -0.4570  0.1779 -0.2606
  819MOL0     C12907   9.671   6.773   7.299  0.4960  0.2685  1.1639
  819MOL0     O12908   9.729   6.906   7.297 -0.2778  0.4161  0.0978
  819MOL0     C12909   9.672   7.006   7.376 -0.4592  0.1813  0.9204
  819MOL0     C12910   9.540   7.046   7.370  0.0144  0.3316 -0.2790
  819MOL0     C12911   9.484   7.145   7.451 -0.2458 -0.2062 -0.1913
  819MOL0     C12912   9.336   7.164   7.450 -0.2400  1.1314  0.1849
  819MOL0     C12913   9.573   7.217   7.534 -0.7251 -0.3000  0.2541
  819MOL0     C12914   9.535   7.328   7.625  0.5564 -0.7301  0.9609
  819MOL0     O12915   9.642   7.394   7.690 -0.3903 -0.1765  0.0885
  819MOL0     C12916   9.629   7.535   7.707 -0.4405 -0.4319 -0.6902
  819MOL0     C12917   9.694   7.596   7.809  0.3580 -0.5613 -0.4737
  819MOL0     C12918   9.700   7.739   7.825 -0.9588  0.8894  0.4277
  819MOL0     C12919   9.639   7.820   7.727  1.0672  0.4143  0.2215
  819MOL0     O12920   9.636   7.952   7.716  0.2055  0.2038 -0.1279
  819MOL0     C12921   9.753   8.020   7.763 -0.8177 -0.0099 -1.0713
  819MOL0     C12922   9.757   8.164   7.702 -0.2419 -0.2154  0.1669
  819MOL0     C12923   9.869   8.199   7.601  0.2449  0.6414  0.1207
  819MOL0     C12924  10.017   8.196   7.655  0.0564  0.0299 -0.0780
  819MOL0     C12925  10.107   8.239   7.548 -0.1682 -1.1105 -0.2138
  819MOL0     C12926  10.263   8.253   7.586  1.0509  1.0592  0.1527
  819MOL0     C12927  10.365   8.271   7.475 -0.4728 -0.3317 -0.4377
  819MOL0     C12928  10.339   8.401   7.395  0.6527  0.1704 -1.1999
  819MOL0    Cl12929  10.485   8.463   7.309  0.0853  0.1993  0.3949
  819MOL0     C12930   9.564   7.756   7.623 -1.0208  0.2408 -0.3655
  819MOL0     C12931   9.559   7.622   7.611  1.4413  0.0372  0.0910
  819MOL0     O12932   9.416   7.366   7.627 -0.0547  0.8583  0.1840
  819MOL0     C12933   9.705   7.172   7.540 -0.4798 -0.6808  0.6243
  819MOL0     C12934   9.753   7.072   7.459 -0.8550  0.2061 -0.1679
  819MOL0     N12935  10.040   6.677   7.711 -0.5802  0.3911  0.9446
  819MOL0     N12936  10.067   6.707   7.834 -0.2962 -0.1849 -0.4241
  819MOL0     C12937  10.378   7.531   8.025 -0.2220  0.1784 -0.1892
  819MOL0     C12938  10.394   7.670   8.032 -0.2946  0.2250 -0.5349
  819MOL0     C12939  10.246   8.125   8.034  0.2981  0.1352  0.3738
  819MOL0     C12940  10.366   8.171   7.990 -0.3987 -0.2196 -0.0025
  819MOL0     C12941  10.383   8.302   7.940  0.0366 -0.0604  0.0853
  819MOL0     C12942  10.279   8.399   7.947 -0.5774 -0.2260 -0.2382
  819MOL0     O12943  10.291   8.521   7.894  0.1688  0.2053  0.6340
  819MOL0     C12944  10.201   8.626   7.923  0.2240  0.3699 -0.4844
  819MOL0     C12945  10.286   8.747   7.890 -0.2790  0.3236  0.0160
  819MOL0     C12946  10.233   8.882   7.942 -0.2336  0.9378  0.2565
  819MOL0     C12947  10.338   8.986   7.947 -0.1217  0.0433  0.9901
  819MOL0     C12948  10.384   9.014   7.808  0.6463 -0.3660 -0.5657
  819MOL0     C12949  10.401   9.023   7.689  1.0671 -1.2382  0.3639
  819MOL0     C12950  10.151   8.344   7.984 -0.3486  0.6610  0.6241
  819MOL0     C12951  10.137   8.207   8.027  0.3946 -0.9622  0.4203
  819MOL0     C12952   9.993   8.157   8.037  0.0865 -0.4213  0.6565
  819MOL0     H12953  10.101   7.774   7.919 -2.9714 -2.8750  0.5915
  819MOL0     H12954  10.069   7.555   7.888  0.8126  4.5491 -2.9034
  819MOL0     H12955  10.212   7.178   7.839  1.5735  0.3786 -0.2524
  819MOL0     H12956  10.173   7.326   7.759 -1.7058  0.3432  0.2779
  819MOL0     H12957  10.002   7.339   7.988 -0.7127 -2.5398  1.8890
  819MOL0     H12958   9.956   7.272   7.831 -3.5497 -0.5435  2.1019
  819MOL0     H12959  10.038   7.046   7.921 -2.3511 -1.9952  1.9767
  819MOL0     H12960  10.095   7.133   8.067  1.7456 -3.9769 -1.1983
  819MOL0     H12961   9.855   7.219   8.107 -2.8256 -0.1993 -0.4813
  819MOL0     H12962   9.786   7.131   7.982 -0.3297  1.9926  1.2676
  819MOL0     H12963   9.755   7.024   8.195  0.2920  3.1973 -1.4861
  819MOL0     H12964   9.938   7.000   8.210  0.2748 -0.4219 -0.7552
  819MOL0     H12965   9.760   6.823   8.096 -0.8935 -2.2369 -3.3911
  819MOL0     H12966   9.841   6.887   7.958 -0.0793 -2.2899 -0.2651
  819MOL0     H12967   9.984   6.791   8.204 -0.6822 -2.1545 -0.2203
  819MOL0     H12968  10.069   6.823   8.052  1.2667  1.6508  1.8794
  819MOL0     H12969  10.011   6.581   8.096 -0.2977  1.0625  1.3835
  819MOL0     H12970   9.841   6.632   8.056 -0.1099  0.4578 -2.5632
  819MOL0     H12971   9.790   6.521   7.827 -0.4153  0.2454  1.9682
  819MOL0     H12972   9.817   6.488   7.555  0.2486  0.3394  0.9584
  819MOL0     H12973   9.974   6.559   7.492  0.9149  0.4260  0.2019
  819MOL0     H12974   9.720   6.700   7.546 -1.9236 -0.6137 -3.4315
  819MOL0     H12975   9.877   6.785   7.492 -1.1315  0.5727  0.8083
  819MOL0     H12976   9.865   6.669   7.287 -1.8131 -1.0128 -2.3880
  819MOL0     H12977   9.723   6.570   7.338 -2.6972  1.1787  0.8280
  819MOL0     H12978   9.647   6.746   7.195 -2.5436  2.1483  1.2616
  819MOL0     H12979   9.579   6.781   7.357  0.7532  4.2955  1.3112
  819MOL0     H12980   9.481   6.999   7.292  1.1577  1.2179 -1.7288
  819MOL0     H12981   9.292   7.099   7.374  1.1422  1.1155 -0.6536
  819MOL0     H12982   9.313   7.267   7.419 -0.5756  1.7173  2.2153
  819MOL0     H12983   9.301   7.162   7.553  1.9939  4.0884  1.1654
  819MOL0     H12984   9.753   7.527   7.870 -0.1511  0.7273  1.5702
  819MOL0     H12985   9.747   7.774   7.917 -2.2595  0.2923  1.3662
  819MOL0     H12986   9.738   8.043   7.869 -1.1153 -0.6562 -0.9691
  819MOL0     H12987   9.846   7.965   7.746 -0.6875  0.4333 -1.8502
  819MOL0     H12988   9.664   8.189   7.650  0.1229 -3.5796 -2.4262
  819MOL0     H12989   9.759   8.236   7.785  0.9186  0.9659 -0.8433
  819MOL0     H12990   9.841   8.297   7.561 -0.1524  0.1795 -0.7709
  819MOL0     H12991   9.866   8.126   7.519 -0.7849 -1.2565  1.7596
  819MOL0     H12992  10.039   8.093   7.685  0.7577  0.2149  0.0472
  819MOL0     H12993  10.028   8.255   7.747  4.0777  2.1216 -1.6661
  819MOL0     H12994  10.102   8.164   7.469 -0.4832 -2.4590  1.0367
  819MOL0     H12995  10.078   8.337   7.510 -0.3947 -1.6813 -1.5833
  819MOL0     H12996  10.296   8.164   7.639  2.4017 -0.1936 -2.5671
  819MOL0     H12997  10.266   8.344   7.646  0.5650  1.4959 -0.4634
  819MOL0     H12998  10.363   8.186   7.405 -2.2989  0.5158 -1.4840
  819MOL0     H12999  10.469   8.264   7.508  0.9882  0.6245 -4.2353
  819MOL0     H13000  10.297   8.481   7.458  1.5600  0.5475 -1.0532
  819MOL0     H13001  10.252   8.383   7.332  0.2682 -1.3898 -0.2761
  819MOL0     H13002   9.525   7.820   7.545  2.1109  1.5932 -0.9835
  819MOL0     H13003   9.504   7.575   7.529 -0.7914  2.6556 -0.1003
  819MOL0     H13004   9.782   7.224   7.596 -0.6129  0.7774 -0.4888
  819MOL0     H13005   9.857   7.041   7.460 -1.7334 -3.1718 -0.5924
  819MOL0     H13006  10.453   7.461   8.058  3.2237  2.3373 -2.7407
  819MOL0     H13007  10.487   7.693   8.084  0.9709 -3.5845 -0.8098
  819MOL0     H13008  10.448   8.100   7.984 -2.2047 -2.3711 -0.6955
  819MOL0     H13009  10.479   8.333   7.900  1.8477 -2.1078  2.5559
  819MOL0     H13010  10.109   8.619   7.864  0.3782  0.5221 -0.7447
  819MOL0     H13011  10.171   8.622   8.028 -2.1264  1.7088 -1.0240
  819MOL0     H13012  10.294   8.749   7.781 -0.0208 -1.8814 -0.0486
  819MOL0     H13013  10.387   8.735   7.931  0.1021  3.9941  0.5066
  819MOL0     H13014  10.153   8.924   7.880  0.1123  2.6803  0.9163
  819MOL0     H13015  10.191   8.876   8.043 -2.3358  3.0583 -0.3737
  819MOL0     H13016  10.419   8.930   7.994 -1.5442 -0.2607  3.2283
  819MOL0     H13017  10.306   9.078   7.996  1.6813  1.6463 -0.6814
  819MOL0     H13018  10.403   9.057   7.587  1.3051  2.3398  1.4077
  819MOL0     H13019  10.057   8.398   7.983 -1.4765 -1.1769 -1.2685
  819MOL0     H13020   9.978   8.058   7.991 -2.9768  0.5379 -0.6850
  819MOL0     H13021   9.962   8.135   8.139 -1.4619 -0.7080  0.1501
  819MOL0     H13022   9.925   8.211   7.971  0.8165 -0.5161 -0.2011
  820MOL0     O13023   1.435   9.827   4.067  0.0824 -0.2937 -0.5274
  820MOL0     C13024   1.403   9.815   3.946  1.1560 -0.4764 -0.6715
  820MOL0     O13025   1.293   9.756   3.898  0.3535 -0.5712  0.6043
  820MOL0     C13026   1.183   9.718   3.972 -0.7230  0.6571  0.5657
  820MOL0     C13027   1.074   9.698   3.892 -0.4067  0.2576  0.6871
  820MOL0     C13028   0.941   9.681   3.948 -0.6411 -0.4416 -0.3500
  820MOL0     C13029   0.917   9.681   4.090  0.1393  0.0270 -0.2172
  820MOL0     O13030   0.783   9.677   4.136 -0.1538 -0.0164 -1.0437
  820MOL0     C13031   0.755   9.785   4.233  0.0950  0.2513  0.4450
  820MOL0     C13032   0.631   9.741   4.303 -1.1098 -0.2792  0.4213
  820MOL0     C13033   0.660   9.625   4.401 -0.4455  0.5321  0.3278
  820MOL0     C13034   0.532   9.566   4.464 -0.2545  0.7275  0.6100
  820MOL0     C13035   0.580   9.461   4.563 -0.2592  0.1190 -0.4968
  820MOL0     C13036   0.605   9.324   4.495 -0.9148  0.1755  0.4877
  820MOL0     C13037   0.692   9.231   4.578  0.7565 -0.0734  0.1059
  820MOL0     C13038   0.708   9.105   4.491 -0.1225 -0.2423 -0.1580
  820MOL0     N13039   0.591   9.021   4.494 -0.3636  0.9556 -0.2025
  820MOL0     C13040   0.483   9.029   4.413  1.4538  0.6542 -0.5197
  820MOL0     C13041   0.404   8.923   4.453  0.6213 -0.3303  1.0755
  820MOL0     C13042   0.274   8.871   4.399 -1.0452 -0.2650 -0.4768
  820MOL0     C13043   0.286   8.736   4.320 -0.0739  0.4094  1.1169
  820MOL0     C13044   0.154   8.659   4.336 -0.7050  0.0871  0.7027
  820MOL0     C13045   0.033   8.715   4.253  0.7366 -0.1405 -1.0985
  820MOL0     O13046  -0.068   8.624   4.301 -0.1078  0.1855  0.0442
  820MOL0     C13047  -0.186   8.620   4.228 -1.0358  0.5651 -0.5146
  820MOL0     C13048  -0.283   8.531   4.271 -0.4677  0.0991  0.4819
  820MOL0     C13049  -0.412   8.521   4.209  0.6533 -0.1669 -0.0129
  820MOL0     C13050  -0.507   8.409   4.240  0.2094  0.3214  0.5377
  820MOL0     C13051  -0.451   8.619   4.106  0.1570  0.4251 -1.0016
  820MOL0     C13052  -0.576   8.612   4.025 -0.5982 -1.2849 -0.7844
  820MOL0     O13053  -0.645   8.721   3.992 -1.2440  0.5142 -0.1471
  820MOL0     C13054  -0.739   8.709   3.895  0.0075 -0.6759 -0.6414
  820MOL0     C13055  -0.864   8.663   3.931  0.5714 -0.9183 -0.4408
  820MOL0     C13056  -0.970   8.684   3.843  0.9771 -0.2856  0.1621
  820MOL0     C13057  -0.955   8.736   3.716 -0.1690 -0.2995  0.1957
  820MOL0     O13058  -1.053   8.767   3.634 -0.4665 -0.6403  0.7730
  820MOL0     C13059  -1.187   8.704   3.656 -1.0180  0.3587  0.2870
  820MOL0     C13060  -1.256   8.728   3.524  0.0131  0.8454  0.5490
  820MOL0     C13061  -1.195   8.629   3.414 -1.0343 -0.3998  0.2162
  820MOL0     C13062  -1.264   8.488   3.421 -0.0539  1.3586 -0.6128
  820MOL0     C13063  -1.408   8.484   3.363  0.5789  0.7436 -1.0543
  820MOL0     C13064  -1.426   8.537   3.219 -0.6382 -0.1180 -0.0003
  820MOL0     C13065  -1.346   8.451   3.117 -0.1061  0.6848 -0.1653
  820MOL0     C13066  -1.367   8.470   2.966 -0.5275 -0.1042 -0.3010
  820MOL0    Cl13067  -1.258   8.350   2.878  0.4246 -0.1445 -0.0708
  820MOL0     C13068  -0.827   8.770   3.676 -0.4437  0.1626 -0.1976
  820MOL0     C13069  -0.723   8.761   3.769  0.4071  0.8638 -0.1472
  820MOL0     O13070  -0.600   8.495   3.997 -0.5290  0.5320  0.0964
  820MOL0     C13071  -0.366   8.725   4.088  0.1582 -0.5737  0.0447
  820MOL0     C13072  -0.232   8.719   4.143  0.0482  0.0123  1.2843
  820MOL0     N13073   0.457   8.867   4.565  0.7641 -0.0855  0.3037
  820MOL0     N13074   0.568   8.926   4.592 -0.3703  0.1067  0.8842
  820MOL0     C13075   1.035   9.692   4.173 -0.2302  0.0671 -0.0920
  820MOL0     C13076   1.163   9.705   4.114  0.1247 -0.4092 -0.0774
  820MOL0     C13077   1.493   9.845   3.834 -0.0615 -1.0726 -0.9724
  820MOL0     C13078   1.630   9.874   3.873  0.5873  0.0479 -0.2923
  820MOL0     C13079   1.725   9.918   3.779  0.2280  0.4015 -0.3170
  820MOL0     C13080   1.691   9.935   3.645  0.1556 -0.2341 -0.1387
  820MOL0     O13081   1.794   9.986   3.569  1.1610 -0.3365  0.4363
  820MOL0     C13082   1.766  10.023   3.434  0.1823  0.4809 -0.8986
  820MOL0     C13083   1.759   9.887   3.349 -0.6718  0.1346  0.3458
  820MOL0     C13084   1.747   9.909   3.202  0.0483  0.2219  1.2999
  820MOL0     C13085   1.592   9.922   3.164  0.2159 -1.1992  0.5091
  820MOL0     C13086   1.536  10.048   3.190  0.0022  0.5039 -0.7014
  820MOL0     C13087   1.483  10.152   3.209 -0.1440  0.2285 -0.2127
  820MOL0     C13088   1.567   9.905   3.601  1.0106  0.2392 -0.4892
  820MOL0     C13089   1.460   9.865   3.692 -0.5671 -0.8508  0.4371
  820MOL0     C13090   1.317   9.848   3.638  0.3803 -0.0329 -0.1482
  820MOL0     H13091   1.092   9.689   3.785  1.4979 -1.4224  1.0935
  820MOL0     H13092   0.853   9.673   3.885 -0.5077 -0.2002 -0.5704
  820MOL0     H13093   0.738   9.881   4.184 -1.1046  0.6453  1.5889
  820MOL0     H13094   0.840   9.806   4.299  1.7596 -1.5660 -0.9934
  820MOL0     H13095   0.582   9.829   4.345 -1.5454  2.1786 -4.5002
  820MOL0     H13096   0.558   9.708   4.228 -2.2147 -2.1029  2.1850
  820MOL0     H13097   0.725   9.548   4.358 -0.6888  0.9699 -0.8698
  820MOL0     H13098   0.713   9.676   4.481  0.4060  0.4763 -0.1898
  820MOL0     H13099   0.474   9.644   4.515  2.0312  2.4280  0.7478
  820MOL0     H13100   0.468   9.522   4.388 -2.5392  0.7818  2.3673
  820MOL0     H13101   0.500   9.435   4.633 -4.0204  1.3893 -3.9566
  820MOL0     H13102   0.676   9.499   4.601  0.5357  1.4501 -3.5260
  820MOL0     H13103   0.502   9.290   4.478 -0.5658 -2.7360  3.2288
  820MOL0     H13104   0.657   9.338   4.400 -0.7948 -2.7579  0.0157
  820MOL0     H13105   0.645   9.205   4.674  1.5026  0.9636  0.7799
  820MOL0     H13106   0.787   9.279   4.601  1.1008 -0.0110 -1.3738
  820MOL0     H13107   0.732   9.139   4.389 -3.2273 -0.4388 -1.0548
  820MOL0     H13108   0.792   9.043   4.524 -0.7193 -2.1478 -1.9513
  820MOL0     H13109   0.462   9.088   4.325 -1.3392  0.9414  0.2478
  820MOL0     H13110   0.222   8.952   4.347 -2.0509  0.2259  1.1971
  820MOL0     H13111   0.219   8.849   4.491  0.7546 -0.3857  0.6122
  820MOL0     H13112   0.326   8.757   4.220 -2.0496 -1.9178 -0.2560
  820MOL0     H13113   0.355   8.674   4.377  1.7613  0.8733 -0.4879
  820MOL0     H13114   0.168   8.561   4.291 -3.0848  0.3164 -0.7447
  820MOL0     H13115   0.114   8.662   4.438 -3.2303  0.7505 -0.2211
  820MOL0     H13116   0.016   8.814   4.297  0.2159 -0.8209  0.3117
  820MOL0     H13117   0.051   8.724   4.146  5.1731 -2.2594 -0.7685
  820MOL0     H13118  -0.256   8.457   4.346 -0.6774 -0.1522  0.3103
  820MOL0     H13119  -0.604   8.457   4.253  0.3066  1.5324 -2.4836
  820MOL0     H13120  -0.479   8.348   4.327 -1.1008 -2.0141 -0.5827
  820MOL0     H13121  -0.500   8.346   4.151  1.9984  0.8004  0.2943
  820MOL0     H13122  -0.879   8.619   4.029 -2.4440  1.6764  0.4661
  820MOL0     H13123  -1.068   8.656   3.880  0.7542 -0.8807 -0.8542
  820MOL0     H13124  -1.173   8.599   3.683  2.0797  0.7822  0.7348
  820MOL0     H13125  -1.239   8.767   3.729 -1.5478  0.1015  0.1312
  820MOL0     H13126  -1.365   8.722   3.521  0.0424  0.2342 -2.2865
  820MOL0     H13127  -1.222   8.827   3.492  1.1981  0.1853 -0.3383
  820MOL0     H13128  -1.088   8.627   3.433 -0.7141 -1.3013 -1.4435
  820MOL0     H13129  -1.196   8.661   3.310  0.5446  0.1639  0.3571
  820MOL0     H13130  -1.270   8.442   3.520  3.1870 -2.3671 -1.9050
  820MOL0     H13131  -1.199   8.421   3.363  0.6106  1.5153 -0.0699
  820MOL0     H13132  -1.451   8.384   3.373  1.9873  0.1676 -0.5200
  820MOL0     H13133  -1.467   8.544   3.433 -0.6458 -0.5118 -0.9742
  820MOL0     H13134  -1.398   8.643   3.211 -4.0339  0.9533  0.8863
  820MOL0     H13135  -1.531   8.531   3.192 -0.0553  1.4684 -3.1380
  820MOL0     H13136  -1.383   8.350   3.139  0.6440  0.0938 -1.4547
  820MOL0     H13137  -1.239   8.456   3.140 -0.2044 -1.3518  1.0631
  820MOL0     H13138  -1.336   8.573   2.945 -1.0419  0.1732  0.2694
  820MOL0     H13139  -1.475   8.459   2.951 -0.6320 -0.7572  0.8163
  820MOL0     H13140  -0.817   8.822   3.582 -0.1870 -0.9096 -0.7770
  820MOL0     H13141  -0.629   8.811   3.751  0.7273  0.4008  0.2270
  820MOL0     H13142  -0.393   8.807   4.021  1.2050 -0.2473 -0.0040
  820MOL0     H13143  -0.152   8.791   4.130  1.2933 -1.6849 -1.0200
  820MOL0     H13144   1.018   9.685   4.280  0.6586 -1.8948 -0.0369
  820MOL0     H13145   1.252   9.724   4.174  1.6901  0.3132 -2.4727
  820MOL0     H13146   1.649   9.838   3.974  1.3715 -0.0250 -0.4612
  820MOL0     H13147   1.828   9.937   3.807  0.3958  1.6838 -1.7134
  820MOL0     H13148   1.674  10.081   3.428 -0.2975  0.3959  3.0561
  820MOL0     H13149   1.842  10.097   3.406 -0.2526  1.5426  0.5949
  820MOL0     H13150   1.689   9.813   3.389  2.3262 -1.5988  2.9545
  820MOL0     H13151   1.853   9.834   3.373  0.4715  2.2856  0.8756
  820MOL0     H13152   1.788  10.009   3.185 -3.4828  1.3435 -2.0338
  820MOL0     H13153   1.799   9.850   3.127 -0.8498  1.8614 -0.7081
  820MOL0     H13154   1.536   9.842   3.213 -1.3445 -0.7016 -0.3884
  820MOL0     H13155   1.581   9.900   3.057  0.1767 -1.4030  0.5537
  820MOL0     H13156   1.415  10.232   3.230 -0.7945 -0.4899  0.5171
  820MOL0     H13157   1.538   9.926   3.499 -1.6422 -2.2072 -0.3544
  820MOL0     H13158   1.242   9.894   3.702 -0.7852 -3.3333  1.0405
  820MOL0     H13159   1.310   9.903   3.543  0.4564 -0.7972 -0.6018
  820MOL0     H13160   1.293   9.742   3.625  0.3106 -0.1448  0.8211
  821MOL0     O13161   6.222   9.594   0.463 -0.1222  0.2856 -0.0208
  821MOL0     C13162   6.274   9.481   0.482  1.1950 -0.4750 -0.9604
  821MOL0     O13163   6.389   9.447   0.543 -0.0395 -0.0499 -0.6513
  821MOL0     C13164   6.467   9.546   0.593  0.0186  0.8255  0.5775
  821MOL0     C13165   6.582   9.574   0.517  0.3955  0.6406  0.0223
  821MOL0     C13166   6.675   9.667   0.564 -0.1090 -0.2271 -0.4203
  821MOL0     C13167   6.678   9.711   0.697  0.2421 -0.3040 -0.2225
  821MOL0     O13168   6.784   9.789   0.741  0.2290  0.4626  0.0342
  821MOL0     C13169   6.828   9.782   0.883  0.2112  0.0959  1.5283
  821MOL0     C13170   6.782   9.906   0.953  0.2186  0.0309 -0.1988
  821MOL0     C13171   6.798   9.886   1.110  0.1702 -0.6092 -0.1496
  821MOL0     C13172   6.744   9.999   1.181 -0.1003 -0.5171  0.0971
  821MOL0     C13173   6.734   9.973   1.327 -1.2806 -0.3373  0.8544
  821MOL0     C13174   6.838   9.875   1.390 -0.2110 -0.0708 -0.8716
  821MOL0     C13175   6.838   9.867   1.543 -1.3475 -0.0754  0.3333
  821MOL0     C13176   6.946   9.776   1.606  0.6108  0.0452 -0.0397
  821MOL0     N13177   6.918   9.750   1.750 -0.6341 -0.1220  0.2053
  821MOL0     C13178   6.957   9.632   1.800  0.0044 -0.2083  0.1970
  821MOL0     C13179   6.919   9.638   1.931 -0.3512  0.5803  0.3843
  821MOL0     C13180   6.928   9.529   2.033 -0.8250 -0.9214 -0.1597
  821MOL0     C13181   6.840   9.402   2.007 -0.9056 -0.9165 -0.5920
  821MOL0     C13182   6.687   9.426   2.005  0.5839 -0.5859  0.8213
  821MOL0     C13183   6.637   9.491   1.878 -0.3073 -0.1824  0.1297
  821MOL0     O13184   6.687   9.425   1.760  0.8544 -0.0544  0.1729
  821MOL0     C13185   6.660   9.473   1.630  0.7227  0.1375 -0.7335
  821MOL0     C13186   6.655   9.383   1.527  0.3161  0.0118 -0.1638
  821MOL0     C13187   6.596   9.416   1.400  0.1243 -1.2297 -0.1037
  821MOL0     C13188   6.583   9.315   1.295 -0.2421 -0.0759 -0.3191
  821MOL0     C13189   6.543   9.543   1.378 -0.3085 -0.3133  0.2009
  821MOL0     C13190   6.472   9.604   1.259 -0.4585  0.0268  0.2989
  821MOL0     O13191   6.392   9.716   1.285  0.7856  0.9059 -0.3768
  821MOL0     C13192   6.353   9.801   1.184  0.1288  0.0981  0.0756
  821MOL0     C13193   6.372   9.936   1.228  0.2156 -0.0541  0.1100
  821MOL0     C13194   6.357  10.047   1.137  0.0663  0.0298  0.1392
  821MOL0     C13195   6.320  10.024   1.004  0.0891  0.4268 -0.0153
  821MOL0     O13196   6.294  10.116   0.906 -0.0335  0.5207  0.0114
  821MOL0     C13197   6.269  10.248   0.945 -0.3808 -0.1871 -0.6733
  821MOL0     C13198   6.191  10.323   0.839  0.0098 -0.2463  1.2939
  821MOL0     C13199   6.049  10.277   0.802  0.6193  0.1851 -0.6766
  821MOL0     C13200   5.983  10.184   0.899  0.1719 -0.0511  0.1216
  821MOL0     C13201   5.836  10.178   0.853 -0.1811  0.4594  0.0739
  821MOL0     C13202   5.748  10.090   0.940 -0.1151  0.1120 -0.7340
  821MOL0     C13203   5.606  10.073   0.879  0.5311 -0.8914  0.4442
  821MOL0     C13204   5.542   9.951   0.933  0.3924 -0.3792 -0.1309
  821MOL0    Cl13205   5.369   9.960   0.923 -0.3652 -0.0365  0.1560
  821MOL0     C13206   6.304   9.887   0.962 -0.0024 -0.5014 -0.3350
  821MOL0     C13207   6.330   9.781   1.055 -0.0866 -0.0520  0.5757
  821MOL0     O13208   6.505   9.557   1.147 -0.1780 -0.3764  0.2497
  821MOL0     C13209   6.566   9.632   1.480  0.0487 -0.0553 -0.0745
  821MOL0     C13210   6.607   9.602   1.609 -0.1807  0.7569  0.5381
  821MOL0     N13211   6.880   9.769   1.959  0.7276  0.4600 -0.0276
  821MOL0     N13212   6.884   9.834   1.848  0.4463 -0.1190 -0.5563
  821MOL0     C13213   6.559   9.676   0.774 -0.1952  0.3689  0.3234
  821MOL0     C13214   6.464   9.589   0.726  0.5175  0.4570 -0.3517
  821MOL0     C13215   6.194   9.368   0.431 -1.0560  0.4259  0.1980
  821MOL0     C13216   6.069   9.393   0.374 -0.2615 -0.4648  0.0427
  821MOL0     C13217   5.991   9.295   0.331  0.5063 -0.0529 -0.1002
  821MOL0     C13218   6.034   9.163   0.324 -0.7462 -0.0837  0.2735
  821MOL0     O13219   5.961   9.056   0.274 -0.1419  0.7374  0.0585
  821MOL0     C13220   6.027   8.948   0.203 -0.0525 -0.8222  0.2701
  821MOL0     C13221   5.955   8.900   0.078  0.1478 -0.3875  0.3771
  821MOL0     C13222   5.839   8.799   0.117  1.4596  0.3025  0.4094
  821MOL0     C13223   5.882   8.666   0.192  0.8232  0.0006 -0.3410
  821MOL0     C13224   5.955   8.580   0.108 -0.1124  0.3462  1.1226
  821MOL0     C13225   6.020   8.491   0.050  0.1919  0.3713 -0.1326
  821MOL0     C13226   6.171   9.133   0.369 -0.6214 -0.3012 -0.7449
  821MOL0     C13227   6.247   9.239   0.423  0.5077  0.0271  0.4560
  821MOL0     C13228   6.380   9.193   0.470 -0.7170  0.7460  0.3602
  821MOL0     H13229   6.584   9.528   0.419 -1.1231 -0.1363  0.3142
  821MOL0     H13230   6.772   9.702   0.530  0.5702 -1.2199  0.4495
  821MOL0     H13231   6.933   9.753   0.896  0.1694 -0.2550  1.0957
  821MOL0     H13232   6.778   9.696   0.929 -0.5569  0.7361  1.9114
  821MOL0     H13233   6.833   9.997   0.922  0.9322  0.2026  1.3483
  821MOL0     H13234   6.675   9.921   0.938 -0.2006 -0.1514  2.1580
  821MOL0     H13235   6.744   9.799   1.148 -0.8137  0.7129  1.6479
  821MOL0     H13236   6.905   9.884   1.133  0.0080  0.7462  0.8405
  821MOL0     H13237   6.810  10.082   1.159  1.2350 -1.9255 -1.4428
  821MOL0     H13238   6.643  10.027   1.148 -1.1144 -1.6244  2.0130
  821MOL0     H13239   6.637   9.931   1.355 -0.7130 -1.9431  0.4916
  821MOL0     H13240   6.762  10.067   1.375  4.5728 -0.8674 -0.7793
  821MOL0     H13241   6.813   9.776   1.350 -1.4322  0.4347 -1.4305
  821MOL0     H13242   6.938   9.897   1.351 -0.5464 -0.3409 -1.9135
  821MOL0     H13243   6.738   9.836   1.574 -3.1920  3.5711 -1.2836
  821MOL0     H13244   6.846   9.967   1.585 -5.3352  1.3425 -1.6897
  821MOL0     H13245   6.951   9.681   1.553  2.9041 -0.8343  1.5554
  821MOL0     H13246   7.035   9.841   1.615  1.5841 -1.5367  4.2019
  821MOL0     H13247   6.983   9.538   1.751  1.6470  0.3410 -0.0459
  821MOL0     H13248   6.902   9.577   2.128  2.3110 -0.2769  0.4948
  821MOL0     H13249   7.034   9.504   2.043 -0.3958  0.2228 -1.5596
  821MOL0     H13250   6.874   9.366   1.910  0.5533  0.8727 -0.8234
  821MOL0     H13251   6.861   9.332   2.089  3.5650  0.5572 -0.1775
  821MOL0     H13252   6.653   9.322   1.999  2.9437 -1.3376 -2.0164
  821MOL0     H13253   6.651   9.484   2.090 -3.4136 -2.0121  0.3274
  821MOL0     H13254   6.528   9.487   1.886 -0.5759  2.3837 -1.2396
  821MOL0     H13255   6.665   9.596   1.880 -2.1678  0.3673 -0.5207
  821MOL0     H13256   6.694   9.282   1.540 -1.5057 -0.6237  0.7232
  821MOL0     H13257   6.476   9.297   1.283 -0.8370  1.4981  1.8059
  821MOL0     H13258   6.631   9.219   1.317 -0.9482 -0.4633 -0.4638
  821MOL0     H13259   6.632   9.352   1.204  1.5858 -0.5047  0.4373
  821MOL0     H13260   6.395   9.962   1.330  0.7687 -2.6510  0.7295
  821MOL0     H13261   6.371  10.149   1.171 -1.0369  0.4373 -0.5749
  821MOL0     H13262   6.207  10.254   1.035 -0.0608  2.6827 -0.5580
  821MOL0     H13263   6.361  10.304   0.966 -1.4654  1.0613  1.0716
  821MOL0     H13264   6.187  10.428   0.870  3.6950  1.2407 -2.3269
  821MOL0     H13265   6.258  10.317   0.753 -0.3890 -2.5658  1.0613
  821MOL0     H13266   6.055  10.215   0.712  2.6204 -1.7309  0.6529
  821MOL0     H13267   5.988  10.367   0.790  2.0641  1.8925  3.1722
  821MOL0     H13268   5.995  10.213   1.003  1.4594  4.5694 -1.1049
  821MOL0     H13269   6.027  10.084   0.890  0.8527 -0.3195  4.4444
  821MOL0     H13270   5.804  10.283   0.849 -0.3403  0.4082 -0.0169
  821MOL0     H13271   5.829  10.148   0.748  0.4097  1.7605 -0.3582
  821MOL0     H13272   5.744  10.133   1.041  1.2409  0.4635 -0.8089
  821MOL0     H13273   5.793   9.990   0.949  0.2778  0.2291 -1.3362
  821MOL0     H13274   5.607  10.079   0.770 -0.1830  4.7561  0.4370
  821MOL0     H13275   5.552  10.160   0.918 -0.4396 -0.9202 -0.7982
  821MOL0     H13276   5.566   9.939   1.039 -0.1933  0.1610  0.0738
  821MOL0     H13277   5.577   9.859   0.887 -1.3172 -0.7162 -0.8296
  821MOL0     H13278   6.291   9.864   0.856  2.4152 -0.9860 -0.6043
  821MOL0     H13279   6.321   9.677   1.025 -0.3588 -0.4353  1.8925
  821MOL0     H13280   6.526   9.733   1.468 -2.3808 -0.9168  0.2152
  821MOL0     H13281   6.627   9.681   1.680  0.9544  1.3701 -0.4228
  821MOL0     H13282   6.554   9.700   0.880 -0.1361  2.9252 -0.1737
  821MOL0     H13283   6.390   9.558   0.799 -1.6809  1.9600 -1.7928
  821MOL0     H13284   6.025   9.491   0.354 -3.6779 -2.1657 -1.6359
  821MOL0     H13285   5.899   9.329   0.285 -0.9691 -0.8895  2.0806
  821MOL0     H13286   6.125   8.979   0.167  0.7760 -4.0117 -0.5793
  821MOL0     H13287   6.039   8.864   0.271  0.1961 -1.3089 -0.3623
  821MOL0     H13288   6.027   8.849   0.014  0.1197  0.1863 -0.1152
  821MOL0     H13289   5.921   8.985   0.019 -1.3532 -0.7843  0.6148
  821MOL0     H13290   5.760   8.859   0.164  1.1735  2.3127 -2.3450
  821MOL0     H13291   5.785   8.769   0.027  0.2012 -0.5489  1.4078
  821MOL0     H13292   5.793   8.608   0.216  1.3087  0.0315  1.6988
  821MOL0     H13293   5.941   8.692   0.280 -1.2496  1.3193  0.7516
  821MOL0     H13294   6.074   8.413   0.000 -0.3605  0.2657 -0.5839
  821MOL0     H13295   6.213   9.034   0.351  1.9129  0.1440  2.0218
  821MOL0     H13296   6.455   9.253   0.417  0.7253 -1.9532 -0.9006
  821MOL0     H13297   6.387   9.212   0.577  2.0984 -1.4105  0.6866
  821MOL0     H13298   6.400   9.088   0.447  0.2487 -0.0055  4.0009
  822MOL0     O13299   8.927   4.558   2.189 -0.3771  0.2601 -0.0795
  822MOL0     C13300   9.036   4.505   2.156  0.1124  0.1974  0.8751
  822MOL0     O13301   9.146   4.497   2.236  0.4236 -0.7186 -0.2821
  822MOL0     C13302   9.163   4.603   2.320  0.4258  0.4485  0.0764
  822MOL0     C13303   9.116   4.592   2.455  0.4636 -0.5454 -0.2818
  822MOL0     C13304   9.129   4.706   2.535 -1.4017 -0.2593  0.4752
  822MOL0     C13305   9.182   4.829   2.487  1.0758 -0.7435  0.9144
  822MOL0     O13306   9.200   4.929   2.575  0.2290 -0.2839  0.4026
  822MOL0     C13307   9.116   4.951   2.684 -0.1202 -0.7181  0.1413
  822MOL0     C13308   9.118   5.100   2.734  0.2688 -0.5929  0.9160
  822MOL0     C13309   9.259   5.117   2.786  0.8398 -1.1639 -0.5435
  822MOL0     C13310   9.254   5.264   2.832  0.2884  0.1774  0.1995
  822MOL0     C13311   9.367   5.291   2.916  0.7778 -0.4973 -0.2287
  822MOL0     C13312   9.397   5.440   2.945  0.3422  0.0928 -0.1395
  822MOL0     C13313   9.305   5.511   3.038  0.1926 -0.3980 -1.0505
  822MOL0     C13314   9.331   5.470   3.185 -0.1237 -0.4757 -0.3890
  822MOL0     N13315   9.240   5.553   3.267  0.1496  0.7000 -0.0488
  822MOL0     C13316   9.116   5.517   3.315 -0.3408  0.0617 -0.4815
  822MOL0     C13317   9.068   5.618   3.393 -0.0921  0.3468  0.3692
  822MOL0     C13318   8.929   5.627   3.449  0.3552 -0.6156  0.5742
  822MOL0     C13319   8.842   5.717   3.357  0.7056 -0.0580  0.9726
  822MOL0     C13320   8.802   5.655   3.218 -0.0019 -0.2730 -0.2001
  822MOL0     C13321   8.892   5.691   3.111  0.1838  0.1366 -1.0088
  822MOL0     O13322   8.839   5.615   2.995  0.2864  1.0071  0.4742
  822MOL0     C13323   8.855   5.670   2.876  0.7490  0.2831 -0.0352
  822MOL0     C13324   8.894   5.575   2.781 -0.2282  0.1211 -0.1309
  822MOL0     C13325   8.917   5.615   2.650 -0.2178 -0.2725 -0.1749
  822MOL0     C13326   8.960   5.506   2.558 -0.6349 -0.3149  0.1882
  822MOL0     C13327   8.898   5.747   2.599 -0.0558  0.9239 -0.9968
  822MOL0     C13328   8.920   5.797   2.462 -0.1853  0.0149  0.5768
  822MOL0     O13329   8.888   5.705   2.365 -0.3669 -0.1970 -0.5119
  822MOL0     C13330   8.943   5.723   2.246  0.1317  0.0644 -0.5345
  822MOL0     C13331   9.081   5.732   2.230 -0.0036  0.7187 -0.1869
  822MOL0     C13332   9.133   5.763   2.110  0.1569  0.1196  0.5578
  822MOL0     C13333   9.059   5.782   1.996  0.2183 -0.6926 -0.2819
  822MOL0     O13334   9.119   5.816   1.879  0.7871  0.2145  0.4068
  822MOL0     C13335   9.163   5.964   1.870  0.5074  1.3325  0.0541
  822MOL0     C13336   9.078   6.058   1.768 -0.3646 -0.8474  0.0358
  822MOL0     C13337   9.148   6.199   1.741 -0.1525  0.6733  0.4172
  822MOL0     C13338   9.042   6.278   1.670 -0.0767 -0.3094  0.4787
  822MOL0     C13339   9.089   6.423   1.668  0.1004 -0.2120 -0.4055
  822MOL0     C13340   9.000   6.519   1.581 -0.7311  0.2452  0.3908
  822MOL0     C13341   8.993   6.474   1.437  0.0453 -0.7528 -0.0586
  822MOL0     C13342   8.922   6.574   1.352  0.8198  0.4194  0.2090
  822MOL0    Cl13343   8.741   6.582   1.407 -0.7522  0.7089 -0.4370
  822MOL0     C13344   8.921   5.786   2.019 -0.0632 -0.6111 -0.3306
  822MOL0     C13345   8.861   5.743   2.140  0.3741 -1.1840  0.5707
  822MOL0     O13346   8.950   5.913   2.440  0.6491 -0.9002  0.5008
  822MOL0     C13347   8.869   5.842   2.698  1.1510  0.6885 -1.0023
  822MOL0     C13348   8.853   5.806   2.837  0.1047  0.4141  1.4258
  822MOL0     N13349   9.170   5.710   3.395  0.4076 -0.3430  0.8723
  822MOL0     N13350   9.258   5.670   3.317  0.0724 -0.2831 -0.5909
  822MOL0     C13351   9.236   4.833   2.361 -1.0712  0.9004 -0.2464
  822MOL0     C13352   9.224   4.726   2.276 -0.3944  0.2327 -0.2183
  822MOL0     C13353   9.047   4.433   2.024 -0.5709 -0.0110 -0.2866
  822MOL0     C13354   9.166   4.358   2.008 -0.3191 -0.0748  0.2458
  822MOL0     C13355   9.181   4.272   1.891  0.6289  1.1347 -0.8767
  822MOL0     C13356   9.077   4.264   1.798  0.3871  0.2068  0.8188
  822MOL0     O13357   9.104   4.171   1.693  0.5059  0.0640  0.0265
  822MOL0     C13358   9.025   4.050   1.685 -0.0267 -0.4375  0.6603
  822MOL0     C13359   8.974   4.040   1.541  0.3388 -0.5446 -0.1319
  822MOL0     C13360   9.086   3.998   1.454  0.2367 -0.0540  0.3714
  822MOL0     C13361   9.019   3.990   1.315 -0.0957 -0.1070  0.6122
  822MOL0     C13362   9.122   3.924   1.231  1.4510  0.3780 -0.2819
  822MOL0     C13363   9.207   3.867   1.163 -0.3491 -0.7797  1.0687
  822MOL0     C13364   8.957   4.329   1.820 -0.3048  0.0338 -0.2328
  822MOL0     C13365   8.938   4.414   1.933 -0.7497 -0.0987  0.2433
  822MOL0     C13366   8.804   4.489   1.948 -0.4099 -0.0725  0.6942
  822MOL0     H13367   9.062   4.506   2.493 -2.2346  1.7111  1.3669
  822MOL0     H13368   9.110   4.699   2.641  2.1540  0.9363  1.3370
  822MOL0     H13369   9.147   4.895   2.773  1.5244 -1.1052 -0.6329
  822MOL0     H13370   9.014   4.933   2.651  0.0457 -2.0794  0.3200
  822MOL0     H13371   9.105   5.171   2.652 -1.0827  1.2920  2.6600
  822MOL0     H13372   9.033   5.119   2.800 -1.1729  0.5276 -1.1446
  822MOL0     H13373   9.268   5.057   2.877  2.3539  1.9389  1.5193
  822MOL0     H13374   9.335   5.097   2.710 -0.7359 -2.1166 -1.9123
  822MOL0     H13375   9.254   5.330   2.745 -0.1787 -1.4115 -1.0484
  822MOL0     H13376   9.164   5.286   2.890 -0.7994  3.2276 -2.3485
  822MOL0     H13377   9.453   5.256   2.858 -1.2457 -3.1365 -1.8581
  822MOL0     H13378   9.363   5.229   3.006 -0.4243 -0.4259 -0.2261
  822MOL0     H13379   9.495   5.438   2.994 -0.1758  0.0703  0.9288
  822MOL0     H13380   9.421   5.495   2.854  2.6502  0.4127  0.5805
  822MOL0     H13381   9.205   5.485   3.002  0.1646  0.3668 -1.5525
  822MOL0     H13382   9.318   5.620   3.037 -1.4546 -0.1077  1.0075
  822MOL0     H13383   9.318   5.364   3.208 -1.4798 -0.2402  0.0184
  822MOL0     H13384   9.437   5.484   3.209  0.2404 -2.5116 -0.6762
  822MOL0     H13385   9.072   5.419   3.295 -0.6592  1.0245 -6.5730
  822MOL0     H13386   8.934   5.667   3.551 -0.4629  0.4728  0.2109
  822MOL0     H13387   8.886   5.527   3.451  1.2829 -1.1610 -2.2214
  822MOL0     H13388   8.747   5.748   3.401  1.0483  0.0065  1.6786
  822MOL0     H13389   8.886   5.816   3.345 -1.4243  0.7895 -0.2633
  822MOL0     H13390   8.808   5.548   3.239 -0.4448 -0.5546 -1.4222
  822MOL0     H13391   8.699   5.676   3.190  0.2000  0.4825 -0.4118
  822MOL0     H13392   8.902   5.799   3.096  0.5901 -0.2210 -4.0427
  822MOL0     H13393   8.991   5.648   3.130  0.1758 -0.9575 -3.1085
  822MOL0     H13394   8.910   5.473   2.814  2.5285  0.4628 -0.1664
  822MOL0     H13395   9.001   5.416   2.604 -1.5009 -0.3481  0.9352
  822MOL0     H13396   9.042   5.545   2.497  0.0791  0.1534  1.4222
  822MOL0     H13397   8.875   5.464   2.502  1.2698 -2.0595 -1.5621
  822MOL0     H13398   9.148   5.702   2.310 -3.0315 -1.0276  1.9466
  822MOL0     H13399   9.242   5.766   2.106  0.1147  0.4317 -1.6724
  822MOL0     H13400   9.165   6.009   1.970 -1.0496 -0.2888  0.8470
  822MOL0     H13401   9.266   5.966   1.833  0.0852  0.1307 -1.2727
  822MOL0     H13402   9.070   6.007   1.672  1.8142 -0.7453 -0.2495
  822MOL0     H13403   8.980   6.066   1.816 -0.8969 -1.8231 -0.8464
  822MOL0     H13404   9.230   6.184   1.670 -1.3505  1.1880 -1.1455
  822MOL0     H13405   9.187   6.243   1.833 -0.6383  2.6276 -0.2626
  822MOL0     H13406   8.943   6.280   1.717  1.8649  2.1448  5.0606
  822MOL0     H13407   9.040   6.236   1.569 -0.8503 -2.2357  1.2478
  822MOL0     H13408   9.075   6.469   1.766  0.1884  1.4625 -1.1613
  822MOL0     H13409   9.196   6.418   1.644  0.5926  0.1510  1.5653
  822MOL0     H13410   9.037   6.621   1.597  2.7125 -0.5475 -1.5458
  822MOL0     H13411   8.902   6.520   1.631 -0.8189  0.2106  0.2220
  822MOL0     H13412   8.941   6.381   1.413  2.8481 -2.0647 -1.4236
  822MOL0     H13413   9.096   6.460   1.404  0.7020 -1.7747  2.2740
  822MOL0     H13414   8.919   6.545   1.247 -2.5595 -3.2746  1.1139
  822MOL0     H13415   8.973   6.669   1.372  2.7872 -0.3117 -1.0883
  822MOL0     H13416   8.865   5.802   1.928 -0.7466 -1.7507 -0.1158
  822MOL0     H13417   8.754   5.728   2.153 -0.0687  2.0011  1.5972
  822MOL0     H13418   8.847   5.947   2.684 -2.6759  1.0416  4.5188
  822MOL0     H13419   8.825   5.886   2.905 -2.4094  3.4179 -2.6369
  822MOL0     H13420   9.276   4.928   2.326 -0.6070  0.0688 -2.1056
  822MOL0     H13421   9.249   4.737   2.171 -2.3369  2.2342 -0.5555
  822MOL0     H13422   9.232   4.343   2.093 -5.0041 -1.7899  4.0322
  822MOL0     H13423   9.273   4.218   1.869  0.0413  0.2970 -1.3673
  822MOL0     H13424   9.088   3.964   1.710  3.1425  1.6233  0.3570
  822MOL0     H13425   8.938   4.052   1.750 -0.4697  1.5318  0.0703
  822MOL0     H13426   8.925   4.134   1.514  1.5522  0.5516  1.2895
  822MOL0     H13427   8.902   3.959   1.541 -0.5151  0.1402  1.9127
  822MOL0     H13428   9.165   4.071   1.473  3.8046 -3.8632  1.4866
  822MOL0     H13429   9.125   3.903   1.491 -1.7020 -0.0229  2.7905
  822MOL0     H13430   9.002   4.091   1.278  1.1582 -1.2459 -3.7005
  822MOL0     H13431   8.929   3.927   1.309 -0.3450  0.3233 -0.3775
  822MOL0     H13432   9.270   3.838   1.082 -0.0848 -0.4342  1.1477
  822MOL0     H13433   8.875   4.315   1.750 -2.4705  2.0576  1.7100
  822MOL0     H13434   8.814   4.597   1.961 -2.1581 -0.0118  1.7923
  822MOL0     H13435   8.747   4.479   1.855 -0.8798 -1.6354  1.1214
  822MOL0     H13436   8.735   4.442   2.018  1.9881  0.6124  3.7226
  823MOL0     O13437   9.698   2.582   7.411  0.2310  0.1096 -0.8518
  823MOL0     C13438   9.763   2.687   7.392 -0.0672  1.0374  0.2881
  823MOL0     O13439   9.863   2.709   7.290  0.2152 -0.5637  0.2646
  823MOL0     C13440   9.904   2.612   7.202 -0.7257  0.4025 -0.5002
  823MOL0     C13441   9.981   2.658   7.097  0.1723 -0.0145  0.4734
  823MOL0     C13442  10.050   2.574   7.008  0.1214  0.1850  0.2209
  823MOL0     C13443  10.038   2.437   7.013 -0.8051  0.6036  0.4827
  823MOL0     O13444  10.090   2.350   6.921  0.2234  0.0977  0.6461
  823MOL0     C13445  10.209   2.389   6.844  0.4572  0.2412 -0.6992
  823MOL0     C13446  10.246   2.273   6.754 -0.3946 -0.5781 -0.1526
  823MOL0     C13447  10.377   2.301   6.674  0.2226  0.0408  0.1442
  823MOL0     C13448  10.335   2.316   6.521 -0.3966  0.6331 -0.5565
  823MOL0     C13449  10.465   2.323   6.431 -0.4516  0.0786 -0.0463
  823MOL0     C13450  10.452   2.247   6.299  0.8339  0.0338  0.0380
  823MOL0     C13451  10.579   2.228   6.220  0.8797  0.2026  0.5395
  823MOL0     C13452  10.614   2.372   6.165  0.6313  0.2240  0.4972
  823MOL0     N13453  10.729   2.373   6.070  0.7140 -0.0763 -1.0674
  823MOL0     C13454  10.783   2.267   5.996 -1.1482 -0.4276  0.5826
  823MOL0     C13455  10.900   2.318   5.947  0.3829 -0.1290 -0.2477
  823MOL0     C13456  10.996   2.238   5.864  0.6991  0.0038  0.2956
  823MOL0     C13457  10.998   2.292   5.721 -0.9612 -0.0659  0.1540
  823MOL0     C13458  10.887   2.248   5.632  0.5612  0.0524 -0.4809
  823MOL0     C13459  10.894   2.308   5.496  0.1057 -0.6694  0.8169
  823MOL0     O13460  10.777   2.389   5.484  0.4780 -0.5961 -0.3390
  823MOL0     C13461  10.738   2.421   5.352  0.4398 -0.1787 -0.7323
  823MOL0     C13462  10.818   2.492   5.264 -0.9999  1.0735 -0.1033
  823MOL0     C13463  10.774   2.521   5.139 -0.2090  0.3667  0.4143
  823MOL0     C13464  10.882   2.585   5.056  1.5811  0.1027 -0.4374
  823MOL0     C13465  10.641   2.499   5.099  0.3681 -0.0240  1.0940
  823MOL0     C13466  10.583   2.534   4.966  0.3663  0.3164 -0.3924
  823MOL0     O13467  10.478   2.463   4.924  0.5098 -0.0189 -0.2713
  823MOL0     C13468  10.419   2.509   4.809  0.7226  0.3119  0.2485
  823MOL0     C13469  10.339   2.619   4.805 -0.2169 -0.2709 -0.4775
  823MOL0     C13470  10.271   2.656   4.686 -0.5490 -1.0148  0.2767
  823MOL0     C13471  10.271   2.569   4.576  0.8323  0.0462 -0.1476
  823MOL0     O13472  10.202   2.601   4.464 -0.2284 -0.2282  0.5766
  823MOL0     C13473  10.081   2.681   4.483 -0.2146  0.2776  0.0781
  823MOL0     C13474  10.012   2.683   4.346  0.1452 -0.3382 -0.7804
  823MOL0     C13475   9.911   2.791   4.336 -0.0359 -0.0029 -0.0191
  823MOL0     C13476   9.805   2.779   4.222  0.8638  0.3943  0.6550
  823MOL0     C13477   9.730   2.652   4.211  0.6718 -0.5201 -0.0501
  823MOL0     C13478   9.658   2.597   4.340 -0.5234 -0.7822  0.7393
  823MOL0     C13479   9.563   2.701   4.413 -0.3560  0.4802  0.5614
  823MOL0     C13480   9.514   2.626   4.524  0.0922  0.3729 -0.3749
  823MOL0    Cl13481   9.646   2.612   4.652  0.4889 -0.1752 -0.7926
  823MOL0     C13482  10.343   2.449   4.582 -0.8761 -0.2370 -0.2959
  823MOL0     C13483  10.427   2.418   4.690  0.0917  0.1077 -0.9847
  823MOL0     O13484  10.629   2.629   4.905 -0.0642 -0.9724 -0.0871
  823MOL0     C13485  10.553   2.432   5.190 -0.3317  0.0270 -0.3905
  823MOL0     C13486  10.605   2.397   5.317  0.2260 -0.6673 -0.9076
  823MOL0     N13487  10.914   2.446   5.989  0.1401 -0.5503 -0.3221
  823MOL0     N13488  10.820   2.474   6.071 -0.7402 -1.0288  0.6415
  823MOL0     C13489   9.959   2.383   7.116 -0.7182 -0.5072 -0.3440
  823MOL0     C13490   9.890   2.468   7.208 -0.3366 -0.3405  0.7075
  823MOL0     C13491   9.737   2.805   7.480  0.3893  0.8534  0.6634
  823MOL0     C13492   9.792   2.927   7.432 -0.2384  0.0396 -1.0996
  823MOL0     C13493   9.771   3.044   7.498 -0.3472 -0.8041  0.0731
  823MOL0     C13494   9.681   3.055   7.599 -0.4567 -0.0894 -0.4609
  823MOL0     O13495   9.668   3.184   7.632  0.2450  0.6496 -0.5817
  823MOL0     C13496   9.567   3.222   7.725 -0.1356  0.0443 -0.5716
  823MOL0     C13497   9.425   3.220   7.658 -0.6751 -0.5862  0.4020
  823MOL0     C13498   9.315   3.278   7.761 -0.3663 -0.5579 -0.5056
  823MOL0     C13499   9.327   3.226   7.899 -0.4741  0.0439  0.6833
  823MOL0     C13500   9.305   3.077   7.903  0.2566 -0.4769 -0.3327
  823MOL0     C13501   9.289   2.959   7.889 -0.4223 -0.1162 -0.2354
  823MOL0     C13502   9.606   2.948   7.641 -0.1953  0.9017 -0.1256
  823MOL0     C13503   9.646   2.818   7.588  0.2799 -0.3369  1.3336
  823MOL0     C13504   9.572   2.707   7.646  0.2202 -0.6633  0.3859
  823MOL0     H13505  10.008   2.763   7.096  1.5150 -0.2974  1.9741
  823MOL0     H13506  10.115   2.623   6.937  1.9478  0.7430  2.1608
  823MOL0     H13507  10.290   2.408   6.915 -1.3562  0.6867  1.3822
  823MOL0     H13508  10.182   2.478   6.787  1.2828  1.1433  0.2696
  823MOL0     H13509  10.279   2.188   6.814 -0.5128  0.4490  1.4232
  823MOL0     H13510  10.159   2.236   6.698 -1.2430 -1.2011  1.5083
  823MOL0     H13511  10.434   2.385   6.713  0.7717  0.0524 -0.6793
  823MOL0     H13512  10.433   2.209   6.692 -1.4007 -1.0559 -0.1926
  823MOL0     H13513  10.270   2.232   6.498 -0.4678  1.1490 -2.4661
  823MOL0     H13514  10.276   2.407   6.512  1.4184  1.9985  0.5626
  823MOL0     H13515  10.549   2.288   6.492 -1.3167  0.7256  1.5952
  823MOL0     H13516  10.478   2.428   6.402 -2.2846  0.5471  0.6858
  823MOL0     H13517  10.415   2.144   6.311 -2.0359  0.8979 -0.6910
  823MOL0     H13518  10.378   2.300   6.239  0.8199 -1.7965 -1.6718
  823MOL0     H13519  10.546   2.172   6.132 -2.8241 -1.4646  2.7819
  823MOL0     H13520  10.656   2.175   6.277 -3.7684 -2.6205  5.0050
  823MOL0     H13521  10.533   2.419   6.109  0.5811 -2.3758 -1.8395
  823MOL0     H13522  10.639   2.436   6.250  1.1037  1.0331 -0.2323
  823MOL0     H13523  10.742   2.167   5.990  1.2583 -1.5452  1.8768
  823MOL0     H13524  10.974   2.131   5.852 -0.7511  0.5142 -2.6490
  823MOL0     H13525  11.092   2.253   5.913  0.2633  0.9330  0.8976
  823MOL0     H13526  10.996   2.401   5.731 -1.8673 -0.2238  2.1700
  823MOL0     H13527  11.091   2.261   5.674 -1.3059 -1.1004  0.1389
  823MOL0     H13528  10.901   2.141   5.610 -0.7779 -0.1283 -0.5375
  823MOL0     H13529  10.793   2.261   5.686  0.2427  6.5006 -1.8822
  823MOL0     H13530  10.988   2.362   5.484  1.4442 -3.1732 -0.8549
  823MOL0     H13531  10.891   2.231   5.419 -1.9295  0.5485 -0.4191
  823MOL0     H13532  10.922   2.511   5.286 -0.1123  0.1637 -3.0500
  823MOL0     H13533  10.891   2.694   5.062  0.1208  0.3318 -1.7652
  823MOL0     H13534  10.861   2.563   4.951 -3.5982  0.7119  0.1922
  823MOL0     H13535  10.980   2.547   5.085  0.5177  0.2608  4.2810
  823MOL0     H13536  10.347   2.692   4.885  1.2333  0.1872 -0.9943
  823MOL0     H13537  10.227   2.753   4.662  1.0459 -0.8549 -2.4966
  823MOL0     H13538  10.014   2.639   4.559 -1.6269  5.2476  1.9913
  823MOL0     H13539  10.110   2.783   4.509 -0.6264  0.0155  1.6937
  823MOL0     H13540  10.086   2.704   4.269  1.2611  1.8098  0.7615
  823MOL0     H13541   9.968   2.585   4.325  0.1132 -0.3586 -0.6201
  823MOL0     H13542   9.964   2.887   4.339  1.0871 -0.6354  2.5068
  823MOL0     H13543   9.855   2.788   4.429  1.2626 -1.9754  0.7511
  823MOL0     H13544   9.853   2.778   4.124 -1.1742 -2.5182 -0.4661
  823MOL0     H13545   9.737   2.865   4.226  1.1751  0.8765 -2.2298
  823MOL0     H13546   9.658   2.654   4.129 -0.9738 -2.9855  1.1932
  823MOL0     H13547   9.793   2.575   4.168  2.7836 -0.4953  2.7122
  823MOL0     H13548   9.732   2.558   4.411 -0.4953 -2.4172 -0.1432
  823MOL0     H13549   9.598   2.515   4.298 -0.7340  0.7843 -2.2417
  823MOL0     H13550   9.491   2.724   4.335  0.0923  0.4242  0.1294
  823MOL0     H13551   9.605   2.799   4.435  0.0746  0.2190  0.9281
  823MOL0     H13552   9.490   2.521   4.502 -0.5615  0.2703  0.7755
  823MOL0     H13553   9.422   2.676   4.555  0.4132  1.2623 -0.8167
  823MOL0     H13554  10.344   2.375   4.502  1.2001  0.4482 -0.9694
  823MOL0     H13555  10.502   2.340   4.696 -1.3618 -1.3853 -1.2013
  823MOL0     H13556  10.448   2.428   5.162  0.0988  2.0355 -2.5848
  823MOL0     H13557  10.550   2.353   5.399  0.0403 -1.3682 -1.3937
  823MOL0     H13558   9.967   2.275   7.128 -1.3380 -0.2664  3.2188
  823MOL0     H13559   9.830   2.420   7.286 -0.6692 -0.4388  0.3931
  823MOL0     H13560   9.860   2.932   7.347  0.8198 -0.8586 -0.3434
  823MOL0     H13561   9.826   3.129   7.461 -1.8121 -0.9385 -2.7227
  823MOL0     H13562   9.567   3.148   7.806 -2.1078 -2.0342 -2.3198
  823MOL0     H13563   9.592   3.320   7.766 -0.9219 -0.1251  0.3539
  823MOL0     H13564   9.392   3.120   7.629 -3.7487  1.1229 -2.8078
  823MOL0     H13565   9.425   3.272   7.562 -2.0746  1.1097  1.2487
  823MOL0     H13566   9.309   3.388   7.760 -0.9783 -0.5496  0.9300
  823MOL0     H13567   9.223   3.235   7.721  1.1508 -2.0535 -2.5493
  823MOL0     H13568   9.246   3.263   7.963 -0.9791  0.6208 -0.2760
  823MOL0     H13569   9.414   3.262   7.955 -0.1390  3.7423 -1.8930
  823MOL0     H13570   9.283   2.852   7.889  2.2115 -0.3196  0.7226
  823MOL0     H13571   9.531   2.945   7.720 -0.7692 -2.3103 -0.6393
  823MOL0     H13572   9.548   2.739   7.748  0.7969  2.8911 -0.4495
  823MOL0     H13573   9.479   2.675   7.598  0.7997 -0.9614 -0.5686
  823MOL0     H13574   9.633   2.616   7.656  1.5565 -0.0174 -1.3071
  824MOL0     O13575   0.870   7.700   5.221  0.8056  0.7155 -0.3610
  824MOL0     C13576   0.957   7.778   5.179 -0.4518  0.4872 -0.5677
  824MOL0     O13577   1.037   7.853   5.272  0.6448  0.9335  0.6306
  824MOL0     C13578   0.986   7.869   5.399 -0.2189 -0.5212 -0.3022
  824MOL0     C13579   0.980   7.766   5.490 -0.1807  0.3383  0.4101
  824MOL0     C13580   0.931   7.796   5.613 -0.1913 -0.5676 -0.9041
  824MOL0     C13581   0.880   7.918   5.651  0.1952  0.5300 -0.2989
  824MOL0     O13582   0.831   7.934   5.780  0.9614 -0.4165  0.1700
  824MOL0     C13583   0.708   7.851   5.801 -0.1366  0.5646 -0.2369
  824MOL0     C13584   0.653   7.880   5.944 -0.2787 -1.0927  0.7028
  824MOL0     C13585   0.745   7.809   6.043 -0.9337  0.6968  0.4265
  824MOL0     C13586   0.706   7.855   6.182 -0.2602 -1.0494  0.0607
  824MOL0     C13587   0.817   7.907   6.284 -0.1471 -0.7291 -0.0457
  824MOL0     C13588   0.762   7.906   6.424  0.7861 -0.5310 -0.6568
  824MOL0     C13589   0.872   7.946   6.524 -0.2812 -0.0928 -0.0951
  824MOL0     C13590   0.809   7.961   6.662 -0.0035  0.1098 -0.4937
  824MOL0     N13591   0.918   7.978   6.765 -0.4730 -0.1369  0.7989
  824MOL0     C13592   0.975   7.879   6.850 -0.4947 -0.3828 -0.2494
  824MOL0     C13593   1.028   7.943   6.961  0.9698  0.9423  0.2619
  824MOL0     C13594   1.079   7.866   7.079 -0.0384 -0.0945  0.5622
  824MOL0     C13595   0.956   7.816   7.159 -0.1844  0.1858 -0.3833
  824MOL0     C13596   0.998   7.755   7.290  0.1545 -0.3019 -0.5504
  824MOL0     C13597   0.998   7.878   7.393 -0.4506  0.2389  0.7834
  824MOL0     O13598   1.066   7.819   7.509  0.0914 -0.1838  0.0737
  824MOL0     C13599   1.205   7.807   7.519  0.0672 -0.5341  0.6238
  824MOL0     C13600   1.239   7.717   7.619  0.0442  0.4431 -0.5382
  824MOL0     C13601   1.374   7.692   7.643  0.5314 -0.1409 -0.4191
  824MOL0     C13602   1.394   7.583   7.749 -0.6769 -0.2619 -0.1674
  824MOL0     C13603   1.475   7.759   7.569  0.2691  0.0545  0.4956
  824MOL0     C13604   1.619   7.763   7.605 -0.3709  0.6707 -0.0953
  824MOL0     O13605   1.700   7.824   7.517 -0.7957 -0.7744 -0.2470
  824MOL0     C13606   1.815   7.878   7.573 -0.3583  0.3588 -0.9025
  824MOL0     C13607   1.811   8.016   7.608  1.3168 -0.0430  0.1299
  824MOL0     C13608   1.918   8.062   7.679  0.9322 -0.5932  0.1611
  824MOL0     C13609   2.037   8.000   7.693 -0.0070 -0.2079 -0.2094
  824MOL0     O13610   2.146   8.049   7.758  0.3883 -0.4168 -0.1932
  824MOL0     C13611   2.141   8.188   7.788  0.5140  0.0514  0.3294
  824MOL0     C13612   2.271   8.243   7.837  0.0493 -1.1709  0.2110
  824MOL0     C13613   2.281   8.396   7.837 -0.2410  0.8386  0.1939
  824MOL0     C13614   2.190   8.473   7.930  0.4816  0.5121  0.1536
  824MOL0     C13615   2.194   8.627   7.918  0.2140 -0.8413 -0.4907
  824MOL0     C13616   2.128   8.690   8.036  0.3279 -0.5670 -0.3617
  824MOL0     C13617   2.148   8.844   8.047 -0.2880  0.3381  0.4045
  824MOL0     C13618   2.078   8.883   8.174 -0.4544  0.1737 -0.7251
  824MOL0    Cl13619   2.088   9.052   8.188  0.4779  0.3367  0.0632
  824MOL0     C13620   2.039   7.871   7.652 -0.0415  0.4590  0.5162
  824MOL0     C13621   1.927   7.798   7.606 -0.3990  0.3014 -0.3080
  824MOL0     O13622   1.649   7.730   7.721 -0.1521  0.5989 -0.2190
  824MOL0     C13623   1.438   7.843   7.464  0.1931 -0.0494 -0.0801
  824MOL0     C13624   1.302   7.864   7.440 -0.3656 -0.8140  1.1637
  824MOL0     N13625   1.005   8.078   6.944  0.6791  0.5696  0.0709
  824MOL0     N13626   0.953   8.096   6.826  0.3497 -0.9313  0.9150
  824MOL0     C13627   0.891   8.022   5.567  0.3078  0.7978 -0.3509
  824MOL0     C13628   0.937   8.000   5.438  0.1391 -1.2441 -0.0335
  824MOL0     C13629   0.977   7.786   5.037  0.6481 -0.0428  0.6446
  824MOL0     C13630   0.861   7.817   4.959  0.3786 -1.6228  0.2966
  824MOL0     C13631   0.871   7.832   4.817  0.3961  0.9485  0.5319
  824MOL0     C13632   0.996   7.814   4.747 -0.2437  0.1006 -0.5718
  824MOL0     O13633   1.004   7.830   4.610  0.3188 -0.6696 -0.8343
  824MOL0     C13634   0.932   7.738   4.526  0.5762 -0.6194  0.5676
  824MOL0     C13635   0.980   7.597   4.539  0.4820 -0.4122 -0.2796
  824MOL0     C13636   1.120   7.585   4.473  0.4479  0.2069 -0.1077
  824MOL0     C13637   1.166   7.433   4.470 -0.4855 -0.6103 -1.0971
  824MOL0     C13638   1.072   7.349   4.396 -0.4418  1.0335 -0.1186
  824MOL0     C13639   1.000   7.270   4.334 -0.1503 -1.1367 -0.1913
  824MOL0     C13640   1.115   7.777   4.824  0.6923 -0.4564  0.3682
  824MOL0     C13641   1.100   7.768   4.968 -0.2363  0.8375  0.4204
  824MOL0     C13642   1.213   7.738   5.051 -0.0087 -0.3211  0.0650
  824MOL0     H13643   1.022   7.676   5.447 -1.4486  0.6061 -1.4902
  824MOL0     H13644   0.916   7.717   5.686 -2.5133  0.4138 -0.2162
  824MOL0     H13645   0.731   7.745   5.795 -3.5769 -0.5144  2.6522
  824MOL0     H13646   0.636   7.875   5.722  0.7135  0.1576 -1.1605
  824MOL0     H13647   0.652   7.987   5.967 -0.3930 -1.2517  1.4557
  824MOL0     H13648   0.554   7.834   5.953  0.5123 -3.9718 -2.8760
  824MOL0     H13649   0.722   7.703   6.031 -0.2934  0.4799  1.0802
  824MOL0     H13650   0.852   7.818   6.021 -0.6101 -1.8947  0.6026
  824MOL0     H13651   0.625   7.926   6.196  0.9056 -0.0503  2.2851
  824MOL0     H13652   0.657   7.774   6.238 -0.8841  1.0160  2.7392
  824MOL0     H13653   0.844   8.012   6.270 -0.2725  0.3959  5.7828
  824MOL0     H13654   0.908   7.848   6.267 -0.5852 -1.4714  0.1030
  824MOL0     H13655   0.677   7.971   6.446  2.1286  1.2550 -0.5113
  824MOL0     H13656   0.720   7.812   6.458 -2.3244  1.4856  1.5684
  824MOL0     H13657   0.910   8.041   6.486  2.7472 -0.1787  2.3315
  824MOL0     H13658   0.948   7.868   6.521 -1.5204 -1.3295 -2.0629
  824MOL0     H13659   0.742   8.047   6.659 -4.5801 -3.1116 -0.4240
  824MOL0     H13660   0.743   7.877   6.686  0.2215  0.4380  1.4350
  824MOL0     H13661   0.952   7.774   6.838 -1.1398 -0.7166  3.1693
  824MOL0     H13662   1.151   7.924   7.138  1.8868  0.4386 -2.1338
  824MOL0     H13663   1.119   7.772   7.041  1.0503  0.1291  1.1097
  824MOL0     H13664   0.881   7.895   7.171 -1.2965 -1.1873  3.0211
  824MOL0     H13665   0.902   7.732   7.114 -3.5228  0.8828  1.9250
  824MOL0     H13666   0.940   7.668   7.323 -0.0270 -1.0876 -2.7251
  824MOL0     H13667   1.098   7.711   7.285 -0.3923 -1.4777 -3.1709
  824MOL0     H13668   1.058   7.961   7.354 -0.0384 -0.9337 -1.2386
  824MOL0     H13669   0.897   7.912   7.420 -0.3548  0.4259  0.9014
  824MOL0     H13670   1.158   7.671   7.674  1.2971 -0.0623  0.9675
  824MOL0     H13671   1.494   7.540   7.760 -0.9621 -0.7285  0.6739
  824MOL0     H13672   1.338   7.492   7.723 -0.2947 -0.4120 -0.4830
  824MOL0     H13673   1.361   7.623   7.845  1.1057  3.0135 -0.7604
  824MOL0     H13674   1.730   8.078   7.570 -0.4505 -0.9218  2.2962
  824MOL0     H13675   1.908   8.168   7.697 -0.7633 -0.6149 -0.4579
  824MOL0     H13676   2.117   8.251   7.703 -1.7342  0.6457  1.3402
  824MOL0     H13677   2.064   8.207   7.864 -1.3746  0.4392 -1.5941
  824MOL0     H13678   2.295   8.215   7.939 -1.8282 -1.7702  0.5245
  824MOL0     H13679   2.347   8.204   7.769  0.2220 -0.2211 -0.1564
  824MOL0     H13680   2.273   8.420   7.730 -1.4207  3.5213  0.7834
  824MOL0     H13681   2.381   8.430   7.864  0.5544 -1.5652  0.4362
  824MOL0     H13682   2.225   8.445   8.030 -0.9344 -1.4557  0.1723
  824MOL0     H13683   2.089   8.431   7.917  1.1767 -0.5408 -2.4284
  824MOL0     H13684   2.301   8.650   7.924  0.0758 -0.4012  0.4516
  824MOL0     H13685   2.150   8.664   7.825 -3.8243  0.9457  1.8601
  824MOL0     H13686   2.167   8.643   8.127 -0.5866 -3.4504 -1.3711
  824MOL0     H13687   2.021   8.668   8.034  0.4863 -2.2512  2.9424
  824MOL0     H13688   2.093   8.894   7.966 -1.8745  0.8151  1.6955
  824MOL0     H13689   2.254   8.869   8.049  0.3678 -2.1346 -0.3450
  824MOL0     H13690   2.131   8.835   8.257 -0.9122 -0.9709 -1.0864
  824MOL0     H13691   1.978   8.841   8.163 -0.0345 -0.8296 -0.7500
  824MOL0     H13692   2.140   7.831   7.642 -0.8436 -1.5625  0.0160
  824MOL0     H13693   1.924   7.691   7.586  0.4163  0.2063  0.0425
  824MOL0     H13694   1.516   7.886   7.402  1.1495 -0.2812  0.9422
  824MOL0     H13695   1.266   7.893   7.342  0.3597 -2.8352  0.2294
  824MOL0     H13696   0.861   8.123   5.592 -1.4730  0.3804 -0.6753
  824MOL0     H13697   0.949   8.074   5.360 -3.6671 -3.0908 -2.7167
  824MOL0     H13698   0.761   7.817   5.003 -0.1502 -2.5716 -0.8219
  824MOL0     H13699   0.778   7.850   4.763  2.8686  1.6774 -4.0105
  824MOL0     H13700   0.824   7.754   4.534  1.0062  2.8086  1.0011
  824MOL0     H13701   0.951   7.772   4.424  0.4802 -2.1285  0.0262
  824MOL0     H13702   0.906   7.544   4.480 -1.8167  3.6740 -1.4670
  824MOL0     H13703   0.986   7.576   4.647  1.8779  0.6411 -0.1113
  824MOL0     H13704   1.107   7.621   4.371 -2.3046 -2.0868 -0.6711
  824MOL0     H13705   1.185   7.657   4.524  1.3244 -1.5798  1.4268
  824MOL0     H13706   1.174   7.406   4.576 -0.7683  1.5115 -0.4831
  824MOL0     H13707   1.263   7.426   4.421  0.0477 -4.1091  0.1604
  824MOL0     H13708   0.937   7.205   4.277 -0.5795  1.2477 -2.6512
  824MOL0     H13709   1.210   7.785   4.774 -1.2465  1.3931 -3.4753
  824MOL0     H13710   1.197   7.707   5.155 -0.8378  0.6591  0.2439
  824MOL0     H13711   1.282   7.681   4.988 -0.6284  1.4862 -2.3675
  824MOL0     H13712   1.267   7.832   5.067 -1.2588  0.4075  0.1137
  825MOL0     O13713   4.837   6.766   1.399  0.4053 -0.2642  0.4401
  825MOL0     C13714   4.793   6.683   1.477  0.2355  0.9638  0.7611
  825MOL0     O13715   4.704   6.585   1.445  0.1716 -0.8400  0.1777
  825MOL0     C13716   4.645   6.585   1.322 -0.1199 -0.0793  0.3784
  825MOL0     C13717   4.601   6.705   1.259  0.2448  0.0714  0.4182
  825MOL0     C13718   4.537   6.700   1.131  0.2017  0.2234 -0.5844
  825MOL0     C13719   4.525   6.577   1.063 -0.4004 -0.1860 -0.4570
  825MOL0     O13720   4.458   6.556   0.946 -0.0870 -0.1753  0.4719
  825MOL0     C13721   4.410   6.671   0.874  0.4800 -0.1330  0.6315
  825MOL0     C13722   4.366   6.638   0.735  0.9238 -0.5088  0.0540
  825MOL0     C13723   4.277   6.515   0.724 -0.0781  0.0931 -0.3464
  825MOL0     C13724   4.138   6.546   0.658 -0.3759  0.0814 -0.4601
  825MOL0     C13725   4.047   6.422   0.637  0.4812  0.2036 -0.2983
  825MOL0     C13726   4.108   6.344   0.521  0.2172 -0.0394  0.2499
  825MOL0     C13727   4.048   6.204   0.517  0.1970  0.0955  0.8388
  825MOL0     C13728   3.901   6.206   0.464  0.2098  0.3633 -0.3083
  825MOL0     N13729   3.801   6.249   0.561 -0.6701 -0.1737 -0.3381
  825MOL0     C13730   3.775   6.214   0.698  0.6165  0.0363  1.1798
  825MOL0     C13731   3.668   6.296   0.737  0.4335  0.2368  0.9092
  825MOL0     C13732   3.596   6.305   0.868 -0.8880  0.1338  0.3952
  825MOL0     C13733   3.643   6.198   0.968 -1.1825 -0.1720  0.0999
  825MOL0     C13734   3.786   6.218   1.030  0.6193 -0.3015  0.9340
  825MOL0     C13735   3.801   6.114   1.139 -0.4511  0.4860 -0.7901
  825MOL0     O13736   3.804   5.976   1.093  0.2330  0.8688  0.2925
  825MOL0     C13737   3.891   5.948   0.990 -1.1140 -0.2555 -0.5178
  825MOL0     C13738   4.035   5.976   0.987 -0.2623 -0.2556  0.6147
  825MOL0     C13739   4.114   5.965   0.879 -1.1659 -0.1156 -0.0247
  825MOL0     C13740   4.245   6.042   0.879  0.3730  0.7252  0.4340
  825MOL0     C13741   4.066   5.890   0.769 -0.2618 -0.4512  0.3076
  825MOL0     C13742   4.136   5.871   0.638  0.6967 -0.1312  0.0519
  825MOL0     O13743   4.063   5.843   0.531  0.5566 -0.6224  0.1247
  825MOL0     C13744   4.106   5.777   0.419 -0.2863  0.4425  0.5794
  825MOL0     C13745   4.197   5.669   0.418 -0.8427  0.4015 -1.3170
  825MOL0     C13746   4.240   5.594   0.307 -0.7763  1.0794  0.0192
  825MOL0     C13747   4.191   5.637   0.188 -0.2981  0.1103  0.0660
  825MOL0     O13748   4.226   5.574   0.068  0.0290 -0.3197  0.6452
  825MOL0     C13749   4.361   5.565   0.034 -0.2434 -0.5016 -0.2274
  825MOL0     C13750   4.421   5.704  -0.010 -0.0894  0.3591 -0.5390
  825MOL0     C13751   4.350   5.768  -0.128 -0.9892 -0.0961  0.6049
  825MOL0     C13752   4.412   5.903  -0.159  0.3046 -0.4402 -0.2230
  825MOL0     C13753   4.328   5.982  -0.270  0.0982 -0.6228  0.6277
  825MOL0     C13754   4.320   5.925  -0.413  0.0378  0.1395  0.0194
  825MOL0     C13755   4.463   5.900  -0.476 -0.9379 -0.0540 -0.3509
  825MOL0     C13756   4.450   5.867  -0.626 -1.0119  0.0363 -0.6753
  825MOL0    Cl13757   4.407   6.007  -0.732 -0.2888  0.1211  0.0080
  825MOL0     C13758   4.097   5.739   0.182 -1.2038 -0.2697  0.6506
  825MOL0     C13759   4.059   5.803   0.295 -0.4388 -0.1156  0.4384
  825MOL0     O13760   4.259   5.865   0.633 -0.2306 -0.1121  0.5781
  825MOL0     C13761   3.929   5.858   0.765 -0.2748 -0.0304  0.5486
  825MOL0     C13762   3.845   5.891   0.868 -0.5475 -0.4911 -0.1022
  825MOL0     N13763   3.634   6.379   0.628  0.2412  0.5263  0.5573
  825MOL0     N13764   3.713   6.345   0.531  0.6762  0.3806  0.1769
  825MOL0     C13765   4.573   6.463   1.129  1.6820 -0.0607  0.9933
  825MOL0     C13766   4.627   6.466   1.251  0.0961  0.4410  0.6314
  825MOL0     C13767   4.813   6.676   1.618  0.1840  0.5287  0.1465
  825MOL0     C13768   4.774   6.556   1.686  0.3959  0.5112 -0.1925
  825MOL0     C13769   4.785   6.554   1.820 -0.0897  0.6872 -0.2879
  825MOL0     C13770   4.826   6.652   1.910  0.3801 -0.0756  0.1533
  825MOL0     O13771   4.839   6.648   2.046 -0.5120  0.2711 -0.5288
  825MOL0     C13772   4.857   6.533   2.125 -0.0294  0.3633  0.2793
  825MOL0     C13773   4.763   6.531   2.251  0.5383 -0.7372  0.0557
  825MOL0     C13774   4.817   6.641   2.346  0.5747  0.3164 -0.7300
  825MOL0     C13775   4.733   6.646   2.471  0.9771 -0.6068 -0.3647
  825MOL0     C13776   4.773   6.547   2.576 -0.1828 -0.0331 -0.2385
  825MOL0     C13777   4.826   6.459   2.640  0.3001  0.6988  0.1060
  825MOL0     C13778   4.853   6.776   1.839 -0.4965 -0.5434  0.0601
  825MOL0     C13779   4.854   6.789   1.696 -0.1923 -0.7446  0.4209
  825MOL0     C13780   4.867   6.933   1.648  0.0028  0.8701  0.2683
  825MOL0     H13781   4.595   6.801   1.309 -1.3070 -0.7577  1.9304
  825MOL0     H13782   4.496   6.795   1.101  0.1690  1.4771  2.9076
  825MOL0     H13783   4.489   6.746   0.868  2.1293 -1.7801  0.9869
  825MOL0     H13784   4.325   6.718   0.925 -2.1309 -0.2987 -3.1566
  825MOL0     H13785   4.322   6.731   0.700  0.6661 -0.8632 -0.5750
  825MOL0     H13786   4.451   6.622   0.668  0.3528  2.2209 -1.4748
  825MOL0     H13787   4.328   6.429   0.681 -1.2539 -1.4929  1.2718
  825MOL0     H13788   4.252   6.475   0.823  0.4372  0.7023  0.0393
  825MOL0     H13789   4.093   6.631   0.712 -0.4010  1.2460 -2.2409
  825MOL0     H13790   4.160   6.585   0.558 -1.1619 -2.1200 -1.5494
  825MOL0     H13791   3.942   6.432   0.609 -0.0209  1.8187  1.8479
  825MOL0     H13792   4.037   6.361   0.728 -1.2334  0.0475 -0.5663
  825MOL0     H13793   4.089   6.398   0.428  2.1699  2.5761  1.2772
  825MOL0     H13794   4.217   6.334   0.519  0.1748 -0.7524  0.7583
  825MOL0     H13795   4.034   6.146   0.609 -5.3985 -0.1349  0.1930
  825MOL0     H13796   4.099   6.144   0.441  2.2875  1.1929  1.3135
  825MOL0     H13797   3.894   6.277   0.382  1.8209  1.2287  0.2584
  825MOL0     H13798   3.868   6.105   0.439  3.8998 -1.0843  0.0779
  825MOL0     H13799   3.829   6.135   0.750  0.4325 -1.3590 -0.6336
  825MOL0     H13800   3.489   6.289   0.849 -1.3861  1.7401  1.6946
  825MOL0     H13801   3.625   6.395   0.921 -0.4233  0.6495 -0.7009
  825MOL0     H13802   3.574   6.188   1.052 -3.0622  1.5568 -1.1301
  825MOL0     H13803   3.636   6.099   0.920 -1.0047 -0.1289 -0.0142
  825MOL0     H13804   3.864   6.208   0.955  1.1997  1.6715  1.2180
  825MOL0     H13805   3.793   6.320   1.069  1.5561  1.2660 -2.8849
  825MOL0     H13806   3.894   6.136   1.192  0.5365  1.9797 -2.9879
  825MOL0     H13807   3.723   6.123   1.215 -0.5854 -4.7975  0.0832
  825MOL0     H13808   4.064   6.019   1.082  0.4536 -2.8957  1.7066
  825MOL0     H13809   4.260   6.077   0.776 -1.5860 -0.6074 -0.3734
  825MOL0     H13810   4.326   5.971   0.895  1.1785  1.5973  0.2748
  825MOL0     H13811   4.244   6.113   0.962  1.3076 -0.9449  1.9182
  825MOL0     H13812   4.244   5.639   0.511  2.9000  0.1918 -3.1329
  825MOL0     H13813   4.317   5.518   0.308  1.1293  2.8674 -1.4081
  825MOL0     H13814   4.419   5.520   0.115 -3.1641  0.0844  2.3692
  825MOL0     H13815   4.374   5.509  -0.059  1.4652 -1.1030  0.3285
  825MOL0     H13816   4.413   5.777   0.071 -0.4973  0.4441 -0.6569
  825MOL0     H13817   4.528   5.690  -0.030  1.1588  2.7438  3.4129
  825MOL0     H13818   4.244   5.787  -0.110 -1.1906 -0.6987  0.1027
  825MOL0     H13819   4.365   5.695  -0.208 -6.3159  1.4459 -2.2777
  825MOL0     H13820   4.514   5.895  -0.198  0.0690 -0.3580 -0.8641
  825MOL0     H13821   4.414   5.973  -0.076 -1.5989  0.4047 -0.8375
  825MOL0     H13822   4.223   5.990  -0.240  0.3115  0.6640  1.1129
  825MOL0     H13823   4.364   6.085  -0.274  1.3929 -0.9945  1.9903
  825MOL0     H13824   4.261   5.997  -0.471 -1.3506  0.2086  1.4481
  825MOL0     H13825   4.262   5.832  -0.414  0.2166  0.0072  1.0989
  825MOL0     H13826   4.523   5.818  -0.436 -0.7746 -1.1973 -2.7939
  825MOL0     H13827   4.520   5.994  -0.478  0.4412 -0.8680 -0.9294
  825MOL0     H13828   4.386   5.782  -0.653  0.9760 -1.8508  0.1968
  825MOL0     H13829   4.550   5.840  -0.662 -0.7986  1.7764 -1.4927
  825MOL0     H13830   4.052   5.771   0.089 -1.2181  2.1430  1.4060
  825MOL0     H13831   3.987   5.881   0.277  1.0684  0.9681 -1.3350
  825MOL0     H13832   3.886   5.811   0.677  1.2841 -1.3095  0.4305
  825MOL0     H13833   3.741   5.864   0.873 -1.1163  1.3547 -0.9973
  825MOL0     H13834   4.577   6.361   1.093 -0.7353 -0.7254  2.3924
  825MOL0     H13835   4.670   6.379   1.298  1.5228 -2.1277 -4.6595
  825MOL0     H13836   4.751   6.464   1.634  2.6574  1.4279 -3.0612
  825MOL0     H13837   4.769   6.455   1.862  0.5665  0.4822 -0.4973
  825MOL0     H13838   4.836   6.444   2.066  1.6774  0.8210 -1.1159
  825MOL0     H13839   4.963   6.514   2.148 -0.2900 -2.4658 -0.4429
  825MOL0     H13840   4.764   6.434   2.302 -0.5324 -0.2915  0.9603
  825MOL0     H13841   4.658   6.554   2.232  0.3810  1.8174  3.1191
  825MOL0     H13842   4.921   6.611   2.353  1.2387  2.3183 -1.2082
  825MOL0     H13843   4.813   6.740   2.299 -0.5586  0.2200 -0.8728
  825MOL0     H13844   4.631   6.610   2.452  0.0927  1.5623  0.0294
  825MOL0     H13845   4.729   6.747   2.513  0.1115 -1.1866  0.9892
  825MOL0     H13846   4.867   6.372   2.688 -0.1404  0.7269  0.5283
  825MOL0     H13847   4.902   6.861   1.885  0.4813 -0.7010 -0.6504
  825MOL0     H13848   4.800   6.949   1.563  2.3741  2.0304 -1.4711
  825MOL0     H13849   4.839   7.007   1.724  1.7429  1.3166  0.5147
  825MOL0     H13850   4.964   6.966   1.610  0.4201 -1.4257 -0.8166
  826MOL0     O13851   6.977   0.927   9.421 -0.4018 -0.3047  0.4557
  826MOL0     C13852   6.967   1.046   9.463 -0.9173 -0.2344  0.4485
  826MOL0     O13853   6.999   1.157   9.393 -0.3716 -0.1284 -0.2417
  826MOL0     C13854   7.049   1.160   9.269 -1.0439  0.2501 -0.5840
  826MOL0     C13855   7.045   1.060   9.173  0.0698 -0.0774  0.3104
  826MOL0     C13856   7.081   1.091   9.043  0.3640  0.4631  0.6634
  826MOL0     C13857   7.132   1.209   9.002 -0.4454  0.5026  0.3793
  826MOL0     O13858   7.173   1.247   8.877 -0.5833 -0.4536  0.0664
  826MOL0     C13859   7.103   1.211   8.763  0.1104  0.2546  0.6581
  826MOL0     C13860   7.160   1.314   8.656 -0.2322  0.0582  0.3211
  826MOL0     C13861   7.160   1.460   8.694  0.1015 -0.5454  1.5322
  826MOL0     C13862   7.031   1.512   8.756 -0.4363 -0.3760 -0.2966
  826MOL0     C13863   7.047   1.660   8.806  0.5662  0.4945  0.1420
  826MOL0     C13864   7.086   1.762   8.701  0.8034 -0.2429 -0.5260
  826MOL0     C13865   7.052   1.911   8.742 -0.3244  0.1729  0.5657
  826MOL0     C13866   6.903   1.946   8.764 -0.1342  1.1215 -0.0076
  826MOL0     N13867   6.888   2.090   8.763 -0.2422 -0.3798 -0.0246
  826MOL0     C13868   6.813   2.164   8.680  0.0734  0.1282  0.8865
  826MOL0     C13869   6.847   2.291   8.705  0.4771 -0.1060  0.1989
  826MOL0     C13870   6.790   2.409   8.635 -0.0580 -0.6896  0.2836
  826MOL0     C13871   6.654   2.466   8.693 -0.0821  0.6007 -0.4451
  826MOL0     C13872   6.541   2.395   8.629  0.6239  0.0148  0.0256
  826MOL0     C13873   6.402   2.471   8.658 -1.6477 -0.6120 -0.2911
  826MOL0     O13874   6.365   2.440   8.796 -0.0158  0.6063 -0.3410
  826MOL0     C13875   6.355   2.538   8.885 -0.5835  0.2987 -0.1630
  826MOL0     C13876   6.263   2.495   8.979  0.3387  0.0424 -1.0676
  826MOL0     C13877   6.233   2.567   9.095 -0.7107 -0.3432  0.7168
  826MOL0     C13878   6.129   2.508   9.192 -0.2243  0.1020  0.3132
  826MOL0     C13879   6.307   2.696   9.113  0.5428  1.2985 -0.4593
  826MOL0     C13880   6.278   2.797   9.215  0.5067 -0.5359 -0.6021
  826MOL0     O13881   6.385   2.883   9.241 -0.5238  0.0221  0.1002
  826MOL0     C13882   6.388   2.960   9.348  0.4580 -0.8685 -0.1676
  826MOL0     C13883   6.331   2.938   9.474  0.4195  0.3640  0.3433
  826MOL0     C13884   6.333   3.032   9.573 -0.2386 -0.2554  0.0994
  826MOL0     C13885   6.394   3.157   9.556 -0.1477  0.2934  0.1603
  826MOL0     O13886   6.423   3.249   9.656  0.0379 -0.4277  0.1942
  826MOL0     C13887   6.324   3.275   9.767 -1.3934  0.2697 -0.2115
  826MOL0     C13888   6.354   3.405   9.847  0.4160  0.4822  0.4309
  826MOL0     C13889   6.343   3.527   9.760  0.4835  0.2045 -0.0962
  826MOL0     C13890   6.388   3.644   9.833  0.9192 -0.6400  0.5340
  826MOL0     C13891   6.292   3.761   9.814  0.1392 -1.2408  0.6704
  826MOL0     C13892   6.318   3.872   9.922  0.6736  0.4752 -0.3297
  826MOL0     C13893   6.261   4.005   9.880 -0.5057  0.2891  0.7307
  826MOL0     C13894   6.353   4.070   9.779  1.2970  0.7390  0.0677
  826MOL0    Cl13895   6.511   4.100   9.857  0.5930  0.0299  0.0894
  826MOL0     C13896   6.466   3.175   9.434 -0.3256 -0.1388 -0.2577
  826MOL0     C13897   6.452   3.082   9.331  0.3872 -0.6315 -0.6714
  826MOL0     O13898   6.169   2.793   9.279 -0.3693  0.0641  0.0125
  826MOL0     C13899   6.404   2.731   9.011 -0.5248  0.8179 -0.8771
  826MOL0     C13900   6.433   2.651   8.902 -0.9987  0.2700 -0.2625
  826MOL0     N13901   6.946   2.288   8.803 -0.4591 -0.5497  0.0871
  826MOL0     N13902   6.966   2.169   8.837 -0.2525  0.0065 -0.6113
  826MOL0     C13903   7.148   1.307   9.099 -0.0044  0.9034 -0.2493
  826MOL0     C13904   7.108   1.283   9.227  0.4402  0.7906  0.5335
  826MOL0     C13905   6.914   1.054   9.607 -0.5815  0.0237  0.5349
  826MOL0     C13906   6.835   0.946   9.652  0.2555  0.0397 -0.7421
  826MOL0     C13907   6.772   0.942   9.772  0.6246 -1.2205 -0.4668
  826MOL0     C13908   6.787   1.052   9.855 -0.6793 -0.3464 -0.9000
  826MOL0     O13909   6.721   1.053   9.978  1.0392  0.4694  0.6182
  826MOL0     C13910   6.731   1.160  10.072  0.4908 -0.0715  1.7000
  826MOL0     C13911   6.643   1.131  10.192 -0.0224  0.4851  0.1893
  826MOL0     C13912   6.629   1.263  10.275 -0.5895  1.0678 -0.2736
  826MOL0     C13913   6.546   1.268  10.400 -0.5202  0.2278 -0.2468
  826MOL0     C13914   6.433   1.181  10.393  0.3725 -0.6440  1.5143
  826MOL0     C13915   6.352   1.093  10.378 -0.3987 -0.7158 -0.3525
  826MOL0     C13916   6.872   1.156   9.818  0.0786  0.5666  0.3241
  826MOL0     C13917   6.941   1.161   9.697 -0.3022 -0.9085  0.8238
  826MOL0     C13918   7.046   1.264   9.673 -0.4766 -0.3138  0.4567
  826MOL0     H13919   7.013   0.957   9.181 -2.6294  0.3309 -3.0046
  826MOL0     H13920   7.082   1.013   8.968  1.0835  1.5861 -0.5196
  826MOL0     H13921   6.996   1.221   8.777  0.2608  0.3638  1.7557
  826MOL0     H13922   7.127   1.108   8.734  0.5952 -0.0740  2.1480
  826MOL0     H13923   7.264   1.283   8.644  0.0758  0.3876  1.9344
  826MOL0     H13924   7.112   1.316   8.558 -0.1498 -1.8623  0.2070
  826MOL0     H13925   7.245   1.482   8.760  0.9622 -0.1932  0.3428
  826MOL0     H13926   7.178   1.516   8.602 -1.2047  3.0209  3.2595
  826MOL0     H13927   6.959   1.505   8.673  1.0097  0.2627 -1.6492
  826MOL0     H13928   7.005   1.451   8.843 -2.4610  1.9449  0.8501
  826MOL0     H13929   7.124   1.667   8.883 -1.9898  0.9904  2.8133
  826MOL0     H13930   6.954   1.677   8.861 -1.0130 -4.5256 -0.4883
  826MOL0     H13931   7.191   1.748   8.676  1.4897  0.8156  1.6199
  826MOL0     H13932   7.035   1.737   8.607  1.0106 -0.8646 -0.4811
  826MOL0     H13933   7.081   1.971   8.655 -0.1630  0.3444  0.7376
  826MOL0     H13934   7.121   1.935   8.823  0.5924 -2.8907  0.8307
  826MOL0     H13935   6.839   1.893   8.694 -0.1683 -1.6442  1.9592
  826MOL0     H13936   6.869   1.912   8.863 -0.2753  0.0535 -0.4156
  826MOL0     H13937   6.749   2.117   8.606 -1.5350  1.3715  1.4352
  826MOL0     H13938   6.781   2.372   8.532 -0.5190  1.9339 -0.7052
  826MOL0     H13939   6.868   2.486   8.635  0.1009 -0.7352  3.0698
  826MOL0     H13940   6.650   2.443   8.800  4.8253 -1.1324 -0.3734
  826MOL0     H13941   6.652   2.574   8.673 -0.2366  0.6168 -0.3442
  826MOL0     H13942   6.558   2.378   8.523  2.1704 -0.5105  0.3379
  826MOL0     H13943   6.539   2.291   8.664 -2.1386 -0.6580 -1.7930
  826MOL0     H13944   6.430   2.577   8.662 -0.8086 -0.8306  2.9770
  826MOL0     H13945   6.329   2.457   8.578 -0.3074  0.4330 -1.7715
  826MOL0     H13946   6.209   2.401   8.971 -1.7509  1.2571 -1.7219
  826MOL0     H13947   6.058   2.441   9.142  0.4478 -0.2717 -0.1582
  826MOL0     H13948   6.069   2.587   9.238 -2.4733 -2.8460  2.9871
  826MOL0     H13949   6.169   2.462   9.284 -3.7430 -1.3631  1.2973
  826MOL0     H13950   6.271   2.849   9.496  0.0119  0.7793  0.9539
  826MOL0     H13951   6.275   3.022   9.665 -2.9654  1.8959 -1.2269
  826MOL0     H13952   6.221   3.283   9.733 -1.8639  1.4362  1.3831
  826MOL0     H13953   6.312   3.194   9.839 -1.0550  1.1613  0.8716
  826MOL0     H13954   6.291   3.413   9.936  3.6116  2.3465  2.7313
  826MOL0     H13955   6.453   3.395   9.892  0.3929  0.1528  0.4117
  826MOL0     H13956   6.239   3.532   9.726 -0.2655 -0.8560  1.8657
  826MOL0     H13957   6.404   3.515   9.670  1.4725 -0.0996  0.6074
  826MOL0     H13958   6.485   3.683   9.799  0.1968 -0.0971 -1.0015
  826MOL0     H13959   6.389   3.631   9.942 -1.9338  0.0060  0.7120
  826MOL0     H13960   6.315   3.799   9.715 -3.3713 -0.0530  0.1661
  826MOL0     H13961   6.184   3.742   9.810  0.1572 -1.0969 -2.3523
  826MOL0     H13962   6.426   3.876   9.939  1.1302  1.0309 -2.9533
  826MOL0     H13963   6.277   3.846  10.020  2.6749  0.8555  0.6502
  826MOL0     H13964   6.254   4.065   9.971  1.4241  0.9747  0.4757
  826MOL0     H13965   6.158   3.986   9.849  0.1560 -1.6765 -0.4108
  826MOL0     H13966   6.311   4.163   9.739  3.4337  1.1090 -1.5284
  826MOL0     H13967   6.373   4.012   9.689 -0.7171  1.0264 -0.6157
  826MOL0     H13968   6.520   3.267   9.419 -3.4511  1.4818 -2.8680
  826MOL0     H13969   6.505   3.100   9.238  1.6395  0.5473  0.2283
  826MOL0     H13970   6.455   2.827   9.011  4.2107 -1.3493  1.8243
  826MOL0     H13971   6.497   2.684   8.822 -0.7585  0.0147 -0.1778
  826MOL0     H13972   7.200   1.398   9.072  2.1893 -0.6062 -1.3782
  826MOL0     H13973   7.127   1.358   9.304 -1.0615  2.4227 -0.6028
  826MOL0     H13974   6.819   0.864   9.582 -1.1790  0.5162 -0.9869
  826MOL0     H13975   6.711   0.855   9.795  0.0562 -0.7005  0.0087
  826MOL0     H13976   6.836   1.172  10.100  1.7953 -0.0849 -2.4886
  826MOL0     H13977   6.693   1.253  10.028  0.7878  0.4346  2.4959
  826MOL0     H13978   6.688   1.057  10.259 -1.1332  1.6283  2.3035
  826MOL0     H13979   6.539   1.107  10.167  0.0779  1.4428 -1.2431
  826MOL0     H13980   6.733   1.286  10.298 -1.0404  0.3211  3.0681
  826MOL0     H13981   6.597   1.343  10.209 -1.3581 -0.6900 -2.1532
  826MOL0     H13982   6.492   1.362  10.413 -0.9162 -0.0469  0.1352
  826MOL0     H13983   6.602   1.248  10.492  0.4302  2.4411 -0.2920
  826MOL0     H13984   6.287   1.009  10.384  2.9340 -3.5451 -0.5595
  826MOL0     H13985   6.884   1.233   9.894  1.6511 -3.2078  4.2806
  826MOL0     H13986   7.142   1.227   9.634 -0.1332 -1.3027  2.1386
  826MOL0     H13987   7.022   1.326   9.586  2.4323 -1.9798 -1.7422
  826MOL0     H13988   7.067   1.318   9.765  2.9433 -0.8934  0.1668
  827MOL0     O13989   4.675   4.903   1.408 -0.0611  0.8205  0.0099
  827MOL0     C13990   4.765   4.907   1.323  0.6048 -0.6492 -0.4133
  827MOL0     O13991   4.868   4.998   1.335  0.4408 -0.2869  0.3563
  827MOL0     C13992   4.896   5.058   1.454  0.4945 -0.0294 -0.3303
  827MOL0     C13993   4.887   4.999   1.583 -0.0678 -0.1771 -0.4478
  827MOL0     C13994   4.934   5.063   1.701 -0.2850  0.9505  0.2422
  827MOL0     C13995   4.995   5.175   1.684  0.7850 -0.3240 -0.2934
  827MOL0     O13996   5.036   5.229   1.804  0.0224  0.0568 -0.3337
  827MOL0     C13997   5.038   5.367   1.828  0.3235  0.0852  0.0866
  827MOL0     C13998   5.177   5.399   1.880 -0.2225 -0.0981 -0.0400
  827MOL0     C13999   5.280   5.366   1.767  0.2073 -0.2725  0.1583
  827MOL0     C14000   5.421   5.377   1.820 -0.1373  0.0848  0.7458
  827MOL0     C14001   5.516   5.316   1.716 -0.0558 -0.4975  0.3686
  827MOL0     C14002   5.645   5.258   1.779  0.2607  0.4890  0.5954
  827MOL0     C14003   5.744   5.361   1.830 -0.5151  0.9500  0.3708
  827MOL0     C14004   5.785   5.457   1.721 -0.0848  0.0398 -0.3941
  827MOL0     N14005   5.878   5.558   1.762  0.0760  0.5845  0.5160
  827MOL0     C14006   5.951   5.556   1.877 -0.5211 -0.8505 -0.1801
  827MOL0     C14007   6.032   5.668   1.870 -0.2841 -1.2891 -0.0660
  827MOL0     C14008   6.127   5.713   1.984  0.1696 -0.4017  0.3268
  827MOL0     C14009   6.271   5.714   1.934 -0.3589  0.2928 -0.2166
  827MOL0     C14010   6.369   5.747   2.051 -0.1903 -0.2682  0.7025
  827MOL0     C14011   6.387   5.643   2.162  0.2067 -0.4208 -0.6889
  827MOL0     O14012   6.466   5.716   2.257  0.5731 -0.0302 -0.0989
  827MOL0     C14013   6.600   5.705   2.253  1.0772  0.8998  0.1428
  827MOL0     C14014   6.673   5.587   2.287 -0.5038  0.2761  0.3130
  827MOL0     C14015   6.813   5.592   2.286  0.1129  0.2922 -0.4476
  827MOL0     C14016   6.882   5.462   2.310  0.2511 -0.4269 -0.3704
  827MOL0     C14017   6.876   5.719   2.282  0.6611  0.1566  0.3508
  827MOL0     C14018   7.022   5.729   2.282 -0.6702  0.5959  0.3028
  827MOL0     O14019   7.073   5.774   2.164 -0.2896 -0.3375  0.1249
  827MOL0     C14020   7.205   5.757   2.142 -0.3820 -0.3292  0.1682
  827MOL0     C14021   7.288   5.843   2.195  0.6153  0.6949  0.5422
  827MOL0     C14022   7.424   5.836   2.175  0.4022 -1.1031  0.0274
  827MOL0     C14023   7.483   5.735   2.080 -0.7306 -0.4550 -0.7137
  827MOL0     O14024   7.616   5.719   2.052  0.1086 -0.0749 -0.6918
  827MOL0     C14025   7.709   5.753   2.169 -0.5666 -0.0401  0.0684
  827MOL0     C14026   7.802   5.874   2.146  0.3173 -0.0960  0.4535
  827MOL0     C14027   7.736   6.001   2.091  0.1452 -0.5555 -0.8550
  827MOL0     C14028   7.824   6.083   1.990  0.0290  0.9090  0.3258
  827MOL0     C14029   7.757   6.168   1.883  0.0798 -0.2768  0.0738
  827MOL0     C14030   7.870   6.217   1.783  0.2807 -1.0657 -1.3453
  827MOL0     C14031   7.805   6.248   1.647 -0.6686 -0.4821 -0.1473
  827MOL0     C14032   7.875   6.366   1.580 -0.2798 -0.0958  0.6815
  827MOL0    Cl14033   7.769   6.434   1.451 -0.1522 -0.3021  0.3263
  827MOL0     C14034   7.393   5.653   2.024 -0.3822  0.2595 -0.7222
  827MOL0     C14035   7.253   5.664   2.044 -1.1129 -1.0869  0.8522
  827MOL0     O14036   7.085   5.694   2.382  0.5540  0.4079  0.2324
  827MOL0     C14037   6.814   5.832   2.254 -0.0570  0.6285  0.1747
  827MOL0     C14038   6.671   5.826   2.251  0.4644  0.1118 -0.4576
  827MOL0     N14039   5.982   5.744   1.761 -0.2009 -0.3524  0.0266
  827MOL0     N14040   5.892   5.676   1.698  0.5534  0.7935 -0.2645
  827MOL0     C14041   5.018   5.234   1.559  0.2982 -0.4180 -0.1695
  827MOL0     C14042   4.964   5.184   1.445  0.7785 -0.1915 -0.0113
  827MOL0     C14043   4.759   4.839   1.195 -0.3180 -0.6501 -1.0434
  827MOL0     C14044   4.874   4.848   1.110  0.9423  0.5964 -0.3080
  827MOL0     C14045   4.861   4.794   0.983 -0.6218 -0.0848  1.0221
  827MOL0     C14046   4.752   4.726   0.942  0.1559  0.1820  0.4819
  827MOL0     O14047   4.755   4.673   0.816  0.0363  0.2791  0.3167
  827MOL0     C14048   4.632   4.649   0.752  0.3887 -0.6767  0.4062
  827MOL0     C14049   4.657   4.610   0.603 -0.4070  0.0576  0.0795
  827MOL0     C14050   4.536   4.627   0.514 -0.6771  0.1533 -0.7609
  827MOL0     C14051   4.440   4.508   0.526 -0.2458  0.9486 -0.0525
  827MOL0     C14052   4.331   4.531   0.617  0.1495 -0.5230  0.9000
  827MOL0     C14053   4.248   4.555   0.700  0.2376 -1.3523  0.8797
  827MOL0     C14054   4.648   4.710   1.030 -0.6056 -0.2233 -0.5903
  827MOL0     C14055   4.641   4.781   1.156  0.1511  0.2120 -0.2687
  827MOL0     C14056   4.503   4.787   1.221 -0.0372  0.6498 -0.0695
  827MOL0     H14057   4.841   4.901   1.584 -0.7000  0.1121 -0.5417
  827MOL0     H14058   4.920   5.032   1.804  0.0533  2.8770  0.9190
  827MOL0     H14059   4.954   5.395   1.893  0.1628 -0.3449  0.0663
  827MOL0     H14060   5.011   5.423   1.737  1.0134 -1.7226 -1.2824
  827MOL0     H14061   5.183   5.506   1.902  0.4950 -0.2261  0.4008
  827MOL0     H14062   5.197   5.338   1.969 -0.2452  3.0035  2.2773
  827MOL0     H14063   5.267   5.263   1.732 -0.8083 -0.1944  0.2537
  827MOL0     H14064   5.265   5.427   1.677 -3.2364 -1.4090 -0.2104
  827MOL0     H14065   5.457   5.480   1.822  0.4171 -0.1139  2.5989
  827MOL0     H14066   5.432   5.325   1.916 -2.3901  1.2484  1.6987
  827MOL0     H14067   5.552   5.380   1.635  1.1232 -2.4866 -0.7541
  827MOL0     H14068   5.465   5.232   1.668 -1.4165  1.0334 -0.9675
  827MOL0     H14069   5.618   5.193   1.863 -3.7427 -0.2834 -1.0130
  827MOL0     H14070   5.686   5.190   1.704  3.4601  3.9243 -1.0892
  827MOL0     H14071   5.828   5.302   1.868 -1.0241 -0.4420 -0.6004
  827MOL0     H14072   5.693   5.416   1.910 -0.5798 -0.4622  1.3329
  827MOL0     H14073   5.841   5.403   1.644  2.7419 -0.0622  1.5504
  827MOL0     H14074   5.696   5.501   1.676 -1.3263 -2.9096 -1.0237
  827MOL0     H14075   5.958   5.476   1.951  1.7917 -0.9075 -0.3860
  827MOL0     H14076   6.120   5.640   2.065  1.3300 -1.2752 -0.3374
  827MOL0     H14077   6.094   5.812   2.018  1.2853  0.5911 -1.3632
  827MOL0     H14078   6.293   5.620   1.885  0.2395  1.0552 -1.4442
  827MOL0     H14079   6.293   5.796   1.865  1.6110  0.3307  0.4117
  827MOL0     H14080   6.467   5.770   2.008 -2.0062  1.8715 -2.7895
  827MOL0     H14081   6.346   5.834   2.112 -0.0665  0.0013  0.3689
  827MOL0     H14082   6.286   5.618   2.195  0.3777 -0.5471 -0.2536
  827MOL0     H14083   6.434   5.553   2.122  0.1610 -0.5779 -0.3910
  827MOL0     H14084   6.618   5.494   2.301 -0.0725 -0.0790 -0.2853
  827MOL0     H14085   6.966   5.465   2.241  1.3472  1.0787  0.9563
  827MOL0     H14086   6.819   5.381   2.272 -0.8192  0.4448 -0.5033
  827MOL0     H14087   6.907   5.447   2.416 -2.9713  0.4685  0.6377
  827MOL0     H14088   7.245   5.922   2.256 -1.1226 -0.2559  0.6163
  827MOL0     H14089   7.479   5.916   2.224  0.2550 -0.6320 -0.5549
  827MOL0     H14090   7.644   5.777   2.254 -3.0526  3.6226 -2.5394
  827MOL0     H14091   7.763   5.659   2.179  1.5775  0.8589 -2.0354
  827MOL0     H14092   7.855   5.896   2.239 -1.5218 -2.2285  2.1358
  827MOL0     H14093   7.882   5.843   2.079  5.8080  3.1268  4.6174
  827MOL0     H14094   7.717   6.068   2.176  3.8458 -0.4554  0.0565
  827MOL0     H14095   7.640   5.974   2.047 -0.0061 -0.1484 -0.7834
  827MOL0     H14096   7.880   6.001   1.944 -0.6741 -1.1870  2.9160
  827MOL0     H14097   7.891   6.135   2.059  1.4595 -1.7829  1.1293
  827MOL0     H14098   7.683   6.114   1.824 -2.8196  3.1366  0.2428
  827MOL0     H14099   7.702   6.252   1.926  1.7139  0.6526  0.4524
  827MOL0     H14100   7.937   6.133   1.765  2.4315  0.4925 -1.0507
  827MOL0     H14101   7.925   6.303   1.823  0.1844 -0.1145 -3.1200
  827MOL0     H14102   7.704   6.282   1.672  0.1263  0.4005  2.1482
  827MOL0     H14103   7.801   6.161   1.581 -0.3193 -0.8541  0.3195
  827MOL0     H14104   7.965   6.336   1.526 -1.4661  1.1113 -2.2341
  827MOL0     H14105   7.902   6.451   1.642  1.1017  0.4929 -0.6659
  827MOL0     H14106   7.427   5.574   1.958  1.5021 -0.3890  0.9538
  827MOL0     H14107   7.180   5.599   1.997 -1.3476  0.3492 -0.8902
  827MOL0     H14108   6.853   5.934   2.250 -5.7066  3.2240  1.0106
  827MOL0     H14109   6.612   5.917   2.240 -0.6109 -0.5663 -0.4606
  827MOL0     H14110   5.090   5.315   1.552  0.4594 -0.6172 -1.0472
  827MOL0     H14111   4.984   5.217   1.344  1.3613  1.4975  0.6265
  827MOL0     H14112   4.963   4.900   1.146  0.8482  0.8548 -0.4457
  827MOL0     H14113   4.943   4.815   0.916  0.0533  1.1554  2.1847
  827MOL0     H14114   4.567   4.570   0.792 -0.0604 -0.6212 -0.1831
  827MOL0     H14115   4.571   4.740   0.758  0.1917 -0.7554 -0.2829
  827MOL0     H14116   4.701   4.510   0.606 -1.0817 -0.3240 -1.6377
  827MOL0     H14117   4.734   4.678   0.565  1.1376 -1.5533  0.1893
  827MOL0     H14118   4.484   4.722   0.529 -1.3622 -0.5700  2.0406
  827MOL0     H14119   4.562   4.620   0.408  0.5076  2.7442 -0.7183
  827MOL0     H14120   4.499   4.428   0.571  0.0949  2.0265  1.5201
  827MOL0     H14121   4.393   4.476   0.433  1.5702 -0.3742 -0.5652
  827MOL0     H14122   4.170   4.599   0.759  2.0093  1.7508  1.1346
  827MOL0     H14123   4.567   4.638   1.016 -0.0651 -0.5453 -2.2540
  827MOL0     H14124   4.508   4.743   1.321  1.0498  3.8656  1.4545
  827MOL0     H14125   4.459   4.887   1.229  1.6067  1.4024  0.1361
  827MOL0     H14126   4.445   4.724   1.154  3.8118 -2.0878 -1.1862
  828MOL0     O14127   0.915   9.779   0.648  0.0114 -1.0697 -0.5090
  828MOL0     C14128   0.925   9.792   0.771 -0.6002  0.3297  0.1815
  828MOL0     O14129   1.015   9.889   0.833  0.3524  0.2237  0.1893
  828MOL0     C14130   1.110   9.946   0.752  1.6612 -0.4006 -0.7469
  828MOL0     C14131   1.190   9.874   0.663 -1.2256 -0.4335  0.0989
  828MOL0     C14132   1.288   9.934   0.585  0.4009  0.5012  0.5585
  828MOL0     C14133   1.321  10.068   0.612 -0.0975  0.4734 -0.2189
  828MOL0     O14134   1.430  10.124   0.544  0.7439  0.5904  0.4401
  828MOL0     C14135   1.474  10.250   0.594  0.1060 -0.0944 -0.4725
  828MOL0     C14136   1.435  10.379   0.508  0.4074 -1.2097 -0.7905
  828MOL0     C14137   1.469  10.367   0.364  0.5998 -0.6759 -0.4307
  828MOL0     C14138   1.479  10.491   0.271  0.2319 -0.1672 -0.4020
  828MOL0     C14139   1.512  10.436   0.131  0.5429 -0.1648  0.3496
  828MOL0     C14140   1.528  10.540   0.017 -0.4192 -1.3916 -0.5364
  828MOL0     C14141   1.588  10.478  -0.115 -0.2387 -0.2527 -0.0766
  828MOL0     C14142   1.731  10.434  -0.106 -0.2824  0.1614  0.1926
  828MOL0     N14143   1.830  10.537  -0.094  0.1249  0.3060  0.5499
  828MOL0     C14144   1.929  10.578  -0.182  0.7084  1.2888 -0.3440
  828MOL0     C14145   2.001  10.666  -0.115 -0.7958  0.1400 -0.3226
  828MOL0     C14146   2.114  10.743  -0.192  0.1737  0.0395 -0.2459
  828MOL0     C14147   2.057  10.877  -0.249  1.0030  0.9089 -0.5766
  828MOL0     C14148   2.006  10.971  -0.139  1.4627 -0.2076  0.6245
  828MOL0     C14149   1.934  11.101  -0.190 -0.7958  0.2993 -1.0201
  828MOL0     O14150   2.011  11.196  -0.258 -0.4425  0.7990 -0.6060
  828MOL0     C14151   2.083  11.299  -0.199  0.2146  0.0962 -0.0729
  828MOL0     C14152   2.126  11.409  -0.271 -0.3035  0.4130  0.3909
  828MOL0     C14153   2.188  11.520  -0.202  0.0285 -0.2241  0.7398
  828MOL0     C14154   2.215  11.638  -0.297 -0.5095  0.2030 -0.1566
  828MOL0     C14155   2.198  11.525  -0.064 -0.4523  0.6483 -0.5876
  828MOL0     C14156   2.249  11.641   0.020  1.2809 -0.3514  0.3347
  828MOL0     O14157   2.244  11.635   0.158 -0.2954  0.6086  0.0136
  828MOL0     C14158   2.310  11.726   0.235  1.0403 -0.2846 -0.2147
  828MOL0     C14159   2.455  11.744   0.235 -0.5213  0.8928 -0.3688
  828MOL0     C14160   2.518  11.834   0.326 -0.5326 -0.2244  0.5050
  828MOL0     C14161   2.442  11.900   0.423  1.1542 -0.7705  0.8161
  828MOL0     O14162   2.500  11.993   0.501 -0.2042  0.0265  0.4207
  828MOL0     C14163   2.423  12.094   0.563 -0.3399 -0.0473  0.6950
  828MOL0     C14164   2.513  12.218   0.567 -0.6865  0.5533 -0.1734
  828MOL0     C14165   2.643  12.203   0.655 -0.1070  0.8536  0.1028
  828MOL0     C14166   2.737  12.322   0.637 -0.6996  0.4264 -0.5507
  828MOL0     C14167   2.842  12.329   0.750  1.1100 -0.3868 -0.0879
  828MOL0     C14168   2.920  12.457   0.749 -1.2209 -0.7373  0.3564
  828MOL0     C14169   3.047  12.455   0.833  1.1423 -0.0056 -0.1439
  828MOL0     C14170   3.141  12.578   0.794 -0.2555  0.6283  0.1381
  828MOL0    Cl14171   3.184  12.594   0.619  0.1141  0.0966 -0.4607
  828MOL0     C14172   2.299  11.881   0.427 -1.1477 -0.7136  0.5063
  828MOL0     C14173   2.244  11.794   0.335  0.1808  0.2069  0.1322
  828MOL0     O14174   2.296  11.739  -0.045 -0.0171 -0.1701 -0.3791
  828MOL0     C14175   2.161  11.407   0.005 -0.7529  0.4158 -1.0340
  828MOL0     C14176   2.102  11.296  -0.062 -0.4095  0.2449 -0.2356
  828MOL0     N14177   1.948  10.683   0.015  1.0526  0.9850 -1.0951
  828MOL0     N14178   1.843  10.605   0.017 -0.5765 -0.2680 -0.2009
  828MOL0     C14179   1.239  10.139   0.701 -0.2348  0.2457  0.4497
  828MOL0     C14180   1.130  10.080   0.766 -0.3643  0.8581  0.0119
  828MOL0     C14181   0.832   9.731   0.874  0.3466  0.7284  0.0393
  828MOL0     C14182   0.698   9.706   0.833 -0.2508  0.7222  0.1113
  828MOL0     C14183   0.606   9.644   0.919  0.0874  0.7117 -1.0215
  828MOL0     C14184   0.651   9.598   1.046 -0.2234  1.3891 -0.5394
  828MOL0     O14185   0.551   9.524   1.113 -0.3937  0.4544  0.1588
  828MOL0     C14186   0.576   9.463   1.239 -0.5679 -0.0204  0.4982
  828MOL0     C14187   0.588   9.558   1.362  0.0599 -1.0962 -0.0152
  828MOL0     C14188   0.602   9.465   1.494 -0.8853  0.5497 -0.4313
  828MOL0     C14189   0.567   9.540   1.628 -0.9468 -0.1875 -0.1013
  828MOL0     C14190   0.611   9.458   1.753 -0.2595  0.5413  0.5963
  828MOL0     C14191   0.629   9.386   1.848 -0.9975 -0.7562 -1.2968
  828MOL0     C14192   0.785   9.611   1.082  0.4897 -0.8054  0.1519
  828MOL0     C14193   0.871   9.676   0.997 -0.6564 -0.6131  1.2421
  828MOL0     C14194   1.020   9.652   1.034  0.2575 -0.4668  0.4814
  828MOL0     H14195   1.163   9.770   0.652 -0.0940 -0.9997  2.2693
  828MOL0     H14196   1.341   9.874   0.512  1.0314 -0.7389  1.9863
  828MOL0     H14197   1.583  10.242   0.588 -0.0072 -0.3541 -3.9175
  828MOL0     H14198   1.453  10.277   0.698  2.1654 -0.6420  0.1357
  828MOL0     H14199   1.328  10.397   0.520  0.6802  0.1219 -0.1755
  828MOL0     H14200   1.483  10.461   0.563 -0.9737 -2.2456  2.1812
  828MOL0     H14201   1.567  10.318   0.365 -0.2991 -2.6156 -1.0695
  828MOL0     H14202   1.395  10.302   0.315 -0.2476  0.3360 -0.5267
  828MOL0     H14203   1.382  10.541   0.273 -0.4421 -0.9490 -4.4558
  828MOL0     H14204   1.554  10.564   0.303 -1.7319  2.0585 -0.5860
  828MOL0     H14205   1.431  10.369   0.102  1.3116 -0.3465 -1.4741
  828MOL0     H14206   1.602  10.374   0.123 -1.3513 -2.8942 -1.5600
  828MOL0     H14207   1.434  10.595   0.004 -0.9481 -2.5857 -2.0679
  828MOL0     H14208   1.609  10.606   0.049 -2.7915  1.1227  0.6752
  828MOL0     H14209   1.566  10.565  -0.177 -0.4475  0.6334  1.1945
  828MOL0     H14210   1.511  10.402  -0.129 -1.5218  1.3227 -2.1409
  828MOL0     H14211   1.751  10.358  -0.030 -0.8731 -0.8640 -0.6582
  828MOL0     H14212   1.745  10.377  -0.198 -1.0361 -1.3690  0.9917
  828MOL0     H14213   1.948  10.534  -0.279 -0.9820 -1.9870  0.6747
  828MOL0     H14214   2.151  10.679  -0.273  2.1581 -0.2872  0.8408
  828MOL0     H14215   2.196  10.759  -0.121  0.5985  0.7814 -0.8853
  828MOL0     H14216   2.124  10.926  -0.321  0.5458  2.0100 -0.2797
  828MOL0     H14217   1.971  10.836  -0.302  1.5574 -0.9343 -0.1073
  828MOL0     H14218   1.928  10.919  -0.083  0.6514  2.3031  1.9466
  828MOL0     H14219   2.074  11.002  -0.059  2.1574 -2.5270  1.0094
  828MOL0     H14220   1.855  11.076  -0.262 -0.8114 -1.0023 -0.5815
  828MOL0     H14221   1.892  11.143  -0.098  1.2263 -3.0940  1.6893
  828MOL0     H14222   2.112  11.399  -0.378  2.4539 -0.5120  0.0560
  828MOL0     H14223   2.166  11.729  -0.262  0.3691  0.2675  0.9800
  828MOL0     H14224   2.189  11.625  -0.402  1.5128 -0.2482 -0.6432
  828MOL0     H14225   2.323  11.656  -0.295 -0.5786  0.7506 -1.0713
  828MOL0     H14226   2.519  11.688   0.169  1.8803  3.1689 -0.1195
  828MOL0     H14227   2.626  11.834   0.313 -0.3139  1.4206  1.9306
  828MOL0     H14228   2.337  12.119   0.500  1.7938  2.7743 -1.3750
  828MOL0     H14229   2.387  12.058   0.660 -4.3035  0.2444 -0.4881
  828MOL0     H14230   2.534  12.233   0.461 -1.9432 -3.4208 -1.1680
  828MOL0     H14231   2.457  12.304   0.606  0.9945  2.2151 -1.2551
  828MOL0     H14232   2.692  12.108   0.633 -1.6081 -0.0120  0.3307
  828MOL0     H14233   2.602  12.195   0.756 -1.7606 -0.7175 -0.6120
  828MOL0     H14234   2.677  12.413   0.644  0.4558  1.1232  0.9211
  828MOL0     H14235   2.786  12.323   0.539  5.3930 -0.2760  2.0071
  828MOL0     H14236   2.796  12.316   0.848  1.6351  1.6060  0.4569
  828MOL0     H14237   2.921  12.255   0.733  0.2185 -0.7862 -3.2715
  828MOL0     H14238   2.853  12.539   0.776 -0.4026 -0.0394  0.3246
  828MOL0     H14239   2.943  12.494   0.649 -0.1987 -1.7507  0.1892
  828MOL0     H14240   3.092  12.356   0.822 -1.9830 -1.4044 -1.5586
  828MOL0     H14241   3.010  12.481   0.933 -0.2044  0.1818 -0.6735
  828MOL0     H14242   3.233  12.565   0.851 -1.2915  0.3124  1.7846
  828MOL0     H14243   3.095  12.670   0.831  2.5789  3.5441 -2.8437
  828MOL0     H14244   2.230  11.927   0.497 -0.8883 -0.7329  0.7743
  828MOL0     H14245   2.137  11.779   0.321  0.1344  1.1033 -0.6074
  828MOL0     H14246   2.173  11.404   0.113 -0.5984 -0.8163 -1.0696
  828MOL0     H14247   2.072  11.209  -0.005  0.6659  0.4759  0.7353
  828MOL0     H14248   1.249  10.247   0.712  2.8022  0.2788 -1.6006
  828MOL0     H14249   1.071  10.133   0.839 -0.7675  0.0730  0.2630
  828MOL0     H14250   0.665   9.730   0.733 -2.7110  0.4309  0.7873
  828MOL0     H14251   0.500   9.624   0.903 -0.3453  1.5096  0.6960
  828MOL0     H14252   0.480   9.415   1.263 -0.5545  0.6677  2.0529
  828MOL0     H14253   0.648   9.382   1.225 -2.2054 -1.1792 -1.9776
  828MOL0     H14254   0.508   9.632   1.357  3.0703  2.5367  0.9978
  828MOL0     H14255   0.683   9.611   1.348 -1.0270  0.4968 -1.9605
  828MOL0     H14256   0.534   9.379   1.494 -1.9566  1.3458  1.0933
  828MOL0     H14257   0.707   9.434   1.499 -0.0377  3.3444  0.7591
  828MOL0     H14258   0.458   9.537   1.630 -1.0539 -0.1104 -2.4473
  828MOL0     H14259   0.602   9.643   1.623  0.7727 -0.7741 -1.0355
  828MOL0     H14260   0.665   9.318   1.923 -1.5824 -1.6607 -1.8143
  828MOL0     H14261   0.811   9.563   1.176 -0.0352  0.3284  0.9127
  828MOL0     H14262   1.035   9.567   1.102 -2.5743 -1.4494  0.0292
  828MOL0     H14263   1.066   9.628   0.938 -2.4882  1.7606 -1.5259
  828MOL0     H14264   1.073   9.741   1.071  1.3104 -0.5384 -0.7744
  829MOL0     O14265   4.055   2.292   8.690  0.7338  0.0084  0.1173
  829MOL0     C14266   4.004   2.187   8.659  0.5542  0.4756 -0.9736
  829MOL0     O14267   4.071   2.076   8.622 -0.0737 -0.0651 -0.9597
  829MOL0     C14268   4.199   2.081   8.590 -1.0174 -0.4687  0.4901
  829MOL0     C14269   4.254   1.956   8.610  0.9839 -0.0133  0.0470
  829MOL0     C14270   4.382   1.932   8.563 -0.1382 -0.0502  0.5039
  829MOL0     C14271   4.462   2.031   8.504  0.2722  0.1624  0.4199
  829MOL0     O14272   4.587   1.995   8.466  0.0934  0.8029  0.0589
  829MOL0     C14273   4.630   2.015   8.330 -0.5014  0.3251  0.2093
  829MOL0     C14274   4.780   1.992   8.333  0.9715 -0.5184  0.3305
  829MOL0     C14275   4.868   2.119   8.293  1.2429 -1.4925 -0.5448
  829MOL0     C14276   5.003   2.082   8.255  0.0322  0.0343  0.1735
  829MOL0     C14277   5.098   2.204   8.257 -0.3082 -0.4622 -0.1971
  829MOL0     C14278   5.123   2.313   8.369 -0.1075  0.5957  0.7072
  829MOL0     C14279   5.128   2.243   8.507  0.9613 -0.4697 -0.4549
  829MOL0     C14280   5.253   2.163   8.506  0.4402  0.3101 -0.1766
  829MOL0     N14281   5.287   2.129   8.652  0.6430  0.6680  0.7107
  829MOL0     C14282   5.336   2.004   8.683  0.9525 -0.8610  0.3226
  829MOL0     C14283   5.380   2.022   8.809  0.0897  0.6781 -0.4228
  829MOL0     C14284   5.464   1.923   8.879  0.3813  0.5093  0.0882
  829MOL0     C14285   5.438   1.933   9.031 -0.7947 -1.4003 -0.3304
  829MOL0     C14286   5.336   1.833   9.073  0.2963 -0.5146 -0.0115
  829MOL0     C14287   5.340   1.809   9.224  0.3841 -0.1215 -0.9118
  829MOL0     O14288   5.341   1.670   9.247  0.1655  0.1327 -0.1204
  829MOL0     C14289   5.233   1.587   9.218  0.4320 -0.5322 -0.5803
  829MOL0     C14290   5.246   1.457   9.221 -0.4280 -0.9790  1.3062
  829MOL0     C14291   5.148   1.368   9.186  0.3024  0.1889  0.7550
  829MOL0     C14292   5.178   1.222   9.195  0.6429  0.7592 -0.7230
  829MOL0     C14293   5.012   1.414   9.179  0.0656 -0.6638  0.7702
  829MOL0     C14294   4.889   1.330   9.175 -0.1999 -0.5232 -0.0681
  829MOL0     O14295   4.775   1.391   9.202 -1.0760  0.3828 -0.7055
  829MOL0     C14296   4.660   1.319   9.180 -0.0050  0.9493 -0.2253
  829MOL0     C14297   4.621   1.272   9.053  0.0984  0.2204  0.4443
  829MOL0     C14298   4.509   1.193   9.032  0.3440  0.1604  0.2594
  829MOL0     C14299   4.426   1.161   9.140  0.5006 -0.3228 -0.1954
  829MOL0     O14300   4.308   1.079   9.139  0.7259 -0.1021  0.5795
  829MOL0     C14301   4.319   0.950   9.079  0.2081 -0.4091 -0.8975
  829MOL0     C14302   4.169   0.903   9.051  0.5264  0.1134  0.2509
  829MOL0     C14303   4.071   0.955   9.161  0.0496 -0.1065 -0.2787
  829MOL0     C14304   3.966   0.858   9.188  0.2721  0.8420 -0.2671
  829MOL0     C14305   3.886   0.907   9.305  1.0307  0.5805  0.6512
  829MOL0     C14306   3.757   0.826   9.316 -0.9079 -0.1204  0.0021
  829MOL0     C14307   3.789   0.699   9.394 -0.3198  0.5195  0.8126
  829MOL0     C14308   3.676   0.600   9.413  0.3142 -0.6664 -0.6190
  829MOL0    Cl14309   3.550   0.658   9.525 -0.5108  0.1739 -0.1975
  829MOL0     C14310   4.464   1.217   9.267  0.9482  0.4608  0.4001
  829MOL0     C14311   4.577   1.291   9.287  0.5175 -0.5290 -0.2951
  829MOL0     O14312   4.907   1.208   9.157  0.9773  0.7982 -0.2877
  829MOL0     C14313   5.006   1.547   9.166  0.0738 -0.4229 -0.7459
  829MOL0     C14314   5.110   1.638   9.189  0.2100 -0.3422 -0.1362
  829MOL0     N14315   5.380   2.160   8.840  0.3283 -0.0535  0.0184
  829MOL0     N14316   5.321   2.218   8.745  0.1756  0.3191  0.2082
  829MOL0     C14317   4.403   2.154   8.477  0.6483  0.1058  0.0943
  829MOL0     C14318   4.271   2.184   8.521 -1.3623 -0.1140  0.2865
  829MOL0     C14319   3.847   2.181   8.674 -0.2702 -0.2512 -0.4610
  829MOL0     C14320   3.765   2.302   8.677 -0.6590  0.0182  0.4653
  829MOL0     C14321   3.627   2.296   8.686  0.1014 -0.7798 -0.1038
  829MOL0     C14322   3.568   2.176   8.698 -0.0763  0.3071 -0.1112
  829MOL0     O14323   3.434   2.163   8.696 -0.6937 -0.3634  0.9502
  829MOL0     C14324   3.371   2.180   8.565 -0.5036  0.1602  0.1708
  829MOL0     C14325   3.219   2.183   8.574 -0.3185 -0.4360 -0.6817
  829MOL0     C14326   3.156   2.188   8.431 -1.0741 -0.4460 -0.4487
  829MOL0     C14327   3.009   2.226   8.432 -0.1317 -0.0890 -0.2639
  829MOL0     C14328   2.954   2.341   8.355 -0.4470  0.1148 -0.5311
  829MOL0     C14329   2.924   2.436   8.289  0.3005  0.4782  1.0536
  829MOL0     C14330   3.650   2.056   8.712  0.5107  0.1303 -0.3944
  829MOL0     C14331   3.787   2.056   8.693 -0.8621  1.0015 -0.4053
  829MOL0     C14332   3.861   1.917   8.701 -0.5176  0.7368  0.0717
  829MOL0     H14333   4.193   1.880   8.659  0.8019  1.1624  1.7483
  829MOL0     H14334   4.442   1.847   8.595  1.3063  1.7745  2.9648
  829MOL0     H14335   4.597   2.115   8.297  1.1632  1.1090  0.8004
  829MOL0     H14336   4.591   1.947   8.254  2.0120 -0.6344 -0.3181
  829MOL0     H14337   4.815   1.955   8.429 -2.7716 -0.2192  1.9901
  829MOL0     H14338   4.809   1.914   8.262  3.1573 -0.3675  0.9960
  829MOL0     H14339   4.824   2.168   8.205 -0.3808 -0.7997  0.5987
  829MOL0     H14340   4.862   2.196   8.371  2.8074 -2.6118  0.7118
  829MOL0     H14341   5.034   2.009   8.331 -2.5163 -0.3979  0.8887
  829MOL0     H14342   5.005   2.026   8.162  3.7862 -2.8946  1.7588
  829MOL0     H14343   5.075   2.253   8.162  0.7209  0.8105  0.1874
  829MOL0     H14344   5.199   2.164   8.247  1.1696  1.5946  4.2256
  829MOL0     H14345   5.211   2.376   8.355 -0.1049  0.3264 -0.6944
  829MOL0     H14346   5.043   2.388   8.373 -1.9185 -1.2704  2.0064
  829MOL0     H14347   5.039   2.183   8.532 -1.7874  2.3136 -2.8333
  829MOL0     H14348   5.146   2.325   8.577  0.3432 -2.0093  1.6341
  829MOL0     H14349   5.228   2.069   8.456  2.8686 -1.1618  1.1909
  829MOL0     H14350   5.339   2.212   8.460 -0.2367  0.4000 -1.3955
  829MOL0     H14351   5.345   1.921   8.613  3.0375 -0.6428  0.2867
  829MOL0     H14352   5.568   1.934   8.848  0.2504 -0.9304 -0.9428
  829MOL0     H14353   5.448   1.823   8.838 -0.3408  0.4772  0.4253
  829MOL0     H14354   5.531   1.917   9.088  0.8166  0.2886 -2.3139
  829MOL0     H14355   5.409   2.034   9.060  2.0982  0.4218 -3.1073
  829MOL0     H14356   5.242   1.874   9.034 -0.0901 -2.4606 -1.2758
  829MOL0     H14357   5.348   1.740   9.016  0.9607 -0.9381  0.8051
  829MOL0     H14358   5.437   1.838   9.265 -1.8941  0.9339  4.5142
  829MOL0     H14359   5.254   1.850   9.278  1.0805 -2.1034  1.9520
  829MOL0     H14360   5.347   1.422   9.238  0.9292  1.2997 -1.2270
  829MOL0     H14361   5.284   1.212   9.222  0.4580  1.1476  0.1857
  829MOL0     H14362   5.147   1.152   9.117 -1.9772  1.6314 -0.5440
  829MOL0     H14363   5.119   1.185   9.279 -0.5588  3.2325 -0.4026
  829MOL0     H14364   4.685   1.283   8.966 -0.5213  3.2254  0.2356
  829MOL0     H14365   4.486   1.135   8.943  0.7279 -0.7587  0.7510
  829MOL0     H14366   4.380   0.942   8.988 -0.5085  1.9991 -1.6612
  829MOL0     H14367   4.351   0.877   9.154 -0.2340 -1.2116 -1.4708
  829MOL0     H14368   4.134   0.934   8.952 -0.0588  0.8278  0.6726
  829MOL0     H14369   4.171   0.794   9.048 -1.5313  0.0506 -0.1576
  829MOL0     H14370   4.030   1.054   9.138 -0.2385  0.2270  1.5427
  829MOL0     H14371   4.116   0.971   9.259 -1.9054  1.8528  0.3621
  829MOL0     H14372   4.011   0.758   9.191  1.2992  1.2636 -1.1426
  829MOL0     H14373   3.896   0.845   9.106 -0.2901 -2.2920  0.5591
  829MOL0     H14374   3.944   0.898   9.398  0.2141 -1.0515  1.0439
  829MOL0     H14375   3.850   1.009   9.291 -1.4753 -0.4107 -0.9910
  829MOL0     H14376   3.715   0.812   9.217  0.3654  1.3405 -0.7931
  829MOL0     H14377   3.694   0.891   9.378 -2.9508 -1.2000 -0.8653
  829MOL0     H14378   3.817   0.729   9.495  1.7781  0.2679  0.3533
  829MOL0     H14379   3.872   0.643   9.350 -0.5456 -0.7016  1.8723
  829MOL0     H14380   3.711   0.505   9.455 -0.0474 -0.2352  0.7034
  829MOL0     H14381   3.636   0.571   9.315  2.7474 -2.8629 -1.0910
  829MOL0     H14382   4.402   1.202   9.355 -0.0948  0.9325 -0.2392
  829MOL0     H14383   4.600   1.328   9.387 -1.2286 -1.2158  0.3925
  829MOL0     H14384   4.914   1.594   9.132  1.3430  1.6099 -1.5467
  829MOL0     H14385   5.103   1.746   9.189  4.0641  0.0896 -1.2086
  829MOL0     H14386   4.449   2.231   8.415 -1.3553  0.7720 -0.6202
  829MOL0     H14387   4.223   2.277   8.492 -0.5203  1.4000  3.3057
  829MOL0     H14388   3.822   2.390   8.649  0.2473 -0.7040 -0.0014
  829MOL0     H14389   3.566   2.386   8.677  1.0010  0.0395  1.5452
  829MOL0     H14390   3.403   2.270   8.511 -0.9863  1.7254  2.3682
  829MOL0     H14391   3.406   2.099   8.501 -2.0795 -0.1392 -0.3482
  829MOL0     H14392   3.191   2.263   8.644  2.6298  0.2597 -0.1679
  829MOL0     H14393   3.179   2.096   8.627 -1.1035 -1.2382 -2.5143
  829MOL0     H14394   3.206   2.264   8.370 -0.7669 -0.4281 -0.1804
  829MOL0     H14395   3.160   2.088   8.387 -3.8916  0.1831 -2.3344
  829MOL0     H14396   2.978   2.244   8.535 -0.4928 -0.6931 -0.2596
  829MOL0     H14397   2.948   2.145   8.391  4.3087 -3.2030 -1.5116
  829MOL0     H14398   2.883   2.523   8.243 -3.3755 -0.6735  1.8134
  829MOL0     H14399   3.586   1.968   8.710 -0.2118  0.6527 -1.6907
  829MOL0     H14400   3.797   1.842   8.747 -0.3219  0.0163 -0.7985
  829MOL0     H14401   3.906   1.889   8.605 -0.9548  0.1354  0.0386
  829MOL0     H14402   3.945   1.932   8.769 -0.5380  0.8440  0.0727
  830MOL0     O14403   8.135   4.452   1.969 -0.3261 -0.0435  0.6079
  830MOL0     C14404   8.197   4.511   1.882 -0.4718 -0.0165  0.3057
  830MOL0     O14405   8.164   4.628   1.830  0.3502 -0.2497 -0.1705
  830MOL0     C14406   8.035   4.662   1.836  0.2000  0.4248  0.9895
  830MOL0     C14407   7.944   4.676   1.945 -0.4371  0.7995  0.6329
  830MOL0     C14408   7.808   4.702   1.914 -0.0257 -0.6189  0.5288
  830MOL0     C14409   7.767   4.728   1.792 -0.1803  0.1745  0.1619
  830MOL0     O14410   7.639   4.766   1.773 -0.0601  0.0360  0.5733
  830MOL0     C14411   7.577   4.852   1.878 -0.4139 -0.1889  0.1123
  830MOL0     C14412   7.478   4.945   1.802  0.6123  0.8180  0.7856
  830MOL0     C14413   7.435   5.061   1.888 -0.0212 -0.7614  0.0172
  830MOL0     C14414   7.412   5.198   1.811  0.7919  1.1696 -0.0385
  830MOL0     C14415   7.289   5.270   1.862 -0.2536 -0.1205  0.3087
  830MOL0     C14416   7.157   5.189   1.824  0.1415 -0.2315  0.0757
  830MOL0     C14417   7.025   5.259   1.893 -1.4558  0.3257  0.1457
  830MOL0     C14418   6.950   5.372   1.816 -0.2331 -0.8093 -0.5884
  830MOL0     N14419   6.906   5.315   1.689  0.1689  0.5809  0.1112
  830MOL0     C14420   6.813   5.224   1.663  0.8906  0.9528 -1.3901
  830MOL0     C14421   6.813   5.192   1.532  0.3164  0.4776  0.4574
  830MOL0     C14422   6.706   5.120   1.465 -0.0662 -0.4698  0.1082
  830MOL0     C14423   6.748   5.017   1.365  0.5542 -0.0249  0.7607
  830MOL0     C14424   6.620   4.967   1.296 -0.0739  0.2795 -0.0107
  830MOL0     C14425   6.657   4.850   1.199  0.2979  0.2782 -0.8701
  830MOL0     O14426   6.539   4.805   1.143 -0.5155  0.0044 -0.0562
  830MOL0     C14427   6.467   4.710   1.206  0.0376  0.2798  0.1010
  830MOL0     C14428   6.504   4.629   1.324  0.2243  0.2985  0.4480
  830MOL0     C14429   6.420   4.530   1.387  0.3383 -0.1748  1.0828
  830MOL0     C14430   6.461   4.454   1.504 -0.1821  0.7068 -0.5223
  830MOL0     C14431   6.306   4.511   1.318  0.1771 -0.2564 -0.4459
  830MOL0     C14432   6.216   4.395   1.358  0.1665 -0.1904 -0.0129
  830MOL0     O14433   6.087   4.406   1.349  0.6535 -0.2629  0.3798
  830MOL0     C14434   5.998   4.309   1.399  0.5733 -0.4071  0.5809
  830MOL0     C14435   5.891   4.354   1.472 -0.2975  1.1757  0.5660
  830MOL0     C14436   5.777   4.273   1.494  0.7404 -0.1365 -0.0719
  830MOL0     C14437   5.774   4.145   1.437  1.2888 -0.8696  0.9139
  830MOL0     O14438   5.653   4.077   1.442  1.1192 -0.1683 -0.2910
  830MOL0     C14439   5.648   3.953   1.524  0.6182  0.2788  0.1172
  830MOL0     C14440   5.500   3.897   1.520  0.5057 -0.2662 -0.1310
  830MOL0     C14441   5.455   3.814   1.395 -0.2308  0.0577 -0.1880
  830MOL0     C14442   5.517   3.665   1.412 -0.3534 -0.4366  0.3436
  830MOL0     C14443   5.435   3.561   1.326 -0.6250 -0.4233  0.2145
  830MOL0     C14444   5.423   3.590   1.173  0.2891  0.8484  0.0409
  830MOL0     C14445   5.345   3.475   1.106  0.4866  0.2218 -0.1535
  830MOL0     C14446   5.196   3.479   1.124 -0.6158 -0.2051  0.3323
  830MOL0    Cl14447   5.131   3.618   1.042 -0.0273  0.3107 -0.2109
  830MOL0     C14448   5.885   4.099   1.361  1.1979 -0.0516 -1.1260
  830MOL0     C14449   6.002   4.171   1.353  0.2924 -0.8779 -0.0388
  830MOL0     O14450   6.270   4.290   1.393 -0.0143  0.0181 -0.5495
  830MOL0     C14451   6.265   4.585   1.207 -0.7730  0.3059  0.5994
  830MOL0     C14452   6.350   4.678   1.147  0.3232  0.0740 -0.1733
  830MOL0     N14453   6.921   5.261   1.477  0.5328 -0.4513 -1.0253
  830MOL0     N14454   6.974   5.336   1.572 -0.6756  0.7111 -0.1856
  830MOL0     C14455   7.856   4.716   1.684  0.4850 -0.1159  0.1985
  830MOL0     C14456   7.988   4.683   1.707 -0.3329 -0.8686 -1.1628
  830MOL0     C14457   8.320   4.446   1.811  0.3379 -0.3628 -0.6257
  830MOL0     C14458   8.359   4.492   1.681 -0.1916 -0.0315  0.1402
  830MOL0     C14459   8.452   4.427   1.607 -0.1417  0.3159  0.4269
  830MOL0     C14460   8.525   4.318   1.666 -0.9853  0.2423 -0.2043
  830MOL0     O14461   8.632   4.253   1.611  0.8420  1.2907 -0.2649
  830MOL0     C14462   8.667   4.293   1.480  0.6337  0.1639  0.0990
  830MOL0     C14463   8.742   4.422   1.487  0.2053 -0.5267 -0.4632
  830MOL0     C14464   8.889   4.416   1.434 -0.3152 -0.5507 -0.0825
  830MOL0     C14465   8.931   4.530   1.349  0.4752 -0.4558  0.4252
  830MOL0     C14466   8.940   4.659   1.420 -0.3084  0.9867  1.0083
  830MOL0     C14467   8.971   4.771   1.466  0.1133 -0.1941 -0.6892
  830MOL0     C14468   8.491   4.276   1.790 -0.5275 -0.0669  0.5548
  830MOL0     C14469   8.399   4.350   1.871  0.7254  0.2179 -0.2011
  830MOL0     C14470   8.398   4.313   2.014  0.0992 -0.3804 -0.2975
  830MOL0     H14471   7.971   4.636   2.042  0.6831 -3.0982 -1.0759
  830MOL0     H14472   7.730   4.700   1.989  0.0398 -1.3112  0.5866
  830MOL0     H14473   7.654   4.910   1.929  0.8547 -1.0888 -0.7090
  830MOL0     H14474   7.532   4.800   1.963 -1.8698  0.6704 -0.0935
  830MOL0     H14475   7.529   4.965   1.708  2.6627 -1.4018  1.3350
  830MOL0     H14476   7.385   4.887   1.792  0.6258  0.7387  1.1068
  830MOL0     H14477   7.353   5.035   1.955  1.0509  1.8475  2.6062
  830MOL0     H14478   7.514   5.083   1.960  0.6167 -0.1363 -0.8572
  830MOL0     H14479   7.496   5.266   1.829  1.2599  1.3551 -2.5272
  830MOL0     H14480   7.400   5.183   1.703 -0.2057  2.3790 -0.1173
  830MOL0     H14481   7.288   5.367   1.812  0.2359  0.8931  2.1778
  830MOL0     H14482   7.296   5.297   1.968  0.9074 -3.1477  1.1163
  830MOL0     H14483   7.147   5.183   1.715  2.0836 -1.4985 -0.0663
  830MOL0     H14484   7.166   5.087   1.860  0.8238 -0.2009  0.0001
  830MOL0     H14485   7.044   5.297   1.994  1.2187  1.9233 -0.8413
  830MOL0     H14486   6.955   5.177   1.908  1.6074 -3.1350 -2.5380
  830MOL0     H14487   6.863   5.387   1.879  0.9785  2.1802  0.5227
  830MOL0     H14488   6.991   5.470   1.792 -1.7842 -0.2011 -0.8207
  830MOL0     H14489   6.739   5.185   1.733 -1.5312  1.0178 -3.7604
  830MOL0     H14490   6.650   5.195   1.407 -1.5485 -0.2346  1.7797
  830MOL0     H14491   6.649   5.087   1.552  0.9705  0.0675  1.0109
  830MOL0     H14492   6.817   5.060   1.292  0.0982 -0.0357  0.3237
  830MOL0     H14493   6.808   4.941   1.417  1.0471  0.2895  0.6533
  830MOL0     H14494   6.556   4.931   1.377 -0.8298 -0.7958 -1.0459
  830MOL0     H14495   6.561   5.041   1.242  0.1812 -0.1684 -0.9268
  830MOL0     H14496   6.713   4.891   1.114 -0.6482 -0.1388 -1.7106
  830MOL0     H14497   6.714   4.770   1.248  1.5050  3.2751  3.1539
  830MOL0     H14498   6.601   4.642   1.371  0.4808 -0.7746  0.2505
  830MOL0     H14499   6.544   4.499   1.558  0.0368 -0.9837  0.6433
  830MOL0     H14500   6.502   4.356   1.477  0.7180 -0.2091  3.5665
  830MOL0     H14501   6.371   4.460   1.566 -0.9784  1.0933 -1.6793
  830MOL0     H14502   5.885   4.460   1.496 -0.0649  1.5499 -0.8904
  830MOL0     H14503   5.694   4.309   1.553  0.3517 -2.7507  1.1249
  830MOL0     H14504   5.714   3.877   1.481 -1.4366 -2.1990  1.1194
  830MOL0     H14505   5.689   3.957   1.626  1.6343 -0.2130 -0.2587
  830MOL0     H14506   5.489   3.841   1.613 -2.3746  0.3472 -0.0245
  830MOL0     H14507   5.436   3.986   1.524  0.3112 -0.3224 -1.5573
  830MOL0     H14508   5.486   3.863   1.303 -1.1629 -1.4080 -1.3275
  830MOL0     H14509   5.346   3.820   1.388 -0.0994  1.8935 -1.1003
  830MOL0     H14510   5.524   3.629   1.515  0.8470 -1.0401  0.0699
  830MOL0     H14511   5.617   3.679   1.370 -0.9450  0.2726 -0.8784
  830MOL0     H14512   5.481   3.465   1.352  2.4315  1.4848  2.5231
  830MOL0     H14513   5.336   3.567   1.375  0.6786  0.7467  2.9455
  830MOL0     H14514   5.525   3.591   1.134  0.2197  4.5088 -0.3418
  830MOL0     H14515   5.378   3.684   1.140 -2.1340  0.0232  0.7618
  830MOL0     H14516   5.389   3.387   1.154 -2.3706  0.1027  2.5824
  830MOL0     H14517   5.358   3.465   0.998 -1.1052 -3.7866 -0.1342
  830MOL0     H14518   5.187   3.480   1.233  4.6247 -5.1336  1.2926
  830MOL0     H14519   5.144   3.391   1.084 -2.9771  1.6377 -0.9153
  830MOL0     H14520   5.855   4.003   1.319 -0.9374  0.2470 -0.3555
  830MOL0     H14521   6.097   4.145   1.306  0.8262  2.0169 -0.7567
  830MOL0     H14522   6.174   4.565   1.151 -0.5375  0.4340  0.1668
  830MOL0     H14523   6.332   4.713   1.046  3.4904 -0.3793 -0.9971
  830MOL0     H14524   7.812   4.728   1.586  0.7698 -1.2581 -0.0798
  830MOL0     H14525   8.045   4.655   1.619 -0.7665  2.3170 -2.6196
  830MOL0     H14526   8.293   4.564   1.635 -1.1164 -0.9591 -0.0222
  830MOL0     H14527   8.465   4.463   1.506 -2.5108 -0.8826 -0.3782
  830MOL0     H14528   8.722   4.217   1.423  3.9394  1.4853  1.3312
  830MOL0     H14529   8.573   4.309   1.426 -1.9980 -2.5374  3.3626
  830MOL0     H14530   8.740   4.467   1.587 -0.5106 -2.7593  0.5879
  830MOL0     H14531   8.678   4.493   1.433 -0.1461  1.3647  2.2658
  830MOL0     H14532   8.963   4.397   1.512  0.6997  0.5967 -0.7141
  830MOL0     H14533   8.903   4.337   1.361 -0.8541  1.5345 -2.5923
  830MOL0     H14534   8.850   4.541   1.277 -1.0652  0.6531  2.2238
  830MOL0     H14535   9.027   4.511   1.300  0.6852  1.8118 -0.1531
  830MOL0     H14536   9.014   4.857   1.512 -1.1629  0.1638 -0.1147
  830MOL0     H14537   8.547   4.191   1.829  0.6137  0.8376  0.9653
  830MOL0     H14538   8.482   4.244   2.026 -0.5356 -1.5557 -2.1593
  830MOL0     H14539   8.399   4.402   2.079  3.0637 -0.9534  0.6169
  830MOL0     H14540   8.318   4.249   2.051 -1.7809  2.2365  0.5038
  831MOL0     O14541   5.345   3.590   2.543  0.8833 -0.3621 -0.4517
  831MOL0     C14542   5.253   3.625   2.462 -0.2064 -0.6121 -0.4772
  831MOL0     O14543   5.229   3.569   2.336 -0.8470  0.8071 -0.5417
  831MOL0     C14544   5.254   3.435   2.327 -0.0491 -0.6143  0.7117
  831MOL0     C14545   5.276   3.382   2.198 -0.1121 -0.4547  0.2824
  831MOL0     C14546   5.274   3.244   2.176  0.4216  0.8114 -0.7426
  831MOL0     C14547   5.238   3.160   2.280 -0.4243  0.0513 -0.3615
  831MOL0     O14548   5.243   3.022   2.252  0.8564  0.6480 -0.6968
  831MOL0     C14549   5.282   2.936   2.356  0.3419  1.0336  0.0069
  831MOL0     C14550   5.374   2.837   2.300 -0.5186  0.3871 -0.7784
  831MOL0     C14551   5.301   2.716   2.232 -0.5869 -0.0039 -0.0618
  831MOL0     C14552   5.221   2.758   2.105  0.7958 -0.4819  0.2630
  831MOL0     C14553   5.151   2.636   2.038 -0.7847  0.6526  0.1249
  831MOL0     C14554   5.101   2.677   1.912  0.7207  0.4070 -0.2674
  831MOL0     C14555   5.074   2.549   1.824 -0.7205 -0.6918  0.1072
  831MOL0     C14556   4.988   2.579   1.698 -0.0463 -0.8917  0.0538
  831MOL0     N14557   4.847   2.594   1.738 -0.6344 -0.4828  0.0057
  831MOL0     C14558   4.792   2.715   1.779 -0.6815  0.7855  0.3905
  831MOL0     C14559   4.669   2.679   1.799  0.8911 -1.6395 -0.1925
  831MOL0     C14560   4.566   2.774   1.846 -1.2774  0.5719  0.5534
  831MOL0     C14561   4.428   2.721   1.853 -0.7185  0.7308 -0.3614
  831MOL0     C14562   4.331   2.823   1.897  0.1164  0.5668  0.3227
  831MOL0     C14563   4.288   2.923   1.781  0.0214 -0.3079  0.2912
  831MOL0     O14564   4.334   3.053   1.824  0.4389  0.0950  0.1259
  831MOL0     C14565   4.238   3.153   1.841  0.0870  0.2323  0.3388
  831MOL0     C14566   4.242   3.217   1.964  0.8775  0.7838 -0.6271
  831MOL0     C14567   4.159   3.321   1.993  0.6966 -0.6743  0.1841
  831MOL0     C14568   4.181   3.397   2.121 -0.1092  0.0572 -0.6285
  831MOL0     C14569   4.060   3.370   1.898  0.4164  0.7125 -0.8872
  831MOL0     C14570   3.972   3.480   1.932  0.3325  0.2360  0.4137
  831MOL0     O14571   3.952   3.571   1.835 -0.0444  1.4067  0.9119
  831MOL0     C14572   3.839   3.644   1.838 -0.2729  0.1796  0.8749
  831MOL0     C14573   3.839   3.766   1.906  0.7304  1.0592  0.3946
  831MOL0     C14574   3.723   3.844   1.925 -0.3748 -0.6827 -0.2575
  831MOL0     C14575   3.601   3.803   1.854 -0.4771  0.5519 -0.4334
  831MOL0     O14576   3.483   3.869   1.883  0.4845  0.0640  0.4971
  831MOL0     C14577   3.358   3.836   1.820 -0.0911 -0.1935  1.5194
  831MOL0     C14578   3.269   3.942   1.851  0.7673 -0.4411 -0.9824
  831MOL0     C14579   3.140   3.941   1.772 -0.4033  0.8344 -0.4517
  831MOL0     C14580   3.043   3.822   1.798  0.4779  0.0541  0.0408
  831MOL0     C14581   2.955   3.847   1.921  0.1246 -0.4545  0.4178
  831MOL0     C14582   2.898   3.713   1.972  0.5454  0.2314  0.3272
  831MOL0     C14583   2.782   3.730   2.092 -0.8477  0.8227  0.8205
  831MOL0     C14584   2.840   3.804   2.212  0.3070  0.3570 -0.2822
  831MOL0    Cl14585   2.721   3.782   2.337  0.0800 -0.1073 -0.0124
  831MOL0     C14586   3.611   3.675   1.779 -0.1727 -0.4665 -0.1501
  831MOL0     C14587   3.728   3.596   1.772  0.2660 -0.4782  0.3507
  831MOL0     O14588   3.918   3.469   2.045  0.3469 -0.2774  0.2059
  831MOL0     C14589   4.062   3.309   1.772  0.7868  0.7418  0.4252
  831MOL0     C14590   4.149   3.206   1.741  0.0103 -0.8312 -0.4063
  831MOL0     N14591   4.640   2.546   1.769 -0.4326 -0.2068 -0.1220
  831MOL0     N14592   4.753   2.491   1.739 -0.4224  0.0250 -0.0547
  831MOL0     C14593   5.195   3.210   2.394  0.7974  0.3508 -0.1359
  831MOL0     C14594   5.208   3.348   2.427  0.2194 -0.2176 -0.6630
  831MOL0     C14595   5.168   3.738   2.512  0.0080 -0.4424 -0.5190
  831MOL0     C14596   5.234   3.846   2.573  0.2315 -0.1108 -0.2510
  831MOL0     C14597   5.166   3.968   2.619  0.4114 -0.0242 -0.2653
  831MOL0     C14598   5.028   3.969   2.607  0.5436  0.8120  0.5082
  831MOL0     O14599   4.953   4.065   2.675  0.7519 -0.3653  0.2366
  831MOL0     C14600   4.905   4.176   2.596  0.1945  0.9221 -0.3925
  831MOL0     C14601   4.755   4.185   2.597  0.5932 -0.1074 -0.6820
  831MOL0     C14602   4.704   4.267   2.472 -0.9122 -0.5146 -0.3587
  831MOL0     C14603   4.563   4.328   2.488  0.1938  0.0426 -0.0652
  831MOL0     C14604   4.542   4.436   2.580 -0.5975  0.2925 -0.0588
  831MOL0     C14605   4.535   4.512   2.666  0.6722 -0.3826 -0.3734
  831MOL0     C14606   4.955   3.856   2.551 -0.3498  0.7832  0.1069
  831MOL0     C14607   5.020   3.743   2.498  0.1365 -0.1823 -1.0603
  831MOL0     C14608   4.937   3.636   2.446  0.2420 -0.5356  1.1286
  831MOL0     H14609   5.297   3.434   2.105 -0.0526 -1.1319 -0.0825
  831MOL0     H14610   5.282   3.198   2.078  0.5521  0.7220 -0.6905
  831MOL0     H14611   5.190   2.889   2.391 -0.2104  2.0882  0.0202
  831MOL0     H14612   5.328   2.985   2.442 -0.5154  2.5288 -0.3527
  831MOL0     H14613   5.427   2.893   2.222 -1.2932  1.0815 -0.8131
  831MOL0     H14614   5.445   2.804   2.377  0.9006  3.6573 -0.5265
  831MOL0     H14615   5.364   2.633   2.197  0.1393  0.8085 -0.7430
  831MOL0     H14616   5.233   2.668   2.302 -3.9383  1.4666 -2.0317
  831MOL0     H14617   5.146   2.829   2.141 -0.1040  0.5650 -3.2546
  831MOL0     H14618   5.285   2.819   2.041 -1.1371 -0.5635 -1.8651
  831MOL0     H14619   5.064   2.596   2.091  0.4058  0.7286  2.2371
  831MOL0     H14620   5.219   2.550   2.032 -1.4101  0.1200  0.5164
  831MOL0     H14621   5.008   2.731   1.931  1.4101  1.3975  0.3804
  831MOL0     H14622   5.172   2.738   1.855  4.0194 -1.3823  1.6059
  831MOL0     H14623   5.034   2.463   1.878  0.9351 -1.4872  0.1338
  831MOL0     H14624   5.172   2.514   1.790 -0.1068  1.5850 -0.6813
  831MOL0     H14625   5.012   2.680   1.665 -3.3685  0.1042  0.3887
  831MOL0     H14626   4.987   2.499   1.623 -0.2437  1.7435 -3.0018
  831MOL0     H14627   4.851   2.806   1.788 -1.3713  1.1557  1.3352
  831MOL0     H14628   4.564   2.854   1.772  2.2289 -0.4050 -0.7883
  831MOL0     H14629   4.606   2.801   1.945 -2.1411 -0.7400  1.2976
  831MOL0     H14630   4.395   2.684   1.756 -0.3532  1.2191 -0.6773
  831MOL0     H14631   4.425   2.627   1.910 -0.1211  0.2213 -1.1529
  831MOL0     H14632   4.241   2.767   1.922 -0.9699  1.0335 -2.1773
  831MOL0     H14633   4.359   2.879   1.986  0.8670  1.0545 -0.2071
  831MOL0     H14634   4.342   2.902   1.689  0.5233 -1.1055  0.7536
  831MOL0     H14635   4.179   2.923   1.768 -0.0260 -1.4584  0.5674
  831MOL0     H14636   4.299   3.176   2.047  0.9237  1.6116 -0.2406
  831MOL0     H14637   4.180   3.506   2.116  0.3554  0.1040  0.1043
  831MOL0     H14638   4.280   3.368   2.158  0.8365  0.3036 -2.7853
  831MOL0     H14639   4.120   3.358   2.202  0.3779 -2.5061 -1.3892
  831MOL0     H14640   3.927   3.797   1.961  1.4733 -0.9386  0.4115
  831MOL0     H14641   3.737   3.934   1.983  1.9551 -0.6684 -0.7560
  831MOL0     H14642   3.366   3.835   1.710  0.3967  1.1948  1.5164
  831MOL0     H14643   3.323   3.740   1.859  1.2857 -0.8314  1.2582
  831MOL0     H14644   3.237   3.922   1.954  0.6065 -1.2313 -1.1798
  831MOL0     H14645   3.316   4.041   1.844  0.0648  0.1380  1.5325
  831MOL0     H14646   3.158   3.943   1.664  1.2079  1.8651 -0.1978
  831MOL0     H14647   3.095   4.037   1.799  0.3111  0.8936  0.6167
  831MOL0     H14648   3.116   3.741   1.809  0.0121 -0.6257 -1.5008
  831MOL0     H14649   2.973   3.798   1.717  1.4087 -0.2832 -0.6895
  831MOL0     H14650   3.010   3.894   2.003  2.2967 -1.4053 -0.3922
  831MOL0     H14651   2.877   3.915   1.885  1.7668  0.6705 -1.2061
  831MOL0     H14652   2.987   3.673   2.023  1.7228  2.5537  0.2224
  831MOL0     H14653   2.853   3.651   1.894 -0.1350  2.4022 -1.1001
  831MOL0     H14654   2.756   3.629   2.125 -0.0937  0.6350  0.8654
  831MOL0     H14655   2.692   3.787   2.066  0.2121  1.8989 -0.6646
  831MOL0     H14656   2.836   3.910   2.185 -0.8736  0.3738 -0.0995
  831MOL0     H14657   2.935   3.768   2.252 -0.5021  0.0006  1.4076
  831MOL0     H14658   3.514   3.646   1.739 -0.9097  1.8838 -0.2326
  831MOL0     H14659   3.735   3.495   1.733  1.5386 -1.5965  3.2336
  831MOL0     H14660   4.004   3.353   1.692 -0.8525  0.7995  1.5713
  831MOL0     H14661   4.149   3.167   1.640  0.7203 -0.9409 -0.3750
  831MOL0     H14662   5.157   3.145   2.472 -1.3716 -0.0494 -1.4421
  831MOL0     H14663   5.174   3.387   2.523 -1.0445 -1.8405 -0.4047
  831MOL0     H14664   5.339   3.839   2.600 -0.0605 -1.4278  0.6880
  831MOL0     H14665   5.216   4.047   2.674 -0.4824  0.1636  0.3126
  831MOL0     H14666   4.947   4.270   2.634 -2.5641  2.4627 -0.8979
  831MOL0     H14667   4.947   4.175   2.494  1.0494  0.2663 -0.0542
  831MOL0     H14668   4.720   4.219   2.695  0.7869  4.0448 -1.8592
  831MOL0     H14669   4.723   4.081   2.586 -0.7605 -0.1993  2.8435
  831MOL0     H14670   4.784   4.339   2.448 -2.0456  1.0887  0.5273
  831MOL0     H14671   4.710   4.186   2.398  1.2896  0.5562 -1.4551
  831MOL0     H14672   4.490   4.252   2.518 -0.6275  0.9774  0.3669
  831MOL0     H14673   4.542   4.375   2.391  2.7865  0.6727 -0.3870
  831MOL0     H14674   4.524   4.584   2.745 -0.0146 -0.4151 -0.4350
  831MOL0     H14675   4.847   3.847   2.560 -0.4658  0.1270 -1.6358
  831MOL0     H14676   4.830   3.645   2.464 -0.7409  0.0329 -3.6444
  831MOL0     H14677   4.948   3.620   2.339  1.1720 -3.4807  1.5925
  831MOL0     H14678   4.967   3.538   2.483 -0.3964 -0.8903  0.7108
  832MOL0     O14679   5.907   8.976   5.023 -0.3459  0.1173  0.4679
  832MOL0     C14680   5.952   8.865   4.980  0.5206  0.4518 -0.1679
  832MOL0     O14681   5.881   8.750   4.942 -0.1323 -0.0981  0.1232
  832MOL0     C14682   5.750   8.763   4.928  0.0810  0.2455  0.3359
  832MOL0     C14683   5.682   8.668   5.002  0.0659  0.2938  0.4115
  832MOL0     C14684   5.543   8.675   5.003 -0.0119 -0.1226  1.1962
  832MOL0     C14685   5.470   8.770   4.932  0.4621 -0.0768  1.0839
  832MOL0     O14686   5.331   8.770   4.938  0.7888 -0.3191  0.5853
  832MOL0     C14687   5.275   8.817   4.819  0.6550 -0.2034  0.5109
  832MOL0     C14688   5.127   8.775   4.804  0.2345  0.2575 -0.0141
  832MOL0     C14689   5.127   8.623   4.767  1.3858  0.0903 -0.2199
  832MOL0     C14690   5.117   8.591   4.618 -0.2051 -0.5810  0.4728
  832MOL0     C14691   5.112   8.443   4.589  0.2143 -1.4205  0.3170
  832MOL0     C14692   5.121   8.418   4.432  0.3713  0.2207 -0.0895
  832MOL0     C14693   5.187   8.273   4.401  0.0682  0.5731 -0.3865
  832MOL0     C14694   5.161   8.231   4.255 -0.2994  1.1411 -0.1510
  832MOL0     N14695   5.235   8.103   4.236 -0.8567  0.2137 -0.6572
  832MOL0     C14696   5.194   7.985   4.184  0.9037 -0.2156  0.2290
  832MOL0     C14697   5.304   7.919   4.159 -1.3870  0.3325  0.1800
  832MOL0     C14698   5.313   7.785   4.076 -0.4434  0.1885 -0.3375
  832MOL0     C14699   5.365   7.799   3.927 -0.8326 -0.5066  0.0603
  832MOL0     C14700   5.510   7.852   3.922 -0.0779  0.3103  0.1912
  832MOL0     C14701   5.516   7.993   3.867  0.5813 -0.0514 -0.3464
  832MOL0     O14702   5.648   8.021   3.814 -0.4299  0.7661 -0.3693
  832MOL0     C14703   5.676   8.120   3.726  0.4100  0.7271 -0.0850
  832MOL0     C14704   5.806   8.144   3.694 -1.1630 -0.1597 -0.5135
  832MOL0     C14705   5.849   8.252   3.616 -0.5409  0.0530 -0.3636
  832MOL0     C14706   5.996   8.268   3.592 -0.6592 -0.6679  0.3904
  832MOL0     C14707   5.755   8.329   3.546  0.3315 -0.8504 -0.1059
  832MOL0     C14708   5.785   8.419   3.438 -0.6346 -0.1491  0.3812
  832MOL0     O14709   5.907   8.477   3.416 -0.3521  0.1048 -0.1686
  832MOL0     C14710   5.939   8.533   3.296  0.8328 -1.2998  0.3907
  832MOL0     C14711   5.873   8.645   3.251  0.9214  0.3310  1.2802
  832MOL0     C14712   5.903   8.703   3.129  0.7823 -0.0327  0.9962
  832MOL0     C14713   6.004   8.646   3.044 -0.4739 -0.6521 -0.1554
  832MOL0     O14714   6.038   8.695   2.920  0.1329  0.1800  0.5332
  832MOL0     C14715   5.931   8.759   2.847 -0.8964  0.3821 -0.3055
  832MOL0     C14716   5.950   8.772   2.690  1.1193  0.6663  0.1364
  832MOL0     C14717   5.840   8.834   2.614 -0.0200 -0.8514 -0.4083
  832MOL0     C14718   5.874   8.848   2.466 -0.4288 -0.3906  0.6152
  832MOL0     C14719   5.766   8.891   2.383 -0.2224 -0.8490  0.8534
  832MOL0     C14720   5.770   9.044   2.332  0.7137  0.2749 -0.2212
  832MOL0     C14721   5.647   9.077   2.249  0.2755 -0.6386  0.2178
  832MOL0     C14722   5.638   9.227   2.213  0.6587  0.5240  0.6319
  832MOL0    Cl14723   5.592   9.311   2.360 -0.3501 -0.1800  0.0212
  832MOL0     C14724   6.079   8.534   3.094  0.0258 -0.0517 -0.3217
  832MOL0     C14725   6.048   8.487   3.217  0.6055  0.3220  0.3945
  832MOL0     O14726   5.686   8.448   3.368 -0.1042  0.0216 -0.0959
  832MOL0     C14727   5.622   8.303   3.579 -0.1247  0.1911  0.8280
  832MOL0     C14728   5.579   8.194   3.663 -0.7071  0.6208 -0.2083
  832MOL0     N14729   5.414   7.987   4.201 -0.0839  0.0582  0.2695
  832MOL0     N14730   5.369   8.103   4.240 -0.2140 -0.0610 -0.2207
  832MOL0     C14731   5.545   8.859   4.856 -0.5580  0.0410 -0.4566
  832MOL0     C14732   5.681   8.856   4.850  0.5926  0.2160 -0.5185
  832MOL0     C14733   6.096   8.837   4.976  1.5398 -0.1732  0.4367
  832MOL0     C14734   6.136   8.704   5.004 -0.9967 -0.4745  0.6151
  832MOL0     C14735   6.278   8.679   5.016  0.2299  1.4576  0.7654
  832MOL0     C14736   6.371   8.789   5.009 -0.5162  0.8415 -0.2222
  832MOL0     O14737   6.505   8.795   5.035 -0.7985  1.0701  0.3863
  832MOL0     C14738   6.558   8.676   5.102  0.7346  0.2094 -1.5270
  832MOL0     C14739   6.714   8.682   5.108  0.3518 -0.2780 -0.1720
  832MOL0     C14740   6.772   8.784   5.198 -0.0472 -0.5761 -0.6721
  832MOL0     C14741   6.749   8.932   5.154 -0.2734 -0.3856  0.3631
  832MOL0     C14742   6.823   8.969   5.036 -0.4755  0.0248 -1.3368
  832MOL0     C14743   6.880   9.001   4.933 -0.4968  0.5023 -0.2120
  832MOL0     C14744   6.323   8.913   4.977  0.2185  0.1210  0.1606
  832MOL0     C14745   6.190   8.939   4.957  0.1252 -0.3453  0.4070
  832MOL0     C14746   6.158   9.083   4.921  0.4849 -0.2342  0.5446
  832MOL0     H14747   5.736   8.594   5.059  1.4699  0.9397 -0.0133
  832MOL0     H14748   5.488   8.603   5.063  2.2907 -0.4401  3.0671
  832MOL0     H14749   5.336   8.786   4.734  1.4873  1.4446  0.4652
  832MOL0     H14750   5.262   8.925   4.817 -2.1969 -0.4756 -1.8431
  832MOL0     H14751   5.066   8.796   4.892  0.4986 -0.9132  0.4664
  832MOL0     H14752   5.095   8.827   4.714  1.3760  0.2711 -0.4224
  832MOL0     H14753   5.226   8.590   4.798  1.7330  3.6985  3.4895
  832MOL0     H14754   5.062   8.569   4.836  4.0150 -1.7664  0.9502
  832MOL0     H14755   5.029   8.647   4.585  0.7149  1.2773  0.9875
  832MOL0     H14756   5.198   8.635   4.558  1.4126 -1.4195  1.9500
  832MOL0     H14757   5.024   8.407   4.642 -1.0899  1.1719  0.0456
  832MOL0     H14758   5.198   8.393   4.637  1.4002  1.5684  1.5264
  832MOL0     H14759   5.024   8.444   4.388 -0.5706  3.2476  3.3023
  832MOL0     H14760   5.190   8.488   4.385 -1.5293  1.2121 -1.5491
  832MOL0     H14761   5.140   8.192   4.457 -1.1956  0.1677 -1.9622
  832MOL0     H14762   5.296   8.274   4.414  0.1627  0.2074 -1.0724
  832MOL0     H14763   5.057   8.231   4.222 -0.5283 -0.9718  0.4378
  832MOL0     H14764   5.211   8.303   4.190  3.2117 -1.3916 -0.5567
  832MOL0     H14765   5.096   7.969   4.138  1.4272  0.1746 -1.0797
  832MOL0     H14766   5.211   7.749   4.061 -1.9223  2.4922  3.0578
  832MOL0     H14767   5.365   7.707   4.133 -0.0684 -0.1362 -1.1083
  832MOL0     H14768   5.359   7.703   3.876  1.0193 -0.2712 -0.6907
  832MOL0     H14769   5.296   7.868   3.878  0.1860  0.7465  0.3175
  832MOL0     H14770   5.559   7.840   4.019 -3.5904 -0.2060  2.0242
  832MOL0     H14771   5.566   7.781   3.861  0.6396  1.4477 -0.5197
  832MOL0     H14772   5.434   8.004   3.795  0.9613 -0.7821 -0.9098
  832MOL0     H14773   5.496   8.066   3.946  1.6837  0.0677 -0.1683
  832MOL0     H14774   5.879   8.077   3.738 -0.6583  1.0115  0.5106
  832MOL0     H14775   6.052   8.193   3.648 -0.4840  0.0302  1.1677
  832MOL0     H14776   6.033   8.367   3.618 -0.3116 -0.1363 -1.8903
  832MOL0     H14777   6.015   8.245   3.486 -5.6114  0.5291 -1.0252
  832MOL0     H14778   5.788   8.689   3.302 -0.4426 -3.2429  2.4240
  832MOL0     H14779   5.858   8.795   3.093  0.3473 -0.3588  0.7012
  832MOL0     H14780   5.835   8.707   2.851  0.2371 -1.9289 -1.3780
  832MOL0     H14781   5.910   8.859   2.887 -1.4633  1.0660 -2.2061
  832MOL0     H14782   6.045   8.822   2.668  0.4627  1.7121 -0.3798
  832MOL0     H14783   5.974   8.675   2.646  0.0908  0.3166  0.3348
  832MOL0     H14784   5.801   8.928   2.653 -0.6590 -0.4900 -1.8557
  832MOL0     H14785   5.756   8.764   2.620 -0.5580 -0.3328 -1.6186
  832MOL0     H14786   5.888   8.747   2.429  0.7531  0.4466 -1.3808
  832MOL0     H14787   5.965   8.908   2.450 -0.2260 -0.4838  1.3742
  832MOL0     H14788   5.755   8.826   2.296  1.9010  1.4381 -1.2831
  832MOL0     H14789   5.678   8.882   2.448 -0.8950 -1.0368 -0.0590
  832MOL0     H14790   5.864   9.065   2.279  0.8349  1.8075  0.5662
  832MOL0     H14791   5.765   9.098   2.427 -0.5694 -2.0531  1.1409
  832MOL0     H14792   5.572   9.046   2.321  0.7079  0.0252  0.9777
  832MOL0     H14793   5.648   9.019   2.156 -0.2152  1.9673 -1.5104
  832MOL0     H14794   5.559   9.243   2.139  0.3456  2.8861  1.4097
  832MOL0     H14795   5.734   9.264   2.174  0.0793 -0.2264 -1.7107
  832MOL0     H14796   6.162   8.493   3.038  0.1765  0.3080 -0.3664
  832MOL0     H14797   6.108   8.402   3.249 -1.3714 -1.8068 -1.2231
  832MOL0     H14798   5.541   8.360   3.535  1.6528  3.2629  1.2551
  832MOL0     H14799   5.478   8.155   3.664 -0.6539  0.4117  2.0808
  832MOL0     H14800   5.496   8.936   4.797  0.4610  0.2502 -1.0488
  832MOL0     H14801   5.745   8.925   4.797  1.0061  3.5700  3.7594
  832MOL0     H14802   6.072   8.618   5.022  0.3538 -1.4655  0.8757
  832MOL0     H14803   6.322   8.582   5.038  1.4250  1.6354 -0.6461
  832MOL0     H14804   6.525   8.661   5.205  3.3487  2.3530 -0.2532
  832MOL0     H14805   6.536   8.586   5.044  2.4537 -0.9427 -0.5077
  832MOL0     H14806   6.756   8.699   5.008 -0.7717 -0.4002 -0.6884
  832MOL0     H14807   6.746   8.583   5.143  0.5192 -0.4818 -0.8760
  832MOL0     H14808   6.741   8.775   5.302  3.2865 -1.5371  0.3758
  832MOL0     H14809   6.881   8.767   5.197  0.1475  0.6040 -0.8421
  832MOL0     H14810   6.792   8.996   5.232  4.6726  1.4271 -3.3692
  832MOL0     H14811   6.645   8.966   5.142 -0.8227 -2.1308 -0.0903
  832MOL0     H14812   6.929   9.047   4.849  1.6559  1.5605  1.5325
  832MOL0     H14813   6.385   9.002   4.971  2.1565 -1.2337 -0.5436
  832MOL0     H14814   6.162   9.141   5.014  1.7354  0.4664  0.0761
  832MOL0     H14815   6.237   9.131   4.864 -0.9132  0.7536 -0.6378
  832MOL0     H14816   6.059   9.088   4.875  0.1301 -3.2710  0.7954
  833MOL0     O14817   9.162   6.564   4.895 -0.6090 -0.3892 -0.1347
  833MOL0     C14818   9.202   6.677   4.875  0.1997 -0.9614  0.1626
  833MOL0     O14819   9.213   6.739   4.758 -0.3892  0.1605  0.2183
  833MOL0     C14820   9.140   6.688   4.652 -0.0528 -0.6578 -0.1396
  833MOL0     C14821   9.000   6.667   4.658 -0.5658 -0.5565 -0.9551
  833MOL0     C14822   8.925   6.637   4.545 -0.2852 -1.0796 -0.0444
  833MOL0     C14823   8.998   6.608   4.424  0.1714  0.0100 -0.9455
  833MOL0     O14824   8.917   6.556   4.325 -0.5963 -0.1150  0.9270
  833MOL0     C14825   8.904   6.627   4.197  0.9840 -0.4286 -0.6124
  833MOL0     C14826   8.837   6.757   4.228 -0.0221  0.4203  0.8155
  833MOL0     C14827   8.812   6.841   4.107  0.6120  0.1715  0.2664
  833MOL0     C14828   8.936   6.859   4.017 -0.0844  0.8713  0.2255
  833MOL0     C14829   8.900   6.949   3.904  0.5432 -0.2691 -0.0863
  833MOL0     C14830   8.918   7.095   3.940  1.3911 -0.2408  0.1349
  833MOL0     C14831   8.897   7.181   3.816  0.4259  0.4719 -0.3159
  833MOL0     C14832   8.932   7.320   3.849 -0.5053 -1.2870  1.1325
  833MOL0     N14833   8.859   7.380   3.962 -0.6775  0.8164 -0.5192
  833MOL0     C14834   8.919   7.438   4.070  0.0731  0.0106 -0.1611
  833MOL0     C14835   8.806   7.478   4.147  0.0026  0.1313 -0.4339
  833MOL0     C14836   8.813   7.533   4.290  0.5972 -0.5573 -0.3536
  833MOL0     C14837   8.835   7.686   4.290 -0.1667 -1.2158  0.1653
  833MOL0     C14838   8.815   7.731   4.430  0.5430 -0.3286  0.0611
  833MOL0     C14839   8.819   7.882   4.427  0.1790 -0.0067  0.0509
  833MOL0     O14840   8.937   7.936   4.371 -0.5600 -0.1259  0.2202
  833MOL0     C14841   8.960   8.062   4.337 -0.6864 -0.1445  0.1559
  833MOL0     C14842   9.063   8.084   4.254  0.0567  0.6195  1.3496
  833MOL0     C14843   9.098   8.220   4.210 -0.0736 -0.7320 -0.2955
  833MOL0     C14844   9.215   8.241   4.115 -0.2194 -0.6479  1.0719
  833MOL0     C14845   9.031   8.334   4.270  0.2705 -0.5670  0.0258
  833MOL0     C14846   9.069   8.479   4.253 -0.1035  0.7346  0.2256
  833MOL0     O14847   9.011   8.565   4.346  0.8898  0.3947  0.6102
  833MOL0     C14848   9.024   8.695   4.318 -0.0802 -0.4427 -0.5777
  833MOL0     C14849   9.139   8.755   4.350 -0.1692 -0.1413  0.0948
  833MOL0     C14850   9.170   8.876   4.284  0.1152 -0.8402 -0.6826
  833MOL0     C14851   9.077   8.945   4.203  0.5981  0.5393  1.1282
  833MOL0     O14852   9.106   9.051   4.120 -0.3333 -0.6723  0.1777
  833MOL0     C14853   9.018   9.159   4.145  0.4276 -0.9497  0.9511
  833MOL0     C14854   9.075   9.288   4.077 -0.0156  0.8417 -0.0338
  833MOL0     C14855   8.954   9.399   4.078  0.3968  1.0051 -0.0281
  833MOL0     C14856   9.005   9.547   4.099  0.3130  0.1037 -0.2965
  833MOL0     C14857   8.898   9.651   4.080 -0.3880 -1.3097 -0.0912
  833MOL0     C14858   8.944   9.785   4.042  0.5945 -0.4871 -0.2886
  833MOL0     C14859   8.839   9.887   4.011  1.3069  0.2837  0.1324
  833MOL0     C14860   8.797   9.958   4.139 -0.4029 -0.4915 -0.1776
  833MOL0    Cl14861   8.662  10.069   4.119  0.0950  0.2425  0.1197
  833MOL0     C14862   8.958   8.880   4.171  0.2001 -0.0347 -0.5552
  833MOL0     C14863   8.930   8.762   4.232  0.8177 -0.7297 -0.8167
  833MOL0     O14864   9.127   8.516   4.148  1.1320  0.1967 -0.0447
  833MOL0     C14865   8.921   8.301   4.365 -0.2293  0.1468  0.1337
  833MOL0     C14866   8.883   8.168   4.382  0.0999  0.0574 -0.3349
  833MOL0     N14867   8.686   7.457   4.075 -0.5525  0.0394 -0.2636
  833MOL0     N14868   8.724   7.390   3.966  0.2962  0.2832  0.1249
  833MOL0     C14869   9.135   6.623   4.415 -0.6369 -0.0266  0.1073
  833MOL0     C14870   9.207   6.669   4.530 -0.0307  0.9574 -0.1484
  833MOL0     C14871   9.239   6.761   4.995  0.3648  0.0073  0.4217
  833MOL0     C14872   9.297   6.891   4.968 -0.3937  0.9180 -0.1008
  833MOL0     C14873   9.324   6.976   5.076 -0.2033 -1.0024  0.0437
  833MOL0     C14874   9.304   6.948   5.209  0.3981 -0.0750  0.5801
  833MOL0     O14875   9.329   7.039   5.313  0.0156 -0.1637 -0.0627
  833MOL0     C14876   9.325   6.991   5.452  0.7160 -0.5300 -0.3117
  833MOL0     C14877   9.413   7.083   5.545 -0.4166  0.3772 -0.0964
  833MOL0     C14878   9.371   7.232   5.540 -0.7502 -0.0107  0.4189
  833MOL0     C14879   9.460   7.309   5.438  0.0212  0.2885 -0.4961
  833MOL0     C14880   9.444   7.457   5.465  0.2890 -0.6006  0.3870
  833MOL0     C14881   9.427   7.580   5.474 -1.0255  0.0752  0.2414
  833MOL0     C14882   9.260   6.812   5.233  0.2002 -0.2305  0.0453
  833MOL0     C14883   9.219   6.728   5.131 -0.8275 -0.6666 -0.2364
  833MOL0     C14884   9.151   6.600   5.184 -0.1531  0.6496  0.4970
  833MOL0     H14885   8.963   6.678   4.759 -1.8845 -0.8838 -1.3742
  833MOL0     H14886   8.827   6.592   4.559  0.5328 -1.9873  4.3395
  833MOL0     H14887   8.848   6.563   4.128  0.6048 -0.2726 -0.4502
  833MOL0     H14888   9.003   6.641   4.151  1.4020 -0.5597  0.2210
  833MOL0     H14889   8.744   6.748   4.284 -0.4722  1.5900  0.3073
  833MOL0     H14890   8.908   6.809   4.293 -1.6334  0.7069  2.4242
  833MOL0     H14891   8.737   6.787   4.049  2.2906 -1.3209 -0.6276
  833MOL0     H14892   8.764   6.933   4.142  2.0681  0.9440  0.3059
  833MOL0     H14893   9.024   6.891   4.075 -1.1646 -0.0266  2.4809
  833MOL0     H14894   8.966   6.761   3.978 -2.3316  0.7300 -1.2798
  833MOL0     H14895   8.806   6.931   3.853  0.7792  0.5701 -0.8382
  833MOL0     H14896   8.974   6.923   3.827  1.2141 -0.0410  0.4695
  833MOL0     H14897   8.839   7.127   4.009  1.0413 -1.2673  0.2369
  833MOL0     H14898   9.007   7.117   3.999 -0.5688  2.2678  2.3830
  833MOL0     H14899   8.793   7.175   3.783  0.8978  0.7936 -1.9688
  833MOL0     H14900   8.952   7.142   3.730 -0.0042  0.5819 -0.6412
  833MOL0     H14901   9.039   7.326   3.874 -0.5333  1.6030  0.8763
  833MOL0     H14902   8.916   7.381   3.759  0.3177  1.3250  2.6378
  833MOL0     H14903   9.022   7.434   4.105 -0.2066 -3.3051  0.6018
  833MOL0     H14904   8.910   7.499   4.329 -0.1571 -1.2580  0.9867
  833MOL0     H14905   8.730   7.491   4.347 -0.4453 -1.5637 -2.5011
  833MOL0     H14906   8.935   7.708   4.251 -1.0164  0.4145 -1.2105
  833MOL0     H14907   8.767   7.733   4.219 -0.2200 -0.7909  0.4987
  833MOL0     H14908   8.715   7.708   4.467  0.3614  1.1294  0.5603
  833MOL0     H14909   8.879   7.688   4.508  0.6549  1.0136  0.7438
  833MOL0     H14910   8.729   7.923   4.381  0.4090  0.6510  0.1767
  833MOL0     H14911   8.810   7.919   4.530 -1.8604 -2.2105  0.7564
  833MOL0     H14912   9.122   8.002   4.215  0.6062  2.9834 -3.5033
  833MOL0     H14913   9.193   8.276   4.013  2.0848 -1.1912  0.3437
  833MOL0     H14914   9.260   8.145   4.092  1.9006  0.7154 -0.9376
  833MOL0     H14915   9.294   8.300   4.163 -2.2266  1.8858  1.5200
  833MOL0     H14916   9.212   8.718   4.422  0.7514 -1.4112 -1.4195
  833MOL0     H14917   9.258   8.936   4.303 -1.3186  1.0430  0.3258
  833MOL0     H14918   8.918   9.127   4.113 -0.2172 -0.9074  2.7867
  833MOL0     H14919   9.012   9.193   4.249 -2.3558  1.0396  0.2518
  833MOL0     H14920   9.158   9.328   4.137  1.1213 -0.6303 -0.5531
  833MOL0     H14921   9.100   9.278   3.971 -0.8394 -1.5137 -0.0641
  833MOL0     H14922   8.884   9.374   4.157  2.0675 -0.7458  0.9893
  833MOL0     H14923   8.891   9.374   3.992  0.7824  0.3785 -0.1379
  833MOL0     H14924   9.084   9.572   4.027  2.0176 -0.3025  1.3429
  833MOL0     H14925   9.047   9.552   4.200  0.6354 -0.5761 -0.3894
  833MOL0     H14926   8.840   9.630   3.989 -0.1767  0.3926 -0.6540
  833MOL0     H14927   8.830   9.652   4.167 -0.3170 -0.2068 -0.0329
  833MOL0     H14928   9.014   9.784   3.958  1.3166  0.4768  0.2834
  833MOL0     H14929   9.003   9.825   4.124 -0.2180  0.1585 -0.0037
  833MOL0     H14930   8.749   9.844   3.966 -0.2151 -0.2514  3.4196
  833MOL0     H14931   8.884   9.958   3.941 -1.2335  1.8517 -0.0357
  833MOL0     H14932   8.890  10.011   4.163 -0.6030  0.3407 -1.1731
  833MOL0     H14933   8.774   9.892   4.224 -1.7692  0.6502  0.3836
  833MOL0     H14934   8.888   8.908   4.093 -1.3089  2.1770  1.4351
  833MOL0     H14935   8.848   8.700   4.197 -0.8773 -0.8418  2.8625
  833MOL0     H14936   8.863   8.380   4.412 -1.2624  0.8101 -2.1051
  833MOL0     H14937   8.794   8.137   4.434  0.5006  1.8378  1.5565
  833MOL0     H14938   9.190   6.606   4.323  1.2564  2.9139  0.5681
  833MOL0     H14939   9.308   6.707   4.521  0.9355 -1.0584  1.2345
  833MOL0     H14940   9.313   6.921   4.865  1.1194 -0.5104 -0.3242
  833MOL0     H14941   9.356   7.078   5.058  1.6396 -1.4987  0.2882
  833MOL0     H14942   9.219   6.989   5.478  0.4175 -1.4662 -1.4746
  833MOL0     H14943   9.371   6.892   5.455  0.0518 -0.8184  1.7323
  833MOL0     H14944   9.515   7.061   5.511 -1.0334 -1.9228 -0.6229
  833MOL0     H14945   9.414   7.043   5.647  1.3074 -0.0323 -0.2419
  833MOL0     H14946   9.269   7.236   5.501 -0.3604  1.4818 -0.5106
  833MOL0     H14947   9.372   7.269   5.643  0.6655 -2.8366  1.5289
  833MOL0     H14948   9.442   7.277   5.335  0.0926 -0.6178 -0.2285
  833MOL0     H14949   9.567   7.295   5.452  0.0483 -2.4674 -2.6055
  833MOL0     H14950   9.413   7.686   5.477 -1.0553  0.0847 -0.1558
  833MOL0     H14951   9.263   6.780   5.337  3.5748  0.4962  0.2786
  833MOL0     H14952   9.187   6.512   5.129  0.0269 -0.9061  2.9243
  833MOL0     H14953   9.180   6.581   5.288  0.0530 -1.0724  0.1678
  833MOL0     H14954   9.042   6.593   5.182 -0.0565 -1.6592 -0.5383
  834MOL0     O14955   8.288   9.695   5.065 -0.5775  0.2381  0.3583
  834MOL0     C14956   8.330   9.740   5.172 -0.3497 -0.0083  0.0646
  834MOL0     O14957   8.262   9.733   5.284 -0.7923  0.4800 -0.4061
  834MOL0     C14958   8.199   9.612   5.299 -0.6470 -0.7809  0.1652
  834MOL0     C14959   8.083   9.578   5.231 -0.6358  0.8689  0.2626
  834MOL0     C14960   8.002   9.473   5.273  0.4104  0.5019  1.3258
  834MOL0     C14961   8.050   9.388   5.372  0.2444  0.1044 -0.0476
  834MOL0     O14962   7.969   9.297   5.429 -0.9069  0.6409 -0.0757
  834MOL0     C14963   7.850   9.350   5.483 -0.9325 -1.2074  0.4396
  834MOL0     C14964   7.854   9.313   5.629 -0.4191  0.6678  0.6704
  834MOL0     C14965   7.744   9.386   5.694 -0.0352  0.2593  0.6212
  834MOL0     C14966   7.706   9.345   5.833  0.7465  0.8256 -0.1560
  834MOL0     C14967   7.622   9.450   5.907  0.7320 -0.7310  0.0970
  834MOL0     C14968   7.581   9.391   6.046 -0.3626 -0.5879 -0.3505
  834MOL0     C14969   7.466   9.468   6.105 -0.1530  0.3929 -0.4719
  834MOL0     C14970   7.481   9.497   6.261 -0.4476  0.1370 -0.0543
  834MOL0     N14971   7.494   9.387   6.355 -0.3755  0.1399 -0.6158
  834MOL0     C14972   7.469   9.383   6.491 -0.3319  0.4048 -1.4140
  834MOL0     C14973   7.488   9.254   6.529 -0.1797  0.3077 -0.8812
  834MOL0     C14974   7.473   9.195   6.667 -0.3700 -0.0439  1.0199
  834MOL0     C14975   7.330   9.166   6.709  0.9581  0.1856  0.7610
  834MOL0     C14976   7.247   9.067   6.608 -0.0532 -0.6548  0.4113
  834MOL0     C14977   7.315   8.939   6.590  0.3237  0.6370 -0.3456
  834MOL0     O14978   7.256   8.855   6.493  0.2401  0.4745 -0.0279
  834MOL0     C14979   7.317   8.731   6.474  0.1603  0.1496 -0.4206
  834MOL0     C14980   7.419   8.670   6.543 -0.6702  0.8100  0.0379
  834MOL0     C14981   7.454   8.538   6.512 -0.1844 -0.3510 -0.1559
  834MOL0     C14982   7.555   8.478   6.617  0.2517 -0.2800 -0.1252
  834MOL0     C14983   7.387   8.470   6.401 -0.4991 -0.8045 -0.2283
  834MOL0     C14984   7.419   8.333   6.370 -1.6897  0.4744  0.2551
  834MOL0     O14985   7.455   8.245   6.470 -0.1581  0.2068 -0.2325
  834MOL0     C14986   7.504   8.123   6.423 -0.6453  0.0358 -0.1607
  834MOL0     C14987   7.646   8.110   6.383 -0.1682  0.4812  0.3357
  834MOL0     C14988   7.695   7.987   6.347 -0.0394 -0.5132 -0.3048
  834MOL0     C14989   7.613   7.872   6.361  0.1196 -0.3959 -0.8561
  834MOL0     O14990   7.658   7.744   6.351 -0.0849 -0.4939 -0.6153
  834MOL0     C14991   7.785   7.726   6.351 -0.0431 -0.1416 -0.3768
  834MOL0     C14992   7.814   7.579   6.304 -0.5368 -0.8021 -0.0798
  834MOL0     C14993   7.743   7.465   6.365 -0.2040  0.3258 -0.5146
  834MOL0     C14994   7.815   7.330   6.347  0.0339 -0.4539  0.5246
  834MOL0     C14995   7.733   7.208   6.397  0.4134  0.2957 -0.5148
  834MOL0     C14996   7.793   7.075   6.350 -0.6247 -0.2266 -0.8146
  834MOL0     C14997   7.731   6.952   6.416  0.4829  0.7135 -0.2533
  834MOL0     C14998   7.580   6.949   6.410 -0.6634 -0.1120 -0.6505
  834MOL0    Cl14999   7.518   6.792   6.446  0.0077  0.0101  0.6071
  834MOL0     C15000   7.482   7.885   6.407 -1.0607  0.2011  0.5566
  834MOL0     C15001   7.427   8.007   6.445 -0.2575 -1.0359 -0.1321
  834MOL0     O15002   7.404   8.305   6.254 -0.3297  0.4709 -0.0008
  834MOL0     C15003   7.296   8.535   6.328  0.5018  0.1657 -0.6440
  834MOL0     C15004   7.255   8.662   6.370  0.9191  0.2367  0.5115
  834MOL0     N15005   7.536   9.182   6.419 -0.1394  0.5277  0.2634
  834MOL0     N15006   7.542   9.264   6.322 -0.5594  0.5127 -0.4388
  834MOL0     C15007   8.172   9.411   5.431  0.5859  0.7645 -0.0346
  834MOL0     C15008   8.248   9.520   5.394 -0.3005  0.4270 -0.4647
  834MOL0     C15009   8.433   9.853   5.166 -0.1221  0.3324  0.4207
  834MOL0     C15010   8.463   9.902   5.039  0.2164 -0.7784 -0.0459
  834MOL0     C15011   8.549  10.013   5.024 -0.2604  1.1336  0.7600
  834MOL0     C15012   8.624  10.054   5.134 -1.5348  0.0182 -0.0632
  834MOL0     O15013   8.723  10.153   5.133  0.4002  0.7758 -0.2116
  834MOL0     C15014   8.817  10.147   5.024 -0.2443 -0.1370 -1.0881
  834MOL0     C15015   8.860  10.289   4.988 -0.1447  0.0532  0.0262
  834MOL0     C15016   8.945  10.362   5.101  0.5977 -0.1244  0.1406
  834MOL0     C15017   9.011  10.483   5.039 -0.2920 -0.0349 -0.1263
  834MOL0     C15018   9.123  10.522   5.118 -0.1751  0.0336  0.4053
  834MOL0     C15019   9.217  10.560   5.183 -0.5627 -0.3418  0.8775
  834MOL0     C15020   8.603   9.990   5.256  0.4182 -0.2078  1.0607
  834MOL0     C15021   8.505   9.894   5.281 -1.0600  0.1434  0.4474
  834MOL0     C15022   8.466   9.860   5.421  0.0925  0.6743  0.2498
  834MOL0     H15023   8.051   9.653   5.159 -0.6523  1.8549  1.2812
  834MOL0     H15024   7.902   9.466   5.233  0.9987  2.7455 -0.7104
  834MOL0     H15025   7.758   9.314   5.436 -0.8070 -1.6475  0.5333
  834MOL0     H15026   7.841   9.459   5.475 -0.4383 -1.2461 -0.9957
  834MOL0     H15027   7.843   9.204   5.635 -0.5445  0.3819 -2.8102
  834MOL0     H15028   7.955   9.329   5.666  1.3568 -1.4012 -2.7558
  834MOL0     H15029   7.766   9.493   5.702 -0.0346  0.1258  2.7912
  834MOL0     H15030   7.653   9.374   5.633  0.3471  0.8210 -0.0863
  834MOL0     H15031   7.658   9.247   5.831  2.6254 -0.1373 -0.2371
  834MOL0     H15032   7.800   9.343   5.891  1.0618  0.1849 -0.6763
  834MOL0     H15033   7.524   9.473   5.864  0.4767  0.4523  1.2485
  834MOL0     H15034   7.671   9.547   5.920 -3.4888  2.1669 -2.8225
  834MOL0     H15035   7.551   9.288   6.026  0.9943 -0.8370 -1.2221
  834MOL0     H15036   7.671   9.390   6.108  1.5483 -0.7811 -2.9626
  834MOL0     H15037   7.376   9.408   6.087 -0.3602  0.6186 -0.2066
  834MOL0     H15038   7.446   9.565   6.058  0.9872  1.2130  0.6844
  834MOL0     H15039   7.569   9.559   6.279 -0.0637 -1.0945  2.7354
  834MOL0     H15040   7.387   9.544   6.289 -0.6369 -1.1148  1.5675
  834MOL0     H15041   7.434   9.462   6.557  1.3102 -1.4512  1.9550
  834MOL0     H15042   7.509   9.261   6.745 -1.6298 -1.3111  2.7482
  834MOL0     H15043   7.538   9.106   6.663 -0.7809 -0.3624  1.3617
  834MOL0     H15044   7.327   9.134   6.813  2.0173  0.0646  0.7693
  834MOL0     H15045   7.271   9.257   6.715  1.5142  0.6655 -0.5513
  834MOL0     H15046   7.147   9.050   6.648 -0.6139  0.0974 -0.6329
  834MOL0     H15047   7.236   9.116   6.511  1.4318  0.9677  0.9929
  834MOL0     H15048   7.412   8.962   6.546  1.3592 -1.4356  0.7132
  834MOL0     H15049   7.330   8.883   6.683 -1.6279 -1.5345 -1.2454
  834MOL0     H15050   7.472   8.712   6.628 -1.2094  1.5470  0.0231
  834MOL0     H15051   7.515   8.386   6.661  0.7592 -0.4756 -0.0674
  834MOL0     H15052   7.575   8.551   6.695 -0.4945  0.7238 -0.8578
  834MOL0     H15053   7.645   8.435   6.571  0.9970 -2.3068  2.9492
  834MOL0     H15054   7.702   8.202   6.371 -0.8317  0.9775  0.9468
  834MOL0     H15055   7.792   7.979   6.300  0.8227  1.2636  1.0411
  834MOL0     H15056   7.846   7.790   6.287  0.8040  1.2485  1.7058
  834MOL0     H15057   7.829   7.726   6.451 -0.9969 -2.9200  0.1288
  834MOL0     H15058   7.795   7.568   6.197  2.1333  0.0731 -0.7077
  834MOL0     H15059   7.920   7.557   6.323 -0.8357  0.5038  4.3161
  834MOL0     H15060   7.638   7.462   6.335 -0.4345 -1.4834  0.3062
  834MOL0     H15061   7.738   7.491   6.471  0.5179  0.2662 -0.4613
  834MOL0     H15062   7.906   7.319   6.405  0.6650 -1.7730 -0.6512
  834MOL0     H15063   7.843   7.327   6.241 -1.0832  0.1180  0.1904
  834MOL0     H15064   7.728   7.222   6.505 -0.2344 -1.5647 -0.2722
  834MOL0     H15065   7.628   7.209   6.365  0.3579  0.7064 -0.3182
  834MOL0     H15066   7.896   7.082   6.388 -1.2020 -1.1409  1.0361
  834MOL0     H15067   7.796   7.073   6.241 -3.1531  4.5185 -1.2700
  834MOL0     H15068   7.769   6.945   6.518  1.1429  0.3016 -0.5201
  834MOL0     H15069   7.766   6.862   6.364 -0.2709 -0.4423  1.1826
  834MOL0     H15070   7.555   6.963   6.304  0.6950 -4.2365 -1.6954
  834MOL0     H15071   7.540   7.031   6.470 -0.3009 -1.8151  2.0609
  834MOL0     H15072   7.428   7.793   6.424  0.9343 -1.3525 -0.9012
  834MOL0     H15073   7.324   8.019   6.477 -0.5955  2.3982 -2.0183
  834MOL0     H15074   7.245   8.488   6.245  1.6943  0.5157 -1.5947
  834MOL0     H15075   7.166   8.707   6.327  0.4376 -1.6014 -0.5344
  834MOL0     H15076   8.219   9.350   5.507 -2.6488 -0.6722  0.9937
  834MOL0     H15077   8.335   9.550   5.451 -0.8701  0.0575  0.6368
  834MOL0     H15078   8.420   9.876   4.943 -0.8754  1.8482 -0.3449
  834MOL0     H15079   8.572  10.054   4.926  1.1881 -1.3073 -0.0045
  834MOL0     H15080   8.905  10.095   5.061 -1.1717  1.8373  4.9337
  834MOL0     H15081   8.784  10.097   4.932  1.1609 -0.6537 -1.3401
  834MOL0     H15082   8.775  10.354   4.964  1.9366  2.8809 -0.1900
  834MOL0     H15083   8.915  10.287   4.893 -2.3347  0.6881 -1.3401
  834MOL0     H15084   8.885  10.385   5.189 -0.0210  2.1654 -0.8162
  834MOL0     H15085   9.017  10.288   5.137 -1.3136 -1.9351  0.3984
  834MOL0     H15086   8.939  10.564   5.046 -1.6588 -1.3002  1.3662
  834MOL0     H15087   9.036  10.457   4.936 -2.2657 -1.4910 -0.2908
  834MOL0     H15088   9.302  10.610   5.225 -0.5541  2.9726 -2.5463
  834MOL0     H15089   8.655  10.017   5.348 -0.8415 -0.8828  2.0086
  834MOL0     H15090   8.365   9.899   5.435 -0.2471  0.3472 -1.1690
  834MOL0     H15091   8.472   9.752   5.436 -1.5697  0.8226  2.3688
  834MOL0     H15092   8.536   9.903   5.494 -1.1479  2.1275  0.6268
  835MOL0     O15093   2.188   0.419   5.508 -0.1339  0.2928 -0.3129
  835MOL0     C15094   2.270   0.365   5.573 -0.3287  0.0502 -0.4639
  835MOL0     O15095   2.395   0.413   5.585 -0.3762 -0.5372 -0.5370
  835MOL0     C15096   2.436   0.501   5.483 -0.0034  1.1690 -0.0922
  835MOL0     C15097   2.542   0.461   5.412 -0.3662  0.3178  0.7666
  835MOL0     C15098   2.601   0.551   5.316  0.6120 -0.7228  0.3466
  835MOL0     C15099   2.575   0.687   5.320 -0.7533 -0.7036  0.2144
  835MOL0     O15100   2.647   0.775   5.249  0.5055  0.6158  0.5032
  835MOL0     C15101   2.793   0.768   5.257 -0.6471 -0.2174  0.1860
  835MOL0     C15102   2.865   0.755   5.126 -0.1525  0.0614  0.0814
  835MOL0     C15103   2.819   0.835   5.003  0.6343 -1.0465  0.4819
  835MOL0     C15104   2.908   0.848   4.876  0.0222 -0.0718 -0.4998
  835MOL0     C15105   3.036   0.944   4.909  0.2439  0.5594 -0.2828
  835MOL0     C15106   3.121   0.997   4.786 -0.0427  0.5306  0.1278
  835MOL0     C15107   3.221   1.104   4.832  0.2685 -0.1788 -0.0228
  835MOL0     C15108   3.301   1.057   4.951  0.2693  0.4558  0.8117
  835MOL0     N15109   3.412   1.143   4.996 -0.6250  0.1836 -0.3225
  835MOL0     C15110   3.545   1.112   4.991  0.3703  0.8909  0.1146
  835MOL0     C15111   3.611   1.218   5.050 -0.0399  0.0873 -0.1736
  835MOL0     C15112   3.759   1.231   5.072  0.7241  0.0156  0.2769
  835MOL0     C15113   3.807   1.126   5.175 -0.1715  0.2403  0.7994
  835MOL0     C15114   3.953   1.126   5.218 -0.4744 -0.2703  1.0259
  835MOL0     C15115   3.986   1.259   5.292  0.5481  0.3291 -0.1445
  835MOL0     O15116   4.091   1.232   5.391 -0.1641  0.6943  0.0581
  835MOL0     C15117   4.223   1.230   5.345 -0.1311  0.8202  0.2033
  835MOL0     C15118   4.259   1.252   5.212 -0.5027  0.6609  0.7942
  835MOL0     C15119   4.392   1.247   5.178  0.0413 -0.5741  0.1491
  835MOL0     C15120   4.431   1.270   5.032 -0.0871  0.5150  0.7872
  835MOL0     C15121   4.499   1.227   5.273  0.1450 -0.5968  0.3798
  835MOL0     C15122   4.651   1.234   5.255  0.8550 -0.4093  0.4019
  835MOL0     O15123   4.705   1.322   5.174 -0.1585  0.4572 -0.4805
  835MOL0     C15124   4.837   1.326   5.148 -0.0037  0.0731 -0.3465
  835MOL0     C15125   4.938   1.283   5.242 -0.5586 -0.7027 -0.1992
  835MOL0     C15126   5.074   1.296   5.197  0.1382 -0.0995 -0.3809
  835MOL0     C15127   5.099   1.342   5.066  0.2110  0.6261  0.4886
  835MOL0     O15128   5.226   1.364   5.032  0.0262  0.7191  0.3794
  835MOL0     C15129   5.264   1.346   4.892 -0.5895 -0.1127  0.3391
  835MOL0     C15130   5.414   1.331   4.889  0.1933  0.8623  0.5791
  835MOL0     C15131   5.490   1.369   4.759  0.2808  0.5469 -0.0415
  835MOL0     C15132   5.512   1.518   4.756  0.2814  0.2292 -0.2175
  835MOL0     C15133   5.530   1.566   4.613 -0.5212 -0.1899  0.5062
  835MOL0     C15134   5.668   1.526   4.547  0.1647 -0.7446  1.0339
  835MOL0     C15135   5.682   1.540   4.394 -0.3008  0.7097  0.3781
  835MOL0     C15136   5.689   1.687   4.352 -0.1457  0.1678  0.3601
  835MOL0    Cl15137   5.743   1.691   4.181 -0.5951 -0.3428 -0.1541
  835MOL0     C15138   4.994   1.385   4.977 -1.2642 -0.0433 -0.2757
  835MOL0     C15139   4.865   1.377   5.021 -0.1328 -0.5536  0.6019
  835MOL0     O15140   4.708   1.147   5.323  0.7462 -0.0448 -0.4199
  835MOL0     C15141   4.457   1.207   5.400 -0.9286 -0.2464  0.1204
  835MOL0     C15142   4.327   1.210   5.437 -0.5327 -0.2222 -0.5372
  835MOL0     N15143   3.516   1.313   5.086 -0.9884  1.1449  0.8365
  835MOL0     N15144   3.403   1.274   5.039  0.3600 -0.1044 -0.0234
  835MOL0     C15145   2.457   0.727   5.378  0.0390 -0.0186 -0.4659
  835MOL0     C15146   2.389   0.636   5.462  0.2225  0.2249 -0.5954
  835MOL0     C15147   2.245   0.254   5.671 -0.5034  0.0663 -0.4000
  835MOL0     C15148   2.332   0.218   5.774  0.5717 -0.0674  0.7495
  835MOL0     C15149   2.314   0.105   5.862  0.9939 -1.4250 -0.2879
  835MOL0     C15150   2.212   0.022   5.844  0.5187 -0.4138  0.4917
  835MOL0     O15151   2.213  -0.092   5.923  0.3124 -0.1957 -0.4294
  835MOL0     C15152   2.115  -0.202   5.907 -0.8321 -0.6398 -0.1149
  835MOL0     C15153   1.967  -0.172   5.949 -0.1656  0.0979 -0.2180
  835MOL0     C15154   1.941  -0.121   6.096 -0.3022  0.2691  0.4994
  835MOL0     C15155   1.810  -0.051   6.136 -0.6863  0.5964  0.4906
  835MOL0     C15156   1.691  -0.136   6.142  0.2064  0.3565  0.9596
  835MOL0     C15157   1.581  -0.190   6.142  0.0182  0.1402 -0.2132
  835MOL0     C15158   2.114   0.061   5.758  0.2170 -0.2383  0.0865
  835MOL0     C15159   2.133   0.173   5.665  0.3802 -0.1372 -0.3294
  835MOL0     C15160   2.020   0.198   5.568 -0.1569  0.8719  0.2143
  835MOL0     H15161   2.590   0.365   5.430 -2.2100 -0.4024  2.1158
  835MOL0     H15162   2.678   0.495   5.263  0.8257 -1.6970  1.6338
  835MOL0     H15163   2.819   0.677   5.311 -1.1344 -0.1022  0.6321
  835MOL0     H15164   2.830   0.853   5.316 -3.0971  0.6306  0.6321
  835MOL0     H15165   2.971   0.778   5.138  0.4741 -1.6078 -1.7366
  835MOL0     H15166   2.874   0.652   5.092 -0.8303  0.3159 -0.9193
  835MOL0     H15167   2.722   0.815   4.958  1.2261  1.6123 -2.3084
  835MOL0     H15168   2.806   0.937   5.041 -4.2520 -1.1493 -0.2860
  835MOL0     H15169   2.947   0.751   4.844 -1.6942 -0.6836 -0.8970
  835MOL0     H15170   2.845   0.877   4.790 -0.1844  1.8535  0.2531
  835MOL0     H15171   3.095   0.882   4.977 -0.2836 -0.9706 -1.1776
  835MOL0     H15172   2.989   1.029   4.960  0.1717  0.5086 -0.2654
  835MOL0     H15173   3.191   0.922   4.747  1.0405  1.9637 -0.8133
  835MOL0     H15174   3.052   1.025   4.706  0.8078  0.9832 -0.4662
  835MOL0     H15175   3.185   1.202   4.864 -0.3141 -1.6375  4.4102
  835MOL0     H15176   3.290   1.123   4.749  0.7025 -1.4850  0.0042
  835MOL0     H15177   3.235   1.053   5.037  1.5981  1.3775  1.9176
  835MOL0     H15178   3.343   0.956   4.940  4.2105  2.0465 -0.5808
  835MOL0     H15179   3.591   1.016   4.969 -1.0081  0.4366 -0.9219
  835MOL0     H15180   3.780   1.330   5.115  1.0386  0.5223 -0.9615
  835MOL0     H15181   3.814   1.217   4.978 -1.8194  0.5084 -1.4035
  835MOL0     H15182   3.741   1.140   5.260  1.4465  1.0709  1.9783
  835MOL0     H15183   3.804   1.031   5.121  0.7003  1.3710 -1.4063
  835MOL0     H15184   3.957   1.047   5.293  2.0292  0.5787  1.8687
  835MOL0     H15185   4.032   1.105   5.146 -0.9235  1.3778 -0.0152
  835MOL0     H15186   4.025   1.333   5.222 -2.1814  2.1647  0.1121
  835MOL0     H15187   3.903   1.298   5.352  1.1379  0.4429  0.6232
  835MOL0     H15188   4.199   1.288   5.129  2.3152  1.9669 -0.7978
  835MOL0     H15189   4.475   1.370   5.039 -0.1521  0.4487  2.8891
  835MOL0     H15190   4.344   1.264   4.966  0.1794 -2.6485  0.5831
  835MOL0     H15191   4.510   1.201   4.999 -1.1669 -0.8507  0.9565
  835MOL0     H15192   4.923   1.256   5.346  0.7858  0.6784  0.3973
  835MOL0     H15193   5.159   1.253   5.248 -1.6474 -3.5845  0.0129
  835MOL0     H15194   5.232   1.253   4.845  1.7089 -0.3927 -0.7730
  835MOL0     H15195   5.233   1.423   4.820 -1.4273 -1.3642 -0.6754
  835MOL0     H15196   5.456   1.404   4.959 -3.6947  1.9798  2.0327
  835MOL0     H15197   5.444   1.227   4.902  2.7236  1.4912  0.3266
  835MOL0     H15198   5.421   1.335   4.682 -4.7526 -3.6054  5.4474
  835MOL0     H15199   5.581   1.310   4.745 -0.1718  0.3526 -2.6341
  835MOL0     H15200   5.592   1.551   4.822 -0.8016 -0.5627  1.5707
  835MOL0     H15201   5.423   1.579   4.776 -0.5722 -0.3745 -1.9587
  835MOL0     H15202   5.451   1.516   4.556  0.7554 -2.3000  0.4758
  835MOL0     H15203   5.528   1.675   4.617  1.9871  0.2390 -3.8445
  835MOL0     H15204   5.680   1.421   4.575  1.7285 -1.3015 -1.3394
  835MOL0     H15205   5.748   1.576   4.603  0.3356  1.5804 -1.1072
  835MOL0     H15206   5.596   1.496   4.344  0.1235  1.8734 -1.4862
  835MOL0     H15207   5.774   1.491   4.361  1.5628  3.8764  0.4147
  835MOL0     H15208   5.766   1.727   4.418 -1.0964 -0.7438  2.1037
  835MOL0     H15209   5.594   1.737   4.374  0.7573  0.2394  4.9629
  835MOL0     H15210   5.012   1.421   4.876 -0.4824  0.4840  0.0513
  835MOL0     H15211   4.789   1.427   4.962 -1.9001 -0.0215  3.1907
  835MOL0     H15212   4.535   1.187   5.473  1.6074 -1.2981 -2.6726
  835MOL0     H15213   4.308   1.181   5.539 -1.8891 -2.2355 -1.2935
  835MOL0     H15214   2.415   0.826   5.364 -1.4937 -0.5675  0.0887
  835MOL0     H15215   2.305   0.668   5.522  0.3978  0.5593 -0.5272
  835MOL0     H15216   2.415   0.284   5.799  0.7980 -0.6291  1.5191
  835MOL0     H15217   2.384   0.083   5.943 -0.1650  0.2987  1.2650
  835MOL0     H15218   2.117  -0.224   5.799  3.6513 -0.3498 -0.2765
  835MOL0     H15219   2.154  -0.282   5.969 -1.1204 -0.2176  0.6194
  835MOL0     H15220   1.906  -0.260   5.928 -2.7750  1.8398 -0.5092
  835MOL0     H15221   1.920  -0.094   5.887  0.0551 -0.8384 -1.5958
  835MOL0     H15222   1.957  -0.206   6.163 -0.5633  1.5811  2.2999
  835MOL0     H15223   2.020  -0.049   6.118 -0.2040  0.7060 -1.1378
  835MOL0     H15224   1.790   0.020   6.055 -0.2940  0.0264 -0.1185
  835MOL0     H15225   1.820  -0.011   6.237  0.6139  2.2133 -0.2262
  835MOL0     H15226   1.482  -0.231   6.135  0.2525 -0.4998  0.1421
  835MOL0     H15227   2.024   0.002   5.743 -1.4559  2.0450  0.5413
  835MOL0     H15228   1.939   0.250   5.619 -0.0243 -0.9168  2.4049
  835MOL0     H15229   2.040   0.256   5.478  1.3202 -0.5088 -0.4097
  835MOL0     H15230   1.986   0.107   5.517 -0.6041  0.8064  0.6310
  836MOL0     O15231   7.334   2.421   7.133 -0.2472 -0.2061  0.2456
  836MOL0     C15232   7.269   2.500   7.197 -0.4707 -0.2277 -0.7938
  836MOL0     O15233   7.312   2.567   7.312 -0.5650  0.4126 -0.3712
  836MOL0     C15234   7.439   2.542   7.357  0.0102  0.4655 -1.1777
  836MOL0     C15235   7.441   2.483   7.487 -0.3844 -0.0725  0.0049
  836MOL0     C15236   7.557   2.486   7.555  0.7728 -0.0508 -0.4623
  836MOL0     C15237   7.672   2.570   7.513  0.3265 -0.1713  0.5305
  836MOL0     O15238   7.789   2.587   7.578 -0.0740  0.0169 -0.4659
  836MOL0     C15239   7.767   2.593   7.724  0.3416 -0.2932 -0.5738
  836MOL0     C15240   7.872   2.682   7.787 -1.0596 -0.1863  0.2370
  836MOL0     C15241   8.016   2.632   7.799 -0.1597 -0.2156 -0.7447
  836MOL0     C15242   8.018   2.503   7.875 -0.6541  0.1707 -0.1725
  836MOL0     C15243   8.146   2.462   7.944 -0.2031 -0.0391 -0.1770
  836MOL0     C15244   8.262   2.467   7.846  0.3054  0.1254  0.0995
  836MOL0     C15245   8.383   2.398   7.918 -0.6961  0.2065 -0.2368
  836MOL0     C15246   8.497   2.351   7.817  0.1766 -0.9123  0.2491
  836MOL0     N15247   8.594   2.457   7.783  0.3652 -1.0137 -0.3450
  836MOL0     C15248   8.704   2.496   7.857  0.1541  0.2108  0.6631
  836MOL0     C15249   8.749   2.608   7.785 -0.1927  0.0506 -0.0825
  836MOL0     C15250   8.857   2.706   7.821  0.1146 -0.1622 -0.0318
  836MOL0     C15251   9.000   2.639   7.849  1.4016  0.2581  1.0037
  836MOL0     C15252   9.091   2.645   7.724  1.1787 -0.1121 -0.0870
  836MOL0     C15253   9.201   2.543   7.724  1.1128 -0.0165 -0.5077
  836MOL0     O15254   9.279   2.577   7.842 -0.0204 -0.3672  0.0076
  836MOL0     C15255   9.399   2.512   7.877  0.3941  0.0449  0.4499
  836MOL0     C15256   9.451   2.412   7.795  0.1347 -0.1155 -0.2207
  836MOL0     C15257   9.578   2.362   7.828 -0.3198  0.2138 -0.0195
  836MOL0     C15258   9.631   2.255   7.742  0.0952 -0.3908  1.1635
  836MOL0     C15259   9.653   2.414   7.939 -0.6712 -0.3359 -0.0187
  836MOL0     C15260   9.784   2.363   7.995  0.6274  1.2304 -0.1750
  836MOL0     O15261   9.837   2.257   7.926 -0.1252 -0.0009 -0.2468
  836MOL0     C15262   9.930   2.183   7.997  0.3879 -0.7726 -0.3497
  836MOL0     C15263   9.901   2.136   8.132  0.9664 -0.4268  0.2911
  836MOL0     C15264   9.978   2.041   8.191 -0.0084 -0.5334  0.3747
  836MOL0     C15265  10.087   1.988   8.131  0.0778 -0.4290  0.3654
  836MOL0     O15266  10.169   1.904   8.193  0.4661  0.5922 -0.7526
  836MOL0     C15267  10.315   1.918   8.160  0.2850  0.0707 -0.1816
  836MOL0     C15268  10.367   1.818   8.053 -0.0499 -0.3565  1.1690
  836MOL0     C15269  10.372   1.677   8.120 -0.6116 -0.0091  0.9724
  836MOL0     C15270  10.491   1.590   8.055  0.0024 -0.3538 -0.8369
  836MOL0     C15271  10.492   1.458   8.128 -0.1239  0.5125 -0.6119
  836MOL0     C15272  10.636   1.405   8.125  0.9864  0.0360 -0.7053
  836MOL0     C15273  10.681   1.392   7.978  0.4038  0.1145 -0.1803
  836MOL0     C15274  10.819   1.326   7.979  0.3571  0.0816  0.1018
  836MOL0    Cl15275  10.937   1.410   8.073 -0.4329  0.2857  0.0326
  836MOL0     C15276  10.104   2.025   7.999  0.9836  1.6836 -0.5917
  836MOL0     C15277  10.029   2.122   7.929  0.5313  0.6316 -1.0676
  836MOL0     O15278   9.839   2.422   8.083  0.0690  0.5750  0.3142
  836MOL0     C15279   9.594   2.516   8.009  0.9439  0.6945 -0.6254
  836MOL0     C15280   9.463   2.557   7.986  1.1088  0.1491  0.5738
  836MOL0     N15281   8.664   2.626   7.673  0.1289  0.1421 -0.2604
  836MOL0     N15282   8.575   2.532   7.665 -0.7263 -0.6068  0.2980
  836MOL0     C15283   7.667   2.615   7.379 -0.3965 -0.4746  0.8726
  836MOL0     C15284   7.550   2.596   7.303  0.2732  0.0431 -0.1566
  836MOL0     C15285   7.138   2.534   7.143 -0.1180 -0.3788 -0.3761
  836MOL0     C15286   7.048   2.432   7.115 -0.4308  0.4515 -0.2827
  836MOL0     C15287   6.932   2.457   7.048  0.4448 -0.4078  0.2279
  836MOL0     C15288   6.891   2.592   7.021  0.4428  0.7204 -0.6585
  836MOL0     O15289   6.773   2.596   6.949  0.5920 -0.2123 -0.5000
  836MOL0     C15290   6.720   2.722   6.917  0.5112  0.1337  1.0930
  836MOL0     C15291   6.583   2.674   6.867  0.4982  0.5287  0.2401
  836MOL0     C15292   6.587   2.556   6.757  0.0531  0.2295 -1.6276
  836MOL0     C15293   6.680   2.592   6.637 -0.1226  0.6532 -0.6294
  836MOL0     C15294   6.640   2.719   6.568  0.5905 -0.7123 -1.1143
  836MOL0     C15295   6.594   2.815   6.513 -0.3340 -0.0371  0.0546
  836MOL0     C15296   6.972   2.693   7.064 -0.2230 -0.8535 -0.2822
  836MOL0     C15297   7.098   2.668   7.121  0.2222  0.1869 -0.0544
  836MOL0     C15298   7.186   2.792   7.140 -0.3813  0.8552  0.1288
  836MOL0     H15299   7.345   2.449   7.525 -2.9137 -0.4592 -5.7588
  836MOL0     H15300   7.560   2.434   7.650 -4.4418  2.7832  1.6742
  836MOL0     H15301   7.755   2.498   7.776  3.0698 -0.1350  0.5188
  836MOL0     H15302   7.674   2.643   7.751  1.5298  0.6117  2.3023
  836MOL0     H15303   7.873   2.774   7.727  2.2444  0.1843  0.6567
  836MOL0     H15304   7.847   2.715   7.888  2.2192  0.1731  1.0406
  836MOL0     H15305   8.060   2.619   7.700  1.8013  0.7928 -0.0542
  836MOL0     H15306   8.072   2.713   7.846  1.8584 -0.6931 -2.1991
  836MOL0     H15307   7.942   2.514   7.954  1.2471  0.3747  1.7096
  836MOL0     H15308   7.985   2.429   7.802 -3.1273  1.0623 -0.0714
  836MOL0     H15309   8.130   2.359   7.978 -0.7651  1.4346  4.9564
  836MOL0     H15310   8.167   2.525   8.031 -1.1251  0.2664 -0.1663
  836MOL0     H15311   8.232   2.410   7.758 -2.4058  0.6785  0.5673
  836MOL0     H15312   8.287   2.569   7.814  3.8932 -0.6801 -0.0787
  836MOL0     H15313   8.339   2.308   7.960 -1.1791 -0.4027 -1.9690
  836MOL0     H15314   8.422   2.463   7.997 -1.4750 -0.0320  0.3465
  836MOL0     H15315   8.544   2.273   7.878 -1.9019 -1.6974  0.9127
  836MOL0     H15316   8.452   2.307   7.728  2.6972 -0.8839 -1.1333
  836MOL0     H15317   8.739   2.456   7.951 -2.8479 -0.8372  1.4486
  836MOL0     H15318   8.825   2.763   7.909 -1.6306  1.7259 -1.7747
  836MOL0     H15319   8.859   2.774   7.735 -2.6776  0.9556  0.6762
  836MOL0     H15320   9.045   2.677   7.941  1.8523  2.8703 -0.1953
  836MOL0     H15321   8.990   2.533   7.873  2.1329  0.2412  1.2477
  836MOL0     H15322   9.020   2.617   7.646  0.3509 -3.3306  1.6443
  836MOL0     H15323   9.120   2.751   7.714  1.1131 -0.0881 -0.0298
  836MOL0     H15324   9.154   2.444   7.730  0.8310 -0.0055 -2.2552
  836MOL0     H15325   9.257   2.560   7.632  1.7838  1.3516  0.1185
  836MOL0     H15326   9.399   2.372   7.708 -1.5777  1.2981  0.0974
  836MOL0     H15327   9.730   2.286   7.710 -0.8592  2.0574  0.3676
  836MOL0     H15328   9.564   2.222   7.661 -1.0561  0.8005  1.5960
  836MOL0     H15329   9.642   2.158   7.792 -0.3241 -1.5338 -0.8124
  836MOL0     H15330   9.819   2.165   8.197  1.3603  0.7006  0.2961
  836MOL0     H15331   9.956   1.978   8.277 -1.2146 -1.1295 -0.3388
  836MOL0     H15332  10.342   2.019   8.127 -1.1766  0.2234 -0.9815
  836MOL0     H15333  10.378   1.889   8.245  1.7321  0.2921 -1.1469
  836MOL0     H15334  10.303   1.820   7.964  1.0860 -0.2935  0.3344
  836MOL0     H15335  10.464   1.855   8.018  0.3728 -1.9100  0.6037
  836MOL0     H15336  10.275   1.631   8.099 -1.5626  2.1842  0.2507
  836MOL0     H15337  10.397   1.680   8.227  1.4190 -1.1908  0.5845
  836MOL0     H15338  10.580   1.651   8.074 -1.0581  1.2066 -0.7215
  836MOL0     H15339  10.470   1.587   7.948 -4.1675  1.1253 -0.2225
  836MOL0     H15340  10.479   1.470   8.236 -0.5120  4.7852 -0.9535
  836MOL0     H15341  10.422   1.386   8.085 -1.1508  1.5635 -0.7379
  836MOL0     H15342  10.634   1.307   8.173  1.5581  0.0988 -0.5516
  836MOL0     H15343  10.701   1.475   8.179 -0.1276  0.2255  0.4459
  836MOL0     H15344  10.682   1.483   7.919  0.1353  0.5786  0.5153
  836MOL0     H15345  10.605   1.327   7.934  0.4918 -0.7741  0.9304
  836MOL0     H15346  10.848   1.337   7.874 -0.3027  2.5138  0.1170
  836MOL0     H15347  10.817   1.224   8.018  0.0609 -0.7477 -1.9786
  836MOL0     H15348  10.189   1.982   7.946 -1.0338 -1.7885 -1.3221
  836MOL0     H15349  10.051   2.147   7.826  0.5226 -0.3778 -1.3297
  836MOL0     H15350   9.648   2.570   8.086  1.9667  2.9275 -2.7729
  836MOL0     H15351   9.413   2.631   8.048 -0.1087  0.9285 -1.2637
  836MOL0     H15352   7.754   2.663   7.336 -0.9901  0.1069  0.2939
  836MOL0     H15353   7.543   2.630   7.200  0.7247 -0.8835 -0.5020
  836MOL0     H15354   7.072   2.329   7.143 -0.1430  0.9617  1.4635
  836MOL0     H15355   6.862   2.387   7.002 -0.9440  1.5496 -0.7900
  836MOL0     H15356   6.703   2.785   7.005  0.1297 -0.8546  1.7465
  836MOL0     H15357   6.789   2.769   6.846  0.4446 -1.6846 -0.2248
  836MOL0     H15358   6.527   2.759   6.826  0.2935  0.0185 -0.5595
  836MOL0     H15359   6.536   2.638   6.959 -0.5641  3.7692  1.0791
  836MOL0     H15360   6.605   2.461   6.808  2.8014  0.9433 -1.0793
  836MOL0     H15361   6.490   2.536   6.711  0.0922 -1.6233 -1.0068
  836MOL0     H15362   6.682   2.518   6.556  1.4683 -1.0897  0.9201
  836MOL0     H15363   6.785   2.600   6.668  0.1211 -0.4752 -1.1044
  836MOL0     H15364   6.549   2.900   6.466  0.7355  0.3445 -0.3101
  836MOL0     H15365   6.951   2.797   7.041 -0.3266 -0.6110  0.8427
  836MOL0     H15366   7.278   2.779   7.082 -2.5030  1.4495 -3.7551
  836MOL0     H15367   7.148   2.878   7.083  0.1188 -0.6759 -2.7419
  836MOL0     H15368   7.219   2.807   7.243  2.7132  0.7623 -0.7460
  837MOL0     O15369   3.130   9.123   6.631 -0.1330 -0.1104 -0.7354
  837MOL0     C15370   3.174   9.203   6.551  0.5719 -1.2542 -0.5608
  837MOL0     O15371   3.298   9.192   6.493 -0.6915  0.7508  0.1901
  837MOL0     C15372   3.375   9.084   6.523 -0.1634  0.8555 -0.0496
  837MOL0     C15373   3.412   9.009   6.414 -0.1259  0.2262 -0.1106
  837MOL0     C15374   3.473   8.883   6.427  0.3853 -0.0748 -0.2568
  837MOL0     C15375   3.516   8.839   6.548 -1.1280 -0.3886 -1.2100
  837MOL0     O15376   3.583   8.716   6.548 -0.2189  0.1390 -0.4069
  837MOL0     C15377   3.624   8.665   6.674 -0.0230  0.1224 -0.5810
  837MOL0     C15378   3.767   8.713   6.713 -0.5547  0.3877 -0.1778
  837MOL0     C15379   3.849   8.738   6.582 -0.7032  0.5748  0.8433
  837MOL0     C15380   3.994   8.697   6.600 -0.2610  0.4749  0.5820
  837MOL0     C15381   4.085   8.710   6.475 -0.4473  0.8231 -0.4127
  837MOL0     C15382   4.104   8.862   6.441  0.2893 -0.4899 -0.2354
  837MOL0     C15383   4.189   8.855   6.311 -0.2318  0.1751 -0.4763
  837MOL0     C15384   4.223   8.994   6.239  0.3653 -0.0075 -0.1882
  837MOL0     N15385   4.344   9.052   6.294 -0.5031 -0.0647  0.3288
  837MOL0     C15386   4.364   9.110   6.414 -0.0398  0.3028 -0.8218
  837MOL0     C15387   4.478   9.182   6.399 -0.4093  0.8160 -0.0736
  837MOL0     C15388   4.530   9.262   6.512  0.4106 -0.4888 -0.8278
  837MOL0     C15389   4.661   9.336   6.497  0.0792 -0.4487 -0.2638
  837MOL0     C15390   4.727   9.393   6.625 -1.1528 -0.1092  0.9089
  837MOL0     C15391   4.634   9.455   6.722  1.2006 -0.5129  0.4072
  837MOL0     O15392   4.567   9.365   6.814  0.0803  0.2600  0.1113
  837MOL0     C15393   4.514   9.417   6.934 -0.2739  0.9639 -0.5000
  837MOL0     C15394   4.489   9.319   7.030  0.1010  0.7285 -0.1775
  837MOL0     C15395   4.438   9.349   7.158 -0.1609 -0.5655  0.5314
  837MOL0     C15396   4.452   9.243   7.256 -0.3752 -0.0171  0.2351
  837MOL0     C15397   4.401   9.478   7.189 -0.7544 -0.2320 -1.4861
  837MOL0     C15398   4.315   9.511   7.312 -0.4023  0.0697  0.1843
  837MOL0     O15399   4.231   9.618   7.302  0.1735 -0.0868 -0.3421
  837MOL0     C15400   4.176   9.666   7.417 -0.8824  0.6127  1.2676
  837MOL0     C15401   4.030   9.663   7.425 -1.3089  1.8291 -0.6778
  837MOL0     C15402   3.978   9.695   7.552  0.6914  0.5885 -0.4497
  837MOL0     C15403   4.060   9.744   7.661 -0.3334  0.3504  0.0918
  837MOL0     O15404   4.021   9.800   7.776  0.1927  0.3410  0.5514
  837MOL0     C15405   3.885   9.832   7.803  0.6431 -0.4295 -0.3329
  837MOL0     C15406   3.857   9.975   7.750 -0.3018 -0.7120 -0.2669
  837MOL0     C15407   3.821  10.071   7.863 -0.0488  0.2653 -0.3183
  837MOL0     C15408   3.929  10.157   7.918 -0.3930 -0.6611 -0.6635
  837MOL0     C15409   3.871  10.244   8.030 -0.5542 -0.4819 -0.1404
  837MOL0     C15410   3.824  10.387   7.985  0.4624  0.5807  0.1688
  837MOL0     C15411   3.787  10.489   8.097  0.7559 -0.0956  0.0186
  837MOL0     C15412   3.736  10.422   8.223  0.3799  0.6531  0.4120
  837MOL0    Cl15413   3.578  10.333   8.197 -0.1684  0.4263  0.6018
  837MOL0     C15414   4.201   9.753   7.638 -0.2640 -0.2467  0.6215
  837MOL0     C15415   4.252   9.702   7.519 -0.1605  0.0359 -0.3847
  837MOL0     O15416   4.340   9.444   7.412  0.6853 -0.0575  0.2935
  837MOL0     C15417   4.440   9.586   7.095  0.3188 -0.4969  0.0436
  837MOL0     C15418   4.493   9.557   6.969 -0.3548  0.0704  0.1882
  837MOL0     N15419   4.537   9.173   6.276 -0.7669 -0.1054  0.8496
  837MOL0     N15420   4.447   9.105   6.212 -0.2429  1.6428 -0.6123
  837MOL0     C15421   3.479   8.920   6.657 -0.6088  0.4262 -0.1156
  837MOL0     C15422   3.417   9.044   6.649 -0.3238 -0.4553  0.0254
  837MOL0     C15423   3.102   9.326   6.532 -0.2393 -1.4232 -0.6043
  837MOL0     C15424   3.184   9.430   6.481 -0.3420  0.4996 -0.3593
  837MOL0     C15425   3.133   9.556   6.456  0.5426  0.3318  0.3500
  837MOL0     C15426   2.996   9.585   6.488 -0.0788 -0.2918 -0.1139
  837MOL0     O15427   2.948   9.710   6.477 -0.1912 -0.6527  0.0825
  837MOL0     C15428   2.815   9.747   6.518  0.4734  0.3954 -0.4417
  837MOL0     C15429   2.731   9.722   6.392  0.4142  0.1410  0.2643
  837MOL0     C15430   2.734   9.830   6.285  0.1029 -0.2939  0.9991
  837MOL0     C15431   2.620   9.931   6.297 -0.4535  0.1446  0.4891
  837MOL0     C15432   2.608  10.023   6.184 -0.7488  0.2610 -0.3115
  837MOL0     C15433   2.620  10.104   6.106 -0.1118 -1.5713  0.3833
  837MOL0     C15434   2.911   9.482   6.536 -0.7348  0.1655 -0.1879
  837MOL0     C15435   2.960   9.348   6.548  0.6546 -0.1279 -0.1128
  837MOL0     C15436   2.857   9.239   6.573  0.2029  0.1053  0.1433
  837MOL0     H15437   3.381   9.035   6.313 -0.8053 -1.3739 -0.3356
  837MOL0     H15438   3.484   8.818   6.341 -3.4048 -3.2152  1.2852
  837MOL0     H15439   3.625   8.557   6.658  1.0009 -0.3496  2.1880
  837MOL0     H15440   3.550   8.689   6.750  1.1296 -0.2483  0.7103
  837MOL0     H15441   3.757   8.806   6.770 -3.6363 -0.7041  1.2795
  837MOL0     H15442   3.808   8.646   6.789 -0.5918 -0.8708 -1.2274
  837MOL0     H15443   3.806   8.686   6.496 -0.7050 -1.9473  2.2562
  837MOL0     H15444   3.837   8.840   6.545 -1.7718 -0.5267 -2.1204
  837MOL0     H15445   4.044   8.742   6.686  1.5425 -1.9683  0.9350
  837MOL0     H15446   3.996   8.589   6.621  0.0861  0.0751 -1.2789
  837MOL0     H15447   4.040   8.650   6.396 -1.6234 -0.3841  1.1158
  837MOL0     H15448   4.181   8.663   6.494 -1.6715 -1.7477 -0.2425
  837MOL0     H15449   4.008   8.910   6.420  0.5705 -0.0990 -0.6506
  837MOL0     H15450   4.158   8.913   6.521  0.5129 -1.5791  0.3293
  837MOL0     H15451   4.139   8.793   6.237  1.4126  1.3576 -2.7116
  837MOL0     H15452   4.277   8.807   6.355 -1.5577 -0.9463  1.0902
  837MOL0     H15453   4.241   8.976   6.132  0.4238  2.8083 -0.7201
  837MOL0     H15454   4.138   9.062   6.249 -0.8349 -1.4324 -0.2800
  837MOL0     H15455   4.310   9.115   6.508  0.2859  1.6204 -0.6894
  837MOL0     H15456   4.541   9.195   6.598  2.4702  0.8749  0.0313
  837MOL0     H15457   4.460   9.343   6.537 -0.5572 -1.3678 -0.5748
  837MOL0     H15458   4.719   9.259   6.445 -1.2804 -0.8864 -1.2154
  837MOL0     H15459   4.645   9.410   6.418  2.0168  0.0276 -0.2465
  837MOL0     H15460   4.777   9.309   6.674 -0.3470 -0.3445 -0.2746
  837MOL0     H15461   4.797   9.467   6.586  1.2706 -0.0753  4.8192
  837MOL0     H15462   4.698   9.526   6.775  4.1911 -0.8989 -2.4038
  837MOL0     H15463   4.555   9.515   6.676  0.1767 -1.8804  0.3276
  837MOL0     H15464   4.527   9.221   7.003 -0.4428 -0.2877  2.4276
  837MOL0     H15465   4.498   9.157   7.206  1.7411  1.4078 -0.4238
  837MOL0     H15466   4.355   9.207   7.290 -1.7856  0.4632 -2.9368
  837MOL0     H15467   4.527   9.281   7.326  0.8188  1.5641 -1.7818
  837MOL0     H15468   3.959   9.635   7.348  0.0786 -1.3484 -0.9647
  837MOL0     H15469   3.876   9.669   7.578  1.1818 -0.9491  0.0640
  837MOL0     H15470   3.818   9.756   7.762  1.6987 -1.6220  0.1030
  837MOL0     H15471   3.868   9.828   7.911 -1.4590 -0.2176 -0.6287
  837MOL0     H15472   3.942  10.003   7.687  1.0290  1.0793  2.1970
  837MOL0     H15473   3.765   9.971   7.690  0.3926  0.2702 -1.4309
  837MOL0     H15474   3.778  10.016   7.947  1.5590  0.2297  0.5183
  837MOL0     H15475   3.753  10.147   7.824 -0.4980  0.9442  1.6678
  837MOL0     H15476   3.957  10.210   7.826  2.2302 -0.8437 -0.0539
  837MOL0     H15477   4.009  10.089   7.949 -0.7917 -0.0968  1.7613
  837MOL0     H15478   3.785  10.188   8.067 -0.1704 -0.5529  0.6493
  837MOL0     H15479   3.948  10.251   8.108 -0.9137 -1.2571  0.2870
  837MOL0     H15480   3.752  10.371   7.904  1.6426 -1.8872 -0.4731
  837MOL0     H15481   3.910  10.434   7.935 -0.4633  0.7796 -1.2846
  837MOL0     H15482   3.715  10.563   8.061  0.6681 -0.7657 -1.2451
  837MOL0     H15483   3.879  10.545   8.119  0.5955  0.2245 -0.1156
  837MOL0     H15484   3.722  10.495   8.303  2.8801  0.3694  1.1954
  837MOL0     H15485   3.813  10.364   8.274 -0.2625  0.8686  1.6515
  837MOL0     H15486   4.264   9.808   7.707 -1.7904  2.5537 -0.0945
  837MOL0     H15487   4.359   9.706   7.500 -0.1628  0.2767 -0.3552
  837MOL0     H15488   4.412   9.690   7.104  1.1891 -0.1823 -0.7316
  837MOL0     H15489   4.520   9.636   6.899 -1.4283 -0.3751 -0.7754
  837MOL0     H15490   3.508   8.884   6.755  0.2535 -1.5255 -1.0383
  837MOL0     H15491   3.404   9.097   6.743  1.0757 -1.4887  0.8279
  837MOL0     H15492   3.289   9.420   6.454  0.2068  1.1849  1.4048
  837MOL0     H15493   3.190   9.632   6.404  0.4149 -0.4844 -1.0385
  837MOL0     H15494   2.774   9.697   6.607 -1.4834  1.4175 -0.7087
  837MOL0     H15495   2.810   9.848   6.561  1.5447 -0.6839  2.5172
  837MOL0     H15496   2.629   9.705   6.427 -0.0374  2.4607  0.2472
  837MOL0     H15497   2.762   9.631   6.342  0.2942 -0.8542  1.9192
  837MOL0     H15498   2.827   9.887   6.291 -0.0062 -0.2519  4.1571
  837MOL0     H15499   2.709   9.773   6.195 -2.6889  1.4226  0.5421
  837MOL0     H15500   2.631   9.991   6.388  1.7091  2.3360 -1.0913
  837MOL0     H15501   2.522   9.883   6.294  0.4926 -1.7840 -1.1785
  837MOL0     H15502   2.636  10.165   6.020 -0.4529  1.6288  2.4026
  837MOL0     H15503   2.803   9.492   6.542 -0.7605  2.0925 -2.3400
  837MOL0     H15504   2.895   9.137   6.587  1.5232  0.6735  0.8826
  837MOL0     H15505   2.789   9.256   6.656 -0.5060  1.2678 -0.6520
  837MOL0     H15506   2.795   9.229   6.483 -1.4276 -1.3023  1.3459
  838MOL0     O15507   8.809   8.093   8.843  0.3605  0.1619 -0.4179
  838MOL0     C15508   8.749   8.009   8.782  0.8393  0.5735 -0.4331
  838MOL0     O15509   8.777   7.877   8.777 -0.3436 -1.3028  0.0483
  838MOL0     C15510   8.868   7.836   8.869 -0.8952 -0.0255  0.5156
  838MOL0     C15511   8.995   7.891   8.877  0.0322 -0.3458 -0.9792
  838MOL0     C15512   9.096   7.829   8.943 -0.3361 -0.4152 -1.3974
  838MOL0     C15513   9.079   7.714   9.010 -0.8451 -0.3089  0.2265
  838MOL0     O15514   9.190   7.663   9.074  0.2712 -0.3741  0.7219
  838MOL0     C15515   9.187   7.541   9.156 -0.4119  1.0524 -0.0871
  838MOL0     C15516   9.323   7.504   9.218  0.6225 -0.3201  0.0291
  838MOL0     C15517   9.374   7.613   9.315 -0.7746 -0.3491 -0.2564
  838MOL0     C15518   9.285   7.639   9.438  0.2744 -0.3343 -0.0948
  838MOL0     C15519   9.347   7.730   9.542  0.2906  0.9863  0.0554
  838MOL0     C15520   9.249   7.749   9.658 -0.6093  0.0260 -0.4123
  838MOL0     C15521   9.319   7.792   9.791 -0.1123  0.2808  0.1181
  838MOL0     C15522   9.411   7.674   9.841 -0.1514  0.6893 -0.7640
  838MOL0     N15523   9.335   7.566   9.912 -0.4315 -0.3651  0.0695
  838MOL0     C15524   9.247   7.478   9.859  0.0690  0.0085  0.6547
  838MOL0     C15525   9.204   7.416   9.972 -0.1154 -0.4298  0.8311
  838MOL0     C15526   9.088   7.327   9.974 -0.2017 -0.0905 -0.1927
  838MOL0     C15527   9.118   7.189   9.923  0.0856 -0.1535 -0.1576
  838MOL0     C15528   9.242   7.112   9.986 -0.7007  0.1115 -0.5845
  838MOL0     C15529   9.235   6.967   9.941 -0.8148  0.5798  0.3210
  838MOL0     O15530   9.186   6.942   9.811  0.1726  0.0628  0.3504
  838MOL0     C15531   9.185   6.817   9.774 -1.2431 -0.4087  0.0649
  838MOL0     C15532   9.152   6.788   9.640 -0.1482  0.4241  0.1981
  838MOL0     C15533   9.150   6.658   9.589  0.0200  0.2155 -0.2580
  838MOL0     C15534   9.125   6.657   9.441 -0.3226  0.1806  0.0975
  838MOL0     C15535   9.157   6.550   9.679  0.1311  0.4448 -0.7205
  838MOL0     C15536   9.143   6.411   9.641  0.2062  0.0156 -0.4765
  838MOL0     O15537   9.141   6.390   9.514 -0.4611 -0.4302 -0.0274
  838MOL0     C15538   9.086   6.271   9.463 -0.1652 -0.4885  0.7320
  838MOL0     C15539   8.952   6.264   9.406 -0.8486  0.7311  0.0638
  838MOL0     C15540   8.906   6.143   9.345  0.0920  0.7206  0.5509
  838MOL0     C15541   8.999   6.035   9.329 -0.0797 -0.6744  0.2967
  838MOL0     O15542   8.976   5.931   9.252 -0.0679  0.1924 -0.6363
  838MOL0     C15543   8.839   5.908   9.202 -0.8642 -0.0107 -0.0314
  838MOL0     C15544   8.841   5.799   9.105  0.0503  0.9052 -0.3867
  838MOL0     C15545   8.927   5.682   9.161  0.6669 -0.3417 -0.2929
  838MOL0     C15546   8.929   5.555   9.072 -0.5980  0.5076  0.3495
  838MOL0     C15547   9.026   5.447   9.131 -0.1454  0.2058 -0.2266
  838MOL0     C15548   8.973   5.400   9.276 -0.0860  0.6303 -0.1216
  838MOL0     C15549   9.052   5.276   9.308 -0.0728 -0.2589  0.2876
  838MOL0     C15550   9.007   5.144   9.252 -0.8392 -0.0779  0.2784
  838MOL0    Cl15551   9.078   4.988   9.329  0.2807 -0.1894  0.0327
  838MOL0     C15552   9.129   6.048   9.376 -0.0088  0.2735  0.0593
  838MOL0     C15553   9.176   6.163   9.441  0.0742 -0.7713  0.0131
  838MOL0     O15554   9.129   6.328   9.725 -0.1352  0.0547  0.1054
  838MOL0     C15555   9.197   6.575   9.811 -0.4018 -0.3658  0.0143
  838MOL0     C15556   9.203   6.707   9.862  0.1298  0.2145  0.1592
  838MOL0     N15557   9.260   7.469  10.086 -0.8727  0.2207  0.5565
  838MOL0     N15558   9.334   7.566  10.047 -0.0030  0.4921 -0.1280
  838MOL0     C15559   8.951   7.659   9.021  0.1323  0.7671 -0.0730
  838MOL0     C15560   8.849   7.726   8.952 -0.1243  0.1763  0.3980
  838MOL0     C15561   8.636   8.061   8.710  0.4937  0.9182 -0.5329
  838MOL0     C15562   8.603   8.197   8.732  0.7156  0.0276 -0.2366
  838MOL0     C15563   8.490   8.252   8.674 -0.4852  1.1541  0.2248
  838MOL0     C15564   8.402   8.172   8.598  0.8394 -0.1212 -0.2393
  838MOL0     O15565   8.303   8.242   8.527 -0.2735  0.6164  0.0486
  838MOL0     C15566   8.167   8.187   8.548 -0.5417  0.0866  0.0064
  838MOL0     C15567   8.073   8.249   8.439 -0.4611  0.5545 -0.5763
  838MOL0     C15568   8.012   8.378   8.488  0.5983  0.1161 -0.7920
  838MOL0     C15569   8.088   8.503   8.490 -0.3604  0.9574 -0.2575
  838MOL0     C15570   8.118   8.550   8.353  0.1021  1.3286  0.5024
  838MOL0     C15571   8.131   8.594   8.239 -0.9661  0.5783 -0.4739
  838MOL0     C15572   8.446   8.044   8.559  0.1314  0.7249 -1.1628
  838MOL0     C15573   8.559   7.984   8.619  1.1182 -0.9682  0.3138
  838MOL0     C15574   8.607   7.855   8.563 -1.2136 -0.0382 -0.0429
  838MOL0     H15575   9.026   7.981   8.825  2.1508 -0.0218  0.7035
  838MOL0     H15576   9.195   7.870   8.927  0.5869 -2.4409 -1.2762
  838MOL0     H15577   9.155   7.454   9.098  0.2094  0.8258 -0.0979
  838MOL0     H15578   9.113   7.545   9.236 -0.0233 -1.7774  0.5265
  838MOL0     H15579   9.309   7.416   9.281 -0.0127 -0.1435  0.1480
  838MOL0     H15580   9.404   7.487   9.146  0.1120 -1.7525 -0.2495
  838MOL0     H15581   9.475   7.591   9.350 -0.7178  2.4141  1.6583
  838MOL0     H15582   9.380   7.712   9.268 -4.1485  1.3557  2.4571
  838MOL0     H15583   9.183   7.671   9.413  0.2809 -0.8316 -0.7813
  838MOL0     H15584   9.273   7.542   9.486  2.3559 -0.0414  1.1214
  838MOL0     H15585   9.369   7.823   9.490 -0.2357  0.9904 -0.1631
  838MOL0     H15586   9.445   7.689   9.570 -0.4266  1.3652  3.6633
  838MOL0     H15587   9.191   7.839   9.634  1.6192  1.5557 -0.3575
  838MOL0     H15588   9.185   7.661   9.673 -0.5493  0.0665  0.0844
  838MOL0     H15589   9.238   7.813   9.862 -1.1731 -0.7140 -0.7625
  838MOL0     H15590   9.386   7.876   9.772  2.8306 -1.7255  0.9697
  838MOL0     H15591   9.467   7.626   9.760 -2.2464 -0.5957 -1.5200
  838MOL0     H15592   9.473   7.719   9.919 -2.0702  0.2415  1.1074
  838MOL0     H15593   9.217   7.454   9.758 -3.6943 -2.0391  2.0688
  838MOL0     H15594   9.000   7.377   9.931 -0.4079 -0.7176 -0.5116
  838MOL0     H15595   9.043   7.326  10.073  0.8219 -6.0557  0.5663
  838MOL0     H15596   9.028   7.129   9.942  0.3316  0.3461  3.1618
  838MOL0     H15597   9.133   7.200   9.815 -0.9508  0.2277 -0.2755
  838MOL0     H15598   9.336   7.158   9.956 -1.2799  1.3077 -0.6405
  838MOL0     H15599   9.241   7.118  10.095 -0.9481  1.4713 -0.6464
  838MOL0     H15600   9.338   6.932   9.945 -1.7539 -2.5335  4.7632
  838MOL0     H15601   9.182   6.912  10.019 -0.3985 -0.1506  0.1024
  838MOL0     H15602   9.141   6.866   9.566  0.7037 -0.6688 -1.1326
  838MOL0     H15603   9.215   6.629   9.385 -2.1639 -1.6701 -2.1335
  838MOL0     H15604   9.081   6.751   9.407 -1.7471  0.6718  2.9889
  838MOL0     H15605   9.053   6.582   9.407  0.7444 -0.0462 -1.8664
  838MOL0     H15606   8.879   6.343   9.416  0.7993  2.3673 -0.3418
  838MOL0     H15607   8.815   6.144   9.285  2.1644  1.5577 -2.8317
  838MOL0     H15608   8.770   5.895   9.285 -0.8406  1.2668  0.2015
  838MOL0     H15609   8.806   5.994   9.143 -1.2624  1.4355  2.2064
  838MOL0     H15610   8.739   5.763   9.087  0.1261  1.3849 -1.9944
  838MOL0     H15611   8.893   5.838   9.017 -0.3496 -0.4242 -1.2475
  838MOL0     H15612   8.894   5.655   9.261 -2.6516  1.1863 -0.8332
  838MOL0     H15613   9.030   5.720   9.167 -0.2166  2.1754  0.1498
  838MOL0     H15614   8.979   5.579   8.977  2.4596  1.6148  2.1008
  838MOL0     H15615   8.826   5.521   9.060 -0.1764 -0.6103 -0.2957
  838MOL0     H15616   9.025   5.355   9.072  1.0502  0.5260 -0.7810
  838MOL0     H15617   9.126   5.491   9.140 -1.2362  3.0698 -1.2207
  838MOL0     H15618   8.867   5.374   9.278 -0.3560  0.9241 -3.7073
  838MOL0     H15619   8.996   5.474   9.353  0.1350  1.3977 -0.9169
  838MOL0     H15620   9.048   5.267   9.417 -0.7595  0.1809  0.3055
  838MOL0     H15621   9.157   5.293   9.281  0.5894  0.6590  3.0868
  838MOL0     H15622   9.030   5.142   9.146  1.8598 -1.5263  0.7979
  838MOL0     H15623   8.898   5.144   9.269 -0.5031  0.6185  2.9545
  838MOL0     H15624   9.194   5.965   9.350 -0.4729  0.3498 -1.3991
  838MOL0     H15625   9.280   6.161   9.472  0.2425 -1.4511 -0.5642
  838MOL0     H15626   9.194   6.490   9.880 -3.5235 -0.4539 -0.0772
  838MOL0     H15627   9.216   6.713   9.970 -0.6990  1.3100  0.2227
  838MOL0     H15628   8.923   7.575   9.085  2.8781  1.0907  1.7063
  838MOL0     H15629   8.746   7.692   8.956 -1.0757  2.2523 -2.7137
  838MOL0     H15630   8.653   8.261   8.805 -2.5662  1.1025  1.2696
  838MOL0     H15631   8.469   8.357   8.691 -1.8205  1.0409 -0.5710
  838MOL0     H15632   8.181   8.079   8.539  2.0445  0.2655  1.0409
  838MOL0     H15633   8.130   8.207   8.649 -1.5496  3.4803 -0.9045
  838MOL0     H15634   7.984   8.186   8.425  0.1640 -0.5173  0.1105
  838MOL0     H15635   8.128   8.254   8.344 -0.0848 -0.3207 -0.4196
  838MOL0     H15636   7.925   8.396   8.425  0.0025  1.3073  0.3252
  838MOL0     H15637   7.976   8.370   8.591 -0.5395  2.4894 -0.9195
  838MOL0     H15638   8.177   8.493   8.553 -1.6779  0.4951  1.6155
  838MOL0     H15639   8.019   8.579   8.529 -1.6905  0.4666 -1.5878
  838MOL0     H15640   8.137   8.636   8.140 -1.8643 -0.1031 -0.8302
  838MOL0     H15641   8.390   7.992   8.482  0.5815  0.9247 -1.6333
  838MOL0     H15642   8.594   7.771   8.632 -0.2428  1.1574  1.7061
  838MOL0     H15643   8.568   7.846   8.462 -0.6646  0.2673 -0.2894
  838MOL0     H15644   8.714   7.871   8.549 -1.0380  1.4414  2.3133
  839MOL0     O15645   1.780   3.253   6.626 -0.8699  0.7310  0.0536
  839MOL0     C15646   1.862   3.159   6.646 -0.0345 -0.5414 -0.4122
  839MOL0     O15647   1.872   3.048   6.579  0.2520  0.3159  0.7953
  839MOL0     C15648   1.839   3.057   6.449 -0.9713 -0.7361  0.8912
  839MOL0     C15649   1.936   3.113   6.367 -0.5933  0.0759 -0.4263
  839MOL0     C15650   1.919   3.130   6.232  0.3899 -0.0548  0.4437
  839MOL0     C15651   1.806   3.072   6.169 -0.3101  0.4402  0.5714
  839MOL0     O15652   1.770   3.063   6.034 -0.4323  0.2298  0.4172
  839MOL0     C15653   1.848   3.146   5.946 -0.1842  0.5488  0.6320
  839MOL0     C15654   1.782   3.177   5.813 -0.2555  0.9833 -0.2404
  839MOL0     C15655   1.660   3.268   5.803 -0.5681  0.0602  0.5698
  839MOL0     C15656   1.683   3.400   5.868 -0.8634 -0.3397  0.4239
  839MOL0     C15657   1.576   3.497   5.827 -0.3558  0.3659  0.6258
  839MOL0     C15658   1.623   3.642   5.842 -0.0124  0.5989 -0.6535
  839MOL0     C15659   1.537   3.761   5.804  1.2014  0.6907 -0.3774
  839MOL0     C15660   1.428   3.789   5.902 -0.7379  0.4704 -0.5514
  839MOL0     N15661   1.457   3.833   6.041 -0.0177 -0.4963 -0.3439
  839MOL0     C15662   1.571   3.898   6.080 -0.6218 -0.1238 -0.0274
  839MOL0     C15663   1.552   3.920   6.213  0.8276  0.3085  0.3754
  839MOL0     C15664   1.653   3.993   6.291  0.2518  0.3344 -0.2138
  839MOL0     C15665   1.805   3.965   6.256  0.9690 -0.9659 -0.6310
  839MOL0     C15666   1.897   4.024   6.360  0.1511  0.0537 -1.3235
  839MOL0     C15667   2.050   4.003   6.329  0.8870  0.3317 -0.0114
  839MOL0     O15668   2.076   3.863   6.345 -0.1736  0.3034 -0.6644
  839MOL0     C15669   2.202   3.809   6.366 -0.4840 -0.1845  0.3034
  839MOL0     C15670   2.221   3.675   6.393  0.8204 -0.1198  0.0492
  839MOL0     C15671   2.340   3.615   6.410  0.3523  0.7002  0.0713
  839MOL0     C15672   2.342   3.474   6.476 -0.1495 -0.8691 -0.2333
  839MOL0     C15673   2.461   3.694   6.395 -0.4187  0.3543  1.0429
  839MOL0     C15674   2.595   3.634   6.402  0.5503 -0.1069 -0.2785
  839MOL0     O15675   2.687   3.720   6.449  0.5375 -0.3196  0.1385
  839MOL0     C15676   2.816   3.681   6.448 -0.6091  0.5255  0.5168
  839MOL0     C15677   2.907   3.780   6.408  0.2183 -1.2867 -0.4202
  839MOL0     C15678   3.040   3.751   6.390  0.2875 -0.9159 -0.9477
  839MOL0     C15679   3.081   3.612   6.404  0.3674  0.3817  0.3332
  839MOL0     O15680   3.214   3.578   6.382 -0.5947  0.2163 -0.4159
  839MOL0     C15681   3.304   3.617   6.488  0.2050 -0.1883 -0.1667
  839MOL0     C15682   3.267   3.550   6.629  0.4466 -0.7140  0.3057
  839MOL0     C15683   3.305   3.399   6.636  0.1249 -1.3369 -0.6397
  839MOL0     C15684   3.453   3.368   6.612  0.1741  0.3354 -0.3582
  839MOL0     C15685   3.481   3.218   6.657  0.3034 -0.5020  0.5662
  839MOL0     C15686   3.625   3.172   6.624  0.4175  1.0679  0.2437
  839MOL0     C15687   3.681   3.219   6.488 -0.8042 -0.3680 -0.5086
  839MOL0     C15688   3.820   3.163   6.461 -0.1851  0.5055 -0.1205
  839MOL0    Cl15689   3.858   3.198   6.297  0.3296 -0.1027  0.2093
  839MOL0     C15690   2.991   3.508   6.444 -1.2376 -0.8642  0.1893
  839MOL0     C15691   2.865   3.552   6.472  0.5723  0.1978  0.1687
  839MOL0     O15692   2.610   3.524   6.341  0.4088  1.2820 -0.0309
  839MOL0     C15693   2.444   3.832   6.373  0.4764  0.1983 -0.1962
  839MOL0     C15694   2.321   3.889   6.362 -0.3245 -0.9883  0.2803
  839MOL0     N15695   1.422   3.873   6.243 -0.4564  1.0681  0.0941
  839MOL0     N15696   1.371   3.817   6.145  0.2094 -0.3119  0.4492
  839MOL0     C15697   1.717   3.008   6.254  0.8377  0.0674 -0.0792
  839MOL0     C15698   1.724   3.010   6.391 -0.1800  0.2434 -0.0072
  839MOL0     C15699   1.947   3.183   6.771  0.5323  0.5270 -0.6648
  839MOL0     C15700   1.964   3.075   6.866  0.2352  0.1430  0.6886
  839MOL0     C15701   2.046   3.079   6.977  0.3428 -0.3244  0.0757
  839MOL0     C15702   2.117   3.199   6.999 -0.4388 -0.6024 -0.7341
  839MOL0     O15703   2.193   3.217   7.105  0.3634 -0.3830  0.0713
  839MOL0     C15704   2.339   3.210   7.082  0.1285  0.4016  0.1551
  839MOL0     C15705   2.412   3.203   7.217  0.7984 -0.5323  0.3112
  839MOL0     C15706   2.395   3.331   7.298  0.6099  1.0285 -0.5906
  839MOL0     C15707   2.488   3.329   7.425  0.1077 -0.2064 -0.3845
  839MOL0     C15708   2.506   3.468   7.469 -0.0812  0.6739 -0.2797
  839MOL0     C15709   2.522   3.583   7.508  0.3829 -0.4165  0.4561
  839MOL0     C15710   2.098   3.311   6.912  0.3474  1.1100 -0.5798
  839MOL0     C15711   2.014   3.301   6.795 -0.1631 -0.3491  0.4740
  839MOL0     C15712   1.995   3.420   6.702  0.9044 -0.0112 -0.1529
  839MOL0     H15713   2.027   3.154   6.410 -1.7265  2.2710  0.0344
  839MOL0     H15714   2.001   3.174   6.176 -0.5428 -0.5666 -1.4072
  839MOL0     H15715   1.930   3.080   5.919 -0.9155  0.0475 -0.4744
  839MOL0     H15716   1.892   3.228   6.003  2.3387 -0.4861  0.2786
  839MOL0     H15717   1.866   3.203   5.748  1.4621 -2.2274  0.4893
  839MOL0     H15718   1.750   3.076   5.784 -0.3613  0.1383  2.5621
  839MOL0     H15719   1.647   3.285   5.695 -1.7510  1.1895  0.8762
  839MOL0     H15720   1.572   3.213   5.837 -2.3492  0.4240 -3.0079
  839MOL0     H15721   1.676   3.393   5.977 -1.1013 -0.9909  0.3718
  839MOL0     H15722   1.779   3.443   5.839 -1.5490  1.0297  0.0970
  839MOL0     H15723   1.491   3.479   5.893  0.1603 -2.6367  0.6101
  839MOL0     H15724   1.552   3.489   5.720 -1.0811  0.2606  0.7929
  839MOL0     H15725   1.654   3.658   5.945 -0.3474  5.0947 -1.0326
  839MOL0     H15726   1.712   3.652   5.779 -0.3996  1.0022 -1.1519
  839MOL0     H15727   1.489   3.733   5.710  1.2735  0.6281 -0.3955
  839MOL0     H15728   1.606   3.845   5.794  0.1363  1.5350 -0.8043
  839MOL0     H15729   1.358   3.861   5.857  0.0977  0.4201 -1.9782
  839MOL0     H15730   1.365   3.700   5.910  1.9467 -1.3560  3.9988
  839MOL0     H15731   1.658   3.921   6.019 -1.6885 -1.1734 -2.0618
  839MOL0     H15732   1.630   3.980   6.397  0.7741  2.3409  0.1847
  839MOL0     H15733   1.629   4.096   6.265 -2.2183 -0.5964 -2.0148
  839MOL0     H15734   1.828   3.858   6.254  1.5292 -0.8592 -0.0615
  839MOL0     H15735   1.827   4.013   6.160 -1.3899  0.7367 -0.4052
  839MOL0     H15736   1.889   4.134   6.358  2.6376  0.3030 -0.4770
  839MOL0     H15737   1.887   3.982   6.460 -0.5389  3.3013  0.0953
  839MOL0     H15738   2.062   4.030   6.224 -2.8707  2.1234 -0.1613
  839MOL0     H15739   2.100   4.068   6.402 -1.6384 -1.3989  3.6034
  839MOL0     H15740   2.131   3.614   6.394  0.8464 -0.1549  0.1788
  839MOL0     H15741   2.356   3.404   6.393 -3.4766 -0.3656 -1.3863
  839MOL0     H15742   2.245   3.457   6.526  0.4836  0.1201  1.4082
  839MOL0     H15743   2.424   3.459   6.546  0.1493 -4.3554 -1.1355
  839MOL0     H15744   2.870   3.880   6.388  1.1070 -0.5679  1.3503
  839MOL0     H15745   3.117   3.823   6.362  0.4421  0.2612  2.1002
  839MOL0     H15746   3.409   3.597   6.465  0.7202 -1.7551  3.0385
  839MOL0     H15747   3.295   3.726   6.495 -2.3906 -0.3512  0.1323
  839MOL0     H15748   3.338   3.600   6.695  2.6341 -0.5457 -2.0185
  839MOL0     H15749   3.162   3.575   6.647  0.6856  1.2517 -0.7782
  839MOL0     H15750   3.236   3.356   6.563 -2.9029  2.9602 -0.6711
  839MOL0     H15751   3.271   3.359   6.733 -1.4272  0.7213 -0.2654
  839MOL0     H15752   3.521   3.423   6.679 -0.3629 -0.0015  0.4890
  839MOL0     H15753   3.470   3.383   6.505  0.0915  0.4924 -0.3510
  839MOL0     H15754   3.462   3.224   6.765  2.7494  4.4354  0.9953
  839MOL0     H15755   3.412   3.153   6.603  1.9609  0.1237 -2.5240
  839MOL0     H15756   3.615   3.063   6.619 -2.1853  0.9724  3.6672
  839MOL0     H15757   3.696   3.196   6.703 -0.4865  4.3642  0.2113
  839MOL0     H15758   3.691   3.327   6.483 -2.4772 -0.0753  1.2306
  839MOL0     H15759   3.611   3.183   6.412  0.1978 -1.8851 -0.7609
  839MOL0     H15760   3.817   3.060   6.498 -3.7722  1.1122  1.7740
  839MOL0     H15761   3.902   3.210   6.516  1.9540 -0.0317 -2.6466
  839MOL0     H15762   3.019   3.404   6.451 -1.7194 -1.4842 -4.0630
  839MOL0     H15763   2.792   3.476   6.495 -1.5542  1.5898 -1.4818
  839MOL0     H15764   2.530   3.898   6.368  1.6650 -1.2479  0.3528
  839MOL0     H15765   2.321   3.995   6.338  1.8743 -1.1303 -0.6415
  839MOL0     H15766   1.637   2.947   6.214  2.4875 -1.2775 -1.4581
  839MOL0     H15767   1.654   2.950   6.448 -1.6731  2.3381  0.4829
  839MOL0     H15768   1.902   2.986   6.861  1.2998 -0.6636  1.4739
  839MOL0     H15769   2.049   2.999   7.050  2.2620  0.8383  1.3669
  839MOL0     H15770   2.379   3.129   7.021  0.5675 -0.7833  1.9480
  839MOL0     H15771   2.373   3.303   7.035 -3.3858  1.5401 -0.5028
  839MOL0     H15772   2.518   3.194   7.191  0.1420  2.3773 -4.4809
  839MOL0     H15773   2.375   3.117   7.274  1.8788 -2.5282 -1.8049
  839MOL0     H15774   2.421   3.420   7.239 -1.0254  1.6302 -0.4435
  839MOL0     H15775   2.287   3.331   7.315  0.8011  0.5992  0.6832
  839MOL0     H15776   2.577   3.280   7.386  0.7873  0.4311  0.3562
  839MOL0     H15777   2.455   3.267   7.509  0.4745  0.9151  0.6096
  839MOL0     H15778   2.535   3.686   7.537  0.9893  0.1931 -1.8010
  839MOL0     H15779   2.157   3.401   6.925  1.3137  0.1564  2.3157
  839MOL0     H15780   1.974   3.410   6.595  0.1998 -0.4529  0.0235
  839MOL0     H15781   1.913   3.467   6.758 -1.5995 -4.9032  0.8080
  839MOL0     H15782   2.084   3.484   6.702 -0.6866  2.4825  3.0366
  840MOL0     O15783   9.555   6.396   7.920  0.4252  0.5447  0.5962
  840MOL0     C15784   9.542   6.342   8.030  0.1546  0.2754 -0.6658
  840MOL0     O15785   9.515   6.213   8.060  0.0931  0.9093 -0.0297
  840MOL0     C15786   9.485   6.130   7.966 -0.3764 -0.7638  0.1896
  840MOL0     C15787   9.357   6.141   7.904 -0.6682  0.6802 -0.2326
  840MOL0     C15788   9.332   6.049   7.804 -0.7349  0.6005  0.6407
  840MOL0     C15789   9.423   5.945   7.769  0.2173 -0.8456 -0.0902
  840MOL0     O15790   9.375   5.863   7.669 -0.8204 -1.2023  0.5270
  840MOL0     C15791   9.372   5.729   7.703  0.4370 -1.0113 -0.5013
  840MOL0     C15792   9.304   5.642   7.588 -0.5293 -0.6390 -0.5633
  840MOL0     C15793   9.370   5.663   7.450 -1.3911 -0.7562  0.2667
  840MOL0     C15794   9.320   5.564   7.343 -0.2859 -0.6133 -0.7519
  840MOL0     C15795   9.226   5.635   7.242 -0.5118  0.4078  0.5252
  840MOL0     C15796   9.091   5.675   7.296 -0.1927  0.0265 -0.5501
  840MOL0     C15797   8.995   5.560   7.349 -0.0815 -0.0844 -0.7172
  840MOL0     C15798   8.963   5.447   7.253 -0.4503 -0.0079 -0.6914
  840MOL0     N15799   8.900   5.332   7.315  0.3959 -1.2692 -0.1971
  840MOL0     C15800   8.940   5.268   7.433 -0.0001 -0.1679  0.0156
  840MOL0     C15801   8.843   5.170   7.447  0.2325 -0.9809 -0.3278
  840MOL0     C15802   8.851   5.055   7.545  0.2128 -0.1173  0.2951
  840MOL0     C15803   8.734   5.052   7.650 -0.3446 -0.4791  0.1861
  840MOL0     C15804   8.603   4.994   7.583 -0.2885  0.3220 -0.4772
  840MOL0     C15805   8.525   4.930   7.695  0.7378 -0.0036 -0.1017
  840MOL0     O15806   8.584   4.802   7.715 -0.6825  0.1045 -0.4678
  840MOL0     C15807   8.529   4.716   7.632  0.1274 -0.2466  0.0416
  840MOL0     C15808   8.394   4.695   7.644  0.1665 -0.6589  0.8713
  840MOL0     C15809   8.335   4.603   7.557  0.0641  0.3309 -0.0173
  840MOL0     C15810   8.189   4.573   7.598 -0.3994 -0.0658 -0.3629
  840MOL0     C15811   8.411   4.541   7.450  0.7187  0.5248  0.6669
  840MOL0     C15812   8.352   4.433   7.364  0.0064 -1.5767 -0.2769
  840MOL0     O15813   8.411   4.309   7.359  0.1679  0.0320 -0.1253
  840MOL0     C15814   8.355   4.206   7.293 -0.1646 -0.0294 -0.2693
  840MOL0     C15815   8.217   4.184   7.280 -1.2841 -0.9831  0.7663
  840MOL0     C15816   8.160   4.065   7.237 -0.0525 -0.0830 -0.2383
  840MOL0     C15817   8.250   3.968   7.186 -0.1906 -0.0810 -0.3136
  840MOL0     O15818   8.215   3.853   7.121 -0.2878 -0.7580 -0.1440
  840MOL0     C15819   8.081   3.825   7.083 -0.3813  0.3267 -0.1312
  840MOL0     C15820   8.018   3.739   7.191  0.8300 -0.4079  0.5786
  840MOL0     C15821   7.855   3.749   7.192 -0.5652  0.3890  1.0897
  840MOL0     C15822   7.792   3.649   7.294 -0.1092  0.2942 -0.2917
  840MOL0     C15823   7.831   3.683   7.441  0.8195  0.8153  0.9184
  840MOL0     C15824   7.738   3.613   7.549 -0.0488  0.6094  0.3572
  840MOL0     C15825   7.772   3.670   7.687  0.4585 -0.1608  0.4914
  840MOL0     C15826   7.682   3.618   7.782  0.4861  0.2869 -0.3645
  840MOL0    Cl15827   7.736   3.451   7.806 -0.1775  0.0480 -0.5365
  840MOL0     C15828   8.387   3.996   7.179  1.1393  0.3570  0.1974
  840MOL0     C15829   8.439   4.107   7.240  0.2702 -0.1974 -0.9562
  840MOL0     O15830   8.244   4.464   7.308 -0.2054  0.0708 -0.4295
  840MOL0     C15831   8.547   4.575   7.438  0.2057 -0.0294 -0.2802
  840MOL0     C15832   8.609   4.652   7.537 -0.1635  0.6307 -0.0357
  840MOL0     N15833   8.757   5.166   7.341 -0.2865  0.2784  0.1412
  840MOL0     N15834   8.777   5.278   7.277 -0.7917 -0.1997 -0.0564
  840MOL0     C15835   9.539   5.931   7.842 -0.1936  0.4332  0.4898
  840MOL0     C15836   9.565   6.021   7.940 -0.2920  0.1064 -0.5466
  840MOL0     C15837   9.549   6.435   8.153 -0.5262 -0.8989  0.0749
  840MOL0     C15838   9.568   6.388   8.282  0.6640 -0.2538  0.0574
  840MOL0     C15839   9.605   6.472   8.390  0.0525 -0.6301  0.1106
  840MOL0     C15840   9.602   6.612   8.370 -0.1434 -0.3658  0.5579
  840MOL0     O15841   9.633   6.679   8.485  0.0700 -0.2112 -0.3900
  840MOL0     C15842   9.766   6.733   8.488  0.1954  0.1714  0.5797
  840MOL0     C15843   9.793   6.828   8.602 -0.0455 -1.0704  0.4510
  840MOL0     C15844   9.768   6.774   8.745 -0.5236  0.7288  0.8528
  840MOL0     C15845   9.871   6.665   8.793  0.3991  0.6988 -0.4086
  840MOL0     C15846   9.999   6.712   8.841 -1.0339 -0.0908  0.6384
  840MOL0     C15847  10.112   6.744   8.869 -0.3918 -0.3539 -0.3772
  840MOL0     C15848   9.568   6.664   8.245 -0.2748  0.0932  0.1454
  840MOL0     C15849   9.552   6.576   8.136  0.6280 -0.9226  0.3600
  840MOL0     C15850   9.499   6.646   8.012 -0.7987 -0.9470  0.5578
  840MOL0     H15851   9.287   6.220   7.928 -4.6539 -3.2607  2.7836
  840MOL0     H15852   9.246   6.052   7.738 -0.3282  0.1864  0.0760
  840MOL0     H15853   9.309   5.719   7.791 -0.4219  1.5542 -0.7555
  840MOL0     H15854   9.471   5.686   7.718  0.2131 -0.9787  1.1876
  840MOL0     H15855   9.310   5.536   7.617  3.7705 -0.7322 -1.1741
  840MOL0     H15856   9.196   5.655   7.575 -0.4840  0.6739  0.2514
  840MOL0     H15857   9.344   5.766   7.426 -2.5593 -0.9058  0.7727
  840MOL0     H15858   9.479   5.661   7.449 -1.0456  4.3267  1.1896
  840MOL0     H15859   9.403   5.517   7.291 -0.3749 -0.7706 -0.7504
  840MOL0     H15860   9.275   5.480   7.396 -1.9108  0.3186 -0.5767
  840MOL0     H15861   9.199   5.571   7.157 -0.2803 -1.9503  2.1307
  840MOL0     H15862   9.277   5.724   7.204  1.5428 -0.2044  1.7348
  840MOL0     H15863   9.096   5.752   7.373 -1.1275 -1.2070  0.7991
  840MOL0     H15864   9.037   5.723   7.214  0.6692  1.3079 -0.4040
  840MOL0     H15865   8.900   5.608   7.374  0.0186 -0.2331 -0.0304
  840MOL0     H15866   9.034   5.516   7.441  2.0693  1.5436 -0.7667
  840MOL0     H15867   8.882   5.479   7.187 -0.3343 -1.5310 -1.6351
  840MOL0     H15868   9.051   5.403   7.204 -2.3464 -2.8276 -1.8350
  840MOL0     H15869   9.031   5.297   7.484  0.7142 -2.6894  0.2755
  840MOL0     H15870   8.947   5.060   7.596  0.3921 -1.6606  0.1355
  840MOL0     H15871   8.844   4.967   7.481 -0.8870  0.6977 -0.7782
  840MOL0     H15872   8.756   4.997   7.742  3.6374 -0.5339 -0.6079
  840MOL0     H15873   8.722   5.154   7.690  1.1657 -0.2861  0.2134
  840MOL0     H15874   8.540   5.073   7.541  0.8590  1.9969  0.7907
  840MOL0     H15875   8.609   4.923   7.500  0.4928 -0.8970  0.5918
  840MOL0     H15876   8.526   4.984   7.790  0.8603 -1.2312  0.6045
  840MOL0     H15877   8.426   4.929   7.649  1.7434  1.1039 -2.4844
  840MOL0     H15878   8.343   4.737   7.730  0.9401  0.2968  0.8756
  840MOL0     H15879   8.177   4.587   7.706  0.7395  2.5786 -0.4943
  840MOL0     H15880   8.172   4.467   7.576  1.8678 -1.4228  3.4332
  840MOL0     H15881   8.124   4.642   7.544  1.9339  0.9673 -2.0444
  840MOL0     H15882   8.147   4.249   7.331 -1.0724  0.2587 -0.4548
  840MOL0     H15883   8.053   4.044   7.245 -0.1328 -1.2955 -3.2099
  840MOL0     H15884   8.013   3.908   7.059 -1.2329  2.6534  7.4783
  840MOL0     H15885   8.072   3.762   6.994  0.1334 -1.5791  1.0945
  840MOL0     H15886   8.048   3.639   7.159  1.7784  0.3863 -1.2154
  840MOL0     H15887   8.059   3.757   7.291 -1.0689 -1.7845  1.6688
  840MOL0     H15888   7.817   3.721   7.093 -0.3602 -1.1807  1.4247
  840MOL0     H15889   7.812   3.847   7.214  1.7935  1.3228  1.7929
  840MOL0     H15890   7.809   3.546   7.263 -1.6015  0.5620 -2.1845
  840MOL0     H15891   7.684   3.656   7.285 -0.2217  1.5972  1.5258
  840MOL0     H15892   7.936   3.658   7.460  1.7283  4.6266  1.8472
  840MOL0     H15893   7.827   3.792   7.444  1.1557  0.8892 -0.6322
  840MOL0     H15894   7.742   3.507   7.524  1.4528  1.1788 -2.2340
  840MOL0     H15895   7.634   3.643   7.535  0.1806  0.7337 -1.3363
  840MOL0     H15896   7.767   3.779   7.690 -1.2217 -0.2384  1.6588
  840MOL0     H15897   7.870   3.643   7.728  0.1411 -0.2481  1.1986
  840MOL0     H15898   7.575   3.624   7.759  1.0848 -0.8990 -4.0223
  840MOL0     H15899   7.703   3.672   7.875  0.4798 -0.5391  0.1335
  840MOL0     H15900   8.447   3.933   7.115  1.1244 -0.6671  1.1453
  840MOL0     H15901   8.545   4.130   7.242  0.1789  0.3138  1.2911
  840MOL0     H15902   8.620   4.532   7.370  1.0622  0.3980  0.3393
  840MOL0     H15903   8.717   4.651   7.547 -0.1811 -3.7299  2.0942
  840MOL0     H15904   9.602   5.844   7.823  0.2494  0.8894 -0.1798
  840MOL0     H15905   9.653   6.013   8.004 -0.7449  0.7151  0.1792
  840MOL0     H15906   9.560   6.282   8.304 -0.0715 -1.5621 -5.1731
  840MOL0     H15907   9.647   6.429   8.481  2.8843 -1.4418 -1.4571
  840MOL0     H15908   9.840   6.653   8.475  0.7939  1.1771 -4.0842
  840MOL0     H15909   9.792   6.778   8.391 -0.0185  0.1590  0.5154
  840MOL0     H15910   9.733   6.919   8.596 -0.6023 -1.5150 -1.6451
  840MOL0     H15911   9.892   6.875   8.597 -1.1281  1.6440 -5.8361
  840MOL0     H15912   9.771   6.859   8.813 -2.2137  0.4053  1.3641
  840MOL0     H15913   9.669   6.728   8.746  0.0732 -0.8919 -2.0335
  840MOL0     H15914   9.893   6.604   8.705  0.8217 -1.5308  1.1410
  840MOL0     H15915   9.832   6.598   8.871  3.1056  3.0481  3.2886
  840MOL0     H15916  10.208   6.771   8.906  0.5298 -2.3362 -1.1995
  840MOL0     H15917   9.552   6.769   8.223  2.1237  1.0325  2.3829
  840MOL0     H15918   9.419   6.591   7.961  0.2026 -2.4305  0.5518
  840MOL0     H15919   9.471   6.751   8.026 -1.2348 -0.9160 -0.3967
  840MOL0     H15920   9.579   6.651   7.938  0.2928 -0.6619  1.7397
  841MOL0     O15921   4.709   3.058   4.449  0.0572  0.5640 -0.8057
  841MOL0     C15922   4.828   3.018   4.425 -0.0903 -0.1135 -0.6751
  841MOL0     O15923   4.903   2.940   4.513  0.5316 -0.3542 -0.3768
  841MOL0     C15924   4.836   2.919   4.631  0.0585  0.5773  0.5578
  841MOL0     C15925   4.769   3.014   4.709 -0.2389  0.0463 -0.3390
  841MOL0     C15926   4.701   2.986   4.819  0.1056  0.8594 -0.1548
  841MOL0     C15927   4.692   2.851   4.867 -0.0432 -0.2789 -0.0414
  841MOL0     O15928   4.623   2.801   4.978  0.1054 -0.6212  0.4666
  841MOL0     C15929   4.574   2.896   5.067  0.7584 -0.5885  0.1918
  841MOL0     C15930   4.543   2.832   5.204 -0.1888  0.3382  0.2665
  841MOL0     C15931   4.675   2.778   5.267  0.2898  0.1174  0.7071
  841MOL0     C15932   4.647   2.725   5.412 -0.2751  0.1446 -0.6318
  841MOL0     C15933   4.766   2.650   5.481  0.5629 -0.6988 -0.1525
  841MOL0     C15934   4.866   2.758   5.538 -0.2204  0.0800 -0.7089
  841MOL0     C15935   4.857   2.769   5.689  0.5760 -0.3744  0.2622
  841MOL0     C15936   4.848   2.909   5.749 -0.3380  0.2482  1.0740
  841MOL0     N15937   4.891   2.923   5.887 -0.0814 -0.1668 -0.3399
  841MOL0     C15938   5.014   2.888   5.953  0.6978 -0.3391 -0.5409
  841MOL0     C15939   4.996   2.925   6.080 -0.8135 -0.6060 -0.0290
  841MOL0     C15940   5.094   2.929   6.192 -0.5902 -0.1777  1.2947
  841MOL0     C15941   5.124   2.793   6.263  0.2429 -0.2041 -0.3219
  841MOL0     C15942   5.000   2.744   6.343  0.0856  0.2570  0.2712
  841MOL0     C15943   4.956   2.834   6.451 -0.5278  0.7346 -0.1891
  841MOL0     O15944   5.050   2.838   6.565 -1.3311 -0.3436  0.3209
  841MOL0     C15945   5.046   2.950   6.645 -0.3725  0.2130 -0.7655
  841MOL0     C15946   4.941   3.047   6.657  0.4604  0.2399 -0.6312
  841MOL0     C15947   4.962   3.155   6.748  0.3114 -0.5725 -0.0841
  841MOL0     C15948   4.851   3.244   6.771  0.8411 -1.0971 -0.6055
  841MOL0     C15949   5.077   3.162   6.825 -0.3759 -1.0153  0.2056
  841MOL0     C15950   5.089   3.254   6.945  0.0050 -0.6098 -0.3080
  841MOL0     O15951   5.011   3.227   7.051  0.6118  0.3455  0.4352
  841MOL0     C15952   5.013   3.315   7.161  0.0712  0.2936 -0.2350
  841MOL0     C15953   4.946   3.438   7.161 -1.2022 -0.5290  0.7002
  841MOL0     C15954   4.929   3.520   7.272  0.2311 -0.4077 -0.9728
  841MOL0     C15955   4.967   3.470   7.401 -0.0833  0.1866 -0.2146
  841MOL0     O15956   4.944   3.540   7.514  0.3040  0.3668  0.4185
  841MOL0     C15957   4.827   3.501   7.588 -1.0010  0.0880 -0.8367
  841MOL0     C15958   4.691   3.509   7.521 -0.4185  0.6630 -0.9719
  841MOL0     C15959   4.584   3.531   7.637  0.7391 -0.2329  0.8892
  841MOL0     C15960   4.450   3.526   7.568  0.3832  0.2574 -0.0796
  841MOL0     C15961   4.400   3.656   7.506 -0.6035 -0.1674 -0.1367
  841MOL0     C15962   4.261   3.630   7.431 -0.2861 -0.0087  0.9231
  841MOL0     C15963   4.246   3.748   7.334 -0.4302  0.7788 -0.3857
  841MOL0     C15964   4.218   3.885   7.404 -0.2392 -0.4647  0.2806
  841MOL0    Cl15965   4.087   3.876   7.532  0.0384  0.2322 -0.1852
  841MOL0     C15966   5.048   3.355   7.403  0.0396 -0.4650  0.7135
  841MOL0     C15967   5.069   3.286   7.288 -0.2175 -0.2975  0.3708
  841MOL0     O15968   5.157   3.355   6.928  0.3234  0.1734  1.0937
  841MOL0     C15969   5.173   3.057   6.820  0.9139  0.0955 -0.0216
  841MOL0     C15970   5.152   2.956   6.730  0.4017 -0.1128  0.5898
  841MOL0     N15971   4.871   2.993   6.088 -0.6617 -0.3901  0.2598
  841MOL0     N15972   4.825   3.009   5.972  0.2297  0.1717 -0.3286
  841MOL0     C15973   4.743   2.754   4.784 -0.7347  0.1535  0.1176
  841MOL0     C15974   4.825   2.792   4.673  0.1026  0.4246 -0.2428
  841MOL0     C15975   4.904   3.041   4.301 -0.3251 -0.2412  0.0460
  841MOL0     C15976   5.041   3.009   4.289 -0.9761  0.1950  0.4890
  841MOL0     C15977   5.101   3.005   4.164 -0.0449 -0.2592  0.5762
  841MOL0     C15978   5.032   3.043   4.047  0.7500  0.5772  0.9936
  841MOL0     O15979   5.095   3.026   3.921  0.6871 -0.7080 -0.3231
  841MOL0     C15980   5.067   2.902   3.848  0.6741 -0.3313 -0.6241
  841MOL0     C15981   5.135   2.912   3.713  0.0254 -0.2920 -0.6304
  841MOL0     C15982   5.280   2.882   3.736 -0.4069 -0.3296  0.4501
  841MOL0     C15983   5.373   2.861   3.613  0.0996  0.5768 -0.2495
  841MOL0     C15984   5.508   2.823   3.650 -0.0702 -0.1337  0.2746
  841MOL0     C15985   5.609   2.793   3.693  0.6473  0.3092 -0.7792
  841MOL0     C15986   4.894   3.084   4.058  0.0176  0.3026 -0.6598
  841MOL0     C15987   4.839   3.092   4.184 -0.5305 -0.5831  0.3299
  841MOL0     C15988   4.703   3.142   4.178 -0.0730 -0.8251  0.1383
  841MOL0     H15989   4.780   3.118   4.680  0.7843 -0.6154 -2.5436
  841MOL0     H15990   4.643   3.064   4.868 -1.2595 -0.3527  0.2261
  841MOL0     H15991   4.480   2.939   5.030  1.9729  2.2844  0.1726
  841MOL0     H15992   4.648   2.976   5.079 -0.4126  0.6084 -0.2693
  841MOL0     H15993   4.501   2.912   5.265  1.8052  0.5789  1.3953
  841MOL0     H15994   4.472   2.750   5.186 -1.7025  1.2981  1.6558
  841MOL0     H15995   4.721   2.696   5.211  0.3655 -0.7929  2.0559
  841MOL0     H15996   4.740   2.866   5.268 -0.7120  1.0689 -2.6841
  841MOL0     H15997   4.615   2.806   5.477  1.7241 -1.3135  2.4557
  841MOL0     H15998   4.571   2.648   5.397  0.4748 -0.7232 -0.1276
  841MOL0     H15999   4.827   2.590   5.413 -0.5638 -0.4389 -1.4447
  841MOL0     H16000   4.730   2.580   5.557  1.1645 -0.7086  0.1310
  841MOL0     H16001   4.972   2.737   5.517  0.5904 -2.7323  4.4502
  841MOL0     H16002   4.838   2.856   5.499  2.2828  0.6101 -1.3778
  841MOL0     H16003   4.943   2.720   5.734 -1.9433 -2.6003  3.1270
  841MOL0     H16004   4.771   2.710   5.721 -1.6056  3.0443  1.3350
  841MOL0     H16005   4.910   2.988   5.705  0.4957  1.0572  3.5193
  841MOL0     H16006   4.744   2.941   5.742 -0.7215 -1.2944 -2.0404
  841MOL0     H16007   5.097   2.830   5.914  0.6610 -0.1260 -0.9430
  841MOL0     H16008   5.053   3.002   6.262  2.0293  1.0099  1.7207
  841MOL0     H16009   5.189   2.954   6.144 -0.5006 -2.7561 -0.0638
  841MOL0     H16010   5.158   2.704   6.209  0.9238 -1.2145  1.6725
  841MOL0     H16011   5.202   2.815   6.336 -0.8232  0.4592  0.6477
  841MOL0     H16012   4.912   2.726   6.280  0.3077 -2.0019  0.5364
  841MOL0     H16013   5.034   2.653   6.392 -2.7389 -1.8222 -1.3220
  841MOL0     H16014   4.940   2.929   6.400  1.4355 -0.7677 -4.0569
  841MOL0     H16015   4.855   2.801   6.476  0.2822 -0.7693  1.2472
  841MOL0     H16016   4.854   3.052   6.593  0.1949 -0.0557 -0.2967
  841MOL0     H16017   4.897   3.341   6.791  1.4511 -1.2261 -1.3254
  841MOL0     H16018   4.786   3.221   6.856 -0.7863 -0.4143 -1.6267
  841MOL0     H16019   4.776   3.254   6.692 -2.1243  0.9185  2.2200
  841MOL0     H16020   4.901   3.463   7.065  0.0712 -0.7019  0.0282
  841MOL0     H16021   4.873   3.613   7.270  4.1037  2.2184  0.6783
  841MOL0     H16022   4.838   3.397   7.620 -1.0875  0.9035  2.0480
  841MOL0     H16023   4.826   3.557   7.681 -1.6345 -0.0581 -0.7519
  841MOL0     H16024   4.689   3.599   7.459  0.3859  0.8294 -0.7570
  841MOL0     H16025   4.681   3.417   7.462 -3.6011  0.2917 -0.0276
  841MOL0     H16026   4.591   3.628   7.687 -0.5690  1.6762 -2.3034
  841MOL0     H16027   4.587   3.456   7.717  1.2916  2.5358  3.6526
  841MOL0     H16028   4.373   3.504   7.643  0.2270  3.5864  0.8971
  841MOL0     H16029   4.442   3.450   7.489 -2.1845  0.5368 -0.1605
  841MOL0     H16030   4.396   3.732   7.584 -0.7565 -0.1453 -0.1649
  841MOL0     H16031   4.478   3.680   7.433 -0.4963  1.7129  0.5454
  841MOL0     H16032   4.182   3.624   7.507 -1.3914 -2.3146 -0.3100
  841MOL0     H16033   4.259   3.537   7.374  1.1016  0.1312  0.6175
  841MOL0     H16034   4.168   3.730   7.259  0.3161  2.0113 -1.5241
  841MOL0     H16035   4.336   3.761   7.274  0.1432 -2.7380 -0.4984
  841MOL0     H16036   4.202   3.969   7.336 -0.8540  1.8540  3.0717
  841MOL0     H16037   4.306   3.915   7.462 -1.5964  0.1726  2.1017
  841MOL0     H16038   5.092   3.329   7.499  1.1507  0.6254  0.5230
  841MOL0     H16039   5.130   3.196   7.289 -1.0898 -0.9392 -1.2080
  841MOL0     H16040   5.254   3.043   6.891 -1.2949 -0.6734  2.4759
  841MOL0     H16041   5.229   2.880   6.729 -0.5424 -1.2398  3.5632
  841MOL0     H16042   4.739   2.649   4.811 -1.0279 -0.1624 -1.0725
  841MOL0     H16043   4.880   2.717   4.616 -1.4393  0.4600 -1.8488
  841MOL0     H16044   5.099   2.954   4.362 -1.2487  1.0866  1.3934
  841MOL0     H16045   5.203   2.968   4.158  0.3552  0.9155 -0.1559
  841MOL0     H16046   5.097   2.809   3.896 -1.1401 -1.6899 -2.0035
  841MOL0     H16047   4.963   2.901   3.816  0.6879 -1.3272 -0.6712
  841MOL0     H16048   5.126   3.011   3.667 -0.4784 -0.0803 -0.0761
  841MOL0     H16049   5.087   2.838   3.649  3.5594 -3.5555  0.1497
  841MOL0     H16050   5.318   2.960   3.802  0.4790  0.5346 -1.0270
  841MOL0     H16051   5.279   2.788   3.792  1.2601 -1.0685 -0.6888
  841MOL0     H16052   5.383   2.955   3.558  1.7048  0.7315  0.2595
  841MOL0     H16053   5.322   2.787   3.551  0.9367  0.6583 -1.0515
  841MOL0     H16054   5.711   2.769   3.718 -0.7118 -3.4871  2.0042
  841MOL0     H16055   4.832   3.082   3.969 -3.5865  2.5310  1.5409
  841MOL0     H16056   4.697   3.239   4.226 -3.3664 -0.4832 -0.7427
  841MOL0     H16057   4.674   3.156   4.074 -0.1200  0.5542  0.3280
  841MOL0     H16058   4.637   3.064   4.217 -0.3286 -0.0811  1.2159
  842MOL0     O16059   7.502   8.771   8.414 -0.0454  0.2674 -0.6281
  842MOL0     C16060   7.446   8.764   8.523 -0.8400 -0.3522  0.1288
  842MOL0     O16061   7.322   8.713   8.537  0.3706 -0.1314  0.8035
  842MOL0     C16062   7.247   8.676   8.425  0.9079 -0.7775 -0.2157
  842MOL0     C16063   7.205   8.547   8.417  0.6832  0.6739 -0.2789
  842MOL0     C16064   7.139   8.506   8.297  0.1558  0.3572  0.7375
  842MOL0     C16065   7.113   8.597   8.192 -0.3477  0.4699  0.7043
  842MOL0     O16066   7.058   8.544   8.079  0.0112  0.4756  0.0079
  842MOL0     C16067   7.136   8.554   7.954 -0.3172  0.9060 -0.0860
  842MOL0     C16068   7.286   8.514   7.960 -0.4597  0.2293 -1.1248
  842MOL0     C16069   7.370   8.526   7.825 -0.0154 -0.0207 -0.1347
  842MOL0     C16070   7.326   8.453   7.702  0.4516  0.6192  0.0401
  842MOL0     C16071   7.434   8.448   7.586 -0.7761 -0.2790 -0.6115
  842MOL0     C16072   7.378   8.377   7.460  0.0143 -0.7726 -1.1484
  842MOL0     C16073   7.455   8.396   7.325  0.0156 -0.4021 -0.2786
  842MOL0     C16074   7.390   8.303   7.216 -0.5913  0.1653 -0.5860
  842MOL0     N16075   7.369   8.155   7.236  0.9604 -0.3763 -0.0457
  842MOL0     C16076   7.245   8.107   7.211 -0.0257  0.0980  0.2155
  842MOL0     C16077   7.265   7.972   7.211 -0.2212  0.0567 -0.1494
  842MOL0     C16078   7.148   7.871   7.197 -0.3868  0.2011  0.5966
  842MOL0     C16079   7.202   7.724   7.172 -0.2021  0.7217  0.2278
  842MOL0     C16080   7.105   7.602   7.164 -0.0236  0.1511  0.2894
  842MOL0     C16081   6.992   7.590   7.261 -0.0281 -0.1998 -0.1550
  842MOL0     O16082   6.934   7.461   7.225  0.6432 -0.1427 -0.3505
  842MOL0     C16083   6.832   7.452   7.129 -0.0052  0.3382 -0.5484
  842MOL0     C16084   6.790   7.565   7.054  0.3318  0.3369 -1.1889
  842MOL0     C16085   6.690   7.556   6.961 -0.0902 -0.0739 -0.1480
  842MOL0     C16086   6.654   7.676   6.878 -0.1827 -0.7789 -0.1098
  842MOL0     C16087   6.628   7.430   6.935  1.6345  0.7695  0.2364
  842MOL0     C16088   6.521   7.416   6.828  1.2038  0.4455  0.6097
  842MOL0     O16089   6.426   7.515   6.807  0.8678  0.3041  0.0998
  842MOL0     C16090   6.339   7.498   6.703  0.2255  0.2810 -0.3284
  842MOL0     C16091   6.361   7.500   6.561 -0.0169  0.4237 -0.0368
  842MOL0     C16092   6.255   7.493   6.471  0.3997 -0.2723  0.9172
  842MOL0     C16093   6.125   7.479   6.524  0.5341 -0.4619  0.0882
  842MOL0     O16094   6.025   7.468   6.437 -0.8505  0.2578  0.5231
  842MOL0     C16095   5.899   7.534   6.454 -0.1993 -0.1299 -0.0871
  842MOL0     C16096   5.816   7.534   6.328 -0.3521  0.2746 -0.6832
  842MOL0     C16097   5.861   7.660   6.251 -0.4330 -0.0268  0.3398
  842MOL0     C16098   5.801   7.654   6.110  0.5071  0.4529  0.2265
  842MOL0     C16099   5.832   7.783   6.039  0.6321 -0.1373  0.0881
  842MOL0     C16100   5.773   7.789   5.889 -0.0616  0.7253 -0.4627
  842MOL0     C16101   5.827   7.927   5.840 -0.3451  0.5269  0.1690
  842MOL0     C16102   5.818   7.950   5.698 -0.6219 -0.2626  0.2771
  842MOL0    Cl16103   5.660   7.884   5.642  0.0299 -0.1090 -0.3830
  842MOL0     C16104   6.098   7.480   6.657  0.0368 -0.3266  0.1768
  842MOL0     C16105   6.206   7.501   6.744  0.5923  0.3395  0.5777
  842MOL0     O16106   6.516   7.310   6.768 -0.2488  0.2136 -0.8295
  842MOL0     C16107   6.665   7.316   6.997 -0.9213 -0.0322 -0.0592
  842MOL0     C16108   6.769   7.329   7.098  0.0650  0.6019 -0.3632
  842MOL0     N16109   7.394   7.945   7.254  0.2161 -0.8265 -0.2087
  842MOL0     N16110   7.454   8.055   7.268  0.6232 -0.5236 -0.0678
  842MOL0     C16111   7.160   8.725   8.202 -0.3557  0.7823 -0.7213
  842MOL0     C16112   7.224   8.763   8.319  0.1393  0.4556 -0.1188
  842MOL0     C16113   7.512   8.826   8.644  0.3105  0.6118  1.2115
  842MOL0     C16114   7.420   8.841   8.749  0.1236 -0.1447  0.6438
  842MOL0     C16115   7.467   8.889   8.875 -0.6602  0.2912  0.0124
  842MOL0     C16116   7.599   8.900   8.905 -1.3031  0.2299  0.0092
  842MOL0     O16117   7.632   8.939   9.033 -0.4010 -0.7191  0.7533
  842MOL0     C16118   7.720   9.049   9.036 -0.3678 -0.7593  0.3707
  842MOL0     C16119   7.727   9.107   9.175  0.7607 -1.0037 -0.4024
  842MOL0     C16120   7.761   9.003   9.290  0.1054 -0.2049 -0.1955
  842MOL0     C16121   7.806   9.086   9.409 -0.5822  0.0619 -0.6062
  842MOL0     C16122   7.704   9.183   9.454 -0.2295 -0.5367  0.5432
  842MOL0     C16123   7.622   9.270   9.483 -0.0921 -0.3070 -0.3677
  842MOL0     C16124   7.692   8.881   8.808  0.1824 -0.8350  0.3287
  842MOL0     C16125   7.651   8.850   8.674 -0.0230  0.0896  0.2100
  842MOL0     C16126   7.759   8.827   8.575 -0.0961 -0.2133  0.2139
  842MOL0     H16127   7.229   8.480   8.499  1.4048  0.1339 -0.9311
  842MOL0     H16128   7.099   8.405   8.288  0.3525  0.3393  0.0264
  842MOL0     H16129   7.125   8.655   7.913  1.1234  1.1705  0.1408
  842MOL0     H16130   7.088   8.484   7.884  1.2350  0.9892 -1.2777
  842MOL0     H16131   7.335   8.581   8.032 -0.5872 -1.4912  0.6400
  842MOL0     H16132   7.315   8.420   8.007 -0.3533  1.9751  2.6702
  842MOL0     H16133   7.367   8.628   7.786  0.4860  0.2951  0.6207
  842MOL0     H16134   7.473   8.495   7.842 -0.0841 -1.3337 -1.9041
  842MOL0     H16135   7.302   8.352   7.738 -1.6633  1.7362  2.0474
  842MOL0     H16136   7.232   8.497   7.667 -0.5724 -1.3003  0.2266
  842MOL0     H16137   7.519   8.398   7.632 -1.6417  1.1535  2.9402
  842MOL0     H16138   7.476   8.545   7.558  0.6012 -0.8135 -0.4707
  842MOL0     H16139   7.381   8.270   7.482  2.1145 -0.6331 -0.5623
  842MOL0     H16140   7.275   8.408   7.439 -1.6770 -3.9780  1.5234
  842MOL0     H16141   7.560   8.385   7.351 -0.9755 -1.4949  4.1255
  842MOL0     H16142   7.440   8.501   7.297 -1.7248 -0.4963  0.1779
  842MOL0     H16143   7.291   8.339   7.188 -1.5964 -2.9905 -1.6111
  842MOL0     H16144   7.453   8.315   7.127 -0.8799 -0.1209 -0.8334
  842MOL0     H16145   7.150   8.158   7.194  1.2837  2.1157 -1.6700
  842MOL0     H16146   7.082   7.900   7.114 -2.5163 -0.5494  1.9293
  842MOL0     H16147   7.089   7.874   7.290 -1.9891  1.7667 -0.3921
  842MOL0     H16148   7.272   7.727   7.088 -0.1295 -3.1827  0.0049
  842MOL0     H16149   7.269   7.709   7.257  0.3626  1.3649 -0.0925
  842MOL0     H16150   7.071   7.600   7.060  3.7347  1.0111 -1.1016
  842MOL0     H16151   7.162   7.510   7.182  0.4084  0.5062  0.7528
  842MOL0     H16152   7.032   7.605   7.362 -2.3770 -2.1828  1.1764
  842MOL0     H16153   6.910   7.663   7.262  0.8075  0.7729 -0.6945
  842MOL0     H16154   6.832   7.664   7.066 -0.1180  0.2253  2.1511
  842MOL0     H16155   6.618   7.650   6.778 -0.4670 -0.4908 -0.0854
  842MOL0     H16156   6.743   7.737   6.857  0.1221 -1.3138 -0.3760
  842MOL0     H16157   6.579   7.731   6.936  1.0930  0.9115  0.0288
  842MOL0     H16158   6.465   7.508   6.529 -0.0785  3.8205  0.3062
  842MOL0     H16159   6.275   7.494   6.365 -2.3801 -0.8489  0.3099
  842MOL0     H16160   5.842   7.479   6.529 -0.5761 -1.1988 -1.1295
  842MOL0     H16161   5.913   7.639   6.479 -0.2187  0.6309 -2.9961
  842MOL0     H16162   5.837   7.447   6.266 -3.0230 -0.4337 -0.7307
  842MOL0     H16163   5.710   7.532   6.353 -0.2454 -1.3787 -0.2893
  842MOL0     H16164   5.969   7.673   6.233 -0.8921 -0.8119 -3.8593
  842MOL0     H16165   5.840   7.754   6.304  2.2782  1.1377 -0.4362
  842MOL0     H16166   5.692   7.652   6.117  0.5075  0.1433  0.1803
  842MOL0     H16167   5.838   7.572   6.047 -0.2582 -0.7241  1.2543
  842MOL0     H16168   5.780   7.863   6.094  1.1959  1.2602 -1.3298
  842MOL0     H16169   5.939   7.803   6.044  1.0753 -2.0726 -0.9173
  842MOL0     H16170   5.664   7.780   5.887 -0.1672  1.8518 -1.9034
  842MOL0     H16171   5.817   7.710   5.827 -0.4233 -1.8764  2.3766
  842MOL0     H16172   5.932   7.939   5.870 -0.2017 -0.6922  0.2048
  842MOL0     H16173   5.769   8.002   5.894 -1.6366 -0.2212 -0.1449
  842MOL0     H16174   5.899   7.900   5.643 -2.3855 -0.9037 -1.8853
  842MOL0     H16175   5.818   8.058   5.680 -2.3110  0.1429  2.3166
  842MOL0     H16176   5.996   7.486   6.694  0.7064  1.6305  1.8876
  842MOL0     H16177   6.196   7.534   6.847  2.8880  2.1565  0.2905
  842MOL0     H16178   6.624   7.219   6.970  0.2190 -0.2123 -1.2412
  842MOL0     H16179   6.816   7.238   7.135 -1.7521 -1.8713 -3.5903
  842MOL0     H16180   7.131   8.789   8.119  0.8318 -0.3878 -2.0956
  842MOL0     H16181   7.260   8.866   8.325 -1.0763  0.9348 -0.6474
  842MOL0     H16182   7.314   8.824   8.733  0.4952 -0.8842 -1.3108
  842MOL0     H16183   7.396   8.895   8.958 -0.3112 -0.9687  0.4390
  842MOL0     H16184   7.822   9.018   9.013 -0.6476 -1.8126  0.5203
  842MOL0     H16185   7.691   9.124   8.961  3.2891 -0.4150 -0.9336
  842MOL0     H16186   7.631   9.155   9.198  0.9683  0.8013 -2.9929
  842MOL0     H16187   7.805   9.183   9.165 -3.4322  3.6004 -1.5229
  842MOL0     H16188   7.677   8.939   9.320  0.3379  0.8801  3.1646
  842MOL0     H16189   7.840   8.932   9.265 -0.8934 -1.6051  0.4480
  842MOL0     H16190   7.901   9.132   9.380  0.6960 -3.6377 -3.1138
  842MOL0     H16191   7.825   9.016   9.491 -2.1107  1.3875  0.9578
  842MOL0     H16192   7.560   9.356   9.500  1.1281  0.2237  1.6133
  842MOL0     H16193   7.794   8.875   8.844 -0.6789  0.3730  3.1720
  842MOL0     H16194   7.746   8.863   8.472 -0.3240 -1.6856 -0.2995
  842MOL0     H16195   7.860   8.861   8.602  0.9157 -2.5866 -0.2952
  842MOL0     H16196   7.766   8.719   8.563 -1.4967 -0.9035  4.2951
  843MOL0     O16197   7.083   7.057   4.390 -0.2541  0.0493 -0.9167
  843MOL0     C16198   7.170   7.012   4.312 -0.0333  0.1256 -0.4125
  843MOL0     O16199   7.159   6.997   4.174  0.3629 -0.1957  0.4731
  843MOL0     C16200   7.045   7.025   4.111  0.1167 -0.3705  0.9413
  843MOL0     C16201   7.052   7.065   3.982  0.5706  0.7169  0.9180
  843MOL0     C16202   6.948   7.113   3.902  0.8698  0.3009 -0.0773
  843MOL0     C16203   6.814   7.098   3.938 -0.0520  0.3342 -0.4737
  843MOL0     O16204   6.709   7.116   3.853 -0.0491 -0.1417  0.7365
  843MOL0     C16205   6.700   7.261   3.828  0.1248  0.2955 -0.0796
  843MOL0     C16206   6.582   7.280   3.729  0.1335  0.6097 -0.0428
  843MOL0     C16207   6.619   7.242   3.589  0.8956 -0.1468  0.5429
  843MOL0     C16208   6.508   7.284   3.492  0.1775 -0.3041 -0.0631
  843MOL0     C16209   6.522   7.228   3.353 -0.1249 -0.2202 -0.0839
  843MOL0     C16210   6.414   7.273   3.250 -0.4097  0.2396 -0.9697
  843MOL0     C16211   6.280   7.223   3.305  0.5981  0.1296 -0.2160
  843MOL0     C16212   6.164   7.209   3.199  0.3225 -0.6928 -0.5460
  843MOL0     N16213   6.051   7.138   3.259 -0.0134  0.2740 -0.4466
  843MOL0     C16214   5.958   7.190   3.342  1.0021 -0.4885 -0.3365
  843MOL0     C16215   5.867   7.095   3.360  0.1143  0.4014  0.4587
  843MOL0     C16216   5.729   7.099   3.410  0.6061 -0.9861  0.7940
  843MOL0     C16217   5.627   7.139   3.309 -0.5516 -0.7152 -0.4801
  843MOL0     C16218   5.485   7.110   3.372 -0.0020  0.2299  0.5334
  843MOL0     C16219   5.379   7.194   3.314 -0.0799  0.3824  0.3461
  843MOL0     O16220   5.344   7.165   3.175  0.2530 -0.4620 -0.3188
  843MOL0     C16221   5.224   7.216   3.133  0.4388  0.8277  0.4025
  843MOL0     C16222   5.206   7.286   3.012  0.1400  0.1973 -0.1674
  843MOL0     C16223   5.085   7.323   2.956  0.9081  0.5688  0.5305
  843MOL0     C16224   5.087   7.360   2.808 -0.1228  0.7930 -0.9140
  843MOL0     C16225   4.968   7.301   3.036 -0.0731 -0.4754  0.3878
  843MOL0     C16226   4.829   7.333   2.998  0.4154 -0.1534 -0.0186
  843MOL0     O16227   4.724   7.310   3.086  0.3986 -0.7770  0.6931
  843MOL0     C16228   4.599   7.365   3.051  0.4155 -0.5878 -0.3732
  843MOL0     C16229   4.574   7.502   3.036 -0.4510 -0.3460 -0.2762
  843MOL0     C16230   4.442   7.543   3.010  0.2183  0.4770 -0.3315
  843MOL0     C16231   4.340   7.449   2.994  0.3497  0.7212  0.7363
  843MOL0     O16232   4.208   7.493   2.961  0.4358 -0.7426 -0.5310
  843MOL0     C16233   4.211   7.579   2.849 -0.7926 -0.0628  0.8225
  843MOL0     C16234   4.163   7.720   2.876 -0.2688 -0.3233 -0.3481
  843MOL0     C16235   4.039   7.712   2.965 -0.0344 -0.1590  0.1209
  843MOL0     C16236   3.970   7.850   2.966 -0.0850 -0.1090 -0.8049
  843MOL0     C16237   3.836   7.856   3.056  0.3634 -1.0848 -0.0314
  843MOL0     C16238   3.768   7.992   3.053  0.2174 -0.0041 -0.4305
  843MOL0     C16239   3.636   7.985   3.134  0.1180  0.4474 -0.0778
  843MOL0     C16240   3.544   8.109   3.147 -0.5918  0.1457 -0.0165
  843MOL0    Cl16241   3.474   8.175   2.996 -0.5453 -0.7016  0.5823
  843MOL0     C16242   4.367   7.315   2.995 -0.7145 -0.1795  0.2565
  843MOL0     C16243   4.496   7.269   3.025  0.0783 -0.0935  0.2489
  843MOL0     O16244   4.819   7.380   2.893 -0.6075  0.3700  0.6257
  843MOL0     C16245   4.980   7.232   3.158 -0.8569 -0.5810  0.8308
  843MOL0     C16246   5.102   7.180   3.201 -0.1041  0.0650  0.7378
  843MOL0     N16247   5.923   6.972   3.323  0.0974  0.2340 -0.4370
  843MOL0     N16248   6.030   7.004   3.255 -0.0164  0.1063  0.7746
  843MOL0     C16249   6.791   7.061   4.076  0.1849  0.2177  0.0945
  843MOL0     C16250   6.909   7.031   4.158 -0.8407 -0.2519 -1.0058
  843MOL0     C16251   7.287   6.960   4.377  0.0700 -0.3579 -0.2465
  843MOL0     C16252   7.345   6.851   4.316  0.5218  0.5662  0.7269
  843MOL0     C16253   7.462   6.793   4.376 -0.0877 -0.3543  0.2491
  843MOL0     C16254   7.498   6.824   4.504  0.2768  0.3854  0.7221
  843MOL0     O16255   7.587   6.740   4.564 -0.0753  0.4236 -0.3318
  843MOL0     C16256   7.632   6.773   4.702  0.0288 -0.3126  0.1480
  843MOL0     C16257   7.729   6.676   4.752 -0.5243  0.7646 -0.0516
  843MOL0     C16258   7.664   6.550   4.804  0.6619 -0.0763  0.5946
  843MOL0     C16259   7.759   6.439   4.860  0.2887 -0.3961  0.7266
  843MOL0     C16260   7.840   6.489   4.978 -0.3264  0.2614  1.0096
  843MOL0     C16261   7.894   6.557   5.059 -0.3309 -0.7261 -0.6837
  843MOL0     C16262   7.447   6.944   4.560 -0.0866  0.1686 -0.7101
  843MOL0     C16263   7.338   7.013   4.501 -0.5560 -0.6650 -0.1131
  843MOL0     C16264   7.289   7.150   4.573 -0.9313  0.2555  0.1829
  843MOL0     H16265   7.152   7.061   3.941  0.5623 -3.8096  0.8104
  843MOL0     H16266   6.954   7.134   3.796  1.2600  2.4105  0.3164
  843MOL0     H16267   6.786   7.308   3.780 -0.1354  0.7870 -0.0665
  843MOL0     H16268   6.678   7.317   3.920  1.6807  1.6439 -0.4856
  843MOL0     H16269   6.498   7.212   3.747 -1.1046  2.0450 -0.1582
  843MOL0     H16270   6.552   7.385   3.731 -1.6410  0.1410  2.1025
  843MOL0     H16271   6.710   7.295   3.559  0.3794  0.4516  0.0213
  843MOL0     H16272   6.634   7.133   3.581  1.7866 -0.0646  0.9694
  843MOL0     H16273   6.423   7.229   3.534  3.5351 -3.6918  2.8837
  843MOL0     H16274   6.494   7.393   3.486 -2.4965 -0.6560 -2.8008
  843MOL0     H16275   6.522   7.119   3.364 -2.6123 -0.0969  2.0707
  843MOL0     H16276   6.620   7.268   3.325 -0.4444  2.5415  2.2971
  843MOL0     H16277   6.420   7.382   3.258 -0.3593  0.1207  1.2177
  843MOL0     H16278   6.430   7.227   3.153 -0.7466  0.8498 -1.3241
  843MOL0     H16279   6.259   7.292   3.388  3.0666  1.2185 -0.4129
  843MOL0     H16280   6.306   7.133   3.361 -0.7766  1.1585  2.2692
  843MOL0     H16281   6.121   7.305   3.168 -0.5624 -0.6857  0.6773
  843MOL0     H16282   6.195   7.151   3.111  1.1123 -2.7369  1.0108
  843MOL0     H16283   5.938   7.291   3.374  1.8805 -0.0721 -1.0399
  843MOL0     H16284   5.720   7.164   3.497 -3.1155  1.1138 -0.9285
  843MOL0     H16285   5.698   6.997   3.434 -2.0054 -0.7625 -1.1761
  843MOL0     H16286   5.623   7.248   3.303 -3.5054 -0.7217  0.1125
  843MOL0     H16287   5.637   7.090   3.212 -2.7435 -1.2402 -0.4767
  843MOL0     H16288   5.461   7.003   3.376 -1.5022  0.5329  0.2163
  843MOL0     H16289   5.486   7.150   3.474  3.4796 -0.8407  1.0642
  843MOL0     H16290   5.291   7.183   3.378  0.2346 -0.0456  0.7174
  843MOL0     H16291   5.410   7.298   3.330 -1.1022  0.7006  0.3221
  843MOL0     H16292   5.298   7.294   2.955  0.3370  0.2013  0.1475
  843MOL0     H16293   5.081   7.470   2.808 -2.3831  1.0602  4.9019
  843MOL0     H16294   5.003   7.319   2.752 -3.0856  0.8146  3.0139
  843MOL0     H16295   5.181   7.321   2.769  0.9434 -0.6363  2.6578
  843MOL0     H16296   4.660   7.568   3.046  0.5883 -1.6438 -0.3530
  843MOL0     H16297   4.412   7.647   3.008 -0.7428  0.2031 -0.5996
  843MOL0     H16298   4.307   7.592   2.799 -1.3253 -0.4785 -0.3510
  843MOL0     H16299   4.157   7.524   2.772  3.1682 -1.8158 -0.9835
  843MOL0     H16300   4.245   7.781   2.914  1.5419 -2.4295 -0.6849
  843MOL0     H16301   4.141   7.753   2.774  2.8320  1.8052 -0.4654
  843MOL0     H16302   4.055   7.674   3.066 -2.4855 -0.0532  0.6003
  843MOL0     H16303   3.967   7.645   2.917  0.8912 -1.3634  0.3481
  843MOL0     H16304   3.926   7.875   2.870  1.3701 -2.4187 -2.1721
  843MOL0     H16305   4.048   7.923   2.989  2.1987 -2.5574 -0.2121
  843MOL0     H16306   3.771   7.778   3.016  0.6271 -0.1565 -2.4002
  843MOL0     H16307   3.858   7.829   3.160 -1.7300 -5.1926 -0.4630
  843MOL0     H16308   3.753   8.018   2.948 -2.2230 -0.1069 -0.1694
  843MOL0     H16309   3.828   8.074   3.094 -1.4921  0.4689  1.2764
  843MOL0     H16310   3.667   7.957   3.235  1.0476  0.8740 -0.2283
  843MOL0     H16311   3.574   7.910   3.085 -0.8223  2.2072 -1.7233
  843MOL0     H16312   3.593   8.191   3.200 -1.7752  1.2695 -0.5894
  843MOL0     H16313   3.455   8.080   3.206  0.4341 -2.5771  0.3604
  843MOL0     H16314   4.296   7.239   2.966 -2.9415  0.5643  3.2472
  843MOL0     H16315   4.521   7.165   3.037 -2.8640 -1.2023 -1.9154
  843MOL0     H16316   4.896   7.221   3.225 -0.9013  1.3367  1.1388
  843MOL0     H16317   5.118   7.106   3.278 -1.5827 -3.2313 -1.8834
  843MOL0     H16318   6.690   7.051   4.115  0.3151 -2.4699 -0.0659
  843MOL0     H16319   6.881   7.007   4.260  2.3452  0.7161  0.2447
  843MOL0     H16320   7.317   6.820   4.216  0.8306 -1.5913  1.2568
  843MOL0     H16321   7.521   6.719   4.322  2.3393  0.2888  1.8130
  843MOL0     H16322   7.681   6.870   4.694  2.1520 -1.4736 -2.1473
  843MOL0     H16323   7.547   6.792   4.769  0.0869 -0.4272  0.2543
  843MOL0     H16324   7.778   6.721   4.839 -1.8619  1.6714  0.2774
  843MOL0     H16325   7.801   6.647   4.675 -3.1447  0.9057 -2.7518
  843MOL0     H16326   7.590   6.589   4.875 -1.1479  0.7920 -1.6560
  843MOL0     H16327   7.601   6.509   4.725  2.3237 -1.5126 -0.0499
  843MOL0     H16328   7.819   6.394   4.780 -0.2800 -1.2011  0.7375
  843MOL0     H16329   7.705   6.355   4.904  2.1825 -1.0707  1.8314
  843MOL0     H16330   7.936   6.616   5.139 -1.5105  0.8148 -1.1505
  843MOL0     H16331   7.488   6.978   4.655  2.3988  2.1294 -2.3245
  843MOL0     H16332   7.358   7.189   4.648 -2.9767  0.8935  1.8399
  843MOL0     H16333   7.273   7.223   4.492 -2.8368 -2.0021 -1.6197
  843MOL0     H16334   7.204   7.134   4.639  0.8692 -2.5453  2.0255
  844MOL0     O16335   5.398   9.222   6.347  0.6232  0.1299 -0.4271
  844MOL0     C16336   5.478   9.239   6.435  0.6147 -0.6220 -0.4009
  844MOL0     O16337   5.450   9.215   6.571 -0.7914  0.3531 -0.0910
  844MOL0     C16338   5.323   9.177   6.602  0.2014  0.3397 -0.4133
  844MOL0     C16339   5.217   9.265   6.599  0.5107 -0.3221  1.4537
  844MOL0     C16340   5.097   9.235   6.656  0.0090  0.6772  0.8565
  844MOL0     C16341   5.068   9.104   6.703  0.5780 -0.5288  0.0264
  844MOL0     O16342   4.947   9.090   6.767  1.0594 -0.0676  0.0771
  844MOL0     C16343   4.882   8.961   6.757  0.6210 -0.8373  0.0718
  844MOL0     C16344   4.729   8.983   6.768  0.4548 -0.4453  1.1624
  844MOL0     C16345   4.648   8.848   6.768 -0.2990  1.5862 -0.2334
  844MOL0     C16346   4.497   8.870   6.732 -0.8006  0.2853 -0.4839
  844MOL0     C16347   4.413   8.748   6.752  0.1576  0.6241 -0.8093
  844MOL0     C16348   4.437   8.638   6.644 -0.6038  0.5422  0.0682
  844MOL0     C16349   4.372   8.506   6.685  0.0019 -0.0708  0.1111
  844MOL0     C16350   4.426   8.378   6.614 -0.7242 -0.6857  0.5501
  844MOL0     N16351   4.316   8.276   6.592 -0.2247  0.4373  0.6245
  844MOL0     C16352   4.202   8.299   6.523  0.6702 -0.1974  0.2849
  844MOL0     C16353   4.126   8.182   6.536 -0.0400 -0.6877  0.6318
  844MOL0     C16354   3.994   8.136   6.481 -0.4122 -0.3530  0.2076
  844MOL0     C16355   3.895   8.130   6.597 -0.8952  0.1653 -0.2880
  844MOL0     C16356   3.866   8.255   6.677 -0.0658  0.1506  0.5500
  844MOL0     C16357   3.743   8.228   6.767  0.0015 -0.9041  0.5405
  844MOL0     O16358   3.677   8.346   6.812  0.3112  0.1837 -0.1212
  844MOL0     C16359   3.583   8.335   6.918  0.0496 -0.1081  0.4852
  844MOL0     C16360   3.549   8.456   6.986 -0.1017  0.2891 -0.0196
  844MOL0     C16361   3.437   8.465   7.071  0.3910  0.8376  1.0723
  844MOL0     C16362   3.415   8.601   7.141 -0.0705 -0.1414  0.1421
  844MOL0     C16363   3.366   8.347   7.097 -0.1015  0.3590  0.2531
  844MOL0     C16364   3.260   8.360   7.195  0.6109 -0.1233 -0.0721
  844MOL0     O16365   3.292   8.336   7.324 -0.0452 -0.2856 -0.2211
  844MOL0     C16366   3.203   8.405   7.410 -0.7136  0.1761 -0.6044
  844MOL0     C16367   3.243   8.526   7.465  0.3218  0.9299 -0.8192
  844MOL0     C16368   3.144   8.600   7.532  0.5299  0.6406 -0.3661
  844MOL0     C16369   3.018   8.550   7.551 -0.2456  0.0059 -0.8251
  844MOL0     O16370   2.922   8.624   7.613  0.4934 -0.1488 -0.4820
  844MOL0     C16371   2.941   8.654   7.755 -0.2934  0.0449 -0.2318
  844MOL0     C16372   2.841   8.769   7.778 -0.1850  0.5874  0.4227
  844MOL0     C16373   2.899   8.909   7.722 -0.5863 -0.2390 -0.7909
  844MOL0     C16374   2.792   9.017   7.702  0.2970  0.4124 -0.2075
  844MOL0     C16375   2.849   9.157   7.667 -0.1131  0.9870 -0.1688
  844MOL0     C16376   2.744   9.267   7.677  0.1574  0.1024  0.2494
  844MOL0     C16377   2.794   9.388   7.593 -0.1432  0.5328  0.3244
  844MOL0     C16378   2.689   9.511   7.594 -1.1963 -0.0071  0.5098
  844MOL0    Cl16379   2.757   9.658   7.507 -0.4293 -0.2245 -0.8406
  844MOL0     C16380   2.986   8.421   7.506  0.1314  0.8544  0.7898
  844MOL0     C16381   3.076   8.349   7.435 -0.1824  0.2642 -0.4837
  844MOL0     O16382   3.144   8.386   7.149  0.1766  0.4218 -0.4444
  844MOL0     C16383   3.395   8.228   7.023  0.0352 -0.2761  0.2040
  844MOL0     C16384   3.498   8.221   6.930  0.2958 -0.5017  0.3324
  844MOL0     N16385   4.202   8.093   6.618  0.4266  0.9246  0.0571
  844MOL0     N16386   4.304   8.161   6.657 -0.4881  0.7137 -0.5016
  844MOL0     C16387   5.168   9.009   6.703  1.0769  0.7317  0.3718
  844MOL0     C16388   5.293   9.049   6.652 -0.6581  0.0679 -0.5093
  844MOL0     C16389   5.614   9.296   6.408 -0.2718  0.5085 -0.3389
  844MOL0     C16390   5.689   9.345   6.519 -0.0829  0.0350  0.8391
  844MOL0     C16391   5.825   9.377   6.496  0.2269 -0.3550 -0.4407
  844MOL0     C16392   5.887   9.359   6.378 -0.1484 -0.5966 -0.2848
  844MOL0     O16393   6.014   9.410   6.353 -0.5152 -0.8588  0.6471
  844MOL0     C16394   6.115   9.304   6.363 -0.4400  0.4830  0.4501
  844MOL0     C16395   6.196   9.302   6.233 -0.3629  0.4072 -0.9833
  844MOL0     C16396   6.341   9.238   6.260  0.9871 -0.1863 -0.1113
  844MOL0     C16397   6.416   9.232   6.129 -0.6383 -0.2433  0.4756
  844MOL0     C16398   6.551   9.171   6.146 -0.3859 -0.2135 -0.4557
  844MOL0     C16399   6.666   9.134   6.160  0.3028  0.7024  0.4113
  844MOL0     C16400   5.813   9.310   6.270 -0.1798  0.5338 -1.1312
  844MOL0     C16401   5.677   9.285   6.281 -0.0692 -0.0337 -0.2910
  844MOL0     C16402   5.607   9.249   6.149 -0.0176  0.5891  0.4538
  844MOL0     H16403   5.239   9.366   6.566  3.3230 -1.1326  0.5994
  844MOL0     H16404   5.024   9.316   6.658 -1.7875 -0.7119 -1.8593
  844MOL0     H16405   4.911   8.901   6.844 -1.6823  1.5892  2.7456
  844MOL0     H16406   4.899   8.910   6.663 -0.7682 -1.0153 -0.1158
  844MOL0     H16407   4.696   9.038   6.857  1.7997 -3.1515  3.5083
  844MOL0     H16408   4.695   9.030   6.676 -2.0718 -2.6213  0.8577
  844MOL0     H16409   4.707   8.779   6.708 -2.8491  0.8108 -2.0030
  844MOL0     H16410   4.656   8.816   6.872  1.3030  0.2441 -0.7325
  844MOL0     H16411   4.457   8.950   6.795  0.4681  3.4081 -3.3029
  844MOL0     H16412   4.491   8.904   6.628  0.8582 -0.4502 -0.8409
  844MOL0     H16413   4.308   8.779   6.745  0.1748  0.9163  0.1891
  844MOL0     H16414   4.430   8.695   6.846 -0.5531  0.4801 -0.7568
  844MOL0     H16415   4.406   8.669   6.544  0.4752  0.4519 -0.3063
  844MOL0     H16416   4.545   8.624   6.638 -0.3027  0.2173  3.6873
  844MOL0     H16417   4.266   8.523   6.665 -0.0686  2.2079  2.0108
  844MOL0     H16418   4.396   8.493   6.791  1.0159  0.0365 -0.0942
  844MOL0     H16419   4.455   8.406   6.513  0.8810 -0.9199  0.9264
  844MOL0     H16420   4.515   8.333   6.659  2.2774  1.9025 -2.3333
  844MOL0     H16421   4.204   8.393   6.468  0.3175  0.3445  1.1766
  844MOL0     H16422   4.014   8.042   6.429  0.8933  0.4555 -0.8435
  844MOL0     H16423   3.958   8.204   6.404 -0.0301 -0.5000 -0.1070
  844MOL0     H16424   3.801   8.108   6.546 -1.4022 -1.9298  1.4160
  844MOL0     H16425   3.914   8.042   6.659  2.9548  1.1604  0.2113
  844MOL0     H16426   3.956   8.283   6.731  1.1107  2.1576 -2.2093
  844MOL0     H16427   3.848   8.348   6.622 -1.1705 -0.8689 -0.9187
  844MOL0     H16428   3.666   8.185   6.703 -1.1690 -0.5455  1.6757
  844MOL0     H16429   3.778   8.159   6.846  1.7703 -1.1208 -0.3864
  844MOL0     H16430   3.604   8.549   6.978 -0.2768  0.4022  0.0665
  844MOL0     H16431   3.323   8.592   7.200 -1.4216 -1.6547 -2.0363
  844MOL0     H16432   3.392   8.675   7.063  1.5220  1.5633  1.2034
  844MOL0     H16433   3.494   8.637   7.207 -0.7473 -1.5698  1.7958
  844MOL0     H16434   3.345   8.559   7.447  0.4231  1.7420  1.0279
  844MOL0     H16435   3.160   8.692   7.586 -5.4597  1.2018  1.1957
  844MOL0     H16436   2.912   8.567   7.814  2.9915 -0.1940  1.2486
  844MOL0     H16437   3.032   8.694   7.801 -0.4630  1.7990 -1.3101
  844MOL0     H16438   2.745   8.752   7.730 -1.7329  4.0069  1.9630
  844MOL0     H16439   2.822   8.773   7.886 -0.3794 -0.4559  0.4453
  844MOL0     H16440   2.938   8.894   7.621  0.5096 -3.4794 -0.0028
  844MOL0     H16441   2.971   8.941   7.798  0.1385 -1.9976 -0.6901
  844MOL0     H16442   2.735   9.026   7.795  1.1758 -0.2390  0.4143
  844MOL0     H16443   2.720   8.980   7.629  0.0783 -2.7832  1.4370
  844MOL0     H16444   2.939   9.173   7.727  0.1358 -0.8518  0.0241
  844MOL0     H16445   2.881   9.157   7.563  1.6549  0.2728  0.3343
  844MOL0     H16446   2.737   9.294   7.782  0.3764 -1.7285  0.7667
  844MOL0     H16447   2.648   9.238   7.633 -0.4734 -1.1337  2.3632
  844MOL0     H16448   2.814   9.367   7.488 -0.8476  0.2505  0.2374
  844MOL0     H16449   2.888   9.417   7.640  0.8971 -1.2862 -0.5347
  844MOL0     H16450   2.685   9.546   7.697  1.9261 -0.7516  0.9902
  844MOL0     H16451   2.593   9.493   7.545 -1.5161  2.5544  0.0884
  844MOL0     H16452   2.887   8.377   7.513  1.4209 -2.0525  3.5024
  844MOL0     H16453   3.052   8.248   7.403  4.7636 -2.6137  3.4163
  844MOL0     H16454   3.333   8.139   7.035  1.2559 -0.8324  3.6139
  844MOL0     H16455   3.528   8.137   6.867 -0.7449  2.0993 -4.0483
  844MOL0     H16456   5.150   8.906   6.730  1.1789  0.0541 -1.9468
  844MOL0     H16457   5.379   8.983   6.661  0.5184  1.6766  0.6278
  844MOL0     H16458   5.634   9.357   6.612 -1.4560 -0.7835  0.1501
  844MOL0     H16459   5.887   9.416   6.576  0.7378  2.5440 -2.1110
  844MOL0     H16460   6.187   9.335   6.440 -0.1204 -0.5465  0.5762
  844MOL0     H16461   6.063   9.210   6.380 -2.7766  0.7911 -3.6159
  844MOL0     H16462   6.213   9.405   6.201  3.1109  0.2874  0.0837
  844MOL0     H16463   6.149   9.243   6.153 -2.0640  2.2404 -1.4128
  844MOL0     H16464   6.400   9.307   6.322  2.4464  0.6138 -2.2388
  844MOL0     H16465   6.324   9.137   6.297  2.2173 -1.6309 -3.1793
  844MOL0     H16466   6.440   9.335   6.102  0.1473 -0.0746  1.7514
  844MOL0     H16467   6.353   9.181   6.055 -1.1129 -2.9329  2.5540
  844MOL0     H16468   6.757   9.077   6.155 -0.0709  0.1712 -1.0276
  844MOL0     H16469   5.861   9.302   6.172  1.2453  0.5428 -0.4649
  844MOL0     H16470   5.534   9.327   6.127  1.3948  2.6910  2.6304
  844MOL0     H16471   5.689   9.238   6.078  1.4496 -1.1978  2.2913
  844MOL0     H16472   5.557   9.152   6.154  3.5235 -1.3704  1.3685
  845MOL0     O16473   2.659   7.714   4.022  0.3261  0.6847 -0.0080
  845MOL0     C16474   2.661   7.832   3.984  0.1653  0.7018  1.3089
  845MOL0     O16475   2.655   7.869   3.850 -0.9057  0.2857  0.5438
  845MOL0     C16476   2.669   7.774   3.752  0.8537  0.4177  0.2459
  845MOL0     C16477   2.781   7.689   3.749 -0.4897  1.3315 -0.2150
  845MOL0     C16478   2.785   7.572   3.664 -0.1626  0.1858  0.5384
  845MOL0     C16479   2.700   7.567   3.551  0.6189 -0.4170 -1.2822
  845MOL0     O16480   2.709   7.475   3.456 -0.3275  0.3482 -0.2101
  845MOL0     C16481   2.831   7.415   3.415 -0.4645 -0.7552 -0.4734
  845MOL0     C16482   2.935   7.513   3.363 -0.9688 -0.4055  1.1015
  845MOL0     C16483   3.051   7.458   3.283 -0.0383  0.0187  0.8376
  845MOL0     C16484   3.016   7.375   3.165  0.0819  0.1744  0.0718
  845MOL0     C16485   3.136   7.357   3.076 -1.0967  0.3224 -0.1464
  845MOL0     C16486   3.089   7.303   2.942  0.5199 -0.5124  0.1797
  845MOL0     C16487   3.203   7.258   2.846 -0.3526 -0.3629 -0.2347
  845MOL0     C16488   3.149   7.207   2.718 -2.3258 -0.1934  0.7900
  845MOL0     N16489   3.092   7.312   2.634  0.4707 -0.2270  0.0954
  845MOL0     C16490   3.143   7.432   2.590 -0.5856 -0.0295  0.4564
  845MOL0     C16491   3.053   7.502   2.531  0.8142 -0.0558  0.3249
  845MOL0     C16492   3.060   7.640   2.475 -0.8261 -1.0909 -0.5311
  845MOL0     C16493   3.016   7.659   2.330  0.7611  0.4553 -0.6490
  845MOL0     C16494   3.008   7.805   2.286  0.1746 -0.1420 -0.2917
  845MOL0     C16495   2.933   7.806   2.162  0.5031  0.9126 -0.4712
  845MOL0     O16496   2.926   7.930   2.097 -0.2591 -0.0602  0.9108
  845MOL0     C16497   2.898   7.927   1.963  1.2285 -1.0798  0.1721
  845MOL0     C16498   2.921   8.041   1.887  0.0456  0.9522  0.9976
  845MOL0     C16499   2.877   8.049   1.748 -0.1780  0.4809  0.0693
  845MOL0     C16500   2.891   8.175   1.671 -0.8621  0.3549 -0.2407
  845MOL0     C16501   2.827   7.933   1.677  0.0711  1.2884 -0.2504
  845MOL0     C16502   2.776   7.931   1.538 -0.2167 -0.6871  0.1648
  845MOL0     O16503   2.765   7.807   1.478 -0.2489  0.1727 -0.1160
  845MOL0     C16504   2.705   7.796   1.354  0.5362  0.1628  0.4300
  845MOL0     C16505   2.575   7.738   1.342 -0.4320 -0.1527  0.2921
  845MOL0     C16506   2.511   7.728   1.223 -0.1969 -0.1999  0.4129
  845MOL0     C16507   2.580   7.758   1.105  0.1800  0.2285 -0.0376
  845MOL0     O16508   2.517   7.740   0.986 -0.0579  0.0604  0.0185
  845MOL0     C16509   2.372   7.744   0.982  0.1061 -0.2881  0.2808
  845MOL0     C16510   2.322   7.777   0.838  0.2561 -0.3488  0.0390
  845MOL0     C16511   2.356   7.928   0.791  0.2423 -0.2142 -0.9875
  845MOL0     C16512   2.308   7.964   0.652 -0.1998  0.3881 -0.5371
  845MOL0     C16513   2.393   8.084   0.594 -0.5298  0.4805 -0.5477
  845MOL0     C16514   2.350   8.224   0.651  0.5266  0.3373 -0.2060
  845MOL0     C16515   2.387   8.352   0.563 -0.1784  0.0058 -0.1409
  845MOL0     C16516   2.335   8.486   0.621 -0.5790  0.0572  1.4750
  845MOL0    Cl16517   2.153   8.493   0.634  0.0284 -0.0869 -0.0797
  845MOL0     C16518   2.712   7.816   1.117  0.6079  1.0482 -0.0853
  845MOL0     C16519   2.774   7.827   1.238 -0.1045  1.1042 -0.6792
  845MOL0     O16520   2.749   8.034   1.486 -0.3328  1.1507  0.4612
  845MOL0     C16521   2.807   7.822   1.761 -0.1884 -0.1761  0.4241
  845MOL0     C16522   2.839   7.816   1.894 -1.4371  0.2851 -0.2390
  845MOL0     N16523   2.926   7.422   2.533 -0.2927 -0.0646  0.1674
  845MOL0     N16524   2.955   7.317   2.600  0.0239 -0.7082  0.4972
  845MOL0     C16525   2.595   7.658   3.548 -0.3394  0.4554 -1.0098
  845MOL0     C16526   2.587   7.762   3.643  0.2219 -0.1955 -1.1519
  845MOL0     C16527   2.680   7.937   4.084 -0.0705 -0.1581 -0.0880
  845MOL0     C16528   2.774   8.034   4.060  0.3996  0.1409  0.1224
  845MOL0     C16529   2.802   8.128   4.159  1.1280 -0.0719  0.4824
  845MOL0     C16530   2.735   8.138   4.282 -0.2900  0.8788 -0.0927
  845MOL0     O16531   2.777   8.227   4.376  0.0003  0.1869  0.8280
  845MOL0     C16532   2.696   8.347   4.395 -0.2875  0.4059 -0.1218
  845MOL0     C16533   2.689   8.396   4.528  0.4031  0.3529 -0.4577
  845MOL0     C16534   2.602   8.312   4.613 -0.1093 -0.0242  0.2725
  845MOL0     C16535   2.634   8.346   4.758 -0.2068  0.6085  0.7232
  845MOL0     C16536   2.535   8.298   4.850  0.7794  0.6264 -0.1250
  845MOL0     C16537   2.430   8.268   4.905  0.9718  0.6831 -0.1957
  845MOL0     C16538   2.641   8.040   4.303  0.3378  0.0772  0.3409
  845MOL0     C16539   2.620   7.930   4.210  0.3738 -0.9402  0.0774
  845MOL0     C16540   2.523   7.815   4.250  0.2986 -0.5497 -0.9528
  845MOL0     H16541   2.852   7.715   3.827  1.8154 -0.4042 -1.6264
  845MOL0     H16542   2.871   7.506   3.672 -0.2404  0.0167  0.0107
  845MOL0     H16543   2.814   7.349   3.330  2.8917  0.5397 -2.3246
  845MOL0     H16544   2.874   7.355   3.496  0.2096  1.1805  0.6540
  845MOL0     H16545   2.892   7.583   3.291 -0.9139  1.5934  2.9177
  845MOL0     H16546   2.971   7.567   3.451 -0.0903 -1.2200  1.2582
  845MOL0     H16547   3.113   7.543   3.252  0.5166 -0.8314 -0.5272
  845MOL0     H16548   3.105   7.397   3.355 -0.3153  0.2558  1.2489
  845MOL0     H16549   2.972   7.279   3.190  1.5816 -0.2977  1.0123
  845MOL0     H16550   2.943   7.429   3.104  0.8444 -0.8816 -1.8608
  845MOL0     H16551   3.216   7.298   3.122 -0.2755  3.7792  3.4281
  845MOL0     H16552   3.186   7.454   3.066 -2.4405  0.9740 -0.7597
  845MOL0     H16553   3.024   7.218   2.963 -1.6423  1.7755  3.6530
  845MOL0     H16554   3.033   7.392   2.910  0.4981 -0.4312  0.4469
  845MOL0     H16555   3.264   7.187   2.904  2.3351  0.9136 -1.3108
  845MOL0     H16556   3.273   7.341   2.830  2.2681 -1.9906  1.9476
  845MOL0     H16557   3.223   7.159   2.653 -2.1465  2.2110 -0.9267
  845MOL0     H16558   3.067   7.137   2.736 -0.5193 -2.7427 -0.2178
  845MOL0     H16559   3.245   7.463   2.608  0.4211 -1.1775 -2.7231
  845MOL0     H16560   3.163   7.676   2.479 -1.2551  0.5694 -2.6219
  845MOL0     H16561   2.997   7.699   2.543  1.9065  2.4328 -0.7737
  845MOL0     H16562   3.071   7.591   2.265 -1.6422 -3.1791  0.7876
  845MOL0     H16563   2.913   7.621   2.323  1.2867 -0.6975 -3.4944
  845MOL0     H16564   2.956   7.867   2.359  3.2020 -0.4694  2.3878
  845MOL0     H16565   3.109   7.847   2.276 -1.4267  4.7191  1.1556
  845MOL0     H16566   2.958   7.732   2.086  0.2389  0.8440 -0.4914
  845MOL0     H16567   2.832   7.783   2.197  1.7877 -2.5482  1.5227
  845MOL0     H16568   2.966   8.132   1.927  1.5340  0.9905 -0.6390
  845MOL0     H16569   2.790   8.215   1.659 -1.3334 -1.1370 -1.4916
  845MOL0     H16570   2.937   8.156   1.574  0.5739 -2.0771  0.8109
  845MOL0     H16571   2.955   8.247   1.722  0.7087 -1.3966  0.3560
  845MOL0     H16572   2.523   7.714   1.434 -1.1581  4.6675  1.3626
  845MOL0     H16573   2.409   7.692   1.213 -0.5012  0.5782  0.6935
  845MOL0     H16574   2.332   7.647   1.009 -0.0806 -0.7315 -1.4974
  845MOL0     H16575   2.330   7.817   1.053 -1.2616 -0.1809 -0.6097
  845MOL0     H16576   2.362   7.711   0.762  2.0418 -0.6677  1.2096
  845MOL0     H16577   2.213   7.769   0.834 -0.0642  2.9237 -0.8323
  845MOL0     H16578   2.462   7.951   0.804  0.4532 -0.1822 -2.6143
  845MOL0     H16579   2.311   7.994   0.866 -1.0237 -2.2673  0.1513
  845MOL0     H16580   2.202   7.987   0.648 -0.1930  0.7175  0.7331
  845MOL0     H16581   2.307   7.877   0.585 -2.4598  1.8647 -2.5978
  845MOL0     H16582   2.499   8.069   0.614 -0.8337 -2.6388 -0.7831
  845MOL0     H16583   2.388   8.096   0.485  0.6788  2.1884 -0.4599
  845MOL0     H16584   2.396   8.245   0.748  2.3015  0.0659 -0.9402
  845MOL0     H16585   2.241   8.231   0.654  0.1193 -2.4930 -2.9352
  845MOL0     H16586   2.378   8.340   0.454  1.6025  1.8600 -0.5486
  845MOL0     H16587   2.495   8.345   0.573 -0.4633 -3.5467  2.6566
  845MOL0     H16588   2.378   8.562   0.556 -0.7634 -0.8072  0.3069
  845MOL0     H16589   2.370   8.500   0.724 -2.4474 -0.5697  2.2513
  845MOL0     H16590   2.766   7.839   1.026 -0.5745  0.0840 -1.0663
  845MOL0     H16591   2.875   7.865   1.255  0.0478  0.4007  0.0682
  845MOL0     H16592   2.773   7.726   1.726  0.0956  0.2329 -1.0498
  845MOL0     H16593   2.816   7.721   1.941  1.0941 -1.6180 -2.5310
  845MOL0     H16594   2.520   7.660   3.470  1.2179  1.9802 -2.5739
  845MOL0     H16595   2.514   7.842   3.638 -0.9397 -1.0818  0.6446
  845MOL0     H16596   2.827   8.021   3.966  0.0309 -0.0376 -0.0611
  845MOL0     H16597   2.882   8.199   4.144  2.0112 -1.4878 -2.0370
  845MOL0     H16598   2.745   8.420   4.330  0.2743  0.1860  0.0502
  845MOL0     H16599   2.591   8.341   4.363  0.0875  1.4704 -1.6369
  845MOL0     H16600   2.643   8.496   4.530 -0.4604 -0.0464  0.6573
  845MOL0     H16601   2.788   8.415   4.569  1.1473 -0.2084 -1.9493
  845MOL0     H16602   2.499   8.331   4.582 -0.1203  0.6987  0.7369
  845MOL0     H16603   2.615   8.203   4.605 -0.4015 -0.0707  0.3959
  845MOL0     H16604   2.634   8.454   4.777 -5.6461  0.3753  4.1287
  845MOL0     H16605   2.734   8.307   4.779 -0.3192  0.0923  0.3263
  845MOL0     H16606   2.338   8.247   4.957  1.1320 -0.8505 -0.4803
  845MOL0     H16607   2.602   8.046   4.404  1.1167 -2.6629  0.8903
  845MOL0     H16608   2.597   7.737   4.271  0.3821 -0.1706  0.2053
  845MOL0     H16609   2.462   7.832   4.339  3.2569  0.0359  1.1295
  845MOL0     H16610   2.462   7.788   4.163 -2.9751 -0.9894  1.3065
  846MOL0     O16611   7.407  11.343   3.240  0.8383  1.0481 -0.3447
  846MOL0     C16612   7.432  11.439   3.165 -0.0264  0.5720 -0.5346
  846MOL0     O16613   7.355  11.472   3.063  0.1993 -0.2856 -0.2874
  846MOL0     C16614   7.228  11.419   3.065  0.5587 -0.9487  0.3936
  846MOL0     C16615   7.200  11.301   2.998 -0.2092 -0.2735  0.4500
  846MOL0     C16616   7.075  11.238   3.009 -1.8735  0.3468 -0.3593
  846MOL0     C16617   6.976  11.288   3.091 -0.4470  0.9198 -0.5307
  846MOL0     O16618   6.851  11.227   3.114  0.3439 -0.2989 -0.4632
  846MOL0     C16619   6.860  11.083   3.117 -1.0801 -0.1798 -0.4396
  846MOL0     C16620   6.748  11.016   3.191  0.9642  0.1445 -0.0912
  846MOL0     C16621   6.620  11.011   3.109 -0.0028 -0.6646 -0.5002
  846MOL0     C16622   6.504  10.963   3.205  0.1023  0.7301 -0.6991
  846MOL0     C16623   6.365  10.980   3.149 -1.4480 -0.2831  0.2275
  846MOL0     C16624   6.323  10.865   3.054 -0.3050  0.5353  0.0052
  846MOL0     C16625   6.201  10.903   2.983  0.4621  0.6167 -0.2339
  846MOL0     C16626   6.127  10.779   2.932 -0.7365  0.3666  0.1653
  846MOL0     N16627   6.031  10.791   2.821  0.2583  0.6188 -0.7293
  846MOL0     C16628   6.056  10.774   2.684  0.0174  0.3104 -1.2234
  846MOL0     C16629   5.940  10.802   2.617 -1.0132  0.4825  0.4455
  846MOL0     C16630   5.929  10.783   2.468  0.6012 -0.8228  0.5371
  846MOL0     C16631   5.845  10.885   2.408  0.3471  0.1185 -0.4994
  846MOL0     C16632   5.809  10.852   2.265 -0.1939 -1.2680 -0.4650
  846MOL0     C16633   5.721  10.724   2.245 -0.7185 -0.4897 -0.7539
  846MOL0     O16634   5.695  10.708   2.104  0.2881 -0.6615 -0.4891
  846MOL0     C16635   5.616  10.602   2.062 -0.0363  0.2858  0.4151
  846MOL0     C16636   5.569  10.615   1.926 -0.3716 -0.0713  0.0316
  846MOL0     C16637   5.461  10.535   1.876  0.2091 -0.1672  0.0562
  846MOL0     C16638   5.415  10.569   1.741  0.8883  0.0495  0.3796
  846MOL0     C16639   5.405  10.437   1.950 -1.1083 -0.0199 -0.2389
  846MOL0     C16640   5.277  10.378   1.911  0.8400  0.2574  0.1533
  846MOL0     O16641   5.259  10.246   1.927  0.3482 -0.0310  0.1543
  846MOL0     C16642   5.135  10.196   1.924  0.0546 -0.0183 -0.5044
  846MOL0     C16643   5.031  10.255   1.988  0.1530  0.6469  0.7610
  846MOL0     C16644   4.901  10.207   1.956  0.2949 -0.3209  0.5268
  846MOL0     C16645   4.882  10.091   1.880 -0.0888 -0.9430  0.7092
  846MOL0     O16646   4.757  10.044   1.837  0.0446 -0.1809  0.1438
  846MOL0     C16647   4.638  10.111   1.870  0.6047  0.2915 -0.9242
  846MOL0     C16648   4.514  10.034   1.823  0.2323  0.0741  0.9331
  846MOL0     C16649   4.509  10.038   1.670 -0.7067  0.5013 -0.7531
  846MOL0     C16650   4.385   9.970   1.614  1.0015 -0.6307  0.0916
  846MOL0     C16651   4.374   9.820   1.648  0.4560 -1.0135  0.0776
  846MOL0     C16652   4.357   9.732   1.527 -0.4013 -0.8800 -0.4080
  846MOL0     C16653   4.233   9.775   1.440 -0.2661 -0.0785 -0.2919
  846MOL0     C16654   4.237   9.726   1.295 -0.3889  0.4521  0.1949
  846MOL0    Cl16655   4.213   9.547   1.268 -0.0186  0.3212  0.1002
  846MOL0     C16656   4.994  10.014   1.846  0.7488 -0.8676  0.7925
  846MOL0     C16657   5.116  10.075   1.864 -0.3090 -0.6379  0.0606
  846MOL0     O16658   5.191  10.455   1.864 -0.8009  0.0549  0.1019
  846MOL0     C16659   5.450  10.419   2.082 -0.0203  0.6385  0.7021
  846MOL0     C16660   5.550  10.503   2.137  0.3408 -0.5724 -0.9787
  846MOL0     N16661   5.852  10.846   2.715 -0.4294  0.6842  0.4923
  846MOL0     N16662   5.906  10.842   2.845  0.1685 -0.3792  0.8318
  846MOL0     C16663   6.991  11.415   3.145  0.2266 -0.0375  0.3025
  846MOL0     C16664   7.119  11.478   3.137  0.0840  0.5787  0.6380
  846MOL0     C16665   7.567  11.517   3.172 -1.0075 -0.4985 -0.2037
  846MOL0     C16666   7.618  11.572   3.055  0.6331  0.5316 -1.1425
  846MOL0     C16667   7.744  11.640   3.060 -0.0520 -0.1113 -0.3818
  846MOL0     C16668   7.821  11.652   3.174  0.5153 -0.0628 -0.0454
  846MOL0     O16669   7.937  11.728   3.173 -0.0703 -0.6385  0.4132
  846MOL0     C16670   8.042  11.699   3.087 -0.1440  0.2704 -1.1313
  846MOL0     C16671   8.044  11.818   2.991  0.0674  0.5851 -0.1817
  846MOL0     C16672   8.161  11.812   2.899 -0.2653 -0.6507  0.1783
  846MOL0     C16673   8.213  11.950   2.863 -1.1814 -1.3600 -0.6851
  846MOL0     C16674   8.111  12.009   2.779  0.5834 -0.5145  1.1984
  846MOL0     C16675   8.023  12.074   2.724  0.4209 -0.4445 -0.7940
  846MOL0     C16676   7.757  11.612   3.295 -0.0933  0.4877 -0.0149
  846MOL0     C16677   7.634  11.548   3.292  0.9079 -0.2265  0.4026
  846MOL0     C16678   7.575  11.538   3.434  0.1233 -0.6485  0.2540
  846MOL0     H16679   7.283  11.254   2.946  0.1833 -1.7689  2.3110
  846MOL0     H16680   7.074  11.138   2.966  0.3901  0.8788 -1.8110
  846MOL0     H16681   6.957  11.046   3.151 -0.4386  0.0526 -1.9578
  846MOL0     H16682   6.853  11.056   3.011 -0.0922 -0.3673 -0.4657
  846MOL0     H16683   6.770  10.911   3.210  1.9729  0.1551 -1.0856
  846MOL0     H16684   6.725  11.071   3.282 -0.0875 -0.0990 -0.1984
  846MOL0     H16685   6.589  11.107   3.066  0.7284  0.5814  1.6086
  846MOL0     H16686   6.639  10.946   3.023  0.6731 -1.8297  0.4948
  846MOL0     H16687   6.531  10.863   3.239 -0.0062  0.4238 -1.5135
  846MOL0     H16688   6.511  11.025   3.295  2.5219 -0.5331  0.0550
  846MOL0     H16689   6.350  11.077   3.102 -1.5375 -0.0131  0.8076
  846MOL0     H16690   6.297  10.973   3.234 -0.8474 -4.5428  0.5972
  846MOL0     H16691   6.403  10.857   2.980  1.1626  3.3896  1.1224
  846MOL0     H16692   6.321  10.773   3.114  3.1768  0.9740  0.9842
  846MOL0     H16693   6.225  10.957   2.891 -0.9069 -0.0638 -1.0374
  846MOL0     H16694   6.130  10.963   3.040 -1.8850 -2.1856  0.0377
  846MOL0     H16695   6.210  10.716   2.899  0.8833  1.6063  1.6667
  846MOL0     H16696   6.083  10.725   3.017  1.8139 -0.1904  1.2181
  846MOL0     H16697   6.153  10.738   2.652 -0.2105 -0.8712 -0.6446
  846MOL0     H16698   5.883  10.687   2.445  0.6907 -0.3718 -1.6830
  846MOL0     H16699   6.029  10.781   2.425 -0.2902  0.1798 -1.6901
  846MOL0     H16700   5.747  10.886   2.456  0.6061 -2.1664  0.1964
  846MOL0     H16701   5.895  10.982   2.417 -0.6675  0.5226  1.3963
  846MOL0     H16702   5.764  10.943   2.225 -2.6182 -1.5875  1.3236
  846MOL0     H16703   5.906  10.837   2.216  0.5130 -0.6540  0.7168
  846MOL0     H16704   5.773  10.633   2.277 -1.1315 -0.7401 -0.7840
  846MOL0     H16705   5.632  10.727   2.307  0.0165 -0.8591  0.3566
  846MOL0     H16706   5.624  10.678   1.857 -0.4923 -0.4104 -0.3807
  846MOL0     H16707   5.314  10.611   1.734  0.6266 -0.7684 -1.3689
  846MOL0     H16708   5.423  10.485   1.670  0.1129  1.5802 -1.6231
  846MOL0     H16709   5.465  10.658   1.703  1.2527 -0.2792  0.0758
  846MOL0     H16710   5.040  10.338   2.057  1.7923 -0.2888  1.7398
  846MOL0     H16711   4.811  10.263   1.976 -0.6511 -1.2675 -0.8984
  846MOL0     H16712   4.630  10.111   1.979  1.3586 -1.6992 -0.8301
  846MOL0     H16713   4.640  10.215   1.835 -0.3721  0.4426 -0.5688
  846MOL0     H16714   4.508   9.933   1.864 -2.9799 -0.6833 -1.0326
  846MOL0     H16715   4.433  10.093   1.868 -0.8822 -1.1786  0.6444
  846MOL0     H16716   4.597   9.984   1.634 -0.2163 -0.0942  1.1959
  846MOL0     H16717   4.503  10.137   1.624 -2.0234  1.1873  0.8189
  846MOL0     H16718   4.383   9.977   1.505 -0.1138 -1.1421  0.0689
  846MOL0     H16719   4.297  10.028   1.644  0.9504  0.3658 -1.7918
  846MOL0     H16720   4.462   9.779   1.699 -0.3167 -0.8214  1.6367
  846MOL0     H16721   4.295   9.805   1.722  0.1442  3.1967  0.8654
  846MOL0     H16722   4.353   9.628   1.561  1.2958  0.2511  3.9291
  846MOL0     H16723   4.449   9.746   1.469 -0.5079  0.5837 -0.2497
  846MOL0     H16724   4.229   9.884   1.430 -0.4856  0.0590  1.0981
  846MOL0     H16725   4.141   9.735   1.483  0.6539  0.4771  2.3372
  846MOL0     H16726   4.334   9.745   1.250 -0.1313  0.1752  0.6276
  846MOL0     H16727   4.158   9.765   1.230 -2.0964 -1.5472  0.9654
  846MOL0     H16728   4.975   9.923   1.789  1.9474 -1.5631  1.4500
  846MOL0     H16729   5.203  10.036   1.813  0.0115  1.6439 -1.2909
  846MOL0     H16730   5.393  10.352   2.146 -1.5528  0.8334 -0.3929
  846MOL0     H16731   5.570  10.494   2.244  1.3825  2.3870 -0.8362
  846MOL0     H16732   6.904  11.454   3.196  1.1140  1.2900  0.8725
  846MOL0     H16733   7.137  11.554   3.212 -1.9768  0.9015  0.8739
  846MOL0     H16734   7.565  11.548   2.964  2.7432 -2.9292 -1.6454
  846MOL0     H16735   7.796  11.681   2.974  0.0455  0.6280  0.0212
  846MOL0     H16736   8.140  11.691   3.135 -0.1558  1.9256 -0.7904
  846MOL0     H16737   8.018  11.602   3.041 -1.1095  1.0235 -2.2687
  846MOL0     H16738   8.051  11.913   3.045  1.1723  0.7060 -0.5207
  846MOL0     H16739   7.949  11.828   2.937 -0.3552 -0.4362  0.3436
  846MOL0     H16740   8.246  11.758   2.941  0.9073  1.6409  0.9602
  846MOL0     H16741   8.123  11.760   2.811  0.8039 -0.6268 -0.3177
  846MOL0     H16742   8.306  11.928   2.809  1.1833 -0.7687  2.7973
  846MOL0     H16743   8.230  12.005   2.956 -1.7281  1.1119 -1.9571
  846MOL0     H16744   7.945  12.136   2.686 -0.0340 -2.1681 -2.8856
  846MOL0     H16745   7.793  11.647   3.391  1.2944 -2.0911  0.4926
  846MOL0     H16746   7.639  11.556   3.521 -1.9165  3.6508  1.1605
  846MOL0     H16747   7.481  11.594   3.440  0.3402 -0.0374 -1.3765
  846MOL0     H16748   7.550  11.432   3.444  0.1362 -0.5091  2.1836
  847MOL0     O16749   2.143  10.250   1.507 -0.2835 -0.5436 -0.0320
  847MOL0     C16750   2.207  10.238   1.401 -1.4088 -0.6546  0.1747
  847MOL0     O16751   2.347  10.212   1.405 -0.5014 -0.2254 -0.5292
  847MOL0     C16752   2.421  10.228   1.518 -0.9206 -0.5651  0.1225
  847MOL0     C16753   2.482  10.348   1.572  0.0295 -0.8968 -0.2041
  847MOL0     C16754   2.540  10.350   1.701 -0.9526 -0.4715  0.3043
  847MOL0     C16755   2.530  10.233   1.785  0.9812 -0.1308 -0.4970
  847MOL0     O16756   2.588  10.239   1.908  0.6511  0.2507  0.4930
  847MOL0     C16757   2.629  10.132   1.982 -0.2449  0.3381 -0.5461
  847MOL0     C16758   2.739  10.194   2.073 -0.5170 -0.5082  0.5001
  847MOL0     C16759   2.794  10.106   2.190 -0.4149 -0.6075 -0.7095
  847MOL0     C16760   2.718  10.106   2.325  0.3056 -1.0312 -0.1677
  847MOL0     C16761   2.793  10.028   2.441 -0.1569 -1.1548 -0.2479
  847MOL0     C16762   2.918  10.114   2.485  0.2472  0.1319  0.4017
  847MOL0     C16763   3.022  10.039   2.560 -0.3837 -0.0340 -0.4277
  847MOL0     C16764   3.128  10.131   2.621 -0.0722  0.0603  0.3483
  847MOL0     N16765   3.239  10.059   2.676  0.1357  0.5896 -0.1444
  847MOL0     C16766   3.235   9.964   2.779  0.8064 -0.1645  0.0396
  847MOL0     C16767   3.360   9.916   2.783 -0.6949 -0.4470  0.0494
  847MOL0     C16768   3.414   9.846   2.907 -0.1436 -0.3205 -0.1741
  847MOL0     C16769   3.464   9.947   3.006 -0.3237 -1.1011 -0.3235
  847MOL0     C16770   3.539   9.868   3.108 -1.2874  0.5744  0.1138
  847MOL0     C16771   3.592   9.966   3.210  0.0474 -1.1324 -0.1907
  847MOL0     O16772   3.474  10.026   3.275 -0.6229 -0.4408  0.4743
  847MOL0     C16773   3.499  10.117   3.364 -0.3482  0.7315 -0.5020
  847MOL0     C16774   3.378  10.177   3.410  0.4194 -0.5270 -0.3342
  847MOL0     C16775   3.377  10.278   3.511 -0.2256 -0.0692 -1.1520
  847MOL0     C16776   3.250  10.362   3.537 -0.1654 -0.2430  0.1251
  847MOL0     C16777   3.494  10.301   3.596 -0.2068  0.4292 -0.7602
  847MOL0     C16778   3.506  10.395   3.712 -0.0997 -0.3204 -0.9318
  847MOL0     O16779   3.620  10.480   3.726  0.5168  0.1225  0.1452
  847MOL0     C16780   3.621  10.555   3.837  0.1819 -0.3579  0.0104
  847MOL0     C16781   3.529  10.661   3.848 -0.6094 -0.5454 -0.5747
  847MOL0     C16782   3.530  10.746   3.956 -0.0431 -0.1644 -0.1098
  847MOL0     C16783   3.626  10.733   4.055 -0.0045  0.7619 -0.2591
  847MOL0     O16784   3.605  10.803   4.167 -0.2882 -0.1671 -0.0224
  847MOL0     C16785   3.693  10.916   4.172 -0.6033 -0.3323  0.1612
  847MOL0     C16786   3.633  11.029   4.259  0.7939 -0.5065 -0.2119
  847MOL0     C16787   3.549  11.134   4.188 -0.2399  0.2837 -0.0593
  847MOL0     C16788   3.520  11.252   4.277  0.3806 -0.4721 -0.2681
  847MOL0     C16789   3.463  11.372   4.206 -0.9691  0.1348 -0.4898
  847MOL0     C16790   3.546  11.434   4.091  0.0572 -0.8315 -0.3709
  847MOL0     C16791   3.513  11.588   4.071 -0.0225 -0.3635 -0.4624
  847MOL0     C16792   3.594  11.651   3.957 -0.3702  0.1480 -0.4994
  847MOL0    Cl16793   3.547  11.570   3.806  0.4312 -0.2629 -0.0771
  847MOL0     C16794   3.733  10.640   4.039 -0.1788  0.4948  0.0337
  847MOL0     C16795   3.721  10.545   3.933 -0.3514 -0.6502  0.3188
  847MOL0     O16796   3.414  10.388   3.794  0.0250 -0.0313  0.5172
  847MOL0     C16797   3.614  10.245   3.538 -0.4753  0.0195  0.6223
  847MOL0     C16798   3.621  10.159   3.428 -0.4220 -0.8361  0.1713
  847MOL0     N16799   3.432   9.980   2.683 -0.5758 -0.4392 -0.2148
  847MOL0     N16800   3.363  10.069   2.625 -0.7808  0.2871 -0.5368
  847MOL0     C16801   2.466  10.117   1.735  0.1822  0.4895 -0.7192
  847MOL0     C16802   2.417  10.119   1.607  0.0559  0.4115  1.1764
  847MOL0     C16803   2.149  10.263   1.271 -0.2791  0.5006 -0.1822
  847MOL0     C16804   2.235  10.238   1.158 -0.0731 -0.5274  0.4583
  847MOL0     C16805   2.203  10.262   1.025  0.8236  0.6406  0.0669
  847MOL0     C16806   2.063  10.277   1.005 -0.2686 -0.2378 -0.0090
  847MOL0     O16807   2.023  10.301   0.878  0.3951 -0.0046  0.2384
  847MOL0     C16808   1.919  10.216   0.830  0.3551  0.0946 -0.1696
  847MOL0     C16809   1.969  10.084   0.776  0.2114  0.2921 -0.2322
  847MOL0     C16810   1.850   9.986   0.737  0.7618  0.3283  0.2318
  847MOL0     C16811   1.897   9.885   0.632  0.6749 -0.1020 -0.4315
  847MOL0     C16812   1.996   9.792   0.679 -0.3737  0.0496 -0.8771
  847MOL0     C16813   2.089   9.722   0.691 -0.0708 -0.5678 -0.0473
  847MOL0     C16814   1.969  10.289   1.111 -0.7433  0.4384 -0.3893
  847MOL0     C16815   2.012  10.285   1.244  0.6116 -0.4741  0.0870
  847MOL0     C16816   1.901  10.307   1.348 -0.0567 -0.5194 -0.3650
  847MOL0     H16817   2.485  10.440   1.514  1.2457 -0.7059  0.1323
  847MOL0     H16818   2.586  10.439   1.744 -0.7399 -0.5866  0.3155
  847MOL0     H16819   2.676  10.056   1.920  0.9004  1.8950 -1.6719
  847MOL0     H16820   2.552  10.083   2.043  0.2704 -0.1204 -0.2619
  847MOL0     H16821   2.819  10.223   2.004 -0.6191  1.7160  1.2238
  847MOL0     H16822   2.692  10.288   2.103 -0.0958  0.6123 -2.0887
  847MOL0     H16823   2.802  10.000   2.163 -3.5240 -1.0963 -0.1228
  847MOL0     H16824   2.894  10.146   2.205 -0.9766  1.5656 -2.2293
  847MOL0     H16825   2.689  10.206   2.358 -0.5299 -1.2674 -0.1746
  847MOL0     H16826   2.632  10.044   2.299 -0.3118 -0.2856  0.0716
  847MOL0     H16827   2.810   9.925   2.409 -1.4233 -1.5079  0.1471
  847MOL0     H16828   2.718  10.024   2.520 -1.3767 -1.6679 -1.3954
  847MOL0     H16829   2.976  10.162   2.405  2.8453 -2.2175  0.7178
  847MOL0     H16830   2.882  10.192   2.553  1.5522  0.1689  1.0789
  847MOL0     H16831   3.080   9.965   2.504 -1.1710 -2.4210  1.6997
  847MOL0     H16832   2.982   9.979   2.643  1.1508  1.4531  1.4678
  847MOL0     H16833   3.152  10.205   2.544 -0.6743  0.1082  0.2013
  847MOL0     H16834   3.084  10.191   2.702  1.2564 -1.3922  2.2564
  847MOL0     H16835   3.148   9.927   2.833 -1.6383  1.5311 -2.4497
  847MOL0     H16836   3.497   9.780   2.881  1.8755  1.6254  0.9696
  847MOL0     H16837   3.339   9.787   2.960  0.1322  0.0425  0.6396
  847MOL0     H16838   3.518  10.024   2.950  0.1182 -3.3034 -3.1743
  847MOL0     H16839   3.375   9.990   3.054  0.2166 -0.6696  0.2996
  847MOL0     H16840   3.477   9.793   3.159 -0.5432 -1.7750 -2.2253
  847MOL0     H16841   3.608   9.805   3.050 -1.8569 -1.2188  1.2760
  847MOL0     H16842   3.659   9.920   3.283  0.8913 -2.0801 -1.5236
  847MOL0     H16843   3.651  10.043   3.158 -1.0820  1.4248  2.0297
  847MOL0     H16844   3.287  10.165   3.351  1.1705  0.9953 -1.8805
  847MOL0     H16845   3.291  10.463   3.549 -0.6825 -0.0399  0.1992
  847MOL0     H16846   3.189  10.347   3.626 -2.5690  1.2278 -1.1750
  847MOL0     H16847   3.184  10.362   3.450 -0.9326  1.2039  0.6688
  847MOL0     H16848   3.460  10.696   3.772 -2.2758  2.9457  2.2823
  847MOL0     H16849   3.467  10.834   3.962 -0.2703 -0.2433 -1.1668
  847MOL0     H16850   3.789  10.886   4.214 -0.3019 -0.4785 -0.6213
  847MOL0     H16851   3.719  10.956   4.073  3.0449 -0.0069  1.1277
  847MOL0     H16852   3.573  10.991   4.342 -1.2814  3.7408  0.5232
  847MOL0     H16853   3.711  11.081   4.315  0.3124 -0.4194  0.3904
  847MOL0     H16854   3.460  11.090   4.142  1.1207 -3.2049  0.3141
  847MOL0     H16855   3.597  11.172   4.097 -2.5281  2.7166 -0.3689
  847MOL0     H16856   3.619  11.282   4.311  1.6451  1.9010 -5.2057
  847MOL0     H16857   3.456  11.238   4.366 -2.7403 -1.4536 -2.4824
  847MOL0     H16858   3.363  11.344   4.172 -1.7306  1.4414  0.5603
  847MOL0     H16859   3.451  11.452   4.280 -4.1509 -1.8432  1.3580
  847MOL0     H16860   3.536  11.379   3.997  0.1421  0.5518 -1.2185
  847MOL0     H16861   3.653  11.428   4.115  0.6459 -0.0445 -2.5950
  847MOL0     H16862   3.511  11.643   4.166  2.3426 -0.3381 -0.3698
  847MOL0     H16863   3.409  11.601   4.041  0.0591 -1.0522 -1.0548
  847MOL0     H16864   3.701  11.634   3.969  0.3842  3.1539 -2.1157
  847MOL0     H16865   3.587  11.758   3.940  2.0814 -0.1060 -4.1978
  847MOL0     H16866   3.817  10.636   4.107  0.2835 -0.6198 -0.5807
  847MOL0     H16867   3.794  10.467   3.916 -2.4246 -2.3287 -1.4666
  847MOL0     H16868   3.711  10.262   3.582  0.8105  1.2303 -2.4002
  847MOL0     H16869   3.720  10.120   3.406  1.1719  2.6048  0.5828
  847MOL0     H16870   2.470  10.028   1.798  1.0802  1.9360  1.4026
  847MOL0     H16871   2.379  10.025   1.570 -1.8443  1.6936 -0.3389
  847MOL0     H16872   2.337  10.204   1.170 -0.1966 -1.0455  0.1071
  847MOL0     H16873   2.267  10.252   0.938 -0.3198  0.5813 -0.7955
  847MOL0     H16874   1.834  10.204   0.898  0.4383 -0.1491 -0.1106
  847MOL0     H16875   1.873  10.268   0.745  0.9040  0.4232 -0.2693
  847MOL0     H16876   2.034  10.039   0.852  0.1762 -3.3785 -2.1396
  847MOL0     H16877   2.024  10.099   0.682 -0.7668 -0.3979 -0.9457
  847MOL0     H16878   1.797   9.938   0.820  0.3704 -1.1084 -0.8107
  847MOL0     H16879   1.765  10.040   0.694 -0.5469 -1.3145  0.6153
  847MOL0     H16880   1.931   9.935   0.541  1.6048 -1.4009 -0.8418
  847MOL0     H16881   1.819   9.816   0.597  2.5533 -2.6029  0.0088
  847MOL0     H16882   2.168   9.654   0.719  1.2182  1.8067  2.5804
  847MOL0     H16883   1.863  10.297   1.087 -1.0554 -1.4467  0.1729
  847MOL0     H16884   1.864  10.210   1.381 -1.8297  0.1434 -0.2843
  847MOL0     H16885   1.927  10.357   1.442  0.1215 -0.3105 -0.5257
  847MOL0     H16886   1.816  10.366   1.313 -2.3196 -1.4598  3.0060
  848MOL0     O16887   4.952   7.044   8.139 -0.1859 -0.3352  0.3200
  848MOL0     C16888   5.060   7.075   8.190  0.8622 -0.0590 -0.2040
  848MOL0     O16889   5.094   7.023   8.310 -0.4517  0.2045 -0.0524
  848MOL0     C16890   5.147   6.893   8.322  0.6912 -0.2014 -0.0606
  848MOL0     C16891   5.166   6.817   8.213  0.3915  0.3383 -0.1887
  848MOL0     C16892   5.195   6.680   8.225 -0.5048 -0.3301  0.6635
  848MOL0     C16893   5.214   6.618   8.353  1.5462  0.4643  0.5304
  848MOL0     O16894   5.218   6.481   8.381  0.4052 -0.2062 -0.7523
  848MOL0     C16895   5.194   6.400   8.269 -0.9052  0.4080 -0.1748
  848MOL0     C16896   5.242   6.261   8.321 -0.3245  0.1590 -0.1366
  848MOL0     C16897   5.197   6.156   8.219  0.3240  0.1954  0.6683
  848MOL0     C16898   5.258   6.019   8.234  0.0963  0.1857  0.3102
  848MOL0     C16899   5.238   5.960   8.376 -0.0885 -0.0460  0.6451
  848MOL0     C16900   5.298   5.823   8.379 -0.6722 -0.1374 -0.0940
  848MOL0     C16901   5.455   5.828   8.362 -0.5247  0.1471 -0.0692
  848MOL0     C16902   5.525   5.703   8.310 -0.1506  0.7619  0.2152
  848MOL0     N16903   5.617   5.748   8.206  0.2668  0.7503 -0.5277
  848MOL0     C16904   5.751   5.781   8.244  0.4064 -0.2791  0.0504
  848MOL0     C16905   5.773   5.873   8.148  0.3331 -0.1929 -0.3731
  848MOL0     C16906   5.878   5.986   8.157 -0.5827  0.4716  0.3929
  848MOL0     C16907   5.862   6.091   8.265  0.0853 -0.2682 -0.1472
  848MOL0     C16908   5.732   6.165   8.268 -0.2817  0.0899  0.3489
  848MOL0     C16909   5.689   6.241   8.141  1.2185  0.3270 -0.2540
  848MOL0     O16910   5.570   6.309   8.175  0.3366 -0.4211 -0.9236
  848MOL0     C16911   5.526   6.403   8.073 -0.3966  0.5033 -0.3119
  848MOL0     C16912   5.492   6.365   7.948  0.1376  0.4340  0.9729
  848MOL0     C16913   5.470   6.458   7.841  0.7343 -0.1173 -0.3819
  848MOL0     C16914   5.444   6.415   7.703 -0.2974 -0.3039  0.6095
  848MOL0     C16915   5.471   6.599   7.873 -0.2779  0.5176  0.1212
  848MOL0     C16916   5.473   6.706   7.765  0.6171  0.8434 -0.5876
  848MOL0     O16917   5.457   6.842   7.816  0.1558  0.5361 -0.9284
  848MOL0     C16918   5.448   6.950   7.731  0.6285 -0.3823 -0.3191
  848MOL0     C16919   5.548   6.989   7.650  0.5738 -0.9682  0.8428
  848MOL0     C16920   5.535   7.098   7.563  0.0824 -0.0801 -0.3719
  848MOL0     C16921   5.415   7.170   7.563 -0.7461 -0.4011 -0.5762
  848MOL0     O16922   5.399   7.287   7.487  0.3843 -0.4181  0.0439
  848MOL0     C16923   5.400   7.265   7.353 -0.8793  0.2341 -0.1149
  848MOL0     C16924   5.334   7.363   7.262 -0.0854 -0.3842 -0.5698
  848MOL0     C16925   5.407   7.372   7.130 -0.3618  0.0091 -0.2295
  848MOL0     C16926   5.394   7.242   7.055 -0.5511 -0.0620  0.2980
  848MOL0     C16927   5.477   7.238   6.931  0.2020 -0.4138 -0.5170
  848MOL0     C16928   5.619   7.215   6.966 -1.5906  0.3081  0.2945
  848MOL0     C16929   5.652   7.063   6.960  0.8283 -0.1128 -0.3310
  848MOL0     C16930   5.795   7.032   7.016 -0.5084 -0.1167  0.3664
  848MOL0    Cl16931   5.840   6.874   6.961 -0.0652  0.3396  0.1457
  848MOL0     C16932   5.312   7.131   7.645  0.4162  0.8216 -0.8247
  848MOL0     C16933   5.327   7.021   7.728  0.4236 -0.4525 -0.3516
  848MOL0     O16934   5.480   6.682   7.646  0.0427  0.5971 -0.0222
  848MOL0     C16935   5.471   6.631   8.009 -0.1856 -1.3559 -0.5242
  848MOL0     C16936   5.513   6.540   8.106  0.0608  0.9806 -0.2284
  848MOL0     N16937   5.673   5.881   8.047 -0.2606  0.2526  0.6066
  848MOL0     N16938   5.589   5.785   8.079 -0.1316 -0.8500  0.3331
  848MOL0     C16939   5.210   6.712   8.457 -0.1847  0.6142 -0.4134
  848MOL0     C16940   5.169   6.844   8.442  0.4136  0.4321 -0.1215
  848MOL0     C16941   5.125   7.189   8.127  0.1874  0.3615  0.3375
  848MOL0     C16942   5.046   7.293   8.072  0.2015  0.3101  0.4828
  848MOL0     C16943   5.103   7.409   8.024  0.3204 -0.5712 -0.7361
  848MOL0     C16944   5.238   7.427   8.023 -0.2950 -0.0036 -0.1030
  848MOL0     O16945   5.299   7.539   7.966 -0.2155 -0.2343 -0.1458
  848MOL0     C16946   5.221   7.665   7.966 -0.1230  0.3460 -0.0481
  848MOL0     C16947   5.285   7.783   7.898 -0.4615 -0.1976  0.2576
  848MOL0     C16948   5.190   7.900   7.875 -0.4307 -0.0384  0.2019
  848MOL0     C16949   5.075   7.862   7.793 -1.3559 -0.7018  0.3587
  848MOL0     C16950   5.022   7.983   7.732 -0.1823  0.0599  0.3273
  848MOL0     C16951   4.976   8.088   7.693  0.4454 -0.3706 -0.0923
  848MOL0     C16952   5.322   7.330   8.077 -0.4433  0.2266 -0.2720
  848MOL0     C16953   5.266   7.215   8.130  0.8779 -0.5535  0.1516
  848MOL0     C16954   5.356   7.104   8.182 -0.4284  0.0301  0.4254
  848MOL0     H16955   5.136   6.842   8.112  0.4530  0.8242 -0.0909
  848MOL0     H16956   5.210   6.631   8.129  3.5100  1.9152 -0.0430
  848MOL0     H16957   5.258   6.432   8.186 -0.1715  3.3917  1.3766
  848MOL0     H16958   5.087   6.405   8.248 -0.9800 -1.4091 -0.4046
  848MOL0     H16959   5.349   6.271   8.340 -0.2820  1.3243 -0.8868
  848MOL0     H16960   5.199   6.228   8.416 -2.5372  1.1954 -0.6911
  848MOL0     H16961   5.090   6.135   8.223 -0.0134  1.8798  3.8563
  848MOL0     H16962   5.217   6.198   8.121 -1.3953 -0.9757 -0.2414
  848MOL0     H16963   5.229   5.942   8.161 -0.3753 -2.1843  2.8508
  848MOL0     H16964   5.366   6.031   8.224  0.5616 -0.0953  3.9485
  848MOL0     H16965   5.131   5.956   8.400 -0.2250  4.0319  1.4313
  848MOL0     H16966   5.285   6.024   8.451  2.6263  1.5133 -2.1453
  848MOL0     H16967   5.272   5.780   8.476 -0.9449 -0.8669 -0.4813
  848MOL0     H16968   5.259   5.759   8.299 -0.5458  1.7048 -1.7061
  848MOL0     H16969   5.493   5.845   8.463 -1.1343  1.0490  0.0162
  848MOL0     H16970   5.486   5.915   8.303  3.2339 -0.3658  0.8902
  848MOL0     H16971   5.572   5.654   8.396  0.6313 -1.8759 -1.5821
  848MOL0     H16972   5.455   5.631   8.267  1.8444 -0.0863 -1.8046
  848MOL0     H16973   5.808   5.762   8.334 -0.6985 -1.0783  0.6153
  848MOL0     H16974   5.887   6.037   8.061  2.0538  0.7778  0.7377
  848MOL0     H16975   5.978   5.944   8.169 -1.0010 -0.0264  2.5675
  848MOL0     H16976   5.868   6.039   8.361  1.1038 -1.5792 -0.8822
  848MOL0     H16977   5.943   6.164   8.255 -2.6195  2.9699  0.1234
  848MOL0     H16978   5.656   6.088   8.282  0.8168 -0.9594  0.7579
  848MOL0     H16979   5.730   6.219   8.363  0.4938 -0.2846  0.5857
  848MOL0     H16980   5.767   6.309   8.105  2.1823  1.3681  3.4221
  848MOL0     H16981   5.670   6.160   8.070  0.9129 -2.1101  2.4576
  848MOL0     H16982   5.500   6.259   7.926 -0.5243  0.7071 -0.7177
  848MOL0     H16983   5.446   6.306   7.697 -1.5262 -0.2438 -1.4537
  848MOL0     H16984   5.524   6.440   7.632 -1.2420  1.0770  0.0032
  848MOL0     H16985   5.348   6.442   7.660  0.1198 -2.1000 -1.6260
  848MOL0     H16986   5.646   6.942   7.645  1.7213  1.0414  2.9619
  848MOL0     H16987   5.614   7.127   7.495  2.2446 -2.9996  0.6925
  848MOL0     H16988   5.508   7.269   7.339 -0.9202 -0.2054 -0.5862
  848MOL0     H16989   5.373   7.165   7.318  1.4527  0.1934 -2.0686
  848MOL0     H16990   5.225   7.354   7.257 -0.0095 -2.0430  0.1819
  848MOL0     H16991   5.353   7.463   7.304  1.8456 -0.8944 -0.0857
  848MOL0     H16992   5.508   7.410   7.147  0.0470 -1.8514  2.2268
  848MOL0     H16993   5.364   7.447   7.064 -1.1118 -1.4490 -1.4377
  848MOL0     H16994   5.289   7.225   7.031 -0.4920  1.0270 -0.8020
  848MOL0     H16995   5.433   7.163   7.120 -0.6445 -0.7513 -0.4758
  848MOL0     H16996   5.448   7.156   6.864 -1.8665 -0.4861  0.3897
  848MOL0     H16997   5.468   7.330   6.871  0.1037 -2.1106 -3.3024
  848MOL0     H16998   5.664   7.256   7.056 -1.0560 -0.3642  0.3408
  848MOL0     H16999   5.673   7.258   6.881 -0.2402 -0.0947  0.9188
  848MOL0     H17000   5.633   7.022   6.860  1.1979  0.0374 -0.4647
  848MOL0     H17001   5.583   7.013   7.029 -0.0990  2.8346  1.0347
  848MOL0     H17002   5.781   7.037   7.124 -2.1780  0.1679  0.1782
  848MOL0     H17003   5.868   7.106   6.981  0.1137 -0.6683  0.4870
  848MOL0     H17004   5.214   7.175   7.657  0.7229  0.7007  3.4905
  848MOL0     H17005   5.251   6.993   7.801  0.2428  2.4267  0.7124
  848MOL0     H17006   5.455   6.733   8.040 -0.1709 -2.1253  2.3173
  848MOL0     H17007   5.548   6.565   8.206 -1.3113 -2.3470  1.2240
  848MOL0     H17008   5.222   6.686   8.562 -0.0928  0.9245 -0.3482
  848MOL0     H17009   5.151   6.912   8.525 -1.4748 -0.4313  0.2333
  848MOL0     H17010   4.938   7.289   8.066  0.3107 -0.3894 -1.9769
  848MOL0     H17011   5.035   7.484   7.986 -2.0896 -0.7278  2.8137
  848MOL0     H17012   5.139   7.638   7.899  0.0129 -0.5656  0.1316
  848MOL0     H17013   5.181   7.691   8.064  0.6438 -0.9260  0.6351
  848MOL0     H17014   5.316   7.738   7.803  2.7042  0.3789  0.9289
  848MOL0     H17015   5.373   7.815   7.954 -0.3061  0.0238 -0.1062
  848MOL0     H17016   5.157   7.929   7.975  2.0845 -0.6669  1.2939
  848MOL0     H17017   5.247   7.978   7.823 -2.1540  1.1475 -0.0058
  848MOL0     H17018   4.992   7.827   7.855 -2.3318  3.5552  1.8303
  848MOL0     H17019   5.103   7.791   7.716  3.8155  1.4225 -0.1396
  848MOL0     H17020   4.933   8.186   7.684  3.0436  0.8777  0.3423
  848MOL0     H17021   5.430   7.333   8.082 -0.4998  0.9170  1.3240
  848MOL0     H17022   5.460   7.121   8.152  0.2233  0.0029  2.4942
  848MOL0     H17023   5.340   7.097   8.290 -0.1168 -0.6214  0.4356
  848MOL0     H17024   5.333   7.004   8.143 -1.6563  0.5067 -0.1223
  849MOL0     O17025   1.864   6.316   9.171 -0.1082 -0.0912  0.2014
  849MOL0     C17026   1.919   6.417   9.213  0.0007  0.6563  0.3577
  849MOL0     O17027   2.042   6.424   9.247  0.4848  0.5404  0.3256
  849MOL0     C17028   2.127   6.313   9.254  0.1776  0.3995 -0.1111
  849MOL0     C17029   2.251   6.314   9.197  0.0458 -0.5828 -0.1147
  849MOL0     C17030   2.338   6.212   9.221  0.1230  0.0416 -0.6806
  849MOL0     C17031   2.302   6.105   9.309 -0.5173  0.6741  0.3195
  849MOL0     O17032   2.387   6.001   9.318 -0.1629 -0.8277 -0.0331
  849MOL0     C17033   2.397   5.928   9.442  0.3721  0.3149  1.0814
  849MOL0     C17034   2.313   5.796   9.453 -0.6654  0.0753  0.6934
  849MOL0     C17035   2.325   5.711   9.323 -0.6895 -0.0256  0.6524
  849MOL0     C17036   2.279   5.566   9.339  0.2753  0.4042  0.7434
  849MOL0     C17037   2.294   5.492   9.203 -0.0099 -0.4212  0.1925
  849MOL0     C17038   2.244   5.349   9.206 -0.1630 -0.0366 -0.0630
  849MOL0     C17039   2.283   5.293   9.074  0.5789 -0.6055  0.3855
  849MOL0     C17040   2.206   5.167   9.049 -0.2277  0.4877 -0.7732
  849MOL0     N17041   2.236   5.052   9.142  0.3560 -0.4017 -0.4307
  849MOL0     C17042   2.168   5.019   9.261  0.1044  0.2193 -0.2646
  849MOL0     C17043   2.233   4.900   9.300  0.4803 -0.6371 -0.1562
  849MOL0     C17044   2.220   4.797   9.416 -0.2149 -0.1661  0.0659
  849MOL0     C17045   2.122   4.687   9.389  1.0881 -0.4165 -0.3567
  849MOL0     C17046   2.161   4.581   9.285  0.1026  0.2147  0.7731
  849MOL0     C17047   2.044   4.478   9.271 -1.2427 -0.1379  1.4017
  849MOL0     O17048   1.928   4.535   9.206 -0.2673 -0.2501 -0.5525
  849MOL0     C17049   1.875   4.458   9.104  0.9855  0.1824 -0.4824
  849MOL0     C17050   1.955   4.407   9.000  0.0044  0.4264 -0.5404
  849MOL0     C17051   1.882   4.327   8.903  0.7833 -0.9550  0.5609
  849MOL0     C17052   1.978   4.257   8.807  0.6238 -0.6296 -0.8217
  849MOL0     C17053   1.739   4.326   8.891  0.5205  0.3936  0.5645
  849MOL0     C17054   1.669   4.255   8.781  0.0989  0.4929 -0.6244
  849MOL0     O17055   1.532   4.275   8.783 -0.0045 -0.7136 -0.7441
  849MOL0     C17056   1.436   4.209   8.713  0.4128 -0.1563  0.0348
  849MOL0     C17057   1.447   4.076   8.673 -0.0671  0.4953  0.4491
  849MOL0     C17058   1.348   4.014   8.593 -0.6003 -1.6624  0.3976
  849MOL0     C17059   1.228   4.080   8.565 -0.1697  0.5413 -0.2940
  849MOL0     O17060   1.121   4.033   8.494 -0.0353 -0.2634 -1.0659
  849MOL0     C17061   1.139   3.913   8.423  0.2647  0.5406 -0.0765
  849MOL0     C17062   1.028   3.909   8.315  0.4467 -0.5578 -0.9791
  849MOL0     C17063   1.038   3.799   8.220 -0.0313 -0.2390  0.2049
  849MOL0     C17064   0.908   3.779   8.147  0.0525  0.1920 -0.0153
  849MOL0     C17065   0.917   3.677   8.027  0.0021  0.0254  1.0232
  849MOL0     C17066   0.940   3.523   8.066 -0.5658  0.7546  0.0600
  849MOL0     C17067   0.948   3.426   7.947  0.2561  0.7074  0.1025
  849MOL0     C17068   0.800   3.366   7.913  0.4356 -0.7088 -0.3980
  849MOL0    Cl17069   0.739   3.238   8.035  0.1804 -0.1683 -0.0127
  849MOL0     C17070   1.213   4.212   8.611  0.4542 -0.2609 -0.4022
  849MOL0     C17071   1.317   4.278   8.680 -1.0285 -0.2062 -0.0376
  849MOL0     O17072   1.725   4.175   8.710  0.5051 -0.2984  0.1530
  849MOL0     C17073   1.669   4.397   8.990 -0.1120  0.4163  0.1995
  849MOL0     C17074   1.740   4.451   9.100  0.5822  0.1158 -0.0449
  849MOL0     N17075   2.339   4.871   9.208  0.0800  0.0452 -0.1661
  849MOL0     N17076   2.326   4.956   9.112 -0.0849 -0.0762  0.0611
  849MOL0     C17077   2.181   6.113   9.383 -0.1793  0.2284  0.0149
  849MOL0     C17078   2.095   6.221   9.358  0.4260  0.9652 -0.3381
  849MOL0     C17079   1.846   6.545   9.198  1.4415 -0.1848 -0.0798
  849MOL0     C17080   1.701   6.533   9.214 -0.9199  0.8079  0.2621
  849MOL0     C17081   1.626   6.653   9.203  0.2000  0.1854 -0.5478
  849MOL0     C17082   1.690   6.778   9.186 -0.1166 -0.9369  1.3689
  849MOL0     O17083   1.596   6.880   9.172 -0.3346  0.1421 -0.3962
  849MOL0     C17084   1.636   7.006   9.116 -0.0855  0.1673  0.0328
  849MOL0     C17085   1.503   7.086   9.119  0.6227 -0.3254  0.8577
  849MOL0     C17086   1.504   7.188   9.003  0.2760 -0.2040 -0.1034
  849MOL0     C17087   1.592   7.309   9.007  0.0806 -0.4961  0.6350
  849MOL0     C17088   1.598   7.381   8.879  0.1249 -0.2676 -0.2884
  849MOL0     C17089   1.588   7.472   8.802 -1.2069  0.0972  0.0561
  849MOL0     C17090   1.826   6.785   9.181  0.0656  0.2193  0.3693
  849MOL0     C17091   1.906   6.670   9.173  0.4591  0.1876 -0.3765
  849MOL0     C17092   2.050   6.688   9.144 -1.3293  0.2533  0.4616
  849MOL0     H17093   2.285   6.400   9.140  2.5611 -0.5731  1.2722
  849MOL0     H17094   2.436   6.211   9.175  0.3273  0.1981 -0.2576
  849MOL0     H17095   2.371   5.993   9.526  2.7298 -2.8331  4.5445
  849MOL0     H17096   2.504   5.905   9.450  0.4428  1.0218  2.3007
  849MOL0     H17097   2.353   5.739   9.537  0.0177  1.1456  1.1192
  849MOL0     H17098   2.210   5.812   9.488 -0.6013  0.2542  0.7987
  849MOL0     H17099   2.268   5.757   9.242 -1.6674  0.6457  1.6944
  849MOL0     H17100   2.430   5.715   9.291 -1.1452  2.6989 -0.8801
  849MOL0     H17101   2.339   5.508   9.409 -0.4411 -2.1947 -0.6638
  849MOL0     H17102   2.177   5.552   9.374  0.4453 -2.9360  0.1918
  849MOL0     H17103   2.398   5.499   9.170 -0.0172 -0.1925  0.2164
  849MOL0     H17104   2.240   5.550   9.128 -0.9193 -0.6328  0.6662
  849MOL0     H17105   2.294   5.291   9.284  1.5072  1.8963  0.3875
  849MOL0     H17106   2.137   5.346   9.231  0.1905 -0.3041  1.5129
  849MOL0     H17107   2.392   5.286   9.066  0.9935  3.7067 -0.3517
  849MOL0     H17108   2.256   5.359   8.991  0.3387 -2.3707 -0.9982
  849MOL0     H17109   2.101   5.198   9.059 -0.9035 -1.6772 -0.4855
  849MOL0     H17110   2.221   5.131   8.947  1.5738 -0.3329 -0.2547
  849MOL0     H17111   2.079   5.065   9.304  0.6716 -0.8763  2.2419
  849MOL0     H17112   2.180   4.842   9.507 -1.2971 -1.8568  0.4668
  849MOL0     H17113   2.320   4.757   9.434  0.1040 -0.6296 -2.3366
  849MOL0     H17114   2.104   4.638   9.485  2.1513  0.5123  0.3486
  849MOL0     H17115   2.034   4.747   9.361  0.7284 -0.4379  0.6795
  849MOL0     H17116   2.161   4.630   9.187  1.6885  0.9665  1.1088
  849MOL0     H17117   2.255   4.527   9.298  0.4615 -0.2548 -2.7136
  849MOL0     H17118   2.075   4.382   9.228  1.1401  2.1040 -2.5694
  849MOL0     H17119   2.006   4.444   9.367  0.9986 -1.9397  1.7589
  849MOL0     H17120   2.063   4.404   9.011 -0.1139 -1.5607  0.5684
  849MOL0     H17121   1.953   4.151   8.815 -1.7120  0.0187  2.3427
  849MOL0     H17122   2.081   4.283   8.835 -0.0533  0.4740  0.7902
  849MOL0     H17123   1.958   4.280   8.702  1.5045 -1.3169 -1.1503
  849MOL0     H17124   1.539   4.027   8.704  0.1661  1.3521  1.1548
  849MOL0     H17125   1.369   3.913   8.559  1.7768 -0.4045 -2.2720
  849MOL0     H17126   1.233   3.916   8.368  0.0202 -0.2979 -0.5540
  849MOL0     H17127   1.127   3.818   8.475 -3.7531  1.7887  1.6864
  849MOL0     H17128   0.926   3.907   8.354 -0.6779 -1.5830 -3.6801
  849MOL0     H17129   1.040   4.003   8.261  0.4807  0.2804  0.4417
  849MOL0     H17130   1.064   3.705   8.270  0.6640 -0.4479 -0.5168
  849MOL0     H17131   1.125   3.818   8.157  0.0876 -1.9149 -0.1948
  849MOL0     H17132   0.888   3.878   8.104 -1.0251  0.4936  1.1253
  849MOL0     H17133   0.825   3.761   8.216 -2.0003 -2.1852 -2.8487
  849MOL0     H17134   0.832   3.688   7.959  1.8246  1.1930 -1.1896
  849MOL0     H17135   1.001   3.698   7.961 -3.1188  1.2164 -3.0179
  849MOL0     H17136   0.856   3.484   8.124  1.3320 -0.2742  2.2893
  849MOL0     H17137   1.032   3.527   8.125 -0.1093  1.3797 -0.6670
  849MOL0     H17138   1.008   3.336   7.965  2.7110  1.6256 -2.7107
  849MOL0     H17139   0.981   3.476   7.856 -2.9841 -0.3913 -1.8411
  849MOL0     H17140   0.807   3.317   7.815  3.2652  0.5317 -0.8919
  849MOL0     H17141   0.738   3.455   7.903  1.8089  0.0076 -4.0765
  849MOL0     H17142   1.123   4.261   8.577  1.2130 -0.1319 -2.3657
  849MOL0     H17143   1.312   4.384   8.702  1.5454  0.3085 -1.4479
  849MOL0     H17144   1.561   4.401   8.979 -0.2047 -2.4426 -0.6631
  849MOL0     H17145   1.682   4.518   9.162 -1.5214  1.1696 -2.9276
  849MOL0     H17146   2.155   6.033   9.452 -1.2089  0.0234 -0.5930
  849MOL0     H17147   2.003   6.236   9.413  0.7116  4.2077 -0.5441
  849MOL0     H17148   1.653   6.438   9.237  1.1940 -0.6612 -1.1007
  849MOL0     H17149   1.519   6.641   9.204 -0.0339  2.0058 -0.6845
  849MOL0     H17150   1.715   7.068   9.159 -0.9115 -0.2964  2.3362
  849MOL0     H17151   1.674   6.982   9.016 -1.0201 -0.4984 -0.1744
  849MOL0     H17152   1.485   7.131   9.217 -0.6660  0.6882  0.1892
  849MOL0     H17153   1.418   7.019   9.104  2.8762 -3.0796 -0.6353
  849MOL0     H17154   1.514   7.135   8.908 -1.0884 -0.7934  0.0601
  849MOL0     H17155   1.403   7.231   8.996  1.2490  3.0876  3.0400
  849MOL0     H17156   1.691   7.271   9.036  1.2511  2.3173  0.6155
  849MOL0     H17157   1.559   7.385   9.078 -0.4928 -2.4866  2.6461
  849MOL0     H17158   1.576   7.550   8.730  0.1709  0.5188  0.2689
  849MOL0     H17159   1.875   6.880   9.163  0.1717  1.0316  4.1092
  849MOL0     H17160   2.108   6.600   9.116  1.6456  2.8952 -2.4830
  849MOL0     H17161   2.061   6.765   9.067  3.6582 -2.5427 -2.0885
  849MOL0     H17162   2.106   6.723   9.231 -1.9184  0.7304  0.6574
  850MOL0     O17163   6.170   0.314   1.373  0.4436  0.2882 -0.0845
  850MOL0     C17164   6.193   0.274   1.489 -0.1505 -0.2100 -0.1613
  850MOL0     O17165   6.098   0.231   1.576 -0.5959  0.0931 -0.4813
  850MOL0     C17166   5.962   0.258   1.569 -0.4761  0.5954 -0.7520
  850MOL0     C17167   5.890   0.224   1.690  0.4121 -0.4954  0.9843
  850MOL0     C17168   5.752   0.257   1.694  0.5273  0.1824  0.2427
  850MOL0     C17169   5.687   0.319   1.594 -0.5477  0.7674 -0.4983
  850MOL0     O17170   5.550   0.340   1.608  0.0091 -0.5869  0.0405
  850MOL0     C17171   5.487   0.443   1.533  0.5003  0.1640  0.4884
  850MOL0     C17172   5.336   0.435   1.565 -0.0967  0.3824  0.1003
  850MOL0     C17173   5.243   0.528   1.488 -0.5122  0.4266 -0.1487
  850MOL0     C17174   5.111   0.519   1.551 -0.1850  0.1600  0.3100
  850MOL0     C17175   5.004   0.575   1.456 -0.3312  0.2068  0.2318
  850MOL0     C17176   5.006   0.722   1.426  0.7576  0.0405  0.4496
  850MOL0     C17177   4.885   0.760   1.351 -0.7402 -0.3875 -0.2485
  850MOL0     C17178   4.899   0.917   1.337 -0.5236 -0.4889 -0.5124
  850MOL0     N17179   4.807   0.982   1.244 -0.0508  0.5204  0.8510
  850MOL0     C17180   4.796   0.959   1.106  0.7049 -0.2498  0.3400
  850MOL0     C17181   4.683   1.016   1.072  0.4911 -0.4656  0.3524
  850MOL0     C17182   4.626   1.010   0.931  0.3147 -1.1426 -0.4582
  850MOL0     C17183   4.508   0.910   0.911  0.6191 -1.5511 -0.4860
  850MOL0     C17184   4.559   0.789   0.831 -0.6186 -0.1119  0.1505
  850MOL0     C17185   4.470   0.667   0.812 -0.1653 -0.5167 -0.3914
  850MOL0     O17186   4.507   0.604   0.688 -0.4565  0.9656  0.8885
  850MOL0     C17187   4.608   0.511   0.690 -0.1400 -0.0521 -0.1490
  850MOL0     C17188   4.708   0.511   0.594  0.1618  0.0810 -0.0868
  850MOL0     C17189   4.798   0.408   0.590  0.4284  0.1952  0.4158
  850MOL0     C17190   4.885   0.399   0.464 -0.2477  0.6950  0.6063
  850MOL0     C17191   4.801   0.308   0.691  1.1508  0.1744 -0.4022
  850MOL0     C17192   4.897   0.194   0.706 -0.3041 -0.0140 -0.2174
  850MOL0     O17193   4.844   0.089   0.776  0.3110  0.0178  0.1159
  850MOL0     C17194   4.924  -0.019   0.762  0.2665  0.0756  0.6486
  850MOL0     C17195   5.054  -0.026   0.818 -0.0122  0.1854 -0.1677
  850MOL0     C17196   5.127  -0.145   0.829 -0.7308 -0.7447 -0.5157
  850MOL0     C17197   5.078  -0.262   0.777  0.0415  0.9474 -0.3213
  850MOL0     O17198   5.161  -0.375   0.780 -0.6003 -0.5295 -0.1549
  850MOL0     C17199   5.128  -0.491   0.701  0.6554 -0.7174  1.1447
  850MOL0     C17200   5.252  -0.576   0.703 -0.8062 -0.3434 -0.8361
  850MOL0     C17201   5.385  -0.498   0.648  0.1858  0.2965  0.2920
  850MOL0     C17202   5.372  -0.398   0.530  0.3672 -0.4773 -0.0863
  850MOL0     C17203   5.506  -0.349   0.497 -0.7901 -0.0810  0.1411
  850MOL0     C17204   5.523  -0.233   0.397  0.4793 -0.0918  0.5226
  850MOL0     C17205   5.671  -0.209   0.371  0.4594  0.3323 -0.8751
  850MOL0     C17206   5.690  -0.100   0.268  0.6383 -0.8483 -0.3020
  850MOL0    Cl17207   5.854  -0.106   0.192 -0.0505 -0.4974  0.1571
  850MOL0     C17208   4.946  -0.260   0.729 -0.2404  0.0139  0.8222
  850MOL0     C17209   4.868  -0.136   0.717  0.5745 -0.1309 -0.4321
  850MOL0     O17210   5.002   0.198   0.646  0.0991  0.0880  0.5149
  850MOL0     C17211   4.712   0.324   0.799  0.3579 -0.3897 -0.2958
  850MOL0     C17212   4.603   0.415   0.798 -0.8688  0.4059  0.1237
  850MOL0     N17213   4.624   1.069   1.186 -0.0901 -1.1038 -1.5336
  850MOL0     N17214   4.697   1.038   1.289  0.3064 -0.0314  0.4045
  850MOL0     C17215   5.755   0.350   1.471  0.1468  0.0764  0.2437
  850MOL0     C17216   5.887   0.308   1.459  0.4303  1.1538  0.3506
  850MOL0     C17217   6.323   0.289   1.538 -0.1352 -0.3478  0.4256
  850MOL0     C17218   6.349   0.246   1.670 -1.0925  0.9332  0.5383
  850MOL0     C17219   6.480   0.253   1.728  0.0528 -0.3472  1.1133
  850MOL0     C17220   6.582   0.322   1.656  0.6445  0.2348  0.0890
  850MOL0     O17221   6.716   0.332   1.688 -0.1088 -0.4550 -0.0779
  850MOL0     C17222   6.755   0.260   1.802 -0.0800  0.7807 -0.3611
  850MOL0     C17223   6.900   0.208   1.782 -0.2333  0.1674 -0.2382
  850MOL0     C17224   6.906   0.086   1.689  0.0287 -0.6629  0.1199
  850MOL0     C17225   7.034   0.009   1.695 -1.0469 -0.3031  0.7002
  850MOL0     C17226   7.140   0.086   1.615  0.5146 -0.0569  0.2213
  850MOL0     C17227   7.228   0.141   1.548 -0.1422 -0.0484  0.4333
  850MOL0     C17228   6.547   0.373   1.532 -0.2732 -0.0292  0.1811
  850MOL0     C17229   6.428   0.358   1.470 -0.4347  0.3642  0.4002
  850MOL0     C17230   6.422   0.422   1.330  0.0282 -0.3071 -0.1231
  850MOL0     H17231   5.948   0.196   1.777  0.9313  0.5831  1.0010
  850MOL0     H17232   5.699   0.222   1.782  2.6301  1.8799  2.2983
  850MOL0     H17233   5.494   0.425   1.425 -3.3842  0.1092  0.0819
  850MOL0     H17234   5.536   0.536   1.563  0.7297  0.3849 -0.5176
  850MOL0     H17235   5.305   0.333   1.539  0.6989 -0.2425  1.4741
  850MOL0     H17236   5.319   0.444   1.673  0.3843 -1.2766  0.3527
  850MOL0     H17237   5.276   0.632   1.484  0.1840  0.2010 -0.3663
  850MOL0     H17238   5.222   0.503   1.384 -0.2357  3.2481 -0.9662
  850MOL0     H17239   5.075   0.420   1.577  0.8874 -0.0085  1.2318
  850MOL0     H17240   5.109   0.572   1.647  0.1376 -5.1597  3.6206
  850MOL0     H17241   4.906   0.538   1.490  1.0544 -3.3982  0.7839
  850MOL0     H17242   5.016   0.517   1.364  4.2422 -0.7786  1.2048
  850MOL0     H17243   4.999   0.771   1.524  4.3285  0.3692  0.6684
  850MOL0     H17244   5.101   0.736   1.373 -0.5869  1.3895 -1.7191
  850MOL0     H17245   4.787   0.742   1.396 -1.9973 -0.9343 -2.9783
  850MOL0     H17246   4.866   0.715   1.253 -6.0390  1.3378 -0.3361
  850MOL0     H17247   4.866   0.953   1.435 -2.7502 -0.9705 -1.0173
  850MOL0     H17248   4.997   0.958   1.311 -0.4181  0.0432  0.6732
  850MOL0     H17249   4.866   0.909   1.040 -1.0052 -0.3346 -1.5003
  850MOL0     H17250   4.713   0.992   0.867  0.3918  0.2797 -0.8016
  850MOL0     H17251   4.590   1.110   0.903  1.3749 -0.4191  0.6265
  850MOL0     H17252   4.470   0.881   1.009 -0.1028 -1.6399 -0.7849
  850MOL0     H17253   4.431   0.962   0.854  0.3260 -2.0868 -0.5909
  850MOL0     H17254   4.596   0.836   0.739  0.9292  3.8400  2.5450
  850MOL0     H17255   4.655   0.757   0.871  0.5723 -1.6718 -3.5602
  850MOL0     H17256   4.472   0.604   0.902 -0.5976  0.0226  0.0011
  850MOL0     H17257   4.371   0.712   0.802  0.5129  1.3234  0.6038
  850MOL0     H17258   4.694   0.586   0.517 -1.7859  0.2917  0.4294
  850MOL0     H17259   4.836   0.439   0.375  0.2030 -0.9067 -0.4051
  850MOL0     H17260   4.901   0.291   0.453 -1.0743 -0.0526  4.8619
  850MOL0     H17261   4.984   0.438   0.488  0.3299  0.3308 -1.0618
  850MOL0     H17262   5.107   0.064   0.847 -0.7374  0.4150  0.4766
  850MOL0     H17263   5.225  -0.146   0.876 -1.7954  2.0620  2.1024
  850MOL0     H17264   5.046  -0.548   0.746 -2.0679  0.7319 -1.6209
  850MOL0     H17265   5.097  -0.463   0.601 -0.4160  0.8625  1.8904
  850MOL0     H17266   5.278  -0.609   0.804 -0.1974 -1.1274 -1.2408
  850MOL0     H17267   5.227  -0.669   0.652  0.1721 -0.3014 -1.4265
  850MOL0     H17268   5.463  -0.568   0.618  1.5179  1.4348  0.9871
  850MOL0     H17269   5.420  -0.440   0.734 -1.6496  1.6489  0.1872
  850MOL0     H17270   5.310  -0.313   0.557 -1.5813 -2.5068  2.2708
  850MOL0     H17271   5.326  -0.444   0.442 -2.7306  2.0415  0.0712
  850MOL0     H17272   5.548  -0.315   0.592  1.9931 -1.1216 -0.6385
  850MOL0     H17273   5.569  -0.432   0.465  1.3462  0.6158  2.2711
  850MOL0     H17274   5.469  -0.148   0.440 -3.3955 -2.9516  1.9180
  850MOL0     H17275   5.481  -0.264   0.301  2.3326  0.2871 -0.4442
  850MOL0     H17276   5.717  -0.305   0.345 -0.8359 -0.1916 -1.3076
  850MOL0     H17277   5.715  -0.184   0.468  4.7798 -1.2068 -2.1865
  850MOL0     H17278   5.672  -0.006   0.320 -0.9643 -0.4731 -1.4292
  850MOL0     H17279   5.599  -0.113   0.208 -1.7453 -1.6848  3.1681
  850MOL0     H17280   4.898  -0.354   0.703 -0.1053 -0.5373  2.4371
  850MOL0     H17281   4.770  -0.154   0.675  0.0448  0.8051  0.3782
  850MOL0     H17282   4.714   0.261   0.886 -2.5739 -0.1568  0.0204
  850MOL0     H17283   4.530   0.412   0.878 -0.5106 -0.5001  0.4325
  850MOL0     H17284   5.706   0.412   1.398 -2.1333 -1.6249  0.2148
  850MOL0     H17285   5.932   0.319   1.361 -2.3524  0.0900 -1.1588
  850MOL0     H17286   6.273   0.179   1.708  1.4006 -2.7119 -0.3255
  850MOL0     H17287   6.499   0.198   1.819  1.3509 -3.0253 -0.6277
  850MOL0     H17288   6.767   0.328   1.886  2.0896 -0.2886  0.2742
  850MOL0     H17289   6.704   0.168   1.832 -2.9241  1.4858 -2.5969
  850MOL0     H17290   6.956   0.195   1.875  0.3808  3.6669  0.0187
  850MOL0     H17291   6.962   0.286   1.735  1.5332 -0.7843  0.4216
  850MOL0     H17292   6.827   0.014   1.709  0.8425 -2.1292 -1.6373
  850MOL0     H17293   6.902   0.127   1.587 -0.7506  0.1495  0.4651
  850MOL0     H17294   7.022  -0.079   1.631  2.4582  1.0252 -2.0967
  850MOL0     H17295   7.073  -0.017   1.794 -0.9849  1.7398  1.2493
  850MOL0     H17296   7.308   0.184   1.492  0.5712 -3.9181 -1.9042
  850MOL0     H17297   6.627   0.437   1.495  0.2581 -0.6102  0.3173
  850MOL0     H17298   6.506   0.473   1.282  0.5563 -1.4614 -0.4584
  850MOL0     H17299   6.393   0.337   1.267 -2.9435  0.7473 -0.3429
  850MOL0     H17300   6.344   0.499   1.322  1.0039  0.5288 -2.8075
  851MOL0     O17301   5.997   0.718   8.847  0.4266  0.4030  0.2415
  851MOL0     C17302   6.041   0.646   8.757  0.1707  1.1604 -0.4985
  851MOL0     O17303   6.162   0.571   8.760  0.4459 -0.1030  0.4102
  851MOL0     C17304   6.257   0.613   8.857  0.0605 -0.4452  0.2605
  851MOL0     C17305   6.356   0.706   8.815  0.5243  0.0353 -0.4837
  851MOL0     C17306   6.439   0.775   8.908  0.4869  0.9562 -0.5630
  851MOL0     C17307   6.446   0.720   9.042  0.5372 -0.2654  0.5254
  851MOL0     O17308   6.529   0.787   9.126 -0.7963  0.4894  0.5308
  851MOL0     C17309   6.519   0.766   9.263 -0.0295  0.6933 -0.7732
  851MOL0     C17310   6.639   0.827   9.344  0.1752  0.8606  0.1731
  851MOL0     C17311   6.640   0.976   9.338  0.0664  0.1545 -0.6726
  851MOL0     C17312   6.546   1.025   9.452  0.2932 -0.4021  0.1268
  851MOL0     C17313   6.552   1.178   9.458 -0.3060  0.2837  0.4103
  851MOL0     C17314   6.486   1.248   9.575 -0.8801 -0.3358  0.4303
  851MOL0     C17315   6.446   1.394   9.537 -1.0962 -0.6337  0.6157
  851MOL0     C17316   6.313   1.397   9.466  0.9879 -0.4996  0.1156
  851MOL0     N17317   6.298   1.536   9.420  0.7283  0.8166 -0.5635
  851MOL0     C17318   6.393   1.629   9.376  0.0331  1.5573 -0.0192
  851MOL0     C17319   6.325   1.742   9.358  0.0816 -0.2578  0.7376
  851MOL0     C17320   6.393   1.874   9.357  0.4370 -0.3500  0.4665
  851MOL0     C17321   6.480   1.898   9.473 -0.1422  0.3999  0.8150
  851MOL0     C17322   6.565   2.032   9.477 -0.1580 -0.2849 -0.1417
  851MOL0     C17323   6.662   2.043   9.590  0.6198  0.8537 -0.2392
  851MOL0     O17324   6.761   1.938   9.598  0.3692  0.2273 -0.5049
  851MOL0     C17325   6.862   1.956   9.694 -0.4881  0.0998 -0.0017
  851MOL0     C17326   6.834   1.918   9.823 -0.2350  0.6917 -0.3355
  851MOL0     C17327   6.933   1.941   9.919 -0.2876 -0.0990 -0.0609
  851MOL0     C17328   6.894   1.917  10.064 -0.2388 -0.1108  0.1207
  851MOL0     C17329   7.063   1.994   9.884 -0.3153  0.4034  0.6446
  851MOL0     C17330   7.174   2.015   9.988  0.7409 -0.8622 -0.6297
  851MOL0     O17331   7.281   2.085   9.930  0.4117 -0.2800  0.4730
  851MOL0     C17332   7.393   2.110  10.006  0.6450 -0.0380 -0.6787
  851MOL0     C17333   7.422   2.247  10.030  0.7249 -0.1013 -0.2821
  851MOL0     C17334   7.541   2.272  10.106  0.3684  0.3963 -0.5126
  851MOL0     C17335   7.618   2.171  10.157  0.2017 -0.3378 -0.2432
  851MOL0     O17336   7.730   2.189  10.225  0.8832 -0.3343 -0.2287
  851MOL0     C17337   7.786   2.324  10.233 -0.5352 -1.3790 -0.0109
  851MOL0     C17338   7.911   2.327  10.319 -0.1241  0.0119 -0.2764
  851MOL0     C17339   7.883   2.292  10.469  0.0822 -0.1992 -0.5346
  851MOL0     C17340   7.998   2.329  10.564 -0.0957 -0.2773 -0.8995
  851MOL0     C17341   8.006   2.243  10.696 -0.1582  0.2509 -0.2870
  851MOL0     C17342   7.875   2.250  10.782 -0.9228 -0.5109  0.7056
  851MOL0     C17343   7.899   2.183  10.918 -0.2231 -0.6408  0.0508
  851MOL0     C17344   8.012   2.227  11.011  0.4925 -0.0002 -0.2232
  851MOL0    Cl17345   8.008   2.401  11.028 -0.6496 -0.2245 -0.0692
  851MOL0     C17346   7.583   2.044  10.138 -0.3101 -0.3693 -1.6042
  851MOL0     C17347   7.476   2.009  10.050 -0.2914 -0.2158 -0.0179
  851MOL0     O17348   7.178   1.984  10.104  0.1502  0.4053 -0.4073
  851MOL0     C17349   7.072   2.034   9.752  0.3642  0.5353 -0.2791
  851MOL0     C17350   6.977   2.010   9.653 -0.1681 -1.3019  0.6432
  851MOL0     N17351   6.194   1.716   9.374 -0.6337 -0.6923 -0.3829
  851MOL0     N17352   6.183   1.602   9.418  0.1189  1.2889  0.0363
  851MOL0     C17353   6.346   0.625   9.082  0.4264 -1.0449  0.5901
  851MOL0     C17354   6.247   0.581   8.991  0.0046 -0.5458 -0.4346
  851MOL0     C17355   5.957   0.639   8.636  0.5884  0.9004  1.0000
  851MOL0     C17356   5.888   0.757   8.601 -0.7020  0.1392  0.1757
  851MOL0     C17357   5.793   0.769   8.499 -0.1807 -0.9660 -0.6752
  851MOL0     C17358   5.774   0.664   8.412  0.6022 -0.6646 -0.8201
  851MOL0     O17359   5.694   0.677   8.304 -1.2388 -0.0683 -0.1611
  851MOL0     C17360   5.558   0.710   8.343  0.6757  1.2349  0.1094
  851MOL0     C17361   5.460   0.627   8.260 -0.0554  0.1808 -0.8066
  851MOL0     C17362   5.432   0.471   8.301  0.5976 -0.9004  0.5937
  851MOL0     C17363   5.331   0.397   8.210  0.0549  0.9677  0.3711
  851MOL0     C17364   5.277   0.275   8.275 -0.2553 -1.3223 -0.5223
  851MOL0     C17365   5.244   0.169   8.322  0.3745  0.3495 -0.0222
  851MOL0     C17366   5.846   0.542   8.437  0.0374 -0.5060  0.1571
  851MOL0     C17367   5.930   0.528   8.549 -0.0485  0.3566 -0.5340
  851MOL0     C17368   5.990   0.392   8.587 -0.0457  0.2722  0.3722
  851MOL0     H17369   6.368   0.738   8.712 -1.3678  1.1450 -0.4213
  851MOL0     H17370   6.507   0.852   8.876  1.6572 -0.6459 -2.1125
  851MOL0     H17371   6.519   0.662   9.294  0.1247  1.3274  1.5410
  851MOL0     H17372   6.423   0.808   9.292 -0.2182 -0.1217 -0.2155
  851MOL0     H17373   6.647   0.787   9.445  2.8836 -1.3022 -0.7781
  851MOL0     H17374   6.720   0.782   9.286 -0.8171  2.7717 -2.9287
  851MOL0     H17375   6.737   1.024   9.353 -0.3111  0.4986  0.8349
  851MOL0     H17376   6.616   1.004   9.235 -4.1212  0.7664  0.2921
  851MOL0     H17377   6.441   0.996   9.437  0.9645 -2.5343 -0.8891
  851MOL0     H17378   6.583   0.980   9.544 -2.3132 -1.6128  0.7003
  851MOL0     H17379   6.516   1.221   9.364  2.4365  1.8561 -0.0381
  851MOL0     H17380   6.659   1.201   9.464 -0.5467  1.1466  2.7542
  851MOL0     H17381   6.398   1.193   9.608 -0.1686 -1.4301  0.5597
  851MOL0     H17382   6.567   1.254   9.648  0.1173 -2.1822 -0.4575
  851MOL0     H17383   6.517   1.435   9.464 -0.7162  1.0635  1.8916
  851MOL0     H17384   6.423   1.468   9.613 -2.0123  0.1721 -0.4069
  851MOL0     H17385   6.310   1.333   9.377  2.6461 -1.8706  0.9576
  851MOL0     H17386   6.230   1.361   9.528 -0.3041  0.3869 -1.0554
  851MOL0     H17387   6.501   1.615   9.370 -0.1705 -1.3736  1.3212
  851MOL0     H17388   6.318   1.953   9.350  0.2463 -0.6679 -1.7598
  851MOL0     H17389   6.441   1.879   9.259 -3.4271  0.2347 -1.5945
  851MOL0     H17390   6.414   1.889   9.560  1.1716 -0.7245  1.7351
  851MOL0     H17391   6.549   1.813   9.477 -0.9257 -0.2218  3.2196
  851MOL0     H17392   6.615   2.034   9.380 -3.5289 -1.8822 -2.1112
  851MOL0     H17393   6.488   2.108   9.495 -2.6418 -2.6558 -0.0700
  851MOL0     H17394   6.714   2.140   9.584  1.9770  0.0901 -1.2467
  851MOL0     H17395   6.608   2.042   9.686  2.5179  0.8676  0.8897
  851MOL0     H17396   6.746   1.859   9.846  1.4469 -1.0132  2.2647
  851MOL0     H17397   6.792   1.877  10.068  0.3095 -1.5572  4.7565
  851MOL0     H17398   6.903   2.016  10.111  2.1101 -0.2366  0.0310
  851MOL0     H17399   6.958   1.853  10.125 -0.6023  1.9279  2.7858
  851MOL0     H17400   7.355   2.326   9.999  0.5432 -0.2301 -0.2139
  851MOL0     H17401   7.574   2.375  10.113  1.6655 -0.0838  0.7437
  851MOL0     H17402   7.818   2.361  10.136  1.7885  1.3113  1.6263
  851MOL0     H17403   7.721   2.407  10.262 -0.5269 -1.2414 -0.3863
  851MOL0     H17404   7.972   2.247  10.276 -0.0247  0.4542 -0.9851
  851MOL0     H17405   7.955   2.426  10.302 -2.0509  1.5905  3.0178
  851MOL0     H17406   7.878   2.184  10.481  1.7288 -0.2500  0.0209
  851MOL0     H17407   7.790   2.341  10.499  0.4668  0.0647  0.2774
  851MOL0     H17408   7.996   2.434  10.596  0.8577 -0.4531 -0.2298
  851MOL0     H17409   8.092   2.312  10.511 -1.0289 -4.2949 -1.5780
  851MOL0     H17410   8.018   2.139  10.664 -0.2104  0.8803 -2.5499
  851MOL0     H17411   8.089   2.283  10.755 -1.4151  0.2197  1.5994
  851MOL0     H17412   7.797   2.206  10.720 -0.7197  0.5140 -0.3133
  851MOL0     H17413   7.857   2.357  10.776  2.7819  0.2584  0.5686
  851MOL0     H17414   7.914   2.076  10.904 -1.1537 -1.2728  3.1397
  851MOL0     H17415   7.804   2.199  10.969  1.1395  1.1609  2.2091
  851MOL0     H17416   8.102   2.191  10.959  0.0581  3.0008 -3.3979
  851MOL0     H17417   8.019   2.178  11.109 -1.7874 -0.2453 -0.1315
  851MOL0     H17418   7.657   1.978  10.182 -0.5953 -0.1499 -0.7652
  851MOL0     H17419   7.459   1.909  10.011  0.6300  0.9273 -3.7777
  851MOL0     H17420   7.166   2.081   9.725  1.5987 -1.1258  0.8814
  851MOL0     H17421   6.991   2.050   9.554 -0.1164  2.7231  2.1007
  851MOL0     H17422   6.326   0.583   9.180 -1.1007 -1.9141 -0.0643
  851MOL0     H17423   6.168   0.517   9.030  1.8826 -3.5666 -1.3229
  851MOL0     H17424   5.903   0.849   8.656 -1.8062  1.0384 -0.9646
  851MOL0     H17425   5.734   0.860   8.488 -1.8244 -1.7398  1.1218
  851MOL0     H17426   5.546   0.678   8.447 -0.1686 -0.4891 -0.4668
  851MOL0     H17427   5.521   0.812   8.328 -2.7171  0.3626  1.5033
  851MOL0     H17428   5.508   0.622   8.162  0.8588 -0.4680 -0.3462
  851MOL0     H17429   5.374   0.695   8.256 -0.7541 -0.6711 -0.5494
  851MOL0     H17430   5.523   0.415   8.278  0.2844 -1.0667 -0.2975
  851MOL0     H17431   5.396   0.466   8.404 -2.1601  1.3714 -0.1354
  851MOL0     H17432   5.373   0.358   8.118 -2.1600 -0.8603  0.0367
  851MOL0     H17433   5.251   0.464   8.179 -0.0861  0.7929  0.3541
  851MOL0     H17434   5.214   0.067   8.337  0.7821 -0.0873 -1.8749
  851MOL0     H17435   5.825   0.460   8.369  2.0516  0.3045 -1.5464
  851MOL0     H17436   5.994   0.376   8.696  1.0030 -0.7242  0.2123
  851MOL0     H17437   5.926   0.319   8.537 -3.9487  2.3833  1.8979
  851MOL0     H17438   6.096   0.394   8.561  0.1085  1.0653  1.0196
  852MOL0     O17439   2.950   1.779   1.899 -0.2935  0.0246  0.0907
  852MOL0     C17440   2.916   1.751   1.787  0.6276  0.9667 -0.2742
  852MOL0     O17441   2.972   1.797   1.672  0.3030  0.8042  0.0731
  852MOL0     C17442   3.101   1.850   1.670  1.0035 -0.0435  0.5971
  852MOL0     C17443   3.133   1.955   1.594 -1.1687 -0.6904 -0.9349
  852MOL0     C17444   3.258   2.016   1.612  0.6283  0.2114  0.9087
  852MOL0     C17445   3.361   1.954   1.681 -0.0114 -0.1496  0.0096
  852MOL0     O17446   3.475   2.029   1.667  0.2335 -0.7839  0.9564
  852MOL0     C17447   3.569   2.019   1.773  0.2303 -0.7743 -0.0015
  852MOL0     C17448   3.586   2.156   1.833 -0.6111  0.0431  0.4451
  852MOL0     C17449   3.699   2.155   1.936 -0.3915  0.0208  0.9741
  852MOL0     C17450   3.724   2.287   2.002 -0.2276  0.2353 -0.2395
  852MOL0     C17451   3.788   2.272   2.140 -0.1316  0.3218 -0.6939
  852MOL0     C17452   3.681   2.248   2.262 -0.0389  0.8711  1.1349
  852MOL0     C17453   3.756   2.254   2.397  1.0594 -0.0245 -0.1332
  852MOL0     C17454   3.831   2.386   2.428  0.5217 -0.1183  0.9069
  852MOL0     N17455   3.850   2.401   2.578  1.0826 -0.1219  0.2556
  852MOL0     C17456   3.782   2.484   2.665  0.5719 -0.0908 -0.2258
  852MOL0     C17457   3.834   2.464   2.787  0.8195  0.6682  0.1361
  852MOL0     C17458   3.799   2.537   2.909 -0.8456 -0.9170  0.1998
  852MOL0     C17459   3.884   2.654   2.932 -0.3968 -0.3961  0.5118
  852MOL0     C17460   3.873   2.709   3.075  0.6565  1.1764  0.7681
  852MOL0     C17461   3.977   2.811   3.114  0.2484  0.2385  0.3761
  852MOL0     O17462   4.003   2.920   3.030 -0.5771  0.4181 -0.1133
  852MOL0     C17463   4.111   2.924   2.942  1.4894 -0.0314 -0.2744
  852MOL0     C17464   4.131   3.050   2.879 -0.4593  0.0082  0.1923
  852MOL0     C17465   4.229   3.065   2.778 -1.1758  0.2419 -1.0031
  852MOL0     C17466   4.245   3.196   2.713  0.2064 -0.6927  0.2246
  852MOL0     C17467   4.309   2.946   2.747 -0.4319  0.0997  0.0957
  852MOL0     C17468   4.419   2.945   2.650 -0.8824 -0.3342  0.6089
  852MOL0     O17469   4.475   3.073   2.610 -0.0252  0.2955 -0.3786
  852MOL0     C17470   4.549   3.055   2.497 -0.2230  0.6226  0.1497
  852MOL0     C17471   4.689   3.037   2.505 -0.8914 -0.3422  0.3576
  852MOL0     C17472   4.756   3.032   2.384 -0.9597  0.6449  0.5942
  852MOL0     C17473   4.688   3.035   2.265 -0.5495  0.3430  0.6616
  852MOL0     O17474   4.747   3.025   2.143 -0.6483  0.4403  0.0024
  852MOL0     C17475   4.887   3.045   2.130 -0.6026 -0.0359  0.0124
  852MOL0     C17476   4.921   3.040   1.976  0.1175 -0.2070 -0.7398
  852MOL0     C17477   4.850   3.152   1.897  0.4906  0.3381 -0.0822
  852MOL0     C17478   4.867   3.108   1.750  0.0221  0.1500 -0.3968
  852MOL0     C17479   4.815   3.213   1.657 -0.3774 -0.3739  0.4241
  852MOL0     C17480   4.675   3.262   1.683  0.2234 -0.3459 -0.3282
  852MOL0     C17481   4.591   3.319   1.567 -0.6227 -0.4976 -0.1243
  852MOL0     C17482   4.547   3.213   1.461  0.6061 -0.9766  0.4308
  852MOL0    Cl17483   4.431   3.272   1.343  0.3587  0.1677 -0.3909
  852MOL0     C17484   4.553   3.051   2.263 -0.5764 -0.1528 -0.9170
  852MOL0     C17485   4.479   3.060   2.374 -0.0684 -0.2784  0.1160
  852MOL0     O17486   4.429   2.838   2.588  0.0423  0.2041  0.0039
  852MOL0     C17487   4.282   2.826   2.807  0.3868 -0.3055  0.0677
  852MOL0     C17488   4.183   2.814   2.901 -0.3244 -0.4792  0.1313
  852MOL0     N17489   3.923   2.355   2.768  0.3093 -0.0855 -0.5814
  852MOL0     N17490   3.927   2.320   2.652 -0.9566 -0.1176 -0.2169
  852MOL0     C17491   3.335   1.825   1.739  0.5269 -0.5652  0.1087
  852MOL0     C17492   3.201   1.777   1.738  0.5183 -0.5481  0.8031
  852MOL0     C17493   2.803   1.648   1.775  0.1756 -1.1801  1.1159
  852MOL0     C17494   2.728   1.654   1.648 -0.2442 -0.7427 -1.2587
  852MOL0     C17495   2.632   1.561   1.629  0.5813  0.2374 -0.3830
  852MOL0     C17496   2.608   1.459   1.723 -0.6200 -0.0470  0.0894
  852MOL0     O17497   2.517   1.361   1.704  0.3832  0.4628 -0.1656
  852MOL0     C17498   2.407   1.393   1.610 -1.0333 -0.1164 -0.2995
  852MOL0     C17499   2.293   1.288   1.604 -0.4236 -0.4874  1.0462
  852MOL0     C17500   2.365   1.160   1.547  1.0735  0.4031  0.0628
  852MOL0     C17501   2.414   1.166   1.402 -0.0091  0.0169  0.1226
  852MOL0     C17502   2.322   1.227   1.313 -0.9376 -0.1866 -0.3736
  852MOL0     C17503   2.260   1.282   1.235  0.3076 -0.3727 -0.0298
  852MOL0     C17504   2.688   1.457   1.836 -0.7218 -0.2915  0.1409
  852MOL0     C17505   2.785   1.547   1.868 -0.2550  0.0485 -0.3013
  852MOL0     C17506   2.849   1.517   2.009  0.9112  0.0406 -0.1572
  852MOL0     H17507   3.067   2.017   1.535 -1.4433  1.3115  1.3283
  852MOL0     H17508   3.275   2.098   1.543 -3.2296  1.6334  1.3845
  852MOL0     H17509   3.657   1.984   1.717 -1.2390 -3.7406 -0.6263
  852MOL0     H17510   3.548   1.945   1.850  1.4319 -0.0482  1.0695
  852MOL0     H17511   3.620   2.230   1.760 -0.0674 -0.8320 -0.2116
  852MOL0     H17512   3.502   2.203   1.885 -1.7147 -1.3040 -0.0328
  852MOL0     H17513   3.667   2.080   2.009  0.7996 -0.7826  0.7163
  852MOL0     H17514   3.795   2.127   1.891 -0.7002  0.3107  0.1162
  852MOL0     H17515   3.785   2.349   1.936  1.5656  3.6084  4.0527
  852MOL0     H17516   3.631   2.340   2.026 -0.5136 -0.1073 -0.5884
  852MOL0     H17517   3.842   2.364   2.166  1.7687 -1.6418  3.1035
  852MOL0     H17518   3.852   2.184   2.127 -2.1123 -1.2520 -0.3416
  852MOL0     H17519   3.603   2.324   2.259 -2.1281 -1.1842 -1.4111
  852MOL0     H17520   3.643   2.146   2.256 -3.2926  1.8581  2.9393
  852MOL0     H17521   3.827   2.171   2.390 -2.0029 -2.7249 -1.5285
  852MOL0     H17522   3.684   2.248   2.479 -0.8987 -2.1371 -1.8606
  852MOL0     H17523   3.924   2.397   2.371 -0.9254 -0.7417 -1.7628
  852MOL0     H17524   3.759   2.460   2.393  1.4504  1.1867  1.6858
  852MOL0     H17525   3.707   2.558   2.638  1.7826  1.2455 -0.0712
  852MOL0     H17526   3.822   2.466   2.988  1.7336 -1.0450 -0.5689
  852MOL0     H17527   3.694   2.569   2.906 -0.0029  2.2659  0.6463
  852MOL0     H17528   3.985   2.612   2.926 -1.4428 -3.0375  0.3433
  852MOL0     H17529   3.877   2.730   2.852  3.1848 -0.9846 -0.5706
  852MOL0     H17530   3.773   2.746   3.099  1.6276  3.1558  2.0431
  852MOL0     H17531   3.888   2.621   3.138 -2.3599  0.9230  1.2746
  852MOL0     H17532   3.941   2.852   3.209  0.8882 -0.7664  1.0674
  852MOL0     H17533   4.070   2.760   3.142  2.1701  1.1859 -3.5584
  852MOL0     H17534   4.072   3.138   2.903  2.5718  2.2843  0.0205
  852MOL0     H17535   4.327   3.248   2.763  0.0160  1.2821 -1.3677
  852MOL0     H17536   4.150   3.248   2.722  0.2405  0.1519 -3.1496
  852MOL0     H17537   4.271   3.200   2.607 -3.2614 -1.1057 -0.7492
  852MOL0     H17538   4.744   3.033   2.598  2.9971 -2.9441 -1.7827
  852MOL0     H17539   4.864   3.018   2.390 -0.8124  0.8791 -0.9448
  852MOL0     H17540   4.926   3.131   2.186 -0.0462 -0.9656  1.0948
  852MOL0     H17541   4.943   2.970   2.188  0.4742  1.5553  1.1216
  852MOL0     H17542   5.028   3.046   1.958  0.2983 -0.5155  0.1487
  852MOL0     H17543   4.879   2.944   1.945  0.7621 -1.5017  2.0852
  852MOL0     H17544   4.897   3.247   1.924  1.0583  0.1740 -0.4760
  852MOL0     H17545   4.743   3.154   1.919  0.3314 -0.3439 -0.7354
  852MOL0     H17546   4.820   3.016   1.716  1.3645  0.3819 -3.1601
  852MOL0     H17547   4.974   3.091   1.733  0.3734  1.5698  0.2358
  852MOL0     H17548   4.883   3.298   1.667  0.6843 -1.0830 -0.5660
  852MOL0     H17549   4.824   3.163   1.560 -0.3423 -3.3816  1.8448
  852MOL0     H17550   4.669   3.343   1.756 -4.1229  1.3986 -2.2613
  852MOL0     H17551   4.620   3.175   1.720  1.1448 -1.5269 -1.6290
  852MOL0     H17552   4.646   3.389   1.502 -1.4058 -0.5320 -0.8408
  852MOL0     H17553   4.509   3.373   1.614 -0.7898  2.4588 -3.3483
  852MOL0     H17554   4.503   3.122   1.503 -1.2256  0.5666  2.0433
  852MOL0     H17555   4.638   3.191   1.404 -0.1643  2.3490 -2.4315
  852MOL0     H17556   4.506   3.028   2.169  0.9242 -1.6394 -1.3664
  852MOL0     H17557   4.372   3.081   2.373  0.1108  0.7866  0.7395
  852MOL0     H17558   4.338   2.742   2.766  0.1324  0.9022 -3.0545
  852MOL0     H17559   4.159   2.717   2.943  2.5081 -1.1552  0.3269
  852MOL0     H17560   3.415   1.776   1.793  0.0694 -1.1524  0.2648
  852MOL0     H17561   3.178   1.687   1.794  1.0469  0.6251  2.9943
  852MOL0     H17562   2.751   1.728   1.572  2.3520  2.5707  2.3310
  852MOL0     H17563   2.581   1.574   1.534 -1.3949 -1.5208  0.3693
  852MOL0     H17564   2.364   1.489   1.642 -0.6477 -1.0472  3.4940
  852MOL0     H17565   2.453   1.402   1.512  0.3912 -1.4323  0.2096
  852MOL0     H17566   2.212   1.318   1.537  1.5153  3.3042  0.1450
  852MOL0     H17567   2.252   1.278   1.705  1.5740  0.5456  2.0237
  852MOL0     H17568   2.447   1.134   1.614 -1.6866 -1.1012  3.1111
  852MOL0     H17569   2.292   1.079   1.559 -0.9241  2.3817  2.3056
  852MOL0     H17570   2.434   1.073   1.348 -1.2779  1.3741 -2.9472
  852MOL0     H17571   2.512   1.217   1.401 -0.2841  1.1454  4.9793
  852MOL0     H17572   2.209   1.342   1.162  1.9919  0.3219 -0.6957
  852MOL0     H17573   2.671   1.371   1.901  1.3728  0.8829  2.3705
  852MOL0     H17574   2.917   1.431   2.000  1.1513  0.4999 -4.7529
  852MOL0     H17575   2.906   1.604   2.044  3.5130 -1.2267 -0.9689
  852MOL0     H17576   2.772   1.489   2.082 -0.0118 -1.3781 -1.5885
  853MOL0     O17577  10.512   1.534   3.187 -0.3744  0.0522  0.0767
  853MOL0     C17578  10.388   1.535   3.197 -0.5994 -0.2866 -0.1028
  853MOL0     O17579  10.308   1.476   3.111  0.7480  0.2552 -0.1038
  853MOL0     C17580  10.346   1.383   3.020  0.2451 -0.1818 -0.2084
  853MOL0     C17581  10.358   1.247   3.052 -1.1695 -0.5184  0.0251
  853MOL0     C17582  10.371   1.149   2.951 -0.0705  0.8347 -0.1215
  853MOL0     C17583  10.371   1.190   2.817 -0.1013  0.2057  0.2394
  853MOL0     O17584  10.363   1.092   2.726  0.0008  0.0268 -0.9480
  853MOL0     C17585  10.370   1.109   2.588  0.3907 -0.1924  0.0176
  853MOL0     C17586  10.328   0.985   2.515 -0.4412  0.3296  0.3433
  853MOL0     C17587  10.312   0.994   2.356  0.0511 -0.2636  0.8209
  853MOL0     C17588  10.194   1.081   2.318 -0.6562  0.5526  0.3467
  853MOL0     C17589  10.167   1.083   2.165 -0.6975  0.0760  0.1407
  853MOL0     C17590  10.058   1.180   2.138 -0.3665  0.2726  0.8308
  853MOL0     C17591   9.974   1.129   2.019  1.0076  0.0191  0.0769
  853MOL0     C17592   9.857   1.049   2.075 -0.1606 -0.4282  0.1245
  853MOL0     N17593   9.765   0.976   1.975 -0.4505 -0.0359 -1.0344
  853MOL0     C17594   9.626   0.998   1.970 -0.0200 -0.1152 -0.0837
  853MOL0     C17595   9.592   0.908   1.868 -0.4802  0.5002 -0.2488
  853MOL0     C17596   9.447   0.875   1.817 -0.2255  0.2176 -0.4459
  853MOL0     C17597   9.384   0.753   1.896  0.3138  0.1731  0.4191
  853MOL0     C17598   9.328   0.791   2.036 -1.1908  0.1158  0.9558
  853MOL0     C17599   9.189   0.863   2.019 -0.2249 -0.2147  0.1473
  853MOL0     O17600   9.131   0.886   2.143 -0.6611 -0.1956 -0.1897
  853MOL0     C17601   9.080   0.773   2.201 -0.1873 -0.0187 -0.2946
  853MOL0     C17602   9.143   0.713   2.313 -0.4743 -0.3801 -0.7733
  853MOL0     C17603   9.108   0.589   2.376 -1.3850  0.8842  1.0925
  853MOL0     C17604   9.213   0.509   2.457 -0.1869 -0.3303  0.3493
  853MOL0     C17605   8.985   0.533   2.335 -0.7637  0.5476 -0.2851
  853MOL0     C17606   8.946   0.406   2.396  0.8832  0.4158  0.0558
  853MOL0     O17607   8.894   0.310   2.302 -0.0400 -0.3691  0.3538
  853MOL0     C17608   8.878   0.183   2.359  1.1308  0.7022 -0.4953
  853MOL0     C17609   8.751   0.119   2.373 -1.3763  0.3538 -0.4351
  853MOL0     C17610   8.738  -0.008   2.438 -0.6159 -0.9263  0.5720
  853MOL0     C17611   8.853  -0.076   2.483  0.3417 -0.1549 -0.3615
  853MOL0     O17612   8.860  -0.199   2.551  0.9524 -0.6365 -0.1985
  853MOL0     C17613   8.746  -0.272   2.592  1.2571  0.3308  0.2722
  853MOL0     C17614   8.790  -0.410   2.633 -0.0255 -0.1957  0.1382
  853MOL0     C17615   8.821  -0.494   2.507  0.7076 -0.0110  0.0638
  853MOL0     C17616   8.892  -0.623   2.552  0.7841 -0.5750  0.9808
  853MOL0     C17617   8.919  -0.730   2.440 -0.5723  0.3766  1.0814
  853MOL0     C17618   9.048  -0.713   2.372  0.1448  0.1476  0.0231
  853MOL0     C17619   9.075  -0.829   2.273 -1.2882 -0.4708  0.0642
  853MOL0     C17620   9.218  -0.874   2.290 -0.2329  0.1885  0.0892
  853MOL0    Cl17621   9.274  -0.960   2.143 -0.1388  0.0565 -0.4510
  853MOL0     C17622   8.978  -0.017   2.462  0.1228 -0.5982  0.1090
  853MOL0     C17623   8.986   0.113   2.401  0.4134 -0.0535  0.3786
  853MOL0     O17624   8.951   0.394   2.519 -0.0755 -0.3106  0.0052
  853MOL0     C17625   8.915   0.588   2.229 -0.1027  0.2623 -0.6293
  853MOL0     C17626   8.962   0.704   2.166  0.7686 -0.5715  0.1778
  853MOL0     N17627   9.702   0.835   1.827  0.2868  0.6476 -0.5052
  853MOL0     N17628   9.805   0.879   1.894  0.5814  0.5849 -0.6076
  853MOL0     C17629  10.351   1.327   2.781 -0.5651  0.0088 -0.5351
  853MOL0     C17630  10.345   1.425   2.886  0.2772 -1.5565  0.4194
  853MOL0     C17631  10.320   1.626   3.289 -1.2605  0.6944  0.5981
  853MOL0     C17632  10.200   1.690   3.240 -0.6181 -0.4405  1.0820
  853MOL0     C17633  10.122   1.758   3.339 -0.6383 -0.4347  0.0194
  853MOL0     C17634  10.161   1.762   3.478 -0.5582 -0.2712 -0.1988
  853MOL0     O17635  10.066   1.826   3.550  0.5642 -0.1476  0.5426
  853MOL0     C17636  10.087   1.856   3.691  0.4664 -0.2490  0.1374
  853MOL0     C17637  10.190   1.970   3.695 -0.3424 -0.7097  0.3473
  853MOL0     C17638  10.189   2.049   3.822 -0.6605 -0.6278 -0.9274
  853MOL0     C17639  10.176   1.979   3.951  0.3006  1.0812 -0.6341
  853MOL0     C17640  10.293   1.897   3.988 -0.6406 -0.3237  0.6932
  853MOL0     C17641  10.392   1.824   3.994 -0.5656 -0.0779  0.2243
  853MOL0     C17642  10.287   1.709   3.520  0.3847 -0.2944  0.0547
  853MOL0     C17643  10.364   1.645   3.423 -0.3303  0.3250  1.0200
  853MOL0     C17644  10.494   1.583   3.474  0.4387 -0.3688  0.8480
  853MOL0     H17645  10.338   1.201   3.148  0.8450 -2.8697 -0.5831
  853MOL0     H17646  10.365   1.046   2.983 -0.3937  0.4953 -1.2343
  853MOL0     H17647  10.474   1.133   2.565 -0.0799  0.0715 -2.0241
  853MOL0     H17648  10.305   1.192   2.560 -1.6774 -1.0078  2.0466
  853MOL0     H17649  10.396   0.901   2.531 -0.8704  0.2371  1.8035
  853MOL0     H17650  10.228   0.967   2.556  0.5700  0.2365  2.9604
  853MOL0     H17651  10.407   1.016   2.306  1.5685 -3.7817  1.8608
  853MOL0     H17652  10.293   0.897   2.310 -0.2108 -0.0596  0.4931
  853MOL0     H17653  10.105   1.053   2.374  0.0986  2.6765  2.8288
  853MOL0     H17654  10.221   1.182   2.349  1.5567  0.4183 -0.9370
  853MOL0     H17655  10.151   0.979   2.133  2.1259 -1.7072  3.7477
  853MOL0     H17656  10.255   1.109   2.104 -1.8385 -0.8706 -2.0362
  853MOL0     H17657   9.993   1.200   2.224 -1.5014 -0.1610  0.1125
  853MOL0     H17658  10.106   1.274   2.111  0.2646 -0.0715  0.7303
  853MOL0     H17659  10.026   1.075   1.940  4.1010  1.1009  1.2173
  853MOL0     H17660   9.924   1.211   1.965  0.0702  0.2727  1.2839
  853MOL0     H17661   9.907   0.975   2.138  0.6011  0.4803  0.6142
  853MOL0     H17662   9.793   1.106   2.143 -0.4249  1.1512 -1.3749
  853MOL0     H17663   9.568   1.072   2.025 -1.4144 -0.3922 -1.1345
  853MOL0     H17664   9.455   0.855   1.710  0.7116  0.5911 -0.4551
  853MOL0     H17665   9.385   0.964   1.831 -0.0460  0.0330  1.8863
  853MOL0     H17666   9.303   0.697   1.847  0.8821 -0.1785 -0.1327
  853MOL0     H17667   9.469   0.687   1.912 -0.0795 -0.7576 -1.0734
  853MOL0     H17668   9.321   0.690   2.077  0.4683 -0.7685 -0.7507
  853MOL0     H17669   9.405   0.845   2.092  2.4386  1.4131 -4.4432
  853MOL0     H17670   9.199   0.953   1.956 -0.3603  0.3614  0.9344
  853MOL0     H17671   9.117   0.805   1.960 -2.7826 -0.5967  3.3911
  853MOL0     H17672   9.229   0.759   2.361 -1.4130  3.1162 -2.1697
  853MOL0     H17673   9.174   0.492   2.558 -0.7831 -1.0211  0.0121
  853MOL0     H17674   9.310   0.559   2.463  0.1359 -0.3748 -2.8702
  853MOL0     H17675   9.226   0.411   2.412 -0.2838 -0.8101  1.3416
  853MOL0     H17676   8.660   0.176   2.362 -1.7041 -0.1149 -0.1874
  853MOL0     H17677   8.637  -0.041   2.458 -2.0796  1.0152 -2.6796
  853MOL0     H17678   8.691  -0.209   2.663 -0.3484  0.3600 -0.9474
  853MOL0     H17679   8.684  -0.288   2.504  1.7191 -1.4518  0.2448
  853MOL0     H17680   8.884  -0.399   2.687 -0.2347 -2.2082  0.9973
  853MOL0     H17681   8.712  -0.459   2.692 -0.4951  0.8211  0.3891
  853MOL0     H17682   8.882  -0.442   2.432  0.1902  0.3548 -0.1097
  853MOL0     H17683   8.725  -0.517   2.460  0.9720  0.5977 -0.8129
  853MOL0     H17684   8.816  -0.664   2.619 -3.0474  1.5123 -1.7102
  853MOL0     H17685   8.983  -0.602   2.608  0.1581 -2.7373  2.9468
  853MOL0     H17686   8.909  -0.833   2.475 -2.7361  0.3933  0.6330
  853MOL0     H17687   8.845  -0.725   2.359 -0.6044 -1.2487  0.9673
  853MOL0     H17688   9.128  -0.686   2.441  0.6970  2.3377 -1.3603
  853MOL0     H17689   9.041  -0.618   2.317 -3.6173  0.6923  1.1717
  853MOL0     H17690   9.053  -0.797   2.171  0.6560 -0.3397 -0.3484
  853MOL0     H17691   9.009  -0.916   2.284  1.8446 -3.2836 -1.4992
  853MOL0     H17692   9.231  -0.942   2.375  2.8657 -0.4546 -0.7406
  853MOL0     H17693   9.286  -0.790   2.306  0.3925 -0.3503  0.3204
  853MOL0     H17694   9.072  -0.064   2.488 -0.0291 -2.2446 -2.0355
  853MOL0     H17695   9.085   0.157   2.406  1.4493 -2.3488  2.9746
  853MOL0     H17696   8.836   0.531   2.181 -1.8121 -0.7539  3.0399
  853MOL0     H17697   8.923   0.739   2.071  0.1296 -3.3001 -0.6610
  853MOL0     H17698  10.340   1.361   2.678 -1.4658  1.4172 -0.0054
  853MOL0     H17699  10.341   1.531   2.864  2.0045 -1.4682  0.3489
  853MOL0     H17700  10.162   1.679   3.139  1.1993 -0.3251  0.3336
  853MOL0     H17701  10.024   1.798   3.316  1.1498  2.8093 -2.8071
  853MOL0     H17702   9.994   1.892   3.735  1.4034  1.3943  0.8591
  853MOL0     H17703  10.118   1.768   3.747  1.8017 -0.2102 -0.5054
  853MOL0     H17704  10.148   2.043   3.625 -1.9624 -0.7074  1.2664
  853MOL0     H17705  10.284   1.924   3.663  1.2308  1.3834  1.7418
  853MOL0     H17706  10.281   2.105   3.838 -1.4431  0.0492  1.5157
  853MOL0     H17707  10.109   2.122   3.815  0.0590  1.0640  4.2889
  853MOL0     H17708  10.093   1.907   3.947  0.3730  0.8327  1.4487
  853MOL0     H17709  10.159   2.046   4.036  0.8337  0.5062 -0.0697
  853MOL0     H17710  10.481   1.764   3.987 -1.2172 -0.8677 -2.2901
  853MOL0     H17711  10.321   1.715   3.623 -0.8988  2.9690  0.4004
  853MOL0     H17712  10.584   1.612   3.419 -1.3764  0.5729 -1.8292
  853MOL0     H17713  10.508   1.595   3.582  2.3733 -1.1406  0.7234
  853MOL0     H17714  10.495   1.474   3.475 -3.0308 -0.6075  4.6671
  854MOL0     O17715   3.382   2.473  10.808  0.1624  0.6628 -0.0401
  854MOL0     C17716   3.277   2.464  10.744  0.6647  0.2823  0.5075
  854MOL0     O17717   3.182   2.366  10.774 -0.1597  0.6935 -0.6896
  854MOL0     C17718   3.231   2.259  10.852  0.2899  0.6063  0.2564
  854MOL0     C17719   3.274   2.142  10.788 -0.0993 -0.0012  0.1819
  854MOL0     C17720   3.311   2.028  10.854 -0.2748 -0.5762  0.4146
  854MOL0     C17721   3.330   2.027  10.999 -0.3596 -0.3650  0.4652
  854MOL0     O17722   3.367   1.931  11.083  0.0850  0.6590 -0.3434
  854MOL0     C17723   3.348   1.795  11.032  0.2103  0.1593 -1.2451
  854MOL0     C17724   3.488   1.742  11.004 -0.4472 -1.0431  0.3038
  854MOL0     C17725   3.486   1.602  10.949  0.3919 -0.8017  0.5663
  854MOL0     C17726   3.633   1.560  10.929 -0.6117 -0.7573 -0.0166
  854MOL0     C17727   3.641   1.401  10.937 -0.3492 -0.9929 -0.0925
  854MOL0     C17728   3.597   1.336  10.801  0.8222  0.6425 -0.2161
  854MOL0     C17729   3.667   1.200  10.791  0.4148  0.5577  0.0826
  854MOL0     C17730   3.624   1.120  10.659 -0.2970  0.0069 -0.3318
  854MOL0     N17731   3.681   0.983  10.666  0.6679 -0.3612 -0.2654
  854MOL0     C17732   3.809   0.957  10.621 -1.0430 -0.4580  0.0540
  854MOL0     C17733   3.810   0.823  10.619 -0.3053 -0.5220  0.6171
  854MOL0     C17734   3.927   0.730  10.591 -0.0283  0.1578  0.1436
  854MOL0     C17735   3.878   0.605  10.525  0.1300  0.2318  0.0192
  854MOL0     C17736   3.848   0.484  10.622  0.2252  0.2333  0.0031
  854MOL0     C17737   3.781   0.364  10.554  0.0815 -0.0498  0.2475
  854MOL0     O17738   3.877   0.300  10.458 -0.2164 -0.2200 -0.1554
  854MOL0     C17739   3.830   0.199  10.380 -0.5609 -0.7689  0.0960
  854MOL0     C17740   3.727   0.122  10.413  0.1477  0.2990 -0.5463
  854MOL0     C17741   3.698   0.008  10.340 -0.6521 -0.3238 -0.1721
  854MOL0     C17742   3.589  -0.082  10.390 -0.0151  0.0713 -0.3541
  854MOL0     C17743   3.781  -0.029  10.225  0.3429  0.8035  0.1801
  854MOL0     C17744   3.770  -0.149  10.132 -0.1210  0.6044 -0.3374
  854MOL0     O17745   3.887  -0.217  10.091  0.3387  0.2411 -0.0375
  854MOL0     C17746   3.860  -0.333  10.011 -0.0542 -0.1555 -0.1355
  854MOL0     C17747   3.794  -0.326   9.891 -0.6096 -0.4431 -0.9427
  854MOL0     C17748   3.745  -0.439   9.826  0.1477 -0.3173  0.3000
  854MOL0     C17749   3.754  -0.566   9.884  0.2446  0.9683 -0.3751
  854MOL0     O17750   3.672  -0.681   9.854  0.1021  0.3338 -0.6360
  854MOL0     C17751   3.565  -0.656   9.761 -1.2488  1.7135 -0.1518
  854MOL0     C17752   3.479  -0.782   9.745  0.7865 -0.3493  0.1832
  854MOL0     C17753   3.539  -0.924   9.698  0.0519 -0.1467 -0.3965
  854MOL0     C17754   3.562  -0.917   9.540 -0.0479 -0.3389 -0.8706
  854MOL0     C17755   3.619  -1.040   9.485  0.6654  0.0443 -0.8010
  854MOL0     C17756   3.756  -1.075   9.560  0.4048 -0.1446  0.1788
  854MOL0     C17757   3.821  -1.192   9.478 -0.5500 -0.8191 -0.7035
  854MOL0     C17758   3.939  -1.248   9.553 -0.5809 -0.7722  0.1300
  854MOL0    Cl17759   4.017  -1.393   9.451  0.0266 -0.3127  0.0293
  854MOL0     C17760   3.835  -0.578  10.000 -0.5357 -0.6128 -0.6985
  854MOL0     C17761   3.885  -0.462  10.053 -0.8716 -0.3329 -0.1197
  854MOL0     O17762   3.659  -0.194  10.112 -0.3617  0.1741  0.6339
  854MOL0     C17763   3.889   0.066  10.190  1.1718 -0.3851 -0.2895
  854MOL0     C17764   3.914   0.175  10.273  0.7538 -0.2569  0.0863
  854MOL0     N17765   3.681   0.776  10.654 -0.3778 -0.6484  0.4226
  854MOL0     N17766   3.611   0.868  10.694 -0.1687 -0.0088  0.5294
  854MOL0     C17767   3.283   2.145  11.064 -0.0949 -0.3352  0.6904
  854MOL0     C17768   3.234   2.256  10.993  0.1566  0.0300 -1.2225
  854MOL0     C17769   3.249   2.557  10.628  0.8683  0.0813 -0.4727
  854MOL0     C17770   3.126   2.545  10.559  0.3481  0.7184  0.0040
  854MOL0     C17771   3.087   2.627  10.459  0.4754  0.1369 -0.1778
  854MOL0     C17772   3.163   2.729  10.406 -0.2565 -0.2132  0.1326
  854MOL0     O17773   3.106   2.800  10.295 -0.9864 -0.1957  0.7233
  854MOL0     C17774   3.198   2.860  10.193 -0.4297  0.0539 -1.0059
  854MOL0     C17775   3.261   2.748  10.102 -1.1333 -0.3303 -0.2867
  854MOL0     C17776   3.297   2.809   9.972 -0.0809  0.0014 -0.3561
  854MOL0     C17777   3.341   2.695   9.879  0.3976  0.0297  0.5806
  854MOL0     C17778   3.386   2.720   9.744  0.6639 -0.3200 -0.1686
  854MOL0     C17779   3.415   2.732   9.623 -0.3593  0.3015  0.3027
  854MOL0     C17780   3.290   2.731  10.453 -0.1646 -0.8857 -0.1280
  854MOL0     C17781   3.339   2.645  10.561 -0.2776  0.5821  0.0677
  854MOL0     C17782   3.477   2.662  10.601  0.0244  0.1191 -0.1382
  854MOL0     H17783   3.268   2.133  10.680  1.1334 -1.4994  0.2178
  854MOL0     H17784   3.334   1.941  10.793  1.0387  1.6429 -2.4770
  854MOL0     H17785   3.275   1.786  10.951  0.4534 -1.8288 -1.2784
  854MOL0     H17786   3.304   1.728  11.106 -1.4888 -0.0318 -2.3895
  854MOL0     H17787   3.531   1.810  10.931 -3.0148  0.8870  0.4232
  854MOL0     H17788   3.549   1.737  11.095  0.8719 -2.3677 -0.6156
  854MOL0     H17789   3.434   1.527  11.010  3.9312 -3.2927  0.8240
  854MOL0     H17790   3.428   1.612  10.857 -0.7497  1.7038  1.4655
  854MOL0     H17791   3.655   1.596  10.828 -1.0274 -2.5772 -0.7908
  854MOL0     H17792   3.698   1.615  10.997 -2.5562  4.1964 -1.6664
  854MOL0     H17793   3.572   1.368  11.014 -1.8649  0.9386 -0.5374
  854MOL0     H17794   3.743   1.370  10.960 -0.6500 -2.3573 -0.4984
  854MOL0     H17795   3.490   1.321  10.820  0.7963  1.8693  0.7986
  854MOL0     H17796   3.610   1.396  10.710 -2.0223 -2.2312 -2.7644
  854MOL0     H17797   3.657   1.137  10.880  2.3137 -1.4494 -1.0405
  854MOL0     H17798   3.773   1.224  10.789  0.0092  2.7156 -3.0181
  854MOL0     H17799   3.517   1.101  10.667  0.2223 -2.2945  2.7763
  854MOL0     H17800   3.658   1.174  10.570  2.4996 -1.4121 -0.2276
  854MOL0     H17801   3.901   1.013  10.607 -2.6591  1.6556 -3.4076
  854MOL0     H17802   3.971   0.706  10.688  0.4434  1.5693  0.3097
  854MOL0     H17803   4.013   0.778  10.544 -2.4980  3.7180 -1.1661
  854MOL0     H17804   3.797   0.620  10.453 -0.2087  0.4422  0.4378
  854MOL0     H17805   3.953   0.559  10.461 -2.3270 -3.6052 -0.4096
  854MOL0     H17806   3.934   0.446  10.679  2.5502  2.0122 -2.0665
  854MOL0     H17807   3.777   0.522  10.695 -0.7734  1.1633 -1.4129
  854MOL0     H17808   3.769   0.284  10.628  3.0529 -1.6317 -0.8084
  854MOL0     H17809   3.689   0.390  10.502 -0.2328 -0.6667  0.4869
  854MOL0     H17810   3.669   0.147  10.500  0.4242  1.6519 -0.7245
  854MOL0     H17811   3.530  -0.138  10.317 -1.4864 -0.0393  0.8680
  854MOL0     H17812   3.511  -0.018  10.434 -0.9123 -1.4741  0.3934
  854MOL0     H17813   3.621  -0.145  10.473  1.3057  1.7541  0.4749
  854MOL0     H17814   3.772  -0.224   9.860 -1.3543 -0.1018  0.6130
  854MOL0     H17815   3.700  -0.423   9.729 -0.2754  2.3782  0.8682
  854MOL0     H17816   3.495  -0.581   9.800 -3.3123  1.5966 -3.2728
  854MOL0     H17817   3.608  -0.619   9.668 -1.6860  1.8279 -0.3148
  854MOL0     H17818   3.459  -0.796   9.852  0.9805  0.6888  0.3623
  854MOL0     H17819   3.388  -0.756   9.691 -2.2478 -0.7969  4.5532
  854MOL0     H17820   3.478  -1.007   9.735  0.6373  0.0363  1.0407
  854MOL0     H17821   3.631  -0.926   9.758 -1.2467  0.7488  1.7376
  854MOL0     H17822   3.622  -0.828   9.518 -1.4259  0.9016  0.1829
  854MOL0     H17823   3.461  -0.893   9.506 -0.5623  2.8124  2.2041
  854MOL0     H17824   3.547  -1.118   9.507 -2.4654  2.7914 -0.5477
  854MOL0     H17825   3.638  -1.013   9.381 -0.7367  4.3753 -0.1539
  854MOL0     H17826   3.742  -1.109   9.663 -0.1079 -1.8593 -0.4247
  854MOL0     H17827   3.828  -0.993   9.571 -0.0741  0.5557 -1.4767
  854MOL0     H17828   3.849  -1.141   9.385  0.9969  5.5555  2.6146
  854MOL0     H17829   3.748  -1.271   9.461  0.1270 -1.3531 -1.1556
  854MOL0     H17830   3.896  -1.290   9.645  2.6985 -1.7302  1.3707
  854MOL0     H17831   4.016  -1.175   9.578 -2.1960  0.0449  3.1997
  854MOL0     H17832   3.836  -0.675  10.048 -3.5719 -0.8092 -0.8523
  854MOL0     H17833   3.935  -0.473  10.149  1.1743  0.4631 -1.0549
  854MOL0     H17834   3.944   0.043  10.099 -1.6841  4.3136 -3.6965
  854MOL0     H17835   3.996   0.245  10.264  1.6660 -1.1369  1.1945
  854MOL0     H17836   3.298   2.142  11.172  0.5082 -1.3428  0.5952
  854MOL0     H17837   3.203   2.349  11.040  2.5218  0.5565 -0.5738
  854MOL0     H17838   3.059   2.469  10.596 -0.4856  1.4863  0.0873
  854MOL0     H17839   2.984   2.625  10.425  0.3475  1.9640 -0.0271
  854MOL0     H17840   3.137   2.925  10.131 -5.6809 -2.0080  1.4148
  854MOL0     H17841   3.275   2.928  10.231 -0.0817  0.0143 -1.6252
  854MOL0     H17842   3.187   2.668  10.092 -0.2481 -0.9391 -2.6952
  854MOL0     H17843   3.343   2.716  10.166  0.0190  3.4337  0.3877
  854MOL0     H17844   3.224   2.879   9.929  0.8788  0.5990 -1.0621
  854MOL0     H17845   3.382   2.876   9.991  0.0807 -0.8241  2.1530
  854MOL0     H17846   3.255   2.628   9.865 -0.9382  2.1432 -2.4995
  854MOL0     H17847   3.419   2.641   9.933  1.2726  1.6312  0.9767
  854MOL0     H17848   3.426   2.751   9.518  1.6348  2.8975  0.8788
  854MOL0     H17849   3.370   2.790  10.409 -0.7067 -0.0209  0.0292
  854MOL0     H17850   3.533   2.570  10.581 -4.2293 -3.3623  2.2629
  854MOL0     H17851   3.525   2.746  10.550  2.1015 -0.9962 -0.1515
  854MOL0     H17852   3.487   2.684  10.708 -1.7176  1.0369 -0.1306
  855MOL0     O17853  11.105   8.147   7.451  0.6791 -0.3363  0.0659
  855MOL0     C17854  11.220   8.186   7.483 -0.9792  0.0667  0.4864
  855MOL0     O17855  11.338   8.148   7.427 -0.2459  0.7505  0.2401
  855MOL0     C17856  11.339   8.077   7.315  1.1696 -0.4380  0.0506
  855MOL0     C17857  11.281   8.118   7.194  1.3564  0.0854  0.1486
  855MOL0     C17858  11.284   8.038   7.080  1.0001  0.3803 -0.2941
  855MOL0     C17859  11.336   7.902   7.082  0.6705 -0.3745  0.0922
  855MOL0     O17860  11.348   7.826   6.972 -0.0860  0.4024  0.1780
  855MOL0     C17861  11.267   7.847   6.859  0.0116  0.2479 -1.0642
  855MOL0     C17862  11.256   7.728   6.762 -0.1518 -0.1133  0.6965
  855MOL0     C17863  11.371   7.722   6.663  0.5553 -0.6682  0.7726
  855MOL0     C17864  11.363   7.603   6.571 -0.1004  0.3421  0.7839
  855MOL0     C17865  11.436   7.619   6.441 -0.2148 -0.1547 -0.4087
  855MOL0     C17866  11.410   7.505   6.341  0.8957  0.0049  0.6875
  855MOL0     C17867  11.492   7.510   6.211  0.6932 -0.4047 -0.4362
  855MOL0     C17868  11.616   7.432   6.210  0.0503 -0.4144  1.1434
  855MOL0     N17869  11.717   7.502   6.123 -0.7380  0.1097 -0.0759
  855MOL0     C17870  11.709   7.549   5.991 -0.7961  0.1002  0.3317
  855MOL0     C17871  11.806   7.637   5.968 -0.1380 -0.7908 -0.2633
  855MOL0     C17872  11.834   7.713   5.845  0.6226  0.0206  0.0626
  855MOL0     C17873  11.714   7.794   5.800  0.5681 -0.4107  0.1828
  855MOL0     C17874  11.754   7.916   5.725  0.3197 -1.3823  0.0835
  855MOL0     C17875  11.814   8.026   5.824  0.1911 -0.0419 -0.5051
  855MOL0     O17876  11.736   8.029   5.945  0.7971  0.0334  0.2297
  855MOL0     C17877  11.798   8.053   6.067 -0.1769  0.0210  0.3769
  855MOL0     C17878  11.761   7.972   6.181 -0.6124 -0.3561  0.6437
  855MOL0     C17879  11.834   7.972   6.302 -0.3081 -0.3133  0.3788
  855MOL0     C17880  11.827   7.852   6.390  0.2027 -0.2551  0.3252
  855MOL0     C17881  11.933   8.069   6.321 -0.9240 -1.0219 -0.1939
  855MOL0     C17882  11.999   8.099   6.454  0.3594  0.3371  0.1281
  855MOL0     O17883  12.083   8.203   6.459  0.4389 -0.5089 -0.5647
  855MOL0     C17884  12.107   8.268   6.578  0.2520  0.4865 -0.1583
  855MOL0     C17885  12.240   8.293   6.609 -0.1536  0.2763  0.1699
  855MOL0     C17886  12.278   8.360   6.727 -0.6121  0.3275  0.7871
  855MOL0     C17887  12.185   8.423   6.810 -0.8302  0.4665  0.6471
  855MOL0     O17888  12.237   8.503   6.909  0.5685 -0.0433  0.5515
  855MOL0     C17889  12.170   8.528   7.028  0.5932  0.1336  0.0145
  855MOL0     C17890  12.117   8.674   7.014  0.2156  0.1161 -0.3488
  855MOL0     C17891  12.203   8.777   6.943  0.3760  0.5459 -0.4263
  855MOL0     C17892  12.158   8.924   6.951  0.3069  0.5109 -0.3248
  855MOL0     C17893  12.069   8.971   6.840  0.0134  0.5321 -0.1891
  855MOL0     C17894  12.015   9.122   6.860 -0.4014 -1.0397 -1.1923
  855MOL0     C17895  11.913   9.114   6.975  0.1375  0.4228 -0.5161
  855MOL0     C17896  11.872   9.255   7.031 -0.3502 -0.3001  0.5494
  855MOL0    Cl17897  11.829   9.361   6.890  0.1204 -0.0753  0.2682
  855MOL0     C17898  12.050   8.393   6.783 -0.4978 -0.4181 -0.0716
  855MOL0     C17899  12.013   8.320   6.668 -0.2591  0.0789  0.5411
  855MOL0     O17900  11.958   8.042   6.552  0.1418  0.3134  0.6016
  855MOL0     C17901  11.953   8.160   6.210 -0.2377  0.2352 -0.1251
  855MOL0     C17902  11.898   8.151   6.088  0.4776 -0.0164  1.0119
  855MOL0     N17903  11.890   7.634   6.077  0.2562  0.0529 -0.3955
  855MOL0     N17904  11.841   7.562   6.166 -0.1489  0.6077 -0.4187
  855MOL0     C17905  11.407   7.862   7.194  1.0186 -0.1310 -0.7832
  855MOL0     C17906  11.407   7.951   7.311  0.4689 -1.2354 -0.2283
  855MOL0     C17907  11.233   8.283   7.591 -0.1962  0.4652  0.8127
  855MOL0     C17908  11.337   8.266   7.684 -0.6508 -0.6694 -0.9285
  855MOL0     C17909  11.345   8.352   7.795  0.2178 -0.1210 -0.6370
  855MOL0     C17910  11.256   8.455   7.818 -0.4472 -0.0331 -0.1510
  855MOL0     O17911  11.284   8.531   7.924  0.5247  0.2188 -0.8280
  855MOL0     C17912  11.255   8.671   7.923  0.3841 -0.4740 -0.0359
  855MOL0     C17913  11.163   8.715   8.041 -0.0687  0.5012 -0.3897
  855MOL0     C17914  11.029   8.644   8.063  0.5408  0.4892  0.2789
  855MOL0     C17915  10.956   8.676   8.194 -0.0577  0.1565  0.3442
  855MOL0     C17916  10.948   8.823   8.217 -0.5995 -0.3231 -0.1891
  855MOL0     C17917  10.939   8.941   8.244  0.3434 -0.5426 -0.5500
  855MOL0     C17918  11.157   8.478   7.718  0.6373  1.0425 -1.1248
  855MOL0     C17919  11.141   8.388   7.615  0.1938 -0.0449 -0.0142
  855MOL0     C17920  11.031   8.429   7.513  0.1956 -0.5291 -0.4275
  855MOL0     H17921  11.239   8.218   7.197 -3.3757 -1.6060 -1.5095
  855MOL0     H17922  11.230   8.081   6.996 -0.6290 -0.7884  0.0937
  855MOL0     H17923  11.281   7.934   6.793 -0.0606  2.2426  1.4097
  855MOL0     H17924  11.168   7.853   6.904  0.0688 -1.8127 -0.5755
  855MOL0     H17925  11.255   7.637   6.822  1.1063 -0.1402  0.7101
  855MOL0     H17926  11.166   7.728   6.701  0.9061 -0.7998 -0.9274
  855MOL0     H17927  11.384   7.807   6.595  2.1365 -2.7538 -1.7599
  855MOL0     H17928  11.459   7.716   6.728  0.5535 -0.6056  0.7806
  855MOL0     H17929  11.404   7.519   6.628 -1.4605 -2.0299 -1.5544
  855MOL0     H17930  11.258   7.581   6.553  0.0514 -0.1772  0.5156
  855MOL0     H17931  11.544   7.626   6.455 -0.5570  1.8898  1.8903
  855MOL0     H17932  11.401   7.716   6.402 -2.0706 -0.2501  0.9064
  855MOL0     H17933  11.429   7.412   6.394  0.3105 -0.8378 -0.5209
  855MOL0     H17934  11.306   7.502   6.306  0.1238 -0.9591  2.9221
  855MOL0     H17935  11.518   7.615   6.197 -0.2981 -0.0249  0.3865
  855MOL0     H17936  11.432   7.477   6.126  1.1287  0.8415 -1.2602
  855MOL0     H17937  11.656   7.421   6.311 -0.6709 -0.4845  1.4267
  855MOL0     H17938  11.597   7.331   6.171  1.1338 -1.7901  3.9386
  855MOL0     H17939  11.638   7.524   5.913 -0.4391  2.0202 -0.6696
  855MOL0     H17940  11.870   7.643   5.768 -2.8774 -1.2390 -0.5978
  855MOL0     H17941  11.912   7.788   5.865 -1.7198  1.4982  5.3531
  855MOL0     H17942  11.656   7.740   5.724 -0.5402  0.8898  0.0681
  855MOL0     H17943  11.660   7.815   5.893  1.5297 -0.6823  0.8169
  855MOL0     H17944  11.800   7.903   5.627 -4.8028 -0.4473 -2.8080
  855MOL0     H17945  11.666   7.969   5.689 -0.0445 -0.2928  2.3454
  855MOL0     H17946  11.920   8.002   5.839  0.8707  3.8343  2.5092
  855MOL0     H17947  11.804   8.122   5.773 -2.3536 -1.2682 -2.5172
  855MOL0     H17948  11.673   7.910   6.171 -1.6000  0.8524  1.5630
  855MOL0     H17949  11.932   7.826   6.408  1.0655 -1.7144 -4.9179
  855MOL0     H17950  11.775   7.771   6.338 -3.6293  1.0900  1.7467
  855MOL0     H17951  11.775   7.876   6.482 -0.4852  0.3456 -0.2106
  855MOL0     H17952  12.318   8.246   6.551 -0.4571 -1.2767  0.9721
  855MOL0     H17953  12.384   8.378   6.739 -0.4735 -1.5509  2.7919
  855MOL0     H17954  12.090   8.455   7.040 -1.0030  2.0909  2.2197
  855MOL0     H17955  12.241   8.523   7.112  2.1617  2.0348 -1.1069
  855MOL0     H17956  12.026   8.657   6.956 -0.3009  0.5775  0.2994
  855MOL0     H17957  12.083   8.714   7.110  0.2438 -0.7099  0.0053
  855MOL0     H17958  12.200   8.736   6.842  1.2288  1.3455 -0.8021
  855MOL0     H17959  12.306   8.746   6.962  0.1575 -2.8458 -3.6818
  855MOL0     H17960  12.245   8.990   6.951  0.1702  0.7459  1.8959
  855MOL0     H17961  12.118   8.934   7.052  3.2315  0.3469  0.9423
  855MOL0     H17962  12.127   8.976   6.747  1.7908 -1.5851  0.7192
  855MOL0     H17963  11.992   8.898   6.815  0.8975  0.1374 -1.9255
  855MOL0     H17964  11.972   9.163   6.769 -4.1647  0.9878  1.2216
  855MOL0     H17965  12.101   9.184   6.886 -1.8926  0.6255 -0.0239
  855MOL0     H17966  11.950   9.049   7.055 -2.3083  1.1058  1.2837
  855MOL0     H17967  11.827   9.056   6.941 -0.5637  1.3685 -0.3962
  855MOL0     H17968  11.955   9.298   7.088 -1.4281 -0.0811  2.0250
  855MOL0     H17969  11.790   9.248   7.104 -2.9364 -0.2819 -2.1583
  855MOL0     H17970  11.957   8.423   6.832 -0.8287 -0.8309 -0.4415
  855MOL0     H17971  11.908   8.314   6.642  0.5203  0.0228 -3.0202
  855MOL0     H17972  12.028   8.238   6.222 -0.6253  0.4479  1.0768
  855MOL0     H17973  11.928   8.212   6.004  2.3870  4.6805  4.6469
  855MOL0     H17974  11.458   7.769   7.213  2.9297  1.5469  3.6774
  855MOL0     H17975  11.458   7.930   7.404  1.1080 -1.0759 -0.5343
  855MOL0     H17976  11.403   8.183   7.659 -1.1836 -1.1330 -0.8051
  855MOL0     H17977  11.421   8.332   7.869  1.5165  2.4472 -1.1633
  855MOL0     H17978  11.345   8.734   7.921  0.1740 -0.1928 -1.1023
  855MOL0     H17979  11.196   8.700   7.835  1.0452  1.1613  0.0112
  855MOL0     H17980  11.145   8.821   8.021  6.1101  1.6674 -1.8954
  855MOL0     H17981  11.218   8.700   8.134 -3.9251 -2.1449  1.7031
  855MOL0     H17982  10.972   8.662   7.971 -1.1159  2.5032  1.6133
  855MOL0     H17983  11.054   8.538   8.078  0.7004  0.0979 -2.2353
  855MOL0     H17984  11.002   8.628   8.281  2.5315  2.1559  0.2315
  855MOL0     H17985  10.853   8.642   8.185 -0.0929  0.6082 -1.1922
  855MOL0     H17986  10.921   9.046   8.241  2.7987 -0.0284 -0.0438
  855MOL0     H17987  11.082   8.556   7.728 -0.3970  0.0976 -1.3177
  855MOL0     H17988  11.073   8.395   7.418 -4.2859 -0.1635 -2.7538
  855MOL0     H17989  10.940   8.368   7.519  0.4832 -1.4430 -3.5745
  855MOL0     H17990  11.012   8.536   7.507  2.4138  0.0053  0.8744
  856MOL0     O17991   6.713   3.104   7.181  0.1247 -0.4139  0.3208
  856MOL0     C17992   6.786   3.204   7.177 -0.1930 -0.2223  0.6625
  856MOL0     O17993   6.881   3.229   7.089 -0.1038 -0.1420  1.0090
  856MOL0     C17994   6.900   3.167   6.970  0.4738  0.6299  0.2104
  856MOL0     C17995   6.811   3.095   6.891 -0.2140 -0.3267 -0.2182
  856MOL0     C17996   6.847   3.037   6.774 -0.2951  0.5711 -0.4198
  856MOL0     C17997   6.977   3.057   6.729 -0.0272 -0.1387 -0.5150
  856MOL0     O17998   6.991   2.998   6.604  0.2470  0.6470 -0.1670
  856MOL0     C17999   7.066   3.070   6.507 -0.2035 -0.3434  0.3526
  856MOL0     C18000   7.046   3.011   6.360 -0.3540 -0.0696 -0.0126
  856MOL0     C18001   6.899   2.974   6.329 -0.1336 -0.4025  0.6711
  856MOL0     C18002   6.879   2.937   6.185 -0.4092  0.3090 -0.3862
  856MOL0     C18003   6.757   2.862   6.163  0.0356 -0.0378  0.0501
  856MOL0     C18004   6.737   2.815   6.022 -0.6598 -0.0739  0.3847
  856MOL0     C18005   6.710   2.938   5.932  0.5016  0.0087  0.4943
  856MOL0     C18006   6.567   2.995   5.944  0.1515  0.2134  0.1324
  856MOL0     N18007   6.550   3.111   5.851 -0.0963 -0.7592 -0.1922
  856MOL0     C18008   6.654   3.162   5.775 -0.6228 -0.3183 -0.9185
  856MOL0     C18009   6.602   3.245   5.690  0.6689 -0.5120 -0.6224
  856MOL0     C18010   6.671   3.316   5.582  1.2535 -0.3576  0.9364
  856MOL0     C18011   6.678   3.254   5.446 -0.4433 -0.0193  1.0554
  856MOL0     C18012   6.553   3.179   5.406  0.2689 -0.0191  0.1128
  856MOL0     C18013   6.540   3.035   5.464 -0.5042 -0.0142  0.5843
  856MOL0     O18014   6.589   2.937   5.365 -0.8156 -0.2795  0.3011
  856MOL0     C18015   6.517   2.918   5.251  0.4286 -0.0302  0.2593
  856MOL0     C18016   6.588   2.853   5.161  0.3669 -0.4445  0.2535
  856MOL0     C18017   6.552   2.848   5.028 -0.5736 -0.1830  0.9417
  856MOL0     C18018   6.623   2.768   4.922  0.5232 -0.2685 -0.4690
  856MOL0     C18019   6.424   2.897   4.994  0.6106  0.0946 -0.3589
  856MOL0     C18020   6.356   2.878   4.865 -0.9413 -0.3468  0.1108
  856MOL0     O18021   6.424   2.890   4.756 -0.7321  0.5259  0.1057
  856MOL0     C18022   6.353   2.884   4.640  0.5969 -0.4672  1.1361
  856MOL0     C18023   6.374   2.785   4.540  0.1212 -0.0327 -0.0382
  856MOL0     C18024   6.303   2.794   4.419  0.5045  0.4312  0.0513
  856MOL0     C18025   6.209   2.901   4.398 -1.0054  0.0706 -0.1368
  856MOL0     O18026   6.142   2.910   4.282 -0.0877 -0.5664 -0.3294
  856MOL0     C18027   6.013   2.968   4.297 -0.0109  0.4134  0.5792
  856MOL0     C18028   5.928   2.953   4.174  0.5009  0.7362  0.0398
  856MOL0     C18029   5.960   3.028   4.043  0.5537  0.7141 -0.0804
  856MOL0     C18030   5.857   2.995   3.940  0.5785 -0.0400  0.2967
  856MOL0     C18031   5.881   3.052   3.802  0.0793  0.0442 -0.2202
  856MOL0     C18032   5.849   3.206   3.801 -0.4400  0.8662 -0.4130
  856MOL0     C18033   5.707   3.242   3.818 -0.3065 -0.1023  0.1887
  856MOL0     C18034   5.665   3.368   3.745  0.2595  0.7310 -0.2580
  856MOL0    Cl18035   5.740   3.520   3.819 -0.0099 -0.2362  0.2357
  856MOL0     C18036   6.203   3.001   4.498 -0.2524  0.5567  0.2133
  856MOL0     C18037   6.276   2.998   4.613  0.1016  0.2332 -0.4684
  856MOL0     O18038   6.240   2.848   4.872  0.5793 -0.1434 -0.0313
  856MOL0     C18039   6.332   2.946   5.096 -0.7806 -0.7353  0.0695
  856MOL0     C18040   6.385   2.961   5.226 -0.1674  0.6361  0.2401
  856MOL0     N18041   6.457   3.235   5.707 -0.3429 -0.3281 -0.6297
  856MOL0     N18042   6.435   3.154   5.809 -0.4901 -0.4460  0.6597
  856MOL0     C18043   7.071   3.144   6.798  0.2844  1.1964  0.5457
  856MOL0     C18044   7.030   3.189   6.916 -0.7185 -0.3618  0.2635
  856MOL0     C18045   6.762   3.318   7.274  0.0348  1.0991 -0.1406
  856MOL0     C18046   6.655   3.300   7.368  0.1361 -0.0319  0.3831
  856MOL0     C18047   6.609   3.392   7.464 -0.8563  0.3091  0.5133
  856MOL0     C18048   6.676   3.510   7.475  0.0799 -0.7471  0.9002
  856MOL0     O18049   6.653   3.588   7.582 -0.2620 -0.4818 -0.1456
  856MOL0     C18050   6.714   3.719   7.596  0.7117  0.3981  0.2745
  856MOL0     C18051   6.670   3.773   7.731 -0.4950  0.5112  0.4886
  856MOL0     C18052   6.665   3.933   7.717  0.0979 -0.0834 -0.0359
  856MOL0     C18053   6.596   4.008   7.832 -0.0790  0.1107 -0.4631
  856MOL0     C18054   6.680   3.988   7.950 -0.2314  0.1573 -0.7363
  856MOL0     C18055   6.759   3.945   8.031 -0.1785  0.1156 -0.2408
  856MOL0     C18056   6.788   3.535   7.388  0.7006 -0.4955  0.4483
  856MOL0     C18057   6.829   3.448   7.286  0.2447 -0.1491  0.6341
  856MOL0     C18058   6.943   3.482   7.193  0.6273 -0.0173  0.2673
  856MOL0     H18059   6.707   3.081   6.920 -0.1159 -1.1494 -0.2141
  856MOL0     H18060   6.783   2.961   6.730  0.2748 -0.6906  0.8299
  856MOL0     H18061   7.173   3.075   6.529 -0.4156 -1.7686  1.9942
  856MOL0     H18062   7.023   3.169   6.496 -1.7855 -1.2728 -3.3677
  856MOL0     H18063   7.078   3.092   6.293 -3.9882  2.1612  0.7241
  856MOL0     H18064   7.119   2.929   6.358  0.8892  0.9736  0.8971
  856MOL0     H18065   6.873   2.892   6.396  0.0805 -0.3112  0.8660
  856MOL0     H18066   6.832   3.057   6.352  0.4470  0.4516 -0.5563
  856MOL0     H18067   6.872   3.032   6.132  1.9151  1.2570  0.8440
  856MOL0     H18068   6.961   2.874   6.147  0.5423  2.7915 -2.7807
  856MOL0     H18069   6.674   2.924   6.197 -1.6394 -1.3093 -1.5561
  856MOL0     H18070   6.743   2.775   6.228 -3.3357  1.1942  1.1839
  856MOL0     H18071   6.828   2.766   5.983  3.5493  4.3649  3.5047
  856MOL0     H18072   6.646   2.755   6.028  0.2552 -1.4356  1.0496
  856MOL0     H18073   6.725   2.902   5.830 -1.3631 -0.3100  0.3065
  856MOL0     H18074   6.793   3.008   5.948  2.5444 -2.8222  3.8848
  856MOL0     H18075   6.491   2.917   5.935 -2.1036  1.7804  3.4999
  856MOL0     H18076   6.556   3.040   6.043 -0.4073 -0.5418  0.4266
  856MOL0     H18077   6.757   3.132   5.783 -1.0674 -1.6038  0.3667
  856MOL0     H18078   6.774   3.340   5.610  2.2168 -0.9928 -1.8163
  856MOL0     H18079   6.614   3.409   5.566 -1.8401 -2.2653 -0.0188
  856MOL0     H18080   6.690   3.322   5.361 -0.5343 -1.0405  0.1936
  856MOL0     H18081   6.766   3.189   5.440  0.0231  0.6026  1.1025
  856MOL0     H18082   6.464   3.227   5.448 -0.6245  0.7373 -2.4472
  856MOL0     H18083   6.547   3.169   5.297 -0.3090 -0.5908  0.1926
  856MOL0     H18084   6.586   3.026   5.563 -1.5441  0.1753  1.0992
  856MOL0     H18085   6.433   3.018   5.478 -0.6573  0.0108 -0.4404
  856MOL0     H18086   6.693   2.828   5.168  0.4874 -0.2323 -0.6871
  856MOL0     H18087   6.557   2.705   4.863 -1.9485 -0.7752  2.5994
  856MOL0     H18088   6.702   2.703   4.962 -1.1205 -1.6797  0.6210
  856MOL0     H18089   6.674   2.847   4.866 -1.6388  2.0151  0.5644
  856MOL0     H18090   6.428   2.692   4.553 -3.3991 -2.0190  1.8279
  856MOL0     H18091   6.320   2.718   4.343  4.3544 -0.5107  1.5895
  856MOL0     H18092   5.964   2.916   4.380  1.3537 -1.0119  0.5438
  856MOL0     H18093   6.027   3.076   4.306  1.6090  0.3189 -0.2707
  856MOL0     H18094   5.933   2.845   4.157 -0.5006  0.4535  1.3991
  856MOL0     H18095   5.822   2.965   4.196  0.3955 -0.6960  0.4415
  856MOL0     H18096   6.056   2.991   4.005  0.2529 -0.8294  0.5663
  856MOL0     H18097   5.961   3.134   4.069 -0.3267  1.3849 -2.5145
  856MOL0     H18098   5.757   3.018   3.979  1.7884  1.4429  2.7816
  856MOL0     H18099   5.853   2.886   3.925 -2.3069 -0.3174  2.2694
  856MOL0     H18100   5.988   3.037   3.782  0.0358 -1.5357  0.6470
  856MOL0     H18101   5.816   3.003   3.729  1.9376 -2.3574 -0.4053
  856MOL0     H18102   5.888   3.252   3.710 -3.5504  2.1718 -1.2166
  856MOL0     H18103   5.900   3.252   3.886  3.2441  0.2604 -2.0566
  856MOL0     H18104   5.686   3.248   3.926 -1.7510 -2.5771  0.1395
  856MOL0     H18105   5.650   3.158   3.776  0.6595  0.5669 -2.6225
  856MOL0     H18106   5.558   3.383   3.761 -0.6236 -3.0100 -1.5484
  856MOL0     H18107   5.686   3.368   3.638 -0.6723  3.3382 -0.5263
  856MOL0     H18108   6.119   3.069   4.489 -1.2354 -0.5054  1.0942
  856MOL0     H18109   6.258   3.077   4.686  0.1937  1.4336 -1.6948
  856MOL0     H18110   6.231   2.976   5.072  0.3588  2.1400 -1.6250
  856MOL0     H18111   6.323   3.010   5.300 -0.8274 -2.4827  1.9245
  856MOL0     H18112   7.168   3.173   6.757  1.3611 -0.0466  2.0814
  856MOL0     H18113   7.093   3.251   6.979  1.7495 -0.2332 -2.1470
  856MOL0     H18114   6.610   3.201   7.368  1.4678 -0.7139 -1.7877
  856MOL0     H18115   6.538   3.362   7.541  0.4063  0.4973  1.8026
  856MOL0     H18116   6.821   3.726   7.579  0.9990 -0.7092  1.4762
  856MOL0     H18117   6.665   3.773   7.515  2.5277  0.0315 -1.1275
  856MOL0     H18118   6.736   3.743   7.812 -1.1916 -2.0030  0.1992
  856MOL0     H18119   6.568   3.739   7.753 -0.7369  0.4634 -0.6405
  856MOL0     H18120   6.769   3.967   7.721  0.2607 -0.6677  1.2267
  856MOL0     H18121   6.615   3.957   7.623  0.0438 -2.5227 -0.6852
  856MOL0     H18122   6.493   3.983   7.861  0.0125  0.4627  0.1787
  856MOL0     H18123   6.602   4.114   7.804  1.1679  0.0378 -0.5353
  856MOL0     H18124   6.830   3.907   8.102  0.7428  1.7685 -0.2287
  856MOL0     H18125   6.839   3.631   7.386  1.9762 -1.1707 -0.8117
  856MOL0     H18126   6.985   3.578   7.223  3.7192  0.0268 -3.4177
  856MOL0     H18127   7.016   3.403   7.216 -0.8163 -0.8365  2.3202
  856MOL0     H18128   6.902   3.486   7.091 -1.5588 -0.4077  1.0803
  857MOL0     O18129   0.817   8.328   8.547 -0.0346 -0.2702  0.2549
  857MOL0     C18130   0.895   8.412   8.598  0.1229  0.2846 -0.1178
  857MOL0     O18131   1.007   8.465   8.534  0.6127 -0.1629  0.2770
  857MOL0     C18132   0.992   8.467   8.399  1.0893 -0.2719 -1.0674
  857MOL0     C18133   0.899   8.551   8.330  0.9618  0.1299 -0.8188
  857MOL0     C18134   0.868   8.550   8.194 -0.3947  1.0577  0.7540
  857MOL0     C18135   0.955   8.461   8.119  0.0647 -0.3549 -0.1085
  857MOL0     O18136   0.962   8.461   7.980 -0.8056 -0.0850 -0.0317
  857MOL0     C18137   0.878   8.555   7.906 -0.0068  0.3444 -0.7386
  857MOL0     C18138   0.865   8.537   7.757 -0.1627 -0.1531 -0.9235
  857MOL0     C18139   1.003   8.536   7.680 -0.1309 -0.4451  0.1122
  857MOL0     C18140   1.118   8.454   7.726  0.6481 -0.0469  0.9574
  857MOL0     C18141   1.238   8.496   7.624  0.5177 -1.1518 -0.3974
  857MOL0     C18142   1.371   8.416   7.653  0.2936  0.9984  0.9407
  857MOL0     C18143   1.365   8.270   7.611  0.2604 -0.4447  0.4861
  857MOL0     C18144   1.500   8.206   7.624 -0.1973 -0.6751  0.5358
  857MOL0     N18145   1.536   8.172   7.756  0.6892  0.7477  0.3053
  857MOL0     C18146   1.487   8.059   7.822  0.1641  0.7684  0.8799
  857MOL0     C18147   1.567   8.058   7.936  0.0483  0.1061 -0.1946
  857MOL0     C18148   1.573   7.933   8.030  0.4945 -0.6167  0.2939
  857MOL0     C18149   1.449   7.933   8.134 -0.7461 -0.6538  0.1827
  857MOL0     C18150   1.383   7.799   8.159 -0.5319  0.3602 -0.1902
  857MOL0     C18151   1.473   7.679   8.200 -0.7343  0.1681  0.4263
  857MOL0     O18152   1.550   7.637   8.096  0.3079 -0.0812 -0.1457
  857MOL0     C18153   1.623   7.529   8.117 -0.1331 -0.6736  0.7285
  857MOL0     C18154   1.653   7.466   8.232 -0.0553  0.6786 -0.6722
  857MOL0     C18155   1.726   7.354   8.241  0.0824  1.0770  0.9741
  857MOL0     C18156   1.740   7.294   8.381  0.3525  0.1502  0.2393
  857MOL0     C18157   1.805   7.309   8.131 -0.1788 -0.7860  0.0114
  857MOL0     C18158   1.916   7.208   8.142  0.4387 -0.7317  0.0428
  857MOL0     O18159   1.942   7.148   8.019  0.0358 -0.4426 -0.4207
  857MOL0     C18160   2.055   7.060   8.009 -0.1646  0.8732 -1.4538
  857MOL0     C18161   2.171   7.098   7.951 -0.2156 -0.6705 -0.0081
  857MOL0     C18162   2.278   7.016   7.948 -0.7290  0.2507  0.3368
  857MOL0     C18163   2.285   6.892   8.011  0.0159  0.4619  0.0826
  857MOL0     O18164   2.390   6.806   8.022  0.6690 -0.3347 -0.6718
  857MOL0     C18165   2.492   6.812   7.921 -0.5165  0.1724  0.6431
  857MOL0     C18166   2.543   6.674   7.905  0.6878  0.3919 -0.1225
  857MOL0     C18167   2.652   6.635   8.006 -1.1572  0.5285  0.8066
  857MOL0     C18168   2.683   6.485   7.993  0.5344 -0.0431  0.8051
  857MOL0     C18169   2.817   6.454   8.051  0.0911 -0.0780  0.1981
  857MOL0     C18170   2.855   6.312   8.026 -0.5915  0.3804  0.1328
  857MOL0     C18171   2.982   6.251   8.096  0.7454 -0.3444 -0.7775
  857MOL0     C18172   2.972   6.096   8.088  0.7631 -0.3510 -0.5582
  857MOL0    Cl18173   2.833   6.034   8.171  0.4196 -0.2556  0.1395
  857MOL0     C18174   2.166   6.852   8.070  0.6297  1.1499  0.5327
  857MOL0     C18175   2.054   6.932   8.068  0.3327  0.6322 -0.4591
  857MOL0     O18176   1.975   7.188   8.248  0.2309  0.8052  0.7700
  857MOL0     C18177   1.767   7.374   8.002 -0.5171 -0.4789  0.6752
  857MOL0     C18178   1.679   7.472   7.998 -0.5324  0.1625  0.0272
  857MOL0     N18179   1.647   8.166   7.922 -0.1305 -0.1700  0.1082
  857MOL0     N18180   1.629   8.241   7.817  0.0692  0.4478 -0.5187
  857MOL0     C18181   1.035   8.368   8.183 -0.1214  0.3147 -0.9708
  857MOL0     C18182   1.052   8.372   8.322  0.1870 -0.0921  0.3333
  857MOL0     C18183   0.861   8.464   8.733 -0.2144  0.4035 -0.9698
  857MOL0     C18184   0.946   8.568   8.784  0.7154 -0.5422 -0.1117
  857MOL0     C18185   0.914   8.621   8.908  0.4560 -0.6391 -0.1464
  857MOL0     C18186   0.801   8.590   8.982 -0.1600  0.5938  0.3308
  857MOL0     O18187   0.777   8.648   9.104 -0.8100 -0.3016 -0.5263
  857MOL0     C18188   0.657   8.620   9.174 -1.1354 -0.1729  0.7312
  857MOL0     C18189   0.631   8.732   9.278  0.3020 -1.2347  0.5595
  857MOL0     C18190   0.515   8.697   9.378 -0.2553  0.1041 -0.6096
  857MOL0     C18191   0.383   8.730   9.321  0.5094 -0.5422  0.4907
  857MOL0     C18192   0.264   8.705   9.410  0.2417  0.8598  0.3805
  857MOL0     C18193   0.176   8.663   9.483  0.3563  0.4687 -0.0465
  857MOL0     C18194   0.719   8.493   8.933 -0.8446 -0.9681 -0.5470
  857MOL0     C18195   0.739   8.434   8.811 -0.2605 -0.2456  1.1584
  857MOL0     C18196   0.639   8.316   8.788  0.0206 -1.4597  0.1985
  857MOL0     H18197   0.841   8.609   8.401  0.2640 -4.3565  2.7507
  857MOL0     H18198   0.786   8.602   8.145 -1.2047  1.8037  2.7913
  857MOL0     H18199   0.911   8.658   7.924  1.1994 -0.1705  0.1751
  857MOL0     H18200   0.775   8.543   7.939  0.9803 -3.2909  1.5949
  857MOL0     H18201   0.821   8.437   7.750  0.8949 -0.6655 -0.4832
  857MOL0     H18202   0.796   8.614   7.721  0.4530  1.8492  1.9120
  857MOL0     H18203   0.976   8.513   7.576  0.8068  1.4593 -0.6012
  857MOL0     H18204   1.028   8.641   7.663  0.1423 -0.6420 -0.7419
  857MOL0     H18205   1.152   8.473   7.828  0.0243 -1.4769  1.4563
  857MOL0     H18206   1.080   8.353   7.713 -1.9317  1.2076 -2.8970
  857MOL0     H18207   1.253   8.604   7.630 -0.8132 -0.9357 -0.5092
  857MOL0     H18208   1.224   8.479   7.517  1.4832 -4.9708 -0.0452
  857MOL0     H18209   1.443   8.473   7.593 -1.6416  1.5681 -0.9840
  857MOL0     H18210   1.402   8.422   7.758 -0.4887  0.9241  1.1842
  857MOL0     H18211   1.342   8.255   7.506  1.7606 -1.1826  0.2356
  857MOL0     H18212   1.295   8.207   7.666 -1.9565  1.3510 -0.1368
  857MOL0     H18213   1.510   8.112   7.569  0.5968  0.1311 -0.7251
  857MOL0     H18214   1.568   8.285   7.592 -0.4447  1.2206  4.1365
  857MOL0     H18215   1.426   7.980   7.780  3.9681 -1.4116 -1.1273
  857MOL0     H18216   1.664   7.929   8.090 -0.2389 -0.9155  1.4199
  857MOL0     H18217   1.596   7.841   7.976 -1.8023 -0.6548 -0.7186
  857MOL0     H18218   1.482   7.985   8.224  0.1245 -0.2517 -0.3535
  857MOL0     H18219   1.376   8.003   8.091  0.8971  1.3444  0.4540
  857MOL0     H18220   1.316   7.816   8.244  0.3134 -3.1117  1.3797
  857MOL0     H18221   1.327   7.774   8.068 -2.1911 -0.2069  0.9415
  857MOL0     H18222   1.534   7.705   8.288 -0.2476  0.1911  0.0887
  857MOL0     H18223   1.407   7.601   8.237 -0.5334  0.2871  1.0570
  857MOL0     H18224   1.621   7.500   8.329  1.7876 -1.0968  0.6344
  857MOL0     H18225   1.749   7.185   8.380  1.7078  0.1989  2.0344
  857MOL0     H18226   1.655   7.331   8.439  0.9740  1.0028  0.6409
  857MOL0     H18227   1.826   7.338   8.433  0.6569  1.8865 -1.5977
  857MOL0     H18228   2.172   7.194   7.901 -0.7556 -0.0422  1.1543
  857MOL0     H18229   2.359   7.051   7.884 -1.3501 -0.1280 -0.6626
  857MOL0     H18230   2.457   6.851   7.825 -2.3453 -1.3004  0.6639
  857MOL0     H18231   2.577   6.872   7.955  0.5752 -1.7472  1.4791
  857MOL0     H18232   2.465   6.597   7.899  2.7222 -1.7552 -0.8375
  857MOL0     H18233   2.591   6.676   7.806 -1.2047 -1.4142 -1.1527
  857MOL0     H18234   2.615   6.639   8.108 -0.8165  0.0525  0.9479
  857MOL0     H18235   2.742   6.696   7.991 -1.3670  0.4185 -1.1713
  857MOL0     H18236   2.690   6.449   7.890  0.6799 -0.6703  1.0308
  857MOL0     H18237   2.607   6.415   8.029  0.9184 -0.8882 -0.0154
  857MOL0     H18238   2.892   6.507   7.991  1.1128 -1.9214 -0.2324
  857MOL0     H18239   2.825   6.479   8.157  2.3637  0.6531 -0.0813
  857MOL0     H18240   2.851   6.293   7.918 -2.5334 -1.4490  0.4596
  857MOL0     H18241   2.767   6.259   8.064  0.7279 -2.0553 -0.0091
  857MOL0     H18242   2.984   6.289   8.198 -2.3129  0.7822 -1.0340
  857MOL0     H18243   3.074   6.289   8.052 -0.6392  1.7700 -2.0402
  857MOL0     H18244   3.062   6.049   8.129  3.1310  3.5240 -0.7334
  857MOL0     H18245   2.974   6.058   7.985  0.7080  0.8780 -1.0398
  857MOL0     H18246   2.162   6.757   8.123 -0.3035 -0.3025 -1.9763
  857MOL0     H18247   1.968   6.897   8.125 -0.5443 -0.4866 -2.3503
  857MOL0     H18248   1.811   7.343   7.907 -2.9189  0.9252 -1.0251
  857MOL0     H18249   1.654   7.514   7.901  0.9729  1.5486  0.1845
  857MOL0     H18250   1.084   8.290   8.126  1.1060  1.5239 -1.6421
  857MOL0     H18251   1.103   8.290   8.371  1.5655  1.5673  1.8159
  857MOL0     H18252   1.041   8.602   8.743  0.6031  2.1915  1.6137
  857MOL0     H18253   0.965   8.698   8.965 -1.4042  0.1788  0.5024
  857MOL0     H18254   0.574   8.615   9.103 -1.6309  3.3561  0.8649
  857MOL0     H18255   0.667   8.522   9.220 -0.1191 -1.0629 -1.2823
  857MOL0     H18256   0.599   8.820   9.222  1.7773 -0.3834  0.9895
  857MOL0     H18257   0.726   8.741   9.331 -0.6109 -2.0561  2.3956
  857MOL0     H18258   0.524   8.593   9.411  3.6990  0.3510 -0.4062
  857MOL0     H18259   0.529   8.753   9.470 -1.2696 -2.1199  1.0023
  857MOL0     H18260   0.373   8.674   9.227  3.1563  0.7668 -0.6754
  857MOL0     H18261   0.372   8.837   9.307 -1.9654 -0.3554  2.8986
  857MOL0     H18262   0.093   8.643   9.547  1.4040  0.3687  1.3054
  857MOL0     H18263   0.636   8.458   8.992 -0.5375 -1.1959 -0.2454
  857MOL0     H18264   0.611   8.316   8.682  1.4399  0.1452 -0.2386
  857MOL0     H18265   0.679   8.215   8.778  1.8627 -0.5730 -2.3004
  857MOL0     H18266   0.548   8.313   8.848  0.8287  0.3136  1.6060
  858MOL0     O18267  11.466   4.537  11.528 -0.0379 -0.6072 -0.6606
  858MOL0     C18268  11.442   4.533  11.406  0.9298 -0.1956 -0.9389
  858MOL0     O18269  11.332   4.463  11.354  0.3661  0.1764 -0.9763
  858MOL0     C18270  11.244   4.384  11.438  0.7074  0.0937  0.6336
  858MOL0     C18271  11.287   4.288  11.533  0.5387 -0.8877 -0.1609
  858MOL0     C18272  11.195   4.212  11.607  0.5365  0.0091 -0.0753
  858MOL0     C18273  11.059   4.231  11.591  0.5058 -0.3152 -0.2651
  858MOL0     O18274  10.963   4.162  11.662  0.2174 -0.7418  1.0032
  858MOL0     C18275  10.991   4.072  11.772 -0.7698  0.1586 -0.1762
  858MOL0     C18276  10.875   3.980  11.792 -0.1455 -1.2588 -0.2137
  858MOL0     C18277  10.910   3.843  11.849  0.0959 -1.2019  0.3047
  858MOL0     C18278  11.003   3.841  11.975  0.3468  0.0003  0.5223
  858MOL0     C18279  11.049   3.701  12.000  0.2586  0.5411  0.4639
  858MOL0     C18280  11.153   3.692  12.119 -0.1499  0.0942  0.0293
  858MOL0     C18281  11.202   3.547  12.143 -0.0806 -0.4696 -0.2054
  858MOL0     C18282  11.296   3.524  12.262  0.4614  0.4639 -0.0487
  858MOL0     N18283  11.225   3.529  12.389  0.3579  0.1736 -0.2846
  858MOL0     C18284  11.213   3.645  12.466 -0.5792  1.0218  0.2144
  858MOL0     C18285  11.158   3.597  12.580  0.2181  0.3903 -0.7195
  858MOL0     C18286  11.127   3.675  12.702  0.1560 -0.1363  0.2274
  858MOL0     C18287  11.265   3.724  12.744 -1.0134 -0.6537 -1.2594
  858MOL0     C18288  11.314   3.658  12.879 -0.2897  0.2337 -0.5481
  858MOL0     C18289  11.415   3.743  12.952  0.0265  0.2332 -0.6714
  858MOL0     O18290  11.525   3.792  12.859  0.6602  0.0415 -0.5008
  858MOL0     C18291  11.649   3.753  12.894 -0.2696 -0.3553 -0.3072
  858MOL0     C18292  11.738   3.714  12.795  0.2113  0.2136  0.3591
  858MOL0     C18293  11.870   3.679  12.822 -0.2612 -0.1686  0.4206
  858MOL0     C18294  11.954   3.648  12.704 -0.4636 -0.0149 -0.3327
  858MOL0     C18295  11.922   3.670  12.957 -0.0725 -0.9419  0.0745
  858MOL0     C18296  12.066   3.633  12.999  0.2611  0.6069  0.5938
  858MOL0     O18297  12.087   3.612  13.136  0.2101  0.1394  0.5772
  858MOL0     C18298  12.216   3.569  13.170  0.2074 -1.7760 -0.1003
  858MOL0     C18299  12.318   3.667  13.189 -0.8738 -0.0264  0.3447
  858MOL0     C18300  12.431   3.624  13.248 -0.4424  0.0917  0.3915
  858MOL0     C18301  12.442   3.492  13.295 -0.8713 -0.2204 -0.0601
  858MOL0     O18302  12.557   3.438  13.338 -0.7983  0.3205 -0.5078
  858MOL0     C18303  12.671   3.517  13.332 -0.8613  0.2831  0.5317
  858MOL0     C18304  12.785   3.425  13.366  0.9293  0.2657  0.3884
  858MOL0     C18305  12.809   3.413  13.515 -0.0533 -0.0293  0.1030
  858MOL0     C18306  12.880   3.288  13.555 -0.6563  0.2174  0.1856
  858MOL0     C18307  12.930   3.308  13.693 -0.4234  0.4449  0.3638
  858MOL0     C18308  12.834   3.266  13.801  0.4259 -0.3445  0.6573
  858MOL0     C18309  12.897   3.290  13.938 -0.5245  0.2308  0.0768
  858MOL0     C18310  12.830   3.200  14.041  0.7078  0.6898  1.0986
  858MOL0    Cl18311  12.878   3.038  14.006  0.3245 -0.1690  0.4053
  858MOL0     C18312  12.344   3.396  13.278  0.0588  0.1687  0.1217
  858MOL0     C18313  12.230   3.442  13.225  0.1243  0.5577  0.1230
  858MOL0     O18314  12.149   3.615  12.906  0.1842  0.0980  0.5432
  858MOL0     C18315  11.822   3.701  13.052 -0.8191 -0.1259  0.0762
  858MOL0     C18316  11.695   3.752  13.027  0.7613  0.1304  0.3971
  858MOL0     N18317  11.144   3.460  12.577  0.1094 -0.2979  0.8250
  858MOL0     N18318  11.192   3.420  12.463  0.7338  0.1166  0.3296
  858MOL0     C18319  11.007   4.313  11.487  0.5711 -0.9450 -0.3164
  858MOL0     C18320  11.100   4.398  11.415 -0.5829 -0.8596 -0.3194
  858MOL0     C18321  11.516   4.621  11.317  0.2046  0.0780 -0.1032
  858MOL0     C18322  11.455   4.639  11.191  0.3909 -0.2903  0.7639
  858MOL0     C18323  11.514   4.724  11.097 -0.1845 -1.2454  0.5023
  858MOL0     C18324  11.638   4.784  11.113  0.2289  0.0593  0.7136
  858MOL0     O18325  11.679   4.884  11.028 -0.0631  0.0276 -0.1907
  858MOL0     C18326  11.779   4.982  11.065  0.2007 -0.5087  0.1059
  858MOL0     C18327  11.922   4.949  11.032  0.8601  0.0413  0.1286
  858MOL0     C18328  11.925   4.953  10.877  0.4393 -0.0633  0.0563
  858MOL0     C18329  12.029   4.855  10.832  0.2486  0.0460 -0.5041
  858MOL0     C18330  12.035   4.828  10.687 -1.1094  0.5036  0.2830
  858MOL0     C18331  12.037   4.815  10.569  0.2738 -0.0349 -0.1029
  858MOL0     C18332  11.697   4.767  11.237  0.5657 -0.1855  0.3115
  858MOL0     C18333  11.644   4.684  11.334  0.4113 -0.0031 -0.3324
  858MOL0     C18334  11.719   4.677  11.456  0.8392  0.7933  0.0970
  858MOL0     H18335  11.392   4.283  11.560  0.8823  2.6428 -0.4172
  858MOL0     H18336  11.232   4.164  11.698 -1.6591 -1.5979  0.0682
  858MOL0     H18337  11.011   4.125  11.865 -1.8088 -1.9516  1.3448
  858MOL0     H18338  11.079   4.015  11.739 -0.4316 -0.4506  1.6555
  858MOL0     H18339  10.810   4.033  11.862 -0.4840 -2.7385  0.6476
  858MOL0     H18340  10.819   3.948  11.703 -1.0496  0.7859 -0.4347
  858MOL0     H18341  10.808   3.806  11.865 -1.0302  1.2065 -0.8064
  858MOL0     H18342  10.958   3.779  11.774 -3.6987 -3.5918 -0.3310
  858MOL0     H18343  11.093   3.899  11.951 -0.2931  0.4847 -0.7922
  858MOL0     H18344  10.952   3.899  12.053  0.9071 -1.8144  2.2953
  858MOL0     H18345  11.091   3.654  11.910 -1.4941 -4.2003  1.8300
  858MOL0     H18346  10.968   3.629  12.013  2.0384 -2.9382 -4.5749
  858MOL0     H18347  11.246   3.746  12.099 -0.6914  0.3595 -2.0365
  858MOL0     H18348  11.109   3.737  12.209 -1.3679  1.4671 -1.1925
  858MOL0     H18349  11.236   3.499  12.051 -2.0359 -0.6352 -0.8963
  858MOL0     H18350  11.112   3.486  12.152  0.5953 -1.6615 -1.1533
  858MOL0     H18351  11.336   3.422  12.259  0.8567  0.6225 -3.2463
  858MOL0     H18352  11.378   3.596  12.259 -0.1344  1.3011  1.9703
  858MOL0     H18353  11.257   3.740  12.435  0.7959  0.2945 -0.1767
  858MOL0     H18354  11.084   3.604  12.773  0.9257 -2.7600 -1.7515
  858MOL0     H18355  11.058   3.758  12.683  0.2178 -0.0814  0.2392
  858MOL0     H18356  11.344   3.721  12.668  0.6250 -0.1026  0.3395
  858MOL0     H18357  11.242   3.826  12.773 -4.4241 -2.7798  5.8353
  858MOL0     H18358  11.228   3.637  12.943 -0.9158 -1.6541 -1.9002
  858MOL0     H18359  11.365   3.565  12.852  3.3572  0.7680  3.4334
  858MOL0     H18360  11.367   3.828  13.000 -0.3904 -0.3412 -0.0517
  858MOL0     H18361  11.453   3.685  13.036  0.2279  0.2743 -0.7339
  858MOL0     H18362  11.698   3.720  12.694 -0.6408  3.0876  0.7729
  858MOL0     H18363  12.013   3.557  12.715  0.6130  0.7928  0.7546
  858MOL0     H18364  12.028   3.727  12.687 -0.3229  0.3853  1.8232
  858MOL0     H18365  11.896   3.642  12.611  0.7853 -0.5467 -1.0921
  858MOL0     H18366  12.321   3.770  13.156 -1.8813 -0.6154 -1.7357
  858MOL0     H18367  12.511   3.698  13.247  0.8842 -1.1832  2.7629
  858MOL0     H18368  12.681   3.572  13.237 -1.4739 -0.5801 -0.0492
  858MOL0     H18369  12.666   3.588  13.415 -1.3066 -0.6042  1.2763
  858MOL0     H18370  12.766   3.321  13.338  1.1217 -0.1727  1.7741
  858MOL0     H18371  12.878   3.450  13.314 -0.6192  2.8436 -1.3574
  858MOL0     H18372  12.715   3.421  13.570  1.1605 -1.9572  2.6675
  858MOL0     H18373  12.878   3.495  13.538  0.2981  0.1331 -1.4435
  858MOL0     H18374  12.969   3.271  13.493 -2.0255 -0.7180 -1.5991
  858MOL0     H18375  12.816   3.200  13.548 -0.6105  0.1963  0.0178
  858MOL0     H18376  13.016   3.242  13.700 -0.2280  0.7254  0.6744
  858MOL0     H18377  12.968   3.408  13.717  0.2263  0.4114 -0.4789
  858MOL0     H18378  12.803   3.162  13.785  0.4769 -0.1157 -1.0534
  858MOL0     H18379  12.747   3.332  13.802  0.5605  0.1068 -3.3544
  858MOL0     H18380  12.887   3.395  13.968  0.6774  0.5722 -0.6291
  858MOL0     H18381  13.006   3.276  13.934 -0.3942  1.4333 -2.3775
  858MOL0     H18382  12.724   3.223  14.037  0.7359  0.7690 -2.5432
  858MOL0     H18383  12.865   3.227  14.141  1.5237  0.2755  0.9408
  858MOL0     H18384  12.352   3.292  13.307  0.0102  0.1225 -0.0314
  858MOL0     H18385  12.141   3.382  13.212  1.5894 -1.7935  0.4894
  858MOL0     H18386  11.861   3.694  13.153  0.8572  3.1201 -0.2258
  858MOL0     H18387  11.638   3.790  13.111  2.5432  2.3253  0.6997
  858MOL0     H18388  10.900   4.318  11.467  0.3719 -2.1665  0.3904
  858MOL0     H18389  11.069   4.473  11.343 -1.0754  0.9790  1.6906
  858MOL0     H18390  11.355   4.604  11.167  0.8228 -0.5835 -0.7093
  858MOL0     H18391  11.467   4.733  11.000 -0.7921 -2.5001  0.6610
  858MOL0     H18392  11.758   5.079  11.017  1.2670  1.2347  2.9008
  858MOL0     H18393  11.766   5.011  11.170 -2.6963  1.5548 -0.6665
  858MOL0     H18394  11.946   4.853  11.079  3.1206 -0.2316 -1.4405
  858MOL0     H18395  11.995   5.019  11.072 -1.3426  2.0661  0.8327
  858MOL0     H18396  11.829   4.916  10.840 -1.5057  0.0642  4.4786
  858MOL0     H18397  11.940   5.058  10.850 -2.9390  0.7303  0.9223
  858MOL0     H18398  12.026   4.758  10.883  1.0911 -0.5933 -1.6211
  858MOL0     H18399  12.121   4.911  10.850 -1.4596  3.6840 -2.2171
  858MOL0     H18400  12.035   4.798  10.463  1.7273  1.6302 -0.4379
  858MOL0     H18401  11.790   4.818  11.263 -0.2586  0.0757  3.0430
  858MOL0     H18402  11.821   4.712  11.438  1.3880 -1.0213 -0.5815
  858MOL0     H18403  11.667   4.725  11.540 -2.1888 -1.8915 -0.0297
  858MOL0     H18404  11.720   4.571  11.485 -2.8269  0.7893  0.7573
  859MOL0     O18405   2.476  10.934  10.669  0.2139 -0.1353  0.5348
  859MOL0     C18406   2.365  10.934  10.623 -0.1312  0.5791 -0.4298
  859MOL0     O18407   2.272  10.831  10.649 -0.2836 -0.0152  0.4015
  859MOL0     C18408   2.296  10.736  10.746 -0.3681 -0.4414  0.0341
  859MOL0     C18409   2.396  10.641  10.714 -0.2643 -0.4130  0.2007
  859MOL0     C18410   2.441  10.543  10.800 -0.3814  0.4230 -0.3584
  859MOL0     C18411   2.385  10.538  10.930  0.1284 -0.3923  0.7703
  859MOL0     O18412   2.414  10.453  11.025  0.1537 -1.0055 -0.3325
  859MOL0     C18413   2.443  10.320  10.984  1.2155  0.8688 -0.8134
  859MOL0     C18414   2.327  10.247  10.904 -1.0410  0.4136 -0.1529
  859MOL0     C18415   2.218  10.178  10.981 -0.0425 -1.0154  0.2178
  859MOL0     C18416   2.110  10.122  10.887  0.5874  0.0434  0.2156
  859MOL0     C18417   2.000  10.060  10.965  1.1828 -0.8845  0.3040
  859MOL0     C18418   1.889  10.020  10.874  0.5658 -0.0584 -0.8520
  859MOL0     C18419   1.801  10.145  10.849  0.6050  0.3833  0.5394
  859MOL0     C18420   1.682  10.137  10.759  0.2610 -0.1254  0.6405
  859MOL0     N18421   1.590  10.032  10.802  0.3601 -0.3456  0.2741
  859MOL0     C18422   1.603   9.900  10.759  0.2159 -0.0102 -0.5284
  859MOL0     C18423   1.528   9.827  10.841  0.1735  0.4377  0.1568
  859MOL0     C18424   1.511   9.675  10.832  0.6353  0.6263  0.1085
  859MOL0     C18425   1.483   9.609  10.970  0.4426 -0.0633  0.1269
  859MOL0     C18426   1.452   9.460  10.964 -0.1929 -0.0231 -0.5429
  859MOL0     C18427   1.449   9.381  11.093 -0.1807  1.0014  0.7552
  859MOL0     O18428   1.353   9.443  11.183 -0.1715 -0.2459 -0.3541
  859MOL0     C18429   1.220   9.400  11.173  0.6664  0.2886 -0.8555
  859MOL0     C18430   1.160   9.319  11.071  0.9184 -0.6906 -0.2856
  859MOL0     C18431   1.017   9.301  11.069  0.4634 -0.5806 -0.7711
  859MOL0     C18432   0.941   9.271  10.952  0.0536 -0.6105  0.3774
  859MOL0     C18433   0.943   9.341  11.185  0.5722  0.7875 -0.0725
  859MOL0     C18434   0.794   9.314  11.215 -0.5782  0.7240  0.0783
  859MOL0     O18435   0.735   9.382  11.321  0.0571  0.3140  0.6045
  859MOL0     C18436   0.603   9.411  11.271  0.6701 -1.1366  0.0081
  859MOL0     C18437   0.500   9.310  11.290  0.0220  0.2100 -0.3564
  859MOL0     C18438   0.378   9.321  11.232  0.1029  0.4385 -0.2419
  859MOL0     C18439   0.344   9.438  11.171  0.6617 -0.1501  0.6948
  859MOL0     O18440   0.208   9.467  11.136  0.2170  0.2872 -0.2817
  859MOL0     C18441   0.102   9.383  11.187  0.8539 -0.5440 -1.0970
  859MOL0     C18442  -0.028   9.443  11.159  0.7501  0.4010 -0.1244
  859MOL0     C18443  -0.128   9.351  11.236  0.0502 -0.0132  0.4683
  859MOL0     C18444  -0.271   9.389  11.189  0.0686  0.1312  0.0783
  859MOL0     C18445  -0.314   9.333  11.058  0.1144  0.6019 -0.8143
  859MOL0     C18446  -0.448   9.367  11.014  0.0437  0.1964  0.1435
  859MOL0     C18447  -0.478   9.305  10.875 -0.1070  0.3210 -0.2063
  859MOL0     C18448  -0.617   9.363  10.827 -0.2891  0.1103  0.6076
  859MOL0    Cl18449  -0.652   9.291  10.664  0.3140  0.0933 -0.1904
  859MOL0     C18450   0.446   9.534  11.143  0.6279 -0.6068  0.0644
  859MOL0     C18451   0.574   9.525  11.195  0.6304  0.0584  0.2062
  859MOL0     O18452   0.733   9.240  11.137 -0.4205  0.4592  0.4417
  859MOL0     C18453   1.012   9.416  11.285  0.4214  0.4731  0.1030
  859MOL0     C18454   1.152   9.448  11.277 -0.0876  1.1294  0.5981
  859MOL0     N18455   1.459   9.910  10.926  0.4172  0.2200  0.2953
  859MOL0     N18456   1.519  10.022  10.915 -0.5812 -0.1772 -0.9467
  859MOL0     C18457   2.286  10.630  10.960  0.1112  0.3363 -0.0384
  859MOL0     C18458   2.233  10.722  10.869 -0.7281 -0.5350  0.4435
  859MOL0     C18459   2.317  11.054  10.542 -0.7490  0.7405  0.3382
  859MOL0     C18460   2.182  11.059  10.513  0.2471 -0.0874 -0.5294
  859MOL0     C18461   2.135  11.156  10.434 -0.9647 -0.1845 -0.2929
  859MOL0     C18462   2.215  11.262  10.396 -0.7753 -0.0693 -0.5129
  859MOL0     O18463   2.158  11.359  10.314 -0.0449  0.7513  0.1294
  859MOL0     C18464   2.247  11.457  10.252 -0.1503 -0.6300 -0.3393
  859MOL0     C18465   2.147  11.531  10.172 -0.4697 -0.6533  0.4840
  859MOL0     C18466   2.212  11.642  10.089 -0.8918 -0.0906  0.4902
  859MOL0     C18467   2.265  11.760  10.166  0.7942 -0.1130 -0.8093
  859MOL0     C18468   2.158  11.845  10.226 -0.4134  0.1014 -0.3631
  859MOL0     C18469   2.066  11.901  10.285  0.1482 -1.1573  0.2095
  859MOL0     C18470   2.351  11.255  10.415  0.0642  0.0095 -0.1067
  859MOL0     C18471   2.410  11.141  10.482 -0.2480 -0.3200 -0.1285
  859MOL0     C18472   2.557  11.134  10.479 -0.2258  0.8137  0.3041
  859MOL0     H18473   2.444  10.637  10.616  1.3329  1.4414  0.8388
  859MOL0     H18474   2.519  10.478  10.761 -0.2721  0.7084 -0.6144
  859MOL0     H18475   2.452  10.259  11.075 -2.0659 -0.2384 -1.0739
  859MOL0     H18476   2.540  10.308  10.936  0.3273 -1.2193 -2.2413
  859MOL0     H18477   2.287  10.323  10.837  0.2028 -0.7880 -2.3952
  859MOL0     H18478   2.368  10.159  10.853 -1.6104 -1.5942  2.5940
  859MOL0     H18479   2.254  10.099  11.047 -1.7898  0.6154  3.3489
  859MOL0     H18480   2.169  10.256  11.040  1.1551 -0.2976  0.2947
  859MOL0     H18481   2.072  10.206  10.828  0.3707  0.7061  1.2769
  859MOL0     H18482   2.156  10.046  10.823  0.1212 -0.1739  0.1388
  859MOL0     H18483   1.965  10.141  11.029  0.5963  1.3767 -2.6711
  859MOL0     H18484   2.030   9.974  11.026 -0.1834 -1.8584 -0.3475
  859MOL0     H18485   1.941   9.981  10.786  0.5031 -0.4827 -0.7021
  859MOL0     H18486   1.829   9.935  10.908 -0.9234  0.4731 -2.0348
  859MOL0     H18487   1.861  10.232  10.821 -0.0567  0.6438 -0.0960
  859MOL0     H18488   1.774  10.180  10.950  1.1704  1.6875  0.2675
  859MOL0     H18489   1.622  10.229  10.764  0.2544  0.3570 -4.0577
  859MOL0     H18490   1.716  10.115  10.657  0.2315 -0.8188  0.7812
  859MOL0     H18491   1.664   9.867  10.675  3.0492  1.2670  0.8677
  859MOL0     H18492   1.598   9.627  10.787 -1.0022 -0.4411 -2.0675
  859MOL0     H18493   1.423   9.660  10.769 -0.1336  2.7469  0.5786
  859MOL0     H18494   1.575   9.626  11.026  2.3827 -1.4638 -2.4210
  859MOL0     H18495   1.400   9.660  11.021  2.9731  3.8620  0.7688
  859MOL0     H18496   1.350   9.447  10.928 -0.8184  0.5716  0.9342
  859MOL0     H18497   1.528   9.413  10.901 -0.4835  0.2257 -1.0793
  859MOL0     H18498   1.417   9.283  11.058  0.3307  1.5413 -1.3799
  859MOL0     H18499   1.549   9.373  11.136  1.9591  2.6705 -3.3119
  859MOL0     H18500   1.217   9.299  10.980  1.3002  0.7177 -0.3745
  859MOL0     H18501   1.013   9.262  10.870 -0.6433  2.1630 -0.6865
  859MOL0     H18502   0.867   9.351  10.938 -0.4956 -1.7125 -5.7693
  859MOL0     H18503   0.885   9.177  10.950  0.9023 -1.1217 -1.3479
  859MOL0     H18504   0.527   9.217  11.340 -1.2577  0.2481  0.4395
  859MOL0     H18505   0.306   9.241  11.249 -0.5976  1.4712  2.1963
  859MOL0     H18506   0.115   9.281  11.149 -0.6076 -2.5401  3.0988
  859MOL0     H18507   0.101   9.383  11.296 -3.2640  0.2250 -0.9923
  859MOL0     H18508  -0.041   9.549  11.181 -1.8003  0.2775 -0.6551
  859MOL0     H18509  -0.038   9.433  11.051 -2.4138  0.9875  0.0130
  859MOL0     H18510  -0.111   9.360  11.343  2.4869  1.0373  0.0469
  859MOL0     H18511  -0.113   9.248  11.200 -1.5082 -1.2815  3.1156
  859MOL0     H18512  -0.276   9.497  11.181 -0.6550 -0.0215 -2.3549
  859MOL0     H18513  -0.336   9.348  11.267 -1.2040  0.5515 -0.7308
  859MOL0     H18514  -0.233   9.361  10.989  0.5634 -5.2341 -3.3242
  859MOL0     H18515  -0.314   9.225  11.078  5.4355  1.0233  4.1325
  859MOL0     H18516  -0.465   9.474  10.996  3.0211  0.4559 -1.7576
  859MOL0     H18517  -0.513   9.324  11.090  2.6253 -2.6940  0.9170
  859MOL0     H18518  -0.484   9.198  10.896 -1.7586  0.5712  0.7776
  859MOL0     H18519  -0.406   9.314  10.793 -1.0177 -1.5108 -1.2763
  859MOL0     H18520  -0.613   9.472  10.815 -0.1802 -0.1402 -2.2799
  859MOL0     H18521  -0.694   9.335  10.900 -1.0478 -0.4873 -0.3998
  859MOL0     H18522   0.425   9.622  11.083  2.7917  0.9559  1.4418
  859MOL0     H18523   0.650   9.601  11.181 -0.8764  1.4752 -0.7111
  859MOL0     H18524   0.952   9.435  11.373 -2.1773  0.0806 -1.4889
  859MOL0     H18525   1.203   9.492  11.362 -1.3571  2.9359  0.4807
  859MOL0     H18526   2.233  10.614  11.053 -1.0973 -1.7281 -1.0128
  859MOL0     H18527   2.163  10.800  10.899  0.9722  1.3304 -0.1669
  859MOL0     H18528   2.117  10.982  10.553  2.5472 -3.2042 -2.3562
  859MOL0     H18529   2.030  11.157  10.404 -0.9618 -1.1519 -0.3741
  859MOL0     H18530   2.296  11.529  10.317 -1.5491  0.6645 -0.6447
  859MOL0     H18531   2.315  11.406  10.183 -0.6032  1.5781 -2.5503
  859MOL0     H18532   2.073  11.579  10.237  1.9417  1.5452  1.7784
  859MOL0     H18533   2.084  11.460  10.116 -0.8773 -0.9908  1.3502
  859MOL0     H18534   2.292  11.611  10.020 -1.2006 -1.1796  0.6102
  859MOL0     H18535   2.138  11.682  10.019 -1.3220 -0.3836  0.7776
  859MOL0     H18536   2.338  11.814  10.105  1.9132  0.3084  0.8534
  859MOL0     H18537   2.324  11.723  10.250 -0.0174  2.0755  0.8000
  859MOL0     H18538   1.999  11.953  10.351  0.7769  0.8846 -0.6582
  859MOL0     H18539   2.419  11.321  10.362  0.1972  0.5083  0.6582
  859MOL0     H18540   2.606  11.130  10.577  0.2769 -1.9587  0.0083
  859MOL0     H18541   2.589  11.045  10.426  0.6322  0.3636  1.5265
  859MOL0     H18542   2.601  11.224  10.434  1.7420 -0.0859  0.3106
  860MOL0     O18543   0.975   0.451   2.686  0.5920  0.1730 -0.1955
  860MOL0     C18544   1.012   0.349   2.624 -0.3594 -0.6151  0.5565
  860MOL0     O18545   0.947   0.228   2.621 -0.5174  0.0543  0.0350
  860MOL0     C18546   0.906   0.193   2.746 -0.3214  0.2294  0.1181
  860MOL0     C18547   0.980   0.209   2.860  0.6440 -1.0081 -0.7185
  860MOL0     C18548   0.937   0.167   2.988  1.3034  0.0316  1.0596
  860MOL0     C18549   0.822   0.079   2.995  0.0258 -0.4168 -0.3017
  860MOL0     O18550   0.798   0.030   3.115 -0.8528 -0.2004 -0.0424
  860MOL0     C18551   0.683  -0.055   3.139  0.0715  0.9613  0.5960
  860MOL0     C18552   0.703  -0.207   3.132 -0.7862  0.1186 -0.2462
  860MOL0     C18553   0.577  -0.279   3.171  0.1637  0.4637 -0.2521
  860MOL0     C18554   0.601  -0.427   3.196 -1.0013 -1.8185  0.0343
  860MOL0     C18555   0.474  -0.496   3.237  0.2149  0.0951 -0.5571
  860MOL0     C18556   0.494  -0.640   3.275 -0.2792 -0.5533 -0.5505
  860MOL0     C18557   0.568  -0.701   3.159  0.3718  0.7738  0.5111
  860MOL0     C18558   0.574  -0.850   3.185  1.2835 -0.6066  0.1790
  860MOL0     N18559   0.639  -0.904   3.067 -0.2730 -0.4659 -0.3606
  860MOL0     C18560   0.775  -0.909   3.035  0.2218 -0.1337 -0.1976
  860MOL0     C18561   0.774  -0.935   2.909  1.2527 -0.3508  1.1611
  860MOL0     C18562   0.894  -0.922   2.816  0.1824 -0.3806  0.0172
  860MOL0     C18563   1.001  -1.025   2.821  0.8015 -0.6261  1.4041
  860MOL0     C18564   1.083  -1.032   2.950  0.2998 -0.1940  0.2587
  860MOL0     C18565   1.175  -1.158   2.958 -0.0981 -0.9181 -0.0719
  860MOL0     O18566   1.298  -1.116   2.879  0.8247 -0.7808  0.2058
  860MOL0     C18567   1.390  -1.206   2.833 -0.5899 -0.7834 -0.3108
  860MOL0     C18568   1.487  -1.161   2.739 -0.3690 -0.0163 -0.5233
  860MOL0     C18569   1.587  -1.247   2.709  0.1117 -1.1995  0.0541
  860MOL0     C18570   1.697  -1.189   2.629  0.1337 -0.6482  0.1421
  860MOL0     C18571   1.583  -1.384   2.747 -0.0776 -0.2870 -0.5050
  860MOL0     C18572   1.680  -1.492   2.716  0.4080 -0.2797  0.6504
  860MOL0     O18573   1.717  -1.572   2.813  0.2401 -0.2145 -0.0696
  860MOL0     C18574   1.819  -1.659   2.796  0.1297 -0.2280  0.1768
  860MOL0     C18575   1.802  -1.789   2.764  0.7384 -0.1419 -0.3473
  860MOL0     C18576   1.904  -1.878   2.760 -0.2998 -1.0681  0.8331
  860MOL0     C18577   2.032  -1.829   2.770  0.2124  0.7896  0.2024
  860MOL0     O18578   2.137  -1.921   2.759 -0.8129  0.0198 -0.3051
  860MOL0     C18579   2.132  -2.040   2.668  0.5023  0.5193 -0.6421
  860MOL0     C18580   2.265  -2.108   2.652  0.2001  0.7774  0.2197
  860MOL0     C18581   2.304  -2.206   2.762  0.1187  0.9076 -0.7459
  860MOL0     C18582   2.446  -2.254   2.755  0.7891 -0.8754  1.0365
  860MOL0     C18583   2.507  -2.316   2.881  0.2803  0.3978  0.5061
  860MOL0     C18584   2.623  -2.398   2.825  0.2409  0.4549  0.5875
  860MOL0     C18585   2.708  -2.442   2.943  0.0526  0.1218  0.1299
  860MOL0     C18586   2.839  -2.522   2.909 -0.1185  0.3865  0.8500
  860MOL0    Cl18587   2.976  -2.435   2.823 -0.2831 -0.6438  0.2148
  860MOL0     C18588   2.053  -1.692   2.792  0.2155  0.6350 -0.6737
  860MOL0     C18589   1.949  -1.602   2.803  0.4046 -0.0647 -0.0286
  860MOL0     O18590   1.723  -1.488   2.602 -0.5007  0.0940  0.2262
  860MOL0     C18591   1.487  -1.427   2.830 -0.3007 -0.1338 -0.4831
  860MOL0     C18592   1.395  -1.334   2.876 -0.0702  0.8805 -0.2648
  860MOL0     N18593   0.651  -0.979   2.873 -0.1008 -0.3067 -0.8559
  860MOL0     N18594   0.569  -0.956   2.971  0.2310 -0.5254 -0.6070
  860MOL0     C18595   0.739   0.064   2.876 -0.3701 -0.0379 -0.7197
  860MOL0     C18596   0.787   0.117   2.756 -0.2422 -0.0454 -1.0647
  860MOL0     C18597   1.133   0.369   2.542 -0.6126 -0.6066  0.0377
  860MOL0     C18598   1.149   0.284   2.434 -0.2366  0.4810  0.4436
  860MOL0     C18599   1.267   0.277   2.359 -0.5566  0.7997 -0.3012
  860MOL0     C18600   1.377   0.362   2.387  0.5521  0.3254  0.0248
  860MOL0     O18601   1.479   0.399   2.305 -0.1751  0.5057  0.4511
  860MOL0     C18602   1.448   0.401   2.167  0.2019 -0.4446  0.4377
  860MOL0     C18603   1.558   0.471   2.086 -0.4048  0.1411  0.0012
  860MOL0     C18604   1.605   0.602   2.136 -0.6147 -0.7166 -0.3177
  860MOL0     C18605   1.698   0.662   2.027 -0.3632  0.2230 -0.1420
  860MOL0     C18606   1.782   0.764   2.085  0.9338  0.1521  0.5199
  860MOL0     C18607   1.859   0.847   2.123  0.1062  0.0242  0.1262
  860MOL0     C18608   1.358   0.444   2.504 -0.1832  0.5138  0.4832
  860MOL0     C18609   1.238   0.456   2.580  0.3916  0.5648 -0.5134
  860MOL0     C18610   1.244   0.547   2.700  0.6200 -0.2683 -0.1040
  860MOL0     H18611   1.069   0.271   2.857  0.6839 -0.9358  1.2071
  860MOL0     H18612   0.997   0.188   3.076  2.0872 -1.2363  0.8558
  860MOL0     H18613   0.598  -0.033   3.073 -1.7320 -1.6598  1.8630
  860MOL0     H18614   0.651  -0.029   3.240 -1.1282  1.0881  0.2055
  860MOL0     H18615   0.747  -0.231   3.034  1.0196 -1.6589  0.9188
  860MOL0     H18616   0.788  -0.227   3.198 -1.5393  0.2223  0.7741
  860MOL0     H18617   0.537  -0.238   3.264  1.9848 -2.9574  2.2758
  860MOL0     H18618   0.505  -0.276   3.089  1.7657  0.6616 -1.7082
  860MOL0     H18619   0.655  -0.471   3.111  1.6037  0.4351  0.3873
  860MOL0     H18620   0.665  -0.428   3.285 -2.0006  0.8329  0.8557
  860MOL0     H18621   0.403  -0.492   3.154  0.7968 -1.4535 -1.1864
  860MOL0     H18622   0.429  -0.446   3.323 -0.1406 -1.3295  0.1141
  860MOL0     H18623   0.551  -0.637   3.368 -0.2745 -0.4907 -0.5552
  860MOL0     H18624   0.399  -0.686   3.303 -0.1638  0.6430  2.0132
  860MOL0     H18625   0.672  -0.667   3.167  1.1108 -1.3652  0.5772
  860MOL0     H18626   0.522  -0.680   3.062  1.6349 -0.1663 -0.3251
  860MOL0     H18627   0.628  -0.876   3.277  0.6459  1.4361  1.1980
  860MOL0     H18628   0.476  -0.898   3.177  0.5407  0.8440  0.2631
  860MOL0     H18629   0.854  -0.863   3.093 -0.8270  0.6020  0.6843
  860MOL0     H18630   0.943  -0.828   2.842  2.6761 -1.5624 -0.1676
  860MOL0     H18631   0.861  -0.922   2.711 -0.1670 -0.7632  0.1251
  860MOL0     H18632   0.967  -1.127   2.801  2.4009 -1.2796  1.8417
  860MOL0     H18633   1.066  -0.990   2.741 -2.0468  4.0881  0.7320
  860MOL0     H18634   1.148  -0.946   2.969 -1.2403  2.1937 -4.0482
  860MOL0     H18635   1.013  -1.034   3.034 -0.1512 -1.0793 -0.1213
  860MOL0     H18636   1.212  -1.173   3.060  1.3891  2.2754 -0.0078
  860MOL0     H18637   1.132  -1.240   2.900 -1.8396 -1.0726  1.3582
  860MOL0     H18638   1.489  -1.059   2.702  0.0053 -0.9205 -3.2655
  860MOL0     H18639   1.652  -1.152   2.536 -0.4164 -1.4418  0.0753
  860MOL0     H18640   1.777  -1.248   2.585  1.6132  2.8780 -2.3537
  860MOL0     H18641   1.737  -1.098   2.674 -1.7725  1.0527 -1.4138
  860MOL0     H18642   1.702  -1.830   2.752 -1.8975  5.1223  0.4681
  860MOL0     H18643   1.877  -1.982   2.747 -3.0773 -0.5324  1.7278
  860MOL0     H18644   2.064  -2.115   2.711  3.5653 -1.3924  1.2823
  860MOL0     H18645   2.102  -2.020   2.565 -0.0663 -1.8190 -1.0031
  860MOL0     H18646   2.270  -2.168   2.561 -1.0453  1.0024 -0.0235
  860MOL0     H18647   2.345  -2.034   2.639  2.0909 -0.9262  1.6215
  860MOL0     H18648   2.232  -2.287   2.752 -3.0929  3.4958 -0.4132
  860MOL0     H18649   2.282  -2.156   2.857  0.9805  0.0966 -0.1093
  860MOL0     H18650   2.512  -2.169   2.735  1.1705 -1.1131  1.2491
  860MOL0     H18651   2.456  -2.309   2.661  0.9389  3.1036 -1.5044
  860MOL0     H18652   2.547  -2.236   2.944  1.9559  0.2576 -0.2979
  860MOL0     H18653   2.443  -2.373   2.949  1.5261 -0.2364  1.1977
  860MOL0     H18654   2.690  -2.349   2.754  1.6228 -4.2173 -1.7325
  860MOL0     H18655   2.589  -2.485   2.769 -2.0888  1.6154  0.0889
  860MOL0     H18656   2.655  -2.496   3.022 -0.9302  0.5871 -0.1999
  860MOL0     H18657   2.748  -2.353   2.992  0.6066 -1.2443  2.3077
  860MOL0     H18658   2.815  -2.610   2.848  1.0955  0.1601  0.6741
  860MOL0     H18659   2.888  -2.558   3.000 -0.5384  1.3520  1.4666
  860MOL0     H18660   2.155  -1.666   2.822  0.5744 -2.2173  0.8876
  860MOL0     H18661   1.947  -1.497   2.829 -2.6694  0.6012 -2.4150
  860MOL0     H18662   1.489  -1.523   2.880 -2.4376  0.2043  0.3611
  860MOL0     H18663   1.320  -1.364   2.948  0.0664  2.4990  0.5899
  860MOL0     H18664   0.643   0.014   2.875 -0.7779  0.7387 -0.6711
  860MOL0     H18665   0.734   0.108   2.662 -0.2595  1.8938 -1.2815
  860MOL0     H18666   1.071   0.222   2.392  0.2315 -0.4666  0.9332
  860MOL0     H18667   1.273   0.213   2.271  1.9161 -0.8164  0.9195
  860MOL0     H18668   1.428   0.299   2.134  0.5146 -0.4383  0.2301
  860MOL0     H18669   1.357   0.461   2.154  0.8082 -0.0452 -2.8258
  860MOL0     H18670   1.526   0.462   1.982 -1.2356 -1.7813  0.3700
  860MOL0     H18671   1.643   0.403   2.096 -1.4288 -1.4259 -1.5055
  860MOL0     H18672   1.513   0.661   2.146 -1.8748 -2.4722 -1.1163
  860MOL0     H18673   1.651   0.594   2.235  0.0265 -0.9494 -0.6313
  860MOL0     H18674   1.645   0.713   1.946 -0.3543  1.8857  0.8413
  860MOL0     H18675   1.763   0.587   1.982  0.7321  0.8367  0.3654
  860MOL0     H18676   1.932   0.923   2.143  0.1142  0.0104  0.1490
  860MOL0     H18677   1.442   0.507   2.531  0.5445  0.4539 -1.4736
  860MOL0     H18678   1.217   0.498   2.794 -0.8042 -1.0209 -0.8729
  860MOL0     H18679   1.344   0.591   2.710  0.4314  0.1131  0.1303
  860MOL0     H18680   1.175   0.632   2.696 -0.0487 -0.7350  1.0986
  861MOL0     O18681  10.188   1.131   7.660 -0.0623  0.3172 -0.0557
  861MOL0     C18682  10.083   1.081   7.706  1.3389 -0.2379 -0.0143
  861MOL0     O18683  10.074   1.009   7.824 -0.3223  0.0708 -0.6211
  861MOL0     C18684  10.195   1.007   7.897  0.0409  0.1052  0.4632
  861MOL0     C18685  10.215   1.099   7.995  0.5892  0.6589  0.2107
  861MOL0     C18686  10.325   1.090   8.081 -0.4516 -0.1544  1.4066
  861MOL0     C18687  10.422   0.994   8.071 -0.0577  0.1503  0.3926
  861MOL0     O18688  10.545   0.999   8.130  0.2688 -0.0030  0.5979
  861MOL0     C18689  10.622   0.873   8.140  1.0806  0.1526 -0.3416
  861MOL0     C18690  10.689   0.891   8.273 -0.1474  0.0019  0.3478
  861MOL0     C18691  10.801   0.993   8.264 -0.0487 -0.2248  0.0678
  861MOL0     C18692  10.928   0.919   8.223 -0.2396  0.0143  0.2112
  861MOL0     C18693  11.047   1.001   8.181  0.2707 -0.0235 -0.0214
  861MOL0     C18694  11.180   0.921   8.174  1.3820 -0.0851 -0.6520
  861MOL0     C18695  11.300   1.013   8.182 -0.9537 -0.4258  1.1857
  861MOL0     C18696  11.439   0.945   8.144 -0.2491  0.1167  0.1588
  861MOL0     N18697  11.492   0.840   8.235  0.9181 -0.9952  0.1604
  861MOL0     C18698  11.435   0.795   8.352  0.4845  0.0390  0.0170
  861MOL0     C18699  11.519   0.705   8.401  0.4482 -0.3299 -0.7696
  861MOL0     C18700  11.482   0.621   8.520 -0.7654  0.4981  0.2734
  861MOL0     C18701  11.463   0.474   8.470 -0.6464  0.1314 -0.2043
  861MOL0     C18702  11.404   0.375   8.576 -0.1078 -0.2333  0.5383
  861MOL0     C18703  11.259   0.355   8.526  0.5557 -0.0139  0.4933
  861MOL0     O18704  11.188   0.478   8.534  0.3018  0.2003  0.5368
  861MOL0     C18705  11.058   0.492   8.576  0.7937  0.6546 -0.3616
  861MOL0     C18706  10.997   0.621   8.581 -0.2205 -0.8300  0.0412
  861MOL0     C18707  10.876   0.656   8.642  0.1837  0.1763  0.0746
  861MOL0     C18708  10.848   0.807   8.624 -0.7862 -0.6794 -0.2111
  861MOL0     C18709  10.781   0.546   8.671 -0.5032 -0.0768  1.3165
  861MOL0     C18710  10.636   0.566   8.699  0.5474  0.6156  0.1323
  861MOL0     O18711  10.589   0.696   8.721  0.3108  0.3637 -0.0952
  861MOL0     C18712  10.452   0.732   8.731 -0.0918  0.2064 -0.8312
  861MOL0     C18713  10.361   0.695   8.627 -0.2475 -0.7597  0.4475
  861MOL0     C18714  10.229   0.738   8.629 -0.4675 -0.6451 -0.2271
  861MOL0     C18715  10.171   0.801   8.746 -0.0376 -0.4183 -1.2886
  861MOL0     O18716  10.038   0.817   8.763  0.1730 -0.0073 -0.5741
  861MOL0     C18717   9.970   0.897   8.670  0.7797 -0.0598  1.1998
  861MOL0     C18718   9.832   0.947   8.732  0.7373  0.3992  0.2112
  861MOL0     C18719   9.741   1.044   8.645 -0.5654  0.1775 -0.1216
  861MOL0     C18720   9.673   0.978   8.527  0.9598  0.6128 -0.2229
  861MOL0     C18721   9.553   0.888   8.570 -0.5638 -0.7507 -0.6196
  861MOL0     C18722   9.460   0.832   8.458 -0.3378 -0.1473  0.4164
  861MOL0     C18723   9.361   0.935   8.415 -0.2870  0.5028 -1.3929
  861MOL0     C18724   9.275   0.989   8.525  0.7791  0.1581 -0.6609
  861MOL0    Cl18725   9.211   0.866   8.640  0.4210  0.4002 -0.5590
  861MOL0     C18726  10.259   0.834   8.855 -0.3966 -0.1028  0.1536
  861MOL0     C18727  10.398   0.803   8.847  0.4358 -0.3322 -0.1911
  861MOL0     O18728  10.562   0.471   8.704 -0.2957 -0.5140 -0.4208
  861MOL0     C18729  10.829   0.418   8.660 -0.0586 -0.3995 -0.4366
  861MOL0     C18730  10.971   0.389   8.619 -0.0894  0.3238 -0.9953
  861MOL0     N18731  11.621   0.687   8.308 -0.7482  0.4076  0.1486
  861MOL0     N18732  11.601   0.763   8.209 -0.7165 -0.6094 -0.3837
  861MOL0     C18733  10.402   0.904   7.964 -0.3526  0.0951  0.4672
  861MOL0     C18734  10.296   0.911   7.886  0.3663 -0.0274  1.3171
  861MOL0     C18735   9.962   1.067   7.617  0.2507 -0.1092  0.2036
  861MOL0     C18736   9.831   1.077   7.683 -0.1887  0.0088 -0.0485
  861MOL0     C18737   9.717   1.063   7.615 -0.0683 -0.2436 -0.2530
  861MOL0     C18738   9.710   1.053   7.483 -1.1607 -0.4611 -0.6333
  861MOL0     O18739   9.579   1.041   7.443  0.0815  1.0595  0.8271
  861MOL0     C18740   9.544   1.021   7.306 -0.7467 -0.0840  0.0997
  861MOL0     C18741   9.580   0.884   7.251 -0.3512 -0.2836  1.1628
  861MOL0     C18742   9.487   0.777   7.301 -0.2692  0.2933 -0.1025
  861MOL0     C18743   9.520   0.651   7.220  1.0316 -0.2509 -0.0004
  861MOL0     C18744   9.652   0.598   7.257 -0.2599  0.5480 -1.1996
  861MOL0     C18745   9.756   0.542   7.281 -0.5029  0.5608  1.0073
  861MOL0     C18746   9.828   1.043   7.409  0.6020  0.5332 -0.4618
  861MOL0     C18747   9.955   1.046   7.475 -0.1968  0.0019 -0.5350
  861MOL0     C18748  10.084   1.049   7.392  0.1961 -0.1428  0.1485
  861MOL0     H18749  10.146   1.182   8.005 -0.5729 -0.3445  0.7124
  861MOL0     H18750  10.350   1.174   8.146  2.3441  0.0450  0.2513
  861MOL0     H18751  10.700   0.877   8.063  1.3192 -1.7820 -0.2370
  861MOL0     H18752  10.564   0.781   8.127  0.9550 -0.4522  3.4661
  861MOL0     H18753  10.618   0.932   8.344 -1.8046 -0.7734 -0.7893
  861MOL0     H18754  10.730   0.802   8.321 -2.2654 -0.0077  2.2776
  861MOL0     H18755  10.776   1.066   8.187 -2.2553 -0.0836  0.8414
  861MOL0     H18756  10.817   1.042   8.360 -0.5335 -0.0193  0.0467
  861MOL0     H18757  10.960   0.870   8.316 -0.5185  0.6490  0.6550
  861MOL0     H18758  10.906   0.854   8.138  1.8777 -0.8353  0.2519
  861MOL0     H18759  11.051   1.080   8.256 -0.0952  1.7438 -1.7589
  861MOL0     H18760  11.019   1.043   8.084 -0.1730 -2.1222 -0.8517
  861MOL0     H18761  11.173   0.856   8.261 -4.2391  1.9192  0.7996
  861MOL0     H18762  11.186   0.862   8.083  0.6544 -1.7979  0.3719
  861MOL0     H18763  11.306   1.071   8.274  0.2270  2.4934 -0.5926
  861MOL0     H18764  11.285   1.093   8.109  2.7581 -0.4989  0.1435
  861MOL0     H18765  11.423   0.909   8.042  0.7966  0.2823 -0.0764
  861MOL0     H18766  11.521   1.017   8.137  1.7340 -1.7357  2.6807
  861MOL0     H18767  11.344   0.830   8.399  1.0123  0.1229  1.0003
  861MOL0     H18768  11.385   0.659   8.553  0.2553  4.0205 -0.3622
  861MOL0     H18769  11.552   0.636   8.602  0.7274 -0.8785 -0.6909
  861MOL0     H18770  11.399   0.491   8.383  0.3517  1.4844 -0.7052
  861MOL0     H18771  11.555   0.439   8.425  0.2622  3.6301 -1.3847
  861MOL0     H18772  11.448   0.276   8.589  0.2932  0.1628  2.6462
  861MOL0     H18773  11.392   0.423   8.674 -1.7923  0.8412 -0.1560
  861MOL0     H18774  11.261   0.316   8.424 -0.1121 -0.2281  0.5551
  861MOL0     H18775  11.221   0.269   8.581 -0.5774 -0.8396 -1.5010
  861MOL0     H18776  11.057   0.703   8.542  1.0626 -2.9923 -3.0191
  861MOL0     H18777  10.827   0.843   8.725  3.6256 -1.2439  1.1301
  861MOL0     H18778  10.770   0.831   8.551 -0.9445 -0.4539  0.0292
  861MOL0     H18779  10.939   0.862   8.599 -0.5800  0.2730  2.2917
  861MOL0     H18780  10.402   0.647   8.539 -2.3176  0.5387 -1.3160
  861MOL0     H18781  10.159   0.696   8.558 -3.1818 -1.1312  2.4968
  861MOL0     H18782  10.023   0.989   8.643  2.9183 -1.9006 -1.4105
  861MOL0     H18783   9.940   0.833   8.587 -2.1188  0.5749  1.6437
  861MOL0     H18784   9.769   0.863   8.764 -0.8723  2.1651  1.8621
  861MOL0     H18785   9.864   0.993   8.826  0.0404 -1.1320  1.2392
  861MOL0     H18786   9.810   1.127   8.623 -2.0648  1.5082  0.0131
  861MOL0     H18787   9.659   1.076   8.709 -1.9230  2.9379 -2.9135
  861MOL0     H18788   9.749   0.940   8.458  2.2820  3.0319 -0.1751
  861MOL0     H18789   9.630   1.061   8.470  0.2873 -0.7979 -1.8740
  861MOL0     H18790   9.603   0.803   8.619  0.0736  1.4587  2.8926
  861MOL0     H18791   9.496   0.939   8.648  0.9705 -0.6543  0.4875
  861MOL0     H18792   9.409   0.740   8.487 -0.7211  0.0665  0.4265
  861MOL0     H18793   9.525   0.810   8.372 -0.7876 -0.7093  0.2142
  861MOL0     H18794   9.283   0.903   8.345  0.1312  2.6297 -2.9500
  861MOL0     H18795   9.408   1.020   8.363  0.1204  0.9425 -0.3354
  861MOL0     H18796   9.200   1.055   8.481  1.9281  1.5296 -0.6484
  861MOL0     H18797   9.338   1.062   8.578  1.2177  1.2480 -2.5832
  861MOL0     H18798  10.225   0.886   8.943 -0.2580  0.9906 -0.4264
  861MOL0     H18799  10.462   0.843   8.925  0.3215 -0.0510 -0.2398
  861MOL0     H18800  10.766   0.330   8.666  2.7743 -2.5032  1.3252
  861MOL0     H18801  11.000   0.285   8.610  0.0755  0.5270 -3.2838
  861MOL0     H18802  10.465   0.821   7.933  0.5346  0.6652  0.7033
  861MOL0     H18803  10.270   0.837   7.812  1.3144  0.7633  0.1628
  861MOL0     H18804   9.822   1.100   7.789  1.5557 -2.3431  0.6979
  861MOL0     H18805   9.617   1.054   7.656 -0.3823 -0.0193 -0.9453
  861MOL0     H18806   9.441   1.055   7.293  0.0196  2.4156  0.0749
  861MOL0     H18807   9.598   1.101   7.256 -1.3349  1.0424  1.2211
  861MOL0     H18808   9.682   0.860   7.280  0.4862 -0.1282 -1.3693
  861MOL0     H18809   9.572   0.897   7.142 -0.2839 -2.3734  0.8758
  861MOL0     H18810   9.477   0.763   7.409  0.5454  0.5079  0.0093
  861MOL0     H18811   9.388   0.810   7.267  0.7973  2.1125 -1.5958
  861MOL0     H18812   9.515   0.668   7.112 -0.6848  0.2727  0.1324
  861MOL0     H18813   9.438   0.581   7.237 -0.9704  2.3449  1.9352
  861MOL0     H18814   9.845   0.494   7.316 -1.0919 -0.8638  0.6368
  861MOL0     H18815   9.811   1.035   7.302  0.3680 -0.8001 -0.3446
  861MOL0     H18816  10.056   1.017   7.291 -3.1166  0.6785  0.6922
  861MOL0     H18817  10.122   1.151   7.401  0.2618 -0.2319  0.9218
  861MOL0     H18818  10.162   0.984   7.432  0.9781  1.2225  0.8769
  862MOL0     O18819   7.106  10.167   3.770 -0.3190 -0.5517  0.4079
  862MOL0     C18820   7.093  10.217   3.655 -0.3981  0.2688  0.7924
  862MOL0     O18821   7.188  10.212   3.555 -0.5339  0.6957  0.6794
  862MOL0     C18822   7.319  10.177   3.588  0.3550  0.0098 -0.3973
  862MOL0     C18823   7.411  10.274   3.600  0.0521  0.3760 -0.8182
  862MOL0     C18824   7.542  10.242   3.633 -0.3254 -0.3922  0.7709
  862MOL0     C18825   7.589  10.112   3.637  0.0946  0.0621  0.7998
  862MOL0     O18826   7.721  10.084   3.673 -0.7743  0.1842 -0.2330
  862MOL0     C18827   7.801  10.170   3.762  0.5367 -0.9452 -0.9997
  862MOL0     C18828   7.927  10.096   3.804 -0.4240  0.7384 -1.0068
  862MOL0     C18829   7.898   9.969   3.880 -0.5161  0.9171 -0.4022
  862MOL0     C18830   8.021   9.903   3.956 -0.0964 -0.6647  0.0076
  862MOL0     C18831   7.988   9.762   4.008 -0.2046  1.0150  0.3748
  862MOL0     C18832   7.878   9.772   4.111 -0.4137  0.1992 -0.4757
  862MOL0     C18833   7.905   9.830   4.254 -0.3625 -0.4353  0.5320
  862MOL0     C18834   8.026   9.750   4.318 -0.7225 -1.2399  0.1112
  862MOL0     N18835   8.012   9.610   4.314 -0.0802 -0.8719 -0.0962
  862MOL0     C18836   8.090   9.517   4.245 -0.0348 -0.1654  0.5129
  862MOL0     C18837   8.049   9.401   4.296 -0.1215  0.1253 -0.2080
  862MOL0     C18838   8.089   9.266   4.248 -0.8380 -0.1462  0.5290
  862MOL0     C18839   8.174   9.192   4.358  0.1297  0.1496  0.3308
  862MOL0     C18840   8.096   9.129   4.471  0.3399  0.1208 -0.4854
  862MOL0     C18841   8.017   9.001   4.439 -0.6705 -0.0888 -0.1420
  862MOL0     O18842   8.096   8.906   4.371 -0.5195  1.0537  0.0183
  862MOL0     C18843   8.093   8.775   4.414 -0.8863  0.3804  0.4064
  862MOL0     C18844   8.166   8.734   4.525  0.4960  1.0359 -0.0225
  862MOL0     C18845   8.185   8.596   4.559  0.6245 -0.1581  0.7880
  862MOL0     C18846   8.244   8.568   4.697  0.0937  0.8175 -0.2564
  862MOL0     C18847   8.134   8.492   4.470  0.1034 -0.6768  0.2021
  862MOL0     C18848   8.159   8.341   4.499  0.0169 -0.6957  0.1022
  862MOL0     O18849   8.099   8.249   4.412 -0.4921 -0.6273 -0.9286
  862MOL0     C18850   8.041   8.138   4.474  0.2117  0.0589  0.0317
  862MOL0     C18851   8.030   8.125   4.618 -0.1964 -0.5788  0.2334
  862MOL0     C18852   7.981   8.007   4.668  0.3288 -0.7237 -0.8563
  862MOL0     C18853   7.926   7.910   4.592 -0.1928 -0.0755  0.3527
  862MOL0     O18854   7.855   7.802   4.641  0.3957  0.1354  0.4456
  862MOL0     C18855   7.913   7.664   4.614  0.4615 -0.4852 -0.3751
  862MOL0     C18856   8.017   7.633   4.727  0.9388 -0.2057  0.3770
  862MOL0     C18857   8.108   7.514   4.688  1.0374 -0.4093 -0.5177
  862MOL0     C18858   8.175   7.463   4.817 -1.1295 -0.2484 -0.2806
  862MOL0     C18859   8.288   7.357   4.776 -0.2773  0.4924 -0.3680
  862MOL0     C18860   8.372   7.311   4.902 -0.1191 -1.0273  0.3190
  862MOL0     C18861   8.465   7.187   4.881 -0.4007  0.1377 -0.7076
  862MOL0     C18862   8.611   7.218   4.846 -0.8422  0.5006 -0.1879
  862MOL0    Cl18863   8.624   7.291   4.691 -0.1803  0.1149 -0.0479
  862MOL0     C18864   7.945   7.924   4.456 -0.3946 -0.1309  0.3052
  862MOL0     C18865   7.995   8.035   4.394 -0.0398 -1.3264 -0.4212
  862MOL0     O18866   8.243   8.308   4.585 -1.1100  0.5411 -0.2282
  862MOL0     C18867   8.055   8.542   4.361  0.3193  0.1465 -0.3017
  862MOL0     C18868   8.027   8.679   4.332 -0.2620  0.6903 -0.4620
  862MOL0     N18869   7.943   9.419   4.378 -0.1088 -1.0755 -0.4607
  862MOL0     N18870   7.921   9.546   4.386 -0.0611  0.5421  0.7790
  862MOL0     C18871   7.494  10.013   3.601  0.6084  1.1741 -0.0426
  862MOL0     C18872   7.359  10.048   3.589  0.8713  0.2242  0.8258
  862MOL0     C18873   6.967  10.290   3.613 -0.1892  0.2573 -0.1555
  862MOL0     C18874   6.951  10.347   3.485  0.3179  0.3193  0.0830
  862MOL0     C18875   6.864  10.448   3.452 -0.3035  0.3617  0.1249
  862MOL0     C18876   6.769  10.491   3.540 -0.4113 -0.3853 -1.5449
  862MOL0     O18877   6.678  10.587   3.519  0.6690  0.1735 -0.2668
  862MOL0     C18878   6.718  10.715   3.477  0.4635 -0.0413 -0.4263
  862MOL0     C18879   6.632  10.824   3.545 -0.3090 -0.4884  0.4069
  862MOL0     C18880   6.477  10.814   3.547 -0.2869  0.9480  0.7208
  862MOL0     C18881   6.425  10.713   3.652  0.4192 -0.0800 -0.1693
  862MOL0     C18882   6.495  10.713   3.784  0.0177  0.4553  0.6338
  862MOL0     C18883   6.535  10.729   3.898 -0.3599 -1.1140  0.7459
  862MOL0     C18884   6.759  10.414   3.662 -0.3933 -0.3962 -0.1725
  862MOL0     C18885   6.862  10.323   3.701  0.6441  0.5415 -1.0223
  862MOL0     C18886   6.844  10.272   3.849  0.4274 -0.9573  0.3880
  862MOL0     H18887   7.382  10.379   3.597  0.6504  0.8052  2.8924
  862MOL0     H18888   7.604  10.330   3.645 -0.9215 -0.0765  1.6857
  862MOL0     H18889   7.746  10.199   3.852  1.3384 -0.6856 -0.5853
  862MOL0     H18890   7.815  10.263   3.707  2.3741 -0.5993 -0.0323
  862MOL0     H18891   7.991  10.088   3.715 -0.2489  0.1247 -0.8310
  862MOL0     H18892   7.982  10.160   3.875  0.7497  0.3887 -1.5750
  862MOL0     H18893   7.815   9.988   3.949 -2.2628  0.0856 -2.1741
  862MOL0     H18894   7.865   9.895   3.807 -0.8455  1.0674 -0.4124
  862MOL0     H18895   8.112   9.900   3.895  1.3206  4.3540  1.3530
  862MOL0     H18896   8.042   9.966   4.043 -2.8757 -0.6427  0.7582
  862MOL0     H18897   8.079   9.713   4.044 -0.7949 -1.3162 -1.1489
  862MOL0     H18898   7.954   9.706   3.921  0.5926  2.5807 -1.0070
  862MOL0     H18899   7.801   9.842   4.078  0.7181  1.2860 -0.9377
  862MOL0     H18900   7.847   9.669   4.131 -0.7337  0.5657  1.0154
  862MOL0     H18901   7.818   9.817   4.320 -1.9880 -1.8433 -1.7430
  862MOL0     H18902   7.932   9.934   4.235  2.7197 -1.5406 -1.8052
  862MOL0     H18903   8.122   9.780   4.274 -0.3737 -1.9620  0.3603
  862MOL0     H18904   8.043   9.781   4.421  0.7126 -3.1444  0.4938
  862MOL0     H18905   8.175   9.541   4.182  1.2431 -1.0044  1.8368
  862MOL0     H18906   8.154   9.273   4.160 -1.5766  1.6853  0.0802
  862MOL0     H18907   8.003   9.203   4.224  0.0718 -1.7741  1.3355
  862MOL0     H18908   8.216   9.115   4.293 -0.4751  0.1595 -0.0825
  862MOL0     H18909   8.245   9.266   4.398 -2.6215  1.1681  3.8568
  862MOL0     H18910   8.165   9.112   4.554  1.9361  1.8774 -1.3746
  862MOL0     H18911   8.017   9.197   4.505 -1.6434 -0.7974 -2.9046
  862MOL0     H18912   7.975   8.969   4.535  2.1948  0.7965  1.5252
  862MOL0     H18913   7.935   9.016   4.368  0.5905  1.8471 -1.2643
  862MOL0     H18914   8.222   8.814   4.573  0.5159  1.5248 -0.8390
  862MOL0     H18915   8.331   8.502   4.690 -1.2980 -1.0193 -1.3996
  862MOL0     H18916   8.179   8.514   4.766  0.4490  0.5467 -0.1321
  862MOL0     H18917   8.279   8.662   4.741  0.2355 -0.2043  1.9459
  862MOL0     H18918   8.058   8.202   4.689 -0.8513 -0.4055  0.3173
  862MOL0     H18919   7.949   8.007   4.772  0.1916 -0.3344 -0.8958
  862MOL0     H18920   7.841   7.583   4.602  1.4283 -1.4676  0.3008
  862MOL0     H18921   7.960   7.663   4.515 -1.3376  0.3233 -1.2880
  862MOL0     H18922   8.075   7.725   4.734  0.4006  0.1189  0.6674
  862MOL0     H18923   7.958   7.602   4.813 -1.5465 -0.5953 -1.3528
  862MOL0     H18924   8.183   7.555   4.619  2.7670 -2.3762  0.0990
  862MOL0     H18925   8.047   7.433   4.647 -1.9865  0.2182  2.3481
  862MOL0     H18926   8.107   7.412   4.887  0.0639 -1.1376  0.2856
  862MOL0     H18927   8.228   7.536   4.879 -0.1179 -3.1293  2.5913
  862MOL0     H18928   8.251   7.271   4.719 -2.3690  0.4844  0.8759
  862MOL0     H18929   8.352   7.395   4.697  0.5402  2.0518  0.9848
  862MOL0     H18930   8.311   7.305   4.993 -2.2157  4.6618 -0.2821
  862MOL0     H18931   8.449   7.387   4.916  0.4190 -1.3893 -0.5628
  862MOL0     H18932   8.416   7.116   4.814 -1.1552 -1.0581  1.0457
  862MOL0     H18933   8.474   7.134   4.976  0.6739  0.3046 -0.7014
  862MOL0     H18934   8.662   7.121   4.846  0.3269  1.0725 -2.1561
  862MOL0     H18935   8.657   7.286   4.919 -0.4431  0.4658 -0.4033
  862MOL0     H18936   7.912   7.844   4.391 -1.0880  2.3817 -2.6635
  862MOL0     H18937   7.996   8.034   4.285 -0.3948 -0.1591 -0.4456
  862MOL0     H18938   8.020   8.476   4.282  1.8856 -1.9019  0.6159
  862MOL0     H18939   7.973   8.714   4.244 -0.4505 -0.2673 -0.7473
  862MOL0     H18940   7.525   9.910   3.596 -0.6744  0.7164  0.8695
  862MOL0     H18941   7.292   9.970   3.554  2.4994 -0.8456 -0.0369
  862MOL0     H18942   7.021  10.323   3.405  1.5365  0.1820  1.1439
  862MOL0     H18943   6.871  10.498   3.355  3.1656 -0.8076 -0.3569
  862MOL0     H18944   6.822  10.736   3.503 -0.0595  1.7077  0.4369
  862MOL0     H18945   6.706  10.724   3.369 -1.1552  0.3648 -0.2353
  862MOL0     H18946   6.661  10.917   3.496  1.7350  0.6035  3.3702
  862MOL0     H18947   6.672  10.840   3.646 -0.6788  0.4289  0.4146
  862MOL0     H18948   6.445  10.917   3.567 -2.3073  1.1471 -2.7665
  862MOL0     H18949   6.438  10.796   3.446  4.2060  0.2888 -1.1329
  862MOL0     H18950   6.426  10.613   3.607  3.2477 -1.3807  2.4285
  862MOL0     H18951   6.323  10.753   3.655 -1.1810 -3.7498  0.2030
  862MOL0     H18952   6.576  10.765   3.990  1.0702  2.6970 -1.1650
  862MOL0     H18953   6.683  10.445   3.733 -2.5062  0.1030 -2.5246
  862MOL0     H18954   6.833  10.163   3.855  2.2586 -1.1665  0.4695
  862MOL0     H18955   6.937  10.291   3.905 -0.4339 -0.8313  1.8330
  862MOL0     H18956   6.763  10.323   3.902  0.8174 -0.8702  0.9060
  863MOL0     O18957   4.435   2.653   6.043 -0.6928  0.3835 -0.3315
  863MOL0     C18958   4.523   2.674   5.961  0.0056  0.0633  1.1584
  863MOL0     O18959   4.529   2.783   5.880 -0.7520  0.0554 -0.4172
  863MOL0     C18960   4.408   2.848   5.869  0.9083  0.5559 -0.0591
  863MOL0     C18961   4.368   2.937   5.970  0.0796  0.0772 -0.0430
  863MOL0     C18962   4.234   2.980   5.972  0.4991 -0.5682  1.5103
  863MOL0     C18963   4.142   2.941   5.873 -0.1008  0.1092 -0.3646
  863MOL0     O18964   4.020   3.000   5.853  0.5485  0.1514  0.3348
  863MOL0     C18965   3.923   3.016   5.968  0.7625 -0.6312 -0.0937
  863MOL0     C18966   3.790   3.077   5.926  0.8537  0.2780 -0.1000
  863MOL0     C18967   3.714   2.992   5.824 -0.6782 -0.3444  0.2990
  863MOL0     C18968   3.599   3.066   5.767  0.5028  0.6964  0.5552
  863MOL0     C18969   3.527   2.970   5.670  0.4030 -0.5699  0.3021
  863MOL0     C18970   3.413   3.019   5.568 -0.5923 -0.3289 -0.1093
  863MOL0     C18971   3.336   2.910   5.498  0.8629  0.1821  0.3611
  863MOL0     C18972   3.299   2.972   5.364 -0.3569  1.5229 -0.5189
  863MOL0     N18973   3.191   2.899   5.290 -0.1731  0.3816 -0.4549
  863MOL0     C18974   3.175   2.763   5.295 -0.6405  0.3034 -0.0527
  863MOL0     C18975   3.059   2.732   5.237 -0.0453  0.4934 -0.6885
  863MOL0     C18976   3.002   2.593   5.231 -0.1416  0.4863  0.3906
  863MOL0     C18977   2.939   2.551   5.103 -0.0718 -0.4045  0.6137
  863MOL0     C18978   2.877   2.407   5.120 -0.4839 -0.2622 -0.3534
  863MOL0     C18979   2.924   2.316   5.003 -0.0252 -0.3170 -0.2375
  863MOL0     O18980   3.070   2.303   5.003  0.0243  0.1916  0.5951
  863MOL0     C18981   3.130   2.243   4.890 -0.6042  0.0971 -1.0679
  863MOL0     C18982   3.269   2.225   4.882  0.4141  0.6107  0.4943
  863MOL0     C18983   3.337   2.163   4.773  0.1703 -0.5576 -0.0422
  863MOL0     C18984   3.489   2.138   4.787 -0.6388  0.6397 -0.9756
  863MOL0     C18985   3.255   2.123   4.664 -0.6779  0.4004 -0.2284
  863MOL0     C18986   3.299   2.038   4.551  0.3486  0.5523  0.8146
  863MOL0     O18987   3.218   1.933   4.520  0.3427 -0.1804  0.3657
  863MOL0     C18988   3.259   1.849   4.418  0.4666 -0.2704 -0.4166
  863MOL0     C18989   3.193   1.856   4.292 -0.7894 -0.4111  0.9023
  863MOL0     C18990   3.223   1.772   4.187  0.2045 -0.5661 -1.0411
  863MOL0     C18991   3.325   1.674   4.202  0.2470 -0.5102 -0.2621
  863MOL0     O18992   3.354   1.583   4.117 -0.9512  0.1536 -0.1877
  863MOL0     C18993   3.271   1.544   3.997  0.0460  0.5614 -0.4228
  863MOL0     C18994   3.314   1.633   3.882 -0.8894 -1.2838  0.9438
  863MOL0     C18995   3.304   1.574   3.742  0.0441 -0.5357  0.4351
  863MOL0     C18996   3.405   1.646   3.649  0.9798  0.2003 -0.3104
  863MOL0     C18997   3.358   1.645   3.505  0.7597  0.8436 -0.0582
  863MOL0     C18998   3.469   1.672   3.405 -0.2249  0.3447 -0.2570
  863MOL0     C18999   3.444   1.627   3.257  0.0279  0.4788  0.0582
  863MOL0     C19000   3.377   1.736   3.174  0.5817  0.1699  0.5514
  863MOL0    Cl19001   3.341   1.666   3.013  0.0794  0.5098  0.0705
  863MOL0     C19002   3.398   1.679   4.317 -0.1176  0.3436 -0.3825
  863MOL0     C19003   3.364   1.759   4.428 -1.0942 -0.9281 -1.0178
  863MOL0     O19004   3.392   2.082   4.481 -0.1264  0.6298 -1.2121
  863MOL0     C19005   3.118   2.151   4.671 -0.6579 -0.1311 -0.2508
  863MOL0     C19006   3.058   2.221   4.770  0.1363 -0.5815 -0.5117
  863MOL0     N19007   3.007   2.850   5.184  0.2580 -0.5415 -0.5579
  863MOL0     N19008   3.086   2.943   5.219 -0.1730 -0.2836 -0.2192
  863MOL0     C19009   4.182   2.843   5.774 -0.0989 -0.7766  0.3090
  863MOL0     C19010   4.319   2.811   5.769 -0.4710  0.0351  0.2824
  863MOL0     C19011   4.627   2.578   5.941  0.4468 -0.0457 -0.1337
  863MOL0     C19012   4.746   2.589   6.019 -0.0615  0.7829 -0.1176
  863MOL0     C19013   4.851   2.496   5.992 -0.5406  0.9862  0.0867
  863MOL0     C19014   4.837   2.396   5.894  0.4214 -0.0363 -0.1947
  863MOL0     O19015   4.935   2.300   5.883  0.6857  0.2573  0.0561
  863MOL0     C19016   4.900   2.165   5.914  0.4597 -0.0330 -0.3580
  863MOL0     C19017   4.925   2.137   6.059 -0.6302 -0.0545  0.4971
  863MOL0     C19018   5.069   2.120   6.104 -0.9125 -0.8516 -0.4811
  863MOL0     C19019   5.142   2.255   6.154  0.0578  0.0467  0.3510
  863MOL0     C19020   5.083   2.324   6.271 -0.3560 -0.1873 -0.0764
  863MOL0     C19021   5.018   2.400   6.343  0.4206 -1.2823  0.5874
  863MOL0     C19022   4.711   2.390   5.830  0.8488  0.4497  0.6442
  863MOL0     C19023   4.608   2.476   5.850  0.7664  0.1102  1.2812
  863MOL0     C19024   4.476   2.455   5.769 -0.1593  0.0395 -0.0621
  863MOL0     H19025   4.435   2.970   6.048  0.1728  0.2996 -0.2164
  863MOL0     H19026   4.191   3.042   6.050 -0.0718  2.5596 -1.0936
  863MOL0     H19027   3.973   3.082   6.040 -1.0994 -1.8679  2.4965
  863MOL0     H19028   3.909   2.915   6.008  2.5439  0.7584  4.7459
  863MOL0     H19029   3.727   3.068   6.016  0.8455 -1.0618 -0.2159
  863MOL0     H19030   3.792   3.182   5.898 -1.5647 -0.2533 -2.7596
  863MOL0     H19031   3.780   2.974   5.739  1.0097 -1.0827  1.6959
  863MOL0     H19032   3.675   2.905   5.877 -0.4118 -0.2032  0.7347
  863MOL0     H19033   3.535   3.091   5.851 -0.6103  2.1843 -0.6951
  863MOL0     H19034   3.625   3.158   5.714  1.4622  0.1386  0.0187
  863MOL0     H19035   3.466   2.909   5.737 -2.3286  2.5641  0.9547
  863MOL0     H19036   3.601   2.916   5.611 -0.8903 -0.7132 -1.2571
  863MOL0     H19037   3.351   3.094   5.617  2.0378  1.9808 -0.0587
  863MOL0     H19038   3.446   3.090   5.492 -3.2307  2.1411  0.8732
  863MOL0     H19039   3.252   2.885   5.564  0.5848 -0.1514 -0.1076
  863MOL0     H19040   3.399   2.821   5.487  1.3577  0.6335 -0.5805
  863MOL0     H19041   3.263   3.074   5.382 -0.4076  1.8333 -2.1737
  863MOL0     H19042   3.382   2.991   5.295  2.1065 -3.7411  0.5368
  863MOL0     H19043   3.242   2.689   5.338  0.6188  0.5371 -1.5463
  863MOL0     H19044   2.936   2.581   5.317  0.1624 -0.3579  0.5156
  863MOL0     H19045   3.085   2.523   5.243  1.4315  1.8105 -2.0267
  863MOL0     H19046   2.851   2.612   5.077 -2.2405 -1.8471  3.8411
  863MOL0     H19047   3.010   2.557   5.020 -0.9064 -0.9326 -0.1582
  863MOL0     H19048   2.916   2.374   5.217 -0.5573  5.0994  1.8880
  863MOL0     H19049   2.768   2.406   5.126 -0.4695 -0.2385 -0.0499
  863MOL0     H19050   2.867   2.223   5.010 -0.4254 -0.0517  0.0611
  863MOL0     H19051   2.881   2.365   4.915  1.9439 -2.3522 -2.4901
  863MOL0     H19052   3.329   2.244   4.971 -0.2207 -0.9799  1.3033
  863MOL0     H19053   3.496   2.085   4.882 -3.8146 -1.0996 -1.5619
  863MOL0     H19054   3.544   2.233   4.784 -1.3182  1.0228 -2.0967
  863MOL0     H19055   3.536   2.080   4.707 -0.8807 -0.4901 -0.3237
  863MOL0     H19056   3.114   1.930   4.282 -3.3825 -3.1656 -0.8447
  863MOL0     H19057   3.172   1.777   4.091 -2.0757  2.4994  0.1858
  863MOL0     H19058   3.291   1.437   3.981 -1.4995 -0.4637  3.2746
  863MOL0     H19059   3.162   1.546   4.007 -0.2553  0.9893 -3.0777
  863MOL0     H19060   3.266   1.731   3.886  1.4065 -0.0310  0.0474
  863MOL0     H19061   3.415   1.669   3.905 -0.9396  0.0767 -0.7972
  863MOL0     H19062   3.201   1.574   3.704 -0.2902 -0.4754  1.3308
  863MOL0     H19063   3.336   1.470   3.751  1.5385 -0.0592  0.8915
  863MOL0     H19064   3.496   1.587   3.661 -1.1295 -3.1624  0.6520
  863MOL0     H19065   3.418   1.751   3.674  0.3418  1.1999 -3.7335
  863MOL0     H19066   3.321   1.543   3.489  1.4362  0.7045 -0.7906
  863MOL0     H19067   3.280   1.722   3.504  2.4003  2.5985  1.0864
  863MOL0     H19068   3.560   1.633   3.452 -0.4428  2.7179  2.3777
  863MOL0     H19069   3.493   1.778   3.411  0.9893  0.2245 -2.0429
  863MOL0     H19070   3.378   1.540   3.254  1.2532 -0.4770 -2.2189
  863MOL0     H19071   3.540   1.595   3.215  0.0607 -0.3149  0.6986
  863MOL0     H19072   3.457   1.809   3.165  1.8830 -1.2753 -0.1379
  863MOL0     H19073   3.286   1.779   3.218  0.1993 -0.8872  0.8515
  863MOL0     H19074   3.488   1.618   4.325  0.0420  0.5942 -0.2763
  863MOL0     H19075   3.417   1.769   4.522  5.2296 -0.6977 -4.0675
  863MOL0     H19076   3.059   2.124   4.584 -1.0193 -0.7296  0.1674
  863MOL0     H19077   2.954   2.247   4.757  0.5661  1.4732 -0.2648
  863MOL0     H19078   4.108   2.818   5.698  0.3889  1.3886 -0.9899
  863MOL0     H19079   4.349   2.761   5.678  0.5228  3.4636 -1.4409
  863MOL0     H19080   4.759   2.654   6.105 -2.1667 -1.2393  1.8878
  863MOL0     H19081   4.946   2.505   6.045 -1.1406 -1.0560  1.6517
  863MOL0     H19082   4.794   2.142   5.898  0.8385 -1.8302 -0.5239
  863MOL0     H19083   4.957   2.083   5.869  0.3193 -2.0651  2.8286
  863MOL0     H19084   4.887   2.037   6.083 -2.7310  0.2576 -1.1860
  863MOL0     H19085   4.879   2.216   6.119  0.4097  1.5447 -0.7048
  863MOL0     H19086   5.074   2.060   6.196 -1.2912  0.0518  0.1490
  863MOL0     H19087   5.146   2.082   6.036  1.3989  1.8784  0.4320
  863MOL0     H19088   5.159   2.326   6.073  0.0104 -2.0679 -1.6247
  863MOL0     H19089   5.245   2.231   6.183  0.8475 -1.4589 -3.1569
  863MOL0     H19090   4.975   2.469   6.412 -0.4524  0.5389 -1.6710
  863MOL0     H19091   4.695   2.303   5.767  1.2749  0.4058  0.5930
  863MOL0     H19092   4.393   2.442   5.839  0.1303  0.9590  0.4672
  863MOL0     H19093   4.451   2.539   5.704  1.9610 -0.5045 -1.7098
  863MOL0     H19094   4.476   2.363   5.709  1.1143  0.4436 -0.7161
  864MOL0     O19095   9.148   6.824   7.051 -0.4872  0.5571  1.1770
  864MOL0     C19096   9.107   6.701   7.076 -1.3811  0.6874  0.6168
  864MOL0     O19097   9.094   6.603   6.984 -0.5114 -0.0673  0.1261
  864MOL0     C19098   9.138   6.626   6.852 -0.1808  0.2903 -0.1004
  864MOL0     C19099   9.282   6.644   6.830  0.3783  0.0437  0.1379
  864MOL0     C19100   9.330   6.665   6.695  1.5677  0.4241  0.5807
  864MOL0     C19101   9.245   6.658   6.589  0.3189 -0.5859  0.0559
  864MOL0     O19102   9.278   6.674   6.454  0.2183 -0.7171 -0.3944
  864MOL0     C19103   9.352   6.786   6.434  0.4333 -0.3931 -0.0585
  864MOL0     C19104   9.483   6.741   6.364 -0.5724  0.7759 -0.4645
  864MOL0     C19105   9.574   6.644   6.440  0.3338  0.7528  0.4963
  864MOL0     C19106   9.696   6.601   6.354 -0.0706  0.0844  0.0255
  864MOL0     C19107   9.776   6.499   6.425 -0.1958  0.3927  0.3935
  864MOL0     C19108   9.689   6.369   6.445  1.0265  0.0494 -0.5684
  864MOL0     C19109   9.773   6.250   6.492 -0.4615 -0.2695  0.1751
  864MOL0     C19110   9.684   6.130   6.493  0.4595 -0.1563  0.0102
  864MOL0     N19111   9.595   6.133   6.610  0.4370  0.4494 -0.2198
  864MOL0     C19112   9.451   6.121   6.609  0.2322 -0.3603  0.0990
  864MOL0     C19113   9.416   6.092   6.730 -0.6762  0.5327 -0.4808
  864MOL0     C19114   9.275   6.068   6.769  0.3082 -0.3873  0.0930
  864MOL0     C19115   9.199   6.194   6.819  0.4271  0.0851  0.8165
  864MOL0     C19116   9.051   6.162   6.876 -0.1672  0.5645 -0.4897
  864MOL0     C19117   8.978   6.278   6.943 -0.2780 -0.2309 -0.6821
  864MOL0     O19118   8.999   6.273   7.084  0.1388  0.2947  0.2204
  864MOL0     C19119   8.940   6.176   7.162 -0.6186  0.1068  0.6923
  864MOL0     C19120   8.984   6.158   7.296 -0.1940 -0.1291  0.4506
  864MOL0     C19121   8.934   6.049   7.372  0.5711  0.6092 -0.0051
  864MOL0     C19122   8.995   6.033   7.506  0.3081  0.8424 -0.2479
  864MOL0     C19123   8.822   5.978   7.327  0.3000  0.4222  0.7547
  864MOL0     C19124   8.742   5.874   7.395 -0.1137 -0.1661 -0.0377
  864MOL0     O19125   8.668   5.788   7.326 -0.0961  0.4847  0.4964
  864MOL0     C19126   8.579   5.698   7.389 -0.3418 -0.0976 -0.1801
  864MOL0     C19127   8.611   5.560   7.378 -0.4977  0.8092 -0.5104
  864MOL0     C19128   8.523   5.460   7.430  0.5379 -1.0175  0.0904
  864MOL0     C19129   8.407   5.506   7.493  0.7968 -0.3682 -1.0377
  864MOL0     O19130   8.311   5.422   7.548 -0.9706  0.1273  0.4772
  864MOL0     C19131   8.333   5.279   7.551 -0.6703  0.1923 -0.6049
  864MOL0     C19132   8.228   5.202   7.635 -0.3824 -0.7144  0.1120
  864MOL0     C19133   8.222   5.246   7.783 -0.8278 -0.6759 -0.7936
  864MOL0     C19134   8.086   5.233   7.852 -0.4443  0.4137 -1.3429
  864MOL0     C19135   8.106   5.263   7.997 -0.0874  0.0152  0.9503
  864MOL0     C19136   7.979   5.319   8.066  0.1150 -0.6525 -0.2572
  864MOL0     C19137   7.854   5.224   8.062 -0.3557  0.2862  0.0682
  864MOL0     C19138   7.878   5.089   8.140  0.3035 -0.9025  0.2857
  864MOL0    Cl19139   7.732   4.984   8.130 -0.1159 -0.0312  0.5099
  864MOL0     C19140   8.380   5.648   7.501  0.3919 -0.4731  0.5449
  864MOL0     C19141   8.475   5.740   7.452  0.2796  0.7155 -0.8901
  864MOL0     O19142   8.746   5.882   7.520  0.0578 -0.2679 -0.1393
  864MOL0     C19143   8.776   6.013   7.193 -0.1360  0.4412  0.4216
  864MOL0     C19144   8.835   6.103   7.110  0.8692 -0.4323  0.6445
  864MOL0     N19145   9.533   6.080   6.806 -0.0927  0.3638  0.2720
  864MOL0     N19146   9.637   6.098   6.736 -0.5610  0.1665  0.6105
  864MOL0     C19147   9.108   6.625   6.617  0.4340 -1.3280  0.7511
  864MOL0     C19148   9.063   6.594   6.744  0.2718 -0.7652 -0.9000
  864MOL0     C19149   9.070   6.671   7.215  0.2294 -0.4046 -0.2762
  864MOL0     C19150   8.973   6.577   7.243 -0.5609  1.1114  0.6672
  864MOL0     C19151   8.940   6.543   7.369  0.0488 -0.1130 -0.7381
  864MOL0     C19152   8.995   6.612   7.483 -0.2348 -0.8325  0.4059
  864MOL0     O19153   8.978   6.562   7.610 -0.2279  0.7610 -0.2731
  864MOL0     C19154   8.848   6.516   7.648 -0.0557  0.6877  0.2515
  864MOL0     C19155   8.825   6.539   7.793 -0.1772 -0.1937 -1.1267
  864MOL0     C19156   8.945   6.530   7.890  0.5614  0.3064 -0.5210
  864MOL0     C19157   8.937   6.398   7.973 -1.0044  0.4619 -0.4438
  864MOL0     C19158   8.965   6.282   7.886  0.2954 -0.4406 -0.6428
  864MOL0     C19159   8.981   6.173   7.836  0.6092  1.1786  0.2289
  864MOL0     C19160   9.091   6.710   7.465  0.7235  0.1671 -0.3657
  864MOL0     C19161   9.134   6.735   7.330  0.0092 -0.7726  0.6461
  864MOL0     C19162   9.263   6.807   7.318  0.3689  0.2394  0.2770
  864MOL0     H19163   9.350   6.657   6.913  0.3032  1.2611  0.0259
  864MOL0     H19164   9.435   6.691   6.687  1.8116  0.3404  2.9210
  864MOL0     H19165   9.363   6.847   6.524 -0.3523 -0.7709  0.3037
  864MOL0     H19166   9.293   6.846   6.364 -1.0662  0.0850  1.5689
  864MOL0     H19167   9.443   6.679   6.283  1.5276  0.7114 -1.5081
  864MOL0     H19168   9.534   6.826   6.318 -2.0824  1.8998 -0.1844
  864MOL0     H19169   9.616   6.681   6.535 -0.3105  1.3571  0.5559
  864MOL0     H19170   9.510   6.559   6.462 -2.1067  1.8486 -1.7854
  864MOL0     H19171   9.653   6.571   6.259 -3.2002  1.0066  1.0313
  864MOL0     H19172   9.764   6.681   6.323  0.0778 -0.4718 -1.0984
  864MOL0     H19173   9.801   6.537   6.524  0.8149 -4.6340  2.3502
  864MOL0     H19174   9.862   6.469   6.364  1.3124  0.1150  2.5609
  864MOL0     H19175   9.617   6.370   6.528  0.6564  0.0787 -0.8843
  864MOL0     H19176   9.630   6.352   6.354  0.4205  2.1493 -0.6092
  864MOL0     H19177   9.816   6.272   6.591 -0.8650 -0.8567  0.4858
  864MOL0     H19178   9.856   6.238   6.422  0.0072 -1.0766  0.8492
  864MOL0     H19179   9.619   6.113   6.405 -1.0368 -0.6079  1.1512
  864MOL0     H19180   9.737   6.034   6.496 -0.7806 -0.9515 -1.4574
  864MOL0     H19181   9.392   6.112   6.518  1.4869  0.4409 -0.8305
  864MOL0     H19182   9.266   5.994   6.849 -3.3118 -1.3042 -0.9824
  864MOL0     H19183   9.231   6.026   6.678 -2.3877 -2.1598  2.0616
  864MOL0     H19184   9.258   6.240   6.899  0.4678  0.5888  0.5019
  864MOL0     H19185   9.202   6.267   6.738  0.2261 -1.7673 -0.9563
  864MOL0     H19186   8.991   6.131   6.789  0.0070  1.4620 -0.9410
  864MOL0     H19187   9.061   6.075   6.942  0.9035  0.6483 -0.5227
  864MOL0     H19188   9.015   6.372   6.900 -3.6336  1.4481 -0.2047
  864MOL0     H19189   8.874   6.281   6.911 -0.8311 -1.9901  0.7506
  864MOL0     H19190   9.052   6.232   7.339 -0.3204 -0.0562  0.5295
  864MOL0     H19191   9.018   5.927   7.520 -1.0253  0.3221 -1.7565
  864MOL0     H19192   8.929   6.075   7.582  1.3254  1.9306  0.0653
  864MOL0     H19193   9.090   6.086   7.512  1.1613 -0.7843  1.7866
  864MOL0     H19194   8.704   5.524   7.336  1.0215  3.3544  0.4777
  864MOL0     H19195   8.543   5.354   7.418 -0.6443 -1.5020  1.9085
  864MOL0     H19196   8.329   5.249   7.446 -2.0486 -1.9106 -0.0102
  864MOL0     H19197   8.434   5.268   7.592  0.2295  1.9716 -2.1752
  864MOL0     H19198   8.131   5.210   7.586 -1.1295  0.6426  1.7269
  864MOL0     H19199   8.254   5.096   7.630 -0.3560 -0.6665 -1.6547
  864MOL0     H19200   8.238   5.354   7.785 -3.0171 -0.3156 -0.2731
  864MOL0     H19201   8.293   5.182   7.838 -2.9007 -1.5448  1.0596
  864MOL0     H19202   8.053   5.129   7.838  0.4708  0.1368 -1.5699
  864MOL0     H19203   8.017   5.299   7.799  1.6606  1.3786 -3.0482
  864MOL0     H19204   8.142   5.175   8.052 -1.3844 -1.1689 -0.0386
  864MOL0     H19205   8.187   5.336   7.997  0.4519 -0.5510 -0.2024
  864MOL0     H19206   7.955   5.413   8.016 -0.1711 -0.4173  0.3129
  864MOL0     H19207   7.995   5.349   8.170 -0.3361 -0.4062 -0.2536
  864MOL0     H19208   7.836   5.209   7.955 -2.8751 -4.4169  0.8474
  864MOL0     H19209   7.767   5.270   8.110 -0.1569 -2.3825  3.4024
  864MOL0     H19210   7.906   5.104   8.245 -1.9357 -3.3987  1.3672
  864MOL0     H19211   7.954   5.044   8.076  0.6993  2.4108 -1.8028
  864MOL0     H19212   8.282   5.677   7.539  0.2658  0.4640 -0.4474
  864MOL0     H19213   8.450   5.845   7.455 -0.9108  0.5092  3.5059
  864MOL0     H19214   8.686   5.966   7.154 -0.9696  3.1657 -1.2169
  864MOL0     H19215   8.791   6.118   7.012  0.7307  0.4225  0.8263
  864MOL0     H19216   9.046   6.617   6.528  0.2278  1.7365  0.5136
  864MOL0     H19217   8.958   6.567   6.754 -0.3130  1.2931 -1.0926
  864MOL0     H19218   8.930   6.521   7.160  2.6676 -0.2073 -0.2506
  864MOL0     H19219   8.866   6.465   7.386  0.7720 -0.7244 -0.3105
  864MOL0     H19220   8.774   6.571   7.590 -0.2696 -1.4574 -1.6582
  864MOL0     H19221   8.844   6.410   7.619  2.4359  0.9406 -1.3272
  864MOL0     H19222   8.741   6.477   7.827  1.4253 -0.4349  3.0620
  864MOL0     H19223   8.795   6.644   7.795  1.3316  0.3411  2.5180
  864MOL0     H19224   9.037   6.537   7.831  0.5290 -0.6961 -0.7202
  864MOL0     H19225   8.938   6.610   7.965  0.1832 -0.1005 -0.1139
  864MOL0     H19226   8.842   6.386   8.026 -0.1300  2.0700  1.6656
  864MOL0     H19227   9.015   6.417   8.047  0.3547 -2.6456 -0.9669
  864MOL0     H19228   8.993   6.075   7.796 -3.8633 -0.0120  1.2842
  864MOL0     H19229   9.145   6.763   7.543 -0.9193 -0.7027  1.4338
  864MOL0     H19230   9.238   6.907   7.280  3.8367  0.3783 -2.1379
  864MOL0     H19231   9.314   6.796   7.414 -0.7419 -2.8196  0.6286
  864MOL0     H19232   9.334   6.774   7.241  2.8224 -1.9747  3.2591
  865MOL0     O19233   2.523   4.177   7.526  0.6884 -0.0133  0.3200
  865MOL0     C19234   2.632   4.125   7.494 -0.1075  0.1161  0.1723
  865MOL0     O19235   2.721   4.183   7.398 -0.3355  0.6369 -1.0387
  865MOL0     C19236   2.677   4.276   7.306 -0.0097 -0.1976  0.2407
  865MOL0     C19237   2.545   4.274   7.247 -1.6270 -0.9483  0.4468
  865MOL0     C19238   2.503   4.382   7.157  0.1134 -0.5068 -0.0762
  865MOL0     C19239   2.601   4.472   7.107  0.6064 -0.1506  0.3690
  865MOL0     O19240   2.564   4.571   7.016  0.0902 -0.5555 -0.3784
  865MOL0     C19241   2.542   4.517   6.883  0.1894 -0.2464  0.3556
  865MOL0     C19242   2.480   4.618   6.785 -0.7964  0.3829 -0.6064
  865MOL0     C19243   2.530   4.763   6.782  0.0364  0.0351 -0.7493
  865MOL0     C19244   2.680   4.784   6.748  0.0944 -0.3778  0.0728
  865MOL0     C19245   2.738   4.703   6.628  0.4348 -0.5314 -0.7678
  865MOL0     C19246   2.682   4.747   6.496 -0.6272  0.6825 -0.4806
  865MOL0     C19247   2.548   4.661   6.450 -0.3944  0.3978  0.9018
  865MOL0     C19248   2.507   4.708   6.301  0.1684 -0.1030 -0.6743
  865MOL0     N19249   2.588   4.652   6.192 -0.3836  0.5492 -0.4307
  865MOL0     C19250   2.606   4.697   6.067 -0.1211  0.4569 -0.0544
  865MOL0     C19251   2.697   4.608   6.010  0.4936 -0.0787  0.0795
  865MOL0     C19252   2.773   4.609   5.874  0.8502 -0.3478  0.3251
  865MOL0     C19253   2.921   4.621   5.869 -0.7325  0.2738  0.1453
  865MOL0     C19254   2.974   4.626   5.727  0.1489  0.1741  0.5225
  865MOL0     C19255   2.919   4.528   5.614  0.6236 -0.0389 -1.2049
  865MOL0     O19256   2.920   4.389   5.646 -0.1540  0.1864  0.1305
  865MOL0     C19257   2.952   4.291   5.558  0.1120  0.4755  0.7894
  865MOL0     C19258   2.951   4.163   5.600 -0.4558 -0.1238  0.1069
  865MOL0     C19259   2.988   4.053   5.518  0.0727  0.2112  0.3127
  865MOL0     C19260   3.027   3.914   5.571 -0.0938  1.2312  0.1530
  865MOL0     C19261   3.006   4.078   5.382  0.5917 -0.4504  0.2399
  865MOL0     C19262   3.025   3.975   5.280 -0.8068 -1.6809 -0.3434
  865MOL0     O19263   2.929   3.874   5.270 -0.2304 -0.1025  0.1674
  865MOL0     C19264   2.956   3.741   5.233  0.7252 -0.6722  0.6940
  865MOL0     C19265   2.844   3.668   5.184 -0.5779 -0.4293 -0.0486
  865MOL0     C19266   2.854   3.532   5.152 -0.1991  0.5354 -1.2661
  865MOL0     C19267   2.972   3.469   5.155 -0.0841  0.0678 -0.6974
  865MOL0     O19268   2.978   3.334   5.139 -0.3715 -0.6215 -0.3456
  865MOL0     C19269   2.906   3.247   5.230 -0.1332  0.0083 -0.5926
  865MOL0     C19270   2.903   3.289   5.381 -0.0048 -0.4243  0.1923
  865MOL0     C19271   3.040   3.286   5.444  0.4164 -0.6995  0.9221
  865MOL0     C19272   3.031   3.343   5.574 -0.4049 -0.5782 -0.6133
  865MOL0     C19273   3.106   3.254   5.684 -0.1363 -0.0297 -0.8976
  865MOL0     C19274   3.041   3.112   5.688 -0.3744 -1.0183 -0.4110
  865MOL0     C19275   3.096   3.022   5.803  0.3594 -0.3403  0.8665
  865MOL0     C19276   3.010   2.900   5.818  0.4471 -0.8247 -0.0259
  865MOL0    Cl19277   2.989   2.808   5.659 -0.0813  0.1083  0.2755
  865MOL0     C19278   3.084   3.542   5.197  0.1794  0.0365 -0.4979
  865MOL0     C19279   3.075   3.675   5.239 -0.1470  0.7490  0.0372
  865MOL0     O19280   3.134   3.989   5.221  0.0728  0.1283 -0.8121
  865MOL0     C19281   2.999   4.210   5.337 -0.1123  1.0944 -0.4700
  865MOL0     C19282   2.980   4.314   5.425 -0.4643  0.7187  0.5399
  865MOL0     N19283   2.719   4.506   6.101  0.0067 -0.7563  0.2570
  865MOL0     N19284   2.670   4.538   6.214 -0.8932 -1.0154 -0.5565
  865MOL0     C19285   2.736   4.459   7.157 -0.0790  0.0701 -0.0551
  865MOL0     C19286   2.772   4.368   7.256  0.1517 -0.0392 -0.0973
  865MOL0     C19287   2.674   3.999   7.565  0.5000 -0.3878 -0.2106
  865MOL0     C19288   2.601   3.955   7.680  0.1512  0.2648 -0.9086
  865MOL0     C19289   2.641   3.840   7.756  0.0086 -0.6176  0.4993
  865MOL0     C19290   2.749   3.764   7.707  0.3089  0.0142 -0.7932
  865MOL0     O19291   2.805   3.651   7.748  0.1260  1.4178 -0.3762
  865MOL0     C19292   2.731   3.561   7.830  0.2093  0.0971  0.5548
  865MOL0     C19293   2.801   3.422   7.823 -0.8888 -0.2647  0.2506
  865MOL0     C19294   2.741   3.313   7.907  0.3324 -0.1107 -0.3175
  865MOL0     C19295   2.839   3.293   8.035  0.8428  0.7990  2.0972
  865MOL0     C19296   2.844   3.411   8.126 -0.5526  0.1228 -0.4630
  865MOL0     C19297   2.842   3.515   8.186 -0.3951  0.5286 -0.3451
  865MOL0     C19298   2.809   3.811   7.594  0.2563  0.2322  0.5929
  865MOL0     C19299   2.781   3.922   7.517  0.0681  0.2529  1.2296
  865MOL0     C19300   2.864   3.954   7.401  1.2020 -0.5356 -0.3291
  865MOL0     H19301   2.462   4.205   7.261 -3.9558  1.3114 -1.1595
  865MOL0     H19302   2.403   4.380   7.115  0.3656 -0.7392 -0.6816
  865MOL0     H19303   2.478   4.431   6.907  0.0416 -0.7205 -1.5755
  865MOL0     H19304   2.637   4.481   6.841  0.1844  0.3652 -0.1829
  865MOL0     H19305   2.491   4.572   6.686 -1.9563  0.6140 -0.8548
  865MOL0     H19306   2.373   4.629   6.803 -1.0675 -0.6112 -1.4941
  865MOL0     H19307   2.465   4.821   6.717 -2.4677 -0.2504  1.3590
  865MOL0     H19308   2.522   4.811   6.881  1.5541 -0.7179 -0.2315
  865MOL0     H19309   2.703   4.887   6.719 -0.7859  0.4135  1.9935
  865MOL0     H19310   2.743   4.766   6.836 -0.7234  1.1474  1.0064
  865MOL0     H19311   2.711   4.598   6.642 -1.6083  0.0188 -0.2249
  865MOL0     H19312   2.844   4.730   6.629  0.2225  0.3682  0.4143
  865MOL0     H19313   2.652   4.852   6.500  0.7540  1.1118 -0.8357
  865MOL0     H19314   2.756   4.732   6.417 -0.5187  0.0295 -0.2569
  865MOL0     H19315   2.459   4.681   6.509 -0.5768  1.1143  0.3969
  865MOL0     H19316   2.570   4.554   6.444  0.2011  0.5869 -1.4017
  865MOL0     H19317   2.401   4.685   6.287  0.0402 -0.9721  1.4399
  865MOL0     H19318   2.508   4.817   6.306 -4.6426  0.2123 -1.8394
  865MOL0     H19319   2.567   4.788   6.023 -1.4684  0.6690  1.4969
  865MOL0     H19320   2.736   4.698   5.823  0.7543  0.1144  1.1882
  865MOL0     H19321   2.738   4.518   5.825 -3.6085  0.8344  0.9231
  865MOL0     H19322   2.963   4.704   5.926  2.4929 -2.2289  1.8007
  865MOL0     H19323   2.966   4.532   5.914 -0.6062  0.6125  0.6930
  865MOL0     H19324   2.973   4.727   5.684  3.3190 -0.5784 -1.7221
  865MOL0     H19325   3.078   4.594   5.741  0.5552  0.6859 -1.0782
  865MOL0     H19326   2.824   4.578   5.594  0.8668  1.5075  1.0717
  865MOL0     H19327   2.988   4.548   5.532  1.6732 -2.4086 -0.9868
  865MOL0     H19328   2.928   4.144   5.704 -0.3597 -2.8665 -0.2912
  865MOL0     H19329   3.041   3.922   5.679  0.8274  0.6887  0.0820
  865MOL0     H19330   3.126   3.887   5.531  0.6420  4.0420 -0.2114
  865MOL0     H19331   2.944   3.847   5.548  1.5108 -0.5778 -0.6073
  865MOL0     H19332   2.754   3.727   5.171 -0.2539 -0.5377 -4.4174
  865MOL0     H19333   2.768   3.472   5.121  1.2426 -2.4394  0.1057
  865MOL0     H19334   2.801   3.229   5.206 -2.1071  3.2845  4.1879
  865MOL0     H19335   2.951   3.147   5.222  0.4047  0.3077 -1.5195
  865MOL0     H19336   2.861   3.390   5.388  0.1942 -0.0951 -2.2872
  865MOL0     H19337   2.829   3.221   5.424  0.4262 -2.0619 -1.5002
  865MOL0     H19338   3.104   3.352   5.385 -1.3373  0.2785  0.0556
  865MOL0     H19339   3.081   3.185   5.429  3.4428  0.9300 -4.4182
  865MOL0     H19340   2.926   3.351   5.602  0.1692  2.3567  1.0984
  865MOL0     H19341   3.073   3.444   5.566  1.0311 -1.2870 -3.7814
  865MOL0     H19342   3.213   3.249   5.660  0.1037  1.9858 -0.4772
  865MOL0     H19343   3.099   3.309   5.778 -0.3984  0.5514 -1.2437
  865MOL0     H19344   3.052   3.062   5.592 -0.8219  2.2936 -2.3221
  865MOL0     H19345   2.932   3.124   5.686 -0.6141 -2.5586 -3.8580
  865MOL0     H19346   3.100   3.081   5.895 -0.2791  1.5565 -0.2769
  865MOL0     H19347   3.198   3.006   5.768 -0.2124 -0.2274 -0.9655
  865MOL0     H19348   2.917   2.912   5.875  0.6930 -0.8146  0.3737
  865MOL0     H19349   3.068   2.839   5.888  0.0244 -2.1194 -0.7640
  865MOL0     H19350   3.179   3.494   5.216 -1.1420 -2.2578  0.8262
  865MOL0     H19351   3.166   3.723   5.273 -0.5294  2.7054 -1.4902
  865MOL0     H19352   3.006   4.235   5.231  2.3807  3.1643  0.0649
  865MOL0     H19353   2.979   4.417   5.390  2.7303  2.0318  3.6977
  865MOL0     H19354   2.812   4.528   7.121  1.4201  0.3962  3.2839
  865MOL0     H19355   2.869   4.356   7.303 -1.5266 -1.0560  3.4944
  865MOL0     H19356   2.510   4.003   7.714  0.3856  0.6905 -0.8792
  865MOL0     H19357   2.583   3.808   7.842 -1.7910  2.8198  0.7421
  865MOL0     H19358   2.727   3.599   7.933 -2.1213  0.1338  0.5023
  865MOL0     H19359   2.631   3.550   7.787  0.6736  1.8871 -1.0786
  865MOL0     H19360   2.909   3.418   7.839 -0.8845 -2.2953 -0.0351
  865MOL0     H19361   2.783   3.388   7.720 -1.5344 -1.2150  0.6698
  865MOL0     H19362   2.645   3.353   7.938  0.1325 -0.4422 -0.5057
  865MOL0     H19363   2.721   3.223   7.849 -2.7579 -1.8584  3.0374
  865MOL0     H19364   2.932   3.254   7.994  0.6764  2.8299 -0.4522
  865MOL0     H19365   2.791   3.223   8.104  0.7734 -1.7281 -0.3545
  865MOL0     H19366   2.844   3.608   8.239  1.4086  0.8574 -0.8949
  865MOL0     H19367   2.885   3.740   7.562 -1.9935 -1.7824 -0.6301
  865MOL0     H19368   2.809   3.977   7.309 -0.0536  0.6596  0.6713
  865MOL0     H19369   2.947   4.020   7.426  1.2873 -0.3323 -1.1347
  865MOL0     H19370   2.926   3.867   7.380  2.3073 -0.4489  2.1971
  866MOL0     O19371   2.250   2.507   0.375  0.0759  0.9743 -0.3006
  866MOL0     C19372   2.281   2.548   0.486  0.7356  1.0891  0.2472
  866MOL0     O19373   2.342   2.658   0.503 -0.0094 -0.4467  0.8236
  866MOL0     C19374   2.445   2.691   0.410 -0.4353  0.4485 -0.4730
  866MOL0     C19375   2.454   2.822   0.370 -0.7654  0.2012  0.2833
  866MOL0     C19376   2.569   2.862   0.288  0.2437 -0.3127 -0.1512
  866MOL0     C19377   2.671   2.766   0.253  1.0650 -0.5747  0.1093
  866MOL0     O19378   2.776   2.810   0.167  0.5834 -0.3537 -0.2678
  866MOL0     C19379   2.836   2.712   0.085  0.3058  0.0726 -0.0020
  866MOL0     C19380   2.903   2.762  -0.033 -0.9458  0.5436 -0.3709
  866MOL0     C19381   2.819   2.853  -0.112 -0.6095  0.2792 -0.4086
  866MOL0     C19382   2.841   2.869  -0.264 -0.0394  0.0474 -0.8170
  866MOL0     C19383   2.772   2.997  -0.329  0.0394  0.3119  0.8451
  866MOL0     C19384   2.754   2.974  -0.482 -0.5979  0.2993 -0.2702
  866MOL0     C19385   2.688   3.091  -0.551  0.2548  0.5641  0.3834
  866MOL0     C19386   2.533   3.091  -0.530 -0.2210  0.3989 -0.2415
  866MOL0     N19387   2.464   3.215  -0.578 -0.7888  0.2204 -0.2014
  866MOL0     C19388   2.398   3.309  -0.510 -0.1663 -0.0250  0.2546
  866MOL0     C19389   2.374   3.399  -0.605  1.0866 -1.3926 -0.3258
  866MOL0     C19390   2.289   3.526  -0.570 -0.0018 -0.2920  0.2248
  866MOL0     C19391   2.144   3.490  -0.582 -0.2262 -0.0601 -0.0079
  866MOL0     C19392   2.071   3.560  -0.470  0.2933 -0.1629  0.0034
  866MOL0     C19393   1.923   3.543  -0.493  0.5103  1.4417 -1.2645
  866MOL0     O19394   1.849   3.603  -0.390  0.8008  0.5480 -0.1277
  866MOL0     C19395   1.715   3.623  -0.406 -0.3330  1.5560 -0.2338
  866MOL0     C19396   1.640   3.572  -0.511  0.2102 -0.2269  0.6310
  866MOL0     C19397   1.498   3.575  -0.505  1.3532  0.0325  0.4175
  866MOL0     C19398   1.424   3.526  -0.628  0.3137  0.2702 -0.3336
  866MOL0     C19399   1.434   3.643  -0.401 -0.4831  0.0903  0.3170
  866MOL0     C19400   1.291   3.664  -0.394 -0.5640  0.0266  0.5676
  866MOL0     O19401   1.253   3.703  -0.270  0.6146  0.2471 -0.2698
  866MOL0     C19402   1.121   3.700  -0.230  0.3164 -0.4845 -1.1231
  866MOL0     C19403   1.021   3.769  -0.293  0.4634 -0.2041 -0.3166
  866MOL0     C19404   0.895   3.782  -0.221 -0.7715  0.4577  0.1962
  866MOL0     C19405   0.879   3.712  -0.101  0.1100  0.0456  0.2837
  866MOL0     O19406   0.764   3.724  -0.037 -0.4603  0.0492 -0.4851
  866MOL0     C19407   0.741   3.853   0.020  0.3603 -0.1515  0.1500
  866MOL0     C19408   0.617   3.917  -0.045 -0.3102  0.6091  0.1547
  866MOL0     C19409   0.613   4.070  -0.008 -0.5688  0.6064  0.1593
  866MOL0     C19410   0.484   4.141  -0.028  0.3989 -0.8990 -0.0191
  866MOL0     C19411   0.484   4.264   0.074 -0.0069 -0.4052  0.1926
  866MOL0     C19412   0.464   4.229   0.226 -0.3899  0.2162 -0.2409
  866MOL0     C19413   0.465   4.371   0.295  0.2530  0.0196 -0.3132
  866MOL0     C19414   0.509   4.361   0.438 -0.0131 -0.1428  0.0958
  866MOL0    Cl19415   0.542   4.517   0.510  0.1663  0.1527  0.1338
  866MOL0     C19416   0.982   3.632  -0.047  0.4541 -0.1134 -0.8074
  866MOL0     C19417   1.105   3.630  -0.108  1.3152 -0.2425  0.6110
  866MOL0     O19418   1.222   3.680  -0.495  0.4252  0.5766 -0.5875
  866MOL0     C19419   1.519   3.693  -0.300  0.2254  1.0635  0.0938
  866MOL0     C19420   1.654   3.681  -0.302 -0.1413 -0.0261  0.0665
  866MOL0     N19421   2.421   3.366  -0.724 -0.3548 -0.0806  0.2463
  866MOL0     N19422   2.473   3.252  -0.706 -0.5257 -0.3944 -0.4399
  866MOL0     C19423   2.652   2.638   0.294 -0.1378  0.4078 -0.6196
  866MOL0     C19424   2.543   2.600   0.372 -0.1274 -0.0689  0.5857
  866MOL0     C19425   2.232   2.484   0.606 -0.1271  0.1179  0.5099
  866MOL0     C19426   2.181   2.554   0.718  0.0694  0.5111  0.4636
  866MOL0     C19427   2.138   2.489   0.837 -0.1715 -0.3695  0.8078
  866MOL0     C19428   2.160   2.353   0.859  0.1317 -0.1206  0.7316
  866MOL0     O19429   2.141   2.298   0.979  0.8392  0.2239 -0.7399
  866MOL0     C19430   2.154   2.163   1.003 -0.6529 -0.2967 -0.8075
  866MOL0     C19431   2.111   2.149   1.156 -0.7293 -0.2546 -0.3996
  866MOL0     C19432   2.238   2.190   1.238 -0.7182 -0.0854  0.4628
  866MOL0     C19433   2.207   2.186   1.394 -0.3546 -0.1813 -0.5878
  866MOL0     C19434   2.120   2.282   1.446  0.5666 -0.9317 -0.0181
  866MOL0     C19435   2.043   2.369   1.490 -0.3525  0.1132 -0.3610
  866MOL0     C19436   2.216   2.283   0.751 -0.2227  0.3456  0.0281
  866MOL0     C19437   2.238   2.346   0.620  0.1173  0.5249 -0.8153
  866MOL0     C19438   2.287   2.253   0.512  0.0117  0.0554  0.5953
  866MOL0     H19439   2.388   2.903   0.398 -0.6386  0.7186 -0.8603
  866MOL0     H19440   2.576   2.966   0.256 -3.5704 -0.5488 -2.3165
  866MOL0     H19441   2.763   2.635   0.056  0.0508  0.1942  0.3072
  866MOL0     H19442   2.899   2.644   0.143  0.3813 -0.6669 -0.9184
  866MOL0     H19443   2.988   2.822   0.001  0.0029 -0.3317 -1.1048
  866MOL0     H19444   2.933   2.676  -0.094 -0.7897  0.7271 -0.5522
  866MOL0     H19445   2.716   2.825  -0.088 -0.5743  1.7708  1.8250
  866MOL0     H19446   2.835   2.945  -0.055  1.0934  0.8893 -1.8016
  866MOL0     H19447   2.946   2.886  -0.292  0.5193  0.9182  1.5424
  866MOL0     H19448   2.814   2.771  -0.304  0.9041 -0.7004  0.3057
  866MOL0     H19449   2.831   3.088  -0.313  0.2377  1.1426 -3.3863
  866MOL0     H19450   2.678   3.012  -0.277 -0.5563  1.0762 -0.4085
  866MOL0     H19451   2.853   2.959  -0.527 -0.1676  2.7274 -0.2748
  866MOL0     H19452   2.692   2.884  -0.483 -0.4975  0.2096  0.6284
  866MOL0     H19453   2.715   3.078  -0.656 -0.4292  2.6379 -0.0835
  866MOL0     H19454   2.737   3.186  -0.525  0.1418  0.2710  1.7497
  866MOL0     H19455   2.481   3.004  -0.572 -0.2404  0.0817  0.4328
  866MOL0     H19456   2.521   3.097  -0.422  3.9870  0.5803  0.3781
  866MOL0     H19457   2.370   3.317  -0.406  0.5824  0.0310  0.4558
  866MOL0     H19458   2.308   3.611  -0.636 -3.5935  1.0139  0.6773
  866MOL0     H19459   2.328   3.556  -0.472  2.4139 -2.0265 -0.0916
  866MOL0     H19460   2.105   3.513  -0.681  1.0782  1.0527 -0.2949
  866MOL0     H19461   2.123   3.383  -0.571 -1.8550  0.3994  1.9861
  866MOL0     H19462   2.109   3.528  -0.372  0.5502  0.1366  0.0033
  866MOL0     H19463   2.084   3.668  -0.479  2.2303 -0.4170 -0.9128
  866MOL0     H19464   1.905   3.593  -0.589 -0.6537 -1.4752 -2.6773
  866MOL0     H19465   1.893   3.439  -0.509  0.8268  1.2260 -0.4761
  866MOL0     H19466   1.695   3.546  -0.601  2.6901  0.8198  1.7446
  866MOL0     H19467   1.387   3.599  -0.700 -2.9759 -1.9315 -1.0973
  866MOL0     H19468   1.333   3.472  -0.597 -1.6378  2.1538 -2.4420
  866MOL0     H19469   1.484   3.456  -0.687 -0.5053 -0.5339 -0.2333
  866MOL0     H19470   1.039   3.824  -0.385  0.4249 -0.0874 -0.2542
  866MOL0     H19471   0.818   3.849  -0.255 -0.1865  0.1614 -1.8546
  866MOL0     H19472   0.721   3.855   0.127 -1.4571  0.5725 -0.1653
  866MOL0     H19473   0.824   3.924   0.005 -0.8817  1.4638  0.6191
  866MOL0     H19474   0.626   3.896  -0.152  0.2716  0.4678  0.2248
  866MOL0     H19475   0.529   3.857  -0.020 -1.0767  1.3456 -0.7716
  866MOL0     H19476   0.683   4.122  -0.075  0.1417 -0.5182 -0.0019
  866MOL0     H19477   0.650   4.062   0.095 -0.0208  1.3192  0.0306
  866MOL0     H19478   0.392   4.083  -0.016  0.1002 -0.8985 -2.0378
  866MOL0     H19479   0.475   4.175  -0.131 -2.1219 -0.6035  0.2402
  866MOL0     H19480   0.573   4.325   0.059 -0.5162  0.0954 -0.8802
  866MOL0     H19481   0.399   4.327   0.047 -0.7854 -1.1229  0.8643
  866MOL0     H19482   0.553   4.183   0.267  0.1710  2.2529  0.9676
  866MOL0     H19483   0.369   4.174   0.224 -2.6442  3.6037  2.1774
  866MOL0     H19484   0.370   4.425   0.299 -0.7218 -1.7287  2.1599
  866MOL0     H19485   0.535   4.444   0.252 -1.8428  1.7889 -0.9261
  866MOL0     H19486   0.598   4.297   0.442 -0.5555 -0.8430  2.8396
  866MOL0     H19487   0.441   4.297   0.495 -3.5891  2.2011 -1.2044
  866MOL0     H19488   0.960   3.583   0.047  0.1263  0.9466 -0.3274
  866MOL0     H19489   1.186   3.576  -0.059 -0.1038 -0.1158  3.2647
  866MOL0     H19490   1.471   3.745  -0.218  0.5984  2.7484 -0.7205
  866MOL0     H19491   1.705   3.733  -0.222 -0.4854  1.3038 -0.5512
  866MOL0     H19492   2.709   2.555   0.254 -1.0681 -0.9089  0.6616
  866MOL0     H19493   2.530   2.495   0.398 -1.6171 -0.5037 -1.6686
  866MOL0     H19494   2.173   2.662   0.721  2.1614  0.7670 -0.8932
  866MOL0     H19495   2.092   2.547   0.916  1.1428 -0.4671  1.6758
  866MOL0     H19496   2.092   2.103   0.935  0.0871 -2.1765  0.1136
  866MOL0     H19497   2.258   2.135   0.983 -0.0624  1.3317 -0.1437
  866MOL0     H19498   2.088   2.043   1.171 -2.1425  0.0115 -0.5293
  866MOL0     H19499   2.023   2.212   1.172 -0.3117  0.4570 -0.8473
  866MOL0     H19500   2.325   2.125   1.226 -0.8406 -0.5913  2.0614
  866MOL0     H19501   2.279   2.290   1.222 -0.3020 -0.6446 -2.5046
  866MOL0     H19502   2.302   2.192   1.447 -1.5843 -0.6594  1.8007
  866MOL0     H19503   2.176   2.083   1.414  1.0842 -0.7177 -1.0261
  866MOL0     H19504   1.962   2.432   1.521  0.2964  1.1020 -0.6441
  866MOL0     H19505   2.237   2.179   0.773 -0.4029  0.5589  1.2775
  866MOL0     H19506   2.394   2.267   0.489  0.2302 -2.4915 -0.2363
  866MOL0     H19507   2.268   2.151   0.546 -1.7910 -0.0418 -0.5889
  866MOL0     H19508   2.224   2.265   0.424  2.1919 -1.2975 -1.2781
  867MOL0     O19509   6.865  11.146   7.622 -0.0369  0.8751 -0.4219
  867MOL0     C19510   6.800  11.044   7.637  0.1172 -0.9174 -0.6862
  867MOL0     O19511   6.663  11.039   7.635  0.2367  0.2297 -0.0723
  867MOL0     C19512   6.597  11.142   7.694 -0.2985  0.2202  0.3540
  867MOL0     C19513   6.501  11.211   7.624 -0.1723  0.1023  0.8353
  867MOL0     C19514   6.435  11.309   7.696 -0.8919 -0.0392  1.0786
  867MOL0     C19515   6.481  11.358   7.821 -0.5029 -0.3020 -0.7991
  867MOL0     O19516   6.438  11.471   7.889  0.2696 -0.1399  1.0437
  867MOL0     C19517   6.377  11.575   7.799  0.3140 -0.2050  0.6876
  867MOL0     C19518   6.351  11.700   7.877  0.3392 -0.7499  0.4895
  867MOL0     C19519   6.476  11.737   7.962  0.5856 -0.0168  0.1628
  867MOL0     C19520   6.495  11.883   7.956  0.5038 -0.7089 -0.0153
  867MOL0     C19521   6.592  11.915   8.077 -0.1344  0.1808  0.5984
  867MOL0     C19522   6.647  12.048   8.047 -0.6001 -1.0996  0.3129
  867MOL0     C19523   6.775  12.063   8.139  0.1330  0.2285 -0.3348
  867MOL0     C19524   6.835  12.199   8.118 -1.1860 -0.5235 -0.7560
  867MOL0     N19525   6.957  12.228   8.196  0.0929  0.2665  0.5418
  867MOL0     C19526   6.987  12.344   8.265 -0.2958  0.1860 -0.7865
  867MOL0     C19527   7.119  12.338   8.295  0.2245 -0.0168 -0.0068
  867MOL0     C19528   7.191  12.440   8.390  0.3722  0.4241  0.5688
  867MOL0     C19529   7.331  12.399   8.428 -0.4905 -0.5667 -0.0424
  867MOL0     C19530   7.408  12.514   8.490 -0.4470 -0.9894 -0.3739
  867MOL0     C19531   7.348  12.570   8.624 -0.3042  0.5270 -0.0754
  867MOL0     O19532   7.304  12.456   8.706 -0.2465 -0.7103  0.9330
  867MOL0     C19533   7.371  12.440   8.826 -0.6526  1.1632  0.0503
  867MOL0     C19534   7.284  12.383   8.922 -0.7355  0.1083 -0.0114
  867MOL0     C19535   7.336  12.337   9.049 -0.0845 -1.0225 -0.2219
  867MOL0     C19536   7.236  12.276   9.134 -0.0116  0.0490 -0.4422
  867MOL0     C19537   7.474  12.351   9.070 -1.0026 -0.8437  0.0600
  867MOL0     C19538   7.545  12.315   9.201  0.1320  0.0808  0.3376
  867MOL0     O19539   7.673  12.363   9.213  0.8216  0.2860 -0.3181
  867MOL0     C19540   7.746  12.319   9.321  0.4006 -0.5337  0.3543
  867MOL0     C19541   7.870  12.270   9.301 -0.0165  1.0739 -0.1849
  867MOL0     C19542   7.959  12.240   9.409  1.0617 -0.0292  0.1408
  867MOL0     C19543   7.925  12.269   9.538 -0.1717  0.9311 -0.8048
  867MOL0     O19544   8.013  12.236   9.632 -0.3141 -0.9360 -0.1947
  867MOL0     C19545   7.999  12.302   9.760 -0.2904 -0.4086  0.1963
  867MOL0     C19546   8.069  12.432   9.768  0.6773  0.2920  0.3648
  867MOL0     C19547   8.028  12.501   9.897 -0.5542  0.0589 -0.4654
  867MOL0     C19548   8.111  12.628   9.942  0.7174  0.9239 -0.1109
  867MOL0     C19549   8.065  12.686  10.070  1.1791 -0.8258 -0.7267
  867MOL0     C19550   7.909  12.689  10.085 -0.2290 -0.2172  0.3663
  867MOL0     C19551   7.846  12.772   9.975 -0.2460  0.8114  0.3920
  867MOL0     C19552   7.690  12.778   9.993  0.3112 -0.2646  0.3652
  867MOL0    Cl19553   7.640  12.905  10.116 -0.2198  0.0451  0.1103
  867MOL0     C19554   7.798  12.324   9.559 -1.1172  0.2231 -0.1119
  867MOL0     C19555   7.707  12.350   9.450 -0.0169  0.7180 -0.5565
  867MOL0     O19556   7.490  12.243   9.285  0.5276 -0.3472  0.8166
  867MOL0     C19557   7.557  12.385   8.968 -0.6977  0.0790  0.4465
  867MOL0     C19558   7.506  12.436   8.851  0.4671  0.0895  0.1856
  867MOL0     N19559   7.169  12.218   8.257  0.1173 -0.6133  0.3313
  867MOL0     N19560   7.070  12.148   8.191  0.1403  0.0416 -0.7341
  867MOL0     C19561   6.586  11.291   7.888 -0.2692 -0.4247  0.1433
  867MOL0     C19562   6.637  11.180   7.821  0.6641  0.5175 -0.9359
  867MOL0     C19563   6.881  10.917   7.644 -0.3283  0.0345 -0.3303
  867MOL0     C19564   6.995  10.897   7.564 -0.1252 -0.3465  0.5540
  867MOL0     C19565   7.070  10.780   7.558 -0.3981 -0.6993  0.0936
  867MOL0     C19566   7.026  10.675   7.641  0.6938  0.5271  0.1969
  867MOL0     O19567   7.077  10.552   7.653 -1.3981 -0.8852  0.1587
  867MOL0     C19568   7.209  10.531   7.590  0.2158  0.1827 -0.2604
  867MOL0     C19569   7.250  10.385   7.605 -0.6978  0.7706 -0.6553
  867MOL0     C19570   7.251  10.320   7.746 -0.3474  0.7754 -0.5610
  867MOL0     C19571   7.308  10.167   7.740  0.3260  0.5507  0.7001
  867MOL0     C19572   7.452  10.172   7.715  0.2729  0.6903 -0.7761
  867MOL0     C19573   7.575  10.184   7.702 -0.5744 -0.2758  0.1886
  867MOL0     C19574   6.919  10.690   7.730  0.6842  0.0965  1.3532
  867MOL0     C19575   6.846  10.817   7.736 -0.1174  1.0112 -0.6717
  867MOL0     C19576   6.755  10.835   7.852  0.2989  0.1936  0.1303
  867MOL0     H19577   6.481  11.191   7.520 -1.8541 -0.5056  1.2444
  867MOL0     H19578   6.356  11.360   7.641 -0.8693 -0.3690  0.7424
  867MOL0     H19579   6.282  11.537   7.761  0.0674  0.6668  0.3956
  867MOL0     H19580   6.439  11.607   7.714  0.4825  1.0915  1.2626
  867MOL0     H19581   6.315  11.776   7.807 -0.6930 -1.5289  0.1561
  867MOL0     H19582   6.277  11.684   7.956 -0.5038 -0.7800 -0.2953
  867MOL0     H19583   6.450  11.707   8.064  0.3360  1.3367  0.5098
  867MOL0     H19584   6.565  11.683   7.929  1.0228  2.0834 -2.4742
  867MOL0     H19585   6.531  11.915   7.857  1.4550 -2.5518 -0.3192
  867MOL0     H19586   6.399  11.930   7.977  0.0430 -1.2305 -0.9021
  867MOL0     H19587   6.672  11.840   8.078  0.1227  0.4390  1.9772
  867MOL0     H19588   6.554  11.911   8.180 -0.4660  2.9751  0.6593
  867MOL0     H19589   6.676  12.060   7.943  0.3176  3.1856  0.8997
  867MOL0     H19590   6.566  12.117   8.072 -1.0782 -1.4201 -0.3344
  867MOL0     H19591   6.845  11.982   8.116 -1.7039 -1.2342 -1.1416
  867MOL0     H19592   6.739  12.048   8.241  5.1245  0.6984  1.7269
  867MOL0     H19593   6.855  12.210   8.012  1.3860  0.7335 -0.1965
  867MOL0     H19594   6.767  12.273   8.161 -1.8240 -1.5898  0.1318
  867MOL0     H19595   6.912  12.417   8.294 -1.2292 -1.0202 -0.0792
  867MOL0     H19596   7.137  12.474   8.478  0.0760 -0.6726  0.8114
  867MOL0     H19597   7.203  12.526   8.323 -1.2758 -0.4058 -0.8666
  867MOL0     H19598   7.327  12.309   8.492 -2.5098 -0.7584 -0.3685
  867MOL0     H19599   7.385  12.364   8.340 -0.5205 -0.8402  0.0459
  867MOL0     H19600   7.507  12.476   8.518  1.3337  1.7571 -2.4292
  867MOL0     H19601   7.418  12.593   8.416 -1.2599 -0.5171  0.0069
  867MOL0     H19602   7.409  12.643   8.678  0.4524 -1.2683  1.6077
  867MOL0     H19603   7.266  12.632   8.586 -0.0597  1.2604  0.5691
  867MOL0     H19604   7.178  12.364   8.909 -1.3488  1.5326  2.3082
  867MOL0     H19605   7.132  12.306   9.117 -0.1152  2.4277  3.2567
  867MOL0     H19606   7.253  12.289   9.241  1.0455  0.1571 -0.6203
  867MOL0     H19607   7.236  12.168   9.117 -3.3537  0.0130 -1.0048
  867MOL0     H19608   7.903  12.242   9.202  0.5067  1.1177 -0.0268
  867MOL0     H19609   8.065  12.223   9.393  0.8556  0.7727 -2.5715
  867MOL0     H19610   7.898  12.306   9.803 -0.2300 -1.3604  0.4523
  867MOL0     H19611   8.046  12.232   9.830 -0.7420 -1.3321 -0.3909
  867MOL0     H19612   8.176  12.409   9.767  0.5534 -0.2741 -0.5810
  867MOL0     H19613   8.041  12.490   9.680 -0.6908  0.2521  0.7537
  867MOL0     H19614   8.034  12.429   9.978 -3.0852 -1.0135 -1.1327
  867MOL0     H19615   7.923  12.525   9.877 -1.4127 -3.1555 -0.3339
  867MOL0     H19616   8.120  12.691   9.853 -0.1670  0.2771 -0.6839
  867MOL0     H19617   8.216  12.605   9.965  0.5375  2.0463  2.0407
  867MOL0     H19618   8.115  12.648  10.159  1.5441  1.4462  0.0953
  867MOL0     H19619   8.087  12.792  10.079 -2.9387  0.8646 -5.5532
  867MOL0     H19620   7.894  12.751  10.174  1.2602 -0.7132  1.0015
  867MOL0     H19621   7.866  12.589  10.088 -3.3004  1.0297  0.9721
  867MOL0     H19622   7.875  12.737   9.876 -0.8559 -1.4986  0.9478
  867MOL0     H19623   7.887  12.873   9.969  1.8609 -0.0621 -3.9844
  867MOL0     H19624   7.650  12.686  10.038  0.8333 -0.7573 -0.1628
  867MOL0     H19625   7.634  12.809   9.904 -0.3284  0.6798  1.0848
  867MOL0     H19626   7.761  12.346   9.658 -0.9276  2.9091 -0.5833
  867MOL0     H19627   7.614  12.398   9.477 -1.7608 -1.2229 -2.6949
  867MOL0     H19628   7.665  12.374   8.974 -0.4683  2.3102  1.1597
  867MOL0     H19629   7.587  12.470   8.786  0.8825 -0.9394  0.1499
  867MOL0     H19630   6.610  11.322   7.989 -2.6069 -0.4641  0.7676
  867MOL0     H19631   6.715  11.127   7.874  2.3135  1.1449 -2.6176
  867MOL0     H19632   7.030  10.977   7.500 -0.2201 -0.9390 -0.2464
  867MOL0     H19633   7.168  10.782   7.512  0.9381  0.2796  2.8038
  867MOL0     H19634   7.209  10.558   7.484  3.2154 -0.7666 -0.6144
  867MOL0     H19635   7.278  10.604   7.633 -0.0427 -0.4165  1.2120
  867MOL0     H19636   7.353  10.380   7.569 -0.7366  4.3545 -1.6846
  867MOL0     H19637   7.189  10.323   7.539 -1.3266  0.0649  0.5611
  867MOL0     H19638   7.316  10.378   7.812 -3.0088 -0.8143  3.9050
  867MOL0     H19639   7.152  10.336   7.790 -0.6926  3.9488 -2.1968
  867MOL0     H19640   7.253  10.130   7.653 -1.8666 -0.5002  2.4170
  867MOL0     H19641   7.279  10.110   7.829 -2.1262  3.1327  1.7106
  867MOL0     H19642   7.677  10.204   7.679 -1.4964  2.2312 -2.2228
  867MOL0     H19643   6.884  10.605   7.788 -1.5826  1.1949  1.7317
  867MOL0     H19644   6.649  10.829   7.830 -0.6490  0.6235  3.8286
  867MOL0     H19645   6.772  10.748   7.917  0.4705 -0.2333 -0.4739
  867MOL0     H19646   6.790  10.923   7.907 -0.6581  0.4019  0.4114
  868MOL0     O19647   5.542   2.090  10.570 -0.6924  0.0978 -0.6911
  868MOL0     C19648   5.628   2.008  10.570 -0.0228 -0.3085  1.0787
  868MOL0     O19649   5.725   1.985  10.478 -0.6386  0.1950  0.9223
  868MOL0     C19650   5.716   2.028  10.343 -0.1820  0.7827 -0.3714
  868MOL0     C19651   5.624   2.108  10.283  0.5417 -0.5596  1.1149
  868MOL0     C19652   5.624   2.132  10.144  0.1481 -0.0443 -0.5625
  868MOL0     C19653   5.732   2.081  10.062  0.5819  0.2969 -0.6308
  868MOL0     O19654   5.759   2.104   9.930 -0.0950  0.2307 -0.6853
  868MOL0     C19655   5.702   2.007   9.843  0.3539 -0.2166  0.0744
  868MOL0     C19656   5.581   2.063   9.768  0.5679 -0.2768 -0.1198
  868MOL0     C19657   5.613   2.174   9.667 -0.3432 -0.2418 -0.4634
  868MOL0     C19658   5.483   2.232   9.612  0.8207 -0.2370  0.8000
  868MOL0     C19659   5.411   2.140   9.510 -0.1207  0.4434  0.9068
  868MOL0     C19660   5.310   2.228   9.441 -0.3044  0.0914  0.2766
  868MOL0     C19661   5.244   2.150   9.331  0.0398 -0.3849  0.4630
  868MOL0     C19662   5.138   2.236   9.251 -0.6784  0.4439 -0.0740
  868MOL0     N19663   5.076   2.160   9.141 -0.8057  0.9524  0.4894
  868MOL0     C19664   5.060   2.192   9.007  0.0258  0.3371 -0.0198
  868MOL0     C19665   4.985   2.092   8.959 -0.2821 -0.2859 -0.5335
  868MOL0     C19666   4.953   2.085   8.817 -0.4814 -0.2643 -0.1070
  868MOL0     C19667   4.810   2.036   8.785 -0.5833  0.2097 -0.8048
  868MOL0     C19668   4.699   2.096   8.870 -1.5850  0.7159  0.7918
  868MOL0     C19669   4.624   2.198   8.784 -0.1035  0.7114 -0.6673
  868MOL0     O19670   4.566   2.288   8.868 -0.7073 -1.0023 -0.1973
  868MOL0     C19671   4.434   2.270   8.901  0.4733  0.6709 -0.4095
  868MOL0     C19672   4.369   2.378   8.940 -0.1271 -0.0491  0.4931
  868MOL0     C19673   4.239   2.371   9.003  0.1328 -0.1996  0.4019
  868MOL0     C19674   4.193   2.500   9.069  0.6472  0.5400  0.3028
  868MOL0     C19675   4.168   2.247   9.010 -0.5033  0.0001 -0.5873
  868MOL0     C19676   4.036   2.223   9.070  0.4662 -0.1803 -0.2193
  868MOL0     O19677   3.972   2.102   9.049 -0.5832 -0.7455 -0.1096
  868MOL0     C19678   3.842   2.086   9.091 -0.6059 -0.4310 -0.6342
  868MOL0     C19679   3.815   2.022   9.211  0.2601  0.1869 -0.4868
  868MOL0     C19680   3.689   2.006   9.264  0.5680 -0.4926 -0.1839
  868MOL0     C19681   3.574   2.047   9.193 -0.4910 -0.4579  0.2328
  868MOL0     O19682   3.455   2.019   9.261 -0.0832 -0.3038 -0.2102
  868MOL0     C19683   3.333   2.048   9.188 -0.0544  0.2372 -0.0931
  868MOL0     C19684   3.287   1.925   9.103 -0.2563 -0.1084 -0.1622
  868MOL0     C19685   3.196   1.965   8.979  0.2183  0.1979 -0.2231
  868MOL0     C19686   3.118   1.852   8.906  0.1724 -0.1866 -0.1300
  868MOL0     C19687   3.057   1.889   8.769  1.1795 -0.2496 -0.8523
  868MOL0     C19688   2.970   1.773   8.713 -0.0784 -0.0872 -0.3038
  868MOL0     C19689   2.893   1.829   8.587  0.3241  0.2387  0.1768
  868MOL0     C19690   2.810   1.731   8.515  0.4012  0.4441 -0.4113
  868MOL0    Cl19691   2.702   1.627   8.608  0.2569  0.0534 -0.9317
  868MOL0     C19692   3.596   2.113   9.072 -0.1637  0.3680 -0.4201
  868MOL0     C19693   3.728   2.132   9.022 -0.1864 -0.1402 -0.6549
  868MOL0     O19694   3.985   2.315   9.142  0.8885  0.0875 -0.0755
  868MOL0     C19695   4.238   2.139   8.944  0.6834 -0.3451  0.9626
  868MOL0     C19696   4.363   2.148   8.896  0.8659  0.1704  0.4766
  868MOL0     N19697   4.946   2.009   9.067 -0.1056 -0.1472 -0.3815
  868MOL0     N19698   5.014   2.046   9.164 -0.4662 -0.0706 -0.2448
  868MOL0     C19699   5.826   2.008  10.126  0.9243  0.5263 -1.2997
  868MOL0     C19700   5.813   1.982  10.265  0.3296  0.9857 -0.2632
  868MOL0     C19701   5.630   1.922  10.684  0.4186  0.9847 -0.5964
  868MOL0     C19702   5.515   1.923  10.767  0.4212  0.7147  0.4002
  868MOL0     C19703   5.511   1.864  10.895  1.3891 -0.1003  0.9171
  868MOL0     C19704   5.620   1.806  10.948  0.1278  0.3643 -0.1018
  868MOL0     O19705   5.593   1.752  11.076  0.1088  0.4114 -0.3179
  868MOL0     C19706   5.671   1.634  11.103  0.1767 -0.5701  0.5639
  868MOL0     C19707   5.772   1.655  11.214 -0.8850  0.4065  0.2236
  868MOL0     C19708   5.897   1.766  11.197 -0.4675 -0.7036  0.1554
  868MOL0     C19709   6.004   1.762  11.312 -0.5081  0.0666  0.1962
  868MOL0     C19710   6.025   1.636  11.386  0.5280 -0.3360  0.7067
  868MOL0     C19711   6.051   1.533  11.439 -0.4224  0.0165 -0.5222
  868MOL0     C19712   5.736   1.789  10.871  0.1077 -0.4202  1.2049
  868MOL0     C19713   5.742   1.852  10.740 -0.4681  0.0781  0.0948
  868MOL0     C19714   5.881   1.833  10.671  0.7046 -0.3518 -0.7157
  868MOL0     H19715   5.548   2.165  10.337  1.0326 -1.7424  3.1758
  868MOL0     H19716   5.556   2.209  10.111  0.8531  0.0113 -1.9511
  868MOL0     H19717   5.679   1.919   9.904  0.1627 -0.2169  0.0020
  868MOL0     H19718   5.774   1.983   9.764  0.2991  2.4012 -0.8410
  868MOL0     H19719   5.532   1.985   9.710  0.3683 -1.0766  1.0955
  868MOL0     H19720   5.510   2.098   9.844  1.2489  0.7557  0.0592
  868MOL0     H19721   5.668   2.250   9.723 -2.5575  1.3968 -0.3942
  868MOL0     H19722   5.676   2.123   9.593 -0.3806 -3.7536  1.6594
  868MOL0     H19723   5.410   2.249   9.691  0.0202  1.0419 -0.1672
  868MOL0     H19724   5.500   2.330   9.566  1.3362  0.3423  2.1755
  868MOL0     H19725   5.360   2.055   9.555 -1.1048 -0.2832 -1.4104
  868MOL0     H19726   5.487   2.091   9.448  2.3117 -1.3721  4.9039
  868MOL0     H19727   5.233   2.267   9.508 -0.5772 -0.5007  0.3178
  868MOL0     H19728   5.356   2.315   9.394  0.0257 -0.4566 -0.4249
  868MOL0     H19729   5.192   2.066   9.377 -0.4709 -0.0891  0.4293
  868MOL0     H19730   5.316   2.100   9.266 -1.2470 -2.8295  0.8120
  868MOL0     H19731   5.071   2.278   9.326  1.1322  0.6126  1.5000
  868MOL0     H19732   5.194   2.318   9.205 -1.5630  0.6237 -0.8640
  868MOL0     H19733   5.110   2.279   8.965 -0.0834  0.4448  0.0709
  868MOL0     H19734   5.035   2.035   8.765 -0.4664  0.1781 -0.5184
  868MOL0     H19735   4.963   2.185   8.773  0.7293 -1.2431 -2.2346
  868MOL0     H19736   4.808   2.045   8.676  1.2831  0.2004 -0.8621
  868MOL0     H19737   4.801   1.928   8.802 -3.5755  0.5482  0.5211
  868MOL0     H19738   4.631   2.025   8.918 -2.1337 -0.2624 -1.3044
  868MOL0     H19739   4.747   2.141   8.957  0.8686  0.1085 -0.1666
  868MOL0     H19740   4.686   2.268   8.728 -1.1751  1.1676 -1.3058
  868MOL0     H19741   4.554   2.152   8.713 -0.3209  3.2077 -2.1921
  868MOL0     H19742   4.412   2.476   8.924 -1.7160  0.1732 -3.7484
  868MOL0     H19743   4.262   2.584   9.055  0.1075  0.7665 -1.2728
  868MOL0     H19744   4.186   2.487   9.177  1.4776 -1.2734  0.1779
  868MOL0     H19745   4.092   2.515   9.029 -0.4238  1.1057  2.9818
  868MOL0     H19746   3.884   1.974   9.280 -2.9389  1.2581  3.9579
  868MOL0     H19747   3.680   1.949   9.356 -3.6090  1.3686  0.8116
  868MOL0     H19748   3.259   2.061   9.268  0.4423  0.2119  0.3768
  868MOL0     H19749   3.345   2.132   9.118  0.0347  0.8336  0.6182
  868MOL0     H19750   3.384   1.896   9.060  0.8668  2.0127  0.7602
  868MOL0     H19751   3.251   1.842   9.165  0.5481 -0.3319  0.0212
  868MOL0     H19752   3.266   2.010   8.908 -0.2268 -0.4147 -1.0630
  868MOL0     H19753   3.136   2.055   8.998  0.0527  0.4561 -1.8402
  868MOL0     H19754   3.027   1.820   8.958 -0.1984  0.8198 -0.1267
  868MOL0     H19755   3.181   1.764   8.891 -0.2423 -0.4826 -0.1678
  868MOL0     H19756   2.983   1.966   8.792 -0.2653 -1.6499 -0.5561
  868MOL0     H19757   3.129   1.916   8.692  2.5420 -1.3968 -0.0292
  868MOL0     H19758   2.884   1.760   8.779 -2.7182  1.2491 -3.2427
  868MOL0     H19759   3.022   1.682   8.680 -1.8438 -1.5387  0.7800
  868MOL0     H19760   2.965   1.872   8.517  0.8920  0.7233  1.0344
  868MOL0     H19761   2.823   1.910   8.606  1.3628  1.2548 -0.2366
  868MOL0     H19762   2.878   1.668   8.457 -0.0987  1.1443 -1.8221
  868MOL0     H19763   2.760   1.776   8.428  2.1029  0.8522 -1.2382
  868MOL0     H19764   3.516   2.133   9.001  0.4256  0.2110 -1.1370
  868MOL0     H19765   3.733   2.182   8.926  1.9343 -0.6753 -0.8621
  868MOL0     H19766   4.197   2.039   8.938  1.5936 -0.7227  0.9734
  868MOL0     H19767   4.407   2.056   8.859  0.1449  0.9238 -2.5364
  868MOL0     H19768   5.901   1.970  10.059 -1.4792 -5.6626 -1.0995
  868MOL0     H19769   5.888   1.919  10.311 -1.2424 -0.5004  0.3732
  868MOL0     H19770   5.424   1.973  10.735  0.3143  2.1215  2.6598
  868MOL0     H19771   5.412   1.850  10.937 -0.2201  1.2355 -2.0846
  868MOL0     H19772   5.596   1.558  11.125  1.2444 -1.4421  1.2715
  868MOL0     H19773   5.721   1.595  11.014 -1.1698 -0.8378 -0.0963
  868MOL0     H19774   5.819   1.556  11.222 -1.5897 -0.5136 -4.2194
  868MOL0     H19775   5.711   1.679  11.301 -0.6033  0.0207  0.5288
  868MOL0     H19776   5.950   1.731  11.108 -2.0474 -0.8266 -0.7691
  868MOL0     H19777   5.855   1.865  11.180  1.6674 -0.0330 -1.8196
  868MOL0     H19778   5.967   1.842  11.376  0.1535  1.4661 -1.1083
  868MOL0     H19779   6.104   1.782  11.274 -1.0656 -1.0600 -2.0225
  868MOL0     H19780   6.065   1.440  11.491  1.9447  1.4802  1.6649
  868MOL0     H19781   5.828   1.744  10.905  2.9201  3.4040 -0.6123
  868MOL0     H19782   5.867   1.793  10.570 -2.4511  0.2950 -0.6179
  868MOL0     H19783   5.936   1.927  10.678 -1.2194  0.8170 -0.7855
  868MOL0     H19784   5.938   1.763  10.733  2.0338  2.5995  1.6397
  869MOL0     O19785   2.293   9.741   3.605 -0.1476  0.4129 -0.0284
  869MOL0     C19786   2.371   9.654   3.556  0.6529 -0.5054  0.4837
  869MOL0     O19787   2.340   9.569   3.448 -0.4665  0.3007  0.1538
  869MOL0     C19788   2.232   9.588   3.368 -0.9040 -0.1927  0.1472
  869MOL0     C19789   2.261   9.557   3.236 -0.0164  0.4101  0.1496
  869MOL0     C19790   2.149   9.535   3.148  0.5198  0.2079  0.6175
  869MOL0     C19791   2.021   9.572   3.183  0.4194  0.6315  0.0022
  869MOL0     O19792   1.910   9.570   3.101 -0.6026 -0.2621  0.3000
  869MOL0     C19793   1.868   9.438   3.055 -0.1774 -0.3534  0.6342
  869MOL0     C19794   1.754   9.385   3.135  0.2570 -0.1996  0.0016
  869MOL0     C19795   1.629   9.463   3.121 -0.6508  0.0764 -0.9918
  869MOL0     C19796   1.525   9.415   3.022 -0.8006  0.6775  1.0424
  869MOL0     C19797   1.417   9.520   2.989  0.5924 -0.8652 -0.1026
  869MOL0     C19798   1.356   9.584   3.127  0.2081 -0.5591 -0.2430
  869MOL0     C19799   1.247   9.676   3.082  0.5606 -0.1583 -0.0295
  869MOL0     C19800   1.276   9.797   2.990 -0.7743  0.3673 -0.0696
  869MOL0     N19801   1.175   9.904   3.000 -0.1982 -0.3559 -0.6130
  869MOL0     C19802   1.043   9.916   2.955  0.4888  0.0337 -0.9637
  869MOL0     C19803   1.000  10.035   3.006  0.1546 -0.8678 -0.3010
  869MOL0     C19804   0.860  10.101   3.004 -0.6998  0.4305 -0.3709
  869MOL0     C19805   0.847  10.235   3.080 -0.7130  0.4005  0.3016
  869MOL0     C19806   0.778  10.221   3.219  0.8952 -1.0696 -0.1841
  869MOL0     C19807   0.736  10.361   3.258 -0.4734 -0.4341 -0.8962
  869MOL0     O19808   0.702  10.357   3.401 -0.7165  0.1790  0.6670
  869MOL0     C19809   0.573  10.333   3.447  0.5889  0.6938 -0.2822
  869MOL0     C19810   0.563  10.344   3.586 -0.2984 -0.0422  0.7372
  869MOL0     C19811   0.441  10.330   3.641  0.0408 -0.2901 -0.8091
  869MOL0     C19812   0.421  10.355   3.790  0.5489 -0.5593 -0.0196
  869MOL0     C19813   0.328  10.302   3.568  0.4105  0.7408 -0.0199
  869MOL0     C19814   0.193  10.269   3.628 -0.2247 -0.5704  0.4670
  869MOL0     O19815   0.182  10.224   3.756 -0.5934 -0.0551 -0.0052
  869MOL0     C19816   0.064  10.187   3.811 -0.0641  0.2429  0.3609
  869MOL0     C19817   0.057  10.202   3.945  0.3246 -0.8144 -0.8754
  869MOL0     C19818  -0.052  10.140   4.011  0.0499  0.7574  0.1743
  869MOL0     C19819  -0.147  10.068   3.940  0.6323 -0.7255 -0.3999
  869MOL0     O19820  -0.245  10.010   4.013  0.3173 -0.0982 -0.8579
  869MOL0     C19821  -0.374  10.036   3.979  0.0539  0.3264 -0.2044
  869MOL0     C19822  -0.456  10.018   4.098  0.4976  0.0456  1.3141
  869MOL0     C19823  -0.607   9.998   4.062 -1.1207 -0.0902  0.1938
  869MOL0     C19824  -0.700  10.036   4.178 -0.7235 -0.4455  0.1543
  869MOL0     C19825  -0.848  10.026   4.149 -0.3667  0.6170 -0.8802
  869MOL0     C19826  -0.894  10.152   4.071  0.0680  0.1915  0.1301
  869MOL0     C19827  -0.879  10.280   4.162 -0.0237  0.2912  0.1105
  869MOL0     C19828  -0.942  10.396   4.096  0.5662  0.0001  0.3724
  869MOL0    Cl19829  -0.943  10.536   4.202 -0.0540  0.4201  0.1845
  869MOL0     C19830  -0.158  10.081   3.802 -1.0972 -0.4439  0.6818
  869MOL0     C19831  -0.048  10.136   3.736  0.5463  1.2397  0.5475
  869MOL0     O19832   0.104  10.321   3.555  0.0246  0.9415 -0.6974
  869MOL0     C19833   0.344  10.288   3.429 -0.6396 -0.0375  0.0756
  869MOL0     C19834   0.460  10.300   3.363 -0.3534  0.7984 -0.5724
  869MOL0     N19835   1.105  10.096   3.067 -1.2125  0.1566  0.3359
  869MOL0     N19836   1.199  10.010   3.089 -0.5384 -0.3283  0.2485
  869MOL0     C19837   1.994   9.611   3.317  0.4657  0.5330  0.6353
  869MOL0     C19838   2.097   9.603   3.411  0.6928  0.0010  0.1249
  869MOL0     C19839   2.501   9.653   3.630 -0.2320 -0.3571  0.4724
  869MOL0     C19840   2.549   9.532   3.683 -1.5580  0.5361  0.4460
  869MOL0     C19841   2.663   9.526   3.766  1.3778 -0.5141  0.0854
  869MOL0     C19842   2.731   9.639   3.803  0.2461  0.5946  0.2175
  869MOL0     O19843   2.823   9.626   3.902 -1.0163  0.6561 -0.8126
  869MOL0     C19844   2.892   9.745   3.954  0.8987  0.3002 -0.4816
  869MOL0     C19845   2.996   9.697   4.061 -0.4703  0.4813 -0.2241
  869MOL0     C19846   3.128   9.782   4.061  0.7256 -0.4782 -0.0461
  869MOL0     C19847   3.224   9.744   3.943 -0.1351 -0.2361  0.2845
  869MOL0     C19848   3.363   9.797   3.969  0.6650  0.0817 -0.3896
  869MOL0     C19849   3.475   9.824   3.993  0.3683 -0.7048 -0.7455
  869MOL0     C19850   2.695   9.752   3.738  0.1476  0.1727 -0.3042
  869MOL0     C19851   2.580   9.764   3.663 -0.1407  0.1586  0.7883
  869MOL0     C19852   2.541   9.901   3.613 -0.1982 -0.3986  0.2129
  869MOL0     H19853   2.363   9.544   3.203  0.2123  0.1755  0.9345
  869MOL0     H19854   2.182   9.525   3.045  0.8005  0.0249  0.7236
  869MOL0     H19855   1.946   9.362   3.063 -1.4117 -1.6808  0.4285
  869MOL0     H19856   1.836   9.450   2.951  0.8682 -2.9899 -0.0779
  869MOL0     H19857   1.748   9.284   3.093 -1.9062  0.6483 -1.9283
  869MOL0     H19858   1.785   9.388   3.240  2.2195  0.0227 -0.5491
  869MOL0     H19859   1.585   9.463   3.221 -0.9091  3.0093 -1.0103
  869MOL0     H19860   1.648   9.568   3.094 -0.7044  0.2042 -0.5290
  869MOL0     H19861   1.578   9.389   2.930  0.8327 -0.1587  2.1743
  869MOL0     H19862   1.479   9.326   3.066  0.2509 -1.1946 -1.4271
  869MOL0     H19863   1.340   9.469   2.929  1.8670  0.9421 -3.5256
  869MOL0     H19864   1.462   9.597   2.927  0.1308 -1.7216 -1.5443
  869MOL0     H19865   1.314   9.515   3.200 -0.8239 -1.6042 -1.7704
  869MOL0     H19866   1.425   9.641   3.190 -0.9083 -0.3173  0.7967
  869MOL0     H19867   1.199   9.723   3.168 -2.2733  0.3080 -1.7635
  869MOL0     H19868   1.172   9.615   3.031 -0.2795  0.3325  0.6031
  869MOL0     H19869   1.376   9.839   3.008 -1.0509 -0.1818  3.4447
  869MOL0     H19870   1.267   9.754   2.890  1.7349 -1.6227  0.4421
  869MOL0     H19871   0.977   9.841   2.912 -1.4715  0.4607  1.0999
  869MOL0     H19872   0.783  10.035   3.046 -0.5932 -0.7191 -1.9018
  869MOL0     H19873   0.834  10.121   2.900  0.5949 -0.1581 -0.8284
  869MOL0     H19874   0.941  10.290   3.076  0.7974 -1.9269  1.4001
  869MOL0     H19875   0.776  10.298   3.026 -1.2543 -0.2949  0.1940
  869MOL0     H19876   0.686  10.161   3.224  0.8810 -0.9650  3.2953
  869MOL0     H19877   0.847  10.178   3.292 -0.8151 -0.8939  1.6114
  869MOL0     H19878   0.813  10.435   3.237 -0.8639  0.0201 -0.7344
  869MOL0     H19879   0.650  10.392   3.198  0.5771 -0.7744 -2.6286
  869MOL0     H19880   0.653  10.368   3.641 -0.4011  1.4623  0.2956
  869MOL0     H19881   0.327  10.407   3.810  0.3886 -0.8838  0.0829
  869MOL0     H19882   0.509  10.405   3.832  1.7624 -4.0614  2.1272
  869MOL0     H19883   0.417  10.268   3.857 -1.4482  1.7385  3.1308
  869MOL0     H19884   0.138  10.250   4.000 -0.8780 -0.1765  0.4207
  869MOL0     H19885  -0.041  10.129   4.118 -3.0265 -1.9162  0.3842
  869MOL0     H19886  -0.396  10.139   3.950 -3.2212 -0.2617 -0.1117
  869MOL0     H19887  -0.405   9.968   3.898 -0.2387 -0.8670  0.8742
  869MOL0     H19888  -0.414   9.933   4.152  1.1243 -1.8467 -1.9000
  869MOL0     H19889  -0.446  10.105   4.165 -0.6186  1.0508  0.2381
  869MOL0     H19890  -0.633   9.900   4.019  2.2168 -0.2279 -1.8717
  869MOL0     H19891  -0.621  10.065   3.977 -1.2647 -1.3203 -0.7869
  869MOL0     H19892  -0.687  10.135   4.222  1.8125 -0.3860 -0.5953
  869MOL0     H19893  -0.683   9.959   4.254  1.3935  0.2406  0.4447
  869MOL0     H19894  -0.885   9.936   4.099 -3.2645  0.5910  1.1018
  869MOL0     H19895  -0.901  10.024   4.244 -2.2719 -0.5697 -1.8941
  869MOL0     H19896  -0.994  10.126   4.036  0.6619  0.3584 -1.8060
  869MOL0     H19897  -0.830  10.170   3.984  1.6133 -1.0157  0.9734
  869MOL0     H19898  -0.775  10.312   4.170 -0.3791  1.2780  0.9288
  869MOL0     H19899  -0.922  10.260   4.261  2.4897  1.4383  1.5090
  869MOL0     H19900  -1.049  10.376   4.085  0.3067  1.3080  0.3370
  869MOL0     H19901  -0.900  10.421   3.998 -1.1352 -2.4725 -1.1025
  869MOL0     H19902  -0.248  10.053   3.747  0.2989  2.7245 -3.7994
  869MOL0     H19903  -0.045  10.144   3.628  2.2553 -0.3264  0.4472
  869MOL0     H19904   0.252  10.258   3.380  0.7743  2.1848 -4.5097
  869MOL0     H19905   0.454  10.299   3.255  1.0192  0.6602 -0.6600
  869MOL0     H19906   1.895   9.637   3.354  0.2559  2.4308 -1.1068
  869MOL0     H19907   2.074   9.623   3.515 -0.6219 -3.9131  0.7259
  869MOL0     H19908   2.489   9.443   3.665 -0.4973  0.1090 -1.2802
  869MOL0     H19909   2.680   9.435   3.822  0.0046 -0.6852  0.2494
  869MOL0     H19910   2.940   9.800   3.873 -1.2985 -0.0083 -2.0967
  869MOL0     H19911   2.826   9.826   3.990 -0.6678 -1.5201  0.9964
  869MOL0     H19912   3.024   9.595   4.030  0.0789  0.4042  0.4839
  869MOL0     H19913   2.959   9.682   4.163 -1.1862  2.9343 -0.0703
  869MOL0     H19914   3.113   9.890   4.068  3.3767  0.0708 -1.4274
  869MOL0     H19915   3.171   9.747   4.156  2.3595  2.0506  0.2278
  869MOL0     H19916   3.176   9.798   3.861  0.3035 -0.7364 -0.3137
  869MOL0     H19917   3.234   9.639   3.915  0.4291 -0.5277  1.5052
  869MOL0     H19918   3.569   9.873   4.008  0.6816 -1.9032  1.6322
  869MOL0     H19919   2.745   9.848   3.746 -0.7161  0.5913  0.1496
  869MOL0     H19920   2.630   9.958   3.584  0.7419 -0.2800  2.9866
  869MOL0     H19921   2.470   9.900   3.530 -1.0138 -4.1972  0.7899
  869MOL0     H19922   2.484   9.951   3.691  0.9310  2.3942 -0.6174
  870MOL0     O19923   0.434  11.319   6.440 -0.0026  0.0705  0.6416
  870MOL0     C19924   0.405  11.219   6.375 -0.3354  0.2950 -0.7004
  870MOL0     O19925   0.491  11.128   6.336 -0.4788  1.2738  0.1362
  870MOL0     C19926   0.628  11.151   6.337 -0.2685  0.5533  0.0684
  870MOL0     C19927   0.717  11.041   6.323  0.1557 -0.0748 -0.9546
  870MOL0     C19928   0.852  11.053   6.316 -0.2410 -1.1591 -0.0464
  870MOL0     C19929   0.915  11.184   6.322  1.0562 -0.5963 -0.1080
  870MOL0     O19930   1.044  11.200   6.328  0.1557 -0.0460  0.3883
  870MOL0     C19931   1.124  11.087   6.362  0.3756 -0.2564  0.0923
  870MOL0     C19932   1.265  11.136   6.396  0.1560  0.5375  0.0721
  870MOL0     C19933   1.277  11.199   6.535  0.4566 -0.1663  0.2174
  870MOL0     C19934   1.429  11.238   6.545  0.0123  0.6757 -0.7345
  870MOL0     C19935   1.447  11.331   6.665  0.4156 -0.0993 -0.1255
  870MOL0     C19936   1.588  11.387   6.683  0.1019  0.9411  0.2122
  870MOL0     C19937   1.641  11.465   6.561  0.1087  0.0057 -0.5415
  870MOL0     C19938   1.786  11.517   6.587 -0.3451 -0.0381  0.7568
  870MOL0     N19939   1.890  11.417   6.555 -0.2757  0.7231 -0.4881
  870MOL0     C19940   1.900  11.282   6.595 -0.5083 -0.2337 -1.1382
  870MOL0     C19941   2.011  11.236   6.534  0.2630  0.5368 -0.3273
  870MOL0     C19942   2.069  11.098   6.537  0.7792  1.1124 -0.6193
  870MOL0     C19943   2.218  11.098   6.520  0.7743  0.5914 -0.2171
  870MOL0     C19944   2.252  11.077   6.372  0.9627  0.2629  0.6366
  870MOL0     C19945   2.400  11.074   6.336 -0.4120 -0.4616  0.6919
  870MOL0     O19946   2.412  11.056   6.197 -0.3751  0.9400 -0.8323
  870MOL0     C19947   2.496  11.147   6.150 -0.1502  0.0887  0.5063
  870MOL0     C19948   2.629  11.128   6.168 -0.1143 -0.7164 -0.1546
  870MOL0     C19949   2.726  11.219   6.118  0.6399 -1.2481 -0.7605
  870MOL0     C19950   2.873  11.182   6.150  0.4350 -0.0084  0.1466
  870MOL0     C19951   2.685  11.343   6.058  0.0117 -0.4740  0.8250
  870MOL0     C19952   2.785  11.443   6.009  0.1803  0.4019  0.1395
  870MOL0     O19953   2.913  11.454   6.058  0.3791  0.2252  0.1599
  870MOL0     C19954   2.989  11.559   6.022 -0.7229  0.3573 -0.7274
  870MOL0     C19955   3.033  11.646   6.123 -0.2365 -1.0695  0.8799
  870MOL0     C19956   3.120  11.752   6.096 -0.5556  0.0870  0.5162
  870MOL0     C19957   3.153  11.786   5.967 -0.0259  0.0025 -0.5207
  870MOL0     O19958   3.236  11.890   5.951 -0.6136  0.2735  0.2608
  870MOL0     C19959   3.248  11.945   5.818 -0.9589 -0.6887  0.5462
  870MOL0     C19960   3.276  12.094   5.833 -0.7961 -1.1561  0.6730
  870MOL0     C19961   3.266  12.144   5.686 -0.2322 -0.1648 -0.6142
  870MOL0     C19962   3.116  12.171   5.648  0.0858  0.4125  0.2288
  870MOL0     C19963   3.098  12.288   5.535  0.7480 -0.2291  0.2207
  870MOL0     C19964   3.169  12.418   5.569 -0.9395  0.4110  0.6876
  870MOL0     C19965   3.134  12.530   5.469  0.7833 -1.1468  0.2462
  870MOL0     C19966   3.173  12.510   5.319 -1.2829  0.7039  0.2147
  870MOL0    Cl19967   3.359  12.500   5.303 -0.5384 -0.0203  0.3342
  870MOL0     C19968   3.120  11.690   5.864  0.6211  0.0070 -0.4586
  870MOL0     C19969   3.039  11.581   5.894  0.1109  0.0363 -0.0161
  870MOL0     O19970   2.734  11.516   5.928  0.2629  0.2329  0.3917
  870MOL0     C19971   2.544  11.355   6.038  0.0941 -0.2312 -0.6318
  870MOL0     C19972   2.449  11.256   6.078 -0.2915  0.4435 -0.3700
  870MOL0     N19973   2.074  11.343   6.469 -0.2748  0.7066  0.0750
  870MOL0     N19974   1.992  11.444   6.477 -0.2996  0.1767 -0.1846
  870MOL0     C19975   0.830  11.298   6.326  0.8270  0.2072  0.0011
  870MOL0     C19976   0.688  11.279   6.331 -0.7261 -0.1323  0.1267
  870MOL0     C19977   0.261  11.196   6.349  0.4421 -0.8588 -0.1379
  870MOL0     C19978   0.231  11.100   6.255 -0.0521 -0.4828 -0.4517
  870MOL0     C19979   0.094  11.075   6.228 -0.4587  0.7012  0.7871
  870MOL0     C19980  -0.011  11.146   6.286 -0.2818 -0.0610 -0.5161
  870MOL0     O19981  -0.152  11.141   6.261 -0.8073  0.2033  0.2039
  870MOL0     C19982  -0.208  11.036   6.177  0.4203  0.1118  0.0259
  870MOL0     C19983  -0.350  11.007   6.237 -0.1580 -0.1123  0.0060
  870MOL0     C19984  -0.456  10.983   6.117  0.1746  0.3442  0.0141
  870MOL0     C19985  -0.602  11.013   6.159  0.3061 -0.2743 -1.4879
  870MOL0     C19986  -0.647  11.151   6.192 -0.4751  0.0443  0.1861
  870MOL0     C19987  -0.671  11.268   6.221  0.3180 -0.2825 -0.0514
  870MOL0     C19988   0.022  11.234   6.383  0.6763 -0.4556 -0.7263
  870MOL0     C19989   0.155  11.263   6.419  0.1964  0.7831  0.7384
  870MOL0     C19990   0.174  11.365   6.528  0.6045  0.2813 -0.2910
  870MOL0     H19991   0.674  10.943   6.335  1.0897 -0.6378 -2.0424
  870MOL0     H19992   0.911  10.963   6.331  1.7620  0.1275  0.2290
  870MOL0     H19993   1.139  11.022   6.275 -1.3469  2.5494 -2.4838
  870MOL0     H19994   1.103  11.029   6.452 -1.4921 -1.9623 -1.3391
  870MOL0     H19995   1.334  11.051   6.399  1.7482  1.6775 -2.0181
  870MOL0     H19996   1.301  11.204   6.319 -1.1306  0.4547 -0.6330
  870MOL0     H19997   1.210  11.283   6.555 -1.9709 -1.8444 -0.4560
  870MOL0     H19998   1.259  11.120   6.608  4.0586  0.2454  1.7704
  870MOL0     H19999   1.482  11.145   6.565 -0.1327  0.5138 -1.1017
  870MOL0     H20000   1.465  11.287   6.454  1.3034  0.9437 -0.1118
  870MOL0     H20001   1.428  11.274   6.756 -1.6348  0.5877 -0.0545
  870MOL0     H20002   1.382  11.419   6.653 -0.0596 -0.2711  1.0341
  870MOL0     H20003   1.592  11.448   6.774 -0.0697  1.9211 -0.4130
  870MOL0     H20004   1.654  11.301   6.696 -0.2063  0.7776  0.7242
  870MOL0     H20005   1.580  11.555   6.549 -0.5422 -0.1118  1.5371
  870MOL0     H20006   1.636  11.408   6.468  0.2067 -0.3123 -0.3531
  870MOL0     H20007   1.799  11.613   6.536  0.5469  0.2198  1.4439
  870MOL0     H20008   1.787  11.543   6.694 -0.9399  0.5666  0.6190
  870MOL0     H20009   1.832  11.235   6.665  1.8883  0.2074  1.6945
  870MOL0     H20010   2.012  11.042   6.462 -1.7046  1.8070  0.6277
  870MOL0     H20011   2.047  11.047   6.632 -1.2280 -1.2226 -2.2332
  870MOL0     H20012   2.268  11.187   6.559  2.2245  0.4825 -1.7298
  870MOL0     H20013   2.262  11.011   6.570 -0.2772 -0.1278 -0.5077
  870MOL0     H20014   2.209  10.985   6.333  2.4958  0.4421 -1.6176
  870MOL0     H20015   2.207  11.168   6.330  0.2250  0.7624  2.4129
  870MOL0     H20016   2.461  11.157   6.372  5.0407 -1.9656 -3.7412
  870MOL0     H20017   2.447  10.985   6.378 -1.1816 -1.8658 -1.2477
  870MOL0     H20018   2.655  11.033   6.214  0.4749 -1.5856 -2.1616
  870MOL0     H20019   2.891  11.074   6.161  0.4914 -0.0941 -0.7550
  870MOL0     H20020   2.908  11.233   6.240 -0.5405 -1.6390  1.5288
  870MOL0     H20021   2.947  11.207   6.074 -0.4047  2.9040  0.1692
  870MOL0     H20022   2.987  11.648   6.222 -1.5638 -0.3804  0.2749
  870MOL0     H20023   3.150  11.825   6.171  1.7467  0.8596 -1.0347
  870MOL0     H20024   3.326  11.902   5.754 -0.2144 -3.2106  2.9457
  870MOL0     H20025   3.150  11.942   5.769  0.8022  0.0300 -3.3945
  870MOL0     H20026   3.205  12.138   5.904 -1.8442 -0.4210 -0.7819
  870MOL0     H20027   3.377  12.112   5.871 -0.7506  2.4637 -0.8320
  870MOL0     H20028   3.307  12.078   5.608 -0.2916  0.0685 -0.8436
  870MOL0     H20029   3.319  12.239   5.684 -2.5453  1.1985 -0.5487
  870MOL0     H20030   3.047  12.205   5.725 -2.6525 -0.9707 -1.4874
  870MOL0     H20031   3.063  12.082   5.615 -0.5414  0.1758  1.7872
  870MOL0     H20032   3.130  12.247   5.438  2.0014 -0.0645  0.5433
  870MOL0     H20033   2.990  12.300   5.531  0.7296 -0.3555  0.3158
  870MOL0     H20034   3.277  12.402   5.561 -1.3085 -3.0722  0.8722
  870MOL0     H20035   3.149  12.469   5.664  0.2892  1.6527  0.2974
  870MOL0     H20036   3.176  12.626   5.499 -0.8816  0.5070 -2.3783
  870MOL0     H20037   3.027  12.550   5.470  0.7350 -1.2147 -0.9527
  870MOL0     H20038   3.142  12.593   5.254  2.3353  0.7453 -1.7258
  870MOL0     H20039   3.133  12.413   5.288  0.0140 -0.5372  2.1848
  870MOL0     H20040   3.141  11.722   5.763  0.0796  0.9495 -0.2869
  870MOL0     H20041   3.004  11.519   5.813 -0.5540  1.0165 -0.4923
  870MOL0     H20042   2.504  11.445   5.994  2.0187  0.2342 -1.5227
  870MOL0     H20043   2.346  11.259   6.043 -0.5350  2.2990  0.4270
  870MOL0     H20044   0.856  11.403   6.335 -0.1912  0.6651 -1.7609
  870MOL0     H20045   0.642  11.377   6.318  0.2342  0.4233  0.7928
  870MOL0     H20046   0.304  11.051   6.191  1.1351 -0.1352  0.5994
  870MOL0     H20047   0.071  11.018   6.139 -0.1047  1.4857  0.1816
  870MOL0     H20048  -0.217  11.070   6.074 -0.6119  0.8071  0.3294
  870MOL0     H20049  -0.145  10.947   6.172  2.3316  1.4396 -1.1371
  870MOL0     H20050  -0.382  11.093   6.296 -0.9307 -1.5780  1.8282
  870MOL0     H20051  -0.339  10.921   6.304  4.1130  1.9948  2.4673
  870MOL0     H20052  -0.442  11.051   6.033 -1.2260  0.0020 -0.5174
  870MOL0     H20053  -0.452  10.879   6.081 -3.0184  0.2772 -0.4568
  870MOL0     H20054  -0.634  10.949   6.242  1.3440  0.1889 -0.7056
  870MOL0     H20055  -0.660  10.989   6.069  0.1223 -1.5008 -1.0521
  870MOL0     H20056  -0.700  11.370   6.240 -0.9310 -0.8561  1.3447
  870MOL0     H20057  -0.058  11.289   6.432  0.4747 -1.5860  0.2315
  870MOL0     H20058   0.232  11.332   6.615 -1.2502 -1.3277  0.4101
  870MOL0     H20059   0.204  11.461   6.484  1.4411  0.7246  1.1617
  870MOL0     H20060   0.072  11.378   6.565 -0.1790 -1.0435 -1.8836
  871MOL0     O20061   5.476   5.215   6.807 -0.5768  0.0255 -0.7785
  871MOL0     C20062   5.551   5.247   6.712 -0.0301 -1.1897  0.5306
  871MOL0     O20063   5.554   5.367   6.646  0.0345  0.0656  0.0036
  871MOL0     C20064   5.459   5.454   6.689  0.2268 -0.2250 -0.6297
  871MOL0     C20065   5.492   5.536   6.801  0.4173 -0.3840  0.2689
  871MOL0     C20066   5.402   5.638   6.840  0.7835  0.1505 -0.1965
  871MOL0     C20067   5.291   5.674   6.766 -0.4102 -0.7922  0.0721
  871MOL0     O20068   5.215   5.780   6.814  0.4616 -0.0506 -0.0417
  871MOL0     C20069   5.233   5.904   6.749 -0.2822  0.1345 -0.0311
  871MOL0     C20070   5.148   6.010   6.812 -0.2206 -0.3249  0.9990
  871MOL0     C20071   5.228   6.087   6.920  0.0993  0.6877 -0.4399
  871MOL0     C20072   5.296   5.994   7.026  0.0692  0.0935  0.5277
  871MOL0     C20073   5.193   5.943   7.134 -0.5818 -0.1382 -0.2059
  871MOL0     C20074   5.270   5.856   7.236  0.2722  0.0736 -0.2587
  871MOL0     C20075   5.266   5.705   7.227  0.0890 -0.1356 -0.0758
  871MOL0     C20076   5.414   5.654   7.237 -0.3866  0.9550  0.4919
  871MOL0     N20077   5.418   5.507   7.253 -0.5470 -0.6487 -0.1891
  871MOL0     C20078   5.384   5.401   7.166 -0.2146  1.1452 -0.4631
  871MOL0     C20079   5.423   5.286   7.229 -0.2819 -0.1926  0.2134
  871MOL0     C20080   5.425   5.142   7.174 -0.0878 -0.4680 -0.5528
  871MOL0     C20081   5.569   5.093   7.156 -1.3749 -0.2759  0.3666
  871MOL0     C20082   5.573   4.934   7.142 -0.7837 -0.4995 -0.6950
  871MOL0     C20083   5.716   4.880   7.129 -0.5106 -0.2418 -0.3464
  871MOL0     O20084   5.695   4.739   7.094 -0.0225 -0.5269  0.2537
  871MOL0     C20085   5.793   4.668   7.037 -0.6417  0.1065  0.0485
  871MOL0     C20086   5.934   4.687   7.037 -0.4706  0.2449  0.8106
  871MOL0     C20087   6.026   4.596   6.974 -0.7394 -0.3752 -0.0531
  871MOL0     C20088   6.176   4.632   6.992 -0.0754 -0.2677 -0.6426
  871MOL0     C20089   5.973   4.483   6.896 -0.4526 -0.1451  0.0050
  871MOL0     C20090   6.066   4.397   6.813 -0.5093 -0.4347 -0.3890
  871MOL0     O20091   6.025   4.270   6.782 -0.1728  0.1313  1.0822
  871MOL0     C20092   6.118   4.182   6.737  0.9722  0.2767  0.1146
  871MOL0     C20093   6.236   4.147   6.803 -0.8798 -0.2086 -0.2156
  871MOL0     C20094   6.313   4.046   6.766 -0.8285  0.4611 -0.2147
  871MOL0     C20095   6.281   3.961   6.656 -1.4062 -0.8289  0.0743
  871MOL0     O20096   6.376   3.878   6.605 -0.4544  0.1864 -0.4128
  871MOL0     C20097   6.370   3.816   6.476  0.1114  0.0616  0.9441
  871MOL0     C20098   6.313   3.667   6.481  1.3808 -0.1545 -0.4182
  871MOL0     C20099   6.373   3.583   6.595  0.8828  0.7359 -0.2778
  871MOL0     C20100   6.276   3.464   6.613 -0.3324  0.3383  0.9342
  871MOL0     C20101   6.342   3.371   6.717  0.4183 -0.3953  0.6681
  871MOL0     C20102   6.242   3.251   6.748  1.2213  1.4688  0.2613
  871MOL0     C20103   6.291   3.159   6.866 -0.9013  0.1802  1.6015
  871MOL0     C20104   6.419   3.085   6.836 -0.8849  0.0216  0.5027
  871MOL0    Cl20105   6.396   2.967   6.710 -0.1489  0.3251 -0.1215
  871MOL0     C20106   6.152   3.982   6.598 -0.2678 -0.3849 -0.3075
  871MOL0     C20107   6.079   4.091   6.633 -0.0972 -0.9229 -0.4555
  871MOL0     O20108   6.180   4.437   6.797  0.2972 -0.6541  0.1069
  871MOL0     C20109   5.832   4.471   6.893 -0.3891 -0.4189 -0.2599
  871MOL0     C20110   5.751   4.559   6.961 -0.2752 -0.0758 -0.4781
  871MOL0     N20111   5.475   5.320   7.352  1.0341 -0.1411 -0.3092
  871MOL0     N20112   5.459   5.449   7.371  0.0531  0.3218  0.9641
  871MOL0     C20113   5.266   5.594   6.652 -0.5020  0.6014  0.0120
  871MOL0     C20114   5.350   5.481   6.610  0.0857  0.7801 -0.5857
  871MOL0     C20115   5.660   5.152   6.679 -0.8658  0.0702  1.4228
  871MOL0     C20116   5.628   5.020   6.711 -0.1256 -0.1459 -0.3077
  871MOL0     C20117   5.700   4.913   6.685 -1.0837  0.3605 -0.4904
  871MOL0     C20118   5.823   4.933   6.621 -0.4638  0.0380  0.1405
  871MOL0     O20119   5.910   4.827   6.605 -0.0334 -0.0633 -0.3073
  871MOL0     C20120   5.869   4.739   6.501 -0.3309  0.0609  0.1023
  871MOL0     C20121   5.939   4.605   6.504  0.5326 -0.1126 -0.1391
  871MOL0     C20122   5.862   4.499   6.423 -0.4189  0.5953 -0.0206
  871MOL0     C20123   5.944   4.376   6.403 -0.4907 -0.0899 -0.2769
  871MOL0     C20124   5.883   4.279   6.304  0.7153 -0.6000  0.4929
  871MOL0     C20125   5.830   4.205   6.224 -0.0038 -0.3656  0.1578
  871MOL0     C20126   5.873   5.059   6.593  0.6305 -0.4631  0.5444
  871MOL0     C20127   5.790   5.171   6.619  0.9324 -0.2555 -0.7530
  871MOL0     C20128   5.837   5.302   6.589  0.7110  0.6410  0.1807
  871MOL0     H20129   5.588   5.520   6.850 -0.7218 -0.0180  2.7992
  871MOL0     H20130   5.424   5.702   6.925 -2.3278  1.6443 -0.3606
  871MOL0     H20131   5.213   5.893   6.642  0.2948  1.2690 -0.2725
  871MOL0     H20132   5.337   5.938   6.757 -0.2836 -0.1769  1.9330
  871MOL0     H20133   5.116   6.086   6.741  0.0651 -0.7058  0.4550
  871MOL0     H20134   5.061   5.961   6.855  1.0892 -4.8792 -0.8771
  871MOL0     H20135   5.306   6.146   6.870  1.8589 -1.7210 -0.7547
  871MOL0     H20136   5.169   6.160   6.976  0.8785 -0.7227  2.3920
  871MOL0     H20137   5.344   5.905   6.985 -0.2133 -0.5001  1.4594
  871MOL0     H20138   5.375   6.042   7.085  0.5689  0.9547 -0.7895
  871MOL0     H20139   5.117   5.882   7.084 -2.3907 -0.2915  2.4727
  871MOL0     H20140   5.133   6.024   7.177 -2.2145 -0.6546 -1.3888
  871MOL0     H20141   5.376   5.880   7.242 -0.2196  2.1197  2.2332
  871MOL0     H20142   5.233   5.890   7.334 -0.7042 -1.4713 -0.0514
  871MOL0     H20143   5.228   5.677   7.129 -0.1104  4.1916 -1.4387
  871MOL0     H20144   5.213   5.661   7.312  1.0219  1.5280  1.4502
  871MOL0     H20145   5.478   5.668   7.149  3.4993 -3.8031  2.1623
  871MOL0     H20146   5.470   5.697   7.320  1.3858  0.9751 -0.6475
  871MOL0     H20147   5.353   5.402   7.062  1.0041 -0.6377 -0.8893
  871MOL0     H20148   5.371   5.132   7.079  1.5582 -2.0599 -1.3866
  871MOL0     H20149   5.367   5.083   7.246  2.5250 -2.6966 -0.0728
  871MOL0     H20150   5.610   5.130   7.062  0.1253  0.0872  1.1225
  871MOL0     H20151   5.639   5.118   7.237  2.5902 -2.4263 -2.0305
  871MOL0     H20152   5.516   4.883   7.221 -2.5356  0.9955 -0.9280
  871MOL0     H20153   5.525   4.908   7.047 -1.7125 -1.4450 -0.0025
  871MOL0     H20154   5.780   4.938   7.062 -0.9826 -0.0585 -0.6421
  871MOL0     H20155   5.753   4.889   7.232 -2.8001 -1.9341  0.7111
  871MOL0     H20156   5.982   4.769   7.089  1.0461 -0.0363 -0.0750
  871MOL0     H20157   6.233   4.547   7.032 -0.1144 -0.0106 -0.0315
  871MOL0     H20158   6.179   4.706   7.072 -1.1704  1.6295 -2.2843
  871MOL0     H20159   6.230   4.674   6.906 -0.3879  3.3215  0.7589
  871MOL0     H20160   6.259   4.209   6.889 -2.4823 -1.6761  1.3598
  871MOL0     H20161   6.410   4.035   6.813  1.9817 -1.9099 -5.6077
  871MOL0     H20162   6.308   3.878   6.411  0.6602  1.3079  1.5750
  871MOL0     H20163   6.473   3.816   6.440  0.8744  2.0696  2.9611
  871MOL0     H20164   6.206   3.668   6.504  1.6246 -2.0849  1.1122
  871MOL0     H20165   6.342   3.621   6.387  1.6699  0.1544 -0.4834
  871MOL0     H20166   6.368   3.640   6.688 -3.4116  3.7274 -2.0517
  871MOL0     H20167   6.474   3.550   6.567  0.4810 -2.5380  1.5550
  871MOL0     H20168   6.250   3.417   6.518 -1.8028  1.9104  0.5103
  871MOL0     H20169   6.175   3.492   6.643 -0.8189  0.7852 -0.9610
  871MOL0     H20170   6.443   3.344   6.687  0.8911  2.1196 -0.2686
  871MOL0     H20171   6.359   3.421   6.813 -1.7108  0.0623  0.8715
  871MOL0     H20172   6.235   3.194   6.655 -0.5878  2.0361  0.0064
  871MOL0     H20173   6.148   3.296   6.782  0.2871  0.2284 -0.5951
  871MOL0     H20174   6.221   3.075   6.869  1.1694 -2.1254 -3.6138
  871MOL0     H20175   6.305   3.217   6.958 -0.1897 -0.5064  1.9363
  871MOL0     H20176   6.459   3.031   6.923  2.3785  1.7230  0.2152
  871MOL0     H20177   6.491   3.162   6.811  1.9888 -2.7159 -0.3027
  871MOL0     H20178   6.114   3.917   6.520 -2.2742 -1.0884  1.1780
  871MOL0     H20179   5.976   4.097   6.599 -0.9977 -2.6247  1.6910
  871MOL0     H20180   5.787   4.394   6.832 -0.3030 -0.9673  0.3530
  871MOL0     H20181   5.644   4.543   6.955 -0.4766  0.5575  0.9089
  871MOL0     H20182   5.169   5.594   6.603 -1.1490 -0.9670  1.1657
  871MOL0     H20183   5.322   5.417   6.528  2.7682  1.3733 -2.1021
  871MOL0     H20184   5.534   5.001   6.763 -0.2886  2.7489  0.6452
  871MOL0     H20185   5.688   4.816   6.734 -0.6116  0.7082  0.3305
  871MOL0     H20186   5.764   4.720   6.526 -1.1200  4.3377  0.7515
  871MOL0     H20187   5.869   4.789   6.403  3.5138  0.7136  0.3118
  871MOL0     H20188   5.940   4.579   6.610  2.2606  0.5447  0.0327
  871MOL0     H20189   6.039   4.624   6.465  1.7112 -0.0397  2.6719
  871MOL0     H20190   5.764   4.468   6.461 -0.6408  0.2608 -0.8411
  871MOL0     H20191   5.840   4.551   6.330 -3.0035 -1.0478 -0.4389
  871MOL0     H20192   5.955   4.320   6.496 -2.4255  1.8097  1.2143
  871MOL0     H20193   6.044   4.399   6.366 -0.9016 -0.3930 -1.6280
  871MOL0     H20194   5.781   4.130   6.164 -0.3331 -1.3005  1.5513
  871MOL0     H20195   5.970   5.082   6.551  0.0631  3.0670  0.7854
  871MOL0     H20196   5.777   5.352   6.511  2.2121 -0.7423 -1.9609
  871MOL0     H20197   5.822   5.372   6.672  1.2052 -0.4259  1.1942
  871MOL0     H20198   5.942   5.305   6.558  0.7483 -1.9915 -0.1335
  872MOL0     O20199   4.985   7.084   9.108  0.1216 -0.2404 -0.2435
  872MOL0     C20200   5.071   7.155   9.145 -0.9553  0.0850  1.3650
  872MOL0     O20201   5.184   7.115   9.217  0.7158 -0.6451 -0.9799
  872MOL0     C20202   5.196   6.982   9.256  0.6613  0.3757 -0.0018
  872MOL0     C20203   5.096   6.881   9.283  0.6068  0.4374  0.8042
  872MOL0     C20204   5.139   6.751   9.316  0.3920  0.0312  0.1536
  872MOL0     C20205   5.270   6.716   9.325 -1.4470  0.1809 -0.0314
  872MOL0     O20206   5.310   6.579   9.352 -0.2133 -1.0870  0.0677
  872MOL0     C20207   5.433   6.566   9.420 -0.2980  0.1283 -0.1632
  872MOL0     C20208   5.468   6.425   9.465  0.1816 -0.7227 -0.1514
  872MOL0     C20209   5.596   6.416   9.542  1.0590  0.6087  1.0960
  872MOL0     C20210   5.720   6.444   9.454 -1.1861  0.8193  0.5163
  872MOL0     C20211   5.830   6.337   9.461 -0.1059 -0.1339  0.0087
  872MOL0     C20212   5.908   6.358   9.593 -0.4866 -0.4248 -0.3272
  872MOL0     C20213   5.989   6.225   9.645 -0.0735 -0.3418 -0.2176
  872MOL0     C20214   6.068   6.135   9.548 -0.0029 -0.1655  0.9080
  872MOL0     N20215   6.108   6.004   9.620  0.8648 -0.8108 -0.2970
  872MOL0     C20216   6.189   6.016   9.735  0.1185  0.3899 -0.4921
  872MOL0     C20217   6.238   5.888   9.748 -0.2084 -0.0544 -0.9332
  872MOL0     C20218   6.324   5.822   9.863  0.7290  0.6440 -0.5495
  872MOL0     C20219   6.420   5.917   9.932  0.3601 -0.1260  0.0411
  872MOL0     C20220   6.525   5.963   9.836  0.4502  0.4741 -0.4556
  872MOL0     C20221   6.562   6.111   9.828  0.0941 -0.4517 -0.5316
  872MOL0     O20222   6.450   6.187   9.795 -0.4199  0.1246  0.2115
  872MOL0     C20223   6.483   6.324   9.787 -0.7158 -1.0546  0.0362
  872MOL0     C20224   6.408   6.401   9.691 -0.3630  0.6316  0.0202
  872MOL0     C20225   6.432   6.530   9.656 -0.6953  0.1512 -0.0951
  872MOL0     C20226   6.337   6.585   9.553  0.6004  0.6466  1.2643
  872MOL0     C20227   6.538   6.601   9.717 -0.6190  0.0725  0.3989
  872MOL0     C20228   6.557   6.745   9.699 -0.7308  0.2827 -0.2422
  872MOL0     O20229   6.473   6.814   9.622  0.2994  0.2528  0.8525
  872MOL0     C20230   6.487   6.950   9.612 -0.2638 -0.0035  0.1591
  872MOL0     C20231   6.448   7.039   9.716  0.2145 -0.6136 -0.2400
  872MOL0     C20232   6.450   7.177   9.689 -0.9773  0.0830 -0.9379
  872MOL0     C20233   6.487   7.233   9.572  0.0554  0.5120  0.1427
  872MOL0     O20234   6.501   7.361   9.562 -0.4256 -0.5939 -0.6156
  872MOL0     C20235   6.481   7.423   9.429 -0.3264  1.1152 -0.5394
  872MOL0     C20236   6.450   7.562   9.451  0.2179  0.0601 -0.7054
  872MOL0     C20237   6.565   7.634   9.521 -0.1055 -0.4589 -0.1178
  872MOL0     C20238   6.528   7.683   9.663  0.5585 -0.7622  0.6020
  872MOL0     C20239   6.649   7.764   9.706  0.2734 -0.6046 -0.1993
  872MOL0     C20240   6.624   7.798   9.852  0.0883  0.5727  0.5182
  872MOL0     C20241   6.656   7.685   9.942  0.2076 -1.1325 -1.0463
  872MOL0     C20242   6.641   7.718  10.090  1.8079 -0.8181 -0.2354
  872MOL0    Cl20243   6.475   7.766  10.131 -0.2617  0.3854  0.1378
  872MOL0     C20244   6.542   7.139   9.475 -0.4116 -0.5256  0.2909
  872MOL0     C20245   6.540   7.005   9.491 -1.0134  0.2639  0.1752
  872MOL0     O20246   6.663   6.797   9.751 -0.4303 -0.3249  0.2676
  872MOL0     C20247   6.615   6.531   9.813 -0.6014 -0.1806  0.1163
  872MOL0     C20248   6.592   6.401   9.850  1.0267  0.3363  1.2317
  872MOL0     N20249   6.194   5.822   9.637  0.2523 -0.1984 -0.2337
  872MOL0     N20250   6.129   5.890   9.560 -0.3085  0.9864  0.1969
  872MOL0     C20251   5.372   6.811   9.298 -0.4680  0.5945  0.1426
  872MOL0     C20252   5.334   6.940   9.257  0.2965 -0.2946 -0.3349
  872MOL0     C20253   5.093   7.285   9.088 -0.1306 -0.2746  1.0200
  872MOL0     C20254   5.176   7.374   9.159 -0.3367  0.0467 -0.2001
  872MOL0     C20255   5.211   7.502   9.119  0.1656  0.8775  0.1836
  872MOL0     C20256   5.154   7.551   9.002 -0.2304 -0.4197 -0.1450
  872MOL0     O20257   5.214   7.670   8.957 -0.8022  0.3186 -1.2542
  872MOL0     C20258   5.158   7.727   8.843 -0.8811 -0.0640 -0.5006
  872MOL0     C20259   5.247   7.855   8.814  0.5586 -0.6813  0.5667
  872MOL0     C20260   5.376   7.810   8.755 -0.1472  0.3278  0.7547
  872MOL0     C20261   5.476   7.918   8.749 -0.3675  0.7441  0.0973
  872MOL0     C20262   5.434   8.025   8.661  0.4574 -1.3970  0.1411
  872MOL0     C20263   5.415   8.108   8.571 -0.4505 -0.0441  0.6356
  872MOL0     C20264   5.078   7.467   8.914 -0.2384 -0.0675  0.1513
  872MOL0     C20265   5.052   7.339   8.960 -0.2896  0.2733  0.5254
  872MOL0     C20266   4.977   7.259   8.861  0.0907 -0.4831  0.2725
  872MOL0     H20267   4.993   6.913   9.288  0.7573  1.0539  0.1023
  872MOL0     H20268   5.070   6.670   9.336  0.0818 -0.6577 -3.0823
  872MOL0     H20269   5.419   6.631   9.507  0.4262  1.9237 -1.3348
  872MOL0     H20270   5.523   6.597   9.366 -0.6308  0.2720 -0.6413
  872MOL0     H20271   5.384   6.394   9.527  0.8666 -1.7362  0.2957
  872MOL0     H20272   5.470   6.362   9.375  1.8264  1.3880 -1.7265
  872MOL0     H20273   5.601   6.485   9.627  1.0885  0.7473  0.9826
  872MOL0     H20274   5.594   6.311   9.572  0.7051  0.8440  1.9252
  872MOL0     H20275   5.694   6.451   9.348 -0.4794  1.0290  0.3563
  872MOL0     H20276   5.761   6.544   9.467  3.2057 -0.0317 -3.8288
  872MOL0     H20277   5.898   6.356   9.378 -0.8735  0.3427 -0.5250
  872MOL0     H20278   5.790   6.235   9.463 -3.1620  0.9454 -0.2005
  872MOL0     H20279   5.979   6.440   9.580  3.1792 -3.0502  1.3669
  872MOL0     H20280   5.842   6.403   9.668 -1.5334  0.9479 -2.0124
  872MOL0     H20281   5.910   6.176   9.703 -2.0405  2.9254  0.1407
  872MOL0     H20282   6.057   6.261   9.723  0.0367  0.3059 -0.6009
  872MOL0     H20283   6.007   6.111   9.461 -0.3806  2.6849  0.2682
  872MOL0     H20284   6.151   6.197   9.512 -1.1390  0.8017 -0.1631
  872MOL0     H20285   6.202   6.092   9.811 -0.4392 -0.7591  0.8070
  872MOL0     H20286   6.370   5.730   9.828 -0.8993 -2.2738  4.0113
  872MOL0     H20287   6.256   5.786   9.941 -0.1630 -0.1018 -1.6462
  872MOL0     H20288   6.359   5.997   9.976 -1.2461 -2.0061  1.4129
  872MOL0     H20289   6.461   5.871  10.022  1.3251 -0.3229 -0.4818
  872MOL0     H20290   6.618   5.913   9.863 -1.2852 -2.8454 -0.0771
  872MOL0     H20291   6.505   5.926   9.735  2.1076  3.5617 -2.0324
  872MOL0     H20292   6.593   6.128   9.932 -2.1300  0.0600  0.1025
  872MOL0     H20293   6.652   6.125   9.767 -0.4764  0.9033 -1.0981
  872MOL0     H20294   6.335   6.341   9.638  2.6800 -0.5656 -3.2697
  872MOL0     H20295   6.388   6.635   9.469  1.8468 -0.5096  1.3002
  872MOL0     H20296   6.277   6.659   9.607 -1.1686 -2.0272  3.1709
  872MOL0     H20297   6.274   6.511   9.504  2.3429 -1.6837  2.3528
  872MOL0     H20298   6.403   7.000   9.807 -1.2112 -0.8928 -1.0409
  872MOL0     H20299   6.422   7.247   9.766 -0.2171 -0.9197  0.2896
  872MOL0     H20300   6.567   7.406   9.362  1.4466  2.0758  1.3641
  872MOL0     H20301   6.396   7.365   9.394 -1.9760  0.8778  3.3332
  872MOL0     H20302   6.421   7.619   9.363 -0.6869  0.6195 -0.0670
  872MOL0     H20303   6.365   7.559   9.520  1.1061  0.4064  0.4607
  872MOL0     H20304   6.584   7.734   9.481 -0.1381 -0.6735 -0.6883
  872MOL0     H20305   6.657   7.576   9.535 -1.6603 -3.2448 -0.5391
  872MOL0     H20306   6.511   7.598   9.730 -0.7732 -1.8699 -1.0509
  872MOL0     H20307   6.440   7.747   9.649  2.5966  1.8673 -1.2288
  872MOL0     H20308   6.745   7.718   9.684 -1.1557 -2.6087 -2.9304
  872MOL0     H20309   6.643   7.864   9.662 -0.0816  0.8780  2.9586
  872MOL0     H20310   6.520   7.830   9.863  0.5757  4.3128 -3.1750
  872MOL0     H20311   6.688   7.883   9.879  0.1838  0.3899  0.8607
  872MOL0     H20312   6.761   7.658   9.928  0.3208 -0.8925 -0.6811
  872MOL0     H20313   6.583   7.607   9.918 -0.0020 -0.0278 -4.4561
  872MOL0     H20314   6.708   7.802  10.109  0.2797 -0.0188  2.1221
  872MOL0     H20315   6.659   7.634  10.157  1.4236 -0.3401  0.4842
  872MOL0     H20316   6.597   7.187   9.395 -1.9861 -0.2708 -0.6844
  872MOL0     H20317   6.593   6.944   9.419  0.7243 -0.2279  1.7786
  872MOL0     H20318   6.675   6.591   9.882  0.1999 -1.0707  0.2069
  872MOL0     H20319   6.662   6.345   9.911  2.2414 -2.6439 -2.4938
  872MOL0     H20320   5.476   6.782   9.306 -0.1267  2.0352  1.3404
  872MOL0     H20321   5.410   7.017   9.245  0.5866 -0.3842  0.7708
  872MOL0     H20322   5.225   7.338   9.249 -0.3607  1.0686  0.2269
  872MOL0     H20323   5.276   7.566   9.179 -0.5665  2.5181 -0.7013
  872MOL0     H20324   5.170   7.651   8.765 -0.2794 -1.6466  1.0572
  872MOL0     H20325   5.050   7.744   8.856 -0.8085 -0.1483  0.2267
  872MOL0     H20326   5.273   7.894   8.913 -0.5840 -2.8027  1.7861
  872MOL0     H20327   5.187   7.920   8.750 -1.2297 -1.5193  1.2950
  872MOL0     H20328   5.415   7.735   8.825  0.3114  0.5369  0.7281
  872MOL0     H20329   5.355   7.763   8.659  0.3557 -1.8266  1.6516
  872MOL0     H20330   5.574   7.884   8.714 -0.9772 -0.7552 -0.1869
  872MOL0     H20331   5.485   7.963   8.849 -0.4600 -1.2125  1.0225
  872MOL0     H20332   5.398   8.193   8.509 -0.1203 -0.4212  0.0246
  872MOL0     H20333   5.046   7.500   8.816  1.8720  0.9797 -0.2553
  872MOL0     H20334   4.874   7.296   8.867  0.8248  2.0627 -1.3493
  872MOL0     H20335   5.013   7.275   8.759 -3.2114  3.1603 -0.5400
  872MOL0     H20336   4.985   7.153   8.887  0.1249 -0.3480  0.8419
  873MOL0     O20337   8.717   4.045   3.294 -0.5239 -0.7599  1.1141
  873MOL0     C20338   8.798   3.960   3.311  0.0350  0.3423  0.0184
  873MOL0     O20339   8.779   3.837   3.247 -0.7540  0.2816 -0.6802
  873MOL0     C20340   8.658   3.785   3.205  0.3565  0.9155 -0.6766
  873MOL0     C20341   8.629   3.648   3.226 -0.2933 -0.3393 -0.5698
  873MOL0     C20342   8.506   3.602   3.186 -0.4660 -0.4749 -0.1965
  873MOL0     C20343   8.426   3.677   3.101  0.1062 -1.2709  0.2427
  873MOL0     O20344   8.302   3.634   3.051 -0.2301 -0.6515  0.5346
  873MOL0     C20345   8.209   3.601   3.154 -0.1328 -0.7316 -1.1030
  873MOL0     C20346   8.140   3.718   3.225 -0.2906 -0.9681 -0.1909
  873MOL0     C20347   8.053   3.804   3.129  0.0161  0.0613  0.1861
  873MOL0     C20348   7.965   3.893   3.224 -0.3628 -0.3484 -0.2042
  873MOL0     C20349   7.869   3.975   3.137  0.6094 -0.3074 -0.4633
  873MOL0     C20350   7.815   4.075   3.237  0.4304 -0.4630 -0.2294
  873MOL0     C20351   7.696   4.152   3.179 -0.3561  0.5842 -0.4859
  873MOL0     C20352   7.680   4.298   3.235 -0.0117 -0.0172 -0.6541
  873MOL0     N20353   7.763   4.399   3.172  0.2862 -0.1594 -0.3162
  873MOL0     C20354   7.795   4.408   3.039  0.0801  0.3958 -0.6808
  873MOL0     C20355   7.919   4.457   3.030  0.4603 -0.7919 -1.1672
  873MOL0     C20356   7.992   4.476   2.896  0.1036 -0.5807  0.5240
  873MOL0     C20357   7.994   4.631   2.863  0.8165 -0.2019 -0.4396
  873MOL0     C20358   8.042   4.720   2.980 -1.4699  0.7073  0.2551
  873MOL0     C20359   8.186   4.691   3.034  0.4458 -0.8782  0.6341
  873MOL0     O20360   8.252   4.816   3.068  0.0737 -0.6403  0.8744
  873MOL0     C20361   8.201   4.890   3.177 -0.1253 -0.1856  0.7740
  873MOL0     C20362   8.120   4.851   3.282 -0.6134  0.3500  0.5309
  873MOL0     C20363   8.087   4.934   3.391 -1.2143  0.4447 -0.1658
  873MOL0     C20364   8.014   4.871   3.501  0.0337  0.3413 -0.6924
  873MOL0     C20365   8.124   5.075   3.389  0.6971  0.3045  0.0862
  873MOL0     C20366   8.071   5.196   3.460  0.4390  0.4326  0.6006
  873MOL0     O20367   8.139   5.314   3.450  0.5246 -0.0143  0.5063
  873MOL0     C20368   8.117   5.412   3.545  0.2606  0.4871  0.6460
  873MOL0     C20369   8.112   5.548   3.500  0.4380 -0.2331 -0.2982
  873MOL0     C20370   8.101   5.658   3.595  1.0644 -0.5404 -0.5515
  873MOL0     C20371   8.100   5.626   3.733  0.8580 -0.4261  0.0757
  873MOL0     O20372   8.078   5.732   3.819  0.1373  0.4839  0.2229
  873MOL0     C20373   7.945   5.733   3.871  0.6604  0.4540 -0.5249
  873MOL0     C20374   7.845   5.786   3.777  0.2029  1.1309  1.1601
  873MOL0     C20375   7.847   5.935   3.773 -0.2867  0.1002  0.0323
  873MOL0     C20376   7.713   6.000   3.736 -0.6492 -0.4549 -0.0919
  873MOL0     C20377   7.727   6.154   3.711 -0.1348  0.1611  0.2593
  873MOL0     C20378   7.598   6.212   3.647  0.0139  0.7523 -0.1894
  873MOL0     C20379   7.486   6.225   3.758 -0.3370  0.9372  0.0835
  873MOL0     C20380   7.352   6.257   3.689 -0.1581  0.8720 -1.0202
  873MOL0    Cl20381   7.299   6.110   3.604  0.4092  0.0272 -0.2695
  873MOL0     C20382   8.118   5.492   3.773 -0.2408 -0.3153  0.8384
  873MOL0     C20383   8.130   5.388   3.684 -0.4075 -0.4022 -0.4020
  873MOL0     O20384   7.969   5.176   3.529 -0.5640 -0.9332  0.1318
  873MOL0     C20385   8.206   5.110   3.278  0.2030  1.1204  0.1465
  873MOL0     C20386   8.246   5.019   3.184  0.3597  0.4926 -0.4885
  873MOL0     N20387   7.967   4.483   3.158 -0.6721 -0.4649  0.4234
  873MOL0     N20388   7.873   4.445   3.240 -0.3233 -0.7332  0.7738
  873MOL0     C20389   8.461   3.803   3.065 -0.0757 -0.3362  0.0063
  873MOL0     C20390   8.575   3.869   3.126  0.6466 -0.0579 -0.3570
  873MOL0     C20391   8.934   3.998   3.340 -0.5036  0.1497  0.3867
  873MOL0     C20392   9.031   3.948   3.258 -0.0217 -0.0924 -0.1340
  873MOL0     C20393   9.162   3.989   3.266 -0.1829  0.5131 -0.5483
  873MOL0     C20394   9.199   4.086   3.358 -0.7641  0.3769  1.1284
  873MOL0     O20395   9.329   4.138   3.368  0.0890  0.0786 -0.2419
  873MOL0     C20396   9.440   4.089   3.288 -0.6461 -0.5909 -0.6334
  873MOL0     C20397   9.483   3.945   3.326 -0.1200  0.8138  0.0682
  873MOL0     C20398   9.519   3.934   3.473 -0.1956 -0.4685 -0.0537
  873MOL0     C20399   9.590   3.808   3.502  0.4381 -0.0328 -0.9997
  873MOL0     C20400   9.724   3.782   3.442  0.5947 -0.7052 -0.9742
  873MOL0     C20401   9.814   3.765   3.366  1.6468 -0.4679 -0.4297
  873MOL0     C20402   9.109   4.132   3.446  0.1323 -0.6077 -0.1234
  873MOL0     C20403   8.976   4.090   3.434  0.5225  0.1431  0.6817
  873MOL0     C20404   8.877   4.160   3.520  0.5170 -0.7316 -0.5747
  873MOL0     H20405   8.699   3.583   3.277  1.1462  1.6996  0.1999
  873MOL0     H20406   8.472   3.502   3.213 -2.0846 -0.0094 -0.3831
  873MOL0     H20407   8.260   3.538   3.227 -2.3017  1.3557  2.5294
  873MOL0     H20408   8.128   3.544   3.106  0.0209 -1.7370 -0.2073
  873MOL0     H20409   8.070   3.673   3.296 -0.6009 -0.3552 -0.0972
  873MOL0     H20410   8.208   3.781   3.283 -1.8518 -2.0622  3.0637
  873MOL0     H20411   8.116   3.863   3.061  0.3885  0.9927  1.3022
  873MOL0     H20412   7.998   3.734   3.066 -0.0555  2.9171 -3.2862
  873MOL0     H20413   7.906   3.827   3.288  0.3970 -0.7659  0.0859
  873MOL0     H20414   8.036   3.947   3.286  1.1078 -1.9069 -0.4503
  873MOL0     H20415   7.786   3.910   3.107 -0.0163  0.4430 -0.3965
  873MOL0     H20416   7.927   4.006   3.049  0.0977 -0.3470 -0.8197
  873MOL0     H20417   7.785   4.017   3.324 -0.1488  0.8118  0.4518
  873MOL0     H20418   7.895   4.150   3.246  0.2381 -0.3372  0.5366
  873MOL0     H20419   7.610   4.090   3.208  0.4383 -0.3961 -0.1844
  873MOL0     H20420   7.715   4.167   3.072 -1.5127  1.9095 -0.5283
  873MOL0     H20421   7.579   4.339   3.224 -0.2988  0.0100  1.6659
  873MOL0     H20422   7.709   4.301   3.340  3.1711 -0.3713 -1.4234
  873MOL0     H20423   7.754   4.349   2.958 -2.0914 -0.9236  1.2513
  873MOL0     H20424   7.942   4.428   2.812 -1.3838  0.3887  0.8064
  873MOL0     H20425   8.094   4.440   2.905  0.2382 -0.7794 -1.4043
  873MOL0     H20426   8.064   4.657   2.783  1.3990  0.3779  0.2463
  873MOL0     H20427   7.893   4.668   2.841  2.0144  2.9342 -1.1449
  873MOL0     H20428   8.048   4.823   2.942  0.7939  0.5751  0.1474
  873MOL0     H20429   7.955   4.722   3.046 -1.3878 -1.9674  0.5384
  873MOL0     H20430   8.177   4.630   3.125 -2.7365 -1.7221 -0.1384
  873MOL0     H20431   8.242   4.654   2.948  0.2799  2.5772 -1.1303
  873MOL0     H20432   8.082   4.749   3.285 -0.3084  0.1901 -0.6115
  873MOL0     H20433   8.049   4.883   3.604  2.8280 -1.1804 -1.3688
  873MOL0     H20434   8.025   4.763   3.488  4.6746  0.2128  1.9991
  873MOL0     H20435   7.908   4.898   3.490  0.3683  1.3592 -1.4930
  873MOL0     H20436   8.122   5.572   3.394  0.7433  2.1805  0.2324
  873MOL0     H20437   8.097   5.758   3.554  2.8129 -0.2067 -0.0024
  873MOL0     H20438   7.910   5.631   3.888 -0.0450  0.1566 -3.3222
  873MOL0     H20439   7.948   5.801   3.957  1.4757  0.9415 -0.9256
  873MOL0     H20440   7.870   5.747   3.677  1.4281 -0.3250  1.9912
  873MOL0     H20441   7.749   5.744   3.808 -0.1666 -0.2740 -1.5471
  873MOL0     H20442   7.928   5.966   3.706 -1.2688  1.1508 -0.7203
  873MOL0     H20443   7.880   5.962   3.874  1.8430 -1.1133 -0.2770
  873MOL0     H20444   7.646   5.985   3.821  0.1518  0.4169  0.7296
  873MOL0     H20445   7.685   5.956   3.640  0.6667 -3.3826  0.7612
  873MOL0     H20446   7.748   6.203   3.806 -1.2139  0.0967  0.5484
  873MOL0     H20447   7.808   6.170   3.640  1.1840 -1.9238  1.1903
  873MOL0     H20448   7.572   6.145   3.565  2.1655 -2.3681  1.4821
  873MOL0     H20449   7.609   6.318   3.621  1.2461  0.6783 -0.0028
  873MOL0     H20450   7.518   6.304   3.827  1.4507  0.7453 -0.4727
  873MOL0     H20451   7.464   6.130   3.807 -2.6249  1.8419  0.9375
  873MOL0     H20452   7.357   6.348   3.628 -3.6170 -0.3454 -3.4670
  873MOL0     H20453   7.279   6.283   3.766 -0.5400 -0.7762 -0.8046
  873MOL0     H20454   8.125   5.453   3.874  0.9661 -2.6730 -0.0513
  873MOL0     H20455   8.144   5.287   3.719 -1.3147  0.1631  1.7772
  873MOL0     H20456   8.238   5.210   3.251  2.8963 -0.0094 -1.1853
  873MOL0     H20457   8.321   5.043   3.109  0.0117  1.3262 -0.5703
  873MOL0     H20458   8.394   3.856   2.998 -2.4925 -0.0580  2.4631
  873MOL0     H20459   8.595   3.973   3.102 -1.8106  0.5334 -0.0743
  873MOL0     H20460   9.010   3.880   3.176 -0.4885  1.2858 -1.2073
  873MOL0     H20461   9.237   3.966   3.191  1.6314  3.2147  0.2863
  873MOL0     H20462   9.420   4.076   3.181 -1.7785 -2.4699 -0.2336
  873MOL0     H20463   9.523   4.159   3.300 -1.1065  0.2359 -2.0695
  873MOL0     H20464   9.571   3.916   3.268 -0.7100  0.3941 -0.6265
  873MOL0     H20465   9.408   3.870   3.300  1.7243 -0.9863 -0.2543
  873MOL0     H20466   9.582   4.014   3.512 -0.2419 -1.7554  2.9223
  873MOL0     H20467   9.430   3.949   3.535  0.3957 -0.5001  0.8181
  873MOL0     H20468   9.527   3.724   3.473 -1.4453  1.8173 -2.6741
  873MOL0     H20469   9.607   3.809   3.610 -0.5298 -2.6059 -0.7594
  873MOL0     H20470   9.895   3.775   3.296  1.1948 -0.2421 -0.9182
  873MOL0     H20471   9.134   4.217   3.510  0.9705 -0.5275 -0.5447
  873MOL0     H20472   8.807   4.085   3.556 -1.8620  1.4737 -0.3132
  873MOL0     H20473   8.922   4.211   3.605  0.3589 -1.8928  0.2266
  873MOL0     H20474   8.822   4.238   3.465  0.0374 -1.4189 -1.0830
  874MOL0     O20475   5.050   6.371   6.607  0.1011  0.3727  0.0345
  874MOL0     C20476   4.971   6.435   6.541  0.9869  0.6571  0.6866
  874MOL0     O20477   4.999   6.524   6.437  0.0185 -0.4346  0.0255
  874MOL0     C20478   5.127   6.537   6.396 -0.6710 -0.8899 -0.3721
  874MOL0     C20479   5.218   6.430   6.376 -0.2254 -0.1918 -0.3103
  874MOL0     C20480   5.347   6.441   6.336 -0.5446  0.4582  0.2477
  874MOL0     C20481   5.393   6.566   6.289  0.1113 -0.1201 -0.7199
  874MOL0     O20482   5.523   6.559   6.245 -1.1622 -0.0851 -0.1486
  874MOL0     C20483   5.580   6.683   6.187  0.1683 -0.6036  0.0653
  874MOL0     C20484   5.730   6.658   6.145 -0.2452  0.0092  0.9990
  874MOL0     C20485   5.809   6.793   6.166  0.2200  0.3207 -0.0344
  874MOL0     C20486   5.953   6.759   6.132 -0.0036 -0.3342 -0.3893
  874MOL0     C20487   6.038   6.886   6.162 -0.1645  1.1621 -0.9131
  874MOL0     C20488   6.191   6.890   6.120  0.2215 -0.7280 -0.2979
  874MOL0     C20489   6.280   6.786   6.195 -0.8072 -0.2355 -0.4273
  874MOL0     C20490   6.424   6.811   6.177 -0.3122 -0.4618  0.1139
  874MOL0     N20491   6.463   6.812   6.037 -0.0760  0.2768 -0.7247
  874MOL0     C20492   6.517   6.914   5.972  0.3333 -0.1213  0.5099
  874MOL0     C20493   6.518   6.878   5.844 -0.8930  0.4405 -0.7495
  874MOL0     C20494   6.551   6.970   5.734 -0.2818  0.5167 -0.0590
  874MOL0     C20495   6.621   6.894   5.627 -0.3568 -0.7135  0.1085
  874MOL0     C20496   6.670   6.990   5.515  0.1528  0.2362 -0.6134
  874MOL0     C20497   6.759   6.932   5.413  0.1812  0.5409  0.3288
  874MOL0     O20498   6.701   6.819   5.355 -0.2703 -0.1485 -0.7976
  874MOL0     C20499   6.770   6.703   5.365 -0.3033  0.1571  0.5829
  874MOL0     C20500   6.855   6.660   5.266 -0.0858  0.6325  0.4939
  874MOL0     C20501   6.894   6.525   5.251  0.0911 -0.4170 -0.2078
  874MOL0     C20502   6.966   6.486   5.121  0.1281  0.1228 -0.3113
  874MOL0     C20503   6.856   6.436   5.357  0.4639  0.8104  0.4423
  874MOL0     C20504   6.903   6.290   5.366 -0.4764 -0.1466 -0.6502
  874MOL0     O20505   6.956   6.255   5.491  0.0864  0.3524 -1.0787
  874MOL0     C20506   7.006   6.125   5.501 -0.3624 -0.3835  0.7592
  874MOL0     C20507   6.952   6.033   5.593  0.3095 -0.3999 -0.4365
  874MOL0     C20508   6.995   5.899   5.606 -0.4280  0.7593 -0.9468
  874MOL0     C20509   7.099   5.851   5.521  0.4492 -0.4279 -0.6414
  874MOL0     O20510   7.150   5.718   5.514  0.1252  0.6305  0.1192
  874MOL0     C20511   7.192   5.674   5.640 -0.6256  0.2034  0.5284
  874MOL0     C20512   7.252   5.529   5.637  0.0594 -0.3444 -0.6798
  874MOL0     C20513   7.298   5.491   5.777 -0.1351 -0.6904  0.3455
  874MOL0     C20514   7.434   5.545   5.819  0.5381  0.6920  0.5091
  874MOL0     C20515   7.482   5.470   5.947  0.4780  0.0383  0.4843
  874MOL0     C20516   7.593   5.553   6.008  0.1711 -0.7707 -0.3345
  874MOL0     C20517   7.727   5.471   5.986 -0.0178 -0.3643 -0.2590
  874MOL0     C20518   7.838   5.539   6.064  1.1634  0.7252  0.7938
  874MOL0    Cl20519   7.832   5.533   6.242 -0.2961 -0.0727 -0.3686
  874MOL0     C20520   7.143   5.941   5.419 -0.4994  0.7763  0.0851
  874MOL0     C20521   7.104   6.079   5.411  0.6100  0.3281  0.7536
  874MOL0     O20522   6.894   6.211   5.270  0.0615 -0.3276 -0.5234
  874MOL0     C20523   6.786   6.479   5.465  0.7359  0.2924  0.4569
  874MOL0     C20524   6.730   6.608   5.460  0.1393 -0.3147  0.1557
  874MOL0     N20525   6.477   6.749   5.831  0.2638  0.4534  0.7089
  874MOL0     N20526   6.444   6.703   5.952  0.2717 -0.4816  1.5560
  874MOL0     C20527   5.308   6.673   6.300  0.4077  0.0083 -0.2934
  874MOL0     C20528   5.177   6.664   6.362 -0.3455 -0.6025 -0.3092
  874MOL0     C20529   4.824   6.439   6.572 -0.1924  0.0449 -0.0805
  874MOL0     C20530   4.757   6.566   6.584  0.4233  0.4651 -0.3627
  874MOL0     C20531   4.612   6.568   6.611  0.4406  0.8278  0.2006
  874MOL0     C20532   4.547   6.454   6.638 -0.3157 -0.2452  0.4459
  874MOL0     O20533   4.415   6.470   6.672 -0.6036 -0.4634 -0.0199
  874MOL0     C20534   4.344   6.346   6.686  1.0527  0.7171  0.5739
  874MOL0     C20535   4.198   6.343   6.722  0.7258  0.0824  0.6925
  874MOL0     C20536   4.101   6.418   6.623  0.1754  0.0358  0.6581
  874MOL0     C20537   4.092   6.375   6.478  0.2970 -0.0327 -0.1660
  874MOL0     C20538   4.109   6.234   6.462 -0.5239  0.4448 -0.0254
  874MOL0     C20539   4.121   6.114   6.439  0.4228  0.7902 -0.7315
  874MOL0     C20540   4.616   6.332   6.621  1.4398 -0.0726  0.2859
  874MOL0     C20541   4.747   6.324   6.582 -0.1820  0.4854 -0.1969
  874MOL0     C20542   4.803   6.189   6.565  0.1636  0.2922  0.8691
  874MOL0     H20543   5.185   6.331   6.407  0.0458  0.1640  1.1642
  874MOL0     H20544   5.410   6.353   6.342  0.7399  1.2994 -0.3511
  874MOL0     H20545   5.574   6.763   6.262  0.9683 -0.4374 -0.0370
  874MOL0     H20546   5.519   6.716   6.102 -0.3937  0.6962  0.9182
  874MOL0     H20547   5.760   6.574   6.208 -1.2503 -1.4897 -0.4120
  874MOL0     H20548   5.726   6.633   6.038 -0.5497  2.2390  0.4307
  874MOL0     H20549   5.781   6.872   6.096  1.0142  1.2784  0.6966
  874MOL0     H20550   5.797   6.833   6.267 -4.1403  0.6538 -0.5039
  874MOL0     H20551   5.994   6.684   6.201  1.0779  0.6670  0.0729
  874MOL0     H20552   5.961   6.729   6.027 -3.2284  1.0294 -1.1330
  874MOL0     H20553   6.033   6.900   6.271  0.2002 -2.4660 -0.3043
  874MOL0     H20554   5.983   6.968   6.114 -0.5732  0.7198 -1.2072
  874MOL0     H20555   6.201   6.867   6.014  0.2329 -0.8081 -0.2802
  874MOL0     H20556   6.227   6.988   6.153  0.9062 -0.1965 -2.4695
  874MOL0     H20557   6.253   6.683   6.172  1.0321 -0.9917  0.6549
  874MOL0     H20558   6.251   6.787   6.300  0.1894 -2.9181 -0.0555
  874MOL0     H20559   6.446   6.913   6.208  0.5517 -0.3943 -0.6688
  874MOL0     H20560   6.474   6.736   6.239  1.2653 -0.9800 -1.6712
  874MOL0     H20561   6.547   7.011   6.011 -1.2787  0.0127  1.5069
  874MOL0     H20562   6.619   7.047   5.771  1.3676 -2.1199  2.8902
  874MOL0     H20563   6.453   7.002   5.698 -0.2567  0.7622  0.0910
  874MOL0     H20564   6.704   6.830   5.655  0.3656 -0.2844 -0.9979
  874MOL0     H20565   6.551   6.826   5.578  0.3046 -1.9416  0.8275
  874MOL0     H20566   6.585   7.025   5.455 -1.6093 -2.0571  0.4058
  874MOL0     H20567   6.717   7.077   5.563 -2.4387  0.3490  1.9623
  874MOL0     H20568   6.793   6.999   5.333  0.2042  0.3540  0.1801
  874MOL0     H20569   6.839   6.903   5.482 -0.4496 -0.4482  0.6597
  874MOL0     H20570   6.887   6.722   5.184 -0.5432 -3.7598 -3.4081
  874MOL0     H20571   6.882   6.468   5.054 -0.8179 -2.1758  1.3947
  874MOL0     H20572   7.023   6.393   5.124  0.6579  0.4302 -0.6126
  874MOL0     H20573   7.031   6.570   5.092 -2.6776  2.2541 -0.8793
  874MOL0     H20574   6.867   6.068   5.651  0.2052 -1.2256 -0.0665
  874MOL0     H20575   6.948   5.832   5.677  1.4099 -0.3655 -0.7140
  874MOL0     H20576   7.268   5.737   5.686 -0.0141  1.2341 -1.7704
  874MOL0     H20577   7.108   5.659   5.709  1.8226  0.4914  3.7743
  874MOL0     H20578   7.175   5.468   5.590 -0.9101  1.0571 -0.9716
  874MOL0     H20579   7.334   5.529   5.565  3.0711  3.0191  2.2970
  874MOL0     H20580   7.306   5.382   5.778 -2.5109 -0.9883 -2.0859
  874MOL0     H20581   7.225   5.520   5.854 -1.6045  1.5437 -1.7169
  874MOL0     H20582   7.420   5.651   5.840  0.8578  1.2131 -1.6354
  874MOL0     H20583   7.513   5.535   5.744  0.6478 -0.7619  0.7777
  874MOL0     H20584   7.398   5.470   6.017 -2.8358  1.9470 -3.0631
  874MOL0     H20585   7.508   5.365   5.927  0.9455 -0.3673  2.9106
  874MOL0     H20586   7.580   5.567   6.116  1.8034 -2.3414  0.1280
  874MOL0     H20587   7.597   5.644   5.948 -0.3589 -0.7571 -0.3566
  874MOL0     H20588   7.755   5.470   5.880 -1.7320  0.0415 -0.7482
  874MOL0     H20589   7.710   5.367   6.015 -0.8272 -0.6896 -1.7559
  874MOL0     H20590   7.852   5.647   6.050  0.2604  1.0076  1.8786
  874MOL0     H20591   7.930   5.488   6.037  0.6095 -0.9217  1.8891
  874MOL0     H20592   7.224   5.902   5.358 -0.8950 -4.2315  2.2053
  874MOL0     H20593   7.131   6.140   5.325 -3.1736  1.6281  0.2935
  874MOL0     H20594   6.756   6.406   5.540 -0.8986 -3.6743 -3.6064
  874MOL0     H20595   6.660   6.630   5.540 -2.7039  2.2022 -2.7435
  874MOL0     H20596   5.342   6.771   6.268 -1.4528  0.4871 -0.8935
  874MOL0     H20597   5.113   6.751   6.376  0.4488 -0.1075  0.3383
  874MOL0     H20598   4.813   6.659   6.588  0.8022  0.1850  1.1208
  874MOL0     H20599   4.574   6.670   6.614  3.0686  1.8991 -0.0000
  874MOL0     H20600   4.353   6.285   6.595  0.5669 -0.9362  1.5836
  874MOL0     H20601   4.399   6.295   6.766  0.7739  0.7001  0.7541
  874MOL0     H20602   4.194   6.402   6.814  2.3202  1.0408  0.1853
  874MOL0     H20603   4.163   6.239   6.721 -1.1663  0.6964 -0.4393
  874MOL0     H20604   4.000   6.408   6.663 -0.3978  0.6692 -0.5669
  874MOL0     H20605   4.123   6.525   6.613 -2.4907  0.5755 -0.2375
  874MOL0     H20606   4.182   6.417   6.432  0.1169  0.6705  0.1062
  874MOL0     H20607   4.000   6.411   6.432 -1.0218 -2.6952  0.1759
  874MOL0     H20608   4.113   6.008   6.423  1.6208  0.8910 -2.1744
  874MOL0     H20609   4.557   6.245   6.646 -0.6983  1.1694 -0.1124
  874MOL0     H20610   4.903   6.161   6.601  0.1666 -0.2186  0.4752
  874MOL0     H20611   4.742   6.106   6.601  2.4487 -2.9071 -2.0073
  874MOL0     H20612   4.829   6.166   6.462 -0.6904  0.2565  0.6560
  875MOL0     O20613  10.890   1.265   4.464 -0.4742 -0.6601  0.5901
  875MOL0     C20614  10.938   1.302   4.356 -0.4714 -1.1553 -0.3226
  875MOL0     O20615  11.038   1.382   4.334 -1.0093  0.2375 -0.1128
  875MOL0     C20616  11.119   1.443   4.432  0.5811 -0.4189 -0.1371
  875MOL0     C20617  11.196   1.553   4.381 -0.5821 -0.0836  1.2354
  875MOL0     C20618  11.277   1.627   4.471 -0.1323  0.0594  0.9435
  875MOL0     C20619  11.283   1.595   4.603 -0.4842  0.0246  0.0457
  875MOL0     O20620  11.361   1.658   4.696  0.4302  0.2632 -0.0621
  875MOL0     C20621  11.464   1.748   4.643 -0.3650  0.2398  0.5661
  875MOL0     C20622  11.539   1.813   4.755  0.1475  0.3174 -1.0568
  875MOL0     C20623  11.661   1.743   4.810  0.9572  0.0149  0.7320
  875MOL0     C20624  11.733   1.817   4.927  0.3253  0.4697 -0.0258
  875MOL0     C20625  11.850   1.752   4.985  0.2994 -0.3333 -1.3467
  875MOL0     C20626  11.825   1.727   5.134 -0.6802 -0.1592 -0.8835
  875MOL0     C20627  11.951   1.647   5.186  0.1983 -0.5485  0.4304
  875MOL0     C20628  11.972   1.665   5.334 -0.4781  0.1665 -0.3692
  875MOL0     N20629  12.096   1.598   5.368 -0.6078 -0.1460  0.2930
  875MOL0     C20630  12.188   1.644   5.456 -0.4931  0.6506 -0.2882
  875MOL0     C20631  12.252   1.527   5.495 -0.0810  0.3280  0.3398
  875MOL0     C20632  12.351   1.532   5.597 -1.7145 -0.1593 -0.3771
  875MOL0     C20633  12.471   1.619   5.550 -0.4310 -0.3138  0.6936
  875MOL0     C20634  12.538   1.562   5.427 -1.3849 -0.3663  0.0701
  875MOL0     C20635  12.690   1.539   5.449  1.2646 -0.0015  0.0945
  875MOL0     O20636  12.756   1.668   5.476 -0.0880  0.1137  0.2921
  875MOL0     C20637  12.889   1.665   5.516  0.5066  0.5870 -0.0764
  875MOL0     C20638  12.963   1.782   5.513  0.1894  0.5867 -0.7697
  875MOL0     C20639  13.094   1.799   5.574  0.0225  0.0186 -0.9916
  875MOL0     C20640  13.187   1.924   5.549  0.4231  0.0915 -0.1948
  875MOL0     C20641  13.138   1.700   5.666  0.2021  0.2718  0.2921
  875MOL0     C20642  13.269   1.709   5.728  1.2535  0.4717  0.0155
  875MOL0     O20643  13.268   1.747   5.857 -0.1161 -1.1904 -0.0336
  875MOL0     C20644  13.383   1.741   5.932  0.9766 -0.4427  0.1151
  875MOL0     C20645  13.404   1.850   6.013 -0.0029  0.2439 -0.1017
  875MOL0     C20646  13.521   1.858   6.087  0.6810  0.1419  0.7440
  875MOL0     C20647  13.615   1.756   6.091  0.2437 -0.6651 -0.3722
  875MOL0     O20648  13.736   1.784   6.162  0.1546  0.0622 -0.1468
  875MOL0     C20649  13.730   1.749   6.302 -0.2216  0.1153 -1.0175
  875MOL0     C20650  13.876   1.727   6.355 -0.1608  0.1628 -0.2531
  875MOL0     C20651  13.870   1.708   6.509  0.0821 -0.2351  0.3691
  875MOL0     C20652  14.002   1.647   6.565  0.7857 -0.2324  0.7313
  875MOL0     C20653  14.014   1.700   6.714 -0.3839  0.1567 -0.5216
  875MOL0     C20654  14.139   1.632   6.780 -0.1917  0.4721 -0.2885
  875MOL0     C20655  14.174   1.709   6.911  0.7990 -0.6058  0.1458
  875MOL0     C20656  14.277   1.638   6.982 -0.3538 -0.7057 -0.1809
  875MOL0    Cl20657  14.356   1.735   7.110 -0.1455  0.0396  0.4328
  875MOL0     C20658  13.588   1.635   6.022 -0.4734  0.5530  0.4105
  875MOL0     C20659  13.478   1.629   5.934  0.4260  0.1975 -0.4440
  875MOL0     O20660  13.368   1.697   5.664 -1.0703  0.0660  0.0791
  875MOL0     C20661  13.061   1.582   5.666 -1.1145  0.2280  0.8334
  875MOL0     C20662  12.943   1.565   5.590 -0.1521 -0.3205  0.2653
  875MOL0     N20663  12.210   1.421   5.419  0.0158  0.3322  0.3175
  875MOL0     N20664  12.117   1.467   5.345 -0.1055  0.3044  0.0957
  875MOL0     C20665  11.204   1.490   4.654 -0.1210 -0.0474  0.5559
  875MOL0     C20666  11.128   1.418   4.565 -0.5520  0.6571 -0.5689
  875MOL0     C20667  10.859   1.268   4.235 -0.4381 -0.2221 -0.1457
  875MOL0     C20668  10.922   1.289   4.108  0.1643  0.3522 -0.3234
  875MOL0     C20669  10.848   1.281   3.982  0.3606  0.7919  0.0488
  875MOL0     C20670  10.718   1.244   3.981  0.5682 -0.9479 -0.2877
  875MOL0     O20671  10.639   1.228   3.872 -0.6812  0.1103  0.1877
  875MOL0     C20672  10.663   1.119   3.787 -0.1168  0.0515 -0.0116
  875MOL0     C20673  10.548   1.111   3.689 -0.4009 -0.1965 -0.7767
  875MOL0     C20674  10.580   1.009   3.584 -0.3741  0.1686  0.5258
  875MOL0     C20675  10.453   0.994   3.501 -0.1468  0.1065 -0.2868
  875MOL0     C20676  10.468   0.888   3.399  0.2054 -0.5139 -0.7712
  875MOL0     C20677  10.464   0.812   3.303 -0.7165  0.4649  0.0780
  875MOL0     C20678  10.657   1.229   4.102  0.7713 -0.1989 -0.1426
  875MOL0     C20679  10.716   1.253   4.229 -0.2246  0.1568  0.4476
  875MOL0     C20680  10.626   1.242   4.353  0.2352  0.9163 -0.0926
  875MOL0     H20681  11.180   1.569   4.275  0.6709 -1.3597  0.8117
  875MOL0     H20682  11.328   1.716   4.435  1.9577 -1.6353 -0.6305
  875MOL0     H20683  11.420   1.816   4.569 -1.7852 -1.1571  0.0648
  875MOL0     H20684  11.532   1.683   4.586  0.7971  0.9990  1.0376
  875MOL0     H20685  11.581   1.909   4.725 -1.8484  2.1544  1.5090
  875MOL0     H20686  11.467   1.825   4.837  0.5545  2.4838 -0.9592
  875MOL0     H20687  11.624   1.643   4.831  1.0838 -0.8167 -2.4573
  875MOL0     H20688  11.727   1.728   4.724  0.3628 -0.2427  0.3142
  875MOL0     H20689  11.775   1.907   4.881  5.2021  0.0021  2.8230
  875MOL0     H20690  11.660   1.844   5.004 -0.2237  1.0494 -0.7308
  875MOL0     H20691  11.934   1.820   4.973 -0.7180  1.6435  1.6622
  875MOL0     H20692  11.873   1.661   4.929 -2.5447 -0.7580 -1.9809
  875MOL0     H20693  11.807   1.822   5.187 -1.1037 -1.6543  1.8220
  875MOL0     H20694  11.731   1.672   5.134 -2.0540  2.0668 -0.1027
  875MOL0     H20695  12.041   1.680   5.134 -0.2881 -0.3269 -0.2898
  875MOL0     H20696  11.922   1.545   5.159 -0.8698 -0.4208  1.0231
  875MOL0     H20697  11.980   1.773   5.354 -2.1789  0.4698 -1.1327
  875MOL0     H20698  11.897   1.611   5.393  2.3363 -2.2333  1.2855
  875MOL0     H20699  12.187   1.739   5.508  3.5584  0.1082  1.1042
  875MOL0     H20700  12.388   1.434   5.632  2.1395  1.2880  0.1780
  875MOL0     H20701  12.304   1.575   5.686 -1.5265 -0.7913  0.0405
  875MOL0     H20702  12.439   1.719   5.520  2.1971  0.6467  0.8363
  875MOL0     H20703  12.535   1.643   5.635 -0.4562  0.0225  0.6189
  875MOL0     H20704  12.490   1.470   5.393  0.5576 -0.6185 -2.2811
  875MOL0     H20705  12.536   1.624   5.337  1.8304 -1.9918 -1.3053
  875MOL0     H20706  12.708   1.474   5.535 -0.4438  0.2996  0.7224
  875MOL0     H20707  12.732   1.494   5.359 -1.2893 -0.0065 -1.1813
  875MOL0     H20708  12.921   1.865   5.458 -2.0190  0.6425  0.8604
  875MOL0     H20709  13.215   1.982   5.638 -1.3979 -1.2153  1.3146
  875MOL0     H20710  13.125   1.993   5.491  1.3996  0.1337 -1.2130
  875MOL0     H20711  13.276   1.895   5.492 -0.4039 -0.2426 -1.3506
  875MOL0     H20712  13.333   1.932   6.015  0.4457  0.7218  3.2559
  875MOL0     H20713  13.552   1.945   6.144 -1.8259  1.4353  0.3022
  875MOL0     H20714  13.675   1.828   6.355 -1.6768 -2.6241  1.8348
  875MOL0     H20715  13.668   1.662   6.321 -1.6593  1.3494  0.2460
  875MOL0     H20716  13.894   1.626   6.316 -2.6014 -0.3455 -0.2601
  875MOL0     H20717  13.949   1.802   6.325 -1.6148  0.6526 -2.9111
  875MOL0     H20718  13.785   1.652   6.549 -1.0169 -0.1824 -1.7389
  875MOL0     H20719  13.858   1.810   6.547  0.5987 -1.4263  4.1581
  875MOL0     H20720  14.087   1.691   6.513  1.4546 -2.9362 -0.6471
  875MOL0     H20721  13.986   1.538   6.561 -1.1480 -0.2120  3.9820
  875MOL0     H20722  14.020   1.809   6.717  0.6094  0.1338 -1.0850
  875MOL0     H20723  13.927   1.664   6.769  0.0728 -1.6403 -0.9127
  875MOL0     H20724  14.231   1.630   6.720  1.0069  2.1965  1.3998
  875MOL0     H20725  14.102   1.533   6.811 -0.4084  0.3341 -0.9656
  875MOL0     H20726  14.079   1.724   6.962  1.0179 -0.9700  0.6773
  875MOL0     H20727  14.217   1.806   6.884 -1.5322  0.1970 -0.9523
  875MOL0     H20728  14.360   1.622   6.913  1.7557  0.7779  1.8305
  875MOL0     H20729  14.240   1.545   7.026 -1.5649  0.8766  2.4123
  875MOL0     H20730  13.659   1.553   6.035 -1.6912 -0.1878  3.1370
  875MOL0     H20731  13.454   1.544   5.870 -1.1460  0.0506  0.2810
  875MOL0     H20732  13.103   1.498   5.720 -0.9011  1.3343  2.4802
  875MOL0     H20733  12.890   1.471   5.596 -0.8374  0.1156  1.2399
  875MOL0     H20734  11.216   1.464   4.758 -1.2719  2.2048  1.3281
  875MOL0     H20735  11.069   1.335   4.603  0.2397 -0.6736 -2.1627
  875MOL0     H20736  11.023   1.328   4.102  0.3444 -0.0834 -0.1475
  875MOL0     H20737  10.878   1.303   3.880  0.3962  1.0689  0.1177
  875MOL0     H20738  10.751   1.126   3.722 -0.0791  2.5963  0.2069
  875MOL0     H20739  10.682   1.036   3.856 -2.8606 -0.5438  0.1439
  875MOL0     H20740  10.543   1.207   3.638  1.3131  1.7957  2.4736
  875MOL0     H20741  10.459   1.087   3.749  0.6402  2.9685  2.3886
  875MOL0     H20742  10.662   1.043   3.520 -1.1244  1.7211  0.3490
  875MOL0     H20743  10.612   0.911   3.623 -1.1153  0.5294  2.1419
  875MOL0     H20744  10.417   1.087   3.457 -3.6287  0.5634  2.9665
  875MOL0     H20745  10.373   0.960   3.568 -0.6949 -3.0600 -2.3556
  875MOL0     H20746  10.465   0.740   3.224 -0.9186 -0.3009  0.7510
  875MOL0     H20747  10.552   1.203   4.094  0.0913  2.6546 -2.4409
  875MOL0     H20748  10.619   1.340   4.402  3.0015  1.2231 -0.1368
  875MOL0     H20749  10.525   1.202   4.338 -0.8098  3.0574  0.7710
  875MOL0     H20750  10.665   1.175   4.430 -6.0478 -0.9542  2.1022
  876MOL0     O20751   9.478   8.079   5.496 -0.0978 -0.6607 -0.1205
  876MOL0     C20752   9.586   8.131   5.473 -0.0190 -0.0586  0.2106
  876MOL0     O20753   9.613   8.264   5.457 -0.5432 -0.5297 -0.9147
  876MOL0     C20754   9.496   8.344   5.455 -0.5740 -0.4454  0.6657
  876MOL0     C20755   9.431   8.350   5.335  0.2641 -0.7290  0.4655
  876MOL0     C20756   9.322   8.433   5.328 -0.0240 -0.7264  0.6315
  876MOL0     C20757   9.276   8.501   5.443  0.2692 -1.3283  0.1573
  876MOL0     O20758   9.167   8.573   5.428  0.2670  0.0201 -0.0570
  876MOL0     C20759   9.172   8.705   5.473 -0.3291 -0.3561 -0.2943
  876MOL0     C20760   9.095   8.787   5.371 -0.3434 -0.5058  0.0589
  876MOL0     C20761   8.944   8.788   5.410 -0.9223  0.8495 -0.1077
  876MOL0     C20762   8.849   8.871   5.319 -1.1636 -0.5776  0.4965
  876MOL0     C20763   8.705   8.834   5.336  0.3187 -0.0339  0.8214
  876MOL0     C20764   8.608   8.919   5.240 -0.0268  0.4679 -0.4713
  876MOL0     C20765   8.631   9.068   5.223 -0.1050 -0.0978  0.5153
  876MOL0     C20766   8.586   9.152   5.347  0.0154 -0.4702  0.5234
  876MOL0     N20767   8.615   9.300   5.332  0.1014  0.0778  0.1596
  876MOL0     C20768   8.729   9.361   5.293 -0.4285  0.2579 -0.1525
  876MOL0     C20769   8.709   9.494   5.301  1.0734 -0.0341 -0.4237
  876MOL0     C20770   8.795   9.606   5.273 -0.2181  0.1189  0.1639
  876MOL0     C20771   8.858   9.649   5.404  0.1457  0.4328 -0.5102
  876MOL0     C20772   8.946   9.765   5.395  0.2071  0.0863 -0.0736
  876MOL0     C20773   8.968   9.842   5.528 -0.5940  0.0942  0.2539
  876MOL0     O20774   9.025   9.755   5.627 -0.5489 -0.4444 -0.1848
  876MOL0     C20775   9.162   9.717   5.618  0.0634  0.9243  0.4876
  876MOL0     C20776   9.211   9.610   5.706 -0.5136 -0.3923  1.0005
  876MOL0     C20777   9.342   9.552   5.703 -0.0834 -0.4027 -0.5622
  876MOL0     C20778   9.355   9.444   5.796 -0.8542 -0.3056  0.4705
  876MOL0     C20779   9.434   9.603   5.599  0.5049 -0.3875 -0.5693
  876MOL0     C20780   9.571   9.565   5.589  0.0192  0.6040 -0.1898
  876MOL0     O20781   9.632   9.628   5.496 -0.0374 -0.4733  0.0966
  876MOL0     C20782   9.756   9.588   5.461 -1.0897  0.9033 -0.2689
  876MOL0     C20783   9.850   9.689   5.459  0.7828 -1.6273  0.0698
  876MOL0     C20784   9.988   9.669   5.433  0.9387 -0.2258  0.0957
  876MOL0     C20785  10.032   9.538   5.403 -0.6936  0.6828  0.3580
  876MOL0     O20786  10.166   9.510   5.378 -0.3585 -0.2726 -0.7487
  876MOL0     C20787  10.265   9.601   5.403  0.1633 -0.1081 -0.3485
  876MOL0     C20788  10.309   9.677   5.278 -1.3531 -0.5122  0.1944
  876MOL0     C20789  10.412   9.791   5.294 -0.2710  0.0266 -0.8240
  876MOL0     C20790  10.380   9.891   5.401  1.3854  0.7641  0.5938
  876MOL0     C20791  10.487   9.994   5.418 -0.5701 -0.1313 -0.5659
  876MOL0     C20792  10.456  10.092   5.532 -0.1878  1.0375  0.3813
  876MOL0     C20793  10.341  10.187   5.506  0.4448  0.2888  0.0795
  876MOL0     C20794  10.353  10.311   5.589 -0.6892 -0.1680  1.0864
  876MOL0    Cl20795  10.443  10.443   5.508 -0.7260  0.1526 -0.4656
  876MOL0     C20796   9.936   9.436   5.406  0.6917 -0.2124 -1.1307
  876MOL0     C20797   9.796   9.458   5.420  0.5490  0.3441  0.0354
  876MOL0     O20798   9.616   9.479   5.664 -0.1372 -1.2054  0.3580
  876MOL0     C20799   9.388   9.704   5.511  0.1600 -0.0919 -0.6451
  876MOL0     C20800   9.259   9.761   5.523  0.1149 -0.1156  0.6630
  876MOL0     N20801   8.573   9.509   5.341 -0.5481 -0.1386  1.1798
  876MOL0     N20802   8.519   9.391   5.354 -0.0173 -0.4175 -0.3698
  876MOL0     C20803   9.344   8.502   5.560 -0.6706  0.4981  0.7064
  876MOL0     C20804   9.460   8.423   5.560  1.0583  0.3974 -0.0842
  876MOL0     C20805   9.699   8.041   5.489 -0.0738 -0.0710 -0.4985
  876MOL0     C20806   9.789   8.073   5.593 -0.1353  0.1448 -0.1240
  876MOL0     C20807   9.904   7.998   5.602  0.9667  1.1354  0.4764
  876MOL0     C20808   9.923   7.878   5.529 -0.2065  0.4860 -0.7888
  876MOL0     O20809  10.030   7.793   5.546 -0.2332  0.0618  0.5428
  876MOL0     C20810  10.149   7.855   5.608  0.0954 -0.0291  0.6899
  876MOL0     C20811  10.140   7.798   5.752 -0.2485 -0.1206  0.1240
  876MOL0     C20812  10.254   7.846   5.841  0.6602  0.3357  0.1537
  876MOL0     C20813  10.387   7.786   5.794  1.0048  0.5697  0.3989
  876MOL0     C20814  10.476   7.886   5.737 -0.3717 -0.8098  0.0136
  876MOL0     C20815  10.545   7.980   5.706 -0.4267 -0.0103 -0.0120
  876MOL0     C20816   9.818   7.840   5.447 -0.8261 -0.1073 -0.1502
  876MOL0     C20817   9.716   7.927   5.413 -0.5572 -0.2305 -0.1752
  876MOL0     C20818   9.625   7.889   5.304 -0.0004  0.0729  0.2276
  876MOL0     H20819   9.474   8.299   5.249 -2.6002 -1.2220 -0.7893
  876MOL0     H20820   9.284   8.459   5.230 -3.1934 -0.5643  1.7950
  876MOL0     H20821   9.273   8.744   5.486 -0.5969 -0.2905  1.9887
  876MOL0     H20822   9.128   8.710   5.573 -2.4858  0.1978 -1.2045
  876MOL0     H20823   9.116   8.894   5.380 -0.2984 -0.4998 -0.1098
  876MOL0     H20824   9.113   8.748   5.270  0.1466 -0.4641  0.1265
  876MOL0     H20825   8.902   8.687   5.413 -2.8849  1.6488  2.0898
  876MOL0     H20826   8.938   8.820   5.514 -0.9100 -1.7234  0.7551
  876MOL0     H20827   8.861   8.977   5.343  0.4255 -0.9680  1.6213
  876MOL0     H20828   8.881   8.844   5.218  3.7567 -0.2037  1.6985
  876MOL0     H20829   8.675   8.845   5.441 -2.2575  1.2252  0.0378
  876MOL0     H20830   8.711   8.727   5.314  2.7905  0.2734 -0.2437
  876MOL0     H20831   8.597   8.872   5.142  0.5765 -2.1701  0.6306
  876MOL0     H20832   8.508   8.907   5.284  0.1054 -3.2109 -0.8568
  876MOL0     H20833   8.561   9.110   5.149  0.8911 -1.4595 -1.2653
  876MOL0     H20834   8.735   9.089   5.196 -0.0574  2.4736  2.2554
  876MOL0     H20835   8.484   9.121   5.372  0.7067 -3.4406  0.0465
  876MOL0     H20836   8.639   9.114   5.435  1.2118 -2.2276 -0.8615
  876MOL0     H20837   8.823   9.316   5.263  1.1568  2.2830  1.4627
  876MOL0     H20838   8.746   9.692   5.227  0.8369  1.8373  2.0664
  876MOL0     H20839   8.878   9.573   5.209 -1.0667  0.2851 -1.0470
  876MOL0     H20840   8.772   9.680   5.464  0.1011 -2.9620  1.4551
  876MOL0     H20841   8.918   9.573   5.455  2.7515  1.8549 -1.3004
  876MOL0     H20842   9.043   9.725   5.365  0.6220  1.4035 -0.5273
  876MOL0     H20843   8.920   9.844   5.324  3.3746  2.6811  1.4305
  876MOL0     H20844   9.032   9.929   5.514  1.4659 -1.3495  0.2180
  876MOL0     H20845   8.873   9.883   5.564  0.6303  2.3602  1.0653
  876MOL0     H20846   9.128   9.580   5.770 -1.4093  2.8940  1.6074
  876MOL0     H20847   9.305   9.351   5.770  0.1407 -2.3859  5.0913
  876MOL0     H20848   9.318   9.474   5.895 -1.5385 -1.5826  0.6133
  876MOL0     H20849   9.461   9.428   5.818 -0.8848 -0.8185  0.2378
  876MOL0     H20850   9.816   9.790   5.480 -1.9484 -2.2662 -0.8448
  876MOL0     H20851  10.055   9.755   5.429 -0.9345  1.5526  3.0506
  876MOL0     H20852  10.240   9.663   5.490 -0.7443 -1.2751  0.2510
  876MOL0     H20853  10.355   9.548   5.435  0.0537  1.1939  2.4259
  876MOL0     H20854  10.357   9.599   5.219  0.2999  0.2489  0.4661
  876MOL0     H20855  10.228   9.724   5.222 -0.6638 -0.4124 -0.7342
  876MOL0     H20856  10.425   9.848   5.202 -1.7148  0.1432 -0.9754
  876MOL0     H20857  10.505   9.739   5.319  0.5442 -0.0995 -3.8251
  876MOL0     H20858  10.356   9.851   5.501 -0.0339  1.3720  0.5195
  876MOL0     H20859  10.282   9.931   5.372  0.6026 -1.1900  0.3645
  876MOL0     H20860  10.580   9.944   5.447 -1.3582 -1.0664  0.4450
  876MOL0     H20861  10.511  10.057   5.332  0.7435  3.0766  1.9563
  876MOL0     H20862  10.542  10.156   5.553 -1.4123  2.8923 -0.0020
  876MOL0     H20863  10.434  10.045   5.629  0.8873 -1.2025 -0.3879
  876MOL0     H20864  10.246  10.142   5.537  0.4778 -0.7584 -1.2697
  876MOL0     H20865  10.337  10.205   5.398  4.1479  0.8169 -0.1122
  876MOL0     H20866  10.383  10.297   5.693 -1.5144  1.3860  1.5820
  876MOL0     H20867  10.255  10.353   5.615 -1.6751 -2.0591  0.5982
  876MOL0     H20868   9.988   9.341   5.392 -0.3211 -0.5134 -3.2583
  876MOL0     H20869   9.727   9.376   5.412 -0.9987  1.5922  0.1470
  876MOL0     H20870   9.442   9.735   5.423  2.3435  2.7118  1.4836
  876MOL0     H20871   9.235   9.826   5.439 -1.5815 -2.8903 -1.1615
  876MOL0     H20872   9.315   8.569   5.641 -1.0504  0.6195  0.4746
  876MOL0     H20873   9.534   8.413   5.638  2.9364 -1.1836 -1.9331
  876MOL0     H20874   9.771   8.171   5.637  1.8970  1.6437 -2.2957
  876MOL0     H20875   9.980   8.026   5.676  1.7895 -2.3373  1.1465
  876MOL0     H20876  10.227   7.804   5.551 -2.4195 -1.0662 -2.0955
  876MOL0     H20877  10.168   7.962   5.599  1.3076 -0.4058 -2.4704
  876MOL0     H20878  10.158   7.690   5.752 -0.2347 -0.2298  3.5389
  876MOL0     H20879  10.039   7.813   5.793 -0.5935 -1.8393  0.0075
  876MOL0     H20880  10.255   7.954   5.859 -2.2521  0.2263  1.6581
  876MOL0     H20881  10.236   7.813   5.944 -1.5727  1.0362  0.0468
  876MOL0     H20882  10.364   7.711   5.718 -2.6890  5.0138 -3.5417
  876MOL0     H20883  10.434   7.730   5.876 -3.3709 -2.4551  1.1438
  876MOL0     H20884  10.605   8.059   5.666 -0.9453 -0.3907 -1.6520
  876MOL0     H20885   9.837   7.755   5.382  0.5550  1.8107 -2.3748
  876MOL0     H20886   9.685   7.821   5.243  1.2060  1.8393 -0.6248
  876MOL0     H20887   9.533   7.844   5.344  0.6259 -0.7606  0.7870
  876MOL0     H20888   9.603   7.977   5.244  3.4936  0.8394 -0.1659
  877MOL0     O20889   8.504   6.168   7.197 -0.4642 -0.7935  0.3017
  877MOL0     C20890   8.522   6.269   7.127 -0.3939  0.0293 -0.2653
  877MOL0     O20891   8.534   6.256   6.995  0.2859  0.1994  0.1895
  877MOL0     C20892   8.457   6.182   6.919 -0.0501 -0.7304  0.2546
  877MOL0     C20893   8.513   6.100   6.814  0.2037 -0.0469 -0.8391
  877MOL0     C20894   8.440   6.011   6.738 -0.2635 -1.0197  0.1200
  877MOL0     C20895   8.300   6.009   6.749  0.3474  0.6962  0.0723
  877MOL0     O20896   8.221   5.922   6.685  0.5247  0.2112 -0.3057
  877MOL0     C20897   8.169   5.825   6.776  0.3420 -0.4402 -0.4869
  877MOL0     C20898   8.080   5.727   6.703  0.2592 -0.2603 -0.7704
  877MOL0     C20899   8.052   5.614   6.800  0.2921 -0.5079  0.3443
  877MOL0     C20900   7.997   5.494   6.716  1.0812  0.3895  1.1777
  877MOL0     C20901   7.977   5.371   6.802 -0.2934  0.4028  0.2372
  877MOL0     C20902   7.929   5.245   6.728  0.2299 -0.1360 -0.4378
  877MOL0     C20903   7.906   5.125   6.825 -0.3658  0.2824  0.2675
  877MOL0     C20904   7.837   5.011   6.750  0.6801  0.3528 -0.8387
  877MOL0     N20905   7.789   4.918   6.859 -0.6301 -0.0536 -0.0232
  877MOL0     C20906   7.873   4.852   6.952 -0.0131 -0.0164 -0.2895
  877MOL0     C20907   7.785   4.764   7.009 -0.5775  0.1320 -0.2881
  877MOL0     C20908   7.841   4.646   7.089 -0.4427  0.2810  0.6927
  877MOL0     C20909   7.860   4.514   6.999 -0.0381 -0.0333  0.2129
  877MOL0     C20910   7.948   4.414   7.073  0.2370  0.7420  0.6666
  877MOL0     C20911   7.918   4.273   7.016 -0.1543  0.3551 -0.5699
  877MOL0     O20912   7.932   4.265   6.875  0.6086 -0.2748  0.5727
  877MOL0     C20913   8.024   4.181   6.832 -0.1123 -0.7261  0.4315
  877MOL0     C20914   7.986   4.062   6.773 -0.4750  0.3876 -0.3363
  877MOL0     C20915   8.088   3.969   6.731  0.1966 -0.2216  0.1191
  877MOL0     C20916   8.036   3.854   6.655 -0.1562  0.7159 -0.7054
  877MOL0     C20917   8.229   4.006   6.745 -0.1438 -0.1715 -0.3926
  877MOL0     C20918   8.333   3.911   6.698  0.4959  0.2968  0.1799
  877MOL0     O20919   8.433   3.959   6.613 -0.0160 -0.8433  0.6342
  877MOL0     C20920   8.527   3.874   6.572 -0.7287  0.5006 -0.2162
  877MOL0     C20921   8.558   3.881   6.442 -0.3701  0.2127  0.5032
  877MOL0     C20922   8.656   3.791   6.392 -0.0483  0.7907 -0.0638
  877MOL0     C20923   8.716   3.686   6.468  0.8014 -0.6173 -0.1638
  877MOL0     O20924   8.792   3.587   6.411 -0.2776 -0.5728 -0.0377
  877MOL0     C20925   8.916   3.642   6.351 -0.1876  0.0207 -0.1770
  877MOL0     C20926   8.924   3.594   6.194 -0.1974  0.2054 -0.9318
  877MOL0     C20927   9.057   3.649   6.124  0.4555 -0.2812 -0.7096
  877MOL0     C20928   9.188   3.613   6.195 -0.9447 -0.2333  0.6412
  877MOL0     C20929   9.240   3.718   6.305  1.1143 -0.3346 -0.5665
  877MOL0     C20930   9.302   3.847   6.239 -0.2412  0.3066  0.2732
  877MOL0     C20931   9.350   3.947   6.343 -0.1760 -0.7177 -0.0609
  877MOL0     C20932   9.455   4.047   6.300 -0.0362 -1.0052 -0.6593
  877MOL0    Cl20933   9.381   4.181   6.204  0.2391 -0.3476 -0.4759
  877MOL0     C20934   8.676   3.676   6.599 -0.0202 -0.4075  0.0938
  877MOL0     C20935   8.580   3.770   6.646 -0.2411 -0.3729  0.0604
  877MOL0     O20936   8.321   3.801   6.755  0.1998  0.1560  1.0574
  877MOL0     C20937   8.268   4.131   6.796  0.8788  0.1244 -0.5112
  877MOL0     C20938   8.157   4.215   6.841 -0.5145 -0.5340  0.0184
  877MOL0     N20939   7.660   4.779   6.950 -0.0418  0.0495 -0.3395
  877MOL0     N20940   7.661   4.868   6.862 -0.3690 -0.5989 -0.3350
  877MOL0     C20941   8.250   6.091   6.853  0.9720  0.6654  0.3882
  877MOL0     C20942   8.323   6.180   6.931 -0.5349  0.5099 -0.1927
  877MOL0     C20943   8.531   6.394   7.207  0.0893 -0.8251  0.3498
  877MOL0     C20944   8.471   6.399   7.337  0.3029 -0.5352  0.2373
  877MOL0     C20945   8.485   6.511   7.418 -0.1052  1.7720  0.8042
  877MOL0     C20946   8.552   6.621   7.366  0.3816 -0.0647  1.0776
  877MOL0     O20947   8.592   6.727   7.448  0.0480 -0.3178 -0.4095
  877MOL0     C20948   8.484   6.813   7.502 -0.5743 -0.8992  0.2507
  877MOL0     C20949   8.545   6.945   7.551 -0.0781  0.4012 -0.3904
  877MOL0     C20950   8.675   6.948   7.646 -0.0058  0.3216  0.7893
  877MOL0     C20951   8.814   6.918   7.566 -0.9117 -0.6449 -1.0333
  877MOL0     C20952   8.918   7.015   7.608  0.0212 -0.8131  0.6884
  877MOL0     C20953   9.005   7.092   7.636  0.5719  0.0580  0.3094
  877MOL0     C20954   8.619   6.613   7.243 -0.5239 -0.1833  0.6837
  877MOL0     C20955   8.612   6.503   7.154 -0.0836  0.2932 -0.2054
  877MOL0     C20956   8.678   6.510   7.018 -0.4187 -0.1027 -1.0924
  877MOL0     H20957   8.621   6.094   6.824  0.2306 -0.5316 -1.3628
  877MOL0     H20958   8.482   5.932   6.677  1.0913 -0.6764  0.5734
  877MOL0     H20959   8.109   5.875   6.852  1.1911 -1.2991  0.7725
  877MOL0     H20960   8.245   5.759   6.818 -1.1343 -2.0707 -0.2447
  877MOL0     H20961   7.990   5.781   6.674 -0.2914 -0.8873 -0.2392
  877MOL0     H20962   8.133   5.695   6.613 -0.5344  0.5944 -1.5689
  877MOL0     H20963   8.140   5.581   6.855 -0.2692 -1.1062  0.9095
  877MOL0     H20964   7.980   5.643   6.877  0.3814 -1.5463  0.8361
  877MOL0     H20965   7.905   5.520   6.663  0.1842  0.3854  2.6614
  877MOL0     H20966   8.068   5.469   6.637  1.3944  0.1961  1.5162
  877MOL0     H20967   7.893   5.396   6.867 -0.3061 -0.2202  0.4680
  877MOL0     H20968   8.068   5.341   6.856  0.5503 -1.8372 -2.1899
  877MOL0     H20969   7.840   5.269   6.670 -0.0088 -0.1722 -0.0886
  877MOL0     H20970   8.005   5.212   6.656  2.4430  1.4127  1.0412
  877MOL0     H20971   7.850   5.157   6.913 -0.1326 -3.1793  1.8371
  877MOL0     H20972   8.003   5.086   6.857 -0.3683 -1.5797 -1.7802
  877MOL0     H20973   7.750   5.043   6.692  0.3080 -1.3591 -1.2620
  877MOL0     H20974   7.904   4.947   6.691  0.8089 -1.6648  1.3243
  877MOL0     H20975   7.981   4.863   6.960  0.3696 -2.1328 -1.7019
  877MOL0     H20976   7.769   4.629   7.169  1.9539 -2.2204  2.5436
  877MOL0     H20977   7.937   4.666   7.138  0.1310 -2.6741  0.9851
  877MOL0     H20978   7.759   4.482   6.970  0.4390 -0.9006 -0.5436
  877MOL0     H20979   7.918   4.547   6.912  2.6546 -0.4322  1.7607
  877MOL0     H20980   8.053   4.442   7.063 -0.1531  2.7374  1.8214
  877MOL0     H20981   7.926   4.420   7.180 -0.5918  1.3250  0.4720
  877MOL0     H20982   7.979   4.193   7.058 -0.9692 -0.9968 -1.9005
  877MOL0     H20983   7.815   4.256   7.047  0.3521  2.4711  2.8103
  877MOL0     H20984   7.878   4.054   6.758 -0.3372  0.6694 -1.5383
  877MOL0     H20985   8.068   3.859   6.550 -3.6512 -1.4193 -2.0425
  877MOL0     H20986   7.927   3.847   6.651 -0.0380 -1.5980 -1.2900
  877MOL0     H20987   8.068   3.763   6.707 -2.6218  1.4659  2.4523
  877MOL0     H20988   8.527   3.962   6.376  2.4478 -0.2650 -1.6237
  877MOL0     H20989   8.694   3.789   6.290 -3.4261  1.8522 -1.4743
  877MOL0     H20990   8.935   3.750   6.349 -0.6854  0.1300 -3.1056
  877MOL0     H20991   9.001   3.595   6.402 -0.4660  1.1154  1.3557
  877MOL0     H20992   8.930   3.485   6.204  0.3761  0.4440  3.7532
  877MOL0     H20993   8.832   3.630   6.147  0.0266  1.1355 -0.6760
  877MOL0     H20994   9.057   3.757   6.108  2.0893 -0.0354  0.7122
  877MOL0     H20995   9.062   3.607   6.023 -0.8732 -0.3756 -0.7526
  877MOL0     H20996   9.274   3.607   6.127 -1.2882  2.4034 -0.1589
  877MOL0     H20997   9.187   3.510   6.230  3.5418 -1.4054 -1.8994
  877MOL0     H20998   9.159   3.744   6.373  2.1701 -0.9223  0.9734
  877MOL0     H20999   9.308   3.660   6.368 -0.1549 -0.5261  0.6657
  877MOL0     H21000   9.221   3.894   6.183 -0.9691 -2.1601 -0.8791
  877MOL0     H21001   9.394   3.824   6.184 -0.0377  0.2642  0.6228
  877MOL0     H21002   9.402   3.899   6.426  0.8419  2.4233  1.2962
  877MOL0     H21003   9.254   3.987   6.378  0.3393  0.6482 -0.1313
  877MOL0     H21004   9.524   3.989   6.238 -0.9327 -1.1634 -1.5345
  877MOL0     H21005   9.499   4.091   6.390  0.1630  2.2371 -2.1953
  877MOL0     H21006   8.720   3.606   6.670  0.8394 -1.3884 -1.3474
  877MOL0     H21007   8.561   3.770   6.753  0.4486 -1.6668  0.2044
  877MOL0     H21008   8.372   4.144   6.823  0.6142 -2.5116  2.3343
  877MOL0     H21009   8.189   4.301   6.898  0.2327 -1.0644  0.4210
  877MOL0     H21010   8.144   6.112   6.858  1.1700  1.4555  1.7260
  877MOL0     H21011   8.264   6.237   7.003  1.8554  1.3110  1.2548
  877MOL0     H21012   8.405   6.323   7.378 -0.7136  0.6407  0.8542
  877MOL0     H21013   8.439   6.515   7.516  0.4044 -2.9848  1.4967
  877MOL0     H21014   8.406   6.831   7.427 -0.1772  2.5024  0.4909
  877MOL0     H21015   8.436   6.757   7.582 -1.4599 -1.3414 -0.5618
  877MOL0     H21016   8.476   6.991   7.622  2.0156 -2.6179  4.0617
  877MOL0     H21017   8.575   6.992   7.457  1.9230  0.5830  0.2876
  877MOL0     H21018   8.680   7.038   7.708 -4.7031 -0.3826  2.5994
  877MOL0     H21019   8.660   6.862   7.712  1.7149  0.1577  1.0295
  877MOL0     H21020   8.799   6.920   7.458  1.2257  0.6645 -1.3585
  877MOL0     H21021   8.852   6.819   7.593 -1.3200 -0.6249 -0.3617
  877MOL0     H21022   9.082   7.159   7.670  1.3880 -1.4376  1.5541
  877MOL0     H21023   8.681   6.695   7.208  0.4421 -2.0386 -2.3152
  877MOL0     H21024   8.611   6.506   6.932 -3.2923 -2.2295  1.0413
  877MOL0     H21025   8.742   6.598   7.021 -2.5207  1.5632  2.6721
  877MOL0     H21026   8.748   6.429   6.999  0.9200  0.8014 -0.2262
  878MOL0     O21027   3.695   5.433   5.190 -0.5206  0.3998 -0.3725
  878MOL0     C21028   3.578   5.386   5.215 -0.3727 -0.1884  0.1681
  878MOL0     O21029   3.555   5.268   5.275  0.3635 -0.3814  0.8013
  878MOL0     C21030   3.658   5.183   5.303 -1.2393 -0.7281 -0.1923
  878MOL0     C21031   3.677   5.136   5.439  0.4743 -0.3544  0.1459
  878MOL0     C21032   3.790   5.065   5.474 -0.3008  0.2377 -0.2090
  878MOL0     C21033   3.890   5.036   5.383 -0.7187 -0.3331 -0.4987
  878MOL0     O21034   3.999   4.976   5.440  0.8707  0.1829 -0.1933
  878MOL0     C21035   4.085   4.897   5.359  0.1588  0.3597 -0.5639
  878MOL0     C21036   4.185   4.848   5.462 -0.8642  0.2108  0.1010
  878MOL0     C21037   4.261   4.964   5.523  0.4792 -0.2379  0.1175
  878MOL0     C21038   4.404   4.925   5.574  0.4532 -0.6753 -0.0168
  878MOL0     C21039   4.487   5.036   5.628 -0.1588  0.0187  0.1197
  878MOL0     C21040   4.579   4.994   5.752  0.2248 -0.8548  0.8424
  878MOL0     C21041   4.662   5.116   5.798  0.9345 -0.6240 -0.0055
  878MOL0     C21042   4.764   5.077   5.909  1.1053  0.1105 -0.0072
  878MOL0     N21043   4.695   5.045   6.036 -0.6687  0.1372 -0.1347
  878MOL0     C21044   4.608   5.132   6.104  0.0118  0.8642  0.5368
  878MOL0     C21045   4.573   5.057   6.209 -0.7728 -0.2935  1.1877
  878MOL0     C21046   4.491   5.103   6.327  0.2424 -0.8689  0.5114
  878MOL0     C21047   4.584   5.146   6.443 -0.5949 -0.6536  0.5063
  878MOL0     C21048   4.667   5.024   6.500 -0.7964 -0.4341 -0.3528
  878MOL0     C21049   4.675   5.034   6.655  0.4053  0.2582  0.0604
  878MOL0     O21050   4.542   5.005   6.708  0.1405 -0.0966  0.3474
  878MOL0     C21051   4.507   4.870   6.728 -0.1340  0.2805  0.2945
  878MOL0     C21052   4.589   4.768   6.686 -0.3279  1.0248  0.2824
  878MOL0     C21053   4.551   4.627   6.718  0.0004 -0.6656 -0.5474
  878MOL0     C21054   4.653   4.522   6.696 -0.1283  0.0472  0.1281
  878MOL0     C21055   4.415   4.603   6.768  0.3335  0.3294 -0.2060
  878MOL0     C21056   4.349   4.468   6.785  0.1131  0.0616  0.7531
  878MOL0     O21057   4.219   4.451   6.820 -0.5413  0.5629 -0.5921
  878MOL0     C21058   4.173   4.333   6.875  0.5494 -0.7324 -0.5583
  878MOL0     C21059   4.250   4.243   6.954 -0.0797  0.1644  0.5821
  878MOL0     C21060   4.190   4.125   6.999  0.1007 -0.9708 -0.4417
  878MOL0     C21061   4.055   4.087   6.966 -0.7529  0.1454 -0.1412
  878MOL0     O21062   4.007   3.966   7.023  0.3848 -0.1791  0.0059
  878MOL0     C21063   3.867   3.946   7.004 -0.6164 -0.4763  1.2054
  878MOL0     C21064   3.845   3.803   7.045 -0.1951  0.4517  0.9162
  878MOL0     C21065   3.863   3.775   7.190 -0.3900  0.2146  0.5834
  878MOL0     C21066   3.745   3.832   7.273 -0.4749 -0.6456 -0.4451
  878MOL0     C21067   3.728   3.750   7.404 -0.6885  0.2176  0.5938
  878MOL0     C21068   3.626   3.636   7.376 -0.8868 -0.2356  0.3835
  878MOL0     C21069   3.591   3.548   7.497  0.4478 -0.4845 -1.2216
  878MOL0     C21070   3.465   3.465   7.472 -0.6909 -0.4013  0.0725
  878MOL0    Cl21071   3.380   3.412   7.618 -0.2711 -0.2144  0.0309
  878MOL0     C21072   3.981   4.179   6.893  0.4764 -0.5525 -0.1055
  878MOL0     C21073   4.035   4.304   6.850 -0.3605  0.1568 -0.8752
  878MOL0     O21074   4.413   4.373   6.730  0.5786 -0.2658 -0.3495
  878MOL0     C21075   4.327   4.714   6.795 -0.1151 -0.1122 -0.4040
  878MOL0     C21076   4.382   4.841   6.775  0.9056 -0.1521  1.0245
  878MOL0     N21077   4.637   4.934   6.203  0.1592 -0.4746  0.5687
  878MOL0     N21078   4.691   4.921   6.093 -0.1663 -0.4402  0.7093
  878MOL0     C21079   3.868   5.066   5.244 -0.2122  1.2537 -0.4525
  878MOL0     C21080   3.756   5.146   5.204 -0.1289  0.5155 -0.5445
  878MOL0     C21081   3.449   5.459   5.182  0.3984  1.1070 -0.5989
  878MOL0     C21082   3.329   5.387   5.184 -0.4181  0.1518  0.2867
  878MOL0     C21083   3.205   5.459   5.192  0.5932  0.1534 -0.7621
  878MOL0     C21084   3.201   5.600   5.161 -0.5737  0.4384 -0.8115
  878MOL0     O21085   3.095   5.683   5.139  0.2465  0.1463 -0.5751
  878MOL0     C21086   2.970   5.621   5.142 -0.7745  0.2631 -0.3954
  878MOL0     C21087   2.856   5.712   5.096 -0.1073  0.1018  0.0939
  878MOL0     C21088   2.810   5.826   5.190 -0.7866 -0.6577 -0.9955
  878MOL0     C21089   2.913   5.947   5.178 -0.4956 -0.4040 -0.4968
  878MOL0     C21090   2.873   6.073   5.248  0.0596 -0.6321  0.4878
  878MOL0     C21091   2.825   6.178   5.283 -0.5530  0.0292  0.7098
  878MOL0     C21092   3.324   5.661   5.135 -0.6039  0.1149  0.1567
  878MOL0     C21093   3.449   5.600   5.156 -0.4629  0.9898  0.7344
  878MOL0     C21094   3.576   5.673   5.127  0.3180 -0.1163 -0.3684
  878MOL0     H21095   3.604   5.154   5.518  1.7845 -0.2853  1.3852
  878MOL0     H21096   3.802   5.023   5.573 -3.3486  1.1720  0.6565
  878MOL0     H21097   4.145   4.958   5.291  2.7625  2.5700  3.2829
  878MOL0     H21098   4.034   4.822   5.299  1.5513 -2.8060  1.9316
  878MOL0     H21099   4.132   4.802   5.546  0.2108 -0.9737  0.1579
  878MOL0     H21100   4.242   4.771   5.409 -3.1921 -0.4239 -1.6482
  878MOL0     H21101   4.277   5.042   5.448 -0.4224  0.2798  0.4427
  878MOL0     H21102   4.202   5.008   5.605 -0.9496  1.1456 -1.5808
  878MOL0     H21103   4.381   4.856   5.656  0.0562 -0.5390 -0.0106
  878MOL0     H21104   4.467   4.879   5.497  0.8978  3.8092 -2.6621
  878MOL0     H21105   4.423   5.107   5.681  1.8846 -0.5389  3.6521
  878MOL0     H21106   4.551   5.084   5.554  0.2945  0.4286  0.7689
  878MOL0     H21107   4.521   4.970   5.841 -0.9393  1.9992  0.9909
  878MOL0     H21108   4.634   4.902   5.731 -1.1561 -1.3661 -0.7539
  878MOL0     H21109   4.599   5.198   5.832 -0.2197 -0.7736 -1.6954
  878MOL0     H21110   4.715   5.156   5.711 -2.5155  0.7746 -1.6150
  878MOL0     H21111   4.825   4.996   5.867  2.1794  0.3361  1.0821
  878MOL0     H21112   4.832   5.158   5.935  1.0763  0.6787 -1.5952
  878MOL0     H21113   4.573   5.233   6.083  1.3130  1.5813  1.6610
  878MOL0     H21114   4.417   5.029   6.360 -1.0873 -0.9562 -2.3440
  878MOL0     H21115   4.425   5.188   6.309 -0.8478 -0.9516  3.4892
  878MOL0     H21116   4.632   5.237   6.407 -1.9080 -0.0960  0.0921
  878MOL0     H21117   4.527   5.193   6.524 -2.1289  1.1833 -1.4987
  878MOL0     H21118   4.630   4.925   6.475  0.3533 -0.9467 -0.1214
  878MOL0     H21119   4.771   5.027   6.464  0.2879 -1.4552  2.4099
  878MOL0     H21120   4.754   4.980   6.708 -0.0085 -1.7143 -1.2168
  878MOL0     H21121   4.699   5.134   6.690  0.2554 -0.7808  3.5093
  878MOL0     H21122   4.685   4.783   6.638  0.0894  2.2115  1.4390
  878MOL0     H21123   4.748   4.565   6.663  1.2527 -2.5745  0.3845
  878MOL0     H21124   4.603   4.461   6.621  1.9612  2.1988 -3.2561
  878MOL0     H21125   4.676   4.465   6.787 -1.9078  0.6622  1.0059
  878MOL0     H21126   4.351   4.267   6.985 -0.9417  1.4639  2.5704
  878MOL0     H21127   4.243   4.063   7.070  1.0925  1.0047  0.5980
  878MOL0     H21128   3.800   4.019   7.050 -0.2205  2.0200 -1.8193
  878MOL0     H21129   3.852   3.939   6.896  4.7991 -2.9468  0.2840
  878MOL0     H21130   3.743   3.783   7.010  0.1920  0.7238 -0.4384
  878MOL0     H21131   3.926   3.745   6.999 -1.5333  1.0223 -2.4357
  878MOL0     H21132   3.956   3.804   7.238 -0.6407  0.4956  0.9013
  878MOL0     H21133   3.849   3.666   7.189 -1.5666  0.3500  1.0814
  878MOL0     H21134   3.653   3.837   7.215 -0.5022 -0.7088 -0.4077
  878MOL0     H21135   3.770   3.935   7.299 -1.1128 -0.8944  1.2933
  878MOL0     H21136   3.827   3.720   7.438  0.2160  0.8053 -1.3836
  878MOL0     H21137   3.681   3.807   7.486 -1.4740 -1.8621  1.6581
  878MOL0     H21138   3.667   3.570   7.299 -0.4031  0.2353  0.2333
  878MOL0     H21139   3.532   3.678   7.337  0.1497  0.4695 -1.5042
  878MOL0     H21140   3.587   3.612   7.585 -0.7326 -2.8095  0.5480
  878MOL0     H21141   3.676   3.480   7.512  0.3585 -0.3135  0.1317
  878MOL0     H21142   3.493   3.384   7.404 -1.2145  0.4782 -1.2284
  878MOL0     H21143   3.395   3.532   7.421  0.8982  1.1630 -0.1847
  878MOL0     H21144   3.877   4.169   6.865  1.5063 -2.7386 -3.9787
  878MOL0     H21145   3.971   4.376   6.799 -2.8093 -1.0016  0.4190
  878MOL0     H21146   4.221   4.713   6.818 -0.2224  1.3470 -0.7429
  878MOL0     H21147   4.337   4.937   6.797 -0.0969 -0.2828 -0.3932
  878MOL0     H21148   3.935   5.037   5.163  1.8994  0.0882  1.6059
  878MOL0     H21149   3.744   5.182   5.103 -1.2267 -1.2523 -1.1023
  878MOL0     H21150   3.325   5.279   5.196  4.4782 -0.5176 -1.8881
  878MOL0     H21151   3.109   5.412   5.209  1.1559 -0.2292  1.7549
  878MOL0     H21152   2.979   5.530   5.083  0.7770 -0.2963  0.6419
  878MOL0     H21153   2.954   5.584   5.244 -0.8485  1.2120 -0.0480
  878MOL0     H21154   2.768   5.648   5.084  2.0855 -2.9935 -0.6442
  878MOL0     H21155   2.876   5.759   5.000  0.4334 -0.6527 -0.1673
  878MOL0     H21156   2.714   5.859   5.149 -0.8549  1.3391  0.6029
  878MOL0     H21157   2.809   5.791   5.294  0.2105  1.1544 -0.3123
  878MOL0     H21158   2.921   5.965   5.070 -1.3077  2.4067 -0.1473
  878MOL0     H21159   3.015   5.925   5.212 -0.1485  2.1582  0.2995
  878MOL0     H21160   2.778   6.264   5.325 -0.0990  0.8653 -0.4185
  878MOL0     H21161   3.337   5.768   5.128 -1.7571  0.3688  1.4770
  878MOL0     H21162   3.637   5.683   5.217  0.7657  0.9833 -0.7733
  878MOL0     H21163   3.636   5.621   5.051  0.6927  2.2050 -1.7748
  878MOL0     H21164   3.554   5.775   5.095  0.5591  0.1792  0.3828
  879MOL0     O21165  10.438   8.051   9.781 -0.1075 -0.2822  0.6098
  879MOL0     C21166  10.536   8.114   9.821  0.0712  0.5268 -1.1799
  879MOL0     O21167  10.663   8.069   9.836 -0.3773  0.1699  0.3623
  879MOL0     C21168  10.702   7.950   9.789 -0.4123  0.9142  1.1724
  879MOL0     C21169  10.793   7.949   9.686 -0.0778  0.8139 -0.5336
  879MOL0     C21170  10.835   7.830   9.628  0.5519  0.1107  1.1508
  879MOL0     C21171  10.786   7.708   9.662 -0.0978 -0.5508  0.1010
  879MOL0     O21172  10.824   7.605   9.580  0.6950  0.5689  0.4139
  879MOL0     C21173  10.808   7.469   9.611  0.0321  0.3133 -0.0354
  879MOL0     C21174  10.691   7.412   9.525 -0.6271  0.7919 -0.2116
  879MOL0     C21175  10.716   7.391   9.372  0.1588  0.9078 -0.5167
  879MOL0     C21176  10.827   7.280   9.345  0.2523 -0.3702  0.0890
  879MOL0     C21177  10.856   7.282   9.193  0.6765  0.6202 -0.4424
  879MOL0     C21178  10.961   7.173   9.156  0.9573  0.4266  0.1689
  879MOL0     C21179  10.925   7.031   9.165 -0.2557  0.1845 -0.1619
  879MOL0     C21180  11.048   6.945   9.124 -0.0993 -0.4902  0.5932
  879MOL0     N21181  11.163   6.950   9.219  0.0251  0.7314 -0.0164
  879MOL0     C21182  11.288   6.998   9.178  0.5747 -0.6314 -0.1691
  879MOL0     C21183  11.357   6.983   9.287  0.5619 -0.7823 -1.1588
  879MOL0     C21184  11.500   7.027   9.287 -0.4074 -0.9576  0.4738
  879MOL0     C21185  11.586   6.924   9.213  0.2932  0.4513 -0.4092
  879MOL0     C21186  11.733   6.932   9.248  1.0499  0.5134  0.0186
  879MOL0     C21187  11.807   7.067   9.209  0.1843 -0.2352  0.4985
  879MOL0     O21188  11.937   7.088   9.275  0.2581 -0.6554  0.6164
  879MOL0     C21189  11.993   7.209   9.247  0.2503  0.5043 -1.1353
  879MOL0     C21190  11.966   7.329   9.316  0.2808 -0.0364  1.2552
  879MOL0     C21191  12.016   7.454   9.287 -0.1783  0.3659  0.3298
  879MOL0     C21192  11.991   7.565   9.389 -0.0965  0.0974 -0.3315
  879MOL0     C21193  12.096   7.468   9.171 -0.2893  0.7211 -1.1516
  879MOL0     C21194  12.151   7.590   9.109 -0.0036  0.3054  0.8623
  879MOL0     O21195  12.249   7.574   9.013  0.5317 -0.0350  0.1677
  879MOL0     C21196  12.318   7.683   8.963 -0.6703 -0.9557  0.5302
  879MOL0     C21197  12.248   7.782   8.888 -0.6749  0.1278  0.2068
  879MOL0     C21198  12.318   7.900   8.846 -0.7170 -0.3035  0.6582
  879MOL0     C21199  12.458   7.921   8.872 -0.0005  0.7594 -0.6015
  879MOL0     O21200  12.511   8.034   8.824  0.2091 -0.6038  0.2535
  879MOL0     C21201  12.620   8.073   8.906 -0.0362 -0.3523  0.1479
  879MOL0     C21202  12.653   8.217   8.863  0.0890 -0.5966 -0.2158
  879MOL0     C21203  12.758   8.274   8.958 -0.1991  0.2466 -0.1100
  879MOL0     C21204  12.787   8.415   8.912  0.0046 -0.4049 -0.6296
  879MOL0     C21205  12.894   8.465   9.018  0.0140  0.8506  0.2603
  879MOL0     C21206  12.918   8.607   8.991 -0.1562  0.9008 -0.1528
  879MOL0     C21207  12.997   8.673   9.103  0.3045 -0.1099  0.2827
  879MOL0     C21208  13.147   8.672   9.064 -0.2997 -0.7239  0.1222
  879MOL0    Cl21209  13.200   8.780   8.932  0.3068  0.4506  0.9819
  879MOL0     C21210  12.530   7.811   8.939  1.2235 -0.0857 -0.4199
  879MOL0     C21211  12.456   7.702   8.986  0.1632  0.1296  0.2102
  879MOL0     O21212  12.101   7.694   9.140  1.1008 -0.4134  0.3773
  879MOL0     C21213  12.124   7.348   9.098  0.0361 -0.0119 -0.5999
  879MOL0     C21214  12.085   7.227   9.145  0.5433  0.7908 -0.5169
  879MOL0     N21215  11.294   6.924   9.398 -0.2757  0.1558 -0.8040
  879MOL0     N21216  11.174   6.890   9.349  0.9639  0.2874  0.2731
  879MOL0     C21217  10.693   7.706   9.767  0.2393  0.5496  0.1166
  879MOL0     C21218  10.642   7.823   9.820  0.0311 -0.0972 -0.0397
  879MOL0     C21219  10.515   8.263   9.838  0.0571  0.1581 -0.8393
  879MOL0     C21220  10.598   8.338   9.758  0.2400 -0.1507 -1.5291
  879MOL0     C21221  10.587   8.470   9.755  0.3820  0.5213 -0.9275
  879MOL0     C21222  10.498   8.539   9.826 -0.8955  1.1522 -0.9701
  879MOL0     O21223  10.486   8.667   9.826 -0.1630 -0.1568  0.8253
  879MOL0     C21224  10.401   8.728   9.733  0.7374 -0.0990 -0.3674
  879MOL0     C21225  10.463   8.763   9.588 -0.2200 -0.3197  1.1495
  879MOL0     C21226  10.353   8.744   9.482  0.0544 -0.0604  0.5557
  879MOL0     C21227  10.232   8.841   9.507  0.3920 -1.3084 -0.1285
  879MOL0     C21228  10.281   8.978   9.499  0.5397  0.1821  0.8646
  879MOL0     C21229  10.312   9.094   9.477 -0.0907 -0.9417  0.1102
  879MOL0     C21230  10.407   8.466   9.914 -0.8931  0.5395  0.9355
  879MOL0     C21231  10.414   8.324   9.921  0.8415 -0.9516 -0.1470
  879MOL0     C21232  10.294   8.259   9.992  0.5949  0.3685 -0.6961
  879MOL0     H21233  10.834   8.046   9.662 -0.9124  1.2727 -0.1672
  879MOL0     H21234  10.913   7.835   9.553 -0.1676 -1.1828  0.2616
  879MOL0     H21235  10.774   7.450   9.714  2.4329 -1.6565  0.4654
  879MOL0     H21236  10.904   7.421   9.593 -1.4385 -2.8752 -0.1674
  879MOL0     H21237  10.640   7.326   9.569 -0.8622  1.7874  1.5739
  879MOL0     H21238  10.621   7.495   9.533 -0.6492  0.8388 -0.8682
  879MOL0     H21239  10.621   7.380   9.319  2.0509 -0.9764 -3.9242
  879MOL0     H21240  10.756   7.483   9.328  0.2425  2.2809  2.2508
  879MOL0     H21241  10.916   7.304   9.404  0.2431 -0.7610  0.2652
  879MOL0     H21242  10.792   7.178   9.364 -0.1871 -0.8078 -2.6730
  879MOL0     H21243  10.893   7.378   9.157  2.1747 -0.7784 -2.9493
  879MOL0     H21244  10.766   7.251   9.140  0.9426 -0.9911  0.0030
  879MOL0     H21245  11.006   7.188   9.057  1.3325  1.5206  0.4914
  879MOL0     H21246  11.043   7.188   9.226  2.9724  0.1683 -2.0027
  879MOL0     H21247  10.844   7.013   9.094 -2.3569 -0.4043  2.2244
  879MOL0     H21248  10.895   6.990   9.262 -2.1653  0.4383 -0.5924
  879MOL0     H21249  11.008   6.844   9.106 -2.0425  0.5412 -1.4094
  879MOL0     H21250  11.082   6.981   9.026  0.1359 -1.1813  0.4157
  879MOL0     H21251  11.314   7.038   9.080  2.9299 -0.1785  0.5858
  879MOL0     H21252  11.538   7.029   9.389 -0.2245 -4.3150  0.5604
  879MOL0     H21253  11.512   7.131   9.253 -2.0040 -0.1439  2.1882
  879MOL0     H21254  11.553   6.827   9.251  0.4959  1.7736  3.5317
  879MOL0     H21255  11.564   6.930   9.106 -0.0357  1.3844 -0.2936
  879MOL0     H21256  11.731   6.916   9.357  2.1104 -2.1355 -0.2899
  879MOL0     H21257  11.778   6.847   9.196  0.5690  0.9135 -1.0608
  879MOL0     H21258  11.818   7.066   9.100 -1.0608 -1.1888  0.3579
  879MOL0     H21259  11.745   7.152   9.240  2.3446  2.5219 -2.0967
  879MOL0     H21260  11.897   7.322   9.399 -1.2019  1.9077  0.2781
  879MOL0     H21261  11.893   7.558   9.438  1.0715 -1.1482  2.0125
  879MOL0     H21262  12.009   7.665   9.350  2.4936 -0.5755 -1.0688
  879MOL0     H21263  12.063   7.571   9.472  0.1081  2.4601 -0.6366
  879MOL0     H21264  12.141   7.774   8.869 -0.5787 -1.4314  0.2246
  879MOL0     H21265  12.263   7.982   8.801 -0.5300 -0.2941  0.4488
  879MOL0     H21266  12.605   8.070   9.015 -2.7331  1.5985 -0.0752
  879MOL0     H21267  12.707   8.009   8.890 -0.2216 -0.7984  0.8897
  879MOL0     H21268  12.679   8.226   8.757 -0.8465 -5.3199 -1.0647
  879MOL0     H21269  12.559   8.272   8.875  0.2156 -0.1452 -1.2596
  879MOL0     H21270  12.849   8.218   8.935  1.0432  1.6988  1.0469
  879MOL0     H21271  12.730   8.273   9.064  0.9098  1.5020  0.2082
  879MOL0     H21272  12.693   8.469   8.930 -0.9044 -0.9632 -3.3388
  879MOL0     H21273  12.830   8.435   8.814 -2.8527  4.6721 -1.1864
  879MOL0     H21274  12.853   8.460   9.119 -1.2257 -1.1911 -0.3002
  879MOL0     H21275  12.982   8.401   9.014 -2.7386 -3.3781  0.5424
  879MOL0     H21276  12.824   8.660   8.979 -0.3699 -0.1924 -5.3894
  879MOL0     H21277  12.967   8.611   8.893  1.8463  1.2231  0.7993
  879MOL0     H21278  12.981   8.616   9.195  0.3536  1.2893  1.1721
  879MOL0     H21279  12.966   8.777   9.116 -0.4438 -0.0715 -1.5659
  879MOL0     H21280  13.159   8.565   9.049 -0.6817 -0.6034 -1.1225
  879MOL0     H21281  13.203   8.697   9.155 -1.9464 -1.0797  1.2721
  879MOL0     H21282  12.635   7.816   8.968  1.1716 -0.4351 -0.1590
  879MOL0     H21283  12.504   7.630   9.052  2.6055  2.5987  1.3714
  879MOL0     H21284  12.172   7.358   9.001  2.2708  0.4216  0.4956
  879MOL0     H21285  12.088   7.138   9.084 -1.7115 -1.9090  2.9115
  879MOL0     H21286  10.655   7.610   9.800  1.9208  0.4990  2.0650
  879MOL0     H21287  10.571   7.807   9.900 -2.1058 -1.0267 -1.9983
  879MOL0     H21288  10.673   8.301   9.689  3.6003  2.9497  0.0989
  879MOL0     H21289  10.664   8.522   9.700  0.4012 -2.9940 -4.6641
  879MOL0     H21290  10.324   8.650   9.727  1.3885 -1.1525  2.9743
  879MOL0     H21291  10.358   8.821   9.770  0.0089 -0.7824  0.5598
  879MOL0     H21292  10.547   8.701   9.558 -0.0244  0.3615  0.2768
  879MOL0     H21293  10.509   8.862   9.588  1.5841 -1.0998 -0.6077
  879MOL0     H21294  10.388   8.769   9.382  4.0184 -0.3729  1.7044
  879MOL0     H21295  10.312   8.643   9.497 -1.1055  0.5723  1.8738
  879MOL0     H21296  10.178   8.819   9.600 -1.7481  1.9054 -0.4543
  879MOL0     H21297  10.167   8.821   9.421  0.1424  0.1399 -0.2963
  879MOL0     H21298  10.344   9.195   9.494  0.0861 -0.9697 -0.0474
  879MOL0     H21299  10.334   8.508   9.981 -2.5583  0.9017 -1.0189
  879MOL0     H21300  10.199   8.290   9.946  0.4523  1.4917  0.3027
  879MOL0     H21301  10.317   8.153   9.997  1.8381  0.6658  1.1350
  879MOL0     H21302  10.284   8.296  10.095 -2.3479  0.8855 -1.0717
  880MOL0     O21303   4.506  10.618   8.418  0.1111  0.0375  0.2557
  880MOL0     C21304   4.574  10.604   8.321 -0.0463 -0.7347  0.3372
  880MOL0     O21305   4.557  10.512   8.222 -0.0105 -0.3460  0.7386
  880MOL0     C21306   4.464  10.413   8.237  0.6386  0.8504 -0.3761
  880MOL0     C21307   4.433  10.343   8.353 -0.5601 -0.6413 -0.2966
  880MOL0     C21308   4.340  10.242   8.351 -1.0968  0.8394 -0.1416
  880MOL0     C21309   4.275  10.208   8.234  0.6061 -0.4710  0.0946
  880MOL0     O21310   4.187  10.111   8.205 -0.2703 -0.1510  0.5857
  880MOL0     C21311   4.209   9.988   8.281 -0.4323 -0.2400 -0.3560
  880MOL0     C21312   4.125   9.875   8.223 -0.7088  0.1779  0.6084
  880MOL0     C21313   4.211   9.797   8.116 -0.5600  0.0384 -0.0874
  880MOL0     C21314   4.140   9.664   8.069  0.8594  0.5953  0.3133
  880MOL0     C21315   4.252   9.574   8.013  0.5774  0.5287  0.0373
  880MOL0     C21316   4.188   9.435   7.976 -0.5757  0.4747 -0.7576
  880MOL0     C21317   4.280   9.362   7.880  0.6034 -0.1967 -0.4942
  880MOL0     C21318   4.242   9.214   7.843 -0.3421 -0.5798 -0.2808
  880MOL0     N21319   4.105   9.209   7.780  0.2121 -0.4800 -0.1442
  880MOL0     C21320   4.072   9.289   7.674  0.4786 -0.0044  0.4855
  880MOL0     C21321   3.948   9.255   7.627 -0.6523  0.5866 -0.1595
  880MOL0     C21322   3.876   9.312   7.514 -0.2534  1.0687  1.1228
  880MOL0     C21323   3.914   9.235   7.392 -0.4571 -0.7241 -0.1526
  880MOL0     C21324   4.048   9.276   7.354 -1.1876  0.2488  0.7489
  880MOL0     C21325   4.060   9.288   7.204  0.4140  0.4741 -0.1548
  880MOL0     O21326   3.980   9.400   7.160  0.0542 -0.2961 -0.1012
  880MOL0     C21327   4.025   9.464   7.047  0.1284  0.4031 -0.6002
  880MOL0     C21328   4.118   9.417   6.947 -0.0499  0.1955 -0.4676
  880MOL0     C21329   4.116   9.479   6.816  0.0102 -0.3421  0.4072
  880MOL0     C21330   4.207   9.414   6.721 -0.4599  0.0080 -0.3893
  880MOL0     C21331   4.036   9.593   6.789  0.3868  1.1036 -1.2788
  880MOL0     C21332   4.033   9.660   6.652 -0.9306  0.3464 -0.1863
  880MOL0     O21333   4.116   9.610   6.549 -0.6206  0.0989 -0.8250
  880MOL0     C21334   4.108   9.667   6.421 -0.2349 -0.1782 -0.6244
  880MOL0     C21335   4.132   9.805   6.392 -0.2644 -0.1868 -0.2033
  880MOL0     C21336   4.121   9.855   6.257  0.0046 -0.2265 -0.2221
  880MOL0     C21337   4.094   9.762   6.151 -0.3826 -0.9527 -0.4477
  880MOL0     O21338   4.082   9.798   6.014  1.0631 -0.0998 -0.0183
  880MOL0     C21339   4.202   9.854   5.961  0.3765 -0.4389  0.1871
  880MOL0     C21340   4.166   9.908   5.819 -0.1446 -0.2845  0.7527
  880MOL0     C21341   4.121   9.815   5.707  0.2869  0.0715 -1.0256
  880MOL0     C21342   3.981   9.840   5.656  0.4428 -0.8041 -0.1862
  880MOL0     C21343   3.944   9.770   5.525 -0.2314  0.0979 -0.7405
  880MOL0     C21344   3.902   9.627   5.541 -0.1703 -0.7505  0.1028
  880MOL0     C21345   3.924   9.532   5.424  0.6382  0.3056 -0.6953
  880MOL0     C21346   3.797   9.447   5.394  0.4009 -0.3214 -0.1844
  880MOL0    Cl21347   3.742   9.347   5.535 -0.2987  0.0544  0.1226
  880MOL0     C21348   4.063   9.634   6.186  0.3212  0.1767 -0.4101
  880MOL0     C21349   4.065   9.587   6.320  0.0029 -0.0020 -0.2301
  880MOL0     O21350   3.963   9.759   6.647  0.3864 -0.0028  0.0500
  880MOL0     C21351   3.942   9.638   6.893  0.2377  0.4679  0.3288
  880MOL0     C21352   3.941   9.571   7.016  0.3040  0.2185  0.3585
  880MOL0     N21353   3.902   9.147   7.703 -0.2480 -0.5639  0.1169
  880MOL0     N21354   3.997   9.118   7.793 -0.1405  0.8003  0.6086
  880MOL0     C21355   4.290  10.289   8.127 -0.2817 -0.3026 -1.2424
  880MOL0     C21356   4.386  10.387   8.123 -0.2330 -0.2610 -0.6938
  880MOL0     C21357   4.678  10.712   8.298  0.7086 -0.3144 -0.5450
  880MOL0     C21358   4.700  10.739   8.160  0.6173  1.2589  0.3264
  880MOL0     C21359   4.774  10.848   8.129  0.4706 -0.2198 -0.4922
  880MOL0     C21360   4.846  10.920   8.228  0.2346  0.2768  0.4265
  880MOL0     O21361   4.934  11.023   8.195  0.8012 -0.5260  0.0840
  880MOL0     C21362   4.876  11.159   8.182 -0.5302  0.2781  0.0690
  880MOL0     C21363   4.794  11.176   8.052 -0.1831 -0.3790  0.1960
  880MOL0     C21364   4.643  11.161   8.054 -0.4705  0.2644 -0.0684
  880MOL0     C21365   4.572  11.198   7.918 -0.8702  0.9472 -1.4596
  880MOL0     C21366   4.531  11.073   7.845 -0.1606  0.1622 -0.2578
  880MOL0     C21367   4.510  10.959   7.805  0.3328  0.1165 -0.8131
  880MOL0     C21368   4.831  10.893   8.359 -0.7590 -0.1615 -0.2781
  880MOL0     C21369   4.742  10.791   8.402  0.0707 -0.0557  0.1720
  880MOL0     C21370   4.736  10.761   8.553  0.5394  0.0539 -0.1092
  880MOL0     H21371   4.495  10.363   8.440 -0.0627 -1.1135 -0.5391
  880MOL0     H21372   4.325  10.201   8.450 -0.8753  1.2351  0.0547
  880MOL0     H21373   4.167  10.011   8.379 -1.1130 -1.7578 -0.2757
  880MOL0     H21374   4.318   9.974   8.288  0.1593  3.5345  0.2653
  880MOL0     H21375   4.100   9.809   8.306  0.3193 -1.4517 -0.3228
  880MOL0     H21376   4.025   9.904   8.190  0.0464  2.3921  0.0872
  880MOL0     H21377   4.238   9.852   8.026 -1.4464  0.4218 -0.1300
  880MOL0     H21378   4.293   9.756   8.176 -0.2198  1.3606  0.3780
  880MOL0     H21379   4.096   9.620   8.159 -1.8444  1.2748 -0.5818
  880MOL0     H21380   4.062   9.682   7.995  0.8083  1.2504  0.5227
  880MOL0     H21381   4.347   9.572   8.068  0.6173  1.2788  0.0024
  880MOL0     H21382   4.271   9.616   7.914 -0.6153  1.9799  0.3894
  880MOL0     H21383   4.149   9.383   8.063  0.8684  1.4703  0.5444
  880MOL0     H21384   4.101   9.471   7.920 -2.2301 -2.8235 -0.5216
  880MOL0     H21385   4.379   9.361   7.927  0.2849 -2.3185  0.2349
  880MOL0     H21386   4.272   9.418   7.786 -3.0185 -2.0253 -1.4745
  880MOL0     H21387   4.310   9.173   7.768  1.9414 -0.0557  1.3966
  880MOL0     H21388   4.245   9.154   7.935 -4.9767 -3.9427 -1.9676
  880MOL0     H21389   4.134   9.366   7.629  0.4943  0.5542  1.4337
  880MOL0     H21390   3.907   9.415   7.492  1.2034  0.3034 -0.7023
  880MOL0     H21391   3.767   9.309   7.524 -0.3672  1.0209  0.0188
  880MOL0     H21392   3.921   9.126   7.405 -3.1232 -1.1476 -1.4168
  880MOL0     H21393   3.834   9.257   7.319 -0.5801  0.3626  0.2962
  880MOL0     H21394   4.078   9.377   7.383 -0.1738 -0.3448  1.8533
  880MOL0     H21395   4.129   9.211   7.389 -1.1510  0.7075  1.5461
  880MOL0     H21396   4.167   9.290   7.181 -0.0180  2.2683 -2.3787
  880MOL0     H21397   4.033   9.201   7.144 -2.8059  1.4466 -0.2673
  880MOL0     H21398   4.183   9.331   6.954 -0.9640 -0.5558 -0.9870
  880MOL0     H21399   4.160   9.394   6.625 -0.1598  1.9142 -0.9824
  880MOL0     H21400   4.246   9.316   6.752 -2.6182 -0.0005  2.7284
  880MOL0     H21401   4.298   9.473   6.705 -2.5175  3.4379 -0.5059
  880MOL0     H21402   4.146   9.883   6.466 -2.9984 -2.9717  3.6702
  880MOL0     H21403   4.129   9.960   6.233  0.4384 -0.0464  0.6969
  880MOL0     H21404   4.237   9.932   6.030 -0.3256  1.2819 -1.2960
  880MOL0     H21405   4.279   9.778   5.952 -0.2838 -0.9469 -1.6620
  880MOL0     H21406   4.085   9.980   5.836  1.9936  2.7501 -0.9703
  880MOL0     H21407   4.258   9.961   5.793  0.2991 -0.7983  1.2426
  880MOL0     H21408   4.123   9.710   5.735 -1.6334 -0.2829 -2.0235
  880MOL0     H21409   4.194   9.815   5.625  2.6668  0.5474  0.9888
  880MOL0     H21410   3.975   9.949   5.642 -0.3326 -0.7732  0.3042
  880MOL0     H21411   3.905   9.816   5.732  0.2896 -0.0633 -0.0950
  880MOL0     H21412   3.861   9.818   5.473 -2.9397 -3.3396  0.0415
  880MOL0     H21413   4.034   9.759   5.463 -0.4733  1.3847 -1.3584
  880MOL0     H21414   3.795   9.631   5.561 -0.0063  1.1622  0.8669
  880MOL0     H21415   3.955   9.592   5.631  1.4831  3.0334  0.8117
  880MOL0     H21416   4.012   9.468   5.436  0.5256  0.1076 -0.9388
  880MOL0     H21417   3.950   9.593   5.337 -0.2585  2.8673  0.7244
  880MOL0     H21418   3.819   9.372   5.317 -2.2417 -1.7560  0.3473
  880MOL0     H21419   3.716   9.516   5.368  1.4345 -0.4008 -4.3454
  880MOL0     H21420   4.042   9.572   6.100  1.5986  2.0082 -2.1519
  880MOL0     H21421   4.050   9.481   6.341  0.0328  0.1188  0.4149
  880MOL0     H21422   3.862   9.711   6.885  1.0761  1.4804  0.8066
  880MOL0     H21423   3.856   9.584   7.082 -1.0275  0.3252 -1.2890
  880MOL0     H21424   4.239  10.260   8.035 -3.5472  0.7578  0.1008
  880MOL0     H21425   4.393  10.438   8.027  2.1706 -2.3912 -1.7589
  880MOL0     H21426   4.648  10.677   8.087  1.1747 -0.9370  1.7116
  880MOL0     H21427   4.769  10.881   8.026  1.9666  1.2267 -0.1437
  880MOL0     H21428   4.815  11.185   8.269  3.0890  2.1514  2.2471
  880MOL0     H21429   4.954  11.235   8.169  0.9360 -1.3253 -0.9094
  880MOL0     H21430   4.828  11.109   7.974 -0.3372  0.7040 -0.8300
  880MOL0     H21431   4.814  11.276   8.012 -1.6867 -1.3973 -3.4925
  880MOL0     H21432   4.611  11.062   8.087 -1.8795 -0.0949 -2.2758
  880MOL0     H21433   4.616  11.237   8.129  3.0242 -0.3830  2.0742
  880MOL0     H21434   4.643  11.253   7.856  1.4250  1.4300  1.4352
  880MOL0     H21435   4.484  11.262   7.933 -1.6435 -0.2377 -0.7729
  880MOL0     H21436   4.500  10.859   7.767 -1.8131 -1.2940  2.8875
  880MOL0     H21437   4.892  10.940   8.435 -1.1045  0.9803 -0.7004
  880MOL0     H21438   4.656  10.821   8.597 -0.2660  2.5086 -4.3351
  880MOL0     H21439   4.715  10.656   8.578 -0.0447  0.0938 -0.3961
  880MOL0     H21440   4.825  10.787   8.611 -2.2767  1.3900  4.0838
  881MOL0     O21441   0.440   3.389   3.462  0.2508 -0.1199 -0.0757
  881MOL0     C21442   0.431   3.430   3.578  0.0636  0.4768  1.1746
  881MOL0     O21443   0.524   3.515   3.639 -0.1784  0.6882  0.3504
  881MOL0     C21444   0.617   3.582   3.568  0.2347  0.4098  0.5035
  881MOL0     C21445   0.580   3.705   3.494  0.5661  0.4551 -0.0465
  881MOL0     C21446   0.670   3.775   3.419  0.0921  0.3428  0.2451
  881MOL0     C21447   0.795   3.727   3.405 -0.7107 -0.3472 -0.0543
  881MOL0     O21448   0.878   3.808   3.336 -0.0399  0.4851 -0.1187
  881MOL0     C21449   1.015   3.840   3.381  0.7334 -0.2662  0.6690
  881MOL0     C21450   1.000   3.940   3.489 -0.1762 -0.0702  0.2441
  881MOL0     C21451   1.132   3.970   3.558 -1.2629 -0.5164  0.5532
  881MOL0     C21452   1.165   3.900   3.690  0.6350 -0.0001 -1.2415
  881MOL0     C21453   1.165   3.753   3.685 -0.3925  0.5700 -0.3938
  881MOL0     C21454   1.080   3.677   3.780  0.4948  1.4508  0.5943
  881MOL0     C21455   1.123   3.528   3.784  0.0208 -0.4160  0.1958
  881MOL0     C21456   1.019   3.447   3.843 -0.0901  0.1409  1.0601
  881MOL0     N21457   1.011   3.460   3.991 -0.3559  1.0071  0.2832
  881MOL0     C21458   0.977   3.572   4.054 -0.4247 -0.2239  0.2907
  881MOL0     C21459   0.982   3.529   4.186  0.0980  0.5054  0.3880
  881MOL0     C21460   0.917   3.612   4.298 -0.0648 -0.4851 -0.9180
  881MOL0     C21461   0.777   3.568   4.342  0.2118 -0.4365 -0.1420
  881MOL0     C21462   0.698   3.664   4.425 -0.1623 -0.3550  0.4392
  881MOL0     C21463   0.555   3.617   4.447  0.4810 -0.6135 -0.6119
  881MOL0     O21464   0.469   3.586   4.337  0.0316  0.0133 -0.1665
  881MOL0     C21465   0.394   3.690   4.279  0.7516  0.3743  0.0869
  881MOL0     C21466   0.442   3.818   4.249 -0.8558  1.0463  0.8554
  881MOL0     C21467   0.358   3.908   4.177  0.1722 -0.0331 -0.3358
  881MOL0     C21468   0.396   4.045   4.178 -0.3307  0.0578 -0.3942
  881MOL0     C21469   0.230   3.867   4.123 -0.7205 -0.1323 -0.1239
  881MOL0     C21470   0.134   3.942   4.040 -0.2646  0.0353 -0.4193
  881MOL0     O21471   0.010   3.886   4.045  0.3779  0.9980 -0.5230
  881MOL0     C21472  -0.095   3.931   3.976  1.1088 -0.5680 -0.3455
  881MOL0     C21473  -0.085   3.975   3.849  0.6041 -1.2787  0.3704
  881MOL0     C21474  -0.201   4.019   3.770  0.6204  1.2823 -0.4699
  881MOL0     C21475  -0.322   4.014   3.832 -0.6791  0.3010 -0.2726
  881MOL0     O21476  -0.442   4.050   3.775  0.8350 -0.4368  0.1340
  881MOL0     C21477  -0.431   4.174   3.709 -0.3430 -0.1061 -0.3911
  881MOL0     C21478  -0.579   4.233   3.712  0.9570 -0.5687  0.6599
  881MOL0     C21479  -0.581   4.363   3.624  0.0732  1.0207  0.5198
  881MOL0     C21480  -0.719   4.421   3.590 -0.5517  0.1881  0.1110
  881MOL0     C21481  -0.719   4.549   3.497  1.0591 -0.4569 -0.0203
  881MOL0     C21482  -0.858   4.630   3.504 -0.5440  0.3767  0.1510
  881MOL0     C21483  -0.846   4.762   3.427  0.2921  0.8277  0.3922
  881MOL0     C21484  -0.814   4.741   3.279  0.9141 -1.0159 -0.9188
  881MOL0    Cl21485  -0.951   4.676   3.178 -0.3157 -0.6007  0.6515
  881MOL0     C21486  -0.326   3.957   3.957  0.9372 -0.2644 -0.2629
  881MOL0     C21487  -0.215   3.912   4.030 -0.0855 -0.8188  0.5428
  881MOL0     O21488   0.167   4.041   3.987  0.6253  0.5869 -0.0785
  881MOL0     C21489   0.191   3.728   4.159  0.7437 -0.4507 -0.7851
  881MOL0     C21490   0.265   3.649   4.246 -0.0217 -0.5881 -0.1324
  881MOL0     N21491   1.022   3.396   4.188 -0.2015  0.1462  0.2552
  881MOL0     N21492   1.056   3.359   4.075 -0.1139 -1.2284 -0.3464
  881MOL0     C21493   0.834   3.604   3.467 -1.0390 -0.8052 -0.5984
  881MOL0     C21494   0.754   3.534   3.555 -0.6149 -0.0658  0.5214
  881MOL0     C21495   0.299   3.417   3.647  1.2554 -1.0767 -0.4800
  881MOL0     C21496   0.209   3.320   3.587 -0.1185 -0.0199  0.2317
  881MOL0     C21497   0.085   3.298   3.648 -0.7416 -0.1930  0.0916
  881MOL0     C21498   0.042   3.375   3.747  0.3743 -0.5148  0.0211
  881MOL0     O21499  -0.082   3.340   3.784  0.2008 -0.5475 -0.0480
  881MOL0     C21500  -0.143   3.403   3.899  0.2876 -0.3070 -0.0111
  881MOL0     C21501  -0.218   3.527   3.872 -0.6605  0.2513  0.0499
  881MOL0     C21502  -0.330   3.501   3.771  0.4253  0.3228 -0.2515
  881MOL0     C21503  -0.417   3.627   3.743 -1.3938  0.3738 -0.1027
  881MOL0     C21504  -0.510   3.652   3.851  0.3346  0.2606  0.3643
  881MOL0     C21505  -0.590   3.662   3.941  0.5275 -0.0375 -0.6650
  881MOL0     C21506   0.127   3.466   3.804 -0.3130 -0.5576 -0.5110
  881MOL0     C21507   0.259   3.488   3.760 -0.2111  0.5585  0.0406
  881MOL0     C21508   0.347   3.565   3.852  0.5504 -0.1591 -1.1377
  881MOL0     H21509   0.476   3.733   3.503  0.1569 -1.1938  1.0400
  881MOL0     H21510   0.650   3.868   3.368  2.9413  0.9129  0.0091
  881MOL0     H21511   1.074   3.888   3.302  2.4483 -2.3961  0.5693
  881MOL0     H21512   1.059   3.744   3.409  0.1242 -1.7895 -3.0325
  881MOL0     H21513   0.968   4.034   3.443 -0.1176 -0.2786 -0.2271
  881MOL0     H21514   0.920   3.917   3.561 -0.8251  0.6380 -0.2349
  881MOL0     H21515   1.215   3.948   3.490 -0.6345 -2.6632  1.9255
  881MOL0     H21516   1.145   4.077   3.579  2.8429  0.2131 -3.8600
  881MOL0     H21517   1.265   3.930   3.723  1.2271 -2.5212 -0.5048
  881MOL0     H21518   1.092   3.927   3.767 -2.0152 -3.4642 -2.2867
  881MOL0     H21519   1.271   3.729   3.701 -0.9407 -1.2136  0.9014
  881MOL0     H21520   1.141   3.718   3.585  0.8601  2.5336 -1.4393
  881MOL0     H21521   1.070   3.725   3.878  0.7511 -0.8671  1.8325
  881MOL0     H21522   0.976   3.693   3.748 -1.0786 -2.1165  3.1923
  881MOL0     H21523   1.212   3.512   3.846  1.6140 -1.6865 -2.2872
  881MOL0     H21524   1.145   3.499   3.681 -2.6184  0.1620 -0.6202
  881MOL0     H21525   0.922   3.469   3.797 -1.2102 -1.9633  2.2503
  881MOL0     H21526   1.044   3.345   3.813  4.0819  0.5203  2.6626
  881MOL0     H21527   0.944   3.663   4.005  1.9552  0.2671 -0.5619
  881MOL0     H21528   0.903   3.710   4.252  1.5276 -0.4527 -1.3703
  881MOL0     H21529   0.989   3.627   4.378 -0.7695  0.0922 -0.3721
  881MOL0     H21530   0.713   3.541   4.257 -1.0963  2.4744 -0.1989
  881MOL0     H21531   0.797   3.475   4.396 -0.3092 -0.5222 -0.0936
  881MOL0     H21532   0.752   3.681   4.518 -1.2937 -0.9653  1.2379
  881MOL0     H21533   0.705   3.757   4.368  0.5100 -0.1991  0.7723
  881MOL0     H21534   0.555   3.534   4.518 -1.3243  0.6063  0.9032
  881MOL0     H21535   0.514   3.704   4.499  0.1052 -0.8553 -0.5033
  881MOL0     H21536   0.543   3.843   4.278  1.5419 -4.6465 -1.0139
  881MOL0     H21537   0.492   4.060   4.229 -0.6873  1.5594 -0.0895
  881MOL0     H21538   0.319   4.095   4.237 -1.2348 -1.9686  0.2354
  881MOL0     H21539   0.405   4.090   4.079  0.3534 -0.1835 -0.4459
  881MOL0     H21540   0.007   3.962   3.792 -0.2148  2.9219 -2.4142
  881MOL0     H21541  -0.182   4.055   3.670  3.8143 -0.8229 -0.7653
  881MOL0     H21542  -0.356   4.237   3.758 -2.1659 -0.3761  3.0206
  881MOL0     H21543  -0.408   4.154   3.604 -0.2914 -0.3364 -0.3348
  881MOL0     H21544  -0.646   4.166   3.658 -1.3842  0.8891  1.6279
  881MOL0     H21545  -0.611   4.261   3.813 -3.8144 -0.1087 -0.7271
  881MOL0     H21546  -0.516   4.341   3.539  1.2233  0.7315  1.4426
  881MOL0     H21547  -0.522   4.448   3.660  2.5468  0.0654 -0.9991
  881MOL0     H21548  -0.770   4.440   3.685 -0.2161  2.6859 -0.1405
  881MOL0     H21549  -0.766   4.334   3.543  0.7062 -0.1632 -0.5529
  881MOL0     H21550  -0.637   4.617   3.525  0.7426 -0.5606  1.2429
  881MOL0     H21551  -0.700   4.522   3.393 -2.7482  0.9479 -1.2494
  881MOL0     H21552  -0.883   4.645   3.609  0.9112 -2.6278  1.0487
  881MOL0     H21553  -0.939   4.575   3.455 -2.7208  1.6684  2.1466
  881MOL0     H21554  -0.773   4.827   3.475 -0.4296  1.8030  0.1980
  881MOL0     H21555  -0.940   4.816   3.438 -0.3165 -0.4423  1.5866
  881MOL0     H21556  -0.727   4.675   3.265  1.1889 -1.4259  2.0080
  881MOL0     H21557  -0.785   4.840   3.243  1.0729  0.1712  2.1415
  881MOL0     H21558  -0.425   3.946   4.000  0.3238 -0.8856 -1.7616
  881MOL0     H21559  -0.225   3.871   4.131 -0.4146  0.5074  1.0692
  881MOL0     H21560   0.096   3.683   4.131  0.9761 -1.2322 -0.3422
  881MOL0     H21561   0.217   3.554   4.269  1.0243 -2.5595 -4.8359
  881MOL0     H21562   0.934   3.567   3.445 -0.1812 -0.1361  1.7880
  881MOL0     H21563   0.789   3.449   3.614  0.7169 -0.1103 -0.3060
  881MOL0     H21564   0.236   3.268   3.496  0.5567 -2.6496  1.8329
  881MOL0     H21565   0.011   3.238   3.596 -1.8457  0.1295  1.2366
  881MOL0     H21566  -0.203   3.320   3.936 -1.0880 -0.0021 -1.4465
  881MOL0     H21567  -0.076   3.433   3.980  2.6166  0.4748 -2.0917
  881MOL0     H21568  -0.151   3.606   3.836  1.0031 -1.0917  0.0370
  881MOL0     H21569  -0.258   3.559   3.969  0.5012 -1.4398  1.1397
  881MOL0     H21570  -0.275   3.473   3.680 -1.6482 -1.5417 -1.0228
  881MOL0     H21571  -0.392   3.416   3.802  0.5950  0.6166  0.9620
  881MOL0     H21572  -0.473   3.615   3.649  0.3035  0.3160 -1.1501
  881MOL0     H21573  -0.365   3.723   3.732 -0.9599  0.7517  3.9065
  881MOL0     H21574  -0.655   3.688   4.022 -0.4607 -0.2795 -1.3707
  881MOL0     H21575   0.090   3.526   3.887  0.5491 -0.1849 -0.3797
  881MOL0     H21576   0.352   3.524   3.953  0.0052  0.1284 -0.9906
  881MOL0     H21577   0.453   3.565   3.823  0.7423 -0.5091 -0.4560
  881MOL0     H21578   0.310   3.668   3.855 -0.2086 -0.4106 -1.6654
  882MOL0     O21579   8.507  11.053   3.051 -0.8310 -0.0134  0.1247
  882MOL0     C21580   8.594  10.963   3.055  1.0906  0.0112  0.4764
  882MOL0     O21581   8.564  10.850   3.105  0.3492 -0.4287 -0.2541
  882MOL0     C21582   8.435  10.818   3.114 -1.4027 -0.4404 -0.7111
  882MOL0     C21583   8.371  10.815   3.239  0.5323  0.3113 -0.2073
  882MOL0     C21584   8.233  10.789   3.255  0.8365 -0.7800 -0.3486
  882MOL0     C21585   8.152  10.775   3.137  0.5513 -0.4367  0.0895
  882MOL0     O21586   8.023  10.723   3.132  0.5034 -1.0148  0.1225
  882MOL0     C21587   7.935  10.800   3.215 -0.7765  0.3587 -0.3594
  882MOL0     C21588   7.793  10.743   3.199 -0.7469  0.5653 -0.3351
  882MOL0     C21589   7.778  10.596   3.239 -0.8333  0.2556  0.2250
  882MOL0     C21590   7.636  10.552   3.290  0.2928 -0.6396  0.3305
  882MOL0     C21591   7.612  10.396   3.312  0.1098  0.4498 -0.3143
  882MOL0     C21592   7.604  10.331   3.171  0.3961 -0.6079 -0.7321
  882MOL0     C21593   7.556  10.182   3.185 -0.4476  1.1591  0.3998
  882MOL0     C21594   7.550  10.121   3.046 -1.3983 -0.4409  0.1001
  882MOL0     N21595   7.433  10.139   2.965  0.1838 -0.2987  0.0380
  882MOL0     C21596   7.401  10.251   2.888 -0.2557  0.5009  1.6616
  882MOL0     C21597   7.268  10.236   2.850  0.0229  0.2352 -0.3994
  882MOL0     C21598   7.202  10.313   2.743  0.2036  0.5288 -0.3214
  882MOL0     C21599   7.215  10.244   2.606 -0.5639 -0.0606 -0.1417
  882MOL0     C21600   7.187  10.339   2.492  0.6192  1.2187  0.6627
  882MOL0     C21601   7.170  10.275   2.349  0.2999  0.2254 -0.6920
  882MOL0     O21602   7.296  10.219   2.300  0.0996 -0.1283 -0.6183
  882MOL0     C21603   7.294  10.217   2.166  0.7647  0.1703 -0.0603
  882MOL0     C21604   7.184  10.163   2.090 -0.7111 -0.4131 -0.5098
  882MOL0     C21605   7.209  10.146   1.953  0.0125  0.2357  0.5122
  882MOL0     C21606   7.079  10.123   1.874  0.7634 -0.1346 -0.4578
  882MOL0     C21607   7.334  10.171   1.891  0.6506  0.6183 -0.1691
  882MOL0     C21608   7.357  10.143   1.751  0.3862 -0.4005 -0.6222
  882MOL0     O21609   7.265  10.178   1.657 -0.4574  0.0768 -0.2056
  882MOL0     C21610   7.281  10.163   1.522  0.1355 -0.2566  0.5135
  882MOL0     C21611   7.386  10.106   1.453  0.4021 -0.6837 -0.1312
  882MOL0     C21612   7.381  10.086   1.316 -0.0791  0.1168  0.2694
  882MOL0     C21613   7.266  10.112   1.247 -0.0146 -0.3435  0.6158
  882MOL0     O21614   7.256  10.067   1.119 -0.2100  0.3759 -0.1990
  882MOL0     C21615   7.217  10.163   1.019 -0.6387 -0.2872 -0.6944
  882MOL0     C21616   7.130  10.109   0.905  0.4069  0.7577 -0.1724
  882MOL0     C21617   7.207  10.078   0.778  0.5475  0.6427 -0.5081
  882MOL0     C21618   7.109  10.041   0.674 -0.9875 -0.0542 -0.9725
  882MOL0     C21619   7.170  10.022   0.535  0.1473  0.1996 -0.1738
  882MOL0     C21620   7.061   9.982   0.437 -0.6227  1.0506 -0.2227
  882MOL0     C21621   7.136   9.976   0.307 -0.6236 -0.6688 -0.4349
  882MOL0     C21622   7.050   9.912   0.194 -0.0198  0.0656  1.1999
  882MOL0    Cl21623   6.899   9.992   0.172  0.2905 -0.2070 -0.0352
  882MOL0     C21624   7.158  10.159   1.316  0.8259 -0.6092 -0.3275
  882MOL0     C21625   7.171  10.199   1.454 -0.2163 -0.3130 -0.6075
  882MOL0     O21626   7.457  10.079   1.727  0.4182 -0.0892 -0.1852
  882MOL0     C21627   7.445  10.210   1.972 -0.1850  0.3455 -0.5028
  882MOL0     C21628   7.425  10.238   2.107 -0.5174 -0.5115 -0.2238
  882MOL0     N21629   7.221  10.119   2.913  0.0604  0.0501  0.2770
  882MOL0     N21630   7.322  10.063   2.984 -0.1646  0.0040 -0.4752
  882MOL0     C21631   8.217  10.763   3.016  0.5876  0.0318 -0.2766
  882MOL0     C21632   8.359  10.793   2.999  0.1740  0.7975 -0.1061
  882MOL0     C21633   8.727  10.989   3.015 -0.9610 -0.0174  0.1080
  882MOL0     C21634   8.768  11.128   3.014  0.8338  0.5843 -0.3342
  882MOL0     C21635   8.892  11.171   2.985 -0.2481  0.0270  0.9245
  882MOL0     C21636   8.990  11.071   2.963 -0.0732 -0.4972  0.7859
  882MOL0     O21637   9.110  11.113   2.953 -0.5700 -0.0657 -0.0501
  882MOL0     C21638   9.181  11.152   3.070 -0.2154 -0.8781 -0.0018
  882MOL0     C21639   9.195  11.309   3.073  0.1200 -0.0095  0.2080
  882MOL0     C21640   9.301  11.354   3.181 -0.3116  0.1478  0.4273
  882MOL0     C21641   9.243  11.431   3.300 -0.4539 -0.3710 -0.2592
  882MOL0     C21642   9.203  11.569   3.268 -0.1513  0.3192  0.0022
  882MOL0     C21643   9.177  11.682   3.262 -0.4304  0.1513 -0.4266
  882MOL0     C21644   8.963  10.941   2.965  0.8142  0.0671 -0.5348
  882MOL0     C21645   8.830  10.891   2.991  0.1618  0.2720 -0.0316
  882MOL0     C21646   8.813  10.747   3.006  0.3449  0.5676 -0.5811
  882MOL0     H21647   8.424  10.837   3.331 -2.0702  0.3339  1.3905
  882MOL0     H21648   8.186  10.782   3.353  3.7937  0.2163  1.2467
  882MOL0     H21649   7.928  10.904   3.183 -0.4252 -0.0752 -1.9644
  882MOL0     H21650   7.973  10.801   3.318  1.2549 -2.1103 -0.9796
  882MOL0     H21651   7.718  10.793   3.262 -0.4115  0.2703  0.3053
  882MOL0     H21652   7.764  10.745   3.094 -2.5467 -3.1928 -0.0925
  882MOL0     H21653   7.816  10.530   3.161 -2.9527  0.3665 -0.9757
  882MOL0     H21654   7.839  10.594   3.329 -0.6138 -0.1229  0.0712
  882MOL0     H21655   7.628  10.613   3.380  1.6814 -1.7049  1.2217
  882MOL0     H21656   7.555  10.584   3.224 -0.8107  1.9446  2.7447
  882MOL0     H21657   7.523  10.366   3.369 -0.3648 -1.2109 -1.8248
  882MOL0     H21658   7.687  10.349   3.377 -1.0417  0.4666  1.0653
  882MOL0     H21659   7.531  10.387   3.111 -1.3767 -0.5259  1.3573
  882MOL0     H21660   7.699  10.334   3.118 -0.2211 -1.9571 -1.9452
  882MOL0     H21661   7.460  10.167   3.235 -0.3858 -3.1843 -0.4490
  882MOL0     H21662   7.626  10.119   3.239  1.3103  0.8913 -2.0046
  882MOL0     H21663   7.646  10.151   3.003  0.7129 -1.7765  3.4593
  882MOL0     H21664   7.564  10.013   3.058  2.1274 -0.1331 -0.3601
  882MOL0     H21665   7.481  10.319   2.859 -0.5635 -0.0468 -0.6572
  882MOL0     H21666   7.239  10.416   2.741  0.5714  0.3985 -0.3650
  882MOL0     H21667   7.097  10.321   2.773  0.7425  1.5048  1.3935
  882MOL0     H21668   7.322  10.223   2.595  0.1255  2.8455  0.2643
  882MOL0     H21669   7.160  10.150   2.603  0.4957 -0.6761 -0.8069
  882MOL0     H21670   7.093  10.392   2.507  0.4959  1.3246 -0.4208
  882MOL0     H21671   7.263  10.417   2.482 -0.2979  1.7887 -3.8277
  882MOL0     H21672   7.091  10.200   2.357  0.3522  0.0749 -1.5256
  882MOL0     H21673   7.146  10.352   2.276  1.1564  1.3978  0.2228
  882MOL0     H21674   7.085  10.139   2.129 -0.9037  1.6363  0.4035
  882MOL0     H21675   7.052  10.217   1.824 -1.3103  0.7326  2.0775
  882MOL0     H21676   6.997  10.087   1.937 -0.2375  0.0410 -1.6203
  882MOL0     H21677   7.093  10.042   1.802 -2.3766  0.3847 -1.8313
  882MOL0     H21678   7.477  10.085   1.508 -0.3289  3.5023  3.1320
  882MOL0     H21679   7.469  10.060   1.259  2.1537  3.2306  2.0129
  882MOL0     H21680   7.172  10.251   1.066  2.5881  1.8844 -1.3742
  882MOL0     H21681   7.308  10.202   0.974 -0.8121 -0.1309 -0.9108
  882MOL0     H21682   7.064  10.028   0.938 -1.4276  1.3214 -2.1641
  882MOL0     H21683   7.064  10.191   0.875 -1.8744 -1.1194 -0.5861
  882MOL0     H21684   7.280   9.997   0.789  3.1740  3.0828  1.4557
  882MOL0     H21685   7.261  10.166   0.741  1.0460  0.1586 -0.9553
  882MOL0     H21686   7.031  10.117   0.674 -2.3464 -1.3745  0.3915
  882MOL0     H21687   7.058   9.948   0.705 -0.5995  0.4031  1.1889
  882MOL0     H21688   7.218  10.116   0.505 -3.7718  2.1444 -0.9952
  882MOL0     H21689   7.241   9.939   0.534  2.6573  2.1842 -1.9813
  882MOL0     H21690   6.980  10.054   0.426  0.6017  2.2492 -1.8811
  882MOL0     H21691   7.027   9.880   0.460  4.1055 -1.4289 -2.5774
  882MOL0     H21692   7.233   9.925   0.315  0.2770  1.3060  3.0003
  882MOL0     H21693   7.145  10.081   0.280 -2.0253 -0.6265 -0.8181
  882MOL0     H21694   7.031   9.805   0.208  0.1687 -0.1659 -0.1920
  882MOL0     H21695   7.109   9.922   0.102 -3.3471 -3.4760 -1.6913
  882MOL0     H21696   7.066  10.170   1.261 -0.2487  0.6918  1.5797
  882MOL0     H21697   7.087  10.242   1.507  0.3743 -1.0161  0.9640
  882MOL0     H21698   7.546  10.210   1.932  0.3720 -1.5337  0.7468
  882MOL0     H21699   7.514  10.266   2.163  0.0421 -0.1658 -1.2406
  882MOL0     H21700   8.152  10.729   2.936 -1.8841  1.5998  0.9234
  882MOL0     H21701   8.398  10.783   2.898 -0.9183 -1.2082 -0.3847
  882MOL0     H21702   8.695  11.203   3.045 -1.1030 -0.4987 -1.9916
  882MOL0     H21703   8.924  11.274   2.974  0.1927 -0.3450 -2.1803
  882MOL0     H21704   9.132  11.110   3.159 -3.7122  0.3912 -1.1498
  882MOL0     H21705   9.282  11.110   3.072  0.2580  0.2076  2.3064
  882MOL0     H21706   9.100  11.360   3.085 -0.5538 -1.1328 -0.2165
  882MOL0     H21707   9.243  11.333   2.977  2.9045  1.0501  1.7537
  882MOL0     H21708   9.338  11.265   3.233  0.4195  0.3091  0.1918
  882MOL0     H21709   9.374  11.412   3.124  1.5040 -3.2402 -1.0082
  882MOL0     H21710   9.313  11.435   3.383 -0.1993 -1.5966 -0.3886
  882MOL0     H21711   9.151  11.386   3.341 -0.9655 -0.7746 -1.7882
  882MOL0     H21712   9.141  11.781   3.243  1.7008  0.9263 -0.6893
  882MOL0     H21713   9.049  10.877   2.950  3.4748  2.7923  1.8192
  882MOL0     H21714   8.905  10.698   2.970 -0.3704 -1.3723  0.0631
  882MOL0     H21715   8.786  10.710   3.106  0.6143 -1.6415 -1.2653
  882MOL0     H21716   8.731  10.730   2.936 -1.2501  3.4868  0.4503
  883MOL0     O21717   9.594   9.692   9.449 -0.2215  0.0284 -0.2208
  883MOL0     C21718   9.480   9.735   9.450  0.5684 -0.1283  0.0048
  883MOL0     O21719   9.374   9.673   9.517  0.4274 -0.3327  0.1979
  883MOL0     C21720   9.403   9.549   9.575 -0.2129 -0.2028 -0.7259
  883MOL0     C21721   9.435   9.555   9.707 -0.5409  0.1576  0.7614
  883MOL0     C21722   9.491   9.449   9.778 -0.4385  0.3452 -0.1922
  883MOL0     C21723   9.475   9.323   9.729  0.7866 -0.5198  0.4734
  883MOL0     O21724   9.523   9.223   9.796 -0.3597  0.1174 -0.5247
  883MOL0     C21725   9.479   9.093   9.783  1.2811  0.1035  0.7367
  883MOL0     C21726   9.454   9.035   9.925 -0.3676  0.3439  0.4973
  883MOL0     C21727   9.445   8.887   9.916  0.4915  0.3195  0.4420
  883MOL0     C21728   9.424   8.814  10.055  1.0608 -0.9026  0.0704
  883MOL0     C21729   9.357   8.676  10.051 -1.1979  0.2783 -0.1591
  883MOL0     C21730   9.347   8.617  10.187 -0.7006  0.0555  0.2074
  883MOL0     C21731   9.484   8.533  10.222 -0.5969 -0.0391 -0.6482
  883MOL0     C21732   9.485   8.475  10.372  0.9228  0.6988 -0.2032
  883MOL0     N21733   9.581   8.374  10.392 -0.2784 -0.0484 -0.4420
  883MOL0     C21734   9.597   8.309  10.510 -0.0338  0.4244  0.2625
  883MOL0     C21735   9.727   8.277  10.510  0.6312 -0.2386 -0.6139
  883MOL0     C21736   9.797   8.213  10.627 -0.0940  0.0063  0.9185
  883MOL0     C21737   9.831   8.302  10.740 -0.1141  0.1950 -0.5536
  883MOL0     C21738   9.926   8.226  10.841 -0.5219 -0.2130 -0.1221
  883MOL0     C21739   9.918   8.291  10.979  0.3447 -0.8590  0.3162
  883MOL0     O21740   9.792   8.272  11.039 -0.5685 -0.2546 -0.4292
  883MOL0     C21741   9.758   8.342  11.148 -0.7949  0.0647 -0.0667
  883MOL0     C21742   9.627   8.315  11.192 -0.1520 -0.1310 -0.8230
  883MOL0     C21743   9.562   8.392  11.282  0.2976 -0.5531  0.1950
  883MOL0     C21744   9.418   8.359  11.312 -0.3336  0.2633 -0.1284
  883MOL0     C21745   9.626   8.500  11.346  0.7749 -0.5070  0.1468
  883MOL0     C21746   9.568   8.586  11.453  0.4331 -0.0548  0.0151
  883MOL0     O21747   9.438   8.579  11.479 -0.2801 -0.3593  0.0642
  883MOL0     C21748   9.384   8.653  11.585 -1.1763  0.2263  0.2487
  883MOL0     C21749   9.291   8.580  11.659  1.0303 -0.3595  0.2733
  883MOL0     C21750   9.214   8.653  11.740 -0.5172 -0.3510  0.0041
  883MOL0     C21751   9.219   8.787  11.758 -0.2862  0.0341  0.4476
  883MOL0     O21752   9.147   8.857  11.849  0.3498 -0.2445  0.4974
  883MOL0     C21753   8.999   8.859  11.824 -0.7515 -0.3363  0.1935
  883MOL0     C21754   8.952   8.966  11.719  0.6295 -0.3770 -0.5584
  883MOL0     C21755   8.800   8.985  11.742 -0.5482 -0.4427 -0.4462
  883MOL0     C21756   8.719   8.985  11.611 -0.0475 -0.2301  0.1711
  883MOL0     C21757   8.745   9.107  11.519 -0.2669  0.2082 -0.3004
  883MOL0     C21758   8.698   9.068  11.378  0.2229 -1.2851  0.1200
  883MOL0     C21759   8.809   8.995  11.310  0.1560 -0.3926 -0.3685
  883MOL0     C21760   8.759   8.928  11.185  0.3401 -0.1559  0.2933
  883MOL0    Cl21761   8.899   8.923  11.066  0.1058 -0.2072 -0.2112
  883MOL0     C21762   9.312   8.856  11.688  1.5013 -0.2281 -0.1393
  883MOL0     C21763   9.390   8.793  11.591 -0.6238  0.0925  0.7063
  883MOL0     O21764   9.643   8.667  11.516 -0.5171  0.2849  0.2153
  883MOL0     C21765   9.758   8.513  11.313 -0.0177 -0.7433 -0.1479
  883MOL0     C21766   9.826   8.446  11.209  0.3526  0.7631  0.0520
  883MOL0     N21767   9.787   8.301  10.393 -0.1521 -1.2640  0.1168
  883MOL0     N21768   9.699   8.366  10.329 -0.1972  0.5101  0.2251
  883MOL0     C21769   9.425   9.306   9.597 -0.0543 -0.5613 -0.3279
  883MOL0     C21770   9.391   9.423   9.526 -0.2424 -0.2540  1.2886
  883MOL0     C21771   9.449   9.855   9.370 -0.1740  0.2403 -0.6596
  883MOL0     C21772   9.316   9.910   9.366 -0.4246  0.6959  0.3635
  883MOL0     C21773   9.286  10.016   9.286  0.0552  0.2676 -0.1829
  883MOL0     C21774   9.379  10.083   9.208 -0.3260  0.1017  0.2333
  883MOL0     O21775   9.347  10.198   9.133 -0.1793  0.4074 -0.6689
  883MOL0     C21776   9.230  10.279   9.184 -0.1033  0.1488  0.6230
  883MOL0     C21777   9.191  10.390   9.089  0.2918  0.1265 -0.2770
  883MOL0     C21778   9.060  10.451   9.133 -0.1957 -0.0858 -1.3113
  883MOL0     C21779   8.945  10.431   9.044 -0.3049  0.1119  0.6134
  883MOL0     C21780   8.949  10.503   8.918  0.5903 -0.5134 -0.8053
  883MOL0     C21781   8.948  10.568   8.820 -0.7764 -0.0037  0.1411
  883MOL0     C21782   9.508  10.028   9.213  1.1263  0.4445  0.5394
  883MOL0     C21783   9.548   9.926   9.293  0.6038  0.5244  0.3299
  883MOL0     C21784   9.689   9.884   9.292 -0.7767 -0.3361  0.3577
  883MOL0     H21785   9.458   9.655   9.743  1.3864  0.4164 -1.0093
  883MOL0     H21786   9.512   9.462   9.884  0.5981 -0.6881 -0.2495
  883MOL0     H21787   9.564   9.051   9.728  1.2655 -2.5534  2.5619
  883MOL0     H21788   9.393   9.071   9.718 -0.6924 -0.2792  3.3047
  883MOL0     H21789   9.534   9.073   9.989  2.6016  0.7483 -3.0567
  883MOL0     H21790   9.359   9.062   9.973 -1.1839 -0.6135 -0.5100
  883MOL0     H21791   9.349   8.876   9.866 -0.0174 -1.3031  1.6800
  883MOL0     H21792   9.525   8.847   9.854 -0.1236 -0.5339  0.1839
  883MOL0     H21793   9.522   8.819  10.103  2.0618  0.1567 -1.9303
  883MOL0     H21794   9.358   8.884  10.106 -1.2482 -1.5986 -1.7506
  883MOL0     H21795   9.419   8.620   9.982 -1.1579  0.1903 -0.0518
  883MOL0     H21796   9.259   8.699  10.009 -2.2894 -2.1127  0.8483
  883MOL0     H21797   9.327   8.686  10.270  0.0876 -1.8327  2.0488
  883MOL0     H21798   9.264   8.546  10.186  1.3533 -2.4949  0.9143
  883MOL0     H21799   9.574   8.595  10.215  0.2650 -1.1129  0.3438
  883MOL0     H21800   9.490   8.454  10.147  0.9488 -0.1168 -0.4903
  883MOL0     H21801   9.499   8.561  10.438 -4.9180 -0.2085  2.9289
  883MOL0     H21802   9.386   8.436  10.398  1.5888 -2.0121 -1.4043
  883MOL0     H21803   9.525   8.300  10.590 -2.2863 -2.1014 -1.8599
  883MOL0     H21804   9.891   8.169  10.592  0.1226  1.4816 -0.4772
  883MOL0     H21805   9.743   8.122  10.655 -2.6732  1.8126  2.1823
  883MOL0     H21806   9.875   8.392  10.697  0.3955  1.1067  1.7393
  883MOL0     H21807   9.741   8.340  10.788 -0.1536  3.2554 -2.7755
  883MOL0     H21808   9.915   8.118  10.848 -1.1620 -0.0448  3.2717
  883MOL0     H21809  10.027   8.240  10.801 -0.8983 -1.2660 -1.5063
  883MOL0     H21810   9.994   8.243  11.041  1.1590 -0.1752 -0.1103
  883MOL0     H21811   9.947   8.397  10.976  2.2593 -1.2887  1.5162
  883MOL0     H21812   9.589   8.229  11.137  0.8137 -1.6224  0.7475
  883MOL0     H21813   9.383   8.273  11.255 -0.9214  1.6199 -1.9001
  883MOL0     H21814   9.363   8.446  11.276  0.6330  1.7734  1.8272
  883MOL0     H21815   9.387   8.346  11.417 -4.3937 -2.9854 -1.4506
  883MOL0     H21816   9.295   8.471  11.651 -0.2472 -0.3853 -0.2180
  883MOL0     H21817   9.145   8.604  11.807 -0.5766  2.9682  2.6484
  883MOL0     H21818   8.964   8.760  11.793 -2.4835  0.5112 -0.7097
  883MOL0     H21819   8.953   8.885  11.920  0.5027 -0.9781  0.9956
  883MOL0     H21820   9.007   9.059  11.730 -2.2385  1.5108 -1.0470
  883MOL0     H21821   8.973   8.934  11.617  0.1351 -0.6508 -0.5821
  883MOL0     H21822   8.782   9.076  11.801  3.3482  0.7455 -0.8276
  883MOL0     H21823   8.759   8.896  11.791  1.9848 -1.8224 -0.6302
  883MOL0     H21824   8.614   8.987  11.639 -0.3499 -2.6846 -0.5609
  883MOL0     H21825   8.732   8.896  11.549 -0.0139  0.5717 -1.0096
  883MOL0     H21826   8.706   9.205  11.549  1.3271  0.5909  0.6624
  883MOL0     H21827   8.854   9.115  11.518 -0.3936  2.3011 -1.0149
  883MOL0     H21828   8.672   9.161  11.327 -1.1106  0.0474  2.9534
  883MOL0     H21829   8.608   9.007  11.390 -0.5822 -0.6402 -2.1762
  883MOL0     H21830   8.845   8.919  11.380  0.4787  2.4970  2.8386
  883MOL0     H21831   8.895   9.059  11.287 -0.4152  0.5845  0.1450
  883MOL0     H21832   8.687   8.993  11.134  0.0784  0.2079  1.1141
  883MOL0     H21833   8.719   8.828  11.201 -1.2725  0.3107 -0.5962
  883MOL0     H21834   9.325   8.963  11.705 -0.7654  0.0379  0.1948
  883MOL0     H21835   9.450   8.848  11.519 -1.0153  0.8538  0.9456
  883MOL0     H21836   9.814   8.594  11.358 -0.4412  0.5080 -1.7469
  883MOL0     H21837   9.926   8.479  11.181  0.3237  0.3692 -0.5285
  883MOL0     H21838   9.416   9.209   9.549 -1.4210 -2.0205  2.6226
  883MOL0     H21839   9.358   9.416   9.423  2.5051 -1.4711  0.3989
  883MOL0     H21840   9.233   9.862   9.417  0.2672 -2.9525 -1.5869
  883MOL0     H21841   9.182  10.050   9.283  0.0461  0.3177  0.5207
  883MOL0     H21842   9.136  10.223   9.185 -0.6625  1.0715  1.1979
  883MOL0     H21843   9.256  10.315   9.284  0.9992  1.6502 -0.1614
  883MOL0     H21844   9.183  10.343   8.991 -2.0264 -0.1931  0.0132
  883MOL0     H21845   9.261  10.475   9.090 -0.2151  0.5644 -0.7746
  883MOL0     H21846   9.039  10.422   9.236  0.0351  1.9016 -0.6711
  883MOL0     H21847   9.086  10.556   9.149  3.3363 -0.3362 -4.0437
  883MOL0     H21848   8.858  10.468   9.100 -0.6952 -0.0998  0.1622
  883MOL0     H21849   8.926  10.323   9.041  1.7134 -0.2748  0.8079
  883MOL0     H21850   8.958  10.636   8.738  2.9312 -1.8466 -1.1474
  883MOL0     H21851   9.580  10.069   9.144 -1.0082  0.0051 -2.1424
  883MOL0     H21852   9.710   9.783   9.256 -2.3460  0.0292 -1.8002
  883MOL0     H21853   9.745   9.952   9.228  3.5986 -1.2055  2.8655
  883MOL0     H21854   9.736   9.900   9.390  0.4656 -2.1212  0.1085
  884MOL0     O21855   5.705   4.448   9.999  0.4081 -0.7647  0.4079
  884MOL0     C21856   5.720   4.342   9.942 -1.6573  0.4677 -0.1021
  884MOL0     O21857   5.789   4.331   9.825  0.7891 -0.1713 -0.3677
  884MOL0     C21858   5.891   4.419   9.790  0.0066  0.4723 -0.7976
  884MOL0     C21859   6.017   4.395   9.849 -0.4971 -0.1821  0.2973
  884MOL0     C21860   6.125   4.473   9.805 -0.6778 -0.3749 -0.5217
  884MOL0     C21861   6.104   4.579   9.710  0.0307  0.4739 -0.0239
  884MOL0     O21862   6.214   4.660   9.690  0.2917 -0.0078  1.9951
  884MOL0     C21863   6.194   4.769   9.598  0.0761 -0.1025  0.1852
  884MOL0     C21864   6.322   4.846   9.614 -0.2895  0.3813 -0.3880
  884MOL0     C21865   6.348   4.982   9.564  0.9096 -0.3388  0.8672
  884MOL0     C21866   6.488   5.031   9.598 -0.4319  0.7500 -0.9920
  884MOL0     C21867   6.518   5.181   9.574  0.1955 -0.0535 -0.0116
  884MOL0     C21868   6.521   5.237   9.438  0.8884  0.7898 -0.1243
  884MOL0     C21869   6.389   5.271   9.373 -0.5385 -0.6621 -0.1198
  884MOL0     C21870   6.358   5.420   9.409  0.1039  0.0188  0.6091
  884MOL0     N21871   6.383   5.517   9.304 -1.1289  0.1231  0.0383
  884MOL0     C21872   6.346   5.648   9.321  0.0502  0.9228 -0.3339
  884MOL0     C21873   6.399   5.701   9.214 -0.1179 -0.3825  0.2757
  884MOL0     C21874   6.404   5.840   9.173  0.5336  0.1427  0.4581
  884MOL0     C21875   6.262   5.907   9.180  0.5807 -0.0221 -0.0516
  884MOL0     C21876   6.162   5.833   9.093 -0.9981 -0.4320 -0.1208
  884MOL0     C21877   6.039   5.913   9.090  0.5402 -0.1011  0.2633
  884MOL0     O21878   5.982   5.917   9.218  0.0836  0.0055  0.2110
  884MOL0     C21879   5.873   5.997   9.233  0.8804  0.2383 -0.0355
  884MOL0     C21880   5.818   6.083   9.145  0.7713 -0.4235  0.5823
  884MOL0     C21881   5.688   6.142   9.153  0.2060  0.0341 -0.2123
  884MOL0     C21882   5.628   6.246   9.053 -0.2413 -0.7050  0.6484
  884MOL0     C21883   5.597   6.091   9.256 -0.0359  0.3574 -0.0143
  884MOL0     C21884   5.446   6.111   9.250  0.2883 -0.0021  0.2258
  884MOL0     O21885   5.386   6.134   9.369  0.4748 -0.2282 -0.0109
  884MOL0     C21886   5.251   6.152   9.383  1.0079 -0.0494 -0.1337
  884MOL0     C21887   5.154   6.203   9.290  0.0047  0.2535  0.1358
  884MOL0     C21888   5.019   6.203   9.329  0.3874 -0.3014 -0.0735
  884MOL0     C21889   4.974   6.182   9.456  0.0605 -0.3596  0.0471
  884MOL0     O21890   4.837   6.198   9.493 -0.0890 -0.3314  0.6365
  884MOL0     C21891   4.736   6.249   9.397 -0.5714 -0.2225  0.2695
  884MOL0     C21892   4.599   6.258   9.467 -0.8310  1.0929  0.0808
  884MOL0     C21893   4.520   6.386   9.412 -0.0854 -0.8240  0.1038
  884MOL0     C21894   4.389   6.409   9.490  0.7398  0.3959  0.5550
  884MOL0     C21895   4.329   6.532   9.437 -0.3231  0.4332  0.0693
  884MOL0     C21896   4.301   6.531   9.286  0.1634 -0.2547  0.0316
  884MOL0     C21897   4.194   6.634   9.236 -0.4977  0.1194  0.0384
  884MOL0     C21898   4.200   6.653   9.088 -0.2594  0.0560  0.3987
  884MOL0    Cl21899   4.103   6.525   9.005  0.4696  0.3087  0.2693
  884MOL0     C21900   5.072   6.133   9.548  0.5417  1.4926 -0.0060
  884MOL0     C21901   5.206   6.112   9.512  0.4024 -0.2246 -0.8039
  884MOL0     O21902   5.388   6.115   9.142 -0.5633 -0.4843  0.4477
  884MOL0     C21903   5.658   6.002   9.344 -0.2422 -0.4922 -0.7121
  884MOL0     C21904   5.788   5.958   9.334 -0.2519 -1.0921  0.2342
  884MOL0     N21905   6.483   5.618   9.145 -0.7704  0.4973 -0.5548
  884MOL0     N21906   6.473   5.502   9.199 -0.3270  0.1975 -0.6760
  884MOL0     C21907   5.975   4.593   9.653 -0.1047 -0.3466 -0.2333
  884MOL0     C21908   5.869   4.514   9.687 -0.9740  0.2426  0.1431
  884MOL0     C21909   5.679   4.216  10.012 -0.1370 -0.5851  0.2082
  884MOL0     C21910   5.706   4.091   9.944  0.3824 -0.2042 -0.1753
  884MOL0     C21911   5.656   3.971   9.998  0.6053  0.0103  1.0228
  884MOL0     C21912   5.582   3.972  10.117 -0.2743 -0.5966  0.7377
  884MOL0     O21913   5.529   3.864  10.177 -0.3673 -0.3261 -0.0051
  884MOL0     C21914   5.512   3.747  10.097 -0.1496 -0.7110 -0.8288
  884MOL0     C21915   5.467   3.636  10.194  0.0133  0.0217  0.3404
  884MOL0     C21916   5.593   3.588  10.258 -0.4419 -0.0361 -0.6395
  884MOL0     C21917   5.563   3.490  10.370 -0.0120  0.0768 -0.6669
  884MOL0     C21918   5.522   3.362  10.312  0.4490 -0.1762 -0.2946
  884MOL0     C21919   5.506   3.269  10.243 -0.2572  0.5479  0.0851
  884MOL0     C21920   5.553   4.093  10.181  0.8823  0.3057  1.1962
  884MOL0     C21921   5.599   4.213  10.137 -0.1152 -0.2558  0.3526
  884MOL0     C21922   5.556   4.333  10.216 -0.4051 -0.1347 -0.4320
  884MOL0     H21923   6.027   4.328   9.934  0.6540 -1.2104 -0.6114
  884MOL0     H21924   6.219   4.449   9.854 -1.0094 -1.1041 -0.2293
  884MOL0     H21925   6.114   4.842   9.611 -0.6915 -0.9737  0.4478
  884MOL0     H21926   6.200   4.737   9.493 -0.7822  2.8584 -0.8650
  884MOL0     H21927   6.346   4.836   9.721 -1.9692 -0.8341 -0.0736
  884MOL0     H21928   6.398   4.780   9.570  0.2894  1.3252 -0.8202
  884MOL0     H21929   6.352   4.986   9.454  1.9543  0.7885  0.9200
  884MOL0     H21930   6.274   5.050   9.606 -1.1201 -1.9884  0.1248
  884MOL0     H21931   6.500   5.031   9.707 -0.3871  2.0035 -0.9842
  884MOL0     H21932   6.571   4.978   9.551  0.1074  0.2933  0.4158
  884MOL0     H21933   6.619   5.193   9.615  1.4008  0.1868 -2.8240
  884MOL0     H21934   6.459   5.244   9.641 -0.5349  1.0970 -1.6864
  884MOL0     H21935   6.596   5.315   9.432  1.8667 -0.1951 -1.1345
  884MOL0     H21936   6.560   5.155   9.377  0.0907 -0.1354  0.5567
  884MOL0     H21937   6.309   5.205   9.405 -1.4645 -0.8196 -2.5465
  884MOL0     H21938   6.386   5.255   9.265 -1.2428 -1.4811  0.0098
  884MOL0     H21939   6.256   5.433   9.445  0.1172 -0.1662  0.7155
  884MOL0     H21940   6.425   5.443   9.493 -0.2962 -1.9708  1.5351
  884MOL0     H21941   6.276   5.693   9.391 -2.2255  0.7353 -2.3287
  884MOL0     H21942   6.453   5.845   9.076 -1.2905 -2.8988 -0.7442
  884MOL0     H21943   6.468   5.896   9.242 -0.3654  1.3638  0.3353
  884MOL0     H21944   6.228   5.914   9.284 -1.2811 -3.7296 -0.2436
  884MOL0     H21945   6.278   6.011   9.152  1.0635 -0.2233 -0.5363
  884MOL0     H21946   6.205   5.817   8.993 -1.2649 -2.2921  0.0265
  884MOL0     H21947   6.129   5.737   9.134 -1.6278  0.7500  2.2654
  884MOL0     H21948   6.065   6.016   9.062  1.5109 -0.1778  0.8182
  884MOL0     H21949   5.967   5.885   9.013  2.1670  0.3807 -1.5401
  884MOL0     H21950   5.888   6.116   9.069  2.6721 -1.5195  1.8006
  884MOL0     H21951   5.703   6.291   8.987  0.3236 -1.1958  0.9397
  884MOL0     H21952   5.595   6.335   9.108  0.8284  0.8859 -1.1579
  884MOL0     H21953   5.548   6.209   8.988  0.0401 -1.4541  0.7178
  884MOL0     H21954   5.172   6.244   9.192  0.0356  0.8010  0.3669
  884MOL0     H21955   4.938   6.212   9.258 -0.8094 -2.0306  0.9818
  884MOL0     H21956   4.778   6.347   9.373  2.6272 -1.0406  1.8971
  884MOL0     H21957   4.718   6.197   9.302  1.3653  1.3594 -1.0284
  884MOL0     H21958   4.554   6.160   9.451 -0.2338  0.3805  2.4083
  884MOL0     H21959   4.620   6.277   9.573 -0.3756 -2.5470  0.7633
  884MOL0     H21960   4.498   6.370   9.307 -3.5430 -1.4531  0.8028
  884MOL0     H21961   4.584   6.474   9.421 -0.6113 -0.0898 -2.5397
  884MOL0     H21962   4.404   6.409   9.598 -1.8417  0.0498  0.9875
  884MOL0     H21963   4.316   6.329   9.474  0.5569  1.1005 -3.0469
  884MOL0     H21964   4.235   6.543   9.492  0.7430  0.8446  1.8877
  884MOL0     H21965   4.388   6.621   9.459  1.4379 -0.2463 -1.5695
  884MOL0     H21966   4.271   6.429   9.262  0.0653  0.2085 -1.9459
  884MOL0     H21967   4.391   6.543   9.225 -0.6228  4.2743 -0.6356
  884MOL0     H21968   4.216   6.732   9.280 -0.7472  0.7335 -1.1470
  884MOL0     H21969   4.092   6.618   9.274 -1.3823  2.1833 -1.2545
  884MOL0     H21970   4.302   6.640   9.051 -1.6910 -3.6749 -2.8570
  884MOL0     H21971   4.163   6.751   9.056  0.0603  0.4931  1.2995
  884MOL0     H21972   5.042   6.105   9.649 -0.5757 -3.0691 -1.3869
  884MOL0     H21973   5.274   6.094   9.595 -1.4831  1.8722  1.3722
  884MOL0     H21974   5.599   5.965   9.428 -0.8794 -1.5035 -1.5818
  884MOL0     H21975   5.825   5.887   9.408 -0.5584  0.0321  1.5177
  884MOL0     H21976   5.946   4.671   9.583  1.5807  2.5245  1.9871
  884MOL0     H21977   5.777   4.533   9.634 -2.7035 -3.2310  1.5719
  884MOL0     H21978   5.753   4.094   9.847 -1.1260  2.4458 -0.9464
  884MOL0     H21979   5.698   3.880   9.955 -0.0398  0.8385 -1.5718
  884MOL0     H21980   5.434   3.771  10.024 -1.2999 -1.0793  0.2413
  884MOL0     H21981   5.601   3.728  10.037  0.3119  0.9300 -0.7082
  884MOL0     H21982   5.423   3.558  10.130 -0.3418  2.2494 -2.3341
  884MOL0     H21983   5.395   3.676  10.265 -0.1082 -0.7987  0.6952
  884MOL0     H21984   5.650   3.533  10.182 -0.0881 -0.5777  0.0070
  884MOL0     H21985   5.658   3.669  10.293  3.7365 -1.4202 -4.3176
  884MOL0     H21986   5.494   3.525  10.446  1.4129 -0.6639  1.0468
  884MOL0     H21987   5.654   3.469  10.427 -0.5844 -0.1802  0.1631
  884MOL0     H21988   5.489   3.175  10.194 -2.1867  0.4133  0.9253
  884MOL0     H21989   5.494   4.087  10.273 -1.9754 -0.1993 -0.5498
  884MOL0     H21990   5.526   4.310  10.318 -4.0385  0.6592 -1.1698
  884MOL0     H21991   5.633   4.408  10.231 -1.0656  0.6733 -1.0102
  884MOL0     H21992   5.471   4.373  10.159 -0.2563  2.1281  0.8323
  885MOL0     O21993  10.673   6.253   3.390 -0.4284  0.8868 -0.0333
  885MOL0     C21994  10.559   6.216   3.351 -0.2944 -0.1758 -0.0505
  885MOL0     O21995  10.471   6.138   3.420 -0.0926 -0.4812  0.2419
  885MOL0     C21996  10.486   6.109   3.554 -0.0414 -0.3858 -0.4433
  885MOL0     C21997  10.529   6.209   3.651 -1.3880 -0.8339 -0.4893
  885MOL0     C21998  10.530   6.186   3.785  0.2121  0.4133 -0.7299
  885MOL0     C21999  10.507   6.059   3.834 -0.3867  0.4469 -0.6015
  885MOL0     O22000  10.503   6.034   3.970  0.0796  0.0281 -0.2795
  885MOL0     C22001  10.548   5.906   4.009  0.5889  0.1694 -0.8188
  885MOL0     C22002  10.563   5.905   4.155  0.8119 -0.3558 -0.2393
  885MOL0     C22003  10.699   5.969   4.198  0.2402 -0.8083  0.1315
  885MOL0     C22004  10.713   5.950   4.345 -0.6422  0.2277 -1.1085
  885MOL0     C22005  10.836   6.020   4.402 -0.4138  0.6496 -0.2669
  885MOL0     C22006  10.880   5.953   4.533 -1.2318  0.7699  0.8407
  885MOL0     C22007  11.030   5.975   4.560  0.8453  0.1646  1.1632
  885MOL0     C22008  11.127   5.904   4.462  0.1378  0.0592 -0.0430
  885MOL0     N22009  11.272   5.948   4.487  0.6101 -0.2813 -0.2371
  885MOL0     C22010  11.362   5.885   4.570 -0.7443 -0.7050 -0.5345
  885MOL0     C22011  11.475   5.963   4.560  0.3722 -0.0894  0.2619
  885MOL0     C22012  11.608   5.942   4.620 -0.3367  0.1944  1.1428
  885MOL0     C22013  11.627   6.035   4.745 -0.0232  0.1009  0.7846
  885MOL0     C22014  11.661   6.179   4.696  0.5844 -0.3920  0.4273
  885MOL0     C22015  11.749   6.251   4.800  0.6794 -1.0785 -0.0062
  885MOL0     O22016  11.870   6.176   4.820 -0.1240 -0.0151 -0.6380
  885MOL0     C22017  11.962   6.214   4.913 -0.4233  0.1428 -0.7520
  885MOL0     C22018  11.954   6.334   4.990  0.1523 -0.5208 -0.1595
  885MOL0     C22019  12.042   6.355   5.095  0.7983  0.8206 -0.3505
  885MOL0     C22020  12.017   6.478   5.162 -0.9276 -0.3821  0.4649
  885MOL0     C22021  12.158   6.271   5.109 -0.2124  0.0316 -1.2135
  885MOL0     C22022  12.235   6.272   5.231 -0.0661  0.2071 -0.1931
  885MOL0     O22023  12.286   6.158   5.284  0.2303  0.0380  0.4444
  885MOL0     C22024  12.330   6.161   5.413 -0.0924  0.1980 -0.2284
  885MOL0     C22025  12.455   6.116   5.442  0.3263 -0.6714  0.4047
  885MOL0     C22026  12.493   6.109   5.577  0.4218 -1.2955  0.2567
  885MOL0     C22027  12.392   6.125   5.681 -0.3988  0.2142 -0.3854
  885MOL0     O22028  12.431   6.101   5.814  0.0893  0.2759  0.6096
  885MOL0     C22029  12.336   6.108   5.913 -0.0132 -0.2609  0.3688
  885MOL0     C22030  12.251   5.976   5.935 -0.5028 -0.5128  0.4497
  885MOL0     C22031  12.351   5.865   5.959  0.2828 -0.4033 -0.0522
  885MOL0     C22032  12.299   5.741   6.038 -0.0114  0.1056 -0.7988
  885MOL0     C22033  12.401   5.629   6.016 -0.3169  0.3297 -0.9818
  885MOL0     C22034  12.361   5.533   5.904  0.0281 -1.1108  0.7459
  885MOL0     C22035  12.459   5.424   5.904 -1.2988 -0.0913  0.7620
  885MOL0     C22036  12.425   5.330   5.792 -0.2413 -0.1924  0.7913
  885MOL0    Cl22037  12.538   5.183   5.792  0.3583  0.2276 -0.5353
  885MOL0     C22038  12.259   6.158   5.645 -0.5839 -1.2011  0.1756
  885MOL0     C22039  12.228   6.180   5.513 -0.7797 -0.6409 -0.9279
  885MOL0     O22040  12.255   6.383   5.279 -0.7087 -0.3252  0.0191
  885MOL0     C22041  12.165   6.158   5.030  0.6034  0.4991 -0.3683
  885MOL0     C22042  12.073   6.127   4.931 -0.5800 -0.0461 -0.7233
  885MOL0     N22043  11.450   6.074   4.473  0.0172 -0.7612 -0.0871
  885MOL0     N22044  11.326   6.059   4.435 -0.2201 -0.3644  0.2675
  885MOL0     C22045  10.459   5.957   3.748  0.6072 -1.4287 -0.6988
  885MOL0     C22046  10.443   5.992   3.612  0.2644  0.5257 -0.2454
  885MOL0     C22047  10.518   6.281   3.223  0.7176  0.2826 -0.5314
  885MOL0     C22048  10.388   6.352   3.220  0.0702 -0.5600  0.5355
  885MOL0     C22049  10.354   6.418   3.094 -0.1703  0.5490  0.0416
  885MOL0     C22050  10.443   6.401   2.986 -0.2639 -0.1670  0.0755
  885MOL0     O22051  10.427   6.475   2.871 -0.0012 -0.4048  0.0840
  885MOL0     C22052  10.310   6.548   2.841  1.0122 -0.1792 -0.2737
  885MOL0     C22053  10.307   6.607   2.695  0.0883 -0.7577 -0.2549
  885MOL0     C22054  10.423   6.699   2.647 -0.2882  0.3039 -0.3186
  885MOL0     C22055  10.550   6.617   2.598 -0.2042  0.1271 -0.6529
  885MOL0     C22056  10.554   6.579   2.451 -0.6213 -0.3564 -0.3024
  885MOL0     C22057  10.551   6.567   2.330 -0.2744 -0.7648  0.3431
  885MOL0     C22058  10.557   6.336   2.992 -0.8001 -0.6190 -0.2637
  885MOL0     C22059  10.595   6.267   3.109 -0.0993 -0.2587  0.7199
  885MOL0     C22060  10.726   6.186   3.106 -0.7219  0.8901 -0.3506
  885MOL0     H22061  10.548   6.310   3.617 -0.5026 -1.9229 -3.6065
  885MOL0     H22062  10.557   6.261   3.858  3.0158 -2.7067  1.8000
  885MOL0     H22063  10.641   5.875   3.960  1.5053 -0.2968  1.0920
  885MOL0     H22064  10.464   5.840   3.987 -0.3677  1.2876 -0.6147
  885MOL0     H22065  10.481   5.960   4.200  0.1649 -1.5692  0.1218
  885MOL0     H22066  10.551   5.812   4.212 -0.7196 -0.7348 -1.1243
  885MOL0     H22067  10.788   5.927   4.151  0.1013  1.1978 -2.0924
  885MOL0     H22068  10.695   6.077   4.181 -3.8803 -0.9138 -0.7547
  885MOL0     H22069  10.627   5.976   4.406 -1.3582  0.3699 -2.1403
  885MOL0     H22070  10.730   5.842   4.343  1.1793  0.4319  0.4816
  885MOL0     H22071  10.812   6.125   4.420 -0.0076  0.3970  2.0679
  885MOL0     H22072  10.923   6.019   4.336  0.7053 -3.2469  0.9835
  885MOL0     H22073  10.830   5.995   4.621 -2.4712  3.2752 -0.9503
  885MOL0     H22074  10.864   5.846   4.521  0.3234  0.6179 -0.1276
  885MOL0     H22075  11.051   5.933   4.658 -2.6765 -2.3912  1.0084
  885MOL0     H22076  11.058   6.081   4.568 -0.4489  0.6049  0.3679
  885MOL0     H22077  11.125   5.797   4.483 -0.1090  0.5561  2.8978
  885MOL0     H22078  11.118   5.924   4.355  2.3742 -0.4775 -0.3841
  885MOL0     H22079  11.353   5.797   4.633 -1.6511 -1.2724 -1.4259
  885MOL0     H22080  11.692   5.968   4.555  0.9021 -0.2605  2.4940
  885MOL0     H22081  11.616   5.836   4.648  1.3822  0.6303  2.4698
  885MOL0     H22082  11.547   6.039   4.819 -2.5994  1.4959 -1.8830
  885MOL0     H22083  11.719   5.991   4.786  2.1433  2.2658 -1.4586
  885MOL0     H22084  11.722   6.179   4.606 -0.8611  1.7985 -0.6669
  885MOL0     H22085  11.563   6.227   4.684  0.9696 -0.0054 -1.4540
  885MOL0     H22086  11.786   6.349   4.771 -0.3668  0.9762  4.6348
  885MOL0     H22087  11.697   6.270   4.894  1.1096  1.0435 -0.1467
  885MOL0     H22088  11.863   6.391   4.974 -2.5242 -4.3621  0.0584
  885MOL0     H22089  12.004   6.482   5.271 -0.8203  1.9089  0.4594
  885MOL0     H22090  11.927   6.524   5.121 -2.8284 -2.5677  1.9461
  885MOL0     H22091  12.097   6.548   5.134 -1.4852 -0.3003 -0.9823
  885MOL0     H22092  12.539   6.105   5.375  1.1257 -0.2380  1.3070
  885MOL0     H22093  12.599   6.085   5.580  1.7447  3.5765  0.2490
  885MOL0     H22094  12.403   6.119   5.999  1.4230  1.1529 -0.8641
  885MOL0     H22095  12.285   6.204   5.908  1.7664  0.6685 -1.9418
  885MOL0     H22096  12.193   5.983   6.027  3.2461 -1.9124  3.1631
  885MOL0     H22097  12.194   5.960   5.843  1.2393 -0.3302 -0.7154
  885MOL0     H22098  12.446   5.900   6.000 -0.6261  0.6440  1.2752
  885MOL0     H22099  12.391   5.834   5.862 -1.7676  2.6309 -2.0668
  885MOL0     H22100  12.202   5.705   6.002 -0.5360  1.1488 -0.4443
  885MOL0     H22101  12.294   5.775   6.142  2.7782 -0.0833 -0.5108
  885MOL0     H22102  12.503   5.663   5.999 -1.0232  1.3450 -3.7080
  885MOL0     H22103  12.409   5.568   6.107 -0.2842 -0.6668 -1.6391
  885MOL0     H22104  12.377   5.587   5.810 -0.9352 -0.7916  0.7468
  885MOL0     H22105  12.256   5.503   5.913 -1.2901  1.8720 -2.4022
  885MOL0     H22106  12.448   5.357   5.990 -2.6702 -1.4924 -0.4656
  885MOL0     H22107  12.558   5.471   5.903 -2.7706  3.5868  3.4191
  885MOL0     H22108  12.430   5.377   5.694  1.6046 -1.1089  0.4030
  885MOL0     H22109  12.320   5.301   5.806 -0.4807  0.3610  0.2049
  885MOL0     H22110  12.194   6.163   5.732  1.7508 -0.4746  1.9648
  885MOL0     H22111  12.126   6.187   5.477  0.4752  2.4105 -4.5175
  885MOL0     H22112  12.243   6.086   5.054  0.0332 -0.1196 -0.3429
  885MOL0     H22113  12.085   6.033   4.880 -2.3182 -1.8295  1.9091
  885MOL0     H22114  10.421   5.861   3.781  0.5764 -1.9977 -2.3383
  885MOL0     H22115  10.395   5.911   3.559  2.8065 -0.9467 -0.4904
  885MOL0     H22116  10.341   6.358   3.317 -2.6045 -0.2433 -0.6955
  885MOL0     H22117  10.260   6.474   3.098  0.3641  1.4936 -0.2977
  885MOL0     H22118  10.222   6.484   2.853  0.2485  0.6241 -1.4276
  885MOL0     H22119  10.291   6.621   2.921 -1.2483 -3.2564  2.2967
  885MOL0     H22120  10.212   6.656   2.675  0.3626 -0.8065 -1.8874
  885MOL0     H22121  10.308   6.520   2.628 -0.6531 -0.3701 -0.7815
  885MOL0     H22122  10.391   6.751   2.556  3.8156  2.0876 -0.9619
  885MOL0     H22123  10.457   6.770   2.723  0.5757  0.2968 -0.6864
  885MOL0     H22124  10.570   6.538   2.671 -0.2268  2.7675  2.4550
  885MOL0     H22125  10.635   6.684   2.616  0.4415 -1.0968  1.0687
  885MOL0     H22126  10.528   6.554   2.226  0.3669  1.8907 -0.2150
  885MOL0     H22127  10.619   6.345   2.904 -0.2337  0.5033  0.2203
  885MOL0     H22128  10.711   6.113   3.025 -0.5721  0.3239  0.1300
  885MOL0     H22129  10.810   6.252   3.080 -0.6532 -0.2749 -3.6184
  885MOL0     H22130  10.742   6.131   3.199 -2.6203 -1.0855 -1.1113
  886MOL0     O22131   4.369   4.154   5.142  0.2217  0.6870  0.7031
  886MOL0     C22132   4.451   4.063   5.133  0.8324  0.2153  0.1740
  886MOL0     O22133   4.517   4.006   5.236  0.4389 -0.0205 -0.5047
  886MOL0     C22134   4.503   4.039   5.367 -0.8425  0.6255 -0.3163
  886MOL0     C22135   4.384   4.093   5.423  0.5892 -0.3993 -0.3354
  886MOL0     C22136   4.378   4.121   5.565 -0.6527 -0.1353 -0.3643
  886MOL0     C22137   4.489   4.092   5.652 -0.1640  0.5463 -0.2794
  886MOL0     O22138   4.494   4.120   5.785  0.4549 -0.1404 -0.5388
  886MOL0     C22139   4.372   4.130   5.860 -0.1509 -0.2020 -0.3750
  886MOL0     C22140   4.402   4.142   6.006 -0.2408  0.0027 -0.0933
  886MOL0     C22141   4.506   4.245   6.043  0.2064 -0.2339 -0.1663
  886MOL0     C22142   4.497   4.283   6.190  0.5065 -0.6249 -0.2061
  886MOL0     C22143   4.620   4.357   6.242 -0.5114 -0.0131 -1.0140
  886MOL0     C22144   4.655   4.486   6.166  0.6991 -0.5375 -0.7627
  886MOL0     C22145   4.802   4.530   6.203  0.1690  0.1967  1.3169
  886MOL0     C22146   4.798   4.606   6.337  0.7778  0.0813 -1.0288
  886MOL0     N22147   4.934   4.635   6.385 -0.2841  1.5292 -0.1419
  886MOL0     C22148   5.002   4.750   6.375 -0.3190  0.2994 -0.4309
  886MOL0     C22149   5.127   4.716   6.420  0.4315  0.1974 -0.0496
  886MOL0     C22150   5.261   4.789   6.427  0.7680 -0.5309  0.5216
  886MOL0     C22151   5.347   4.726   6.312  0.0881  0.5809  0.3697
  886MOL0     C22152   5.483   4.794   6.294  1.0627  0.4155  0.2104
  886MOL0     C22153   5.467   4.943   6.268 -0.2906 -0.3645 -0.4730
  886MOL0     O22154   5.602   4.980   6.243 -0.0238 -0.0188 -0.1685
  886MOL0     C22155   5.624   5.119   6.233 -0.2550  1.0025 -1.1781
  886MOL0     C22156   5.757   5.161   6.231  0.8828  1.3423  1.3343
  886MOL0     C22157   5.790   5.297   6.220 -0.6999  0.6552  0.2630
  886MOL0     C22158   5.942   5.327   6.227  0.3133  0.5553 -0.3508
  886MOL0     C22159   5.690   5.400   6.189  0.1666  0.0669  0.1316
  886MOL0     C22160   5.706   5.547   6.187  0.4590 -0.5259  0.6604
  886MOL0     O22161   5.586   5.615   6.214 -0.7170  0.0332 -0.6335
  886MOL0     C22162   5.613   5.722   6.296  0.5142  0.1998  0.7886
  886MOL0     C22163   5.681   5.831   6.256 -0.0403 -0.6563 -0.8251
  886MOL0     C22164   5.703   5.935   6.346  0.1448  0.3678  0.3980
  886MOL0     C22165   5.649   5.929   6.471  0.1877 -0.0018 -1.7540
  886MOL0     O22166   5.688   6.035   6.555  0.3637 -0.4475  0.1653
  886MOL0     C22167   5.593   6.063   6.651 -0.2331 -0.4845 -0.4049
  886MOL0     C22168   5.661   6.146   6.762  0.6336  0.7132  0.2798
  886MOL0     C22169   5.771   6.070   6.823 -1.3678 -0.2790  0.6251
  886MOL0     C22170   5.906   6.116   6.772 -1.0721 -1.1383  0.2660
  886MOL0     C22171   6.014   6.026   6.812  0.0767 -0.0900 -0.0402
  886MOL0     C22172   6.144   6.075   6.727  0.8283  0.3506  0.5487
  886MOL0     C22173   6.276   6.047   6.808 -0.3394  0.1131 -0.7960
  886MOL0     C22174   6.312   6.166   6.888  1.2934 -0.2054  0.1958
  886MOL0    Cl22175   6.337   6.302   6.777 -0.1946 -0.1597  0.0711
  886MOL0     C22176   5.588   5.811   6.519 -0.6260  0.1581  0.6888
  886MOL0     C22177   5.558   5.707   6.429 -0.0479  0.4504  0.2731
  886MOL0     O22178   5.821   5.590   6.176  0.5734  0.3470 -0.1227
  886MOL0     C22179   5.555   5.346   6.179 -1.0398 -0.3377  0.2546
  886MOL0     C22180   5.521   5.217   6.211  0.6999  0.6327 -0.4314
  886MOL0     N22181   5.126   4.578   6.457 -0.0081 -0.4471  0.2917
  886MOL0     N22182   5.015   4.533   6.429  1.1131  0.9558  0.1786
  886MOL0     C22183   4.608   4.045   5.584  1.0720  0.3359 -0.7120
  886MOL0     C22184   4.616   4.011   5.453  0.5114 -0.6899 -0.3578
  886MOL0     C22185   4.494   4.014   4.998  0.1789 -0.7064  0.1117
  886MOL0     C22186   4.613   3.950   4.985 -0.1817  0.2955  0.1170
  886MOL0     C22187   4.664   3.905   4.862 -0.2035  0.4898  0.4195
  886MOL0     C22188   4.598   3.934   4.739  0.2805  0.4434 -0.7481
  886MOL0     O22189   4.661   3.891   4.622 -0.6027  0.2416 -0.2764
  886MOL0     C22190   4.604   3.910   4.487 -0.2925  0.9269 -0.6728
  886MOL0     C22191   4.711   3.919   4.385  0.7912  0.6691  0.6886
  886MOL0     C22192   4.819   4.021   4.417 -0.2040  0.1254  0.6729
  886MOL0     C22193   4.929   4.013   4.309  0.2505  0.3262 -0.0666
  886MOL0     C22194   5.001   3.884   4.311  0.2061  0.4975  0.2347
  886MOL0     C22195   5.071   3.787   4.318  0.1903  0.4078 -0.0213
  886MOL0     C22196   4.483   4.005   4.754 -0.1431 -0.1162  1.1950
  886MOL0     C22197   4.421   4.039   4.872 -0.3929 -0.0967 -0.2645
  886MOL0     C22198   4.291   4.110   4.864 -0.3807 -0.3779  0.4315
  886MOL0     H22199   4.294   4.105   5.364  1.9597 -1.3969 -2.7561
  886MOL0     H22200   4.286   4.164   5.603 -0.1248 -0.0629  0.8896
  886MOL0     H22201   4.310   4.045   5.829 -2.7391 -0.6346  4.9340
  886MOL0     H22202   4.328   4.226   5.833 -1.8670 -0.4277  1.4101
  886MOL0     H22203   4.305   4.163   6.053 -1.0167 -0.6514 -1.3667
  886MOL0     H22204   4.449   4.049   6.040 -2.4781 -1.7171 -1.4505
  886MOL0     H22205   4.597   4.189   6.019  0.3889  0.6438 -1.6254
  886MOL0     H22206   4.492   4.340   5.992 -3.7408 -0.5093  0.1219
  886MOL0     H22207   4.401   4.332   6.209 -0.8787 -3.2318 -0.0002
  886MOL0     H22208   4.494   4.193   6.253 -1.5726 -1.1539 -0.9842
  886MOL0     H22209   4.704   4.288   6.232  0.6747  0.8427  2.0094
  886MOL0     H22210   4.620   4.379   6.349  2.4393  3.2990 -1.5406
  886MOL0     H22211   4.661   4.459   6.060  0.7192 -0.6341 -0.7368
  886MOL0     H22212   4.574   4.553   6.196 -1.6256 -1.6033 -4.1072
  886MOL0     H22213   4.832   4.598   6.123 -3.8323  1.9583  1.1148
  886MOL0     H22214   4.869   4.444   6.194  0.0533  0.3371 -2.7560
  886MOL0     H22215   4.744   4.700   6.323 -1.1109 -0.6636  0.6718
  886MOL0     H22216   4.748   4.552   6.419  1.2916 -0.0017 -0.7654
  886MOL0     H22217   4.956   4.845   6.348 -1.0489 -0.6515 -2.7602
  886MOL0     H22218   5.304   4.780   6.527 -0.7998  0.5745  1.3434
  886MOL0     H22219   5.248   4.897   6.418  2.0446 -0.1394  2.6283
  886MOL0     H22220   5.372   4.628   6.352  1.2542  0.3066 -0.9348
  886MOL0     H22221   5.289   4.721   6.219 -0.1434 -0.4474  0.5624
  886MOL0     H22222   5.543   4.786   6.385 -0.2042  0.1772  1.0417
  886MOL0     H22223   5.554   4.745   6.226  1.3329  1.6940 -0.4500
  886MOL0     H22224   5.403   4.968   6.183  0.0783 -0.2328 -0.7162
  886MOL0     H22225   5.422   4.991   6.356  1.7391 -0.5744  0.7490
  886MOL0     H22226   5.827   5.079   6.243 -0.8999 -0.6513 -0.9210
  886MOL0     H22227   5.991   5.230   6.239 -1.6226 -0.4966 -0.4669
  886MOL0     H22228   5.966   5.398   6.306 -1.8785  1.0682 -0.0665
  886MOL0     H22229   5.964   5.374   6.131 -2.1967 -0.6191 -1.6005
  886MOL0     H22230   5.712   5.850   6.154 -2.1845 -4.1051 -2.2845
  886MOL0     H22231   5.766   6.018   6.318  0.5958  0.3472  1.3178
  886MOL0     H22232   5.508   6.118   6.607 -1.0324 -0.9298  0.5514
  886MOL0     H22233   5.545   5.972   6.688  0.5493 -1.5723 -1.9518
  886MOL0     H22234   5.677   6.250   6.731 -0.2580  0.5021 -0.9962
  886MOL0     H22235   5.576   6.156   6.831  0.3031  2.0562 -0.2772
  886MOL0     H22236   5.774   5.965   6.792  0.5633  1.0446 -4.6479
  886MOL0     H22237   5.763   6.080   6.932  1.8737  0.6241  0.8844
  886MOL0     H22238   5.933   6.213   6.814  3.4404 -2.8788  1.9779
  886MOL0     H22239   5.906   6.116   6.662 -1.2714 -1.0641  0.2652
  886MOL0     H22240   6.040   6.031   6.918 -2.6576  1.0829  0.6634
  886MOL0     H22241   5.973   5.925   6.803 -2.8185  0.9904 -0.0651
  886MOL0     H22242   6.140   6.178   6.689 -0.1557  0.9922  2.2588
  886MOL0     H22243   6.146   6.008   6.641  0.7208 -2.3744  2.5384
  886MOL0     H22244   6.357   6.025   6.738  1.1039  3.0555 -0.1939
  886MOL0     H22245   6.258   5.963   6.875 -0.7280  1.2875  0.6386
  886MOL0     H22246   6.396   6.144   6.956  2.5600 -0.9637 -1.5248
  886MOL0     H22247   6.230   6.198   6.953  1.7754 -0.9971  1.2307
  886MOL0     H22248   5.576   5.792   6.625  4.2648  1.4247  1.7277
  886MOL0     H22249   5.527   5.614   6.474  1.3564 -0.4711 -0.6026
  886MOL0     H22250   5.467   5.407   6.166 -1.5511 -1.0363  0.3402
  886MOL0     H22251   5.415   5.198   6.224  0.5396 -0.8678 -3.0849
  886MOL0     H22252   4.690   4.021   5.651 -1.2092 -0.2875  2.0537
  886MOL0     H22253   4.697   3.966   5.398 -1.1963 -2.1734 -1.7968
  886MOL0     H22254   4.672   3.923   5.073  0.8621 -1.2763 -1.0146
  886MOL0     H22255   4.758   3.850   4.856  0.0085  1.0208 -2.1850
  886MOL0     H22256   4.532   3.832   4.463 -2.8796  3.0444 -0.2315
  886MOL0     H22257   4.551   4.006   4.486 -2.0560  0.1147  2.2905
  886MOL0     H22258   4.662   3.954   4.294  0.8281  2.6363  1.3737
  886MOL0     H22259   4.745   3.818   4.362 -1.5883  0.4076 -2.2986
  886MOL0     H22260   4.770   4.119   4.413 -3.0181 -1.1653  1.5522
  886MOL0     H22261   4.864   4.007   4.515 -0.3131  1.4842  0.9445
  886MOL0     H22262   5.003   4.090   4.331  0.2972 -0.0269  1.1192
  886MOL0     H22263   4.890   4.027   4.208  2.7424 -2.7745 -1.6487
  886MOL0     H22264   5.118   3.695   4.290  1.8919  1.4144 -0.6334
  886MOL0     H22265   4.429   4.034   4.665  2.2196  0.2371 -0.2078
  886MOL0     H22266   4.243   4.116   4.767  1.3831  2.4555 -0.3911
  886MOL0     H22267   4.223   4.073   4.942 -0.7748  0.7155  0.6169
  886MOL0     H22268   4.318   4.214   4.883 -0.7128 -0.1642 -0.2368
  887MOL0     O22269  10.780  10.081  10.361 -0.8515 -0.8022 -0.0652
  887MOL0     C22270  10.688  10.019  10.325 -0.2660 -0.4402  0.0506
  887MOL0     O22271  10.566  10.004  10.386 -0.3949 -0.0546 -0.7536
  887MOL0     C22272  10.499  10.110  10.441 -0.1935 -0.0021 -0.4041
  887MOL0     C22273  10.520  10.244  10.415 -0.1828 -0.2620 -0.3874
  887MOL0     C22274  10.436  10.327  10.494  0.0511 -0.6318  0.1417
  887MOL0     C22275  10.347  10.284  10.595 -0.7306 -0.2346  1.5065
  887MOL0     O22276  10.272  10.370  10.668 -0.0459  0.5392  0.1595
  887MOL0     C22277  10.275  10.509  10.656  0.2403 -0.3964  0.1078
  887MOL0     C22278  10.218  10.569  10.781 -0.8613 -0.8623  0.3184
  887MOL0     C22279  10.079  10.518  10.817  0.1581 -0.5557  0.6394
  887MOL0     C22280  10.010  10.608  10.919  0.2183 -0.8340 -1.1810
  887MOL0     C22281   9.895  10.545  10.989  0.0981 -0.7132  0.6791
  887MOL0     C22282   9.814  10.646  11.071 -0.4225 -0.6394 -0.1265
  887MOL0     C22283   9.853  10.711  11.209 -0.6861  0.3458 -0.2767
  887MOL0     C22284   9.909  10.611  11.309  0.3172 -0.1344  0.1007
  887MOL0     N22285   9.928  10.670  11.437  0.6914 -0.3616  0.3134
  887MOL0     C22286  10.045  10.720  11.482 -0.2262  0.2287  0.8951
  887MOL0     C22287  10.021  10.764  11.603  1.1801  0.2756 -0.6844
  887MOL0     C22288  10.124  10.808  11.709 -0.2944 -0.3393 -0.0664
  887MOL0     C22289  10.202  10.934  11.661  0.2321 -0.4558 -0.3944
  887MOL0     C22290  10.335  10.884  11.589 -0.1260 -0.5205 -0.4447
  887MOL0     C22291  10.445  10.997  11.610 -0.5988 -0.4702 -0.8170
  887MOL0     O22292  10.386  11.115  11.553 -0.8430 -0.3280 -0.2357
  887MOL0     C22293  10.400  11.135  11.418  0.0622  0.2901  0.1236
  887MOL0     C22294  10.505  11.094  11.341 -0.0385  0.1582  0.8849
  887MOL0     C22295  10.514  11.116  11.201 -0.2219  0.4131 -1.1667
  887MOL0     C22296  10.642  11.075  11.137  0.5892 -0.4833  0.4106
  887MOL0     C22297  10.405  11.180  11.131 -1.1825  0.2890  0.0954
  887MOL0     C22298  10.405  11.207  10.981 -0.0684 -0.3258  0.6136
  887MOL0     O22299  10.290  11.278  10.932 -0.5986 -0.0021 -0.0626
  887MOL0     C22300  10.262  11.280  10.795  0.3696 -0.6766  0.1372
  887MOL0     C22301  10.357  11.316  10.693  0.2939 -0.1286 -0.2253
  887MOL0     C22302  10.312  11.344  10.564 -0.0259 -1.3238  0.3706
  887MOL0     C22303  10.182  11.327  10.535  0.7769 -0.2772 -0.5139
  887MOL0     O22304  10.162  11.339  10.400  0.2205  0.3606 -0.4591
  887MOL0     C22305  10.042  11.273  10.346 -0.8103 -0.5728  0.1762
  887MOL0     C22306  10.033  11.320  10.195 -0.8721  0.3546  0.0588
  887MOL0     C22307   9.935  11.234  10.118 -0.3358 -0.2329 -0.7808
  887MOL0     C22308   9.916  11.286   9.974  0.1593 -0.2075 -0.5197
  887MOL0     C22309   9.830  11.186   9.892  0.3540  0.2667 -1.1143
  887MOL0     C22310   9.798  11.237   9.748 -0.7152 -0.9233  0.2011
  887MOL0     C22311   9.714  11.140   9.658 -0.2716 -0.1203 -0.1736
  887MOL0     C22312   9.737  11.165   9.510 -0.7362 -0.2852 -0.9124
  887MOL0    Cl22313   9.710  11.338   9.462 -0.0962  0.1568 -0.1475
  887MOL0     C22314  10.080  11.297  10.627  0.1279 -0.3140 -0.2453
  887MOL0     C22315  10.124  11.286  10.757 -0.0809  0.3560 -0.8081
  887MOL0     O22316  10.496  11.162  10.913 -0.1037  0.1511  0.4974
  887MOL0     C22317  10.291  11.214  11.214  0.2969  0.3471  0.3807
  887MOL0     C22318  10.292  11.195  11.350 -0.0362 -0.0030 -1.0847
  887MOL0     N22319   9.893  10.732  11.632  0.4154  0.6230 -0.6611
  887MOL0     N22320   9.839  10.665  11.538  0.5339  0.7216 -0.4862
  887MOL0     C22321  10.336  10.151  10.620  0.7559 -0.1786 -0.2765
  887MOL0     C22322  10.407  10.065  10.534  0.0021  0.3936  0.4066
  887MOL0     C22323  10.709   9.938  10.201  0.5507  0.6198  0.4224
  887MOL0     C22324  10.608   9.840  10.165  0.5035 -0.8385 -0.1764
  887MOL0     C22325  10.627   9.763  10.051 -0.2490 -0.0464 -0.2091
  887MOL0     C22326  10.743   9.762   9.984  0.0681 -0.7450 -0.6389
  887MOL0     O22327  10.774   9.685   9.875  0.0245  0.4972 -0.2091
  887MOL0     C22328  10.686   9.581   9.839  0.7313  0.5926 -0.3697
  887MOL0     C22329  10.703   9.461   9.934  0.0794 -0.4509 -0.9742
  887MOL0     C22330  10.848   9.411   9.946  0.8349  0.0238 -0.1445
  887MOL0     C22331  10.914   9.357   9.825  0.4979  0.7912 -0.9350
  887MOL0     C22332  11.053   9.318   9.848 -0.3141  0.2040  0.3779
  887MOL0     C22333  11.160   9.272   9.884 -0.0374 -0.4305 -0.5809
  887MOL0     C22334  10.837   9.859  10.016 -0.2235 -0.2732 -0.6392
  887MOL0     C22335  10.824   9.948  10.119 -0.4960  1.1369  0.4940
  887MOL0     C22336  10.928  10.046  10.130 -0.2863 -0.0240 -0.6907
  887MOL0     H22337  10.596  10.278  10.346 -1.1305  0.7977 -0.9320
  887MOL0     H22338  10.438  10.435  10.484  0.7170 -0.6867 -0.3718
  887MOL0     H22339  10.215  10.532  10.568 -1.3215 -1.0079  0.9825
  887MOL0     H22340  10.378  10.546  10.649  1.0587 -1.6144  3.6395
  887MOL0     H22341  10.291  10.567  10.863 -1.1586  0.3544  0.6321
  887MOL0     H22342  10.220  10.675  10.755  0.9356 -0.7510  0.7777
  887MOL0     H22343  10.019  10.525  10.726  0.3570  0.2976  0.5657
  887MOL0     H22344  10.091  10.416  10.854  1.3360 -1.2835 -1.5771
  887MOL0     H22345  10.079  10.624  11.002  0.2798 -3.4440 -0.6466
  887MOL0     H22346   9.985  10.703  10.870 -0.1848  0.2026  0.9310
  887MOL0     H22347   9.931  10.455  11.041  1.2967 -1.6261 -1.5663
  887MOL0     H22348   9.832  10.504  10.909  1.6030  1.1101 -1.5567
  887MOL0     H22349   9.787  10.724  10.999  2.4329  1.4229  0.8244
  887MOL0     H22350   9.722  10.588  11.087 -0.6801 -0.0332  0.6508
  887MOL0     H22351   9.774  10.767  11.260  1.4790  2.0624  1.3892
  887MOL0     H22352   9.945  10.768  11.195  0.2518 -1.1697 -0.5136
  887MOL0     H22353   9.843  10.524  11.310 -0.2321  0.2629 -0.3809
  887MOL0     H22354  10.005  10.570  11.277 -1.1896 -3.8013 -0.1650
  887MOL0     H22355  10.142  10.739  11.437 -0.1549  2.1639  1.7496
  887MOL0     H22356  10.191  10.738  11.760  1.0782  0.9221 -0.0506
  887MOL0     H22357  10.071  10.843  11.797  1.9245 -0.5981  1.4499
  887MOL0     H22358  10.137  11.003  11.607  1.6467  0.2667 -1.2530
  887MOL0     H22359  10.219  10.980  11.760 -1.8819 -3.8956  1.7573
  887MOL0     H22360  10.380  10.795  11.633  0.1659 -0.9650 -1.6239
  887MOL0     H22361  10.313  10.869  11.483  0.2197  3.7610 -1.3223
  887MOL0     H22362  10.469  11.014  11.715  1.5407 -0.9086 -1.1782
  887MOL0     H22363  10.542  10.964  11.573 -1.1641 -0.7366 -2.1239
  887MOL0     H22364  10.594  11.045  11.379  2.0970  2.6891 -0.5455
  887MOL0     H22365  10.690  11.162  11.093  0.3308 -2.0424 -3.2784
  887MOL0     H22366  10.619  10.999  11.062  1.6247 -1.0278  0.6193
  887MOL0     H22367  10.711  11.031  11.211 -1.2964  1.2285  3.4101
  887MOL0     H22368  10.460  11.335  10.721  0.9437 -2.6571 -0.6532
  887MOL0     H22369  10.385  11.378  10.490 -1.4850 -1.7417 -1.3191
  887MOL0     H22370  10.072  11.168  10.351  1.1448  0.0353  3.5786
  887MOL0     H22371   9.946  11.298  10.393  0.3671  1.0837  1.8639
  887MOL0     H22372   9.999  11.423  10.186 -3.2714 -0.5258 -2.6336
  887MOL0     H22373  10.133  11.305  10.153 -1.9036 -0.5386 -2.2569
  887MOL0     H22374   9.835  11.221  10.159  0.1566 -3.4257 -0.2920
  887MOL0     H22375   9.977  11.133  10.117 -0.8020 -0.4283 -1.2662
  887MOL0     H22376  10.013  11.305   9.927  0.4800  1.6841  0.8004
  887MOL0     H22377   9.858  11.378   9.965 -1.3204 -1.3585 -4.6630
  887MOL0     H22378   9.873  11.086   9.892  0.4909  0.2866  1.0972
  887MOL0     H22379   9.731  11.196   9.938 -0.5445 -0.2582 -2.8412
  887MOL0     H22380   9.898  11.255   9.707 -0.3572  0.4542  1.5750
  887MOL0     H22381   9.748  11.334   9.748  1.5511  0.3142  0.3380
  887MOL0     H22382   9.608  11.159   9.677 -0.9527 -0.2522 -3.2845
  887MOL0     H22383   9.728  11.032   9.672 -1.1504 -0.2676 -0.3817
  887MOL0     H22384   9.667  11.110   9.446 -2.0971  1.9704 -1.4941
  887MOL0     H22385   9.836  11.129   9.480 -1.6373 -1.6732 -2.4193
  887MOL0     H22386   9.973  11.288  10.609 -0.2018  0.8704  0.8928
  887MOL0     H22387  10.050  11.264  10.833  0.8997  1.6232  0.5516
  887MOL0     H22388  10.203  11.258  11.169 -1.1242 -3.2746 -0.7221
  887MOL0     H22389  10.212  11.220  11.418 -0.9492  0.8379 -2.4275
  887MOL0     H22390  10.260  10.110  10.686 -0.7704  0.1537 -1.7483
  887MOL0     H22391  10.392   9.958  10.538 -0.0961  0.2500 -2.0912
  887MOL0     H22392  10.509   9.834  10.208  0.3256  1.2240 -0.2158
  887MOL0     H22393  10.550   9.694  10.018 -1.6118  1.5386 -0.5013
  887MOL0     H22394  10.584   9.620   9.835 -0.2255 -1.7124 -0.0177
  887MOL0     H22395  10.712   9.550   9.737  1.9470  1.5694 -0.3810
  887MOL0     H22396  10.645   9.378   9.895  1.0941 -1.7257  0.1112
  887MOL0     H22397  10.659   9.485  10.031  1.4615  0.0465 -0.4357
  887MOL0     H22398  10.917   9.484   9.990 -0.3277 -0.4736  2.7798
  887MOL0     H22399  10.832   9.333  10.021 -1.5255 -0.2806 -0.9059
  887MOL0     H22400  10.909   9.438   9.752 -1.4252 -0.0327 -1.8138
  887MOL0     H22401  10.859   9.272   9.782  1.3909  0.4174 -1.3682
  887MOL0     H22402  11.249   9.229   9.925 -1.2338 -2.0524  0.4416
  887MOL0     H22403  10.929   9.858   9.960 -0.2624 -1.9980 -0.7187
  887MOL0     H22404  11.001  10.037  10.049 -1.0248 -1.5323 -1.2367
  887MOL0     H22405  10.890  10.148  10.133  3.1805  1.4843 -2.2178
  887MOL0     H22406  11.001  10.020  10.207  2.2622  0.1526 -2.8973
  888MOL0     O22407   3.777   4.356   2.939 -0.3244  0.8444 -0.4014
  888MOL0     C22408   3.795   4.249   3.006  0.2042 -1.0828  0.1955
  888MOL0     O22409   3.812   4.130   2.938 -0.6632  0.2507 -0.0605
  888MOL0     C22410   3.815   4.120   2.808 -0.0201  0.2522  0.8160
  888MOL0     C22411   3.724   4.172   2.714  0.0714  0.8536 -0.3447
  888MOL0     C22412   3.741   4.140   2.579  1.0766 -0.3832 -0.0546
  888MOL0     C22413   3.840   4.060   2.537 -0.0499 -0.0943 -0.6719
  888MOL0     O22414   3.862   4.028   2.408 -0.2671  0.5074 -0.3640
  888MOL0     C22415   3.743   3.985   2.331  0.8619  0.8117 -0.3239
  888MOL0     C22416   3.743   3.832   2.297  0.4205  0.9577  0.0229
  888MOL0     C22417   3.611   3.780   2.257  0.1125 -0.4629  0.0766
  888MOL0     C22418   3.623   3.627   2.225  0.3547  0.0267 -0.1568
  888MOL0     C22419   3.491   3.546   2.212  0.0029 -0.0763  0.4811
  888MOL0     C22420   3.383   3.610   2.118  0.3043  0.5040  1.2288
  888MOL0     C22421   3.252   3.516   2.103 -1.2539  0.2360 -0.6225
  888MOL0     C22422   3.267   3.379   2.033 -0.5012  0.0875  0.0689
  888MOL0     N22423   3.277   3.397   1.886  0.3341  0.3378 -0.1370
  888MOL0     C22424   3.186   3.370   1.786  0.0472  0.1296 -0.3793
  888MOL0     C22425   3.252   3.406   1.673  0.4744 -0.2155  0.1984
  888MOL0     C22426   3.192   3.408   1.529  0.0399  1.3923 -0.6914
  888MOL0     C22427   3.119   3.283   1.502  0.6057 -0.5136  0.6646
  888MOL0     C22428   3.043   3.278   1.366  0.1078  0.4658 -0.0020
  888MOL0     C22429   2.972   3.153   1.333  0.6026  0.4519 -0.9826
  888MOL0     O22430   2.903   3.158   1.206  0.3608  0.1448  0.0324
  888MOL0     C22431   2.830   3.049   1.176  0.2517 -0.1161 -0.0916
  888MOL0     C22432   2.699   3.039   1.207  0.4933 -0.7183  0.7829
  888MOL0     C22433   2.616   2.929   1.164 -0.5661 -0.6541 -0.9461
  888MOL0     C22434   2.469   2.949   1.176 -0.3790  0.5837  0.3861
  888MOL0     C22435   2.687   2.820   1.100 -0.8750 -0.3737 -0.1159
  888MOL0     C22436   2.620   2.691   1.058 -0.7307 -0.8837  0.5931
  888MOL0     O22437   2.682   2.609   0.963 -0.1718 -0.0344  0.2195
  888MOL0     C22438   2.627   2.484   0.932  0.8560  0.1290  0.4517
  888MOL0     C22439   2.597   2.384   1.029 -0.1864 -0.6981 -0.4469
  888MOL0     C22440   2.555   2.254   0.997 -0.2682 -0.3183  0.5514
  888MOL0     C22441   2.538   2.226   0.862 -0.5897  0.5793  0.0202
  888MOL0     O22442   2.494   2.100   0.837  0.3592 -0.0101 -0.0224
  888MOL0     C22443   2.573   2.021   0.750  0.6533 -0.7094  0.0156
  888MOL0     C22444   2.498   1.984   0.625  0.1301  0.5036  0.6247
  888MOL0     C22445   2.359   1.915   0.644 -1.9870 -0.7582 -1.2957
  888MOL0     C22446   2.309   1.876   0.508 -0.1483 -0.5188  0.2260
  888MOL0     C22447   2.177   1.799   0.502 -0.4688  0.2279 -0.1623
  888MOL0     C22448   2.071   1.883   0.586  0.9044  0.4415 -1.1226
  888MOL0     C22449   1.926   1.845   0.544  0.3897  0.9044 -0.6326
  888MOL0     C22450   1.884   1.700   0.584  0.3055 -0.0059 -0.1486
  888MOL0    Cl22451   1.939   1.594   0.453 -0.0386  0.2430 -0.3065
  888MOL0     C22452   2.560   2.322   0.766  0.4543 -0.0324  0.1975
  888MOL0     C22453   2.605   2.446   0.801  0.3060  0.2658  0.1554
  888MOL0     O22454   2.514   2.669   1.110 -0.1173  0.1747  0.4882
  888MOL0     C22455   2.826   2.835   1.076 -0.1541  0.1073  0.5551
  888MOL0     C22456   2.894   2.950   1.104 -0.0233 -0.2148 -0.5315
  888MOL0     N22457   3.377   3.442   1.699  0.2661  0.0420 -0.7366
  888MOL0     N22458   3.393   3.434   1.830  0.1020 -0.6951 -0.4733
  888MOL0     C22459   3.931   4.015   2.623 -0.5006 -0.1984 -0.2824
  888MOL0     C22460   3.920   4.046   2.759  0.3851  0.4153 -0.2522
  888MOL0     C22461   3.771   4.251   3.156 -0.2315 -0.0497 -0.3038
  888MOL0     C22462   3.775   4.130   3.223 -0.0126  0.2124 -0.1869
  888MOL0     C22463   3.736   4.115   3.357 -1.0449 -0.4451  0.3716
  888MOL0     C22464   3.715   4.231   3.434 -0.6313 -1.0143 -0.2215
  888MOL0     O22465   3.692   4.210   3.571 -0.0772 -0.2152 -0.1832
  888MOL0     C22466   3.686   4.320   3.664 -0.3185  0.3745 -0.7312
  888MOL0     C22467   3.535   4.376   3.676 -0.3453  0.9343  0.0560
  888MOL0     C22468   3.439   4.265   3.721 -0.6014 -1.3893  0.4487
  888MOL0     C22469   3.296   4.324   3.727  0.1482  0.2656 -0.3723
  888MOL0     C22470   3.261   4.360   3.868 -0.0584  0.5524  0.4093
  888MOL0     C22471   3.244   4.418   3.973  0.2048  0.0654  0.2773
  888MOL0     C22472   3.710   4.356   3.369  0.4048  0.4044 -0.5365
  888MOL0     C22473   3.745   4.367   3.228  0.7673 -0.6722 -0.0956
  888MOL0     C22474   3.723   4.495   3.156  0.0533 -0.7853 -0.0044
  888MOL0     H22475   3.645   4.237   2.750  0.8228 -0.6943  5.0180
  888MOL0     H22476   3.670   4.176   2.505  2.4002  0.3335 -1.0455
  888MOL0     H22477   3.757   4.031   2.233  4.3527 -1.2695 -0.9568
  888MOL0     H22478   3.642   4.014   2.364  0.2282 -1.9603  0.4230
  888MOL0     H22479   3.820   3.818   2.220  1.2927 -1.3245  1.2075
  888MOL0     H22480   3.783   3.798   2.393 -0.3529  3.1204  1.1835
  888MOL0     H22481   3.539   3.788   2.339 -1.9378  1.0224 -1.7606
  888MOL0     H22482   3.572   3.842   2.176  2.3262  2.4438  1.0803
  888MOL0     H22483   3.676   3.619   2.130  5.3062  3.8461  1.8293
  888MOL0     H22484   3.677   3.586   2.311  0.9155  0.9552 -0.0625
  888MOL0     H22485   3.426   3.544   2.300 -0.7747 -2.6045 -0.0729
  888MOL0     H22486   3.522   3.443   2.190 -0.8766 -0.6853  1.9456
  888MOL0     H22487   3.356   3.706   2.163  3.1226  1.6755  0.6323
  888MOL0     H22488   3.424   3.622   2.017 -0.0010 -1.0857  0.8884
  888MOL0     H22489   3.191   3.589   2.049  1.0748  2.0312 -1.0133
  888MOL0     H22490   3.212   3.504   2.204 -0.3770  1.0839 -0.1557
  888MOL0     H22491   3.364   3.340   2.062 -1.1336 -0.9512  0.8664
  888MOL0     H22492   3.182   3.315   2.061  0.1374  0.4031  3.0462
  888MOL0     H22493   3.083   3.338   1.799  0.5606 -0.4755  3.3167
  888MOL0     H22494   3.280   3.417   1.464  0.9616 -3.9247 -0.5905
  888MOL0     H22495   3.119   3.490   1.521 -0.8821  1.1303  3.2225
  888MOL0     H22496   3.190   3.200   1.501 -0.9491 -1.9083 -0.5807
  888MOL0     H22497   3.053   3.265   1.587  1.5762  1.4278  1.8783
  888MOL0     H22498   2.965   3.355   1.364 -1.7719 -1.3405 -1.0096
  888MOL0     H22499   3.117   3.311   1.293  0.6623 -2.6711 -1.0191
  888MOL0     H22500   3.047   3.075   1.348  0.3112  0.6562  2.5395
  888MOL0     H22501   2.897   3.126   1.409  0.1274  0.1668 -1.5454
  888MOL0     H22502   2.649   3.124   1.251 -1.7514 -2.3032  1.4380
  888MOL0     H22503   2.438   3.049   1.141 -2.9096 -0.0040  0.7223
  888MOL0     H22504   2.446   2.953   1.283  0.1878  1.8348  0.4750
  888MOL0     H22505   2.404   2.879   1.122 -0.9827  1.4001  0.0257
  888MOL0     H22506   2.617   2.407   1.133  0.1592  3.3550 -1.2702
  888MOL0     H22507   2.536   2.184   1.077  1.1475  1.9662  3.0754
  888MOL0     H22508   2.657   2.080   0.712  0.9740 -0.9912  0.2833
  888MOL0     H22509   2.610   1.926   0.790  0.9307 -0.4325  0.4170
  888MOL0     H22510   2.478   2.077   0.570  1.5442 -0.5127 -1.7312
  888MOL0     H22511   2.561   1.923   0.561 -1.9357 -0.2300 -0.8032
  888MOL0     H22512   2.294   1.983   0.699  0.7853 -0.5111  2.0665
  888MOL0     H22513   2.387   1.819   0.688 -0.4229  0.1556 -0.2040
  888MOL0     H22514   2.395   1.825   0.464  1.5318  1.7949  0.6614
  888MOL0     H22515   2.288   1.961   0.443 -0.0179 -0.1730  0.6327
  888MOL0     H22516   2.139   1.792   0.400  0.2562 -0.8515 -0.3773
  888MOL0     H22517   2.185   1.694   0.533 -1.1521  0.7479  1.9713
  888MOL0     H22518   2.082   1.990   0.568  1.3243  0.4118 -1.0493
  888MOL0     H22519   2.101   1.862   0.689  1.2125 -4.5364 -1.9402
  888MOL0     H22520   1.918   1.845   0.435  0.2911 -1.9036 -0.6955
  888MOL0     H22521   1.867   1.923   0.593 -0.6329  1.5996 -2.8656
  888MOL0     H22522   1.776   1.695   0.602  0.4335 -0.2910  0.5803
  888MOL0     H22523   1.930   1.685   0.682  1.1686 -1.0805 -0.7054
  888MOL0     H22524   2.554   2.282   0.665  0.4424 -0.5910  0.4177
  888MOL0     H22525   2.610   2.523   0.725 -2.7573 -1.6153 -2.1707
  888MOL0     H22526   2.873   2.743   1.043  1.7610  0.9191  0.9006
  888MOL0     H22527   3.000   2.965   1.087  0.0917  1.8777  1.4306
  888MOL0     H22528   4.012   3.954   2.586  0.2991  0.5506  0.1889
  888MOL0     H22529   4.002   4.006   2.817  0.6407  1.0789 -0.1541
  888MOL0     H22530   3.812   4.046   3.166  2.0483  1.3179 -0.5877
  888MOL0     H22531   3.732   4.015   3.400  1.2157 -1.5468 -1.7245
  888MOL0     H22532   3.711   4.271   3.758 -2.2406  0.5632 -0.0827
  888MOL0     H22533   3.752   4.407   3.658 -1.2025  1.0512 -0.8230
  888MOL0     H22534   3.496   4.413   3.581 -2.3922 -2.0091 -0.3690
  888MOL0     H22535   3.527   4.447   3.759  1.0831 -2.4112  3.3320
  888MOL0     H22536   3.448   4.183   3.649  0.4009 -2.2930  1.5476
  888MOL0     H22537   3.471   4.229   3.820 -0.5786  1.6701  1.6687
  888MOL0     H22538   3.226   4.246   3.695 -1.3382  2.0005 -1.5308
  888MOL0     H22539   3.283   4.402   3.652  0.1566 -1.3152 -2.1077
  888MOL0     H22540   3.228   4.472   4.064 -0.4093  1.6269 -0.7334
  888MOL0     H22541   3.676   4.445   3.420  2.2670  1.5633 -1.2013
  888MOL0     H22542   3.701   4.577   3.225 -1.2266 -1.4229  0.3692
  888MOL0     H22543   3.811   4.523   3.098 -0.5796  0.7154 -0.2956
  888MOL0     H22544   3.638   4.477   3.089 -0.0073  1.4061 -0.5896
  889MOL0     O22545   8.560   7.915   0.139  0.4175  0.1807 -0.8176
  889MOL0     C22546   8.583   7.821   0.064 -0.2209 -0.5298  0.0731
  889MOL0     O22547   8.594   7.831  -0.076 -0.1024 -0.8080 -1.0673
  889MOL0     C22548   8.623   7.952  -0.145  0.2689 -0.3351 -0.4302
  889MOL0     C22549   8.637   8.076  -0.089  0.7755 -0.4895  0.9777
  889MOL0     C22550   8.638   8.189  -0.162  1.0569 -0.1372 -0.6055
  889MOL0     C22551   8.626   8.190  -0.298  0.0315  0.0255  0.5800
  889MOL0     O22552   8.627   8.288  -0.398 -0.0382  0.1133  0.3675
  889MOL0     C22553   8.652   8.430  -0.365  0.5420  1.2920 -0.6484
  889MOL0     C22554   8.770   8.481  -0.449  0.0126 -0.7160  0.0200
  889MOL0     C22555   8.741   8.467  -0.602  0.2815 -0.0536  0.0790
  889MOL0     C22556   8.825   8.563  -0.690  0.0969 -0.5765  0.4426
  889MOL0     C22557   8.821   8.556  -0.843 -1.0851 -1.3768  0.4426
  889MOL0     C22558   8.682   8.569  -0.909 -0.0875 -1.1418 -0.1631
  889MOL0     C22559   8.685   8.611  -1.055  0.1108  0.8569 -0.2350
  889MOL0     C22560   8.537   8.654  -1.096  0.5663  0.6139  0.7967
  889MOL0     N22561   8.518   8.656  -1.241 -0.6949 -0.0162 -0.5614
  889MOL0     C22562   8.545   8.553  -1.332  0.2681 -0.2660  1.4575
  889MOL0     C22563   8.556   8.611  -1.451 -0.0002  0.1687  1.7403
  889MOL0     C22564   8.579   8.526  -1.574  0.2228 -0.0188  0.7115
  889MOL0     C22565   8.511   8.567  -1.698  0.0440 -0.5406 -0.2856
  889MOL0     C22566   8.592   8.675  -1.769  0.1541 -0.5392 -0.1151
  889MOL0     C22567   8.509   8.749  -1.873  1.1127 -0.2502  1.5522
  889MOL0     O22568   8.572   8.879  -1.907 -0.0787  0.2402 -0.1168
  889MOL0     C22569   8.702   8.876  -1.949 -0.3161 -0.4826 -0.2808
  889MOL0     C22570   8.760   8.774  -2.023 -0.4560  0.6008  2.2539
  889MOL0     C22571   8.889   8.757  -2.054 -0.0505  0.1191  0.2031
  889MOL0     C22572   8.927   8.658  -2.160 -0.2451  0.5788 -0.0830
  889MOL0     C22573   8.975   8.851  -1.999  0.0848  0.6097 -0.4644
  889MOL0     C22574   9.122   8.828  -1.998  0.2421 -0.2461 -0.2098
  889MOL0     O22575   9.153   8.692  -2.009  0.3039 -0.2863  0.9535
  889MOL0     C22576   9.288   8.654  -2.023 -0.9360  0.1808 -0.4527
  889MOL0     C22577   9.394   8.706  -1.945 -1.5261  0.0164  0.2022
  889MOL0     C22578   9.527   8.680  -1.985  0.5843  0.6172 -0.4341
  889MOL0     C22579   9.553   8.599  -2.101 -0.6664  0.0471  0.8104
  889MOL0     O22580   9.689   8.575  -2.130 -0.4271  1.1412 -0.6124
  889MOL0     C22581   9.717   8.483  -2.236 -0.2149  0.8659 -0.0779
  889MOL0     C22582   9.877   8.476  -2.265  0.3642  0.5379  0.4830
  889MOL0     C22583   9.926   8.609  -2.325  1.1610  0.1857 -0.6759
  889MOL0     C22584  10.072   8.606  -2.365 -0.4915  0.4942  0.7971
  889MOL0     C22585  10.129   8.718  -2.460  1.2687 -0.3682 -0.3113
  889MOL0     C22586  10.273   8.682  -2.506 -0.2314  0.3806 -0.0109
  889MOL0     C22587  10.316   8.763  -2.626  0.8554  0.2295  0.0527
  889MOL0     C22588  10.247   8.715  -2.757 -0.7507 -0.2799  0.3570
  889MOL0    Cl22589  10.300   8.556  -2.809 -0.2217 -0.0691 -0.1456
  889MOL0     C22590   9.450   8.527  -2.158 -0.4552  0.8887 -0.1117
  889MOL0     C22591   9.315   8.562  -2.124  0.7414 -0.2790  0.3193
  889MOL0     O22592   9.201   8.918  -1.968  0.6954  0.3113  0.0330
  889MOL0     C22593   8.918   8.964  -1.922  0.0904  0.6881  0.1772
  889MOL0     C22594   8.788   8.972  -1.901 -0.2599 -0.0969 -0.3252
  889MOL0     N22595   8.532   8.746  -1.444  0.6513  0.4129 -0.7233
  889MOL0     N22596   8.506   8.768  -1.319 -0.2353  0.5707 -0.4707
  889MOL0     C22597   8.612   8.066  -0.362 -0.1831  0.5017 -0.1170
  889MOL0     C22598   8.626   7.947  -0.285 -0.1867 -0.2482 -0.2755
  889MOL0     C22599   8.584   7.684   0.129  0.3191 -0.1123 -0.0858
  889MOL0     C22600   8.571   7.571   0.041 -0.6899 -0.3446  0.3367
  889MOL0     C22601   8.580   7.442   0.093  0.3141  0.1875 -0.8996
  889MOL0     C22602   8.621   7.418   0.226  0.5004 -0.1376 -0.1560
  889MOL0     O22603   8.631   7.290   0.291 -0.2081  0.0839  0.5607
  889MOL0     C22604   8.583   7.183   0.213  0.2901 -1.4010  0.0075
  889MOL0     C22605   8.521   7.092   0.317 -0.0462 -0.3017 -0.4935
  889MOL0     C22606   8.477   6.948   0.281  0.1680 -0.0941  0.6389
  889MOL0     C22607   8.341   6.950   0.203 -0.4372  0.1353 -1.1715
  889MOL0     C22608   8.235   6.986   0.307 -1.4118 -0.6076  1.7210
  889MOL0     C22609   8.159   7.042   0.371  0.4576  0.0155  0.2057
  889MOL0     C22610   8.613   7.526   0.309  0.5429 -0.7502 -0.2854
  889MOL0     C22611   8.598   7.657   0.264  0.4596  0.0822 -0.3160
  889MOL0     C22612   8.611   7.771   0.370  0.3171 -0.4718  0.6449
  889MOL0     H22613   8.658   8.083   0.018  0.7369 -0.8907  1.0137
  889MOL0     H22614   8.655   8.290  -0.126 -1.5581  0.6244 -1.2459
  889MOL0     H22615   8.673   8.435  -0.258 -2.5586  0.3667  0.1055
  889MOL0     H22616   8.561   8.486  -0.385 -0.0498  1.0611  1.2626
  889MOL0     H22617   8.796   8.585  -0.427  2.3876 -0.9785 -1.1651
  889MOL0     H22618   8.873   8.447  -0.430  0.6551  0.9256 -0.3060
  889MOL0     H22619   8.747   8.361  -0.629 -0.7615 -0.3531  0.9678
  889MOL0     H22620   8.639   8.497  -0.629 -0.3858 -2.5832 -0.5265
  889MOL0     H22621   8.785   8.661  -0.664 -2.5769 -1.5540  0.3835
  889MOL0     H22622   8.929   8.564  -0.657  0.0916  1.6109  0.5287
  889MOL0     H22623   8.880   8.471  -0.880  2.1050  0.9037 -0.0864
  889MOL0     H22624   8.886   8.635  -0.881 -2.4086  0.1158  1.1911
  889MOL0     H22625   8.643   8.468  -0.891  0.7433 -1.8360 -2.0846
  889MOL0     H22626   8.627   8.648  -0.856 -1.5067 -1.3992 -1.2003
  889MOL0     H22627   8.721   8.524  -1.112  0.2648 -1.5037  3.1669
  889MOL0     H22628   8.754   8.695  -1.068  0.0099  0.7053 -1.8940
  889MOL0     H22629   8.459   8.595  -1.047  1.6389 -0.0762  1.7235
  889MOL0     H22630   8.525   8.757  -1.061  0.6045  0.8418  0.1441
  889MOL0     H22631   8.568   8.451  -1.303 -0.8018 -1.3704 -1.2360
  889MOL0     H22632   8.557   8.422  -1.550  1.3100 -0.4067  0.0630
  889MOL0     H22633   8.687   8.535  -1.592  0.1053  0.5581  0.2317
  889MOL0     H22634   8.493   8.485  -1.768  2.5904  0.3425 -2.1250
  889MOL0     H22635   8.411   8.592  -1.660  0.3728  1.1982 -0.4818
  889MOL0     H22636   8.626   8.749  -1.696 -1.2517 -3.3156  3.6345
  889MOL0     H22637   8.672   8.620  -1.821  0.3403 -2.3152  1.9292
  889MOL0     H22638   8.504   8.685  -1.961  0.7244  1.1703  0.5024
  889MOL0     H22639   8.407   8.764  -1.835  0.5608 -2.8318  1.2597
  889MOL0     H22640   8.700   8.693  -2.062 -0.2485  0.1002  2.9624
  889MOL0     H22641   8.976   8.567  -2.123 -0.2974  1.2149  1.5917
  889MOL0     H22642   9.001   8.699  -2.231 -0.8293 -1.0675 -1.7330
  889MOL0     H22643   8.844   8.615  -2.217 -0.2596 -1.4651  1.3732
  889MOL0     H22644   9.376   8.763  -1.855  0.6136 -1.8761  1.9493
  889MOL0     H22645   9.613   8.729  -1.942 -0.0478 -0.2819  2.0507
  889MOL0     H22646   9.682   8.383  -2.210  1.7796  0.6212  1.9902
  889MOL0     H22647   9.670   8.519  -2.328  3.0732 -0.6258 -2.5554
  889MOL0     H22648   9.935   8.459  -2.174  1.5517  2.3107  0.1087
  889MOL0     H22649   9.889   8.394  -2.336  2.2391  0.8233  0.4374
  889MOL0     H22650   9.911   8.682  -2.245 -0.3215 -2.1686  1.3498
  889MOL0     H22651   9.859   8.642  -2.406 -2.2201 -0.0858  1.7880
  889MOL0     H22652  10.098   8.506  -2.403 -1.5837 -0.4899  2.5340
  889MOL0     H22653  10.126   8.606  -2.270 -0.1928  0.4952  0.6272
  889MOL0     H22654  10.066   8.732  -2.548  1.2559  3.0233  0.1015
  889MOL0     H22655  10.144   8.811  -2.404  3.1026 -0.4801 -0.5401
  889MOL0     H22656  10.280   8.576  -2.532  1.2806  0.2625  0.7709
  889MOL0     H22657  10.347   8.687  -2.425 -0.2299 -3.7310  0.4151
  889MOL0     H22658  10.423   8.746  -2.643  0.9134  1.0601 -0.4727
  889MOL0     H22659  10.315   8.868  -2.599  2.9641 -0.6919  4.5256
  889MOL0     H22660  10.289   8.777  -2.836 -2.8853 -0.1097 -0.7091
  889MOL0     H22661  10.138   8.722  -2.755 -0.8527 -1.3953 -0.1940
  889MOL0     H22662   9.472   8.437  -2.214 -0.8567 -1.0822  2.6572
  889MOL0     H22663   9.233   8.536  -2.191  1.4664  2.4096 -1.8390
  889MOL0     H22664   8.991   9.040  -1.898  0.3564  0.1405  1.1572
  889MOL0     H22665   8.753   9.034  -1.819  0.1627 -1.6360  1.0661
  889MOL0     H22666   8.600   8.054  -0.469  0.9248  2.8633 -0.5667
  889MOL0     H22667   8.606   7.857  -0.343  0.7321 -0.1754 -0.7235
  889MOL0     H22668   8.541   7.572  -0.063 -0.0597 -0.4703  0.1512
  889MOL0     H22669   8.574   7.354   0.029  0.2945 -0.9996  0.6939
  889MOL0     H22670   8.501   7.201   0.143 -2.5051 -4.3837  2.2192
  889MOL0     H22671   8.664   7.131   0.160  0.9522 -0.3228 -0.0715
  889MOL0     H22672   8.444   7.131   0.385  0.4718 -0.9718  0.5053
  889MOL0     H22673   8.602   7.071   0.388 -1.3795  1.5582  1.7550
  889MOL0     H22674   8.561   6.899   0.233 -0.7493 -0.8952 -0.1687
  889MOL0     H22675   8.468   6.891   0.374 -1.6177 -0.6263  0.1739
  889MOL0     H22676   8.304   6.850   0.180 -5.4105  1.1806  0.8849
  889MOL0     H22677   8.342   7.008   0.110  1.2418  2.5472  0.2256
  889MOL0     H22678   8.087   7.101   0.425  0.8059 -0.5551  1.3134
  889MOL0     H22679   8.630   7.505   0.414  4.6575 -1.9406 -1.0281
  889MOL0     H22680   8.518   7.828   0.369  0.5180 -0.0719 -2.0980
  889MOL0     H22681   8.632   7.722   0.466  1.4383  1.1092  1.2470
  889MOL0     H22682   8.700   7.831   0.352  0.1683 -0.5812 -0.5148
  890MOL0     O22683   6.762   1.418   7.829 -0.1348  0.3166 -0.0766
  890MOL0     C22684   6.879   1.410   7.792  0.2746 -0.2257 -0.7834
  890MOL0     O22685   6.987   1.493   7.832 -0.0466 -0.4808 -0.2014
  890MOL0     C22686   6.959   1.607   7.898  0.6865 -0.5090  1.0447
  890MOL0     C22687   7.032   1.658   8.000 -0.4095  0.2451  0.4999
  890MOL0     C22688   7.015   1.781   8.065  0.4746 -0.0124  0.2095
  890MOL0     C22689   6.917   1.869   8.020 -0.2966 -0.1642  0.8269
  890MOL0     O22690   6.900   1.996   8.071 -0.4530 -0.1486 -0.2036
  890MOL0     C22691   7.022   2.063   8.106 -0.3137 -0.3984 -0.0115
  890MOL0     C22692   7.040   2.068   8.257 -0.6736 -0.3880  0.0158
  890MOL0     C22693   7.141   2.186   8.303  0.0098  0.2807  0.1302
  890MOL0     C22694   7.067   2.318   8.325  0.1675 -0.0985 -0.3642
  890MOL0     C22695   7.173   2.426   8.363  0.2688 -1.0178 -0.4129
  890MOL0     C22696   7.100   2.563   8.390  0.3331  0.4821  0.2488
  890MOL0     C22697   7.189   2.690   8.385  0.1058 -0.0046  1.5493
  890MOL0     C22698   7.296   2.696   8.500 -0.6171  0.5889 -0.2597
  890MOL0     N22699   7.232   2.715   8.634  0.8791 -0.9288  0.0995
  890MOL0     C22700   7.182   2.618   8.713  0.9640  0.1922 -0.3800
  890MOL0     C22701   7.146   2.680   8.825 -0.1863  0.3574 -0.0685
  890MOL0     C22702   7.114   2.602   8.956 -1.2017 -0.3250  0.4986
  890MOL0     C22703   6.972   2.590   8.987  0.5563  0.2878  0.2725
  890MOL0     C22704   6.897   2.727   8.997 -0.3067  0.0318 -0.4839
  890MOL0     C22705   6.772   2.707   9.078 -0.3789 -0.5218  0.4048
  890MOL0     O22706   6.690   2.827   9.104 -0.1601  0.2015 -0.4272
  890MOL0     C22707   6.731   2.908   9.209  0.5425 -0.1773  0.0180
  890MOL0     C22708   6.791   3.026   9.171 -0.1899  0.1749 -0.1466
  890MOL0     C22709   6.829   3.116   9.275 -0.6978 -0.0073  0.4043
  890MOL0     C22710   6.878   3.250   9.240  1.2757  0.4648  0.2066
  890MOL0     C22711   6.801   3.081   9.414  1.4676  0.1898  0.1721
  890MOL0     C22712   6.834   3.163   9.531  0.0733 -0.4682  0.1101
  890MOL0     O22713   6.757   3.138   9.640  0.0511  1.1583  0.2619
  890MOL0     C22714   6.768   3.223   9.740  0.3262 -0.0367 -0.0141
  890MOL0     C22715   6.836   3.179   9.855 -0.8661 -0.9832 -0.0318
  890MOL0     C22716   6.857   3.267   9.963 -0.5698  0.0585 -0.7253
  890MOL0     C22717   6.809   3.401   9.961  0.2808 -0.3444  0.0890
  890MOL0     O22718   6.808   3.474  10.079 -0.5820  0.2181  0.6706
  890MOL0     C22719   6.949   3.523  10.116  0.5399  0.6885  0.7260
  890MOL0     C22720   7.012   3.448  10.233 -0.2059  0.5572 -0.1016
  890MOL0     C22721   6.926   3.443  10.356 -0.1335  0.2291 -0.0846
  890MOL0     C22722   6.916   3.577  10.433 -0.5202  0.2529 -0.4793
  890MOL0     C22723   6.822   3.559  10.560 -0.0020  0.1457  0.1050
  890MOL0     C22724   6.815   3.691  10.635 -0.6955 -0.0768 -0.5759
  890MOL0     C22725   6.697   3.684  10.735 -0.5462  0.4816 -0.4727
  890MOL0     C22726   6.553   3.726  10.686  0.6081  1.1651  0.4884
  890MOL0    Cl22727   6.456   3.739  10.837  0.2638  0.1723 -0.2132
  890MOL0     C22728   6.750   3.449   9.846  0.7457  0.2622 -0.6974
  890MOL0     C22729   6.728   3.362   9.736 -0.1891  0.1198  1.2201
  890MOL0     O22730   6.923   3.246   9.527 -0.2386 -0.1361 -0.8507
  890MOL0     C22731   6.738   2.954   9.439 -0.3109  1.0013  0.1470
  890MOL0     C22732   6.704   2.864   9.342 -0.0280 -0.3162 -0.3187
  890MOL0     N22733   7.161   2.821   8.814 -0.3716 -0.5051 -0.5261
  890MOL0     N22734   7.217   2.837   8.698 -0.6566  0.6917 -0.0465
  890MOL0     C22735   6.819   1.819   7.927  0.5447  0.3674  0.2774
  890MOL0     C22736   6.847   1.694   7.870 -0.3011  1.2099 -0.3580
  890MOL0     C22737   6.909   1.314   7.683 -0.3517  0.4317 -0.6109
  890MOL0     C22738   7.046   1.287   7.644 -0.0581  0.0712 -0.4769
  890MOL0     C22739   7.085   1.185   7.558  0.7458  0.4623 -0.5002
  890MOL0     C22740   6.984   1.117   7.479 -0.2889  0.6206  0.3361
  890MOL0     O22741   7.009   1.032   7.362 -0.4969 -0.7279 -0.9554
  890MOL0     C22742   7.144   0.972   7.357 -0.2294  0.4151  0.0551
  890MOL0     C22743   7.239   1.029   7.241  0.2658 -0.0531 -0.3053
  890MOL0     C22744   7.371   0.967   7.254 -0.5435  0.5656 -0.0255
  890MOL0     C22745   7.471   1.021   7.146  0.6735  0.3950  0.4278
  890MOL0     C22746   7.598   0.957   7.153 -0.1937 -0.2614  0.0128
  890MOL0     C22747   7.713   0.915   7.144 -0.2700  0.1235 -0.1882
  890MOL0     C22748   6.852   1.157   7.496  0.6652  0.6452  0.4307
  890MOL0     C22749   6.814   1.245   7.594 -0.8895 -0.1469  0.1383
  890MOL0     C22750   6.658   1.264   7.605  0.1100 -0.4335 -0.3276
  890MOL0     H22751   7.116   1.596   8.030 -1.1122 -1.9368 -1.6870
  890MOL0     H22752   7.081   1.824   8.139 -0.2947  1.3769  0.1345
  890MOL0     H22753   7.004   2.163   8.065 -1.9935 -1.0041 -0.8440
  890MOL0     H22754   7.099   2.019   8.042 -1.8010  0.3814 -2.4671
  890MOL0     H22755   6.944   2.073   8.310  1.1612 -0.7862  3.6711
  890MOL0     H22756   7.083   1.972   8.286  1.9260  1.0041  1.1641
  890MOL0     H22757   7.178   2.160   8.403 -3.4354 -1.9957  1.0001
  890MOL0     H22758   7.222   2.208   8.233 -0.4322  1.8219  0.0762
  890MOL0     H22759   7.011   2.333   8.232  0.2563  0.7182 -0.2923
  890MOL0     H22760   6.993   2.310   8.405 -2.1658 -1.5432 -2.4995
  890MOL0     H22761   7.233   2.444   8.273  1.6648  1.1633  0.8722
  890MOL0     H22762   7.243   2.389   8.438 -1.2940 -0.1617  1.5639
  890MOL0     H22763   7.016   2.579   8.320  0.5772 -0.4766 -0.2752
  890MOL0     H22764   7.051   2.564   8.487  2.1537  1.8191  1.2195
  890MOL0     H22765   7.131   2.782   8.376  0.8460  0.3011 -1.2244
  890MOL0     H22766   7.240   2.698   8.289 -0.5783  0.0783  1.1859
  890MOL0     H22767   7.349   2.600   8.505 -1.3330  0.2365  0.9957
  890MOL0     H22768   7.369   2.777   8.502 -0.0706  0.2125 -2.6504
  890MOL0     H22769   7.185   2.511   8.696  0.6622 -0.0864  1.2188
  890MOL0     H22770   7.184   2.650   9.025  1.9218 -1.8911 -1.3527
  890MOL0     H22771   7.160   2.503   8.946 -1.4897 -0.3408 -0.8865
  890MOL0     H22772   6.940   2.526   8.904  2.3891  0.4107 -0.5707
  890MOL0     H22773   6.957   2.534   9.079 -0.2206 -1.5658 -0.9184
  890MOL0     H22774   6.969   2.787   9.053  1.4518 -1.8686 -0.5727
  890MOL0     H22775   6.887   2.758   8.893  1.9669 -0.8506 -1.0309
  890MOL0     H22776   6.724   2.638   9.008  0.8167  2.3075 -3.5458
  890MOL0     H22777   6.776   2.650   9.172  1.0598 -0.7538  0.2157
  890MOL0     H22778   6.803   3.045   9.065  0.8176  2.1574  0.2630
  890MOL0     H22779   6.986   3.255   9.219  0.7907  0.1550 -2.8088
  890MOL0     H22780   6.853   3.325   9.315 -2.2900 -1.1706  0.8671
  890MOL0     H22781   6.829   3.284   9.148  0.9404 -0.4961  0.0160
  890MOL0     H22782   6.881   3.081   9.864 -2.9874 -2.0615 -0.7573
  890MOL0     H22783   6.921   3.234  10.044  3.6117 -5.4260 -5.4001
  890MOL0     H22784   7.013   3.521  10.026 -0.6579 -0.8159 -0.1450
  890MOL0     H22785   6.935   3.625  10.153  1.9750  0.7399  1.1896
  890MOL0     H22786   7.022   3.341  10.212 -3.3050  0.3415 -0.9536
  890MOL0     H22787   7.108   3.491  10.264  1.4305 -2.8483  0.0418
  890MOL0     H22788   6.977   3.382  10.431  0.1137  3.6855  2.8737
  890MOL0     H22789   6.826   3.410  10.327  0.8764 -1.3270 -1.9900
  890MOL0     H22790   6.874   3.661  10.377  0.3908  0.1334 -1.3610
  890MOL0     H22791   7.019   3.611  10.450  0.1901 -1.0037 -2.0385
  890MOL0     H22792   6.720   3.542  10.525 -0.0723  0.6078  0.0787
  890MOL0     H22793   6.850   3.473  10.621  0.7354  0.8544  0.7923
  890MOL0     H22794   6.801   3.782  10.576  3.0883  0.6912 -0.5590
  890MOL0     H22795   6.906   3.689  10.696 -1.5733 -1.4812  0.7628
  890MOL0     H22796   6.720   3.743  10.824  0.1996  0.1093 -0.4077
  890MOL0     H22797   6.682   3.579  10.761 -2.3554  0.4068 -1.6416
  890MOL0     H22798   6.508   3.654  10.618  1.2001  0.4002  0.8970
  890MOL0     H22799   6.550   3.822  10.633 -0.0506  0.9506  0.1224
  890MOL0     H22800   6.717   3.553   9.845  4.8690  1.9895  3.5711
  890MOL0     H22801   6.679   3.393   9.645 -2.0872 -1.5787  1.5794
  890MOL0     H22802   6.724   2.921   9.542  1.2547 -1.0742 -0.2427
  890MOL0     H22803   6.648   2.776   9.376 -1.2860  1.0580  1.3663
  890MOL0     H22804   6.757   1.894   7.878  0.7434 -1.7266 -3.5436
  890MOL0     H22805   6.782   1.670   7.787 -1.6265  0.0127  0.9679
  890MOL0     H22806   7.125   1.341   7.695 -0.3377  0.6793 -0.6762
  890MOL0     H22807   7.190   1.161   7.543 -0.2365 -3.2458 -2.6061
  890MOL0     H22808   7.194   0.982   7.453  1.9410  0.7372 -1.0466
  890MOL0     H22809   7.138   0.866   7.328  0.4766  0.4554 -0.2545
  890MOL0     H22810   7.246   1.137   7.253 -2.9036  0.2024  0.0902
  890MOL0     H22811   7.190   1.010   7.145 -0.9229  1.2233  0.0240
  890MOL0     H22812   7.411   0.998   7.351 -2.3311  0.6788  0.7160
  890MOL0     H22813   7.372   0.858   7.247  1.4822  0.6309 -1.7023
  890MOL0     H22814   7.490   1.129   7.154  0.5220  0.7921 -3.0546
  890MOL0     H22815   7.424   1.008   7.048 -0.9280 -1.4553  1.3689
  890MOL0     H22816   7.817   0.888   7.151 -0.6073 -1.2529 -0.1690
  890MOL0     H22817   6.792   1.125   7.411 -0.4745 -3.5124  2.5685
  890MOL0     H22818   6.614   1.274   7.705  0.8171  0.5709 -0.1001
  890MOL0     H22819   6.651   1.354   7.543 -2.6983 -0.1499  0.2760
  890MOL0     H22820   6.603   1.183   7.558  0.0399 -0.1385 -0.7527
  891MOL0     O22821   9.997   1.418   0.019 -0.1946  0.6902  0.1753
  891MOL0     C22822   9.995   1.541   0.031  0.3066  0.5237  0.4449
  891MOL0     O22823  10.110   1.617   0.044 -0.0788  0.3426 -0.0742
  891MOL0     C22824  10.235   1.552   0.030  0.2730  0.3285  0.7230
  891MOL0     C22825  10.328   1.565   0.138 -1.2092  0.3646 -0.2084
  891MOL0     C22826  10.458   1.509   0.128  0.3042 -0.3271 -0.1683
  891MOL0     C22827  10.492   1.432   0.015  0.4548  0.6335  0.5434
  891MOL0     O22828  10.614   1.371  -0.002 -0.7646  0.1907 -0.2017
  891MOL0     C22829  10.702   1.352   0.110  0.2255  0.6216  0.7324
  891MOL0     C22830  10.643   1.243   0.194  0.4708 -0.1616 -0.2925
  891MOL0     C22831  10.722   1.220   0.321 -0.0475 -0.9137  1.6640
  891MOL0     C22832  10.652   1.119   0.404  0.3521 -0.3457  0.1736
  891MOL0     C22833  10.740   1.076   0.519 -1.0283 -0.2853  0.8303
  891MOL0     C22834  10.865   0.997   0.480 -0.4859  0.2406  0.2109
  891MOL0     C22835  10.827   0.879   0.394  0.2299 -0.1909 -0.8764
  891MOL0     C22836  10.936   0.778   0.373  0.7280  0.0709 -1.5260
  891MOL0     N22837  10.967   0.706   0.502 -0.4781 -0.1723  1.3944
  891MOL0     C22838  11.071   0.732   0.581 -0.0886  0.5136 -0.7244
  891MOL0     C22839  11.098   0.626   0.655  1.1026 -0.1412 -0.0507
  891MOL0     C22840  11.200   0.614   0.761  0.3072 -0.0999  0.8673
  891MOL0     C22841  11.340   0.651   0.712  0.3245 -0.0305  0.6947
  891MOL0     C22842  11.444   0.621   0.820 -0.2260 -0.1502 -0.5420
  891MOL0     C22843  11.597   0.652   0.780  0.0810  0.2585  0.0494
  891MOL0     O22844  11.599   0.754   0.687  0.5919 -1.1274  0.2699
  891MOL0     C22845  11.727   0.810   0.674 -0.0183  0.0248  0.3601
  891MOL0     C22846  11.847   0.743   0.634  0.7168  0.9797  0.8691
  891MOL0     C22847  11.964   0.799   0.607  0.3931  0.3170  0.2434
  891MOL0     C22848  12.077   0.702   0.571 -0.8017  0.8075 -0.1179
  891MOL0     C22849  11.989   0.937   0.636  0.0686 -0.0857 -0.7977
  891MOL0     C22850  12.131   0.994   0.634  0.2125  1.0916  0.3548
  891MOL0     O22851  12.241   0.922   0.596 -0.0001 -0.3804 -0.2339
  891MOL0     C22852  12.367   0.984   0.616  0.0497  0.9236  0.4009
  891MOL0     C22853  12.401   1.043   0.740 -0.6342  0.2644 -0.4167
  891MOL0     C22854  12.527   1.101   0.753  0.0637  0.4759 -0.0706
  891MOL0     C22855  12.630   1.084   0.660 -0.2462  0.5626 -1.1656
  891MOL0     O22856  12.760   1.128   0.676  0.2631  0.5893 -0.5935
  891MOL0     C22857  12.790   1.184   0.802 -0.2447 -0.0009  0.5420
  891MOL0     C22858  12.940   1.228   0.794 -0.2630  0.1185  0.3471
  891MOL0     C22859  12.978   1.334   0.682 -0.1034  0.0208 -0.3359
  891MOL0     C22860  12.931   1.472   0.727 -0.3001 -0.0956  0.0064
  891MOL0     C22861  12.974   1.581   0.647 -0.9453 -0.0153  0.3113
  891MOL0     C22862  12.970   1.715   0.716 -0.2937 -1.1480  0.2051
  891MOL0     C22863  12.842   1.762   0.786  0.3921  0.0754 -0.1656
  891MOL0     C22864  12.829   1.918   0.795 -1.3468  0.2360  0.0706
  891MOL0    Cl22865  12.978   1.960   0.900 -0.1954  0.3036  0.1714
  891MOL0     C22866  12.600   1.012   0.553  0.1129 -0.0163  0.2968
  891MOL0     C22867  12.472   0.969   0.528 -0.4670 -0.5192  0.9461
  891MOL0     O22868  12.127   1.116   0.651 -0.7619  0.2969  0.2186
  891MOL0     C22869  11.879   1.004   0.691  0.1359 -0.2502 -0.3023
  891MOL0     C22870  11.752   0.945   0.711 -0.5325 -0.0133  0.2408
  891MOL0     N22871  11.016   0.524   0.621 -0.0503 -0.0388  1.6660
  891MOL0     N22872  10.933   0.577   0.526 -0.2719  0.7245  0.5612
  891MOL0     C22873  10.404   1.423  -0.094 -0.0214 -0.2060  0.0515
  891MOL0     C22874  10.277   1.486  -0.085 -0.8126  0.5326 -0.2456
  891MOL0     C22875   9.862   1.602   0.006  0.5140 -0.4703  0.5582
  891MOL0     C22876   9.760   1.526  -0.048 -0.9156  0.4717 -0.3858
  891MOL0     C22877   9.634   1.574  -0.066  1.0335  0.8110  0.4617
  891MOL0     C22878   9.593   1.710  -0.038 -0.7211  0.3823  0.2032
  891MOL0     O22879   9.467   1.752  -0.060 -0.0098  0.6380  0.7251
  891MOL0     C22880   9.404   1.795   0.058  0.2938 -0.5004  0.6805
  891MOL0     C22881   9.256   1.781   0.034  0.5534 -0.2470  0.9148
  891MOL0     C22882   9.212   1.864  -0.087  0.1240 -0.6680  0.4225
  891MOL0     C22883   9.068   1.853  -0.113  0.4739  0.0259  0.4205
  891MOL0     C22884   9.014   1.719  -0.129  0.8245 -0.1518 -0.0626
  891MOL0     C22885   8.968   1.608  -0.144 -0.0763 -0.3305  0.7139
  891MOL0     C22886   9.697   1.784   0.020  0.1474 -0.3571 -0.4446
  891MOL0     C22887   9.825   1.732   0.053  0.1717 -1.6885 -0.0595
  891MOL0     C22888   9.922   1.833   0.114 -0.0094 -0.7335 -0.3816
  891MOL0     H22889  10.292   1.634   0.214 -0.6534  3.0878 -2.2611
  891MOL0     H22890  10.518   1.528   0.216  1.8548  0.0888 -1.2872
  891MOL0     H22891  10.732   1.442   0.165  2.6479  0.4564 -0.2095
  891MOL0     H22892  10.803   1.321   0.080 -0.3870 -3.9449  2.6285
  891MOL0     H22893  10.542   1.271   0.223 -0.4412 -2.6906 -0.7455
  891MOL0     H22894  10.636   1.152   0.133 -0.8029 -0.2444 -0.0536
  891MOL0     H22895  10.821   1.189   0.286 -1.4859 -2.7691 -1.1896
  891MOL0     H22896  10.732   1.313   0.377 -1.4881 -0.9514  2.0036
  891MOL0     H22897  10.555   1.147   0.446  0.1882  0.3098 -0.6148
  891MOL0     H22898  10.627   1.033   0.342  0.1416 -0.2349  0.1038
  891MOL0     H22899  10.673   1.006   0.569  0.4947 -3.5725 -1.3950
  891MOL0     H22900  10.763   1.160   0.585 -3.2707 -0.7022  2.2610
  891MOL0     H22901  10.933   1.061   0.423  0.0641 -1.0094 -0.5923
  891MOL0     H22902  10.914   0.980   0.576  0.3290  2.9756  0.3676
  891MOL0     H22903  10.799   0.919   0.296 -1.1911  1.6429  0.2215
  891MOL0     H22904  10.744   0.827   0.442  0.1453  2.2236  1.9028
  891MOL0     H22905  10.886   0.706   0.307 -3.4215  0.6958  0.5687
  891MOL0     H22906  11.034   0.816   0.342  1.7634  0.3339  1.7572
  891MOL0     H22907  11.119   0.826   0.608 -0.4127  0.9057 -1.4781
  891MOL0     H22908  11.210   0.512   0.797  0.8320 -0.0561  0.8476
  891MOL0     H22909  11.164   0.681   0.840 -1.5721  0.0620 -0.0742
  891MOL0     H22910  11.361   0.595   0.621  0.0852  0.6406  0.2151
  891MOL0     H22911  11.340   0.753   0.673  0.5129 -0.6469 -0.9771
  891MOL0     H22912  11.407   0.683   0.903  0.4286 -0.6843  0.1659
  891MOL0     H22913  11.434   0.519   0.858  0.7174 -0.0862 -0.0928
  891MOL0     H22914  11.642   0.677   0.877 -0.8302  0.9186  0.3185
  891MOL0     H22915  11.649   0.567   0.736  3.9389  0.9362  2.7923
  891MOL0     H22916  11.845   0.639   0.602 -0.9631  1.4914 -0.9257
  891MOL0     H22917  12.131   0.733   0.481 -0.0192 -2.9004 -1.0940
  891MOL0     H22918  12.048   0.601   0.542 -0.6632  0.4698  0.8702
  891MOL0     H22919  12.129   0.705   0.667  0.3584 -1.4011 -0.6088
  891MOL0     H22920  12.336   1.036   0.827 -0.1274  0.5273 -0.0181
  891MOL0     H22921  12.553   1.133   0.853  0.7491  1.9024 -0.6782
  891MOL0     H22922  12.727   1.271   0.824 -0.0157  0.3428 -0.1513
  891MOL0     H22923  12.776   1.107   0.879 -0.4395 -0.6202 -0.1029
  891MOL0     H22924  12.961   1.266   0.895 -1.8536  0.1731  0.6733
  891MOL0     H22925  13.001   1.139   0.777 -0.9019 -0.7249  2.1882
  891MOL0     H22926  12.927   1.310   0.588 -0.4741  1.4998 -0.5338
  891MOL0     H22927  13.086   1.336   0.666  0.2811  3.0289  1.8774
  891MOL0     H22928  12.967   1.478   0.830  0.7072  0.2956 -0.3577
  891MOL0     H22929  12.822   1.463   0.723 -0.1789 -2.2962  0.2498
  891MOL0     H22930  13.071   1.564   0.599 -1.0950  1.9774 -0.8149
  891MOL0     H22931  12.904   1.580   0.563  0.4281  2.7804 -1.0144
  891MOL0     H22932  12.989   1.792   0.640 -2.1122 -1.3481 -0.5055
  891MOL0     H22933  13.064   1.723   0.771 -0.8086 -0.4896  1.0185
  891MOL0     H22934  12.843   1.720   0.887  1.5636  2.1792  0.7698
  891MOL0     H22935  12.752   1.718   0.743 -0.1708  1.2551 -0.2227
  891MOL0     H22936  12.733   1.946   0.841 -2.4241 -0.6902 -1.5257
  891MOL0     H22937  12.827   1.972   0.699 -1.6890 -0.6956 -0.4542
  891MOL0     H22938  12.653   1.012   0.459 -1.8511  0.9467 -0.8708
  891MOL0     H22939  12.454   0.938   0.426 -1.4968 -0.1150  0.9871
  891MOL0     H22940  11.889   1.098   0.745 -2.7216 -0.6004  0.9957
  891MOL0     H22941  11.675   1.008   0.755  0.7667  1.6562  0.2236
  891MOL0     H22942  10.431   1.383  -0.191  1.7990 -0.5282  0.6442
  891MOL0     H22943  10.209   1.479  -0.170 -0.7298  1.2323 -0.3809
  891MOL0     H22944   9.776   1.428  -0.093  2.0181  0.8552 -0.3526
  891MOL0     H22945   9.557   1.504  -0.098 -0.6483  2.1029  1.4623
  891MOL0     H22946   9.424   1.722   0.137  1.3870 -0.5855  0.3549
  891MOL0     H22947   9.433   1.897   0.087 -3.2972  1.3704 -1.6128
  891MOL0     H22948   9.210   1.822   0.124 -1.7045  1.1015 -0.7132
  891MOL0     H22949   9.227   1.676   0.033 -0.0638 -0.1140 -1.0493
  891MOL0     H22950   9.239   1.970  -0.079 -0.7620 -0.3799 -0.2006
  891MOL0     H22951   9.269   1.842  -0.178  0.0478 -2.6873  0.8189
  891MOL0     H22952   9.042   1.901  -0.209 -0.2475 -0.1893  0.5006
  891MOL0     H22953   9.016   1.911  -0.036  0.8315 -0.2834  0.8951
  891MOL0     H22954   8.919   1.516  -0.171  0.3289 -0.7148  1.2606
  891MOL0     H22955   9.665   1.885   0.046  4.1508  0.9769  0.0295
  891MOL0     H22956   9.871   1.911   0.171  1.5401 -0.0426  0.1030
  891MOL0     H22957   9.990   1.789   0.187  0.8077 -2.7708 -2.2590
  891MOL0     H22958   9.973   1.878   0.028 -1.1316  0.4249 -0.4741
  892MOL0     O22959   5.681   3.940   2.624 -0.0427  0.5878  0.0136
  892MOL0     C22960   5.779   3.913   2.684 -0.4237 -0.0165 -0.3550
  892MOL0     O22961   5.861   3.805   2.648 -0.6890 -0.6698 -0.0565
  892MOL0     C22962   5.828   3.733   2.539 -0.0712  0.2903 -0.8277
  892MOL0     C22963   5.745   3.629   2.558 -0.6067  0.0131  0.5405
  892MOL0     C22964   5.709   3.547   2.454  0.2047  0.1847 -0.5572
  892MOL0     C22965   5.766   3.559   2.326 -0.3898  0.1779  0.1869
  892MOL0     O22966   5.738   3.463   2.223 -0.2463 -0.2124  1.0082
  892MOL0     C22967   5.615   3.387   2.212  0.5337 -0.3583 -0.0468
  892MOL0     C22968   5.609   3.329   2.068 -0.3550 -0.4910  0.0590
  892MOL0     C22969   5.598   3.173   2.061  0.1225 -0.1139 -0.0887
  892MOL0     C22970   5.726   3.110   2.001  0.4504  0.7476  0.4620
  892MOL0     C22971   5.726   2.956   2.013 -0.3056  0.3416  0.7003
  892MOL0     C22972   5.603   2.892   1.958 -0.6223 -0.3850  0.1005
  892MOL0     C22973   5.580   2.917   1.806  0.4894  0.3269  0.7121
  892MOL0     C22974   5.451   2.847   1.779 -0.1509 -0.0676  0.8398
  892MOL0     N22975   5.423   2.817   1.637 -0.1010  0.3194  0.9763
  892MOL0     C22976   5.453   2.893   1.528  0.5595 -0.4401  0.5608
  892MOL0     C22977   5.349   2.873   1.437 -0.5608 -0.6828  0.3692
  892MOL0     C22978   5.346   2.938   1.306  0.3165  1.1294 -0.0792
  892MOL0     C22979   5.362   3.088   1.304 -0.0099 -0.3066  0.3341
  892MOL0     C22980   5.263   3.161   1.392 -0.4025 -0.4391 -1.2988
  892MOL0     C22981   5.121   3.129   1.371 -0.9624 -0.4603 -1.2480
  892MOL0     O22982   5.083   3.173   1.247  0.5890  0.5328 -0.2511
  892MOL0     C22983   5.018   3.092   1.159  0.8217 -0.3289 -0.9219
  892MOL0     C22984   4.882   3.064   1.173  0.0460 -0.0917 -0.1460
  892MOL0     C22985   4.813   2.978   1.096 -0.4557 -0.1100 -0.2820
  892MOL0     C22986   4.670   2.948   1.119 -0.7539 -0.1945 -0.6307
  892MOL0     C22987   4.888   2.910   0.991 -0.1502  0.2400 -0.4565
  892MOL0     C22988   4.838   2.797   0.901  0.8079  0.1266  0.2493
  892MOL0     O22989   4.918   2.753   0.799 -0.8251 -0.2947 -0.1194
  892MOL0     C22990   4.867   2.680   0.696  1.1670 -0.5629 -0.3552
  892MOL0     C22991   4.734   2.680   0.642 -0.0368  0.0884 -0.0527
  892MOL0     C22992   4.709   2.609   0.527 -0.2823 -0.3508  0.0552
  892MOL0     C22993   4.805   2.535   0.460  0.1466 -0.4079  0.1504
  892MOL0     O22994   4.780   2.457   0.356  0.4345  0.3882  0.0938
  892MOL0     C22995   4.651   2.409   0.331  0.1955  1.0100 -0.0575
  892MOL0     C22996   4.674   2.276   0.237  0.0747 -0.7495  0.3257
  892MOL0     C22997   4.536   2.230   0.175 -0.4147  0.1231  0.3085
  892MOL0     C22998   4.559   2.127   0.068  0.0520 -0.0616  0.0165
  892MOL0     C22999   4.433   2.049   0.021  1.1672  0.1487 -0.1540
  892MOL0     C23000   4.344   2.144  -0.065  0.0177 -0.0091  0.2967
  892MOL0     C23001   4.189   2.109  -0.056  1.0973 -0.1360 -0.0136
  892MOL0     C23002   4.097   2.225  -0.101  1.0690  0.7763  0.4380
  892MOL0    Cl23003   4.084   2.211  -0.274 -0.1195  0.3589  0.3689
  892MOL0     C23004   4.939   2.531   0.511 -0.3786 -0.8840 -1.0362
  892MOL0     C23005   4.965   2.609   0.627 -0.1524  0.4498  0.9787
  892MOL0     O23006   4.734   2.742   0.938  0.0225  0.1479  0.0420
  892MOL0     C23007   5.016   2.956   0.964 -0.3962 -0.1179  0.0743
  892MOL0     C23008   5.086   3.048   1.044 -0.1210 -0.6982  0.2819
  892MOL0     N23009   5.270   2.775   1.481 -0.1289  0.3986 -0.4378
  892MOL0     N23010   5.316   2.744   1.600 -0.2410  0.9064 -0.8935
  892MOL0     C23011   5.845   3.673   2.300 -0.2825  0.3588  0.5539
  892MOL0     C23012   5.872   3.755   2.407 -0.1420  0.4439  0.0164
  892MOL0     C23013   5.801   3.968   2.821 -0.2880  0.1463  0.3438
  892MOL0     C23014   5.844   3.884   2.925  0.6529 -0.4660 -0.3028
  892MOL0     C23015   5.856   3.929   3.057  0.1647 -0.2653  0.2714
  892MOL0     C23016   5.831   4.070   3.087 -0.6657  0.4573  0.0552
  892MOL0     O23017   5.843   4.116   3.208 -0.0179  0.3674  0.2593
  892MOL0     C23018   5.782   4.038   3.312 -0.0624 -1.2265 -0.4416
  892MOL0     C23019   5.892   3.998   3.406  0.6017  1.0435 -0.3149
  892MOL0     C23020   5.944   4.129   3.479  0.1924 -0.4218 -0.2848
  892MOL0     C23021   6.036   4.091   3.600 -1.2190 -0.6153  0.7213
  892MOL0     C23022   6.136   3.991   3.567 -0.3464 -0.5778 -0.9605
  892MOL0     C23023   6.212   3.903   3.556  0.4370 -0.1423 -0.7185
  892MOL0     C23024   5.796   4.161   2.988 -0.4738  0.5080  0.4605
  892MOL0     C23025   5.786   4.110   2.852 -0.4611  0.8329 -0.9464
  892MOL0     C23026   5.754   4.212   2.747 -0.5128  0.5461 -0.9118
  892MOL0     H23027   5.698   3.612   2.654  1.1896 -2.8928  1.0332
  892MOL0     H23028   5.645   3.463   2.477  0.2201  0.6782  1.4634
  892MOL0     H23029   5.533   3.457   2.229  1.2941  0.4493  0.4013
  892MOL0     H23030   5.605   3.309   2.287 -2.0517  0.1053  0.1709
  892MOL0     H23031   5.528   3.381   2.017  1.1732  0.6165 -1.3749
  892MOL0     H23032   5.700   3.363   2.017 -1.8457  2.7032 -0.7350
  892MOL0     H23033   5.571   3.137   2.161 -1.4883 -0.6311 -0.6686
  892MOL0     H23034   5.516   3.151   1.991  0.7686 -1.4406 -0.4690
  892MOL0     H23035   5.728   3.138   1.895  3.0177  3.0978  1.0179
  892MOL0     H23036   5.821   3.147   2.039  0.8209  0.1680  0.1126
  892MOL0     H23037   5.741   2.904   2.108 -1.2797 -0.2333  0.5525
  892MOL0     H23038   5.808   2.921   1.949 -1.8496  1.8230 -2.2986
  892MOL0     H23039   5.628   2.786   1.973 -1.0361 -0.3164  1.4191
  892MOL0     H23040   5.517   2.916   2.023 -0.5864 -1.8491  0.7289
  892MOL0     H23041   5.660   2.882   1.741  1.0326  1.8716  0.5068
  892MOL0     H23042   5.574   3.026   1.799  2.8803  0.4238 -0.9298
  892MOL0     H23043   5.450   2.751   1.831  1.8448 -0.2505  0.6241
  892MOL0     H23044   5.377   2.908   1.831  1.2071  1.1000  1.4406
  892MOL0     H23045   5.531   2.967   1.516 -0.6908  0.5848 -2.2564
  892MOL0     H23046   5.258   2.906   1.250  0.5716 -1.6376  0.9648
  892MOL0     H23047   5.433   2.894   1.257  1.4106  1.1591  1.7500
  892MOL0     H23048   5.463   3.107   1.341 -1.0336  1.0499  2.6517
  892MOL0     H23049   5.365   3.122   1.200 -0.0928 -1.5482 -0.0967
  892MOL0     H23050   5.277   3.131   1.496  2.2471  0.8482 -1.2075
  892MOL0     H23051   5.271   3.270   1.389 -2.6812 -0.1542  0.3811
  892MOL0     H23052   5.106   3.022   1.386  0.8247 -0.7639 -1.5056
  892MOL0     H23053   5.068   3.183   1.450  0.3216 -0.2455 -0.5224
  892MOL0     H23054   4.831   3.107   1.258 -1.2561 -2.1141  0.1555
  892MOL0     H23055   4.625   3.013   1.194 -0.3316 -0.7225  0.0882
  892MOL0     H23056   4.661   2.846   1.158  0.7506 -0.1994 -0.2279
  892MOL0     H23057   4.603   2.957   1.033  0.2710  1.0072 -1.3311
  892MOL0     H23058   4.656   2.737   0.690 -2.0915 -1.1754 -1.6949
  892MOL0     H23059   4.615   2.626   0.476  1.1330  2.0694 -1.9618
  892MOL0     H23060   4.608   2.376   0.426 -0.7928 -2.4019 -1.5402
  892MOL0     H23061   4.584   2.481   0.282 -3.0187 -2.5787 -1.3891
  892MOL0     H23062   4.736   2.289   0.147  0.0179 -2.1369  0.0545
  892MOL0     H23063   4.715   2.195   0.298 -1.9790 -0.5275  2.1242
  892MOL0     H23064   4.488   2.316   0.127 -0.9716 -1.0722 -1.3624
  892MOL0     H23065   4.465   2.189   0.247 -0.1248  0.5005  0.8154
  892MOL0     H23066   4.637   2.060   0.104  0.7417 -1.1433 -3.1843
  892MOL0     H23067   4.597   2.178  -0.021 -1.7542  2.5568  0.6118
  892MOL0     H23068   4.447   1.962  -0.044  0.1264  0.8809 -1.4109
  892MOL0     H23069   4.377   2.025   0.112  1.1231  2.6635  0.5427
  892MOL0     H23070   4.381   2.157  -0.167  0.0151  2.2241  0.5368
  892MOL0     H23071   4.359   2.244  -0.024  1.2043  0.7044 -1.7341
  892MOL0     H23072   4.163   2.085   0.048 -0.1969  0.9468 -0.0560
  892MOL0     H23073   4.165   2.016  -0.108 -1.4608 -0.0052  0.8031
  892MOL0     H23074   4.136   2.322  -0.070  1.4721  1.2532 -1.4380
  892MOL0     H23075   3.995   2.213  -0.064  1.4539  0.4225  1.4313
  892MOL0     H23076   5.019   2.465   0.480  0.4117 -1.0634  1.2125
  892MOL0     H23077   5.068   2.626   0.655  0.7190  0.5762 -1.9771
  892MOL0     H23078   5.073   2.926   0.876  2.1142  4.6356 -0.2322
  892MOL0     H23079   5.186   3.087   1.028 -0.5220  1.8779  3.1761
  892MOL0     H23080   5.889   3.685   2.201  0.3503 -0.8674  0.6676
  892MOL0     H23081   5.939   3.839   2.390  2.3905 -1.8655 -2.4756
  892MOL0     H23082   5.840   3.777   2.907  2.5687 -0.6371  0.0688
  892MOL0     H23083   5.889   3.867   3.140  1.0984  0.8230  0.7476
  892MOL0     H23084   5.710   4.098   3.368 -1.2492 -2.5713 -0.4951
  892MOL0     H23085   5.736   3.944   3.280 -2.9751 -1.0951  2.7873
  892MOL0     H23086   5.972   3.930   3.375 -0.0320 -0.6858  1.6049
  892MOL0     H23087   5.845   3.936   3.483  1.0531  0.0282 -0.8394
  892MOL0     H23088   5.994   4.203   3.415 -2.3127  1.5485 -0.1163
  892MOL0     H23089   5.861   4.188   3.519 -1.4197 -1.6376 -1.6842
  892MOL0     H23090   5.968   4.052   3.676 -3.0550  0.5558 -0.2656
  892MOL0     H23091   6.089   4.182   3.628  0.6361 -0.8001 -1.7670
  892MOL0     H23092   6.270   3.817   3.528  0.6736 -0.8423  1.6883
  892MOL0     H23093   5.773   4.265   3.009  0.6705  0.6860  0.8882
  892MOL0     H23094   5.824   4.204   2.664  1.6933  1.9128  0.7043
  892MOL0     H23095   5.654   4.194   2.705 -0.5628 -4.0053  0.5543
  892MOL0     H23096   5.779   4.309   2.789  3.1404 -0.8333  0.4742
  893MOL0     O23097  11.392   1.064  11.107 -0.1064 -0.1929 -0.1249
  893MOL0     C23098  11.372   0.993  11.209 -0.2114 -1.1396 -0.6317
  893MOL0     O23099  11.469   0.945  11.292  0.6921 -0.8502  0.6123
  893MOL0     C23100  11.600   0.975  11.250 -0.7854 -0.3337  0.0094
  893MOL0     C23101  11.660   1.080  11.312  0.3392  0.2526 -0.3780
  893MOL0     C23102  11.794   1.103  11.307 -0.7473  1.2075  0.5804
  893MOL0     C23103  11.878   1.021  11.236 -0.1789 -0.2332  0.1400
  893MOL0     O23104  12.013   1.042  11.243  0.0939  0.8233 -0.7320
  893MOL0     C23105  12.096   0.988  11.140  0.2405 -0.5156 -0.7867
  893MOL0     C23106  12.232   1.042  11.160  0.4938  0.2628 -0.4224
  893MOL0     C23107  12.286   1.011  11.309  0.6756 -0.5912 -0.4915
  893MOL0     C23108  12.439   1.052  11.310  0.3563  0.4982  0.3387
  893MOL0     C23109  12.484   1.052  11.452  1.3196  0.8762 -0.5819
  893MOL0     C23110  12.622   1.121  11.470 -0.4052  0.1444 -0.1759
  893MOL0     C23111  12.734   1.025  11.401  0.4842 -0.8029 -0.1487
  893MOL0     C23112  12.774   0.914  11.499 -0.6902 -0.9271 -0.0779
  893MOL0     N23113  12.845   0.963  11.622  0.0976  0.5247 -0.0727
  893MOL0     C23114  12.979   0.970  11.646  0.1183 -0.6840 -0.0442
  893MOL0     C23115  13.003   1.025  11.763 -0.1952 -0.1696 -0.3181
  893MOL0     C23116  13.146   1.051  11.817 -0.2226 -0.7387  0.0120
  893MOL0     C23117  13.157   1.185  11.889 -0.5167  0.2112 -0.6228
  893MOL0     C23118  13.295   1.225  11.942 -0.9461  0.7119  0.0629
  893MOL0     C23119  13.356   1.128  12.046  0.1202 -0.2279  0.3251
  893MOL0     O23120  13.499   1.123  12.028 -0.1419  0.3734  0.6247
  893MOL0     C23121  13.585   1.203  12.095  0.1251  0.4254  0.2356
  893MOL0     C23122  13.558   1.308  12.183  0.6278  0.5894  0.7340
  893MOL0     C23123  13.662   1.381  12.247 -0.5942 -0.6787  0.3357
  893MOL0     C23124  13.612   1.476  12.353  0.2429 -0.7466  0.1165
  893MOL0     C23125  13.800   1.345  12.222  0.4184 -0.8476  0.2520
  893MOL0     C23126  13.912   1.407  12.301  1.2586  0.0047  0.3046
  893MOL0     O23127  13.890   1.512  12.391 -0.2948  0.1943 -0.2379
  893MOL0     C23128  14.005   1.547  12.462 -0.1097  0.7008 -0.6070
  893MOL0     C23129  14.075   1.663  12.454 -0.2907 -1.5529 -0.0078
  893MOL0     C23130  14.181   1.689  12.545 -0.6994 -0.2256 -0.5822
  893MOL0     C23131  14.219   1.596  12.637  0.2048 -0.4281 -0.2730
  893MOL0     O23132  14.335   1.621  12.705 -0.5720  0.8831  0.5429
  893MOL0     C23133  14.442   1.524  12.687  0.3607 -0.8355 -0.3261
  893MOL0     C23134  14.544   1.570  12.585 -0.9667  0.8965  0.8129
  893MOL0     C23135  14.599   1.713  12.592 -0.4169  0.7749 -0.1411
  893MOL0     C23136  14.538   1.808  12.483 -0.2636  0.2368 -0.8710
  893MOL0     C23137  14.611   1.943  12.479  0.0598  0.2922  0.1304
  893MOL0     C23138  14.529   2.034  12.385 -0.3736  0.1714 -1.1416
  893MOL0     C23139  14.433   2.128  12.475 -1.1297  0.8121  0.1917
  893MOL0     C23140  14.490   2.257  12.534 -0.0626  0.1135  0.5956
  893MOL0    Cl23141  14.594   2.227  12.671 -0.2830 -0.2204 -0.1682
  893MOL0     C23142  14.151   1.473  12.653  0.1896 -0.0980  0.7013
  893MOL0     C23143  14.050   1.448  12.556 -0.5246  0.7458 -0.1966
  893MOL0     O23144  14.023   1.352  12.279  0.6315 -0.0461 -0.2674
  893MOL0     C23145  13.826   1.247  12.123  0.3315 -0.0037 -0.1997
  893MOL0     C23146  13.720   1.179  12.059 -0.7345 -0.5966  0.1599
  893MOL0     N23147  12.879   1.049  11.817 -0.7943  0.5103 -0.2426
  893MOL0     N23148  12.787   0.994  11.742 -0.5357  0.4218 -0.3362
  893MOL0     C23149  11.819   0.906  11.170  0.2924 -0.1967  0.5494
  893MOL0     C23150  11.678   0.897  11.167 -0.0470  0.1395  0.8909
  893MOL0     C23151  11.237   0.942  11.253 -0.2943  0.7999  0.3130
  893MOL0     C23152  11.227   0.882  11.382  0.1390 -0.6432  0.5430
  893MOL0     C23153  11.100   0.849  11.431 -0.0932  0.3100  0.3561
  893MOL0     C23154  10.983   0.873  11.359  0.1653 -0.5640  1.1080
  893MOL0     O23155  10.870   0.820  11.413  0.0186 -0.0482 -0.3656
  893MOL0     C23156  10.748   0.847  11.341  0.0656 -0.1873 -0.1355
  893MOL0     C23157  10.637   0.770  11.419  0.3805 -0.1348  0.2112
  893MOL0     C23158  10.605   0.819  11.558 -0.5985 -0.0368  0.1601
  893MOL0     C23159  10.599   0.710  11.666 -0.4545  0.6137  0.0426
  893MOL0     C23160  10.474   0.639  11.648  0.1094  0.5034  0.2005
  893MOL0     C23161  10.373   0.588  11.623  0.4229  0.2337 -0.0127
  893MOL0     C23162  10.995   0.922  11.229 -0.5019 -0.8570  0.5132
  893MOL0     C23163  11.118   0.954  11.178 -0.1592 -0.0301 -0.8013
  893MOL0     C23164  11.111   1.011  11.047 -0.7995  0.3958 -0.8557
  893MOL0     H23165  11.594   1.143  11.371 -2.4564 -1.8888 -0.9686
  893MOL0     H23166  11.831   1.188  11.364 -0.8500  3.5563 -2.6167
  893MOL0     H23167  12.056   1.029  11.047 -2.2848 -1.2363 -0.1082
  893MOL0     H23168  12.088   0.880  11.152 -0.1658 -0.4240 -0.1829
  893MOL0     H23169  12.305   1.003  11.088  1.7174  2.2491 -0.3224
  893MOL0     H23170  12.230   1.150  11.143  1.5001  0.2795 -0.4946
  893MOL0     H23171  12.233   1.061  11.391  1.2208  1.6963 -1.4552
  893MOL0     H23172  12.272   0.905  11.331 -2.2855 -0.1031  0.3634
  893MOL0     H23173  12.491   0.968  11.264 -1.9313 -2.5018  2.7518
  893MOL0     H23174  12.456   1.147  11.259  2.2595  0.1126  0.1732
  893MOL0     H23175  12.480   0.951  11.492 -0.3347  1.1353 -0.0316
  893MOL0     H23176  12.412   1.099  11.520 -0.6138 -3.5722  0.8300
  893MOL0     H23177  12.623   1.216  11.417 -0.2568  0.0500 -0.3414
  893MOL0     H23178  12.637   1.133  11.578  1.0486 -0.4827 -0.2850
  893MOL0     H23179  12.830   1.075  11.385 -0.9752  2.2220 -0.3532
  893MOL0     H23180  12.702   0.987  11.303 -1.3229 -1.7321  0.7557
  893MOL0     H23181  12.683   0.862  11.530 -0.4052 -1.3632  0.0275
  893MOL0     H23182  12.849   0.854  11.447  0.5600  1.7796 -1.6230
  893MOL0     H23183  13.058   0.937  11.578 -0.9529 -0.7343 -1.2905
  893MOL0     H23184  13.198   1.040  11.721 -0.8932 -2.2282 -0.2069
  893MOL0     H23185  13.182   0.974  11.885 -0.1933 -2.8843 -2.2803
  893MOL0     H23186  13.132   1.269  11.824 -1.7801 -1.0165 -1.7923
  893MOL0     H23187  13.097   1.191  11.980  2.5912  0.6604  1.5795
  893MOL0     H23188  13.357   1.221  11.852 -0.3161 -1.8417  0.5442
  893MOL0     H23189  13.290   1.325  11.986  1.3795  1.0997 -0.4551
  893MOL0     H23190  13.318   1.156  12.145 -1.2697 -2.6729  0.5644
  893MOL0     H23191  13.327   1.023  12.037  1.0039 -0.4302 -0.2829
  893MOL0     H23192  13.454   1.331  12.204  0.3324 -1.5679  1.9411
  893MOL0     H23193  13.508   1.504  12.337  0.0264 -0.4998  1.7762
  893MOL0     H23194  13.665   1.572  12.355 -4.5757  2.3916 -2.7730
  893MOL0     H23195  13.623   1.435  12.453  0.1426 -0.1370  0.3853
  893MOL0     H23196  14.050   1.721  12.366  1.5375 -2.6838 -1.3386
  893MOL0     H23197  14.225   1.788  12.541 -3.0283  1.0274  1.6924
  893MOL0     H23198  14.484   1.512  12.787 -0.9162 -0.5441  0.2702
  893MOL0     H23199  14.397   1.430  12.654 -1.7393 -1.0447  2.7187
  893MOL0     H23200  14.624   1.495  12.594 -2.2682 -0.7261 -0.4186
  893MOL0     H23201  14.499   1.550  12.487  0.0816  0.9449  0.2980
  893MOL0     H23202  14.706   1.706  12.571 -0.6169 -2.9941 -0.4697
  893MOL0     H23203  14.590   1.748  12.696  2.3505 -0.1038  0.4650
  893MOL0     H23204  14.440   1.842  12.518  0.3259  1.0109  0.1048
  893MOL0     H23205  14.526   1.758  12.387 -1.7328 -1.2353  0.0137
  893MOL0     H23206  14.630   1.984  12.579 -1.4426  1.5050 -0.0430
  893MOL0     H23207  14.706   1.913  12.433  0.4126 -1.3210  1.8146
  893MOL0     H23208  14.470   1.977  12.313  2.4012 -3.7647 -0.6328
  893MOL0     H23209  14.597   2.095  12.325 -0.6811  2.3804  0.6476
  893MOL0     H23210  14.388   2.070  12.556 -1.3054  0.6673 -0.0075
  893MOL0     H23211  14.347   2.159  12.414 -0.0486 -0.2654 -1.9906
  893MOL0     H23212  14.404   2.316  12.568  0.8251  0.2027  2.8522
  893MOL0     H23213  14.537   2.316  12.454 -0.3369 -0.9953 -0.4203
  893MOL0     H23214  14.191   1.391  12.713  0.8463 -0.8023 -0.6356
  893MOL0     H23215  13.983   1.363  12.565  0.9295 -0.4158  0.1176
  893MOL0     H23216  13.927   1.209  12.124  0.6786  0.8824  1.3872
  893MOL0     H23217  13.728   1.101  11.984 -0.1562 -2.0594  1.7001
  893MOL0     H23218  11.866   0.834  11.104 -1.2605 -1.7071  0.9952
  893MOL0     H23219  11.620   0.818  11.119 -2.2691  1.3193  1.4986
  893MOL0     H23220  11.306   0.864  11.453 -1.3516 -1.9160  1.9601
  893MOL0     H23221  11.092   0.808  11.531 -0.7804  2.4964  1.2478
  893MOL0     H23222  10.712   0.950  11.337 -2.5978 -1.0576 -0.4447
  893MOL0     H23223  10.747   0.811  11.238 -1.6684 -0.7921  0.0611
  893MOL0     H23224  10.676   0.668  11.420  1.2027  0.1616 -0.5764
  893MOL0     H23225  10.538   0.775  11.373 -0.2496 -3.4330  0.9793
  893MOL0     H23226  10.695   0.873  11.587 -1.0396  0.5131  0.5117
  893MOL0     H23227  10.514   0.881  11.558 -1.4761 -1.2218 -1.4981
  893MOL0     H23228  10.586   0.747  11.768 -2.5451 -0.8242  0.3632
  893MOL0     H23229  10.688   0.646  11.662  1.4527  3.0261  1.1318
  893MOL0     H23230  10.276   0.546  11.607  0.6956 -0.5476  0.3325
  893MOL0     H23231  10.905   0.947  11.172 -0.5114 -1.8443  0.0665
  893MOL0     H23232  11.201   0.989  10.988 -1.9914 -0.9791 -2.2703
  893MOL0     H23233  11.023   0.978  10.991 -0.9905  1.1559 -1.0103
  893MOL0     H23234  11.110   1.120  11.056 -1.0871  0.2065  3.6242
  894MOL0     O23235   6.070   3.852  10.419  0.2918  0.3775  0.9613
  894MOL0     C23236   6.083   3.911  10.314 -0.4128 -0.2911  0.1534
  894MOL0     O23237   6.042   3.877  10.193 -0.0062  0.2310 -0.2014
  894MOL0     C23238   6.035   3.741  10.151 -0.2771  0.6137  0.6598
  894MOL0     C23239   6.082   3.636  10.224  0.4505  0.8720  0.3275
  894MOL0     C23240   6.083   3.500  10.174  0.3911 -0.0670 -0.0925
  894MOL0     C23241   6.040   3.473  10.042  0.2611 -0.5247 -0.3735
  894MOL0     O23242   6.023   3.344  10.005 -0.8653  1.1136  0.5821
  894MOL0     C23243   5.893   3.292  10.025 -0.7848  0.1487  1.0836
  894MOL0     C23244   5.869   3.150   9.977 -0.5321 -0.7817  0.1525
  894MOL0     C23245   5.973   3.052  10.031 -0.3060 -0.6809 -1.0376
  894MOL0     C23246   5.964   2.906   9.974  0.4102  0.3930 -0.7343
  894MOL0     C23247   6.004   2.885   9.826 -0.5311  0.6553 -0.5693
  894MOL0     C23248   5.916   2.777   9.763  0.9463  0.1631  0.9896
  894MOL0     C23249   5.989   2.715   9.644  0.3303 -0.0452 -0.4766
  894MOL0     C23250   5.930   2.583   9.579  0.1426 -0.4968  0.1945
  894MOL0     N23251   5.798   2.607   9.513 -0.7884 -0.1058  0.1815
  894MOL0     C23252   5.759   2.588   9.388 -0.9274  0.2333 -0.2486
  894MOL0     C23253   5.636   2.624   9.387 -0.4209 -0.1246 -0.2184
  894MOL0     C23254   5.561   2.630   9.262  0.2693 -0.3125 -0.4006
  894MOL0     C23255   5.479   2.505   9.231 -0.3100  0.3154  0.5077
  894MOL0     C23256   5.426   2.484   9.093 -0.7873 -0.2844  0.6833
  894MOL0     C23257   5.361   2.607   9.032 -0.4231 -0.7382 -0.0885
  894MOL0     O23258   5.451   2.677   8.948 -0.3424 -0.5286 -0.2288
  894MOL0     C23259   5.462   2.656   8.815 -0.2720  0.0147  0.0648
  894MOL0     C23260   5.538   2.739   8.742 -0.6902 -0.4850  0.1189
  894MOL0     C23261   5.574   2.731   8.607 -1.0518  0.2015 -0.4387
  894MOL0     C23262   5.637   2.854   8.546 -0.0707  0.4089  0.3810
  894MOL0     C23263   5.551   2.614   8.539  0.0805 -0.5188  0.4220
  894MOL0     C23264   5.594   2.576   8.398 -0.6790 -0.2462 -0.3451
  894MOL0     O23265   5.537   2.471   8.341 -0.1407 -0.0760  0.6677
  894MOL0     C23266   5.570   2.413   8.222  0.9413  0.7986 -0.4450
  894MOL0     C23267   5.691   2.413   8.162  0.5363 -0.9144  0.1081
  894MOL0     C23268   5.713   2.339   8.045 -0.2404  0.7967 -1.4670
  894MOL0     C23269   5.606   2.271   7.973  0.4107 -0.1642  0.0371
  894MOL0     O23270   5.628   2.193   7.858  0.6685  0.6875  0.4290
  894MOL0     C23271   5.762   2.142   7.837 -0.6431 -0.2918  0.4998
  894MOL0     C23272   5.773   2.060   7.706  1.3075  0.6273 -0.0746
  894MOL0     C23273   5.675   1.956   7.672 -0.3690  0.6513 -0.3870
  894MOL0     C23274   5.725   1.845   7.573  0.2636 -1.8398  0.4375
  894MOL0     C23275   5.631   1.805   7.458 -0.8593 -0.3611 -0.2948
  894MOL0     C23276   5.706   1.703   7.366 -0.0004 -0.7581  0.1229
  894MOL0     C23277   5.630   1.670   7.236  0.3936 -1.1819  0.6620
  894MOL0     C23278   5.491   1.596   7.252 -0.6083 -0.3906  0.0745
  894MOL0    Cl23279   5.451   1.485   7.116  0.2752  0.4167  0.2727
  894MOL0     C23280   5.481   2.285   8.020 -0.1599 -0.4258 -0.1625
  894MOL0     C23281   5.463   2.355   8.142 -0.2376 -0.2629 -1.0056
  894MOL0     O23282   5.682   2.647   8.344 -0.0606  0.7100  0.4786
  894MOL0     C23283   5.469   2.516   8.613 -0.4726  0.1175 -0.1089
  894MOL0     C23284   5.432   2.532   8.752 -0.2143  0.2027 -0.3514
  894MOL0     N23285   5.591   2.652   9.512 -0.7795  0.7245 -0.1720
  894MOL0     N23286   5.698   2.641   9.585  0.1961 -0.2293 -1.1925
  894MOL0     C23287   5.991   3.589   9.967 -0.7318 -0.3910  0.8294
  894MOL0     C23288   5.991   3.719  10.016  0.3185  0.4343 -0.2763
  894MOL0     C23289   6.120   4.059  10.330  0.1264 -0.2857  0.0068
  894MOL0     C23290   6.058   4.150  10.245  0.6002 -0.1900 -0.1458
  894MOL0     C23291   6.075   4.292  10.251 -0.5261  0.6606  0.1674
  894MOL0     C23292   6.176   4.345  10.329  0.8285  0.9522  0.0147
  894MOL0     O23293   6.188   4.482  10.327 -0.1382  0.4339  0.1142
  894MOL0     C23294   6.306   4.548  10.376  0.2802  0.7475  0.3491
  894MOL0     C23295   6.433   4.531  10.282  0.3687 -0.5193 -0.0878
  894MOL0     C23296   6.402   4.517  10.136  0.2171 -0.3215 -1.0361
  894MOL0     C23297   6.533   4.506  10.062 -0.3280  0.2738  0.0730
  894MOL0     C23298   6.513   4.502   9.915 -0.1050  0.6862  0.0716
  894MOL0     C23299   6.499   4.504   9.794 -0.4774  0.8337 -0.9892
  894MOL0     C23300   6.240   4.252  10.415  0.4897  0.4873  0.2031
  894MOL0     C23301   6.210   4.110  10.427 -0.3405  0.6416  0.3799
  894MOL0     C23302   6.295   4.022  10.523  0.4252  0.2023  0.9582
  894MOL0     H23303   6.115   3.642  10.327  1.5500  0.1799  0.0306
  894MOL0     H23304   6.096   3.412  10.235 -3.8471  0.8384  2.5688
  894MOL0     H23305   5.832   3.354   9.960 -0.4889  1.0988  1.6925
  894MOL0     H23306   5.856   3.313  10.126 -2.0006  6.0998 -0.2346
  894MOL0     H23307   5.770   3.111  10.002 -1.6082  0.1258 -2.3099
  894MOL0     H23308   5.883   3.162   9.869 -1.6728  3.0520  0.2734
  894MOL0     H23309   6.073   3.093  10.011  0.3888 -0.5409  2.1997
  894MOL0     H23310   5.984   3.056  10.139  0.2851  2.0954 -1.1311
  894MOL0     H23311   6.020   2.839  10.040 -1.6583  1.3467  2.1906
  894MOL0     H23312   5.861   2.875   9.993  0.5526  1.0749  1.2975
  894MOL0     H23313   6.109   2.857   9.818 -1.3960 -3.4474 -0.0976
  894MOL0     H23314   5.994   2.978   9.769 -0.5110 -0.7604 -3.0600
  894MOL0     H23315   5.897   2.695   9.832 -2.2083  0.8251  1.0692
  894MOL0     H23316   5.818   2.816   9.734  1.8229  0.8714 -1.2741
  894MOL0     H23317   6.089   2.696   9.685 -0.7366  0.4976  2.5866
  894MOL0     H23318   5.989   2.785   9.560 -1.9686 -2.6255 -2.8418
  894MOL0     H23319   6.013   2.555   9.514  0.0085 -3.5507  1.1724
  894MOL0     H23320   5.908   2.514   9.661 -1.1667 -0.5533 -0.1825
  894MOL0     H23321   5.814   2.581   9.295 -0.3705  2.2398 -0.1057
  894MOL0     H23322   5.622   2.657   9.175 -0.0745 -1.5010 -1.0291
  894MOL0     H23323   5.491   2.712   9.281 -0.3531 -1.2246  1.4411
  894MOL0     H23324   5.541   2.424   9.272  0.4344  1.0143  0.7876
  894MOL0     H23325   5.388   2.502   9.291 -0.3269 -0.5129  0.4584
  894MOL0     H23326   5.510   2.441   9.037 -0.2574  1.8910 -0.3094
  894MOL0     H23327   5.348   2.408   9.089 -1.7298  0.7151 -0.8139
  894MOL0     H23328   5.269   2.574   8.982 -0.1942 -0.9478 -0.3748
  894MOL0     H23329   5.342   2.660   9.125  0.0415 -2.5618  1.0884
  894MOL0     H23330   5.571   2.833   8.786  0.1825 -0.8485  0.2644
  894MOL0     H23331   5.735   2.821   8.510 -0.1502 -1.2836  1.5983
  894MOL0     H23332   5.646   2.939   8.614 -4.3248  3.6703 -2.6032
  894MOL0     H23333   5.569   2.889   8.468  0.6252 -0.3616 -0.5925
  894MOL0     H23334   5.762   2.476   8.215 -2.7980  1.9837  1.4841
  894MOL0     H23335   5.817   2.329   8.016 -0.5332  0.2994 -2.3980
  894MOL0     H23336   5.837   2.221   7.825 -1.9016  0.7860 -0.5748
  894MOL0     H23337   5.793   2.078   7.920  0.6323 -2.3069 -1.4411
  894MOL0     H23338   5.768   2.141   7.632 -1.4288  1.5499  0.9993
  894MOL0     H23339   5.869   2.008   7.710  1.0388  0.1610  0.4445
  894MOL0     H23340   5.589   2.010   7.630  0.1880  0.7645 -1.4125
  894MOL0     H23341   5.643   1.901   7.761 -0.0932  2.1258  0.6746
  894MOL0     H23342   5.758   1.760   7.632  0.6051  0.1017  3.2405
  894MOL0     H23343   5.817   1.892   7.534 -0.1920  0.1406  1.6007
  894MOL0     H23344   5.546   1.749   7.499 -0.8021 -0.0982  0.1919
  894MOL0     H23345   5.608   1.900   7.408  1.4732  1.0671  1.1915
  894MOL0     H23346   5.731   1.609   7.417 -0.7547 -0.8743  0.2890
  894MOL0     H23347   5.799   1.756   7.344 -0.9706 -0.2051 -3.2948
  894MOL0     H23348   5.696   1.608   7.174  0.3793 -0.9712  0.4316
  894MOL0     H23349   5.618   1.755   7.168 -1.4010 -3.0913 -1.5814
  894MOL0     H23350   5.408   1.668   7.252 -0.5553 -0.3040 -1.3103
  894MOL0     H23351   5.495   1.548   7.351 -1.9891  2.5910  1.7324
  894MOL0     H23352   5.396   2.257   7.959  0.1062  0.5390 -1.0105
  894MOL0     H23353   5.358   2.361   8.170 -0.0543  1.1843 -0.5738
  894MOL0     H23354   5.439   2.424   8.564  0.2478  0.5353 -1.3974
  894MOL0     H23355   5.375   2.457   8.805 -1.9866  2.9200  1.8509
  894MOL0     H23356   5.941   3.568   9.873 -2.4707 -0.5636  1.7592
  894MOL0     H23357   5.960   3.803   9.955 -0.9946  2.4831  2.9496
  894MOL0     H23358   5.985   4.123  10.170 -1.0239 -1.0656  1.6562
  894MOL0     H23359   6.033   4.368  10.185  3.5643  3.5158  0.4629
  894MOL0     H23360   6.284   4.655  10.384  2.9277  1.3275  1.0452
  894MOL0     H23361   6.326   4.519  10.480  1.8705 -0.3891 -0.2372
  894MOL0     H23362   6.469   4.435  10.320  0.1805 -1.1384 -1.4042
  894MOL0     H23363   6.499   4.616  10.301 -0.8100 -0.1523  2.8319
  894MOL0     H23364   6.341   4.427  10.123 -0.2888 -0.2535  0.5767
  894MOL0     H23365   6.350   4.604  10.095 -1.4198 -1.7834 -2.2181
  894MOL0     H23366   6.592   4.423  10.105  1.5860  2.7141  2.5673
  894MOL0     H23367   6.589   4.597  10.086  1.7061 -0.9809  0.3843
  894MOL0     H23368   6.481   4.519   9.689 -0.7666  1.3952 -0.8657
  894MOL0     H23369   6.308   4.305  10.480  0.9450  0.3435 -0.1481
  894MOL0     H23370   6.323   3.931  10.469 -2.6370 -0.0719 -0.3530
  894MOL0     H23371   6.390   4.064  10.557  2.3235 -2.5022 -0.6131
  894MOL0     H23372   6.238   3.990  10.611  2.5842 -0.2163  2.2905
  895MOL0     O23373   0.314   6.043   3.859  0.3337  0.0599  0.1904
  895MOL0     C23374   0.324   6.050   3.980  0.6705 -0.4325 -0.5661
  895MOL0     O23375   0.246   5.984   4.081 -0.0199  0.6168  0.1924
  895MOL0     C23376   0.151   5.881   4.057  0.0134 -0.8036  0.1474
  895MOL0     C23377   0.142   5.800   3.945 -0.3640 -0.7688  0.5712
  895MOL0     C23378   0.041   5.704   3.940 -0.1228 -0.1191 -0.2282
  895MOL0     C23379  -0.054   5.696   4.041  0.2219  0.4355  1.0985
  895MOL0     O23380  -0.160   5.610   4.007 -0.1669 -0.0870 -0.1138
  895MOL0     C23381  -0.260   5.597   4.110  0.4050  0.1025 -0.0722
  895MOL0     C23382  -0.345   5.482   4.069 -0.2822 -0.0161  0.4671
  895MOL0     C23383  -0.474   5.515   3.978 -1.2757  0.4594  0.0958
  895MOL0     C23384  -0.439   5.598   3.857  0.5206  0.6078 -0.7337
  895MOL0     C23385  -0.376   5.519   3.739  0.5358  0.7461 -0.3567
  895MOL0     C23386  -0.388   5.590   3.608 -0.4403 -0.1529  0.2234
  895MOL0     C23387  -0.251   5.629   3.552  0.0510  0.6371 -0.5640
  895MOL0     C23388  -0.245   5.697   3.420  0.4770 -0.3124  0.2164
  895MOL0     N23389  -0.116   5.752   3.378  0.2133  1.1916 -0.1222
  895MOL0     C23390  -0.024   5.810   3.458 -0.1336 -0.0419 -1.0061
  895MOL0     C23391   0.080   5.846   3.382 -0.1581  0.2155 -0.8775
  895MOL0     C23392   0.215   5.903   3.427 -0.0138 -0.1467  0.7969
  895MOL0     C23393   0.234   6.054   3.407  0.2726  0.6395  0.3610
  895MOL0     C23394   0.151   6.151   3.489  0.9155  0.2827 -0.3623
  895MOL0     C23395   0.217   6.288   3.510  0.1606 -0.7801  0.4901
  895MOL0     O23396   0.138   6.374   3.601  0.5502  0.1115  0.1424
  895MOL0     C23397   0.219   6.475   3.661  0.4519  0.4058  0.2908
  895MOL0     C23398   0.275   6.577   3.582  0.6718  0.0631 -0.4950
  895MOL0     C23399   0.369   6.667   3.636  0.2575  1.1393 -0.1048
  895MOL0     C23400   0.430   6.771   3.553  0.1542 -0.0229 -0.2626
  895MOL0     C23401   0.384   6.662   3.775 -0.3323  0.4116 -0.3779
  895MOL0     C23402   0.473   6.759   3.858  0.4702  0.6472  0.5719
  895MOL0     O23403   0.573   6.821   3.781  0.1736 -0.2921  0.1191
  895MOL0     C23404   0.612   6.941   3.822 -0.4636  0.6550  0.0518
  895MOL0     C23405   0.546   7.057   3.769 -0.3375  0.1825  0.8701
  895MOL0     C23406   0.595   7.183   3.792 -0.7628  0.1193 -0.5507
  895MOL0     C23407   0.698   7.209   3.878 -0.2812  0.2475  0.4417
  895MOL0     O23408   0.722   7.343   3.896 -0.7681 -0.3803 -0.4517
  895MOL0     C23409   0.815   7.378   4.007 -0.2540 -0.1283  0.4720
  895MOL0     C23410   0.778   7.525   4.041  0.3513  0.1407 -0.2164
  895MOL0     C23411   0.888   7.582   4.142  0.1538 -0.0282 -0.5002
  895MOL0     C23412   0.870   7.734   4.152 -1.5418  0.6424  0.6953
  895MOL0     C23413   0.742   7.777   4.226  1.0055 -0.2425  0.1450
  895MOL0     C23414   0.747   7.925   4.265 -0.2904 -0.6663  0.7006
  895MOL0     C23415   0.613   7.963   4.326 -0.4583  0.3255  0.4462
  895MOL0     C23416   0.614   8.100   4.403 -1.2050  0.6478 -0.6848
  895MOL0    Cl23417   0.682   8.048   4.557  0.1773 -0.1190 -0.4550
  895MOL0     C23418   0.761   7.096   3.936  0.0675  0.5495  0.4132
  895MOL0     C23419   0.719   6.969   3.907  0.4261  0.0651  0.0205
  895MOL0     O23420   0.435   6.806   3.966  0.0194  0.5297 -0.1800
  895MOL0     C23421   0.315   6.569   3.853  0.0212  0.0391 -1.1915
  895MOL0     C23422   0.237   6.470   3.793  0.2792 -0.5318 -0.8869
  895MOL0     N23423   0.057   5.818   3.254 -0.5092 -0.3309 -1.1330
  895MOL0     N23424  -0.060   5.754   3.255 -0.4466  0.3341  0.3602
  895MOL0     C23425  -0.047   5.790   4.146 -0.9958  0.4827 -0.0397
  895MOL0     C23426   0.061   5.876   4.164  0.4246 -0.9366 -0.0599
  895MOL0     C23427   0.408   6.158   4.039  0.1263  0.7648  0.4092
  895MOL0     C23428   0.360   6.208   4.159  0.6565  0.3737 -0.7896
  895MOL0     C23429   0.413   6.328   4.214 -0.2697  0.4030  0.0913
  895MOL0     C23430   0.527   6.382   4.160 -1.2890  0.2334  0.3640
  895MOL0     O23431   0.582   6.487   4.229 -1.0512  0.8752 -0.1741
  895MOL0     C23432   0.701   6.545   4.191 -0.3221  0.4691 -0.0410
  895MOL0     C23433   0.744   6.640   4.304 -0.7614  0.9863 -0.1204
  895MOL0     C23434   0.876   6.720   4.271  0.5239  0.0032  0.3255
  895MOL0     C23435   0.895   6.862   4.341  0.2448 -0.6658  0.1144
  895MOL0     C23436   0.927   6.838   4.485  1.5668  0.5964 -0.0017
  895MOL0     C23437   0.948   6.819   4.603  0.3386  0.0407  0.1566
  895MOL0     C23438   0.577   6.317   4.047 -0.1851  1.0376  0.1608
  895MOL0     C23439   0.518   6.210   3.982 -0.9940  0.6871 -0.0056
  895MOL0     C23440   0.577   6.179   3.844 -0.2458  0.1239  0.4204
  895MOL0     H23441   0.201   5.813   3.855 -0.8485  0.0570  0.3644
  895MOL0     H23442   0.032   5.650   3.847 -1.4611  3.0615 -2.1256
  895MOL0     H23443  -0.319   5.687   4.128 -0.4247 -0.7812  2.0155
  895MOL0     H23444  -0.213   5.572   4.206  1.0929  1.0007 -0.1686
  895MOL0     H23445  -0.277   5.416   4.014 -1.2001 -0.2217 -0.4541
  895MOL0     H23446  -0.376   5.424   4.157  3.0088 -0.6137  1.3611
  895MOL0     H23447  -0.523   5.420   3.957  3.5146 -2.1236 -0.5880
  895MOL0     H23448  -0.535   5.570   4.051  0.0885 -0.2071  1.8063
  895MOL0     H23449  -0.537   5.637   3.827 -0.2658 -0.2870  0.5320
  895MOL0     H23450  -0.382   5.689   3.881 -0.8894  1.0149  1.4128
  895MOL0     H23451  -0.441   5.431   3.730  0.8229  0.3168  1.4372
  895MOL0     H23452  -0.273   5.498   3.768  0.1972  3.4619  3.5913
  895MOL0     H23453  -0.436   5.525   3.534 -1.8505  1.2268 -0.1348
  895MOL0     H23454  -0.460   5.671   3.617 -3.2895 -2.5651  0.8020
  895MOL0     H23455  -0.192   5.537   3.553 -0.0043  0.6062 -0.0128
  895MOL0     H23456  -0.215   5.699   3.627  0.0216  0.5371 -0.4566
  895MOL0     H23457  -0.275   5.625   3.343  0.2401 -0.9390  0.8807
  895MOL0     H23458  -0.323   5.773   3.415  1.7947  1.0339 -1.6944
  895MOL0     H23459  -0.025   5.830   3.565  0.6802  1.0637 -1.1901
  895MOL0     H23460   0.294   5.861   3.364 -0.4906  0.9723 -0.6019
  895MOL0     H23461   0.240   5.873   3.529  0.1103  1.9344  1.4315
  895MOL0     H23462   0.337   6.068   3.439  0.2384 -0.9998  1.2862
  895MOL0     H23463   0.217   6.079   3.301 -1.2182 -0.9492  0.1655
  895MOL0     H23464   0.061   6.174   3.431  0.3918  0.6345  0.5516
  895MOL0     H23465   0.117   6.116   3.587  0.1447 -0.2576 -0.8108
  895MOL0     H23466   0.311   6.264   3.559  2.1669  0.5303 -2.4187
  895MOL0     H23467   0.244   6.332   3.414  1.4062  0.4770  1.3947
  895MOL0     H23468   0.266   6.574   3.474 -1.5969 -1.8366 -0.3323
  895MOL0     H23469   0.384   6.777   3.454 -2.3865 -0.6834  0.7930
  895MOL0     H23470   0.536   6.759   3.531 -0.1569 -1.3784 -1.1109
  895MOL0     H23471   0.404   6.867   3.599 -0.4814 -0.3747  0.1270
  895MOL0     H23472   0.457   7.064   3.708 -0.4977  0.8948  1.1836
  895MOL0     H23473   0.556   7.279   3.759  1.6849  1.6525  0.7157
  895MOL0     H23474   0.796   7.316   4.095  0.5667 -2.9335 -1.2246
  895MOL0     H23475   0.916   7.364   3.966 -0.5766 -0.4135 -0.2314
  895MOL0     H23476   0.772   7.592   3.955  1.6272  0.2859 -0.2083
  895MOL0     H23477   0.686   7.529   4.100  0.1971  5.1226 -0.3866
  895MOL0     H23478   0.991   7.556   4.114  0.5684 -1.2881  1.9320
  895MOL0     H23479   0.883   7.545   4.244 -1.0928  3.0896  0.6760
  895MOL0     H23480   0.870   7.774   4.050 -2.3727  1.7548  1.1037
  895MOL0     H23481   0.959   7.771   4.205  1.9662 -3.8499 -1.3913
  895MOL0     H23482   0.663   7.762   4.152  2.0962 -2.2005 -0.6925
  895MOL0     H23483   0.724   7.723   4.320  0.0494 -0.5849 -0.2181
  895MOL0     H23484   0.756   7.984   4.174 -1.1049  0.0171  1.0530
  895MOL0     H23485   0.823   7.955   4.338 -0.4319  1.3463  0.0905
  895MOL0     H23486   0.589   7.880   4.393  3.8387  0.9204  3.1118
  895MOL0     H23487   0.540   7.973   4.245 -1.6060  0.6544  1.4884
  895MOL0     H23488   0.520   8.145   4.436 -0.4557  1.2999  0.6659
  895MOL0     H23489   0.672   8.179   4.354  0.8245  0.8579  1.8427
  895MOL0     H23490   0.857   7.106   3.985 -0.0883 -0.8442  1.0427
  895MOL0     H23491   0.789   6.889   3.932  2.4033  1.7887  0.3296
  895MOL0     H23492   0.340   6.563   3.958  0.3664 -0.0027 -1.2761
  895MOL0     H23493   0.194   6.384   3.843  2.0532 -2.0359 -1.8159
  895MOL0     H23494  -0.124   5.802   4.221  0.4196  1.2168  1.3393
  895MOL0     H23495   0.057   5.954   4.240 -3.3588 -1.5501  0.5620
  895MOL0     H23496   0.276   6.167   4.215  1.8785 -1.1271  0.0036
  895MOL0     H23497   0.373   6.371   4.305 -0.4011 -0.9111  0.6821
  895MOL0     H23498   0.779   6.471   4.172  0.2010  0.6800  1.2331
  895MOL0     H23499   0.676   6.600   4.099 -0.0214  0.8762  0.1185
  895MOL0     H23500   0.773   6.565   4.378 -0.1315  1.4382  0.0994
  895MOL0     H23501   0.660   6.706   4.328 -1.0958 -0.4006  3.0220
  895MOL0     H23502   0.966   6.658   4.277  0.4503 -0.1398 -0.0104
  895MOL0     H23503   0.854   6.750   4.168 -1.5954  1.2043  1.0573
  895MOL0     H23504   0.811   6.927   4.317 -1.3130 -3.7184 -4.1151
  895MOL0     H23505   0.983   6.915   4.303  0.5118  0.8329  2.6439
  895MOL0     H23506   0.968   6.796   4.706  1.3569 -0.8830 -0.2258
  895MOL0     H23507   0.674   6.345   4.005  1.8672 -1.4180  2.8716
  895MOL0     H23508   0.683   6.195   3.824 -0.3244 -1.1061 -1.1848
  895MOL0     H23509   0.542   6.079   3.817  0.6544 -0.3557  0.9721
  895MOL0     H23510   0.505   6.250   3.802  0.0430  1.5392  2.1902
  896MOL0     O23511   7.732   1.625   6.288  0.3277  0.1485 -0.1581
  896MOL0     C23512   7.780   1.514   6.261 -0.6074  0.1360  0.4666
  896MOL0     O23513   7.841   1.429   6.353 -0.6161  0.5840 -0.2319
  896MOL0     C23514   7.864   1.493   6.473 -0.0568 -0.4876  0.0329
  896MOL0     C23515   7.997   1.540   6.503  0.5561 -1.5769  0.2217
  896MOL0     C23516   8.023   1.615   6.622  0.8199 -0.3337  0.2064
  896MOL0     C23517   7.925   1.621   6.719 -0.0182 -0.4794 -0.4809
  896MOL0     O23518   7.958   1.711   6.823  0.4204  0.8290  0.6794
  896MOL0     C23519   7.911   1.687   6.957 -0.5046  0.9538 -0.1547
  896MOL0     C23520   7.938   1.794   7.059 -0.4870 -0.6766  1.0526
  896MOL0     C23521   8.083   1.813   7.093  0.6642 -0.0716 -0.2477
  896MOL0     C23522   8.157   1.925   7.013 -0.2169  0.4835  0.5032
  896MOL0     C23523   8.276   1.967   7.101 -0.2263 -0.3964 -0.1486
  896MOL0     C23524   8.375   2.062   7.029  0.2475  0.3423 -0.0007
  896MOL0     C23525   8.446   1.997   6.910 -0.1782 -0.5756  0.0501
  896MOL0     C23526   8.556   2.079   6.851  0.1522  0.4628 -0.2267
  896MOL0     N23527   8.674   2.103   6.935 -0.4194 -0.7439  1.3119
  896MOL0     C23528   8.690   2.215   7.017  0.6308  0.3164 -1.2863
  896MOL0     C23529   8.813   2.202   7.076 -0.7034  0.0843  0.7281
  896MOL0     C23530   8.868   2.307   7.169 -0.1132  0.1713  0.7805
  896MOL0     C23531   8.861   2.246   7.313 -0.3753  0.4043  0.4369
  896MOL0     C23532   8.907   2.351   7.417  0.6026 -0.9739  1.0836
  896MOL0     C23533   8.915   2.305   7.565  0.0033 -0.3509  0.3198
  896MOL0     O23534   9.032   2.216   7.567  0.7747 -0.1246  1.0133
  896MOL0     C23535   9.081   2.186   7.688 -0.0870  0.2177  0.1172
  896MOL0     C23536   9.029   2.214   7.821  0.1494  0.0307  0.1363
  896MOL0     C23537   9.095   2.186   7.941  0.6680 -0.9919 -0.0712
  896MOL0     C23538   9.043   2.245   8.067  0.7507 -0.2909  0.3141
  896MOL0     C23539   9.217   2.119   7.932 -0.1316  0.4997 -0.5352
  896MOL0     C23540   9.289   2.084   8.047  0.0003  0.2536 -0.3679
  896MOL0     O23541   9.425   2.118   8.053  0.9457 -0.1441  0.9641
  896MOL0     C23542   9.499   2.083   8.169  0.4081  0.1439 -0.5106
  896MOL0     C23543   9.557   2.183   8.252  0.1264  0.2531 -0.8578
  896MOL0     C23544   9.637   2.146   8.359 -0.3558  1.5522 -0.5452
  896MOL0     C23545   9.669   2.010   8.389  0.3942 -1.1218  0.7011
  896MOL0     O23546   9.738   1.972   8.501 -0.2004 -0.2660 -0.2511
  896MOL0     C23547   9.667   1.893   8.597  0.1615 -1.4547 -0.1517
  896MOL0     C23548   9.746   1.902   8.725  0.7231  0.8109  0.1038
  896MOL0     C23549   9.862   1.797   8.733  0.0141 -1.0317 -0.3827
  896MOL0     C23550   9.975   1.837   8.647 -1.5520  0.5945 -0.7408
  896MOL0     C23551  10.103   1.744   8.668  0.1683 -0.2591 -0.1602
  896MOL0     C23552  10.202   1.803   8.561 -0.3156  0.2114 -0.1697
  896MOL0     C23553  10.339   1.729   8.555 -0.7666  0.0693  0.0436
  896MOL0     C23554  10.414   1.731   8.684 -1.0153 -0.3358 -0.4784
  896MOL0    Cl23555  10.572   1.658   8.683 -0.5029  0.0790  0.2175
  896MOL0     C23556   9.610   1.910   8.303  0.0325  0.0860  0.1580
  896MOL0     C23557   9.531   1.946   8.198  0.2774  0.2300 -0.1822
  896MOL0     O23558   9.236   2.027   8.145  0.5708  0.2194  0.6006
  896MOL0     C23559   9.271   2.083   7.807 -0.9216 -0.5505 -0.4511
  896MOL0     C23560   9.191   2.102   7.691  0.4589  0.1913 -0.2712
  896MOL0     N23561   8.856   2.079   7.044 -0.4580  1.4612  0.3085
  896MOL0     N23562   8.778   2.018   6.962  0.3966 -0.2656 -0.1539
  896MOL0     C23563   7.801   1.561   6.699  0.3555  0.1388 -0.3820
  896MOL0     C23564   7.770   1.503   6.576 -0.8493 -0.3476 -0.0638
  896MOL0     C23565   7.774   1.452   6.122  0.0988  0.7941 -0.5426
  896MOL0     C23566   7.858   1.336   6.097 -0.2254  0.2439 -0.7257
  896MOL0     C23567   7.849   1.265   5.976 -0.2192 -0.3248  0.1074
  896MOL0     C23568   7.763   1.303   5.880  0.3115 -0.7430 -0.0056
  896MOL0     O23569   7.765   1.236   5.762  0.5574 -0.7026 -0.1128
  896MOL0     C23570   7.650   1.243   5.673 -0.1420  0.2660 -0.4522
  896MOL0     C23571   7.703   1.175   5.540 -0.3794  0.0551 -0.0639
  896MOL0     C23572   7.774   1.041   5.555  0.0643  0.4071  0.1568
  896MOL0     C23573   7.687   0.923   5.510  0.1003 -0.2735 -0.1770
  896MOL0     C23574   7.624   0.944   5.378  0.7131  0.0327 -0.0315
  896MOL0     C23575   7.602   0.958   5.261  0.0973  0.2703  0.9694
  896MOL0     C23576   7.680   1.419   5.905 -0.1650  0.0190  0.9657
  896MOL0     C23577   7.689   1.500   6.017  0.1476  0.8637  0.0693
  896MOL0     C23578   7.605   1.622   6.014  0.2746  0.5038  0.0035
  896MOL0     H23579   8.071   1.526   6.426  0.4405 -1.0429  0.0108
  896MOL0     H23580   8.117   1.669   6.625  2.2623 -2.7625  0.7488
  896MOL0     H23581   7.955   1.596   6.999 -0.1627  1.0285 -0.3455
  896MOL0     H23582   7.804   1.665   6.967  0.4129 -3.7664  2.0376
  896MOL0     H23583   7.898   1.888   7.021  1.4001 -0.1602  0.2239
  896MOL0     H23584   7.889   1.765   7.152  0.4046  0.6570  1.9678
  896MOL0     H23585   8.068   1.846   7.196 -5.2426 -3.0657  0.2518
  896MOL0     H23586   8.141   1.721   7.081  0.3101 -0.3804  0.3314
  896MOL0     H23587   8.184   1.902   6.909 -0.5813  0.4092  0.4215
  896MOL0     H23588   8.095   2.015   7.007  1.1520  1.3845 -1.1916
  896MOL0     H23589   8.343   1.887   7.135 -0.5632 -0.5710  0.1133
  896MOL0     H23590   8.230   2.020   7.185  0.0028  1.9555 -1.4427
  896MOL0     H23591   8.339   2.163   7.005 -0.0860 -0.5553 -4.0435
  896MOL0     H23592   8.460   2.074   7.097 -0.2286  1.8840  0.3502
  896MOL0     H23593   8.372   1.982   6.830  1.7722 -2.3894 -1.5187
  896MOL0     H23594   8.477   1.893   6.916  0.4908 -0.3906 -0.1044
  896MOL0     H23595   8.594   2.030   6.761  1.0156 -2.2620  1.5019
  896MOL0     H23596   8.509   2.175   6.827 -0.2171  0.6183  1.0543
  896MOL0     H23597   8.619   2.295   7.037 -2.8421 -3.1412  1.8714
  896MOL0     H23598   8.809   2.399   7.155 -1.1184 -0.8978 -3.3566
  896MOL0     H23599   8.972   2.326   7.143 -0.0114 -0.7243  0.4950
  896MOL0     H23600   8.758   2.219   7.338 -0.8263  1.0370 -0.6539
  896MOL0     H23601   8.931   2.161   7.317 -0.5487  0.1410 -1.1624
  896MOL0     H23602   9.005   2.386   7.384 -0.9138  3.4749  0.6364
  896MOL0     H23603   8.839   2.436   7.424 -1.5617 -2.6011  0.8930
  896MOL0     H23604   8.933   2.393   7.627 -1.3875  0.6893 -0.6755
  896MOL0     H23605   8.822   2.263   7.606 -0.7754  0.3799 -0.6353
  896MOL0     H23606   8.929   2.255   7.829  0.1594 -0.1808  1.5034
  896MOL0     H23607   9.074   2.191   8.157 -2.3952 -2.0366  0.4653
  896MOL0     H23608   8.936   2.265   8.068  1.1086  1.8821  0.6740
  896MOL0     H23609   9.077   2.349   8.076  0.9224 -0.0858 -1.9802
  896MOL0     H23610   9.525   2.286   8.237 -0.9341  0.5225  2.4405
  896MOL0     H23611   9.696   2.214   8.419  0.6939 -0.5534  0.9145
  896MOL0     H23612   9.571   1.941   8.618 -0.0531 -2.3294  0.9931
  896MOL0     H23613   9.648   1.792   8.558  3.2518 -1.3798 -2.1634
  896MOL0     H23614   9.782   2.003   8.746  2.0544  0.3498  0.1171
  896MOL0     H23615   9.675   1.869   8.802 -0.3923 -0.0065 -1.2092
  896MOL0     H23616   9.824   1.697   8.711  0.1710 -1.4192  1.0049
  896MOL0     H23617   9.887   1.787   8.839 -0.5064 -0.2452 -0.1792
  896MOL0     H23618  10.005   1.939   8.672  1.9542 -1.1063  3.2473
  896MOL0     H23619   9.949   1.813   8.543 -4.5148 -4.9209  0.8363
  896MOL0     H23620  10.141   1.751   8.770  0.4741  0.1571 -0.2966
  896MOL0     H23621  10.073   1.641   8.647  0.1747 -0.4455  0.7264
  896MOL0     H23622  10.220   1.911   8.568  2.3154  0.3568 -5.0295
  896MOL0     H23623  10.160   1.790   8.461  1.6723 -0.7197 -0.9234
  896MOL0     H23624  10.392   1.777   8.473  0.0094  4.2888  2.7416
  896MOL0     H23625  10.322   1.624   8.526 -0.1387 -0.4778  1.5313
  896MOL0     H23626  10.362   1.683   8.767  3.7703 -0.9962  2.5027
  896MOL0     H23627  10.425   1.836   8.711  0.6990 -0.7482  0.5993
  896MOL0     H23628   9.619   1.802   8.311 -4.1640 -0.5838 -1.6436
  896MOL0     H23629   9.490   1.868   8.134 -0.8476  0.5644  0.1031
  896MOL0     H23630   9.366   2.033   7.792 -0.4314  0.6155 -1.3601
  896MOL0     H23631   9.230   2.075   7.593  2.4145  1.8623 -0.0198
  896MOL0     H23632   7.727   1.559   6.777  2.9908 -3.4523  2.4012
  896MOL0     H23633   7.675   1.457   6.553 -0.4331 -0.0291 -2.7125
  896MOL0     H23634   7.928   1.290   6.166 -0.3110 -1.8327 -1.9580
  896MOL0     H23635   7.905   1.176   5.948  1.6470  1.0041 -0.5823
  896MOL0     H23636   7.569   1.185   5.718  0.9295 -0.6153  0.4084
  896MOL0     H23637   7.613   1.343   5.653 -2.5805 -0.8699 -2.0193
  896MOL0     H23638   7.773   1.245   5.494 -0.7899 -1.0929 -2.6097
  896MOL0     H23639   7.618   1.167   5.471 -0.7029 -0.8846  0.4257
  896MOL0     H23640   7.858   1.045   5.485  1.5672  1.0165  1.9160
  896MOL0     H23641   7.809   1.011   5.653  2.8662 -4.3085 -1.9490
  896MOL0     H23642   7.602   0.913   5.578 -3.4241  0.5260 -3.9893
  896MOL0     H23643   7.748   0.833   5.500  1.9585  1.1069 -2.3057
  896MOL0     H23644   7.585   0.963   5.155 -1.9006  3.7986  1.2709
  896MOL0     H23645   7.606   1.451   5.833 -1.2684 -0.3496  1.9007
  896MOL0     H23646   7.628   1.706   6.081 -0.9558  1.7254 -1.0447
  896MOL0     H23647   7.621   1.666   5.915  2.4085  3.6569  1.5503
  896MOL0     H23648   7.498   1.602   6.027  0.8214 -2.0920  1.1751
  897MOL0     O23649  10.275   2.838  10.400  0.7998  0.6184 -0.0133
  897MOL0     C23650  10.259   2.925  10.315 -0.4888 -0.3959  0.1326
  897MOL0     O23651  10.294   2.909  10.183 -0.6107  0.0082  0.2329
  897MOL0     C23652  10.356   2.798  10.139  0.4027  0.4425  0.4807
  897MOL0     C23653  10.312   2.749  10.012 -0.0099 -1.2970 -0.2728
  897MOL0     C23654  10.388   2.647   9.952 -0.1692  0.4375 -0.6207
  897MOL0     C23655  10.482   2.572  10.029 -0.0410 -0.6015  0.2317
  897MOL0     O23656  10.543   2.457   9.992 -0.2378  0.9408 -0.7524
  897MOL0     C23657  10.524   2.420   9.858 -0.2540  1.2749  0.1972
  897MOL0     C23658  10.617   2.294   9.835 -0.6703 -0.7895 -0.4573
  897MOL0     C23659  10.604   2.195   9.939 -0.3879  0.2257  0.0141
  897MOL0     C23660  10.704   2.089   9.933 -0.5010 -1.1515 -0.7022
  897MOL0     C23661  10.711   2.011  10.057  0.2162 -0.2001 -0.0245
  897MOL0     C23662  10.770   1.868  10.035  0.4213  0.0753 -0.3467
  897MOL0     C23663  10.707   1.772  10.143  0.2052  0.4214 -0.1659
  897MOL0     C23664  10.597   1.685  10.075 -0.4885 -0.0627  0.2000
  897MOL0     N23665  10.479   1.746  10.010 -0.7199  0.4496 -0.1201
  897MOL0     C23666  10.472   1.770   9.877 -0.3600 -0.1120  1.4244
  897MOL0     C23667  10.343   1.781   9.857 -0.1484  0.3219 -0.4470
  897MOL0     C23668  10.284   1.827   9.723  0.2171 -0.0102 -0.3455
  897MOL0     C23669  10.327   1.969   9.693  0.7389 -0.2163 -0.4537
  897MOL0     C23670  10.253   2.035   9.577  0.9514  0.6561 -0.0428
  897MOL0     C23671  10.280   2.185   9.580  0.0890  0.0096  0.2771
  897MOL0     O23672  10.230   2.240   9.701  0.2725  0.1723 -0.0524
  897MOL0     C23673  10.193   2.368   9.716  0.7215 -0.7040  0.2610
  897MOL0     C23674  10.228   2.468   9.625 -0.0965  0.5988  0.7592
  897MOL0     C23675  10.164   2.595   9.631 -1.0122  0.0043  0.1633
  897MOL0     C23676  10.216   2.692   9.537  0.1803  0.0135 -0.0331
  897MOL0     C23677  10.077   2.629   9.743 -1.0012 -0.7313  0.5494
  897MOL0     C23678  10.021   2.762   9.771 -0.3120 -0.2699  1.1711
  897MOL0     O23679   9.973   2.782   9.890 -0.5974  0.1631 -0.0963
  897MOL0     C23680   9.880   2.880   9.913 -0.1749 -0.3826 -0.5166
  897MOL0     C23681   9.774   2.911   9.829  0.5942 -0.2248 -0.2012
  897MOL0     C23682   9.669   2.996   9.865  0.2409  0.4154  0.4878
  897MOL0     C23683   9.668   3.059   9.987  0.2498 -0.3568 -0.1368
  897MOL0     O23684   9.569   3.149  10.022  0.2503  0.0499 -0.4032
  897MOL0     C23685   9.482   3.100  10.125 -0.9210 -0.6601  0.3519
  897MOL0     C23686   9.336   3.124  10.093 -0.6206 -1.1296 -0.6138
  897MOL0     C23687   9.242   3.049  10.176  0.1552 -0.8211  1.0384
  897MOL0     C23688   9.108   3.059  10.129  0.2287  0.3139 -0.2971
  897MOL0     C23689   8.996   3.009  10.229 -0.1439  0.2250 -0.2937
  897MOL0     C23690   8.866   2.964  10.160  1.1339  0.8829  0.0667
  897MOL0     C23691   8.792   2.857  10.250  0.0210 -0.6454  0.0577
  897MOL0     C23692   8.646   2.833  10.197 -0.7779  0.4639  0.0954
  897MOL0    Cl23693   8.569   2.722  10.316 -0.0558 -0.1486 -0.0626
  897MOL0     C23694   9.783   3.044  10.067  0.2322 -0.2266 -0.8428
  897MOL0     C23695   9.884   2.951  10.044 -0.6737  0.3058  0.0247
  897MOL0     O23696  10.031   2.853   9.683  0.1542  0.2920 -0.3836
  897MOL0     C23697  10.059   2.521   9.838  1.1136 -0.1940 -0.6497
  897MOL0     C23698  10.105   2.391   9.814  0.3371  0.7873 -0.0928
  897MOL0     N23699  10.268   1.759   9.969 -0.8510  0.6009 -0.4116
  897MOL0     N23700  10.354   1.741  10.061  0.6721  0.3750  0.2384
  897MOL0     C23701  10.533   2.631  10.150 -0.3345  0.4830 -0.2947
  897MOL0     C23702  10.472   2.743  10.201  0.1093 -0.0452  0.3728
  897MOL0     C23703  10.175   3.042  10.352  0.1155  0.3113  0.4440
  897MOL0     C23704  10.127   3.121  10.249 -0.3960 -0.0065 -0.6373
  897MOL0     C23705  10.031   3.221  10.255  0.0819 -1.1269  0.2014
  897MOL0     C23706   9.966   3.246  10.375 -0.7797  1.0868  1.1242
  897MOL0     O23707   9.868   3.341  10.372 -0.1504  0.1640 -0.0714
  897MOL0     C23708   9.797   3.355  10.497  0.1615 -0.2087 -0.9187
  897MOL0     C23709   9.691   3.471  10.495 -0.0736 -1.3458  0.3429
  897MOL0     C23710   9.592   3.480  10.379  0.3119  0.8655  0.0606
  897MOL0     C23711   9.634   3.466  10.232 -0.2885 -0.5223 -0.1675
  897MOL0     C23712   9.528   3.510  10.136 -0.2785  0.0348  0.0827
  897MOL0     C23713   9.440   3.541  10.057  0.6259  0.0318 -0.0327
  897MOL0     C23714  10.003   3.168  10.485 -0.4491  0.1182  0.2128
  897MOL0     C23715  10.106   3.067  10.472 -0.3921 -0.2901  0.3149
  897MOL0     C23716  10.125   3.000  10.602  0.7752 -0.2911 -0.3675
  897MOL0     H23717  10.234   2.813   9.973  2.0898  2.3541  1.0469
  897MOL0     H23718  10.361   2.614   9.852 -2.5364 -3.4678  1.0512
  897MOL0     H23719  10.553   2.499   9.788 -0.7300 -0.4449 -2.0449
  897MOL0     H23720  10.421   2.391   9.836 -1.2335  2.1566  3.1132
  897MOL0     H23721  10.592   2.246   9.740 -2.9962 -0.0183 -0.2718
  897MOL0     H23722  10.720   2.329   9.818 -0.8470  0.4107  0.7655
  897MOL0     H23723  10.611   2.249  10.034 -1.4586  1.9270 -0.8367
  897MOL0     H23724  10.500   2.163   9.932 -0.2282 -0.7739  1.5424
  897MOL0     H23725  10.679   2.024   9.849  0.2203 -1.0652 -0.9945
  897MOL0     H23726  10.799   2.137   9.905 -0.3903 -1.6716 -1.2472
  897MOL0     H23727  10.613   2.000  10.104 -1.0694  3.2703 -1.5436
  897MOL0     H23728  10.772   2.070  10.127 -0.3392 -0.1005  0.3829
  897MOL0     H23729  10.736   1.826   9.941 -2.8745 -2.4720  1.7553
  897MOL0     H23730  10.880   1.870  10.037  0.5012 -1.2611 -2.0435
  897MOL0     H23731  10.663   1.826  10.227 -0.8068  0.1468 -0.5031
  897MOL0     H23732  10.789   1.714  10.188 -1.5167 -0.7102  1.6548
  897MOL0     H23733  10.640   1.612  10.006 -1.0810  0.4596 -0.7520
  897MOL0     H23734  10.545   1.619  10.146 -0.6256 -0.3160 -0.1325
  897MOL0     H23735  10.554   1.782   9.808 -0.8156 -0.3522  0.8416
  897MOL0     H23736  10.174   1.823   9.723  0.1957  0.0684  0.9203
  897MOL0     H23737  10.330   1.762   9.648  3.0391  0.7882  0.5687
  897MOL0     H23738  10.310   2.023   9.787 -0.3860  0.7982 -1.2126
  897MOL0     H23739  10.435   1.969   9.674  0.7235 -0.7349 -0.5684
  897MOL0     H23740  10.297   1.995   9.485  0.4670 -0.9155  0.3898
  897MOL0     H23741  10.149   2.007   9.597  0.9595  1.9416  2.1257
  897MOL0     H23742  10.388   2.203   9.569 -0.2465  1.4986 -1.0974
  897MOL0     H23743  10.230   2.232   9.494  0.8089 -0.0235 -0.1697
  897MOL0     H23744  10.302   2.440   9.551  1.1193 -3.8146  3.2713
  897MOL0     H23745  10.145   2.746   9.474  1.9118  0.8192 -1.4031
  897MOL0     H23746  10.297   2.659   9.472  2.4458  2.8273  1.1201
  897MOL0     H23747  10.253   2.775   9.600 -0.7298  0.3296  0.0975
  897MOL0     H23748   9.791   2.868   9.731  0.5198  0.5887 -0.5809
  897MOL0     H23749   9.590   3.015   9.793  3.6724 -0.2507 -3.8983
  897MOL0     H23750   9.506   2.994  10.137 -0.7719 -0.8305 -1.2322
  897MOL0     H23751   9.501   3.154  10.218 -3.3544 -0.6424  0.9043
  897MOL0     H23752   9.314   3.231  10.096 -0.7455 -1.1694  1.3684
  897MOL0     H23753   9.329   3.097   9.987  0.0873 -0.5089 -0.8301
  897MOL0     H23754   9.261   3.087  10.277 -1.1158  0.6652  0.7628
  897MOL0     H23755   9.271   2.944  10.167  2.0261 -0.1453 -2.6661
  897MOL0     H23756   9.120   2.997  10.040  2.8298  1.9657 -1.2284
  897MOL0     H23757   9.088   3.162  10.098 -1.1170  0.4052  0.7819
  897MOL0     H23758   9.034   2.920  10.280  2.3709  0.9877 -0.6767
  897MOL0     H23759   8.975   3.095  10.292 -4.2118 -0.6033 -0.2376
  897MOL0     H23760   8.885   2.923  10.060  0.9412  0.3540  0.2413
  897MOL0     H23761   8.800   3.050  10.148 -3.0480 -2.0982 -0.4674
  897MOL0     H23762   8.787   2.889  10.354 -4.3256  0.3386 -0.2974
  897MOL0     H23763   8.848   2.762  10.255  0.9630 -0.1229 -0.2174
  897MOL0     H23764   8.643   2.797  10.094 -3.2518 -3.7204  1.3750
  897MOL0     H23765   8.588   2.926  10.199 -3.4964 -1.1078  1.3391
  897MOL0     H23766   9.787   3.115  10.149  0.6997 -1.4792  0.2496
  897MOL0     H23767   9.967   2.932  10.111 -1.6650  2.8016  2.1279
  897MOL0     H23768  10.007   2.541   9.931 -0.2268 -0.1046 -1.3909
  897MOL0     H23769  10.086   2.322   9.896  0.7375  1.9446  0.9984
  897MOL0     H23770  10.611   2.583  10.208 -2.1401 -2.3777 -0.0310
  897MOL0     H23771  10.500   2.788  10.296 -1.2745  2.0536 -0.1497
  897MOL0     H23772  10.170   3.125  10.149 -2.1726 -3.0567 -1.6580
  897MOL0     H23773   9.993   3.279  10.171  1.6865  2.4587  1.7437
  897MOL0     H23774   9.743   3.263  10.521 -2.8986  1.4334 -1.0193
  897MOL0     H23775   9.866   3.392  10.574 -1.2976 -0.3408  0.5148
  897MOL0     H23776   9.744   3.567  10.495  2.2345 -2.4809  2.5110
  897MOL0     H23777   9.641   3.461  10.592  1.6572  1.2960  1.6371
  897MOL0     H23778   9.532   3.392  10.401  1.5022  0.5342  2.2791
  897MOL0     H23779   9.534   3.572  10.390  0.2529  0.5362  3.6589
  897MOL0     H23780   9.660   3.360  10.222  0.9689 -0.5003  2.2672
  897MOL0     H23781   9.722   3.526  10.208  0.3679 -0.1634  2.7734
  897MOL0     H23782   9.356   3.586  10.010  1.3306 -1.7139 -3.2331
  897MOL0     H23783   9.957   3.174  10.583  1.7335 -0.1062  1.3266
  897MOL0     H23784  10.192   3.068  10.655 -0.7590  1.6443 -0.8192
  897MOL0     H23785  10.029   2.983  10.652 -0.3089  0.9798 -1.9219
  897MOL0     H23786  10.169   2.900  10.593 -0.9978 -1.1641  0.2680
  898MOL0     O23787   7.853   8.925   5.649 -0.1358 -0.2463 -0.4900
  898MOL0     C23788   7.733   8.896   5.634  0.2570 -0.7482  0.1909
  898MOL0     O23789   7.686   8.858   5.513  0.4888  0.2856  1.2230
  898MOL0     C23790   7.722   8.928   5.398 -0.7793  0.4672 -0.2534
  898MOL0     C23791   7.645   8.897   5.285 -0.3594  0.4122  0.4385
  898MOL0     C23792   7.661   8.963   5.163  0.2652 -0.0447  0.4310
  898MOL0     C23793   7.759   9.055   5.147 -0.3256 -0.3297 -0.7169
  898MOL0     O23794   7.784   9.106   5.027  0.9674  0.6746 -0.7013
  898MOL0     C23795   7.925   9.114   5.000 -0.2460  0.1641  0.0029
  898MOL0     C23796   7.949   9.119   4.854  0.1355 -0.5969 -0.1857
  898MOL0     C23797   7.888   9.252   4.796  0.5949  0.7600  0.2104
  898MOL0     C23798   7.983   9.366   4.821 -0.8288  0.0141 -0.3589
  898MOL0     C23799   7.953   9.497   4.747  0.5388 -0.7943  0.1166
  898MOL0     C23800   8.072   9.595   4.782 -0.4246  0.3129 -0.8345
  898MOL0     C23801   8.098   9.726   4.698  0.0137 -0.0609  0.0215
  898MOL0     C23802   8.213   9.811   4.780  0.3658 -0.5471  0.5240
  898MOL0     N23803   8.288   9.911   4.699  1.4283  0.3522  0.2463
  898MOL0     C23804   8.229  10.015   4.622  0.1657 -0.0209 -0.0419
  898MOL0     C23805   8.338  10.086   4.574 -0.4837 -0.6746 -0.9901
  898MOL0     C23806   8.306  10.205   4.485 -0.2829 -0.1863 -0.8686
  898MOL0     C23807   8.280  10.159   4.340 -0.2443 -0.5859 -0.3737
  898MOL0     C23808   8.256  10.284   4.258 -0.0221  1.0298 -0.0233
  898MOL0     C23809   8.129  10.362   4.291 -0.4456  0.0107 -0.1378
  898MOL0     O23810   8.010  10.289   4.251 -0.3155 -0.4098 -0.1801
  898MOL0     C23811   7.904  10.308   4.337 -0.6783  0.3822  0.1489
  898MOL0     C23812   7.801  10.209   4.322 -0.0747  0.2576 -0.4786
  898MOL0     C23813   7.682  10.212   4.398 -0.1809 -0.4059 -0.2173
  898MOL0     C23814   7.588  10.098   4.402  0.3334 -0.3508  0.3335
  898MOL0     C23815   7.670  10.324   4.493 -0.1909  0.1374  0.2223
  898MOL0     C23816   7.561  10.341   4.580 -0.1045 -0.2098  0.0378
  898MOL0     O23817   7.430  10.317   4.535  0.3681  0.7171 -0.1188
  898MOL0     C23818   7.329  10.328   4.622 -0.1373  0.0103 -0.0990
  898MOL0     C23819   7.314  10.249   4.737  0.2634 -0.0606 -0.0900
  898MOL0     C23820   7.196  10.262   4.815 -0.1979  0.4341  0.0279
  898MOL0     C23821   7.097  10.351   4.787 -0.8754  0.1843  0.1731
  898MOL0     O23822   6.989  10.377   4.862 -0.0666  0.8332  0.5316
  898MOL0     C23823   6.994  10.342   5.000  0.0010 -0.5441  0.5987
  898MOL0     C23824   6.880  10.403   5.082 -0.3105 -0.7395 -0.5101
  898MOL0     C23825   6.746  10.389   5.007 -0.8263 -0.2081  0.3011
  898MOL0     C23826   6.631  10.378   5.104  0.3147 -0.0016  0.4059
  898MOL0     C23827   6.508  10.403   5.024  0.1164  0.7301  0.5976
  898MOL0     C23828   6.401  10.343   5.118  0.7670 -0.3824  0.7641
  898MOL0     C23829   6.263  10.341   5.041  0.6644  0.8927 -0.2054
  898MOL0     C23830   6.158  10.274   5.140 -0.1006  0.5177  1.4865
  898MOL0    Cl23831   6.003  10.269   5.063 -0.0816 -0.4610  0.5437
  898MOL0     C23832   7.107  10.430   4.673 -0.3570  0.2655  0.4123
  898MOL0     C23833   7.226  10.420   4.591  0.5219 -0.4804  0.7658
  898MOL0     O23834   7.590  10.372   4.693  0.4107 -0.0060  0.2757
  898MOL0     C23835   7.772  10.420   4.492  0.2067  0.4281 -0.1391
  898MOL0     C23836   7.887  10.412   4.418  0.6451 -0.0946 -0.0253
  898MOL0     N23837   8.458  10.023   4.619 -0.0045 -0.2708 -0.3956
  898MOL0     N23838   8.417   9.921   4.696  0.4593  1.1915 -0.4440
  898MOL0     C23839   7.836   9.089   5.257  0.4658  0.1691  0.4139
  898MOL0     C23840   7.817   9.032   5.383  0.6800  0.7328  0.1158
  898MOL0     C23841   7.632   8.903   5.750  0.1645 -0.2902  0.0891
  898MOL0     C23842   7.498   8.872   5.715 -0.9948  0.8344 -0.1305
  898MOL0     C23843   7.404   8.891   5.810 -0.0461  0.3019 -0.3855
  898MOL0     C23844   7.433   8.937   5.941  0.1971 -0.4711 -0.3333
  898MOL0     O23845   7.330   8.949   6.033 -0.1980 -0.0682 -0.6358
  898MOL0     C23846   7.336   9.039   6.150  0.4054  0.3416  0.2624
  898MOL0     C23847   7.197   9.051   6.208  0.4849  0.6297  0.7359
  898MOL0     C23848   7.102   9.105   6.099  0.7791 -0.3941  0.5880
  898MOL0     C23849   7.125   9.252   6.057 -0.4699 -0.2593  1.1343
  898MOL0     C23850   7.026   9.288   5.949  0.5967  0.1462 -0.3461
  898MOL0     C23851   6.938   9.310   5.865  0.9484 -0.9099  0.7351
  898MOL0     C23852   7.562   8.969   5.978 -0.1687  0.2225  0.8250
  898MOL0     C23853   7.661   8.949   5.882 -0.3635 -0.2310 -0.3285
  898MOL0     C23854   7.798   8.995   5.927  0.2062  0.3802 -0.4765
  898MOL0     H23855   7.584   8.807   5.291  0.2198 -0.0649 -0.6190
  898MOL0     H23856   7.598   8.944   5.076 -0.3593 -0.4531  0.9541
  898MOL0     H23857   7.979   9.027   5.039 -0.7809 -0.2636 -0.1971
  898MOL0     H23858   7.974   9.198   5.050  0.1472  1.2091 -2.0479
  898MOL0     H23859   8.055   9.111   4.831  0.2934 -0.4009  0.4490
  898MOL0     H23860   7.906   9.028   4.811  0.2059 -1.2268  1.0447
  898MOL0     H23861   7.878   9.254   4.687 -0.7606  0.2135  0.3033
  898MOL0     H23862   7.786   9.271   4.833  0.2280 -1.6865  0.6444
  898MOL0     H23863   7.985   9.389   4.928  1.7650 -3.5084  0.5150
  898MOL0     H23864   8.084   9.336   4.790  0.2621  2.9136  0.0359
  898MOL0     H23865   7.861   9.540   4.786  0.5293 -1.3329  0.7084
  898MOL0     H23866   7.947   9.479   4.639 -1.1237  2.2055 -0.4044
  898MOL0     H23867   8.048   9.650   4.873  0.2192 -0.6590 -0.0529
  898MOL0     H23868   8.163   9.538   4.802 -1.9738 -2.9285 -2.1869
  898MOL0     H23869   8.003   9.776   4.681 -2.2854 -3.4254  1.6384
  898MOL0     H23870   8.130   9.683   4.603 -1.3479 -1.5104  0.1712
  898MOL0     H23871   8.165   9.853   4.869 -0.7997 -0.2139 -0.2249
  898MOL0     H23872   8.279   9.732   4.815 -0.9620 -1.1511  1.7331
  898MOL0     H23873   8.126  10.027   4.589  0.7992 -1.0323 -2.6245
  898MOL0     H23874   8.386  10.280   4.481 -2.0789  1.8158 -1.1307
  898MOL0     H23875   8.215  10.249   4.526  1.9800  2.3910  1.8487
  898MOL0     H23876   8.360  10.097   4.300 -0.5320 -1.6914  0.6934
  898MOL0     H23877   8.190  10.099   4.327 -0.7472 -0.2907  1.4085
  898MOL0     H23878   8.347  10.344   4.252  0.3900  0.4023 -0.0831
  898MOL0     H23879   8.241  10.248   4.156 -2.9853 -0.9281  0.9727
  898MOL0     H23880   8.137  10.411   4.388  1.5495 -0.3978 -0.0513
  898MOL0     H23881   8.143  10.442   4.218  0.3676 -0.3988 -0.4542
  898MOL0     H23882   7.820  10.133   4.247  1.9529  0.0661  0.1620
  898MOL0     H23883   7.636  10.007   4.363  2.6115  0.6195  0.7379
  898MOL0     H23884   7.507  10.126   4.334  1.3584 -1.4221 -1.4132
  898MOL0     H23885   7.549  10.081   4.503 -1.0065 -1.1485 -0.2761
  898MOL0     H23886   7.394  10.180   4.760 -1.2295 -0.7286  3.9962
  898MOL0     H23887   7.190  10.218   4.914  0.6694  1.6750  0.6686
  898MOL0     H23888   6.984  10.233   5.004 -0.2353 -0.5270  0.4633
  898MOL0     H23889   7.091  10.365   5.046  0.3404  0.9723 -0.7862
  898MOL0     H23890   6.866  10.358   5.181 -2.9456 -2.1528 -1.4232
  898MOL0     H23891   6.911  10.505   5.107 -2.5844 -0.0160 -0.3791
  898MOL0     H23892   6.739  10.302   4.941  3.9247 -1.9493  1.6543
  898MOL0     H23893   6.740  10.481   4.948  1.6215 -0.9743 -1.2923
  898MOL0     H23894   6.638  10.455   5.181  0.6246  0.5827 -0.1926
  898MOL0     H23895   6.636  10.277   5.145  0.8464 -0.0975  0.1161
  898MOL0     H23896   6.491  10.509   5.003 -0.2316  0.4489 -0.5827
  898MOL0     H23897   6.508  10.343   4.933 -2.7693 -0.3763  1.2210
  898MOL0     H23898   6.401  10.414   5.202 -0.3648  0.2116  0.2905
  898MOL0     H23899   6.415  10.240   5.154 -0.6501 -1.9925 -2.8147
  898MOL0     H23900   6.264  10.279   4.951 -0.6855  1.2369 -0.4843
  898MOL0     H23901   6.225  10.435   5.001  1.4402  0.7091 -1.4242
  898MOL0     H23902   6.158  10.320   5.239  1.2521 -2.1959  2.8497
  898MOL0     H23903   6.193  10.174   5.167 -0.1086  0.6811  2.1213
  898MOL0     H23904   7.028  10.503   4.658 -1.0977 -0.4477  0.8364
  898MOL0     H23905   7.237  10.476   4.499 -3.3848  1.2601  1.1453
  898MOL0     H23906   7.768  10.504   4.561 -1.0587  0.5575 -0.3422
  898MOL0     H23907   7.951  10.497   4.439 -0.8714  0.6848  1.7887
  898MOL0     H23908   7.930   9.142   5.257  0.5077  0.2633 -2.6495
  898MOL0     H23909   7.892   9.066   5.454  0.8759 -2.8057  1.8457
  898MOL0     H23910   7.461   8.836   5.619 -2.0394 -0.9740  0.8905
  898MOL0     H23911   7.298   8.875   5.794  0.0012  3.1332 -5.2198
  898MOL0     H23912   7.405   8.994   6.222 -0.6449 -0.9320  0.5073
  898MOL0     H23913   7.367   9.144   6.142 -4.2754  2.3715  3.6488
  898MOL0     H23914   7.195   9.122   6.291 -0.3590  3.4417 -1.5151
  898MOL0     H23915   7.165   8.956   6.251  3.2022 -0.6699  0.1035
  898MOL0     H23916   7.087   9.039   6.013 -3.0416  2.2076 -1.0524
  898MOL0     H23917   7.008   9.100   6.154  1.4849 -1.4032  1.7613
  898MOL0     H23918   7.228   9.266   6.025 -1.0764  2.0501 -0.0459
  898MOL0     H23919   7.102   9.320   6.139  1.1160  3.7701 -1.4494
  898MOL0     H23920   6.871   9.333   5.784  1.6616 -2.1719 -0.2412
  898MOL0     H23921   7.580   9.002   6.080  0.3195  2.2925  0.1084
  898MOL0     H23922   7.857   8.903   5.924  2.5313  1.7288  0.7616
  898MOL0     H23923   7.826   9.070   5.853  1.8687  0.0306 -0.2468
  898MOL0     H23924   7.811   9.036   6.028  1.0685 -2.2362  0.5688
  899MOL0     O23925  11.325   6.291   1.147  0.0441  0.1709 -0.2392
  899MOL0     C23926  11.446   6.279   1.167 -0.8902 -0.6174 -0.1118
  899MOL0     O23927  11.524   6.179   1.107 -0.9769  1.3672 -0.5260
  899MOL0     C23928  11.515   6.044   1.140  0.1694 -0.1683 -0.1930
  899MOL0     C23929  11.420   5.991   1.223  0.1818  0.4701  0.1199
  899MOL0     C23930  11.437   5.853   1.261 -0.4706 -0.4559 -0.8663
  899MOL0     C23931  11.541   5.774   1.212 -0.5322  0.1345 -0.4532
  899MOL0     O23932  11.560   5.640   1.234 -0.3795  0.3598  0.5363
  899MOL0     C23933  11.457   5.582   1.318 -0.2283 -0.0407 -0.0321
  899MOL0     C23934  11.311   5.578   1.260  0.8902  0.2415 -0.1152
  899MOL0     C23935  11.317   5.481   1.140  0.2174 -1.0800 -0.4169
  899MOL0     C23936  11.181   5.446   1.081  0.5920 -0.1876  0.7072
  899MOL0     C23937  11.104   5.329   1.134 -0.4905  0.0498  0.8273
  899MOL0     C23938  11.174   5.200   1.118 -0.2079 -0.5293 -0.7324
  899MOL0     C23939  11.069   5.091   1.125 -0.4095  0.2216  0.4994
  899MOL0     C23940  10.953   5.075   1.232  0.1852 -0.6415 -0.1770
  899MOL0     N23941  10.901   4.942   1.227  0.3449  0.1450  0.0090
  899MOL0     C23942  10.925   4.839   1.313 -0.1896  0.1421  0.3596
  899MOL0     C23943  10.877   4.727   1.242  0.6099  0.4574 -0.4436
  899MOL0     C23944  10.863   4.586   1.302 -0.6791  0.6775  0.3373
  899MOL0     C23945  11.000   4.518   1.261  0.0819  0.6512  0.0373
  899MOL0     C23946  11.005   4.371   1.320 -0.2154  0.1505  0.7958
  899MOL0     C23947  10.893   4.280   1.264  0.0259 -0.8944 -0.0532
  899MOL0     O23948  10.880   4.299   1.118 -0.2169  0.0782 -0.6482
  899MOL0     C23949  10.975   4.242   1.044  0.0935  1.5027 -0.3791
  899MOL0     C23950  11.029   4.322   0.946 -0.5836 -0.5520  0.0006
  899MOL0     C23951  11.117   4.275   0.855 -0.3798  1.2643  0.1386
  899MOL0     C23952  11.191   4.352   0.760  0.7665 -1.5786 -0.3850
  899MOL0     C23953  11.157   4.139   0.868 -0.0663 -0.1336 -0.3602
  899MOL0     C23954  11.248   4.071   0.778  0.3862  0.6280 -0.0285
  899MOL0     O23955  11.363   4.032   0.831  0.5472  0.1001  0.0311
  899MOL0     C23956  11.443   3.934   0.776 -0.1788  0.1540  0.6654
  899MOL0     C23957  11.522   3.851   0.863 -0.2892 -0.4834 -0.5677
  899MOL0     C23958  11.617   3.764   0.812 -0.2899  0.7462  1.2099
  899MOL0     C23959  11.621   3.738   0.679  0.8214  0.2487 -0.0312
  899MOL0     O23960  11.705   3.632   0.640  0.3296 -0.3690 -0.5740
  899MOL0     C23961  11.734   3.631   0.499  0.1543 -0.0970  0.1388
  899MOL0     C23962  11.844   3.529   0.467  0.9167  0.2212  0.2764
  899MOL0     C23963  11.987   3.576   0.489  0.4944  0.2249 -0.2164
  899MOL0     C23964  12.031   3.627   0.630  0.1419  0.1781  0.0374
  899MOL0     C23965  12.185   3.647   0.630 -0.1841 -0.0368 -0.5304
  899MOL0     C23966  12.238   3.699   0.767 -0.8609  0.6621  0.6788
  899MOL0     C23967  12.394   3.674   0.783  0.5090  0.2038  0.7303
  899MOL0     C23968  12.437   3.528   0.802 -0.7612  0.1271  0.0458
  899MOL0    Cl23969  12.586   3.515   0.901  0.2454  0.1241  0.1740
  899MOL0     C23970  11.541   3.820   0.595  0.4581  0.2728  1.2369
  899MOL0     C23971  11.462   3.917   0.640  0.2165 -0.2130 -0.0781
  899MOL0     O23972  11.192   4.027   0.678 -0.7162  0.0373 -0.5125
  899MOL0     C23973  11.102   4.049   0.963  0.3561  0.1787  0.0704
  899MOL0     C23974  11.017   4.103   1.064  0.6818 -0.1046 -0.4384
  899MOL0     N23975  10.831   4.764   1.120 -0.5566 -0.6098 -0.3852
  899MOL0     N23976  10.839   4.888   1.116 -0.3933 -0.3354 -0.7186
  899MOL0     C23977  11.629   5.831   1.112 -0.0438 -0.3452  1.0164
  899MOL0     C23978  11.612   5.962   1.073  0.9757  0.0015  0.2389
  899MOL0     C23979  11.520   6.390   1.238  0.7257  0.0025 -0.3930
  899MOL0     C23980  11.660   6.393   1.219 -0.9507  0.6602 -0.3464
  899MOL0     C23981  11.730   6.509   1.258 -0.0495  0.2852 -0.0924
  899MOL0     C23982  11.675   6.620   1.315  0.6035 -0.3971 -0.5527
  899MOL0     O23983  11.760   6.717   1.363  0.0733  0.3813 -0.0964
  899MOL0     C23984  11.709   6.825   1.455 -0.0340 -0.7007  0.4813
  899MOL0     C23985  11.640   6.934   1.367  0.4555 -0.1708  0.0578
  899MOL0     C23986  11.551   7.036   1.442 -0.1322  0.9906 -1.2541
  899MOL0     C23987  11.466   7.132   1.350  0.5036 -0.5542  0.6859
  899MOL0     C23988  11.560   7.193   1.261 -0.5779  0.3847 -0.4025
  899MOL0     C23989  11.647   7.252   1.205 -0.0500 -0.8746  0.3881
  899MOL0     C23990  11.536   6.610   1.341 -0.2433  0.2446 -0.5347
  899MOL0     C23991  11.458   6.498   1.308  0.5292  0.3499  0.1878
  899MOL0     C23992  11.307   6.519   1.322 -0.0588 -0.3688  0.0674
  899MOL0     H23993  11.333   6.037   1.269  0.7253 -2.2837  4.4163
  899MOL0     H23994  11.360   5.817   1.329 -0.8004  0.6512 -0.6278
  899MOL0     H23995  11.464   5.634   1.414 -0.6448  1.6123 -0.8674
  899MOL0     H23996  11.479   5.475   1.327  3.0535  0.4665 -0.4290
  899MOL0     H23997  11.232   5.550   1.330 -1.4262  2.7826 -1.4950
  899MOL0     H23998  11.278   5.677   1.225  6.4370  2.0886 -1.1492
  899MOL0     H23999  11.379   5.530   1.064 -1.8167  1.8641 -0.3739
  899MOL0     H24000  11.373   5.392   1.169  1.8970 -0.0794 -0.4630
  899MOL0     H24001  11.109   5.528   1.081  0.5549 -0.0265 -3.1033
  899MOL0     H24002  11.205   5.425   0.976  0.8091 -0.6731  0.8514
  899MOL0     H24003  11.015   5.312   1.073  1.4517 -5.0189 -1.1113
  899MOL0     H24004  11.077   5.352   1.238 -1.0271 -1.1937  0.9736
  899MOL0     H24005  11.233   5.197   1.027  1.8972 -0.6984  0.5791
  899MOL0     H24006  11.256   5.182   1.188  1.8353  0.0238 -2.8666
  899MOL0     H24007  11.135   5.006   1.145  1.2666  1.7768  1.9854
  899MOL0     H24008  11.034   5.074   1.023  1.0764 -0.7419  0.1168
  899MOL0     H24009  10.989   5.089   1.335 -2.7476 -3.3107  1.3758
  899MOL0     H24010  10.881   5.154   1.208  3.8429  2.3021 -2.8558
  899MOL0     H24011  10.968   4.849   1.412  0.2437 -1.7927  0.3962
  899MOL0     H24012  10.779   4.523   1.275 -1.4554  0.9741  1.9331
  899MOL0     H24013  10.853   4.596   1.411 -0.3953 -1.7023  0.6288
  899MOL0     H24014  11.022   4.524   1.154 -1.6993  2.7262 -0.2611
  899MOL0     H24015  11.086   4.568   1.306  1.6241 -1.5469 -0.2830
  899MOL0     H24016  11.102   4.326   1.301 -0.9454 -2.0156  1.8422
  899MOL0     H24017  11.000   4.379   1.428  1.0669 -1.0730  0.9835
  899MOL0     H24018  10.928   4.181   1.293 -1.8441 -1.0185  1.9635
  899MOL0     H24019  10.799   4.292   1.319  0.3997  0.5020  0.3261
  899MOL0     H24020  11.003   4.427   0.948  2.0595  0.1707  0.7013
  899MOL0     H24021  11.195   4.301   0.663  0.8273 -2.0834 -0.1153
  899MOL0     H24022  11.290   4.373   0.801  0.8086  1.1977 -1.6895
  899MOL0     H24023  11.142   4.445   0.730 -0.4612 -3.0662 -3.4521
  899MOL0     H24024  11.505   3.852   0.970 -2.3808 -0.2071 -0.8636
  899MOL0     H24025  11.664   3.690   0.877  0.1031  0.0046  0.1125
  899MOL0     H24026  11.649   3.601   0.437  1.4861 -0.0409 -1.8107
  899MOL0     H24027  11.771   3.729   0.467  0.2335  1.1251  3.5478
  899MOL0     H24028  11.837   3.431   0.515  1.0964  0.0396 -0.0643
  899MOL0     H24029  11.839   3.508   0.360  0.0062 -0.6075  0.4557
  899MOL0     H24030  12.011   3.656   0.419  0.2761  0.8237  0.3900
  899MOL0     H24031  12.055   3.495   0.459  1.2281  1.8550 -3.3592
  899MOL0     H24032  12.005   3.544   0.695  0.4869  0.0632  0.0343
  899MOL0     H24033  11.969   3.712   0.658 -1.8421 -1.6339  1.4471
  899MOL0     H24034  12.240   3.555   0.610  0.7456  0.0545  1.3335
  899MOL0     H24035  12.214   3.725   0.559  1.9763 -1.3504 -1.2013
  899MOL0     H24036  12.187   3.653   0.853  0.5080 -3.4504 -0.4711
  899MOL0     H24037  12.226   3.806   0.784 -1.6860  0.5291  1.0009
  899MOL0     H24038  12.436   3.728   0.868  0.8859  0.1929  0.5548
  899MOL0     H24039  12.434   3.714   0.689  0.0918  2.9042  1.6196
  899MOL0     H24040  12.456   3.472   0.710  0.9490 -0.1766  0.5424
  899MOL0     H24041  12.359   3.466   0.847 -1.2539  1.5963  1.3100
  899MOL0     H24042  11.564   3.809   0.489  1.0847  0.9788  1.2928
  899MOL0     H24043  11.407   3.990   0.582 -3.2458  1.9359  5.1573
  899MOL0     H24044  11.140   3.948   0.966  3.0544  1.1007 -0.2414
  899MOL0     H24045  10.982   4.048   1.151 -2.5449 -1.9319 -2.6715
  899MOL0     H24046  11.707   5.772   1.066 -2.6831 -1.3563 -2.5866
  899MOL0     H24047  11.683   5.991   0.996 -1.0912 -2.0782 -2.7176
  899MOL0     H24048  11.719   6.308   1.187 -0.1948  1.0946 -0.1510
  899MOL0     H24049  11.838   6.503   1.249  0.1283 -1.7901  2.2798
  899MOL0     H24050  11.646   6.795   1.539  0.4062 -1.3280  0.5980
  899MOL0     H24051  11.788   6.880   1.506 -1.8359  1.3025  1.2510
  899MOL0     H24052  11.578   6.876   1.297  0.0848  0.8061 -0.4378
  899MOL0     H24053  11.718   6.983   1.308 -0.3978  1.3277  0.1321
  899MOL0     H24054  11.485   6.982   1.511  3.8416  0.0421  2.1873
  899MOL0     H24055  11.609   7.100   1.509 -0.1800  0.1220 -0.3655
  899MOL0     H24056  11.418   7.217   1.399  1.9075  1.5292 -1.3574
  899MOL0     H24057  11.383   7.082   1.300  0.7233  0.2323 -0.5011
  899MOL0     H24058  11.730   7.310   1.170 -0.3300 -0.4922  0.3552
  899MOL0     H24059  11.495   6.698   1.390 -0.2358  0.2804 -0.5914
  899MOL0     H24060  11.265   6.423   1.354  4.9274 -2.9457 -0.2254
  899MOL0     H24061  11.288   6.600   1.393 -0.8399  0.2936 -0.8560
  899MOL0     H24062  11.263   6.552   1.227 -1.0934 -0.5499  0.4694
  900MOL0     O24063   7.873   1.118  10.965 -0.1175 -0.4507  0.6791
  900MOL0     C24064   7.810   1.217  10.989 -0.0002  0.4454 -0.4261
  900MOL0     O24065   7.832   1.340  10.926 -0.4130  0.5525 -0.1039
  900MOL0     C24066   7.922   1.341  10.817  0.7746  0.2726 -0.1705
  900MOL0     C24067   7.883   1.306  10.682 -0.0797  0.3395 -0.6190
  900MOL0     C24068   7.972   1.324  10.575 -0.7156  0.0325 -0.0932
  900MOL0     C24069   8.102   1.361  10.602 -0.4905  0.0224  0.0310
  900MOL0     O24070   8.195   1.366  10.497 -0.1829 -0.0630 -0.2439
  900MOL0     C24071   8.325   1.417  10.526  0.6382  1.3515 -1.2493
  900MOL0     C24072   8.410   1.404  10.402 -0.0904 -0.3612 -0.2687
  900MOL0     C24073   8.336   1.441  10.271 -1.0969  0.2594 -0.7463
  900MOL0     C24074   8.396   1.363  10.153 -0.0748  0.2726  1.3350
  900MOL0     C24075   8.379   1.446  10.008  0.1267  0.2981 -0.2413
  900MOL0     C24076   8.491   1.412   9.914 -0.2770  0.2768  0.1708
  900MOL0     C24077   8.530   1.259   9.929  0.3235  0.0219  0.1708
  900MOL0     C24078   8.607   1.214   9.800 -0.4530 -0.1836  0.0612
  900MOL0     N24079   8.521   1.175   9.683  0.0459 -0.2626  0.2140
  900MOL0     C24080   8.466   1.049   9.668  0.0060  0.8352  0.0589
  900MOL0     C24081   8.398   1.047   9.550  0.1115  0.5949  0.5842
  900MOL0     C24082   8.327   0.918   9.489 -0.0787  0.0656 -0.1798
  900MOL0     C24083   8.382   0.896   9.346  0.4625 -0.7006  0.2131
  900MOL0     C24084   8.285   0.842   9.244 -0.0447  0.5815 -0.4993
  900MOL0     C24085   8.324   0.870   9.095 -0.6179  0.1563 -0.1787
  900MOL0     O24086   8.269   0.765   9.012 -0.0665 -0.4662  0.2078
  900MOL0     C24087   8.169   0.799   8.925 -1.0074 -0.4797 -0.8124
  900MOL0     C24088   8.078   0.900   8.932  0.1523  0.1512  0.1667
  900MOL0     C24089   7.993   0.945   8.827  0.3955 -0.5704 -0.6446
  900MOL0     C24090   7.929   1.089   8.829  0.0905  0.5864  0.0518
  900MOL0     C24091   7.996   0.872   8.706 -0.0361  1.0408  0.0855
  900MOL0     C24092   7.913   0.891   8.581  0.1714  0.5763  0.3843
  900MOL0     O24093   7.961   0.828   8.472  0.1131 -0.1702  0.2487
  900MOL0     C24094   7.915   0.852   8.347  0.0278  0.5282  0.1862
  900MOL0     C24095   7.859   0.965   8.287  0.0624  0.3160  0.0476
  900MOL0     C24096   7.823   0.969   8.153 -0.3316 -0.6657  0.5102
  900MOL0     C24097   7.856   0.871   8.067 -0.1598 -0.5154  1.0366
  900MOL0     O24098   7.810   0.893   7.938 -0.6671 -0.2616  0.2875
  900MOL0     C24099   7.843   0.790   7.850 -0.1228 -0.5480  0.7133
  900MOL0     C24100   7.986   0.797   7.790 -0.5577  0.8712 -0.0231
  900MOL0     C24101   8.048   0.649   7.764  0.6278 -0.7172  0.4328
  900MOL0     C24102   8.173   0.664   7.693 -0.2389  0.3059 -0.0176
  900MOL0     C24103   8.141   0.691   7.538 -0.5965  0.0741 -0.0686
  900MOL0     C24104   8.087   0.575   7.453  0.0816 -0.2040 -0.2189
  900MOL0     C24105   8.202   0.494   7.389 -0.7912 -0.3866  0.3759
  900MOL0     C24106   8.159   0.357   7.342  0.2540  0.1017 -1.4051
  900MOL0    Cl24107   8.222   0.237   7.472 -0.0260  0.4710  0.4240
  900MOL0     C24108   7.930   0.758   8.113 -0.7343  0.3495  0.9440
  900MOL0     C24109   7.940   0.748   8.255  0.5006 -0.1767  0.3692
  900MOL0     O24110   7.800   0.944   8.595  0.6553  0.1738 -0.5547
  900MOL0     C24111   8.082   0.755   8.698  0.5609 -0.6343 -0.6993
  900MOL0     C24112   8.165   0.728   8.804  0.3291 -0.1672  0.0647
  900MOL0     N24113   8.403   1.173   9.490 -0.2389 -0.7895  0.6208
  900MOL0     N24114   8.482   1.247   9.569 -0.3894  0.0509 -0.1656
  900MOL0     C24115   8.145   1.386  10.736  1.1289 -1.3634 -0.3969
  900MOL0     C24116   8.048   1.377  10.841 -0.4225  0.2219 -0.3124
  900MOL0     C24117   7.713   1.211  11.097  0.3899  0.9313 -0.5119
  900MOL0     C24118   7.681   1.332  11.164 -0.1911 -0.1338 -0.3594
  900MOL0     C24119   7.567   1.333  11.245  0.0832 -0.3638 -0.1826
  900MOL0     C24120   7.481   1.233  11.258 -0.3657  0.0739  0.4614
  900MOL0     O24121   7.367   1.244  11.329 -0.1320  0.2236  0.5528
  900MOL0     C24122   7.360   1.314  11.449 -0.6584  0.4385 -0.2622
  900MOL0     C24123   7.291   1.218  11.545 -0.7108 -0.7260 -0.0523
  900MOL0     C24124   7.370   1.084  11.560  0.0039  0.1763  0.3899
  900MOL0     C24125   7.349   1.004  11.688 -0.0149 -0.7015  1.0238
  900MOL0     C24126   7.429   0.884  11.698 -0.3198 -0.5896 -0.0567
  900MOL0     C24127   7.495   0.778  11.721  0.5316  0.4223  0.0986
  900MOL0     C24128   7.512   1.113  11.194  0.2141 -0.4783 -0.6481
  900MOL0     C24129   7.629   1.097  11.120  0.5165 -0.0630 -0.7415
  900MOL0     C24130   7.654   0.953  11.059 -0.4512  0.2573  0.5114
  900MOL0     H24131   7.782   1.269  10.669  0.2312 -1.7339  1.9408
  900MOL0     H24132   7.931   1.295  10.478  0.1492 -1.3805 -0.0780
  900MOL0     H24133   8.368   1.354  10.604 -1.5985 -0.0816 -1.0823
  900MOL0     H24134   8.327   1.521  10.559  1.6770  1.3797 -1.3538
  900MOL0     H24135   8.503   1.462  10.408  1.3855 -2.5889 -0.2871
  900MOL0     H24136   8.442   1.300  10.414  2.9246  0.6047  1.0491
  900MOL0     H24137   8.227   1.427  10.274 -0.7928 -2.4271 -0.1454
  900MOL0     H24138   8.345   1.548  10.249  1.0190  0.2498 -0.1085
  900MOL0     H24139   8.503   1.366  10.175  0.3816 -0.6908 -0.6093
  900MOL0     H24140   8.373   1.258  10.132 -0.0082  0.5975 -0.5517
  900MOL0     H24141   8.387   1.553  10.030 -2.4583  0.0137  2.7366
  900MOL0     H24142   8.274   1.429   9.985  0.3585 -2.4409  0.4512
  900MOL0     H24143   8.458   1.432   9.812 -0.7550  1.5137  0.5538
  900MOL0     H24144   8.579   1.472   9.939 -0.3047  0.1416  0.6006
  900MOL0     H24145   8.441   1.195   9.930 -0.2907  0.8265 -0.6607
  900MOL0     H24146   8.593   1.236  10.015 -0.5101 -2.3124  0.2274
  900MOL0     H24147   8.674   1.296   9.771 -0.0271 -0.1547  1.0736
  900MOL0     H24148   8.670   1.129   9.826  0.4579  0.3114 -0.4854
  900MOL0     H24149   8.478   0.972   9.743  0.5040 -0.6106 -1.4417
  900MOL0     H24150   8.225   0.954   9.474 -0.5392 -0.5774  1.1556
  900MOL0     H24151   8.329   0.830   9.555  2.5659  0.4171  0.3336
  900MOL0     H24152   8.407   0.994   9.304  1.4741 -2.2338 -3.0823
  900MOL0     H24153   8.473   0.836   9.354 -0.3743 -2.2071 -0.9734
  900MOL0     H24154   8.273   0.736   9.267 -4.9447  1.6244  3.7583
  900MOL0     H24155   8.185   0.878   9.269  0.0216  1.8713 -1.9654
  900MOL0     H24156   8.291   0.969   9.062 -1.0647  0.5744  1.4598
  900MOL0     H24157   8.433   0.866   9.088 -0.2930  1.5794  2.5998
  900MOL0     H24158   8.089   0.957   9.024  0.3258  1.9924 -0.9346
  900MOL0     H24159   7.944   1.145   8.736 -0.2335  1.2463  0.3913
  900MOL0     H24160   7.980   1.151   8.903  1.5518 -1.9703  1.3404
  900MOL0     H24161   7.822   1.077   8.846  0.1842 -2.0552 -0.8357
  900MOL0     H24162   7.828   1.054   8.340 -2.6067  1.1479 -2.7077
  900MOL0     H24163   7.767   1.049   8.105 -0.5647 -0.8628  0.4518
  900MOL0     H24164   7.820   0.693   7.893 -1.1272 -0.5746  0.1499
  900MOL0     H24165   7.777   0.792   7.762  0.7321 -0.7674  0.0505
  900MOL0     H24166   8.001   0.854   7.698 -1.9056  1.0714 -0.1449
  900MOL0     H24167   8.043   0.855   7.863  1.8186 -0.6928 -0.5592
  900MOL0     H24168   7.971   0.587   7.718 -1.3704  1.7572  0.1951
  900MOL0     H24169   8.071   0.599   7.858  0.2854 -1.1888  0.2670
  900MOL0     H24170   8.235   0.575   7.710  1.4848  1.3136 -0.8091
  900MOL0     H24171   8.239   0.742   7.731  0.0757  0.7512 -1.4162
  900MOL0     H24172   8.081   0.782   7.533  1.0459  1.1296 -1.9907
  900MOL0     H24173   8.237   0.731   7.502  1.1206 -1.1350  2.8231
  900MOL0     H24174   8.022   0.607   7.371 -0.0488  0.2005  0.0368
  900MOL0     H24175   8.027   0.513   7.520 -2.3052  2.1490 -0.0230
  900MOL0     H24176   8.290   0.487   7.453 -0.1949  3.1518  0.1335
  900MOL0     H24177   8.238   0.549   7.301 -1.5836  0.7473  0.7394
  900MOL0     H24178   8.207   0.343   7.245  2.4080 -1.2359 -0.2308
  900MOL0     H24179   8.050   0.354   7.336  0.2028  0.6446 -0.8612
  900MOL0     H24180   7.966   0.679   8.047  0.4596  0.7994  1.0203
  900MOL0     H24181   7.985   0.659   8.298  0.2132  0.2325  1.5635
  900MOL0     H24182   8.090   0.692   8.610  2.1496 -1.8094  0.2450
  900MOL0     H24183   8.227   0.643   8.779 -0.6013 -1.1968  1.1298
  900MOL0     H24184   8.247   1.418  10.758  1.0881  2.1718 -4.0656
  900MOL0     H24185   8.091   1.396  10.939  2.2161  1.5953 -1.6218
  900MOL0     H24186   7.737   1.424  11.154  0.9794 -0.1859  3.8182
  900MOL0     H24187   7.538   1.432  11.280 -1.5144 -0.3924 -1.3052
  900MOL0     H24188   7.458   1.336  11.493 -0.7983  4.5683 -1.5900
  900MOL0     H24189   7.304   1.405  11.426 -2.1078  0.4565  2.8520
  900MOL0     H24190   7.183   1.201  11.536 -0.5699 -1.1696 -0.9356
  900MOL0     H24191   7.292   1.273  11.640 -1.6652 -0.8981  0.0661
  900MOL0     H24192   7.340   1.018  11.479  2.5785 -0.0803 -0.4428
  900MOL0     H24193   7.477   1.106  11.553  0.0333 -0.5868 -2.6983
  900MOL0     H24194   7.244   0.980  11.709 -0.7136 -0.8074 -2.0645
  900MOL0     H24195   7.374   1.072  11.770 -0.8203 -1.9025  2.3283
  900MOL0     H24196   7.557   0.692  11.737  2.9024  2.2954  1.7111
  900MOL0     H24197   7.441   1.030  11.195  0.9033 -1.0729 -0.4854
  900MOL0     H24198   7.752   0.917  11.092  0.0812 -2.4389 -3.4075
  900MOL0     H24199   7.579   0.876  11.080 -0.8019  0.3212 -0.4616
  900MOL0     H24200   7.671   0.959  10.952  0.6832  1.6094  0.7416
  901MOL0     O24201   1.496  10.149   1.682 -0.0169  0.1250  0.7298
  901MOL0     C24202   1.611  10.185   1.712  0.3793  0.5489  0.5233
  901MOL0     O24203   1.669  10.304   1.664 -0.6777  0.6029  0.2082
  901MOL0     C24204   1.602  10.365   1.561 -0.9524  0.7954 -0.1966
  901MOL0     C24205   1.579  10.307   1.436 -0.0529 -0.1011  0.2602
  901MOL0     C24206   1.519  10.372   1.328  0.2916 -0.1977  0.2575
  901MOL0     C24207   1.478  10.508   1.356  0.0903 -0.8331 -0.3249
  901MOL0     O24208   1.429  10.590   1.258 -0.5756  0.5700  1.1495
  901MOL0     C24209   1.466  10.575   1.119 -0.3639  0.7189 -0.3485
  901MOL0     C24210   1.610  10.615   1.109  0.9560  0.6827  0.0122
  901MOL0     C24211   1.675  10.583   0.971 -0.3231  0.3822 -0.3433
  901MOL0     C24212   1.804  10.668   0.964 -0.3726  0.2024 -0.1972
  901MOL0     C24213   1.896  10.643   0.847 -0.2580 -0.1416  0.4985
  901MOL0     C24214   1.842  10.684   0.705 -0.8414 -0.3620  0.7012
  901MOL0     C24215   1.968  10.699   0.599  1.3900 -0.2694 -1.5440
  901MOL0     C24216   1.927  10.669   0.453 -0.1102 -0.4970 -0.1202
  901MOL0     N24217   1.940  10.524   0.431  0.8295  0.3866  0.5898
  901MOL0     C24218   1.970  10.469   0.311  0.3098  0.2522  0.9120
  901MOL0     C24219   1.941  10.336   0.335 -0.2965 -0.2877 -0.9463
  901MOL0     C24220   1.963  10.231   0.229  0.0993 -0.0936  0.7258
  901MOL0     C24221   1.846  10.127   0.248 -0.0609 -0.6255  0.8020
  901MOL0     C24222   1.831  10.039   0.125  0.9765 -0.5960 -0.4025
  901MOL0     C24223   1.693   9.980   0.131  0.5918 -0.7507  0.2592
  901MOL0     O24224   1.590  10.072   0.094 -0.5647  0.8491  0.4258
  901MOL0     C24225   1.472  10.020   0.047 -0.6251  0.3992  0.0998
  901MOL0     C24226   1.462   9.960  -0.080 -0.1204  0.0185 -0.8959
  901MOL0     C24227   1.335   9.912  -0.119 -0.6771 -0.4481 -0.4398
  901MOL0     C24228   1.328   9.845  -0.258  0.2733 -1.1709 -0.6749
  901MOL0     C24229   1.223   9.911  -0.032  0.6043  0.6299 -0.4505
  901MOL0     C24230   1.086   9.872  -0.069 -0.1285 -0.4224  0.4966
  901MOL0     O24231   0.986   9.912   0.022  0.1555 -0.8935  0.4225
  901MOL0     C24232   0.857   9.877  -0.008 -0.2022  1.0509  0.2432
  901MOL0     C24233   0.776   9.964  -0.066  0.3939 -0.3470  0.2905
  901MOL0     C24234   0.637   9.934  -0.097 -0.7619  0.5038 -0.2049
  901MOL0     C24235   0.580   9.817  -0.045  0.0653  0.4961  0.8407
  901MOL0     O24236   0.458   9.791  -0.091  0.0521 -0.2206  0.3052
  901MOL0     C24237   0.387   9.686  -0.036 -0.0538  0.4326  0.3242
  901MOL0     C24238   0.248   9.677  -0.108  0.5209  0.1326 -0.3658
  901MOL0     C24239   0.145   9.778  -0.054  0.0333 -0.8991  1.0634
  901MOL0     C24240   0.065   9.712   0.061  0.1437  0.1542  0.4598
  901MOL0     C24241  -0.013   9.825   0.136 -0.0540 -0.6919 -0.4736
  901MOL0     C24242  -0.147   9.797   0.208  0.7490  0.3729 -0.0915
  901MOL0     C24243  -0.210   9.920   0.265 -1.2652  0.2035  1.0916
  901MOL0     C24244  -0.363   9.893   0.301 -0.0809  0.1227 -0.3314
  901MOL0    Cl24245  -0.376   9.748   0.398  0.6631  0.0744 -0.3500
  901MOL0     C24246   0.652   9.739   0.039  0.1821 -1.1096  0.1126
  901MOL0     C24247   0.793   9.761   0.045 -0.4386  0.5706 -0.1474
  901MOL0     O24248   1.066   9.797  -0.166  0.5360 -0.2006 -0.3465
  901MOL0     C24249   1.251   9.957   0.093 -0.1349  1.0054 -0.1449
  901MOL0     C24250   1.365  10.021   0.132 -0.0972 -0.4729  0.3827
  901MOL0     N24251   1.897  10.322   0.463  0.7797 -0.0176  0.6604
  901MOL0     N24252   1.906  10.437   0.525  0.1375 -0.2252 -0.1104
  901MOL0     C24253   1.500  10.562   1.478  0.1834  0.1532  0.5564
  901MOL0     C24254   1.568  10.499   1.579 -1.3270  0.7347  1.0591
  901MOL0     C24255   1.687  10.096   1.808  0.6861  0.2853  0.1404
  901MOL0     C24256   1.614  10.006   1.882 -0.5408 -0.7344  0.1767
  901MOL0     C24257   1.672   9.935   1.985  0.1138  0.1180  0.2080
  901MOL0     C24258   1.804   9.946   2.001 -0.1553 -0.1703 -0.6437
  901MOL0     O24259   1.863   9.861   2.087 -0.1057 -0.1590  0.9263
  901MOL0     C24260   1.903   9.909   2.212 -0.7055  0.5357  0.2015
  901MOL0     C24261   2.021   9.830   2.279  0.1357  1.3226  0.2486
  901MOL0     C24262   2.079   9.901   2.401 -0.1224  0.1149  0.0791
  901MOL0     C24263   2.145  10.035   2.379  0.3721  0.0264  0.2415
  901MOL0     C24264   2.174  10.091   2.515 -0.4477  0.2121 -0.4351
  901MOL0     C24265   2.199  10.152   2.619 -0.5396  0.3481  0.9074
  901MOL0     C24266   1.882  10.034   1.926 -0.1882 -0.5091  0.2729
  901MOL0     C24267   1.825  10.107   1.819  0.1982  0.3420  1.0134
  901MOL0     C24268   1.924  10.169   1.722  0.3513 -0.2182  0.3246
  901MOL0     H24269   1.619  10.209   1.411 -0.8366 -0.5500  0.7513
  901MOL0     H24270   1.497  10.332   1.230 -2.3664  0.2252  0.6135
  901MOL0     H24271   1.422  10.656   1.060  0.0426  2.7061  1.9105
  901MOL0     H24272   1.442  10.473   1.085  2.7383 -0.5275  0.8425
  901MOL0     H24273   1.615  10.724   1.119  0.5238  0.5485  2.1430
  901MOL0     H24274   1.665  10.555   1.182 -0.6687 -2.6785 -1.2783
  901MOL0     H24275   1.695  10.479   0.944 -0.1972  0.2303  0.3251
  901MOL0     H24276   1.601  10.617   0.897  1.2660  1.8939 -1.3128
  901MOL0     H24277   1.763  10.767   0.940 -0.6558  0.2531  0.4556
  901MOL0     H24278   1.861  10.668   1.058  1.3938  0.2080 -1.2266
  901MOL0     H24279   1.922  10.538   0.835 -1.4258 -0.3942  0.0205
  901MOL0     H24280   1.985  10.706   0.850 -1.6661  2.0241 -0.5990
  901MOL0     H24281   1.778  10.603   0.667  2.1584 -0.2518 -5.8229
  901MOL0     H24282   1.792  10.781   0.711  2.0233  1.2184  0.5801
  901MOL0     H24283   2.067  10.666   0.631  0.3499 -0.1566  2.3155
  901MOL0     H24284   1.973  10.807   0.617 -1.7390 -0.4399  1.3997
  901MOL0     H24285   1.822  10.698   0.445  0.2585  0.5766 -1.5041
  901MOL0     H24286   1.991  10.724   0.383 -1.7269  1.1574 -0.3944
  901MOL0     H24287   2.012  10.514   0.221  1.1505  0.7854  1.5620
  901MOL0     H24288   2.059  10.179   0.230 -0.8349 -2.3358 -3.2757
  901MOL0     H24289   1.952  10.281   0.132  3.3494  0.7434  0.6618
  901MOL0     H24290   1.866  10.062   0.334  2.2828 -1.5285 -0.3062
  901MOL0     H24291   1.761  10.195   0.255  1.5095  1.7822 -1.6590
  901MOL0     H24292   1.847  10.091   0.030  2.9382  3.1551  1.7300
  901MOL0     H24293   1.900   9.956   0.140  1.2519 -0.6271 -1.7304
  901MOL0     H24294   1.674   9.889   0.074  0.5488 -0.2926 -0.4680
  901MOL0     H24295   1.677   9.952   0.236 -2.1988  0.5571  0.2737
  901MOL0     H24296   1.549   9.951  -0.144  2.0105  1.8765  1.5002
  901MOL0     H24297   1.289   9.743  -0.245  2.6377 -1.9355  1.4301
  901MOL0     H24298   1.433   9.845  -0.288  1.0829 -0.6302  1.8791
  901MOL0     H24299   1.261   9.898  -0.326 -2.1924 -1.4154  1.3830
  901MOL0     H24300   0.823  10.059  -0.092 -2.2665 -0.2228 -5.5989
  901MOL0     H24301   0.575   9.981  -0.173 -0.8626  0.7069  0.0030
  901MOL0     H24302   0.427   9.584  -0.045 -0.3601  0.3760 -0.4359
  901MOL0     H24303   0.373   9.708   0.070  2.4775  0.4046  0.7136
  901MOL0     H24304   0.251   9.701  -0.215  3.0371  1.8224 -0.0000
  901MOL0     H24305   0.198   9.581  -0.093 -1.9012  0.9797 -2.1689
  901MOL0     H24306   0.069   9.817  -0.123  1.5189  0.1283 -0.0918
  901MOL0     H24307   0.196   9.866  -0.012 -1.8143  0.5585  0.4089
  901MOL0     H24308   0.135   9.657   0.124  0.3821 -0.7355 -0.5501
  901MOL0     H24309  -0.007   9.639   0.022  1.3666 -0.1407 -1.3779
  901MOL0     H24310   0.052   9.876   0.207 -0.9033  0.4645 -0.5009
  901MOL0     H24311  -0.050   9.894   0.059 -2.3268 -0.7830  0.4374
  901MOL0     H24312  -0.142   9.726   0.291 -1.2196 -0.1767 -0.3758
  901MOL0     H24313  -0.211   9.744   0.136  1.2522 -0.2050 -0.1253
  901MOL0     H24314  -0.191  10.000   0.193  1.8139  1.1955  2.7928
  901MOL0     H24315  -0.150   9.958   0.349 -3.3904  1.4482  2.1175
  901MOL0     H24316  -0.418   9.883   0.207 -0.0519  2.5058 -0.6585
  901MOL0     H24317  -0.412   9.976   0.352 -3.1914 -1.4009 -0.5838
  901MOL0     H24318   0.603   9.657   0.090 -1.6104 -1.5751 -2.1892
  901MOL0     H24319   0.857   9.694   0.101 -1.4430 -0.2052  0.0871
  901MOL0     H24320   1.168   9.953   0.163 -2.1535 -4.2159 -2.3124
  901MOL0     H24321   1.366  10.060   0.233 -1.5114  0.4434  0.0687
  901MOL0     H24322   1.469  10.666   1.490 -1.3980  0.0843 -2.1670
  901MOL0     H24323   1.593  10.552   1.670  0.8533 -1.6352  1.9589
  901MOL0     H24324   1.507   9.993   1.872 -0.3937 -2.9813  1.0107
  901MOL0     H24325   1.615   9.874   2.055  3.4629 -1.6722  1.6020
  901MOL0     H24326   1.923  10.016   2.210  0.6011  0.3067 -0.5842
  901MOL0     H24327   1.821   9.893   2.283 -2.5074  2.5253 -1.3363
  901MOL0     H24328   2.106   9.819   2.210  1.3070  0.2779  1.7837
  901MOL0     H24329   1.983   9.734   2.315  1.2220 -0.2342 -2.4474
  901MOL0     H24330   1.994   9.907   2.469 -1.3552  3.3301 -1.5397
  901MOL0     H24331   2.153   9.837   2.450  3.1270  2.2126 -1.6841
  901MOL0     H24332   2.063  10.103   2.353  0.1377 -0.6751 -0.9307
  901MOL0     H24333   2.237  10.029   2.321  0.4841  2.2377  0.0707
  901MOL0     H24334   2.227  10.192   2.714 -2.4497 -0.0812  1.6983
  901MOL0     H24335   1.986  10.020   1.951  0.2995  2.3801  0.2189
  901MOL0     H24336   1.892  10.142   1.621 -0.6527 -1.4544  0.9441
  901MOL0     H24337   1.916  10.277   1.737 -1.9521 -0.2829 -0.1223
  901MOL0     H24338   2.027  10.132   1.725  2.1193  3.7358 -2.5412
  902MOL0     O24339   5.379   7.925   8.197  0.0089  0.5457  0.7038
  902MOL0     C24340   5.367   8.045   8.199  0.3161  1.0057  0.5331
  902MOL0     O24341   5.473   8.130   8.201  0.3700  0.6750 -0.0101
  902MOL0     C24342   5.596   8.074   8.201 -0.1859 -0.6961  0.2489
  902MOL0     C24343   5.649   8.034   8.080  1.8009 -0.6965  0.0640
  902MOL0     C24344   5.786   7.994   8.067  0.6902 -0.0858 -0.1063
  902MOL0     C24345   5.866   7.978   8.179 -0.2400  0.2291 -0.9396
  902MOL0     O24346   5.996   7.946   8.169 -0.1443  0.1905 -0.4339
  902MOL0     C24347   6.025   7.840   8.065 -0.9263  0.3127 -0.1413
  902MOL0     C24348   6.175   7.823   8.045  0.9962  0.4231  0.4986
  902MOL0     C24349   6.254   7.765   8.163 -0.3274  0.0038 -0.7517
  902MOL0     C24350   6.413   7.759   8.134 -0.2190 -0.3200  0.4960
  902MOL0     C24351   6.478   7.899   8.145 -0.1319  0.6829 -0.0968
  902MOL0     C24352   6.613   7.874   8.202  0.2508  0.5196 -0.5640
  902MOL0     C24353   6.685   8.007   8.217 -0.2060  0.1504 -0.4965
  902MOL0     C24354   6.710   8.087   8.085 -0.2952 -0.5037 -0.1176
  902MOL0     N24355   6.843   8.138   8.064 -0.0849  1.0366 -0.3167
  902MOL0     C24356   6.950   8.054   8.057 -0.2837 -0.1205 -0.4604
  902MOL0     C24357   7.054   8.126   8.000 -0.6239  0.6559  0.2704
  902MOL0     C24358   7.206   8.078   7.997 -0.0399 -0.1385  0.3367
  902MOL0     C24359   7.280   8.104   8.126  0.4627 -1.2647 -0.1363
  902MOL0     C24360   7.426   8.098   8.094  0.2074  0.5262  0.2809
  902MOL0     C24361   7.519   8.112   8.213  0.2064  0.1909  0.3339
  902MOL0     O24362   7.512   8.242   8.272  0.2811  0.0223  0.1509
  902MOL0     C24363   7.575   8.264   8.386  0.1444  0.3034  0.6145
  902MOL0     C24364   7.664   8.173   8.451 -0.0865 -0.4387 -0.6455
  902MOL0     C24365   7.707   8.204   8.579  0.3477  1.0726 -0.1755
  902MOL0     C24366   7.774   8.086   8.651  0.9508  0.0711  0.0297
  902MOL0     C24367   7.675   8.324   8.641  0.3728 -0.7537  0.9772
  902MOL0     C24368   7.708   8.351   8.777 -0.2395  0.3595 -0.3879
  902MOL0     O24369   7.602   8.389   8.854 -0.5174  0.7305 -0.2420
  902MOL0     C24370   7.623   8.421   8.981  0.3151  0.7986 -0.2873
  902MOL0     C24371   7.588   8.549   9.034  0.0977  0.2484 -0.3779
  902MOL0     C24372   7.607   8.571   9.168 -0.6030  0.3025  0.3795
  902MOL0     C24373   7.666   8.479   9.252  0.1597 -1.3217 -0.1393
  902MOL0     O24374   7.669   8.506   9.384 -0.0663 -0.1120 -0.7428
  902MOL0     C24375   7.548   8.577   9.444  0.1616  0.2431  0.3542
  902MOL0     C24376   7.516   8.531   9.578 -0.4979 -0.0671  0.4793
  902MOL0     C24377   7.422   8.411   9.599  0.5136 -0.2111  1.2080
  902MOL0     C24378   7.431   8.356   9.741  0.0371  0.0329 -0.2373
  902MOL0     C24379   7.324   8.255   9.757  0.3814 -0.4483  0.8967
  902MOL0     C24380   7.389   8.151   9.851 -0.2331  0.1914 -1.4288
  902MOL0     C24381   7.304   8.022   9.877  0.7270 -0.7427 -0.1624
  902MOL0     C24382   7.339   7.906   9.788 -0.3392 -0.7733 -0.1196
  902MOL0    Cl24383   7.228   7.761   9.809 -0.2227 -0.6420  0.4803
  902MOL0     C24384   7.703   8.354   9.203  0.2585  0.1494  0.4243
  902MOL0     C24385   7.671   8.321   9.062 -0.5509  0.1012 -0.5769
  902MOL0     O24386   7.825   8.348   8.813 -0.2994  0.3733  0.0745
  902MOL0     C24387   7.605   8.421   8.568  0.4470 -0.2598  0.4912
  902MOL0     C24388   7.551   8.392   8.441 -0.8775  0.7498 -0.3994
  902MOL0     N24389   7.001   8.250   7.975  0.5375  0.5141 -0.2983
  902MOL0     N24390   6.874   8.249   7.994  0.7790 -0.8552  0.1754
  902MOL0     C24391   5.812   8.012   8.301 -0.1459 -0.0357  0.3121
  902MOL0     C24392   5.678   8.058   8.312  1.1189 -0.5158  0.2168
  902MOL0     C24393   5.225   8.106   8.180  0.0568 -0.2862 -0.3702
  902MOL0     C24394   5.212   8.237   8.119  0.9112 -0.8783 -0.1592
  902MOL0     C24395   5.096   8.293   8.090 -0.6829 -0.4635 -0.5081
  902MOL0     C24396   4.978   8.235   8.136  0.1285 -0.2060  0.3794
  902MOL0     O24397   4.857   8.289   8.120  1.0210 -0.2365  0.3692
  902MOL0     C24398   4.836   8.420   8.066 -0.3451 -1.2669  0.0925
  902MOL0     C24399   4.689   8.453   8.055  0.1943  0.0707  0.9708
  902MOL0     C24400   4.606   8.351   7.993  0.6682  2.1307  0.9003
  902MOL0     C24401   4.454   8.394   7.962  0.3889  0.7732  0.2929
  902MOL0     C24402   4.441   8.538   7.924 -0.3203 -1.0294 -0.4112
  902MOL0     C24403   4.422   8.653   7.902  0.2527  0.0419 -0.3612
  902MOL0     C24404   4.985   8.112   8.197 -0.1380  0.3887 -0.1803
  902MOL0     C24405   5.101   8.046   8.221 -0.8874 -0.1510 -0.3396
  902MOL0     C24406   5.101   7.913   8.296 -0.1745 -0.5614  0.0890
  902MOL0     H24407   5.603   8.046   7.982  0.5257 -4.1976  0.0719
  902MOL0     H24408   5.816   7.990   7.962 -1.1467  7.4036 -1.4947
  902MOL0     H24409   5.982   7.859   7.967 -1.1493  0.4087 -0.0273
  902MOL0     H24410   5.987   7.741   8.093  0.0584 -0.0496 -0.0633
  902MOL0     H24411   6.187   7.748   7.965 -1.0374  1.0323 -0.4499
  902MOL0     H24412   6.218   7.915   8.004  0.4826  0.5562  0.2531
  902MOL0     H24413   6.247   7.830   8.251 -0.0079 -3.1256  1.7845
  902MOL0     H24414   6.218   7.668   8.197 -1.6232  0.8401  0.4016
  902MOL0     H24415   6.449   7.690   8.211 -1.1328  2.2408  3.4610
  902MOL0     H24416   6.434   7.718   8.035 -0.4321  1.0228 -0.1306
  902MOL0     H24417   6.415   7.963   8.207  0.0055  0.0899  0.6617
  902MOL0     H24418   6.491   7.944   8.046  5.1724  0.6354  0.2928
  902MOL0     H24419   6.598   7.823   8.298  0.3080  0.4652 -0.5828
  902MOL0     H24420   6.663   7.796   8.145  0.0981 -2.0331  2.5383
  902MOL0     H24421   6.783   7.985   8.260 -0.3823 -1.8120 -0.9851
  902MOL0     H24422   6.624   8.064   8.286  0.2909  0.6542 -0.4676
  902MOL0     H24423   6.689   8.023   8.000  1.6652 -1.4814  0.0736
  902MOL0     H24424   6.637   8.169   8.082 -1.6103 -1.5389  1.7310
  902MOL0     H24425   6.948   7.953   8.096  1.4780 -0.8046 -2.0146
  902MOL0     H24426   7.250   8.137   7.916  0.4614 -2.7910 -1.4374
  902MOL0     H24427   7.214   7.971   7.976  0.9695  0.4188 -2.5407
  902MOL0     H24428   7.258   8.203   8.169 -1.0369 -0.7661 -1.9064
  902MOL0     H24429   7.253   8.027   8.199 -2.0450 -0.6424 -0.3218
  902MOL0     H24430   7.451   8.005   8.042  0.9640 -0.2709  1.9827
  902MOL0     H24431   7.450   8.169   8.015 -1.2793  0.5084 -0.2171
  902MOL0     H24432   7.486   8.045   8.293 -1.8353 -0.3611 -0.8804
  902MOL0     H24433   7.617   8.094   8.170 -0.5618  1.8161 -2.3191
  902MOL0     H24434   7.687   8.071   8.421  1.7037 -0.0608 -0.6877
  902MOL0     H24435   7.875   8.125   8.672 -0.0661  2.2635  1.2353
  902MOL0     H24436   7.770   7.994   8.593 -2.0152 -1.1878  2.0073
  902MOL0     H24437   7.721   8.060   8.743  0.9330  1.2678  0.3775
  902MOL0     H24438   7.552   8.625   8.966  1.7645  0.3004 -1.2494
  902MOL0     H24439   7.567   8.667   9.197 -0.4381  0.5317 -0.1381
  902MOL0     H24440   7.563   8.685   9.435 -3.4962  0.6766 -3.1203
  902MOL0     H24441   7.460   8.555   9.384  1.4328 -0.9740 -1.1553
  902MOL0     H24442   7.607   8.507   9.634  1.8193  1.7238 -2.2378
  902MOL0     H24443   7.467   8.617   9.626 -2.0743  0.0360 -1.2422
  902MOL0     H24444   7.443   8.330   9.529 -1.8598 -1.4933  1.8584
  902MOL0     H24445   7.324   8.456   9.579  2.5193  3.7174 -0.9359
  902MOL0     H24446   7.418   8.429   9.822  0.4481 -0.5949  0.4054
  902MOL0     H24447   7.531   8.312   9.744 -0.5121 -1.2855 -0.7695
  902MOL0     H24448   7.229   8.303   9.784  0.7158  1.1516 -0.5654
  902MOL0     H24449   7.315   8.208   9.659  1.4410 -0.8901  1.0065
  902MOL0     H24450   7.407   8.201   9.947 -3.6223  0.5817 -0.8753
  902MOL0     H24451   7.480   8.107   9.809  1.0827 -0.9115  2.1786
  902MOL0     H24452   7.201   8.052   9.860  1.3638  0.4757 -2.2423
  902MOL0     H24453   7.324   7.991   9.980  0.5495  0.8622  0.3858
  902MOL0     H24454   7.439   7.871   9.815 -0.9751 -1.4043  1.6212
  902MOL0     H24455   7.339   7.944   9.686  1.9827 -0.4848 -0.0589
  902MOL0     H24456   7.753   8.278   9.262  2.4597  0.1755 -1.2653
  902MOL0     H24457   7.677   8.222   9.017 -3.6167 -0.9238  0.9396
  902MOL0     H24458   7.578   8.512   8.621 -3.9714  0.9596 -3.2241
  902MOL0     H24459   7.495   8.468   8.387 -1.6026  0.4556 -0.0725
  902MOL0     H24460   5.867   7.998   8.394 -1.2506  0.8026  1.1128
  902MOL0     H24461   5.645   8.103   8.405  0.5379  0.2804 -0.3657
  902MOL0     H24462   5.299   8.298   8.097  1.0620  1.8913  5.9651
  902MOL0     H24463   5.106   8.389   8.039 -0.3363 -0.5387 -0.5879
  902MOL0     H24464   4.875   8.498   8.133 -2.1828 -0.2797  0.0697
  902MOL0     H24465   4.886   8.418   7.969  0.9268 -3.4012  0.7239
  902MOL0     H24466   4.689   8.550   8.004 -0.5782 -0.8394 -0.8368
  902MOL0     H24467   4.659   8.463   8.159 -0.3873 -0.9093  0.9068
  902MOL0     H24468   4.650   8.332   7.895  2.8000  1.0086  2.0002
  902MOL0     H24469   4.604   8.257   8.049  2.5165  1.3355 -0.2899
  902MOL0     H24470   4.379   8.377   8.040 -1.3984  2.3628 -0.9842
  902MOL0     H24471   4.427   8.323   7.883  0.1536  2.8094 -1.5549
  902MOL0     H24472   4.392   8.753   7.878 -0.3281 -0.2275 -0.7958
  902MOL0     H24473   4.891   8.075   8.238 -0.0228  0.6879  0.3623
  902MOL0     H24474   4.997   7.901   8.327 -0.9709 -2.4074 -2.9402
  902MOL0     H24475   5.135   7.821   8.249  2.4554 -0.8811  2.3315
  902MOL0     H24476   5.164   7.920   8.385  1.9787 -0.4446 -1.3818
  903MOL0     O24477   5.480   9.610   2.388 -0.4809 -0.6856  0.5697
  903MOL0     C24478   5.356   9.619   2.409 -0.3195  0.1302  0.2135
  903MOL0     O24479   5.262   9.650   2.318 -0.4483 -0.4048  0.8951
  903MOL0     C24480   5.278   9.613   2.189  0.4848  0.8328  0.2621
  903MOL0     C24481   5.181   9.667   2.106 -0.3491  1.2837 -0.4840
  903MOL0     C24482   5.179   9.630   1.975  0.5773  0.7474  0.4042
  903MOL0     C24483   5.283   9.542   1.917 -0.4065  0.3010  0.0656
  903MOL0     O24484   5.274   9.486   1.794 -0.6457 -0.6211  0.0136
  903MOL0     C24485   5.207   9.553   1.688 -0.5939  0.5935  0.4074
  903MOL0     C24486   5.212   9.479   1.560 -0.6024  0.8916  0.3245
  903MOL0     C24487   5.168   9.326   1.578  0.1066 -1.1710 -0.1912
  903MOL0     C24488   5.050   9.297   1.673  1.0514  0.2999  0.2619
  903MOL0     C24489   4.987   9.162   1.654  0.7217  0.0208 -0.0952
  903MOL0     C24490   4.986   9.071   1.785 -0.3104  0.0006  0.6597
  903MOL0     C24491   4.967   8.918   1.746  0.1607  0.1045 -0.7976
  903MOL0     C24492   4.840   8.870   1.688 -0.2924  0.0947 -0.1754
  903MOL0     N24493   4.846   8.730   1.682 -0.7384  0.5360  0.0445
  903MOL0     C24494   4.921   8.651   1.595  0.1980 -1.1496  1.2398
  903MOL0     C24495   4.889   8.524   1.628 -1.4172 -0.4956 -0.8130
  903MOL0     C24496   4.941   8.399   1.559  0.0334  0.7085 -1.0436
  903MOL0     C24497   4.825   8.360   1.467 -0.0802 -0.2894 -0.3793
  903MOL0     C24498   4.801   8.462   1.359 -0.3661  0.1127  0.9455
  903MOL0     C24499   4.696   8.412   1.265  0.1359 -0.1987  0.9733
  903MOL0     O24500   4.658   8.512   1.165 -0.1659 -0.4770  0.3588
  903MOL0     C24501   4.766   8.556   1.094 -0.1047  0.5080 -0.1895
  903MOL0     C24502   4.766   8.686   1.051  0.4402 -0.6637  0.2515
  903MOL0     C24503   4.859   8.753   0.965  0.2609  0.7404 -0.9832
  903MOL0     C24504   4.840   8.894   0.932  0.0013 -0.7981 -0.9094
  903MOL0     C24505   4.966   8.679   0.932  0.3480 -0.3368  0.5948
  903MOL0     C24506   5.090   8.725   0.860 -0.0004 -1.2606  0.4121
  903MOL0     O24507   5.205   8.660   0.875  0.5053 -0.3411 -0.7827
  903MOL0     C24508   5.310   8.696   0.795 -0.8446  0.8467  0.0689
  903MOL0     C24509   5.341   8.621   0.685  0.3696 -0.2444  0.0992
  903MOL0     C24510   5.453   8.652   0.608  0.3110 -0.2283  0.1560
  903MOL0     C24511   5.540   8.753   0.636  0.9043 -0.6916  0.2973
  903MOL0     O24512   5.636   8.783   0.532 -0.0848 -0.8556  0.0231
  903MOL0     C24513   5.683   8.916   0.538 -0.9728  0.4977 -0.6110
  903MOL0     C24514   5.810   8.921   0.633  0.3238 -0.8603  0.4067
  903MOL0     C24515   5.926   8.846   0.573  0.0509 -1.0269  0.1253
  903MOL0     C24516   5.949   8.702   0.630 -0.2686 -0.0675  0.4307
  903MOL0     C24517   6.075   8.629   0.559  0.6735 -0.7451  0.4366
  903MOL0     C24518   6.098   8.491   0.615 -0.7657  0.3299 -0.1407
  903MOL0     C24519   6.198   8.436   0.514  0.1511 -0.0366  0.1058
  903MOL0     C24520   6.129   8.381   0.383  0.8206  0.4525 -0.4585
  903MOL0    Cl24521   6.011   8.256   0.423  0.0574  0.8680 -0.3898
  903MOL0     C24522   5.512   8.834   0.747 -0.4393 -0.0132  0.3843
  903MOL0     C24523   5.395   8.802   0.829 -0.2712 -0.2760  1.2950
  903MOL0     O24524   5.073   8.818   0.777 -0.1201 -0.6426  0.0233
  903MOL0     C24525   4.980   8.548   0.975  1.0504 -0.0100 -0.0214
  903MOL0     C24526   4.880   8.481   1.042 -0.1006 -0.0777 -0.3609
  903MOL0     N24527   4.792   8.525   1.729 -0.2696  1.0014  0.2583
  903MOL0     N24528   4.784   8.646   1.769 -0.5307 -0.3173 -0.2979
  903MOL0     C24529   5.381   9.502   2.002 -0.3230  0.2721  0.0593
  903MOL0     C24530   5.375   9.527   2.142 -0.4882  0.4376  0.6951
  903MOL0     C24531   5.301   9.578   2.541  0.0805  0.3098  0.7204
  903MOL0     C24532   5.396   9.503   2.625  0.4053 -0.7304 -0.9947
  903MOL0     C24533   5.353   9.426   2.735  0.3403 -0.1948 -0.5480
  903MOL0     C24534   5.220   9.438   2.777  0.2705 -0.0182 -0.4666
  903MOL0     O24535   5.163   9.360   2.873  0.1475  0.4250 -0.4735
  903MOL0     C24536   5.227   9.233   2.913 -0.5751 -0.8241 -0.8334
  903MOL0     C24537   5.133   9.145   3.001 -0.2445 -1.2582  0.1301
  903MOL0     C24538   5.003   9.134   2.925 -0.1940  0.2151  0.2941
  903MOL0     C24539   4.887   9.106   3.029 -0.5150  0.3804 -0.3661
  903MOL0     C24540   4.758   9.076   2.964 -0.0484  0.5678 -0.4900
  903MOL0     C24541   4.652   9.044   2.912  0.2879 -0.4341  0.4184
  903MOL0     C24542   5.135   9.529   2.707 -0.6482 -0.0083 -0.0789
  903MOL0     C24543   5.167   9.598   2.591  0.0125  0.2820  0.3952
  903MOL0     C24544   5.063   9.667   2.527  0.5998  0.4050  0.3773
  903MOL0     H24545   5.110   9.730   2.157  0.2054  0.4593  1.3993
  903MOL0     H24546   5.093   9.665   1.918 -0.2978  2.2047  2.4866
  903MOL0     H24547   5.252   9.652   1.678  1.4790 -0.4314 -1.6008
  903MOL0     H24548   5.103   9.556   1.722 -0.4411 -0.2345  0.9696
  903MOL0     H24549   5.153   9.539   1.490 -0.2953 -0.2328 -0.9546
  903MOL0     H24550   5.319   9.481   1.537 -0.5155  1.4459  0.7489
  903MOL0     H24551   5.138   9.292   1.478  2.2099  1.7010 -1.9364
  903MOL0     H24552   5.259   9.272   1.605  1.0456  0.3764 -0.1179
  903MOL0     H24553   5.081   9.316   1.776  0.2453 -0.4113  0.6428
  903MOL0     H24554   4.969   9.365   1.645 -0.8531  0.3352  4.9874
  903MOL0     H24555   5.041   9.103   1.579  0.0938 -1.6266  0.6966
  903MOL0     H24556   4.889   9.161   1.606  1.0168  1.4726 -0.7799
  903MOL0     H24557   5.085   9.082   1.831 -0.5798 -0.6203  1.4252
  903MOL0     H24558   4.910   9.101   1.858  1.2158  2.4144  1.3575
  903MOL0     H24559   4.984   8.867   1.841 -0.8211  0.0359 -0.6466
  903MOL0     H24560   5.051   8.900   1.678  0.3100 -1.3819 -0.2438
  903MOL0     H24561   4.754   8.899   1.749 -1.1318  1.0967 -1.7603
  903MOL0     H24562   4.825   8.915   1.589  0.1572  0.1907 -0.2063
  903MOL0     H24563   4.996   8.679   1.521  0.1415  3.6145  2.6978
  903MOL0     H24564   4.967   8.318   1.628 -0.5545  0.8237 -0.6784
  903MOL0     H24565   5.036   8.421   1.511  0.6829 -0.6322 -0.4190
  903MOL0     H24566   4.851   8.263   1.423 -0.3372 -2.0876  3.0301
  903MOL0     H24567   4.734   8.355   1.528  0.1148 -0.9328 -0.1249
  903MOL0     H24568   4.759   8.555   1.399 -1.3105 -0.0292  0.3336
  903MOL0     H24569   4.895   8.491   1.312  1.8169  1.2344  5.4677
  903MOL0     H24570   4.734   8.323   1.214  4.1925  0.6344  2.1650
  903MOL0     H24571   4.606   8.379   1.318  0.9985 -2.5018  1.1342
  903MOL0     H24572   4.684   8.749   1.084 -0.1999 -0.5269 -1.5060
  903MOL0     H24573   4.811   8.901   0.827 -1.5259  4.3775 -0.4190
  903MOL0     H24574   4.927   8.960   0.937 -0.3331 -0.3920 -0.3443
  903MOL0     H24575   4.768   8.945   0.997  1.0281  0.9508 -1.0779
  903MOL0     H24576   5.270   8.546   0.652  0.0401  1.0858 -2.4729
  903MOL0     H24577   5.480   8.611   0.511  0.8227  2.8497 -1.0969
  903MOL0     H24578   5.719   8.944   0.439 -3.7530  0.7330 -1.6596
  903MOL0     H24579   5.615   8.996   0.570  0.4397  2.2875 -1.8770
  903MOL0     H24580   5.842   9.025   0.633  2.5445 -1.3668 -3.0647
  903MOL0     H24581   5.771   8.883   0.728 -3.7813 -0.3334 -0.8360
  903MOL0     H24582   6.018   8.902   0.595  0.4680 -1.8594  0.5470
  903MOL0     H24583   5.914   8.843   0.464 -0.2918  0.0153  0.1225
  903MOL0     H24584   5.865   8.640   0.598 -0.6228 -0.1627  1.5097
  903MOL0     H24585   5.957   8.697   0.739  1.6780 -1.0747  0.2826
  903MOL0     H24586   6.057   8.631   0.451  2.4726 -0.7859  0.1198
  903MOL0     H24587   6.164   8.686   0.588  0.1796 -0.4242  1.3832
  903MOL0     H24588   6.005   8.436   0.627  1.5274 -3.8420  0.2594
  903MOL0     H24589   6.136   8.505   0.717  2.1505  0.2450 -1.1042
  903MOL0     H24590   6.264   8.358   0.552 -0.5515 -0.5711  0.2520
  903MOL0     H24591   6.263   8.519   0.487  2.7147 -1.2366  2.2189
  903MOL0     H24592   6.208   8.340   0.319 -0.2720 -1.0730 -0.8873
  903MOL0     H24593   6.085   8.458   0.321 -1.4553  0.5495  1.1532
  903MOL0     H24594   5.581   8.911   0.781  1.6562 -2.0249  0.9777
  903MOL0     H24595   5.379   8.864   0.917 -1.4782  1.5507 -0.1493
  903MOL0     H24596   5.064   8.485   0.949  1.5690 -0.3273  2.2079
  903MOL0     H24597   4.897   8.377   1.066  1.6501  0.2827  0.0969
  903MOL0     H24598   5.452   9.433   1.957 -0.4749  0.5166 -0.5654
  903MOL0     H24599   5.459   9.484   2.196  0.8075  0.4745 -1.1650
  903MOL0     H24600   5.488   9.470   2.578  0.6483 -1.9643  0.2928
  903MOL0     H24601   5.428   9.360   2.777  1.2192 -0.4911 -2.4510
  903MOL0     H24602   5.248   9.181   2.819  1.2245  0.4210 -1.1781
  903MOL0     H24603   5.314   9.257   2.974 -2.1567 -0.1459  1.2890
  903MOL0     H24604   5.114   9.196   3.096  3.2014  2.6108 -1.0001
  903MOL0     H24605   5.176   9.045   3.018 -0.8360 -2.0831 -2.7159
  903MOL0     H24606   4.976   9.211   2.852 -2.0257 -3.0688 -2.7968
  903MOL0     H24607   5.010   9.038   2.873 -0.8976  0.3500 -0.0646
  903MOL0     H24608   4.873   9.192   3.095  1.1147 -0.5880  1.3198
  903MOL0     H24609   4.912   9.015   3.084 -4.3711 -1.0024 -0.5570
  903MOL0     H24610   4.558   9.011   2.873  0.2279  1.4095 -1.1973
  903MOL0     H24611   5.036   9.542   2.748 -0.5966 -0.8849  0.3232
  903MOL0     H24612   5.029   9.622   2.433  0.3994  1.4923 -0.0791
  903MOL0     H24613   4.976   9.666   2.593  1.8170 -0.0259  2.0475
  903MOL0     H24614   5.085   9.773   2.512  3.6201 -0.5174 -3.2166
  904MOL0     O24615   8.642   4.453   5.851 -0.0989 -0.2974 -0.3943
  904MOL0     C24616   8.575   4.355   5.840 -0.0114 -0.0216  0.6983
  904MOL0     O24617   8.522   4.292   5.942 -0.1677  0.5490 -1.0560
  904MOL0     C24618   8.511   4.340   6.069 -0.6236 -0.0979 -0.1379
  904MOL0     C24619   8.458   4.467   6.107 -0.1362 -0.3965  0.5324
  904MOL0     C24620   8.437   4.506   6.238 -0.0657 -0.0308  0.1660
  904MOL0     C24621   8.451   4.410   6.340  0.4180  0.3179  0.1424
  904MOL0     O24622   8.414   4.447   6.468  0.2487  0.9867  1.1713
  904MOL0     C24623   8.316   4.357   6.526 -0.2732 -0.5004 -0.1648
  904MOL0     C24624   8.174   4.411   6.498 -0.0902  0.0082  0.9734
  904MOL0     C24625   8.059   4.307   6.448  0.1941 -0.6425 -0.5278
  904MOL0     C24626   7.920   4.376   6.439 -0.1931 -0.3490  1.5972
  904MOL0     C24627   7.863   4.416   6.573 -0.3881  1.0500 -1.0037
  904MOL0     C24628   7.742   4.499   6.590 -0.1362  0.9095 -0.3153
  904MOL0     C24629   7.762   4.650   6.587 -0.3546 -0.9334 -0.2612
  904MOL0     C24630   7.786   4.703   6.439 -0.3814  0.2550  0.1504
  904MOL0     N24631   7.762   4.840   6.406  0.0549 -0.3815 -0.9572
  904MOL0     C24632   7.847   4.910   6.325 -0.5841 -0.0414  0.8295
  904MOL0     C24633   7.833   5.040   6.356  0.2456  0.7643  0.2006
  904MOL0     C24634   7.911   5.153   6.281  0.1919 -0.3598  0.3643
  904MOL0     C24635   8.048   5.112   6.223  0.4170 -1.3114 -0.0720
  904MOL0     C24636   8.134   5.238   6.197 -0.1171  0.1558  0.3819
  904MOL0     C24637   8.226   5.193   6.088 -0.7058 -0.0487  0.2944
  904MOL0     O24638   8.332   5.290   6.057 -0.1121  0.1723  0.1412
  904MOL0     C24639   8.453   5.286   6.122  0.1663 -0.2659 -0.7665
  904MOL0     C24640   8.551   5.372   6.083 -0.9196 -0.6724 -1.0883
  904MOL0     C24641   8.678   5.354   6.131 -0.0266  0.0167  0.4626
  904MOL0     C24642   8.786   5.443   6.058  0.1567 -0.2021 -0.7464
  904MOL0     C24643   8.706   5.255   6.227  0.1586  0.1576 -0.0088
  904MOL0     C24644   8.837   5.233   6.286 -0.1413  0.1693 -0.4693
  904MOL0     O24645   8.845   5.155   6.390 -0.8824 -0.1509 -0.5640
  904MOL0     C24646   8.964   5.148   6.455  0.2287  0.2045  0.2808
  904MOL0     C24647   9.029   5.256   6.511 -0.3625  0.0585 -0.5345
  904MOL0     C24648   9.158   5.229   6.566  0.4220 -0.3599  0.3527
  904MOL0     C24649   9.212   5.103   6.555 -0.4015  0.6627  2.0711
  904MOL0     O24650   9.339   5.077   6.607 -0.8981  0.2392  0.2877
  904MOL0     C24651   9.443   5.144   6.528  0.3171  0.5248  0.2965
  904MOL0     C24652   9.551   5.191   6.625  0.4328  1.4903 -0.2747
  904MOL0     C24653   9.672   5.255   6.561 -0.4449  0.1878 -0.0521
  904MOL0     C24654   9.645   5.368   6.466  0.5650 -0.6003  0.2447
  904MOL0     C24655   9.734   5.492   6.492  0.5043 -0.2184  0.3112
  904MOL0     C24656   9.689   5.615   6.424  0.7839 -0.7827  0.6192
  904MOL0     C24657   9.796   5.698   6.364 -0.4063  0.9205  0.7459
  904MOL0     C24658   9.738   5.820   6.292 -0.3332 -0.3827 -0.1979
  904MOL0    Cl24659   9.864   5.946   6.264 -0.3163  0.0251  0.1384
  904MOL0     C24660   9.144   4.994   6.491 -0.4316 -0.7418 -0.5299
  904MOL0     C24661   9.025   5.024   6.434  0.0229  0.3737 -0.3567
  904MOL0     O24662   8.932   5.295   6.236 -0.5123 -0.1972 -0.9130
  904MOL0     C24663   8.599   5.188   6.283 -0.1017  0.3629  0.2094
  904MOL0     C24664   8.471   5.194   6.229 -0.3337 -0.4179 -0.1502
  904MOL0     N24665   7.723   5.048   6.448 -1.3524 -0.0124 -0.6055
  904MOL0     N24666   7.688   4.931   6.479  0.6499 -0.4500  0.8396
  904MOL0     C24667   8.515   4.287   6.309  0.4412  0.8933  0.1399
  904MOL0     C24668   8.543   4.247   6.173  0.0854 -0.1429  0.1739
  904MOL0     C24669   8.549   4.295   5.713 -0.4011  0.4810  0.9666
  904MOL0     C24670   8.559   4.157   5.704  0.3790 -0.1214  0.1693
  904MOL0     C24671   8.515   4.086   5.591 -0.5259 -0.0146 -0.1601
  904MOL0     C24672   8.473   4.152   5.472  0.8974 -0.7032 -0.5865
  904MOL0     O24673   8.442   4.078   5.362  0.1149  0.3091  0.5543
  904MOL0     C24674   8.406   4.155   5.243  0.4998  0.4451 -0.3787
  904MOL0     C24675   8.442   4.080   5.113  0.6032 -0.5882  0.3669
  904MOL0     C24676   8.595   4.026   5.092  0.3302 -0.1839  0.8970
  904MOL0     C24677   8.607   3.955   4.957 -0.3487 -0.4346 -0.8299
  904MOL0     C24678   8.503   3.850   4.954 -0.7127 -1.0258  0.4637
  904MOL0     C24679   8.415   3.774   4.962  0.0875  0.4238 -0.3333
  904MOL0     C24680   8.455   4.290   5.481 -1.1772 -0.1558  0.2897
  904MOL0     C24681   8.493   4.362   5.603 -0.4496 -0.2128  0.0732
  904MOL0     C24682   8.463   4.508   5.616 -0.4100  0.8955  0.1038
  904MOL0     H24683   8.447   4.540   6.027 -3.3580 -0.5413  0.7003
  904MOL0     H24684   8.400   4.608   6.252 -0.9869 -0.0775 -1.5145
  904MOL0     H24685   8.327   4.373   6.633  0.6164  1.8445 -0.5528
  904MOL0     H24686   8.331   4.250   6.506 -2.0235 -0.6672 -0.7720
  904MOL0     H24687   8.134   4.449   6.592 -0.6388 -0.9039  1.1207
  904MOL0     H24688   8.180   4.491   6.424  0.0236 -0.3321  0.6114
  904MOL0     H24689   8.080   4.265   6.350 -3.9005 -1.7987 -1.1062
  904MOL0     H24690   8.050   4.218   6.511  2.4174  0.0351  0.8686
  904MOL0     H24691   7.932   4.466   6.378  0.7668 -0.7385  1.1915
  904MOL0     H24692   7.849   4.308   6.392  1.7358 -0.9207 -0.6639
  904MOL0     H24693   7.940   4.485   6.607 -0.1418  0.2881  0.0338
  904MOL0     H24694   7.861   4.322   6.630  4.8561  2.3860  2.1096
  904MOL0     H24695   7.666   4.458   6.523  0.4027 -2.0360  0.7505
  904MOL0     H24696   7.690   4.472   6.682 -2.0744  1.3285 -1.2244
  904MOL0     H24697   7.851   4.676   6.646  0.6054 -2.0591 -1.1667
  904MOL0     H24698   7.677   4.702   6.633  1.4714  2.0112  0.1130
  904MOL0     H24699   7.887   4.680   6.404 -1.0627  0.6483 -2.2701
  904MOL0     H24700   7.716   4.642   6.382 -1.3324 -1.0547  2.5802
  904MOL0     H24701   7.924   4.868   6.261  0.8602  2.8554  0.5480
  904MOL0     H24702   7.918   5.240   6.346 -2.1246  1.3087 -1.4708
  904MOL0     H24703   7.841   5.189   6.205 -4.6518 -0.4040  4.3157
  904MOL0     H24704   8.097   5.059   6.305 -2.2461  0.3158  2.7939
  904MOL0     H24705   8.021   5.043   6.142 -2.8878 -3.4089  2.5132
  904MOL0     H24706   8.083   5.326   6.157 -0.6575 -1.2533 -2.2069
  904MOL0     H24707   8.197   5.276   6.278  1.1000  3.7909 -2.0081
  904MOL0     H24708   8.270   5.095   6.104 -1.2330 -0.1240  1.3404
  904MOL0     H24709   8.159   5.179   6.002  1.4288  2.2391 -1.9461
  904MOL0     H24710   8.531   5.444   6.004 -2.9994  0.8149  0.6745
  904MOL0     H24711   8.850   5.380   5.996  0.2463 -1.4111  0.5282
  904MOL0     H24712   8.845   5.492   6.136 -1.4109 -0.0513  0.3883
  904MOL0     H24713   8.737   5.522   6.000  1.7464  1.2873 -0.1574
  904MOL0     H24714   9.001   5.360   6.504  0.8047  0.4153 -0.2521
  904MOL0     H24715   9.212   5.306   6.620 -1.6811  2.1008 -0.7882
  904MOL0     H24716   9.477   5.073   6.452 -1.6883 -0.1738 -0.0015
  904MOL0     H24717   9.410   5.226   6.464  3.0704  2.0947  0.6753
  904MOL0     H24718   9.509   5.265   6.693  2.2428  1.0866  1.3559
  904MOL0     H24719   9.581   5.115   6.697 -0.0285  3.6294  2.3097
  904MOL0     H24720   9.730   5.179   6.507  1.8876  0.7097  1.5332
  904MOL0     H24721   9.735   5.285   6.645  0.7363 -1.1284 -0.4266
  904MOL0     H24722   9.540   5.400   6.473  1.7754  5.0831 -2.0926
  904MOL0     H24723   9.657   5.331   6.364 -2.1169  2.7774 -1.5255
  904MOL0     H24724   9.716   5.514   6.598  1.6885  2.2310  0.0638
  904MOL0     H24725   9.840   5.476   6.474  0.4412  0.3773 -0.6720
  904MOL0     H24726   9.638   5.683   6.493 -1.1526  1.4797 -2.7730
  904MOL0     H24727   9.624   5.588   6.340 -0.9071 -0.9916  1.9390
  904MOL0     H24728   9.846   5.645   6.283 -4.0344 -0.9830 -0.4475
  904MOL0     H24729   9.865   5.723   6.446 -1.9698 -2.5010  3.3473
  904MOL0     H24730   9.653   5.853   6.353  1.0706  0.4514  1.3868
  904MOL0     H24731   9.701   5.786   6.195 -2.1801  1.4000 -0.1833
  904MOL0     H24732   9.199   4.902   6.478 -1.0826 -1.1535 -0.4615
  904MOL0     H24733   8.969   4.949   6.378  0.4822  0.5262 -1.0354
  904MOL0     H24734   8.605   5.107   6.356 -0.4678  1.6193  1.6731
  904MOL0     H24735   8.399   5.128   6.277  4.1507 -4.6407  1.6083
  904MOL0     H24736   8.550   4.217   6.384  1.8911  0.2577 -1.0892
  904MOL0     H24737   8.582   4.148   6.151 -2.2521 -1.3972  1.2956
  904MOL0     H24738   8.586   4.099   5.792 -2.1991 -0.3791  0.8977
  904MOL0     H24739   8.532   3.979   5.593  0.7483  0.1457  2.9217
  904MOL0     H24740   8.298   4.175   5.245  0.3529 -0.2018 -1.2905
  904MOL0     H24741   8.460   4.250   5.241 -0.8018  1.4736  3.5132
  904MOL0     H24742   8.405   4.144   5.032 -2.9217 -1.1911  1.3559
  904MOL0     H24743   8.365   4.002   5.116 -0.0697  0.0796  0.8454
  904MOL0     H24744   8.670   4.106   5.094 -0.6422  0.9117 -1.6395
  904MOL0     H24745   8.627   3.956   5.170  3.0372 -0.7799 -0.6314
  904MOL0     H24746   8.705   3.907   4.963 -0.9587 -1.5637  0.8113
  904MOL0     H24747   8.600   4.027   4.875  3.2147  3.0676  1.4849
  904MOL0     H24748   8.334   3.705   4.974  0.2185  0.0886 -1.2934
  904MOL0     H24749   8.402   4.344   5.403 -0.2601 -0.3182 -0.4741
  904MOL0     H24750   8.556   4.566   5.615 -0.6212  1.3338  1.9317
  904MOL0     H24751   8.420   4.529   5.517 -0.7513 -0.5379 -0.0738
  904MOL0     H24752   8.391   4.531   5.695 -1.4056 -1.7991  0.0911
  905MOL0     O24753  10.662   3.559   2.355 -0.0675  0.1920 -0.9513
  905MOL0     C24754  10.758   3.620   2.402  0.2444 -0.3457  0.6101
  905MOL0     O24755  10.804   3.735   2.353 -1.1728  0.2442 -0.5508
  905MOL0     C24756  10.783   3.762   2.223 -0.3242 -0.5571  0.3884
  905MOL0     C24757  10.865   3.714   2.121 -1.4478 -0.0213 -0.1557
  905MOL0     C24758  10.823   3.735   1.988  0.5454  0.3541 -0.9722
  905MOL0     C24759  10.718   3.801   1.945  0.1265 -0.5817 -0.4166
  905MOL0     O24760  10.695   3.807   1.810  0.4008 -0.4535 -0.1631
  905MOL0     C24761  10.580   3.888   1.773 -0.7071 -0.0405 -0.1115
  905MOL0     C24762  10.566   3.871   1.627  0.3583 -0.1659 -0.2150
  905MOL0     C24763  10.451   3.956   1.576  0.8335  0.0651 -0.1481
  905MOL0     C24764  10.457   3.961   1.434 -0.9057 -1.0094 -0.0505
  905MOL0     C24765  10.333   4.045   1.388 -0.2920 -0.1702 -0.4805
  905MOL0     C24766  10.331   4.090   1.239  0.2919  0.7685  0.1984
  905MOL0     C24767  10.279   3.989   1.135 -0.0300  0.1715 -0.0909
  905MOL0     C24768  10.330   4.013   0.996 -0.0487 -0.5147  0.0892
  905MOL0     N24769  10.256   4.123   0.937 -0.7343  0.6454 -0.8266
  905MOL0     C24770  10.300   4.199   0.838 -0.6106  0.9554  0.8316
  905MOL0     C24771  10.216   4.299   0.813 -0.8154  1.1771 -0.1388
  905MOL0     C24772  10.252   4.430   0.757  0.4008 -0.4053  0.6239
  905MOL0     C24773  10.254   4.442   0.598  0.3695  0.0331 -0.7077
  905MOL0     C24774  10.383   4.377   0.550  0.1314  0.5593 -0.0191
  905MOL0     C24775  10.403   4.383   0.395  0.2847  0.0472 -0.5543
  905MOL0     O24776  10.280   4.350   0.315  0.2442  0.1031 -0.2367
  905MOL0     C24777  10.314   4.308   0.195  0.4020  0.0782  1.7500
  905MOL0     C24778  10.318   4.400   0.091  0.0807 -0.7974 -0.4658
  905MOL0     C24779  10.356   4.353  -0.031  0.0872  0.1561 -0.2182
  905MOL0     C24780  10.367   4.459  -0.139 -0.2978 -0.0233 -0.5853
  905MOL0     C24781  10.391   4.219  -0.051  0.1439 -0.9068  0.0202
  905MOL0     C24782  10.436   4.171  -0.185  0.3786 -0.7342 -0.1824
  905MOL0     O24783  10.541   4.089  -0.184 -0.2776  0.7764 -0.1846
  905MOL0     C24784  10.625   4.084  -0.292  1.1443 -0.1800  0.2258
  905MOL0     C24785  10.625   3.979  -0.387  0.2151 -0.1136  0.7443
  905MOL0     C24786  10.707   3.990  -0.495 -0.4121  0.4065 -0.3007
  905MOL0     C24787  10.793   4.095  -0.522  0.1846 -0.2012 -0.2763
  905MOL0     O24788  10.894   4.098  -0.610  0.1402  0.5437 -0.0344
  905MOL0     C24789  10.964   3.979  -0.646  0.4919  0.0946  0.0717
  905MOL0     C24790  11.065   4.002  -0.758 -0.6191 -0.2718 -0.1546
  905MOL0     C24791  11.109   3.872  -0.814  0.7211  0.5528  0.1800
  905MOL0     C24792  11.251   3.881  -0.874  0.0203  0.9270  0.0517
  905MOL0     C24793  11.361   3.855  -0.770  0.7324  1.2789 -0.1586
  905MOL0     C24794  11.456   3.746  -0.801 -0.3653  1.1445  0.3746
  905MOL0     C24795  11.569   3.730  -0.687  0.5943 -0.1790 -0.8134
  905MOL0     C24796  11.635   3.591  -0.687 -0.3231 -0.1630  0.4903
  905MOL0    Cl24797  11.544   3.461  -0.607  0.3753  0.0359 -0.3862
  905MOL0     C24798  10.801   4.196  -0.423  1.0050  0.2039  0.5002
  905MOL0     C24799  10.714   4.198  -0.309 -0.1398  0.9069 -0.0437
  905MOL0     O24800  10.383   4.216  -0.292 -0.1004 -0.6427 -0.1008
  905MOL0     C24801  10.393   4.127   0.053  0.0044 -0.1593 -0.1225
  905MOL0     C24802  10.345   4.171   0.173  0.5891 -0.2255 -0.6039
  905MOL0     N24803  10.107   4.272   0.897  0.4545  0.1560 -0.0283
  905MOL0     N24804  10.136   4.173   0.966  0.0897  0.3376 -0.2354
  905MOL0     C24805  10.638   3.848   2.043  1.0503 -0.2648  0.6322
  905MOL0     C24806  10.664   3.829   2.185 -0.3454 -0.0807 -0.4366
  905MOL0     C24807  10.804   3.597   2.539  1.0923  0.4139  0.5793
  905MOL0     C24808  10.869   3.696   2.616  0.3919  0.3434  1.6967
  905MOL0     C24809  10.925   3.664   2.746 -0.2100 -0.3820  0.3269
  905MOL0     C24810  10.935   3.525   2.781  0.1681 -0.4116 -0.3247
  905MOL0     O24811  11.012   3.490   2.897  0.3131 -0.0122 -0.3735
  905MOL0     C24812  11.032   3.349   2.923  0.0303 -1.1108 -0.6852
  905MOL0     C24813  11.104   3.349   3.065 -0.4617 -0.3794 -0.4270
  905MOL0     C24814  11.022   3.421   3.179 -0.3360 -0.8343  0.1822
  905MOL0     C24815  11.115   3.462   3.289 -1.1564 -0.7116  0.3837
  905MOL0     C24816  11.166   3.346   3.363 -0.5039  0.0257 -0.3787
  905MOL0     C24817  11.196   3.242   3.424  0.6728 -0.8570  0.1869
  905MOL0     C24818  10.848   3.439   2.714 -1.1843  0.5708  0.9532
  905MOL0     C24819  10.795   3.464   2.593  1.0525 -0.5676  0.1847
  905MOL0     C24820  10.729   3.343   2.532  0.3779  0.2492  0.8239
  905MOL0     H24821  10.957   3.664   2.147 -0.9735  1.2984  0.8230
  905MOL0     H24822  10.891   3.696   1.913 -0.3401  0.1674 -1.6873
  905MOL0     H24823  10.599   3.994   1.788 -1.8778  0.2190 -0.3038
  905MOL0     H24824  10.484   3.863   1.820 -0.2287  1.8808  2.0264
  905MOL0     H24825  10.659   3.904   1.579 -0.4112  2.9697  0.2083
  905MOL0     H24826  10.550   3.766   1.603  1.6854 -0.7460  1.2650
  905MOL0     H24827  10.358   3.908   1.605  0.8675  1.0309  1.7081
  905MOL0     H24828  10.454   4.060   1.612 -1.1538  0.2046 -0.2862
  905MOL0     H24829  10.549   4.010   1.401 -1.1167  1.1655  2.2348
  905MOL0     H24830  10.458   3.867   1.378  2.0111 -0.4858 -1.0646
  905MOL0     H24831  10.336   4.137   1.448  1.7603 -1.2922  1.3105
  905MOL0     H24832  10.241   3.993   1.415 -0.7245 -0.4224 -2.3372
  905MOL0     H24833  10.267   4.178   1.226  1.7879  1.6919 -1.3029
  905MOL0     H24834  10.435   4.123   1.228  1.0400 -1.2745  0.6971
  905MOL0     H24835  10.170   3.983   1.135 -0.3447  3.6269  1.3189
  905MOL0     H24836  10.312   3.891   1.171  0.8219 -0.0329 -1.3637
  905MOL0     H24837  10.438   4.031   0.987 -0.3197  1.0047 -0.4502
  905MOL0     H24838  10.308   3.926   0.934  3.8386 -3.5550  2.5338
  905MOL0     H24839  10.400   4.196   0.795 -0.1207  2.8817  1.7159
  905MOL0     H24840  10.346   4.465   0.801  0.7879  1.1206 -1.2949
  905MOL0     H24841  10.174   4.505   0.769 -0.4978 -1.1647 -0.2877
  905MOL0     H24842  10.163   4.397   0.558 -1.0422  1.1703  1.0697
  905MOL0     H24843  10.244   4.545   0.560 -1.3110  0.4055  0.6209
  905MOL0     H24844  10.463   4.428   0.605 -1.6932  1.1153  2.2572
  905MOL0     H24845  10.390   4.270   0.571  0.3822 -0.5951 -4.7241
  905MOL0     H24846  10.420   4.490   0.389 -1.5143  0.6108  2.4530
  905MOL0     H24847  10.483   4.326   0.348 -2.8426 -2.2672 -3.6320
  905MOL0     H24848  10.288   4.500   0.121  0.4839 -1.1979  1.3796
  905MOL0     H24849  10.330   4.556  -0.104  1.4345  0.9319 -1.2951
  905MOL0     H24850  10.303   4.433  -0.223 -0.2953  1.1980 -0.9723
  905MOL0     H24851  10.475   4.465  -0.155 -0.1109 -1.5790 -0.1456
  905MOL0     H24852  10.556   3.899  -0.364 -0.9609  0.5507 -0.3135
  905MOL0     H24853  10.712   3.909  -0.567  1.8159  0.6637 -0.5019
  905MOL0     H24854  11.018   3.948  -0.556  3.9843  2.2857 -1.0768
  905MOL0     H24855  10.886   3.909  -0.679  1.9102 -1.5930  0.1688
  905MOL0     H24856  11.000   4.049  -0.831 -0.5727 -1.2121 -0.8228
  905MOL0     H24857  11.145   4.070  -0.726  1.4447 -1.0841 -3.1481
  905MOL0     H24858  11.037   3.849  -0.893 -0.0762  1.3205  0.6646
  905MOL0     H24859  11.113   3.788  -0.744 -0.7548 -0.0327 -0.3990
  905MOL0     H24860  11.258   3.978  -0.922  0.6918 -0.2841 -2.4777
  905MOL0     H24861  11.257   3.798  -0.945 -0.4142 -0.9292  2.0429
  905MOL0     H24862  11.428   3.942  -0.773  0.4258  1.5132 -0.2782
  905MOL0     H24863  11.307   3.843  -0.675 -2.0072 -0.4271 -1.7747
  905MOL0     H24864  11.510   3.779  -0.890 -1.9967  2.7969 -0.0606
  905MOL0     H24865  11.403   3.651  -0.810  1.7171 -0.1373  0.8734
  905MOL0     H24866  11.525   3.756  -0.590 -1.8631 -1.6102 -1.4623
  905MOL0     H24867  11.641   3.812  -0.697  1.9858 -1.2424  0.0807
  905MOL0     H24868  11.736   3.609  -0.648 -1.2956  1.5424  2.4210
  905MOL0     H24869  11.649   3.559  -0.791  1.7949 -0.8474  0.9458
  905MOL0     H24870  10.870   4.279  -0.437  2.5906 -1.1808 -0.3279
  905MOL0     H24871  10.715   4.281  -0.240  0.7376  1.2581 -0.4702
  905MOL0     H24872  10.412   4.023   0.028  1.1228  0.0896 -0.3838
  905MOL0     H24873  10.320   4.103   0.254  2.7781 -0.3728  0.0034
  905MOL0     H24874  10.546   3.900   2.020 -0.0408 -2.9529 -1.6552
  905MOL0     H24875  10.595   3.862   2.262  0.8123 -3.6786  2.4084
  905MOL0     H24876  10.869   3.800   2.583  3.5867  0.3250  1.3007
  905MOL0     H24877  10.968   3.752   2.792 -1.2181  0.7888 -0.8741
  905MOL0     H24878  10.938   3.293   2.924  0.5031 -1.9302 -1.1335
  905MOL0     H24879  11.100   3.314   2.845  2.7968  0.8550  0.6798
  905MOL0     H24880  11.201   3.397   3.054 -0.2555 -0.7717 -0.3346
  905MOL0     H24881  11.121   3.242   3.082  3.7202 -0.2961 -2.8229
  905MOL0     H24882  10.976   3.513   3.141 -0.6010 -0.8892  0.3662
  905MOL0     H24883  10.942   3.355   3.214 -0.3965 -0.8262  0.0588
  905MOL0     H24884  11.058   3.519   3.362 -0.9350 -0.2659  0.2124
  905MOL0     H24885  11.191   3.530   3.248  0.1424  0.0372  3.6781
  905MOL0     H24886  11.224   3.154   3.478  1.1983 -0.5189  0.4669
  905MOL0     H24887  10.835   3.343   2.761  0.2414  0.0297  0.3058
  905MOL0     H24888  10.756   3.334   2.426  1.2956 -1.1339  1.1537
  905MOL0     H24889  10.753   3.252   2.587 -1.2110 -0.4107  0.4868
  905MOL0     H24890  10.620   3.347   2.542  0.1823 -1.7185 -0.0549
  906MOL0     O24891   7.921   3.422   9.946  0.0661 -0.0909  0.4260
  906MOL0     C24892   7.849   3.328   9.973 -0.3382 -1.1777  0.2808
  906MOL0     O24893   7.724   3.342  10.025 -0.0915 -0.4180  0.1446
  906MOL0     C24894   7.682   3.443  10.104  0.4754 -0.2388  0.3289
  906MOL0     C24895   7.759   3.539  10.175 -0.5768  1.0336  0.6789
  906MOL0     C24896   7.696   3.640  10.251  0.1938  0.7719 -0.1344
  906MOL0     C24897   7.553   3.638  10.261 -0.5359 -0.9446 -0.2039
  906MOL0     O24898   7.487   3.738  10.329 -0.2944 -0.0666  0.8452
  906MOL0     C24899   7.478   3.695  10.468  0.2382 -0.1691 -0.6202
  906MOL0     C24900   7.391   3.796  10.558  0.2200  0.1829  0.0555
  906MOL0     C24901   7.366   3.759  10.707 -0.3960  1.1408 -0.6016
  906MOL0     C24902   7.253   3.673  10.738  0.4309 -1.0795 -0.2942
  906MOL0     C24903   7.283   3.524  10.738  0.3202 -0.6249 -0.3260
  906MOL0     C24904   7.175   3.449  10.821 -0.0664  0.4368 -0.1869
  906MOL0     C24905   7.196   3.301  10.810  0.7687  0.1633 -0.3963
  906MOL0     C24906   7.202   3.231  10.671  0.3540 -0.5004  1.0375
  906MOL0     N24907   7.325   3.248  10.605 -0.7421 -0.0486 -0.4415
  906MOL0     C24908   7.432   3.170  10.630  0.4746  0.3538  0.0814
  906MOL0     C24909   7.520   3.188  10.531 -0.1496 -0.1294 -0.0987
  906MOL0     C24910   7.651   3.113  10.510 -0.0885 -0.0098 -0.1497
  906MOL0     C24911   7.786   3.185  10.511 -0.7618  0.3000  0.1008
  906MOL0     C24912   7.810   3.261  10.643 -0.9095  0.3574 -0.5142
  906MOL0     C24913   7.792   3.176  10.762 -0.7644 -0.5253  0.3935
  906MOL0     O24914   7.908   3.091  10.786  0.3128 -1.1503  0.4083
  906MOL0     C24915   7.903   3.021  10.906 -1.0063 -0.1383  0.6017
  906MOL0     C24916   7.995   2.919  10.919 -0.3163 -0.7400 -0.4219
  906MOL0     C24917   8.014   2.843  11.041  0.3424  0.6393  1.0222
  906MOL0     C24918   8.127   2.747  11.033  0.0663 -0.4042  0.1506
  906MOL0     C24919   7.923   2.865  11.146 -0.2070 -0.1543 -0.0939
  906MOL0     C24920   7.921   2.781  11.264 -0.3436 -1.0503 -0.2345
  906MOL0     O24921   8.017   2.694  11.289 -0.2397  0.1592  0.2049
  906MOL0     C24922   8.027   2.621  11.413 -0.2382 -1.8529  0.4525
  906MOL0     C24923   8.016   2.687  11.539 -0.0263  0.2746  0.4238
  906MOL0     C24924   8.049   2.619  11.655  0.1997 -0.0213  0.0738
  906MOL0     C24925   8.065   2.478  11.660  0.1430  0.5157 -0.1499
  906MOL0     O24926   8.083   2.405  11.776  0.3365  0.2331  0.3752
  906MOL0     C24927   8.005   2.429  11.900  0.1323  0.0448 -0.4405
  906MOL0     C24928   8.107   2.451  12.015 -0.6210 -0.0891 -0.1068
  906MOL0     C24929   8.214   2.564  12.007 -0.1625 -0.4161  0.1640
  906MOL0     C24930   8.347   2.533  11.933  0.4485  0.1017  0.1618
  906MOL0     C24931   8.434   2.666  11.931  0.5279  0.7895  0.0170
  906MOL0     C24932   8.516   2.676  11.800  0.1247 -0.0085 -0.0628
  906MOL0     C24933   8.572   2.823  11.777 -0.7413  0.7927  0.3571
  906MOL0     C24934   8.698   2.848  11.858 -0.1116 -0.1887  0.1271
  906MOL0    Cl24935   8.670   2.893  12.028  0.1892  0.1526  0.4390
  906MOL0     C24936   8.070   2.415  11.537 -0.5212  0.8122 -0.5336
  906MOL0     C24937   8.066   2.487  11.415  0.0570  0.0261  0.4674
  906MOL0     O24938   7.823   2.787  11.333  0.7063  0.4537 -0.0543
  906MOL0     C24939   7.822   2.963  11.131 -0.4689 -0.2224  0.1862
  906MOL0     C24940   7.815   3.040  11.013  0.7271  0.2281  0.5717
  906MOL0     N24941   7.463   3.279  10.445  0.0358  0.4568 -0.3228
  906MOL0     N24942   7.344   3.307  10.487  0.1171  0.6284 -0.2735
  906MOL0     C24943   7.478   3.552  10.176 -0.7327 -0.1775 -0.1690
  906MOL0     C24944   7.540   3.450  10.108 -0.2033 -0.0903 -0.0361
  906MOL0     C24945   7.891   3.198   9.943  0.5954 -0.6499 -0.0139
  906MOL0     C24946   7.934   3.165   9.807  0.0078 -0.9471 -0.3031
  906MOL0     C24947   7.965   3.030   9.776 -0.1785 -0.7441  0.2970
  906MOL0     C24948   7.967   2.928   9.876 -0.0110 -0.5370 -0.9080
  906MOL0     O24949   8.012   2.810   9.856 -0.5265  0.7654 -0.7552
  906MOL0     C24950   7.935   2.699   9.906  0.4342  0.0783 -0.5136
  906MOL0     C24951   7.982   2.557   9.858  0.7996  0.0588 -0.1416
  906MOL0     C24952   8.101   2.505   9.930  0.2203  0.2649  0.7266
  906MOL0     C24953   8.136   2.372   9.885 -0.6813  0.3474 -0.4236
  906MOL0     C24954   8.060   2.274   9.969 -0.2147  0.2327 -0.0482
  906MOL0     C24955   8.009   2.175  10.023  0.5337 -1.4746 -0.5346
  906MOL0     C24956   7.908   2.966  10.000 -0.8480  0.6207  0.9038
  906MOL0     C24957   7.878   3.098  10.035  0.1609  0.3242  0.1383
  906MOL0     C24958   7.838   3.116  10.176  0.4632  0.4440  0.4246
  906MOL0     H24959   7.866   3.522  10.176 -0.9056 -1.6602 -0.6458
  906MOL0     H24960   7.746   3.714  10.313 -0.8247  1.9619 -0.6851
  906MOL0     H24961   7.582   3.701  10.502  2.0920 -2.0160 -5.1433
  906MOL0     H24962   7.429   3.597  10.472 -1.9576  0.8875  0.2867
  906MOL0     H24963   7.448   3.889  10.564 -2.6403  2.0122  1.1971
  906MOL0     H24964   7.300   3.826  10.506  0.8405 -2.3620 -2.7926
  906MOL0     H24965   7.465   3.722  10.735 -0.1392  2.0026 -0.3232
  906MOL0     H24966   7.358   3.847  10.771  2.0893 -0.3949  2.0809
  906MOL0     H24967   7.225   3.705  10.839  2.0902  4.5415 -1.2851
  906MOL0     H24968   7.167   3.703  10.677  0.1216  1.7052  1.3312
  906MOL0     H24969   7.380   3.497  10.780 -0.5007 -2.6802  0.3536
  906MOL0     H24970   7.285   3.497  10.632 -1.1079  1.1848 -0.8651
  906MOL0     H24971   7.188   3.484  10.924 -0.0080 -0.1319  0.0038
  906MOL0     H24972   7.080   3.479  10.776  1.6456  1.2287 -3.5888
  906MOL0     H24973   7.108   3.267  10.865  0.6769 -2.6503 -2.0916
  906MOL0     H24974   7.275   3.261  10.874  2.2759 -0.9745 -2.8212
  906MOL0     H24975   7.175   3.125  10.677  0.1041 -0.5034  0.1241
  906MOL0     H24976   7.127   3.278  10.606  1.0208 -2.6936 -1.5007
  906MOL0     H24977   7.444   3.097  10.709  0.8693 -0.2558 -0.5288
  906MOL0     H24978   7.648   3.072  10.409  2.9787 -2.9227  0.7353
  906MOL0     H24979   7.649   3.035  10.587 -0.9197  0.3572  0.2130
  906MOL0     H24980   7.865   3.113  10.486 -1.4783 -0.6873  0.6320
  906MOL0     H24981   7.804   3.260  10.433  1.0623 -0.6515 -0.4630
  906MOL0     H24982   7.908   3.310  10.651  0.0033 -1.5283  0.3607
  906MOL0     H24983   7.739   3.344  10.649  0.0802  1.1444  2.7074
  906MOL0     H24984   7.762   3.242  10.844 -0.9345 -2.0004  1.5638
  906MOL0     H24985   7.700   3.116  10.760 -1.8669  1.0981  1.0477
  906MOL0     H24986   8.059   2.911  10.831 -1.1164  1.1814 -1.2416
  906MOL0     H24987   8.101   2.642  11.047  3.5690 -1.1374  2.4864
  906MOL0     H24988   8.189   2.784  11.116  0.2778 -0.1657 -0.1138
  906MOL0     H24989   8.187   2.760  10.942 -3.1081  0.8604 -1.9091
  906MOL0     H24990   7.977   2.789  11.539 -1.6457 -0.2468  2.9107
  906MOL0     H24991   8.056   2.686  11.740  1.2101  1.6371 -1.2578
  906MOL0     H24992   7.943   2.519  11.903  0.0255 -0.0264  2.0898
  906MOL0     H24993   7.935   2.346  11.914  1.4796 -1.8392 -3.8053
  906MOL0     H24994   8.054   2.463  12.110  0.5233  1.2111  0.3952
  906MOL0     H24995   8.163   2.358  12.020 -0.0813  0.1908 -0.8837
  906MOL0     H24996   8.248   2.588  12.108  1.3430 -2.5482  0.2207
  906MOL0     H24997   8.170   2.658  11.971  3.4165  0.6600 -1.9924
  906MOL0     H24998   8.325   2.492  11.834  0.8681  0.1996  0.0285
  906MOL0     H24999   8.401   2.456  11.988 -0.6936  1.0471  2.7661
  906MOL0     H25000   8.360   2.746  11.943  1.1346  1.5983 -1.4460
  906MOL0     H25001   8.499   2.663  12.019 -0.3452 -1.9309  0.6888
  906MOL0     H25002   8.455   2.636  11.718  0.5433 -0.7319 -0.0289
  906MOL0     H25003   8.594   2.602  11.818  1.2698  2.0580  4.7381
  906MOL0     H25004   8.499   2.902  11.799  0.8544  2.2359  0.7343
  906MOL0     H25005   8.602   2.831  11.672  1.9305  0.0301  0.9810
  906MOL0     H25006   8.750   2.923  11.797  0.0474 -0.6650 -0.3218
  906MOL0     H25007   8.741   2.748  11.848 -2.4962 -1.0795 -2.3477
  906MOL0     H25008   8.093   2.311  11.516  1.3823  1.4060 -1.6101
  906MOL0     H25009   8.087   2.433  11.324  0.0359 -0.0743  0.5223
  906MOL0     H25010   7.753   2.992  11.209  0.0055 -2.0594  1.3340
  906MOL0     H25011   7.739   3.117  11.003 -0.7459 -1.2062  0.2879
  906MOL0     H25012   7.370   3.548  10.184 -0.9984 -3.2150 -2.9508
  906MOL0     H25013   7.482   3.387  10.042 -4.3864  0.9836  2.2191
  906MOL0     H25014   7.944   3.242   9.732 -3.3335  0.6185  0.6370
  906MOL0     H25015   7.994   3.009   9.673  0.0456 -0.5011  0.3086
  906MOL0     H25016   7.938   2.711  10.015  1.7206  1.4783 -0.6615
  906MOL0     H25017   7.835   2.724   9.870  1.9839  2.2355 -3.9125
  906MOL0     H25018   8.009   2.569   9.753  1.3396 -1.4807 -0.2022
  906MOL0     H25019   7.901   2.484   9.855 -0.0865  0.9431  1.0721
  906MOL0     H25020   8.182   2.573   9.903  0.7201 -0.3823  0.5763
  906MOL0     H25021   8.091   2.514  10.039 -0.8241 -3.5466  1.0929
  906MOL0     H25022   8.242   2.354   9.907 -1.5319 -2.8176  1.8033
  906MOL0     H25023   8.110   2.355   9.780 -0.8684  1.7050 -0.6086
  906MOL0     H25024   7.961   2.092  10.071  2.9406 -1.1905  2.6615
  906MOL0     H25025   7.917   2.903  10.088  0.4672 -1.1686 -0.4404
  906MOL0     H25026   7.871   3.211  10.219 -1.1514  0.3765  1.9332
  906MOL0     H25027   7.730   3.102  10.186  0.1921  0.2505 -2.0541
  906MOL0     H25028   7.876   3.034  10.237  0.6983  0.8910  0.8865
  907MOL0     O25029   2.549   5.706   3.892 -0.0432  0.3696  0.3995
  907MOL0     C25030   2.628   5.798   3.912 -0.6687  0.4773 -0.3659
  907MOL0     O25031   2.628   5.882   4.017 -0.8874 -0.3670 -0.2316
  907MOL0     C25032   2.544   5.857   4.127  0.2932  0.4585 -1.1203
  907MOL0     C25033   2.533   5.965   4.216  0.0193  0.6140  0.0548
  907MOL0     C25034   2.455   5.953   4.331 -0.4822  1.0788  0.2141
  907MOL0     C25035   2.387   5.834   4.370  0.2058 -0.2703  0.1329
  907MOL0     O25036   2.310   5.810   4.481  0.8296  0.0259 -0.3955
  907MOL0     C25037   2.270   5.921   4.574  0.1824 -0.4209  0.0981
  907MOL0     C25038   2.149   6.005   4.522  1.0538 -0.1768 -0.4307
  907MOL0     C25039   2.006   5.925   4.518 -0.2279  0.0224  0.4223
  907MOL0     C25040   1.954   5.918   4.662 -0.3441  0.4175  0.8898
  907MOL0     C25041   1.844   5.819   4.679 -0.5165 -0.3181  0.0634
  907MOL0     C25042   1.780   5.832   4.819 -0.3854  0.0657  0.7552
  907MOL0     C25043   1.676   5.732   4.863  0.7306  0.0441 -0.0499
  907MOL0     C25044   1.559   5.732   4.771 -0.0428 -0.1529  0.0963
  907MOL0     N25045   1.460   5.635   4.828 -0.2733 -0.4817 -0.3032
  907MOL0     C25046   1.371   5.658   4.930 -1.0358 -0.2886 -0.2559
  907MOL0     C25047   1.320   5.539   4.950 -0.0458  0.0837 -0.4666
  907MOL0     C25048   1.229   5.501   5.057  0.2267 -0.5867  0.2471
  907MOL0     C25049   1.088   5.515   5.007 -0.2940 -0.1205 -1.4937
  907MOL0     C25050   1.059   5.435   4.877  0.6749 -0.2308 -0.5193
  907MOL0     C25051   0.917   5.408   4.837 -0.0943  0.3790  0.2384
  907MOL0     O25052   0.843   5.378   4.954  0.1217  0.6097 -0.0425
  907MOL0     C25053   0.835   5.242   4.985  0.2508 -0.5336  0.1548
  907MOL0     C25054   0.770   5.201   5.101 -0.5644  0.6002 -0.2747
  907MOL0     C25055   0.779   5.068   5.151  0.7273 -0.5318 -0.4965
  907MOL0     C25056   0.705   5.042   5.283  0.1374  0.8561  0.0263
  907MOL0     C25057   0.841   4.969   5.075 -0.5676 -0.4320  0.1437
  907MOL0     C25058   0.854   4.829   5.109  0.5540 -0.3276  0.2614
  907MOL0     O25059   0.875   4.732   5.005  0.0574  0.7060  0.1258
  907MOL0     C25060   0.871   4.598   5.043  1.1182  0.7350 -0.5775
  907MOL0     C25061   0.990   4.520   5.052  0.0271 -1.5246  0.2007
  907MOL0     C25062   0.980   4.385   5.083  0.4295  0.7205  0.2181
  907MOL0     C25063   0.853   4.314   5.090  0.3937 -0.7496 -0.0893
  907MOL0     O25064   0.832   4.183   5.113 -0.4271  0.1920 -0.3588
  907MOL0     C25065   0.940   4.094   5.088  0.5957 -0.0952 -1.3226
  907MOL0     C25066   0.879   3.953   5.083 -0.3643  0.1124 -0.1206
  907MOL0     C25067   0.982   3.840   5.089 -0.4170 -0.7876 -0.6221
  907MOL0     C25068   0.926   3.707   5.054  0.9772 -0.2372  0.0922
  907MOL0     C25069   1.021   3.591   5.068 -0.8079 -0.5879  0.5538
  907MOL0     C25070   0.968   3.464   5.004 -0.3974 -0.6387  0.4781
  907MOL0     C25071   1.065   3.352   5.031 -0.4172  1.1986  0.5480
  907MOL0     C25072   1.016   3.212   5.005  0.8139 -0.5872 -0.0326
  907MOL0    Cl25073   0.856   3.201   5.105  0.0586  0.0620  0.1576
  907MOL0     C25074   0.736   4.400   5.104  0.6291  0.0447  0.0688
  907MOL0     C25075   0.740   4.540   5.077 -0.9703  0.2129  0.4503
  907MOL0     O25076   0.861   4.806   5.236 -0.2967  0.4523  0.0525
  907MOL0     C25077   0.893   5.009   4.947  0.4436  0.1965 -0.3312
  907MOL0     C25078   0.891   5.137   4.911  0.3271 -0.1812 -0.6206
  907MOL0     N25079   1.382   5.443   4.870  0.4929  0.2567  0.1871
  907MOL0     N25080   1.458   5.500   4.790 -0.6868  0.0255 -0.1117
  907MOL0     C25081   2.401   5.727   4.283 -0.0075 -0.6804  0.1527
  907MOL0     C25082   2.480   5.733   4.167  0.2500  0.1113 -0.2729
  907MOL0     C25083   2.712   5.841   3.800  0.5487 -0.8598  0.5657
  907MOL0     C25084   2.759   5.972   3.795 -0.4520 -0.0946  0.3928
  907MOL0     C25085   2.819   6.014   3.674 -0.6788  0.2398  0.5581
  907MOL0     C25086   2.858   5.925   3.579 -0.4229  0.8248  0.6856
  907MOL0     O25087   2.909   5.980   3.468  0.0425  0.7109  0.8118
  907MOL0     C25088   2.964   5.908   3.357  0.4133  0.6296  0.4995
  907MOL0     C25089   2.986   5.996   3.231  0.5983  0.0974  0.6449
  907MOL0     C25090   3.093   6.107   3.237  0.6491  0.5085 -0.1120
  907MOL0     C25091   3.229   6.048   3.260 -0.5627  0.0068  0.3195
  907MOL0     C25092   3.264   5.978   3.136 -0.1077  0.2683  1.0595
  907MOL0     C25093   3.295   5.923   3.029 -0.1469  0.0769 -0.2939
  907MOL0     C25094   2.838   5.792   3.600  0.0557 -0.5303  0.0612
  907MOL0     C25095   2.758   5.746   3.704  0.8462  0.5104 -0.1648
  907MOL0     C25096   2.742   5.602   3.708  0.7796  0.1988  0.2157
  907MOL0     H25097   2.581   6.061   4.203  0.9251  1.1942  5.3898
  907MOL0     H25098   2.437   6.045   4.386 -1.6134  0.3335  1.1383
  907MOL0     H25099   2.356   5.986   4.592  1.2673 -1.8099  0.0538
  907MOL0     H25100   2.264   5.881   4.676  3.8561 -0.8039  0.2759
  907MOL0     H25101   2.142   6.097   4.580  0.4246  0.1240 -0.9599
  907MOL0     H25102   2.168   6.032   4.418  1.7572 -0.0773 -0.2784
  907MOL0     H25103   1.936   5.973   4.448 -0.4756 -2.5580 -1.2327
  907MOL0     H25104   2.009   5.829   4.466 -1.4847 -0.4966  1.2687
  907MOL0     H25105   2.031   5.885   4.732 -0.8474 -1.7168  0.5222
  907MOL0     H25106   1.913   6.017   4.686  0.2716  1.0189 -0.4375
  907MOL0     H25107   1.879   5.717   4.658 -0.1537 -0.0030 -0.9449
  907MOL0     H25108   1.770   5.844   4.602 -1.8393 -1.3436  0.9637
  907MOL0     H25109   1.865   5.811   4.885  0.7247 -2.5523 -1.3298
  907MOL0     H25110   1.743   5.932   4.843  0.9631  0.4608  1.2467
  907MOL0     H25111   1.638   5.759   4.962 -1.0558  1.5354 -1.0892
  907MOL0     H25112   1.725   5.634   4.865  2.9304  1.0055 -1.9455
  907MOL0     H25113   1.505   5.827   4.763 -1.4711 -0.7958  1.6065
  907MOL0     H25114   1.595   5.708   4.670 -0.4326 -0.7126  0.0887
  907MOL0     H25115   1.367   5.752   4.984 -1.1447 -1.8099  2.5999
  907MOL0     H25116   1.238   5.543   5.157 -2.3411  1.7770 -0.3926
  907MOL0     H25117   1.245   5.394   5.075 -1.1599 -0.8152  0.2648
  907MOL0     H25118   1.018   5.488   5.087 -2.2150  1.9491 -2.3512
  907MOL0     H25119   1.071   5.621   4.985  0.3906  0.2121 -0.4822
  907MOL0     H25120   1.101   5.480   4.786  3.2868 -1.5157 -0.0354
  907MOL0     H25121   1.099   5.334   4.887  1.0564 -0.0350 -0.0094
  907MOL0     H25122   0.879   5.505   4.802 -2.4848 -0.9392 -1.0143
  907MOL0     H25123   0.913   5.345   4.748  2.9891  2.6908 -1.7364
  907MOL0     H25124   0.710   5.273   5.154 -2.7889 -0.7980 -0.7262
  907MOL0     H25125   0.777   5.016   5.361  1.8580 -4.5044 -2.8374
  907MOL0     H25126   0.646   4.953   5.261  0.7017  1.3425 -4.2854
  907MOL0     H25127   0.633   5.119   5.311 -1.0966  1.7518 -4.6856
  907MOL0     H25128   1.080   4.577   5.030 -1.7874  0.9044 -1.5326
  907MOL0     H25129   1.065   4.317   5.087 -1.0969 -1.6461 -2.7812
  907MOL0     H25130   1.002   4.113   4.999  1.4865 -0.8018 -0.8712
  907MOL0     H25131   1.008   4.105   5.173 -0.5169  0.4347 -0.4849
  907MOL0     H25132   0.799   3.930   5.155 -0.5017 -1.7985 -0.8260
  907MOL0     H25133   0.830   3.931   4.988 -1.5601 -2.2765  0.9606
  907MOL0     H25134   1.031   3.838   5.187  0.9745  2.3329 -1.1089
  907MOL0     H25135   1.069   3.851   5.024 -0.4713  1.1987 -0.4460
  907MOL0     H25136   0.886   3.729   4.954 -1.5884  1.5051  1.3875
  907MOL0     H25137   0.833   3.693   5.110  0.5073 -0.9136 -0.8126
  907MOL0     H25138   1.113   3.627   5.020 -1.1891  0.0391  0.2806
  907MOL0     H25139   1.049   3.581   5.173 -0.7733 -2.1992  0.4178
  907MOL0     H25140   0.959   3.477   4.896  0.6087 -2.1287  0.1881
  907MOL0     H25141   0.873   3.447   5.055 -2.0144  0.9529 -1.8032
  907MOL0     H25142   1.103   3.360   5.134  0.0671  0.5606  0.4317
  907MOL0     H25143   1.153   3.360   4.966 -1.4828  1.6804 -0.8628
  907MOL0     H25144   1.100   3.145   5.023 -0.3068 -1.7258  1.2442
  907MOL0     H25145   0.987   3.201   4.900 -0.5465 -0.2997  0.2892
  907MOL0     H25146   0.635   4.362   5.116  0.3197  0.9725  0.4741
  907MOL0     H25147   0.653   4.603   5.090 -0.3877  0.6413  2.7352
  907MOL0     H25148   0.945   4.933   4.890 -0.8524 -2.8626  2.2249
  907MOL0     H25149   0.934   5.154   4.813 -2.0835  0.7565 -1.6123
  907MOL0     H25150   2.350   5.634   4.303 -0.2238 -0.5764  0.0888
  907MOL0     H25151   2.490   5.642   4.108  0.9439 -1.3517  1.9740
  907MOL0     H25152   2.745   6.049   3.870  1.2888  0.1348  0.5264
  907MOL0     H25153   2.867   6.111   3.666  3.8203 -1.2548  4.7529
  907MOL0     H25154   3.055   5.862   3.395  0.4137  1.4946  1.5977
  907MOL0     H25155   2.896   5.829   3.325  0.3559  0.2929  1.4109
  907MOL0     H25156   2.898   6.057   3.210  2.4780  2.2019 -1.8356
  907MOL0     H25157   2.998   5.925   3.149 -3.4928 -0.2049  0.1413
  907MOL0     H25158   3.087   6.179   3.154 -0.5124 -0.5738 -1.0072
  907MOL0     H25159   3.065   6.174   3.318 -1.5821  1.7007 -1.7414
  907MOL0     H25160   3.226   5.979   3.344  0.7081  0.8745  1.1302
  907MOL0     H25161   3.307   6.119   3.290  1.9899 -3.7681  3.6793
  907MOL0     H25162   3.331   5.878   2.939 -0.5264 -0.0198 -0.3997
  907MOL0     H25163   2.886   5.724   3.530 -3.1690 -1.9244 -1.0268
  907MOL0     H25164   2.781   5.566   3.803  0.2336 -1.9630 -0.3312
  907MOL0     H25165   2.636   5.576   3.702  1.1164 -0.9819 -2.1149
  907MOL0     H25166   2.803   5.561   3.626  1.4431 -1.4778  1.4931
  908MOL0     O25167   8.088   6.505   9.533 -0.7282  0.2429 -0.0069
  908MOL0     C25168   8.174   6.438   9.603 -0.3446 -0.7518  0.6174
  908MOL0     O25169   8.271   6.497   9.686 -0.0849  0.1483  0.1787
  908MOL0     C25170   8.244   6.621   9.725  0.2851  0.1845  0.4651
  908MOL0     C25171   8.133   6.659   9.798 -0.0423 -0.7642 -0.7057
  908MOL0     C25172   8.114   6.799   9.835  0.0753 -0.2353  0.1281
  908MOL0     C25173   8.208   6.897   9.804  0.6367  1.1771  0.1015
  908MOL0     O25174   8.194   7.021   9.872  0.1116  0.0381  0.5618
  908MOL0     C25175   8.067   7.085   9.857 -0.6005  0.2820 -0.1497
  908MOL0     C25176   8.060   7.222   9.915  0.3480 -0.6924  0.0902
  908MOL0     C25177   7.909   7.279   9.922  0.3881  0.3464 -0.1736
  908MOL0     C25178   7.839   7.260  10.062 -0.4381  0.2313  0.2603
  908MOL0     C25179   7.696   7.312  10.044  0.0465 -0.2061 -0.4565
  908MOL0     C25180   7.599   7.204  10.100 -0.6655  0.4604 -0.6984
  908MOL0     C25181   7.609   7.169  10.249  0.1520  0.4948  0.3956
  908MOL0     C25182   7.565   7.284  10.345  0.0621  0.0647  0.3919
  908MOL0     N25183   7.548   7.243  10.482  0.5739 -0.2523  0.1820
  908MOL0     C25184   7.643   7.187  10.556 -1.1298 -0.0877  0.0180
  908MOL0     C25185   7.590   7.165  10.676  0.0861 -0.5086  1.0026
  908MOL0     C25186   7.655   7.100  10.784 -1.4952  0.0322 -1.2201
  908MOL0     C25187   7.613   6.952  10.786 -0.2355  1.4841  0.3694
  908MOL0     C25188   7.701   6.849  10.878 -0.5899  0.0271  0.0626
  908MOL0     C25189   7.625   6.716  10.902 -0.8648 -0.2826  0.3246
  908MOL0     O25190   7.600   6.653  10.783  0.5277  0.5844 -0.2205
  908MOL0     C25191   7.546   6.530  10.798  0.0339  0.4682  0.5195
  908MOL0     C25192   7.630   6.422  10.814 -0.6664 -0.2856  0.7620
  908MOL0     C25193   7.575   6.299  10.797 -0.1842 -0.1139  0.4938
  908MOL0     C25194   7.673   6.178  10.810  0.2473 -0.7025 -0.4343
  908MOL0     C25195   7.438   6.280  10.773  0.4797 -0.4295 -0.2043
  908MOL0     C25196   7.374   6.149  10.746  0.3304 -0.0905  0.4468
  908MOL0     O25197   7.262   6.150  10.663  0.6942  0.4693 -0.7681
  908MOL0     C25198   7.204   6.027  10.642 -0.4473 -0.1896 -0.6895
  908MOL0     C25199   7.164   5.991  10.513 -0.2551 -0.2528  0.2316
  908MOL0     C25200   7.083   5.888  10.484  0.3509  1.0916  0.7204
  908MOL0     C25201   7.060   5.797  10.584 -0.5982 -0.0090 -0.1554
  908MOL0     O25202   6.979   5.681  10.572 -0.1045 -0.5961  0.1033
  908MOL0     C25203   6.832   5.710  10.558 -0.3172  0.4278  0.6047
  908MOL0     C25204   6.755   5.678  10.694  0.0844  0.5637 -0.0961
  908MOL0     C25205   6.600   5.657  10.684 -0.2105 -0.2153  0.3292
  908MOL0     C25206   6.541   5.678  10.822 -0.1099 -0.5587  0.2748
  908MOL0     C25207   6.387   5.657  10.812 -0.6515 -0.8144 -0.6977
  908MOL0     C25208   6.319   5.671  10.947 -0.9260 -0.6669 -0.4855
  908MOL0     C25209   6.288   5.818  10.978  0.0806 -1.5437 -1.1513
  908MOL0     C25210   6.252   5.841  11.124 -0.3144  0.0861 -0.3446
  908MOL0    Cl25211   6.390   5.824  11.234 -0.6076  0.0359 -0.3063
  908MOL0     C25212   7.085   5.833  10.720 -0.4549  0.2679  0.7675
  908MOL0     C25213   7.160   5.948  10.749 -0.1804  0.5244 -0.1786
  908MOL0     O25214   7.419   6.049  10.800  0.6841  0.2409  0.2466
  908MOL0     C25215   7.349   6.394  10.767 -1.1783  1.0486 -0.1512
  908MOL0     C25216   7.404   6.518  10.785 -1.7990  0.2331  0.7283
  908MOL0     N25217   7.463   7.224  10.671  0.0165 -0.5177  0.0772
  908MOL0     N25218   7.446   7.276  10.561  0.2613  0.2970  0.2643
  908MOL0     C25219   8.335   6.851   9.754 -1.8736  0.2888  0.1594
  908MOL0     C25220   8.348   6.712   9.714  0.6061  0.8928  0.4816
  908MOL0     C25221   8.166   6.289   9.604  0.0947 -0.0450  0.1843
  908MOL0     C25222   8.212   6.231   9.719 -0.9641  0.3383 -0.5216
  908MOL0     C25223   8.210   6.095   9.742  0.3924  0.1455 -0.8800
  908MOL0     C25224   8.165   6.009   9.647 -0.0255  0.1165  0.6559
  908MOL0     O25225   8.151   5.879   9.669  0.1310 -0.0985 -0.2781
  908MOL0     C25226   8.069   5.838   9.785 -0.1055  0.1364  1.0714
  908MOL0     C25227   8.011   5.698   9.766 -0.4123  0.1365  0.0200
  908MOL0     C25228   8.120   5.585   9.777  0.7419 -0.5562  0.0164
  908MOL0     C25229   8.045   5.451   9.789  0.3951  0.1358 -0.6387
  908MOL0     C25230   7.945   5.406   9.695  0.7296 -0.2059 -0.1802
  908MOL0     C25231   7.872   5.357   9.606 -0.0468 -0.8104 -0.0798
  908MOL0     C25232   8.096   6.060   9.539 -0.3878 -0.1170 -0.2938
  908MOL0     C25233   8.101   6.201   9.513  0.9489  0.7984 -0.1984
  908MOL0     C25234   8.054   6.246   9.379 -0.1714 -0.7340  0.2253
  908MOL0     H25235   8.062   6.587   9.838 -0.9146  0.2228 -0.4280
  908MOL0     H25236   8.023   6.833   9.883  0.7727  1.5988  0.2473
  908MOL0     H25237   7.981   7.028   9.895 -0.3314 -0.6418 -0.8923
  908MOL0     H25238   8.039   7.092   9.751  0.8938 -1.1735 -0.6777
  908MOL0     H25239   8.087   7.221  10.021 -1.2527  1.4464  0.5919
  908MOL0     H25240   8.124   7.294   9.865  0.3675 -0.8636 -0.1303
  908MOL0     H25241   7.902   7.385   9.894  0.7840  0.5294  0.3995
  908MOL0     H25242   7.848   7.225   9.849  1.3426  1.3266 -1.7486
  908MOL0     H25243   7.845   7.156  10.094 -2.1727 -0.2541 -0.8300
  908MOL0     H25244   7.887   7.314  10.144  0.8297 -2.8305  1.6684
  908MOL0     H25245   7.671   7.335   9.940  1.2083 -4.3330 -1.8089
  908MOL0     H25246   7.670   7.401  10.103  0.9963 -0.1449 -0.1127
  908MOL0     H25247   7.496   7.237  10.084 -1.3883 -1.7333 -0.8528
  908MOL0     H25248   7.620   7.110  10.048  0.1454  0.0389  0.3658
  908MOL0     H25249   7.710   7.130  10.264  0.7440 -1.2782 -5.5154
  908MOL0     H25250   7.538   7.086  10.259 -0.0420  0.3235 -1.8252
  908MOL0     H25251   7.626   7.372  10.326 -0.1312 -0.3629 -2.5613
  908MOL0     H25252   7.467   7.320  10.313  0.2861  1.9708  1.6676
  908MOL0     H25253   7.744   7.158  10.529  0.8137  3.0417  3.0825
  908MOL0     H25254   7.640   7.152  10.879 -2.4326  2.5846 -2.6889
  908MOL0     H25255   7.764   7.095  10.773 -1.0580  1.2872  1.6767
  908MOL0     H25256   7.514   6.939  10.831  1.0751 -2.4082  2.6478
  908MOL0     H25257   7.623   6.902  10.689 -2.5039  0.1325  0.7421
  908MOL0     H25258   7.787   6.824  10.815 -1.0246 -2.7708  0.4463
  908MOL0     H25259   7.718   6.894  10.977 -1.7656  1.7047 -0.4534
  908MOL0     H25260   7.689   6.653  10.965 -4.1870 -0.3094  4.0406
  908MOL0     H25261   7.531   6.738  10.954 -1.1741  1.9822 -1.0814
  908MOL0     H25262   7.737   6.439  10.813 -1.0242  2.5332 -1.3982
  908MOL0     H25263   7.680   6.122  10.716  1.5423  0.8712 -1.3296
  908MOL0     H25264   7.640   6.127  10.901  2.4449 -0.5809  0.4815
  908MOL0     H25265   7.770   6.216  10.841 -0.2010 -1.2858  1.8770
  908MOL0     H25266   7.191   6.067  10.441 -1.3470  1.1727  1.2711
  908MOL0     H25267   7.044   5.878  10.384  1.8144 -1.0685  0.2983
  908MOL0     H25268   6.817   5.809  10.514 -0.6987  0.4322  0.7417
  908MOL0     H25269   6.785   5.638  10.491 -2.7971  1.4532  1.1420
  908MOL0     H25270   6.789   5.583  10.735 -0.3696  0.4696  0.0673
  908MOL0     H25271   6.761   5.764  10.761 -1.9267 -0.9794  2.2119
  908MOL0     H25272   6.583   5.555  10.647  2.6429 -0.8371  0.5765
  908MOL0     H25273   6.549   5.718  10.609 -0.3804 -0.8680 -0.1039
  908MOL0     H25274   6.548   5.783  10.852  4.1008  0.0893 -2.1535
  908MOL0     H25275   6.588   5.616  10.898  2.7948  2.3606  1.0990
  908MOL0     H25276   6.329   5.716  10.740  1.3391  0.4557 -1.3200
  908MOL0     H25277   6.372   5.554  10.778  0.2230 -0.3516 -2.6239
  908MOL0     H25278   6.386   5.625  11.020 -0.9283 -0.9710 -0.6724
  908MOL0     H25279   6.222   5.623  10.934 -0.7971 -1.2979  0.7286
  908MOL0     H25280   6.202   5.849  10.917  0.6331 -2.2625 -2.3399
  908MOL0     H25281   6.375   5.882  10.958 -0.3660  0.5557  2.6602
  908MOL0     H25282   6.182   5.764  11.159 -1.0659  1.5860  1.6176
  908MOL0     H25283   6.211   5.942  11.124  0.2559  0.3229  0.5758
  908MOL0     H25284   7.049   5.769  10.800 -4.7930 -2.3835 -2.8093
  908MOL0     H25285   7.197   5.958  10.851 -0.1453 -2.3991  0.1940
  908MOL0     H25286   7.243   6.390  10.744 -0.7677  0.7243 -2.1197
  908MOL0     H25287   7.351   6.612  10.777 -1.0338  0.4753 -3.9130
  908MOL0     H25288   8.411   6.928   9.746 -1.5116 -0.2120 -1.7780
  908MOL0     H25289   8.434   6.662   9.670 -1.0075 -1.5704 -0.0448
  908MOL0     H25290   8.241   6.299   9.799 -2.0012 -0.4544  0.5543
  908MOL0     H25291   8.259   6.050   9.828  1.4930  1.0081 -1.0251
  908MOL0     H25292   8.131   5.853   9.874  2.2831  1.4869 -0.7013
  908MOL0     H25293   7.978   5.898   9.797 -1.0150 -0.7477 -0.9925
  908MOL0     H25294   7.962   5.694   9.669 -0.7163 -2.8379  0.2163
  908MOL0     H25295   7.937   5.676   9.844  0.2068 -0.3779  0.4804
  908MOL0     H25296   8.182   5.589   9.687 -2.2468 -1.7040 -2.2647
  908MOL0     H25297   8.180   5.605   9.866  1.2151 -0.0726 -0.3949
  908MOL0     H25298   8.002   5.440   9.889  1.9919 -3.6498 -0.1991
  908MOL0     H25299   8.126   5.377   9.780  0.3484 -0.1292  0.8617
  908MOL0     H25300   7.810   5.308   9.534 -0.5549 -2.4177  1.4004
  908MOL0     H25301   8.054   5.985   9.472  1.1902 -0.5435 -0.8378
  908MOL0     H25302   7.983   6.330   9.375 -1.2253 -1.6384 -0.7878
  908MOL0     H25303   8.140   6.267   9.314 -0.0835 -3.3506 -0.6300
  908MOL0     H25304   8.011   6.157   9.334 -1.3801  0.5925 -1.3611
  909MOL0     O25305   1.110  10.535   7.796  0.3414  0.0623 -0.0272
  909MOL0     C25306   1.178  10.559   7.894 -0.5021  0.4673 -0.0540
  909MOL0     O25307   1.136  10.603   8.010  0.6222 -0.7470  0.4549
  909MOL0     C25308   0.998  10.648   8.024 -0.0387 -0.4758 -0.3048
  909MOL0     C25309   0.877  10.600   7.959 -0.5490 -0.9272 -0.3014
  909MOL0     C25310   0.750  10.667   7.968 -1.5549  0.4680  0.0844
  909MOL0     C25311   0.741  10.791   8.035  0.1547  0.1992  0.4723
  909MOL0     O25312   0.617  10.857   8.051 -0.2514  0.5803 -0.0625
  909MOL0     C25313   0.498  10.775   8.066 -0.2566  0.8169 -0.2635
  909MOL0     C25314   0.438  10.842   8.189 -0.3246  0.1887  0.1195
  909MOL0     C25315   0.345  10.948   8.159  0.2751  0.1458  0.4140
  909MOL0     C25316   0.271  10.986   8.289 -0.0819 -0.0240  0.0398
  909MOL0     C25317   0.182  11.110   8.260 -0.2305 -0.2109  0.6448
  909MOL0     C25318   0.143  11.189   8.380  0.5628  1.0837 -0.2226
  909MOL0     C25319   0.047  11.303   8.336  0.0179 -0.3536 -0.1058
  909MOL0     C25320   0.059  11.433   8.415  0.1712  0.1486  0.4292
  909MOL0     N25321   0.140  11.540   8.357  0.4836 -0.3844 -0.7382
  909MOL0     C25322   0.132  11.588   8.228  0.1346  0.1720 -0.4699
  909MOL0     C25323   0.240  11.667   8.212 -0.9226  0.2523 -0.1394
  909MOL0     C25324   0.278  11.748   8.087 -0.5409 -0.3061  0.2185
  909MOL0     C25325   0.166  11.818   8.018 -0.5917 -0.4557 -0.1602
  909MOL0     C25326   0.095  11.917   8.111  0.0078 -0.1098  0.5526
  909MOL0     C25327  -0.021  11.984   8.041  0.3179  0.6389 -0.6880
  909MOL0     O25328  -0.135  11.912   8.065  0.7880 -0.2264  0.3629
  909MOL0     C25329  -0.257  11.970   8.013 -0.5034  0.3157  0.2760
  909MOL0     C25330  -0.357  11.997   8.106 -0.0945  0.1786  0.3853
  909MOL0     C25331  -0.482  12.064   8.071 -0.2530 -0.2208  0.4020
  909MOL0     C25332  -0.570  12.098   8.188 -0.6701  0.2880 -0.2654
  909MOL0     C25333  -0.510  12.076   7.927  0.4999  0.0728 -1.1495
  909MOL0     C25334  -0.642  12.121   7.874  0.2556  0.8035 -0.1907
  909MOL0     O25335  -0.695  12.055   7.768  0.3510 -0.6643 -0.5277
  909MOL0     C25336  -0.825  12.073   7.733 -0.1008 -0.6333  0.2718
  909MOL0     C25337  -0.936  12.079   7.816  0.5792 -0.5319  0.6203
  909MOL0     C25338  -1.064  12.077   7.776 -0.6410 -0.5298 -0.4798
  909MOL0     C25339  -1.094  12.084   7.642 -0.2737  0.7462  0.1104
  909MOL0     O25340  -1.227  12.083   7.599 -1.0374  0.0267  0.6618
  909MOL0     C25341  -1.339  12.115   7.681 -0.6797  0.0513  0.3754
  909MOL0     C25342  -1.446  12.149   7.578  0.2336  0.0497 -0.6427
  909MOL0     C25343  -1.567  12.217   7.645  0.6374 -0.6607 -0.0490
  909MOL0     C25344  -1.623  12.150   7.778 -0.0367 -1.2216  0.3250
  909MOL0     C25345  -1.771  12.165   7.791 -1.1398 -0.4641 -0.5519
  909MOL0     C25346  -1.851  12.074   7.698 -0.2374 -0.3224  0.0249
  909MOL0     C25347  -2.002  12.061   7.746  0.4421  0.0846  0.1267
  909MOL0     C25348  -2.082  11.997   7.627  0.7365 -0.7268 -0.5341
  909MOL0    Cl25349  -2.033  11.827   7.590 -0.4181  0.0521  0.2262
  909MOL0     C25350  -0.988  12.083   7.551  0.3008  0.1960 -0.3825
  909MOL0     C25351  -0.855  12.079   7.596  0.7228  0.8989  0.3575
  909MOL0     O25352  -0.699  12.211   7.937 -0.1163  0.2705  0.7262
  909MOL0     C25353  -0.400  12.064   7.841  0.0645 -0.6286 -0.4648
  909MOL0     C25354  -0.277  12.011   7.884 -0.4211 -0.7017  0.3029
  909MOL0     N25355   0.308  11.677   8.335 -0.0633 -0.8145  0.8262
  909MOL0     N25356   0.241  11.596   8.423  0.5736 -0.4348  0.1108
  909MOL0     C25357   0.865  10.839   8.091  0.1975  0.4454  0.4987
  909MOL0     C25358   0.993  10.771   8.090  0.1575 -0.9083  0.1701
  909MOL0     C25359   1.322  10.523   7.885 -0.6916 -0.6440 -0.5930
  909MOL0     C25360   1.394  10.477   7.993 -0.6189  0.5277 -0.1889
  909MOL0     C25361   1.529  10.445   7.994  0.1519 -0.4574  0.2478
  909MOL0     C25362   1.597  10.458   7.869  0.4483 -0.2512 -0.3158
  909MOL0     O25363   1.737  10.464   7.863 -0.4921  0.7325  0.5771
  909MOL0     C25364   1.824  10.464   7.986 -0.1043  0.8269  0.5712
  909MOL0     C25365   1.973  10.477   7.953  1.1201  0.2720  0.7305
  909MOL0     C25366   2.038  10.386   7.852 -0.0118  0.1432 -0.8287
  909MOL0     C25367   2.189  10.400   7.848  0.1418  0.3657  0.3968
  909MOL0     C25368   2.258  10.268   7.859  0.8866 -0.8028 -0.2942
  909MOL0     C25369   2.300  10.154   7.862 -0.5184  0.2456 -0.3634
  909MOL0     C25370   1.531  10.485   7.751  0.4075 -0.5448  0.5703
  909MOL0     C25371   1.393  10.514   7.765 -0.4846 -0.0757 -0.2028
  909MOL0     C25372   1.335  10.539   7.630 -0.7948  0.2275  0.2468
  909MOL0     H25373   0.874  10.506   7.906 -1.8621 -0.4659 -1.1081
  909MOL0     H25374   0.666  10.610   7.929 -0.4483 -1.2083  0.0286
  909MOL0     H25375   0.523  10.672   8.091  0.2458  0.4100 -2.3214
  909MOL0     H25376   0.432  10.782   7.979 -1.2719 -0.5593  0.3583
  909MOL0     H25377   0.390  10.763   8.247 -2.9453  1.9448  0.5167
  909MOL0     H25378   0.522  10.887   8.243  2.4293 -1.6906 -2.3040
  909MOL0     H25379   0.405  11.031   8.122 -0.3732  0.8537  0.9358
  909MOL0     H25380   0.271  10.929   8.080 -0.9793  0.3620  1.5064
  909MOL0     H25381   0.205  10.906   8.324  0.9494 -0.4520  1.0703
  909MOL0     H25382   0.338  11.027   8.365  0.6206  0.4870 -0.8385
  909MOL0     H25383   0.092  11.086   8.202 -0.6607 -0.1779  1.2809
  909MOL0     H25384   0.241  11.180   8.201 -0.7390  1.2030  1.7650
  909MOL0     H25385   0.086  11.128   8.451  2.5553  0.0157  0.5434
  909MOL0     H25386   0.228  11.225   8.439 -0.1068  1.0661  0.7755
  909MOL0     H25387  -0.055  11.269   8.354 -0.2803  0.5495 -0.0379
  909MOL0     H25388   0.051  11.334   8.231 -3.2538  0.7762 -0.0075
  909MOL0     H25389  -0.038  11.481   8.400  0.0238 -0.8182 -2.1876
  909MOL0     H25390   0.087  11.425   8.521 -0.9503 -1.1828  0.6584
  909MOL0     H25391   0.046  11.578   8.162 -0.8534  1.8742  0.4824
  909MOL0     H25392   0.320  11.688   8.006  0.1001  1.3492 -0.7349
  909MOL0     H25393   0.348  11.821   8.129 -0.4332 -0.1386 -0.2438
  909MOL0     H25394   0.215  11.867   7.933  3.0070 -1.3439  1.2409
  909MOL0     H25395   0.095  11.741   7.987 -0.9726  0.3613 -1.3790
  909MOL0     H25396   0.063  11.863   8.201 -0.7863  2.8298  2.1626
  909MOL0     H25397   0.164  11.991   8.152  0.6144  0.7112 -1.7936
  909MOL0     H25398  -0.039  12.086   8.074 -2.9374  0.5116 -1.7812
  909MOL0     H25399  -0.000  11.984   7.933  1.0057  2.7968 -0.6126
  909MOL0     H25400  -0.323  11.965   8.204 -0.0894 -0.2151  0.2577
  909MOL0     H25401  -0.543  12.030   8.269  1.0118  0.2541 -0.8259
  909MOL0     H25402  -0.676  12.091   8.161 -1.3216 -1.5560  2.4030
  909MOL0     H25403  -0.535  12.196   8.222  3.3130 -1.1829  0.3354
  909MOL0     H25404  -0.916  12.084   7.922 -0.8360 -0.8561  0.9240
  909MOL0     H25405  -1.140  12.091   7.851 -0.5858  2.9788 -0.9032
  909MOL0     H25406  -1.377  12.037   7.748 -0.3802  0.3391  0.8913
  909MOL0     H25407  -1.319  12.203   7.743 -2.2455 -1.4833  3.2644
  909MOL0     H25408  -1.411  12.223   7.505  0.8242 -0.4390 -0.8606
  909MOL0     H25409  -1.480  12.060   7.525 -2.4711  0.9750 -0.6425
  909MOL0     H25410  -1.651  12.213   7.574 -0.6286  2.1090  1.1236
  909MOL0     H25411  -1.553  12.324   7.659 -0.0820 -0.6237  0.4242
  909MOL0     H25412  -1.572  12.205   7.858  0.7647 -1.8495  0.2654
  909MOL0     H25413  -1.589  12.046   7.777  1.6102 -0.7250 -0.0986
  909MOL0     H25414  -1.798  12.140   7.894 -2.1529  0.1814 -0.6459
  909MOL0     H25415  -1.788  12.273   7.787 -1.9232 -0.4204  2.1930
  909MOL0     H25416  -1.811  11.973   7.691  0.8300  0.1116 -0.3729
  909MOL0     H25417  -1.851  12.124   7.600 -0.1000  0.0063  0.1920
  909MOL0     H25418  -2.043  12.162   7.756  0.6170  0.2454 -0.7004
  909MOL0     H25419  -2.023  12.010   7.840  0.3479 -0.8994 -0.4190
  909MOL0     H25420  -2.079  12.051   7.532  0.6096 -2.2155 -1.4143
  909MOL0     H25421  -2.187  12.001   7.656  1.4893 -0.7289  2.6106
  909MOL0     H25422  -1.017  12.094   7.447  0.0326 -0.2645 -0.3571
  909MOL0     H25423  -0.777  12.078   7.521  0.7232 -2.9143  0.2062
  909MOL0     H25424  -0.405  12.100   7.738  0.4601  2.2242  0.4104
  909MOL0     H25425  -0.200  11.993   7.811 -0.7926  2.0555 -0.8864
  909MOL0     H25426   0.863  10.934   8.144 -0.3636  0.7462 -0.0532
  909MOL0     H25427   1.080  10.810   8.141  0.9344 -2.5962  0.2023
  909MOL0     H25428   1.339  10.461   8.085  2.3750 -1.9189  1.3681
  909MOL0     H25429   1.582  10.401   8.077  1.5441 -1.8764 -1.3065
  909MOL0     H25430   1.792  10.544   8.053 -1.4568  1.2119 -0.4750
  909MOL0     H25431   1.809  10.364   8.027  4.1708 -0.0358  0.4579
  909MOL0     H25432   2.026  10.470   8.049  2.1917  3.0648  0.4316
  909MOL0     H25433   1.987  10.574   7.905  0.9574 -0.6616 -1.2825
  909MOL0     H25434   2.017  10.285   7.891 -3.8623 -0.0833 -3.0920
  909MOL0     H25435   1.992  10.394   7.754  2.1305 -0.9918 -2.0053
  909MOL0     H25436   2.224  10.467   7.927  4.0075  0.9290 -1.5274
  909MOL0     H25437   2.237  10.448   7.761 -0.9160  1.1670  0.2407
  909MOL0     H25438   2.335  10.053   7.865  3.1177  1.3829  0.0949
  909MOL0     H25439   1.579  10.501   7.655  1.3263 -1.8809  0.7807
  909MOL0     H25440   1.254  10.467   7.613 -2.6741  2.0943  0.7369
  909MOL0     H25441   1.297  10.640   7.609 -2.0692 -0.4672 -0.9771
  909MOL0     H25442   1.395  10.512   7.543 -2.2008  0.4739 -0.8419
  910MOL0     O25443   9.607   3.545   5.408 -0.7844  0.3329  0.4716
  910MOL0     C25444   9.598   3.656   5.349  0.1160 -0.1996  0.1582
  910MOL0     O25445   9.691   3.759   5.355  0.2710 -0.1127 -0.2456
  910MOL0     C25446   9.800   3.747   5.438 -0.4618  0.7043 -0.1829
  910MOL0     C25447   9.842   3.870   5.503  0.4772  0.4564 -0.2624
  910MOL0     C25448   9.965   3.869   5.567 -0.0869 -1.0320 -1.1214
  910MOL0     C25449  10.049   3.759   5.572 -0.1874  0.0672 -1.4881
  910MOL0     O25450  10.163   3.762   5.642  0.2312  1.0417  0.0723
  910MOL0     C25451  10.196   3.885   5.712 -0.8188 -0.5796 -0.3427
  910MOL0     C25452  10.319   3.878   5.801 -0.1729  0.2515  0.6252
  910MOL0     C25453  10.350   4.006   5.873  0.1398  0.1192 -1.0784
  910MOL0     C25454  10.463   3.987   5.969 -0.0106  0.6401 -0.0437
  910MOL0     C25455  10.528   4.111   6.026  0.2878 -0.7452 -0.1200
  910MOL0     C25456  10.650   4.074   6.108  0.2671  0.2207  0.2355
  910MOL0     C25457  10.656   4.132   6.243  0.4263  1.2343  0.0044
  910MOL0     C25458  10.796   4.126   6.299  0.5852  1.5101 -0.5274
  910MOL0     N25459  10.837   4.190   6.416  0.5889 -0.4395  0.3132
  910MOL0     C25460  10.899   4.317   6.414  0.0850 -0.6404 -0.9986
  910MOL0     C25461  10.890   4.355   6.543  0.3577 -0.2655  0.1126
  910MOL0     C25462  10.960   4.466   6.616  0.6371 -0.0647 -0.3210
  910MOL0     C25463  10.938   4.609   6.551 -0.0591 -0.0699 -1.1955
  910MOL0     C25464  10.987   4.729   6.645  0.6750  0.3275  0.6046
  910MOL0     C25465  10.886   4.745   6.761  0.4465 -0.5113  0.7446
  910MOL0     O25466  10.944   4.833   6.868 -0.3816  0.7475 -0.0938
  910MOL0     C25467  10.893   4.807   6.994 -0.3960  0.3551 -0.1010
  910MOL0     C25468  10.897   4.684   7.063 -0.2835  0.7032  0.1054
  910MOL0     C25469  10.857   4.673   7.197 -0.2099  0.2200  0.0368
  910MOL0     C25470  10.864   4.540   7.265  0.4312  0.0612  0.4960
  910MOL0     C25471  10.802   4.782   7.268 -0.0863  0.4670 -0.4041
  910MOL0     C25472  10.729   4.778   7.402  0.8128  0.3489  0.6197
  910MOL0     O25473  10.648   4.891   7.442 -0.0335  0.1483  0.3688
  910MOL0     C25474  10.684   4.955   7.556 -0.1754 -0.5684 -0.0763
  910MOL0     C25475  10.792   4.935   7.633 -0.3984  1.3097 -1.2183
  910MOL0     C25476  10.838   5.020   7.746  0.7589  0.6967 -0.0660
  910MOL0     C25477  10.746   5.125   7.777  0.1253  0.2821  0.6817
  910MOL0     O25478  10.764   5.214   7.880 -0.0050 -0.1143 -0.0491
  910MOL0     C25479  10.896   5.225   7.938  0.3434  0.0301 -0.2819
  910MOL0     C25480  10.878   5.340   8.043 -0.5347  1.0157  0.6155
  910MOL0     C25481  11.017   5.390   8.090  1.0756  0.6491  0.7703
  910MOL0     C25482  11.108   5.276   8.126  0.3074  0.5912 -0.5262
  910MOL0     C25483  11.241   5.319   8.186  0.7170 -0.0832 -0.6288
  910MOL0     C25484  11.288   5.201   8.272 -0.0574  0.0440 -0.4956
  910MOL0     C25485  11.426   5.233   8.324 -0.1483  0.3540 -0.7604
  910MOL0     C25486  11.534   5.235   8.211  0.9093 -0.5840 -0.8135
  910MOL0    Cl25487  11.565   5.066   8.133  0.0384  0.1156 -0.3591
  910MOL0     C25488  10.627   5.135   7.708  0.0870  0.2945  0.0483
  910MOL0     C25489  10.597   5.052   7.595  0.2809 -0.4446  0.1540
  910MOL0     O25490  10.737   4.679   7.476  0.4512 -0.3047 -0.0678
  910MOL0     C25491  10.801   4.908   7.199  0.1053  0.3275 -0.3334
  910MOL0     C25492  10.855   4.921   7.073  0.3049  0.4519  0.3566
  910MOL0     N25493  10.825   4.254   6.618 -0.3320  0.2287  0.3512
  910MOL0     N25494  10.802   4.157   6.541 -0.6723  0.3037  0.9160
  910MOL0     C25495  10.011   3.641   5.513  0.0773  0.6935  0.4393
  910MOL0     C25496   9.881   3.627   5.449 -0.1140 -0.1752 -0.9409
  910MOL0     C25497   9.471   3.690   5.268 -0.7209  0.4370  0.3055
  910MOL0     C25498   9.441   3.832   5.250  0.3482 -0.5495  0.2854
  910MOL0     C25499   9.327   3.878   5.179  1.0437 -0.0407 -0.0703
  910MOL0     C25500   9.248   3.781   5.119  0.1294  0.8515  0.7787
  910MOL0     O25501   9.131   3.824   5.069 -0.1719 -0.1479 -0.0815
  910MOL0     C25502   9.011   3.743   5.062 -0.3235  0.5673  1.1686
  910MOL0     C25503   8.989   3.692   4.915 -0.1946 -0.1424  1.1083
  910MOL0     C25504   8.997   3.818   4.825  0.5962  0.2804 -0.2524
  910MOL0     C25505   8.924   3.794   4.695  1.0958 -0.1875 -0.8506
  910MOL0     C25506   8.907   3.925   4.635  0.2509  0.7089 -0.2057
  910MOL0     C25507   8.869   4.036   4.598  1.2235 -0.2795 -0.1319
  910MOL0     C25508   9.287   3.652   5.115  0.5707  0.4298  0.0446
  910MOL0     C25509   9.393   3.601   5.195  0.0078 -0.3312 -0.8062
  910MOL0     C25510   9.421   3.454   5.172  0.7627  0.8007  0.0295
  910MOL0     H25511   9.787   3.963   5.494  2.0818  1.6047  1.2459
  910MOL0     H25512  10.009   3.964   5.595  0.2617 -1.4422 -0.2384
  910MOL0     H25513  10.116   3.910   5.782 -0.1173  0.2659  0.1820
  910MOL0     H25514  10.219   3.962   5.638 -0.6283  0.2244  0.5282
  910MOL0     H25515  10.299   3.798   5.872 -0.2956 -1.1498 -0.9205
  910MOL0     H25516  10.404   3.837   5.746  1.5246  2.7341  1.1736
  910MOL0     H25517  10.374   4.093   5.811 -0.1142  1.7711  1.0126
  910MOL0     H25518  10.261   4.035   5.930  1.6245  0.8560  1.0074
  910MOL0     H25519  10.423   3.920   6.046 -0.5440  0.9691 -0.0261
  910MOL0     H25520  10.538   3.935   5.909 -0.0880  0.0570  0.3593
  910MOL0     H25521  10.460   4.161   6.096 -2.0016 -1.8525 -1.4332
  910MOL0     H25522  10.555   4.185   5.950 -0.2774  3.2121  3.1793
  910MOL0     H25523  10.651   3.968   6.137  1.3619  0.5404  1.4493
  910MOL0     H25524  10.746   4.091   6.058 -0.1247 -1.1953 -1.0753
  910MOL0     H25525  10.581   4.088   6.309  1.7162  1.2906  1.5923
  910MOL0     H25526  10.636   4.239   6.248  0.7249  1.3110 -0.4458
  910MOL0     H25527  10.822   4.020   6.304 -0.2962  1.3293  1.4202
  910MOL0     H25528  10.860   4.151   6.214  1.2722  0.7629 -0.2429
  910MOL0     H25529  10.951   4.365   6.332  1.0667 -1.8343 -1.1205
  910MOL0     H25530  11.063   4.430   6.610  0.7122  0.2686 -1.2183
  910MOL0     H25531  10.940   4.470   6.723 -1.7495  0.5487 -0.7410
  910MOL0     H25532  11.005   4.600   6.465 -2.2999  0.8375 -3.1627
  910MOL0     H25533  10.834   4.636   6.529 -0.5657  0.1837  1.2753
  910MOL0     H25534  11.091   4.716   6.676  0.5878  1.5037  1.4182
  910MOL0     H25535  10.982   4.821   6.586  1.8511  0.1099  0.1422
  910MOL0     H25536  10.789   4.778   6.721  0.4226  0.3751  1.4955
  910MOL0     H25537  10.877   4.648   6.811 -2.0105 -0.3692  0.6876
  910MOL0     H25538  10.936   4.592   7.020  1.5099  1.2098  0.5564
  910MOL0     H25539  10.912   4.542   7.363 -0.0234 -1.6148  0.7812
  910MOL0     H25540  10.920   4.464   7.210 -0.9016 -0.8187  0.2866
  910MOL0     H25541  10.767   4.496   7.289  0.9666 -2.2549 -1.2131
  910MOL0     H25542  10.863   4.858   7.604 -1.0126 -0.2286  1.0841
  910MOL0     H25543  10.923   5.004   7.811 -0.3706 -0.5469  1.1730
  910MOL0     H25544  10.930   5.130   7.981  1.6607 -0.2000 -1.7659
  910MOL0     H25545  10.964   5.259   7.860  0.7673 -2.4598 -1.0832
  910MOL0     H25546  10.830   5.421   7.988 -1.5745 -1.2321 -2.0182
  910MOL0     H25547  10.800   5.317   8.116 -0.7756 -2.0271 -0.4637
  910MOL0     H25548  11.000   5.451   8.179  0.8852  1.5106  0.1582
  910MOL0     H25549  11.055   5.461   8.015 -1.1109  0.1829 -0.8480
  910MOL0     H25550  11.120   5.204   8.044  0.1615  0.1924 -0.2046
  910MOL0     H25551  11.060   5.210   8.200  0.4676 -1.3655 -2.0630
  910MOL0     H25552  11.309   5.350   8.106  0.4447 -0.3281 -0.9577
  910MOL0     H25553  11.222   5.405   8.252  2.2014  0.8717 -1.4065
  910MOL0     H25554  11.286   5.115   8.204 -0.1191 -0.3509  0.0021
  910MOL0     H25555  11.212   5.171   8.345 -0.2109  1.0670 -0.2191
  910MOL0     H25556  11.456   5.158   8.397  0.1991 -0.0632 -1.3211
  910MOL0     H25557  11.434   5.333   8.369  2.3543  0.1789 -0.7134
  910MOL0     H25558  11.624   5.284   8.251 -0.3917  0.1861  1.3518
  910MOL0     H25559  11.498   5.295   8.128 -1.2994  0.3832  0.7510
  910MOL0     H25560  10.554   5.204   7.749 -0.3144  0.4755 -0.9420
  910MOL0     H25561  10.511   5.071   7.532 -0.1750 -0.3125  0.8114
  910MOL0     H25562  10.773   4.998   7.253  4.1696  1.2500  0.5743
  910MOL0     H25563  10.873   5.021   7.036  2.4253  0.1856  0.5480
  910MOL0     H25564  10.078   3.556   5.519 -0.8795  0.0278  2.7391
  910MOL0     H25565   9.879   3.531   5.398  5.0441 -1.6401  1.0008
  910MOL0     H25566   9.509   3.901   5.299  1.4811 -1.2791 -0.2382
  910MOL0     H25567   9.303   3.983   5.169  3.6887  0.5897 -0.5678
  910MOL0     H25568   9.029   3.660   5.132  0.4672 -1.3643 -1.1926
  910MOL0     H25569   8.921   3.790   5.103 -1.1606  1.7440 -1.7983
  910MOL0     H25570   8.892   3.646   4.897 -2.4281  4.5303 -0.2731
  910MOL0     H25571   9.070   3.626   4.881  0.8120  1.8221 -0.5451
  910MOL0     H25572   8.950   3.903   4.875  2.9713  2.0436 -0.8416
  910MOL0     H25573   9.100   3.844   4.799  1.5884 -2.5407  0.4447
  910MOL0     H25574   8.823   3.756   4.709  1.2930 -1.0406 -1.6492
  910MOL0     H25575   8.982   3.726   4.633 -1.7178 -0.8500 -2.9547
  910MOL0     H25576   8.836   4.133   4.566  1.2539  0.8201  2.8855
  910MOL0     H25577   9.224   3.584   5.059 -1.5143  2.2696 -0.0018
  910MOL0     H25578   9.529   3.446   5.155  0.3458  1.7114 -3.9301
  910MOL0     H25579   9.374   3.390   5.247  2.0958 -1.0425 -0.6416
  910MOL0     H25580   9.375   3.422   5.079 -0.9332  3.8551 -0.3041
  911MOL0     O25581   9.022   9.624   1.791  0.0696  0.2197 -0.6803
  911MOL0     C25582   8.961   9.605   1.897 -0.3766 -0.0178  0.4280
  911MOL0     O25583   9.021   9.589   2.026  0.8549  0.4258  0.2163
  911MOL0     C25584   9.156   9.577   2.035  0.0753 -0.2459 -0.1082
  911MOL0     C25585   9.243   9.688   2.046  0.3482  0.6673  0.8874
  911MOL0     C25586   9.385   9.671   2.056 -0.2016  0.3097  0.0121
  911MOL0     C25587   9.444   9.538   2.042 -0.2190  0.0200 -0.1913
  911MOL0     O25588   9.577   9.534   2.064 -0.1816 -0.3603 -0.0100
  911MOL0     C25589   9.654   9.410   2.094  0.2788 -1.1664  0.6128
  911MOL0     C25590   9.756   9.372   1.992  0.7367  0.2123 -0.0519
  911MOL0     C25591   9.842   9.502   1.963 -0.8161 -0.6430 -0.1838
  911MOL0     C25592   9.973   9.464   1.887  0.4087 -0.2414 -0.0072
  911MOL0     C25593  10.027   9.590   1.810 -0.4680 -0.3199 -0.5175
  911MOL0     C25594  10.002   9.586   1.656  0.8144 -0.0803 -0.7778
  911MOL0     C25595  10.063   9.705   1.579  0.1556  0.3920 -0.2480
  911MOL0     C25596   9.979   9.737   1.453  0.7703  0.6661 -0.1039
  911MOL0     N25597   9.937   9.623   1.371  0.7301 -0.6563  0.0242
  911MOL0     C25598  10.015   9.518   1.327  0.3693  0.4499  0.1951
  911MOL0     C25599   9.936   9.437   1.259 -0.5972  0.1252  0.4360
  911MOL0     C25600   9.981   9.313   1.182 -0.5738  0.3097  0.1277
  911MOL0     C25601  10.080   9.350   1.075  0.1984  0.0190  0.1577
  911MOL0     C25602   9.992   9.406   0.953  0.1747 -0.3199 -0.5124
  911MOL0     C25603  10.092   9.495   0.863  0.3818 -0.8947 -0.8880
  911MOL0     O25604  10.126   9.598   0.951  0.9693 -0.6630  0.0574
  911MOL0     C25605  10.231   9.686   0.929 -0.5367  0.5284 -0.0463
  911MOL0     C25606  10.294   9.693   0.803  0.7508 -0.0326 -0.3948
  911MOL0     C25607  10.395   9.780   0.773 -0.7686 -0.6651 -0.1908
  911MOL0     C25608  10.468   9.776   0.640 -0.3552 -0.1299  0.6774
  911MOL0     C25609  10.442   9.864   0.878 -0.8466  1.0468  0.0404
  911MOL0     C25610  10.553   9.963   0.864  0.1270 -0.2476  0.0861
  911MOL0     O25611  10.560  10.080   0.942  0.9020  0.8533 -0.3685
  911MOL0     C25612  10.455  10.180   0.927  0.0003 -0.9623  0.3038
  911MOL0     C25613  10.470  10.306   0.988  0.7004  0.9457  0.2025
  911MOL0     C25614  10.374  10.402   0.975  1.0392  0.6901  0.6886
  911MOL0     C25615  10.267  10.373   0.896  0.7486  0.1876 -0.1481
  911MOL0     O25616  10.184  10.470   0.865  0.0172  0.1546 -1.1209
  911MOL0     C25617  10.064  10.457   0.943  0.1224  0.3982  0.3379
  911MOL0     C25618   9.988  10.588   0.915  0.7316  0.0137  0.4769
  911MOL0     C25619   9.863  10.604   1.009  0.0286 -0.0439 -0.3612
  911MOL0     C25620   9.824  10.746   1.016  1.5116 -0.4117 -0.5776
  911MOL0     C25621   9.784  10.808   0.876  0.2632 -0.0990 -0.9859
  911MOL0     C25622   9.709  10.942   0.886  0.1397 -0.5002 -0.3868
  911MOL0     C25623   9.671  10.993   0.749 -0.2323  1.6101  0.2455
  911MOL0     C25624   9.566  11.096   0.764  0.1693 -0.0265  0.9703
  911MOL0    Cl25625   9.517  11.155   0.600  0.0197  0.1918 -0.0077
  911MOL0     C25626  10.253  10.256   0.822  0.5890 -0.7374  1.1829
  911MOL0     C25627  10.349  10.164   0.839 -0.0845  0.6844  0.6838
  911MOL0     O25628  10.654   9.919   0.812  0.1470 -0.6688  0.1093
  911MOL0     C25629  10.381   9.861   1.002  0.6026 -1.1006  0.2469
  911MOL0     C25630  10.276   9.769   1.032  0.3310 -0.2597 -0.3528
  911MOL0     N25631   9.812   9.483   1.269  0.7607  0.1030  0.1798
  911MOL0     N25632   9.807   9.594   1.333  0.1732 -1.1235  0.3170
  911MOL0     C25633   9.351   9.435   2.035  0.2540  0.1801 -0.1375
  911MOL0     C25634   9.217   9.449   2.031  0.1923 -1.0698 -0.0480
  911MOL0     C25635   8.815   9.568   1.879  0.3731  0.0081  0.6911
  911MOL0     C25636   8.752   9.534   2.003  0.7969 -0.1130  0.5242
  911MOL0     C25637   8.618   9.482   1.997 -0.5330  1.1625 -0.3585
  911MOL0     C25638   8.548   9.467   1.872 -0.3871  0.4055 -0.6108
  911MOL0     O25639   8.415   9.435   1.881  0.0612  0.4002  0.4562
  911MOL0     C25640   8.321   9.525   1.826 -0.0083  0.1690 -0.0950
  911MOL0     C25641   8.337   9.668   1.886 -0.1814 -0.0459  0.9800
  911MOL0     C25642   8.292   9.686   2.028 -0.3520 -0.0079  0.5962
  911MOL0     C25643   8.171   9.614   2.078  0.7872  0.3106 -0.2488
  911MOL0     C25644   8.042   9.659   2.019  0.2348 -0.5472  0.1235
  911MOL0     C25645   7.955   9.710   1.960  0.5784  0.7899  0.2319
  911MOL0     C25646   8.607   9.500   1.754  0.3739  0.4921  0.4689
  911MOL0     C25647   8.738   9.546   1.755  0.2323  0.2875 -0.6625
  911MOL0     C25648   8.786   9.550   1.610  0.0735 -0.2106  0.3993
  911MOL0     H25649   9.214   9.793   2.049 -1.4888  0.2127  0.7133
  911MOL0     H25650   9.444   9.762   2.065 -2.4845  1.8190  0.7753
  911MOL0     H25651   9.587   9.325   2.107 -0.0927 -0.9454  0.1634
  911MOL0     H25652   9.691   9.438   2.193 -3.2070  3.5775  0.9080
  911MOL0     H25653   9.828   9.300   2.032  1.9256  0.3738 -1.7851
  911MOL0     H25654   9.722   9.337   1.894 -0.6341  0.8316  0.1810
  911MOL0     H25655   9.790   9.582   1.909  0.5180  1.0329  0.9029
  911MOL0     H25656   9.863   9.557   2.055 -0.2391  1.3513 -1.4267
  911MOL0     H25657  10.048   9.429   1.959  1.0629  1.3561  0.1317
  911MOL0     H25658   9.959   9.382   1.816  2.8084  0.4017 -1.3281
  911MOL0     H25659  10.134   9.593   1.832 -0.7325  0.2940  0.7448
  911MOL0     H25660   9.997   9.682   1.861 -2.5854  0.9596 -3.7155
  911MOL0     H25661  10.030   9.489   1.614  0.3627  0.2027 -1.7706
  911MOL0     H25662   9.893   9.583   1.649  0.8373 -0.1299 -1.1293
  911MOL0     H25663  10.165   9.677   1.551  0.0230  0.7949 -1.1802
  911MOL0     H25664  10.075   9.791   1.645  3.0654  0.2456 -0.4646
  911MOL0     H25665   9.891   9.794   1.484 -0.6759 -1.0052 -0.9629
  911MOL0     H25666  10.042   9.789   1.380 -0.5628 -0.5503 -2.2428
  911MOL0     H25667  10.118   9.494   1.349  0.8191 -1.4025 -3.3330
  911MOL0     H25668   9.894   9.257   1.146 -2.4319  2.1931  1.4658
  911MOL0     H25669  10.010   9.243   1.261 -6.0718 -1.7428  0.8250
  911MOL0     H25670  10.143   9.434   1.105 -0.0818  0.0840  0.5730
  911MOL0     H25671  10.133   9.262   1.038 -1.0164 -2.4975  3.8031
  911MOL0     H25672   9.961   9.318   0.897  1.2983  0.0384 -1.7429
  911MOL0     H25673   9.912   9.473   0.986 -0.6298 -1.6005  0.2195
  911MOL0     H25674  10.169   9.425   0.828 -0.1340 -2.3794  0.8404
  911MOL0     H25675  10.045   9.514   0.766 -1.2264 -1.8425 -0.3315
  911MOL0     H25676  10.265   9.622   0.726 -0.7296 -1.1445  1.1155
  911MOL0     H25677  10.563   9.726   0.660  1.1155  0.3909 -3.8487
  911MOL0     H25678  10.498   9.867   0.587 -0.7436 -0.1575  0.4024
  911MOL0     H25679  10.415   9.711   0.570 -0.5233  0.4914  0.2156
  911MOL0     H25680  10.562  10.303   1.046 -0.4199 -4.7374  2.3846
  911MOL0     H25681  10.402  10.497   1.019  0.8213  1.1123 -0.0596
  911MOL0     H25682  10.005  10.372   0.908  0.8481  0.8242 -2.1323
  911MOL0     H25683  10.089  10.446   1.049 -2.2720  0.2764  0.9478
  911MOL0     H25684  10.059  10.670   0.933  0.1971  0.5890 -0.0069
  911MOL0     H25685   9.960  10.584   0.810  0.5932  1.9303  0.3980
  911MOL0     H25686   9.896  10.587   1.112 -0.0578  1.9851  0.0505
  911MOL0     H25687   9.780  10.539   0.980 -0.3438 -0.1556  0.8853
  911MOL0     H25688   9.894  10.811   1.070 -0.4003 -0.1724  1.7790
  911MOL0     H25689   9.733  10.751   1.077  1.2663 -0.7250 -0.9114
  911MOL0     H25690   9.876  10.815   0.818  0.7983 -1.5950 -0.3600
  911MOL0     H25691   9.722  10.731   0.831  0.2775 -1.2316  0.8127
  911MOL0     H25692   9.772  11.023   0.924 -0.2404  1.5922 -3.8362
  911MOL0     H25693   9.621  10.940   0.952 -0.9111  1.4534 -1.6121
  911MOL0     H25694   9.631  10.909   0.692  1.2898  0.5034  0.7394
  911MOL0     H25695   9.753  11.038   0.692 -0.2954  0.8655 -0.4485
  911MOL0     H25696   9.614  11.174   0.824  0.5933 -2.6357  4.3464
  911MOL0     H25697   9.475  11.073   0.818 -1.0112 -0.6170 -1.1533
  911MOL0     H25698  10.164  10.238   0.763  1.4159 -0.9867 -0.0271
  911MOL0     H25699  10.334  10.073   0.783  2.7102  1.0251 -0.7875
  911MOL0     H25700  10.420   9.927   1.079  0.5608  1.2117 -1.6116
  911MOL0     H25701  10.227   9.752   1.127 -3.4054  2.0225 -1.6629
  911MOL0     H25702   9.383   9.331   2.032  1.3322  0.4813  0.4528
  911MOL0     H25703   9.155   9.361   2.024  1.4580 -2.0186  0.4484
  911MOL0     H25704   8.801   9.549   2.099  2.6145  0.4699 -0.4356
  911MOL0     H25705   8.559   9.452   2.083  0.4896  0.6992  0.1964
  911MOL0     H25706   8.319   9.531   1.717 -1.4172  1.6797 -0.0337
  911MOL0     H25707   8.225   9.483   1.858  0.0507 -1.1038 -1.4595
  911MOL0     H25708   8.285   9.738   1.819 -0.3928 -0.5718  0.5920
  911MOL0     H25709   8.437   9.712   1.878 -0.2075 -0.0408  0.6544
  911MOL0     H25710   8.378   9.646   2.081 -0.5625 -2.5526 -0.8057
  911MOL0     H25711   8.285   9.794   2.043 -0.8244  0.1860 -0.8464
  911MOL0     H25712   8.157   9.638   2.184  3.7940  0.4241  0.2133
  911MOL0     H25713   8.167   9.506   2.068 -2.8649 -0.0131  2.6624
  911MOL0     H25714   7.869   9.740   1.903 -0.2417  0.2798  1.1601
  911MOL0     H25715   8.543   9.499   1.667  1.1405 -1.1745 -0.1266
  911MOL0     H25716   8.893   9.534   1.594 -0.0274 -0.6452  0.1416
  911MOL0     H25717   8.746   9.469   1.549  1.1855 -0.7311  0.3284
  911MOL0     H25718   8.763   9.652   1.576  1.3066 -0.7812 -2.4501
  912MOL0     O25719   3.774   0.740   1.118 -0.5161  0.5697  0.0707
  912MOL0     C25720   3.696   0.813   1.062 -0.0733 -0.4767  0.1349
  912MOL0     O25721   3.703   0.951   1.069 -0.0161  0.0445  0.6395
  912MOL0     C25722   3.804   1.015   1.129 -0.1526  0.4792 -0.6384
  912MOL0     C25723   3.813   1.010   1.272  0.2495 -0.1126  0.0057
  912MOL0     C25724   3.924   1.081   1.338  0.1466  1.0187 -0.1584
  912MOL0     C25725   4.005   1.167   1.267  0.2884  0.6456  0.4996
  912MOL0     O25726   4.100   1.239   1.323  0.1215  0.5937  0.1808
  912MOL0     C25727   4.232   1.246   1.255  1.0596 -0.7205  0.0699
  912MOL0     C25728   4.336   1.311   1.347  0.1151 -1.1909 -0.2705
  912MOL0     C25729   4.333   1.462   1.374  0.5961 -0.1450  0.0930
  912MOL0     C25730   4.422   1.511   1.486  1.5379 -0.1079  0.1698
  912MOL0     C25731   4.425   1.668   1.493  0.0121  0.3279  1.3662
  912MOL0     C25732   4.528   1.705   1.600 -0.0101  0.5949  0.0113
  912MOL0     C25733   4.563   1.856   1.591  0.3091 -0.6566 -0.1556
  912MOL0     C25734   4.689   1.916   1.672  0.3078  0.1751 -0.0094
  912MOL0     N25735   4.807   1.832   1.657 -0.1200  0.8323  0.9540
  912MOL0     C25736   4.882   1.832   1.541 -0.1582  0.1001  1.4746
  912MOL0     C25737   4.954   1.711   1.538 -0.0735  0.6731  0.0940
  912MOL0     C25738   5.049   1.659   1.435  0.0118  1.7324  0.1313
  912MOL0     C25739   5.196   1.704   1.456 -0.0683 -0.1122  0.0745
  912MOL0     C25740   5.273   1.641   1.346 -0.7209 -0.0320  0.2856
  912MOL0     C25741   5.423   1.641   1.384 -0.2511  0.2049  0.1035
  912MOL0     O25742   5.433   1.585   1.510 -0.3783  0.4471  0.8228
  912MOL0     C25743   5.535   1.620   1.587 -0.5367 -0.1078  0.2177
  912MOL0     C25744   5.669   1.628   1.549 -0.0134  0.5649  0.7091
  912MOL0     C25745   5.766   1.659   1.642  0.8301  0.1824 -0.5518
  912MOL0     C25746   5.912   1.672   1.593  0.4804  0.4738  0.0647
  912MOL0     C25747   5.731   1.672   1.778  0.3955 -0.2100  0.1220
  912MOL0     C25748   5.828   1.684   1.887  0.5479 -0.5577 -0.2916
  912MOL0     O25749   5.794   1.607   1.997 -0.0489  0.0612  0.2740
  912MOL0     C25750   5.893   1.573   2.091 -0.2928 -0.7000  0.3838
  912MOL0     C25751   5.980   1.676   2.151  0.4770  0.3984 -0.5555
  912MOL0     C25752   6.080   1.640   2.243  0.5480 -0.2408 -0.6992
  912MOL0     C25753   6.099   1.502   2.270 -1.1846 -0.5785 -0.1248
  912MOL0     O25754   6.200   1.455   2.358 -0.2370 -0.1508  0.6365
  912MOL0     C25755   6.341   1.477   2.315  0.3683  0.2416  0.1810
  912MOL0     C25756   6.363   1.385   2.195 -0.8852 -0.6355 -0.4103
  912MOL0     C25757   6.510   1.374   2.144 -0.4142 -0.2316 -0.6222
  912MOL0     C25758   6.591   1.299   2.250  1.1382  0.2678  0.0050
  912MOL0     C25759   6.726   1.276   2.198 -0.9703 -0.6385 -0.7699
  912MOL0     C25760   6.754   1.127   2.181  0.7198  0.4028 -1.0004
  912MOL0     C25761   6.861   1.091   2.090  0.4102 -0.6929  0.3824
  912MOL0     C25762   6.996   1.116   2.146 -0.2684 -0.1515  0.2592
  912MOL0    Cl25763   7.030   0.981   2.268  0.1673  0.0703 -0.2923
  912MOL0     C25764   6.012   1.406   2.217  0.3810 -0.4387 -0.0492
  912MOL0     C25765   5.910   1.443   2.126 -0.4977  0.1203  0.4801
  912MOL0     O25766   5.928   1.751   1.875 -0.5040 -0.8479 -0.4157
  912MOL0     C25767   5.592   1.657   1.812 -0.8050 -0.6853 -0.0046
  912MOL0     C25768   5.499   1.647   1.714 -0.4193  1.4308 -0.0693
  912MOL0     N25769   4.942   1.659   1.664  0.1819  0.6514  0.2994
  912MOL0     N25770   4.856   1.727   1.739  0.6598  0.6701  0.2417
  912MOL0     C25771   3.991   1.169   1.128  0.3158 -0.4969  0.0610
  912MOL0     C25772   3.898   1.089   1.060 -0.0988  0.6444  0.2688
  912MOL0     C25773   3.582   0.753   0.998  0.1816 -0.5847  0.7384
  912MOL0     C25774   3.540   0.617   1.024 -0.0521  0.3944 -0.0659
  912MOL0     C25775   3.424   0.562   0.968 -0.0009  0.2621 -0.1705
  912MOL0     C25776   3.342   0.639   0.887 -0.3971  1.0257  0.7032
  912MOL0     O25777   3.213   0.605   0.843 -0.0658 -0.5136  0.5252
  912MOL0     C25778   3.179   0.474   0.801 -0.2596  0.0148  0.2176
  912MOL0     C25779   3.215   0.466   0.651  0.6696 -0.5675 -0.5739
  912MOL0     C25780   3.363   0.479   0.611 -0.0985  0.4888  0.3682
  912MOL0     C25781   3.385   0.431   0.471 -0.3572 -0.6505 -0.3198
  912MOL0     C25782   3.519   0.474   0.422 -0.1987  0.5556 -0.4548
  912MOL0     C25783   3.628   0.522   0.390  0.3212  1.1623  0.5451
  912MOL0     C25784   3.395   0.760   0.847  0.5419 -0.1537  0.0103
  912MOL0     C25785   3.513   0.818   0.897  0.3999 -0.2948 -1.6408
  912MOL0     C25786   3.545   0.952   0.835 -0.1448 -0.6693  0.3410
  912MOL0     H25787   3.748   0.949   1.334  1.5015  0.2562  1.7582
  912MOL0     H25788   3.943   1.076   1.445  0.8617 -2.5765 -0.3418
  912MOL0     H25789   4.226   1.316   1.172 -2.3614  1.5023  1.9385
  912MOL0     H25790   4.278   1.155   1.218  1.3107 -0.3543 -0.5245
  912MOL0     H25791   4.341   1.261   1.444 -1.0784  1.4167  1.2642
  912MOL0     H25792   4.436   1.297   1.306  0.2255  1.2730 -1.0084
  912MOL0     H25793   4.363   1.515   1.284 -1.7976 -1.4090 -1.5502
  912MOL0     H25794   4.231   1.500   1.369 -0.5288 -3.0097 -3.3606
  912MOL0     H25795   4.373   1.481   1.579  0.9180 -1.8264 -0.6798
  912MOL0     H25796   4.521   1.465   1.482  0.7693 -2.1202  2.2337
  912MOL0     H25797   4.325   1.707   1.513 -0.2597  0.4109 -0.0426
  912MOL0     H25798   4.455   1.706   1.395  1.1993  0.9880  1.9642
  912MOL0     H25799   4.490   1.687   1.701  1.8432 -1.9032  0.3476
  912MOL0     H25800   4.620   1.649   1.586  3.0793  4.7079  1.8742
  912MOL0     H25801   4.477   1.915   1.624 -0.0113 -0.1331 -1.8441
  912MOL0     H25802   4.582   1.866   1.484 -1.5805  0.4591 -0.4408
  912MOL0     H25803   4.713   2.009   1.620 -1.3867  0.4203 -0.4217
  912MOL0     H25804   4.667   1.922   1.779  1.7684  0.5328  0.2911
  912MOL0     H25805   4.888   1.904   1.461  2.1202 -0.9822  0.5837
  912MOL0     H25806   5.011   1.684   1.336 -2.8764 -3.1943 -0.3385
  912MOL0     H25807   5.048   1.549   1.430 -0.7613  1.7993 -2.8306
  912MOL0     H25808   5.206   1.812   1.442 -0.8558  0.4913  3.3247
  912MOL0     H25809   5.226   1.687   1.559 -2.9812 -0.2603  0.9804
  912MOL0     H25810   5.244   1.537   1.333 -1.0631 -0.4236  3.4179
  912MOL0     H25811   5.265   1.707   1.259 -2.8435  1.0811  1.2474
  912MOL0     H25812   5.470   1.581   1.305 -4.1038 -0.7808 -1.6905
  912MOL0     H25813   5.454   1.745   1.372 -2.5416  1.0296  0.8877
  912MOL0     H25814   5.692   1.610   1.445 -1.7569  0.3080  0.3377
  912MOL0     H25815   5.934   1.777   1.572 -0.6435  0.1038 -3.9836
  912MOL0     H25816   5.930   1.606   1.507  1.3997 -0.1131  0.6918
  912MOL0     H25817   5.989   1.636   1.661  2.4428 -1.4770 -2.9399
  912MOL0     H25818   5.983   1.783   2.130  1.5850  1.0311  2.3331
  912MOL0     H25819   6.142   1.715   2.290  0.7577 -1.7916  1.6703
  912MOL0     H25820   6.361   1.582   2.294 -1.3664 -0.2232 -5.1096
  912MOL0     H25821   6.410   1.446   2.395 -0.0887  2.0800  1.3406
  912MOL0     H25822   6.310   1.290   2.209 -1.5436  0.0504  2.2158
  912MOL0     H25823   6.307   1.427   2.111  0.0797 -1.0769 -1.2955
  912MOL0     H25824   6.556   1.472   2.129 -2.7260  1.3956  2.1061
  912MOL0     H25825   6.520   1.324   2.047  0.2032  2.1872 -1.8708
  912MOL0     H25826   6.546   1.201   2.270  0.6881  0.6001  0.6464
  912MOL0     H25827   6.607   1.355   2.342  2.4822 -1.0218  0.5923
  912MOL0     H25828   6.742   1.316   2.098  0.8761 -0.2875 -0.3606
  912MOL0     H25829   6.793   1.326   2.269 -0.1796 -2.0989 -0.4669
  912MOL0     H25830   6.667   1.083   2.132  0.2756  3.1348 -2.9116
  912MOL0     H25831   6.774   1.073   2.274  2.0213 -0.6212 -1.8371
  912MOL0     H25832   6.852   1.133   1.990  0.3749 -2.4582 -0.3872
  912MOL0     H25833   6.862   0.981   2.084  2.1643 -0.6397 -1.8368
  912MOL0     H25834   7.009   1.215   2.192  1.3685  0.7104 -1.8780
  912MOL0     H25835   7.068   1.118   2.063  2.8243  0.2896  2.7780
  912MOL0     H25836   6.030   1.302   2.242  0.3026 -1.0962 -2.4847
  912MOL0     H25837   5.838   1.373   2.085 -0.4647 -0.6218  1.6652
  912MOL0     H25838   5.551   1.666   1.912 -0.9575 -3.0942  0.1986
  912MOL0     H25839   5.395   1.637   1.743 -0.0722  0.7268  0.9804
  912MOL0     H25840   4.052   1.241   1.074  1.3737  1.4077  3.4832
  912MOL0     H25841   3.896   1.090   0.951  0.9460 -1.7977  0.1603
  912MOL0     H25842   3.596   0.554   1.092  1.7017  1.2821 -0.6331
  912MOL0     H25843   3.387   0.464   1.000  0.1843  0.6794  1.4407
  912MOL0     H25844   3.240   0.398   0.851  0.3038 -0.6246 -1.3515
  912MOL0     H25845   3.073   0.448   0.804 -0.0247 -1.0571 -0.2100
  912MOL0     H25846   3.155   0.543   0.601  1.4856  1.5963  1.5502
  912MOL0     H25847   3.175   0.369   0.621 -1.8153 -0.1678  1.1144
  912MOL0     H25848   3.384   0.585   0.624 -0.7063  1.2494 -3.5281
  912MOL0     H25849   3.421   0.416   0.678  0.1812 -0.6347 -0.8762
  912MOL0     H25850   3.311   0.461   0.396  1.4305 -1.1324 -2.3679
  912MOL0     H25851   3.377   0.322   0.473 -0.9828 -0.6193 -0.8703
  912MOL0     H25852   3.725   0.549   0.355  0.5604 -0.9840 -0.6378
  912MOL0     H25853   3.347   0.822   0.773  0.9836  1.7378  1.2446
  912MOL0     H25854   3.539   0.925   0.729 -1.8848 -1.3939  0.5825
  912MOL0     H25855   3.467   1.023   0.863  1.5694  2.0754 -1.3799
  912MOL0     H25856   3.647   0.987   0.851  0.1465 -0.9102 -0.8321
  913MOL0     O25857   2.405   3.626   3.912  0.7938 -0.3057  0.1919
  913MOL0     C25858   2.400   3.550   3.811  0.0918 -0.2548 -0.1993
  913MOL0     O25859   2.289   3.486   3.771  0.7155 -0.4633  0.6073
  913MOL0     C25860   2.175   3.483   3.841 -0.2554  0.0126  0.4343
  913MOL0     C25861   2.172   3.462   3.977 -0.3939 -0.2649 -0.6640
  913MOL0     C25862   2.046   3.437   4.039 -0.1715  0.4813  0.2858
  913MOL0     C25863   1.929   3.434   3.967 -0.2474  0.4673 -0.1966
  913MOL0     O25864   1.803   3.411   4.018 -0.5008  0.1207 -0.0844
  913MOL0     C25865   1.790   3.369   4.159 -0.2234  0.1632 -0.0298
  913MOL0     C25866   1.724   3.481   4.242 -0.5800  0.8004  1.3995
  913MOL0     C25867   1.596   3.535   4.176 -0.4487 -0.3867 -0.6082
  913MOL0     C25868   1.503   3.588   4.280  0.4017 -0.3503  0.5019
  913MOL0     C25869   1.383   3.657   4.219  0.6080  0.3653  0.2225
  913MOL0     C25870   1.412   3.777   4.141 -0.4172  0.1073 -0.4331
  913MOL0     C25871   1.285   3.836   4.091  0.0381  0.1367 -0.4285
  913MOL0     C25872   1.222   3.938   4.186 -0.8742  0.4421 -1.7561
  913MOL0     N25873   1.091   3.991   4.142 -1.0335 -1.1569  0.2097
  913MOL0     C25874   1.080   4.118   4.078  0.2345 -0.4873 -1.9349
  913MOL0     C25875   0.953   4.121   4.040  0.5864  0.3300  0.4727
  913MOL0     C25876   0.893   4.255   3.997 -0.2530  0.9749 -0.2282
  913MOL0     C25877   0.784   4.280   4.105 -0.4801  0.3551 -0.7472
  913MOL0     C25878   0.694   4.403   4.055 -0.0909  0.4822 -0.0320
  913MOL0     C25879   0.577   4.423   4.149  1.0221 -0.4933 -0.1726
  913MOL0     O25880   0.460   4.512   4.108  0.1270 -0.5033 -0.7498
  913MOL0     C25881   0.413   4.481   3.984  0.0460 -0.3632  0.9727
  913MOL0     C25882   0.463   4.556   3.873 -0.0522  0.3737 -0.8688
  913MOL0     C25883   0.403   4.550   3.748 -0.4209 -0.4896  0.8598
  913MOL0     C25884   0.453   4.639   3.636 -0.4498 -0.2881 -0.4036
  913MOL0     C25885   0.295   4.462   3.728  0.3979  0.4320  0.1505
  913MOL0     C25886   0.233   4.426   3.600 -0.8152  0.0354 -0.1141
  913MOL0     O25887   0.095   4.444   3.588 -0.6066  0.1710  0.2619
  913MOL0     C25888   0.023   4.404   3.476 -0.2108  0.2097  1.0843
  913MOL0     C25889   0.081   4.346   3.352  0.2191 -0.4284  0.4985
  913MOL0     C25890  -0.004   4.328   3.242 -0.4275 -0.3737 -0.3523
  913MOL0     C25891  -0.145   4.351   3.253 -0.1204 -1.1451 -0.2571
  913MOL0     O25892  -0.217   4.329   3.134  1.3405 -0.6422  0.2330
  913MOL0     C25893  -0.369   4.310   3.140 -0.5067 -0.0017 -0.9870
  913MOL0     C25894  -0.442   4.448   3.113 -0.2223 -0.4856 -0.0201
  913MOL0     C25895  -0.442   4.475   2.963  0.1654 -0.0111 -0.5779
  913MOL0     C25896  -0.506   4.615   2.940  0.1933 -0.5518  1.1303
  913MOL0     C25897  -0.445   4.675   2.812 -0.5817  0.0082 -0.5001
  913MOL0     C25898  -0.339   4.784   2.820 -0.2575 -0.5410 -0.4799
  913MOL0     C25899  -0.310   4.853   2.685  0.3768 -0.7128  0.6648
  913MOL0     C25900  -0.266   5.002   2.697  0.6069 -0.3094  0.0564
  913MOL0    Cl25901  -0.206   5.055   2.540  0.1780 -0.3483  0.0701
  913MOL0     C25902  -0.200   4.388   3.382  0.0406  0.0106 -0.3621
  913MOL0     C25903  -0.111   4.425   3.486  0.0828  0.2627 -0.6773
  913MOL0     O25904   0.308   4.389   3.509 -0.5348 -0.5052  0.0317
  913MOL0     C25905   0.252   4.378   3.835  0.3191  0.3246  0.5272
  913MOL0     C25906   0.304   4.394   3.963  0.0673 -0.0145 -0.2164
  913MOL0     N25907   0.894   3.999   4.066 -1.0863  0.3645  0.4056
  913MOL0     N25908   0.973   3.931   4.145 -0.2532 -0.2376  0.0939
  913MOL0     C25909   1.931   3.439   3.827 -0.1452 -0.3674 -0.2490
  913MOL0     C25910   2.056   3.462   3.764 -0.2021 -0.4922 -0.1449
  913MOL0     C25911   2.510   3.554   3.719 -0.0370 -0.6072 -0.6987
  913MOL0     C25912   2.629   3.615   3.761 -0.1912 -0.6938  0.1728
  913MOL0     C25913   2.745   3.625   3.679 -0.0621 -0.4616 -1.2541
  913MOL0     C25914   2.743   3.571   3.545  0.1849  0.2484 -0.0138
  913MOL0     O25915   2.849   3.593   3.472 -0.0105 -0.5443  0.5538
  913MOL0     C25916   2.866   3.536   3.340  0.1649  0.0690 -0.0778
  913MOL0     C25917   3.010   3.551   3.288 -0.6937  0.3003  0.0587
  913MOL0     C25918   3.041   3.543   3.139  0.2197  0.5436  0.4130
  913MOL0     C25919   2.994   3.413   3.067 -0.2729 -0.3809 -0.1811
  913MOL0     C25920   3.055   3.410   2.929 -1.1389 -0.7750  0.2678
  913MOL0     C25921   3.114   3.408   2.824  0.3700 -0.3914 -0.3215
  913MOL0     C25922   2.630   3.503   3.502  0.9547  0.1943  0.3911
  913MOL0     C25923   2.515   3.494   3.590 -0.0184 -1.3996 -0.6025
  913MOL0     C25924   2.393   3.423   3.524 -0.1883 -0.9281  1.0952
  913MOL0     H25925   2.267   3.448   4.027  0.1117  0.3652 -1.4161
  913MOL0     H25926   2.057   3.440   4.147  2.2369  0.4676  0.1018
  913MOL0     H25927   1.886   3.341   4.204 -0.9950  0.0525  1.6155
  913MOL0     H25928   1.720   3.285   4.170 -0.2363 -0.3196 -2.9753
  913MOL0     H25929   1.709   3.450   4.346 -2.0226 -0.8529  0.7457
  913MOL0     H25930   1.799   3.560   4.249  0.3463  0.0721  0.2092
  913MOL0     H25931   1.626   3.612   4.105  1.8510 -2.3597 -1.9547
  913MOL0     H25932   1.541   3.467   4.110 -0.9997  1.3648 -2.0236
  913MOL0     H25933   1.468   3.493   4.323  0.4281 -1.8285 -2.4785
  913MOL0     H25934   1.556   3.643   4.358  1.5044  0.8790 -1.0478
  913MOL0     H25935   1.306   3.682   4.293 -1.6781 -0.8118 -1.6363
  913MOL0     H25936   1.344   3.580   4.152  1.5433 -0.4028  0.5341
  913MOL0     H25937   1.472   3.851   4.194  0.8167  1.0387 -2.9575
  913MOL0     H25938   1.471   3.740   4.056 -1.1597  0.1458 -0.9773
  913MOL0     H25939   1.216   3.752   4.077  2.3069 -1.8198 -0.3634
  913MOL0     H25940   1.296   3.888   3.995 -3.0190 -0.9156 -1.4661
  913MOL0     H25941   1.213   3.887   4.283 -1.9826 -2.5643 -3.3140
  913MOL0     H25942   1.289   4.024   4.195  2.7952 -2.1968 -1.1521
  913MOL0     H25943   1.146   4.203   4.090 -0.6361 -0.0177 -0.0518
  913MOL0     H25944   0.835   4.244   3.905  0.2625  0.4895 -0.4952
  913MOL0     H25945   0.959   4.342   3.988  1.5911 -0.1826  1.3130
  913MOL0     H25946   0.719   4.192   4.112  0.8423 -0.5501  0.8524
  913MOL0     H25947   0.835   4.288   4.201 -0.6398 -2.8047 -0.2989
  913MOL0     H25948   0.743   4.500   4.048 -1.5567  1.5434  2.7975
  913MOL0     H25949   0.649   4.383   3.957 -1.6700  0.2123  0.7045
  913MOL0     H25950   0.535   4.324   4.166 -1.9069  0.7753  0.7746
  913MOL0     H25951   0.607   4.481   4.237 -0.5208  2.0233 -1.1902
  913MOL0     H25952   0.541   4.624   3.905 -0.9852  0.3527  1.6660
  913MOL0     H25953   0.470   4.744   3.661  2.5378 -0.7902  0.0016
  913MOL0     H25954   0.370   4.636   3.564  0.3535 -3.7545 -1.4111
  913MOL0     H25955   0.544   4.594   3.595  1.0880  0.6303  1.8044
  913MOL0     H25956   0.188   4.344   3.341  0.7048  0.7919  3.8188
  913MOL0     H25957   0.038   4.294   3.148 -0.7047 -0.0767 -0.5876
  913MOL0     H25958  -0.391   4.230   3.069 -1.4953 -1.9134  1.3510
  913MOL0     H25959  -0.405   4.264   3.232 -2.2537  2.6696 -0.2085
  913MOL0     H25960  -0.548   4.447   3.143 -0.2132 -0.4090  0.0185
  913MOL0     H25961  -0.394   4.530   3.168 -0.5058 -0.2257 -0.1531
  913MOL0     H25962  -0.508   4.400   2.918 -0.2892  0.6898 -1.0945
  913MOL0     H25963  -0.341   4.476   2.920 -0.3679  2.3894 -1.9605
  913MOL0     H25964  -0.478   4.685   3.019  2.2174  0.9328 -0.7659
  913MOL0     H25965  -0.615   4.614   2.928  0.2487  3.3414 -1.4650
  913MOL0     H25966  -0.413   4.589   2.752 -0.3314 -2.2730  2.6628
  913MOL0     H25967  -0.522   4.724   2.752  0.1196  2.9457  0.8699
  913MOL0     H25968  -0.244   4.749   2.861 -1.5952 -1.8833  1.6610
  913MOL0     H25969  -0.382   4.861   2.885  0.9948 -0.2988  0.0911
  913MOL0     H25970  -0.395   4.853   2.616 -0.5552 -3.2993  1.7186
  913MOL0     H25971  -0.235   4.795   2.631 -0.3177  0.3495 -1.6004
  913MOL0     H25972  -0.185   5.020   2.769  0.4589  0.6331  0.0069
  913MOL0     H25973  -0.356   5.060   2.720  0.5447  0.0620 -1.0705
  913MOL0     H25974  -0.305   4.409   3.403  0.5426  1.7095  0.7146
  913MOL0     H25975  -0.160   4.451   3.579 -0.8891 -2.5536 -0.2901
  913MOL0     H25976   0.176   4.304   3.810 -1.0348  1.0100  2.3517
  913MOL0     H25977   0.272   4.342   4.053  2.7937 -0.6309  0.4995
  913MOL0     H25978   1.842   3.424   3.767  0.8918  0.9671 -2.2181
  913MOL0     H25979   2.071   3.448   3.657 -0.6527  4.7240 -1.1618
  913MOL0     H25980   2.649   3.669   3.853  2.7118  0.6549 -1.1258
  913MOL0     H25981   2.832   3.681   3.710 -1.7648  2.4478 -1.3548
  913MOL0     H25982   2.836   3.431   3.339 -0.8011  0.3440 -0.9085
  913MOL0     H25983   2.795   3.587   3.275 -2.4460 -1.1763  1.6489
  913MOL0     H25984   3.070   3.479   3.344 -0.5877  1.2849  1.2442
  913MOL0     H25985   3.031   3.651   3.326 -3.7942  0.2053  2.4047
  913MOL0     H25986   2.995   3.630   3.092  0.9260  0.3668 -0.6397
  913MOL0     H25987   3.149   3.553   3.128  0.5075 -0.3117  2.1388
  913MOL0     H25988   2.885   3.411   3.059 -0.3692  2.0474 -0.2401
  913MOL0     H25989   3.032   3.323   3.117 -1.4624 -1.7664 -1.6758
  913MOL0     H25990   3.168   3.401   2.731  0.9344 -0.0324 -0.0225
  913MOL0     H25991   2.612   3.478   3.398 -2.8983 -1.2968  1.2408
  913MOL0     H25992   2.430   3.362   3.442 -0.6333  0.1989  0.0221
  913MOL0     H25993   2.347   3.359   3.599 -2.7667  0.0931  0.4622
  913MOL0     H25994   2.328   3.497   3.477  2.2683 -0.9718 -2.8285
  914MOL0     O25995   9.972   4.382   2.398 -0.1918 -1.1020  0.2724
  914MOL0     C25996  10.086   4.402   2.451  0.5324  0.5918  1.2019
  914MOL0     O25997  10.193   4.328   2.429 -0.5371  0.7787 -0.1565
  914MOL0     C25998  10.197   4.226   2.340  0.3978  1.3370  0.5559
  914MOL0     C25999  10.140   4.102   2.370 -0.0797 -0.5636 -0.5784
  914MOL0     C26000  10.152   3.998   2.276 -0.0665  0.2165  0.4375
  914MOL0     C26001  10.215   4.010   2.151  0.0435  0.3460  0.2850
  914MOL0     O26002  10.219   3.917   2.049 -0.3851  0.5595  0.5086
  914MOL0     C26003  10.119   3.807   2.040  0.4077  0.2833  0.0516
  914MOL0     C26004  10.030   3.808   1.920  0.7950  0.0079 -0.4369
  914MOL0     C26005   9.939   3.687   1.913  0.2874  0.1297  0.0868
  914MOL0     C26006   9.810   3.716   1.822 -0.8176  0.8711  0.1291
  914MOL0     C26007   9.710   3.604   1.794 -0.2879  0.7237 -0.8219
  914MOL0     C26008   9.646   3.556   1.925  0.8949 -0.2279  0.4496
  914MOL0     C26009   9.738   3.450   1.986  0.6700  0.5134 -0.5071
  914MOL0     C26010   9.689   3.317   1.936 -1.0301  0.3406  0.5130
  914MOL0     N26011   9.775   3.212   1.980  0.6226 -0.2339 -0.5077
  914MOL0     C26012   9.718   3.089   2.025  0.4711 -0.4104  0.0062
  914MOL0     C26013   9.823   3.005   2.027  1.0173 -0.4565 -0.2073
  914MOL0     C26014   9.814   2.862   2.076  0.1511  1.2647 -0.1529
  914MOL0     C26015   9.875   2.837   2.212  0.0277  0.5548 -0.0455
  914MOL0     C26016   9.873   2.688   2.256  1.1094 -0.8933  0.3301
  914MOL0     C26017   9.906   2.683   2.401 -1.0743 -0.2281 -1.0259
  914MOL0     O26018   9.801   2.739   2.486 -0.5634 -0.1340 -0.9310
  914MOL0     C26019   9.843   2.812   2.593  1.0734  0.3090  0.3068
  914MOL0     C26020   9.958   2.785   2.670  0.2728 -0.2157 -0.4579
  914MOL0     C26021   9.995   2.858   2.785 -0.2161 -0.5147  0.0335
  914MOL0     C26022  10.137   2.837   2.836  0.3958  0.1580 -0.0927
  914MOL0     C26023   9.909   2.962   2.831 -0.3983  0.9755 -0.2976
  914MOL0     C26024   9.951   3.057   2.931  0.1188 -0.7775  0.0463
  914MOL0     O26025   9.917   3.183   2.907  0.1456  0.3772 -0.2300
  914MOL0     C26026   9.957   3.292   2.982 -0.3220  0.3849  0.3238
  914MOL0     C26027   9.888   3.320   3.093  0.2023 -0.8052 -1.6261
  914MOL0     C26028   9.910   3.449   3.156  0.2031  0.8604  0.0492
  914MOL0     C26029  10.015   3.532   3.115 -0.3245  0.0763  0.3708
  914MOL0     O26030  10.056   3.626   3.207 -0.4545  0.4906 -0.0749
  914MOL0     C26031  10.199   3.636   3.222 -0.6863 -1.1855  0.0153
  914MOL0     C26032  10.240   3.716   3.346  0.6838  0.1954 -0.0690
  914MOL0     C26033  10.391   3.743   3.376  1.0459  0.3732  0.2828
  914MOL0     C26034  10.460   3.609   3.395 -0.8770 -0.0983 -0.0147
  914MOL0     C26035  10.613   3.615   3.378 -0.3694  0.3111  0.0473
  914MOL0     C26036  10.687   3.519   3.462  0.5677 -0.1716 -0.5527
  914MOL0     C26037  10.661   3.378   3.411 -0.5442 -0.1103  0.4100
  914MOL0     C26038  10.717   3.278   3.514  0.6679 -0.3217 -0.2862
  914MOL0    Cl26039  10.888   3.307   3.563  0.7144  0.2946 -0.0596
  914MOL0     C26040  10.074   3.508   2.989 -0.6055  0.5155 -0.0710
  914MOL0     C26041  10.044   3.388   2.928  0.4591 -0.3371 -0.0221
  914MOL0     O26042   9.990   3.016   3.035 -0.3181  0.0677 -0.2712
  914MOL0     C26043   9.785   2.984   2.753 -0.0135  0.4945 -0.3712
  914MOL0     C26044   9.759   2.907   2.642 -0.6942  0.3464 -0.4343
  914MOL0     N26045   9.931   3.069   1.974  0.5989  0.4453  0.2941
  914MOL0     N26046   9.907   3.189   1.942  0.6645 -0.6076 -0.7603
  914MOL0     C26047  10.276   4.133   2.130  0.4858  0.1832  0.2640
  914MOL0     C26048  10.280   4.235   2.231  0.4390 -0.0771 -0.0134
  914MOL0     C26049  10.100   4.514   2.542  0.0503 -0.1815 -0.3531
  914MOL0     C26050  10.229   4.544   2.590  0.5473 -0.5667  0.7471
  914MOL0     C26051  10.256   4.657   2.670  0.5051  0.7127  0.7575
  914MOL0     C26052  10.149   4.750   2.706 -0.8759  0.7329  0.0622
  914MOL0     O26053  10.162   4.861   2.791  0.2103  1.3090 -0.0720
  914MOL0     C26054  10.288   4.865   2.861 -0.0680  0.0549 -0.0848
  914MOL0     C26055  10.283   4.976   2.959 -0.5010 -0.2433  1.1165
  914MOL0     C26056  10.423   4.997   3.029  0.1419 -0.3672  0.3403
  914MOL0     C26057  10.426   5.118   3.126 -1.2841 -0.5372 -0.7082
  914MOL0     C26058  10.541   5.097   3.215 -0.4236 -0.0905 -0.8252
  914MOL0     C26059  10.647   5.101   3.279 -0.3575 -1.6991  0.3491
  914MOL0     C26060  10.022   4.720   2.648 -0.4897 -0.5354 -0.5689
  914MOL0     C26061   9.999   4.602   2.575  0.1772 -0.4318 -0.3894
  914MOL0     C26062   9.861   4.568   2.561  0.5729 -0.2590 -0.2997
  914MOL0     H26063  10.088   4.069   2.460  2.4397  0.4695  1.3966
  914MOL0     H26064  10.112   3.901   2.306 -0.0326 -0.7330 -2.2475
  914MOL0     H26065  10.051   3.812   2.125 -0.5672 -0.5609 -0.6481
  914MOL0     H26066  10.170   3.710   2.039  1.6824  0.8971  1.3230
  914MOL0     H26067   9.964   3.894   1.928  4.4881  3.0061  0.8923
  914MOL0     H26068  10.094   3.807   1.831  1.7464 -4.2590  0.0879
  914MOL0     H26069  10.004   3.602   1.890  1.9459  1.9223 -2.2451
  914MOL0     H26070   9.901   3.677   2.016 -0.3018  1.2591 -0.0026
  914MOL0     H26071   9.771   3.805   1.871  0.9153  2.0102 -0.4980
  914MOL0     H26072   9.833   3.744   1.719 -1.2571 -3.4445 -1.3727
  914MOL0     H26073   9.746   3.518   1.737 -0.6782  1.5222 -2.3191
  914MOL0     H26074   9.641   3.646   1.720  1.9946  1.5722 -2.5726
  914MOL0     H26075   9.644   3.629   2.006 -3.5720  1.9451 -1.2419
  914MOL0     H26076   9.544   3.523   1.902  1.3339 -0.8605 -0.6943
  914MOL0     H26077   9.723   3.451   2.095  0.7700  0.2717 -0.4905
  914MOL0     H26078   9.845   3.466   1.973  0.9559 -0.3148  0.6446
  914MOL0     H26079   9.590   3.295   1.975 -0.1198 -4.8650  0.6336
  914MOL0     H26080   9.691   3.327   1.827 -1.4645  1.6438  0.6178
  914MOL0     H26081   9.617   3.074   2.061  0.4564  1.6728  1.0051
  914MOL0     H26082   9.865   2.803   1.999 -1.7413  0.3822 -0.7812
  914MOL0     H26083   9.712   2.825   2.078 -0.3232  2.5424  0.2215
  914MOL0     H26084   9.978   2.873   2.206  0.1075  0.1045 -2.5937
  914MOL0     H26085   9.821   2.898   2.285 -1.9597 -0.4932 -0.5615
  914MOL0     H26086   9.769   2.656   2.245  0.3242  0.5617  2.7028
  914MOL0     H26087   9.945   2.632   2.196  0.8166  1.6474 -2.6287
  914MOL0     H26088   9.934   2.580   2.421  1.8294  0.4770 -0.9782
  914MOL0     H26089   9.998   2.740   2.414 -1.3454 -0.2089  1.1262
  914MOL0     H26090  10.032   2.709   2.651 -0.0068 -0.8684  0.9757
  914MOL0     H26091  10.166   2.938   2.868  0.2684  0.4727 -0.9237
  914MOL0     H26092  10.209   2.793   2.766  0.6575 -2.1707  1.5538
  914MOL0     H26093  10.127   2.774   2.924  0.6690 -0.3220 -0.4041
  914MOL0     H26094   9.823   3.245   3.139  0.2921  0.6172  1.0315
  914MOL0     H26095   9.873   3.467   3.256 -0.3735  1.6496 -0.2944
  914MOL0     H26096  10.247   3.539   3.238 -1.9234 -1.3428  3.7806
  914MOL0     H26097  10.245   3.691   3.140 -1.1770  0.3943  0.7660
  914MOL0     H26098  10.201   3.818   3.336  1.5399  0.7468  1.8175
  914MOL0     H26099  10.199   3.671   3.437 -0.6899 -0.4238 -0.9654
  914MOL0     H26100  10.388   3.809   3.463 -3.7376  0.7861  0.0792
  914MOL0     H26101  10.432   3.790   3.287 -2.0699  3.3701  0.1985
  914MOL0     H26102  10.419   3.548   3.314 -0.4025 -1.0079  0.4060
  914MOL0     H26103  10.429   3.550   3.482  1.4410 -1.4363 -0.0269
  914MOL0     H26104  10.632   3.596   3.272 -1.7280 -1.0945  0.0210
  914MOL0     H26105  10.629   3.720   3.404 -0.9398 -0.1159  2.3145
  914MOL0     H26106  10.653   3.551   3.561  0.9013 -2.4098  0.3378
  914MOL0     H26107  10.791   3.553   3.458 -0.4121  3.1011 -1.9077
  914MOL0     H26108  10.719   3.355   3.321 -3.0379 -0.8266 -1.1268
  914MOL0     H26109  10.557   3.348   3.396 -0.0536 -2.3583  1.0931
  914MOL0     H26110  10.716   3.171   3.489  0.5870 -0.7169  1.2775
  914MOL0     H26111  10.654   3.280   3.604  2.2764 -0.2015  0.8806
  914MOL0     H26112  10.149   3.578   2.953 -1.7957  3.2269  2.3597
  914MOL0     H26113  10.098   3.364   2.837  2.4862  0.8243  0.8178
  914MOL0     H26114   9.707   3.058   2.769 -1.7592 -1.5164  1.0257
  914MOL0     H26115   9.667   2.936   2.592 -1.1984  4.1057  2.2887
  914MOL0     H26116  10.331   4.156   2.039  2.1609  1.2797  1.4901
  914MOL0     H26117  10.347   4.319   2.222  0.3525 -0.0540 -0.4339
  914MOL0     H26118  10.312   4.485   2.552  1.8120  0.9271  1.0814
  914MOL0     H26119  10.359   4.668   2.702  1.2805 -1.1746 -0.8550
  914MOL0     H26120  10.300   4.780   2.928 -0.0033 -0.6002 -0.9103
  914MOL0     H26121  10.376   4.867   2.796  0.3122 -0.3746  0.4088
  914MOL0     H26122  10.205   4.959   3.034  0.9749  0.9460  3.0181
  914MOL0     H26123  10.253   5.073   2.919  1.0814 -0.6641 -1.3823
  914MOL0     H26124  10.458   4.906   3.079 -1.5471  0.0295  2.3788
  914MOL0     H26125  10.498   5.025   2.954  0.3838 -0.8787  0.3838
  914MOL0     H26126  10.336   5.123   3.187 -1.4859 -0.6774 -0.9945
  914MOL0     H26127  10.442   5.215   3.079 -1.2161  0.2225  0.8247
  914MOL0     H26128  10.728   5.093   3.348 -0.7321 -2.2190  0.7338
  914MOL0     H26129   9.940   4.788   2.669 -1.4883 -2.4802  2.7144
  914MOL0     H26130   9.792   4.617   2.631  1.0143  1.1741 -0.8389
  914MOL0     H26131   9.831   4.610   2.465  0.0848  0.0371 -0.0236
  914MOL0     H26132   9.829   4.463   2.566 -1.5888  0.2035 -2.6266
  915MOL0     O26133  11.344  11.023   8.084  0.2423  0.2481 -0.2600
  915MOL0     C26134  11.330  10.934   8.165  0.7642 -0.4313 -0.7366
  915MOL0     O26135  11.219  10.919   8.249  0.5217  1.4638 -0.7881
  915MOL0     C26136  11.110  11.001   8.257 -0.0555  0.7107 -0.2471
  915MOL0     C26137  10.993  10.950   8.306  0.3431  0.0841 -1.0213
  915MOL0     C26138  10.879  11.028   8.308 -0.1293  0.1840  0.1880
  915MOL0     C26139  10.874  11.161   8.278  1.0700  0.2432  0.5692
  915MOL0     O26140  10.747  11.220   8.270 -0.5212  0.2060 -0.7119
  915MOL0     C26141  10.729  11.337   8.352 -0.1593  0.7003  0.2312
  915MOL0     C26142  10.588  11.394   8.360 -0.7324  0.0616  0.5093
  915MOL0     C26143  10.505  11.289   8.437  0.6267 -0.1189  0.7822
  915MOL0     C26144  10.369  11.348   8.459  0.1137  0.2574 -0.9185
  915MOL0     C26145  10.294  11.253   8.542  0.3322  0.5116 -1.0041
  915MOL0     C26146  10.165  11.299   8.618  0.9700  0.5341  0.6778
  915MOL0     C26147  10.198  11.357   8.758  0.3210  0.2118  0.3354
  915MOL0     C26148  10.205  11.244   8.864  0.3928 -0.2123  0.3159
  915MOL0     N26149  10.197  11.302   9.001  0.1430  0.7851 -0.3621
  915MOL0     C26150  10.123  11.240   9.107 -1.4066 -1.1256 -0.5726
  915MOL0     C26151  10.174  11.306   9.213  0.7614  0.4493 -0.1224
  915MOL0     C26152  10.129  11.307   9.354 -0.1872  0.5220  0.4807
  915MOL0     C26153  10.239  11.346   9.450 -0.1595  0.4859  0.5432
  915MOL0     C26154  10.182  11.393   9.590  1.0034 -0.0317 -0.0341
  915MOL0     C26155  10.115  11.529   9.598  0.3954 -0.0558  0.2561
  915MOL0     O26156  10.095  11.564   9.741 -0.6113 -0.7752  0.2333
  915MOL0     C26157   9.977  11.592   9.799 -0.1281  0.9508 -0.9480
  915MOL0     C26158   9.974  11.627   9.937 -0.0142 -0.0774  0.5855
  915MOL0     C26159   9.859  11.674  10.001 -0.5094 -0.0667 -0.3636
  915MOL0     C26160   9.868  11.747  10.132  0.2165  0.5412 -0.4755
  915MOL0     C26161   9.738  11.683   9.922  0.7505  0.3393 -0.7326
  915MOL0     C26162   9.607  11.739   9.957  0.3012  0.1933  0.4138
  915MOL0     O26163   9.593  11.809  10.072 -0.3431 -0.0797 -0.2754
  915MOL0     C26164   9.468  11.821  10.133  0.5427 -0.6366  0.5773
  915MOL0     C26165   9.344  11.750  10.117 -0.6054 -0.5179 -0.3709
  915MOL0     C26166   9.230  11.772  10.204 -0.4764  0.1730  0.9833
  915MOL0     C26167   9.236  11.884  10.288 -0.2569 -0.6519 -0.6417
  915MOL0     O26168   9.123  11.926  10.360  0.5720 -0.3400 -0.2192
  915MOL0     C26169   9.026  11.827  10.395 -0.1765  0.2047  0.0723
  915MOL0     C26170   8.935  11.897  10.490  0.1160  0.5912  0.3514
  915MOL0     C26171   9.003  11.920  10.623 -0.6402 -0.5515  0.5481
  915MOL0     C26172   8.913  12.008  10.712 -0.2444  0.1993 -0.5652
  915MOL0     C26173   8.771  11.949  10.733 -0.6033  0.2515  1.0583
  915MOL0     C26174   8.778  11.797  10.777  0.4075 -0.3333  0.0253
  915MOL0     C26175   8.638  11.732  10.805  0.8276 -0.3751 -0.8636
  915MOL0     C26176   8.535  11.733  10.691 -0.4943 -1.2358  0.0076
  915MOL0    Cl26177   8.611  11.652  10.552  0.0203 -0.4181 -0.6500
  915MOL0     C26178   9.344  11.966  10.292 -1.1565  0.8976 -0.9061
  915MOL0     C26179   9.457  11.934  10.215 -0.1889  1.0043  0.9736
  915MOL0     O26180   9.519  11.721   9.877  0.1649  0.2262 -0.4139
  915MOL0     C26181   9.738  11.631   9.791  0.0601 -0.2898 -0.1375
  915MOL0     C26182   9.852  11.582   9.737 -0.1794  1.2045  0.1595
  915MOL0     N26183  10.262  11.401   9.176 -0.1324  0.3546 -0.5856
  915MOL0     N26184  10.284  11.394   9.049 -0.7320 -0.1295  0.5560
  915MOL0     C26185  10.991  11.227   8.235 -0.7525  0.0339 -0.8184
  915MOL0     C26186  11.107  11.140   8.231 -1.2607 -0.5409 -0.5510
  915MOL0     C26187  11.441  10.839   8.182  0.0945 -0.0967 -0.0482
  915MOL0     C26188  11.425  10.747   8.292 -0.0494  0.8023  0.1380
  915MOL0     C26189  11.518  10.645   8.305 -0.2500 -0.0591  0.2315
  915MOL0     C26190  11.617  10.621   8.214 -0.2995 -0.0179  0.6076
  915MOL0     O26191  11.720  10.527   8.227 -0.2044  0.0180  0.4065
  915MOL0     C26192  11.720  10.429   8.333 -0.3155  0.1849  0.0328
  915MOL0     C26193  11.841  10.344   8.327  0.2169 -0.5940  0.3709
  915MOL0     C26194  11.963  10.407   8.290 -0.3657 -0.0060 -0.1396
  915MOL0     C26195  12.003  10.519   8.389 -0.7328  0.3158  0.4267
  915MOL0     C26196  12.143  10.565   8.358 -0.2481 -0.0245  0.2482
  915MOL0     C26197  12.259  10.599   8.321  0.1562  0.5301  0.1412
  915MOL0     C26198  11.627  10.699   8.105  0.5919 -0.3549 -0.2181
  915MOL0     C26199  11.546  10.815   8.084  0.4851  0.2575  0.1066
  915MOL0     C26200  11.558  10.878   7.949  1.2012  1.1875 -0.3946
  915MOL0     H26201  10.970  10.849   8.339 -0.1336 -0.5821 -3.2479
  915MOL0     H26202  10.786  10.985   8.342 -2.3028  0.7992 -4.3330
  915MOL0     H26203  10.800  11.414   8.319 -0.5719  1.7754  1.7489
  915MOL0     H26204  10.758  11.291   8.447  2.1420 -0.7462 -1.0814
  915MOL0     H26205  10.594  11.488   8.416 -0.7537 -0.4256  1.3514
  915MOL0     H26206  10.547  11.406   8.259 -0.0511  1.1285  0.3473
  915MOL0     H26207  10.502  11.197   8.378  0.4130  1.9582 -2.7419
  915MOL0     H26208  10.547  11.258   8.533 -2.5611 -1.0243  2.0490
  915MOL0     H26209  10.374  11.446   8.507 -0.2415  0.7827 -1.9063
  915MOL0     H26210  10.316  11.367   8.365 -1.1166  1.6504 -0.0016
  915MOL0     H26211  10.361  11.220   8.622 -0.7402 -1.5221 -0.8622
  915MOL0     H26212  10.270  11.160   8.489  0.1724  0.6684 -1.2090
  915MOL0     H26213  10.099  11.368   8.565 -0.2079 -2.3673 -1.9895
  915MOL0     H26214  10.105  11.210   8.639 -1.0499  1.1885 -1.8310
  915MOL0     H26215  10.110  11.418   8.783  1.6411  1.7905  1.3244
  915MOL0     H26216  10.286  11.421   8.758 -0.0750  0.9417 -2.6688
  915MOL0     H26217  10.119  11.175   8.863 -1.5496  2.0705  0.9318
  915MOL0     H26218  10.294  11.184   8.842  1.5442  0.9150  1.7276
  915MOL0     H26219  10.041  11.169   9.101  1.1335 -4.1038 -3.6137
  915MOL0     H26220  10.099  11.204   9.376 -2.0109  0.3064 -2.5220
  915MOL0     H26221  10.049  11.382   9.354 -0.5569  0.1839 -1.7372
  915MOL0     H26222  10.305  11.259   9.456  1.0658  0.9892 -3.1541
  915MOL0     H26223  10.316  11.414   9.411 -0.0391 -0.2484 -0.5331
  915MOL0     H26224  10.110  11.319   9.628 -1.0622  1.3770 -0.9912
  915MOL0     H26225  10.268  11.404   9.657  1.2887 -2.3873  0.0835
  915MOL0     H26226  10.180  11.603   9.553 -0.3605  0.3235 -0.2336
  915MOL0     H26227  10.020  11.531   9.543 -0.4514  1.0415  1.7054
  915MOL0     H26228  10.061  11.632  10.002 -1.2877 -1.9099  2.5395
  915MOL0     H26229   9.966  11.733  10.177 -0.9715 -0.3306  2.0399
  915MOL0     H26230   9.793  11.702  10.197  0.2194  0.4407 -0.5410
  915MOL0     H26231   9.849  11.854  10.120 -2.3375  0.2807  0.5289
  915MOL0     H26232   9.337  11.679  10.036  0.9136 -1.1016 -0.0280
  915MOL0     H26233   9.138  11.723  10.174  0.8164 -1.1639 -1.0242
  915MOL0     H26234   8.956  11.788  10.320  0.4207 -2.0986  0.6202
  915MOL0     H26235   9.060  11.732  10.437 -0.4152  0.7561  1.5767
  915MOL0     H26236   8.892  11.987  10.446 -0.5681 -0.2304 -0.6883
  915MOL0     H26237   8.844  11.840  10.513  0.3550  0.5333  1.2093
  915MOL0     H26238   9.099  11.971  10.622 -0.3575 -1.0327  1.6145
  915MOL0     H26239   9.026  11.827  10.675  2.8908 -1.1348 -1.7195
  915MOL0     H26240   8.906  12.111  10.676  0.9430  0.1257 -1.0736
  915MOL0     H26241   8.966  12.014  10.808  0.9172  0.8692 -1.2136
  915MOL0     H26242   8.722  12.011  10.809 -2.4137 -1.8139  1.6692
  915MOL0     H26243   8.711  11.966  10.644 -1.8319  2.4162  2.2125
  915MOL0     H26244   8.833  11.802  10.871 -2.3028 -0.6607  1.7386
  915MOL0     H26245   8.837  11.729  10.715  2.2076 -1.6371  2.9753
  915MOL0     H26246   8.596  11.777  10.896  1.9271 -0.0374 -0.5069
  915MOL0     H26247   8.642  11.634  10.853 -0.7828 -0.2576 -0.3978
  915MOL0     H26248   8.515  11.838  10.668  0.1962 -0.5370  2.3679
  915MOL0     H26249   8.439  11.688  10.717 -0.4731 -0.8897  0.7004
  915MOL0     H26250   9.337  12.045  10.367 -4.9710 -1.6155  1.7625
  915MOL0     H26251   9.551  11.989  10.223 -0.1294  1.6474 -2.5078
  915MOL0     H26252   9.652  11.631   9.725  0.7041  1.2720 -1.0292
  915MOL0     H26253   9.833  11.540   9.639 -2.6389  0.9879  0.6606
  915MOL0     H26254  10.984  11.332   8.207 -0.8497  0.3246  0.2497
  915MOL0     H26255  11.197  11.191   8.198 -1.4260 -1.3060 -2.3359
  915MOL0     H26256  11.355  10.741   8.374 -4.0235 -1.4294 -3.0628
  915MOL0     H26257  11.513  10.576   8.388 -1.0870 -1.0869 -0.6416
  915MOL0     H26258  11.711  10.476   8.431 -0.0621 -3.1992  1.8213
  915MOL0     H26259  11.634  10.367   8.304 -0.2893 -1.0639  2.3638
  915MOL0     H26260  11.835  10.260   8.257  0.9924  2.6860 -4.0513
  915MOL0     H26261  11.859  10.303   8.427  0.1071 -0.7983  0.3068
  915MOL0     H26262  12.045  10.336   8.276  2.3191  2.8897 -0.2473
  915MOL0     H26263  11.947  10.463   8.197  0.2022  1.1718  0.4475
  915MOL0     H26264  11.993  10.485   8.493 -1.3341 -2.2495 -0.4028
  915MOL0     H26265  11.932  10.601   8.374  0.1977  0.9235 -0.8078
  915MOL0     H26266  12.357  10.637   8.304  0.6468 -0.8411 -0.1780
  915MOL0     H26267  11.704  10.666   8.035  1.3280  2.0850 -0.6262
  915MOL0     H26268  11.597  10.981   7.952  0.7603  1.3331  1.3506
  915MOL0     H26269  11.617  10.825   7.874 -0.7779 -0.3069 -0.9897
  915MOL0     H26270  11.462  10.876   7.897 -0.6855  1.7619  2.7489
  916MOL0     O26271   7.060   6.857   8.562  0.3947  0.2657  0.1360
  916MOL0     C26272   7.136   6.869   8.465  0.2974  0.4272 -0.6107
  916MOL0     O26273   7.273   6.895   8.476  1.3593  0.5892  0.3223
  916MOL0     C26274   7.339   6.876   8.594 -0.1055  0.0054  0.4283
  916MOL0     C26275   7.296   6.907   8.716  0.3205 -0.3400  0.0188
  916MOL0     C26276   7.366   6.880   8.834  0.4268  0.4271 -1.4807
  916MOL0     C26277   7.496   6.835   8.828 -0.6651 -0.5881 -0.1976
  916MOL0     O26278   7.569   6.819   8.943  0.2718  0.0748 -0.7047
  916MOL0     C26279   7.539   6.703   9.028 -0.4119 -0.5537  0.1691
  916MOL0     C26280   7.634   6.593   8.992  0.2604 -0.3720 -0.1759
  916MOL0     C26281   7.767   6.624   9.067 -0.4520  1.1553 -0.2366
  916MOL0     C26282   7.873   6.542   8.990  0.9976 -0.2637  0.4348
  916MOL0     C26283   7.994   6.521   9.077 -0.6413  0.3890  1.2060
  916MOL0     C26284   8.120   6.582   9.011 -0.0824  0.1958 -0.8854
  916MOL0     C26285   8.246   6.531   9.087  0.4054 -0.0603  0.6031
  916MOL0     C26286   8.337   6.653   9.128  0.0986 -0.0478 -0.0149
  916MOL0     N26287   8.277   6.760   9.208  0.2771 -0.8120  0.3527
  916MOL0     C26288   8.196   6.739   9.317  0.5141  1.3403  0.3266
  916MOL0     C26289   8.173   6.863   9.366  1.2304  0.2046  0.0055
  916MOL0     C26290   8.094   6.895   9.489 -0.6258 -0.2042  0.2618
  916MOL0     C26291   7.957   6.943   9.452  0.3555 -0.8298  0.6341
  916MOL0     C26292   7.867   6.835   9.382 -0.4382 -0.2034 -0.0782
  916MOL0     C26293   7.829   6.708   9.461 -0.8681  0.1822 -0.7809
  916MOL0     O26294   7.781   6.728   9.598  0.7129  0.3528  0.1473
  916MOL0     C26295   7.768   6.623   9.686  0.7505 -1.3223 -0.9028
  916MOL0     C26296   7.738   6.644   9.819  0.5733  0.3014 -0.1249
  916MOL0     C26297   7.709   6.537   9.904  0.0792  0.2041 -0.8453
  916MOL0     C26298   7.667   6.570  10.048 -0.3723  0.6514  0.6674
  916MOL0     C26299   7.741   6.408   9.870  0.1274  0.2603  0.1492
  916MOL0     C26300   7.744   6.290   9.965  0.1877 -0.2342 -1.3911
  916MOL0     O26301   7.743   6.167   9.916  0.6264 -0.7380 -0.2444
  916MOL0     C26302   7.795   6.062   9.981 -0.0612 -0.6208 -0.3331
  916MOL0     C26303   7.722   5.943   9.994 -0.2999 -0.9750 -0.2004
  916MOL0     C26304   7.771   5.825  10.045 -0.2133  0.2569 -0.0336
  916MOL0     C26305   7.901   5.831  10.105 -0.2748 -0.1504 -0.1164
  916MOL0     O26306   7.972   5.740  10.174  0.3087  0.4727  0.4091
  916MOL0     C26307   7.921   5.601  10.183 -0.1071 -0.2465  1.2815
  916MOL0     C26308   8.022   5.489  10.209 -0.3833 -0.0985 -0.6957
  916MOL0     C26309   7.963   5.342  10.201 -0.1749  0.7656  0.2576
  916MOL0     C26310   7.865   5.302  10.311 -0.1077  0.6233  0.2679
  916MOL0     C26311   7.793   5.168  10.287  0.7072  0.3026  0.3237
  916MOL0     C26312   7.895   5.051  10.317 -0.1908  0.3144 -0.9566
  916MOL0     C26313   7.827   4.921  10.346  0.1852 -0.7214  0.1099
  916MOL0     C26314   7.757   4.902  10.478 -0.0256 -0.4404 -0.2465
  916MOL0    Cl26315   7.880   4.898  10.612  0.4739 -0.4051  0.0199
  916MOL0     C26316   7.972   5.953  10.108  0.7146  0.1258  0.0245
  916MOL0     C26317   7.928   6.064  10.028  0.1485  0.7942 -0.2144
  916MOL0     O26318   7.771   6.315  10.083 -0.5291 -0.6199 -0.2632
  916MOL0     C26319   7.772   6.387   9.732 -0.5808  0.0837  0.4006
  916MOL0     C26320   7.785   6.488   9.645  0.5287 -0.2600 -0.1712
  916MOL0     N26321   8.250   6.950   9.294 -0.5522 -0.1474  0.6510
  916MOL0     N26322   8.304   6.899   9.195 -0.1725  1.0357  0.5946
  916MOL0     C26323   7.543   6.822   8.701 -0.9748 -0.0593 -0.0376
  916MOL0     C26324   7.470   6.842   8.583  0.3771  0.5287  1.0396
  916MOL0     C26325   7.087   6.854   8.322 -0.2703 -1.0366  0.9014
  916MOL0     C26326   7.187   6.838   8.218 -0.2378 -0.6894 -0.8593
  916MOL0     C26327   7.156   6.828   8.085  1.0153 -0.0853  0.1407
  916MOL0     C26328   7.027   6.846   8.039  0.3869 -0.8234 -0.1288
  916MOL0     O26329   7.007   6.837   7.904 -0.4099 -0.9290  0.5747
  916MOL0     C26330   6.880   6.847   7.843  0.7351 -0.2737 -0.2180
  916MOL0     C26331   6.893   6.932   7.717  0.0026 -0.3196  1.0678
  916MOL0     C26332   6.895   7.099   7.731  0.1187 -0.0917  0.0801
  916MOL0     C26333   6.970   7.167   7.611  0.3096  0.8206 -0.3374
  916MOL0     C26334   6.897   7.135   7.494  0.0592  0.0544  0.3392
  916MOL0     C26335   6.834   7.110   7.397  0.7929  0.5511 -0.6643
  916MOL0     C26336   6.928   6.865   8.142  0.0595  0.0609  0.3645
  916MOL0     C26337   6.953   6.868   8.279 -0.5790 -1.1826  1.0173
  916MOL0     C26338   6.844   6.910   8.369  1.0859  0.0086  0.1217
  916MOL0     H26339   7.197   6.952   8.723  0.6255  0.1979  1.2440
  916MOL0     H26340   7.324   6.884   8.934 -0.3458 -1.1445 -1.7073
  916MOL0     H26341   7.434   6.674   9.028 -0.7062  0.4371 -1.1541
  916MOL0     H26342   7.548   6.734   9.132  0.3978 -0.9181  0.2163
  916MOL0     H26343   7.592   6.496   9.019 -0.4181  0.6214  2.5746
  916MOL0     H26344   7.640   6.590   8.882 -4.3170 -0.8494 -0.6190
  916MOL0     H26345   7.801   6.726   9.085  0.5062  0.9412 -0.7695
  916MOL0     H26346   7.751   6.571   9.162 -0.5089 -1.3681 -1.5705
  916MOL0     H26347   7.828   6.447   8.960  1.3953 -0.6940  1.1806
  916MOL0     H26348   7.902   6.592   8.897  1.3267  2.4694  1.8932
  916MOL0     H26349   8.007   6.413   9.093 -3.5182 -0.0897  0.9510
  916MOL0     H26350   7.994   6.560   9.180  3.0970  1.2329  1.0191
  916MOL0     H26351   8.144   6.551   8.908  2.7093 -0.6426 -0.0740
  916MOL0     H26352   8.120   6.691   9.013 -0.4477  0.2005  1.5418
  916MOL0     H26353   8.307   6.463   9.026 -0.1246 -0.4892  0.5510
  916MOL0     H26354   8.212   6.482   9.178 -0.0716 -0.8345  0.0263
  916MOL0     H26355   8.419   6.608   9.186 -0.6236 -1.8943 -0.3511
  916MOL0     H26356   8.365   6.687   9.028 -1.7618  0.3517 -0.4332
  916MOL0     H26357   8.169   6.646   9.367 -0.9268  2.0673  0.9627
  916MOL0     H26358   8.149   6.972   9.544  0.2646 -0.9882  0.5099
  916MOL0     H26359   8.103   6.811   9.559  0.1341  1.4390  2.2454
  916MOL0     H26360   7.907   6.979   9.542 -3.0202 -0.9917 -1.0386
  916MOL0     H26361   7.963   7.035   9.392  1.1156 -1.4149 -0.2130
  916MOL0     H26362   7.775   6.875   9.340 -0.5214 -0.3330 -0.0198
  916MOL0     H26363   7.934   6.783   9.312  0.8766  0.4340  0.6597
  916MOL0     H26364   7.768   6.639   9.402 -1.1013 -0.3102  0.0232
  916MOL0     H26365   7.920   6.648   9.474 -0.9094  0.0686 -1.0136
  916MOL0     H26366   7.723   6.749   9.838  0.0896  0.7287 -2.5361
  916MOL0     H26367   7.594   6.503  10.094  3.9568 -1.7392  5.0225
  916MOL0     H26368   7.643   6.677  10.060 -3.7558 -0.2442  3.9197
  916MOL0     H26369   7.755   6.555  10.110 -0.8868  0.8579  1.4643
  916MOL0     H26370   7.619   5.950   9.960  0.3950  1.1447 -2.1101
  916MOL0     H26371   7.714   5.735  10.026 -1.6997  1.4018 -1.3338
  916MOL0     H26372   7.843   5.588  10.259 -1.7800 -0.1290 -0.3413
  916MOL0     H26373   7.872   5.584  10.087  0.6486 -1.2273  1.0532
  916MOL0     H26374   8.106   5.509  10.142  1.4258  1.4735  1.8178
  916MOL0     H26375   8.070   5.490  10.307 -2.3229  1.1044  0.3057
  916MOL0     H26376   8.050   5.278  10.212 -0.5868  0.2280  0.4465
  916MOL0     H26377   7.910   5.326  10.107  2.7335  0.1486 -1.3928
  916MOL0     H26378   7.786   5.377  10.309  0.1348  0.8827 -1.5665
  916MOL0     H26379   7.903   5.309  10.413 -1.1600  2.3731  0.5790
  916MOL0     H26380   7.713   5.163  10.361  1.4210 -3.3066  1.0500
  916MOL0     H26381   7.753   5.155  10.186 -3.1314  0.0226  1.7245
  916MOL0     H26382   7.953   5.075  10.406  2.2946 -0.6981 -2.2140
  916MOL0     H26383   7.956   5.040  10.227  2.1640 -0.5726  0.6883
  916MOL0     H26384   7.913   4.857  10.326  1.0107  0.1361  0.7671
  916MOL0     H26385   7.755   4.889  10.271 -1.3041  0.8943  0.7641
  916MOL0     H26386   7.695   4.813  10.471 -0.6443  0.0601 -1.4889
  916MOL0     H26387   7.683   4.981  10.496 -1.6270 -2.1551  0.9987
  916MOL0     H26388   8.059   5.970  10.170  0.7393  5.2897 -0.9618
  916MOL0     H26389   8.005   6.139  10.014 -0.3600  1.1340 -1.2134
  916MOL0     H26390   7.814   6.293   9.700  0.5463  0.3786  0.9726
  916MOL0     H26391   7.818   6.466   9.543  0.1235 -0.6266 -0.2266
  916MOL0     H26392   7.646   6.797   8.678 -0.5157  1.5778  0.0698
  916MOL0     H26393   7.506   6.826   8.482  2.2260  0.5450  1.6667
  916MOL0     H26394   7.294   6.828   8.235  0.2183  0.4220 -2.8338
  916MOL0     H26395   7.235   6.824   8.011  3.9007 -0.3429  3.0301
  916MOL0     H26396   6.847   6.746   7.817 -2.8733  0.6611  0.1883
  916MOL0     H26397   6.806   6.899   7.905 -0.4950 -0.7508 -1.2377
  916MOL0     H26398   6.803   6.921   7.656  2.7774  0.7110 -3.6992
  916MOL0     H26399   6.984   6.910   7.661 -0.8740  1.4501 -1.2232
  916MOL0     H26400   6.793   7.134   7.750  0.8032  1.4203  1.1759
  916MOL0     H26401   6.950   7.135   7.818 -0.3512 -1.3142  0.9041
  916MOL0     H26402   7.069   7.122   7.601  0.2820  0.3853  1.1365
  916MOL0     H26403   6.971   7.275   7.627  0.8834  0.6424  0.8881
  916MOL0     H26404   6.771   7.082   7.315  1.9155  1.2735 -1.8080
  916MOL0     H26405   6.825   6.850   8.111  0.9630 -0.8052 -2.5025
  916MOL0     H26406   6.743   6.914   8.329  2.0890  0.3883 -2.6254
  916MOL0     H26407   6.837   6.829   8.442  2.4246  0.3295  0.6409
  916MOL0     H26408   6.870   7.001   8.424  1.0211 -0.7104  1.3740
  917MOL0     O26409   2.913   9.639  10.696 -0.7811  0.0886 -0.4098
  917MOL0     C26410   3.005   9.632  10.783  0.5119 -0.1646  0.0648
  917MOL0     O26411   3.086   9.742  10.825 -0.2296 -0.0862  0.0438
  917MOL0     C26412   3.110   9.863  10.761 -0.1652 -0.1458  0.1536
  917MOL0     C26413   3.167   9.964  10.837  0.7309  0.6168  0.6309
  917MOL0     C26414   3.200  10.087  10.776  0.1652  1.6219  0.2272
  917MOL0     C26415   3.170  10.115  10.641  0.2470 -0.8056  0.0474
  917MOL0     O26416   3.192  10.229  10.572  0.6897  0.0839 -0.5272
  917MOL0     C26417   3.329  10.283  10.569  0.3162 -0.7198 -0.7444
  917MOL0     C26418   3.322  10.423  10.507  0.7547  0.1870  1.4218
  917MOL0     C26419   3.452  10.495  10.469 -0.3051  0.7114  0.8868
  917MOL0     C26420   3.539  10.536  10.577 -0.4934  0.3303 -0.3702
  917MOL0     C26421   3.476  10.643  10.670 -0.0663  0.5482 -0.1630
  917MOL0     C26422   3.569  10.691  10.781  0.5703 -0.0637 -0.1279
  917MOL0     C26423   3.517  10.798  10.868  0.2391  0.7812  0.1099
  917MOL0     C26424   3.403  10.766  10.972 -0.0454  0.3267 -1.0196
  917MOL0     N26425   3.350  10.890  11.039  0.1603 -0.3114 -0.1260
  917MOL0     C26426   3.339  10.921  11.172  0.8494 -0.3028  0.0267
  917MOL0     C26427   3.306  11.050  11.178 -0.1660 -0.0216  0.0245
  917MOL0     C26428   3.258  11.128  11.308  0.2448  0.3131 -0.3548
  917MOL0     C26429   3.323  11.075  11.436  0.0722  0.2727  0.1424
  917MOL0     C26430   3.479  11.087  11.422  0.3480  0.2256  0.4635
  917MOL0     C26431   3.536  11.227  11.399  0.5985  0.2243 -0.7111
  917MOL0     O26432   3.643  11.268  11.482 -0.2391 -0.9459  0.2895
  917MOL0     C26433   3.777  11.235  11.445 -0.6616  0.3521  0.3861
  917MOL0     C26434   3.801  11.145  11.348  0.0907  0.8776  0.3931
  917MOL0     C26435   3.935  11.108  11.306 -0.1111 -0.7807 -0.5174
  917MOL0     C26436   3.941  10.992  11.209 -0.8135  0.5988 -0.6214
  917MOL0     C26437   4.049  11.169  11.366  0.4845 -0.3393 -0.8874
  917MOL0     C26438   4.188  11.147  11.327  0.6098 -0.3961 -1.2392
  917MOL0     O26439   4.281  11.169  11.422  1.3413 -0.5092 -0.1582
  917MOL0     C26440   4.415  11.160  11.389  0.2184 -0.7752 -0.3127
  917MOL0     C26441   4.481  11.036  11.392  0.1241  0.2114 -0.2638
  917MOL0     C26442   4.616  11.024  11.376 -0.0144  0.4061  0.5088
  917MOL0     C26443   4.693  11.135  11.364 -0.7751  0.1167  0.1089
  917MOL0     O26444   4.827  11.108  11.355  0.3336  0.1289  0.7387
  917MOL0     C26445   4.924  11.212  11.350 -0.0107  0.9033  0.2743
  917MOL0     C26446   5.073  11.159  11.352  1.0640  0.7800 -0.5534
  917MOL0     C26447   5.075  11.014  11.421 -0.7652 -0.1920  0.0497
  917MOL0     C26448   5.212  10.963  11.385 -0.3540  0.0012  0.8160
  917MOL0     C26449   5.230  10.811  11.426 -1.0537  0.1764  0.1252
  917MOL0     C26450   5.218  10.776  11.580 -0.0328  0.4760  0.4697
  917MOL0     C26451   5.340  10.834  11.657  1.2839 -0.0409  0.6849
  917MOL0     C26452   5.339  10.799  11.799 -0.0033 -0.1178  0.1907
  917MOL0    Cl26453   5.360  10.621  11.822  0.2232  0.0921  0.1040
  917MOL0     C26454   4.630  11.264  11.371 -0.5998 -0.1141  0.3299
  917MOL0     C26455   4.492  11.280  11.377 -0.4250  1.1167 -0.6974
  917MOL0     O26456   4.212  11.095  11.222 -0.2964  0.0872  0.4004
  917MOL0     C26457   4.020  11.251  11.474  0.3124  0.3937  0.2588
  917MOL0     C26458   3.891  11.280  11.507 -0.3298 -0.5571 -0.3730
  917MOL0     N26459   3.303  11.108  11.055 -0.3761  0.2796 -1.0248
  917MOL0     N26460   3.323  11.009  10.970  0.0261 -0.2327 -0.6300
  917MOL0     C26461   3.106  10.017  10.564  0.9506  0.3867 -0.6977
  917MOL0     C26462   3.075   9.888  10.626  0.1413  1.0462 -0.7128
  917MOL0     C26463   3.026   9.508  10.867 -0.1602  0.0008  0.0167
  917MOL0     C26464   3.160   9.478  10.898  0.1944 -0.4652 -0.5198
  917MOL0     C26465   3.193   9.364  10.965 -0.4057 -0.1595 -0.4118
  917MOL0     C26466   3.092   9.291  11.025 -0.0274  0.7921  0.4515
  917MOL0     O26467   3.109   9.191  11.119 -0.3093 -0.6108 -0.8453
  917MOL0     C26468   3.241   9.177  11.161 -0.2902  0.3412  0.0859
  917MOL0     C26469   3.256   9.067  11.277  0.1514  0.2397 -0.6407
  917MOL0     C26470   3.223   8.930  11.213  0.7568 -0.2616  0.2440
  917MOL0     C26471   3.233   8.829  11.327  0.0699  0.0111 -0.0257
  917MOL0     C26472   3.178   8.696  11.273 -0.1395 -0.2868 -0.4644
  917MOL0     C26473   3.135   8.598  11.219 -0.6660 -0.8598  0.2858
  917MOL0     C26474   2.958   9.322  11.003  0.3084 -0.1073 -0.6547
  917MOL0     C26475   2.923   9.417  10.907 -0.9005  0.6591  0.6667
  917MOL0     C26476   2.768   9.439  10.885  0.0404 -0.2329  0.0326
  917MOL0     H26477   3.194   9.941  10.939  2.1518  1.4163  0.4733
  917MOL0     H26478   3.258  10.157  10.835 -0.2940  1.3936  0.9617
  917MOL0     H26479   3.404  10.224  10.516 -0.0886 -0.1980 -1.9380
  917MOL0     H26480   3.360  10.294  10.673 -1.6171 -2.3959  0.0739
  917MOL0     H26481   3.268  10.418  10.412 -0.9356 -1.9058  2.4222
  917MOL0     H26482   3.269  10.489  10.577 -1.0645 -1.3704  1.5888
  917MOL0     H26483   3.505  10.415  10.415  1.1645 -0.8809  4.4052
  917MOL0     H26484   3.443  10.571  10.390 -0.5677  0.2805  0.4979
  917MOL0     H26485   3.568  10.450  10.639  4.6675  1.9161 -0.1664
  917MOL0     H26486   3.632  10.570  10.531  1.4482 -2.9934  0.7524
  917MOL0     H26487   3.383  10.603  10.710 -1.6456  2.1499 -2.0375
  917MOL0     H26488   3.444  10.732  10.614 -1.3412  1.6955  2.2470
  917MOL0     H26489   3.591  10.605  10.844  0.1897  0.3190  0.5451
  917MOL0     H26490   3.665  10.721  10.740  0.5297  0.7793  0.3671
  917MOL0     H26491   3.472  10.876  10.805 -0.1955  2.6251  2.5538
  917MOL0     H26492   3.598  10.847  10.922  0.3359  2.2241 -1.2490
  917MOL0     H26493   3.312  10.727  10.924  0.6875 -0.6887 -1.6116
  917MOL0     H26494   3.444  10.688  11.037 -2.2596 -0.5919 -0.6332
  917MOL0     H26495   3.329  10.849  11.253  2.9031 -0.0092  0.6094
  917MOL0     H26496   3.151  11.107  11.310  0.6574 -2.4834 -2.0820
  917MOL0     H26497   3.271  11.236  11.318  0.4572  0.1592  1.5391
  917MOL0     H26498   3.284  11.128  11.522 -1.9942 -3.9145  2.0747
  917MOL0     H26499   3.288  10.972  11.451  2.3955 -0.1489  4.1134
  917MOL0     H26500   3.513  11.037  11.513 -1.5519  0.8389  1.5554
  917MOL0     H26501   3.506  11.017  11.342 -1.3251  0.4865 -0.3547
  917MOL0     H26502   3.564  11.249  11.296 -2.1590 -0.0900 -1.6031
  917MOL0     H26503   3.456  11.295  11.432  0.9173 -1.0140  3.1541
  917MOL0     H26504   3.714  11.094  11.307  0.8421  0.9354 -1.3740
  917MOL0     H26505   3.974  10.903  11.262 -3.7630  0.4788  1.2439
  917MOL0     H26506   4.011  11.011  11.127  0.1611  0.2594  0.1130
  917MOL0     H26507   3.841  10.972  11.168 -0.3573 -3.9131  0.0026
  917MOL0     H26508   4.426  10.945  11.410  1.6391 -0.4256  1.4430
  917MOL0     H26509   4.658  10.924  11.381 -1.3082 -0.0966  2.5732
  917MOL0     H26510   4.914  11.261  11.252 -2.4416 -0.7807 -0.4293
  917MOL0     H26511   4.923  11.287  11.430  0.7032 -0.2167  1.3702
  917MOL0     H26512   5.098  11.155  11.246  0.0842  0.1775 -0.7780
  917MOL0     H26513   5.134  11.232  11.406 -0.0211  0.4891  1.1384
  917MOL0     H26514   4.996  10.951  11.380 -1.9581 -0.0552  2.0355
  917MOL0     H26515   5.060  11.018  11.529 -2.0362 -0.1503 -0.1125
  917MOL0     H26516   5.291  11.023  11.431  0.2125 -0.6073  0.6416
  917MOL0     H26517   5.222  10.975  11.277 -0.9790  1.2316  0.8641
  917MOL0     H26518   5.155  10.758  11.367  0.5787 -0.7945 -1.1668
  917MOL0     H26519   5.328  10.768  11.402 -0.9922 -0.3570  1.2753
  917MOL0     H26520   5.219  10.668  11.599 -1.2747  0.8329  3.1012
  917MOL0     H26521   5.123  10.815  11.618 -0.7513  0.0186 -0.7618
  917MOL0     H26522   5.323  10.942  11.662  0.3286 -0.1849  0.7119
  917MOL0     H26523   5.436  10.810  11.609 -0.5042 -0.3075 -3.0767
  917MOL0     H26524   5.239  10.811  11.842  0.4622  1.0041  1.0161
  917MOL0     H26525   5.407  10.870  11.846  0.1215 -0.6015  0.7498
  917MOL0     H26526   4.706  11.342  11.362 -0.2257 -0.5835 -0.7702
  917MOL0     H26527   4.448  11.379  11.378 -0.1262  1.2565 -1.1816
  917MOL0     H26528   4.103  11.289  11.532  2.1657 -1.7088 -0.8561
  917MOL0     H26529   3.879  11.361  11.578 -0.1793  0.2768 -1.2827
  917MOL0     H26530   3.081  10.037  10.460 -1.1253  0.9743 -0.1491
  917MOL0     H26531   3.040   9.816  10.552  2.1207 -3.6384  2.4278
  917MOL0     H26532   3.237   9.546  10.862 -0.3475  1.1530  1.1506
  917MOL0     H26533   3.297   9.344  10.987 -0.0195 -0.2311 -2.1720
  917MOL0     H26534   3.304   9.149  11.076 -1.4092 -0.8316 -0.3816
  917MOL0     H26535   3.278   9.271  11.203 -2.3315  1.5738 -0.7060
  917MOL0     H26536   3.174   9.093  11.344 -1.8216  1.2155 -3.2368
  917MOL0     H26537   3.354   9.077  11.324 -0.0777  0.5269 -0.2140
  917MOL0     H26538   3.121   8.929  11.173  1.1064 -1.2707 -0.6890
  917MOL0     H26539   3.292   8.913  11.130 -0.2605  0.4929 -0.7929
  917MOL0     H26540   3.158   8.853  11.402  0.7879 -5.7599  3.1300
  917MOL0     H26541   3.335   8.831  11.365  1.0266 -0.5059 -2.3878
  917MOL0     H26542   3.098   8.511  11.169  2.0999 -0.7986 -2.0678
  917MOL0     H26543   2.880   9.279  11.065 -1.0921  0.1086 -2.1969
  917MOL0     H26544   2.711   9.492  10.961 -0.0711  0.9969 -0.8769
  917MOL0     H26545   2.759   9.487  10.787 -0.2697 -0.0648  0.1442
  917MOL0     H26546   2.719   9.341  10.883  1.8640 -1.2078  0.6614
  918MOL0     O26547  11.451   8.710   1.659 -0.9005  1.2064  0.8285
  918MOL0     C26548  11.368   8.782   1.614  0.0050  0.5836 -0.1233
  918MOL0     O26549  11.334   8.912   1.666 -0.3697  0.0768  0.9779
  918MOL0     C26550  11.434   8.971   1.733 -0.8943 -0.0574  0.1312
  918MOL0     C26551  11.450   8.967   1.871 -0.1502 -0.4027  0.1288
  918MOL0     C26552  11.543   9.061   1.936  0.3976 -0.4801 -0.0472
  918MOL0     C26553  11.624   9.152   1.862  0.1671  0.0531 -0.0599
  918MOL0     O26554  11.706   9.220   1.948  1.1052 -0.9043 -1.1167
  918MOL0     C26555  11.807   9.316   1.907 -0.0487 -0.0981 -0.6297
  918MOL0     C26556  11.818   9.436   2.002  0.2516 -0.1999 -0.0189
  918MOL0     C26557  11.822   9.412   2.150  0.2723 -0.2778 -0.7178
  918MOL0     C26558  11.956   9.364   2.202  0.9333  0.4167  0.2630
  918MOL0     C26559  11.950   9.329   2.354  0.6718 -0.0409  0.5241
  918MOL0     C26560  11.878   9.188   2.389  0.6691 -0.7133  0.2387
  918MOL0     C26561  11.871   9.168   2.533  0.4210  0.1701  0.2668
  918MOL0     C26562  11.804   9.034   2.573  0.1772  0.5328  1.4271
  918MOL0     N26563  11.823   9.010   2.713  0.0975 -0.6265 -0.8932
  918MOL0     C26564  11.800   9.108   2.816 -0.5992  0.1985  0.4298
  918MOL0     C26565  11.854   9.053   2.927  0.5689 -0.3185  0.1010
  918MOL0     C26566  11.860   9.103   3.068 -0.3264 -0.2682 -0.0928
  918MOL0     C26567  12.005   9.131   3.124 -0.2664 -0.5148 -0.0330
  918MOL0     C26568  12.053   9.266   3.075  0.0101 -0.3209  0.4754
  918MOL0     C26569  12.199   9.288   3.121  0.2505 -0.7683  0.2927
  918MOL0     O26570  12.240   9.415   3.079  0.3369 -0.6536 -0.1236
  918MOL0     C26571  12.298   9.501   3.169  0.1737 -0.2124  0.2842
  918MOL0     C26572  12.384   9.468   3.274 -0.1854 -0.6575  0.1752
  918MOL0     C26573  12.450   9.568   3.353 -0.0144  0.1599 -0.5761
  918MOL0     C26574  12.552   9.499   3.443  0.2335 -0.1380  0.1550
  918MOL0     C26575  12.427   9.699   3.329 -0.0391  0.2344 -0.0766
  918MOL0     C26576  12.487   9.809   3.413 -0.8372 -0.2316 -1.1444
  918MOL0     O26577  12.420   9.934   3.412 -0.5338 -0.5374  0.6034
  918MOL0     C26578  12.474  10.037   3.483  0.0044 -0.3619 -0.4238
  918MOL0     C26579  12.404  10.109   3.582  0.0171 -0.3672 -0.3904
  918MOL0     C26580  12.469  10.210   3.662 -0.1516 -0.6011  0.8445
  918MOL0     C26581  12.604  10.244   3.625 -0.5346  0.1301 -0.7454
  918MOL0     O26582  12.688  10.330   3.682  0.3361 -0.2449 -0.1076
  918MOL0     C26583  12.621  10.426   3.768  0.2008  1.1233  0.3576
  918MOL0     C26584  12.729  10.521   3.801  0.4054 -1.2643 -0.7056
  918MOL0     C26585  12.714  10.644   3.714 -0.3449 -0.0999 -0.1907
  918MOL0     C26586  12.842  10.725   3.685  0.5227 -0.1279  0.0931
  918MOL0     C26587  12.857  10.858   3.761  0.2272  0.3491  0.1054
  918MOL0     C26588  12.981  10.943   3.728  0.2477 -0.6542 -0.6830
  918MOL0     C26589  12.999  11.068   3.819 -1.0820 -0.6676 -0.3514
  918MOL0     C26590  12.879  11.156   3.803 -0.1202 -0.9985 -0.7168
  918MOL0    Cl26591  12.906  11.291   3.917  0.0799 -0.0651 -0.1097
  918MOL0     C26592  12.665  10.174   3.527 -0.2887  0.2571  1.0491
  918MOL0     C26593  12.594  10.087   3.441 -0.9269 -0.3654  0.5427
  918MOL0     O26594  12.598   9.786   3.461 -0.5166 -0.6634  0.0606
  918MOL0     C26595  12.339   9.733   3.223 -0.2117 -0.7003 -0.1640
  918MOL0     C26596  12.277   9.637   3.143  0.4282  0.3908  0.1343
  918MOL0     N26597  11.909   8.925   2.891 -0.3401  0.7086  0.2404
  918MOL0     N26598  11.893   8.906   2.768  0.7361  0.2907  0.2893
  918MOL0     C26599  11.603   9.156   1.725  0.6847  0.0175 -0.3763
  918MOL0     C26600  11.507   9.070   1.662  0.4918  0.1413  0.4795
  918MOL0     C26601  11.273   8.743   1.512  0.3250  0.0974  0.3615
  918MOL0     C26602  11.158   8.822   1.487  0.0274  0.2062  0.4175
  918MOL0     C26603  11.066   8.783   1.389 -0.6045 -0.0693 -0.7433
  918MOL0     C26604  11.071   8.659   1.319 -0.2063 -0.6848  0.3118
  918MOL0     O26605  10.972   8.634   1.218 -0.4130 -0.4536 -0.1674
  918MOL0     C26606  10.939   8.497   1.181  0.5406  0.1961  0.0987
  918MOL0     C26607  10.822   8.492   1.087  0.3553 -0.2533  0.1082
  918MOL0     C26608  10.859   8.544   0.953  0.8124 -0.3098 -1.0763
  918MOL0     C26609  10.734   8.536   0.864  0.2349 -0.7897  0.2741
  918MOL0     C26610  10.764   8.566   0.725  0.0406  0.2557  0.3031
  918MOL0     C26611  10.777   8.595   0.601 -0.3600  0.4006 -1.0527
  918MOL0     C26612  11.169   8.570   1.359 -0.1339  1.0595  0.4125
  918MOL0     C26613  11.275   8.610   1.447  0.8237 -0.5435 -0.3216
  918MOL0     C26614  11.390   8.508   1.461 -0.1640 -0.2198  0.0690
  918MOL0     H26615  11.393   8.899   1.933 -1.3822 -0.8236 -1.4123
  918MOL0     H26616  11.563   9.064   2.043 -0.3115 -0.0663  0.0759
  918MOL0     H26617  11.796   9.355   1.805 -0.2233 -1.5467 -1.1785
  918MOL0     H26618  11.896   9.253   1.918 -0.8568 -1.5103 -1.9016
  918MOL0     H26619  11.895   9.505   1.967 -0.4219  0.9456  0.6797
  918MOL0     H26620  11.726   9.491   1.980  1.8505  2.4575 -0.4065
  918MOL0     H26621  11.799   9.506   2.201 -1.5476 -0.6612 -0.7624
  918MOL0     H26622  11.744   9.343   2.181  1.7476 -0.8291  2.0850
  918MOL0     H26623  11.981   9.277   2.140 -1.3505  1.0596 -1.7168
  918MOL0     H26624  12.030   9.441   2.184 -2.0517  2.6851 -3.9935
  918MOL0     H26625  11.904   9.420   2.394  0.5567  0.3176 -0.3868
  918MOL0     H26626  12.053   9.331   2.390  2.1570  0.4351 -3.2345
  918MOL0     H26627  11.778   9.191   2.346  1.6019 -0.7227 -2.0851
  918MOL0     H26628  11.939   9.107   2.347  2.7898  0.7004  0.3959
  918MOL0     H26629  11.818   9.256   2.571 -5.8057 -2.1179 -1.8527
  918MOL0     H26630  11.975   9.177   2.567  0.5489  1.5453 -0.4451
  918MOL0     H26631  11.696   9.040   2.555  0.6392  1.8937 -1.4591
  918MOL0     H26632  11.848   8.951   2.517  1.9678  1.7718  0.9055
  918MOL0     H26633  11.751   9.205   2.810  0.0227  0.4397 -1.5996
  918MOL0     H26634  11.810   9.028   3.130 -1.5290  0.4045 -0.2143
  918MOL0     H26635  11.808   9.199   3.075 -1.0411 -0.6855  0.4544
  918MOL0     H26636  11.990   9.143   3.231  0.1953 -1.7623  0.1878
  918MOL0     H26637  12.073   9.047   3.103 -0.5115 -0.3780 -1.4741
  918MOL0     H26638  12.065   9.271   2.967  2.8640  0.6539  0.7513
  918MOL0     H26639  11.984   9.345   3.107 -0.9612 -1.8874  2.5018
  918MOL0     H26640  12.203   9.272   3.229  1.3923 -0.9123  0.2406
  918MOL0     H26641  12.265   9.214   3.075  2.0510  1.7302 -1.4218
  918MOL0     H26642  12.395   9.364   3.301  0.6752 -0.5923  0.1055
  918MOL0     H26643  12.655   9.520   3.413  0.5665  0.3748  1.5766
  918MOL0     H26644  12.540   9.391   3.445  0.6242 -0.2896 -2.5901
  918MOL0     H26645  12.537   9.530   3.547  1.9050  1.7075 -0.0912
  918MOL0     H26646  12.309  10.080   3.626  1.3660 -1.7612  1.7066
  918MOL0     H26647  12.420  10.262   3.743  1.8090  1.8499  0.5737
  918MOL0     H26648  12.537  10.482   3.728  1.6927  1.8713 -1.8932
  918MOL0     H26649  12.579  10.378   3.858  1.2761 -0.5643  0.0196
  918MOL0     H26650  12.731  10.557   3.904  0.6848 -1.9027 -0.4870
  918MOL0     H26651  12.823  10.469   3.784  0.5858 -1.3009  0.3607
  918MOL0     H26652  12.623  10.700   3.733  0.4846  0.7402  1.4743
  918MOL0     H26653  12.697  10.591   3.619  2.7797  0.8970 -1.4550
  918MOL0     H26654  12.830  10.762   3.582  0.4403  0.6188  0.3632
  918MOL0     H26655  12.933  10.664   3.688 -0.3821 -1.4754  1.5349
  918MOL0     H26656  12.764  10.915   3.745 -0.0829 -0.6829 -2.2595
  918MOL0     H26657  12.854  10.836   3.868 -1.2507 -0.6986 -0.1178
  918MOL0     H26658  12.964  10.976   3.625 -1.0205  1.1841  0.0538
  918MOL0     H26659  13.063  10.871   3.738 -1.3763 -2.9060 -2.4946
  918MOL0     H26660  13.093  11.122   3.804 -0.7624 -0.4678  1.9616
  918MOL0     H26661  12.998  11.015   3.914  1.6267 -4.2196 -2.0769
  918MOL0     H26662  12.781  11.108   3.803 -0.3216 -0.8060  2.5665
  918MOL0     H26663  12.878  11.198   3.702 -1.0974 -0.5697 -0.5408
  918MOL0     H26664  12.766  10.192   3.492 -0.1068 -1.5319  0.5199
  918MOL0     H26665  12.646  10.047   3.354  0.2301 -0.4980  1.2618
  918MOL0     H26666  12.323   9.839   3.201 -1.3518 -0.4527  1.6725
  918MOL0     H26667  12.212   9.669   3.062 -1.4426 -1.5091  0.7954
  918MOL0     H26668  11.637   9.236   1.661 -1.1506  1.2811  0.1515
  918MOL0     H26669  11.482   9.077   1.556  2.0698 -0.8031  0.0075
  918MOL0     H26670  11.129   8.910   1.544 -1.8931 -0.8541  1.1668
  918MOL0     H26671  10.978   8.846   1.375 -2.3136 -2.3122 -0.6820
  918MOL0     H26672  11.017   8.443   1.126 -0.0287 -1.4897  0.8624
  918MOL0     H26673  10.911   8.443   1.272  0.3536 -0.6898 -0.4650
  918MOL0     H26674  10.742   8.558   1.120 -1.5131 -1.1167 -2.3756
  918MOL0     H26675  10.783   8.390   1.086  2.0562 -1.0503  2.9523
  918MOL0     H26676  10.889   8.649   0.957  1.4540 -0.4560 -1.7129
  918MOL0     H26677  10.944   8.486   0.915  1.0398 -2.1221  1.9018
  918MOL0     H26678  10.657   8.604   0.901 -0.2179 -2.1676  1.9726
  918MOL0     H26679  10.683   8.439   0.871 -1.9253  0.3586  1.4125
  918MOL0     H26680  10.801   8.609   0.498  0.8424 -1.1282 -1.0089
  918MOL0     H26681  11.173   8.474   1.307  1.1721  0.2980  1.8352
  918MOL0     H26682  11.348   8.415   1.422  0.8111 -1.3653  1.6086
  918MOL0     H26683  11.482   8.532   1.407  0.0935  0.1541  0.6544
  918MOL0     H26684  11.410   8.490   1.567  2.4598  0.8449 -0.1618
  919MOL0     O26685  10.027  10.767  10.412  0.8487  1.2405 -0.3735
  919MOL0     C26686   9.951  10.858  10.433 -0.3285  0.2526  0.3776
  919MOL0     O26687   9.868  10.920  10.346 -0.1681 -0.3286  0.1592
  919MOL0     C26688   9.855  10.865  10.219  0.4602 -0.7937  0.8832
  919MOL0     C26689   9.954  10.822  10.133 -0.0049  0.2008 -0.2984
  919MOL0     C26690   9.912  10.778  10.002  1.3571  0.3799 -0.5979
  919MOL0     C26691   9.780  10.790   9.953  0.5025  0.0375 -0.8137
  919MOL0     O26692   9.741  10.733   9.836  0.2997 -0.1689  0.5711
  919MOL0     C26693   9.823  10.629   9.788  0.2260 -0.1780  0.5770
  919MOL0     C26694   9.723  10.547   9.692 -0.0852  0.1692 -0.3184
  919MOL0     C26695   9.798  10.443   9.623 -1.3602  0.5056  0.4014
  919MOL0     C26696   9.699  10.374   9.523 -0.0215  0.1804  0.4172
  919MOL0     C26697   9.758  10.265   9.431 -0.1773  0.1330  0.5140
  919MOL0     C26698   9.850  10.331   9.322  0.2762  0.0706 -0.8094
  919MOL0     C26699   9.878  10.236   9.214  0.7310 -0.0676  0.7073
  919MOL0     C26700   9.956  10.280   9.092 -0.2480  0.3601  0.8072
  919MOL0     N26701   9.872  10.368   9.009 -0.6172 -0.4698  0.9689
  919MOL0     C26702   9.769  10.346   8.918  0.7706 -0.3962  0.1002
  919MOL0     C26703   9.726  10.469   8.881  0.6615  0.5937 -0.8446
  919MOL0     C26704   9.614  10.493   8.789  0.7787 -0.4882  0.9315
  919MOL0     C26705   9.484  10.435   8.837  1.2941  0.2540 -0.8269
  919MOL0     C26706   9.371  10.443   8.723 -1.1566  0.0671 -0.4799
  919MOL0     C26707   9.329  10.584   8.678 -0.5010  0.5518  0.6530
  919MOL0     O26708   9.443  10.644   8.612  0.5989  0.8801  0.0738
  919MOL0     C26709   9.485  10.616   8.481  0.0681 -0.7122  0.6446
  919MOL0     C26710   9.408  10.575   8.371  0.0633 -0.7710 -1.4726
  919MOL0     C26711   9.462  10.562   8.249  0.1560  0.0927  0.4454
  919MOL0     C26712   9.379  10.472   8.158  0.5966 -0.3151  0.0750
  919MOL0     C26713   9.601  10.586   8.220 -0.1837 -0.1194  0.1709
  919MOL0     C26714   9.637  10.602   8.067 -0.5575 -0.7287 -0.4401
  919MOL0     O26715   9.539  10.608   7.973 -0.1602 -0.0507 -0.3263
  919MOL0     C26716   9.578  10.610   7.845 -0.3932 -0.0640  0.4175
  919MOL0     C26717   9.566  10.499   7.774 -0.4095  0.0194  0.0345
  919MOL0     C26718   9.611  10.487   7.645  0.7305  0.1214 -0.2390
  919MOL0     C26719   9.642  10.605   7.573 -0.4940  0.0466  0.2324
  919MOL0     O26720   9.675  10.616   7.437  0.4670  0.3319 -0.3611
  919MOL0     C26721   9.727  10.496   7.389 -0.8951 -0.8284  0.5443
  919MOL0     C26722   9.815  10.519   7.272  0.2852  0.7200  0.1372
  919MOL0     C26723   9.757  10.610   7.160  0.0827  0.3381 -0.8685
  919MOL0     C26724   9.663  10.528   7.069 -0.1844  0.0675  0.1119
  919MOL0     C26725   9.617  10.609   6.943  0.3140  0.0631  1.0762
  919MOL0     C26726   9.520  10.538   6.849 -0.2120 -0.3081 -0.3226
  919MOL0     C26727   9.477  10.624   6.730  0.8554  0.1487  0.5383
  919MOL0     C26728   9.377  10.549   6.637 -0.3227  1.2403 -0.3880
  919MOL0    Cl26729   9.454  10.404   6.557 -0.5444 -0.3255  0.5009
  919MOL0     C26730   9.654  10.725   7.646  0.8187  0.4629  0.5804
  919MOL0     C26731   9.616  10.731   7.780  0.0756  0.3267  0.1667
  919MOL0     O26732   9.752  10.589   8.040 -0.0685 -0.9634 -0.4589
  919MOL0     C26733   9.678  10.633   8.321  0.2455 -0.3623 -0.8403
  919MOL0     C26734   9.621  10.647   8.453  0.1078 -0.2111  0.8478
  919MOL0     N26735   9.798  10.565   8.947  0.1865  0.5825  1.0046
  919MOL0     N26736   9.895  10.500   9.024 -0.5506 -0.3306  0.5167
  919MOL0     C26737   9.682  10.850  10.031 -0.2598  0.1777  0.5486
  919MOL0     C26738   9.723  10.878  10.160 -0.7369 -0.1805  0.2408
  919MOL0     C26739   9.942  10.913  10.571  0.2346  1.1824 -0.2430
  919MOL0     C26740   9.810  10.917  10.630 -0.0614 -0.1402 -0.0219
  919MOL0     C26741   9.787  10.948  10.761 -0.9512  0.3162 -0.5363
  919MOL0     C26742   9.896  10.963  10.849  1.0834  0.2808  0.7503
  919MOL0     O26743   9.887  10.995  10.983  0.0929 -0.4226 -0.1278
  919MOL0     C26744   9.766  11.036  11.037  0.0540 -0.5018 -0.5645
  919MOL0     C26745   9.792  11.093  11.180 -0.6452 -0.2289 -0.5169
  919MOL0     C26746   9.868  11.239  11.175 -0.3105 -0.5880 -0.7764
  919MOL0     C26747   9.927  11.261  11.322 -0.2783  0.2189  0.1852
  919MOL0     C26748   9.836  11.357  11.381 -0.6071  0.6295  1.1704
  919MOL0     C26749   9.757  11.435  11.421  0.5474 -0.3831 -0.2531
  919MOL0     C26750  10.023  10.953  10.796  0.3117 -0.8360  0.0575
  919MOL0     C26751  10.054  10.938  10.657  1.0399 -0.1092  0.0321
  919MOL0     C26752  10.199  10.945  10.613 -0.5842  0.4832 -0.2493
  919MOL0     H26753  10.056  10.798  10.160 -1.1537 -1.8003  2.8226
  919MOL0     H26754   9.986  10.733   9.938 -2.2882 -1.6247 -3.8367
  919MOL0     H26755   9.856  10.569   9.873  0.4299  0.8282  1.2330
  919MOL0     H26756   9.911  10.656   9.729  1.2831  0.5605  2.3777
  919MOL0     H26757   9.651  10.505   9.761  2.0246 -0.2241  1.7716
  919MOL0     H26758   9.681  10.618   9.620  2.2824  0.7644 -1.2201
  919MOL0     H26759   9.885  10.483   9.570 -1.2726  0.2382  0.3414
  919MOL0     H26760   9.836  10.362   9.687 -0.4410  0.2898 -0.3786
  919MOL0     H26761   9.616  10.324   9.574 -2.1776  0.2802 -2.7024
  919MOL0     H26762   9.641  10.442   9.460 -4.6245 -4.1778 -0.6990
  919MOL0     H26763   9.673  10.217   9.380  0.5652  1.9389 -2.7603
  919MOL0     H26764   9.812  10.195   9.494 -1.9621 -1.6630  0.1590
  919MOL0     H26765   9.787  10.413   9.287 -0.6346  1.0328  2.6496
  919MOL0     H26766   9.946  10.365   9.363  0.6239 -1.4590 -0.2930
  919MOL0     H26767   9.791  10.184   9.175  0.8712  0.1516  0.0999
  919MOL0     H26768   9.944  10.158   9.254  3.3026  1.0110 -1.1267
  919MOL0     H26769  10.052  10.327   9.114  0.0575 -0.5409  1.4187
  919MOL0     H26770   9.977  10.195   9.027  0.3629  0.9679  0.1916
  919MOL0     H26771   9.719  10.252   8.893 -0.9208  0.6474 -0.5950
  919MOL0     H26772   9.644  10.451   8.693  0.4199  1.2851 -0.0044
  919MOL0     H26773   9.596  10.600   8.775  0.9945 -0.7034 -1.5083
  919MOL0     H26774   9.497  10.330   8.864  0.0264 -0.3572 -2.4348
  919MOL0     H26775   9.447  10.483   8.929 -1.1126 -2.3133 -0.3144
  919MOL0     H26776   9.400  10.381   8.638 -0.6970 -0.1127 -0.1988
  919MOL0     H26777   9.280  10.401   8.767 -0.9141 -0.3426 -0.3604
  919MOL0     H26778   9.239  10.563   8.618  0.1593 -0.0654 -0.1563
  919MOL0     H26779   9.296  10.651   8.758  0.7964  3.1272 -0.8379
  919MOL0     H26780   9.304  10.552   8.395  0.3571 -1.1605 -0.4901
  919MOL0     H26781   9.291  10.433   8.211 -0.6435 -0.8803 -2.2717
  919MOL0     H26782   9.437  10.383   8.134  0.6525 -0.2427 -0.0588
  919MOL0     H26783   9.334  10.530   8.077  0.6144 -1.3442 -0.6991
  919MOL0     H26784   9.537  10.407   7.823  1.0758 -0.8549 -0.6346
  919MOL0     H26785   9.605  10.382   7.619  0.2773  0.2121 -0.5116
  919MOL0     H26786   9.794  10.449   7.462 -0.3587  1.8301  1.8809
  919MOL0     H26787   9.647  10.424   7.366 -1.1126  0.0228 -1.6494
  919MOL0     H26788   9.910  10.559   7.307  0.4731 -0.9037  1.6411
  919MOL0     H26789   9.834  10.421   7.226 -0.8725 -0.7700  2.5846
  919MOL0     H26790   9.837  10.647   7.094  1.3067 -1.1018 -0.2673
  919MOL0     H26791   9.696  10.689   7.204 -1.7039 -0.0342 -2.5283
  919MOL0     H26792   9.575  10.503   7.128 -0.9478  3.0061  0.3853
  919MOL0     H26793   9.721  10.441   7.038  1.6429 -0.2026  3.7704
  919MOL0     H26794   9.574  10.705   6.974  1.2247  0.0610  2.4447
  919MOL0     H26795   9.710  10.627   6.888 -0.5640 -0.0231 -0.4954
  919MOL0     H26796   9.437  10.520   6.918 -0.7759  2.2245 -0.2432
  919MOL0     H26797   9.559  10.441   6.815  1.9886  0.5652 -0.3957
  919MOL0     H26798   9.565  10.646   6.670  0.1844 -1.4791 -1.1516
  919MOL0     H26799   9.421  10.711   6.766  0.6872  0.7638 -1.1248
  919MOL0     H26800   9.354  10.623   6.560  0.7831  0.6950 -1.2644
  919MOL0     H26801   9.283  10.529   6.690  0.5695 -1.1418  0.4309
  919MOL0     H26802   9.690  10.816   7.600 -2.0912  0.2366 -2.5087
  919MOL0     H26803   9.617  10.826   7.834  0.2707  1.0342 -1.0434
  919MOL0     H26804   9.780  10.660   8.294  0.2118 -0.8626 -1.4809
  919MOL0     H26805   9.684  10.677   8.535  3.3249  1.9641 -2.1426
  919MOL0     H26806   9.578  10.871  10.011 -0.0056  1.7701  0.7332
  919MOL0     H26807   9.644  10.918  10.223 -2.8607 -2.3960 -0.8248
  919MOL0     H26808   9.716  10.911  10.577 -1.1645  1.8990  1.5425
  919MOL0     H26809   9.687  10.942  10.804 -0.0656 -1.0636  1.5131
  919MOL0     H26810   9.714  11.107  10.973 -0.3970 -0.4013 -0.0951
  919MOL0     H26811   9.700  10.949  11.043 -1.3005  0.5369  0.0331
  919MOL0     H26812   9.841  11.017  11.240 -2.9839  2.4558  5.6066
  919MOL0     H26813   9.699  11.104  11.236  1.1053  2.7882  2.1705
  919MOL0     H26814   9.947  11.249  11.099  1.8775 -0.5522  1.3800
  919MOL0     H26815   9.786  11.308  11.152  1.1446  1.9948  1.1998
  919MOL0     H26816  10.026  11.308  11.327  1.0067 -2.4492  2.4226
  919MOL0     H26817   9.934  11.177  11.391 -3.0880  1.4108  2.1185
  919MOL0     H26818   9.688  11.513  11.447  0.5531 -0.8527  1.2454
  919MOL0     H26819  10.101  10.961  10.871 -2.5293  0.6916  3.0680
  919MOL0     H26820  10.273  10.946  10.694  1.5812 -0.1057 -2.1157
  919MOL0     H26821  10.226  10.865  10.543  2.5068  1.5964 -0.5000
  919MOL0     H26822  10.212  11.038  10.557  0.4911  2.5083  3.0729
  920MOL0     O26823   8.354   4.232  10.662 -0.2569  0.1257  0.3212
  920MOL0     C26824   8.431   4.271  10.745 -0.3158  0.1409  0.9748
  920MOL0     O26825   8.453   4.214  10.866 -0.6259 -0.5599  0.1391
  920MOL0     C26826   8.386   4.095  10.887  0.9416  1.5227 -0.6529
  920MOL0     C26827   8.457   3.968  10.883  0.0131 -0.8833 -0.1385
  920MOL0     C26828   8.394   3.850  10.928 -0.3133 -0.9351 -0.5761
  920MOL0     C26829   8.265   3.850  10.982  0.3295 -0.3444 -0.7000
  920MOL0     O26830   8.210   3.728  11.030 -0.7948 -0.4595  0.4108
  920MOL0     C26831   8.084   3.725  11.095  0.3093 -0.3317 -0.5272
  920MOL0     C26832   8.055   3.575  11.137  0.9443 -0.7058 -0.4885
  920MOL0     C26833   7.903   3.533  11.146 -0.9858  0.1391 -0.2378
  920MOL0     C26834   7.876   3.391  11.202  0.5400  0.0136  0.8020
  920MOL0     C26835   7.730   3.354  11.182  0.5818 -0.1604  0.3178
  920MOL0     C26836   7.641   3.427  11.270  0.3781  1.3322 -0.1103
  920MOL0     C26837   7.513   3.349  11.297 -0.2203  0.6146 -0.0953
  920MOL0     C26838   7.424   3.324  11.167  0.1004 -0.5902 -0.7452
  920MOL0     N26839   7.452   3.197  11.101  0.3111  0.5581  0.0937
  920MOL0     C26840   7.400   3.076  11.146  0.0814  0.0140 -0.2320
  920MOL0     C26841   7.417   2.992  11.041 -0.0727  0.7855 -0.1127
  920MOL0     C26842   7.357   2.856  11.044  0.5639  0.6619  0.6035
  920MOL0     C26843   7.460   2.762  11.100 -0.1343  0.3396  0.7582
  920MOL0     C26844   7.404   2.620  11.115 -0.3114  0.6337  0.2364
  920MOL0     C26845   7.408   2.544  10.984  0.3625  0.1151  1.0480
  920MOL0     O26846   7.542   2.518  10.933  0.3810  0.2153 -0.0885
  920MOL0     C26847   7.608   2.598  10.842 -0.9123 -0.1740 -0.9250
  920MOL0     C26848   7.541   2.654  10.733 -0.2516  0.5069  0.1525
  920MOL0     C26849   7.615   2.714  10.632 -0.1948 -0.5746 -0.9552
  920MOL0     C26850   7.541   2.753  10.502  0.0641  0.0853 -0.3674
  920MOL0     C26851   7.762   2.718  10.647  0.8880  1.0497  0.2100
  920MOL0     C26852   7.858   2.770  10.544  0.3449  0.0876 -0.4460
  920MOL0     O26853   7.992   2.797  10.582 -0.1875 -0.8094 -0.6059
  920MOL0     C26854   8.065   2.860  10.485 -0.1076  0.1006  0.2689
  920MOL0     C26855   8.118   2.795  10.378  0.3391 -0.2433  0.3439
  920MOL0     C26856   8.192   2.869  10.284  0.2534 -0.8638 -0.0558
  920MOL0     C26857   8.202   3.004  10.289  0.3613 -0.1812  0.3442
  920MOL0     O26858   8.252   3.072  10.176  0.2854 -0.4117 -0.7179
  920MOL0     C26859   8.233   3.218  10.162 -0.1083 -0.3572 -0.0207
  920MOL0     C26860   8.325   3.270  10.053  0.4621 -0.1665  0.7333
  920MOL0     C26861   8.307   3.420  10.011 -0.1299  0.1372 -0.3601
  920MOL0     C26862   8.417   3.490   9.930  0.2614  0.2012  0.4502
  920MOL0     C26863   8.389   3.644   9.928  0.3209  0.3135 -0.2060
  920MOL0     C26864   8.517   3.730   9.895  0.3376 -0.2224 -0.0878
  920MOL0     C26865   8.533   3.728   9.744 -0.1182  0.2805  0.9898
  920MOL0     C26866   8.655   3.810   9.711  0.1920  0.1292 -0.4010
  920MOL0    Cl26867   8.638   3.988   9.749 -0.2241  0.3168 -0.0754
  920MOL0     C26868   8.146   3.067  10.398 -0.4744 -0.0685 -0.6824
  920MOL0     C26869   8.094   2.991  10.502  0.3244 -0.0039 -0.2720
  920MOL0     O26870   7.812   2.762  10.429 -0.8045  0.7797  0.4572
  920MOL0     C26871   7.827   2.649  10.757  0.5990 -0.9977  0.6965
  920MOL0     C26872   7.747   2.591  10.852 -0.1483 -0.5056  0.4600
  920MOL0     N26873   7.473   3.054  10.937  0.0724  0.2589  0.3724
  920MOL0     N26874   7.491   3.177  10.968  0.0637 -0.7366  0.2789
  920MOL0     C26875   8.192   3.974  10.985  0.2023  0.8068 -0.7041
  920MOL0     C26876   8.257   4.092  10.945 -0.2348  0.4213 -0.3909
  920MOL0     C26877   8.512   4.385  10.715  1.2610 -0.4513 -0.2704
  920MOL0     C26878   8.637   4.415  10.775 -0.2713 -0.0354  0.8580
  920MOL0     C26879   8.703   4.531  10.741  0.3429 -0.4163  0.5276
  920MOL0     C26880   8.656   4.631  10.649  0.7763 -0.7852  0.3338
  920MOL0     O26881   8.742   4.737  10.630  0.6434 -0.2080 -0.4810
  920MOL0     C26882   8.722   4.835  10.524 -0.0399  0.3130  0.0952
  920MOL0     C26883   8.629   4.948  10.563  0.4932  0.4051 -0.3536
  920MOL0     C26884   8.700   5.041  10.663  0.6302 -0.5916  0.2392
  920MOL0     C26885   8.754   4.971  10.786  0.5300  0.6164 -0.8359
  920MOL0     C26886   8.756   5.070  10.893  0.5621  1.0658 -0.5004
  920MOL0     C26887   8.766   5.159  10.973  0.8451 -0.3851  0.3068
  920MOL0     C26888   8.535   4.601  10.594  0.0099  1.0159  0.3740
  920MOL0     C26889   8.463   4.480  10.618 -0.1650  0.3371 -0.6743
  920MOL0     C26890   8.333   4.470  10.543  0.6449 -0.6716 -0.7766
  920MOL0     H26891   8.559   3.966  10.845 -0.3148 -0.1324 -1.1188
  920MOL0     H26892   8.433   3.748  10.926 -1.7365 -1.5016 -1.9606
  920MOL0     H26893   8.009   3.770  11.029 -1.2544 -1.3346  0.5115
  920MOL0     H26894   8.077   3.779  11.190 -2.5315 -0.1164 -0.7642
  920MOL0     H26895   8.095   3.514  11.055  5.6252  0.0454  0.9136
  920MOL0     H26896   8.106   3.549  11.230 -0.4046  2.2745  1.2301
  920MOL0     H26897   7.861   3.605  11.217  0.4126  0.4292  0.3159
  920MOL0     H26898   7.857   3.542  11.047 -1.3152 -1.4388 -0.2575
  920MOL0     H26899   7.939   3.319  11.149  0.3645  1.1199 -0.9831
  920MOL0     H26900   7.906   3.372  11.306 -0.6286  0.4628  1.2355
  920MOL0     H26901   7.719   3.249  11.209 -0.7557 -0.5991 -1.6749
  920MOL0     H26902   7.697   3.359  11.077  3.9580  0.9976 -0.8164
  920MOL0     H26903   7.697   3.449  11.362  1.0763  2.1701 -0.7149
  920MOL0     H26904   7.613   3.524  11.227 -2.0488  2.0590  2.8104
  920MOL0     H26905   7.456   3.393  11.379  0.5817 -0.5389  1.1360
  920MOL0     H26906   7.549   3.259  11.348  3.6400  1.8261 -0.3506
  920MOL0     H26907   7.319   3.341  11.193  0.1008  3.0460 -2.3774
  920MOL0     H26908   7.443   3.409  11.100 -2.8333  1.6173  0.9569
  920MOL0     H26909   7.343   3.051  11.235 -0.2648 -0.4561 -0.5762
  920MOL0     H26910   7.320   2.826  10.945 -1.3202  0.2341  1.4065
  920MOL0     H26911   7.278   2.850  11.119 -0.8129 -0.8066 -0.8629
  920MOL0     H26912   7.557   2.765  11.051 -1.3530  2.0218 -1.7467
  920MOL0     H26913   7.491   2.805  11.196 -0.0438 -0.9646  1.3358
  920MOL0     H26914   7.452   2.562  11.194 -1.4633  2.1187  2.1185
  920MOL0     H26915   7.297   2.627  11.138  0.0398 -1.3444  2.9784
  920MOL0     H26916   7.360   2.449  11.006  0.1334  0.4419  2.0216
  920MOL0     H26917   7.361   2.617  10.917  4.4179  1.7435 -0.3955
  920MOL0     H26918   7.433   2.655  10.733 -0.3975 -2.8738  1.5571
  920MOL0     H26919   7.445   2.799  10.526 -1.3490 -2.2834 -1.0748
  920MOL0     H26920   7.525   2.672  10.430 -1.7840  0.9583 -1.0015
  920MOL0     H26921   7.597   2.830  10.448 -1.0089  2.1816  1.3601
  920MOL0     H26922   8.094   2.691  10.356  0.0174 -0.7137  2.7167
  920MOL0     H26923   8.233   2.825  10.193 -0.2943  1.3094 -1.4452
  920MOL0     H26924   8.132   3.246  10.129  0.0463 -2.1438 -2.2362
  920MOL0     H26925   8.267   3.258  10.258 -1.9272  0.5169  0.3194
  920MOL0     H26926   8.424   3.245  10.092  0.1018 -1.8891  0.6649
  920MOL0     H26927   8.305   3.210   9.964 -2.7570  2.2638 -0.3977
  920MOL0     H26928   8.304   3.462  10.112  0.4768 -2.2531  0.7272
  920MOL0     H26929   8.211   3.434   9.960 -0.5125 -2.6611 -0.6137
  920MOL0     H26930   8.406   3.464   9.825  1.6803  2.0774 -0.2327
  920MOL0     H26931   8.514   3.476   9.980  1.1424  0.8202 -1.0248
  920MOL0     H26932   8.299   3.667   9.871 -2.1134  1.6202  3.8166
  920MOL0     H26933   8.349   3.665  10.027 -3.5000  0.8248 -1.6965
  920MOL0     H26934   8.607   3.680   9.930 -0.3414 -2.7302 -1.6201
  920MOL0     H26935   8.496   3.828   9.940  0.7914 -0.8712  1.6068
  920MOL0     H26936   8.449   3.772   9.689  2.4286 -0.2697 -3.8540
  920MOL0     H26937   8.541   3.623   9.714 -0.5232  0.2684  0.9171
  920MOL0     H26938   8.660   3.802   9.602 -1.2513  2.8978 -0.7661
  920MOL0     H26939   8.743   3.777   9.767 -0.1848  1.3493  0.9576
  920MOL0     H26940   8.149   3.175  10.401 -1.8016 -0.0324  0.2617
  920MOL0     H26941   8.082   3.032  10.601  2.0025 -0.1907  0.0446
  920MOL0     H26942   7.932   2.654  10.785  0.8820 -1.3486 -0.2338
  920MOL0     H26943   7.799   2.538  10.930  1.5925  1.5139  0.7659
  920MOL0     H26944   8.107   3.982  11.052 -1.3785 -0.8573 -2.4108
  920MOL0     H26945   8.207   4.187  10.967  0.1828  0.5542  0.0132
  920MOL0     H26946   8.676   4.340  10.843 -0.7356 -0.1702  0.9798
  920MOL0     H26947   8.802   4.537  10.786  0.2482 -1.0424  0.8280
  920MOL0     H26948   8.820   4.866  10.486 -0.3308  1.4368  0.2464
  920MOL0     H26949   8.688   4.772  10.441 -1.0837 -2.2717  2.3454
  920MOL0     H26950   8.529   4.915  10.591  0.1507  0.0366 -1.9067
  920MOL0     H26951   8.609   5.018  10.482 -1.8960  0.8357  0.5313
  920MOL0     H26952   8.778   5.088  10.601 -1.2410  1.8345 -0.4130
  920MOL0     H26953   8.627   5.122  10.675 -0.6505 -1.4184 -1.4711
  920MOL0     H26954   8.855   4.932  10.769  0.1569 -1.3200  0.9714
  920MOL0     H26955   8.684   4.890  10.807  1.5425 -0.0057  0.2900
  920MOL0     H26956   8.805   5.227  11.047  1.3209 -1.0952  0.7245
  920MOL0     H26957   8.502   4.666  10.514  3.5666  0.5416 -1.7300
  920MOL0     H26958   8.245   4.446  10.603  0.3824 -2.0069 -1.6526
  920MOL0     H26959   8.312   4.567  10.496 -0.1070  0.1236  1.0917
  920MOL0     H26960   8.346   4.393  10.467 -0.8071 -0.3311 -1.3990
  921MOL0     O26961   1.941   8.428   6.280  0.6424 -0.3688 -0.6645
  921MOL0     C26962   1.901   8.413   6.402 -1.1341 -0.0672  0.4215
  921MOL0     O26963   1.782   8.462   6.453 -0.2601 -0.9037  0.6539
  921MOL0     C26964   1.690   8.513   6.353 -0.4780  0.1280 -0.0471
  921MOL0     C26965   1.606   8.434   6.267 -0.7952 -0.0246 -0.5905
  921MOL0     C26966   1.544   8.495   6.166 -0.5989 -0.0827 -0.0243
  921MOL0     C26967   1.561   8.627   6.136  0.9772 -0.0044  0.9391
  921MOL0     O26968   1.493   8.662   6.021 -0.3558  0.5567 -0.0051
  921MOL0     C26969   1.528   8.790   5.977  0.4496 -0.5983 -0.1120
  921MOL0     C26970   1.505   8.798   5.830 -0.1966 -0.0880  0.4454
  921MOL0     C26971   1.529   8.938   5.776 -0.2974  0.9063 -0.1935
  921MOL0     C26972   1.497   8.945   5.624 -0.3560 -0.0202 -1.3801
  921MOL0     C26973   1.502   9.099   5.583 -0.5175  0.5423 -0.4068
  921MOL0     C26974   1.467   9.129   5.442  0.9922 -0.2456 -0.0010
  921MOL0     C26975   1.480   9.276   5.404 -0.4684 -0.5576  1.9902
  921MOL0     C26976   1.624   9.320   5.371  0.8742  0.2078  0.2588
  921MOL0     N26977   1.641   9.461   5.336 -0.3628  1.0801 -0.0872
  921MOL0     C26978   1.588   9.499   5.216  0.6264 -0.2676  0.0001
  921MOL0     C26979   1.624   9.635   5.220  0.0750 -0.2781  0.5947
  921MOL0     C26980   1.576   9.736   5.126  0.6103 -0.5766 -0.0247
  921MOL0     C26981   1.669   9.798   5.020 -0.7187 -0.1245 -0.1264
  921MOL0     C26982   1.721   9.700   4.923 -0.2403  0.0020  0.4000
  921MOL0     C26983   1.831   9.752   4.834 -0.2541 -0.9750 -0.0203
  921MOL0     O26984   1.949   9.817   4.905  0.0620 -0.3635  0.9836
  921MOL0     C26985   2.016   9.923   4.847  0.2574  0.1663  0.0698
  921MOL0     C26986   2.108   9.991   4.921 -0.0612 -0.0188  0.6533
  921MOL0     C26987   2.173  10.113   4.866  0.1313 -0.5270  0.6598
  921MOL0     C26988   2.272  10.181   4.948 -0.7015 -0.7148  0.1808
  921MOL0     C26989   2.154  10.144   4.727 -0.5595  0.7928 -0.4381
  921MOL0     C26990   2.208  10.266   4.651  0.3856 -0.2364  0.2305
  921MOL0     O26991   2.234  10.232   4.519 -0.0870  0.3239 -0.3565
  921MOL0     C26992   2.275  10.326   4.430  0.5362  1.3969 -0.0945
  921MOL0     C26993   2.178  10.371   4.336 -0.4498  0.0978  0.2031
  921MOL0     C26994   2.226  10.452   4.222 -0.3485  0.8902  0.7651
  921MOL0     C26995   2.363  10.499   4.214 -0.7935 -0.6047  0.7888
  921MOL0     O26996   2.419  10.584   4.114  0.5940 -0.4349  0.2288
  921MOL0     C26997   2.334  10.683   4.051  0.0827  0.0650 -0.8374
  921MOL0     C26998   2.280  10.635   3.911 -0.6304  0.8248  0.4761
  921MOL0     C26999   2.388  10.629   3.806 -0.7831 -0.1816  0.3001
  921MOL0     C27000   2.351  10.535   3.701 -0.7193  0.9088  0.3441
  921MOL0     C27001   2.437  10.530   3.577 -0.5301 -0.4406 -0.4927
  921MOL0     C27002   2.572  10.481   3.613 -0.1611  0.7663 -0.2924
  921MOL0     C27003   2.672  10.459   3.491 -0.1546 -0.1748 -0.2197
  921MOL0     C27004   2.805  10.387   3.534  0.8309 -0.6216 -0.7722
  921MOL0    Cl27005   2.913  10.410   3.396  0.1436  0.1584 -0.2455
  921MOL0     C27006   2.456  10.448   4.310  0.1336  0.7172 -0.2961
  921MOL0     C27007   2.408  10.364   4.410 -0.1705 -0.5863  0.0516
  921MOL0     O27008   2.238  10.371   4.703  0.1712 -0.0542  0.1401
  921MOL0     C27009   2.071  10.064   4.655  0.2975  0.9179  0.0187
  921MOL0     C27010   1.998   9.950   4.707  0.1867 -1.0235  0.5635
  921MOL0     N27011   1.712   9.664   5.320 -0.2720  0.3493  0.1034
  921MOL0     N27012   1.720   9.554   5.393 -0.4231  0.4543  0.1703
  921MOL0     C27013   1.631   8.707   6.221 -0.1262 -0.8394  0.1890
  921MOL0     C27014   1.703   8.649   6.327 -0.0502  0.5796  0.1752
  921MOL0     C27015   1.995   8.339   6.491 -0.0433 -0.3390  0.4903
  921MOL0     C27016   2.091   8.253   6.433 -1.0692  0.5770 -1.0301
  921MOL0     C27017   2.211   8.213   6.508 -0.7586  0.9431 -0.7330
  921MOL0     C27018   2.223   8.241   6.642 -1.3453 -0.3521 -0.3561
  921MOL0     O27019   2.338   8.238   6.720  0.2302  0.0448  0.7181
  921MOL0     C27020   2.453   8.161   6.660  0.0286  0.0720 -0.4622
  921MOL0     C27021   2.557   8.259   6.588 -0.2195  0.2539 -0.3896
  921MOL0     C27022   2.640   8.351   6.693  0.3247  0.3668  0.4176
  921MOL0     C27023   2.770   8.296   6.744 -0.4488  0.7144  0.0194
  921MOL0     C27024   2.871   8.268   6.639 -0.4754 -0.3405 -0.4405
  921MOL0     C27025   2.943   8.232   6.553  0.6424 -0.4825  0.4127
  921MOL0     C27026   2.111   8.302   6.703 -0.2616  0.2549  0.6162
  921MOL0     C27027   1.997   8.345   6.630  0.1177 -0.3435 -0.2720
  921MOL0     C27028   1.896   8.432   6.712  0.1369 -0.2291  0.6680
  921MOL0     H27029   1.583   8.329   6.284 -1.6140  0.0576 -1.1457
  921MOL0     H27030   1.480   8.436   6.102 -0.3405 -1.3913  0.8709
  921MOL0     H27031   1.632   8.820   5.994 -0.2813  1.7749  0.5825
  921MOL0     H27032   1.470   8.871   6.023  1.3386  0.8191 -1.3759
  921MOL0     H27033   1.577   8.725   5.792 -0.7849 -0.2001 -0.4907
  921MOL0     H27034   1.401   8.779   5.802 -1.1520  4.4166  0.2344
  921MOL0     H27035   1.457   9.004   5.825  0.4870  0.1906  2.0345
  921MOL0     H27036   1.624   8.985   5.801 -0.4401 -0.2322  2.9559
  921MOL0     H27037   1.579   8.891   5.576  1.1999 -0.2364  1.2968
  921MOL0     H27038   1.398   8.901   5.605 -1.9893  1.8373  1.8903
  921MOL0     H27039   1.596   9.145   5.614  0.5501 -0.0304 -2.6204
  921MOL0     H27040   1.429   9.158   5.640 -0.8194 -0.3428  0.1385
  921MOL0     H27041   1.544   9.070   5.392  2.3393  0.3447  1.3211
  921MOL0     H27042   1.366   9.092   5.421  0.8048  1.3330 -2.2061
  921MOL0     H27043   1.437   9.345   5.477 -0.5005 -0.5648  1.9787
  921MOL0     H27044   1.423   9.302   5.314  0.3130  1.7316  2.0880
  921MOL0     H27045   1.696   9.293   5.450  2.2111  0.8644 -0.6877
  921MOL0     H27046   1.661   9.260   5.288  1.8160  1.1226 -0.0052
  921MOL0     H27047   1.521   9.443   5.151  0.9342 -0.9954  0.2912
  921MOL0     H27048   1.527   9.815   5.183  0.7775 -0.7436  0.3521
  921MOL0     H27049   1.500   9.680   5.070  3.4911 -1.4432 -3.4896
  921MOL0     H27050   1.611   9.867   4.958  2.1650  0.8096 -1.9768
  921MOL0     H27051   1.751   9.852   5.068 -0.3353 -0.9709  0.1944
  921MOL0     H27052   1.750   9.611   4.979 -3.0333  1.7608  5.2664
  921MOL0     H27053   1.635   9.687   4.857  1.5536 -2.5155 -1.6509
  921MOL0     H27054   1.872   9.674   4.769  0.9479 -0.8070  0.4953
  921MOL0     H27055   1.782   9.832   4.779 -2.0020 -0.6481  1.9095
  921MOL0     H27056   2.130   9.964   5.024  1.2701  0.0108  0.3911
  921MOL0     H27057   2.345  10.247   4.901 -0.8897  4.2167  5.7049
  921MOL0     H27058   2.336  10.106   4.996  0.7946 -0.8358 -1.8388
  921MOL0     H27059   2.215  10.247   5.013  0.1312  0.5493 -0.3344
  921MOL0     H27060   2.074  10.344   4.351  0.2019 -1.3198  2.7525
  921MOL0     H27061   2.148  10.471   4.149 -1.2742 -4.2608  0.0250
  921MOL0     H27062   2.248  10.699   4.116  0.5283 -1.2441  0.1100
  921MOL0     H27063   2.393  10.772   4.028  0.3775 -0.2003 -1.1246
  921MOL0     H27064   2.235  10.535   3.914  2.0293 -0.5133 -0.5522
  921MOL0     H27065   2.197  10.694   3.872 -0.6059  0.4239 -0.2008
  921MOL0     H27066   2.482  10.590   3.846 -0.9685  0.3655  1.3021
  921MOL0     H27067   2.415  10.728   3.768 -2.1270  0.3906  0.7578
  921MOL0     H27068   2.247  10.552   3.672 -1.1363 -0.9549  0.6203
  921MOL0     H27069   2.346  10.437   3.750 -1.8626  1.0549  0.5518
  921MOL0     H27070   2.385  10.467   3.504  1.4627 -0.8566 -1.6597
  921MOL0     H27071   2.451  10.634   3.547 -0.4722 -0.1139  0.6379
  921MOL0     H27072   2.552  10.380   3.649 -0.4994  1.8190  2.8238
  921MOL0     H27073   2.620  10.535   3.696 -1.1215  1.0500  0.0903
  921MOL0     H27074   2.688  10.559   3.451  1.1435  0.8203  2.5567
  921MOL0     H27075   2.615  10.399   3.419  1.0119  0.4488 -1.7124
  921MOL0     H27076   2.790  10.281   3.554 -1.1924 -0.0522  1.0889
  921MOL0     H27077   2.842  10.428   3.628 -0.7009  3.4106 -1.7246
  921MOL0     H27078   2.563  10.464   4.305 -0.1522  2.6540 -1.0275
  921MOL0     H27079   2.482  10.320   4.477 -0.1810 -1.4312 -0.4618
  921MOL0     H27080   2.058  10.075   4.548  1.1666  1.1060 -0.0722
  921MOL0     H27081   1.938   9.890   4.640 -0.6292  0.4529 -0.0636
  921MOL0     H27082   1.624   8.815   6.214 -3.0850 -0.9858 -0.2573
  921MOL0     H27083   1.770   8.721   6.375  0.8797 -0.1329 -0.0165
  921MOL0     H27084   2.105   8.238   6.326 -2.1910 -2.1258 -0.8567
  921MOL0     H27085   2.290   8.167   6.449 -0.9758 -3.6152  2.0122
  921MOL0     H27086   2.510   8.109   6.738 -1.0603  0.0376  0.3241
  921MOL0     H27087   2.411   8.089   6.590  1.2286  0.0822 -1.2340
  921MOL0     H27088   2.493   8.320   6.523 -1.9554 -0.2397  0.8077
  921MOL0     H27089   2.635   8.214   6.525  0.7014  3.7879 -2.0486
  921MOL0     H27090   2.674   8.450   6.659  0.9204 -0.2094 -0.7043
  921MOL0     H27091   2.577   8.379   6.778 -0.6820  1.6230 -0.6826
  921MOL0     H27092   2.751   8.214   6.814  0.3620 -1.2173 -1.9335
  921MOL0     H27093   2.819   8.372   6.806  2.2483 -0.1775 -0.8762
  921MOL0     H27094   3.019   8.207   6.481  1.8787  1.2184  1.0510
  921MOL0     H27095   2.110   8.329   6.808  3.5422  1.2883  0.5083
  921MOL0     H27096   1.904   8.529   6.662 -0.4224 -1.2265 -1.4789
  921MOL0     H27097   1.792   8.398   6.710 -1.1232  3.1935 -1.0239
  921MOL0     H27098   1.931   8.444   6.815  0.9191  0.3370  0.3477
  922MOL0     O27099   0.024   0.031   0.931 -0.1976  0.2584  0.0116
  922MOL0     C27100   0.009  -0.079   0.883  0.2512  0.2141 -0.1098
  922MOL0     O27101  -0.062  -0.103   0.765 -0.6215 -0.0668 -1.2696
  922MOL0     C27102  -0.089   0.001   0.677  0.1789  0.6540  0.5299
  922MOL0     C27103  -0.165   0.114   0.717 -0.8427  0.3393  0.2929
  922MOL0     C27104  -0.211   0.210   0.633  0.6222  0.4469  0.4046
  922MOL0     C27105  -0.180   0.202   0.498 -0.1617  1.0439  0.9059
  922MOL0     O27106  -0.223   0.284   0.395 -0.0048  0.5996 -1.0369
  922MOL0     C27107  -0.337   0.361   0.419 -0.4554  0.3113  0.5142
  922MOL0     C27108  -0.387   0.444   0.289 -0.0255  0.9567 -0.6981
  922MOL0     C27109  -0.295   0.568   0.273 -1.0213  0.4723  0.4379
  922MOL0     C27110  -0.228   0.550   0.132 -0.8957 -0.7205 -0.7967
  922MOL0     C27111  -0.146   0.682   0.106 -0.3589 -0.1936  0.0693
  922MOL0     C27112   0.005   0.657   0.157  0.0923  0.1937 -0.0585
  922MOL0     C27113   0.090   0.768   0.109  0.0762 -0.8277 -0.5794
  922MOL0     C27114   0.151   0.860   0.216 -0.5396  0.4932 -0.2215
  922MOL0     N27115   0.048   0.932   0.282  0.2204 -0.2499 -0.3641
  922MOL0     C27116  -0.012   0.896   0.399 -0.1778 -0.7009  0.9493
  922MOL0     C27117  -0.117   0.989   0.399 -0.5163  0.2266 -0.3408
  922MOL0     C27118  -0.240   0.997   0.497 -0.9001  0.0735  0.9181
  922MOL0     C27119  -0.295   1.133   0.539  0.0832  0.0447 -0.1834
  922MOL0     C27120  -0.199   1.201   0.634  0.7862 -1.5836 -0.2655
  922MOL0     C27121  -0.073   1.243   0.568 -0.7425  0.0402 -0.0830
  922MOL0     O27122  -0.012   1.342   0.650  0.5288 -0.4607  0.3007
  922MOL0     C27123   0.116   1.375   0.610  0.8445 -0.2100 -0.9637
  922MOL0     C27124   0.168   1.489   0.670  0.0660  0.0277 -1.2478
  922MOL0     C27125   0.293   1.533   0.632  0.6650  0.3506  0.1987
  922MOL0     C27126   0.348   1.654   0.695 -0.1590  0.4821 -0.6697
  922MOL0     C27127   0.373   1.466   0.538 -0.2192 -0.3819 -0.5285
  922MOL0     C27128   0.501   1.510   0.472  0.1119  0.0450 -1.0366
  922MOL0     O27129   0.577   1.408   0.432  0.2230 -0.2352 -0.5989
  922MOL0     C27130   0.702   1.412   0.369  0.7320  0.2610  0.4585
  922MOL0     C27131   0.803   1.315   0.397 -0.7241  0.2594 -0.1695
  922MOL0     C27132   0.925   1.312   0.333  0.3434 -0.8129 -0.9692
  922MOL0     C27133   0.960   1.420   0.257  0.4167 -0.8832  0.2330
  922MOL0     O27134   1.080   1.419   0.190  0.2305 -0.4358  0.4115
  922MOL0     C27135   1.194   1.402   0.263  1.1554  0.3213  0.3724
  922MOL0     C27136   1.315   1.361   0.179 -0.5777 -0.2690  0.1435
  922MOL0     C27137   1.368   1.487   0.118  0.4883 -0.6665  0.2147
  922MOL0     C27138   1.491   1.461   0.025  1.0542 -0.4720  0.2037
  922MOL0     C27139   1.580   1.578  -0.004 -0.2544 -0.8134 -0.6262
  922MOL0     C27140   1.676   1.606   0.109 -0.7547 -0.7300 -0.7127
  922MOL0     C27141   1.780   1.717   0.068  0.7938 -0.6444  1.0030
  922MOL0     C27142   1.921   1.714   0.129 -0.3051 -0.1219  0.2221
  922MOL0    Cl27143   2.010   1.570   0.081 -0.0431  0.6688  0.3956
  922MOL0     C27144   0.867   1.519   0.225 -0.0228  0.6908 -0.6021
  922MOL0     C27145   0.741   1.520   0.280  0.1578 -0.4048  0.5025
  922MOL0     O27146   0.528   1.628   0.455  0.3549  0.2787  0.0913
  922MOL0     C27147   0.323   1.346   0.499  0.3440 -0.4618  0.5805
  922MOL0     C27148   0.201   1.300   0.531 -0.1493 -0.1307  0.1698
  922MOL0     N27149  -0.119   1.064   0.279  0.2668  0.1915 -0.6699
  922MOL0     N27150  -0.012   1.035   0.217  0.1943  0.2491  0.8489
  922MOL0     C27151  -0.111   0.091   0.447 -0.1198  0.2994  0.3288
  922MOL0     C27152  -0.075  -0.012   0.536 -0.5650 -0.1767 -0.4960
  922MOL0     C27153   0.053  -0.200   0.956  0.3705  0.0071 -0.2442
  922MOL0     C27154   0.045  -0.329   0.888 -0.7367 -0.3404  0.3239
  922MOL0     C27155   0.086  -0.441   0.963 -0.8111  1.1528 -0.3942
  922MOL0     C27156   0.124  -0.441   1.095 -0.2001 -0.3283 -0.4947
  922MOL0     O27157   0.160  -0.547   1.166  0.5970 -0.6823  0.1173
  922MOL0     C27158   0.293  -0.593   1.135 -0.1641 -0.2637  0.3151
  922MOL0     C27159   0.330  -0.719   1.198 -0.7670  0.9145 -0.5795
  922MOL0     C27160   0.223  -0.822   1.162  0.3184  0.1945 -0.0592
  922MOL0     C27161   0.285  -0.953   1.186  0.3952  1.1551 -0.0067
  922MOL0     C27162   0.289  -0.978   1.328 -0.7006  0.3454 -0.0757
  922MOL0     C27163   0.295  -1.016   1.441 -0.0167 -0.0816  0.4590
  922MOL0     C27164   0.139  -0.312   1.153  1.4218 -0.5593  0.4980
  922MOL0     C27165   0.103  -0.186   1.087 -0.9049  1.3021  0.4274
  922MOL0     C27166   0.109  -0.059   1.170 -0.5710 -0.1443  0.2540
  922MOL0     H27167  -0.180   0.112   0.825 -1.9285  0.9036  0.1643
  922MOL0     H27168  -0.277   0.287   0.670  1.6656  0.4961  2.2997
  922MOL0     H27169  -0.299   0.435   0.490  2.8524  1.6883 -2.4362
  922MOL0     H27170  -0.418   0.298   0.458  0.3728 -0.4199  1.1114
  922MOL0     H27171  -0.386   0.377   0.202 -0.6849  1.0369 -0.7710
  922MOL0     H27172  -0.494   0.462   0.301 -0.0108  1.5828 -1.4401
  922MOL0     H27173  -0.357   0.657   0.291 -0.5494  0.4980  2.0437
  922MOL0     H27174  -0.213   0.580   0.344  0.4289  4.4341 -1.6042
  922MOL0     H27175  -0.156   0.471   0.154 -1.0099 -0.5090  0.3987
  922MOL0     H27176  -0.297   0.532   0.049 -0.8462 -1.2807 -0.7198
  922MOL0     H27177  -0.193   0.765   0.160  0.0894 -0.0891  0.3025
  922MOL0     H27178  -0.146   0.698  -0.002  0.1729  1.5906  0.3015
  922MOL0     H27179   0.015   0.647   0.265 -1.7335 -1.4506  0.0209
  922MOL0     H27180   0.041   0.561   0.119  3.4674 -0.0605  3.1666
  922MOL0     H27181   0.042   0.845   0.047  3.8138  2.2895 -0.0021
  922MOL0     H27182   0.169   0.732   0.043  1.4916  2.0781 -0.6255
  922MOL0     H27183   0.209   0.812   0.296 -0.0378  1.2905 -0.0939
  922MOL0     H27184   0.221   0.925   0.163  0.6342 -1.8503 -1.7042
  922MOL0     H27185   0.013   0.813   0.463  1.4842  0.5608  2.0214
  922MOL0     H27186  -0.215   0.920   0.571 -0.8519 -1.1181 -0.2841
  922MOL0     H27187  -0.319   0.959   0.433 -0.3232 -0.5916  0.5809
  922MOL0     H27188  -0.308   1.197   0.451 -0.4185 -0.0961 -0.2111
  922MOL0     H27189  -0.396   1.125   0.580  0.3780  0.7678  0.7283
  922MOL0     H27190  -0.250   1.290   0.672 -1.8072 -3.0607 -0.0122
  922MOL0     H27191  -0.179   1.142   0.724  0.9052 -1.3956 -0.1692
  922MOL0     H27192  -0.010   1.154   0.560  0.8555  1.1871 -0.7431
  922MOL0     H27193  -0.073   1.286   0.467 -2.6654 -1.9908 -1.0204
  922MOL0     H27194   0.107   1.550   0.735 -2.2904 -2.4888 -0.9124
  922MOL0     H27195   0.451   1.640   0.730  0.1633  1.2909 -1.2567
  922MOL0     H27196   0.290   1.671   0.786 -1.4439 -0.8096 -1.2257
  922MOL0     H27197   0.347   1.731   0.617 -0.3894  0.4309 -0.7161
  922MOL0     H27198   0.769   1.241   0.468 -4.5123  4.0867  2.4595
  922MOL0     H27199   0.984   1.222   0.350  1.0084 -0.2769 -0.4090
  922MOL0     H27200   1.220   1.493   0.318  2.1490 -0.6877  1.6281
  922MOL0     H27201   1.170   1.323   0.335  1.5638 -0.5516 -0.4281
  922MOL0     H27202   1.388   1.331   0.255 -0.0050  1.5644  0.3609
  922MOL0     H27203   1.291   1.287   0.102 -2.6202  0.2562  0.2290
  922MOL0     H27204   1.397   1.553   0.200  1.7717 -2.7989  1.5739
  922MOL0     H27205   1.290   1.539   0.062 -0.5516  0.3927  2.5159
  922MOL0     H27206   1.461   1.421  -0.072  0.7833 -0.1386  0.1495
  922MOL0     H27207   1.553   1.383   0.071  4.4060  0.8825 -1.6336
  922MOL0     H27208   1.640   1.551  -0.091 -0.3526  2.1306 -1.6992
  922MOL0     H27209   1.512   1.660  -0.028 -1.4776 -1.5692  0.1055
  922MOL0     H27210   1.717   1.511   0.144 -0.9067 -0.2167  0.9095
  922MOL0     H27211   1.624   1.648   0.195 -0.0761  1.2692 -1.2285
  922MOL0     H27212   1.741   1.815   0.099  0.4248 -0.5450  0.2339
  922MOL0     H27213   1.786   1.721  -0.041 -1.8468 -1.0464  0.7739
  922MOL0     H27214   1.902   1.708   0.237 -2.9229 -0.1612 -0.1867
  922MOL0     H27215   1.971   1.806   0.098  0.0632 -1.2340 -2.7741
  922MOL0     H27216   0.900   1.588   0.148 -1.2016  0.7107 -1.1101
  922MOL0     H27217   0.677   1.600   0.245  1.6264 -0.2693 -2.2001
  922MOL0     H27218   0.377   1.278   0.434 -0.1052 -0.1416 -0.1293
  922MOL0     H27219   0.180   1.211   0.473  0.1954  0.5103 -0.9594
  922MOL0     H27220  -0.093   0.078   0.341 -0.0226  1.6357  0.1772
  922MOL0     H27221  -0.014  -0.092   0.496  0.7198  0.9876 -0.9388
  922MOL0     H27222   0.018  -0.356   0.787  3.8704 -2.3626 -0.6282
  922MOL0     H27223   0.067  -0.530   0.904 -1.2601  1.3800 -0.6012
  922MOL0     H27224   0.296  -0.602   1.026 -1.8102  0.5475  0.1696
  922MOL0     H27225   0.363  -0.518   1.172  0.2501 -0.3728 -0.2404
  922MOL0     H27226   0.346  -0.709   1.305 -1.2429 -0.0413 -0.4035
  922MOL0     H27227   0.426  -0.746   1.151 -1.3942 -0.5995 -1.0788
  922MOL0     H27228   0.129  -0.822   1.219  0.9083 -0.2178  0.9391
  922MOL0     H27229   0.199  -0.813   1.056 -2.0628 -1.3180  0.2662
  922MOL0     H27230   0.389  -0.951   1.151 -0.2086  1.6634 -1.8881
  922MOL0     H27231   0.234  -1.033   1.131  1.1830  0.4677  0.2478
  922MOL0     H27232   0.297  -1.061   1.538  0.3593  0.6533  0.8049
  922MOL0     H27233   0.181  -0.292   1.251 -0.7545  0.0896  1.3709
  922MOL0     H27234   0.173   0.013   1.117 -1.5063 -1.1012 -2.3095
  922MOL0     H27235   0.012  -0.012   1.184 -0.0962  2.1933 -3.0314
  922MOL0     H27236   0.155  -0.079   1.268  1.8980  2.0670 -0.3159
  923MOL0     O27237   4.357   9.219   2.423 -0.0355 -0.0871  0.2902
  923MOL0     C27238   4.347   9.096   2.435 -0.8887  0.5165  0.1558
  923MOL0     O27239   4.233   9.026   2.402  0.0274 -0.0646 -0.2360
  923MOL0     C27240   4.113   9.089   2.379 -0.1481 -0.5175  0.4172
  923MOL0     C27241   4.094   9.170   2.273 -0.3270 -0.0974  0.4423
  923MOL0     C27242   3.963   9.224   2.248  1.0348  0.6234 -0.2810
  923MOL0     C27243   3.856   9.193   2.327 -1.7539 -0.3599  0.0953
  923MOL0     O27244   3.740   9.248   2.294  0.7484 -0.2999 -0.1965
  923MOL0     C27245   3.664   9.296   2.411 -0.1121 -0.6009 -0.4268
  923MOL0     C27246   3.527   9.360   2.377 -0.1455  0.1755 -0.6679
  923MOL0     C27247   3.527   9.508   2.320  0.0760 -0.2372 -0.9414
  923MOL0     C27248   3.503   9.613   2.429 -1.1717 -0.5622  0.4292
  923MOL0     C27249   3.447   9.751   2.368 -0.6245 -0.1010 -0.7599
  923MOL0     C27250   3.552   9.820   2.287  0.4424 -0.2032  1.0056
  923MOL0     C27251   3.467   9.913   2.190 -0.3127 -0.6422 -0.1971
  923MOL0     C27252   3.409  10.036   2.255 -0.9364 -0.3044  0.3250
  923MOL0     N27253   3.360  10.125   2.149 -0.3933 -0.7628 -0.3705
  923MOL0     C27254   3.305  10.107   2.021  0.0652  0.3254 -0.5940
  923MOL0     C27255   3.322  10.225   1.962  0.0503  0.0957 -1.0704
  923MOL0     C27256   3.281  10.268   1.828  0.9741 -0.1788  0.4184
  923MOL0     C27257   3.127  10.314   1.828 -0.0087  0.4205 -0.1380
  923MOL0     C27258   3.111  10.455   1.888 -0.3574 -0.0572  1.3171
  923MOL0     C27259   2.969  10.513   1.878 -0.3227 -0.3641 -0.2239
  923MOL0     O27260   2.929  10.552   1.741  0.2419  0.2452  0.7474
  923MOL0     C27261   2.816  10.623   1.718 -0.3026  0.5826 -0.0915
  923MOL0     C27262   2.761  10.604   1.590 -0.1903  0.0932 -0.0175
  923MOL0     C27263   2.655  10.695   1.552 -0.2395  0.1798  0.2017
  923MOL0     C27264   2.604  10.680   1.414 -0.0060  0.3581 -0.3609
  923MOL0     C27265   2.601  10.794   1.636 -0.1495  0.6197  0.1005
  923MOL0     C27266   2.497  10.889   1.595  1.1034  0.1764  0.2088
  923MOL0     O27267   2.462  10.910   1.464 -0.2747  0.6550  0.0919
  923MOL0     C27268   2.355  10.992   1.447 -0.1254  0.9808 -0.8988
  923MOL0     C27269   2.376  11.128   1.411 -0.2060 -0.2704  0.2523
  923MOL0     C27270   2.262  11.208   1.382  0.9121  0.3041 -1.0381
  923MOL0     C27271   2.130  11.153   1.374  0.0809  0.1914 -0.1946
  923MOL0     O27272   2.024  11.237   1.356  0.3147  0.2002 -0.5907
  923MOL0     C27273   1.884  11.202   1.372 -0.0072  1.3590 -0.4502
  923MOL0     C27274   1.816  11.337   1.347  0.4501 -0.4630  0.2171
  923MOL0     C27275   1.846  11.430   1.457  0.6484 -0.6157  0.4651
  923MOL0     C27276   1.762  11.565   1.451 -0.0742  0.3036  0.3888
  923MOL0     C27277   1.800  11.658   1.560  1.6800  0.5602 -0.1897
  923MOL0     C27278   1.939  11.727   1.560 -0.9095 -0.3434 -0.3384
  923MOL0     C27279   1.950  11.810   1.684  0.3382 -0.0925  0.3569
  923MOL0     C27280   1.943  11.965   1.658 -0.0206 -0.6058 -0.9466
  923MOL0    Cl27281   2.034  12.041   1.799  0.4026  0.3428  0.1806
  923MOL0     C27282   2.111  11.016   1.412 -1.1470  0.3294  0.3197
  923MOL0     C27283   2.225  10.941   1.444 -0.1826 -0.7542  0.6254
  923MOL0     O27284   2.463  10.967   1.685  0.4399  0.0088  0.6771
  923MOL0     C27285   2.635  10.776   1.776  0.0159  1.2926 -0.2833
  923MOL0     C27286   2.744  10.693   1.815 -0.6815 -0.6086 -0.5758
  923MOL0     N27287   3.387  10.310   2.046  0.1024  0.2108  0.4790
  923MOL0     N27288   3.407  10.249   2.164 -1.0070 -0.2920 -0.1221
  923MOL0     C27289   3.888   9.128   2.446 -0.1058  0.2825 -0.6375
  923MOL0     C27290   4.010   9.064   2.468  0.5810  0.0137  0.7926
  923MOL0     C27291   4.459   9.014   2.485  0.1731 -0.4354 -0.2336
  923MOL0     C27292   4.459   8.879   2.471  0.9583 -0.3354  1.5656
  923MOL0     C27293   4.566   8.800   2.498  0.0463 -1.1283  0.7376
  923MOL0     C27294   4.682   8.850   2.558 -0.2608  1.1046  0.8836
  923MOL0     O27295   4.777   8.750   2.592 -0.1967  0.8863  0.3921
  923MOL0     C27296   4.887   8.797   2.668 -0.2873  0.9112  1.2252
  923MOL0     C27297   4.965   8.673   2.720  0.4195  0.4931 -0.9917
  923MOL0     C27298   5.020   8.589   2.607  0.4211  0.1174 -0.6021
  923MOL0     C27299   5.109   8.474   2.650 -0.3173  0.7362  0.5920
  923MOL0     C27300   5.248   8.522   2.681 -0.7144  0.4255  0.0299
  923MOL0     C27301   5.356   8.554   2.722 -0.1064  0.4608 -1.1885
  923MOL0     C27302   4.680   8.989   2.582 -0.3786 -0.5362 -0.6805
  923MOL0     C27303   4.579   9.071   2.537 -1.1184  0.2738 -0.5809
  923MOL0     C27304   4.597   9.215   2.579 -0.1586 -0.6225 -0.1152
  923MOL0     H27305   4.177   9.180   2.204 -0.1718 -3.7203 -0.0912
  923MOL0     H27306   3.952   9.294   2.166 -4.0470  0.0874 -0.4263
  923MOL0     H27307   3.722   9.376   2.459 -1.4411 -0.2594  0.6618
  923MOL0     H27308   3.654   9.211   2.478  2.9217 -0.4252  0.4341
  923MOL0     H27309   3.476   9.295   2.305  0.6019  0.0319 -1.0870
  923MOL0     H27310   3.473   9.370   2.471  0.0718 -2.0105 -0.2509
  923MOL0     H27311   3.620   9.512   2.263 -1.2540  1.2381 -3.2076
  923MOL0     H27312   3.447   9.518   2.245 -1.4076 -0.5724  0.5305
  923MOL0     H27313   3.437   9.573   2.507  0.1487 -1.3899  1.1455
  923MOL0     H27314   3.600   9.626   2.477 -0.4986  1.6443 -1.3560
  923MOL0     H27315   3.410   9.813   2.450 -1.7742 -2.8076  0.9338
  923MOL0     H27316   3.356   9.732   2.311 -0.8658 -0.0129 -0.4091
  923MOL0     H27317   3.621   9.879   2.347 -0.2532  0.3802  1.2457
  923MOL0     H27318   3.606   9.750   2.221  0.2361 -0.3025  0.9416
  923MOL0     H27319   3.390   9.858   2.135 -1.3895 -1.8759  2.3750
  923MOL0     H27320   3.524   9.947   2.103 -1.0033 -0.6873 -0.6741
  923MOL0     H27321   3.333  10.012   2.330 -1.0020 -0.5269  0.1901
  923MOL0     H27322   3.493  10.087   2.303 -0.9307  3.3053 -2.9650
  923MOL0     H27323   3.273  10.015   1.972  3.6928 -2.4765  1.7290
  923MOL0     H27324   3.300  10.181   1.765  2.2785  0.5171 -0.1904
  923MOL0     H27325   3.338  10.355   1.794 -0.6464  0.7433 -0.0502
  923MOL0     H27326   3.092  10.311   1.725 -0.9423 -1.1702  0.1885
  923MOL0     H27327   3.070  10.239   1.884  2.8240 -1.1489  0.7975
  923MOL0     H27328   3.143  10.453   1.992  0.3434  3.0071  1.2499
  923MOL0     H27329   3.169  10.526   1.829  0.4179 -2.1390 -0.5710
  923MOL0     H27330   2.909  10.434   1.924  0.4557 -1.6737 -1.3698
  923MOL0     H27331   2.957  10.601   1.942 -2.4411 -1.6136  1.2227
  923MOL0     H27332   2.806  10.548   1.508  0.5247 -1.4854  1.4050
  923MOL0     H27333   2.628  10.772   1.359  0.6367  0.7246  0.5040
  923MOL0     H27334   2.499  10.652   1.409  0.1200  0.0246 -1.2883
  923MOL0     H27335   2.664  10.609   1.356  0.7697  0.3852  0.3968
  923MOL0     H27336   2.475  11.171   1.405 -1.2189  2.0297 -1.8449
  923MOL0     H27337   2.279  11.315   1.377 -0.2520  0.7746  2.2128
  923MOL0     H27338   1.855  11.143   1.285  1.1399 -1.7948  1.1100
  923MOL0     H27339   1.849  11.147   1.460  0.4851 -3.2576 -2.8142
  923MOL0     H27340   1.848  11.381   1.252 -2.5184 -0.7932 -1.0293
  923MOL0     H27341   1.711  11.320   1.324  0.7182 -1.7196 -0.1655
  923MOL0     H27342   1.952  11.453   1.465  0.5690 -0.6856  2.0972
  923MOL0     H27343   1.817  11.389   1.554  1.0567  2.0848  1.8116
  923MOL0     H27344   1.656  11.541   1.466 -0.2271 -0.1567 -1.2312
  923MOL0     H27345   1.781  11.610   1.353  1.4618  2.0071  1.3966
  923MOL0     H27346   1.719  11.730   1.544 -0.6963 -1.8507  0.2557
  923MOL0     H27347   1.787  11.602   1.653 -0.5131 -0.2765 -0.9240
  923MOL0     H27348   1.961  11.785   1.470  0.0091 -0.2427 -0.0598
  923MOL0     H27349   2.013  11.647   1.572  0.3116  1.0197  1.8244
  923MOL0     H27350   2.046  11.780   1.726 -1.1725 -1.0590  3.3435
  923MOL0     H27351   1.873  11.784   1.757  1.2777 -0.1827  1.3401
  923MOL0     H27352   1.838  11.991   1.649 -0.3138 -0.5022  1.8350
  923MOL0     H27353   1.991  11.996   1.565  0.6286  1.2126 -0.0608
  923MOL0     H27354   2.017  10.963   1.422 -1.2375  0.8925  3.4389
  923MOL0     H27355   2.215  10.835   1.467 -0.3688 -1.3225 -1.7716
  923MOL0     H27356   2.580  10.831   1.852  0.2296 -2.4172  2.8905
  923MOL0     H27357   2.774  10.690   1.919  1.5237 -2.6375 -1.1856
  923MOL0     H27358   3.815   9.120   2.526  3.0198  2.0434  2.6881
  923MOL0     H27359   4.023   8.992   2.548 -1.8268 -1.5093 -0.0836
  923MOL0     H27360   4.368   8.832   2.434 -0.9934  4.1771 -0.1019
  923MOL0     H27361   4.553   8.695   2.471 -3.1632 -0.7399  0.4117
  923MOL0     H27362   4.962   8.848   2.607  0.6720 -2.7282 -0.9319
  923MOL0     H27363   4.851   8.867   2.744 -0.1222 -0.7125  2.8745
  923MOL0     H27364   4.906   8.604   2.781 -2.2932 -0.0617 -3.9915
  923MOL0     H27365   5.050   8.707   2.780 -0.8405 -1.8380  2.4722
  923MOL0     H27366   4.932   8.549   2.555 -1.0962  0.1768  1.7591
  923MOL0     H27367   5.073   8.661   2.544  1.6240 -1.1323 -1.0635
  923MOL0     H27368   5.113   8.403   2.567 -1.4535 -0.2312  1.3136
  923MOL0     H27369   5.071   8.417   2.736 -2.2905  2.1729  0.7553
  923MOL0     H27370   5.456   8.566   2.758 -0.7917 -0.2327  1.1479
  923MOL0     H27371   4.765   9.039   2.627 -0.5624  0.0781 -1.0088
  923MOL0     H27372   4.549   9.288   2.514 -0.0093 -1.5628 -1.3102
  923MOL0     H27373   4.558   9.214   2.682 -1.3008 -2.7571 -0.4980
  923MOL0     H27374   4.703   9.241   2.581 -0.1623 -0.6247  0.9453
  924MOL0     O27375   9.722   1.522   6.775 -0.1378  1.0960  0.5510
  924MOL0     C27376   9.744   1.486   6.889 -0.2541  1.0990  0.2984
  924MOL0     O27377   9.661   1.498   6.992 -1.1369 -0.2223  0.4410
  924MOL0     C27378   9.543   1.574   6.979  0.1703  0.0222  0.3274
  924MOL0     C27379   9.435   1.511   6.915 -0.5079 -0.5029  0.0962
  924MOL0     C27380   9.328   1.589   6.876  0.0832 -0.1182  0.2071
  924MOL0     C27381   9.326   1.721   6.901 -1.0989 -1.4165  0.2284
  924MOL0     O27382   9.216   1.797   6.862  0.7749  0.7119  0.7761
  924MOL0     C27383   9.103   1.775   6.939 -1.2150  0.2358  0.1475
  924MOL0     C27384   8.998   1.688   6.865  0.3061  0.5352 -0.0900
  924MOL0     C27385   8.875   1.666   6.962  0.0183 -0.7961  0.9784
  924MOL0     C27386   8.800   1.538   6.955  0.0546 -0.1359  0.5022
  924MOL0     C27387   8.678   1.531   7.038  0.0233  0.1393  0.1083
  924MOL0     C27388   8.618   1.392   7.019 -0.0973  0.5995 -0.3142
  924MOL0     C27389   8.502   1.364   7.114  0.5466 -0.0250 -0.4055
  924MOL0     C27390   8.423   1.241   7.089  0.1769  0.8016 -0.7035
  924MOL0     N27391   8.333   1.216   7.191  0.0072  1.1952  0.3535
  924MOL0     C27392   8.211   1.271   7.206 -0.1071  0.2637 -0.1003
  924MOL0     C27393   8.174   1.229   7.328 -1.2884 -0.0402 -0.7464
  924MOL0     C27394   8.049   1.269   7.391 -0.1348  0.3277 -0.1897
  924MOL0     C27395   8.049   1.324   7.540 -0.0133  0.0187  0.1164
  924MOL0     C27396   8.152   1.440   7.554 -0.0478  0.2785  0.0105
  924MOL0     C27397   8.114   1.563   7.468  0.1213  0.6540 -0.1800
  924MOL0     O27398   8.168   1.680   7.540 -0.3362  0.5355  0.5029
  924MOL0     C27399   8.287   1.723   7.514 -0.0879  0.2516  0.4043
  924MOL0     C27400   8.329   1.836   7.589 -0.2360 -0.0568  0.0026
  924MOL0     C27401   8.465   1.877   7.591 -0.2450 -0.6701 -0.4294
  924MOL0     C27402   8.495   1.997   7.684  0.6668 -0.0700  0.0512
  924MOL0     C27403   8.561   1.801   7.513  0.6988  0.1798  0.2644
  924MOL0     C27404   8.706   1.820   7.507  0.1640  1.1767 -0.0963
  924MOL0     O27405   8.781   1.720   7.458  0.0767 -0.1011  0.5637
  924MOL0     C27406   8.913   1.749   7.440 -0.2884  0.2819 -0.1165
  924MOL0     C27407   8.959   1.846   7.346  0.5193 -1.1294 -0.3434
  924MOL0     C27408   9.089   1.858   7.319  0.3590  0.4763 -0.1948
  924MOL0     C27409   9.188   1.780   7.374  0.8540 -0.2962  0.6063
  924MOL0     O27410   9.316   1.781   7.328 -0.3978  0.5066 -0.1161
  924MOL0     C27411   9.387   1.900   7.349 -1.1442 -0.3663  0.4594
  924MOL0     C27412   9.533   1.861   7.377 -0.0889  0.1281 -0.0399
  924MOL0     C27413   9.614   1.985   7.400 -0.1463  0.3919 -0.7289
  924MOL0     C27414   9.765   1.950   7.421 -0.0234 -1.2994  0.8377
  924MOL0     C27415   9.817   1.882   7.294 -1.0442  0.7153 -0.1157
  924MOL0     C27416   9.969   1.915   7.272 -0.3125  1.0392  0.4539
  924MOL0     C27417  10.009   1.857   7.136 -0.3987 -0.1096 -1.0244
  924MOL0     C27418  10.005   1.709   7.112 -0.3300  0.3581  0.3276
  924MOL0    Cl27419  10.072   1.615   7.242 -0.4092  0.1479  0.3362
  924MOL0     C27420   9.141   1.682   7.469 -0.7033 -1.4146 -0.5509
  924MOL0     C27421   9.010   1.672   7.504 -0.5065 -0.1350  0.0862
  924MOL0     O27422   8.748   1.931   7.543 -0.2624  0.1408 -0.0710
  924MOL0     C27423   8.507   1.699   7.427  0.1553  0.1343 -0.8160
  924MOL0     C27424   8.372   1.665   7.429 -0.1964  0.2013  0.8072
  924MOL0     N27425   8.273   1.150   7.390  0.1729 -0.3716 -0.0330
  924MOL0     N27426   8.370   1.144   7.303  0.7487  0.8441  0.1955
  924MOL0     C27427   9.436   1.784   6.971 -0.0502  0.3383 -0.0848
  924MOL0     C27428   9.544   1.714   7.006 -0.1443  0.0555 -0.3844
  924MOL0     C27429   9.873   1.409   6.913 -0.2990 -0.2141 -0.6413
  924MOL0     C27430   9.890   1.365   7.045 -0.0670  0.6905 -0.2749
  924MOL0     C27431   9.993   1.270   7.081 -0.2460  0.2343  0.0378
  924MOL0     C27432  10.083   1.225   6.982 -0.2551  0.2265  0.1147
  924MOL0     O27433  10.185   1.140   7.025  0.2041 -0.5449  0.2641
  924MOL0     C27434  10.281   1.085   6.934  0.5138  0.2681 -0.6326
  924MOL0     C27435  10.351   0.966   6.987 -0.7233  0.2436  0.2009
  924MOL0     C27436  10.435   0.995   7.109 -0.7817  0.1192 -0.5287
  924MOL0     C27437  10.495   0.864   7.168  0.4161  1.4295 -0.1050
  924MOL0     C27438  10.404   0.777   7.255 -0.0709  0.7146  0.6944
  924MOL0     C27439  10.338   0.692   7.308  0.3776 -0.0530  0.6067
  924MOL0     C27440  10.062   1.259   6.848 -0.0376 -0.5123  0.7521
  924MOL0     C27441   9.951   1.355   6.811  0.4925  1.0050  0.4139
  924MOL0     C27442   9.944   1.389   6.662  0.3703 -0.7185 -0.6162
  924MOL0     H27443   9.442   1.407   6.886  1.7498 -1.1095  2.4751
  924MOL0     H27444   9.235   1.541   6.844  0.7119  0.2747 -2.4334
  924MOL0     H27445   9.061   1.875   6.953  0.7906  1.5135 -2.1499
  924MOL0     H27446   9.138   1.725   7.030  2.4156  1.0757 -0.5991
  924MOL0     H27447   8.964   1.737   6.773  0.7611  0.9868 -0.0199
  924MOL0     H27448   9.043   1.592   6.835  1.9336  1.5204 -0.9436
  924MOL0     H27449   8.900   1.693   7.065 -1.0411  2.3133  0.5296
  924MOL0     H27450   8.810   1.746   6.926  2.4493  1.9644  2.3631
  924MOL0     H27451   8.782   1.526   6.847  2.1787  1.6297 -0.1287
  924MOL0     H27452   8.862   1.449   6.970  2.2468  1.1196 -0.5657
  924MOL0     H27453   8.607   1.604   6.999  1.2563  0.7193 -1.1803
  924MOL0     H27454   8.699   1.545   7.144 -3.0945 -1.3815  1.0542
  924MOL0     H27455   8.599   1.360   6.916  1.9778  0.0976 -0.5803
  924MOL0     H27456   8.702   1.323   7.030  0.1799  0.9728 -0.0871
  924MOL0     H27457   8.430   1.445   7.102 -2.0320 -2.2914 -1.1722
  924MOL0     H27458   8.536   1.367   7.218 -0.7611 -1.9273  0.1249
  924MOL0     H27459   8.383   1.249   6.988  2.0370  5.5607 -1.3021
  924MOL0     H27460   8.492   1.156   7.088 -1.1470 -0.3194 -2.3039
  924MOL0     H27461   8.172   1.322   7.118 -0.1330 -2.5634 -1.8840
  924MOL0     H27462   7.988   1.178   7.386  1.6380 -0.8915 -0.4902
  924MOL0     H27463   8.003   1.346   7.328  0.3129  1.1588  0.4923
  924MOL0     H27464   7.956   1.357   7.587  1.2823 -0.6424  3.4235
  924MOL0     H27465   8.078   1.235   7.596 -0.0861 -0.2348 -0.2463
  924MOL0     H27466   8.153   1.459   7.661  0.4772 -0.2874  0.1146
  924MOL0     H27467   8.249   1.396   7.527 -1.7276 -2.8341 -1.4655
  924MOL0     H27468   8.128   1.548   7.361  1.4020 -2.7734  0.3188
  924MOL0     H27469   8.007   1.564   7.487 -0.1172  0.6084 -1.4187
  924MOL0     H27470   8.257   1.889   7.650  3.8343  2.6979  2.9759
  924MOL0     H27471   8.525   2.086   7.627 -0.8982 -0.2355 -1.1297
  924MOL0     H27472   8.569   1.970   7.759  1.1195  4.0944  1.3568
  924MOL0     H27473   8.409   2.025   7.746 -0.0591  3.3906 -2.2182
  924MOL0     H27474   8.898   1.913   7.288 -1.1187  0.5637  3.0674
  924MOL0     H27475   9.114   1.934   7.246 -1.5563  0.7758 -0.5883
  924MOL0     H27476   9.377   1.964   7.260 -4.5641 -2.6746 -1.0444
  924MOL0     H27477   9.346   1.968   7.424  0.7196 -0.5906  1.7401
  924MOL0     H27478   9.553   1.800   7.465  2.0754 -0.5046 -0.9120
  924MOL0     H27479   9.575   1.794   7.301  0.6492 -0.7726  1.1228
  924MOL0     H27480   9.582   2.027   7.495 -0.5195 -4.6844  1.7138
  924MOL0     H27481   9.596   2.060   7.323  1.0993  0.7300 -0.7072
  924MOL0     H27482   9.781   1.891   7.512 -1.1220 -1.7126  0.7766
  924MOL0     H27483   9.812   2.049   7.416 -0.4073 -1.0398 -5.1848
  924MOL0     H27484   9.797   1.775   7.294 -0.3896  0.5593 -1.9572
  924MOL0     H27485   9.762   1.929   7.212 -0.3422  1.9525  0.0979
  924MOL0     H27486  10.027   1.864   7.350 -0.0682  0.0835 -0.3321
  924MOL0     H27487   9.984   2.021   7.293 -3.2279  1.3924  1.1275
  924MOL0     H27488  10.109   1.899   7.119 -0.7655  1.0032 -0.5565
  924MOL0     H27489   9.950   1.898   7.054  0.0497 -2.6353 -2.7350
  924MOL0     H27490  10.057   1.685   7.019 -0.1323  0.9591  0.2808
  924MOL0     H27491   9.902   1.673   7.103  0.1149 -2.0742  3.3400
  924MOL0     H27492   9.213   1.610   7.505 -1.2489 -2.3076 -1.1983
  924MOL0     H27493   8.977   1.620   7.594 -0.4777 -0.6671 -0.2127
  924MOL0     H27494   8.580   1.655   7.360 -1.4728  1.3090 -3.5434
  924MOL0     H27495   8.334   1.588   7.363  0.3747  0.5191  0.0986
  924MOL0     H27496   9.414   1.888   6.993  1.4487  0.6590  0.0198
  924MOL0     H27497   9.638   1.759   7.036  1.8290 -2.3129 -2.4755
  924MOL0     H27498   9.816   1.371   7.124  0.5342 -1.1805  0.4941
  924MOL0     H27499   9.993   1.237   7.184  0.9512 -0.4340 -0.1509
  924MOL0     H27500  10.230   1.035   6.851 -1.1170 -1.9697  1.5592
  924MOL0     H27501  10.348   1.160   6.892 -1.8015  0.9474 -3.4418
  924MOL0     H27502  10.418   0.926   6.911  0.4546  0.1698  1.2575
  924MOL0     H27503  10.275   0.887   6.992 -0.6257  0.0942 -0.6142
  924MOL0     H27504  10.517   1.065   7.091  3.5702 -4.3411 -0.4210
  924MOL0     H27505  10.380   1.040   7.192  0.1357 -1.7110  1.1646
  924MOL0     H27506  10.572   0.895   7.239 -0.9627  0.9318  1.6864
  924MOL0     H27507  10.538   0.816   7.080  4.6111  0.4500  2.2310
  924MOL0     H27508  10.287   0.607   7.349  1.2749 -2.4746 -2.8682
  924MOL0     H27509  10.125   1.211   6.774 -0.1444 -1.1970  1.1045
  924MOL0     H27510   9.947   1.499   6.659 -1.7158 -0.5424  1.3268
  924MOL0     H27511  10.021   1.341   6.601  0.0043 -0.8907 -0.9425
  924MOL0     H27512   9.846   1.351   6.632 -1.5209  3.7787 -0.9545
  925MOL0     O27513   3.174   4.543   6.957 -0.5155 -0.2814  0.1333
  925MOL0     C27514   3.163   4.487   7.067  0.4400  0.8924  0.6915
  925MOL0     O27515   3.217   4.527   7.188 -0.1169 -0.1743  0.3679
  925MOL0     C27516   3.277   4.651   7.200  0.1422 -0.0197  0.0946
  925MOL0     C27517   3.228   4.738   7.302  0.2503  0.2823 -0.8390
  925MOL0     C27518   3.290   4.865   7.321  0.7519  1.4072 -0.7261
  925MOL0     C27519   3.407   4.889   7.245  0.6764 -0.4711  0.5507
  925MOL0     O27520   3.459   5.013   7.261 -0.2751 -0.4091 -0.3363
  925MOL0     C27521   3.517   5.073   7.148  0.1036 -0.1671  1.1622
  925MOL0     C27522   3.534   5.222   7.167  0.5214 -0.7588  0.4046
  925MOL0     C27523   3.399   5.286   7.149  1.0681  0.9749  0.7921
  925MOL0     C27524   3.402   5.430   7.184 -0.0171 -0.3228 -0.5946
  925MOL0     C27525   3.271   5.502   7.171  0.2513  0.5677 -0.1316
  925MOL0     C27526   3.296   5.652   7.179 -0.2247  0.7615  0.3865
  925MOL0     C27527   3.177   5.731   7.127 -0.5643  0.4943  0.1681
  925MOL0     C27528   3.202   5.881   7.122 -0.0961 -0.0859 -0.7556
  925MOL0     N27529   3.091   5.955   7.065 -0.3785  0.2362  0.2607
  925MOL0     C27530   3.000   6.025   7.135  0.5455  0.3691  0.5836
  925MOL0     C27531   2.934   6.090   7.036  0.0050  0.5669  0.2978
  925MOL0     C27532   2.822   6.186   7.042  0.3439 -0.6628 -0.0881
  925MOL0     C27533   2.863   6.321   7.103 -1.7675  0.4926  0.6675
  925MOL0     C27534   2.781   6.444   7.080 -0.3693 -0.1218  0.2499
  925MOL0     C27535   2.784   6.475   6.932 -0.1400 -0.5796 -0.7340
  925MOL0     O27536   2.920   6.498   6.882  0.2087 -0.2170  0.5744
  925MOL0     C27537   2.932   6.453   6.756  0.0890 -0.5315  0.1254
  925MOL0     C27538   3.006   6.335   6.724 -0.0146  0.2239 -0.0453
  925MOL0     C27539   3.021   6.303   6.592 -1.1304  0.7138  0.7389
  925MOL0     C27540   3.087   6.165   6.572  0.0358 -0.0060 -0.0729
  925MOL0     C27541   2.960   6.374   6.488  0.4805  0.6187  0.6256
  925MOL0     C27542   2.968   6.345   6.336  0.0765 -1.2142  0.0743
  925MOL0     O27543   2.928   6.455   6.249 -0.2159  0.5814 -0.0476
  925MOL0     C27544   2.958   6.439   6.114  0.5427  0.4170  0.4061
  925MOL0     C27545   3.042   6.528   6.054 -0.7266 -0.4884 -0.0889
  925MOL0     C27546   3.078   6.521   5.924 -0.2335  0.9874 -0.2690
  925MOL0     C27547   3.023   6.412   5.845 -0.8841 -0.1406 -0.4191
  925MOL0     O27548   3.067   6.374   5.722  0.4971 -0.3303  0.7085
  925MOL0     C27549   3.178   6.443   5.652  0.3832 -0.1936 -0.2698
  925MOL0     C27550   3.119   6.580   5.599 -0.1621  0.4402 -0.1569
  925MOL0     C27551   3.212   6.631   5.488 -0.3418  0.7724  1.0032
  925MOL0     C27552   3.354   6.671   5.526 -0.5240  0.0595  0.6040
  925MOL0     C27553   3.451   6.663   5.404  0.0561 -1.1290 -1.6147
  925MOL0     C27554   3.415   6.784   5.311  0.2106 -1.0809 -0.5539
  925MOL0     C27555   3.500   6.800   5.198  0.9559 -0.5398  0.8822
  925MOL0     C27556   3.639   6.849   5.230  0.4951  0.3103 -0.0188
  925MOL0    Cl27557   3.620   7.016   5.283 -0.2522  0.3036  0.4447
  925MOL0     C27558   2.937   6.325   5.902 -1.7739 -0.4686  0.7728
  925MOL0     C27559   2.911   6.334   6.037  0.2635  0.2728  0.1761
  925MOL0     O27560   2.988   6.231   6.305 -0.6117  0.5548  0.5876
  925MOL0     C27561   2.894   6.493   6.520  0.3301  0.6639 -0.9803
  925MOL0     C27562   2.877   6.536   6.654  0.1066 -0.8997  0.5600
  925MOL0     N27563   2.979   6.042   6.913 -0.3770 -0.1222  1.0562
  925MOL0     N27564   3.076   5.965   6.932  0.7049 -0.8965  0.3185
  925MOL0     C27565   3.448   4.807   7.145 -0.0427  0.5764 -0.2467
  925MOL0     C27566   3.389   4.688   7.128  0.1994  0.4515  0.5823
  925MOL0     C27567   3.086   4.362   7.049  1.3683  0.4894  0.2046
  925MOL0     C27568   2.992   4.341   6.943 -0.7964 -0.3576 -0.2764
  925MOL0     C27569   2.937   4.215   6.920  0.5110 -0.3017  1.0455
  925MOL0     C27570   2.959   4.112   7.010  0.6803 -0.2917 -0.2930
  925MOL0     O27571   2.880   3.994   7.006 -0.2300  0.1148  0.3247
  925MOL0     C27572   2.764   3.970   6.920  0.2412  0.6049 -0.0826
  925MOL0     C27573   2.681   3.870   7.009 -0.7835 -0.2063 -0.5509
  925MOL0     C27574   2.580   3.938   7.109  0.1020 -0.6231 -0.1171
  925MOL0     C27575   2.524   3.829   7.209  0.5388  1.1080 -0.4534
  925MOL0     C27576   2.386   3.858   7.256 -0.5085  0.6233 -0.3155
  925MOL0     C27577   2.274   3.876   7.297 -0.1200 -0.1286  0.6145
  925MOL0     C27578   3.045   4.126   7.120  0.5596 -0.3494  0.0805
  925MOL0     C27579   3.120   4.244   7.132  0.1013 -0.4774  0.0417
  925MOL0     C27580   3.220   4.242   7.250 -0.1873  1.4203 -0.4097
  925MOL0     H27581   3.151   4.698   7.367  0.3154  1.5633  0.0655
  925MOL0     H27582   3.253   4.932   7.397 -0.8884  1.3774 -1.4526
  925MOL0     H27583   3.465   5.051   7.054  1.3151  4.6435 -0.9343
  925MOL0     H27584   3.621   5.042   7.130  0.5218  0.6711  2.0728
  925MOL0     H27585   3.569   5.234   7.270  0.7299  1.4430  0.1181
  925MOL0     H27586   3.605   5.260   7.094  0.1699  1.9008  1.3123
  925MOL0     H27587   3.372   5.275   7.044  2.5550 -0.8114  0.5393
  925MOL0     H27588   3.323   5.236   7.211  0.4306  0.8633 -0.0710
  925MOL0     H27589   3.457   5.444   7.278  2.3759  1.4199 -2.1475
  925MOL0     H27590   3.461   5.472   7.102  0.6368  1.0659  0.5499
  925MOL0     H27591   3.210   5.473   7.257  1.4302 -1.8942 -0.0353
  925MOL0     H27592   3.226   5.471   7.077 -0.0185  0.8440 -0.0953
  925MOL0     H27593   3.320   5.678   7.283  4.0733 -0.9511  0.0233
  925MOL0     H27594   3.382   5.675   7.115 -2.7249  4.0176 -2.2110
  925MOL0     H27595   3.087   5.714   7.187  0.7825  0.5962  2.3234
  925MOL0     H27596   3.151   5.694   7.027 -0.5993  1.3122 -0.1308
  925MOL0     H27597   3.224   5.924   7.220 -2.0719  1.7420 -1.0446
  925MOL0     H27598   3.285   5.903   7.053 -1.2632 -0.2089 -2.2501
  925MOL0     H27599   2.992   6.032   7.243 -1.0914  0.6911  0.4654
  925MOL0     H27600   2.744   6.145   7.106  0.0855  3.5849  2.7625
  925MOL0     H27601   2.776   6.192   6.943 -1.2115 -2.7949  0.4303
  925MOL0     H27602   2.869   6.306   7.211  0.3860 -1.5692  0.3531
  925MOL0     H27603   2.964   6.341   7.066 -1.8303  0.6588  0.5845
  925MOL0     H27604   2.680   6.410   7.104 -0.0662 -1.4455 -0.2753
  925MOL0     H27605   2.802   6.539   7.129 -1.4166  1.2315 -1.7845
  925MOL0     H27606   2.737   6.401   6.867 -1.1400  0.0721 -0.7933
  925MOL0     H27607   2.723   6.564   6.915  1.0646  0.5157  0.3868
  925MOL0     H27608   3.035   6.277   6.811 -0.6150  4.3923  3.2713
  925MOL0     H27609   3.087   6.099   6.659 -1.4025  2.1299  1.6647
  925MOL0     H27610   3.186   6.182   6.529 -0.6800  2.2664 -1.0101
  925MOL0     H27611   3.032   6.095   6.509  0.2928 -1.2192  1.0102
  925MOL0     H27612   3.071   6.611   6.117  0.5011  0.7120 -2.1303
  925MOL0     H27613   3.144   6.596   5.880 -0.6570  0.0038 -2.7803
  925MOL0     H27614   3.263   6.452   5.719  0.0734 -1.4156  0.3130
  925MOL0     H27615   3.212   6.388   5.564  1.1918  4.1582 -3.0113
  925MOL0     H27616   3.020   6.566   5.554 -1.0838  1.9596  1.2378
  925MOL0     H27617   3.102   6.659   5.674 -0.4030 -1.1263  1.5305
  925MOL0     H27618   3.171   6.718   5.437  3.6311  1.8324 -0.8184
  925MOL0     H27619   3.205   6.550   5.414 -0.5205  2.3915 -0.8437
  925MOL0     H27620   3.394   6.607   5.605  0.9849 -0.5711 -0.6065
  925MOL0     H27621   3.352   6.768   5.576  1.1256  0.6684 -0.4378
  925MOL0     H27622   3.551   6.669   5.450 -0.6543  2.6169 -0.1726
  925MOL0     H27623   3.436   6.568   5.352  2.6804 -2.3034 -0.4386
  925MOL0     H27624   3.428   6.873   5.374  3.1849 -2.0994  0.4656
  925MOL0     H27625   3.313   6.785   5.273 -0.6545 -0.1379  1.6227
  925MOL0     H27626   3.448   6.878   5.141 -0.0942 -2.0081 -0.2585
  925MOL0     H27627   3.504   6.716   5.128  1.7352  1.4661 -1.6394
  925MOL0     H27628   3.707   6.857   5.144  2.4374 -2.5581  1.1187
  925MOL0     H27629   3.679   6.777   5.302 -3.4714 -1.0651  1.0848
  925MOL0     H27630   2.889   6.250   5.840 -1.7296 -0.5831  0.8764
  925MOL0     H27631   2.837   6.265   6.076 -2.0216  1.6384 -1.5286
  925MOL0     H27632   2.843   6.557   6.448 -1.5782 -2.3457 -2.5344
  925MOL0     H27633   2.829   6.632   6.673  0.5891 -0.3168 -1.0327
  925MOL0     H27634   3.531   4.833   7.080 -0.6257  1.1169 -0.7729
  925MOL0     H27635   3.415   4.622   7.045 -0.2639  1.1471 -0.1280
  925MOL0     H27636   2.975   4.419   6.869 -0.2793  0.7420  0.7328
  925MOL0     H27637   2.875   4.196   6.832 -3.0904 -1.6630  3.6144
  925MOL0     H27638   2.702   4.055   6.888  2.0835  1.3105 -1.9812
  925MOL0     H27639   2.779   3.918   6.825 -2.8236 -1.7642  0.5614
  925MOL0     H27640   2.752   3.798   7.051 -1.4201  0.3011  1.5340
  925MOL0     H27641   2.622   3.819   6.932 -0.1834  1.0547 -1.8957
  925MOL0     H27642   2.626   4.016   7.169 -0.4033 -0.5307  0.1609
  925MOL0     H27643   2.503   3.986   7.048  1.2845 -1.3171 -2.2705
  925MOL0     H27644   2.590   3.830   7.296  0.2409  1.7600 -0.2351
  925MOL0     H27645   2.517   3.733   7.157 -3.2455  0.3863  1.0774
  925MOL0     H27646   2.179   3.906   7.337  1.3878  4.1368  1.5566
  925MOL0     H27647   3.064   4.036   7.177 -3.0846 -1.2850  0.0439
  925MOL0     H27648   3.317   4.285   7.223  1.3057 -0.3473  1.7388
  925MOL0     H27649   3.185   4.296   7.339  1.4127 -2.1739  2.6854
  925MOL0     H27650   3.232   4.139   7.286  1.3775  2.0209  0.9244
  926MOL0     O27651   2.312   7.007   6.741 -0.7219 -0.0007  0.5983
  926MOL0     C27652   2.230   7.025   6.830 -0.5396 -0.2502 -0.3958
  926MOL0     O27653   2.158   7.149   6.843 -0.1209 -1.0489  0.5058
  926MOL0     C27654   2.211   7.267   6.793  0.0235 -0.0006  0.8413
  926MOL0     C27655   2.201   7.286   6.655  0.2103 -0.2505  0.0229
  926MOL0     C27656   2.220   7.416   6.601 -0.7031  0.5011 -0.4207
  926MOL0     C27657   2.274   7.514   6.677 -0.9141  1.0018 -0.5795
  926MOL0     O27658   2.338   7.614   6.611  0.0019 -0.3162  0.3687
  926MOL0     C27659   2.463   7.653   6.672 -0.4329  1.0113  0.1276
  926MOL0     C27660   2.529   7.753   6.581  0.4989 -0.3948 -0.9948
  926MOL0     C27661   2.669   7.806   6.611  0.1724  0.0106  0.0474
  926MOL0     C27662   2.767   7.696   6.645  0.3065 -0.4218  0.8248
  926MOL0     C27663   2.900   7.767   6.676  1.0294  0.1349 -0.1159
  926MOL0     C27664   2.903   7.817   6.819 -0.5069 -0.5307  0.3711
  926MOL0     C27665   2.961   7.965   6.815  1.1629 -0.4005 -0.1918
  926MOL0     C27666   3.120   7.971   6.819 -0.1044  0.0651  0.0808
  926MOL0     N27667   3.179   8.104   6.785  0.3875  0.2209 -0.1908
  926MOL0     C27668   3.151   8.222   6.847  0.0610  0.2233 -0.8077
  926MOL0     C27669   3.211   8.313   6.763 -0.5438  1.5277  0.2341
  926MOL0     C27670   3.217   8.460   6.790  0.5672  0.2413  0.1723
  926MOL0     C27671   3.095   8.523   6.720 -0.7467  0.2205  0.2918
  926MOL0     C27672   3.127   8.662   6.673  0.7315  0.3578  0.1644
  926MOL0     C27673   3.001   8.728   6.601  0.8979  1.5417 -0.4587
  926MOL0     O27674   2.957   8.659   6.477  0.7625 -0.5450 -0.9113
  926MOL0     C27675   3.051   8.650   6.383  0.1460 -0.3495  0.1370
  926MOL0     C27676   3.065   8.533   6.317 -0.0794 -0.3347 -0.0400
  926MOL0     C27677   3.150   8.510   6.209  0.0614  0.1123  1.0193
  926MOL0     C27678   3.176   8.374   6.152 -0.1878 -0.4032 -0.7891
  926MOL0     C27679   3.223   8.628   6.150 -0.3008  0.0700 -0.4299
  926MOL0     C27680   3.317   8.630   6.032 -0.0937  0.2284 -0.5888
  926MOL0     O27681   3.372   8.743   5.997  0.3539 -0.6539 -0.1321
  926MOL0     C27682   3.454   8.770   5.886 -0.0969  0.7670 -0.5805
  926MOL0     C27683   3.507   8.894   5.881 -0.6150  0.0841 -1.1949
  926MOL0     C27684   3.593   8.938   5.771 -0.3411  0.1093  0.5826
  926MOL0     C27685   3.631   8.845   5.674 -0.5284 -0.2951 -0.9929
  926MOL0     O27686   3.690   8.874   5.551  0.5365 -0.0176  0.0531
  926MOL0     C27687   3.741   9.003   5.518  0.7963 -0.0415 -0.2300
  926MOL0     C27688   3.867   8.965   5.438  0.3182 -0.4185 -0.9013
  926MOL0     C27689   3.939   9.083   5.376 -0.2830 -0.4786  0.5846
  926MOL0     C27690   4.072   9.045   5.327 -0.8470 -0.3857  0.0435
  926MOL0     C27691   4.144   9.171   5.265  0.3484  0.3145  0.0665
  926MOL0     C27692   4.272   9.125   5.186  0.4871  0.8155 -0.0534
  926MOL0     C27693   4.320   9.236   5.108 -0.0926 -0.1793  1.0002
  926MOL0     C27694   4.313   9.201   4.959  0.1785 -0.1303  0.6575
  926MOL0    Cl27695   4.368   9.343   4.855  0.3832 -0.1650 -0.3150
  926MOL0     C27696   3.601   8.711   5.701 -0.8468  0.4241  0.2181
  926MOL0     C27697   3.515   8.675   5.803  0.5553  0.6375 -0.5669
  926MOL0     O27698   3.307   8.524   5.968  0.1680 -0.6678  0.9039
  926MOL0     C27699   3.197   8.748   6.215 -0.6203 -0.8588  0.1279
  926MOL0     C27700   3.116   8.765   6.332  0.2745  0.0022  0.2209
  926MOL0     N27701   3.259   8.247   6.656 -0.6496  0.4383 -0.1530
  926MOL0     N27702   3.229   8.122   6.663  0.2154  0.4604 -0.7215
  926MOL0     C27703   2.280   7.499   6.823 -0.0946 -0.1120  0.1275
  926MOL0     C27704   2.246   7.375   6.877 -0.2759  1.3270  0.8275
  926MOL0     C27705   2.181   6.911   6.913 -0.1004  1.1194 -1.3490
  926MOL0     C27706   2.055   6.915   6.968  0.4009 -0.5699  0.8386
  926MOL0     C27707   1.991   6.813   7.035 -0.0622 -0.0927 -0.5252
  926MOL0     C27708   2.061   6.700   7.073 -0.5230 -0.3267 -0.0625
  926MOL0     O27709   1.979   6.607   7.137 -0.7212  0.0490 -1.1842
  926MOL0     C27710   2.033   6.523   7.244  0.1795 -0.2935 -0.2235
  926MOL0     C27711   1.911   6.469   7.310  0.0692 -0.5552  0.3720
  926MOL0     C27712   1.793   6.571   7.325 -0.6284  0.0452  0.3138
  926MOL0     C27713   1.690   6.512   7.427  0.3677 -0.0337 -0.2307
  926MOL0     C27714   1.572   6.608   7.447  0.1647 -0.5652  0.7736
  926MOL0     C27715   1.479   6.682   7.475 -0.0942 -0.2164 -0.1581
  926MOL0     C27716   2.195   6.706   7.057  0.1413  0.1494  0.3528
  926MOL0     C27717   2.257   6.806   6.977 -0.4352  0.2087  0.3127
  926MOL0     C27718   2.411   6.810   6.966  0.2344  0.7398 -0.5901
  926MOL0     H27719   2.147   7.211   6.598 -0.9608 -0.6039  1.5575
  926MOL0     H27720   2.209   7.444   6.497 -0.5930  1.5155 -0.1664
  926MOL0     H27721   2.528   7.567   6.691  0.4180  1.8801  1.2472
  926MOL0     H27722   2.436   7.695   6.769 -4.8321  3.4306 -1.8838
  926MOL0     H27723   2.540   7.707   6.483  0.3553  0.3162 -1.3576
  926MOL0     H27724   2.471   7.847   6.582 -0.0716 -0.5695  3.8212
  926MOL0     H27725   2.695   7.867   6.524 -1.0509 -0.1479 -0.4471
  926MOL0     H27726   2.664   7.874   6.697 -1.6849 -0.6065  0.4728
  926MOL0     H27727   2.747   7.618   6.720 -3.1837 -0.3460  0.1390
  926MOL0     H27728   2.774   7.631   6.557  2.1320  2.0848 -1.0287
  926MOL0     H27729   2.913   7.849   6.605 -0.9219  1.5635  1.0539
  926MOL0     H27730   2.978   7.691   6.677  1.0953  0.1067  3.1199
  926MOL0     H27731   2.800   7.817   6.856 -0.5718 -3.4764  0.4465
  926MOL0     H27732   2.956   7.748   6.884 -0.9592 -4.2633 -2.8516
  926MOL0     H27733   2.921   8.032   6.893 -0.7862  0.4266 -1.8166
  926MOL0     H27734   2.934   8.016   6.722 -0.1583 -0.6935  0.0105
  926MOL0     H27735   3.147   7.946   6.922  1.5922  0.0635 -0.3294
  926MOL0     H27736   3.167   7.899   6.751  4.1015  1.0473  1.6427
  926MOL0     H27737   3.109   8.241   6.945 -1.1445  0.5012 -1.3594
  926MOL0     H27738   3.306   8.518   6.764  1.1356 -0.3595  0.7479
  926MOL0     H27739   3.210   8.480   6.897 -0.0173 -0.4109  0.2595
  926MOL0     H27740   3.068   8.464   6.633 -0.8013  0.9049 -0.1628
  926MOL0     H27741   3.004   8.531   6.780 -0.3766  1.4841  0.7327
  926MOL0     H27742   3.170   8.728   6.750  0.7617  0.7676 -0.1972
  926MOL0     H27743   3.210   8.663   6.602  0.8709  0.4000  0.3271
  926MOL0     H27744   2.923   8.720   6.678  0.8687  0.1109 -0.6081
  926MOL0     H27745   3.009   8.836   6.584  1.3830  1.0327 -4.3214
  926MOL0     H27746   3.012   8.442   6.344  2.6136 -1.8939  0.4365
  926MOL0     H27747   3.282   8.345   6.144  0.0900  0.9346 -2.7555
  926MOL0     H27748   3.138   8.358   6.051 -0.3456 -1.1537 -0.6207
  926MOL0     H27749   3.109   8.309   6.209 -2.7914  2.3319 -0.4930
  926MOL0     H27750   3.463   8.960   5.955 -1.6446 -1.9648  0.1087
  926MOL0     H27751   3.625   9.042   5.769  0.5890 -0.1791  0.1326
  926MOL0     H27752   3.674   9.064   5.457 -1.3238 -0.4731  1.5061
  926MOL0     H27753   3.774   9.065   5.602 -1.4740  0.9507  0.0102
  926MOL0     H27754   3.923   8.918   5.520 -1.6019  1.3470  1.6023
  926MOL0     H27755   3.844   8.889   5.363 -0.9990  0.9197 -1.9064
  926MOL0     H27756   3.944   9.175   5.436  3.3707 -0.9913  1.3013
  926MOL0     H27757   3.874   9.108   5.292 -1.4061 -1.2328  1.2066
  926MOL0     H27758   4.065   8.967   5.250 -0.6507 -0.9976  0.6400
  926MOL0     H27759   4.140   9.010   5.405 -0.4584 -0.7615 -0.4586
  926MOL0     H27760   4.069   9.229   5.210  0.4990  0.5991  0.1592
  926MOL0     H27761   4.193   9.237   5.337  2.8824 -0.1293 -1.1449
  926MOL0     H27762   4.251   9.048   5.112 -0.0710  1.0229 -0.1165
  926MOL0     H27763   4.337   9.079   5.261 -1.8044  1.2392  2.3726
  926MOL0     H27764   4.424   9.267   5.120  0.5545 -2.6835  2.6379
  926MOL0     H27765   4.251   9.319   5.128  1.2945  1.4378 -0.5287
  926MOL0     H27766   4.217   9.165   4.921  0.2612  0.7889 -0.4803
  926MOL0     H27767   4.379   9.117   4.936  1.5645  1.2605 -0.6138
  926MOL0     H27768   3.645   8.647   5.625 -3.1376  1.5103 -2.1858
  926MOL0     H27769   3.505   8.568   5.819  0.5006  0.6829 -0.2893
  926MOL0     H27770   3.245   8.841   6.187 -0.4540 -0.8157  0.5533
  926MOL0     H27771   3.090   8.862   6.374 -3.7336  0.1403 -2.1163
  926MOL0     H27772   2.311   7.570   6.898 -1.5808  1.1395 -0.3935
  926MOL0     H27773   2.244   7.347   6.982  1.5456  0.6191  0.7158
  926MOL0     H27774   1.991   6.999   6.942 -3.0132 -2.9696  0.8401
  926MOL0     H27775   1.884   6.794   7.048  0.4096 -0.4452  6.1528
  926MOL0     H27776   2.090   6.442   7.197 -0.2426  0.1365 -1.5201
  926MOL0     H27777   2.093   6.574   7.320  0.5224  1.4544 -1.6016
  926MOL0     H27778   1.945   6.437   7.409  1.3370  2.2024  0.9170
  926MOL0     H27779   1.874   6.380   7.258 -0.7055  0.5661 -1.0846
  926MOL0     H27780   1.828   6.666   7.367 -0.1958 -0.1093  0.2983
  926MOL0     H27781   1.745   6.592   7.229  1.8759 -4.3541 -2.2290
  926MOL0     H27782   1.739   6.498   7.524  1.9970  0.5598 -0.9423
  926MOL0     H27783   1.639   6.422   7.393 -1.7113 -0.3814  3.2920
  926MOL0     H27784   1.386   6.729   7.499  0.2173 -0.2261  1.1905
  926MOL0     H27785   2.246   6.626   7.109  1.0026  2.5447  3.5259
  926MOL0     H27786   2.466   6.900   6.992  0.5848  0.3403  0.0813
  926MOL0     H27787   2.456   6.719   7.008  0.6682 -0.4977 -3.5342
  926MOL0     H27788   2.433   6.798   6.860 -0.4578 -1.0093 -0.5793
  927MOL0     O27789   0.053  11.244   1.654  0.5629  0.1783 -0.3027
  927MOL0     C27790  -0.060  11.230   1.610 -0.5254 -0.3672 -0.0745
  927MOL0     O27791  -0.126  11.118   1.605  0.7612  0.7942 -0.4713
  927MOL0     C27792  -0.078  10.995   1.640  0.9806 -0.2898  0.1019
  927MOL0     C27793   0.044  10.943   1.596  0.0318 -0.0109  0.4773
  927MOL0     C27794   0.089  10.822   1.642 -0.7009  0.6209 -0.4628
  927MOL0     C27795   0.005  10.732   1.710 -1.1340  0.6938  0.3163
  927MOL0     O27796   0.042  10.607   1.752  0.7205 -0.4073  0.3085
  927MOL0     C27797   0.174  10.584   1.801  0.3956  0.4145 -0.7779
  927MOL0     C27798   0.182  10.465   1.889  0.7749  0.5693 -0.7596
  927MOL0     C27799   0.295  10.479   1.979 -0.6572  1.3276 -0.5106
  927MOL0     C27800   0.328  10.334   2.042 -0.0653 -1.0332  0.7111
  927MOL0     C27801   0.422  10.339   2.161 -0.0032 -0.0401  0.2011
  927MOL0     C27802   0.441  10.202   2.229  1.1929 -0.0631 -0.4813
  927MOL0     C27803   0.500  10.095   2.137 -0.4203 -0.1247  0.6715
  927MOL0     C27804   0.539   9.979   2.218  0.4959  0.2399  0.3230
  927MOL0     N27805   0.605   9.880   2.134  0.2652 -0.3840  0.0588
  927MOL0     C27806   0.740   9.870   2.128  1.3818  0.2841 -0.0644
  927MOL0     C27807   0.758   9.762   2.043  0.3817 -1.0105  0.2884
  927MOL0     C27808   0.903   9.722   2.000 -0.0473 -1.0990 -0.1482
  927MOL0     C27809   0.930   9.578   2.055  0.5053 -0.3293  0.2938
  927MOL0     C27810   1.043   9.505   1.977 -0.2980 -0.8097 -0.2710
  927MOL0     C27811   1.123   9.407   2.075  0.9286 -0.5625  0.4310
  927MOL0     O27812   1.019   9.322   2.114  0.5296  0.2527 -0.0103
  927MOL0     C27813   1.034   9.250   2.227  0.6965  0.0290  0.3669
  927MOL0     C27814   1.148   9.190   2.264  0.6445 -0.4747 -0.5093
  927MOL0     C27815   1.149   9.120   2.387 -0.6343  0.1565  0.3385
  927MOL0     C27816   1.290   9.092   2.442  0.5123  0.3343  0.2711
  927MOL0     C27817   1.037   9.100   2.458  0.6766 -0.1457 -0.2470
  927MOL0     C27818   1.031   9.031   2.586 -0.0424  0.4899 -0.7211
  927MOL0     O27819   0.902   9.010   2.631  0.4888 -0.1773 -0.8341
  927MOL0     C27820   0.864   8.917   2.731 -0.5377 -0.9057  0.4278
  927MOL0     C27821   0.934   8.807   2.773  0.5146 -0.3233  0.9849
  927MOL0     C27822   0.873   8.718   2.862 -0.6467 -0.0456 -0.5724
  927MOL0     C27823   0.747   8.750   2.929  0.0007  0.1057  0.4573
  927MOL0     O27824   0.693   8.684   3.037  0.6591  0.4155 -0.6869
  927MOL0     C27825   0.777   8.599   3.109 -0.7217  0.7809 -1.0434
  927MOL0     C27826   0.727   8.572   3.249  0.7789 -0.1513 -0.3212
  927MOL0     C27827   0.654   8.434   3.244 -0.5722 -0.2109 -0.2353
  927MOL0     C27828   0.553   8.412   3.355 -0.0106 -0.5041  0.0839
  927MOL0     C27829   0.497   8.257   3.361 -0.7902  0.4165  0.2331
  927MOL0     C27830   0.600   8.161   3.428 -0.3162 -0.4625 -0.2668
  927MOL0     C27831   0.551   8.015   3.403  0.1956  0.0981 -0.8745
  927MOL0     C27832   0.669   7.921   3.405  0.3856 -0.1404 -0.2550
  927MOL0    Cl27833   0.609   7.754   3.423  0.4133  0.0574 -0.3496
  927MOL0     C27834   0.692   8.868   2.889 -0.2025 -0.6867  0.4446
  927MOL0     C27835   0.742   8.957   2.791  0.8652 -0.5042 -0.7120
  927MOL0     O27836   1.132   9.010   2.655 -0.2699  0.8186  0.0008
  927MOL0     C27837   0.915   9.161   2.421  0.6624  0.0534  0.2724
  927MOL0     C27838   0.922   9.237   2.301 -0.3134 -0.0962  0.2991
  927MOL0     N27839   0.639   9.696   2.027 -0.3148  0.5236 -0.2682
  927MOL0     N27840   0.546   9.768   2.087  0.6451  0.1303  0.5024
  927MOL0     C27841  -0.124  10.773   1.739  1.2673  0.2620  0.3734
  927MOL0     C27842  -0.170  10.908   1.705 -0.7597  1.0742  0.0243
  927MOL0     C27843  -0.130  11.350   1.559 -0.0446  0.1033 -0.2465
  927MOL0     C27844  -0.144  11.349   1.419 -0.1581 -0.1581  0.0787
  927MOL0     C27845  -0.217  11.451   1.351  0.5959 -0.4114 -0.2273
  927MOL0     C27846  -0.279  11.554   1.426  0.1922 -0.2009  0.8043
  927MOL0     O27847  -0.372  11.647   1.372 -0.1739  0.2625 -0.4038
  927MOL0     C27848  -0.400  11.643   1.232  0.3232 -0.1760  0.4324
  927MOL0     C27849  -0.325  11.731   1.143 -0.6048 -0.0876  0.7254
  927MOL0     C27850  -0.305  11.873   1.199  0.4535 -0.4932 -0.4491
  927MOL0     C27851  -0.226  11.964   1.111  1.0223 -0.0362  0.7295
  927MOL0     C27852  -0.255  12.111   1.142  0.0090  0.5979 -1.0162
  927MOL0     C27853  -0.283  12.224   1.168 -0.4632 -0.5738  0.1035
  927MOL0     C27854  -0.252  11.558   1.563  0.4476  0.7172  0.5372
  927MOL0     C27855  -0.190  11.455   1.632  0.3104  0.1910  0.2946
  927MOL0     C27856  -0.197  11.443   1.786  0.0901  0.0104  1.1586
  927MOL0     H27857   0.105  11.010   1.535 -1.4510 -1.7634 -3.2337
  927MOL0     H27858   0.190  10.787   1.624  0.2826  2.7888  0.4350
  927MOL0     H27859   0.188  10.672   1.865  1.1088  2.1534 -3.1693
  927MOL0     H27860   0.260  10.578   1.733  0.0108  2.5156 -1.5553
  927MOL0     H27861   0.101  10.463   1.962  0.5085  0.1286 -1.0608
  927MOL0     H27862   0.182  10.370   1.835 -1.8507 -0.2286  0.4907
  927MOL0     H27863   0.377  10.529   1.928  0.3836  1.0408  0.8149
  927MOL0     H27864   0.271  10.550   2.059 -0.0038  0.0641  0.8823
  927MOL0     H27865   0.239  10.290   2.089  0.4549 -0.5098  2.2303
  927MOL0     H27866   0.356  10.267   1.960  2.8320  0.5661  0.2855
  927MOL0     H27867   0.379  10.414   2.228  0.3061  1.6115 -1.3729
  927MOL0     H27868   0.515  10.383   2.125 -0.8609  1.8518  0.1749
  927MOL0     H27869   0.506  10.212   2.317  0.6190  2.0518 -0.2373
  927MOL0     H27870   0.347  10.158   2.265  1.4410 -0.8329 -0.7542
  927MOL0     H27871   0.595  10.134   2.099 -0.3154 -2.4300 -1.7062
  927MOL0     H27872   0.429  10.075   2.057 -0.0713 -0.1269  0.3592
  927MOL0     H27873   0.608   9.996   2.302 -0.5590 -2.2371  1.7903
  927MOL0     H27874   0.458   9.922   2.265  0.8816  0.7859  1.7088
  927MOL0     H27875   0.807   9.943   2.172  0.4235  1.5330 -0.6509
  927MOL0     H27876   0.975   9.794   2.040  3.0101 -3.4228 -1.0152
  927MOL0     H27877   0.919   9.733   1.893  1.8474  0.6622  0.2655
  927MOL0     H27878   0.952   9.599   2.161  0.1959  2.4456 -0.1031
  927MOL0     H27879   0.837   9.522   2.048  1.7871 -2.6534  0.5655
  927MOL0     H27880   0.991   9.450   1.897  0.1552 -0.5942 -0.7225
  927MOL0     H27881   1.113   9.579   1.937 -3.2789  1.4210 -1.8127
  927MOL0     H27882   1.197   9.351   2.018  2.3771  1.3625  0.3197
  927MOL0     H27883   1.169   9.447   2.165  1.2367 -3.1730  1.5123
  927MOL0     H27884   1.228   9.200   2.191 -0.2870 -0.7062 -1.6007
  927MOL0     H27885   1.314   9.149   2.532  0.9060 -3.2577  2.6582
  927MOL0     H27886   1.362   9.122   2.365 -1.5816  2.5160 -0.9604
  927MOL0     H27887   1.301   8.985   2.465 -0.2974 -0.1372 -1.3748
  927MOL0     H27888   1.029   8.773   2.734  1.6102  0.9652  2.3994
  927MOL0     H27889   0.917   8.631   2.910 -1.0082 -0.4483 -0.9565
  927MOL0     H27890   0.786   8.507   3.050  0.0819  0.7127 -0.8209
  927MOL0     H27891   0.877   8.643   3.116 -0.6993  0.7488 -1.1654
  927MOL0     H27892   0.808   8.562   3.322 -0.3258 -2.5764  0.6997
  927MOL0     H27893   0.649   8.643   3.276  1.0475 -0.2389  0.7126
  927MOL0     H27894   0.728   8.353   3.240  1.1991  1.2635  1.0209
  927MOL0     H27895   0.597   8.427   3.151 -0.6990 -2.2565 -0.0471
  927MOL0     H27896   0.464   8.475   3.345 -0.8752 -1.3719  1.9741
  927MOL0     H27897   0.587   8.424   3.458 -0.9507 -0.5112  0.4022
  927MOL0     H27898   0.411   8.249   3.429  0.2265 -1.5984  1.3753
  927MOL0     H27899   0.478   8.215   3.262 -0.6707  1.9341 -0.4594
  927MOL0     H27900   0.631   8.181   3.531  0.2822 -0.4637 -0.4428
  927MOL0     H27901   0.696   8.177   3.380  0.9373  0.1512  2.2472
  927MOL0     H27902   0.495   7.998   3.311 -0.6089 -1.3169 -0.1573
  927MOL0     H27903   0.490   7.999   3.492  0.1514  1.4629 -0.6383
  927MOL0     H27904   0.740   7.944   3.485  1.6883  6.8978 -2.7381
  927MOL0     H27905   0.715   7.939   3.307  0.7437  0.6716  0.0484
  927MOL0     H27906   0.595   8.893   2.931 -1.0636 -0.4071 -1.5935
  927MOL0     H27907   0.681   9.044   2.767  2.8302  1.3019  0.4145
  927MOL0     H27908   0.824   9.163   2.480  0.4851  1.5387  0.0003
  927MOL0     H27909   0.829   9.276   2.262 -0.2056 -0.8363 -0.7377
  927MOL0     H27910  -0.195  10.700   1.777  1.0128  0.0215 -0.5510
  927MOL0     H27911  -0.267  10.939   1.743 -0.6629  2.9121 -1.1127
  927MOL0     H27912  -0.124  11.261   1.359 -2.2684  0.3587 -1.5024
  927MOL0     H27913  -0.223  11.442   1.243  2.1133  0.6375 -0.4182
  927MOL0     H27914  -0.400  11.537   1.204  2.3551 -0.2863  0.6364
  927MOL0     H27915  -0.507  11.665   1.225  0.9243  2.6902 -1.4835
  927MOL0     H27916  -0.379  11.723   1.048  0.7156 -1.5835  0.0483
  927MOL0     H27917  -0.228  11.682   1.127  0.6146  0.7359  4.5657
  927MOL0     H27918  -0.402  11.920   1.216  1.4689  0.7085  2.5779
  927MOL0     H27919  -0.253  11.871   1.295  0.2563  2.8602 -0.1759
  927MOL0     H27920  -0.250  11.948   1.005  1.1254 -0.5058  0.7779
  927MOL0     H27921  -0.122  11.939   1.134  0.5469  0.2795  3.5639
  927MOL0     H27922  -0.309  12.326   1.187  2.2357 -0.3597  3.6620
  927MOL0     H27923  -0.289  11.646   1.615  1.9148  3.2839 -2.4331
  927MOL0     H27924  -0.299  11.471   1.814  0.1011 -0.4885  1.7393
  927MOL0     H27925  -0.171  11.341   1.816 -0.4441 -0.4560  0.0960
  927MOL0     H27926  -0.138  11.518   1.839  1.4940 -0.4404  0.3050
  928MOL0     O27927   0.356   4.932   9.511  0.4358  0.1841  0.6335
  928MOL0     C27928   0.365   5.028   9.596 -0.5164  1.1897 -0.7842
  928MOL0     O27929   0.476   5.100   9.619 -0.0027 -0.2348  0.2715
  928MOL0     C27930   0.594   5.080   9.545 -1.1506 -0.2765  0.0266
  928MOL0     C27931   0.597   5.085   9.408  0.0816 -0.7376 -0.1716
  928MOL0     C27932   0.721   5.076   9.332  0.1920 -0.3747  0.5591
  928MOL0     C27933   0.841   5.054   9.398  0.5570 -0.2685  0.2950
  928MOL0     O27934   0.967   5.029   9.346  0.4463  0.8544 -0.7481
  928MOL0     C27935   1.054   5.139   9.329 -0.0472  0.2647  0.2744
  928MOL0     C27936   1.197   5.086   9.289  0.4928 -0.6567  0.2591
  928MOL0     C27937   1.208   5.021   9.153 -0.0580  0.4314 -0.9511
  928MOL0     C27938   1.205   4.878   9.189  0.7532  0.5761  0.0640
  928MOL0     C27939   1.217   4.794   9.057  0.2053 -0.4001  0.1972
  928MOL0     C27940   1.145   4.836   8.927 -0.5517  0.2058 -0.0850
  928MOL0     C27941   0.990   4.841   8.923  0.9519  1.0765  0.5739
  928MOL0     C27942   0.918   4.709   8.970 -0.8852 -0.7467  0.8897
  928MOL0     N27943   0.784   4.698   8.921 -0.8226  0.3103 -0.2035
  928MOL0     C27944   0.755   4.624   8.806 -0.6850 -0.3615 -0.1643
  928MOL0     C27945   0.631   4.679   8.776  0.0734 -0.3453 -0.1695
  928MOL0     C27946   0.558   4.641   8.651 -0.1451 -1.0262  0.0779
  928MOL0     C27947   0.643   4.679   8.529 -0.0501 -0.9219 -0.2427
  928MOL0     C27948   0.601   4.591   8.408 -0.0271 -0.2889  0.2724
  928MOL0     C27949   0.450   4.569   8.382  1.6069  0.2604 -0.1587
  928MOL0     O27950   0.379   4.692   8.391  0.4399  0.1660  0.6577
  928MOL0     C27951   0.399   4.791   8.297  0.0453 -0.4439 -0.2038
  928MOL0     C27952   0.478   4.782   8.182 -0.8277  0.9869  0.6173
  928MOL0     C27953   0.490   4.890   8.087  0.1659 -0.4572 -0.2345
  928MOL0     C27954   0.545   4.868   7.945 -0.7141  0.1209  0.0125
  928MOL0     C27955   0.415   5.008   8.106 -0.7680  0.5233  0.1569
  928MOL0     C27956   0.438   5.128   8.013  0.7032 -1.0102  0.2100
  928MOL0     O27957   0.323   5.195   7.989  1.0688 -0.0155 -0.0236
  928MOL0     C27958   0.315   5.312   7.919  1.0467  0.3958 -0.2759
  928MOL0     C27959   0.229   5.418   7.963 -0.1557 -0.0895  0.2244
  928MOL0     C27960   0.215   5.536   7.893  0.7876 -0.2803 -0.2010
  928MOL0     C27961   0.290   5.568   7.783  0.0822  0.2819 -0.4820
  928MOL0     O27962   0.288   5.685   7.713 -0.2047  0.9545 -0.0819
  928MOL0     C27963   0.199   5.691   7.598 -0.6581 -0.2752 -0.9781
  928MOL0     C27964   0.167   5.838   7.581 -0.3207  0.1046  0.2150
  928MOL0     C27965   0.067   5.832   7.465  0.2080 -0.3577 -0.1661
  928MOL0     C27966   0.046   5.979   7.414  0.5166 -0.0462 -0.3735
  928MOL0     C27967   0.099   6.006   7.280  0.4656  0.2715  0.5486
  928MOL0     C27968   0.087   6.161   7.262  0.2007 -0.1439  0.6728
  928MOL0     C27969  -0.033   6.198   7.171  0.0771  0.1482 -0.4461
  928MOL0     C27970  -0.013   6.330   7.111  0.2125 -0.4881  0.7547
  928MOL0    Cl27971   0.116   6.322   6.979 -0.1031 -0.1315 -0.0705
  928MOL0     C27972   0.380   5.464   7.734  0.8006 -0.6456  0.4020
  928MOL0     C27973   0.386   5.335   7.796  0.7994 -0.1807 -0.3165
  928MOL0     O27974   0.552   5.173   7.998 -0.2757 -0.3924  0.3487
  928MOL0     C27975   0.347   5.023   8.224  0.4198 -0.3548 -0.4287
  928MOL0     C27976   0.329   4.915   8.317  0.0770 -0.7225  0.1428
  928MOL0     N27977   0.591   4.772   8.865  0.0484 -0.4106  0.1613
  928MOL0     N27978   0.686   4.788   8.949 -0.1929  0.2122 -0.9013
  928MOL0     C27979   0.829   5.054   9.541 -0.2903 -0.4370 -0.2946
  928MOL0     C27980   0.715   5.065   9.614 -0.8554  0.1231 -1.3395
  928MOL0     C27981   0.251   5.061   9.682 -0.7122 -0.3219  1.0990
  928MOL0     C27982   0.244   5.192   9.728 -0.4086  0.0997  0.1271
  928MOL0     C27983   0.137   5.255   9.788 -0.0448 -0.1720  0.4344
  928MOL0     C27984   0.022   5.179   9.815  0.3666 -0.6694 -0.3161
  928MOL0     O27985  -0.091   5.228   9.879  0.3365  0.0847 -0.1132
  928MOL0     C27986  -0.073   5.327   9.972  0.1934  0.1349 -0.2609
  928MOL0     C27987  -0.180   5.308  10.079  1.0573 -1.1236 -0.3626
  928MOL0     C27988  -0.324   5.295  10.024  0.0734 -0.3719  1.4000
  928MOL0     C27989  -0.435   5.309  10.117 -0.1106  0.5409 -1.0826
  928MOL0     C27990  -0.470   5.449  10.151  0.1660 -0.1826  0.1556
  928MOL0     C27991  -0.484   5.570  10.160  0.4208 -0.3284  0.8469
  928MOL0     C27992   0.033   5.039   9.784 -0.1498 -0.1171  0.0099
  928MOL0     C27993   0.142   4.981   9.706  0.0422 -0.4591 -0.3894
  928MOL0     C27994   0.140   4.837   9.678  0.8159  0.6079 -0.3867
  928MOL0     H27995   0.499   5.101   9.364  1.4496  1.7949 -2.6319
  928MOL0     H27996   0.711   5.085   9.225 -2.2079  0.6887  0.8008
  928MOL0     H27997   1.063   5.191   9.424  0.4280 -3.3258  2.3962
  928MOL0     H27998   1.016   5.202   9.248 -0.7175  0.3039  0.6090
  928MOL0     H27999   1.258   5.177   9.285  2.4180 -1.9259 -1.3736
  928MOL0     H28000   1.249   5.031   9.369 -0.9966 -1.8257  0.4620
  928MOL0     H28001   1.138   5.055   9.076  0.9606 -2.3044 -3.2316
  928MOL0     H28002   1.307   5.041   9.111  0.0218 -0.1710 -1.0636
  928MOL0     H28003   1.274   4.852   9.270  3.8463  1.6909 -2.0206
  928MOL0     H28004   1.105   4.862   9.230  1.1249 -0.1044  0.7363
  928MOL0     H28005   1.194   4.688   9.075  3.0695 -1.8562 -3.5065
  928MOL0     H28006   1.324   4.797   9.038  0.3907  2.2156  1.2031
  928MOL0     H28007   1.176   4.936   8.897 -0.5709 -0.3346 -2.1083
  928MOL0     H28008   1.186   4.772   8.848  0.3291  2.1820 -1.3019
  928MOL0     H28009   0.959   4.864   8.821 -1.2844 -1.3004  0.6154
  928MOL0     H28010   0.966   4.923   8.991  3.1606  1.2306  1.2605
  928MOL0     H28011   0.982   4.631   8.927 -1.7061 -0.1056 -1.6126
  928MOL0     H28012   0.916   4.704   9.080 -0.0986  1.6124  1.0553
  928MOL0     H28013   0.817   4.547   8.759  0.0610 -0.9312  1.6834
  928MOL0     H28014   0.460   4.689   8.647  0.2160 -0.2814 -0.0364
  928MOL0     H28015   0.539   4.533   8.659  1.3423 -1.3038  0.0455
  928MOL0     H28016   0.640   4.785   8.502 -0.3240 -0.7602  0.3961
  928MOL0     H28017   0.752   4.677   8.539  0.3905  3.4473 -1.6509
  928MOL0     H28018   0.647   4.628   8.316 -1.8076  0.1100 -0.4836
  928MOL0     H28019   0.653   4.495   8.415  0.4049 -0.2285 -1.7429
  928MOL0     H28020   0.423   4.512   8.292  0.5332 -0.9005  0.8575
  928MOL0     H28021   0.415   4.493   8.452  4.7966 -2.9512 -1.7436
  928MOL0     H28022   0.518   4.685   8.153 -2.0048  0.7214 -0.1877
  928MOL0     H28023   0.624   4.944   7.943 -3.3705  3.0925  0.2374
  928MOL0     H28024   0.470   4.902   7.873 -2.0949  2.8387  2.5105
  928MOL0     H28025   0.582   4.771   7.912 -3.2467 -0.7575 -0.4974
  928MOL0     H28026   0.174   5.392   8.053  0.9241 -2.1803  0.3432
  928MOL0     H28027   0.139   5.609   7.919  0.0416 -1.4236  0.9901
  928MOL0     H28028   0.266   5.651   7.521  1.9411  1.9395 -0.0428
  928MOL0     H28029   0.117   5.620   7.611  0.4640 -1.3991  0.3003
  928MOL0     H28030   0.124   5.887   7.669 -2.2713 -0.2598 -0.4709
  928MOL0     H28031   0.257   5.896   7.558  1.4646 -0.8284  4.0994
  928MOL0     H28032  -0.023   5.774   7.490 -0.1698 -0.1386 -0.9866
  928MOL0     H28033   0.106   5.769   7.384  0.4386 -0.6483  0.1668
  928MOL0     H28034   0.084   6.056   7.482 -1.1257  0.2008  0.3096
  928MOL0     H28035  -0.062   5.991   7.427  0.6986 -0.1972  1.4334
  928MOL0     H28036   0.205   5.980   7.287 -0.0881 -2.5017 -0.0325
  928MOL0     H28037   0.043   5.950   7.204  1.9820 -1.5524  0.6895
  928MOL0     H28038   0.178   6.203   7.216 -0.0479  0.5496  0.8020
  928MOL0     H28039   0.079   6.202   7.363  0.4592 -2.9240  1.9186
  928MOL0     H28040  -0.119   6.197   7.238  1.1772 -2.1251  1.0233
  928MOL0     H28041  -0.044   6.138   7.080  3.0984  2.2074 -2.3894
  928MOL0     H28042   0.009   6.407   7.185 -0.5030  1.5407 -1.0537
  928MOL0     H28043  -0.101   6.357   7.052  1.3546 -0.5177 -1.0334
  928MOL0     H28044   0.435   5.491   7.645 -1.3409  0.8342 -0.5711
  928MOL0     H28045   0.454   5.260   7.756 -1.8084 -2.2435 -1.1971
  928MOL0     H28046   0.299   5.120   8.233  0.6572 -0.1080 -1.6982
  928MOL0     H28047   0.261   4.926   8.400 -2.2642 -0.1816 -1.7342
  928MOL0     H28048   0.926   5.025   9.583  1.2953  3.6059 -0.6859
  928MOL0     H28049   0.722   5.043   9.720 -0.2787  1.2798 -1.1231
  928MOL0     H28050   0.322   5.262   9.703  1.4235 -1.3578  1.4107
  928MOL0     H28051   0.136   5.360   9.813  0.7804 -0.3253  1.1636
  928MOL0     H28052   0.025   5.313  10.017 -1.3231 -5.1872  2.1650
  928MOL0     H28053  -0.089   5.426   9.928 -1.6534 -0.6228 -1.4111
  928MOL0     H28054  -0.178   5.404  10.133  1.5489  0.3963 -2.9099
  928MOL0     H28055  -0.165   5.227  10.150 -0.7083  0.7842  2.4088
  928MOL0     H28056  -0.348   5.359   9.938  0.0665  0.1447  1.7833
  928MOL0     H28057  -0.337   5.190   9.996  2.3575 -0.4069  0.1722
  928MOL0     H28058  -0.418   5.262  10.214  0.9184  0.9244 -1.0605
  928MOL0     H28059  -0.517   5.255  10.070  2.5092 -3.3570 -1.6295
  928MOL0     H28060  -0.493   5.675  10.175  0.1565 -0.5207  2.2764
  928MOL0     H28061  -0.051   4.977   9.814 -0.0567 -0.1804  0.1397
  928MOL0     H28062   0.094   4.788   9.764  0.1487  0.2687 -0.9326
  928MOL0     H28063   0.079   4.809   9.591 -1.4221  1.4479  0.8440
  928MOL0     H28064   0.243   4.799   9.671  1.7057  3.1517 -2.3567
  929MOL0     O28065   2.762  10.563   2.166  0.0531  0.4911  0.4542
  929MOL0     C28066   2.726  10.518   2.270 -0.5968  0.3192 -0.4421
  929MOL0     O28067   2.811  10.491   2.379 -0.7007  0.2274 -0.7202
  929MOL0     C28068   2.947  10.518   2.375 -0.3301 -0.0232  0.1881
  929MOL0     C28069   3.001  10.626   2.440  0.0226 -0.1668 -0.4908
  929MOL0     C28070   3.134  10.663   2.428  0.4668 -0.5574  0.1404
  929MOL0     C28071   3.229  10.583   2.378 -0.8118  0.0802 -0.3188
  929MOL0     O28072   3.357  10.625   2.394 -0.5471 -0.3392 -0.5160
  929MOL0     C28073   3.460  10.541   2.328 -0.0151 -1.5428  0.3809
  929MOL0     C28074   3.594  10.622   2.362  0.2943  0.4600 -0.4254
  929MOL0     C28075   3.718  10.545   2.319  0.2270 -0.8725  0.4953
  929MOL0     C28076   3.834  10.634   2.312  0.9577 -0.3092  0.5189
  929MOL0     C28077   3.942  10.575   2.213 -0.7672 -0.5996 -0.6418
  929MOL0     C28078   4.064  10.667   2.226  0.6508  0.4775  0.3435
  929MOL0     C28079   4.169  10.669   2.115 -1.3812  0.6291  0.4745
  929MOL0     C28080   4.243  10.533   2.124  0.6032 -0.0724 -0.8883
  929MOL0     N28081   4.354  10.510   2.029 -0.3656  0.2252 -0.7632
  929MOL0     C28082   4.471  10.582   2.022  0.3306 -0.3753 -0.5809
  929MOL0     C28083   4.539  10.528   1.924  0.0266  0.1859 -0.2442
  929MOL0     C28084   4.674  10.564   1.861  0.1512 -0.2015  0.8454
  929MOL0     C28085   4.745  10.679   1.938 -0.2741  0.6387  0.6892
  929MOL0     C28086   4.884  10.722   1.871  0.1869 -0.4553 -0.7691
  929MOL0     C28087   4.891  10.878   1.897 -0.2897  0.9459  0.6315
  929MOL0     O28088   4.888  10.904   2.040 -0.2950  0.4794  1.2224
  929MOL0     C28089   5.001  10.890   2.114  1.0376 -0.2766 -0.1100
  929MOL0     C28090   4.968  10.898   2.249 -0.3515  0.1760  0.6108
  929MOL0     C28091   5.068  10.909   2.350 -0.6154 -0.1400  0.7485
  929MOL0     C28092   5.032  10.909   2.491  1.6153 -0.1172 -0.2817
  929MOL0     C28093   5.202  10.929   2.310  0.3758 -0.2144 -0.6549
  929MOL0     C28094   5.307  10.939   2.405 -0.1936  0.5399  0.1127
  929MOL0     O28095   5.317  11.054   2.467  0.4014 -0.3511 -0.2554
  929MOL0     C28096   5.395  11.083   2.577  0.9566  0.7560 -0.3237
  929MOL0     C28097   5.462  10.985   2.651 -0.1819 -1.1174 -0.1007
  929MOL0     C28098   5.547  11.020   2.761  0.1764 -0.5396  0.5512
  929MOL0     C28099   5.538  11.150   2.810 -0.1226 -0.4897 -0.2134
  929MOL0     O28100   5.604  11.190   2.926 -0.0810  0.1394 -0.0402
  929MOL0     C28101   5.739  11.156   2.960  0.1674  0.1504 -0.4806
  929MOL0     C28102   5.790  11.240   3.078  0.1377  1.1093  0.1270
  929MOL0     C28103   5.943  11.242   3.096 -0.3466  0.3482  0.0401
  929MOL0     C28104   6.010  11.306   2.971  0.4295 -0.0298 -1.0516
  929MOL0     C28105   6.163  11.312   2.978  0.5993  0.1830  0.2284
  929MOL0     C28106   6.220  11.417   3.080 -0.5790  0.2055 -0.2289
  929MOL0     C28107   6.360  11.465   3.047  0.0208  0.2820 -0.4163
  929MOL0     C28108   6.463  11.351   3.074  0.5230  0.3892  0.2129
  929MOL0    Cl28109   6.493  11.324   3.254 -0.4808  0.5220 -0.1666
  929MOL0     C28110   5.471  11.248   2.741 -0.5223 -0.4090 -0.1230
  929MOL0     C28111   5.396  11.208   2.627  0.5384 -0.5518  0.6852
  929MOL0     O28112   5.394  10.851   2.398  0.2980  0.1152  0.3942
  929MOL0     C28113   5.238  10.925   2.164 -0.2920 -0.7867  0.2216
  929MOL0     C28114   5.133  10.897   2.076 -0.4318  0.4851 -0.2349
  929MOL0     N28115   4.471  10.419   1.871  0.1518 -0.1099  0.7446
  929MOL0     N28116   4.360  10.403   1.943 -0.7011  0.0438  0.0821
  929MOL0     C28117   3.171  10.463   2.320 -0.2153 -0.2208  0.6789
  929MOL0     C28118   3.031  10.443   2.304 -1.1690  0.2914 -0.6349
  929MOL0     C28119   2.579  10.481   2.296 -0.1842  0.6633  1.1152
  929MOL0     C28120   2.509  10.440   2.178  0.3540 -0.2132 -0.6912
  929MOL0     C28121   2.374  10.407   2.185 -0.0418 -0.9869 -0.0795
  929MOL0     C28122   2.298  10.440   2.299  0.0689  0.3027 -0.2845
  929MOL0     O28123   2.166  10.427   2.308 -0.3799 -0.5453  0.9137
  929MOL0     C28124   2.087  10.546   2.316 -0.0293  0.3843 -0.7121
  929MOL0     C28125   1.943  10.513   2.318  0.9222  0.3692  0.3004
  929MOL0     C28126   1.892  10.434   2.188  0.8645 -0.6737  0.4157
  929MOL0     C28127   1.767  10.347   2.209  0.9169 -0.6791  1.0314
  929MOL0     C28128   1.648  10.425   2.260 -0.1417 -0.0242 -0.0095
  929MOL0     C28129   1.560  10.485   2.310 -0.2119 -0.1367  0.0611
  929MOL0     C28130   2.368  10.473   2.418 -1.4398 -0.1834 -0.0583
  929MOL0     C28131   2.514  10.489   2.420  0.1790 -0.7786  0.3026
  929MOL0     C28132   2.579  10.526   2.556  0.0679  0.8501  0.5750
  929MOL0     H28133   2.933  10.694   2.490 -2.3952 -2.1497 -0.8633
  929MOL0     H28134   3.163  10.762   2.464  0.6563 -0.5182 -0.1176
  929MOL0     H28135   3.443  10.548   2.220 -3.8462  1.4451  0.9525
  929MOL0     H28136   3.457  10.437   2.362  0.5024 -0.8182  2.8234
  929MOL0     H28137   3.578  10.717   2.310  0.2274 -0.8130 -2.8939
  929MOL0     H28138   3.597  10.628   2.471  0.7813  1.2876 -0.4754
  929MOL0     H28139   3.742  10.469   2.394 -0.8358 -1.3171  0.3929
  929MOL0     H28140   3.713  10.498   2.220 -2.2810 -0.5522  0.4247
  929MOL0     H28141   3.808  10.736   2.282 -0.1480 -1.1711 -1.6335
  929MOL0     H28142   3.870  10.637   2.415  1.8999 -2.3152  0.2995
  929MOL0     H28143   3.911  10.564   2.109 -0.4694  0.6094 -0.8736
  929MOL0     H28144   3.969  10.477   2.254 -1.4978 -0.8843 -0.8261
  929MOL0     H28145   4.023  10.769   2.228  0.0055  0.2138  1.2443
  929MOL0     H28146   4.118  10.647   2.318  1.4829 -0.2922 -0.3021
  929MOL0     H28147   4.244  10.746   2.136 -0.9157 -0.1326  1.7027
  929MOL0     H28148   4.130  10.678   2.013  0.6211 -3.1558 -0.8228
  929MOL0     H28149   4.292  10.521   2.221  0.2262  0.8145 -0.5736
  929MOL0     H28150   4.177  10.446   2.126  0.7334 -0.2675 -3.1390
  929MOL0     H28151   4.498  10.668   2.082  1.0284 -0.1036 -1.2512
  929MOL0     H28152   4.669  10.577   1.752 -0.5618 -0.7187  0.8127
  929MOL0     H28153   4.747  10.483   1.875 -0.7721 -1.4742 -1.2606
  929MOL0     H28154   4.682  10.766   1.960  0.3915  1.0786  0.8562
  929MOL0     H28155   4.768  10.630   2.032  0.9372 -0.8270 -0.3304
  929MOL0     H28156   4.975  10.676   1.908 -0.1679 -0.3633  0.2649
  929MOL0     H28157   4.873  10.689   1.768 -0.5777 -1.9367 -0.2423
  929MOL0     H28158   4.983  10.909   1.846  2.9649 -0.2386  5.1852
  929MOL0     H28159   4.809  10.928   1.844  2.4506  3.3359 -1.7572
  929MOL0     H28160   4.863  10.905   2.274 -0.9447  1.5701 -1.8750
  929MOL0     H28161   5.106  10.857   2.552 -2.0220 -1.6897  3.2358
  929MOL0     H28162   4.934  10.859   2.496  1.3961  0.4027  0.8876
  929MOL0     H28163   5.016  11.011   2.529  0.4869 -1.0747  2.0110
  929MOL0     H28164   5.458  10.879   2.629  0.8613 -1.2283  0.1794
  929MOL0     H28165   5.599  10.951   2.825 -0.1094 -0.4086  0.9284
  929MOL0     H28166   5.738  11.051   2.992 -2.5228  0.8049  2.0811
  929MOL0     H28167   5.805  11.154   2.873  1.0070 -1.8516  0.1519
  929MOL0     H28168   5.769  11.346   3.063 -2.0538  1.0222  2.0546
  929MOL0     H28169   5.741  11.198   3.166 -3.0875  2.9952 -0.6123
  929MOL0     H28170   5.984  11.142   3.106 -0.6535  0.2969  0.9367
  929MOL0     H28171   5.970  11.290   3.191 -1.3145  0.1609  0.4232
  929MOL0     H28172   5.983  11.408   2.945  1.2117  1.1199  2.1276
  929MOL0     H28173   5.992  11.252   2.878  0.3271 -0.5728 -0.7267
  929MOL0     H28174   6.197  11.210   2.998  0.2398  0.2746  1.3919
  929MOL0     H28175   6.181  11.343   2.874 -2.6598  0.4805 -0.3513
  929MOL0     H28176   6.216  11.373   3.180  2.3847 -1.4927 -0.7642
  929MOL0     H28177   6.153  11.503   3.091  0.6796  1.0181  1.5553
  929MOL0     H28178   6.376  11.543   3.121 -1.7115 -0.7945  1.1679
  929MOL0     H28179   6.371  11.517   2.951 -2.4539  1.5995 -0.0465
  929MOL0     H28180   6.554  11.386   3.026  0.4046 -0.9476 -1.0559
  929MOL0     H28181   6.422  11.259   3.031 -2.1801  0.2674  2.7144
  929MOL0     H28182   5.483  11.350   2.779  3.0834 -0.7212 -0.0858
  929MOL0     H28183   5.337  11.284   2.577 -0.1228 -1.9676 -0.7704
  929MOL0     H28184   5.339  10.946   2.128  1.6122 -2.4540  4.0620
  929MOL0     H28185   5.156  10.891   1.970 -0.3239 -2.2867 -0.1391
  929MOL0     H28186   3.245  10.394   2.282  0.5487  1.4140 -0.9659
  929MOL0     H28187   2.980  10.364   2.251  1.6549 -1.9226 -0.2368
  929MOL0     H28188   2.554  10.439   2.079  1.3050 -0.9426 -0.2739
  929MOL0     H28189   2.319  10.365   2.101  1.2633  0.0537 -1.5086
  929MOL0     H28190   2.119  10.615   2.394 -1.0807  0.1119 -0.0173
  929MOL0     H28191   2.091  10.587   2.215 -0.7980 -1.2638 -1.4655
  929MOL0     H28192   1.881  10.602   2.327 -2.9511 -2.1605  1.2881
  929MOL0     H28193   1.922  10.461   2.412  0.3370 -0.0485 -0.0495
  929MOL0     H28194   1.876  10.504   2.105  1.9634 -1.4049 -0.4445
  929MOL0     H28195   1.974  10.366   2.162  2.1541  1.2320 -0.7560
  929MOL0     H28196   1.785  10.271   2.285  0.6812  1.1714  3.0687
  929MOL0     H28197   1.742  10.307   2.111  0.8120  2.8928 -0.5758
  929MOL0     H28198   1.465  10.526   2.336  0.5771  0.8106  1.5884
  929MOL0     H28199   2.305  10.493   2.505 -2.5438  0.2232 -0.9265
  929MOL0     H28200   2.504  10.578   2.616  0.1376 -0.8061  2.2066
  929MOL0     H28201   2.613  10.439   2.613 -2.1357  1.9410  3.8628
  929MOL0     H28202   2.661  10.597   2.548  1.3624 -0.8102 -2.5160
  930MOL0     O28203  11.505   2.470   3.458  0.6114 -0.5363 -0.7633
  930MOL0     C28204  11.462   2.484   3.347  0.9547  0.4079  0.3279
  930MOL0     O28205  11.334   2.516   3.318  0.3123  0.4836 -0.6707
  930MOL0     C28206  11.229   2.456   3.391  0.3617  0.0881  0.1089
  930MOL0     C28207  11.120   2.534   3.435 -0.2328  1.1339 -1.1778
  930MOL0     C28208  11.015   2.480   3.504  0.3716  0.0107  0.3296
  930MOL0     C28209  11.014   2.344   3.538 -0.1631  0.3710 -0.3013
  930MOL0     O28210  10.909   2.305   3.615  0.5267 -0.1105 -0.0886
  930MOL0     C28211  10.861   2.176   3.589  0.2362  0.1688 -0.6988
  930MOL0     C28212  10.738   2.134   3.673 -0.0438 -0.3870 -0.3516
  930MOL0     C28213  10.762   2.138   3.823  0.2289 -1.0180  0.5387
  930MOL0     C28214  10.620   2.165   3.898 -0.1152 -0.4291 -0.4342
  930MOL0     C28215  10.614   2.094   4.041 -0.6552  0.3007  0.6838
  930MOL0     C28216  10.678   2.180   4.143  0.2044 -0.2272 -0.1143
  930MOL0     C28217  10.685   2.116   4.286 -0.5124 -0.6087 -0.0807
  930MOL0     C28218  10.731   2.225   4.395 -0.1264 -0.0343 -0.2061
  930MOL0     N28219  10.722   2.174   4.535  0.0556 -0.1526 -0.0319
  930MOL0     C28220  10.792   2.224   4.638 -1.1754 -0.2028  0.3417
  930MOL0     C28221  10.743   2.180   4.755  0.9375 -0.3007 -1.0239
  930MOL0     C28222  10.779   2.216   4.889  0.3948  0.3586 -0.8600
  930MOL0     C28223  10.922   2.175   4.925  0.5613 -0.7816  0.5077
  930MOL0     C28224  10.963   2.221   5.063  0.6935 -0.0370 -1.1536
  930MOL0     C28225  11.118   2.224   5.083 -0.8450 -0.3346  0.4345
  930MOL0     O28226  11.172   2.291   5.194 -0.8346 -0.6347  0.0244
  930MOL0     C28227  11.188   2.226   5.315 -0.4112 -0.0329 -0.4060
  930MOL0     C28228  11.129   2.103   5.345  0.1981 -0.0276 -0.8465
  930MOL0     C28229  11.148   2.040   5.469 -0.7830  0.8278 -0.5815
  930MOL0     C28230  11.087   1.905   5.493  0.5133  0.3290 -0.0746
  930MOL0     C28231  11.246   2.098   5.564 -0.1368  0.3885 -0.3182
  930MOL0     C28232  11.274   2.039   5.703 -0.1449  0.0367  0.3871
  930MOL0     O28233  11.335   2.127   5.796  0.2474 -0.0299  0.1917
  930MOL0     C28234  11.380   2.089   5.921  0.3321  0.3636  0.1109
  930MOL0     C28235  11.420   1.957   5.944 -1.2065 -0.6624 -0.5672
  930MOL0     C28236  11.476   1.912   6.069  0.3821 -0.8053  0.6300
  930MOL0     C28237  11.505   2.004   6.171 -0.2528 -0.1359 -0.2564
  930MOL0     O28238  11.550   1.962   6.292  0.2910  0.2723 -0.5067
  930MOL0     C28239  11.533   1.828   6.332 -0.0456 -0.2777 -1.5360
  930MOL0     C28240  11.410   1.812   6.429  0.6720  0.0241 -0.3741
  930MOL0     C28241  11.273   1.841   6.349 -0.4769  0.4344  0.0229
  930MOL0     C28242  11.239   1.744   6.244  1.1362  0.0458 -1.2559
  930MOL0     C28243  11.135   1.807   6.153  0.0937 -0.4583  0.0744
  930MOL0     C28244  11.089   1.717   6.039  0.5397 -0.1418 -0.0590
  930MOL0     C28245  10.949   1.776   5.994 -0.0100  0.0892 -0.1099
  930MOL0     C28246  10.891   1.690   5.884 -0.0355 -0.6270  1.2846
  930MOL0    Cl28247  10.770   1.792   5.789 -0.0845 -0.0248  0.3419
  930MOL0     C28248  11.467   2.135   6.143  0.4304  0.6741 -0.6641
  930MOL0     C28249  11.395   2.179   6.026  0.4651  0.2970 -0.4255
  930MOL0     O28250  11.240   1.928   5.730  0.2579  0.4447  0.5256
  930MOL0     C28251  11.309   2.217   5.522 -0.3276  0.2496 -0.4761
  930MOL0     C28252  11.286   2.279   5.400 -0.9899 -0.0206  0.5030
  930MOL0     N28253  10.648   2.081   4.716  0.1824 -0.7835  0.1407
  930MOL0     N28254  10.631   2.089   4.586  0.1286  0.1647  0.0366
  930MOL0     C28255  11.123   2.266   3.509 -0.6298 -0.3349  0.0710
  930MOL0     C28256  11.222   2.313   3.419 -0.0807 -0.3782 -0.7154
  930MOL0     C28257  11.552   2.471   3.229  0.8880  0.1406 -0.3640
  930MOL0     C28258  11.493   2.436   3.110  0.3153 -0.2783  0.6004
  930MOL0     C28259  11.579   2.408   2.989  1.0107  0.3319 -0.1897
  930MOL0     C28260  11.717   2.405   3.007 -0.9763 -0.1176  0.0598
  930MOL0     O28261  11.803   2.368   2.903  0.1505 -0.0399  0.1207
  930MOL0     C28262  11.745   2.321   2.781 -0.4787 -0.7943  0.0184
  930MOL0     C28263  11.860   2.284   2.695 -0.0687  0.6241  0.6764
  930MOL0     C28264  11.940   2.402   2.633 -0.0173  0.9273  0.0364
  930MOL0     C28265  11.931   2.433   2.489  0.1021 -0.2960 -0.1954
  930MOL0     C28266  11.798   2.474   2.441 -0.4802  0.0172  0.0260
  930MOL0     C28267  11.698   2.522   2.402  0.7472 -0.1720 -0.4741
  930MOL0     C28268  11.769   2.455   3.124 -0.0185 -0.0474 -0.5067
  930MOL0     C28269  11.690   2.488   3.228 -0.1562  0.4775 -0.4281
  930MOL0     C28270  11.764   2.527   3.355 -0.2369 -0.6735  0.4882
  930MOL0     H28271  11.114   2.640   3.413  2.0739  0.8718 -3.7114
  930MOL0     H28272  10.929   2.534   3.543 -0.8942 -0.7078 -1.3181
  930MOL0     H28273  10.928   2.093   3.612 -0.9545 -0.9483 -1.1198
  930MOL0     H28274  10.828   2.168   3.485  0.0738 -1.2246 -0.5507
  930MOL0     H28275  10.654   2.197   3.642 -1.5202 -3.1446 -2.4484
  930MOL0     H28276  10.721   2.034   3.632  0.0064 -1.4890  2.1371
  930MOL0     H28277  10.810   2.047   3.858 -0.6197 -1.7926 -0.2644
  930MOL0     H28278  10.821   2.224   3.856 -2.0218  0.6677  0.4907
  930MOL0     H28279  10.600   2.271   3.919 -2.0727 -0.6312 -1.0337
  930MOL0     H28280  10.538   2.135   3.832 -1.0606  0.9548  0.0652
  930MOL0     H28281  10.664   1.997   4.030 -1.3163 -0.0026  0.2656
  930MOL0     H28282  10.509   2.080   4.069 -0.2345 -3.1737  1.0526
  930MOL0     H28283  10.783   2.192   4.113  0.1127 -1.5965 -1.0924
  930MOL0     H28284  10.624   2.273   4.158  1.3118  0.8422 -2.3018
  930MOL0     H28285  10.740   2.022   4.289  0.3565 -0.1749 -1.3716
  930MOL0     H28286  10.582   2.082   4.302 -0.9606 -0.3541 -2.1272
  930MOL0     H28287  10.836   2.247   4.372 -0.8777  1.0228 -2.9139
  930MOL0     H28288  10.673   2.317   4.397 -1.7821 -1.0103  2.4640
  930MOL0     H28289  10.879   2.286   4.620  1.1651 -2.8653  1.8717
  930MOL0     H28290  10.696   2.182   4.952 -0.0906  2.9802  0.0694
  930MOL0     H28291  10.769   2.325   4.898 -4.1325 -0.0284  2.0110
  930MOL0     H28292  10.957   2.072   4.923  2.1973 -0.3561  2.9364
  930MOL0     H28293  10.982   2.224   4.847 -2.8477  0.2379 -1.7152
  930MOL0     H28294  10.920   2.321   5.078  1.2196 -0.2142  2.1865
  930MOL0     H28295  10.915   2.149   5.130  2.6172  1.6373  2.2882
  930MOL0     H28296  11.167   2.127   5.071  0.2074  0.1524  0.7287
  930MOL0     H28297  11.157   2.281   4.999  2.2896 -2.8532  0.0007
  930MOL0     H28298  11.059   2.054   5.277 -0.8783  0.2097  0.0541
  930MOL0     H28299  11.016   1.893   5.411  1.3163  1.8811 -1.0362
  930MOL0     H28300  11.031   1.900   5.587 -0.5413 -0.6161 -0.7255
  930MOL0     H28301  11.163   1.828   5.476  0.1682 -1.1844  4.0371
  930MOL0     H28302  11.430   1.905   5.849 -1.3531  2.7514 -2.6017
  930MOL0     H28303  11.502   1.808   6.085  0.6047 -0.9284 -0.5172
  930MOL0     H28304  11.549   1.745   6.262  1.1063 -2.5197  1.1651
  930MOL0     H28305  11.614   1.805   6.402 -1.1394 -0.3986 -0.2756
  930MOL0     H28306  11.408   1.707   6.460  2.2095  0.0637 -0.0684
  930MOL0     H28307  11.419   1.881   6.513 -1.3570  0.4170 -0.4226
  930MOL0     H28308  11.281   1.943   6.309  0.6760  0.3762  0.0658
  930MOL0     H28309  11.187   1.840   6.416 -0.7490  1.1404 -0.3056
  930MOL0     H28310  11.196   1.653   6.286 -1.8122 -0.1138 -4.2299
  930MOL0     H28311  11.329   1.724   6.186 -0.1161  1.1540 -3.7181
  930MOL0     H28312  11.054   1.845   6.216 -1.6334  0.2585 -2.4063
  930MOL0     H28313  11.175   1.896   6.104 -1.1830 -1.8304 -3.9468
  930MOL0     H28314  11.071   1.614   6.071 -2.5438  0.2811 -0.0700
  930MOL0     H28315  11.156   1.716   5.953  1.9959 -2.3048  1.0157
  930MOL0     H28316  10.963   1.880   5.962 -0.7328 -0.6712 -3.2786
  930MOL0     H28317  10.875   1.772   6.074  1.1496 -1.1041  0.9504
  930MOL0     H28318  10.842   1.604   5.930  0.5624 -1.1911  0.8881
  930MOL0     H28319  10.970   1.654   5.817  0.0609  2.0225 -0.1579
  930MOL0     H28320  11.461   2.204   6.227 -0.3537 -1.8839  1.5203
  930MOL0     H28321  11.367   2.283   6.016 -1.0426  0.3710  3.0890
  930MOL0     H28322  11.382   2.260   5.590 -0.4705  0.0380 -0.1872
  930MOL0     H28323  11.340   2.367   5.368  0.4102 -0.7763  0.6927
  930MOL0     H28324  11.114   2.161   3.536 -2.1516  0.0001  0.9681
  930MOL0     H28325  11.314   2.262   3.392  1.1482 -0.4535  2.9942
  930MOL0     H28326  11.385   2.428   3.099 -0.0385  2.6841  0.9995
  930MOL0     H28327  11.518   2.369   2.907  0.5868 -2.9950  1.5361
  930MOL0     H28328  11.672   2.239   2.785 -0.2759 -1.0757 -1.6432
  930MOL0     H28329  11.686   2.401   2.735  0.7318  1.5095  2.1644
  930MOL0     H28330  11.803   2.232   2.617 -3.1016  0.1828  3.0058
  930MOL0     H28331  11.933   2.214   2.737 -2.0983 -2.7448 -0.9423
  930MOL0     H28332  11.925   2.491   2.694  0.9858  0.2809  1.2607
  930MOL0     H28333  12.045   2.372   2.635  0.3737  2.2101 -0.3235
  930MOL0     H28334  11.956   2.343   2.432  1.9469 -0.7462  1.2388
  930MOL0     H28335  11.992   2.520   2.462 -0.9558  1.7810  3.4010
  930MOL0     H28336  11.604   2.557   2.367 -0.4120 -2.0410  0.5986
  930MOL0     H28337  11.877   2.463   3.129 -0.1544  2.0844  0.1105
  930MOL0     H28338  11.864   2.556   3.323 -0.7806  1.0535  0.2593
  930MOL0     H28339  11.739   2.621   3.405  1.4882  0.3514 -0.4968
  930MOL0     H28340  11.763   2.453   3.436 -3.5463 -2.1624 -0.7112
  931MOL0     O28341   4.536   0.901   6.630 -0.1117  0.5287  0.4298
  931MOL0     C28342   4.533   0.944   6.518  0.3439  0.1417 -0.5205
  931MOL0     O28343   4.618   0.901   6.422  0.1148  0.0419  0.2198
  931MOL0     C28344   4.717   0.820   6.462 -0.0419  0.9246 -0.5947
  931MOL0     C28345   4.851   0.871   6.467 -0.6910  0.2052 -0.5165
  931MOL0     C28346   4.956   0.787   6.501 -0.0791 -0.5289 -0.2416
  931MOL0     C28347   4.935   0.650   6.527  0.7126 -0.1818 -0.1378
  931MOL0     O28348   5.029   0.551   6.526 -0.3185 -0.5899  0.3385
  931MOL0     C28349   5.151   0.591   6.587 -0.9443 -0.2863  0.6032
  931MOL0     C28350   5.259   0.486   6.604  0.0253 -0.6209  0.8178
  931MOL0     C28351   5.230   0.365   6.701 -0.0809 -0.6030 -1.3283
  931MOL0     C28352   5.221   0.408   6.852  0.8710  0.0236 -0.0946
  931MOL0     C28353   5.201   0.278   6.940 -0.2448  0.6049 -0.6993
  931MOL0     C28354   5.221   0.300   7.090  0.1289  0.5503  1.1789
  931MOL0     C28355   5.194   0.170   7.170 -0.6676 -0.2800 -0.6044
  931MOL0     C28356   5.182   0.211   7.319  0.4083  0.0912 -0.0521
  931MOL0     N28357   5.307   0.288   7.358  0.3185 -0.2534  0.2830
  931MOL0     C28358   5.316   0.428   7.359 -0.6064  0.1432 -0.9397
  931MOL0     C28359   5.441   0.443   7.412 -0.2600  0.9689  0.2496
  931MOL0     C28360   5.500   0.575   7.447 -0.0587  0.6403  0.4357
  931MOL0     C28361   5.607   0.554   7.558 -0.4720  0.0090 -0.4739
  931MOL0     C28362   5.655   0.695   7.609  0.4461 -0.1814  1.3614
  931MOL0     C28363   5.750   0.674   7.719  0.2618  0.3961  0.3623
  931MOL0     O28364   5.796   0.791   7.782 -0.2252 -0.5176  0.3857
  931MOL0     C28365   5.930   0.819   7.777 -0.3841  0.3189  0.4054
  931MOL0     C28366   6.012   0.742   7.856  0.9179 -0.3393 -0.6309
  931MOL0     C28367   6.147   0.761   7.858  0.1746  1.3274  0.1240
  931MOL0     C28368   6.235   0.659   7.921  0.2948  0.3394  0.2577
  931MOL0     C28369   6.205   0.858   7.776 -0.1904 -0.2986 -0.1142
  931MOL0     C28370   6.353   0.886   7.770  0.4760 -0.1915 -0.5133
  931MOL0     O28371   6.434   0.835   7.864 -0.0438 -0.9739 -0.4301
  931MOL0     C28372   6.566   0.868   7.868 -0.0498  0.5136 -0.4951
  931MOL0     C28373   6.608   0.976   7.930 -0.8861  0.2361  0.0538
  931MOL0     C28374   6.740   1.015   7.925  0.0469  0.3955  0.6876
  931MOL0     C28375   6.834   0.942   7.851 -0.2160  0.8998  0.6157
  931MOL0     O28376   6.960   0.990   7.841 -0.1803 -0.7036  0.4286
  931MOL0     C28377   7.067   0.896   7.822 -0.1312 -0.6021 -0.5087
  931MOL0     C28378   7.183   0.926   7.919 -0.2846  0.2263 -0.0298
  931MOL0     C28379   7.293   0.826   7.919  0.1136  0.3511 -0.0906
  931MOL0     C28380   7.386   0.831   7.794 -0.1412 -0.0142  0.2959
  931MOL0     C28381   7.488   0.721   7.789 -0.7124 -0.7623  0.0906
  931MOL0     C28382   7.524   0.697   7.635  0.0234  0.5273 -0.5903
  931MOL0     C28383   7.630   0.585   7.625  1.0747  0.3354 -0.1723
  931MOL0     C28384   7.688   0.566   7.481 -0.2026  0.3815  0.1833
  931MOL0    Cl28385   7.571   0.567   7.359 -0.0903  0.3915  0.0641
  931MOL0     C28386   6.783   0.826   7.789 -0.2014  0.4097 -0.9561
  931MOL0     C28387   6.653   0.788   7.810 -1.0581  1.0882 -0.4203
  931MOL0     O28388   6.395   0.930   7.663  0.0854 -0.2940  0.6331
  931MOL0     C28389   6.116   0.940   7.699  0.3213  0.1166 -1.0436
  931MOL0     C28390   5.981   0.922   7.707 -0.1830  0.7673 -0.1331
  931MOL0     N28391   5.503   0.325   7.439 -0.3959  0.0260  0.4655
  931MOL0     N28392   5.423   0.239   7.402  0.2076 -0.3027 -0.2972
  931MOL0     C28393   4.804   0.601   6.545 -0.5097  0.3670  1.0305
  931MOL0     C28394   4.705   0.693   6.507 -0.0315  0.3984 -0.9809
  931MOL0     C28395   4.441   1.056   6.493  0.3151 -0.7700  0.0898
  931MOL0     C28396   4.420   1.092   6.358  0.2002 -1.4106  1.2843
  931MOL0     C28397   4.342   1.203   6.321  0.4356  0.3829  0.6996
  931MOL0     C28398   4.270   1.284   6.411 -0.0250  1.3700  0.0184
  931MOL0     O28399   4.204   1.396   6.375  0.4756  0.3161  0.5544
  931MOL0     C28400   4.172   1.498   6.474  0.2327  0.2975 -0.0295
  931MOL0     C28401   4.107   1.618   6.413  0.1779 -0.3187 -0.0577
  931MOL0     C28402   3.973   1.578   6.345 -0.8741 -0.2383 -0.5220
  931MOL0     C28403   3.852   1.552   6.438 -0.8827 -0.6324  0.1796
  931MOL0     C28404   3.840   1.667   6.524  0.4357  0.5196 -0.4238
  931MOL0     C28405   3.817   1.770   6.591  0.2391 -0.5504  0.8936
  931MOL0     C28406   4.273   1.237   6.541  0.4882 -0.4077 -0.2723
  931MOL0     C28407   4.350   1.122   6.585 -1.4452  0.0346  0.3057
  931MOL0     C28408   4.347   1.090   6.734 -0.3659  0.3134  1.1004
  931MOL0     H28409   4.868   0.976   6.446  0.9405 -0.2111 -1.4315
  931MOL0     H28410   5.054   0.835   6.497 -0.9396  1.3505  0.1792
  931MOL0     H28411   5.147   0.649   6.680 -2.2114  1.7407 -0.6232
  931MOL0     H28412   5.204   0.653   6.515  3.7262 -4.6153 -0.2335
  931MOL0     H28413   5.265   0.444   6.503  1.0685  1.3176  0.0287
  931MOL0     H28414   5.351   0.543   6.621 -1.3231  2.1153 -0.4084
  931MOL0     H28415   5.135   0.318   6.672 -0.8593  0.3430 -0.3764
  931MOL0     H28416   5.298   0.282   6.681 -2.2327 -1.8814 -3.9528
  931MOL0     H28417   5.317   0.453   6.878  0.6966  0.0397  0.5412
  931MOL0     H28418   5.138   0.477   6.875  1.5030  1.6129 -2.2081
  931MOL0     H28419   5.275   0.198   6.924  0.4899  0.7071  1.7835
  931MOL0     H28420   5.106   0.225   6.922  0.3882 -0.4519 -1.0630
  931MOL0     H28421   5.321   0.342   7.105 -0.5970  3.4375 -1.2382
  931MOL0     H28422   5.155   0.382   7.120  1.6848  1.8893  1.0802
  931MOL0     H28423   5.282   0.107   7.153  0.5282  1.0683  0.3607
  931MOL0     H28424   5.098   0.135   7.130 -0.2999  1.7497 -3.6013
  931MOL0     H28425   5.099   0.279   7.344  0.4037 -0.5971  2.0146
  931MOL0     H28426   5.164   0.126   7.386 -0.9339  0.1273 -0.3304
  931MOL0     H28427   5.232   0.493   7.336 -0.8516 -0.0748 -0.6681
  931MOL0     H28428   5.415   0.633   7.482  1.5608  1.5457  3.1721
  931MOL0     H28429   5.543   0.631   7.364  1.0624 -0.2899  0.3467
  931MOL0     H28430   5.582   0.495   7.646 -0.4625 -0.0593 -0.5167
  931MOL0     H28431   5.696   0.503   7.519 -0.1982  0.6404 -0.6898
  931MOL0     H28432   5.696   0.752   7.525  2.2796 -1.7000  1.1630
  931MOL0     H28433   5.575   0.749   7.661 -0.2200  1.6151 -1.3520
  931MOL0     H28434   5.694   0.612   7.791  0.3390 -0.1433 -0.0358
  931MOL0     H28435   5.837   0.623   7.677 -1.2583 -2.9923  0.9440
  931MOL0     H28436   5.967   0.663   7.914  0.7306  0.5737  0.5080
  931MOL0     H28437   6.312   0.635   7.847 -0.0272  0.5922 -0.1602
  931MOL0     H28438   6.182   0.570   7.957 -1.1073  1.0856  0.1208
  931MOL0     H28439   6.287   0.696   8.010  1.1507 -0.8228  0.2612
  931MOL0     H28440   6.550   1.053   7.980 -0.5629 -0.0089  0.8215
  931MOL0     H28441   6.781   1.093   7.989 -1.1962 -0.0774  2.0968
  931MOL0     H28442   7.030   0.795   7.843  0.4241 -0.5793  0.6923
  931MOL0     H28443   7.087   0.906   7.716  1.0389 -1.2334 -0.3600
  931MOL0     H28444   7.223   1.027   7.902  1.9195 -0.6188 -0.2237
  931MOL0     H28445   7.135   0.927   8.017  1.3936 -0.7145  0.8463
  931MOL0     H28446   7.241   0.731   7.934 -0.8523  0.3810 -2.7352
  931MOL0     H28447   7.355   0.848   8.007  0.8725 -5.1526  1.0980
  931MOL0     H28448   7.428   0.932   7.788 -0.7778  0.1917 -1.1662
  931MOL0     H28449   7.325   0.820   7.704 -4.2043  3.5824  2.1815
  931MOL0     H28450   7.578   0.745   7.847  0.6117 -0.5294 -1.9780
  931MOL0     H28451   7.455   0.625   7.831  0.3492 -0.9049  0.6192
  931MOL0     H28452   7.548   0.793   7.588 -1.7593  0.3552 -2.0031
  931MOL0     H28453   7.431   0.666   7.586 -0.4709 -0.9448  1.1722
  931MOL0     H28454   7.590   0.488   7.657  1.7842  0.2375  0.4126
  931MOL0     H28455   7.708   0.605   7.698  1.7299  2.7153 -1.4233
  931MOL0     H28456   7.732   0.466   7.489  1.5232  1.1817  1.1782
  931MOL0     H28457   7.775   0.622   7.448  1.3379 -2.3695 -0.8071
  931MOL0     H28458   6.847   0.753   7.740 -2.6109 -1.1062 -2.0093
  931MOL0     H28459   6.622   0.703   7.750  1.2942 -0.2814  0.1489
  931MOL0     H28460   6.151   1.021   7.636 -0.4911  1.9863  0.7891
  931MOL0     H28461   5.906   0.973   7.647 -1.1578 -1.2202 -0.6602
  931MOL0     H28462   4.784   0.498   6.570  0.4389 -1.7870 -5.3434
  931MOL0     H28463   4.607   0.649   6.518  1.8228 -3.4736  3.4086
  931MOL0     H28464   4.476   1.050   6.275  0.2868  3.0737 -1.2708
  931MOL0     H28465   4.340   1.244   6.220  1.4839 -1.8218 -0.2933
  931MOL0     H28466   4.106   1.453   6.548  1.1315 -1.7204 -0.3872
  931MOL0     H28467   4.270   1.522   6.517  0.2032 -2.2772  1.6162
  931MOL0     H28468   4.175   1.668   6.345 -0.7785 -1.5477 -1.9992
  931MOL0     H28469   4.090   1.682   6.501  0.5078 -2.3183  1.5394
  931MOL0     H28470   3.967   1.663   6.276  3.4447 -0.1969 -1.1317
  931MOL0     H28471   3.988   1.487   6.286  4.3104 -2.4888  3.5255
  931MOL0     H28472   3.865   1.464   6.501 -2.7056 -0.4092  0.9229
  931MOL0     H28473   3.759   1.517   6.391  0.3168 -2.7185 -0.7738
  931MOL0     H28474   3.786   1.861   6.639  0.7227  0.7147 -1.0603
  931MOL0     H28475   4.226   1.295   6.620  3.2294  1.3602  0.1761
  931MOL0     H28476   4.447   1.094   6.780 -1.4840 -2.3542  4.1172
  931MOL0     H28477   4.294   1.170   6.786 -2.2485 -1.3352  1.8004
  931MOL0     H28478   4.292   1.003   6.768 -1.5320  0.9513  0.8934
  932MOL0     O28479   3.169   6.417   2.165  0.0332 -0.4469  0.1803
  932MOL0     C28480   3.113   6.392   2.059 -0.3798 -0.6814 -0.3349
  932MOL0     O28481   3.031   6.288   2.042 -0.3456 -0.1124  0.6696
  932MOL0     C28482   3.002   6.219   2.159  0.4001  0.1662 -0.3688
  932MOL0     C28483   3.010   6.078   2.166  0.1843 -0.2493  0.2210
  932MOL0     C28484   2.963   6.006   2.268  0.4661 -0.8679 -0.5055
  932MOL0     C28485   2.895   6.074   2.370  0.6240  0.4287  0.6711
  932MOL0     O28486   2.851   5.996   2.467  0.1454  0.1865 -0.7953
  932MOL0     C28487   2.809   6.044   2.597 -0.5847  0.4787 -0.3918
  932MOL0     C28488   2.926   6.099   2.669 -0.7659  0.5246 -0.3872
  932MOL0     C28489   2.931   6.127   2.818  0.1084 -0.2272 -0.9418
  932MOL0     C28490   2.839   6.238   2.857  0.0341  0.6430  0.2616
  932MOL0     C28491   2.894   6.307   2.983  0.7564  0.3957  0.1539
  932MOL0     C28492   2.802   6.408   3.047 -0.2254 -0.1095 -0.0690
  932MOL0     C28493   2.831   6.447   3.189 -0.2386 -0.8171 -0.0617
  932MOL0     C28494   2.924   6.566   3.192  1.0121  0.3887 -0.7893
  932MOL0     N28495   2.964   6.609   3.332 -0.6771 -0.0723  0.7539
  932MOL0     C28496   2.973   6.520   3.437 -0.6531 -0.1788 -0.2034
  932MOL0     C28497   3.009   6.596   3.547  0.5852  0.7176  0.2708
  932MOL0     C28498   3.021   6.548   3.691 -0.5511 -0.5118 -0.1072
  932MOL0     C28499   2.932   6.631   3.784 -0.1476  0.3985 -0.6582
  932MOL0     C28500   2.905   6.557   3.918 -1.0500 -0.3030 -0.1716
  932MOL0     C28501   3.025   6.535   4.002 -0.3259 -0.0139  0.2015
  932MOL0     O28502   3.111   6.422   3.960  0.1251  0.2471  0.0285
  932MOL0     C28503   3.074   6.300   4.004 -0.4374 -0.6889 -0.6652
  932MOL0     C28504   3.074   6.270   4.138 -0.2610  0.1008 -0.1699
  932MOL0     C28505   3.035   6.145   4.186  0.7272  0.0009  1.1411
  932MOL0     C28506   3.042   6.124   4.334  0.0082  0.2954 -0.1505
  932MOL0     C28507   3.022   6.037   4.088 -0.2191  1.1999 -0.3210
  932MOL0     C28508   2.992   5.899   4.124 -0.8647  0.1306  0.4041
  932MOL0     O28509   3.033   5.803   4.038 -0.1239 -0.5548 -0.0100
  932MOL0     C28510   2.992   5.669   4.061 -0.2965  1.0096  0.2306
  932MOL0     C28511   2.882   5.624   4.121  0.2630  0.4500  0.5699
  932MOL0     C28512   2.856   5.486   4.128  0.0043  0.7403 -1.1056
  932MOL0     C28513   2.951   5.386   4.088  0.0391  0.1494 -1.1646
  932MOL0     O28514   2.931   5.257   4.141 -0.6692 -0.6218 -0.0841
  932MOL0     C28515   2.989   5.142   4.074  0.7107 -0.3031  0.6232
  932MOL0     C28516   2.910   5.020   4.121 -0.8268  0.4433 -0.4897
  932MOL0     C28517   2.952   4.893   4.042  0.0174 -0.0271 -0.2402
  932MOL0     C28518   3.098   4.849   4.064  0.2895  0.3623  0.2890
  932MOL0     C28519   3.159   4.758   3.953  0.1727 -0.4074  0.3925
  932MOL0     C28520   3.309   4.801   3.907  0.2746  0.8629  0.4437
  932MOL0     C28521   3.424   4.769   4.008  0.0790 -0.1010  0.5479
  932MOL0     C28522   3.562   4.736   3.952 -0.2378  0.3550  0.7626
  932MOL0    Cl28523   3.596   4.837   3.800  0.1451  0.0804  0.3107
  932MOL0     C28524   3.065   5.432   4.020 -0.0272  0.2654 -1.0868
  932MOL0     C28525   3.088   5.566   4.015 -0.4327 -0.2242 -0.6428
  932MOL0     O28526   2.944   5.883   4.234 -0.3425  0.0978 -0.0018
  932MOL0     C28527   3.041   6.067   3.950  0.7867  0.1882 -0.3667
  932MOL0     C28528   3.066   6.204   3.909 -0.4407  0.2580  0.3861
  932MOL0     N28529   3.036   6.721   3.502  0.2652 -0.4575  0.7444
  932MOL0     N28530   3.007   6.724   3.379 -0.6213 -0.7799  0.1658
  932MOL0     C28531   2.880   6.215   2.373  0.1967 -0.3307 -0.3144
  932MOL0     C28532   2.931   6.288   2.263  0.6339  0.0298  1.5383
  932MOL0     C28533   3.139   6.493   1.955  0.5874 -0.0657  0.0019
  932MOL0     C28534   3.222   6.607   1.986  0.8798  0.1806 -0.0852
  932MOL0     C28535   3.238   6.715   1.895 -0.5047 -0.2047 -0.2103
  932MOL0     C28536   3.171   6.719   1.775 -0.3400 -1.7084  0.4628
  932MOL0     O28537   3.182   6.807   1.673  0.3547 -0.0510  0.1052
  932MOL0     C28538   3.263   6.927   1.685 -1.1300 -0.5075  0.4946
  932MOL0     C28539   3.409   6.900   1.649 -0.7762 -0.0796 -0.2742
  932MOL0     C28540   3.504   6.986   1.728 -0.6386  0.1355  0.0093
  932MOL0     C28541   3.483   7.136   1.704 -0.6288 -0.0450  0.0693
  932MOL0     C28542   3.601   7.201   1.767 -0.3835 -0.2388 -0.2038
  932MOL0     C28543   3.704   7.261   1.805  0.6599  0.6083 -0.5257
  932MOL0     C28544   3.088   6.615   1.751  1.6101 -0.4911  0.5515
  932MOL0     C28545   3.065   6.505   1.837 -0.3392  0.8298 -0.0767
  932MOL0     C28546   2.945   6.411   1.805 -0.3447  0.0932 -0.1561
  932MOL0     H28547   3.059   6.028   2.084  0.4878  2.5175 -1.4080
  932MOL0     H28548   2.954   5.898   2.276 -2.9402 -0.6365  0.5455
  932MOL0     H28549   2.756   5.970   2.658  0.3277  0.5762  0.5552
  932MOL0     H28550   2.737   6.125   2.582 -1.2977 -0.4009 -1.8950
  932MOL0     H28551   3.011   6.031   2.660  1.6454  2.9229  2.2463
  932MOL0     H28552   2.961   6.191   2.620 -0.5818 -0.5646 -2.3841
  932MOL0     H28553   2.901   6.036   2.870 -0.0408  1.4719  2.1965
  932MOL0     H28554   3.032   6.161   2.841  0.2240  0.0303 -1.7822
  932MOL0     H28555   2.837   6.306   2.772 -1.9280  0.5370  0.1684
  932MOL0     H28556   2.742   6.188   2.869 -0.6568  0.8993 -3.2165
  932MOL0     H28557   2.989   6.352   2.956  1.3996 -0.9704  0.0673
  932MOL0     H28558   2.895   6.231   3.061 -2.5306  0.0874  0.0518
  932MOL0     H28559   2.800   6.494   2.980  1.5678 -1.7863 -2.4764
  932MOL0     H28560   2.704   6.359   3.048  0.9454 -2.8159 -2.3081
  932MOL0     H28561   2.876   6.364   3.244  0.7029 -0.5143 -0.3550
  932MOL0     H28562   2.737   6.483   3.234  0.6569 -0.4691  1.6252
  932MOL0     H28563   3.013   6.543   3.134 -0.0806  2.4046 -3.4774
  932MOL0     H28564   2.879   6.653   3.144  1.8441  1.2166 -0.1134
  932MOL0     H28565   2.947   6.416   3.456  1.5268 -0.6154  0.7050
  932MOL0     H28566   3.121   6.569   3.729 -1.8926  0.9287  3.0266
  932MOL0     H28567   2.996   6.442   3.695 -0.7045 -0.4442  0.9288
  932MOL0     H28568   2.966   6.732   3.809 -1.4897  0.8282 -0.5156
  932MOL0     H28569   2.838   6.656   3.735  1.4399  0.1761 -4.0992
  932MOL0     H28570   2.835   6.622   3.972 -0.6468  0.0720 -0.0982
  932MOL0     H28571   2.850   6.464   3.900 -1.9738 -0.1334  1.5285
  932MOL0     H28572   3.102   6.613   4.006  0.3120 -0.5861 -0.5890
  932MOL0     H28573   3.006   6.518   4.109 -1.9651 -3.5727 -0.5216
  932MOL0     H28574   3.100   6.344   4.213 -0.5595 -0.8221  0.8706
  932MOL0     H28575   3.076   6.210   4.392  0.4134 -0.9934  1.5914
  932MOL0     H28576   3.103   6.039   4.366  0.2702  2.0817  4.8829
  932MOL0     H28577   2.941   6.104   4.370 -0.0600 -0.6426 -0.8122
  932MOL0     H28578   2.804   5.692   4.153 -1.8403 -1.1364 -0.8827
  932MOL0     H28579   2.771   5.463   4.193  0.8896 -1.3322 -0.5914
  932MOL0     H28580   2.966   5.159   3.968 -1.9803 -1.7619  0.8782
  932MOL0     H28581   3.096   5.132   4.095  0.7659 -0.1255  0.4294
  932MOL0     H28582   2.920   5.010   4.229 -1.4577 -2.2299 -0.5934
  932MOL0     H28583   2.803   5.041   4.109 -1.4111 -2.1658 -0.5680
  932MOL0     H28584   2.946   4.900   3.933  0.1246 -0.2196 -0.2577
  932MOL0     H28585   2.886   4.814   4.081  1.6213  0.2397  3.4046
  932MOL0     H28586   3.116   4.811   4.165 -0.8882 -1.0122  0.0232
  932MOL0     H28587   3.160   4.937   4.049  2.8113 -1.2764  0.5273
  932MOL0     H28588   3.153   4.649   3.960  2.3997 -0.8817 -2.7894
  932MOL0     H28589   3.089   4.778   3.872 -2.3938  2.5035  3.0413
  932MOL0     H28590   3.314   4.906   3.878 -1.0101  0.6668 -0.5691
  932MOL0     H28591   3.333   4.748   3.815  1.4561  0.6090  0.8782
  932MOL0     H28592   3.401   4.689   4.079  1.6683 -0.5094  0.6645
  932MOL0     H28593   3.445   4.858   4.067  3.4090  0.2729 -0.9167
  932MOL0     H28594   3.556   4.628   3.933 -2.2868  0.7678 -1.4025
  932MOL0     H28595   3.633   4.753   4.033 -1.2798  0.3014  1.7013
  932MOL0     H28596   3.147   5.369   3.986 -0.1139 -1.7225  1.9854
  932MOL0     H28597   3.180   5.613   3.981 -0.1649  1.8299  2.5482
  932MOL0     H28598   3.036   5.981   3.884  2.0055  0.2270 -0.5302
  932MOL0     H28599   3.082   6.221   3.803  1.6282 -3.5457 -0.0864
  932MOL0     H28600   2.836   6.262   2.460  1.5625 -1.7163  1.1911
  932MOL0     H28601   2.906   6.393   2.252 -0.9021 -0.2593  1.9538
  932MOL0     H28602   3.291   6.584   2.066  2.1090  1.1562 -0.8327
  932MOL0     H28603   3.314   6.789   1.917 -0.2311 -0.3707 -0.6018
  932MOL0     H28604   3.225   7.012   1.627  3.1231  0.3965 -1.3826
  932MOL0     H28605   3.254   6.964   1.787  0.4494 -1.6498  1.0896
  932MOL0     H28606   3.422   6.908   1.541 -3.7331  2.7603 -0.6069
  932MOL0     H28607   3.434   6.795   1.666  1.7940  0.4941 -0.1879
  932MOL0     H28608   3.506   6.955   1.833  0.2778  0.8936  0.2291
  932MOL0     H28609   3.603   6.967   1.687 -0.1848  1.3544  0.4956
  932MOL0     H28610   3.394   7.169   1.760 -0.3456 -0.4932  0.7973
  932MOL0     H28611   3.473   7.164   1.599 -0.4532  0.6819  0.2407
  932MOL0     H28612   3.787   7.328   1.819  1.4620  0.4018 -3.4843
  932MOL0     H28613   3.039   6.614   1.654 -0.1095 -2.8203  1.3364
  932MOL0     H28614   2.886   6.444   1.719  0.9059  2.3739 -0.2063
  932MOL0     H28615   2.988   6.313   1.782  0.5204  1.0495 -3.0376
  932MOL0     H28616   2.874   6.399   1.888  0.3806 -1.6647  0.2637
  933MOL0     O28617   4.086  11.482   2.674 -0.1788 -0.2554  0.3159
  933MOL0     C28618   4.090  11.380   2.741 -1.0590 -0.7137 -0.6502
  933MOL0     O28619   3.979  11.312   2.784  0.0145 -0.3462 -0.0775
  933MOL0     C28620   3.864  11.385   2.811 -0.0252 -0.1291 -0.2827
  933MOL0     C28621   3.868  11.515   2.865  0.5599 -0.0752  0.2347
  933MOL0     C28622   3.745  11.575   2.892  0.2099 -0.1224  0.0853
  933MOL0     C28623   3.621  11.500   2.899  0.3454  1.7425  0.2549
  933MOL0     O28624   3.502  11.557   2.934  0.0692 -0.4635  0.1607
  933MOL0     C28625   3.465  11.685   2.864  0.6801  0.0518  0.1585
  933MOL0     C28626   3.324  11.718   2.880 -0.0143  0.3531  0.0932
  933MOL0     C28627   3.282  11.820   2.772 -0.0126 -1.2287  0.0472
  933MOL0     C28628   3.143  11.888   2.805  1.1655  0.7232 -0.3150
  933MOL0     C28629   3.038  11.781   2.836  0.9372  0.2795  0.0909
  933MOL0     C28630   2.906  11.842   2.785 -0.4692  0.2708 -0.6017
  933MOL0     C28631   2.797  11.784   2.879  0.2169  0.3817  0.3798
  933MOL0     C28632   2.658  11.821   2.806  0.3136 -0.4309 -0.2767
  933MOL0     N28633   2.535  11.838   2.890 -0.6885 -0.4567  0.6042
  933MOL0     C28634   2.429  11.758   2.906 -0.6106  0.3467  0.0097
  933MOL0     C28635   2.340  11.823   2.989 -0.2710  0.8966 -0.2265
  933MOL0     C28636   2.212  11.777   3.030 -0.2558 -0.8287 -0.5721
  933MOL0     C28637   2.202  11.640   3.113  0.1487 -0.5968  0.3298
  933MOL0     C28638   2.263  11.676   3.243  0.2099  0.5305  0.0943
  933MOL0     C28639   2.239  11.585   3.365  0.7820  0.7624  0.2947
  933MOL0     O28640   2.294  11.459   3.336  1.1658 -0.0870 -0.0882
  933MOL0     C28641   2.272  11.360   3.429 -0.6185  0.3171 -0.5205
  933MOL0     C28642   2.321  11.230   3.408 -0.5082  0.0613  0.4945
  933MOL0     C28643   2.313  11.120   3.492  0.9237 -0.3498 -0.2374
  933MOL0     C28644   2.392  11.002   3.451 -0.2020  0.1868  0.1612
  933MOL0     C28645   2.240  11.142   3.612 -0.1006  0.6632  0.5238
  933MOL0     C28646   2.223  11.033   3.702  0.3980 -0.1661  0.4715
  933MOL0     O28647   2.192  10.921   3.623  0.2436 -0.6810 -0.1957
  933MOL0     C28648   2.089  10.842   3.666 -0.0447  0.0739  0.3518
  933MOL0     C28649   1.998  10.871   3.773  0.5812 -0.0346  1.1648
  933MOL0     C28650   1.901  10.777   3.810 -1.2204  0.9095  0.2735
  933MOL0     C28651   1.879  10.659   3.742 -0.2685 -0.2279  1.0324
  933MOL0     O28652   1.754  10.596   3.744  0.1795  0.2850 -0.1495
  933MOL0     C28653   1.762  10.456   3.730 -1.2531  0.4425  0.1715
  933MOL0     C28654   1.634  10.394   3.778 -0.2518 -0.8383  0.6476
  933MOL0     C28655   1.637  10.386   3.941 -0.0729 -0.2553  0.3196
  933MOL0     C28656   1.511  10.303   3.990  0.6271 -1.2102 -0.5959
  933MOL0     C28657   1.518  10.315   4.146  0.0019 -0.8066  0.1478
  933MOL0     C28658   1.620  10.216   4.208  0.2973  0.5237  0.9398
  933MOL0     C28659   1.607  10.227   4.360 -0.5025 -0.3288  0.5909
  933MOL0     C28660   1.693  10.128   4.442 -0.1488  0.4884 -0.3067
  933MOL0    Cl28661   1.602   9.990   4.519  0.3422 -0.1318  0.4434
  933MOL0     C28662   1.963  10.626   3.638 -0.9847 -0.5291 -0.4368
  933MOL0     C28663   2.069  10.719   3.605  1.3897 -0.0714  0.1434
  933MOL0     O28664   2.217  11.047   3.821 -0.0526 -0.0790  0.4072
  933MOL0     C28665   2.203  11.269   3.642  1.3029 -0.0869  0.2106
  933MOL0     C28666   2.213  11.374   3.557 -0.4840 -0.8926  0.6900
  933MOL0     N28667   2.406  11.938   3.034 -0.8306 -0.0407 -0.6807
  933MOL0     N28668   2.516  11.943   2.971  0.1961  0.3163 -0.0060
  933MOL0     C28669   3.626  11.369   2.843 -0.3972  0.4042  0.4530
  933MOL0     C28670   3.745  11.306   2.792 -0.3734 -0.2890 -0.3755
  933MOL0     C28671   4.211  11.364   2.823  0.8472  0.2226 -0.8562
  933MOL0     C28672   4.188  11.299   2.947 -0.3362 -0.3014  0.4493
  933MOL0     C28673   4.298  11.244   3.018 -1.0883 -0.0276  0.0945
  933MOL0     C28674   4.433  11.289   2.989  0.3005  0.1573  0.8421
  933MOL0     O28675   4.551  11.261   3.056 -0.7993  0.3007 -1.2523
  933MOL0     C28676   4.541  11.238   3.195  0.1932  1.0245 -0.8641
  933MOL0     C28677   4.517  11.378   3.267  0.6377 -0.2507  0.0370
  933MOL0     C28678   4.537  11.372   3.417  0.2271 -0.2280  0.3024
  933MOL0     C28679   4.477  11.490   3.496 -0.0611  0.2729  0.0434
  933MOL0     C28680   4.458  11.443   3.629  0.0987 -0.4007 -0.4217
  933MOL0     C28681   4.448  11.403   3.746  0.2352  0.4384 -0.2984
  933MOL0     C28682   4.448  11.344   2.860  0.1039 -0.3413 -0.4275
  933MOL0     C28683   4.342  11.386   2.774 -0.2888  1.1781 -0.6756
  933MOL0     C28684   4.375  11.448   2.642  0.1678  0.8357 -0.0182
  933MOL0     H28685   3.962  11.567   2.876  1.0106 -1.1272  1.6186
  933MOL0     H28686   3.732  11.681   2.912 -1.6985 -0.1361 -0.8280
  933MOL0     H28687   3.475  11.664   2.757  3.2665  0.2599  0.2930
  933MOL0     H28688   3.523  11.772   2.897  1.0542 -0.0023 -0.3393
  933MOL0     H28689   3.260  11.629   2.871 -1.1945  0.9021  2.3255
  933MOL0     H28690   3.316  11.751   2.984 -2.7992 -1.1355  0.4510
  933MOL0     H28691   3.358  11.898   2.763 -3.1428  1.9168 -1.6001
  933MOL0     H28692   3.274  11.762   2.679  0.6390 -3.5744  1.3692
  933MOL0     H28693   3.153  11.953   2.892  0.1150  5.2635 -3.2079
  933MOL0     H28694   3.103  11.953   2.726 -3.9168 -1.0811  0.3989
  933MOL0     H28695   3.038  11.750   2.940  3.0302 -2.1470 -0.5158
  933MOL0     H28696   3.062  11.689   2.781 -1.2936  0.8956 -2.1010
  933MOL0     H28697   2.895  11.950   2.795  1.5678  0.3709  1.2807
  933MOL0     H28698   2.887  11.808   2.683 -0.5411  1.0256 -0.8431
  933MOL0     H28699   2.789  11.827   2.979 -0.7292 -1.4745  1.1437
  933MOL0     H28700   2.805  11.676   2.888 -0.7454  0.3044  0.4077
  933MOL0     H28701   2.677  11.922   2.768 -0.7515  0.9657  2.5686
  933MOL0     H28702   2.628  11.751   2.728  0.9524 -0.6620 -0.3196
  933MOL0     H28703   2.418  11.658   2.866  1.8432  0.4991 -1.2742
  933MOL0     H28704   2.151  11.764   2.940 -0.2952 -1.0572 -0.5141
  933MOL0     H28705   2.166  11.858   3.087 -2.6001 -2.2168 -0.3033
  933MOL0     H28706   2.102  11.604   3.138 -0.2579 -0.5934 -1.2125
  933MOL0     H28707   2.249  11.548   3.078  0.0077  0.4527 -2.9247
  933MOL0     H28708   2.371  11.687   3.233  0.5205 -0.9516  1.5304
  933MOL0     H28709   2.223  11.769   3.285  1.0819 -0.4397  3.3561
  933MOL0     H28710   2.284  11.632   3.453  2.5863  0.9499 -0.6814
  933MOL0     H28711   2.130  11.583   3.375  0.7420  1.4411  0.0275
  933MOL0     H28712   2.387  11.214   3.323 -0.0278  0.6908  0.7427
  933MOL0     H28713   2.334  10.948   3.376  0.4142  1.1544 -1.0492
  933MOL0     H28714   2.411  10.942   3.540  1.1343  2.0625  1.2122
  933MOL0     H28715   2.494  11.017   3.413  0.0262 -1.0442  0.2482
  933MOL0     H28716   1.997  10.967   3.825  0.4468  1.3569 -1.2473
  933MOL0     H28717   1.839  10.814   3.891  0.2986  5.0654 -0.1909
  933MOL0     H28718   1.771  10.437   3.623  0.4982  2.2843 -0.0479
  933MOL0     H28719   1.855  10.420   3.774  0.2479  1.9182 -1.6876
  933MOL0     H28720   1.543  10.450   3.751 -0.1708  0.9663  3.6287
  933MOL0     H28721   1.625  10.297   3.728  1.0347  0.3669 -2.1200
  933MOL0     H28722   1.628  10.488   3.980  1.3689  0.6671 -1.5942
  933MOL0     H28723   1.734  10.345   3.972  0.5553  0.9126 -0.0488
  933MOL0     H28724   1.520  10.196   3.966 -4.4478 -2.2352  0.9320
  933MOL0     H28725   1.418  10.349   3.958  2.0256  4.1105  1.9344
  933MOL0     H28726   1.540  10.418   4.177 -0.8870 -0.1114 -1.4319
  933MOL0     H28727   1.420  10.302   4.193 -0.5588  0.1404 -0.7162
  933MOL0     H28728   1.720  10.241   4.172  0.3591 -2.3409 -1.2500
  933MOL0     H28729   1.592  10.113   4.183  1.3247  0.8638 -1.9337
  933MOL0     H28730   1.502  10.206   4.382 -0.9857  3.0621  2.3482
  933MOL0     H28731   1.621  10.330   4.395 -1.3795 -0.2019  0.5715
  933MOL0     H28732   1.752  10.193   4.507  0.4468  0.1559 -0.5100
  933MOL0     H28733   1.755  10.072   4.371  3.4549  2.8912  0.6765
  933MOL0     H28734   1.959  10.537   3.577 -1.0715 -0.9909  0.2384
  933MOL0     H28735   2.131  10.676   3.526  0.6143 -3.2165  1.1297
  933MOL0     H28736   2.145  11.278   3.733  0.3325 -2.0492 -0.1677
  933MOL0     H28737   2.158  11.464   3.583  0.4975 -0.0457 -0.0576
  933MOL0     H28738   3.527  11.329   2.824 -0.4305  0.7525 -0.1636
  933MOL0     H28739   3.745  11.210   2.741 -1.0953  0.8413 -2.6458
  933MOL0     H28740   4.089  11.277   2.987 -0.4057  0.3639  0.6481
  933MOL0     H28741   4.278  11.194   3.112 -2.5377  2.0210  0.9484
  933MOL0     H28742   4.460  11.171   3.226  0.6180 -0.0210 -1.9450
  933MOL0     H28743   4.638  11.214   3.239  1.2428  4.0219 -1.2710
  933MOL0     H28744   4.415  11.404   3.240  1.5951  3.1884 -0.7372
  933MOL0     H28745   4.591  11.448   3.226 -1.0192  2.3840  1.3162
  933MOL0     H28746   4.495  11.275   3.446  1.7081 -1.6093 -1.8532
  933MOL0     H28747   4.643  11.369   3.445  0.4078 -1.1509 -0.4003
  933MOL0     H28748   4.382  11.518   3.449  0.5592 -0.7919 -1.9887
  933MOL0     H28749   4.542  11.578   3.501 -0.3784  0.4349  2.3247
  933MOL0     H28750   4.449  11.366   3.847 -0.5002 -1.4165 -0.9275
  933MOL0     H28751   4.551  11.360   2.828  0.4773 -3.5297 -1.1271
  933MOL0     H28752   4.299  11.411   2.572 -2.2785 -0.2972  3.0248
  933MOL0     H28753   4.373  11.554   2.667  0.8390  0.7761  0.3039
  933MOL0     H28754   4.469  11.409   2.601  0.0545 -0.0094  0.5047
  934MOL0     O28755   6.989   6.843   4.972  0.3579  0.1481 -0.0991
  934MOL0     C28756   7.002   6.940   4.902 -0.3399  0.9629  0.4062
  934MOL0     O28757   7.117   7.007   4.878  0.0278  0.1967 -0.0077
  934MOL0     C28758   7.237   6.967   4.939  1.3420 -0.5350 -0.4475
  934MOL0     C28759   7.269   6.842   5.014  0.2554 -0.2737 -0.3726
  934MOL0     C28760   7.390   6.834   5.080  0.0311 -0.1596  0.1851
  934MOL0     C28761   7.489   6.940   5.076 -0.4712  0.6078 -0.8177
  934MOL0     O28762   7.613   6.930   5.126 -0.1279  0.7176  0.3507
  934MOL0     C28763   7.676   6.812   5.155  0.0953  0.5041  0.8484
  934MOL0     C28764   7.774   6.846   5.274 -0.1338  0.4382  0.5359
  934MOL0     C28765   7.895   6.926   5.215 -0.9297  0.9620  0.4881
  934MOL0     C28766   7.938   7.032   5.314 -0.2256  0.3878  0.4148
  934MOL0     C28767   7.845   7.158   5.321 -0.9064  0.2323  0.3963
  934MOL0     C28768   7.878   7.236   5.449 -0.5904 -0.1682  0.2123
  934MOL0     C28769   7.810   7.362   5.470 -0.4782  0.0694 -0.0315
  934MOL0     C28770   7.814   7.469   5.364 -0.1919 -0.3866  0.1656
  934MOL0     N28771   7.719   7.576   5.392 -0.3310  0.0629  0.6488
  934MOL0     C28772   7.689   7.663   5.297  0.3212 -0.1572  0.8551
  934MOL0     C28773   7.612   7.761   5.348 -0.0685 -0.0299  0.2896
  934MOL0     C28774   7.556   7.890   5.289  0.3729  0.1058  0.3205
  934MOL0     C28775   7.402   7.905   5.281 -0.2302 -0.5103 -0.5173
  934MOL0     C28776   7.360   8.049   5.243 -0.2712 -0.2630 -0.9608
  934MOL0     C28777   7.212   8.066   5.209 -0.4235  0.2972 -0.1875
  934MOL0     O28778   7.158   8.190   5.266 -0.0749 -0.2527  0.1587
  934MOL0     C28779   7.021   8.213   5.264  0.7694  0.6727 -0.0589
  934MOL0     C28780   6.961   8.312   5.340  0.0533  0.0591 -0.4446
  934MOL0     C28781   6.825   8.332   5.353  1.1342 -0.9969 -0.3673
  934MOL0     C28782   6.793   8.440   5.458  0.0804  0.3972 -0.1362
  934MOL0     C28783   6.732   8.260   5.273  0.1493  0.1830  0.2381
  934MOL0     C28784   6.587   8.287   5.236 -0.5352 -0.5009 -0.3791
  934MOL0     O28785   6.523   8.209   5.146 -0.1572 -0.1961 -0.5811
  934MOL0     C28786   6.394   8.240   5.111 -0.6463 -0.3256 -0.4380
  934MOL0     C28787   6.282   8.198   5.182  0.8843  0.2967  0.2158
  934MOL0     C28788   6.154   8.230   5.124 -0.5074 -0.2869  0.4788
  934MOL0     C28789   6.148   8.300   5.003  0.0969  1.1548  0.4256
  934MOL0     O28790   6.041   8.322   4.926  0.1434 -0.1722 -0.1192
  934MOL0     C28791   5.912   8.321   4.986  0.6179  0.3150  0.0509
  934MOL0     C28792   5.848   8.186   4.971  0.4282  1.2649 -0.3216
  934MOL0     C28793   5.724   8.181   5.061  1.3007 -0.3397 -0.0566
  934MOL0     C28794   5.688   8.036   5.096  0.0191 -0.3225 -0.1401
  934MOL0     C28795   5.544   8.007   5.073  0.1334 -0.9515 -0.8458
  934MOL0     C28796   5.515   7.859   5.092 -0.3107 -0.9948 -0.0476
  934MOL0     C28797   5.365   7.821   5.066  0.2191 -0.1590  0.0720
  934MOL0     C28798   5.265   7.864   5.164  0.2211  0.8323 -0.1276
  934MOL0    Cl28799   5.303   7.815   5.327  0.3013  0.3004 -0.5955
  934MOL0     C28800   6.265   8.333   4.934 -0.0352 -0.4102  0.4631
  934MOL0     C28801   6.386   8.304   4.990  0.7788  0.3579 -0.6495
  934MOL0     O28802   6.532   8.380   5.293  0.6459  0.1895  0.8293
  934MOL0     C28803   6.795   8.156   5.197 -0.9582  0.7969  0.0410
  934MOL0     C28804   6.930   8.132   5.189 -0.5116 -0.1760  0.6683
  934MOL0     N28805   7.623   7.743   5.485  0.4337 -0.3765 -0.3519
  934MOL0     N28806   7.682   7.633   5.507 -1.1582  0.5788  0.2218
  934MOL0     C28807   7.460   7.058   5.002  0.0633 -0.0168 -0.7495
  934MOL0     C28808   7.334   7.071   4.935 -0.1329 -0.0201  0.1708
  934MOL0     C28809   6.883   6.976   4.823 -0.3591 -0.0037 -0.2228
  934MOL0     C28810   6.910   7.025   4.695 -0.1383 -0.0361 -0.0316
  934MOL0     C28811   6.806   7.055   4.611 -0.5136 -0.2017 -0.7161
  934MOL0     C28812   6.667   7.043   4.651  0.3091 -0.4435 -0.2717
  934MOL0     O28813   6.577   7.081   4.552 -1.0166 -0.8540 -0.5627
  934MOL0     C28814   6.432   7.099   4.568  0.3816 -0.2220  0.4897
  934MOL0     C28815   6.401   7.220   4.645  0.4366  0.5192 -0.1901
  934MOL0     C28816   6.458   7.342   4.567 -0.0757 -0.0268  0.4358
  934MOL0     C28817   6.437   7.470   4.653  0.4352 -0.0775  0.3613
  934MOL0     C28818   6.316   7.525   4.684  0.5940 -0.2608  0.6872
  934MOL0     C28819   6.211   7.574   4.724 -0.3721 -0.6809  0.5122
  934MOL0     C28820   6.634   6.995   4.779 -0.7579 -0.2097 -0.2043
  934MOL0     C28821   6.747   6.969   4.873  0.2368  0.0671  1.0765
  934MOL0     C28822   6.709   6.914   5.012  0.3405  0.2758  0.4539
  934MOL0     H28823   7.206   6.754   5.028  2.2661 -1.6745  0.3905
  934MOL0     H28824   7.404   6.750   5.147  0.0608 -1.6697 -1.6250
  934MOL0     H28825   7.718   6.765   5.066 -1.0745 -0.3439  0.7345
  934MOL0     H28826   7.615   6.741   5.211 -0.2860  0.0257 -0.1611
  934MOL0     H28827   7.709   6.903   5.342 -2.0599 -2.1576  1.0520
  934MOL0     H28828   7.798   6.753   5.327 -0.9735 -1.0623 -1.5608
  934MOL0     H28829   7.973   6.851   5.203 -0.9515  1.2843 -2.5157
  934MOL0     H28830   7.882   6.981   5.121  1.0960  1.5739  0.5187
  934MOL0     H28831   7.929   6.980   5.410  0.4468 -2.2050 -0.8310
  934MOL0     H28832   8.042   7.060   5.293  0.6455  0.4959  4.0292
  934MOL0     H28833   7.739   7.130   5.313 -1.0619  1.3194 -2.5795
  934MOL0     H28834   7.872   7.211   5.229  0.9867 -3.0468 -1.1267
  934MOL0     H28835   7.854   7.166   5.529  1.8147  0.7851  1.8786
  934MOL0     H28836   7.983   7.264   5.438 -1.2619  1.7284 -2.4489
  934MOL0     H28837   7.834   7.394   5.571 -0.8114 -1.2904  0.4960
  934MOL0     H28838   7.703   7.340   5.472  0.0079 -2.4988  0.6669
  934MOL0     H28839   7.914   7.513   5.354  0.5862 -1.5694  2.1280
  934MOL0     H28840   7.794   7.428   5.265 -0.4758  2.2464 -0.9626
  934MOL0     H28841   7.697   7.669   5.189 -1.8859  0.4688  0.6843
  934MOL0     H28842   7.598   7.903   5.189 -1.5953 -3.0163 -1.0463
  934MOL0     H28843   7.586   7.970   5.358 -0.0143  0.0223  0.5892
  934MOL0     H28844   7.380   7.832   5.202  1.3436 -1.6055 -0.0010
  934MOL0     H28845   7.353   7.883   5.376 -2.6311 -0.6401 -1.7019
  934MOL0     H28846   7.373   8.119   5.326  0.3412  0.4438 -1.6277
  934MOL0     H28847   7.422   8.083   5.159  1.5128  0.1466  0.4704
  934MOL0     H28848   7.206   8.075   5.100  1.7624  1.6576 -0.2482
  934MOL0     H28849   7.156   7.977   5.240  0.9515 -1.1543 -1.6490
  934MOL0     H28850   7.028   8.384   5.387 -1.8548  3.5184 -2.5821
  934MOL0     H28851   6.845   8.535   5.440 -1.2989  1.4065  1.0498
  934MOL0     H28852   6.845   8.406   5.548  0.6186 -0.9117 -0.9078
  934MOL0     H28853   6.685   8.453   5.469  0.1937  2.0199 -0.6848
  934MOL0     H28854   6.298   8.150   5.278  1.2907  2.5433  1.3363
  934MOL0     H28855   6.064   8.198   5.176  0.6171  1.7165  4.0032
  934MOL0     H28856   5.929   8.346   5.091  3.9625  0.9013 -0.5363
  934MOL0     H28857   5.853   8.401   4.940  0.5387 -0.2928 -0.9250
  934MOL0     H28858   5.831   8.159   4.866  2.8485 -3.6852  0.2395
  934MOL0     H28859   5.925   8.115   5.003  1.0876  1.1998 -1.9238
  934MOL0     H28860   5.639   8.240   5.027  0.9662  1.7377  3.8608
  934MOL0     H28861   5.745   8.222   5.160  3.0261  0.1234 -0.5800
  934MOL0     H28862   5.717   8.012   5.199  0.0118  0.2337 -0.0033
  934MOL0     H28863   5.753   7.969   5.039  1.8649  1.3083 -0.0721
  934MOL0     H28864   5.490   8.073   5.142  1.2376 -1.4179  0.5319
  934MOL0     H28865   5.501   8.026   4.975 -0.0351 -0.4502 -0.6783
  934MOL0     H28866   5.533   7.830   5.196 -0.3433 -1.4823 -0.1743
  934MOL0     H28867   5.578   7.805   5.021  0.3068 -0.8008  0.3487
  934MOL0     H28868   5.354   7.712   5.064  0.0859 -0.1421 -0.3958
  934MOL0     H28869   5.334   7.861   4.968  2.3825  0.5107 -0.3932
  934MOL0     H28870   5.169   7.815   5.142  0.3012 -0.4248  2.0660
  934MOL0     H28871   5.244   7.971   5.161 -3.2494  0.2484 -0.7444
  934MOL0     H28872   6.260   8.389   4.842  0.2985 -1.8338 -0.4506
  934MOL0     H28873   6.478   8.331   4.938  1.1041 -0.8728 -0.7627
  934MOL0     H28874   6.743   8.094   5.124  0.1531  0.5541 -0.5720
  934MOL0     H28875   6.976   8.056   5.125 -0.9449 -1.3186  1.6778
  934MOL0     H28876   7.530   7.140   5.011 -1.0070  0.7440  1.6247
  934MOL0     H28877   7.306   7.150   4.867 -0.3091 -2.5395 -2.9651
  934MOL0     H28878   7.009   7.049   4.658 -0.9097  3.5635 -0.0877
  934MOL0     H28879   6.826   7.094   4.512 -0.4737  1.6222 -0.0373
  934MOL0     H28880   6.388   7.111   4.468 -1.6867 -1.2658  1.2085
  934MOL0     H28881   6.399   7.010   4.621  2.1860 -1.1369  0.1533
  934MOL0     H28882   6.441   7.223   4.746 -2.6130  1.3013  1.1270
  934MOL0     H28883   6.293   7.234   4.657  0.3921 -0.1126  0.1921
  934MOL0     H28884   6.563   7.322   4.544 -0.5234 -2.0952  0.0336
  934MOL0     H28885   6.413   7.351   4.468 -0.2053 -2.9143  0.1592
  934MOL0     H28886   6.489   7.554   4.606  2.2716 -0.2439  2.0119
  934MOL0     H28887   6.486   7.450   4.748  2.2888  1.3798 -0.2192
  934MOL0     H28888   6.131   7.635   4.762 -0.8392  1.3677 -3.2685
  934MOL0     H28889   6.532   6.977   4.812 -1.7746 -1.1177 -3.4104
  934MOL0     H28890   6.752   6.814   5.022  2.2903  0.8687 -1.2658
  934MOL0     H28891   6.750   6.982   5.087  1.8355  0.8161 -0.8056
  934MOL0     H28892   6.601   6.926   5.023  0.1025  3.1637 -3.1262
  935MOL0     O28893   7.944  11.458  10.940  0.1527  0.9001  0.7750
  935MOL0     C28894   7.841  11.479  10.868 -0.9243 -1.0221  0.8891
  935MOL0     O28895   7.828  11.480  10.729  1.1289  0.5334 -0.2958
  935MOL0     C28896   7.928  11.420  10.658  0.2233 -0.5620  0.0670
  935MOL0     C28897   8.056  11.485  10.652  0.2993 -0.4198 -1.5983
  935MOL0     C28898   8.157  11.444  10.566  0.2473 -1.1499 -0.5597
  935MOL0     C28899   8.146  11.313  10.517  0.2158  0.0340  0.3560
  935MOL0     O28900   8.251  11.255  10.442  0.1999  0.2277  0.3940
  935MOL0     C28901   8.376  11.274  10.514  0.9275  0.6270  1.2810
  935MOL0     C28902   8.466  11.165  10.458  0.9656  0.1012 -0.8625
  935MOL0     C28903   8.478  11.159  10.313 -0.3199  0.1586 -0.2437
  935MOL0     C28904   8.614  11.094  10.279 -0.0068 -0.2682 -0.3676
  935MOL0     C28905   8.630  11.076  10.120 -0.2271  0.0791  0.6294
  935MOL0     C28906   8.766  11.003  10.100  0.0361 -0.0268  0.2601
  935MOL0     C28907   8.880  11.096  10.131 -0.6166 -0.2035  0.2795
  935MOL0     C28908   9.007  11.028  10.074 -0.1899 -0.3929 -0.4530
  935MOL0     N28909   9.014  10.889  10.126 -0.4932  0.1472 -0.5210
  935MOL0     C28910   9.013  10.846  10.260 -0.0404 -0.1552  0.2395
  935MOL0     C28911   9.005  10.709  10.260 -0.8923 -0.6092  0.7177
  935MOL0     C28912   9.020  10.610  10.371 -0.0813  0.2414  0.0623
  935MOL0     C28913   8.977  10.658  10.503  0.7015 -0.2231 -0.2183
  935MOL0     C28914   8.830  10.690  10.526 -0.2859 -0.7654  0.4262
  935MOL0     C28915   8.743  10.565  10.537 -0.2424  0.1341  0.2372
  935MOL0     O28916   8.606  10.609  10.550  0.2818  0.0063  0.2531
  935MOL0     C28917   8.543  10.676  10.438 -0.6328 -0.7807 -0.7200
  935MOL0     C28918   8.421  10.731  10.470 -0.5928  0.0874  0.2992
  935MOL0     C28919   8.343  10.806  10.376  0.6159  0.6921  0.1310
  935MOL0     C28920   8.218  10.866  10.439 -0.2042  0.0117 -0.0071
  935MOL0     C28921   8.387  10.814  10.239 -0.0923  0.1262  0.0333
  935MOL0     C28922   8.303  10.878  10.129 -0.4136  0.1844  0.2910
  935MOL0     O28923   8.360  10.856  10.004 -0.3677  0.6535 -0.0812
  935MOL0     C28924   8.304  10.871   9.881 -0.5577  0.5524 -0.3739
  935MOL0     C28925   8.391  10.867   9.767 -0.2013  0.8379  0.0468
  935MOL0     C28926   8.351  10.887   9.638 -0.7254 -0.3095 -0.1794
  935MOL0     C28927   8.216  10.918   9.609 -0.4726 -0.4375  0.6107
  935MOL0     O28928   8.177  10.953   9.481 -0.5480 -1.8671 -0.0900
  935MOL0     C28929   8.045  10.928   9.436  0.6428  0.2685 -0.0811
  935MOL0     C28930   8.058  10.929   9.279  0.8029  0.1510  0.7661
  935MOL0     C28931   8.119  11.064   9.231 -0.6538  0.2178  0.2554
  935MOL0     C28932   8.061  11.096   9.093 -0.6877  0.2956  0.0004
  935MOL0     C28933   8.087  11.244   9.046 -0.3474 -0.7605  0.7543
  935MOL0     C28934   8.230  11.294   9.054 -0.0340 -0.1676 -0.2292
  935MOL0     C28935   8.310  11.208   8.946 -1.1659  1.1391 -0.1804
  935MOL0     C28936   8.430  11.299   8.902  0.3609 -0.3560 -0.1994
  935MOL0    Cl28937   8.518  11.219   8.767 -0.0225 -0.3071  0.1445
  935MOL0     C28938   8.129  10.922   9.719 -0.7656  0.2320 -0.2761
  935MOL0     C28939   8.173  10.898   9.852  0.0536  0.4734 -0.5865
  935MOL0     O28940   8.197  10.936  10.150 -0.1520  0.1472  1.1547
  935MOL0     C28941   8.510  10.754  10.211 -0.2595  0.8054 -0.8311
  935MOL0     C28942   8.590  10.688  10.301 -0.2664  0.0429 -0.5435
  935MOL0     N28943   9.003  10.679  10.121 -0.1415  0.3129 -0.0087
  935MOL0     N28944   9.013  10.783  10.041  0.4662 -0.5616 -0.5238
  935MOL0     C28945   8.025  11.246  10.522 -0.6888  0.6094 -0.7642
  935MOL0     C28946   7.914  11.298  10.596  0.7929  0.3424 -0.0043
  935MOL0     C28947   7.717  11.502  10.940  0.0013  0.7495 -0.0939
  935MOL0     C28948   7.663  11.629  10.921 -0.7667  1.0492 -0.4155
  935MOL0     C28949   7.547  11.662  10.982  1.2319  0.4453  0.6132
  935MOL0     C28950   7.465  11.564  11.048  0.7010  0.2055 -0.0538
  935MOL0     O28951   7.348  11.597  11.117  0.4081  0.5444 -0.8712
  935MOL0     C28952   7.281  11.725  11.091 -0.4920 -0.6593  0.1960
  935MOL0     C28953   7.227  11.753  10.949  0.3669  0.6925 -0.0537
  935MOL0     C28954   7.119  11.644  10.920  0.6987  0.6812 -0.6199
  935MOL0     C28955   7.022  11.605  11.030  0.5255  0.5382  0.6918
  935MOL0     C28956   6.901  11.562  10.966  1.5258  0.0760 -0.0031
  935MOL0     C28957   6.791  11.530  10.932  0.0093 -0.9004  0.1091
  935MOL0     C28958   7.520  11.438  11.063  0.1554 -0.1144 -0.2630
  935MOL0     C28959   7.644  11.403  11.009 -0.8226  0.0982 -0.5962
  935MOL0     C28960   7.695  11.266  11.034 -0.2800 -0.0158 -0.3082
  935MOL0     H28961   8.058  11.585  10.695 -2.2702 -0.5013 -1.1617
  935MOL0     H28962   8.243  11.508  10.547 -0.2046 -0.6249 -0.8678
  935MOL0     H28963   8.361  11.245  10.618 -0.8479 -1.6224  0.5037
  935MOL0     H28964   8.423  11.373  10.512 -0.0850  1.1152  0.2130
  935MOL0     H28965   8.566  11.172  10.502  0.8432  4.0608 -0.8524
  935MOL0     H28966   8.421  11.068  10.482 -2.5538  1.8022  0.0785
  935MOL0     H28967   8.399  11.094  10.274 -0.2716  0.2696 -0.5285
  935MOL0     H28968   8.482  11.252  10.255 -1.8818 -0.2778 -1.1015
  935MOL0     H28969   8.692  11.151  10.331 -1.0245 -2.2895  3.7504
  935MOL0     H28970   8.612  10.997  10.328  0.6171  0.2260  0.6735
  935MOL0     H28971   8.622  11.177  10.079  0.0783  0.5615  1.7342
  935MOL0     H28972   8.548  11.014  10.082  0.4985  0.2489 -1.3208
  935MOL0     H28973   8.760  10.909  10.156 -3.0690  0.6627  1.2538
  935MOL0     H28974   8.768  10.969   9.996  1.1253 -1.5063  0.7297
  935MOL0     H28975   8.899  11.110  10.238 -0.2419  0.7852  0.0978
  935MOL0     H28976   8.870  11.193  10.082 -0.2904  0.6410  1.8001
  935MOL0     H28977   9.012  11.031   9.965  0.0629 -3.1269 -0.6003
  935MOL0     H28978   9.094  11.089  10.101 -0.6219  0.8480 -1.7502
  935MOL0     H28979   9.011  10.914  10.344 -3.6031  2.4900 -1.7170
  935MOL0     H28980   9.124  10.581  10.390 -0.9068 -1.8076  1.7867
  935MOL0     H28981   8.961  10.521  10.349 -0.7110  0.0850  2.1563
  935MOL0     H28982   9.010  10.584  10.577  0.7719  0.0840  0.0593
  935MOL0     H28983   9.029  10.753  10.520  0.8378 -0.2900 -0.2566
  935MOL0     H28984   8.812  10.756  10.612  0.5886 -0.2281  0.2095
  935MOL0     H28985   8.813  10.750  10.437  4.3166 -1.8906 -1.5122
  935MOL0     H28986   8.773  10.500  10.454 -2.0298 -1.4478  0.7412
  935MOL0     H28987   8.759  10.516  10.634 -3.1222 -1.6788 -0.0681
  935MOL0     H28988   8.381  10.720  10.570 -1.8452 -1.6250 -0.3527
  935MOL0     H28989   8.127  10.827  10.391  0.2268 -1.6818  0.4681
  935MOL0     H28990   8.203  10.974  10.428 -1.1395  0.0083  1.0157
  935MOL0     H28991   8.200  10.835  10.543 -1.5544 -0.7749 -0.4436
  935MOL0     H28992   8.498  10.851   9.779  0.3272  3.3788 -0.5967
  935MOL0     H28993   8.406  10.894   9.544  1.3709  0.1003  1.0123
  935MOL0     H28994   8.004  10.835   9.475  0.9019  2.0772  5.2688
  935MOL0     H28995   7.967  10.997   9.469 -0.7725 -1.4290  0.2835
  935MOL0     H28996   8.123  10.845   9.256  1.8482  0.7722  1.3732
  935MOL0     H28997   7.959  10.905   9.240  1.5206 -2.7798  0.5622
  935MOL0     H28998   8.228  11.057   9.233 -0.1432  4.9346 -0.2105
  935MOL0     H28999   8.082  11.142   9.298 -0.3437 -1.0713  2.0011
  935MOL0     H29000   7.953  11.089   9.076 -0.4273 -2.9871 -1.1124
  935MOL0     H29001   8.110  11.027   9.024  0.8780 -1.9463  3.1171
  935MOL0     H29002   8.061  11.273   8.943  1.7689  5.3285  1.5362
  935MOL0     H29003   8.023  11.314   9.100 -0.7034  0.8030 -1.5555
  935MOL0     H29004   8.272  11.270   9.153  1.9708  0.3882 -0.9039
  935MOL0     H29005   8.253  11.398   9.030  1.3087 -0.2549  0.5684
  935MOL0     H29006   8.239  11.191   8.865 -2.2261  0.0065  0.9455
  935MOL0     H29007   8.344  11.115   8.993 -0.5119  2.3148  1.7911
  935MOL0     H29008   8.503  11.320   8.980 -1.4370 -1.6125  1.9428
  935MOL0     H29009   8.402  11.400   8.869  2.1416  0.4869  0.7646
  935MOL0     H29010   8.029  10.955   9.694 -0.1977  1.4017 -1.1002
  935MOL0     H29011   8.097  10.904   9.928  0.1961  2.0620 -0.5290
  935MOL0     H29012   8.550  10.757  10.109  0.4891  2.1589 -0.5142
  935MOL0     H29013   8.688  10.664  10.261  0.6282 -1.4956  2.2434
  935MOL0     H29014   8.033  11.151  10.471  2.1682 -0.2423  1.0323
  935MOL0     H29015   7.822  11.241  10.594  2.0539 -2.0280 -4.3590
  935MOL0     H29016   7.713  11.702  10.858  4.2399 -0.2074  1.6541
  935MOL0     H29017   7.516  11.766  10.979  2.3557  0.9888  3.9008
  935MOL0     H29018   7.200  11.736  11.164 -1.4341 -0.3128 -0.8773
  935MOL0     H29019   7.347  11.811  11.106 -0.7734 -0.1544 -1.3547
  935MOL0     H29020   7.295  11.746  10.864  0.8648  3.9172 -0.0344
  935MOL0     H29021   7.171  11.847  10.947 -0.9075 -0.0645 -1.1087
  935MOL0     H29022   7.065  11.671  10.829 -1.9044 -0.9633  0.3163
  935MOL0     H29023   7.165  11.551  10.886  0.8130  1.0913 -1.6213
  935MOL0     H29024   7.002  11.689  11.097  2.7875  1.6047  0.1391
  935MOL0     H29025   7.070  11.521  11.082 -2.5930 -0.9303  1.4224
  935MOL0     H29026   6.692  11.498  10.907 -0.8075  0.9432  0.7659
  935MOL0     H29027   7.464  11.367  11.124 -0.5880  1.4218  0.9035
  935MOL0     H29028   7.749  11.231  10.945 -0.4140  0.1904 -0.4697
  935MOL0     H29029   7.759  11.255  11.122 -0.4196  1.4607 -0.0047
  935MOL0     H29030   7.610  11.206  11.068 -2.7734  4.0705  1.2745
  936MOL0     O29031   3.147  10.669   8.194  0.5628 -0.1365  0.2118
  936MOL0     C29032   3.195  10.750   8.280 -0.3468  0.1812 -0.4226
  936MOL0     O29033   3.120  10.840   8.354 -0.9810  0.6244 -0.7301
  936MOL0     C29034   2.985  10.863   8.322 -0.2233 -0.4462  0.1369
  936MOL0     C29035   2.922  10.985   8.326 -0.6473 -0.8693  0.3574
  936MOL0     C29036   2.792  11.005   8.297  0.0972 -0.1971 -0.8745
  936MOL0     C29037   2.711  10.899   8.259  0.6213  0.0019 -0.2998
  936MOL0     O29038   2.581  10.931   8.232  0.0323 -0.8470  0.1899
  936MOL0     C29039   2.493  10.823   8.181  0.5960 -0.3167  0.2256
  936MOL0     C29040   2.351  10.877   8.161 -0.3032  0.2050 -0.6309
  936MOL0     C29041   2.241  10.773   8.128  0.1817 -0.3084 -0.6494
  936MOL0     C29042   2.117  10.835   8.068  0.5356 -0.0981 -0.2481
  936MOL0     C29043   2.041  10.941   8.162 -0.1697  0.0872 -0.5929
  936MOL0     C29044   1.940  11.023   8.088  0.0722 -0.3849  0.0321
  936MOL0     C29045   1.882  11.122   8.199  1.0227 -0.3145  0.1919
  936MOL0     C29046   1.791  11.050   8.308 -0.5279  0.1374  0.0468
  936MOL0     N29047   1.666  11.005   8.251 -0.1740 -0.5177 -0.0392
  936MOL0     C29048   1.563  11.083   8.239  0.0428  0.7286  0.8639
  936MOL0     C29049   1.472  11.017   8.169 -0.7934 -0.0499  0.6626
  936MOL0     C29050   1.339  11.070   8.129  0.5802 -0.7256 -0.0370
  936MOL0     C29051   1.254  11.106   8.247  0.2482  0.1424  0.5384
  936MOL0     C29052   1.104  11.104   8.215 -0.3628  0.2229  0.2364
  936MOL0     C29053   1.027  11.086   8.350  0.2376 -0.4042  0.7945
  936MOL0     O29054   1.032  10.959   8.402 -0.3464  0.8294 -0.6451
  936MOL0     C29055   0.979  10.931   8.527  0.1685 -0.7962  0.8698
  936MOL0     C29056   0.957  10.794   8.562 -0.3947  0.0328 -0.2340
  936MOL0     C29057   0.884  10.753   8.682  0.8068  0.0658  1.7062
  936MOL0     C29058   0.872  10.606   8.701 -0.2828  0.1710 -0.2194
  936MOL0     C29059   0.841  10.863   8.763 -0.2767  0.3866 -0.2961
  936MOL0     C29060   0.774  10.838   8.887  0.2869 -0.2818 -0.3028
  936MOL0     O29061   0.677  10.746   8.892 -0.1221  0.1154  0.4405
  936MOL0     C29062   0.644  10.695   9.008 -0.0912 -0.1355 -0.9771
  936MOL0     C29063   0.511  10.687   9.025  0.9446  0.1193  1.0813
  936MOL0     C29064   0.450  10.628   9.131 -0.3201  0.4998 -0.5082
  936MOL0     C29065   0.527  10.565   9.225  0.5472 -0.4332 -0.2985
  936MOL0     O29066   0.469  10.492   9.325 -0.0997  0.4978 -0.4978
  936MOL0     C29067   0.500  10.539   9.459  0.1429  0.4690  0.0822
  936MOL0     C29068   0.375  10.525   9.547 -0.5024 -0.0891  0.2239
  936MOL0     C29069   0.323  10.381   9.539 -0.5464 -0.0862 -0.3494
  936MOL0     C29070   0.227  10.336   9.645 -0.2652 -0.5114  0.0636
  936MOL0     C29071   0.215  10.184   9.654  0.1995 -0.4552 -0.4957
  936MOL0     C29072   0.080  10.149   9.709  0.6084 -0.1699  1.0962
  936MOL0     C29073   0.052  10.170   9.862  0.5711  0.6712 -0.0037
  936MOL0     C29074  -0.055  10.064   9.900 -0.4618  0.6836  0.8850
  936MOL0    Cl29075  -0.197  10.068   9.791 -0.2856 -0.0344 -0.3775
  936MOL0     C29076   0.673  10.565   9.214  0.2217  0.3638  0.0148
  936MOL0     C29077   0.725  10.631   9.102 -0.0566  0.4620 -0.3523
  936MOL0     O29078   0.812  10.910   8.980 -0.9405 -0.1461 -0.0769
  936MOL0     C29079   0.873  10.995   8.732  0.2188  0.4569 -0.7378
  936MOL0     C29080   0.925  11.026   8.610 -0.7392  0.2873  0.8750
  936MOL0     N29081   1.527  10.897   8.136  0.1627 -0.5463 -0.0115
  936MOL0     N29082   1.646  10.895   8.188 -0.7146  0.6794  0.2366
  936MOL0     C29083   2.767  10.771   8.254 -0.3708 -0.3940  0.8247
  936MOL0     C29084   2.901  10.751   8.291  0.2923 -0.2749  0.0802
  936MOL0     C29085   3.337  10.774   8.296 -0.4243  0.2252  0.2457
  936MOL0     C29086   3.397  10.883   8.224  0.3018 -0.7397 -0.9232
  936MOL0     C29087   3.536  10.894   8.217 -0.2594  0.2486 -0.8493
  936MOL0     C29088   3.622  10.806   8.285 -0.2583  0.1583 -0.0551
  936MOL0     O29089   3.761  10.801   8.290  0.1677  0.7478 -0.2877
  936MOL0     C29090   3.835  10.921   8.265  0.1690 -1.5901  0.1271
  936MOL0     C29091   3.822  11.025   8.379  0.1128  0.1802  0.5718
  936MOL0     C29092   3.882  10.972   8.504  0.1659  0.0535  0.6054
  936MOL0     C29093   3.889  11.085   8.625 -0.4573  0.6432 -0.1933
  936MOL0     C29094   3.928  11.016   8.754  0.1869  0.0171  0.8813
  936MOL0     C29095   3.967  10.947   8.842  0.8712  0.1301 -0.9465
  936MOL0     C29096   3.565  10.704   8.359 -0.1725  1.1386 -1.0483
  936MOL0     C29097   3.427  10.694   8.375  0.3621  0.0143 -0.2693
  936MOL0     C29098   3.363  10.587   8.463 -0.5640 -0.3782  0.6539
  936MOL0     H29099   2.989  11.065   8.356  1.4856 -1.7974 -1.5718
  936MOL0     H29100   2.745  11.102   8.296  3.1041  1.4240  1.0117
  936MOL0     H29101   2.491  10.737   8.248  1.7419 -1.6530 -1.3879
  936MOL0     H29102   2.527  10.780   8.087  0.0205 -1.6161  0.5915
  936MOL0     H29103   2.328  10.928   8.255  2.1874  0.4828 -0.1089
  936MOL0     H29104   2.360  10.948   8.079 -2.9970  1.4393  0.0038
  936MOL0     H29105   2.282  10.697   8.062  2.8920  3.5592 -3.9117
  936MOL0     H29106   2.205  10.732   8.223  2.6335  1.2498  1.0867
  936MOL0     H29107   2.136  10.893   7.977 -1.8340  1.1715 -0.0244
  936MOL0     H29108   2.040  10.761   8.044 -0.4400  0.0168  2.3017
  936MOL0     H29109   2.121  11.002   8.204  0.4131 -1.5550  0.8159
  936MOL0     H29110   1.989  10.880   8.237  0.7511 -0.4632 -0.3852
  936MOL0     H29111   1.989  11.082   8.011  3.2205 -1.1490  1.3178
  936MOL0     H29112   1.875  10.955   8.032 -0.4560 -0.4350  0.6896
  936MOL0     H29113   1.823  11.205   8.160  0.1655  0.4994  2.9924
  936MOL0     H29114   1.961  11.175   8.253  1.9635  0.1422 -1.5969
  936MOL0     H29115   1.845  10.962   8.346 -1.9095  0.0288  1.8543
  936MOL0     H29116   1.778  11.128   8.383 -0.7284  2.2943 -2.0755
  936MOL0     H29117   1.554  11.186   8.270 -4.7755  1.1690 -1.0630
  936MOL0     H29118   1.289  10.986   8.078 -0.6705  0.8549 -1.5322
  936MOL0     H29119   1.349  11.154   8.060  0.7345 -0.6599  0.0653
  936MOL0     H29120   1.263  11.035   8.329 -0.0124 -0.7029 -0.1474
  936MOL0     H29121   1.292  11.204   8.276  0.4390  1.2900 -3.0067
  936MOL0     H29122   1.069  11.192   8.160 -2.0082 -0.3629  0.2847
  936MOL0     H29123   1.071  11.023   8.149  1.7371 -0.5863  0.1134
  936MOL0     H29124   1.062  11.166   8.416  3.5822 -1.8673  1.0220
  936MOL0     H29125   0.925  11.113   8.323  1.5083  0.2979 -4.4431
  936MOL0     H29126   1.011  10.722   8.501  1.3294  2.9422 -2.3864
  936MOL0     H29127   0.932  10.554   8.625 -2.7836  0.2743 -2.4278
  936MOL0     H29128   0.776  10.565   8.668  1.0509 -0.9471 -3.0972
  936MOL0     H29129   0.897  10.581   8.804 -0.0598  1.0681 -0.0473
  936MOL0     H29130   0.452  10.749   8.958  2.8817  1.0381  0.1667
  936MOL0     H29131   0.341  10.632   9.126 -0.3302 -0.6559 -2.0495
  936MOL0     H29132   0.574  10.469   9.499  0.7646 -0.6090 -2.7602
  936MOL0     H29133   0.545  10.639   9.466  2.6345 -0.6298  0.9686
  936MOL0     H29134   0.401  10.537   9.652 -0.0928 -4.8379  0.8638
  936MOL0     H29135   0.301  10.603   9.525  1.4858  1.4406 -1.4142
  936MOL0     H29136   0.409  10.313   9.534 -0.0780  0.5759 -2.7079
  936MOL0     H29137   0.271  10.353   9.446  0.0497 -1.3403 -0.3248
  936MOL0     H29138   0.134  10.387   9.621 -0.4746 -0.5256  0.8322
  936MOL0     H29139   0.257  10.369   9.745 -0.0291  0.0687 -0.1963
  936MOL0     H29140   0.218  10.136   9.556  1.5910 -3.4353  0.8744
  936MOL0     H29141   0.294  10.145   9.718 -2.7947  0.1487  4.0493
  936MOL0     H29142   0.073  10.043   9.683  0.2441  0.0300  0.3506
  936MOL0     H29143   0.008  10.207   9.651  0.4532  0.3666  1.8199
  936MOL0     H29144   0.020  10.272   9.885  0.5864  0.2745  2.0282
  936MOL0     H29145   0.143  10.161   9.922  1.8467  1.4215 -1.7772
  936MOL0     H29146  -0.087  10.085  10.003  1.3260  1.7641  1.2680
  936MOL0     H29147  -0.001   9.968   9.898  1.1800  1.5877 -0.1564
  936MOL0     H29148   0.746  10.524   9.283  1.6475  2.5672 -0.0748
  936MOL0     H29149   0.833  10.625   9.092  0.0750 -1.1421  1.4004
  936MOL0     H29150   0.849  11.071   8.806  1.6607 -0.3651  0.6301
  936MOL0     H29151   0.939  11.131   8.585 -1.1877  1.1834  3.9474
  936MOL0     H29152   2.714  10.680   8.226  0.4588 -0.5650 -0.2459
  936MOL0     H29153   2.933  10.648   8.307  3.6003  0.7895  1.0750
  936MOL0     H29154   3.328  10.947   8.171 -0.6164 -1.5747 -0.7465
  936MOL0     H29155   3.580  10.970   8.153  0.4048  0.8462  0.2848
  936MOL0     H29156   3.940  10.894   8.261  0.6559  0.2104 -0.1749
  936MOL0     H29157   3.790  10.959   8.173 -3.5530 -2.4431  1.3845
  936MOL0     H29158   3.715  11.046   8.388 -0.6039 -1.8990 -1.9281
  936MOL0     H29159   3.870  11.120   8.355  0.6121 -0.5391 -1.5472
  936MOL0     H29160   3.812  10.898   8.546  2.7265 -1.5163  2.3941
  936MOL0     H29161   3.975  10.916   8.493  0.7902  1.1974 -0.0371
  936MOL0     H29162   3.793  11.134   8.645 -1.5757 -0.6487 -2.0485
  936MOL0     H29163   3.954  11.171   8.608 -1.7828  2.7531  4.0938
  936MOL0     H29164   4.011  10.898   8.926  0.4492 -2.8385 -2.3249
  936MOL0     H29165   3.632  10.646   8.421 -0.6018  0.9085 -0.7966
  936MOL0     H29166   3.434  10.519   8.510 -1.2950  1.3822  4.7752
  936MOL0     H29167   3.304  10.629   8.545 -2.0218  0.3564 -0.7028
  936MOL0     H29168   3.300  10.534   8.391 -0.4841 -0.6659  0.7953
  937MOL0     O29169   2.311   4.921   6.464 -0.2722 -0.5432 -0.1001
  937MOL0     C29170   2.231   5.003   6.508 -0.0050 -0.4180  0.8154
  937MOL0     O29171   2.261   5.133   6.519 -0.1789 -0.1558 -0.4082
  937MOL0     C29172   2.394   5.164   6.495  0.9498  0.5367 -0.2490
  937MOL0     C29173   2.483   5.177   6.600  0.7095  0.2818 -0.2010
  937MOL0     C29174   2.620   5.182   6.585  0.5328 -0.0238  0.4268
  937MOL0     C29175   2.670   5.171   6.449  0.2735 -0.0980 -0.0231
  937MOL0     O29176   2.792   5.181   6.401  0.1266  0.1280  0.2640
  937MOL0     C29177   2.898   5.162   6.489  0.8178 -0.0160 -0.1140
  937MOL0     C29178   2.939   5.019   6.488 -0.1794  0.6172  0.2513
  937MOL0     C29179   2.934   4.951   6.344 -0.2740  0.8018 -0.3209
  937MOL0     C29180   3.010   4.825   6.343  0.7692 -0.0770  0.0183
  937MOL0     C29181   3.140   4.821   6.261  0.1487  0.0771  0.2067
  937MOL0     C29182   3.245   4.932   6.296 -0.4483  0.1076  0.4708
  937MOL0     C29183   3.333   4.909   6.414 -0.3751  0.5768  0.3063
  937MOL0     C29184   3.425   4.792   6.390  0.0102 -0.7277 -0.4862
  937MOL0     N29185   3.373   4.655   6.419 -1.2255  0.6031  0.7816
  937MOL0     C29186   3.265   4.625   6.494 -0.3503  0.6497 -0.4946
  937MOL0     C29187   3.255   4.487   6.470  0.3071  0.1624  0.6780
  937MOL0     C29188   3.139   4.401   6.534  0.1257  0.0353 -1.2294
  937MOL0     C29189   3.007   4.440   6.458 -0.2649 -0.1101 -0.0658
  937MOL0     C29190   2.885   4.391   6.529  0.0644 -0.0695  1.5781
  937MOL0     C29191   2.866   4.233   6.540 -0.0718 -0.9631  0.0866
  937MOL0     O29192   2.744   4.201   6.625  0.2233  0.1614 -0.1729
  937MOL0     C29193   2.616   4.243   6.581 -0.0391  0.1514 -0.3865
  937MOL0     C29194   2.581   4.280   6.456 -0.9547  0.7243  0.0463
  937MOL0     C29195   2.448   4.295   6.408  0.6015 -0.2609  0.0360
  937MOL0     C29196   2.432   4.325   6.265 -0.1168  0.0077  0.4019
  937MOL0     C29197   2.339   4.301   6.509  0.5988  0.1425 -0.9556
  937MOL0     C29198   2.199   4.344   6.472  0.6841  0.3913 -0.2405
  937MOL0     O29199   2.122   4.385   6.578 -0.1969 -0.9562  0.3063
  937MOL0     C29200   1.992   4.393   6.556  0.6875 -0.6508  0.0358
  937MOL0     C29201   1.916   4.339   6.658 -0.4902  0.2399  0.2788
  937MOL0     C29202   1.774   4.348   6.658 -0.2502  0.8638 -0.6643
  937MOL0     C29203   1.718   4.426   6.555 -0.2289  0.1896  1.0855
  937MOL0     O29204   1.581   4.466   6.549 -0.0373  0.0996  1.1316
  937MOL0     C29205   1.487   4.354   6.549 -0.1436  0.6180 -0.6302
  937MOL0     C29206   1.434   4.321   6.408  0.2291 -0.2423 -0.4506
  937MOL0     C29207   1.372   4.443   6.339  0.0195 -0.2675  0.0182
  937MOL0     C29208   1.242   4.511   6.402 -0.2238 -0.3196  0.2328
  937MOL0     C29209   1.192   4.618   6.309  1.0392  0.0107 -0.5193
  937MOL0     C29210   1.291   4.722   6.256 -0.7366  0.5043 -0.2772
  937MOL0     C29211   1.351   4.824   6.366  0.5171  0.5883  0.8547
  937MOL0     C29212   1.377   4.958   6.302 -0.0053  0.3303  0.2314
  937MOL0    Cl29213   1.439   5.081   6.413 -0.4289  0.4141 -0.1674
  937MOL0     C29214   1.799   4.478   6.452 -0.1729  0.3494 -0.1359
  937MOL0     C29215   1.931   4.464   6.452 -0.9372  0.0060 -0.2628
  937MOL0     O29216   2.162   4.326   6.356 -0.6488 -0.8305  0.0031
  937MOL0     C29217   2.384   4.255   6.637  0.0060 -0.1494  0.4563
  937MOL0     C29218   2.516   4.225   6.673  0.4336 -0.5327 -1.3427
  937MOL0     N29219   3.349   4.448   6.381  0.3913 -0.3612 -0.0789
  937MOL0     N29220   3.420   4.549   6.345 -0.6358  0.5261  0.3301
  937MOL0     C29221   2.576   5.188   6.342  0.3693 -0.2453  0.4242
  937MOL0     C29222   2.439   5.174   6.366 -0.0576 -0.4362 -0.5360
  937MOL0     C29223   2.088   4.967   6.522  0.2192  0.0098  0.4255
  937MOL0     C29224   1.990   5.070   6.517 -0.2502  0.5827 -0.8478
  937MOL0     C29225   1.857   5.039   6.536 -0.8241  0.3046  0.2587
  937MOL0     C29226   1.822   4.916   6.557 -0.5715  0.3513 -0.4508
  937MOL0     O29227   1.693   4.879   6.579 -0.0800  0.5057  0.4008
  937MOL0     C29228   1.643   4.902   6.713  0.0500  0.7026  1.6821
  937MOL0     C29229   1.491   4.879   6.691  0.3267 -0.6283 -0.3712
  937MOL0     C29230   1.404   4.902   6.816 -0.5891 -0.5293 -0.0580
  937MOL0     C29231   1.265   4.841   6.791 -0.1764  0.1914 -0.8948
  937MOL0     C29232   1.182   4.922   6.705  0.2589 -0.4806 -0.6213
  937MOL0     C29233   1.119   4.995   6.624  0.1225 -0.2846 -1.0877
  937MOL0     C29234   1.910   4.810   6.552 -0.0565  0.1641 -0.0230
  937MOL0     C29235   2.046   4.837   6.548 -0.6651  0.0133  0.5123
  937MOL0     C29236   2.146   4.715   6.563 -0.0588 -0.2366 -0.0384
  937MOL0     H29237   2.446   5.190   6.700 -0.1749 -2.3443 -0.0944
  937MOL0     H29238   2.687   5.194   6.669  0.0736 -1.6013  1.0572
  937MOL0     H29239   2.881   5.189   6.593  1.3126 -0.3188  0.0531
  937MOL0     H29240   2.979   5.228   6.457  2.2816 -1.0099  1.3351
  937MOL0     H29241   3.033   5.010   6.543  0.1697 -0.3428 -0.4808
  937MOL0     H29242   2.873   4.963   6.555  0.5868  2.3149  2.5729
  937MOL0     H29243   2.831   4.938   6.309  0.1870 -2.5800 -0.7778
  937MOL0     H29244   2.972   5.022   6.270 -0.1011  0.5677 -0.4578
  937MOL0     H29245   3.027   4.798   6.448 -0.2827 -1.9056 -0.2362
  937MOL0     H29246   2.939   4.755   6.298 -0.8596  1.8673 -0.5677
  937MOL0     H29247   3.105   4.832   6.158  0.3630 -2.0419 -0.1391
  937MOL0     H29248   3.180   4.720   6.269  0.5294  0.2521  0.5516
  937MOL0     H29249   3.307   4.932   6.206 -0.9868 -0.5918  0.0857
  937MOL0     H29250   3.202   5.032   6.300 -0.0079  0.2415  2.3862
  937MOL0     H29251   3.262   4.872   6.488  0.8848 -1.8485  0.3969
  937MOL0     H29252   3.392   4.995   6.447  1.2545  0.1380 -1.3103
  937MOL0     H29253   3.452   4.781   6.284 -1.8713 -0.4537 -1.0224
  937MOL0     H29254   3.517   4.812   6.445  0.2350  0.9729 -1.3943
  937MOL0     H29255   3.209   4.691   6.559 -0.8379  0.8361 -1.0877
  937MOL0     H29256   3.133   4.424   6.641 -0.9754 -0.0489 -1.2672
  937MOL0     H29257   3.161   4.294   6.535 -0.9698 -0.1988 -0.1377
  937MOL0     H29258   2.999   4.548   6.446 -0.8990 -0.4140 -3.3214
  937MOL0     H29259   3.008   4.403   6.355 -1.6331 -0.5931  0.0751
  937MOL0     H29260   2.874   4.437   6.628 -1.0410 -0.2713  1.5680
  937MOL0     H29261   2.803   4.431   6.469 -0.6294 -1.1508  1.7771
  937MOL0     H29262   2.874   4.195   6.438  1.5678 -1.4354  0.3736
  937MOL0     H29263   2.956   4.192   6.586  1.0988  0.5107 -0.7651
  937MOL0     H29264   2.656   4.279   6.377 -2.4052 -0.2547 -1.4005
  937MOL0     H29265   2.380   4.420   6.251  1.6311  0.7508 -1.5965
  937MOL0     H29266   2.379   4.247   6.210 -0.8133  1.1634 -0.6192
  937MOL0     H29267   2.534   4.337   6.226  0.9937  1.4265  3.4555
  937MOL0     H29268   1.958   4.270   6.731  0.0130  1.3082  1.0234
  937MOL0     H29269   1.717   4.295   6.734 -0.5104  0.1694 -1.3340
  937MOL0     H29270   1.530   4.259   6.581 -0.1153  0.6111 -0.6886
  937MOL0     H29271   1.406   4.368   6.620  2.2293 -5.5441  4.2202
  937MOL0     H29272   1.508   4.284   6.336  0.2381  1.0760 -1.1587
  937MOL0     H29273   1.354   4.247   6.416  0.0856 -0.1246 -0.7623
  937MOL0     H29274   1.358   4.409   6.236  0.1987  3.1308 -1.2500
  937MOL0     H29275   1.453   4.517   6.338  0.5944 -0.8485  1.5484
  937MOL0     H29276   1.261   4.554   6.501  0.9439  0.9784 -0.5225
  937MOL0     H29277   1.164   4.436   6.417  0.1836 -0.4091  2.0745
  937MOL0     H29278   1.153   4.556   6.228  3.4855 -0.9742 -1.0469
  937MOL0     H29279   1.102   4.667   6.347 -0.7862 -4.1400  1.2168
  937MOL0     H29280   1.234   4.783   6.185  0.4783  2.1342  0.0658
  937MOL0     H29281   1.364   4.662   6.202 -0.1043 -0.9726  2.0573
  937MOL0     H29282   1.439   4.791   6.422  1.2022 -0.7940 -0.9474
  937MOL0     H29283   1.272   4.850   6.438  0.2172  4.6575 -0.6585
  937MOL0     H29284   1.302   4.989   6.229  1.1436 -1.1961 -1.7316
  937MOL0     H29285   1.458   4.937   6.231 -2.4696 -0.1623 -2.6631
  937MOL0     H29286   1.774   4.543   6.369  0.3757  1.4911  0.5742
  937MOL0     H29287   1.995   4.501   6.372 -1.9468 -0.1092 -1.1608
  937MOL0     H29288   2.308   4.264   6.714 -1.4150 -1.3216 -0.7522
  937MOL0     H29289   2.540   4.189   6.773  0.7276  1.1764 -0.7636
  937MOL0     H29290   2.612   5.189   6.240 -1.5631 -1.3102 -0.3336
  937MOL0     H29291   2.362   5.158   6.291 -0.4055  1.1186 -0.5411
  937MOL0     H29292   2.024   5.172   6.501  2.1938 -0.0115  0.0772
  937MOL0     H29293   1.779   5.114   6.537  0.1953  1.4669  2.7629
  937MOL0     H29294   1.685   4.846   6.797 -0.1172 -0.8434  0.7635
  937MOL0     H29295   1.651   5.008   6.740  1.8250  1.7706 -2.2423
  937MOL0     H29296   1.482   4.772   6.670  0.7442 -0.7830  0.2367
  937MOL0     H29297   1.451   4.947   6.614 -3.2549 -1.0834  0.8794
  937MOL0     H29298   1.444   4.842   6.898 -1.0925 -1.5216 -0.5150
  937MOL0     H29299   1.399   5.009   6.841  1.2397 -0.4413  0.0803
  937MOL0     H29300   1.210   4.821   6.884  0.0790  2.8440 -0.1088
  937MOL0     H29301   1.270   4.746   6.737  2.4857  1.0522 -2.3362
  937MOL0     H29302   1.065   5.076   6.578 -0.3765 -0.4967 -0.8785
  937MOL0     H29303   1.867   4.710   6.558  0.7131 -0.5135 -3.7398
  937MOL0     H29304   2.170   4.653   6.476  0.7049 -1.5445  1.0730
  937MOL0     H29305   2.242   4.742   6.608  0.1110 -0.4261 -0.2805
  937MOL0     H29306   2.108   4.636   6.628  1.6310 -1.6371 -0.6803
  938MOL0     O29307   4.865   1.914   7.841 -0.3604  0.0329 -0.2635
  938MOL0     C29308   4.947   1.853   7.909 -0.6029  0.3689 -0.0309
  938MOL0     O29309   5.084   1.888   7.912 -0.1140  0.1108  0.6140
  938MOL0     C29310   5.125   1.975   7.811 -0.0860  0.1108 -0.1637
  938MOL0     C29311   5.084   2.106   7.813 -0.1073 -0.3237  0.1276
  938MOL0     C29312   5.147   2.194   7.720  0.2005  0.2411 -0.0775
  938MOL0     C29313   5.234   2.152   7.625  0.3135  0.0630  0.1766
  938MOL0     O29314   5.297   2.231   7.534  0.4720  0.1860  0.1111
  938MOL0     C29315   5.331   2.358   7.574  0.1770  0.0408 -0.1308
  938MOL0     C29316   5.425   2.414   7.475 -0.4828 -0.0415 -0.3798
  938MOL0     C29317   5.578   2.363   7.489  0.9662  0.7691 -0.0515
  938MOL0     C29318   5.665   2.408   7.376 -0.0553 -0.7884 -0.2528
  938MOL0     C29319   5.806   2.368   7.422 -0.4685 -0.0604  0.2999
  938MOL0     C29320   5.902   2.380   7.309  0.2246  0.7340 -0.3546
  938MOL0     C29321   5.926   2.530   7.258  0.8506  0.2124  0.1412
  938MOL0     C29322   6.007   2.624   7.338  0.1810 -1.0978 -0.5745
  938MOL0     N29323   6.038   2.750   7.273  0.3368 -0.5205 -0.9041
  938MOL0     C29324   5.955   2.853   7.236  0.7375  1.0756 -0.9485
  938MOL0     C29325   6.041   2.943   7.181 -0.5274 -0.0643  0.6485
  938MOL0     C29326   5.989   3.064   7.118  0.1471  0.4579  0.6811
  938MOL0     C29327   6.035   3.198   7.179 -0.4219  0.6524 -0.8451
  938MOL0     C29328   5.999   3.191   7.334 -0.1271 -0.7344  0.2516
  938MOL0     C29329   5.996   3.333   7.399 -0.4967  0.7733 -0.8333
  938MOL0     O29330   5.908   3.426   7.330  1.0233  0.5599  0.0645
  938MOL0     C29331   5.870   3.550   7.388 -0.5963 -0.3333 -0.6179
  938MOL0     C29332   5.960   3.620   7.462 -0.6891  0.2132  1.0171
  938MOL0     C29333   5.929   3.751   7.513  1.2760  0.7410  0.8132
  938MOL0     C29334   6.034   3.825   7.578 -0.6178 -0.5283  0.0006
  938MOL0     C29335   5.781   3.791   7.500  0.0917  0.2007  0.0508
  938MOL0     C29336   5.726   3.905   7.577 -0.3464  0.4432 -1.0969
  938MOL0     O29337   5.621   3.970   7.517 -0.5788 -0.3446 -0.5445
  938MOL0     C29338   5.547   4.069   7.579 -0.4325  0.0220 -0.1957
  938MOL0     C29339   5.421   4.076   7.540  1.8894 -0.6011 -0.5556
  938MOL0     C29340   5.338   4.170   7.602  0.4597 -0.2192  0.7691
  938MOL0     C29341   5.383   4.248   7.707  0.2435  0.8389  0.1064
  938MOL0     O29342   5.300   4.329   7.785  0.1318  0.0736 -0.4902
  938MOL0     C29343   5.187   4.373   7.708 -1.3141  1.1658  0.7081
  938MOL0     C29344   5.136   4.509   7.761  0.0655 -1.4426 -0.1256
  938MOL0     C29345   5.024   4.483   7.861  0.3529 -0.8084  0.4750
  938MOL0     C29346   5.010   4.599   7.967  0.4365  0.3506  0.1819
  938MOL0     C29347   4.918   4.559   8.081  0.1880  0.0888 -0.8927
  938MOL0     C29348   4.896   4.678   8.181  0.2930  0.3974 -0.5820
  938MOL0     C29349   4.826   4.636   8.318 -0.0138  0.3541  0.0475
  938MOL0     C29350   4.680   4.628   8.317 -0.3504 -0.5837  0.1312
  938MOL0    Cl29351   4.609   4.601   8.481 -0.4509 -0.1935 -0.0518
  938MOL0     C29352   5.511   4.255   7.738 -0.7034  0.4324  0.1321
  938MOL0     C29353   5.606   4.171   7.666  0.7977  0.0389 -0.8534
  938MOL0     O29354   5.772   3.925   7.692 -0.0258  0.0626 -0.7820
  938MOL0     C29355   5.694   3.714   7.421 -0.1080  0.0262 -0.1990
  938MOL0     C29356   5.738   3.597   7.364  0.7088  0.4550 -0.0983
  938MOL0     N29357   6.174   2.901   7.195 -0.1748  0.3692 -0.2963
  938MOL0     N29358   6.169   2.786   7.257  0.4751 -0.1484 -0.0311
  938MOL0     C29359   5.276   2.024   7.627 -0.1186  0.2190  0.5160
  938MOL0     C29360   5.224   1.931   7.718  0.4664 -0.9534 -0.6081
  938MOL0     C29361   4.905   1.762   8.026  0.5509  0.2283  1.2653
  938MOL0     C29362   4.994   1.740   8.137  0.3973 -1.4279  0.3401
  938MOL0     C29363   4.953   1.664   8.241 -0.0186 -0.0463  0.2779
  938MOL0     C29364   4.825   1.613   8.260  0.1499  0.1914  0.8761
  938MOL0     O29365   4.784   1.555   8.376 -0.3786 -0.3848  0.4323
  938MOL0     C29366   4.681   1.628   8.439  0.1454 -0.2315 -0.0878
  938MOL0     C29367   4.703   1.612   8.594 -0.0258 -0.2846 -0.1429
  938MOL0     C29368   4.642   1.486   8.653 -1.2243 -0.1761  0.2847
  938MOL0     C29369   4.529   1.510   8.754 -0.7724  0.7704 -0.4155
  938MOL0     C29370   4.572   1.571   8.881  0.1443  0.1251 -0.2972
  938MOL0     C29371   4.595   1.613   8.993 -0.2597  1.6677  0.2859
  938MOL0     C29372   4.733   1.635   8.155  0.5636 -0.7999  0.0311
  938MOL0     C29373   4.779   1.703   8.035 -0.2596  0.8592 -0.2987
  938MOL0     C29374   4.669   1.724   7.935 -0.0456 -0.0260  0.5993
  938MOL0     H29375   5.016   2.146   7.888 -4.3216 -0.0981 -3.3932
  938MOL0     H29376   5.114   2.293   7.748  0.8737  0.9386 -1.6571
  938MOL0     H29377   5.370   2.360   7.676  0.1622  0.9705 -0.1273
  938MOL0     H29378   5.242   2.420   7.589 -0.9896 -1.6397  0.1992
  938MOL0     H29379   5.382   2.406   7.375  0.0659  1.4454 -0.7700
  938MOL0     H29380   5.434   2.521   7.495  2.4114 -0.0664 -1.1130
  938MOL0     H29381   5.612   2.412   7.580  3.4820  0.3633 -0.6831
  938MOL0     H29382   5.573   2.254   7.490 -1.2045  0.6970 -3.3982
  938MOL0     H29383   5.643   2.373   7.275  0.4976 -0.3147 -0.5476
  938MOL0     H29384   5.652   2.517   7.370  3.6409 -0.3004 -3.2754
  938MOL0     H29385   5.806   2.260   7.440  2.1263 -0.1157  0.2605
  938MOL0     H29386   5.846   2.423   7.508  0.3927  1.5137 -1.0710
  938MOL0     H29387   5.997   2.327   7.323 -0.7299 -0.9703 -0.0158
  938MOL0     H29388   5.847   2.334   7.227 -2.4453 -1.3332  2.3822
  938MOL0     H29389   5.826   2.570   7.238  0.3585 -1.9790 -2.2872
  938MOL0     H29390   5.975   2.521   7.161 -0.2107  1.7155 -0.5713
  938MOL0     H29391   5.971   2.634   7.441 -1.1724 -0.3776 -1.0873
  938MOL0     H29392   6.103   2.572   7.348  1.5928  1.3272 -0.7425
  938MOL0     H29393   5.847   2.852   7.252  1.2724 -0.5969  5.3059
  938MOL0     H29394   5.880   3.078   7.113 -0.1220 -1.2025  1.4635
  938MOL0     H29395   6.022   3.063   7.014 -0.4389 -1.0530  0.4967
  938MOL0     H29396   6.142   3.218   7.169 -0.4138  1.1596  0.0966
  938MOL0     H29397   5.979   3.281   7.136  1.4031  2.6600  0.4742
  938MOL0     H29398   5.897   3.152   7.340 -0.2641 -0.2005  1.7479
  938MOL0     H29399   6.073   3.137   7.393 -2.3604 -2.3501  1.7624
  938MOL0     H29400   5.951   3.323   7.498  3.6067  0.0288  1.1616
  938MOL0     H29401   6.098   3.369   7.411  0.1930 -0.4527 -2.5436
  938MOL0     H29402   6.063   3.584   7.457 -0.6704  0.3769 -2.0272
  938MOL0     H29403   6.063   3.789   7.677 -0.1799  0.0294  0.0786
  938MOL0     H29404   6.011   3.932   7.588  0.7281 -0.2949  0.7605
  938MOL0     H29405   6.119   3.825   7.510 -0.0736 -0.4313  0.6755
  938MOL0     H29406   5.364   4.027   7.461 -1.6722 -0.1606  1.5412
  938MOL0     H29407   5.235   4.169   7.567  1.2076  0.4025 -1.6680
  938MOL0     H29408   5.214   4.381   7.603  0.8452  0.1289  1.1334
  938MOL0     H29409   5.106   4.300   7.706 -0.0867 -0.2174 -0.2663
  938MOL0     H29410   5.221   4.566   7.800  0.4317 -1.3168 -1.0892
  938MOL0     H29411   5.092   4.570   7.682 -0.2871  0.4345  1.4429
  938MOL0     H29412   5.053   4.400   7.926  0.4295 -0.9548  0.2524
  938MOL0     H29413   4.929   4.475   7.807  0.7751  0.0509 -0.4260
  938MOL0     H29414   4.970   4.686   7.914 -4.0017  0.4845  3.1621
  938MOL0     H29415   5.111   4.614   8.007  0.1269  1.0288  0.7401
  938MOL0     H29416   4.827   4.540   8.025 -1.0606  0.5152  0.9102
  938MOL0     H29417   4.960   4.470   8.129 -0.2455 -0.0196 -0.7079
  938MOL0     H29418   4.853   4.764   8.129  0.7206  0.1278 -1.4100
  938MOL0     H29419   4.993   4.704   8.224  0.7180 -1.8949  0.0214
  938MOL0     H29420   4.852   4.728   8.372 -3.3215  2.4533 -1.5694
  938MOL0     H29421   4.869   4.553   8.375 -2.7097 -0.9259  0.3964
  938MOL0     H29422   4.654   4.539   8.258 -0.5950 -1.7279  1.9068
  938MOL0     H29423   4.642   4.719   8.269 -1.7282  0.7105  3.4084
  938MOL0     H29424   5.536   4.319   7.822 -0.5296 -0.4542  0.7824
  938MOL0     H29425   5.712   4.188   7.680  0.9649 -0.1021 -1.9233
  938MOL0     H29426   5.595   3.758   7.409  0.3326  1.1239  0.0293
  938MOL0     H29427   5.662   3.544   7.308 -0.1714  2.5531 -0.9915
  938MOL0     H29428   5.357   1.994   7.562 -0.2637  1.4635 -0.2757
  938MOL0     H29429   5.244   1.825   7.727 -0.1251 -0.8844  2.9821
  938MOL0     H29430   5.094   1.781   8.128  0.1591 -1.1259 -1.3161
  938MOL0     H29431   5.020   1.641   8.323 -0.2889 -2.9007 -0.1766
  938MOL0     H29432   4.682   1.737   8.430  3.0640  0.1611  3.1029
  938MOL0     H29433   4.584   1.586   8.409  1.0176 -1.2973 -1.5496
  938MOL0     H29434   4.649   1.696   8.639  0.8119 -1.6800  3.8742
  938MOL0     H29435   4.809   1.612   8.618  0.2146  0.7324 -1.1141
  938MOL0     H29436   4.621   1.408   8.580 -0.4981 -0.7662  0.6985
  938MOL0     H29437   4.727   1.446   8.709  0.6833  0.8741 -1.7009
  938MOL0     H29438   4.491   1.411   8.780  1.2593  0.0148 -0.1366
  938MOL0     H29439   4.447   1.566   8.707 -1.1401 -0.4074 -1.2479
  938MOL0     H29440   4.592   1.647   9.095 -1.8990  2.3826  0.0382
  938MOL0     H29441   4.630   1.600   8.149  1.0247 -2.1191 -0.4657
  938MOL0     H29442   4.614   1.818   7.946  0.8436  0.7204 -1.0381
  938MOL0     H29443   4.695   1.718   7.829 -0.9287  0.0601  0.3747
  938MOL0     H29444   4.601   1.639   7.950  0.3697 -0.3123  0.9018
  939MOL0     O29445   0.714   4.319   5.672 -0.1808 -0.7221 -0.5494
  939MOL0     C29446   0.707   4.300   5.547  0.1152  1.1317 -0.3013
  939MOL0     O29447   0.659   4.385   5.451 -0.5859  0.1505  0.1450
  939MOL0     C29448   0.627   4.504   5.511 -1.0994  0.1651 -0.4781
  939MOL0     C29449   0.519   4.529   5.597  0.4332 -0.3450  0.1550
  939MOL0     C29450   0.501   4.657   5.657 -0.3219  0.5891 -0.6484
  939MOL0     C29451   0.587   4.758   5.621  0.8705  0.4070 -0.4646
  939MOL0     O29452   0.568   4.882   5.678 -0.3204  0.2758 -0.6540
  939MOL0     C29453   0.483   4.972   5.610 -0.9492 -1.0183 -0.4109
  939MOL0     C29454   0.461   5.091   5.704  0.2300  1.3999  0.0615
  939MOL0     C29455   0.373   5.209   5.656  1.3144 -1.1704  1.0535
  939MOL0     C29456   0.425   5.293   5.538  0.3608 -0.7355 -0.7810
  939MOL0     C29457   0.344   5.414   5.505  0.4709  0.8357 -0.1021
  939MOL0     C29458   0.214   5.443   5.584 -0.1881 -0.1675 -0.3159
  939MOL0     C29459   0.113   5.544   5.527 -0.4038  0.9352  0.1363
  939MOL0     C29460   0.012   5.587   5.630  0.6906  0.1020 -0.0141
  939MOL0     N29461  -0.070   5.690   5.564  0.2361 -0.5657 -0.3300
  939MOL0     C29462  -0.022   5.800   5.495  0.2429 -0.8110  0.6845
  939MOL0     C29463  -0.130   5.876   5.452 -0.0730  0.8860 -0.1173
  939MOL0     C29464  -0.112   6.011   5.394  0.0205 -1.2355 -0.2058
  939MOL0     C29465  -0.177   6.120   5.481  0.2169  0.4100  0.0120
  939MOL0     C29466  -0.085   6.118   5.621 -0.4597 -0.2102 -0.5415
  939MOL0     C29467  -0.122   6.237   5.713  0.4205 -0.4998 -0.7432
  939MOL0     O29468  -0.096   6.360   5.645  0.4800 -0.1169 -1.0027
  939MOL0     C29469   0.029   6.418   5.646  0.5138  0.1863  0.1816
  939MOL0     C29470   0.042   6.542   5.592  1.0421  0.7295 -0.8103
  939MOL0     C29471   0.161   6.601   5.575 -0.8094 -0.3397 -0.1446
  939MOL0     C29472   0.169   6.733   5.484 -0.7380  0.4652 -0.4190
  939MOL0     C29473   0.274   6.555   5.642 -0.5287 -0.2683 -0.1996
  939MOL0     C29474   0.411   6.614   5.641 -0.4683 -0.5005  0.5261
  939MOL0     O29475   0.515   6.554   5.711 -0.5290  0.7880 -0.7684
  939MOL0     C29476   0.647   6.583   5.685  1.0148  0.1218 -1.4402
  939MOL0     C29477   0.704   6.543   5.571 -0.5421  1.2278  1.0581
  939MOL0     C29478   0.833   6.570   5.542  0.2037 -0.9498  0.5268
  939MOL0     C29479   0.914   6.637   5.632 -0.0298 -0.3290 -0.7182
  939MOL0     O29480   1.043   6.652   5.596  0.2627 -0.3937 -1.0629
  939MOL0     C29481   1.094   6.787   5.614  0.2487  0.1461 -0.9679
  939MOL0     C29482   1.235   6.765   5.658  0.5673  0.5447 -0.9352
  939MOL0     C29483   1.303   6.897   5.675 -0.9605 -0.3124 -0.4781
  939MOL0     C29484   1.290   6.975   5.812 -0.3722  0.3406 -0.4520
  939MOL0     C29485   1.150   7.001   5.850  0.7224 -0.4238 -0.4791
  939MOL0     C29486   1.141   7.091   5.974  0.2824 -0.3214 -0.0687
  939MOL0     C29487   0.993   7.097   6.020 -0.4352  0.6641  0.5085
  939MOL0     C29488   0.899   7.142   5.911  0.0951 -0.4233  0.1228
  939MOL0    Cl29489   0.760   7.221   6.004 -0.1589 -0.1946  0.2746
  939MOL0     C29490   0.862   6.669   5.760  0.7137  0.0136  0.1888
  939MOL0     C29491   0.725   6.652   5.781  0.4582  0.5775 -0.0821
  939MOL0     O29492   0.428   6.714   5.571  0.1580 -0.1661 -0.1659
  939MOL0     C29493   0.260   6.426   5.697 -0.9127 -0.0338  0.8494
  939MOL0     C29494   0.143   6.357   5.701 -0.7702  0.1638 -0.2380
  939MOL0     N29495  -0.244   5.807   5.490 -0.5075  0.2814 -0.3111
  939MOL0     N29496  -0.207   5.696   5.553  0.4442  0.4078  1.4966
  939MOL0     C29497   0.692   4.741   5.539  0.3097 -0.1021  1.1879
  939MOL0     C29498   0.710   4.612   5.480 -0.5447 -0.6456  0.5119
  939MOL0     C29499   0.718   4.158   5.508 -0.8712  0.7472  0.0314
  939MOL0     C29500   0.647   4.117   5.400 -0.2959  0.3677 -0.3445
  939MOL0     C29501   0.650   3.987   5.356  0.8167 -0.2614 -0.0821
  939MOL0     C29502   0.733   3.897   5.411 -0.3011  0.0772 -0.4118
  939MOL0     O29503   0.727   3.767   5.358 -0.1195  0.0311 -0.1735
  939MOL0     C29504   0.827   3.666   5.394  0.1870 -0.6554 -0.2690
  939MOL0     C29505   0.769   3.532   5.342 -0.9596  0.1313  0.3842
  939MOL0     C29506   0.627   3.502   5.387  0.2446  0.5328  0.2368
  939MOL0     C29507   0.575   3.373   5.322 -0.8145 -0.7949  0.1936
  939MOL0     C29508   0.438   3.366   5.333 -0.3591 -0.6200  0.8124
  939MOL0     C29509   0.319   3.379   5.324 -0.4050 -0.0680  0.4611
  939MOL0     C29510   0.800   3.932   5.528 -0.5135 -0.0010 -0.5245
  939MOL0     C29511   0.800   4.065   5.573  0.1897 -0.3649  0.6662
  939MOL0     C29512   0.884   4.091   5.698  0.5355 -0.7291  0.9187
  939MOL0     H29513   0.453   4.446   5.620  0.8067 -0.8955 -0.7048
  939MOL0     H29514   0.414   4.682   5.717  0.1993  0.0342  0.3575
  939MOL0     H29515   0.384   4.931   5.594 -2.3138  2.4709 -1.8482
  939MOL0     H29516   0.523   4.988   5.510  0.8899 -0.3550  0.3683
  939MOL0     H29517   0.416   5.045   5.792  1.8000 -1.8380 -0.7069
  939MOL0     H29518   0.554   5.132   5.744 -0.2589  1.3786  1.2644
  939MOL0     H29519   0.276   5.165   5.630 -0.6098  1.0967  3.8497
  939MOL0     H29520   0.340   5.275   5.736  1.6072  2.0761 -1.3277
  939MOL0     H29521   0.530   5.319   5.553 -0.2561  2.2280 -0.8852
  939MOL0     H29522   0.423   5.239   5.443  0.6196 -0.4056 -0.9799
  939MOL0     H29523   0.328   5.418   5.397 -3.0855  0.3603  0.2783
  939MOL0     H29524   0.418   5.492   5.527  0.7146 -0.1334  2.9493
  939MOL0     H29525   0.155   5.352   5.602  1.3505 -1.5352 -1.7351
  939MOL0     H29526   0.264   5.471   5.677 -3.3261 -0.6310  1.6403
  939MOL0     H29527   0.069   5.489   5.444  3.3203 -3.7417  0.8752
  939MOL0     H29528   0.166   5.631   5.486  0.6374  0.6414  0.8260
  939MOL0     H29529  -0.051   5.501   5.653  1.2578 -0.1674  0.5643
  939MOL0     H29530   0.071   5.629   5.712  1.5070  1.0184 -1.0238
  939MOL0     H29531   0.083   5.826   5.485  0.0195 -0.8674 -2.9263
  939MOL0     H29532  -0.165   6.023   5.299 -1.5847  0.3976  0.8264
  939MOL0     H29533  -0.005   6.031   5.378  1.3400 -5.1880  2.3324
  939MOL0     H29534  -0.182   6.217   5.431 -1.3419  0.5753  0.4427
  939MOL0     H29535  -0.281   6.090   5.492  0.2473 -0.2620 -1.2545
  939MOL0     H29536  -0.099   6.024   5.675  0.4213 -0.4273 -0.6711
  939MOL0     H29537   0.019   6.135   5.594 -0.6833  2.2580 -0.0461
  939MOL0     H29538  -0.227   6.234   5.744  1.0329 -1.3555  1.4091
  939MOL0     H29539  -0.066   6.218   5.805 -0.4200  0.0813 -0.0851
  939MOL0     H29540  -0.041   6.590   5.540 -0.3710 -1.9332 -1.2019
  939MOL0     H29541   0.065   6.743   5.451 -0.2858  1.3058 -1.6727
  939MOL0     H29542   0.239   6.708   5.404 -1.1428 -0.2862 -0.5514
  939MOL0     H29543   0.209   6.813   5.547 -1.3056 -0.4563  1.1726
  939MOL0     H29544   0.649   6.487   5.496 -2.4804 -0.4432  3.5832
  939MOL0     H29545   0.866   6.539   5.443 -3.2486 -2.4586 -0.3283
  939MOL0     H29546   1.100   6.859   5.532 -0.4497  3.4385  1.6311
  939MOL0     H29547   1.026   6.838   5.682  1.9003 -1.5923  2.2232
  939MOL0     H29548   1.230   6.706   5.750  0.0610 -0.4460 -1.5756
  939MOL0     H29549   1.266   6.699   5.577 -1.3821 -0.3391 -1.0127
  939MOL0     H29550   1.296   6.973   5.597 -0.2723 -1.7058 -1.9585
  939MOL0     H29551   1.409   6.873   5.674 -0.7118  0.7279 -0.0146
  939MOL0     H29552   1.342   7.071   5.806 -1.0250  0.9133  1.9890
  939MOL0     H29553   1.342   6.915   5.887 -1.4800 -0.2919 -0.1737
  939MOL0     H29554   1.095   7.049   5.769  1.3265  1.6615  0.3003
  939MOL0     H29555   1.096   6.908   5.874 -1.5291  0.3717 -2.1098
  939MOL0     H29556   1.192   7.182   5.942 -0.5488 -0.8376 -3.2334
  939MOL0     H29557   1.189   7.037   6.057  0.0334 -2.2017 -1.0999
  939MOL0     H29558   0.985   7.153   6.113  0.5121  0.1345  0.9242
  939MOL0     H29559   0.976   6.989   6.033  2.2206 -0.0109 -0.7075
  939MOL0     H29560   0.874   7.065   5.837 -0.0174  0.1521 -0.4409
  939MOL0     H29561   0.935   7.217   5.840  0.0042  0.9106  1.4417
  939MOL0     H29562   0.922   6.728   5.828  1.0603  1.8984 -1.6338
  939MOL0     H29563   0.696   6.687   5.880  1.6682  0.6838  0.2496
  939MOL0     H29564   0.350   6.374   5.728  0.0022 -0.6712 -2.4664
  939MOL0     H29565   0.148   6.256   5.739 -4.1010  0.8019  2.2939
  939MOL0     H29566   0.753   4.826   5.507 -0.0444 -0.6925 -1.2084
  939MOL0     H29567   0.799   4.599   5.419 -1.2084  2.2114 -1.2704
  939MOL0     H29568   0.584   4.178   5.336  0.3406 -0.7031 -2.0245
  939MOL0     H29569   0.590   3.951   5.273  2.0856  0.6127 -1.4239
  939MOL0     H29570   0.931   3.676   5.364  0.3508 -2.2587 -0.3318
  939MOL0     H29571   0.832   3.660   5.503 -1.2366 -2.5265 -0.2457
  939MOL0     H29572   0.828   3.449   5.382 -0.7418  1.0502  2.0430
  939MOL0     H29573   0.772   3.534   5.232  1.5700 -1.8383  0.3388
  939MOL0     H29574   0.619   3.500   5.496 -1.3475 -2.7409  0.2043
  939MOL0     H29575   0.567   3.588   5.355  1.7007  2.4380  2.3733
  939MOL0     H29576   0.625   3.291   5.375  0.5189 -0.4799 -0.5389
  939MOL0     H29577   0.615   3.378   5.220 -0.5248 -0.5961  0.3144
  939MOL0     H29578   0.212   3.380   5.319 -0.4258  1.6713  0.4728
  939MOL0     H29579   0.852   3.854   5.583 -1.1369 -1.3385 -1.7576
  939MOL0     H29580   0.833   4.134   5.785  2.1230 -0.3301  1.6906
  939MOL0     H29581   0.935   4.006   5.743 -0.8699 -1.2168  1.6487
  939MOL0     H29582   0.958   4.165   5.666 -0.5998  0.1101  0.1088
  940MOL0     O29583   7.438   2.478   4.601  0.2392 -0.5707 -0.2700
  940MOL0     C29584   7.560   2.457   4.591  0.0986 -0.3083  0.5196
  940MOL0     O29585   7.616   2.355   4.518  0.3559  0.0027  0.4385
  940MOL0     C29586   7.523   2.297   4.426  1.8216 -0.8131 -0.2386
  940MOL0     C29587   7.431   2.193   4.466 -0.9801 -2.0167 -0.5261
  940MOL0     C29588   7.349   2.132   4.372  0.4349  0.2134 -0.6087
  940MOL0     C29589   7.348   2.174   4.241 -0.2327  0.5037 -0.2199
  940MOL0     O29590   7.284   2.102   4.146 -0.1511 -0.0231  0.1967
  940MOL0     C29591   7.335   1.970   4.133 -0.5878  1.0185 -0.2396
  940MOL0     C29592   7.222   1.865   4.136 -0.4717 -0.0853 -0.4694
  940MOL0     C29593   7.108   1.906   4.051  0.4459 -0.2684  0.3685
  940MOL0     C29594   6.980   1.833   4.100  0.5356 -0.2509 -0.5467
  940MOL0     C29595   6.972   1.684   4.084  0.2699 -0.4802 -0.1751
  940MOL0     C29596   6.966   1.631   3.941 -0.6745 -0.8933 -0.4100
  940MOL0     C29597   7.089   1.547   3.919  0.0725 -1.0602 -0.7355
  940MOL0     C29598   7.078   1.501   3.775 -0.5633  0.9605 -0.3325
  940MOL0     N29599   7.013   1.367   3.757  0.6287 -0.7807 -0.8979
  940MOL0     C29600   6.947   1.298   3.853 -0.0745  0.2903  0.1639
  940MOL0     C29601   6.954   1.174   3.805 -0.3415 -0.5710  0.3735
  940MOL0     C29602   6.912   1.055   3.881 -0.8437 -0.2397 -0.2822
  940MOL0     C29603   7.034   0.996   3.957  0.0977  0.2480  0.5244
  940MOL0     C29604   7.088   0.880   3.869  0.0009  0.3070 -0.2891
  940MOL0     C29605   7.239   0.919   3.862  0.6083  0.1296  0.9375
  940MOL0     O29606   7.320   0.806   3.825 -0.7488  0.0962  0.2647
  940MOL0     C29607   7.377   0.813   3.704  0.1395 -0.0287  0.3688
  940MOL0     C29608   7.321   0.869   3.591  1.3211  0.0694 -0.4615
  940MOL0     C29609   7.389   0.868   3.464  0.2171  0.8248  0.2682
  940MOL0     C29610   7.328   0.945   3.351  0.4921  0.0843 -0.2998
  940MOL0     C29611   7.512   0.799   3.462  0.3862 -1.5003  1.3767
  940MOL0     C29612   7.607   0.797   3.337  0.5850  0.2200 -0.2834
  940MOL0     O29613   7.721   0.711   3.344 -0.3796  0.3085 -0.4260
  940MOL0     C29614   7.797   0.725   3.227  0.4681 -0.5504 -0.7078
  940MOL0     C29615   7.861   0.851   3.209 -0.1733 -0.4597  0.1788
  940MOL0     C29616   7.964   0.855   3.109  0.6546 -0.6168 -0.4178
  940MOL0     C29617   7.986   0.750   3.027 -0.9115  0.0036 -0.7368
  940MOL0     O29618   8.091   0.750   2.932 -0.6885 -0.2208 -0.6690
  940MOL0     C29619   8.079   0.846   2.829 -0.1653 -0.4866  0.4007
  940MOL0     C29620   8.209   0.875   2.748  0.6822  0.5562  0.8026
  940MOL0     C29621   8.203   1.004   2.672 -0.2438 -0.3395 -0.2667
  940MOL0     C29622   8.312   1.020   2.561  0.1767  1.0378  0.4106
  940MOL0     C29623   8.299   1.162   2.504 -0.3148  0.5743 -0.7620
  940MOL0     C29624   8.414   1.205   2.408  0.0474 -0.4923 -0.8127
  940MOL0     C29625   8.406   1.345   2.336  0.4876 -0.3592 -0.1085
  940MOL0     C29626   8.467   1.455   2.406 -0.0159 -1.5517  0.1357
  940MOL0    Cl29627   8.411   1.475   2.584  0.4751 -0.0683 -0.0984
  940MOL0     C29628   7.930   0.634   3.051  0.2113  0.3746  0.3469
  940MOL0     C29629   7.833   0.614   3.155  0.4539  0.1434  0.2533
  940MOL0     O29630   7.576   0.874   3.243  0.1204 -0.0077  0.5434
  940MOL0     C29631   7.574   0.746   3.584  0.0638  0.9652  0.4760
  940MOL0     C29632   7.500   0.750   3.699  0.8841 -1.3027  0.3754
  940MOL0     N29633   7.001   1.178   3.673 -1.0474  0.3437  0.0097
  940MOL0     N29634   7.039   1.296   3.645  0.1775 -0.6961 -0.1147
  940MOL0     C29635   7.430   2.269   4.197 -0.9354  0.1453  0.0874
  940MOL0     C29636   7.522   2.337   4.286 -0.5213  0.4312  0.6879
  940MOL0     C29637   7.652   2.550   4.659  0.5004  0.0019  0.5329
  940MOL0     C29638   7.784   2.516   4.670 -0.2408  0.2257  0.1661
  940MOL0     C29639   7.874   2.594   4.730 -0.9445 -0.1073 -0.0840
  940MOL0     C29640   7.843   2.713   4.797 -0.6878  0.2738 -0.9946
  940MOL0     O29641   7.926   2.795   4.860 -0.2637  0.7569 -0.0875
  940MOL0     C29642   8.065   2.765   4.877 -0.6212  0.7934 -0.1035
  940MOL0     C29643   8.072   2.655   4.984 -0.4354 -0.4712 -0.1879
  940MOL0     C29644   8.023   2.715   5.113  0.2046 -0.1778 -0.1930
  940MOL0     C29645   8.015   2.623   5.237 -0.3390  0.3327 -0.3991
  940MOL0     C29646   7.927   2.513   5.248 -0.1732  0.2012  0.0926
  940MOL0     C29647   7.853   2.419   5.250 -0.3306  0.3098  0.3675
  940MOL0     C29648   7.717   2.759   4.781  0.8447  0.7909  0.5641
  940MOL0     C29649   7.618   2.678   4.720 -1.0054 -0.0920  0.8538
  940MOL0     C29650   7.484   2.734   4.730 -0.2355  1.0191  0.1184
  940MOL0     H29651   7.425   2.177   4.573 -0.7839  1.2826  0.0997
  940MOL0     H29652   7.286   2.047   4.399  2.4834 -0.7264  1.5719
  940MOL0     H29653   7.397   1.929   4.213 -0.0839 -1.4128 -1.7638
  940MOL0     H29654   7.397   1.961   4.043  1.5760 -0.3018  1.2749
  940MOL0     H29655   7.259   1.770   4.096 -0.4220  0.0105 -0.6557
  940MOL0     H29656   7.206   1.840   4.241  2.1284 -1.1309 -0.2363
  940MOL0     H29657   7.084   2.012   4.059  0.4303 -0.3335  1.2639
  940MOL0     H29658   7.119   1.869   3.949 -5.6486 -0.8631 -0.4841
  940MOL0     H29659   6.948   1.859   4.201  0.6064  0.5382 -0.7218
  940MOL0     H29660   6.901   1.880   4.041  0.2030  0.1854  0.2273
  940MOL0     H29661   6.880   1.660   4.138  1.0208  0.1467  1.4478
  940MOL0     H29662   7.053   1.634   4.138 -0.6063 -2.1150 -0.3068
  940MOL0     H29663   6.862   1.605   3.922 -0.8589  1.0684 -2.5154
  940MOL0     H29664   6.980   1.714   3.871 -4.8437 -0.4228 -0.9038
  940MOL0     H29665   7.099   1.471   3.996 -0.7393 -1.0891 -0.6475
  940MOL0     H29666   7.170   1.620   3.933 -1.2778  0.2915  0.3161
  940MOL0     H29667   7.013   1.563   3.713 -4.8252 -2.9954 -0.3829
  940MOL0     H29668   7.174   1.486   3.726  0.5972 -0.5736  2.1792
  940MOL0     H29669   6.909   1.332   3.948  1.6569  1.1091  0.5972
  940MOL0     H29670   6.869   0.987   3.806 -1.6346 -0.5684  0.4502
  940MOL0     H29671   6.839   1.083   3.958 -1.2484 -1.7953 -0.0547
  940MOL0     H29672   7.105   1.073   3.987 -1.3572  2.5718 -1.5950
  940MOL0     H29673   6.995   0.956   4.051 -0.9112 -0.2477 -0.0786
  940MOL0     H29674   7.072   0.789   3.927  1.9982  1.4926  2.3299
  940MOL0     H29675   7.048   0.873   3.768 -0.4489 -2.0324  0.0036
  940MOL0     H29676   7.258   1.003   3.794  2.2921  0.1291  1.3701
  940MOL0     H29677   7.273   0.947   3.962 -2.3662  0.8079  1.8559
  940MOL0     H29678   7.227   0.923   3.596  1.7987  0.8411  3.2977
  940MOL0     H29679   7.307   0.874   3.270  2.2509  1.8169 -2.4051
  940MOL0     H29680   7.390   1.028   3.317  2.4366 -0.7200  1.1474
  940MOL0     H29681   7.231   0.990   3.376 -0.2195 -1.0011 -0.9867
  940MOL0     H29682   7.840   0.933   3.278 -0.1970 -0.5021  0.2224
  940MOL0     H29683   8.020   0.948   3.112 -2.3512  1.3265  0.4864
  940MOL0     H29684   8.009   0.812   2.752  0.8653  0.0805 -0.8290
  940MOL0     H29685   8.055   0.939   2.882  0.7070  0.9533 -1.5844
  940MOL0     H29686   8.295   0.887   2.815  2.1802 -1.0762 -0.7143
  940MOL0     H29687   8.233   0.792   2.682 -3.7417 -1.7806  1.7646
  940MOL0     H29688   8.210   1.089   2.741 -3.5765 -0.8427  0.8609
  940MOL0     H29689   8.109   1.007   2.616  1.5901  1.4186 -3.6141
  940MOL0     H29690   8.294   0.944   2.484 -0.8072  0.5623  1.0800
  940MOL0     H29691   8.412   1.003   2.602 -0.0324 -2.3538 -0.1695
  940MOL0     H29692   8.201   1.167   2.455 -0.4338  0.3859 -0.5465
  940MOL0     H29693   8.291   1.226   2.592 -2.5591 -2.3558  1.3929
  940MOL0     H29694   8.415   1.135   2.324  1.3001 -0.3482 -0.9373
  940MOL0     H29695   8.508   1.201   2.464 -0.7750  2.5679  0.9865
  940MOL0     H29696   8.300   1.371   2.323  1.0212  1.7986 -0.5743
  940MOL0     H29697   8.446   1.332   2.235 -0.7265  3.7066 -1.3385
  940MOL0     H29698   8.467   1.554   2.358 -1.9767 -2.2289 -1.3759
  940MOL0     H29699   8.575   1.437   2.415  0.5193 -0.3283 -2.7434
  940MOL0     H29700   7.971   0.553   2.993 -1.2147  0.9818 -1.6254
  940MOL0     H29701   7.790   0.514   3.158  0.1991  0.0147 -3.1321
  940MOL0     H29702   7.672   0.700   3.580 -0.7593 -1.0608  1.8863
  940MOL0     H29703   7.538   0.728   3.799  1.4860  5.1800  1.9992
  940MOL0     H29704   7.423   2.289   4.091 -0.9672  0.8632  0.2178
  940MOL0     H29705   7.590   2.415   4.253  1.1562  0.0187  2.9566
  940MOL0     H29706   7.807   2.419   4.626  0.1584 -0.6030  2.1353
  940MOL0     H29707   7.977   2.559   4.730 -0.3784  1.2639 -2.5964
  940MOL0     H29708   8.111   2.744   4.780 -0.6300 -0.5901  0.1820
  940MOL0     H29709   8.110   2.858   4.913 -0.5308  0.7120 -0.0067
  940MOL0     H29710   8.169   2.605   4.994 -0.0926 -0.0792 -1.3770
  940MOL0     H29711   8.007   2.574   4.949 -3.4173  0.5883  2.4077
  940MOL0     H29712   8.102   2.782   5.148  1.0274  0.9968 -3.8678
  940MOL0     H29713   7.929   2.771   5.106  0.5882  0.3411 -1.3533
  940MOL0     H29714   7.986   2.693   5.316 -0.5018  1.1049 -1.1231
  940MOL0     H29715   8.120   2.596   5.251 -0.0973  2.0246  1.4574
  940MOL0     H29716   7.795   2.330   5.241 -2.6465  1.6452  1.0795
  940MOL0     H29717   7.697   2.854   4.827 -1.9110 -0.0663  1.3114
  940MOL0     H29718   7.445   2.753   4.629  1.8069  0.1515 -0.8775
  940MOL0     H29719   7.413   2.667   4.782 -0.2886 -0.8227 -2.1696
  940MOL0     H29720   7.468   2.817   4.799 -1.9815 -0.0932  1.1650
  941MOL0     O29721   6.563   0.545   3.813 -0.7185 -0.0778 -0.3547
  941MOL0     C29722   6.488   0.535   3.717 -0.5603 -0.4306 -0.8698
  941MOL0     O29723   6.365   0.595   3.714 -0.2577 -0.1932  0.8689
  941MOL0     C29724   6.317   0.642   3.836  0.4848  0.0197 -0.3005
  941MOL0     C29725   6.214   0.570   3.907 -0.9418 -0.2548  0.1195
  941MOL0     C29726   6.164   0.624   4.029 -0.6964 -0.5375  0.7282
  941MOL0     C29727   6.219   0.743   4.090 -0.3781 -0.0921  0.4485
  941MOL0     O29728   6.181   0.794   4.211 -0.0645 -0.7931  0.1026
  941MOL0     C29729   6.068   0.736   4.279  0.0460 -0.3833  0.4460
  941MOL0     C29730   6.029   0.830   4.391 -0.9005 -0.3803 -0.7868
  941MOL0     C29731   5.885   0.842   4.419  0.2024  0.6667 -0.3274
  941MOL0     C29732   5.857   0.947   4.528  0.3143 -0.1885  0.6781
  941MOL0     C29733   5.710   0.948   4.563  0.0688  0.2358 -0.5251
  941MOL0     C29734   5.620   1.026   4.468 -0.0652  0.3399  0.7268
  941MOL0     C29735   5.471   1.064   4.510 -0.2718  0.2466  0.1234
  941MOL0     C29736   5.379   1.140   4.405  0.4059  0.5939 -0.1904
  941MOL0     N29737   5.250   1.164   4.470  0.5250  0.0825 -0.5424
  941MOL0     C29738   5.151   1.080   4.511 -0.3646  0.2182  0.3701
  941MOL0     C29739   5.068   1.153   4.586 -0.1309 -1.1259  1.0866
  941MOL0     C29740   4.950   1.099   4.654  0.2934  1.5306 -0.6162
  941MOL0     C29741   4.834   1.199   4.662  0.1431  0.3399 -1.4610
  941MOL0     C29742   4.727   1.147   4.763  0.2908  0.0604  0.1518
  941MOL0     C29743   4.647   1.024   4.703  0.3052  0.7596 -0.1016
  941MOL0     O29744   4.533   0.993   4.776  1.3760 -0.0647  0.2204
  941MOL0     C29745   4.455   0.881   4.753 -0.2609 -0.2495 -0.3111
  941MOL0     C29746   4.508   0.757   4.709  0.3736  0.3100 -0.3932
  941MOL0     C29747   4.419   0.648   4.695 -0.9723 -0.5053 -0.5535
  941MOL0     C29748   4.487   0.516   4.646  0.1296 -0.3598 -1.0717
  941MOL0     C29749   4.285   0.667   4.724  0.5771 -0.6446 -0.1129
  941MOL0     C29750   4.179   0.564   4.691 -0.9876 -0.7585  0.4165
  941MOL0     O29751   4.049   0.600   4.714 -0.0031  0.2767 -0.4376
  941MOL0     C29752   3.953   0.518   4.653 -0.0545 -1.3127 -0.0458
  941MOL0     C29753   3.956   0.376   4.669  0.0828 -0.3252 -0.0741
  941MOL0     C29754   3.849   0.295   4.625  1.0500  0.7125 -0.2365
  941MOL0     C29755   3.748   0.351   4.551  0.9815 -0.6213  0.0182
  941MOL0     O29756   3.663   0.260   4.490 -0.0822 -0.8536 -0.3578
  941MOL0     C29757   3.530   0.304   4.466 -1.1273 -0.4812  0.5925
  941MOL0     C29758   3.429   0.202   4.486 -0.0549 -0.2823  0.6627
  941MOL0     C29759   3.292   0.257   4.446  0.4819 -0.1062 -0.6087
  941MOL0     C29760   3.230   0.195   4.327 -0.7818  0.3282  0.2914
  941MOL0     C29761   3.097   0.257   4.293 -0.1422 -0.2298  0.2181
  941MOL0     C29762   3.029   0.193   4.174 -0.1433 -0.0719 -0.5037
  941MOL0     C29763   3.000   0.042   4.197  0.5657 -0.3844  0.3668
  941MOL0     C29764   2.927  -0.021   4.089 -0.3906  0.2594  0.3880
  941MOL0    Cl29765   2.911  -0.207   4.111 -0.4358 -0.3590  0.4902
  941MOL0     C29766   3.749   0.490   4.523  0.5436 -0.5397 -0.0769
  941MOL0     C29767   3.840   0.574   4.591  0.3440  0.7326 -0.8293
  941MOL0     O29768   4.221   0.454   4.640  0.7963  0.3231  0.2664
  941MOL0     C29769   4.239   0.782   4.802  0.3189 -1.0394 -0.0376
  941MOL0     C29770   4.326   0.893   4.804  0.0453  0.1907 -0.0601
  941MOL0     N29771   5.112   1.283   4.590  0.1344 -0.1673 -0.2215
  941MOL0     N29772   5.222   1.291   4.522  0.3787  0.3274  0.0208
  941MOL0     C29773   6.317   0.809   4.014  0.2155  0.1233  0.2537
  941MOL0     C29774   6.365   0.765   3.891  0.6974 -0.3036  0.1958
  941MOL0     C29775   6.552   0.499   3.593 -0.4348  0.8665  0.1996
  941MOL0     C29776   6.493   0.377   3.531  0.4718  0.0124  0.2939
  941MOL0     C29777   6.559   0.334   3.407  1.2607 -0.0510 -0.0178
  941MOL0     C29778   6.661   0.411   3.348 -0.7883 -0.0596 -0.5132
  941MOL0     O29779   6.720   0.343   3.246  0.1519 -0.6779  0.0959
  941MOL0     C29780   6.833   0.420   3.183 -0.7541 -0.2377  0.4506
  941MOL0     C29781   6.920   0.329   3.091 -0.4303  1.5111  0.4981
  941MOL0     C29782   7.027   0.402   3.008  0.1829  0.0450 -0.9302
  941MOL0     C29783   6.979   0.464   2.875  0.1484  0.1833 -0.7293
  941MOL0     C29784   6.923   0.367   2.783 -0.0679  0.9732  0.1213
  941MOL0     C29785   6.879   0.281   2.710 -0.1709 -0.5363 -0.0852
  941MOL0     C29786   6.693   0.538   3.403 -0.1925  0.8067  0.1128
  941MOL0     C29787   6.647   0.579   3.528  0.3730  0.4291  0.3075
  941MOL0     C29788   6.690   0.707   3.587  0.7383  0.6461  0.3575
  941MOL0     H29789   6.167   0.478   3.875 -2.6607  0.6993 -0.2605
  941MOL0     H29790   6.091   0.561   4.079 -1.8835 -0.0141 -0.2913
  941MOL0     H29791   6.087   0.646   4.338 -1.3368  0.8550  2.9548
  941MOL0     H29792   5.983   0.722   4.212 -2.3575 -3.3564  3.7673
  941MOL0     H29793   6.089   0.797   4.477 -1.7342  1.2582  0.4805
  941MOL0     H29794   6.054   0.935   4.376 -5.2456  1.0060  0.3555
  941MOL0     H29795   5.836   0.869   4.325  0.2456  0.6025 -0.3689
  941MOL0     H29796   5.852   0.739   4.432 -1.4602  0.9970 -1.5636
  941MOL0     H29797   5.915   0.911   4.613 -0.4307  1.0171  1.7389
  941MOL0     H29798   5.890   1.049   4.507  0.7391 -0.5167 -0.3307
  941MOL0     H29799   5.692   0.996   4.659 -1.2363 -0.9013 -0.1672
  941MOL0     H29800   5.684   0.842   4.572 -0.4948  0.1671 -2.4318
  941MOL0     H29801   5.670   1.121   4.446 -4.2263  2.1669 -2.1690
  941MOL0     H29802   5.612   0.971   4.374 -0.9966 -1.3785  1.7589
  941MOL0     H29803   5.488   1.125   4.599  1.4942 -1.0970  0.7662
  941MOL0     H29804   5.426   0.971   4.545  1.6326 -1.3892 -1.5161
  941MOL0     H29805   5.430   1.234   4.378 -0.3693  0.5198 -2.0067
  941MOL0     H29806   5.357   1.096   4.308 -0.9207  1.6854 -0.4056
  941MOL0     H29807   5.142   0.971   4.505 -0.9265  0.2377  0.7740
  941MOL0     H29808   4.981   1.065   4.753 -2.0228 -0.5725 -0.4983
  941MOL0     H29809   4.907   1.010   4.607 -2.2153  0.9455  2.4701
  941MOL0     H29810   4.871   1.296   4.696 -1.3550  0.9715 -1.5423
  941MOL0     H29811   4.782   1.214   4.567 -0.5817  3.0231 -0.7316
  941MOL0     H29812   4.756   1.125   4.866 -1.5816  1.3219  1.0204
  941MOL0     H29813   4.662   1.235   4.773  1.5954  1.0443  0.2274
  941MOL0     H29814   4.618   1.056   4.603 -1.1516 -1.9178 -0.6381
  941MOL0     H29815   4.714   0.939   4.689 -1.9508 -1.0305 -0.7361
  941MOL0     H29816   4.615   0.755   4.692  0.2538 -2.9295 -1.5389
  941MOL0     H29817   4.448   0.495   4.546 -6.5584 -1.8719  1.3371
  941MOL0     H29818   4.451   0.440   4.716  0.3186  0.8960  0.4739
  941MOL0     H29819   4.596   0.520   4.653  0.0801 -1.0101  0.5118
  941MOL0     H29820   4.035   0.323   4.721  1.9723  2.8268  0.5224
  941MOL0     H29821   3.856   0.187   4.634 -0.1327  0.3686 -2.5765
  941MOL0     H29822   3.509   0.398   4.517  3.0548  1.5497 -0.9810
  941MOL0     H29823   3.533   0.324   4.358 -1.7822  0.8531  0.8063
  941MOL0     H29824   3.451   0.117   4.422  0.4553 -0.8222  1.5419
  941MOL0     H29825   3.430   0.172   4.592 -1.6663 -0.3094  0.7029
  941MOL0     H29826   3.289   0.366   4.438 -0.8801 -0.0131  0.7390
  941MOL0     H29827   3.221   0.243   4.528 -1.0112  3.5268 -1.0984
  941MOL0     H29828   3.217   0.090   4.355 -1.8615  0.8818  1.9854
  941MOL0     H29829   3.299   0.212   4.243 -0.9258 -0.2610  0.0474
  941MOL0     H29830   3.031   0.260   4.381  1.4144  1.3435  1.4197
  941MOL0     H29831   3.113   0.364   4.277 -2.4337 -0.1737 -2.3647
  941MOL0     H29832   3.104   0.211   4.096  1.9404  0.0047  1.4145
  941MOL0     H29833   2.934   0.241   4.153 -1.3880 -0.8537  2.7814
  941MOL0     H29834   2.942   0.018   4.287  2.1060 -3.7785  0.6338
  941MOL0     H29835   3.091  -0.018   4.192 -0.2597 -1.6347 -0.2589
  941MOL0     H29836   2.975  -0.007   3.992  2.6162 -3.3487  1.1255
  941MOL0     H29837   2.833   0.035   4.087  0.9380  2.6806 -2.2433
  941MOL0     H29838   3.676   0.542   4.462  1.1927 -1.3896 -1.6490
  941MOL0     H29839   3.822   0.680   4.575 -3.7857  0.0501 -1.7067
  941MOL0     H29840   4.148   0.788   4.860  1.5894  2.0225  1.8854
  941MOL0     H29841   4.300   0.989   4.848 -0.7298  1.3285 -2.8130
  941MOL0     H29842   6.371   0.898   4.046 -0.3796  0.8422 -0.6988
  941MOL0     H29843   6.432   0.828   3.834 -0.3160  0.5882 -0.0565
  941MOL0     H29844   6.404   0.325   3.566  0.5971 -2.6082 -2.8145
  941MOL0     H29845   6.535   0.238   3.362  4.0137 -1.4564  1.2659
  941MOL0     H29846   6.808   0.504   3.118  2.3321 -0.0909 -0.7425
  941MOL0     H29847   6.888   0.462   3.268 -2.0211 -1.3144  1.8532
  941MOL0     H29848   6.851   0.263   3.039  2.2457 -2.4774  1.5741
  941MOL0     H29849   6.972   0.256   3.153  0.9669  0.4548 -1.7792
  941MOL0     H29850   7.076   0.485   3.061  0.0609  0.8628 -2.0400
  941MOL0     H29851   7.113   0.335   2.998 -0.2790 -1.0252  1.5496
  941MOL0     H29852   7.073   0.501   2.834  0.6484 -0.3818 -0.1110
  941MOL0     H29853   6.906   0.545   2.891  0.3036  0.3459 -0.8407
  941MOL0     H29854   6.834   0.198   2.659  0.8417 -0.3626 -1.3019
  941MOL0     H29855   6.772   0.593   3.352 -2.3287  1.5391 -2.6293
  941MOL0     H29856   6.601   0.751   3.634 -0.1423 -0.2872 -0.3714
  941MOL0     H29857   6.762   0.676   3.663  0.2439  1.1608  1.0413
  941MOL0     H29858   6.730   0.767   3.505 -3.3631  0.4684 -2.0838
  942MOL0     O29859   5.380   7.528   4.356  0.1063  0.2027  0.7752
  942MOL0     C29860   5.450   7.560   4.452 -0.7727 -0.5246 -0.1113
  942MOL0     O29861   5.409   7.643   4.557  0.5985  0.0394 -0.2509
  942MOL0     C29862   5.284   7.624   4.607 -0.2251  0.3235 -0.7942
  942MOL0     C29863   5.226   7.730   4.679 -0.0467  0.3353 -0.3446
  942MOL0     C29864   5.116   7.718   4.755  0.5250 -0.2379 -0.9120
  942MOL0     C29865   5.047   7.599   4.765  0.8007 -0.7491 -0.3075
  942MOL0     O29866   4.933   7.606   4.839  0.2624 -0.0681 -0.2048
  942MOL0     C29867   4.829   7.510   4.813  0.1866 -0.1984 -0.6144
  942MOL0     C29868   4.748   7.536   4.684  0.3834 -0.0426  1.3016
  942MOL0     C29869   4.690   7.680   4.676  0.3384  0.8442 -0.0084
  942MOL0     C29870   4.602   7.695   4.539 -0.2070 -0.3439  1.3567
  942MOL0     C29871   4.509   7.816   4.544  0.2901  0.2246  0.1990
  942MOL0     C29872   4.474   7.855   4.391 -1.3735  0.1374 -0.2125
  942MOL0     C29873   4.371   7.967   4.375 -0.6720 -0.3114 -0.1187
  942MOL0     C29874   4.373   8.038   4.241  0.3194  0.6927 -0.5735
  942MOL0     N29875   4.234   8.083   4.215  0.3344  0.3783 -0.1203
  942MOL0     C29876   4.171   8.183   4.281 -0.2391  0.6294  0.8692
  942MOL0     C29877   4.052   8.192   4.213 -0.6311 -0.8012 -0.2131
  942MOL0     C29878   3.956   8.301   4.228  0.9953  0.1173  0.3186
  942MOL0     C29879   3.884   8.309   4.357  0.4310 -0.9723 -0.3840
  942MOL0     C29880   3.802   8.185   4.396  0.3198  0.2156  0.2476
  942MOL0     C29881   3.706   8.135   4.292 -0.0216  0.3252  0.3520
  942MOL0     O29882   3.588   8.225   4.284 -0.6598 -0.1064 -0.1355
  942MOL0     C29883   3.479   8.207   4.368 -0.0652  0.4420 -0.4026
  942MOL0     C29884   3.371   8.288   4.328 -0.4405 -0.2254  0.1825
  942MOL0     C29885   3.244   8.264   4.387 -0.5266 -0.1048 -0.2699
  942MOL0     C29886   3.132   8.346   4.316 -0.8805  0.5102 -0.3806
  942MOL0     C29887   3.228   8.188   4.498 -0.2161  0.7152  0.3120
  942MOL0     C29888   3.103   8.168   4.581 -0.4604  0.1667  0.0154
  942MOL0     O29889   3.083   8.035   4.631  0.3953  1.0223 -0.1886
  942MOL0     C29890   2.995   8.017   4.735  0.4665  0.7011  0.2587
  942MOL0     C29891   2.855   8.049   4.716 -0.6478  0.0885 -0.0601
  942MOL0     C29892   2.767   8.025   4.829 -0.3953 -0.5634  0.0375
  942MOL0     C29893   2.819   7.981   4.957 -0.5375 -0.2154  0.8350
  942MOL0     O29894   2.746   7.955   5.068  0.2981  0.0391 -0.3134
  942MOL0     C29895   2.605   7.974   5.058 -0.3193  1.2273 -0.4119
  942MOL0     C29896   2.558   8.007   5.200  0.2310 -0.6245 -0.4169
  942MOL0     C29897   2.469   7.892   5.264 -1.4492 -0.1826 -0.2716
  942MOL0     C29898   2.331   7.878   5.202 -0.5318  0.6513  0.2026
  942MOL0     C29899   2.241   8.002   5.182 -0.7074 -0.1651  0.8022
  942MOL0     C29900   2.186   8.074   5.305  0.2500 -0.2074  0.5542
  942MOL0     C29901   2.086   8.184   5.255 -0.2937 -0.1336 -0.7200
  942MOL0     C29902   1.997   8.233   5.372 -0.2098 -0.0063 -0.5167
  942MOL0    Cl29903   1.910   8.101   5.460 -0.3335 -0.0150  0.5085
  942MOL0     C29904   2.954   7.946   4.965 -0.3267 -0.0844  0.2292
  942MOL0     C29905   3.044   7.965   4.858  0.2213  0.3255  0.2498
  942MOL0     O29906   3.029   8.260   4.607  0.6442 -0.0171 -0.2646
  942MOL0     C29907   3.340   8.117   4.543  0.2367 -0.1357  1.0550
  942MOL0     C29908   3.471   8.127   4.486 -0.4144  0.7477 -0.1264
  942MOL0     N29909   4.035   8.080   4.129 -0.5244 -0.6427  0.4902
  942MOL0     N29910   4.149   8.019   4.126 -0.1753  0.2637 -0.3602
  942MOL0     C29911   5.092   7.491   4.690 -0.1839 -0.5055 -0.6509
  942MOL0     C29912   5.216   7.504   4.611  0.0510  0.2338 -0.0935
  942MOL0     C29913   5.592   7.518   4.444 -0.1088 -0.9070 -0.1841
  942MOL0     C29914   5.650   7.506   4.571 -0.0893 -0.4663 -0.5796
  942MOL0     C29915   5.783   7.476   4.573 -0.1502 -0.0404  0.1323
  942MOL0     C29916   5.869   7.452   4.462  0.4294 -0.1452  0.0882
  942MOL0     O29917   6.000   7.417   4.485  0.8241 -0.0404 -0.1462
  942MOL0     C29918   6.047   7.311   4.399  0.7668 -0.2070 -1.0850
  942MOL0     C29919   6.136   7.363   4.286  0.0123 -0.7226  0.9354
  942MOL0     C29920   6.210   7.247   4.218  0.8574 -0.2474 -0.6873
  942MOL0     C29921   6.322   7.299   4.124 -0.6935  0.7760 -0.3193
  942MOL0     C29922   6.285   7.362   3.994 -0.5638  0.2855 -0.1387
  942MOL0     C29923   6.260   7.407   3.888 -0.5453  0.3764  0.7638
  942MOL0     C29924   5.805   7.447   4.339 -1.0007 -0.3813 -0.2055
  942MOL0     C29925   5.670   7.489   4.323 -0.1657  0.7373  0.7638
  942MOL0     C29926   5.612   7.490   4.178  0.1368 -0.4745 -0.2586
  942MOL0     H29927   5.290   7.816   4.664 -0.8248  1.5560  2.7335
  942MOL0     H29928   5.086   7.808   4.807 -1.0737 -0.2627 -1.7063
  942MOL0     H29929   4.755   7.536   4.890  1.0934  2.0407 -0.4439
  942MOL0     H29930   4.870   7.409   4.815  3.1049  0.8834 -1.4591
  942MOL0     H29931   4.802   7.508   4.593 -1.6045  1.8739 -0.5991
  942MOL0     H29932   4.663   7.469   4.695 -0.2630  0.7114  0.9711
  942MOL0     H29933   4.620   7.693   4.758 -0.9633  0.8936 -1.0857
  942MOL0     H29934   4.765   7.759   4.683 -0.3312  2.1127 -4.0382
  942MOL0     H29935   4.669   7.716   4.455 -0.3657  1.7170  1.6938
  942MOL0     H29936   4.531   7.614   4.522 -1.2992  0.7878  0.2787
  942MOL0     H29937   4.550   7.906   4.591  1.4509 -0.2604  0.1363
  942MOL0     H29938   4.416   7.797   4.598 -0.0656 -0.5235 -0.6529
  942MOL0     H29939   4.569   7.888   4.346 -1.8042 -0.6022 -1.7229
  942MOL0     H29940   4.433   7.776   4.328  2.1703 -1.3337 -0.9434
  942MOL0     H29941   4.393   8.042   4.452  0.3305 -1.6039  0.9077
  942MOL0     H29942   4.272   7.928   4.397 -0.8878 -0.7427 -1.7431
  942MOL0     H29943   4.451   8.115   4.237  3.5738 -2.3672 -1.1496
  942MOL0     H29944   4.385   7.961   4.164 -1.4351 -1.3720  1.0877
  942MOL0     H29945   4.203   8.250   4.360 -1.6043  1.7712  0.4917
  942MOL0     H29946   3.889   8.301   4.142  0.0917  0.9666  1.0017
  942MOL0     H29947   4.009   8.396   4.219 -2.2528  2.0278 -0.4279
  942MOL0     H29948   3.957   8.333   4.434  0.7440 -1.3599 -0.5555
  942MOL0     H29949   3.817   8.395   4.358  1.7872  0.1077  1.1015
  942MOL0     H29950   3.871   8.102   4.414 -0.0183  0.1324  1.2253
  942MOL0     H29951   3.744   8.200   4.487 -1.3647  0.7134 -0.8519
  942MOL0     H29952   3.756   8.122   4.196 -2.0937 -2.0132 -0.5351
  942MOL0     H29953   3.679   8.033   4.322  0.9528  0.5498  2.1319
  942MOL0     H29954   3.390   8.350   4.241 -1.3975 -0.5370 -0.2645
  942MOL0     H29955   3.032   8.331   4.357  1.0750 -2.3263  4.1253
  942MOL0     H29956   3.129   8.313   4.211  2.2287 -2.0108  0.1643
  942MOL0     H29957   3.155   8.453   4.320  0.6308  0.2873 -1.7509
  942MOL0     H29958   2.814   8.085   4.622  1.6950  0.1952 -1.1192
  942MOL0     H29959   2.664   8.056   4.820 -0.2830  0.7376  2.4362
  942MOL0     H29960   2.567   8.060   5.002 -2.7678  0.7388  0.3873
  942MOL0     H29961   2.567   7.880   5.017  1.0387  0.2645  0.4514
  942MOL0     H29962   2.648   8.020   5.261  0.0777 -4.8207  1.0202
  942MOL0     H29963   2.498   8.098   5.199  1.2018  0.1357  2.3379
  942MOL0     H29964   2.463   7.916   5.370  1.4859 -0.6162  0.0817
  942MOL0     H29965   2.530   7.804   5.241  0.8773  2.2429 -4.7705
  942MOL0     H29966   2.286   7.787   5.244 -2.0809  2.0073  1.6182
  942MOL0     H29967   2.360   7.845   5.102  1.1827 -2.6169  1.6019
  942MOL0     H29968   2.290   8.083   5.126 -3.2569  0.3598 -0.8499
  942MOL0     H29969   2.157   7.970   5.119  0.0350  3.2241 -2.2681
  942MOL0     H29970   2.272   8.118   5.355  0.7444  0.0614 -0.4902
  942MOL0     H29971   2.134   7.994   5.358  1.0693 -0.5948  0.7812
  942MOL0     H29972   2.019   8.155   5.174  0.0738  0.9473 -1.4327
  942MOL0     H29973   2.136   8.273   5.216 -0.5142  0.4254  0.2457
  942MOL0     H29974   1.931   8.314   5.341  0.7484  0.7659 -0.5654
  942MOL0     H29975   2.064   8.281   5.443  0.0455  2.0426 -2.0494
  942MOL0     H29976   2.987   7.901   5.058  0.3408  0.6552  0.3674
  942MOL0     H29977   3.149   7.950   4.877  0.5505 -1.1361 -2.2505
  942MOL0     H29978   3.334   8.042   4.622 -0.6909  0.1429  1.2591
  942MOL0     H29979   3.545   8.051   4.507 -2.7804 -1.8857 -0.7505
  942MOL0     H29980   5.050   7.391   4.702  0.2613 -0.7150 -0.8369
  942MOL0     H29981   5.263   7.424   4.554  2.8842  1.7450 -0.0232
  942MOL0     H29982   5.598   7.542   4.659 -1.6942 -4.0064  0.0807
  942MOL0     H29983   5.831   7.484   4.670  0.9064 -1.3117 -0.2580
  942MOL0     H29984   6.104   7.238   4.456 -1.1703 -0.6821  0.3478
  942MOL0     H29985   5.966   7.251   4.356  2.0250  0.3559 -4.5784
  942MOL0     H29986   6.209   7.438   4.319 -1.7659  0.9854  1.1651
  942MOL0     H29987   6.078   7.419   4.212 -0.6718 -0.8388  1.3800
  942MOL0     H29988   6.265   7.197   4.298  0.2699  1.9684  1.1953
  942MOL0     H29989   6.132   7.188   4.170 -0.6835  1.9464 -1.0076
  942MOL0     H29990   6.390   7.215   4.105 -0.9609  0.2622  0.8850
  942MOL0     H29991   6.383   7.379   4.165  0.9972  0.6007 -2.3307
  942MOL0     H29992   6.221   7.439   3.793  0.9044 -1.8456 -0.6739
  942MOL0     H29993   5.858   7.413   4.250 -3.6137 -3.7848 -0.6453
  942MOL0     H29994   5.531   7.420   4.156 -0.9348  0.8684 -0.7349
  942MOL0     H29995   5.566   7.589   4.168 -0.0968 -0.4199  1.1899
  942MOL0     H29996   5.685   7.484   4.097 -1.4930 -4.1214 -1.6743
  943MOL0     O29997   5.177   3.083   7.672 -0.1230 -0.1352 -0.5670
  943MOL0     C29998   5.079   3.063   7.751  0.2235 -0.2458 -0.0281
  943MOL0     O29999   5.057   3.127   7.875 -0.1990  0.6009 -1.1986
  943MOL0     C30000   5.134   3.237   7.906 -0.9387 -0.3397 -0.2139
  943MOL0     C30001   5.227   3.216   8.012  0.2454 -0.3875 -0.0014
  943MOL0     C30002   5.296   3.321   8.077  0.1175 -0.0106 -0.1859
  943MOL0     C30003   5.293   3.448   8.010 -0.6202 -0.2322  0.5649
  943MOL0     O30004   5.378   3.545   8.060 -0.1267 -0.2574  0.3884
  943MOL0     C30005   5.322   3.669   8.099 -0.0520  0.5918  0.0433
  943MOL0     C30006   5.434   3.753   8.163  0.0696 -0.0682  0.0679
  943MOL0     C30007   5.392   3.881   8.230 -0.2020 -0.3294  0.8321
  943MOL0     C30008   5.395   3.873   8.385  0.0980  0.6556  0.0966
  943MOL0     C30009   5.322   3.991   8.451 -0.1843  0.1381  0.1569
  943MOL0     C30010   5.301   3.969   8.610  0.2095 -0.2565  0.7131
  943MOL0     C30011   5.199   4.072   8.657  0.4977 -0.3541  0.5148
  943MOL0     C30012   5.175   4.054   8.813 -0.7407  1.4484 -0.3970
  943MOL0     N30013   5.100   4.155   8.884 -0.4033 -0.0801 -0.4671
  943MOL0     C30014   5.111   4.286   8.863 -1.1087 -0.6800 -0.4633
  943MOL0     C30015   5.041   4.350   8.959  0.4613 -0.4930 -0.0263
  943MOL0     C30016   5.019   4.498   8.984 -0.8111 -0.5591 -0.3283
  943MOL0     C30017   5.003   4.539   9.129  0.4920 -1.0146  0.4553
  943MOL0     C30018   4.973   4.692   9.154 -0.4906  0.5165 -0.1311
  943MOL0     C30019   4.964   4.724   9.298  0.5851  0.6156 -0.0902
  943MOL0     O30020   5.103   4.717   9.341  1.2242  0.2903  0.3088
  943MOL0     C30021   5.142   4.799   9.453  0.0657 -0.1216 -0.2247
  943MOL0     C30022   5.061   4.850   9.555 -0.1840 -0.3597 -0.6445
  943MOL0     C30023   5.116   4.950   9.648  0.8547 -0.3244 -0.1314
  943MOL0     C30024   5.015   4.987   9.757 -0.0157 -0.0302  0.3544
  943MOL0     C30025   5.242   5.004   9.632  0.0067 -0.2513 -0.3198
  943MOL0     C30026   5.313   5.097   9.728  0.8135  0.2239 -0.3536
  943MOL0     O30027   5.238   5.161   9.829 -0.0365  0.2524 -0.5065
  943MOL0     C30028   5.294   5.261   9.906 -0.1117 -0.4870  0.6265
  943MOL0     C30029   5.212   5.369   9.922 -0.4132  0.2792  0.0969
  943MOL0     C30030   5.240   5.486  10.000 -1.1010 -0.8127 -0.4580
  943MOL0     C30031   5.364   5.493  10.071  0.1055 -0.0467 -0.1436
  943MOL0     O30032   5.401   5.583  10.169  0.4693 -0.8450 -0.0110
  943MOL0     C30033   5.319   5.709  10.185 -0.4212  0.4112  1.2782
  943MOL0     C30034   5.378   5.778  10.304  0.1787 -0.5637 -0.2558
  943MOL0     C30035   5.342   5.731  10.445  1.0639  1.4455  0.6239
  943MOL0     C30036   5.470   5.700  10.538  0.2991  1.0726  0.1594
  943MOL0     C30037   5.437   5.581  10.642  0.6610  0.1142 -0.3219
  943MOL0     C30038   5.403   5.434  10.595 -0.3557  0.1300 -0.6274
  943MOL0     C30039   5.520   5.347  10.561  0.5870 -0.3413  0.8373
  943MOL0     C30040   5.559   5.339  10.409  0.0580  0.0257  0.0672
  943MOL0    Cl30041   5.734   5.284  10.407  0.0941 -0.1396  0.3395
  943MOL0     C30042   5.454   5.386  10.047  0.0410  1.3447  0.0280
  943MOL0     C30043   5.426   5.274   9.965 -0.4068  0.5868  0.4349
  943MOL0     O30044   5.429   5.132   9.702  0.2934 -0.4377 -0.1257
  943MOL0     C30045   5.323   4.959   9.525  0.1399  1.1915 -0.3653
  943MOL0     C30046   5.274   4.856   9.446 -0.0691 -0.2664 -0.0738
  943MOL0     N30047   4.991   4.249   9.040  0.1211  0.0783 -0.3712
  943MOL0     N30048   5.024   4.135   8.991 -0.4292  0.1617  0.0262
  943MOL0     C30049   5.211   3.459   7.886  0.7247  0.9952  0.2323
  943MOL0     C30050   5.132   3.357   7.844  0.2707 -0.0481 -0.6884
  943MOL0     C30051   4.989   2.948   7.714  0.7073  0.6352  0.6643
  943MOL0     C30052   4.865   2.948   7.789 -0.2029  0.7905  0.0823
  943MOL0     C30053   4.779   2.845   7.757  0.4722  0.0275  0.2560
  943MOL0     C30054   4.806   2.742   7.654  0.4386 -0.0112  0.3907
  943MOL0     O30055   4.711   2.646   7.632 -0.3345 -0.1557  0.3330
  943MOL0     C30056   4.577   2.674   7.612 -0.3874 -0.3329  0.7144
  943MOL0     C30057   4.545   2.688   7.463 -0.1408  0.3924  0.3372
  943MOL0     C30058   4.577   2.558   7.390 -0.2311 -0.2310  0.7311
  943MOL0     C30059   4.570   2.598   7.242 -0.6655 -0.4559 -1.2992
  943MOL0     C30060   4.547   2.477   7.165 -0.2566  0.6295  1.1419
  943MOL0     C30061   4.530   2.386   7.085 -0.1325  0.9941 -0.8303
  943MOL0     C30062   4.923   2.743   7.586  0.4830  0.2656  0.0633
  943MOL0     C30063   5.015   2.839   7.618  0.2099  0.5198 -0.4893
  943MOL0     C30064   5.149   2.831   7.535  0.3610  0.1556 -0.1056
  943MOL0     H30065   5.232   3.113   8.044  1.7327 -0.4328 -0.3001
  943MOL0     H30066   5.363   3.304   8.160 -2.0718  0.5274  1.8129
  943MOL0     H30067   5.242   3.660   8.173 -2.3062  3.1026 -1.9182
  943MOL0     H30068   5.296   3.717   8.005  0.6190 -1.3549 -1.2046
  943MOL0     H30069   5.481   3.680   8.229 -2.0513 -2.2575 -0.6750
  943MOL0     H30070   5.506   3.779   8.085  3.0129  2.3000  3.2865
  943MOL0     H30071   5.450   3.969   8.200 -0.3518  0.1090  1.7681
  943MOL0     H30072   5.291   3.902   8.193  0.9985 -0.2196 -2.7524
  943MOL0     H30073   5.344   3.778   8.403 -1.5652  1.3422 -0.7057
  943MOL0     H30074   5.497   3.869   8.424 -0.2585  3.5527  1.6146
  943MOL0     H30075   5.234   4.026   8.396 -0.3654  3.3675  2.2620
  943MOL0     H30076   5.393   4.071   8.434 -0.0698  0.0719  0.3190
  943MOL0     H30077   5.256   3.873   8.635  1.1795 -0.0861  3.4426
  943MOL0     H30078   5.388   3.992   8.672  0.1753 -3.2820  2.0340
  943MOL0     H30079   5.107   4.063   8.598  0.1122  0.7894  0.9122
  943MOL0     H30080   5.236   4.174   8.646  1.8086 -1.0218 -2.0070
  943MOL0     H30081   5.142   3.951   8.830 -0.7441  1.0108 -2.7736
  943MOL0     H30082   5.270   4.061   8.867  0.6270  1.9413 -2.7404
  943MOL0     H30083   5.161   4.347   8.788 -5.1827  1.7363 -1.5243
  943MOL0     H30084   4.928   4.524   8.928 -1.3018  2.5518  1.6659
  943MOL0     H30085   5.106   4.548   8.942 -0.3680  1.6314  2.8734
  943MOL0     H30086   4.912   4.484   9.151 -0.9162  0.9152 -0.2281
  943MOL0     H30087   5.078   4.486   9.189  3.5181 -0.2314 -2.2895
  943MOL0     H30088   5.052   4.749   9.104  0.4854  1.5470  2.4387
  943MOL0     H30089   4.874   4.716   9.114 -1.6456  0.2507  2.3822
  943MOL0     H30090   4.921   4.821   9.328  0.7657 -0.1963  3.1397
  943MOL0     H30091   4.899   4.648   9.342  0.8019 -0.0262 -0.8689
  943MOL0     H30092   4.957   4.818   9.550  0.3626 -2.0738 -1.6638
  943MOL0     H30093   5.054   4.980   9.859 -0.0594  0.3697  0.4016
  943MOL0     H30094   4.917   4.938   9.747 -0.9202  2.0002 -1.5101
  943MOL0     H30095   4.997   5.093   9.736 -3.3535 -1.0724 -3.4361
  943MOL0     H30096   5.124   5.381   9.860 -1.3536 -2.5816  0.7630
  943MOL0     H30097   5.166   5.564  10.016 -0.0023 -0.1199  1.6266
  943MOL0     H30098   5.325   5.765  10.092 -1.2750 -0.8920  0.4146
  943MOL0     H30099   5.216   5.687  10.213 -0.5371  0.2437  0.7277
  943MOL0     H30100   5.486   5.793  10.305 -0.1741  2.6903 -0.1118
  943MOL0     H30101   5.342   5.881  10.293  1.2203 -0.0427  0.9460
  943MOL0     H30102   5.287   5.636  10.440  1.9377  0.9573  0.0400
  943MOL0     H30103   5.271   5.808  10.479  0.2882  2.0724 -2.1712
  943MOL0     H30104   5.513   5.788  10.588  0.4148  1.1038  0.0030
  943MOL0     H30105   5.543   5.661  10.467 -1.9728  0.0695 -1.7593
  943MOL0     H30106   5.521   5.570  10.711 -0.0684 -1.1359  0.3941
  943MOL0     H30107   5.352   5.614  10.702  1.6832  2.8709 -0.2640
  943MOL0     H30108   5.323   5.438  10.520 -1.0593 -0.8501  0.0525
  943MOL0     H30109   5.352   5.373  10.670 -2.6447  2.9198  0.2375
  943MOL0     H30110   5.504   5.258  10.622  0.0765 -1.3018 -0.6526
  943MOL0     H30111   5.599   5.396  10.618  0.2375  2.9590 -1.2274
  943MOL0     H30112   5.550   5.438  10.363 -1.1762  0.5981  1.4302
  943MOL0     H30113   5.492   5.267  10.361 -6.3884  3.8360  2.0577
  943MOL0     H30114   5.549   5.396  10.099  0.6570 -1.8433 -0.2945
  943MOL0     H30115   5.506   5.201   9.956 -0.3201  0.3082  2.7118
  943MOL0     H30116   5.421   5.000   9.502  0.9270  0.8568  2.0642
  943MOL0     H30117   5.348   4.818   9.376 -0.2744 -2.5681  0.8694
  943MOL0     H30118   5.191   3.556   7.841  0.8917  1.6163  1.4623
  943MOL0     H30119   5.061   3.365   7.761 -0.9272  1.9108  0.4526
  943MOL0     H30120   4.840   3.031   7.854  0.4346 -0.6224  2.2204
  943MOL0     H30121   4.683   2.842   7.807 -1.1487 -1.8654 -2.7137
  943MOL0     H30122   4.523   2.581   7.633  0.7471 -1.5900 -1.5473
  943MOL0     H30123   4.527   2.748   7.675 -3.3131 -0.4470 -1.2528
  943MOL0     H30124   4.604   2.770   7.421 -2.5339  0.8470 -2.5704
  943MOL0     H30125   4.439   2.711   7.449  0.1217  1.1887 -0.4673
  943MOL0     H30126   4.676   2.521   7.417 -0.3449  1.3877  3.8818
  943MOL0     H30127   4.500   2.482   7.407 -2.2506  1.6737  0.6319
  943MOL0     H30128   4.663   2.651   7.219 -0.4413  0.4298  1.3441
  943MOL0     H30129   4.493   2.662   7.198 -1.5645 -1.8841 -1.8830
  943MOL0     H30130   4.515   2.318   7.004 -2.2572 -0.3657  0.6088
  943MOL0     H30131   4.944   2.663   7.517  0.4696 -0.5181  0.9426
  943MOL0     H30132   5.234   2.843   7.602 -0.4706 -1.4987  1.3280
  943MOL0     H30133   5.163   2.728   7.501 -0.3103 -0.8260  2.3472
  943MOL0     H30134   5.154   2.904   7.453 -0.3812  0.2699 -0.0585
  944MOL0     O30135   7.639   5.657   9.698  0.3725  0.1652  0.2145
  944MOL0     C30136   7.551   5.706   9.767 -0.5455  0.3898  0.1958
  944MOL0     O30137   7.477   5.637   9.865  0.0044 -0.3148  0.0549
  944MOL0     C30138   7.509   5.506   9.888  0.4288  0.2328  0.0462
  944MOL0     C30139   7.406   5.411   9.889  0.4868  0.4538 -0.1432
  944MOL0     C30140   7.430   5.273   9.908  1.0354 -0.3704 -0.3904
  944MOL0     C30141   7.559   5.225   9.923 -0.7791 -0.2412  0.2909
  944MOL0     O30142   7.593   5.093   9.934  0.7320 -0.4474  0.3082
  944MOL0     C30143   7.651   5.031   9.823 -0.2713  0.8320  0.0990
  944MOL0     C30144   7.649   4.882   9.827 -0.2554  0.2271 -0.7291
  944MOL0     C30145   7.748   4.822   9.934  0.2538  0.1199  0.9131
  944MOL0     C30146   7.724   4.676   9.962  0.4390 -0.5379 -0.3982
  944MOL0     C30147   7.769   4.635  10.104  1.3059 -0.1105  0.5911
  944MOL0     C30148   7.929   4.629  10.125  0.2536 -0.0778  0.6931
  944MOL0     C30149   7.981   4.579  10.263  0.6990 -0.1192 -0.2343
  944MOL0     C30150   7.956   4.427  10.290  0.4726 -0.6328 -0.4655
  944MOL0     N30151   8.055   4.346  10.214  0.0668  0.9403  0.2987
  944MOL0     C30152   8.028   4.242  10.126 -0.2840 -0.3457 -0.6110
  944MOL0     C30153   8.148   4.206  10.085  0.3541  0.2885  0.5977
  944MOL0     C30154   8.188   4.101   9.976 -0.1288 -0.1997 -0.0771
  944MOL0     C30155   8.302   4.146   9.883  0.4118  0.5773 -0.4423
  944MOL0     C30156   8.258   4.257   9.792  0.0106  0.1198  0.2936
  944MOL0     C30157   8.368   4.354   9.734  0.0163 -0.0659 -0.3777
  944MOL0     O30158   8.314   4.486   9.712  0.2154 -0.0791 -0.3542
  944MOL0     C30159   8.304   4.575   9.814  0.0708  0.0698  0.4864
  944MOL0     C30160   8.261   4.695   9.775  0.5926  0.4900  0.8280
  944MOL0     C30161   8.242   4.803   9.863  0.3490  1.1532  0.1560
  944MOL0     C30162   8.215   4.936   9.799  0.1676 -0.2717 -0.4653
  944MOL0     C30163   8.253   4.780  10.002 -0.2889  0.2136  1.2475
  944MOL0     C30164   8.257   4.887  10.103  0.1834 -0.4516  0.9691
  944MOL0     O30165   8.271   4.852  10.237  1.2822 -0.3985  0.4545
  944MOL0     C30166   8.268   4.951  10.331  0.4671  0.0336  0.3343
  944MOL0     C30167   8.196   4.939  10.451 -0.0277 -0.3869  0.3681
  944MOL0     C30168   8.198   5.030  10.553 -0.0001 -0.2117 -0.2993
  944MOL0     C30169   8.279   5.142  10.556 -0.7183  1.0261  0.5029
  944MOL0     O30170   8.289   5.245  10.646 -0.4122  0.6368  0.0487
  944MOL0     C30171   8.225   5.229  10.779 -0.7995  0.3349  0.0229
  944MOL0     C30172   8.076   5.267  10.804  1.4115  0.1960 -0.3625
  944MOL0     C30173   8.032   5.261  10.956 -0.3363 -0.1169 -0.5604
  944MOL0     C30174   7.985   5.392  11.018 -0.3224 -0.9508  0.3987
  944MOL0     C30175   7.895   5.485  10.927 -1.6510 -0.2090 -0.0305
  944MOL0     C30176   7.855   5.614  10.994 -0.2671  0.5421 -0.5766
  944MOL0     C30177   7.719   5.664  10.940  0.0098 -0.4412 -0.6170
  944MOL0     C30178   7.733   5.682  10.795 -0.3056 -0.4528  1.0703
  944MOL0    Cl30179   7.866   5.800  10.758  0.0259 -0.0937  0.0960
  944MOL0     C30180   8.364   5.149  10.437  0.1399  0.5938 -0.0734
  944MOL0     C30181   8.358   5.055  10.329  0.0221  0.6026 -0.2653
  944MOL0     O30182   8.250   5.000  10.061 -0.2793 -0.3153  0.3388
  944MOL0     C30183   8.283   4.648  10.037  0.5514  0.5985  0.0103
  944MOL0     C30184   8.307   4.546   9.949  0.3639 -0.3730 -0.1013
  944MOL0     N30185   8.246   4.281  10.139 -0.0402 -1.1618 -0.8476
  944MOL0     N30186   8.190   4.363  10.225  0.3098  0.3054  0.0743
  944MOL0     C30187   7.655   5.324   9.946 -0.4414  0.1338 -0.8139
  944MOL0     C30188   7.638   5.462   9.932 -0.1466  0.2583  0.4916
  944MOL0     C30189   7.509   5.849   9.736 -0.4849  0.1967 -0.3807
  944MOL0     C30190   7.375   5.882   9.744  0.0911 -1.1164  0.0225
  944MOL0     C30191   7.325   6.009   9.712  0.9674 -0.8070 -0.1933
  944MOL0     C30192   7.418   6.100   9.666 -0.2707 -0.4937  0.8380
  944MOL0     O30193   7.360   6.228   9.639  0.2365  0.0973 -0.0984
  944MOL0     C30194   7.444   6.343   9.601  0.7524 -0.2267 -0.4077
  944MOL0     C30195   7.365   6.450   9.521 -0.3856  0.8304  0.2404
  944MOL0     C30196   7.453   6.572   9.474  0.3321 -1.0412  0.2666
  944MOL0     C30197   7.367   6.681   9.412 -0.0780 -0.2746 -0.6201
  944MOL0     C30198   7.425   6.815   9.442 -0.3381  0.0698 -0.5511
  944MOL0     C30199   7.473   6.924   9.453  0.0662 -0.9483  0.5567
  944MOL0     C30200   7.554   6.071   9.657 -0.4605  0.9042  0.8186
  944MOL0     C30201   7.603   5.948   9.688  0.8967 -0.6227  0.3242
  944MOL0     C30202   7.738   5.908   9.638 -0.4716 -0.8132 -0.8966
  944MOL0     H30203   7.304   5.447   9.878 -0.2987 -0.6864  2.5705
  944MOL0     H30204   7.347   5.204   9.895  1.3712 -0.5237 -1.9916
  944MOL0     H30205   7.758   5.056   9.820  1.3456 -4.7133 -3.1493
  944MOL0     H30206   7.608   5.050   9.724 -2.5858 -0.8228  0.7153
  944MOL0     H30207   7.552   4.841   9.857 -0.7324  1.1436 -0.9789
  944MOL0     H30208   7.675   4.845   9.728 -1.9346  0.6029 -1.3468
  944MOL0     H30209   7.853   4.846   9.914  0.0623  1.0211  0.9415
  944MOL0     H30210   7.719   4.867  10.029  1.8101  1.2906  0.8759
  944MOL0     H30211   7.616   4.660   9.965  0.4082 -0.1073  1.7325
  944MOL0     H30212   7.775   4.616   9.886  1.6465  0.5420 -0.4742
  944MOL0     H30213   7.729   4.534  10.122 -2.9250  1.1898 -0.2971
  944MOL0     H30214   7.722   4.710  10.169  2.0561  1.4602 -0.6146
  944MOL0     H30215   7.956   4.552  10.051 -3.5590 -1.3565  0.3839
  944MOL0     H30216   7.981   4.721  10.099 -1.0988  0.1491 -1.4753
  944MOL0     H30217   7.948   4.633  10.353  0.1834  1.7130 -1.4717
  944MOL0     H30218   8.089   4.595  10.264  1.0698 -2.3171 -0.0511
  944MOL0     H30219   7.967   4.411  10.397  0.9184 -3.8794 -0.8794
  944MOL0     H30220   7.858   4.392  10.255  0.7507 -0.6383 -1.2708
  944MOL0     H30221   7.936   4.197  10.089 -1.3790  1.8107 -0.6896
  944MOL0     H30222   8.092   4.081   9.928  0.0381 -0.7932 -0.1840
  944MOL0     H30223   8.204   4.009  10.034  0.4620 -1.2059 -1.7775
  944MOL0     H30224   8.391   4.185   9.933 -0.5261  3.2026 -0.6965
  944MOL0     H30225   8.333   4.067   9.814  1.6142  0.1406  0.5595
  944MOL0     H30226   8.209   4.200   9.712 -2.7044  1.8648  0.5969
  944MOL0     H30227   8.174   4.310   9.838 -2.5761 -1.0103 -2.7575
  944MOL0     H30228   8.449   4.370   9.805  0.1324 -2.0904  0.0084
  944MOL0     H30229   8.414   4.315   9.642  0.2239 -1.9419  0.4827
  944MOL0     H30230   8.242   4.718   9.671 -7.1192 -0.5676  1.3850
  944MOL0     H30231   8.124   4.969   9.849  1.5515 -0.7779  2.6482
  944MOL0     H30232   8.202   4.929   9.691 -1.5727 -0.8862 -0.2555
  944MOL0     H30233   8.290   5.015   9.805  1.0838 -1.1619  0.1151
  944MOL0     H30234   8.124   4.858  10.462 -2.0857  1.4547  1.2968
  944MOL0     H30235   8.147   5.005  10.646  2.3765 -0.2209  1.0871
  944MOL0     H30236   8.257   5.133  10.820  0.3971  1.2663  1.3448
  944MOL0     H30237   8.271   5.298  10.850 -3.2775  1.2783  0.8329
  944MOL0     H30238   8.065   5.366  10.759  0.5167 -0.3983 -1.5179
  944MOL0     H30239   8.010   5.197  10.751 -0.7655  1.8009  0.0737
  944MOL0     H30240   8.120   5.222  11.008  0.0186 -0.2571 -1.2470
  944MOL0     H30241   7.958   5.184  10.979 -0.8482 -0.2344 -2.4722
  944MOL0     H30242   8.082   5.438  11.037  0.1496 -1.9212  0.3925
  944MOL0     H30243   7.936   5.379  11.115  2.2026 -1.1484  1.7329
  944MOL0     H30244   7.945   5.519  10.836 -0.8792  1.6298  1.0267
  944MOL0     H30245   7.809   5.424  10.899  0.1248 -2.6975 -0.4596
  944MOL0     H30246   7.939   5.684  10.991 -2.6261  3.6627  0.9764
  944MOL0     H30247   7.831   5.607  11.100 -0.5641  2.2874 -0.5092
  944MOL0     H30248   7.692   5.752  10.998 -2.4355 -1.7020  0.2931
  944MOL0     H30249   7.635   5.596  10.958 -0.6844  0.6391  0.3430
  944MOL0     H30250   7.640   5.707  10.744  0.9847 -2.0012 -2.3400
  944MOL0     H30251   7.765   5.590  10.746  0.9865  0.1086  0.8126
  944MOL0     H30252   8.431   5.235  10.440  0.5661  0.2496  0.3727
  944MOL0     H30253   8.421   5.059  10.241  0.4913 -1.9984 -0.1447
  944MOL0     H30254   8.288   4.616  10.141  0.4936  0.8073  0.0785
  944MOL0     H30255   8.336   4.449   9.987  2.9134  1.0493  1.8766
  944MOL0     H30256   7.750   5.275   9.968 -1.0718 -0.8085 -0.1206
  944MOL0     H30257   7.721   5.532   9.936 -1.4646  1.8660  4.3221
  944MOL0     H30258   7.297   5.812   9.773 -0.3421 -0.5610  0.2155
  944MOL0     H30259   7.221   6.034   9.732  1.0588 -1.4906  1.2507
  944MOL0     H30260   7.478   6.391   9.694 -1.0219 -0.9025  0.6315
  944MOL0     H30261   7.539   6.313   9.556  2.9159  1.2902  2.7255
  944MOL0     H30262   7.280   6.484   9.581 -1.8752 -0.4688 -1.0205
  944MOL0     H30263   7.331   6.401   9.429  3.4180  1.1141 -1.4696
  944MOL0     H30264   7.503   6.611   9.563  1.7146 -1.3479 -0.3416
  944MOL0     H30265   7.531   6.540   9.403  0.0502 -0.6488 -0.2255
  944MOL0     H30266   7.269   6.685   9.461  0.6514  3.0637  0.8340
  944MOL0     H30267   7.359   6.670   9.304  3.0535  0.6712 -1.0509
  944MOL0     H30268   7.510   7.022   9.472 -3.3582  0.2911  1.6515
  944MOL0     H30269   7.622   6.135   9.602 -0.3931  1.1964  1.2409
  944MOL0     H30270   7.803   5.997   9.637 -2.7170  1.0802  2.7019
  944MOL0     H30271   7.784   5.843   9.712  2.1405 -1.5218 -2.9581
  944MOL0     H30272   7.737   5.869   9.535 -0.4751 -2.3709 -0.3296
  945MOL0     O30273   7.046   8.289  10.905  0.5157 -0.2819  0.1501
  945MOL0     C30274   7.148   8.222  10.936 -0.1287 -0.2596  1.1189
  945MOL0     O30275   7.269   8.238  10.876 -1.1515 -0.1424  0.0696
  945MOL0     C30276   7.291   8.348  10.788  1.4870 -0.0532  0.5084
  945MOL0     C30277   7.264   8.486  10.825  0.6630 -0.5237 -0.1975
  945MOL0     C30278   7.289   8.590  10.735 -1.0880 -0.1398  1.2469
  945MOL0     C30279   7.342   8.565  10.608  0.2527 -0.5305 -0.1979
  945MOL0     O30280   7.373   8.658  10.511 -0.3925  0.4260 -0.0281
  945MOL0     C30281   7.429   8.778  10.556 -0.3292 -0.7669  0.1665
  945MOL0     C30282   7.437   8.869  10.434  0.2016  0.1325 -0.3108
  945MOL0     C30283   7.558   8.838  10.358 -0.4558 -0.5208  0.5104
  945MOL0     C30284   7.570   8.947  10.249 -0.4885 -0.5341 -0.2568
  945MOL0     C30285   7.698   8.924  10.167  0.2095  0.3016  0.2987
  945MOL0     C30286   7.715   9.039  10.073 -0.2830 -0.0739 -1.1020
  945MOL0     C30287   7.853   9.030   9.999 -0.3661  0.0703 -0.2579
  945MOL0     C30288   7.878   9.135   9.886  0.0682  0.3313  0.2076
  945MOL0     N30289   8.007   9.100   9.830 -0.0851 -0.4523  0.9913
  945MOL0     C30290   8.125   9.134   9.883 -0.3215  0.1360 -0.6639
  945MOL0     C30291   8.210   9.038   9.830  0.8026  0.2420 -0.6296
  945MOL0     C30292   8.360   9.043   9.865 -0.1477 -0.6280  0.4328
  945MOL0     C30293   8.428   9.175   9.823  0.3277  0.1627  0.0588
  945MOL0     C30294   8.415   9.230   9.678 -1.0118  0.2753 -1.0905
  945MOL0     C30295   8.459   9.373   9.660 -0.4416  0.0353  0.2324
  945MOL0     O30296   8.486   9.425   9.527  0.0960 -0.2918 -0.2858
  945MOL0     C30297   8.608   9.395   9.452  0.0410  0.5820  0.7162
  945MOL0     C30298   8.626   9.451   9.326 -1.1147  0.0425 -0.3352
  945MOL0     C30299   8.748   9.449   9.253 -0.6154 -0.0067  0.5613
  945MOL0     C30300   8.742   9.518   9.118 -0.3408  0.2304 -0.0910
  945MOL0     C30301   8.863   9.376   9.306 -0.3513  0.6044  1.0962
  945MOL0     C30302   8.984   9.347   9.237 -0.8826  0.3240 -0.4450
  945MOL0     O30303   9.101   9.305   9.318  0.0489  0.4828  0.7926
  945MOL0     C30304   9.190   9.219   9.261 -0.2631  0.4028  0.3043
  945MOL0     C30305   9.159   9.081   9.270  0.3819  0.1151 -0.3118
  945MOL0     C30306   9.236   8.985   9.200 -0.5261  0.1183  0.0661
  945MOL0     C30307   9.339   9.017   9.118  0.1045  0.0189 -0.3439
  945MOL0     O30308   9.404   8.912   9.064  0.6620 -0.1763  0.6622
  945MOL0     C30309   9.472   8.823   9.156 -0.3457 -0.7385  0.1299
  945MOL0     C30310   9.621   8.822   9.127  0.5239 -0.0524 -0.7776
  945MOL0     C30311   9.679   8.970   9.127  0.8358  0.0128 -0.0471
  945MOL0     C30312   9.839   8.955   9.124  1.0579  0.1591 -0.6484
  945MOL0     C30313   9.893   9.090   9.110 -1.2893  0.0238 -0.0878
  945MOL0     C30314  10.050   9.111   9.122  0.1313  0.4127 -0.1235
  945MOL0     C30315  10.074   9.260   9.093  0.7066 -1.3161 -0.3677
  945MOL0     C30316  10.222   9.274   9.041  1.0305  1.4666 -0.2546
  945MOL0    Cl30317  10.275   9.450   9.086 -0.1257  0.7835  0.1209
  945MOL0     C30318   9.372   9.158   9.101  0.9279  0.1917 -0.1389
  945MOL0     C30319   9.300   9.263   9.173  0.4554  1.3891 -0.1564
  945MOL0     O30320   8.983   9.358   9.120  0.0941 -0.4899  0.5637
  945MOL0     C30321   8.842   9.325   9.437  0.0419 -0.8032  0.5661
  945MOL0     C30322   8.723   9.331   9.510  0.2731  0.2227 -0.1518
  945MOL0     N30323   8.137   8.948   9.740  0.0342 -0.4427  0.1830
  945MOL0     N30324   8.018   8.990   9.748 -0.5185 -0.1864 -0.4916
  945MOL0     C30325   7.356   8.428  10.568  0.4400  0.3011 -0.9105
  945MOL0     C30326   7.333   8.326  10.658 -0.4144  1.5272 -0.3603
  945MOL0     C30327   7.131   8.131  11.052 -0.5293 -0.0257  0.3619
  945MOL0     C30328   7.251   8.066  11.103 -0.5959 -0.5027 -0.0616
  945MOL0     C30329   7.243   7.982  11.213 -0.7489  0.2283  0.0898
  945MOL0     C30330   7.129   7.952  11.283 -0.4514  0.8566  0.3661
  945MOL0     O30331   7.136   7.848  11.381 -0.0787  0.3058  0.6099
  945MOL0     C30332   7.066   7.730  11.358 -0.4586  1.0015 -0.4162
  945MOL0     C30333   7.146   7.610  11.404  0.4102  0.1404  0.3424
  945MOL0     C30334   7.173   7.602  11.554 -0.4557 -0.0832  0.2206
  945MOL0     C30335   7.058   7.574  11.656 -0.0540  0.5157  0.1774
  945MOL0     C30336   6.976   7.463  11.614 -1.0131  0.2511 -0.6557
  945MOL0     C30337   6.908   7.365  11.595  0.0385 -0.0071 -0.6083
  945MOL0     C30338   7.016   8.016  11.233  0.0468  0.1426 -0.7575
  945MOL0     C30339   7.013   8.098  11.121  0.5159  0.1531 -0.4822
  945MOL0     C30340   6.879   8.153  11.094 -0.3079 -0.2239 -0.8685
  945MOL0     H30341   7.229   8.510  10.924 -1.8733  1.2225 -1.4259
  945MOL0     H30342   7.264   8.688  10.775 -4.6046 -0.7164  0.7997
  945MOL0     H30343   7.525   8.771  10.608 -1.0663 -0.6705  1.5887
  945MOL0     H30344   7.357   8.827  10.622  1.1406  1.0065  0.5468
  945MOL0     H30345   7.343   8.860  10.379  1.9181 -0.5382 -3.3243
  945MOL0     H30346   7.443   8.970  10.474 -2.0157  0.1461  0.1357
  945MOL0     H30347   7.643   8.845  10.426  0.8719 -1.8114 -0.9343
  945MOL0     H30348   7.564   8.738  10.314  0.4579  0.0424 -0.7126
  945MOL0     H30349   7.482   8.954  10.184  2.1187  1.9851 -4.0072
  945MOL0     H30350   7.574   9.043  10.302  2.2024 -0.4638 -0.4498
  945MOL0     H30351   7.696   8.840  10.098  0.6987  1.5175 -1.2404
  945MOL0     H30352   7.785   8.928  10.234  3.5316 -0.5159 -3.6034
  945MOL0     H30353   7.627   9.042  10.008 -0.9830  0.8191 -0.1367
  945MOL0     H30354   7.725   9.133  10.127  2.8284  0.5560 -2.5699
  945MOL0     H30355   7.867   8.935   9.948  2.1799 -0.4161  1.1877
  945MOL0     H30356   7.930   9.033  10.077 -1.9169  1.0499  1.3339
  945MOL0     H30357   7.807   9.121   9.804  1.0873  0.4350 -0.7146
  945MOL0     H30358   7.878   9.240   9.920  1.5486  0.4290 -0.0649
  945MOL0     H30359   8.150   9.217   9.949 -0.2138  0.4590 -1.1022
  945MOL0     H30360   8.417   8.965   9.814  2.1249  1.3351 -0.2293
  945MOL0     H30361   8.372   9.024   9.973 -1.1534 -0.6023  0.5620
  945MOL0     H30362   8.396   9.249   9.897 -1.5570 -2.2404  1.8385
  945MOL0     H30363   8.535   9.160   9.836  0.3486 -0.7741 -1.0656
  945MOL0     H30364   8.481   9.175   9.611 -0.4609  1.4721 -1.5442
  945MOL0     H30365   8.310   9.214   9.652 -0.9949 -2.8699  0.2769
  945MOL0     H30366   8.379   9.436   9.701 -1.3743 -0.7230 -0.3902
  945MOL0     H30367   8.544   9.387   9.728 -1.4719 -3.3976  2.4771
  945MOL0     H30368   8.541   9.502   9.284 -2.3214 -1.4857  0.1367
  945MOL0     H30369   8.722   9.456   9.030 -1.0410  0.3700 -0.0327
  945MOL0     H30370   8.830   9.583   9.117 -0.4004  0.5785  3.4633
  945MOL0     H30371   8.661   9.591   9.110 -0.4665  0.3926  1.9999
  945MOL0     H30372   9.084   9.052   9.343  0.2157 -1.0129 -0.9041
  945MOL0     H30373   9.191   8.886   9.198 -0.2695  0.0064 -0.5465
  945MOL0     H30374   9.462   8.859   9.259 -1.2673 -0.4894 -0.0420
  945MOL0     H30375   9.428   8.723   9.149  2.7190 -2.2361  0.3453
  945MOL0     H30376   9.672   8.762   9.203 -0.5005 -0.9158 -0.7533
  945MOL0     H30377   9.643   8.789   9.025  2.1610 -0.5980 -0.2899
  945MOL0     H30378   9.637   9.006   9.222  2.1222  0.4560  0.3719
  945MOL0     H30379   9.656   9.041   9.047  2.2215  1.8347  1.0967
  945MOL0     H30380   9.871   8.896   9.037 -0.9356 -0.7518 -0.8281
  945MOL0     H30381   9.861   8.900   9.216 -2.7065 -0.5753 -0.0203
  945MOL0     H30382   9.872   9.124   9.009  0.8430  2.8225  0.2722
  945MOL0     H30383   9.841   9.158   9.179 -3.1906 -0.3138 -1.1239
  945MOL0     H30384  10.092   9.047   9.045  1.5796  1.4070 -0.1990
  945MOL0     H30385  10.090   9.087   9.221 -0.5871 -0.8405 -0.1226
  945MOL0     H30386  10.063   9.310   9.189 -1.6958 -4.2948  1.1015
  945MOL0     H30387  10.005   9.304   9.021  0.6956 -1.2608 -0.3229
  945MOL0     H30388  10.224   9.256   8.933 -1.7818  2.5438 -0.5678
  945MOL0     H30389  10.289   9.202   9.089  1.3550  1.5648 -0.5532
  945MOL0     H30390   9.448   9.169   9.024 -2.9683 -1.0551 -4.6557
  945MOL0     H30391   9.340   9.361   9.147  1.7725  0.4626 -1.9027
  945MOL0     H30392   8.930   9.299   9.494  0.8572 -2.2786 -1.2563
  945MOL0     H30393   8.720   9.278   9.605  0.9924 -0.2240 -0.3634
  945MOL0     H30394   7.382   8.408  10.464  0.5769 -1.9141 -0.5010
  945MOL0     H30395   7.346   8.221  10.632  2.3169  1.0031  2.4938
  945MOL0     H30396   7.346   8.099  11.061 -1.0392  1.1421  0.1296
  945MOL0     H30397   7.330   7.923  11.240 -0.9302  0.0242  0.2294
  945MOL0     H30398   6.974   7.725  11.417  1.1429 -0.2917  2.1678
  945MOL0     H30399   7.045   7.720  11.251  1.0300 -2.0610 -0.5547
  945MOL0     H30400   7.248   7.618  11.365  0.7229 -0.4375  1.0208
  945MOL0     H30401   7.109   7.517  11.359 -0.2550  0.7008 -0.3233
  945MOL0     H30402   7.240   7.517  11.568  1.9280  1.5887 -0.5964
  945MOL0     H30403   7.233   7.687  11.585  2.3517 -2.1007  0.6758
  945MOL0     H30404   7.000   7.665  11.672  4.1740  3.6430 -0.6282
  945MOL0     H30405   7.107   7.548  11.751 -0.1558  1.5502  0.5271
  945MOL0     H30406   6.846   7.279  11.580  0.4262 -0.8485  1.9957
  945MOL0     H30407   6.927   7.989  11.289  2.1260 -1.8532  1.8651
  945MOL0     H30408   6.875   8.143  10.985  1.5815 -3.3615 -0.7906
  945MOL0     H30409   6.794   8.111  11.147 -0.2697  1.1662  0.3617
  945MOL0     H30410   6.896   8.257  11.123  0.5293  0.0703 -2.3107
  946MOL0     O30411  10.071   4.965  10.983 -0.0433  0.1885 -0.0135
  946MOL0     C30412  10.018   4.917  11.085  0.8196  0.2429  0.2750
  946MOL0     O30413  10.044   4.790  11.135  0.4797 -0.5485 -0.3883
  946MOL0     C30414  10.149   4.725  11.086  0.3422  0.3048  0.0667
  946MOL0     C30415  10.140   4.670  10.957  0.3897  0.0797 -0.2208
  946MOL0     C30416  10.254   4.610  10.902 -0.7366 -0.2052  0.7218
  946MOL0     C30417  10.370   4.594  10.968  0.0033  0.0579  0.1639
  946MOL0     O30418  10.476   4.525  10.908 -0.5093 -0.5754 -0.4476
  946MOL0     C30419  10.525   4.395  10.958  0.9272 -0.8152  0.0790
  946MOL0     C30420  10.586   4.326  10.832 -0.2003 -0.6602  0.2812
  946MOL0     C30421  10.494   4.314  10.717  0.3387 -0.3567  0.6616
  946MOL0     C30422  10.386   4.208  10.738 -0.7395 -0.1324  1.4067
  946MOL0     C30423  10.281   4.198  10.626 -0.9393  0.3882 -0.2125
  946MOL0     C30424  10.341   4.147  10.497  0.6457  0.9955  0.1241
  946MOL0     C30425  10.223   4.099  10.406 -0.6311  0.1140 -0.3600
  946MOL0     C30426  10.253   4.094  10.257 -0.5221  0.1420 -0.1952
  946MOL0     N30427  10.368   4.013  10.216 -0.3359 -0.0246 -0.4897
  946MOL0     C30428  10.471   4.051  10.137  0.4250 -0.0402  0.0830
  946MOL0     C30429  10.533   3.937  10.092 -0.0661  0.0949  0.3463
  946MOL0     C30430  10.629   3.940   9.978 -0.1175  0.1676 -0.5930
  946MOL0     C30431  10.682   4.084   9.957  0.1688 -1.2243 -0.7649
  946MOL0     C30432  10.771   4.121   9.830  1.2492 -0.3142 -0.7486
  946MOL0     C30433  10.693   4.170   9.709 -0.1687 -0.5969 -0.4216
  946MOL0     O30434  10.632   4.062   9.631  0.0333 -0.4485  0.5789
  946MOL0     C30435  10.563   4.104   9.519  0.0041 -0.5262  0.0290
  946MOL0     C30436  10.493   4.016   9.448 -0.1812 -0.3630 -0.1260
  946MOL0     C30437  10.428   4.040   9.333  0.3699  0.1499  0.7059
  946MOL0     C30438  10.354   3.919   9.295 -0.5267  0.1940  0.4478
  946MOL0     C30439  10.430   4.171   9.274 -0.1169  0.8388 -0.4237
  946MOL0     C30440  10.360   4.204   9.145 -0.3483  0.0571  0.7102
  946MOL0     O30441  10.374   4.336   9.106 -0.2023 -0.5099  0.7542
  946MOL0     C30442  10.308   4.379   8.994  0.2398  0.3250  0.2862
  946MOL0     C30443  10.212   4.476   9.014  0.2150 -0.0654 -0.8473
  946MOL0     C30444  10.144   4.531   8.899  0.2237 -0.0873  0.4423
  946MOL0     C30445  10.192   4.508   8.769 -1.2866  0.6804 -0.1721
  946MOL0     O30446  10.138   4.577   8.665 -0.5276  0.3163  0.3453
  946MOL0     C30447  10.150   4.534   8.530 -0.2959  0.7982  0.2864
  946MOL0     C30448  10.027   4.596   8.450 -0.5383  0.4616 -0.1387
  946MOL0     C30449  10.033   4.749   8.432  0.2322  0.3745 -0.8586
  946MOL0     C30450  10.152   4.817   8.378 -0.5485  0.1422 -0.2542
  946MOL0     C30451  10.227   4.770   8.251  0.2238 -0.5240 -0.1247
  946MOL0     C30452  10.329   4.872   8.206 -0.0279  0.3011  0.2647
  946MOL0     C30453  10.365   4.836   8.057  0.3652  0.8170 -0.5286
  946MOL0     C30454  10.433   4.960   8.009  0.1410 -0.9079  0.1092
  946MOL0    Cl30455  10.573   5.014   8.106  0.4756 -0.0441 -0.2639
  946MOL0     C30456  10.294   4.413   8.758  0.9047 -0.7647 -0.2214
  946MOL0     C30457  10.350   4.357   8.869 -0.8230 -0.4461 -0.2964
  946MOL0     O30458  10.280   4.126   9.093  0.1783 -0.2392  0.5601
  946MOL0     C30459  10.497   4.267   9.341  0.0587  0.0921  0.4932
  946MOL0     C30460  10.567   4.238   9.462  1.1023  0.0495 -0.0946
  946MOL0     N30461  10.478   3.824  10.157  0.4054 -0.6404  0.4301
  946MOL0     N30462  10.378   3.879  10.228  0.2961 -0.3851  0.1911
  946MOL0     C30463  10.381   4.644  11.095 -0.0156  0.0302  0.2556
  946MOL0     C30464  10.273   4.710  11.153  0.1411 -0.9290 -0.0124
  946MOL0     C30465   9.911   4.985  11.159  0.4018 -0.5094  0.2805
  946MOL0     C30466   9.839   4.923  11.264  0.3658  0.5806 -0.2325
  946MOL0     C30467   9.728   4.972  11.324 -0.2380 -0.0375 -0.6494
  946MOL0     C30468   9.690   5.097  11.290  1.1758 -1.2066  0.4578
  946MOL0     O30469   9.581   5.162  11.350 -0.8025 -0.4175  0.0551
  946MOL0     C30470   9.452   5.103  11.325  0.2502 -0.1866 -0.3755
  946MOL0     C30471   9.355   5.198  11.394  0.1711  1.0872  0.7561
  946MOL0     C30472   9.318   5.326  11.316 -0.2571  1.3153 -0.3880
  946MOL0     C30473   9.267   5.301  11.176 -0.3499  0.0408 -0.0011
  946MOL0     C30474   9.134   5.347  11.166  0.5375 -1.4704 -0.1421
  946MOL0     C30475   9.020   5.390  11.160 -0.0720 -0.5728  0.1658
  946MOL0     C30476   9.744   5.163  11.193 -0.1414 -0.1292 -0.2035
  946MOL0     C30477   9.855   5.117  11.118 -0.1805  0.2673 -0.0015
  946MOL0     C30478   9.916   5.204  11.016  0.2234 -0.3879  0.1326
  946MOL0     H30479  10.044   4.663  10.907  0.1271 -1.3009  0.4231
  946MOL0     H30480  10.247   4.557  10.808 -3.1699  2.3317 -0.6741
  946MOL0     H30481  10.453   4.328  11.005  0.2621 -0.3334 -0.2335
  946MOL0     H30482  10.608   4.408  11.028  1.1460 -1.7975  0.0088
  946MOL0     H30483  10.674   4.382  10.797 -1.6375  1.4967 -0.0440
  946MOL0     H30484  10.618   4.228  10.870 -0.4569 -2.2441 -3.1246
  946MOL0     H30485  10.460   4.411  10.680 -1.0123 -1.0866 -0.0671
  946MOL0     H30486  10.560   4.272  10.640  1.9803  0.8984  1.3175
  946MOL0     H30487  10.434   4.111  10.747  0.7466  0.2990 -0.9559
  946MOL0     H30488  10.333   4.243  10.826 -1.8048 -0.3509  0.8696
  946MOL0     H30489  10.244   4.300  10.610 -0.7567  0.3805 -0.7020
  946MOL0     H30490  10.214   4.130  10.680 -0.5230 -0.6138 -0.9448
  946MOL0     H30491  10.398   4.224  10.443 -1.1715  2.3338  0.0509
  946MOL0     H30492  10.418   4.074  10.524  0.1683  0.9849  1.5484
  946MOL0     H30493  10.130   4.150  10.436  0.0506  0.4920  1.2404
  946MOL0     H30494  10.210   3.998  10.446 -2.1742 -0.5967 -2.4912
  946MOL0     H30495  10.161   4.049  10.220  0.2368 -1.3446 -0.3613
  946MOL0     H30496  10.261   4.196  10.220  0.0093  0.7918  1.6167
  946MOL0     H30497  10.487   4.153  10.106 -1.7745  0.5855  0.8415
  946MOL0     H30498  10.586   3.913   9.880 -0.7293  3.7057 -1.4231
  946MOL0     H30499  10.708   3.868  10.000  0.9457  1.7805  1.1169
  946MOL0     H30500  10.604   4.160   9.963  0.9502 -0.2398 -2.3828
  946MOL0     H30501  10.747   4.099  10.044  1.5279 -2.0501 -1.6018
  946MOL0     H30502  10.850   4.192   9.851  0.2775  0.0958  1.8905
  946MOL0     H30503  10.818   4.025   9.806 -0.5914 -1.1495 -1.2114
  946MOL0     H30504  10.627   4.251   9.740  0.8622  0.3279 -0.5567
  946MOL0     H30505  10.772   4.219   9.651  0.2586  2.5593  2.5261
  946MOL0     H30506  10.500   3.920   9.498 -1.0937  0.8138  2.3951
  946MOL0     H30507  10.416   3.828   9.290  0.1609  0.7004 -0.4642
  946MOL0     H30508  10.323   3.929   9.191  3.1608  3.9699 -0.5726
  946MOL0     H30509  10.267   3.898   9.357 -1.2015  1.4537 -0.0531
  946MOL0     H30510  10.191   4.503   9.117  1.1601 -2.1847 -0.0589
  946MOL0     H30511  10.062   4.599   8.918 -0.4014 -1.0451  1.3136
  946MOL0     H30512  10.245   4.556   8.482 -0.6321  4.8960  1.0908
  946MOL0     H30513  10.128   4.428   8.519  0.7553  0.5386  0.6416
  946MOL0     H30514  10.033   4.560   8.347  1.9056  0.1208  0.0423
  946MOL0     H30515   9.935   4.572   8.503  0.1136  2.5631  2.0958
  946MOL0     H30516  10.025   4.797   8.530  1.1549 -1.5256  0.2047
  946MOL0     H30517   9.952   4.771   8.362  0.4228 -1.7349 -1.8301
  946MOL0     H30518  10.217   4.808   8.466  0.2784 -0.3517 -0.8899
  946MOL0     H30519  10.137   4.924   8.367 -1.6964  0.1386  0.9659
  946MOL0     H30520  10.274   4.672   8.264  0.2569 -0.3371  1.3199
  946MOL0     H30521  10.141   4.765   8.183 -0.5459 -3.3555  0.8948
  946MOL0     H30522  10.411   4.860   8.277  0.1152  0.1871  0.0782
  946MOL0     H30523  10.300   4.978   8.206 -0.8427  0.1257 -1.8426
  946MOL0     H30524  10.277   4.808   7.998  1.0426 -3.5203  0.1815
  946MOL0     H30525  10.429   4.748   8.067 -1.8798 -1.0213 -1.3426
  946MOL0     H30526  10.362   5.043   8.004 -0.9634 -1.8820 -0.9126
  946MOL0     H30527  10.459   4.943   7.904  0.4531 -0.7559  0.1607
  946MOL0     H30528  10.324   4.395   8.655 -2.9504 -0.1956 -1.5819
  946MOL0     H30529  10.446   4.305   8.870  1.1425  2.8589  1.9073
  946MOL0     H30530  10.506   4.361   9.287 -0.7214  0.9771  1.8343
  946MOL0     H30531  10.635   4.315   9.498  1.0064  0.2988 -0.4368
  946MOL0     H30532  10.471   4.635  11.155  0.6479 -1.4179 -0.9049
  946MOL0     H30533  10.266   4.747  11.255 -0.6263 -1.7826  0.2579
  946MOL0     H30534   9.874   4.828  11.302  1.2663  0.8437 -0.3786
  946MOL0     H30535   9.686   4.925  11.412 -0.5494  3.3864  1.1975
  946MOL0     H30536   9.425   5.109  11.219 -1.2505  1.1175  0.0233
  946MOL0     H30537   9.441   5.004  11.371 -1.1725  0.1177 -0.0052
  946MOL0     H30538   9.397   5.228  11.490 -0.1255 -1.9786  1.9689
  946MOL0     H30539   9.259   5.148  11.412  0.4924  0.4324  0.6604
  946MOL0     H30540   9.247   5.376  11.382 -1.3010 -1.6420  0.8940
  946MOL0     H30541   9.410   5.387  11.313 -0.2490  1.4363  1.4367
  946MOL0     H30542   9.268   5.192  11.173 -2.1068 -0.2113  3.2724
  946MOL0     H30543   9.323   5.353  11.098 -0.5456 -1.3255 -1.1005
  946MOL0     H30544   8.924   5.436  11.153  0.5736  0.6188 -3.2637
  946MOL0     H30545   9.723   5.266  11.169  2.5069  0.2694 -1.1333
  946MOL0     H30546  10.025   5.203  11.027  0.4698 -1.9263 -1.9224
  946MOL0     H30547   9.892   5.159  10.919  1.4265  0.9617 -0.8210
  946MOL0     H30548   9.871   5.303  11.013 -3.8123 -1.9390  1.6793
  947MOL0     O30549   9.814   5.048  10.505  0.1039  0.3316 -0.0271
  947MOL0     C30550   9.836   4.933  10.477 -0.6385  0.3997  0.9890
  947MOL0     O30551   9.959   4.881  10.442 -0.1515 -0.2312  0.4586
  947MOL0     C30552  10.070   4.957  10.438  0.1862  0.7245 -0.1500
  947MOL0     C30553  10.146   4.967  10.555  0.2927  1.4882 -0.0176
  947MOL0     C30554  10.248   5.061  10.565  0.1092 -0.3647 -0.3955
  947MOL0     C30555  10.298   5.130  10.454  0.4970 -0.7286  0.3645
  947MOL0     O30556  10.391   5.228  10.457  0.2974 -0.5740 -0.5581
  947MOL0     C30557  10.514   5.181  10.509 -0.6559  0.4882  0.9925
  947MOL0     C30558  10.626   5.262  10.450  0.0521 -0.0297  0.1061
  947MOL0     C30559  10.764   5.206  10.411  1.0538  0.0926 -1.1573
  947MOL0     C30560  10.852   5.148  10.521  0.4958 -0.8362 -0.3925
  947MOL0     C30561  10.970   5.081  10.450 -0.2554  0.0619 -0.4216
  947MOL0     C30562  11.044   4.984  10.543  0.1873  0.4234 -0.5415
  947MOL0     C30563  11.178   4.937  10.486  0.7133  0.1637 -0.3389
  947MOL0     C30564  11.290   5.049  10.493 -0.1291  0.1630 -0.4085
  947MOL0     N30565  11.410   4.987  10.438  0.1190 -0.2182  0.3827
  947MOL0     C30566  11.509   5.061  10.368  0.3359  1.1009  0.2918
  947MOL0     C30567  11.620   4.980  10.384 -0.1102 -0.0500 -0.5743
  947MOL0     C30568  11.755   5.024  10.328 -0.4364  0.2846  0.0987
  947MOL0     C30569  11.767   5.031  10.172  0.8344  0.5329 -0.5030
  947MOL0     C30570  11.906   5.084  10.130  0.1097  0.4277 -0.8462
  947MOL0     C30571  12.031   5.006  10.185  0.1024 -0.0227  0.1031
  947MOL0     O30572  12.146   5.064  10.124  0.3889  0.2031  0.1805
  947MOL0     C30573  12.270   5.018  10.162  0.0385  1.2219 -0.1764
  947MOL0     C30574  12.303   4.903  10.250  0.9502 -0.4616  0.1371
  947MOL0     C30575  12.434   4.865  10.282 -0.8658  0.1661 -0.6602
  947MOL0     C30576  12.448   4.736  10.370  1.0001 -0.1562  0.4475
  947MOL0     C30577  12.544   4.931  10.218 -1.2559  0.0975 -0.5140
  947MOL0     C30578  12.689   4.903  10.237 -0.1904  0.3056 -0.1770
  947MOL0     O30579  12.727   4.781  10.297  0.5663  0.4053 -0.4745
  947MOL0     C30580  12.858   4.766  10.333 -0.1007 -0.9665  0.7666
  947MOL0     C30581  12.930   4.848  10.415  0.3211 -0.0728 -0.5777
  947MOL0     C30582  13.065   4.825  10.457 -0.0898 -0.0534  0.2304
  947MOL0     C30583  13.137   4.713  10.397  0.3592 -0.3028 -0.5099
  947MOL0     O30584  13.267   4.668  10.429 -0.2480  0.1859  0.2465
  947MOL0     C30585  13.340   4.755  10.511  0.1895 -0.0159 -0.5663
  947MOL0     C30586  13.486   4.726  10.503  0.1069 -0.0833  0.5374
  947MOL0     C30587  13.527   4.590  10.562  0.0849 -0.4491 -0.3009
  947MOL0     C30588  13.673   4.596  10.607 -0.9528  0.1867 -0.0743
  947MOL0     C30589  13.711   4.476  10.704 -1.2929  1.8007  1.2225
  947MOL0     C30590  13.854   4.499  10.765 -0.0939  0.4818  0.2116
  947MOL0     C30591  13.917   4.374  10.831 -0.2955 -0.2973  0.2314
  947MOL0     C30592  13.957   4.271  10.735  0.6101 -0.0140  1.6235
  947MOL0    Cl30593  14.108   4.321  10.657 -0.1205  0.2494 -0.2060
  947MOL0     C30594  13.066   4.635  10.306  0.1293 -0.5145  0.1790
  947MOL0     C30595  12.929   4.665  10.279 -0.5002  0.5993 -0.0714
  947MOL0     O30596  12.771   4.992  10.205 -0.2222  0.5863  0.1410
  947MOL0     C30597  12.514   5.047  10.147  1.3507  0.9478  0.0497
  947MOL0     C30598  12.381   5.082  10.112 -0.6953 -0.1519 -1.2037
  947MOL0     N30599  11.596   4.870  10.471  0.0387 -0.0081  0.2888
  947MOL0     N30600  11.463   4.878  10.492 -0.2995 -0.1087  1.0717
  947MOL0     C30601  10.220   5.116  10.337 -0.5906  0.5027 -0.2569
  947MOL0     C30602  10.109   5.031  10.327  0.5635 -0.8846 -0.3190
  947MOL0     C30603   9.734   4.831  10.480  0.0427 -0.2306 -0.2480
  947MOL0     C30604   9.736   4.730  10.383  0.1473  1.2048  0.1696
  947MOL0     C30605   9.645   4.620  10.385  0.5604 -0.3295  0.3307
  947MOL0     C30606   9.553   4.617  10.487  0.3675 -0.2176 -0.0581
  947MOL0     O30607   9.464   4.513  10.502  0.1883  0.6650 -0.5459
  947MOL0     C30608   9.468   4.391  10.418  0.1549 -0.5292 -0.2705
  947MOL0     C30609   9.370   4.291  10.481 -0.7039 -0.8223 -0.0448
  947MOL0     C30610   9.317   4.188  10.377  0.2657 -0.3452  0.6440
  947MOL0     C30611   9.270   4.063  10.445 -0.2280 -0.4122 -0.7268
  947MOL0     C30612   9.312   3.935  10.385 -0.3642  0.5116 -0.6213
  947MOL0     C30613   9.353   3.829  10.342  0.8821  0.2725  0.0467
  947MOL0     C30614   9.542   4.715  10.584  0.2225  0.0355 -0.3396
  947MOL0     C30615   9.624   4.824  10.580 -1.3308  0.7522  0.5512
  947MOL0     C30616   9.614   4.933  10.681 -0.1346 -0.2984 -1.0304
  947MOL0     H30617  10.126   4.904  10.641 -0.5174 -0.3905 -1.5105
  947MOL0     H30618  10.307   5.072  10.655  1.8137 -0.2988 -1.4654
  947MOL0     H30619  10.534   5.083  10.465  1.4375  1.8066 -1.2732
  947MOL0     H30620  10.515   5.192  10.617  2.8425 -2.3434  1.4450
  947MOL0     H30621  10.586   5.289  10.352  1.1485  0.3862 -0.2404
  947MOL0     H30622  10.629   5.351  10.513  2.1481  0.8079 -1.0691
  947MOL0     H30623  10.740   5.127  10.340 -1.3688 -1.0240  0.7625
  947MOL0     H30624  10.820   5.282  10.356  0.6473  1.2250 -0.0650
  947MOL0     H30625  10.875   5.236  10.582 -2.7202  0.9632 -1.5210
  947MOL0     H30626  10.789   5.078  10.577  0.1456  1.8076  2.8234
  947MOL0     H30627  11.039   5.143  10.392 -0.8275 -1.9755 -3.4924
  947MOL0     H30628  10.930   5.012  10.375  2.5088  0.4702 -2.4492
  947MOL0     H30629  11.060   5.031  10.640  0.7088 -1.6532  0.4154
  947MOL0     H30630  10.974   4.901  10.559 -3.5637  3.2794 -0.5557
  947MOL0     H30631  11.162   4.914  10.381 -3.9243 -1.2759  0.4559
  947MOL0     H30632  11.212   4.840  10.523  2.3447  1.1806  1.0411
  947MOL0     H30633  11.266   5.145  10.445  0.2240 -0.3811 -1.6893
  947MOL0     H30634  11.303   5.056  10.602 -1.3022 -1.0130 -0.1673
  947MOL0     H30635  11.500   5.153  10.311  1.8361  1.8172  1.1540
  947MOL0     H30636  11.824   4.944  10.354 -0.7618  0.3405  1.1732
  947MOL0     H30637  11.789   5.120  10.368  0.5682  0.1830 -0.4914
  947MOL0     H30638  11.748   4.929  10.138 -0.0345  0.5631 -0.1399
  947MOL0     H30639  11.687   5.093  10.131  1.5657  2.0173  0.2637
  947MOL0     H30640  11.910   5.107  10.023 -0.6287  0.8809 -0.7887
  947MOL0     H30641  11.906   5.180  10.182 -0.7959 -1.5854  3.2281
  947MOL0     H30642  12.035   5.014  10.294  0.1020  0.2241  0.0853
  947MOL0     H30643  12.025   4.900  10.157 -0.6923 -0.6949  2.5564
  947MOL0     H30644  12.220   4.845  10.287  3.2362 -2.9042  1.8545
  947MOL0     H30645  12.355   4.724  10.427 -0.0662 -2.0666 -1.5535
  947MOL0     H30646  12.528   4.748  10.444  0.9476  2.3880  0.2076
  947MOL0     H30647  12.451   4.648  10.305 -0.0461 -1.2393  1.8039
  947MOL0     H30648  12.891   4.939  10.460  3.1914 -0.2111  2.6058
  947MOL0     H30649  13.107   4.894  10.529  4.7253 -2.2337 -0.1137
  947MOL0     H30650  13.315   4.858  10.482  0.2838 -0.3648 -1.9406
  947MOL0     H30651  13.310   4.753  10.616  3.4421  2.5232  0.5860
  947MOL0     H30652  13.525   4.739  10.402 -2.4619 -1.1115 -0.6687
  947MOL0     H30653  13.525   4.804  10.569 -1.8726  0.2322  1.4124
  947MOL0     H30654  13.501   4.512  10.489 -0.9833  0.8545 -1.3447
  947MOL0     H30655  13.463   4.565  10.647 -1.6674  1.5070 -0.9556
  947MOL0     H30656  13.700   4.686  10.663 -2.3309 -0.5353  1.8669
  947MOL0     H30657  13.726   4.581  10.513  0.4435  1.1293  0.5355
  947MOL0     H30658  13.638   4.468  10.785 -1.8155 -1.3396  0.5698
  947MOL0     H30659  13.711   4.385  10.643 -0.5187  0.0683  3.6679
  947MOL0     H30660  13.841   4.576  10.841 -4.3883  0.7248 -0.5311
  947MOL0     H30661  13.917   4.537  10.685 -0.4832  0.5246 -0.0782
  947MOL0     H30662  13.844   4.338  10.905 -2.8688 -0.2074 -2.0801
  947MOL0     H30663  14.007   4.405  10.884 -1.4760  5.2606 -0.3997
  947MOL0     H30664  13.881   4.245  10.660  2.2378 -1.3454  0.3186
  947MOL0     H30665  13.967   4.173  10.782 -0.6196  0.2104  2.4009
  947MOL0     H30666  13.111   4.542  10.273  1.5861  0.8973 -2.0341
  947MOL0     H30667  12.875   4.589  10.224  2.1794 -1.2327 -0.3821
  947MOL0     H30668  12.580   5.118  10.097 -1.4394  1.9187 -2.5606
  947MOL0     H30669  12.365   5.163  10.041 -2.2053  0.0305 -0.6964
  947MOL0     H30670  10.234   5.168  10.242 -0.1569 -1.7760 -1.5150
  947MOL0     H30671  10.052   5.039  10.235  1.6054  3.9913 -0.8398
  947MOL0     H30672   9.813   4.736  10.307  0.6461  0.1708  0.5658
  947MOL0     H30673   9.641   4.554  10.298  0.1820 -0.0342  0.1234
  947MOL0     H30674   9.444   4.427  10.317  1.6237 -0.9968 -0.8080
  947MOL0     H30675   9.568   4.348  10.411 -0.1181 -0.9575 -2.4600
  947MOL0     H30676   9.279   4.338  10.518 -0.2080  1.1200 -1.1757
  947MOL0     H30677   9.413   4.237  10.566 -0.3647  0.1813  0.4324
  947MOL0     H30678   9.231   4.231  10.324 -0.0958  0.4759  1.8413
  947MOL0     H30679   9.406   4.171  10.316  0.8670  1.1662  1.0441
  947MOL0     H30680   9.161   4.076  10.447 -0.0441  1.7494 -1.8874
  947MOL0     H30681   9.311   4.058  10.546  0.5274  0.0078 -1.0100
  947MOL0     H30682   9.400   3.741  10.304 -2.2532 -0.7155 -1.9197
  947MOL0     H30683   9.469   4.708  10.664  0.4072 -1.8086 -0.2683
  947MOL0     H30684   9.526   4.909  10.741  1.1326 -1.9456  0.2589
  947MOL0     H30685   9.704   4.940  10.742  0.1965  0.8242 -1.6286
  947MOL0     H30686   9.584   5.031  10.644  1.6307 -0.0311 -1.8640
  948MOL0     O30687   7.063   8.107   3.526  0.2769 -0.4956  0.2716
  948MOL0     C30688   7.183   8.117   3.538  0.1675  0.0092 -0.6578
  948MOL0     O30689   7.245   8.210   3.619 -0.0829  0.2297 -1.1915
  948MOL0     C30690   7.196   8.332   3.618 -0.0292  0.3621  0.0958
  948MOL0     C30691   7.071   8.362   3.677  0.5237 -1.1032 -0.2781
  948MOL0     C30692   7.012   8.490   3.670 -0.7949 -0.3227 -0.3209
  948MOL0     C30693   7.083   8.598   3.603 -0.0025  0.9821 -0.1562
  948MOL0     O30694   7.024   8.725   3.584 -0.2755 -0.5183  0.0295
  948MOL0     C30695   6.905   8.726   3.511  0.6728 -0.5525  0.3706
  948MOL0     C30696   6.849   8.870   3.499 -0.4786 -0.1060 -0.4202
  948MOL0     C30697   6.959   8.982   3.480  0.4270  0.3564  0.8726
  948MOL0     C30698   6.881   9.116   3.475  0.2557  0.5000 -0.6132
  948MOL0     C30699   6.975   9.235   3.487 -0.1155  0.3251  0.3521
  948MOL0     C30700   7.079   9.245   3.379  1.3608  0.4530 -0.6695
  948MOL0     C30701   7.007   9.266   3.234 -0.0498 -0.5514  0.5775
  948MOL0     C30702   7.091   9.221   3.115  0.5396 -0.1014 -0.2423
  948MOL0     N30703   7.217   9.302   3.089  0.4721 -0.1246 -0.3589
  948MOL0     C30704   7.225   9.427   3.031 -0.1181 -0.6198 -0.0569
  948MOL0     C30705   7.365   9.453   3.000 -0.3840  0.2787  0.0474
  948MOL0     C30706   7.418   9.571   2.930  0.6362 -0.7570 -0.5581
  948MOL0     C30707   7.416   9.574   2.777  0.3525 -0.1730  0.2879
  948MOL0     C30708   7.491   9.697   2.716 -0.6757  0.2377  0.0918
  948MOL0     C30709   7.429   9.837   2.755 -0.3631  0.3941  0.7909
  948MOL0     O30710   7.461   9.947   2.672 -0.3483 -0.1953  0.6950
  948MOL0     C30711   7.596   9.988   2.669  1.4498 -0.2665  0.4457
  948MOL0     C30712   7.623  10.082   2.569  0.3219  0.7851 -0.1971
  948MOL0     C30713   7.753  10.137   2.551  0.9797 -0.0242  0.5682
  948MOL0     C30714   7.769  10.219   2.418  0.0217 -0.0320 -0.1692
  948MOL0     C30715   7.859  10.098   2.640 -0.0677  0.6061  0.5870
  948MOL0     C30716   8.000  10.143   2.622  0.0308  0.9136  0.4189
  948MOL0     O30717   8.009  10.256   2.551  0.4838 -0.3659  0.3759
  948MOL0     C30718   8.123  10.326   2.567  0.4954  1.0123 -0.3091
  948MOL0     C30719   8.173  10.356   2.702 -0.4857  0.5018  1.1280
  948MOL0     C30720   8.280  10.441   2.711 -0.4304  0.0935 -0.3682
  948MOL0     C30721   8.339  10.490   2.604 -0.4993 -0.6256  0.6821
  948MOL0     O30722   8.449  10.562   2.625 -0.9625  1.0850 -1.1267
  948MOL0     C30723   8.552  10.479   2.691  0.5499 -0.6957 -0.3510
  948MOL0     C30724   8.687  10.537   2.662  0.3505 -0.2160 -0.1621
  948MOL0     C30725   8.785  10.442   2.729  1.0902 -0.1790  0.0422
  948MOL0     C30726   8.931  10.500   2.724  0.1054 -0.9545 -0.1918
  948MOL0     C30727   9.041  10.400   2.774 -0.4401 -0.6770  0.4920
  948MOL0     C30728   9.046  10.392   2.920 -0.7892 -0.0979  0.0148
  948MOL0     C30729   9.141  10.283   2.964 -0.0769 -0.2571  0.4184
  948MOL0     C30730   9.121  10.273   3.116  0.4389  0.1076  0.2339
  948MOL0    Cl30731   9.184  10.416   3.194 -0.0108 -0.0124 -0.3121
  948MOL0     C30732   8.287  10.483   2.473  0.2105 -0.9722  0.3317
  948MOL0     C30733   8.176  10.386   2.454  0.0169 -0.3006  0.8421
  948MOL0     O30734   8.086  10.078   2.671 -0.2514 -0.3266 -1.1108
  948MOL0     C30735   7.822  10.004   2.733 -0.6128 -0.1285 -0.3186
  948MOL0     C30736   7.690   9.947   2.749  0.2176 -0.5027 -0.6296
  948MOL0     N30737   7.428   9.340   3.060 -0.1811  0.0504  0.1192
  948MOL0     N30738   7.343   9.263   3.109 -0.1101 -0.8891 -0.1935
  948MOL0     C30739   7.210   8.564   3.549 -0.0351 -0.2824  0.5420
  948MOL0     C30740   7.264   8.431   3.554  0.1064 -0.3327  0.0699
  948MOL0     C30741   7.267   8.009   3.482 -0.2920  0.4146  1.0537
  948MOL0     C30742   7.206   7.886   3.494 -0.1825 -0.3243  1.7978
  948MOL0     C30743   7.267   7.766   3.439 -0.1929 -0.0555 -0.0743
  948MOL0     C30744   7.404   7.775   3.413 -0.0120  0.2067 -0.0558
  948MOL0     O30745   7.462   7.660   3.375  0.3582  0.8403  0.0841
  948MOL0     C30746   7.602   7.659   3.351 -0.0107 -0.3513 -0.0722
  948MOL0     C30747   7.646   7.550   3.262  0.4869  0.4031  0.6967
  948MOL0     C30748   7.634   7.406   3.316  0.8696  0.4774  0.2387
  948MOL0     C30749   7.699   7.309   3.212  0.2305  0.3833  0.3996
  948MOL0     C30750   7.628   7.178   3.203 -1.0833 -0.1515  0.3427
  948MOL0     C30751   7.557   7.081   3.217  0.3830 -0.6932 -0.4934
  948MOL0     C30752   7.474   7.903   3.422  0.8659 -0.7375  0.2794
  948MOL0     C30753   7.401   8.015   3.462 -1.2834  0.0052  0.3295
  948MOL0     C30754   7.478   8.141   3.476 -0.2109 -0.1039  0.4198
  948MOL0     H30755   7.021   8.290   3.741  1.5386 -1.2567  0.3629
  948MOL0     H30756   6.917   8.511   3.718  0.2588  0.5310  1.5004
  948MOL0     H30757   6.836   8.646   3.541  1.8339 -2.0235 -0.7297
  948MOL0     H30758   6.931   8.699   3.408 -1.3454 -2.7321  0.3536
  948MOL0     H30759   6.773   8.873   3.420  1.9548 -3.0084 -3.1749
  948MOL0     H30760   6.787   8.892   3.587 -0.2108 -1.8646  0.2496
  948MOL0     H30761   7.036   8.982   3.557  1.8588  0.7417 -0.4998
  948MOL0     H30762   7.003   8.958   3.383  1.3449 -1.0221  1.6035
  948MOL0     H30763   6.826   9.117   3.380  2.0916 -2.0275 -1.8074
  948MOL0     H30764   6.800   9.110   3.549 -1.2093  0.5360 -2.1423
  948MOL0     H30765   7.033   9.212   3.577 -2.4613 -0.9702  1.6154
  948MOL0     H30766   6.908   9.318   3.508 -3.0968 -1.3145 -1.9533
  948MOL0     H30767   7.142   9.331   3.400 -0.5875  2.0258 -0.9125
  948MOL0     H30768   7.131   9.149   3.379  1.4274  0.4895 -1.0366
  948MOL0     H30769   6.975   9.370   3.233 -0.5273 -0.6250  2.9686
  948MOL0     H30770   6.922   9.200   3.217  1.3261 -3.0575  2.6826
  948MOL0     H30771   7.123   9.117   3.121  3.5331  0.7213 -0.4654
  948MOL0     H30772   7.019   9.239   3.035  0.0155  2.0581  0.6370
  948MOL0     H30773   7.139   9.484   2.997 -1.0035 -1.6354  0.4177
  948MOL0     H30774   7.522   9.591   2.954  0.6111  1.7235 -2.1125
  948MOL0     H30775   7.365   9.659   2.968  3.0114  1.6757 -2.5003
  948MOL0     H30776   7.467   9.486   2.736 -2.6081 -2.5681  1.3687
  948MOL0     H30777   7.310   9.564   2.750  0.5736  0.9838 -1.1171
  948MOL0     H30778   7.596   9.689   2.743 -1.2456 -1.8490  1.9874
  948MOL0     H30779   7.474   9.692   2.608 -0.5121 -0.0663  0.0812
  948MOL0     H30780   7.319   9.834   2.761 -0.4152 -0.8428 -0.2307
  948MOL0     H30781   7.465   9.856   2.856  1.0574 -2.8610  0.9913
  948MOL0     H30782   7.532  10.096   2.512 -0.9706  2.4774  2.0704
  948MOL0     H30783   7.678  10.204   2.358 -0.0467 -0.9420  0.1464
  948MOL0     H30784   7.865  10.198   2.369 -0.9112 -1.6191 -1.4424
  948MOL0     H30785   7.785  10.327   2.425 -0.2215  0.3249 -3.3245
  948MOL0     H30786   8.142  10.311   2.796 -2.5815 -2.8521 -0.9553
  948MOL0     H30787   8.317  10.450   2.812  3.2675 -3.6426 -1.1359
  948MOL0     H30788   8.533  10.470   2.798 -0.4425 -0.0836 -0.4610
  948MOL0     H30789   8.545  10.377   2.653 -3.3406 -1.4288  1.7886
  948MOL0     H30790   8.698  10.537   2.553 -1.2208 -0.0013 -0.3479
  948MOL0     H30791   8.696  10.634   2.711 -4.2472  0.0461  0.6707
  948MOL0     H30792   8.775  10.341   2.690 -1.8320 -0.5093  1.3645
  948MOL0     H30793   8.757  10.445   2.835  2.4174  3.6447  0.4292
  948MOL0     H30794   8.922  10.593   2.780 -0.2161 -0.4759 -1.0141
  948MOL0     H30795   8.951  10.533   2.621  1.4810  1.9191  0.8936
  948MOL0     H30796   9.037  10.309   2.713 -1.5738 -1.1531  1.2309
  948MOL0     H30797   9.135  10.440   2.735  0.2780 -1.6899  1.0915
  948MOL0     H30798   8.947  10.375   2.963 -1.4088  1.3307 -0.7798
  948MOL0     H30799   9.086  10.482   2.966 -1.6605 -1.2205  3.1851
  948MOL0     H30800   9.245  10.309   2.942 -0.0311  1.0151  1.9181
  948MOL0     H30801   9.123  10.186   2.917  1.2142 -0.2699 -0.0962
  948MOL0     H30802   9.183  10.186   3.140  0.2366  0.1879  1.0792
  948MOL0     H30803   9.014  10.262   3.134  0.5134 -1.2826 -0.0324
  948MOL0     H30804   8.346  10.549   2.411  0.3802 -2.1080 -0.7534
  948MOL0     H30805   8.131  10.365   2.357  0.0710 -2.1087  1.1845
  948MOL0     H30806   7.899   9.970   2.801 -0.7492 -0.9960 -0.5851
  948MOL0     H30807   7.673   9.865   2.817  0.9500  1.2499  1.8278
  948MOL0     H30808   7.265   8.647   3.506 -0.0614 -0.6231 -0.1735
  948MOL0     H30809   7.365   8.411   3.519 -0.2010 -3.2591  0.5597
  948MOL0     H30810   7.103   7.884   3.527 -1.1169  2.7519 -0.4551
  948MOL0     H30811   7.221   7.669   3.429  2.7027 -1.4824 -0.6444
  948MOL0     H30812   7.641   7.749   3.302  0.4098 -1.0084 -0.9628
  948MOL0     H30813   7.658   7.660   3.445  1.3593 -1.9530 -0.8148
  948MOL0     H30814   7.753   7.571   3.249 -0.2044  3.4702 -1.0147
  948MOL0     H30815   7.596   7.556   3.165  3.6287  1.4901 -1.0140
  948MOL0     H30816   7.682   7.399   3.414  0.2689  0.5073  0.5390
  948MOL0     H30817   7.525   7.396   3.315  1.0219 -1.8247  0.4588
  948MOL0     H30818   7.801   7.299   3.250  0.5463  0.6147 -0.3819
  948MOL0     H30819   7.707   7.345   3.110 -1.1875 -4.0160 -1.5232
  948MOL0     H30820   7.494   7.008   3.262 -0.0484  0.3147  0.5894
  948MOL0     H30821   7.582   7.914   3.414  0.5269  2.4356 -3.7406
  948MOL0     H30822   7.570   8.149   3.417  0.2087 -1.2781  0.8835
  948MOL0     H30823   7.413   8.220   3.437 -1.7786 -1.0531  0.9980
  948MOL0     H30824   7.502   8.158   3.581 -0.5223 -0.3255  0.5270
  949MOL0     O30825   4.244   2.357   9.598  0.1061 -0.4406 -0.1829
  949MOL0     C30826   4.162   2.440   9.551  0.9609  0.1031 -0.4041
  949MOL0     O30827   4.187   2.556   9.479 -0.0832 -0.4813 -0.1011
  949MOL0     C30828   4.316   2.606   9.477  0.5898 -0.7936 -0.7063
  949MOL0     C30829   4.393   2.618   9.599  0.5900  0.2370 -0.2298
  949MOL0     C30830   4.530   2.642   9.600  0.7911 -0.1948 -0.9784
  949MOL0     C30831   4.588   2.677   9.483 -0.0774 -0.3059  0.6368
  949MOL0     O30832   4.713   2.722   9.481  0.9442  0.5486 -0.2338
  949MOL0     C30833   4.732   2.849   9.417 -0.8650 -0.1358  0.2717
  949MOL0     C30834   4.835   2.922   9.506  0.9398 -0.4388  0.0085
  949MOL0     C30835   4.790   2.938   9.651 -0.5817 -0.2144 -0.0990
  949MOL0     C30836   4.887   3.001   9.754  0.3441  0.8703  0.0430
  949MOL0     C30837   4.876   2.926   9.890 -1.0461  0.0872  0.4585
  949MOL0     C30838   4.735   2.944   9.948 -0.3831 -0.4447 -0.6592
  949MOL0     C30839   4.706   2.824  10.056 -0.3632  1.1266  0.1035
  949MOL0     C30840   4.570   2.847  10.113 -0.0632  0.3280 -0.8942
  949MOL0     N30841   4.468   2.760  10.053 -0.4961  0.1005 -0.4682
  949MOL0     C30842   4.430   2.626  10.084 -0.9177 -0.0951 -0.8089
  949MOL0     C30843   4.345   2.586   9.984  0.4751 -0.5750 -0.3498
  949MOL0     C30844   4.275   2.450   9.970  0.3444  0.3296 -0.4669
  949MOL0     C30845   4.251   2.370  10.103  0.3215 -0.3995 -0.6251
  949MOL0     C30846   4.114   2.300  10.115  0.5308 -0.9526 -0.0496
  949MOL0     C30847   4.087   2.181  10.019  0.1172 -0.2877  0.4199
  949MOL0     O30848   3.971   2.107  10.060 -0.3687  0.7979 -0.2887
  949MOL0     C30849   3.900   2.017   9.977 -0.6001 -0.8182 -0.3897
  949MOL0     C30850   3.768   1.994  10.010  0.2163 -0.1643  0.5631
  949MOL0     C30851   3.692   1.904   9.934  0.6924  0.4753  0.3765
  949MOL0     C30852   3.547   1.909   9.982 -0.7267 -1.3200  0.3585
  949MOL0     C30853   3.734   1.836   9.813 -0.3544  0.7841  0.3366
  949MOL0     C30854   3.656   1.740   9.731  0.2792 -0.3741  0.7898
  949MOL0     O30855   3.684   1.727   9.594 -0.1586  0.2348  0.4626
  949MOL0     C30856   3.604   1.646   9.509  0.0950  0.0051  0.2920
  949MOL0     C30857   3.614   1.506   9.510  0.0268 -0.1130 -0.7930
  949MOL0     C30858   3.529   1.429   9.432  0.2212  0.2722 -0.5546
  949MOL0     C30859   3.426   1.479   9.355 -0.2749 -0.5482 -0.3964
  949MOL0     O30860   3.324   1.412   9.296  0.6406  0.0273  0.0336
  949MOL0     C30861   3.351   1.274   9.262  0.2295  0.5096  0.3105
  949MOL0     C30862   3.263   1.245   9.147 -0.7901 -1.0965 -0.1857
  949MOL0     C30863   3.291   1.116   9.081  0.0645  1.1849  0.0934
  949MOL0     C30864   3.292   0.995   9.179  0.1988 -0.0229 -0.1936
  949MOL0     C30865   3.357   0.864   9.122 -0.1036 -0.6969  0.5661
  949MOL0     C30866   3.366   0.751   9.231  0.1321  0.2722 -0.4041
  949MOL0     C30867   3.232   0.677   9.236 -0.0348  0.9523  0.9109
  949MOL0     C30868   3.248   0.534   9.289 -0.0845  0.8545 -0.2747
  949MOL0    Cl30869   3.367   0.426   9.190 -0.0699 -0.0763 -0.0556
  949MOL0     C30870   3.414   1.613   9.349  0.5495 -0.2606 -0.0429
  949MOL0     C30871   3.503   1.695   9.431  0.5806  0.1489  0.1839
  949MOL0     O30872   3.576   1.668   9.782  0.5533  0.3055 -0.2857
  949MOL0     C30873   3.877   1.861   9.787  0.4136  0.4084 -0.0314
  949MOL0     C30874   3.959   1.952   9.863  0.2988  0.3855 -0.4900
  949MOL0     N30875   4.314   2.696   9.905 -0.6647 -0.4019 -0.5276
  949MOL0     N30876   4.384   2.794   9.953  0.6808  0.1739  0.3309
  949MOL0     C30877   4.511   2.687   9.362 -0.5333 -0.0825 -0.7755
  949MOL0     C30878   4.382   2.644   9.359  0.3954  0.2492 -0.5355
  949MOL0     C30879   4.023   2.392   9.543  0.2876  0.1883 -0.9938
  949MOL0     C30880   3.936   2.499   9.576  0.4754  0.2459 -1.0797
  949MOL0     C30881   3.803   2.468   9.596 -0.6860  0.1755 -0.2481
  949MOL0     C30882   3.749   2.337   9.586 -0.3971 -0.0494 -0.7846
  949MOL0     O30883   3.610   2.329   9.606  0.2622  0.8004 -0.9943
  949MOL0     C30884   3.546   2.199   9.610  0.6566 -0.8153 -0.0376
  949MOL0     C30885   3.397   2.224   9.636  0.3128  0.3066 -0.5457
  949MOL0     C30886   3.371   2.224   9.792  0.0649 -0.4545 -1.4924
  949MOL0     C30887   3.406   2.364   9.847  0.2248 -0.8249  1.4104
  949MOL0     C30888   3.327   2.379   9.969  0.4218  0.4577  0.4008
  949MOL0     C30889   3.259   2.368  10.069  0.0857  0.9680  0.5039
  949MOL0     C30890   3.838   2.227   9.552  0.2454 -0.2505 -0.1373
  949MOL0     C30891   3.970   2.258   9.535 -0.4449  0.4732 -0.2852
  949MOL0     C30892   4.063   2.150   9.477 -0.8128 -0.3996  0.5851
  949MOL0     H30893   4.346   2.583   9.691 -1.5266  1.6408 -0.6961
  949MOL0     H30894   4.589   2.655   9.690 -0.5311 -0.3252 -0.0707
  949MOL0     H30895   4.645   2.915   9.410 -1.4099 -1.0094 -2.0981
  949MOL0     H30896   4.769   2.828   9.316  1.9564  0.7273  1.0194
  949MOL0     H30897   4.926   2.863   9.518 -1.1443 -4.2858 -1.5041
  949MOL0     H30898   4.845   3.021   9.460 -3.0266  0.1367  0.0133
  949MOL0     H30899   4.707   3.009   9.658  1.0849  2.2141 -2.6190
  949MOL0     H30900   4.769   2.837   9.685 -0.6215 -1.0314 -2.3963
  949MOL0     H30901   4.988   2.982   9.717  1.0273  0.7097  1.8683
  949MOL0     H30902   4.875   3.109   9.770 -0.7912  0.7759 -0.0907
  949MOL0     H30903   4.947   2.973   9.959  1.3001 -1.0537 -1.0280
  949MOL0     H30904   4.908   2.824   9.868  2.3045  1.7112 -3.5146
  949MOL0     H30905   4.732   3.038  10.005 -5.1259 -0.9314  0.2693
  949MOL0     H30906   4.658   2.947   9.871  2.1217  0.3805 -3.3237
  949MOL0     H30907   4.784   2.824  10.133  1.7083  1.1714 -1.8873
  949MOL0     H30908   4.702   2.731  10.000 -1.8939  0.9140  0.5195
  949MOL0     H30909   4.574   2.827  10.221 -0.4215  1.0564 -0.7423
  949MOL0     H30910   4.536   2.948  10.091 -1.4901  0.0643 -0.0487
  949MOL0     H30911   4.466   2.566  10.167  0.0062 -1.0887 -1.8930
  949MOL0     H30912   4.340   2.383   9.912  0.9213  1.5189 -1.2165
  949MOL0     H30913   4.178   2.446   9.919  0.0075 -1.7285  0.2012
  949MOL0     H30914   4.333   2.303  10.129  0.8911  0.3684 -0.3924
  949MOL0     H30915   4.240   2.448  10.180 -1.0911  0.3383 -1.5239
  949MOL0     H30916   4.099   2.260  10.216 -2.7048 -1.4410 -0.6132
  949MOL0     H30917   4.039   2.378  10.098  1.1900 -0.4234 -0.5966
  949MOL0     H30918   4.083   2.212   9.914  0.3173 -0.3873  0.3827
  949MOL0     H30919   4.173   2.115  10.031  1.7594  1.9869  2.0203
  949MOL0     H30920   3.721   2.066  10.077 -0.3455  0.1351 -0.1403
  949MOL0     H30921   3.539   1.847  10.072  0.8020 -1.8916  0.1304
  949MOL0     H30922   3.478   1.867   9.907 -1.1601  0.5890 -0.3625
  949MOL0     H30923   3.514   2.010  10.007 -1.4441 -1.1581 -1.1369
  949MOL0     H30924   3.674   1.458   9.586 -1.2971 -0.1043  0.3145
  949MOL0     H30925   3.537   1.321   9.430 -1.5286  0.1087 -0.0525
  949MOL0     H30926   3.453   1.261   9.224  0.2059 -1.9198  0.8786
  949MOL0     H30927   3.343   1.205   9.346 -1.9997 -1.3034 -1.2376
  949MOL0     H30928   3.162   1.261   9.185 -0.1132  1.8921  0.6409
  949MOL0     H30929   3.277   1.327   9.076 -2.6397  0.3210  0.9817
  949MOL0     H30930   3.396   1.122   9.049  0.4998 -2.5109  0.4046
  949MOL0     H30931   3.225   1.092   8.996  0.6656 -3.5558  0.7157
  949MOL0     H30932   3.191   0.991   9.220 -0.6914 -0.9636 -2.3456
  949MOL0     H30933   3.362   1.021   9.260  1.4160 -3.1822 -0.0867
  949MOL0     H30934   3.300   0.815   9.042 -2.0753 -3.4803  3.4105
  949MOL0     H30935   3.457   0.888   9.086 -0.7800  0.8352 -0.3671
  949MOL0     H30936   3.405   0.779   9.330  1.1156  4.1773 -1.7189
  949MOL0     H30937   3.444   0.682   9.197  0.6517  1.3633 -1.5154
  949MOL0     H30938   3.195   0.681   9.133 -0.0165  3.7983  0.9423
  949MOL0     H30939   3.170   0.734   9.305 -0.0441  1.1426  0.7455
  949MOL0     H30940   3.154   0.477   9.290  0.6618 -0.4366 -0.4812
  949MOL0     H30941   3.279   0.535   9.394  0.4006 -1.7188 -0.3091
  949MOL0     H30942   3.338   1.658   9.284 -0.4720 -1.0047  0.6069
  949MOL0     H30943   3.488   1.802   9.418  0.0980  0.1719  0.8695
  949MOL0     H30944   3.915   1.802   9.705 -2.7666 -2.2882  0.2158
  949MOL0     H30945   4.058   1.981   9.831  0.5017 -1.1105 -1.3356
  949MOL0     H30946   4.557   2.707   9.266 -1.1398 -2.3804 -1.6356
  949MOL0     H30947   4.316   2.632   9.273 -2.6420 -2.2707  1.9139
  949MOL0     H30948   3.971   2.600   9.594 -4.1275  1.7836  0.6681
  949MOL0     H30949   3.746   2.558   9.618  0.1336  0.7437 -0.4173
  949MOL0     H30950   3.563   2.164   9.507 -1.7426  0.7788 -1.0683
  949MOL0     H30951   3.594   2.138   9.687 -2.1032 -0.1843  2.3606
  949MOL0     H30952   3.335   2.148   9.588  2.6387 -1.4441 -0.9118
  949MOL0     H30953   3.360   2.318   9.593  0.5914  0.9769  0.6329
  949MOL0     H30954   3.263   2.206   9.795 -0.0360  0.2530 -0.5199
  949MOL0     H30955   3.422   2.142   9.845 -1.3244  0.1461  0.9228
  949MOL0     H30956   3.370   2.439   9.777 -3.3222 -2.6058  1.1320
  949MOL0     H30957   3.514   2.370   9.863  0.3866  0.4328  0.0881
  949MOL0     H30958   3.198   2.365  10.156  0.1037 -0.4915  0.4931
  949MOL0     H30959   3.801   2.129   9.526  0.5636 -0.5633  0.5518
  949MOL0     H30960   4.128   2.200   9.403 -2.1337 -0.3349 -0.5761
  949MOL0     H30961   4.117   2.095   9.554 -2.2807 -3.0863 -0.1982
  949MOL0     H30962   4.003   2.077   9.421 -2.4671 -0.3946  2.2599
  950MOL0     O30963   1.257   0.047   7.196 -0.4386 -0.1119 -0.1853
  950MOL0     C30964   1.179   0.012   7.117 -0.1060 -0.0106  1.1627
  950MOL0     O30965   1.073  -0.071   7.146  0.4103 -0.4896  0.0315
  950MOL0     C30966   0.971  -0.032   7.232 -1.5658  1.2970  0.9546
  950MOL0     C30967   0.876  -0.130   7.248 -0.0848 -0.1848  0.0400
  950MOL0     C30968   0.764  -0.096   7.333 -0.3322  0.3720 -1.2257
  950MOL0     C30969   0.770   0.026   7.406  0.2611  0.6635  0.2693
  950MOL0     O30970   0.689   0.048   7.515  0.2147  0.4083  0.2261
  950MOL0     C30971   0.709   0.149   7.618  0.1135  0.7218  0.3018
  950MOL0     C30972   0.615   0.119   7.744 -0.1996 -0.2642 -0.9238
  950MOL0     C30973   0.656  -0.021   7.797 -0.8246  0.7056  0.8614
  950MOL0     C30974   0.570  -0.058   7.921 -0.1406 -0.5236  0.2732
  950MOL0     C30975   0.622  -0.200   7.961 -0.3403  0.2357  1.4066
  950MOL0     C30976   0.563  -0.256   8.089  0.1280  0.0670 -0.3733
  950MOL0     C30977   0.616  -0.183   8.211  0.5475 -0.8143  0.3936
  950MOL0     C30978   0.593  -0.260   8.344 -0.4239 -0.4450 -0.1801
  950MOL0     N30979   0.648  -0.177   8.447 -0.7444 -0.5266 -0.6464
  950MOL0     C30980   0.610  -0.047   8.484 -0.1717  1.2921  0.1352
  950MOL0     C30981   0.670  -0.016   8.598  0.1030  0.0141 -0.2894
  950MOL0     C30982   0.642   0.119   8.669  0.1337  0.7980 -0.4474
  950MOL0     C30983   0.720   0.231   8.593  0.2487  0.0222  0.3435
  950MOL0     C30984   0.763   0.348   8.672  0.0629 -0.0185 -0.1188
  950MOL0     C30985   0.802   0.468   8.588 -0.0232  0.9857 -0.3064
  950MOL0     O30986   0.890   0.425   8.486 -0.5651 -0.1403  0.3853
  950MOL0     C30987   1.028   0.423   8.498  0.7512  0.7863  1.0792
  950MOL0     C30988   1.092   0.414   8.374 -0.1613 -0.8768  0.2546
  950MOL0     C30989   1.235   0.413   8.356  0.0429 -0.5807  1.0700
  950MOL0     C30990   1.292   0.413   8.216  0.1049  0.2860  0.2146
  950MOL0     C30991   1.304   0.405   8.477 -0.5228 -0.8224  0.1482
  950MOL0     C30992   1.450   0.407   8.478 -0.0664 -1.0118 -0.3520
  950MOL0     O30993   1.525   0.305   8.548 -0.3628 -0.5291 -0.4818
  950MOL0     C30994   1.666   0.311   8.539  0.2914 -0.5986  0.1314
  950MOL0     C30995   1.741   0.255   8.644  1.2179  1.0486  0.5128
  950MOL0     C30996   1.873   0.204   8.621  0.5853 -0.0101  1.3472
  950MOL0     C30997   1.944   0.240   8.504 -0.5332 -0.6719  0.2371
  950MOL0     O30998   2.077   0.220   8.502 -0.8110  0.0940 -0.6306
  950MOL0     C30999   2.160   0.263   8.395  0.8446 -0.2065  0.0799
  950MOL0     C31000   2.172   0.412   8.359  0.5172 -0.0464  0.6044
  950MOL0     C31001   2.239   0.498   8.460 -0.7322  0.2643 -0.4975
  950MOL0     C31002   2.192   0.463   8.604 -0.3403 -0.2427 -0.3311
  950MOL0     C31003   2.255   0.550   8.705 -0.4651 -0.2205 -0.1271
  950MOL0     C31004   2.398   0.519   8.732 -0.4635  0.5299  0.1287
  950MOL0     C31005   2.443   0.623   8.839  0.7043  0.4217 -0.0517
  950MOL0     C31006   2.586   0.592   8.879 -0.0259  0.7983  0.2291
  950MOL0    Cl31007   2.579   0.438   8.971  0.6740 -0.1356 -0.0435
  950MOL0     C31008   1.864   0.296   8.399  0.1862  0.1331 -0.3288
  950MOL0     C31009   1.726   0.341   8.417 -0.4377 -1.1912 -0.5229
  950MOL0     O31010   1.494   0.514   8.427  0.8941  0.7499  0.1081
  950MOL0     C31011   1.238   0.399   8.599  0.0794 -0.8841 -0.2488
  950MOL0     C31012   1.102   0.402   8.612 -0.8042  0.3200 -0.4554
  950MOL0     N31013   0.759  -0.119   8.629 -0.7732  0.6413  0.1529
  950MOL0     N31014   0.743  -0.217   8.547  0.1790  1.1429  0.2523
  950MOL0     C31015   0.864   0.115   7.375 -0.0545  0.5653  0.1087
  950MOL0     C31016   0.959   0.089   7.291 -1.0044 -0.0528 -0.9689
  950MOL0     C31017   1.200   0.047   6.977 -0.6201  0.1466 -0.1290
  950MOL0     C31018   1.321   0.116   6.947 -0.0590  0.4080 -0.7237
  950MOL0     C31019   1.363   0.142   6.820 -0.0149  0.0912  0.6067
  950MOL0     C31020   1.281   0.123   6.713  0.3123  1.3437 -0.4237
  950MOL0     O31021   1.324   0.171   6.591 -0.0148 -0.1734 -0.1764
  950MOL0     C31022   1.261   0.119   6.478 -1.0185 -1.3606  0.6125
  950MOL0     C31023   1.358   0.166   6.358  0.5960  0.5082  0.7744
  950MOL0     C31024   1.364   0.316   6.332  1.4607  0.1390  0.0735
  950MOL0     C31025   1.232   0.377   6.272  0.6026 -1.4210  0.8972
  950MOL0     C31026   1.250   0.498   6.188  0.4231 -0.1304 -0.7076
  950MOL0     C31027   1.289   0.602   6.137 -0.6717  0.7406 -0.4394
  950MOL0     C31028   1.159   0.057   6.738  0.1692  0.2616  0.6019
  950MOL0     C31029   1.118   0.030   6.870  0.2179 -0.3865  0.8318
  950MOL0     C31030   0.980  -0.020   6.887 -0.1351  0.8763 -0.7252
  950MOL0     H31031   0.880  -0.226   7.199 -0.7915 -0.7413  1.0113
  950MOL0     H31032   0.687  -0.171   7.350  1.8684 -1.3964  2.2308
  950MOL0     H31033   0.683   0.238   7.560  4.2171  0.0632 -3.0726
  950MOL0     H31034   0.815   0.157   7.644  0.5027  0.8449 -1.2501
  950MOL0     H31035   0.638   0.191   7.824  1.1600 -2.5122  0.8620
  950MOL0     H31036   0.515   0.115   7.701 -0.6759 -1.9901  0.2243
  950MOL0     H31037   0.627  -0.088   7.715 -0.9143  0.8644  0.7635
  950MOL0     H31038   0.762  -0.029   7.822 -1.0723 -0.8796  1.5556
  950MOL0     H31039   0.601   0.013   7.999  2.1150 -0.6682 -0.4220
  950MOL0     H31040   0.462  -0.045   7.910 -1.0552 -0.9760  5.6463
  950MOL0     H31041   0.729  -0.196   7.981  0.7559 -3.4429 -2.4002
  950MOL0     H31042   0.600  -0.261   7.873 -2.1222  3.1877 -0.4011
  950MOL0     H31043   0.454  -0.270   8.094  0.2044 -0.0352  3.3542
  950MOL0     H31044   0.611  -0.354   8.103 -0.2943  0.0177  0.8096
  950MOL0     H31045   0.556  -0.091   8.220  1.5585 -0.3342  3.5398
  950MOL0     H31046   0.723  -0.163   8.214  0.5413 -0.5837 -0.6299
  950MOL0     H31047   0.485  -0.273   8.356 -0.5815 -0.5244 -1.5424
  950MOL0     H31048   0.635  -0.360   8.329 -1.3279 -0.7824 -0.5270
  950MOL0     H31049   0.548   0.030   8.441  0.8446  2.2308  0.2967
  950MOL0     H31050   0.670   0.115   8.775 -1.3257 -0.7029 -0.0740
  950MOL0     H31051   0.536   0.142   8.659 -0.8692 -2.0497  2.0173
  950MOL0     H31052   0.811   0.181   8.560 -0.7235 -0.7045 -1.3720
  950MOL0     H31053   0.672   0.274   8.505  1.8346  0.7328 -0.2129
  950MOL0     H31054   0.690   0.384   8.744  1.5401  1.5389  0.6821
  950MOL0     H31055   0.841   0.315   8.741 -0.3453  1.2870  1.0116
  950MOL0     H31056   0.712   0.515   8.549  0.4707  2.9230  0.7624
  950MOL0     H31057   0.856   0.540   8.650  0.3050  2.8005 -2.5900
  950MOL0     H31058   1.022   0.413   8.291  0.3647 -0.1406 -0.2027
  950MOL0     H31059   1.206   0.431   8.151 -2.7308  0.3465  3.6457
  950MOL0     H31060   1.327   0.310   8.198 -2.3019 -1.1935  3.0545
  950MOL0     H31061   1.365   0.492   8.197 -2.8829  2.9670 -1.0600
  950MOL0     H31062   1.692   0.222   8.736  1.7393 -2.0655 -0.2118
  950MOL0     H31063   1.927   0.172   8.709  1.2475 -0.0423  0.9359
  950MOL0     H31064   2.262   0.234   8.422  0.2522 -1.7438  0.7368
  950MOL0     H31065   2.150   0.211   8.300  2.4331 -2.4084  1.0197
  950MOL0     H31066   2.229   0.416   8.266  0.7198 -0.1252  0.7243
  950MOL0     H31067   2.076   0.460   8.336  0.6254  1.3059  2.6975
  950MOL0     H31068   2.229   0.606   8.446  4.3619  1.4186  2.1288
  950MOL0     H31069   2.342   0.462   8.468 -1.7514 -3.8715 -2.9718
  950MOL0     H31070   2.220   0.363   8.638  1.1742  1.2541  3.3674
  950MOL0     H31071   2.084   0.483   8.613 -0.2921  0.8835 -1.8011
  950MOL0     H31072   2.236   0.656   8.689  1.6892 -0.0188 -1.9457
  950MOL0     H31073   2.206   0.530   8.801 -0.8722 -0.9913 -0.4788
  950MOL0     H31074   2.470   0.532   8.650 -0.4462  0.4469  0.1300
  950MOL0     H31075   2.408   0.417   8.770  0.0538  0.1207 -1.0634
  950MOL0     H31076   2.380   0.628   8.928  1.6442  1.1957  0.5930
  950MOL0     H31077   2.452   0.727   8.805  0.3445  0.5975  0.3825
  950MOL0     H31078   2.636   0.660   8.949  2.2369 -0.3047 -0.2164
  950MOL0     H31079   2.658   0.594   8.797  0.7099  1.2553  0.8692
  950MOL0     H31080   1.919   0.320   8.309 -0.7844  1.5688 -0.5869
  950MOL0     H31081   1.680   0.377   8.325  1.5873  2.2466 -0.3755
  950MOL0     H31082   1.304   0.412   8.684 -1.8755 -0.7105  1.3261
  950MOL0     H31083   1.043   0.411   8.703 -1.4357 -2.4764 -0.4929
  950MOL0     H31084   0.866   0.207   7.433  0.0634  0.0472  0.9381
  950MOL0     H31085   1.036   0.165   7.284 -0.4969 -0.1683  2.0075
  950MOL0     H31086   1.383   0.157   7.026 -0.0426 -0.0056 -0.5238
  950MOL0     H31087   1.463   0.174   6.792 -0.0359 -0.4772 -0.1343
  950MOL0     H31088   1.255   0.010   6.483  1.1724 -1.8173 -2.7982
  950MOL0     H31089   1.162   0.163   6.462  0.3919  1.5830 -1.0287
  950MOL0     H31090   1.299   0.120   6.278  0.0935  0.1412  1.3529
  950MOL0     H31091   1.460   0.132   6.375  0.7615  1.4214  1.7201
  950MOL0     H31092   1.388   0.376   6.421  0.8367  1.2605 -0.4895
  950MOL0     H31093   1.440   0.326   6.254  1.9592  0.3339  0.5745
  950MOL0     H31094   1.164   0.415   6.349 -0.4497  1.5102 -1.3127
  950MOL0     H31095   1.171   0.303   6.218 -0.8307 -0.2839  0.8922
  950MOL0     H31096   1.320   0.695   6.093 -3.2294  0.8355 -2.2847
  950MOL0     H31097   1.090   0.056   6.654 -0.3732 -1.2139  1.0212
  950MOL0     H31098   0.928   0.056   6.946  0.9232  1.2100 -0.2107
  950MOL0     H31099   0.921  -0.035   6.796 -1.8254  0.7292  0.3377
  950MOL0     H31100   0.985  -0.117   6.937 -1.7005 -0.1328 -2.3897
  951MOL0     O31101   5.924   2.562   7.755  0.9844  0.1061  0.0505
  951MOL0     C31102   5.906   2.618   7.866 -0.4911  0.1225  0.1820
  951MOL0     O31103   5.829   2.734   7.882  0.0986  0.2616 -0.1964
  951MOL0     C31104   5.765   2.790   7.772  0.0040  0.0641 -0.4517
  951MOL0     C31105   5.844   2.864   7.684 -0.4735  0.6518 -0.2611
  951MOL0     C31106   5.789   2.922   7.564  0.2199  0.2026 -1.8361
  951MOL0     C31107   5.655   2.901   7.535  0.6975  0.2958 -0.5817
  951MOL0     O31108   5.615   2.952   7.421  0.3781 -0.0270  0.1745
  951MOL0     C31109   5.469   2.967   7.398  0.1541  0.6964 -0.5821
  951MOL0     C31110   5.443   3.007   7.252  0.5487  0.2437 -0.5615
  951MOL0     C31111   5.498   3.151   7.234  0.7017  0.0105  0.6061
  951MOL0     C31112   5.468   3.220   7.105 -0.3874  0.1392 -0.0274
  951MOL0     C31113   5.500   3.370   7.101 -0.0098  0.3062 -0.0952
  951MOL0     C31114   5.525   3.420   6.963  0.6047 -0.7106  0.0489
  951MOL0     C31115   5.588   3.567   6.963 -0.7598  0.3132 -0.6494
  951MOL0     C31116   5.487   3.681   7.003 -0.6499 -0.1766 -0.4839
  951MOL0     N31117   5.386   3.721   6.910  0.3747  0.2140 -0.3472
  951MOL0     C31118   5.253   3.687   6.920  0.6715 -0.1686  0.4009
  951MOL0     C31119   5.198   3.723   6.803 -0.5990  0.7404 -0.6246
  951MOL0     C31120   5.063   3.705   6.749 -0.0532  0.4847  0.0589
  951MOL0     C31121   4.959   3.808   6.796 -0.1354 -0.4564 -0.4596
  951MOL0     C31122   4.928   3.814   6.949  0.1687  0.1565  1.5581
  951MOL0     C31123   4.778   3.805   6.974 -1.1013 -0.3531  0.2262
  951MOL0     O31124   4.742   3.669   6.950 -0.4448  0.5996 -0.1517
  951MOL0     C31125   4.618   3.629   6.975 -0.3405 -0.0186  0.7322
  951MOL0     C31126   4.500   3.704   6.937 -0.0980 -0.6431  0.2007
  951MOL0     C31127   4.364   3.663   6.963  1.0555 -0.7939 -0.6064
  951MOL0     C31128   4.252   3.750   6.930 -0.3129  0.0919 -0.3288
  951MOL0     C31129   4.351   3.540   7.031 -0.4160 -0.2316  0.2648
  951MOL0     C31130   4.214   3.492   7.079  0.3118  0.1887 -0.3089
  951MOL0     O31131   4.217   3.379   7.160  0.1932  0.1564  0.3036
  951MOL0     C31132   4.104   3.341   7.220 -0.2434 -0.5742 -0.1623
  951MOL0     C31133   4.012   3.435   7.281  0.1629  0.8105  0.1145
  951MOL0     C31134   3.905   3.377   7.346 -0.0804  0.3546  0.2628
  951MOL0     C31135   3.884   3.237   7.362  0.2985  0.5324  0.5699
  951MOL0     O31136   3.769   3.192   7.420  0.6788  0.0011 -0.1303
  951MOL0     C31137   3.741   3.052   7.436  0.4542 -0.3641 -0.1197
  951MOL0     C31138   3.635   3.044   7.539  0.7118  0.4767 -0.5121
  951MOL0     C31139   3.695   3.063   7.674  0.6576 -0.0198 -0.3679
  951MOL0     C31140   3.582   3.084   7.783 -0.0839 -0.0567  1.1402
  951MOL0     C31141   3.645   3.103   7.914  0.0172  0.8792 -0.3059
  951MOL0     C31142   3.685   2.965   7.972 -0.9067 -0.7176 -0.4211
  951MOL0     C31143   3.733   2.974   8.117 -0.5652 -0.1237  0.3268
  951MOL0     C31144   3.620   3.001   8.215  0.3189  0.4190 -1.0094
  951MOL0    Cl31145   3.532   2.840   8.233  0.2360 -0.2005  0.4812
  951MOL0     C31146   3.974   3.151   7.299  0.3718  0.1350  0.3412
  951MOL0     C31147   4.086   3.203   7.222  0.9641  0.9412 -0.8267
  951MOL0     O31148   4.109   3.556   7.046 -0.5916  0.0660  0.6423
  951MOL0     C31149   4.465   3.467   7.062 -0.1973  0.1852 -0.6638
  951MOL0     C31150   4.597   3.499   7.029 -0.7907 -0.1617 -0.6073
  951MOL0     N31151   5.303   3.771   6.726 -0.0099  0.5604  0.2542
  951MOL0     N31152   5.411   3.764   6.789  0.0566 -0.6576  0.3670
  951MOL0     C31153   5.577   2.832   7.625  0.0150  0.2276  0.2334
  951MOL0     C31154   5.632   2.774   7.740 -0.4589  0.0635  0.0891
  951MOL0     C31155   5.982   2.554   7.972  0.8373  0.0355 -0.4519
  951MOL0     C31156   6.066   2.443   7.955  0.8164 -0.5451  0.2817
  951MOL0     C31157   6.155   2.406   8.053 -0.5261 -0.1164 -1.3360
  951MOL0     C31158   6.132   2.445   8.180 -0.1994 -0.2501  0.6514
  951MOL0     O31159   6.212   2.397   8.278  0.3422  0.1431 -0.0641
  951MOL0     C31160   6.345   2.340   8.265 -0.6031  0.0803  0.1583
  951MOL0     C31161   6.348   2.185   8.251  0.1597  0.0065  0.6055
  951MOL0     C31162   6.480   2.148   8.191 -0.3542 -0.7023  1.1635
  951MOL0     C31163   6.599   2.167   8.290  0.7293  0.6223  0.1826
  951MOL0     C31164   6.672   2.295   8.271 -0.0682  0.2793  0.0585
  951MOL0     C31165   6.737   2.401   8.263  0.9210 -0.3283  0.8840
  951MOL0     C31166   6.043   2.547   8.206 -0.1842  0.3214 -0.2908
  951MOL0     C31167   5.972   2.605   8.107  0.4271 -0.0355  0.1363
  951MOL0     C31168   5.889   2.725   8.148 -0.7335 -0.4112  0.2294
  951MOL0     H31169   5.952   2.861   7.694 -0.6261  1.1583  2.0037
  951MOL0     H31170   5.844   2.983   7.493  1.2433  2.0030  0.3599
  951MOL0     H31171   5.417   3.035   7.465  0.5170  1.0852 -0.6934
  951MOL0     H31172   5.420   2.869   7.401  1.9995 -0.2590  0.2637
  951MOL0     H31173   5.479   2.926   7.187 -0.4408 -1.2945  0.7286
  951MOL0     H31174   5.336   3.018   7.237  0.2616 -0.7331  0.6390
  951MOL0     H31175   5.463   3.226   7.306  1.8661  2.5045 -1.2962
  951MOL0     H31176   5.604   3.142   7.260  1.1628 -1.6487 -1.5564
  951MOL0     H31177   5.506   3.157   7.024 -2.7041 -0.9837 -0.3568
  951MOL0     H31178   5.360   3.222   7.086 -0.1943 -0.6429 -1.3943
  951MOL0     H31179   5.590   3.377   7.163  0.6232  0.4577 -1.0071
  951MOL0     H31180   5.420   3.422   7.154  0.5869 -0.6322  1.7998
  951MOL0     H31181   5.601   3.362   6.910  1.3627  0.7041 -0.4606
  951MOL0     H31182   5.442   3.430   6.893  0.5689  1.9110  0.3692
  951MOL0     H31183   5.617   3.587   6.859 -2.7594  1.1879 -1.0970
  951MOL0     H31184   5.679   3.567   7.022 -2.3286 -0.5405  1.9218
  951MOL0     H31185   5.437   3.650   7.096 -1.5374  0.0589 -0.8733
  951MOL0     H31186   5.547   3.773   7.006 -3.4866  1.7920  0.5986
  951MOL0     H31187   5.195   3.627   6.989 -1.4357 -0.1399 -1.2406
  951MOL0     H31188   5.029   3.608   6.787 -2.5423  1.2922  0.1013
  951MOL0     H31189   5.073   3.707   6.640  2.6888  3.3583  0.2184
  951MOL0     H31190   5.000   3.907   6.773 -1.5431  0.3118  0.2321
  951MOL0     H31191   4.864   3.795   6.744  0.6314 -0.0915 -2.0293
  951MOL0     H31192   4.976   3.734   7.006  0.3372  0.1002  1.3406
  951MOL0     H31193   4.969   3.909   6.985 -1.4028  1.6906 -0.5028
  951MOL0     H31194   4.772   3.827   7.081  1.0829  4.0902 -0.3406
  951MOL0     H31195   4.718   3.874   6.914  0.6644  0.5462 -0.5872
  951MOL0     H31196   4.512   3.803   6.896  1.4620 -0.8061  0.1978
  951MOL0     H31197   4.182   3.702   6.861  1.1995 -0.3280 -1.6232
  951MOL0     H31198   4.287   3.846   6.893  2.6360  0.1965  2.3703
  951MOL0     H31199   4.202   3.777   7.023  0.3672 -0.3394  0.1702
  951MOL0     H31200   4.012   3.543   7.275 -0.1560  0.9115  1.5530
  951MOL0     H31201   3.827   3.447   7.377  0.5906  1.1521  0.1913
  951MOL0     H31202   3.712   3.022   7.335  3.2605 -0.1434 -1.0857
  951MOL0     H31203   3.828   2.993   7.466 -1.9490 -2.7063  2.8042
  951MOL0     H31204   3.552   3.114   7.526 -0.5792 -0.4798  1.8344
  951MOL0     H31205   3.589   2.945   7.529  1.9890  0.0135 -2.1755
  951MOL0     H31206   3.757   3.153   7.670  1.4573 -0.5445  0.1131
  951MOL0     H31207   3.755   2.978   7.706 -1.9456 -0.9843  2.4670
  951MOL0     H31208   3.508   3.003   7.786  1.8431 -2.0479 -0.9858
  951MOL0     H31209   3.537   3.180   7.755  0.2514 -0.1400  0.2807
  951MOL0     H31210   3.723   3.180   7.906  1.9088 -0.9684 -0.5186
  951MOL0     H31211   3.565   3.152   7.970 -0.7062 -0.1770 -0.3894
  951MOL0     H31212   3.768   2.924   7.913 -1.5238 -0.1538 -1.7023
  951MOL0     H31213   3.595   2.904   7.961 -0.7567 -0.8899 -0.7238
  951MOL0     H31214   3.800   3.060   8.126 -1.4815  1.3738 -4.4356
  951MOL0     H31215   3.791   2.887   8.150  2.4056  1.5451 -0.1375
  951MOL0     H31216   3.548   3.078   8.186  0.6488  1.0058 -0.3157
  951MOL0     H31217   3.658   3.036   8.311 -1.1595 -2.8486  0.9519
  951MOL0     H31218   3.972   3.043   7.302  0.8600  0.1437  1.1572
  951MOL0     H31219   4.159   3.142   7.169  0.0461 -1.6276  0.7266
  951MOL0     H31220   4.458   3.372   7.115  0.3236 -0.9364 -2.4932
  951MOL0     H31221   4.675   3.425   7.045  0.2705  0.7894 -1.1921
  951MOL0     H31222   5.471   2.816   7.613  0.0668 -1.1668  1.4235
  951MOL0     H31223   5.568   2.719   7.808  2.0600 -1.6969  1.1958
  951MOL0     H31224   6.102   2.399   7.862 -1.8778  1.2198 -1.7422
  951MOL0     H31225   6.218   2.323   8.022 -0.8640 -1.8220  2.1481
  951MOL0     H31226   6.401   2.384   8.181  0.5271 -2.2892 -0.4000
  951MOL0     H31227   6.398   2.358   8.359 -1.8321 -2.5429  1.4620
  951MOL0     H31228   6.273   2.162   8.176 -2.1041  2.8388  1.8264
  951MOL0     H31229   6.334   2.127   8.343  0.5816 -1.4257 -0.1945
  951MOL0     H31230   6.465   2.042   8.168 -2.4470 -0.5004  1.3919
  951MOL0     H31231   6.502   2.202   8.098 -0.8839 -1.0506  0.8278
  951MOL0     H31232   6.682   2.097   8.279  1.0604  0.9582  0.5035
  951MOL0     H31233   6.560   2.167   8.392  1.4297  0.5717  0.4550
  951MOL0     H31234   6.761   2.505   8.260  1.3956 -0.4181 -2.6140
  951MOL0     H31235   6.034   2.587   8.306 -2.2280  0.9799 -0.7095
  951MOL0     H31236   5.786   2.713   8.113 -0.6801 -2.0641  0.5649
  951MOL0     H31237   5.897   2.758   8.252  0.6817 -0.7350  0.2299
  951MOL0     H31238   5.928   2.809   8.092 -0.4132 -0.9071 -0.2939
  952MOL0     O31239   3.510   6.769   6.444 -0.2737  0.0330 -0.5502
  952MOL0     C31240   3.428   6.680   6.439  0.3430  0.1613  0.1388
  952MOL0     O31241   3.294   6.694   6.427  0.2294 -0.7191 -0.1722
  952MOL0     C31242   3.244   6.813   6.407  0.3243 -0.3593 -0.8349
  952MOL0     C31243   3.293   6.918   6.325  0.2649  0.0628 -0.4680
  952MOL0     C31244   3.214   7.036   6.316  0.9282  0.5340  0.4390
  952MOL0     C31245   3.092   7.051   6.391  0.2563 -0.4626  0.0378
  952MOL0     O31246   3.024   7.171   6.405  0.3124 -0.4237 -0.5014
  952MOL0     C31247   3.017   7.252   6.286  0.0962 -0.0287  0.1879
  952MOL0     C31248   2.930   7.379   6.309 -0.3993 -0.1638  0.3093
  952MOL0     C31249   2.944   7.469   6.194  0.2948 -0.1909  0.3597
  952MOL0     C31250   2.867   7.609   6.222  0.7187 -0.0188 -0.6593
  952MOL0     C31251   2.955   7.721   6.287  0.3069 -0.1572  0.0952
  952MOL0     C31252   3.064   7.789   6.208  0.3415 -0.0014 -0.3819
  952MOL0     C31253   3.136   7.885   6.303  1.0524 -0.1454  0.3526
  952MOL0     C31254   3.253   7.950   6.233 -0.6879 -0.2932  0.2621
  952MOL0     N31255   3.354   8.022   6.321 -0.5717  0.2727 -0.0257
  952MOL0     C31256   3.339   8.156   6.361 -0.2876 -0.4629  0.1007
  952MOL0     C31257   3.456   8.184   6.421  0.0380 -0.1508 -0.5104
  952MOL0     C31258   3.503   8.323   6.478  0.3737  0.1918  1.1702
  952MOL0     C31259   3.616   8.382   6.386  0.6136  0.3756 -0.4032
  952MOL0     C31260   3.538   8.402   6.257  0.0537  0.3579  1.4324
  952MOL0     C31261   3.633   8.477   6.159 -0.5724 -0.3539  0.1546
  952MOL0     O31262   3.648   8.621   6.186  0.7714  0.7757 -0.7129
  952MOL0     C31263   3.731   8.703   6.120 -0.7624 -0.2184 -0.8679
  952MOL0     C31264   3.805   8.657   6.018 -0.1401  0.4644  0.1125
  952MOL0     C31265   3.887   8.734   5.938  0.7854 -0.3333 -0.0961
  952MOL0     C31266   3.953   8.673   5.822  0.4509  1.0092 -0.5588
  952MOL0     C31267   3.903   8.873   5.979 -0.3273 -0.4497 -0.8465
  952MOL0     C31268   3.984   8.974   5.909  0.3665  0.7566 -0.4739
  952MOL0     O31269   3.934   9.103   5.904 -0.2636  0.1931 -0.2461
  952MOL0     C31270   4.003   9.200   5.830  0.6697 -0.4379  0.5501
  952MOL0     C31271   4.070   9.182   5.705  0.3157  1.0976 -0.2035
  952MOL0     C31272   4.144   9.280   5.646 -0.4803 -0.1474 -0.0373
  952MOL0     C31273   4.141   9.409   5.705 -0.6243 -0.1148  0.2852
  952MOL0     O31274   4.197   9.515   5.641 -0.1801 -0.9121  0.4391
  952MOL0     C31275   4.340   9.506   5.636 -0.7706 -0.0907  0.1013
  952MOL0     C31276   4.376   9.487   5.488 -0.0129  1.4722  1.2350
  952MOL0     C31277   4.349   9.615   5.407  0.6797 -0.0436 -0.6904
  952MOL0     C31278   4.362   9.584   5.256  0.4337  0.2718 -0.2518
  952MOL0     C31279   4.377   9.704   5.162  0.4489  0.6173 -0.5001
  952MOL0     C31280   4.344   9.661   5.016  0.6965  0.7932  0.6197
  952MOL0     C31281   4.389   9.756   4.911 -0.2637  0.2771  0.4621
  952MOL0     C31282   4.330   9.751   4.772 -0.1677 -0.1027  0.1696
  952MOL0    Cl31283   4.395   9.619   4.680  0.3926 -0.6820 -0.4363
  952MOL0     C31284   4.073   9.431   5.829  0.3607 -0.1241 -0.0970
  952MOL0     C31285   4.011   9.322   5.887  0.3916  0.7671 -0.2246
  952MOL0     O31286   4.095   8.937   5.864 -0.4250 -0.5700 -0.0934
  952MOL0     C31287   3.826   8.921   6.083  0.1365 -0.1757 -0.1938
  952MOL0     C31288   3.737   8.838   6.160 -1.4187 -0.3045  0.5499
  952MOL0     N31289   3.537   8.068   6.415 -0.3940 -0.2883 -0.9510
  952MOL0     N31290   3.478   7.971   6.347  0.1460 -0.4677  0.6821
  952MOL0     C31291   3.045   6.944   6.472  0.6485  0.5430  0.1549
  952MOL0     C31292   3.126   6.828   6.480 -0.4953  0.1609 -1.0546
  952MOL0     C31293   3.473   6.536   6.440 -0.7348  1.5348 -0.3262
  952MOL0     C31294   3.380   6.440   6.401 -0.8690  0.1982 -0.4230
  952MOL0     C31295   3.408   6.309   6.371  0.2077  0.7526  0.5950
  952MOL0     C31296   3.547   6.271   6.367  0.4763  0.6468  0.1333
  952MOL0     O31297   3.574   6.139   6.336 -0.4716 -0.0095  1.4746
  952MOL0     C31298   3.718   6.120   6.293  1.4343 -0.0388  0.3914
  952MOL0     C31299   3.733   5.971   6.252  0.2305  0.0515 -1.4741
  952MOL0     C31300   3.846   5.965   6.159 -0.6520  0.6410  0.2991
  952MOL0     C31301   3.895   5.825   6.107  0.3044  0.0314 -0.1977
  952MOL0     C31302   3.996   5.814   6.014 -0.5246  0.0312  0.7933
  952MOL0     C31303   4.082   5.791   5.930 -0.1248 -0.2084 -0.4179
  952MOL0     C31304   3.645   6.367   6.404  0.9146  0.3878  0.1588
  952MOL0     C31305   3.607   6.496   6.450  0.8353  0.4135 -0.4958
  952MOL0     C31306   3.725   6.587   6.483 -0.4893 -0.6454 -0.8135
  952MOL0     H31307   3.391   6.909   6.279  0.8717  0.2362  0.7437
  952MOL0     H31308   3.254   7.116   6.254 -0.5497 -1.8041 -3.9165
  952MOL0     H31309   2.975   7.181   6.214  1.7511  0.3762 -1.2430
  952MOL0     H31310   3.119   7.282   6.257  1.2441  0.5918  4.2552
  952MOL0     H31311   2.827   7.342   6.318 -0.5738  0.1057 -0.4692
  952MOL0     H31312   2.965   7.422   6.403  1.0045 -3.1741  1.2828
  952MOL0     H31313   3.046   7.491   6.160 -0.2053 -0.3375 -1.3092
  952MOL0     H31314   2.895   7.422   6.108 -0.0057  1.5249 -0.4555
  952MOL0     H31315   2.825   7.650   6.130 -2.0604  3.3082  1.8243
  952MOL0     H31316   2.777   7.591   6.282  0.6785  0.9966 -0.4040
  952MOL0     H31317   2.997   7.666   6.372 -1.4487  0.5594  1.5046
  952MOL0     H31318   2.891   7.797   6.334  1.1069  0.5626  0.0489
  952MOL0     H31319   3.141   7.714   6.187  2.1104  2.3489 -3.0744
  952MOL0     H31320   3.026   7.828   6.113 -1.8593 -3.3339 -1.0525
  952MOL0     H31321   3.175   7.822   6.383  0.0693 -1.1623  0.0677
  952MOL0     H31322   3.067   7.961   6.340  2.2880  1.7583 -1.0860
  952MOL0     H31323   3.313   7.867   6.195  1.3234 -0.3475  3.1668
  952MOL0     H31324   3.223   8.015   6.151 -1.8878  0.9772  1.6422
  952MOL0     H31325   3.251   8.219   6.360 -1.2425 -1.6933  1.7711
  952MOL0     H31326   3.543   8.307   6.578  1.7366 -2.4183  0.2931
  952MOL0     H31327   3.415   8.387   6.488  0.2110  0.3149 -0.6483
  952MOL0     H31328   3.658   8.476   6.425 -1.2946 -0.2855  3.7211
  952MOL0     H31329   3.697   8.311   6.367 -0.2595 -0.4587 -1.0877
  952MOL0     H31330   3.529   8.306   6.204  3.4418 -0.1282  1.4850
  952MOL0     H31331   3.444   8.457   6.262  1.1892  2.3920  1.6495
  952MOL0     H31332   3.725   8.419   6.165 -2.5108 -3.7398 -0.3859
  952MOL0     H31333   3.605   8.456   6.055 -0.7847 -1.9427  0.5043
  952MOL0     H31334   3.789   8.556   5.981  1.4634 -0.2116  1.1601
  952MOL0     H31335   3.926   8.568   5.816  3.7294 -0.2878  3.1527
  952MOL0     H31336   4.057   8.649   5.843  0.3146 -0.1040 -1.0686
  952MOL0     H31337   3.934   8.738   5.736  0.1815  0.8377 -0.6300
  952MOL0     H31338   4.055   9.089   5.650 -1.4241  2.4105 -2.1172
  952MOL0     H31339   4.196   9.268   5.551 -0.9434  1.6144 -0.5456
  952MOL0     H31340   4.388   9.601   5.660 -2.6729  1.4884 -1.8272
  952MOL0     H31341   4.391   9.435   5.701  1.2695  2.9938  2.1420
  952MOL0     H31342   4.483   9.466   5.484  0.0407  1.9341 -1.8071
  952MOL0     H31343   4.316   9.400   5.461  3.1551 -1.2232  2.1353
  952MOL0     H31344   4.421   9.693   5.433  1.6619 -1.2599  0.3846
  952MOL0     H31345   4.254   9.664   5.426  0.9576  0.6416 -1.0436
  952MOL0     H31346   4.269   9.530   5.233  0.6244  0.3028 -1.1404
  952MOL0     H31347   4.447   9.519   5.234  0.6808  0.9318 -1.3131
  952MOL0     H31348   4.304   9.780   5.190 -1.4593 -0.3329 -2.5636
  952MOL0     H31349   4.481   9.739   5.167  1.0652 -1.0013 -1.1341
  952MOL0     H31350   4.239   9.637   5.000  1.4530 -0.4527 -3.7092
  952MOL0     H31351   4.387   9.563   4.996 -3.6589 -1.3616  0.6693
  952MOL0     H31352   4.497   9.775   4.913 -0.8151  3.9553  0.7752
  952MOL0     H31353   4.353   9.854   4.944  2.2396  1.7531 -0.9037
  952MOL0     H31354   4.366   9.844   4.726  3.4899  0.1395  3.0144
  952MOL0     H31355   4.221   9.755   4.774 -0.2051  1.9859 -1.9318
  952MOL0     H31356   4.086   9.529   5.875  2.4054 -0.5516  0.3514
  952MOL0     H31357   3.966   9.352   5.981 -0.1571  0.1926 -0.2978
  952MOL0     H31358   3.843   9.023   6.117  2.2868 -0.4931 -0.1730
  952MOL0     H31359   3.686   8.870   6.250  0.6072  0.0964  1.5916
  952MOL0     H31360   2.950   6.949   6.524 -0.5744 -0.3525 -1.8524
  952MOL0     H31361   3.088   6.756   6.552 -1.7796  1.7337 -0.1145
  952MOL0     H31362   3.277   6.471   6.384 -0.8661 -0.4032 -1.6516
  952MOL0     H31363   3.337   6.238   6.330  1.7337 -0.8397  0.5828
  952MOL0     H31364   3.745   6.185   6.210  1.3439 -1.4880 -0.8115
  952MOL0     H31365   3.778   6.141   6.382 -0.5709 -0.3720  1.8950
  952MOL0     H31366   3.636   5.943   6.211  0.5268  0.2683 -2.3337
  952MOL0     H31367   3.755   5.912   6.342  0.5711  1.3372 -0.6745
  952MOL0     H31368   3.823   6.021   6.068 -0.1909 -2.6198 -2.0100
  952MOL0     H31369   3.932   6.025   6.192  0.2207  2.5263 -4.5156
  952MOL0     H31370   3.807   5.779   6.062 -0.0524  1.7809 -1.3906
  952MOL0     H31371   3.932   5.770   6.194  0.1322  1.6699  0.9582
  952MOL0     H31372   4.152   5.771   5.851 -0.2565 -0.0625 -0.5737
  952MOL0     H31373   3.753   6.351   6.406  0.9616 -0.3574 -2.8649
  952MOL0     H31374   3.687   6.636   6.573  2.2465  0.2789 -0.0709
  952MOL0     H31375   3.815   6.531   6.506  0.3202  0.6825 -0.6393
  952MOL0     H31376   3.753   6.658   6.404  1.2000  0.3061  0.5667
  953MOL0     O31377  10.070   5.821   5.387 -0.3533  0.1217  0.7037
  953MOL0     C31378   9.964   5.763   5.352 -0.1602  0.1895 -0.2039
  953MOL0     O31379   9.947   5.630   5.349  0.3562  0.5878  0.5024
  953MOL0     C31380  10.027   5.536   5.407  0.2183 -0.0894 -0.4317
  953MOL0     C31381  10.061   5.413   5.352  1.6666  0.6170 -0.5608
  953MOL0     C31382  10.168   5.325   5.395  0.1439  0.1363  0.1184
  953MOL0     C31383  10.240   5.361   5.505  0.4984 -0.0825 -0.7674
  953MOL0     O31384  10.335   5.297   5.577  0.1958 -0.1383 -0.1170
  953MOL0     C31385  10.419   5.204   5.498 -0.2725  0.5773 -0.0787
  953MOL0     C31386  10.391   5.048   5.525 -1.1491 -0.4273 -0.1955
  953MOL0     C31387  10.482   4.956   5.434  1.0392 -0.0720 -0.6597
  953MOL0     C31388  10.454   4.806   5.468 -0.4386  1.2527  0.0049
  953MOL0     C31389  10.541   4.710   5.385 -0.5129  0.4319  0.5485
  953MOL0     C31390  10.682   4.696   5.447  0.2740  0.1375  0.5620
  953MOL0     C31391  10.790   4.630   5.360  0.4632  0.0773 -0.2820
  953MOL0     C31392  10.874   4.726   5.274 -0.2410  0.3398 -0.9447
  953MOL0     N31393  10.794   4.807   5.179 -0.3848  0.5212  0.4356
  953MOL0     C31394  10.757   4.937   5.197 -0.8356 -0.0355  1.2511
  953MOL0     C31395  10.683   4.954   5.083  0.3506 -1.0375  0.1969
  953MOL0     C31396  10.593   5.072   5.041  0.3157  0.3921  0.4034
  953MOL0     C31397  10.597   5.188   5.140  0.4581  1.4594 -0.7596
  953MOL0     C31398  10.570   5.332   5.093 -0.5529 -0.0375  0.4653
  953MOL0     C31399  10.431   5.381   5.134  0.8365  0.6068 -0.2906
  953MOL0     O31400  10.325   5.299   5.078 -0.1903  0.0699  0.6132
  953MOL0     C31401  10.279   5.349   4.956 -0.3087  0.6726 -0.2266
  953MOL0     C31402  10.167   5.425   4.952  0.4519 -0.9049  0.3747
  953MOL0     C31403  10.115   5.480   4.841  0.8899  0.2776  0.4023
  953MOL0     C31404   9.982   5.554   4.849  0.1164 -0.1643  0.4575
  953MOL0     C31405  10.178   5.458   4.712 -0.1111 -0.6930 -1.6604
  953MOL0     C31406  10.131   5.504   4.574  0.3489 -0.9593  0.2854
  953MOL0     O31407  10.212   5.465   4.462 -0.4156 -0.0958  0.2921
  953MOL0     C31408  10.180   5.501   4.329  0.3269  0.5476 -0.5784
  953MOL0     C31409  10.248   5.422   4.233 -0.0417 -0.4718  0.0919
  953MOL0     C31410  10.234   5.445   4.096 -0.7019 -0.2495 -0.1971
  953MOL0     C31411  10.145   5.545   4.055 -0.2091 -0.6079 -0.4012
  953MOL0     O31412  10.132   5.570   3.923  0.4415  0.0143 -0.4711
  953MOL0     C31413  10.116   5.466   3.826 -0.1029  1.1478  0.4427
  953MOL0     C31414  10.248   5.455   3.742 -0.0886 -0.6091  0.4425
  953MOL0     C31415  10.236   5.374   3.622  0.5084  0.4594  0.6659
  953MOL0     C31416  10.365   5.354   3.544 -0.5308 -0.6767  0.5234
  953MOL0     C31417  10.413   5.477   3.466 -0.4942 -0.0472  0.3020
  953MOL0     C31418  10.347   5.483   3.326  0.3637 -0.0888 -0.8513
  953MOL0     C31419  10.403   5.592   3.238 -0.3145  0.6144  0.6609
  953MOL0     C31420  10.397   5.731   3.302  0.6543 -0.9491  0.2128
  953MOL0    Cl31421  10.424   5.864   3.174  0.5788 -0.0081 -0.3461
  953MOL0     C31422  10.072   5.623   4.138  0.7668  0.2412 -0.6529
  953MOL0     C31423  10.081   5.596   4.282 -0.2930 -0.4745 -0.2965
  953MOL0     O31424  10.024   5.552   4.567 -0.5793 -0.1727 -1.0799
  953MOL0     C31425  10.298   5.377   4.713 -0.1485  0.3694  0.0288
  953MOL0     C31426  10.341   5.319   4.833  0.6051  0.4669  0.6615
  953MOL0     N31427  10.695   4.851   4.992 -0.2079  0.8515 -0.4086
  953MOL0     N31428  10.754   4.762   5.055 -1.2232 -0.3191 -0.0247
  953MOL0     C31429  10.200   5.477   5.568  0.3785 -0.5083 -0.2017
  953MOL0     C31430  10.086   5.559   5.528  0.3079 -0.4118  0.1122
  953MOL0     C31431   9.852   5.838   5.265 -0.4061 -0.2588  0.5735
  953MOL0     C31432   9.747   5.764   5.211 -0.3865  0.3812 -0.1620
  953MOL0     C31433   9.643   5.815   5.132 -0.6654 -0.3896  0.2897
  953MOL0     C31434   9.645   5.952   5.101 -0.1017  0.4230  0.5134
  953MOL0     O31435   9.529   5.991   5.032 -0.2700  0.4861 -0.3638
  953MOL0     C31436   9.502   6.138   5.027  0.1874 -0.2246 -0.8514
  953MOL0     C31437   9.466   6.198   5.163 -0.0452  0.2242 -0.2897
  953MOL0     C31438   9.347   6.126   5.232 -0.0729  0.0783 -0.2391
  953MOL0     C31439   9.218   6.158   5.161  0.0555  0.3467 -0.5432
  953MOL0     C31440   9.108   6.099   5.233  1.1794 -0.6327  0.4900
  953MOL0     C31441   9.008   6.069   5.295  0.2946 -0.6434  0.0305
  953MOL0     C31442   9.754   6.033   5.146  0.1412  0.3199  0.4439
  953MOL0     C31443   9.854   5.976   5.222 -0.2519 -0.4881 -0.0775
  953MOL0     C31444   9.967   6.073   5.250  0.0420  0.3620  0.5909
  953MOL0     H31445  10.007   5.387   5.261 -0.7509  2.8118  0.1530
  953MOL0     H31446  10.191   5.232   5.344 -2.1024 -1.1434  1.2661
  953MOL0     H31447  10.525   5.226   5.514  0.1236 -1.2207  0.0792
  953MOL0     H31448  10.412   5.219   5.390  2.8856 -0.0110 -0.4833
  953MOL0     H31449  10.418   5.041   5.631 -1.2197  1.0548 -0.0597
  953MOL0     H31450  10.289   5.022   5.498 -1.1754  1.0289 -1.6782
  953MOL0     H31451  10.445   4.977   5.333  3.3541  0.0605 -1.5571
  953MOL0     H31452  10.588   4.984   5.432  1.2364 -0.3454 -5.0194
  953MOL0     H31453  10.474   4.786   5.573  1.6462  1.4698 -0.3082
  953MOL0     H31454  10.349   4.777   5.454 -0.0789  0.3199 -0.8793
  953MOL0     H31455  10.558   4.757   5.288 -1.3257  2.1578  1.1984
  953MOL0     H31456  10.484   4.619   5.365 -0.5059  0.2562  1.2908
  953MOL0     H31457  10.714   4.798   5.472 -1.6217  0.6523  1.0110
  953MOL0     H31458  10.668   4.625   5.528 -4.7740 -2.9223 -2.4999
  953MOL0     H31459  10.744   4.551   5.299 -4.7690  1.0812  1.8129
  953MOL0     H31460  10.862   4.578   5.423  1.1056  0.6412 -0.5386
  953MOL0     H31461  10.934   4.796   5.332 -0.8024  0.0573  0.0041
  953MOL0     H31462  10.940   4.659   5.219  2.1572  1.5202  0.3251
  953MOL0     H31463  10.766   5.013   5.273 -5.0150  1.5329  0.4525
  953MOL0     H31464  10.496   5.022   5.034  0.8620 -0.4945 -1.5972
  953MOL0     H31465  10.614   5.123   4.947 -1.8515 -0.4705 -0.5954
  953MOL0     H31466  10.554   5.172   5.239  6.9627  3.7943  3.0815
  953MOL0     H31467  10.701   5.199   5.171  0.0153  0.4092  1.2883
  953MOL0     H31468  10.646   5.391   5.147 -0.3230 -1.2885  1.5745
  953MOL0     H31469  10.589   5.351   4.987 -1.4877 -2.7180 -0.2405
  953MOL0     H31470  10.418   5.359   5.241  3.4539 -4.2375 -0.6902
  953MOL0     H31471  10.438   5.489   5.117  0.2389  1.1669  2.4584
  953MOL0     H31472  10.119   5.448   5.047  1.6632 -1.2975  1.1100
  953MOL0     H31473   9.902   5.510   4.790  0.6855  0.5562 -0.8948
  953MOL0     H31474  10.008   5.657   4.822 -0.5763 -0.6761 -2.4706
  953MOL0     H31475   9.939   5.577   4.947  0.1954  3.4717 -0.1988
  953MOL0     H31476  10.310   5.339   4.267 -1.6296 -2.2559 -1.1856
  953MOL0     H31477  10.296   5.390   4.026 -1.2059  0.9101 -1.6055
  953MOL0     H31478  10.088   5.372   3.874 -2.7867  0.3237 -2.4336
  953MOL0     H31479  10.032   5.494   3.761 -0.8704 -0.9782  0.4496
  953MOL0     H31480  10.287   5.554   3.716 -1.7567 -0.4917 -1.8598
  953MOL0     H31481  10.329   5.418   3.807  0.3834  2.3620  1.7097
  953MOL0     H31482  10.160   5.412   3.553 -0.3781 -3.0218 -0.4943
  953MOL0     H31483  10.187   5.282   3.657 -2.1293  1.2006 -0.8114
  953MOL0     H31484  10.352   5.272   3.473  0.2304  0.5546 -1.1075
  953MOL0     H31485  10.450   5.335   3.611 -0.3466 -2.7774 -0.2356
  953MOL0     H31486  10.385   5.570   3.517  1.6781  0.1477  1.2506
  953MOL0     H31487  10.522   5.478   3.456 -0.3698  2.2095  1.2702
  953MOL0     H31488  10.243   5.507   3.349  1.1108  4.2041 -1.1941
  953MOL0     H31489  10.362   5.384   3.283 -0.6643 -0.8235  0.4009
  953MOL0     H31490  10.362   5.607   3.138 -1.0200 -1.1821  0.6413
  953MOL0     H31491  10.509   5.566   3.232 -1.0145 -2.3870 -0.2939
  953MOL0     H31492  10.464   5.745   3.387  0.7073 -1.9461  0.3535
  953MOL0     H31493  10.300   5.759   3.342  1.3655  0.5834  0.9363
  953MOL0     H31494  10.008   5.702   4.101 -0.7321 -0.0371  1.2138
  953MOL0     H31495  10.029   5.652   4.358 -1.5967 -1.6760 -0.2514
  953MOL0     H31496  10.359   5.358   4.625  0.1038 -4.5293  0.9747
  953MOL0     H31497  10.428   5.255   4.829 -0.3886 -0.9276 -3.3528
  953MOL0     H31498  10.258   5.509   5.654  0.9920  1.6774 -1.3441
  953MOL0     H31499  10.070   5.658   5.569  0.2359  0.0115 -0.9160
  953MOL0     H31500   9.732   5.657   5.224 -0.9671  0.5114  0.2698
  953MOL0     H31501   9.562   5.760   5.086 -0.0235 -0.6338 -0.5604
  953MOL0     H31502   9.585   6.188   4.977  0.4093 -1.1192 -1.4076
  953MOL0     H31503   9.418   6.163   4.960 -2.1739 -0.3453  1.8819
  953MOL0     H31504   9.455   6.307   5.158  0.8894  0.3211 -0.4830
  953MOL0     H31505   9.552   6.183   5.230 -0.5444 -1.2398  0.0472
  953MOL0     H31506   9.357   6.020   5.254 -2.1953 -0.1149 -0.0657
  953MOL0     H31507   9.346   6.165   5.335  3.5370 -1.8147  0.6880
  953MOL0     H31508   9.213   6.115   5.060  1.0435  0.7547 -0.7720
  953MOL0     H31509   9.191   6.264   5.159 -0.2963  0.3321  1.4139
  953MOL0     H31510   8.918   6.044   5.347 -0.1136  0.9281  0.1494
  953MOL0     H31511   9.753   6.135   5.111 -2.0946  0.8216  1.7199
  953MOL0     H31512   9.979   6.157   5.181  2.3502  0.4481  1.0113
  953MOL0     H31513   9.942   6.122   5.345 -1.3449  2.3362 -0.7114
  953MOL0     H31514  10.064   6.024   5.254  0.5150  1.2673  0.4196
  954MOL0     O31515   3.910   5.981   9.038  0.2339  0.2570  0.4518
  954MOL0     C31516   3.920   5.882   8.970  0.1072  0.2932 -0.0740
  954MOL0     O31517   3.995   5.864   8.860 -0.2829  0.0469 -0.0833
  954MOL0     C31518   4.040   5.980   8.808 -0.7777  0.6003  0.7712
  954MOL0     C31519   4.152   6.040   8.868 -0.7440 -0.6895 -0.5378
  954MOL0     C31520   4.186   6.165   8.821  0.4745  0.3749  0.3854
  954MOL0     C31521   4.125   6.223   8.700  0.5528 -1.1927 -1.1066
  954MOL0     O31522   4.171   6.337   8.634 -0.9869 -0.6445 -0.5219
  954MOL0     C31523   4.280   6.424   8.693 -0.1202  0.0341  0.2597
  954MOL0     C31524   4.384   6.459   8.593  0.0766  0.2843 -0.0894
  954MOL0     C31525   4.437   6.329   8.536  0.2877 -0.3467 -0.2054
  954MOL0     C31526   4.567   6.357   8.453 -0.1081 -0.0352  0.9926
  954MOL0     C31527   4.609   6.240   8.372 -0.0933  0.0249  0.6644
  954MOL0     C31528   4.731   6.269   8.283  0.1312 -0.3872  1.1690
  954MOL0     C31529   4.773   6.140   8.211  0.4824  0.2526 -0.4063
  954MOL0     C31530   4.832   6.027   8.295 -0.4635  0.1428 -0.5571
  954MOL0     N31531   4.868   5.907   8.220 -0.1521 -0.4752  0.0053
  954MOL0     C31532   4.808   5.783   8.230 -0.0803  0.4952 -0.4280
  954MOL0     C31533   4.873   5.712   8.139 -0.4659 -0.2063 -0.4568
  954MOL0     C31534   4.835   5.569   8.097  0.0200 -0.3150 -0.3262
  954MOL0     C31535   4.962   5.492   8.057  0.1826 -0.0897  0.1355
  954MOL0     C31536   5.011   5.514   7.918 -0.1687  0.7572  0.0416
  954MOL0     C31537   5.137   5.425   7.888 -0.1845  0.3886  0.5338
  954MOL0     O31538   5.132   5.421   7.746  0.3340 -0.1571 -0.5556
  954MOL0     C31539   5.140   5.298   7.684 -1.4408  0.6483 -0.0378
  954MOL0     C31540   5.037   5.204   7.712  0.5170 -0.3266  0.8979
  954MOL0     C31541   5.045   5.075   7.654  0.3427 -1.1314  0.8892
  954MOL0     C31542   4.925   4.988   7.690  0.2358 -0.5205 -0.5329
  954MOL0     C31543   5.156   5.036   7.572  0.1480 -0.3695 -0.9039
  954MOL0     C31544   5.184   4.900   7.523 -0.0095 -0.7142 -0.3864
  954MOL0     O31545   5.289   4.882   7.440  0.2392 -0.1960  0.2421
  954MOL0     C31546   5.334   4.756   7.417  0.1842 -0.0933 -0.3247
  954MOL0     C31547   5.373   4.670   7.520  0.1670 -0.5029  0.9714
  954MOL0     C31548   5.409   4.542   7.479  0.5908 -1.4468 -0.2190
  954MOL0     C31549   5.440   4.504   7.343 -0.1519 -0.5420  0.1504
  954MOL0     O31550   5.476   4.374   7.318  0.4136  0.4390  1.0318
  954MOL0     C31551   5.578   4.362   7.215 -0.2062  0.1510  0.8308
  954MOL0     C31552   5.647   4.228   7.240 -0.3870 -0.7576  1.0864
  954MOL0     C31553   5.728   4.163   7.131  0.3379  0.9566 -0.2777
  954MOL0     C31554   5.813   4.030   7.170  0.3792 -0.3096 -0.0139
  954MOL0     C31555   5.861   3.967   7.043 -0.6352  0.1215 -0.1272
  954MOL0     C31556   5.882   3.820   7.077  1.1071  0.0991  0.5347
  954MOL0     C31557   5.970   3.754   6.980 -0.4553  0.3492  0.7299
  954MOL0     C31558   5.989   3.606   7.001 -0.7875  0.0299 -1.1344
  954MOL0    Cl31559   6.130   3.523   6.914 -0.4759 -0.0784 -0.2828
  954MOL0     C31560   5.405   4.595   7.252  1.5216  0.3152  0.0318
  954MOL0     C31561   5.345   4.716   7.285 -0.9865 -0.4197  0.8589
  954MOL0     O31562   5.122   4.812   7.575  0.4402 -0.2584 -0.5632
  954MOL0     C31563   5.254   5.136   7.546  0.0423 -0.0045  0.1892
  954MOL0     C31564   5.246   5.263   7.594  0.5154 -0.3789 -0.2406
  954MOL0     N31565   4.972   5.785   8.080 -0.4182  0.4496 -0.0162
  954MOL0     N31566   4.958   5.902   8.123  0.0105 -0.0689  0.4938
  954MOL0     C31567   4.015   6.160   8.644  0.4203  0.1822  0.0731
  954MOL0     C31568   3.975   6.035   8.699 -0.3435 -0.3699  0.3076
  954MOL0     C31569   3.859   5.757   9.022 -0.8024 -0.2799 -0.1130
  954MOL0     C31570   3.935   5.669   9.100  1.0033 -1.1068  0.2906
  954MOL0     C31571   3.875   5.559   9.162  0.3434 -0.0332 -0.5953
  954MOL0     C31572   3.742   5.532   9.136  0.3675  0.2846  0.2578
  954MOL0     O31573   3.681   5.420   9.187  0.1793  0.1284  0.3516
  954MOL0     C31574   3.749   5.323   9.255  0.2132 -0.6704  0.1215
  954MOL0     C31575   3.656   5.196   9.286  0.2684  0.2401 -0.3516
  954MOL0     C31576   3.544   5.218   9.394  0.4675  0.0694 -0.3096
  954MOL0     C31577   3.431   5.110   9.395  0.4727  0.0948 -0.2070
  954MOL0     C31578   3.489   4.983   9.450  0.8511 -0.6525  0.7790
  954MOL0     C31579   3.535   4.877   9.490  0.3857 -0.1487 -0.1102
  954MOL0     C31580   3.669   5.617   9.053  0.7507  0.8515 -0.3223
  954MOL0     C31581   3.723   5.735   9.002  0.0346  0.3972 -0.2818
  954MOL0     C31582   3.635   5.829   8.927  0.0640 -0.1399 -0.3598
  954MOL0     H31583   4.214   5.997   8.946  3.0120  0.7857 -2.4302
  954MOL0     H31584   4.259   6.221   8.878 -1.5841  1.6224  1.9442
  954MOL0     H31585   4.326   6.381   8.783 -1.3333 -1.0409  0.3939
  954MOL0     H31586   4.229   6.519   8.711  2.5255  1.6239 -0.0324
  954MOL0     H31587   4.339   6.516   8.512  2.1074 -0.2167 -1.6480
  954MOL0     H31588   4.467   6.518   8.632 -0.7544  0.5312  1.3831
  954MOL0     H31589   4.453   6.253   8.613 -2.4634 -0.6310  0.1716
  954MOL0     H31590   4.364   6.297   8.461 -1.7492  2.0266  0.6386
  954MOL0     H31591   4.559   6.444   8.387  4.1105  0.9813  1.5669
  954MOL0     H31592   4.636   6.382   8.534 -0.3559  1.2673  0.8266
  954MOL0     H31593   4.522   6.220   8.308  1.0004  2.0476 -1.6321
  954MOL0     H31594   4.632   6.150   8.429  2.8150 -0.2306 -0.7108
  954MOL0     H31595   4.702   6.334   8.200  2.5626 -0.3587  0.2489
  954MOL0     H31596   4.811   6.317   8.341 -1.5842  2.6232  1.2551
  954MOL0     H31597   4.843   6.174   8.134 -0.2352  1.3587 -0.5844
  954MOL0     H31598   4.681   6.098   8.168  2.3536 -2.3406 -2.1865
  954MOL0     H31599   4.922   6.064   8.344 -0.4200  0.2357 -0.7080
  954MOL0     H31600   4.755   5.987   8.363 -1.8692 -4.3641 -4.2298
  954MOL0     H31601   4.736   5.743   8.301  0.7116 -0.8957 -0.3740
  954MOL0     H31602   4.772   5.566   8.008  1.7501  0.0654 -1.6267
  954MOL0     H31603   4.787   5.526   8.185  1.7124 -0.9457  0.3335
  954MOL0     H31604   5.040   5.517   8.129  2.8871 -3.1184 -1.4636
  954MOL0     H31605   4.946   5.385   8.073  1.1518 -0.5327 -1.5949
  954MOL0     H31606   4.927   5.489   7.851 -0.9706 -3.3621  2.2422
  954MOL0     H31607   5.039   5.619   7.907 -4.5512  2.1547  0.1974
  954MOL0     H31608   5.225   5.477   7.927 -0.1122 -0.3761  1.4175
  954MOL0     H31609   5.144   5.325   7.931  1.9813 -0.8527 -2.3352
  954MOL0     H31610   4.956   5.248   7.770  1.6407  2.0341  0.7736
  954MOL0     H31611   4.889   4.994   7.793 -3.0413  1.9770 -1.6288
  954MOL0     H31612   4.943   4.881   7.673 -0.3129 -1.1522  2.3336
  954MOL0     H31613   4.844   5.011   7.620  0.4444 -2.0718 -1.3350
  954MOL0     H31614   5.358   4.697   7.624 -0.9811  1.2709  0.3832
  954MOL0     H31615   5.429   4.458   7.546  2.3713 -2.1900 -1.6010
  954MOL0     H31616   5.535   4.367   7.114  0.9365  0.7615  0.3572
  954MOL0     H31617   5.654   4.441   7.221 -2.2517  2.2090  1.4037
  954MOL0     H31618   5.699   4.255   7.332  0.9153 -0.1454  0.2080
  954MOL0     H31619   5.571   4.158   7.277 -0.6860 -1.1699 -0.2542
  954MOL0     H31620   5.795   4.222   7.068  4.1265 -2.9875 -0.4144
  954MOL0     H31621   5.651   4.124   7.064  0.3429  2.0642 -0.9447
  954MOL0     H31622   5.746   3.963   7.224 -2.2235 -1.2572 -4.0156
  954MOL0     H31623   5.899   4.064   7.229  1.1851 -1.6703 -0.3631
  954MOL0     H31624   5.786   3.980   6.965 -1.3333  4.3616  1.0038
  954MOL0     H31625   5.954   4.013   7.009 -0.4027  0.3658  0.7990
  954MOL0     H31626   5.784   3.771   7.078  0.7392  0.7928 -0.1938
  954MOL0     H31627   5.913   3.801   7.180 -1.2520  1.1403  1.5135
  954MOL0     H31628   6.065   3.807   6.971 -1.2640  1.6946 -0.3464
  954MOL0     H31629   5.932   3.769   6.879 -0.3287 -0.0887  0.6174
  954MOL0     H31630   5.897   3.553   6.974  1.0205 -2.5385 -2.6878
  954MOL0     H31631   5.984   3.592   7.110 -2.1655 -0.8541 -1.2751
  954MOL0     H31632   5.402   4.571   7.146 -3.7373 -1.1067  0.2570
  954MOL0     H31633   5.314   4.792   7.215  1.2980  0.4599  0.7077
  954MOL0     H31634   5.338   5.111   7.483  0.5605 -0.8834  1.1947
  954MOL0     H31635   5.318   5.341   7.572 -1.4102  1.2150 -1.2194
  954MOL0     H31636   3.969   6.190   8.551  2.7228 -2.2842 -1.9914
  954MOL0     H31637   3.890   5.990   8.649 -1.6703  0.5827  1.6091
  954MOL0     H31638   4.037   5.692   9.131  0.3407 -0.2339  1.9069
  954MOL0     H31639   3.929   5.492   9.227 -1.4575  1.0428  2.1799
  954MOL0     H31640   3.839   5.289   9.204  2.6054  3.6102  0.9918
  954MOL0     H31641   3.786   5.374   9.344  1.4105  1.3484 -1.4487
  954MOL0     H31642   3.717   5.112   9.320 -1.4270 -0.2265  1.8235
  954MOL0     H31643   3.610   5.172   9.190  0.7417  2.4026 -1.1859
  954MOL0     H31644   3.596   5.235   9.489 -0.4172 -2.1178  0.6486
  954MOL0     H31645   3.503   5.316   9.369  1.7961  0.7644  0.1435
  954MOL0     H31646   3.388   5.103   9.295 -2.7469 -0.9146  1.1157
  954MOL0     H31647   3.342   5.132   9.455 -0.9307 -5.7143  0.4414
  954MOL0     H31648   3.577   4.784   9.525  0.4526 -1.0625 -2.4841
  954MOL0     H31649   3.567   5.584   9.038  1.1908 -0.8448  0.1539
  954MOL0     H31650   3.683   5.893   8.853 -0.8588 -1.3149 -2.0501
  954MOL0     H31651   3.559   5.764   8.881 -0.2138  1.0113 -1.5884
  954MOL0     H31652   3.595   5.891   9.008  0.1452 -2.0632  1.2308
  955MOL0     O31653  10.680   7.545   6.679 -0.1177 -0.1867  0.6422
  955MOL0     C31654  10.804   7.544   6.664  0.6470 -0.0146  0.7831
  955MOL0     O31655  10.891   7.638   6.715  0.5589 -0.5063 -0.5096
  955MOL0     C31656  10.843   7.727   6.809  0.1391  0.3464  0.0882
  955MOL0     C31657  10.763   7.695   6.919  0.0513  0.1750  1.5644
  955MOL0     C31658  10.738   7.791   7.017  0.1396 -0.8366 -0.2554
  955MOL0     C31659  10.786   7.924   7.007  0.1721  0.3719 -0.1392
  955MOL0     O31660  10.760   8.026   7.083 -0.0112  0.0432  0.3706
  955MOL0     C31661  10.808   8.037   7.216  0.3068 -0.2509  0.2994
  955MOL0     C31662  10.707   7.981   7.302 -0.0773  0.5922 -0.9744
  955MOL0     C31663  10.758   7.987   7.450 -0.2724  0.7949  0.2770
  955MOL0     C31664  10.751   8.129   7.504  0.9021  0.0458  0.8790
  955MOL0     C31665  10.777   8.139   7.664  0.8414  0.3068  0.5571
  955MOL0     C31666  10.909   8.074   7.712  0.2215 -0.2581  0.3697
  955MOL0     C31667  10.925   8.082   7.870 -0.2520 -0.3356  0.1854
  955MOL0     C31668  11.002   8.219   7.909 -0.2595  0.6477  0.6252
  955MOL0     N31669  10.958   8.250   8.046 -0.3258  0.0182 -0.6601
  955MOL0     C31670  11.013   8.191   8.155  1.2054 -0.1771 -0.9636
  955MOL0     C31671  10.950   8.248   8.263  0.2951  0.5441 -0.8204
  955MOL0     C31672  10.970   8.227   8.407 -0.6555  0.8484 -0.7255
  955MOL0     C31673  10.873   8.128   8.483  0.3248 -0.2865  0.4108
  955MOL0     C31674  10.944   8.025   8.565  0.3166  0.0444 -0.6819
  955MOL0     C31675  11.014   8.090   8.686 -0.2005  0.0843  0.0902
  955MOL0     O31676  11.089   8.004   8.762 -0.3379 -0.4890  0.3104
  955MOL0     C31677  11.152   8.042   8.882 -0.3996 -0.2670 -0.2721
  955MOL0     C31678  11.189   8.173   8.920  0.7724  0.5397  1.1624
  955MOL0     C31679  11.264   8.193   9.040  0.5458  0.1379 -0.5206
  955MOL0     C31680  11.286   8.341   9.085 -0.6682 -0.5137 -0.2263
  955MOL0     C31681  11.321   8.081   9.106  0.2116  0.4002 -0.2762
  955MOL0     C31682  11.416   8.085   9.227 -1.0667 -0.4005  0.1028
  955MOL0     O31683  11.471   7.969   9.262  0.0828  0.3093  0.5915
  955MOL0     C31684  11.567   7.961   9.360  0.6941 -0.0986  0.4605
  955MOL0     C31685  11.527   7.957   9.492 -0.1409 -0.4168 -0.6886
  955MOL0     C31686  11.616   7.923   9.599  0.5590 -0.7946  0.3657
  955MOL0     C31687  11.753   7.903   9.569 -0.0100  0.5840 -0.4083
  955MOL0     O31688  11.855   7.882   9.658  0.3441 -0.3543 -0.5377
  955MOL0     C31689  11.836   7.891   9.803 -0.1297 -0.2053  0.3392
  955MOL0     C31690  11.963   7.876   9.877 -0.6062 -0.2107  0.0142
  955MOL0     C31691  11.954   7.890  10.024  0.5263 -0.1515  0.2621
  955MOL0     C31692  12.071   7.829  10.096  0.1509  0.4698 -0.2374
  955MOL0     C31693  12.061   7.832  10.250 -1.0193  0.7247  0.2297
  955MOL0     C31694  12.176   7.734  10.303  0.5324  0.9760  0.5404
  955MOL0     C31695  12.211   7.767  10.441 -0.5195 -0.0038 -0.1829
  955MOL0     C31696  12.098   7.718  10.538  0.1461 -0.4558  0.8329
  955MOL0    Cl31697  11.977   7.849  10.580 -0.1229 -0.0941  0.2979
  955MOL0     C31698  11.786   7.891   9.434 -1.8403  0.0580  0.3120
  955MOL0     C31699  11.700   7.931   9.334  0.1698 -0.3603  0.6148
  955MOL0     O31700  11.422   8.194   9.295  0.1013  0.6154 -0.0865
  955MOL0     C31701  11.293   7.951   9.049  0.4161  0.7536 -0.1529
  955MOL0     C31702  11.205   7.937   8.950 -0.5795  0.0039  0.2191
  955MOL0     N31703  10.853   8.336   8.215  0.9122  0.2482 -0.5120
  955MOL0     N31704  10.863   8.339   8.087 -0.1705  0.9133 -0.1152
  955MOL0     C31705  10.871   7.951   6.905 -0.3407 -0.7400  0.5669
  955MOL0     C31706  10.901   7.855   6.805  0.0057  0.7608 -0.0776
  955MOL0     C31707  10.877   7.435   6.594  0.5477 -0.9248 -0.1068
  955MOL0     C31708  11.007   7.419   6.605  0.0766 -0.0471 -0.6136
  955MOL0     C31709  11.076   7.318   6.543  0.4207 -0.2294 -0.4124
  955MOL0     C31710  11.010   7.227   6.466 -0.4144  1.2430  0.1647
  955MOL0     O31711  11.084   7.134   6.390  0.1327  0.2066 -0.2930
  955MOL0     C31712  11.210   7.092   6.451  0.4732 -0.2387  0.1518
  955MOL0     C31713  11.266   6.968   6.387  0.1795  0.3600 -0.9499
  955MOL0     C31714  11.401   6.930   6.456  1.6752  0.4770 -0.4112
  955MOL0     C31715  11.451   6.787   6.433 -0.1986 -0.6168 -0.4419
  955MOL0     C31716  11.595   6.771   6.463 -0.6590 -0.2588  0.2583
  955MOL0     C31717  11.717   6.754   6.503  0.0530  0.6842  0.7581
  955MOL0     C31718  10.875   7.238   6.447 -0.1736 -0.2184  0.4361
  955MOL0     C31719  10.806   7.337   6.513 -0.9932 -0.3423 -0.7184
  955MOL0     C31720  10.659   7.330   6.506 -0.3159 -0.4640  0.1262
  955MOL0     H31721  10.720   7.596   6.923  1.5242 -0.6466 -0.8885
  955MOL0     H31722  10.670   7.771   7.099 -2.4591  0.8628 -1.8722
  955MOL0     H31723  10.816   8.142   7.244 -1.6826 -0.5650  2.3283
  955MOL0     H31724  10.907   7.991   7.222  0.8176  0.9381  1.3074
  955MOL0     H31725  10.608   8.028   7.300 -1.2835 -1.4694  2.4815
  955MOL0     H31726  10.687   7.874   7.284 -1.4986  0.8236 -0.9247
  955MOL0     H31727  10.705   7.914   7.512  0.3329 -1.1476 -1.3814
  955MOL0     H31728  10.860   7.947   7.444 -0.9057 -0.9580  0.6214
  955MOL0     H31729  10.831   8.179   7.450  2.6785 -1.5670  1.8974
  955MOL0     H31730  10.656   8.173   7.473  2.7613  1.7737 -2.9391
  955MOL0     H31731  10.698   8.081   7.712 -0.6938  0.8262 -1.2032
  955MOL0     H31732  10.786   8.246   7.687  1.2652  0.1210  1.2928
  955MOL0     H31733  10.920   7.975   7.667  2.1998  2.0125 -4.9599
  955MOL0     H31734  10.994   8.119   7.659 -2.3388  1.4200 -2.6428
  955MOL0     H31735  10.990   8.004   7.912 -0.2978 -2.1003 -2.7135
  955MOL0     H31736  10.824   8.080   7.912 -0.2200 -3.4614  0.3563
  955MOL0     H31737  11.107   8.189   7.906 -1.1050 -2.8067  0.6716
  955MOL0     H31738  10.979   8.304   7.844  1.2258  1.0892  0.6544
  955MOL0     H31739  11.102   8.130   8.160  1.0388 -0.3265  0.8545
  955MOL0     H31740  10.966   8.314   8.473  1.4671 -2.7360  4.8409
  955MOL0     H31741  11.068   8.181   8.413 -1.8838 -1.9300 -0.4926
  955MOL0     H31742  10.815   8.198   8.544  1.6361 -1.0959  2.7079
  955MOL0     H31743  10.807   8.097   8.403 -1.1785  2.2505  0.5442
  955MOL0     H31744  10.868   7.958   8.607 -0.3292  1.8211  1.2191
  955MOL0     H31745  11.022   7.973   8.510 -0.3527 -1.2173 -0.4731
  955MOL0     H31746  11.082   8.163   8.642  1.4778 -1.8114 -0.5894
  955MOL0     H31747  10.944   8.131   8.760  0.7231  0.1074  0.9625
  955MOL0     H31748  11.162   8.260   8.860  1.5317  1.0827  1.5924
  955MOL0     H31749  11.388   8.376   9.068 -0.6473  0.7465  2.1793
  955MOL0     H31750  11.263   8.349   9.191 -1.6426  0.0544 -0.4617
  955MOL0     H31751  11.224   8.405   9.020  1.1858 -1.0929 -2.7340
  955MOL0     H31752  11.421   7.975   9.505 -0.5135 -2.1188 -1.1289
  955MOL0     H31753  11.593   7.931   9.705  1.8792  0.5423  0.5713
  955MOL0     H31754  11.799   7.989   9.835 -0.2400 -0.6311  1.5884
  955MOL0     H31755  11.754   7.831   9.845 -2.1019  3.0756  1.6187
  955MOL0     H31756  11.998   7.775   9.858  0.4827  0.1799 -0.1265
  955MOL0     H31757  12.042   7.939   9.836  0.2780 -0.4642  1.2785
  955MOL0     H31758  11.855   7.852  10.054  1.8101 -4.0365  0.1998
  955MOL0     H31759  11.946   7.998  10.036 -2.2680 -0.2889  0.4207
  955MOL0     H31760  12.169   7.871  10.069  0.4571  1.1571  1.7613
  955MOL0     H31761  12.072   7.722  10.071  0.0575  0.1084  1.1765
  955MOL0     H31762  12.079   7.933  10.289  0.7592 -0.1381  1.8162
  955MOL0     H31763  11.964   7.800  10.287 -1.2050  1.0991  0.0704
  955MOL0     H31764  12.268   7.762  10.251  0.6628  0.7721  0.6585
  955MOL0     H31765  12.145   7.631  10.284 -4.3047  1.9642  1.6825
  955MOL0     H31766  12.219   7.876  10.447 -0.9226  0.3005 -3.3287
  955MOL0     H31767  12.306   7.719  10.468 -1.1044 -1.8147 -1.1777
  955MOL0     H31768  12.138   7.680  10.633  1.2869 -0.0349  0.5292
  955MOL0     H31769  12.050   7.629  10.496 -2.2880  1.3298 -0.4156
  955MOL0     H31770  11.892   7.876   9.419 -1.8324 -1.3527  1.4869
  955MOL0     H31771  11.727   7.899   9.234 -0.5560 -2.3555  1.0068
  955MOL0     H31772  11.339   7.860   9.086 -1.5244 -0.0773  0.3496
  955MOL0     H31773  11.209   7.841   8.900  0.0512 -0.1750  0.6007
  955MOL0     H31774  10.919   8.047   6.899 -0.7554 -0.4510  1.6853
  955MOL0     H31775  10.966   7.880   6.721 -1.1469  1.3747 -0.8215
  955MOL0     H31776  11.067   7.499   6.647 -0.1373  2.4045 -4.5288
  955MOL0     H31777  11.183   7.318   6.564  0.1451  1.4034  1.2690
  955MOL0     H31778  11.286   7.166   6.426 -1.7685  1.6742 -1.5739
  955MOL0     H31779  11.197   7.091   6.559 -4.8938  1.8015 -0.1640
  955MOL0     H31780  11.269   6.982   6.278 -0.4550  1.0499 -0.8833
  955MOL0     H31781  11.189   6.891   6.397  1.3882 -0.6673  1.1454
  955MOL0     H31782  11.480   7.001   6.430  0.7124  3.0566  2.9011
  955MOL0     H31783  11.387   6.948   6.563 -0.9640  1.8808 -0.9034
  955MOL0     H31784  11.430   6.760   6.330 -0.0944 -0.9218 -0.3819
  955MOL0     H31785  11.394   6.722   6.500 -1.2539 -0.4148 -1.1291
  955MOL0     H31786  11.819   6.751   6.536  0.1828 -0.2434  0.3160
  955MOL0     H31787  10.815   7.184   6.375 -0.5201 -1.6928  1.7734
  955MOL0     H31788  10.626   7.272   6.593  0.7288  1.8670  2.1851
  955MOL0     H31789  10.601   7.423   6.497 -0.8756 -0.8872 -0.8670
  955MOL0     H31790  10.623   7.272   6.420 -2.6760 -0.4805  1.0400
  956MOL0     O31791   8.201   4.872   8.265 -0.6177 -0.0802 -0.5732
  956MOL0     C31792   8.314   4.920   8.244  0.3135 -0.1093  0.6757
  956MOL0     O31793   8.429   4.849   8.220 -0.1703 -0.7065  0.2052
  956MOL0     C31794   8.422   4.721   8.173 -0.2047 -0.1977 -0.7311
  956MOL0     C31795   8.443   4.693   8.039  0.4103  0.6845  0.4685
  956MOL0     C31796   8.428   4.568   7.990  1.3156  0.5744 -0.4406
  956MOL0     C31797   8.388   4.467   8.073 -0.2681  0.5156 -0.6728
  956MOL0     O31798   8.362   4.335   8.022  0.8528 -0.9769 -1.2469
  956MOL0     C31799   8.336   4.225   8.112 -0.4698 -0.1830  0.1707
  956MOL0     C31800   8.323   4.093   8.031  0.6645  0.2192 -0.8164
  956MOL0     C31801   8.316   3.950   8.094  0.5946 -0.5811  0.2197
  956MOL0     C31802   8.452   3.886   8.097  0.1258  0.3092 -0.3294
  956MOL0     C31803   8.450   3.775   8.212  0.8392  0.6928  0.1704
  956MOL0     C31804   8.447   3.848   8.354  0.9837 -0.0730  0.1015
  956MOL0     C31805   8.492   3.752   8.464 -0.1583 -0.1408 -0.1102
  956MOL0     C31806   8.411   3.627   8.486 -0.1703 -0.3943  0.3888
  956MOL0     N31807   8.471   3.532   8.575 -0.1937  0.4399 -0.8829
  956MOL0     C31808   8.527   3.413   8.532 -0.4206  1.0307 -0.7077
  956MOL0     C31809   8.512   3.323   8.630 -0.5341 -0.1774 -0.0101
  956MOL0     C31810   8.564   3.186   8.625 -0.3023 -0.0650  0.5640
  956MOL0     C31811   8.472   3.089   8.546 -0.2334 -0.1185 -0.9000
  956MOL0     C31812   8.489   2.934   8.587  0.0152 -0.1933 -0.6694
  956MOL0     C31813   8.388   2.862   8.499  0.0046  1.1305  0.6395
  956MOL0     O31814   8.427   2.726   8.468 -0.2140  1.4145 -0.3782
  956MOL0     C31815   8.337   2.628   8.433 -0.3377  0.4135 -0.7468
  956MOL0     C31816   8.201   2.641   8.452 -0.4929  0.0629  1.0880
  956MOL0     C31817   8.114   2.543   8.390 -0.8357 -0.3049 -0.4265
  956MOL0     C31818   7.975   2.547   8.461  1.6615 -0.5751  1.0772
  956MOL0     C31819   8.163   2.426   8.328  1.0573  0.5618 -0.1483
  956MOL0     C31820   8.072   2.308   8.287 -0.4617  0.1513  1.0697
  956MOL0     O31821   8.140   2.193   8.233  0.6848  0.2623 -0.5056
  956MOL0     C31822   8.072   2.089   8.171 -1.8035  0.0643  0.8464
  956MOL0     C31823   7.933   2.059   8.165  0.1495 -0.2598  0.2522
  956MOL0     C31824   7.886   1.944   8.118 -0.0671 -0.0237  0.1095
  956MOL0     C31825   7.971   1.853   8.048 -0.3978  0.8793  0.4141
  956MOL0     O31826   7.916   1.738   8.000 -0.1600  1.4809  0.1769
  956MOL0     C31827   7.972   1.620   8.036 -0.1455  1.4162 -0.8018
  956MOL0     C31828   7.942   1.497   7.939 -0.9544  0.0300 -0.7690
  956MOL0     C31829   7.998   1.366   8.005 -0.3327 -0.9366  0.3370
  956MOL0     C31830   8.045   1.264   7.902 -0.0298  0.7475 -0.2819
  956MOL0     C31831   8.181   1.198   7.939  0.2731 -0.3675  0.1743
  956MOL0     C31832   8.163   1.120   8.066  0.7791  0.2514 -0.2421
  956MOL0     C31833   8.279   1.020   8.108  0.2566 -1.2183 -0.5708
  956MOL0     C31834   8.326   0.922   8.006 -0.0529  0.2086 -0.2607
  956MOL0    Cl31835   8.469   0.839   8.081 -0.5189 -0.5453  0.6182
  956MOL0     C31836   8.108   1.876   8.044  0.1371 -0.1403  1.4703
  956MOL0     C31837   8.161   1.995   8.103  0.5467  0.5128  0.3842
  956MOL0     O31838   7.959   2.336   8.284 -0.0625  0.2490  1.1171
  956MOL0     C31839   8.299   2.407   8.321  0.1041  0.1773 -0.6882
  956MOL0     C31840   8.385   2.513   8.365 -0.0348  0.4584 -0.2580
  956MOL0     N31841   8.452   3.383   8.736 -0.2517 -0.8573  0.7599
  956MOL0     N31842   8.436   3.506   8.707  0.5330 -0.6799  0.1135
  956MOL0     C31843   8.356   4.498   8.206 -0.2905 -0.4935 -0.1419
  956MOL0     C31844   8.390   4.618   8.259 -0.1438 -0.2023 -0.7679
  956MOL0     C31845   8.339   5.071   8.280  1.1556  0.0038 -1.2376
  956MOL0     C31846   8.226   5.136   8.330 -0.3339  0.3788 -0.5066
  956MOL0     C31847   8.230   5.267   8.364 -0.4028  0.2650  0.0760
  956MOL0     C31848   8.341   5.347   8.347 -0.8330 -0.3257  0.6127
  956MOL0     O31849   8.345   5.482   8.355  0.2477  0.7524 -0.1986
  956MOL0     C31850   8.357   5.539   8.482  0.1879  0.2107 -0.6850
  956MOL0     C31851   8.470   5.492   8.579  0.0013 -0.2972  1.0417
  956MOL0     C31852   8.549   5.608   8.629 -0.7460 -0.0311 -0.4092
  956MOL0     C31853   8.645   5.567   8.746  0.7328  0.7108  1.7296
  956MOL0     C31854   8.588   5.548   8.884  0.6813  1.0791 -0.5731
  956MOL0     C31855   8.534   5.534   8.989 -0.2158 -0.4157  0.0485
  956MOL0     C31856   8.452   5.293   8.293  0.5714 -0.2290 -0.0625
  956MOL0     C31857   8.453   5.155   8.257  0.0183 -0.1292 -0.2039
  956MOL0     C31858   8.567   5.106   8.171 -0.2512 -0.0385 -0.4258
  956MOL0     H31859   8.472   4.777   7.976 -0.0944  0.8490  0.4537
  956MOL0     H31860   8.445   4.557   7.883 -0.6708 -0.1951 -0.7166
  956MOL0     H31861   8.242   4.250   8.164 -0.9084  1.5392 -1.3219
  956MOL0     H31862   8.413   4.212   8.188  0.3521  1.2009 -0.3910
  956MOL0     H31863   8.234   4.106   7.968  0.5210  0.8529 -0.4966
  956MOL0     H31864   8.402   4.093   7.956  1.9754 -3.3196  0.3839
  956MOL0     H31865   8.286   3.970   8.197  1.4639 -1.5242  0.6700
  956MOL0     H31866   8.243   3.883   8.048  1.0292 -0.9612  0.0757
  956MOL0     H31867   8.463   3.841   7.998  0.1309  1.0652 -0.6728
  956MOL0     H31868   8.525   3.965   8.111 -0.4152  0.6486  0.6907
  956MOL0     H31869   8.529   3.700   8.210  0.5134  0.3343  0.6305
  956MOL0     H31870   8.365   3.710   8.191  2.2638 -1.6242  1.2563
  956MOL0     H31871   8.505   3.940   8.359 -1.0050  1.1746  2.0223
  956MOL0     H31872   8.345   3.881   8.377  0.4720 -1.3792 -0.1803
  956MOL0     H31873   8.512   3.813   8.553 -1.4632  0.7700 -0.4212
  956MOL0     H31874   8.594   3.725   8.436  0.0382  0.7568 -0.3039
  956MOL0     H31875   8.318   3.663   8.532 -0.7020 -0.8157 -0.3477
  956MOL0     H31876   8.388   3.586   8.388 -1.6713 -0.7503  0.8694
  956MOL0     H31877   8.560   3.382   8.433 -3.1414 -2.4932 -0.7223
  956MOL0     H31878   8.583   3.157   8.728  0.2172 -1.7560  0.0307
  956MOL0     H31879   8.659   3.180   8.571 -1.6958  0.5687 -2.1831
  956MOL0     H31880   8.373   3.107   8.588 -1.0622 -0.7218 -2.5024
  956MOL0     H31881   8.461   3.114   8.440  0.0876  2.6958 -0.3602
  956MOL0     H31882   8.593   2.906   8.566  0.6114  0.5491  1.1738
  956MOL0     H31883   8.467   2.926   8.694 -0.4904  0.7375 -0.6905
  956MOL0     H31884   8.291   2.870   8.549 -1.4803 -1.0046 -1.6410
  956MOL0     H31885   8.380   2.908   8.400  0.5069  0.0956  0.0994
  956MOL0     H31886   8.162   2.730   8.500  0.2883 -1.0504  3.9866
  956MOL0     H31887   7.942   2.459   8.517  0.5140 -0.7428  0.1738
  956MOL0     H31888   7.903   2.577   8.385 -0.0759  1.9150  3.5229
  956MOL0     H31889   7.983   2.624   8.538 -0.3531  0.2267  0.5316
  956MOL0     H31890   7.861   2.134   8.200 -0.0279 -0.3871  0.1621
  956MOL0     H31891   7.783   1.911   8.119 -0.9975  2.6531 -0.0410
  956MOL0     H31892   8.080   1.625   8.053  0.3403 -5.0255  0.5435
  956MOL0     H31893   7.928   1.594   8.133  0.1582 -1.3515 -1.3244
  956MOL0     H31894   7.833   1.490   7.936 -0.9426 -0.9483  0.3711
  956MOL0     H31895   7.979   1.519   7.838 -1.0884 -0.5226 -0.9431
  956MOL0     H31896   7.918   1.314   8.059  0.4386 -0.0835  2.4143
  956MOL0     H31897   8.077   1.381   8.080 -0.7757 -0.9974  0.8241
  956MOL0     H31898   8.053   1.305   7.801 -2.3767 -0.9317 -1.2494
  956MOL0     H31899   7.981   1.176   7.900  0.7867 -0.0467  2.7544
  956MOL0     H31900   8.216   1.132   7.859 -0.2501 -1.1844  0.6015
  956MOL0     H31901   8.259   1.272   7.959 -1.8575  2.4215 -1.1854
  956MOL0     H31902   8.069   1.065   8.064  0.9072  0.0262 -0.1015
  956MOL0     H31903   8.149   1.191   8.149 -3.0203  0.9325 -1.3002
  956MOL0     H31904   8.240   0.965   8.195 -0.2159  0.6259  0.4306
  956MOL0     H31905   8.356   1.093   8.134 -1.0954 -0.9748  3.4778
  956MOL0     H31906   8.360   0.976   7.917  2.5401 -0.5752  0.1854
  956MOL0     H31907   8.247   0.853   7.978  0.5129 -0.0378 -1.2931
  956MOL0     H31908   8.171   1.816   7.979  2.1275  3.3991 -0.1743
  956MOL0     H31909   8.269   2.001   8.102  0.5072  1.3991  0.2662
  956MOL0     H31910   8.346   2.323   8.272 -0.7603  0.6571 -2.4026
  956MOL0     H31911   8.493   2.515   8.354 -0.1840  1.7651 -2.1109
  956MOL0     H31912   8.306   4.423   8.266  0.3578  0.1553  1.2473
  956MOL0     H31913   8.368   4.639   8.363  0.5071 -0.6842 -0.5261
  956MOL0     H31914   8.133   5.085   8.354 -0.7176  1.9876  1.8905
  956MOL0     H31915   8.141   5.309   8.409 -0.9615  0.4211 -1.1291
  956MOL0     H31916   8.362   5.648   8.475 -2.5232  0.9619  4.4185
  956MOL0     H31917   8.259   5.524   8.528  0.7343  2.6635  1.5039
  956MOL0     H31918   8.548   5.443   8.519  0.4139 -0.6643  1.8527
  956MOL0     H31919   8.440   5.416   8.652  0.5396 -0.7218  0.8280
  956MOL0     H31920   8.603   5.656   8.547 -2.0222 -0.7729 -1.7394
  956MOL0     H31921   8.478   5.682   8.666  0.0076  1.1971 -1.3528
  956MOL0     H31922   8.722   5.645   8.745  1.3205  0.2818 -2.0400
  956MOL0     H31923   8.698   5.478   8.710  1.2104  0.9303  1.8785
  956MOL0     H31924   8.489   5.520   9.085  1.6607  3.2065  1.6404
  956MOL0     H31925   8.541   5.346   8.262  2.3704 -2.7321  0.4922
  956MOL0     H31926   8.609   5.007   8.193  0.1897 -0.3886 -2.5635
  956MOL0     H31927   8.541   5.091   8.066 -1.8599 -0.7964  0.0544
  956MOL0     H31928   8.645   5.182   8.179  0.5496 -0.9692  1.3891
  957MOL0     O31929   8.573   5.337   5.312 -0.2962  0.7337 -0.0581
  957MOL0     C31930   8.458   5.355   5.275 -0.3046 -0.6197 -0.4612
  957MOL0     O31931   8.388   5.473   5.284 -0.1747 -0.2085  0.0034
  957MOL0     C31932   8.433   5.588   5.343 -0.5168 -0.1950 -0.3211
  957MOL0     C31933   8.543   5.600   5.433  0.0381 -0.6650  0.6032
  957MOL0     C31934   8.574   5.721   5.486 -1.0599  0.4855  0.0675
  957MOL0     C31935   8.504   5.841   5.452 -0.2804  0.1421  0.5406
  957MOL0     O31936   8.522   5.968   5.512 -0.5686  0.1795 -0.4437
  957MOL0     C31937   8.653   6.001   5.554 -1.0149  0.0839  0.1205
  957MOL0     C31938   8.656   6.046   5.693  0.2866 -0.3708 -0.1502
  957MOL0     C31939   8.662   5.932   5.797 -0.1697  0.4350  0.2407
  957MOL0     C31940   8.800   5.873   5.821 -0.6094 -0.3695  0.0273
  957MOL0     C31941   8.818   5.732   5.875  0.0076  0.3675 -0.5836
  957MOL0     C31942   8.959   5.690   5.915  0.4339  0.4677  0.3323
  957MOL0     C31943   9.064   5.710   5.798 -0.0864 -0.0508 -0.5808
  957MOL0     C31944   9.172   5.602   5.785  0.0144  0.0133 -0.6208
  957MOL0     N31945   9.244   5.606   5.915 -0.5333  0.5070  0.7998
  957MOL0     C31946   9.218   5.531   6.020 -0.4028  0.2359 -0.0762
  957MOL0     C31947   9.306   5.569   6.116 -0.1223 -0.4905  1.2701
  957MOL0     C31948   9.289   5.511   6.256 -0.3110  0.0338 -0.1469
  957MOL0     C31949   9.298   5.618   6.360  0.8428  0.4578  0.7514
  957MOL0     C31950   9.287   5.543   6.491 -0.3052 -0.7499  0.2254
  957MOL0     C31951   9.310   5.641   6.608 -0.4172 -0.2914  0.1604
  957MOL0     O31952   9.204   5.743   6.610 -1.0905 -0.1180  0.2500
  957MOL0     C31953   9.099   5.721   6.692 -0.9382  0.7594  0.7639
  957MOL0     C31954   9.046   5.595   6.730 -0.2563 -1.3717 -0.6423
  957MOL0     C31955   8.916   5.574   6.792 -0.5408 -1.1247 -0.1778
  957MOL0     C31956   8.882   5.436   6.832  0.4967  0.0346  0.1005
  957MOL0     C31957   8.838   5.690   6.805 -0.2458  0.3707 -0.0074
  957MOL0     C31958   8.705   5.690   6.863 -0.7870  0.3636 -0.1017
  957MOL0     O31959   8.672   5.586   6.952 -0.5242 -0.4734  1.4605
  957MOL0     C31960   8.540   5.575   7.001 -0.5172  0.7066 -0.4139
  957MOL0     C31961   8.452   5.673   7.047 -1.1480 -0.0071  0.8295
  957MOL0     C31962   8.328   5.639   7.099  0.5320 -0.9742 -0.2112
  957MOL0     C31963   8.286   5.511   7.120  0.5619  0.7613 -0.2650
  957MOL0     O31964   8.157   5.488   7.162  0.3779  0.2855 -0.6624
  957MOL0     C31965   8.117   5.352   7.179  0.7562  0.5931 -0.2312
  957MOL0     C31966   7.966   5.337   7.213  0.0136  0.4047  0.2867
  957MOL0     C31967   7.907   5.452   7.298 -0.0183 -0.9017  0.4763
  957MOL0     C31968   7.949   5.429   7.438  0.2741  0.1088  0.1591
  957MOL0     C31969   7.918   5.553   7.523 -1.0000 -0.0838 -0.6167
  957MOL0     C31970   7.931   5.532   7.676 -0.8047 -0.5339 -0.7964
  957MOL0     C31971   7.882   5.666   7.739  0.4132 -0.4568  0.0818
  957MOL0     C31972   7.848   5.664   7.881  0.4525 -0.0530 -0.4894
  957MOL0    Cl31973   7.722   5.548   7.920 -0.4030  0.0633  0.1485
  957MOL0     C31974   8.382   5.417   7.084  0.5580 -0.1925  0.1967
  957MOL0     C31975   8.502   5.446   7.027  0.1289  0.3358  0.0727
  957MOL0     O31976   8.639   5.791   6.850 -1.1722  1.0034  0.5406
  957MOL0     C31977   8.883   5.812   6.745  0.2481 -0.7924  0.2116
  957MOL0     C31978   9.008   5.831   6.692 -0.0678  0.3551 -1.0657
  957MOL0     N31979   9.391   5.670   6.063  0.5281 -0.3386 -0.2404
  957MOL0     N31980   9.350   5.687   5.944 -0.1004  0.6183 -0.0047
  957MOL0     C31981   8.401   5.828   5.355  0.6560 -0.0316  0.4310
  957MOL0     C31982   8.363   5.707   5.308  0.1793 -0.1127 -0.0961
  957MOL0     C31983   8.380   5.246   5.214  0.5170  0.0822 -1.7260
  957MOL0     C31984   8.454   5.147   5.159 -0.5007  0.1988  0.3933
  957MOL0     C31985   8.392   5.042   5.088  0.2221  0.4918 -0.0840
  957MOL0     C31986   8.242   5.032   5.083 -0.1787 -1.2735  0.0677
  957MOL0     O31987   8.189   4.930   5.007  0.2628 -0.0701 -0.1231
  957MOL0     C31988   8.054   4.913   4.997  0.7904 -0.6266  0.6000
  957MOL0     C31989   7.986   5.013   4.903  0.2294 -0.1473 -0.3054
  957MOL0     C31990   7.831   4.984   4.902  0.5803  0.5300 -0.4063
  957MOL0     C31991   7.758   5.056   4.786  0.9002  0.1955  0.5552
  957MOL0     C31992   7.804   5.199   4.760  0.7605  0.0479 -0.0281
  957MOL0     C31993   7.818   5.313   4.726 -0.8051 -1.3254 -0.6431
  957MOL0     C31994   8.176   5.128   5.153 -0.0296  0.3363 -0.1418
  957MOL0     C31995   8.239   5.230   5.227  0.9975 -1.0335 -0.6714
  957MOL0     C31996   8.149   5.327   5.297  0.4588 -0.1085 -0.9195
  957MOL0     H31997   8.598   5.517   5.474  0.7515  0.0923  1.2271
  957MOL0     H31998   8.649   5.723   5.564 -1.0017  0.0781  0.0250
  957MOL0     H31999   8.681   6.089   5.495 -0.2905 -0.5056 -0.4447
  957MOL0     H32000   8.735   5.933   5.529 -1.9099 -0.9989  0.0873
  957MOL0     H32001   8.745   6.109   5.707  2.3403 -2.6121 -2.0418
  957MOL0     H32002   8.561   6.096   5.712 -0.4674 -1.5066 -0.7832
  957MOL0     H32003   8.630   5.966   5.895 -0.6194  0.0197  0.2379
  957MOL0     H32004   8.591   5.854   5.768 -1.2068  1.1977  0.6649
  957MOL0     H32005   8.855   5.885   5.727  1.1613 -0.7789  0.9564
  957MOL0     H32006   8.848   5.945   5.888  0.0944  0.6707 -1.5266
  957MOL0     H32007   8.777   5.664   5.800 -1.5905 -1.2533  1.6153
  957MOL0     H32008   8.745   5.725   5.957  0.3862 -1.8112 -0.3774
  957MOL0     H32009   8.998   5.746   6.000  2.9781 -0.4470 -0.1510
  957MOL0     H32010   8.944   5.585   5.942 -2.7861  0.5120 -0.8054
  957MOL0     H32011   9.110   5.809   5.803  0.2476 -0.2382  0.3228
  957MOL0     H32012   9.010   5.706   5.704 -1.8598 -0.9250  0.4276
  957MOL0     H32013   9.126   5.505   5.769  0.9000 -0.5068 -0.0787
  957MOL0     H32014   9.248   5.618   5.708 -0.3766 -4.3633 -2.1767
  957MOL0     H32015   9.143   5.453   6.030 -0.5774  0.5230  0.9850
  957MOL0     H32016   9.364   5.432   6.262 -2.8384 -2.4485  1.2693
  957MOL0     H32017   9.195   5.458   6.275  0.1676 -0.2920  1.4741
  957MOL0     H32018   9.383   5.683   6.340  0.2228  1.1966  0.4573
  957MOL0     H32019   9.220   5.687   6.328 -1.2495 -1.9773  0.2220
  957MOL0     H32020   9.188   5.497   6.495  0.6246 -2.8519  4.3506
  957MOL0     H32021   9.367   5.470   6.500  1.1576  0.8662  0.9292
  957MOL0     H32022   9.318   5.595   6.707  1.6846  1.4442  0.8661
  957MOL0     H32023   9.411   5.682   6.606  0.9742 -3.4250  0.0684
  957MOL0     H32024   9.109   5.509   6.709  2.0014 -0.9334  3.3005
  957MOL0     H32025   8.910   5.444   6.937  0.2166  0.3501  0.1495
  957MOL0     H32026   8.960   5.374   6.786  1.1422  1.9475 -1.5348
  957MOL0     H32027   8.780   5.404   6.810  1.5627 -3.5309 -0.4139
  957MOL0     H32028   8.469   5.780   7.042 -2.7323  0.2129 -1.4840
  957MOL0     H32029   8.269   5.724   7.133  2.1065  0.0331  0.1060
  957MOL0     H32030   8.131   5.300   7.084  1.1303  1.4675 -0.6711
  957MOL0     H32031   8.179   5.310   7.260 -2.2649 -0.5001  1.6936
  957MOL0     H32032   7.907   5.350   7.122  0.7552 -0.1668 -0.2870
  957MOL0     H32033   7.938   5.238   7.251  0.6431  0.2193  0.2745
  957MOL0     H32034   7.798   5.447   7.286  0.0876  1.7478 -3.3180
  957MOL0     H32035   7.950   5.548   7.270 -4.8890  2.6856  3.4701
  957MOL0     H32036   8.055   5.401   7.441  0.4692  0.3621 -2.0715
  957MOL0     H32037   7.891   5.346   7.479  1.5061 -0.7269  0.2753
  957MOL0     H32038   8.003   5.617   7.499  0.8327 -2.8162 -1.8918
  957MOL0     H32039   7.823   5.597   7.489 -2.5711 -0.2257  3.0602
  957MOL0     H32040   8.037   5.514   7.699 -0.8379  0.0169 -0.1746
  957MOL0     H32041   7.877   5.444   7.711  0.3990 -0.3741  1.7008
  957MOL0     H32042   7.792   5.701   7.687 -0.5110 -1.0943  1.1926
  957MOL0     H32043   7.959   5.742   7.726 -1.2798  1.3599  0.1890
  957MOL0     H32044   7.820   5.763   7.919 -3.5662 -1.0280 -0.5145
  957MOL0     H32045   7.930   5.627   7.943 -0.5492 -0.1221  0.8526
  957MOL0     H32046   8.363   5.314   7.111 -0.4540 -0.0109  0.2017
  957MOL0     H32047   8.568   5.361   7.015  0.2437  0.3879  0.3212
  957MOL0     H32048   8.817   5.898   6.744  2.9386  1.4079  0.4165
  957MOL0     H32049   9.047   5.928   6.666 -0.4846  0.0580 -2.9264
  957MOL0     H32050   8.347   5.920   5.337  0.1419 -0.7800 -2.4252
  957MOL0     H32051   8.282   5.678   5.242  0.5664 -2.2564  0.3107
  957MOL0     H32052   8.562   5.134   5.152 -0.6431 -2.6938  1.9876
  957MOL0     H32053   8.445   4.954   5.052 -0.2546 -1.8060  4.0809
  957MOL0     H32054   8.038   4.815   4.952 -2.3244 -0.9091  2.0811
  957MOL0     H32055   8.001   4.912   5.092 -2.0116 -2.1716 -0.8559
  957MOL0     H32056   8.018   4.998   4.799 -0.8466  1.5577 -0.9378
  957MOL0     H32057   8.007   5.117   4.929 -1.5058 -0.0597  0.9112
  957MOL0     H32058   7.805   4.878   4.897 -1.9309  1.1481 -3.9800
  957MOL0     H32059   7.787   5.024   4.994 -0.9222 -1.3411 -0.2506
  957MOL0     H32060   7.649   5.053   4.797  0.8401 -1.6051 -0.1355
  957MOL0     H32061   7.786   5.002   4.696 -0.1830 -0.8193  0.7949
  957MOL0     H32062   7.829   5.417   4.704 -1.5853 -1.5830 -2.3660
  957MOL0     H32063   8.068   5.138   5.150  0.1576  3.3505 -0.1188
  957MOL0     H32064   8.198   5.354   5.391  4.8627 -0.1775 -2.9224
  957MOL0     H32065   8.135   5.418   5.238  1.9523  0.8714  0.1714
  957MOL0     H32066   8.051   5.288   5.327 -0.6180  4.3137  2.2324
  958MOL0     O32067   6.559   3.965   3.886 -0.2572 -0.6659 -0.4212
  958MOL0     C32068   6.468   3.928   3.965  0.6490  0.0550 -0.8025
  958MOL0     O32069   6.465   3.812   4.029  0.5253 -0.2656 -0.6207
  958MOL0     C32070   6.569   3.730   4.032  0.1897 -0.0556 -0.9177
  958MOL0     C32071   6.611   3.658   3.918  0.0156  0.6357 -0.1446
  958MOL0     C32072   6.729   3.586   3.925  0.0816  0.6202  0.6369
  958MOL0     C32073   6.805   3.569   4.034  0.6116 -0.5978 -0.5877
  958MOL0     O32074   6.925   3.514   4.039 -0.3327 -0.4120  0.0631
  958MOL0     C32075   6.992   3.508   3.911  0.2730 -0.5596  1.1021
  958MOL0     C32076   7.124   3.429   3.925  0.2982  1.0576  1.0349
  958MOL0     C32077   7.255   3.523   3.960 -0.1882 -0.4367 -0.3870
  958MOL0     C32078   7.391   3.469   3.934 -0.0998  0.2732 -0.6762
  958MOL0     C32079   7.499   3.575   3.960 -0.3231  0.3267  0.0187
  958MOL0     C32080   7.633   3.519   3.933 -0.6267  0.2634 -0.3899
  958MOL0     C32081   7.680   3.428   4.042 -0.6105 -0.2306  0.3403
  958MOL0     C32082   7.823   3.351   4.013 -0.5931  0.1550 -0.1801
  958MOL0     N32083   7.805   3.269   3.897 -0.3372 -0.0146  0.5131
  958MOL0     C32084   7.701   3.182   3.859  0.9525  0.2386 -0.5391
  958MOL0     C32085   7.741   3.118   3.751 -0.5817 -0.5447  0.1825
  958MOL0     C32086   7.681   3.004   3.670 -1.0463 -0.7427  0.1095
  958MOL0     C32087   7.689   2.869   3.742 -0.0615  1.1041 -0.0160
  958MOL0     C32088   7.626   2.764   3.656  0.1005 -0.1056 -0.1557
  958MOL0     C32089   7.736   2.680   3.586  1.1275  0.3826 -0.9731
  958MOL0     O32090   7.817   2.765   3.507 -0.2285 -0.0517 -0.2274
  958MOL0     C32091   7.927   2.718   3.450  0.7260 -0.5675 -0.2623
  958MOL0     C32092   7.968   2.582   3.460 -0.6648 -0.6099 -0.4058
  958MOL0     C32093   8.085   2.539   3.401  1.2011  0.0530 -0.8243
  958MOL0     C32094   8.128   2.404   3.447 -0.2541  0.9083 -0.7084
  958MOL0     C32095   8.175   2.623   3.336 -0.0796 -0.0337  0.6329
  958MOL0     C32096   8.307   2.590   3.292  0.1171 -0.4611  0.4308
  958MOL0     O32097   8.304   2.501   3.190  0.1960  0.5620 -0.0211
  958MOL0     C32098   8.423   2.469   3.132 -0.7874 -0.0305  0.2546
  958MOL0     C32099   8.459   2.329   3.124 -0.0636  0.3578  0.8309
  958MOL0     C32100   8.587   2.299   3.069  1.0467  0.1187  1.4077
  958MOL0     C32101   8.670   2.396   3.007 -0.0836  0.5606 -1.2379
  958MOL0     O32102   8.799   2.372   2.973  0.2864  0.4434  0.8361
  958MOL0     C32103   8.810   2.281   2.862  0.2799  0.1402 -0.2810
  958MOL0     C32104   8.953   2.278   2.806 -0.1085 -1.2675 -0.1802
  958MOL0     C32105   8.982   2.406   2.738 -1.0175 -1.1691  0.4822
  958MOL0     C32106   9.113   2.400   2.666 -0.6993 -0.7029  0.5733
  958MOL0     C32107   9.174   2.544   2.638  0.2182 -0.1458  0.7090
  958MOL0     C32108   9.303   2.509   2.570 -0.2083 -0.6998 -1.0264
  958MOL0     C32109   9.387   2.635   2.531  0.2610  0.0591  0.2094
  958MOL0     C32110   9.386   2.649   2.378 -0.2081  1.3737  1.1581
  958MOL0    Cl32111   9.508   2.790   2.321 -0.0510 -0.4112  0.3735
  958MOL0     C32112   8.622   2.522   2.999 -0.1512  0.2928 -0.0316
  958MOL0     C32113   8.498   2.564   3.061  0.4822  0.6398 -0.9193
  958MOL0     O32114   8.394   2.669   3.314 -0.2341 -0.1553  0.5500
  958MOL0     C32115   8.132   2.754   3.314  0.6916 -0.1003 -0.7184
  958MOL0     C32116   8.002   2.797   3.367  0.3176  0.5440  0.4158
  958MOL0     N32117   7.856   3.182   3.714  0.1402  0.4708 -0.0075
  958MOL0     N32118   7.903   3.260   3.804  0.0774 -1.2123 -0.5747
  958MOL0     C32119   6.759   3.628   4.150 -0.0134 -0.0015 -0.1754
  958MOL0     C32120   6.643   3.713   4.149  0.2050 -0.3084  0.3802
  958MOL0     C32121   6.353   4.032   3.995  0.9160 -0.9970  0.8024
  958MOL0     C32122   6.307   4.025   4.131  0.0103 -0.1893  0.6960
  958MOL0     C32123   6.196   4.109   4.158 -0.3829 -0.2421 -0.1737
  958MOL0     C32124   6.152   4.215   4.082  0.1822 -0.2106  0.0938
  958MOL0     O32125   6.053   4.292   4.136 -0.2312  0.3727 -0.1438
  958MOL0     C32126   5.978   4.386   4.054 -0.1818  0.7136  0.4391
  958MOL0     C32127   5.872   4.298   3.986  0.2815 -0.8599  0.5119
  958MOL0     C32128   5.767   4.364   3.893 -0.6811 -0.5502  0.4189
  958MOL0     C32129   5.847   4.418   3.767  0.7294  0.2438  0.8683
  958MOL0     C32130   5.757   4.513   3.699  1.0584  0.4933  0.1317
  958MOL0     C32131   5.679   4.599   3.670  0.2579  0.7654  0.4344
  958MOL0     C32132   6.217   4.231   3.958 -0.1416 -1.2146 -1.2300
  958MOL0     C32133   6.311   4.138   3.916  0.2711  0.0009 -0.7780
  958MOL0     C32134   6.357   4.152   3.774  0.3327  0.4117 -0.1095
  958MOL0     H32135   6.563   3.661   3.821  1.8490  1.0647 -1.0867
  958MOL0     H32136   6.752   3.530   3.835  0.7735  0.6759  0.7706
  958MOL0     H32137   7.013   3.606   3.868 -0.1679  0.1253  2.3871
  958MOL0     H32138   6.926   3.465   3.836 -1.0474  2.4308  0.4016
  958MOL0     H32139   7.109   3.348   3.997 -2.3147  1.8511  1.4914
  958MOL0     H32140   7.143   3.385   3.826 -1.5408  0.7204  0.8004
  958MOL0     H32141   7.238   3.616   3.905  4.6321  0.6357 -0.4759
  958MOL0     H32142   7.243   3.556   4.063 -1.1331  1.6347 -1.1007
  958MOL0     H32143   7.404   3.377   3.991 -0.1906  1.8223  2.0256
  958MOL0     H32144   7.393   3.449   3.826  2.2806 -1.6348 -0.3764
  958MOL0     H32145   7.500   3.597   4.067  2.7060  0.9473 -0.0476
  958MOL0     H32146   7.485   3.671   3.908  2.4311  0.6153 -0.3447
  958MOL0     H32147   7.633   3.475   3.833 -1.1617 -0.4373 -0.0927
  958MOL0     H32148   7.701   3.604   3.924 -0.5377  0.4540  1.5420
  958MOL0     H32149   7.606   3.348   4.037 -0.0557 -0.9495  2.4535
  958MOL0     H32150   7.686   3.475   4.141 -2.1040  3.1507 -1.0483
  958MOL0     H32151   7.907   3.420   4.009  0.0788 -0.6052  0.3518
  958MOL0     H32152   7.843   3.288   4.100 -0.9832 -1.0061 -0.9029
  958MOL0     H32153   7.605   3.159   3.904  2.2398 -1.2585  1.6266
  958MOL0     H32154   7.736   2.997   3.575  1.9975  1.8758  1.4784
  958MOL0     H32155   7.579   3.032   3.642 -0.2224  0.2743 -2.1585
  958MOL0     H32156   7.790   2.841   3.774 -0.7573 -2.2182 -0.3814
  958MOL0     H32157   7.637   2.881   3.838 -1.9088 -3.4593 -0.2184
  958MOL0     H32158   7.582   2.689   3.723  0.8053 -0.3732  0.0171
  958MOL0     H32159   7.542   2.790   3.591  0.5443 -1.5404 -1.3651
  958MOL0     H32160   7.793   2.632   3.667 -0.6353  0.2239  0.2323
  958MOL0     H32161   7.690   2.600   3.528 -1.9647  0.3185  1.3099
  958MOL0     H32162   7.922   2.512   3.529  3.4835 -2.2514  1.0087
  958MOL0     H32163   8.229   2.376   3.416  0.2539 -1.8054  2.7793
  958MOL0     H32164   8.058   2.328   3.411  1.0110 -0.3375 -0.5940
  958MOL0     H32165   8.131   2.395   3.556 -0.8329 -2.7573 -0.8650
  958MOL0     H32166   8.392   2.254   3.166  0.6993  0.3083  1.9943
  958MOL0     H32167   8.610   2.195   3.047 -1.5518  0.1126 -2.1839
  958MOL0     H32168   8.794   2.179   2.896 -3.5270  0.4604 -0.6481
  958MOL0     H32169   8.734   2.300   2.785 -0.4637 -1.7983 -0.0643
  958MOL0     H32170   9.036   2.259   2.875 -1.1043  1.9356  2.1677
  958MOL0     H32171   8.950   2.199   2.731  0.0766 -0.8572 -0.6313
  958MOL0     H32172   8.999   2.485   2.812  0.3035  1.1085 -2.0758
  958MOL0     H32173   8.905   2.438   2.667 -0.6141 -0.5580  0.3060
  958MOL0     H32174   9.105   2.347   2.570  1.1094  1.9453 -1.1562
  958MOL0     H32175   9.178   2.326   2.714  0.2107 -0.1001  0.2855
  958MOL0     H32176   9.114   2.603   2.567 -0.6928 -0.0003  1.5778
  958MOL0     H32177   9.193   2.607   2.726 -0.3763 -1.0088  1.4612
  958MOL0     H32178   9.272   2.452   2.481 -0.6905 -0.0494 -1.2807
  958MOL0     H32179   9.363   2.443   2.634  2.1244  0.0380 -2.3120
  958MOL0     H32180   9.491   2.620   2.561 -0.0219  0.5057  1.4773
  958MOL0     H32181   9.347   2.727   2.574  1.0806 -0.3214  1.8624
  958MOL0     H32182   9.285   2.664   2.340  0.2131  0.2853 -0.4870
  958MOL0     H32183   9.429   2.560   2.333  2.0423  1.9053  2.0889
  958MOL0     H32184   8.689   2.594   2.953 -1.8890  4.1571  2.9662
  958MOL0     H32185   8.462   2.666   3.072  2.3327  1.2261  0.1625
  958MOL0     H32186   8.182   2.826   3.250  0.2616  0.3971 -0.5034
  958MOL0     H32187   7.955   2.894   3.361 -2.3284 -0.6548  0.3165
  958MOL0     H32188   6.819   3.626   4.240 -0.1462  0.7362 -0.0646
  958MOL0     H32189   6.613   3.759   4.242  2.4143 -0.5541  1.2693
  958MOL0     H32190   6.332   3.942   4.196 -1.4326 -2.2397 -1.2133
  958MOL0     H32191   6.156   4.085   4.256  1.7941 -1.1771  0.5418
  958MOL0     H32192   5.919   4.457   4.112 -1.2287 -0.1228  0.4326
  958MOL0     H32193   6.050   4.440   3.992  0.2825  1.2466  1.4383
  958MOL0     H32194   5.821   4.252   4.071 -0.9807 -1.7875 -0.6968
  958MOL0     H32195   5.919   4.225   3.918  0.6905  1.8915 -2.3895
  958MOL0     H32196   5.705   4.281   3.859  1.9951 -1.9112 -1.5707
  958MOL0     H32197   5.709   4.428   3.960 -1.1001  0.1523 -0.5947
  958MOL0     H32198   5.868   4.336   3.698  2.1622  2.4328 -1.4791
  958MOL0     H32199   5.941   4.471   3.782  0.3583  0.4926  2.4303
  958MOL0     H32200   5.607   4.654   3.613  1.1766  0.4670 -1.0640
  958MOL0     H32201   6.181   4.305   3.886 -1.7699  0.1475  0.8687
  958MOL0     H32202   6.424   4.236   3.755 -0.5141  0.9130 -0.9823
  958MOL0     H32203   6.399   4.063   3.726 -0.6297  1.2726 -2.7257
  958MOL0     H32204   6.272   4.163   3.706  0.9632 -3.0589 -1.7091
  959MOL0     O32205   3.895   8.202   1.499 -0.4515 -0.7726 -0.1996
  959MOL0     C32206   3.814   8.290   1.481 -0.6055 -0.6267  1.3932
  959MOL0     O32207   3.678   8.276   1.505  0.7203  1.2942  0.1646
  959MOL0     C32208   3.619   8.170   1.569 -0.5157 -0.6066 -0.2381
  959MOL0     C32209   3.681   8.098   1.670 -0.2200 -0.1105 -0.4052
  959MOL0     C32210   3.614   8.013   1.751 -0.2978 -0.5839  0.3803
  959MOL0     C32211   3.476   8.003   1.743  0.0179  0.0187 -0.0400
  959MOL0     O32212   3.407   7.914   1.828  0.0515  0.1872 -0.3189
  959MOL0     C32213   3.312   7.833   1.754  0.1037  1.0411 -0.6441
  959MOL0     C32214   3.298   7.711   1.832  1.1365  0.2723  0.9607
  959MOL0     C32215   3.176   7.626   1.798 -0.6962  0.0418  0.0393
  959MOL0     C32216   3.145   7.633   1.649 -0.1761  0.7267  0.0847
  959MOL0     C32217   3.035   7.534   1.609  0.0384 -0.3625  0.3010
  959MOL0     C32218   3.007   7.564   1.461 -1.0612  0.6661  0.5704
  959MOL0     C32219   2.925   7.461   1.401 -0.7256 -0.1775  0.5646
  959MOL0     C32220   2.783   7.446   1.472 -0.0553 -0.4943  0.4414
  959MOL0     N32221   2.673   7.369   1.408 -0.1938  0.3159  0.4138
  959MOL0     C32222   2.663   7.370   1.266  0.1335  0.0297  0.3504
  959MOL0     C32223   2.551   7.310   1.239  0.1692  0.4340 -0.1654
  959MOL0     C32224   2.492   7.299   1.100  0.4956  0.0668 -0.4284
  959MOL0     C32225   2.344   7.338   1.098  0.7521 -0.1540 -0.2426
  959MOL0     C32226   2.282   7.346   0.959 -0.3364  0.8571  1.2684
  959MOL0     C32227   2.260   7.201   0.898  0.1993 -0.4766  0.4555
  959MOL0     O32228   2.173   7.120   0.976 -0.2476  0.1487  0.7563
  959MOL0     C32229   2.039   7.133   0.959  0.6866  0.0072 -0.7264
  959MOL0     C32230   1.955   7.038   1.025 -1.0094 -0.4128 -0.7994
  959MOL0     C32231   1.815   7.045   1.014 -0.2352 -0.4249  0.1837
  959MOL0     C32232   1.734   6.939   1.099 -0.2270 -1.4157  0.2182
  959MOL0     C32233   1.757   7.142   0.932  0.5369  0.4943 -0.6219
  959MOL0     C32234   1.610   7.150   0.915 -0.5628  0.2858  0.2869
  959MOL0     O32235   1.547   7.256   0.971  0.1280  0.5638  0.2662
  959MOL0     C32236   1.411   7.262   0.967 -0.1000  0.0272  0.1742
  959MOL0     C32237   1.343   7.255   0.841 -0.4128 -0.3485 -0.1100
  959MOL0     C32238   1.206   7.278   0.829 -0.3147  0.2719 -0.3261
  959MOL0     C32239   1.130   7.296   0.951  0.1854 -1.1512  0.5442
  959MOL0     O32240   1.001   7.319   0.960  0.0102  0.6024  0.1609
  959MOL0     C32241   0.938   7.421   0.886  0.0383 -0.4938  0.2234
  959MOL0     C32242   0.881   7.362   0.755 -0.0783  0.8365 -0.8478
  959MOL0     C32243   0.800   7.225   0.788 -0.1305 -0.1231 -1.0159
  959MOL0     C32244   0.803   7.141   0.653 -0.1152  0.1781 -0.9008
  959MOL0     C32245   0.728   7.012   0.657 -0.0703 -0.0596  0.4613
  959MOL0     C32246   0.802   6.885   0.714  0.9179  0.2687 -0.8531
  959MOL0     C32247   0.926   6.854   0.627  0.2546  0.2083 -0.1755
  959MOL0     C32248   0.977   6.712   0.634 -0.6829  0.9171  0.7843
  959MOL0    Cl32249   0.879   6.576   0.615  0.1601  0.1646  0.3184
  959MOL0     C32250   1.197   7.303   1.076  1.1953 -0.0397  0.3487
  959MOL0     C32251   1.337   7.298   1.085  0.5149  0.2268 -0.2464
  959MOL0     O32252   1.560   7.057   0.855 -0.0546  0.5510 -0.6190
  959MOL0     C32253   1.840   7.238   0.882  0.2179 -0.9189 -1.2257
  959MOL0     C32254   1.975   7.234   0.894  0.4145 -0.5394  0.3213
  959MOL0     N32255   2.489   7.283   1.360 -0.2579 -0.2331  0.0571
  959MOL0     N32256   2.564   7.319   1.459  0.6399 -0.4232 -0.9772
  959MOL0     C32257   3.414   8.085   1.648 -0.0587  0.3211 -0.7358
  959MOL0     C32258   3.482   8.174   1.570  0.0693 -0.2049  0.2683
  959MOL0     C32259   3.852   8.419   1.417 -0.6271  0.0587  0.3428
  959MOL0     C32260   3.975   8.472   1.461 -0.5858 -0.4724  0.0661
  959MOL0     C32261   4.020   8.599   1.442 -0.3284  0.2479 -0.0382
  959MOL0     C32262   3.934   8.685   1.375 -0.3108  0.1255 -0.0364
  959MOL0     O32263   3.996   8.811   1.367  0.0877  0.0183  0.2792
  959MOL0     C32264   3.948   8.903   1.267 -0.6594 -1.4769 -0.9423
  959MOL0     C32265   3.912   9.031   1.347  1.0805  0.7173  0.7245
  959MOL0     C32266   4.036   9.086   1.401  0.1466 -0.5312 -0.5100
  959MOL0     C32267   4.013   9.240   1.424 -0.3728 -0.6228 -0.6755
  959MOL0     C32268   4.094   9.281   1.538  0.5968 -0.3083  0.1655
  959MOL0     C32269   4.162   9.321   1.622  0.7093 -0.0228  0.7026
  959MOL0     C32270   3.805   8.642   1.329 -0.4817  0.3384 -0.4907
  959MOL0     C32271   3.763   8.508   1.343 -0.5531 -0.8990 -0.2619
  959MOL0     C32272   3.631   8.473   1.293  0.5418 -0.0417  0.0174
  959MOL0     H32273   3.785   8.109   1.699 -0.4097  0.2668  0.1442
  959MOL0     H32274   3.663   7.963   1.834 -0.8644  1.0003  1.7169
  959MOL0     H32275   3.347   7.817   1.652  0.9580 -3.0758  0.1252
  959MOL0     H32276   3.224   7.897   1.764  2.8281  4.8862  1.3126
  959MOL0     H32277   3.387   7.652   1.809  0.0475 -1.5981  1.3690
  959MOL0     H32278   3.297   7.716   1.941 -1.8886 -2.0800  1.1471
  959MOL0     H32279   3.178   7.523   1.837 -2.1266 -0.6899 -1.6631
  959MOL0     H32280   3.096   7.676   1.855 -1.0953 -1.9277  1.3118
  959MOL0     H32281   3.116   7.737   1.632  0.9559  1.8890  4.0182
  959MOL0     H32282   3.234   7.611   1.590  0.0799 -2.4339  1.4497
  959MOL0     H32283   2.944   7.556   1.666  0.2442 -1.2556  0.9943
  959MOL0     H32284   3.068   7.431   1.624  0.8649  0.1285  2.1849
  959MOL0     H32285   2.968   7.666   1.452 -0.2806  1.2254  2.8766
  959MOL0     H32286   3.106   7.572   1.415 -1.1965 -1.6044 -0.2348
  959MOL0     H32287   2.974   7.363   1.406 -0.2838 -0.1012 -1.6354
  959MOL0     H32288   2.915   7.488   1.296 -0.5817 -3.8554 -0.5305
  959MOL0     H32289   2.792   7.431   1.580  2.2748  0.4681  0.4451
  959MOL0     H32290   2.752   7.550   1.461  0.2157 -0.1660  2.3694
  959MOL0     H32291   2.729   7.423   1.198 -1.0426  0.3776 -0.5585
  959MOL0     H32292   2.502   7.191   1.081 -1.1159 -0.3130  0.6808
  959MOL0     H32293   2.554   7.357   1.032  2.1217 -2.2328 -1.0619
  959MOL0     H32294   2.284   7.264   1.152 -1.2269  1.0278 -0.6877
  959MOL0     H32295   2.322   7.434   1.147 -1.2517 -0.6881  0.0237
  959MOL0     H32296   2.188   7.400   0.966 -0.5075  1.0127 -1.1878
  959MOL0     H32297   2.348   7.391   0.883 -0.8362 -0.3916  0.0461
  959MOL0     H32298   2.225   7.210   0.795 -2.5559 -0.0481  1.3495
  959MOL0     H32299   2.356   7.148   0.898  1.9401  2.3995  2.2715
  959MOL0     H32300   1.995   6.959   1.088 -1.6493  0.0714  0.2366
  959MOL0     H32301   1.799   6.871   1.155  2.1401 -0.2479 -0.9501
  959MOL0     H32302   1.663   6.889   1.032 -0.2614  1.9478 -2.5419
  959MOL0     H32303   1.666   6.984   1.171 -0.2564 -2.4937  0.8985
  959MOL0     H32304   1.399   7.217   0.756 -1.8574 -0.7053 -0.9455
  959MOL0     H32305   1.142   7.253   0.745 -0.1895 -4.3342  0.7020
  959MOL0     H32306   0.854   7.464   0.940  1.3366  2.1201  0.3307
  959MOL0     H32307   0.998   7.508   0.858 -0.7135 -0.5053 -1.5485
  959MOL0     H32308   0.821   7.436   0.703 -0.5586 -1.0163 -3.1287
  959MOL0     H32309   0.966   7.337   0.690 -0.4671 -2.6873 -0.2087
  959MOL0     H32310   0.698   7.251   0.818 -0.5759  1.6235 -3.6303
  959MOL0     H32311   0.841   7.157   0.863  1.0217 -1.4892 -2.8039
  959MOL0     H32312   0.909   7.121   0.632 -0.0824 -1.5480  0.6398
  959MOL0     H32313   0.766   7.211   0.578 -0.6370  0.1915 -0.6341
  959MOL0     H32314   0.634   7.018   0.713  0.0383 -0.3673  0.6800
  959MOL0     H32315   0.698   6.978   0.557  0.0256 -1.2705  0.8233
  959MOL0     H32316   0.727   6.807   0.731 -0.5364  1.7495 -0.1591
  959MOL0     H32317   0.824   6.917   0.816 -0.0467  3.5650 -1.5576
  959MOL0     H32318   1.014   6.915   0.651  0.5641  0.7644 -2.5139
  959MOL0     H32319   0.899   6.867   0.522  0.9377  5.7094  0.0450
  959MOL0     H32320   1.042   6.699   0.721 -0.0951 -0.3689  0.1750
  959MOL0     H32321   1.043   6.705   0.547 -1.7270  1.8221 -0.1177
  959MOL0     H32322   1.142   7.323   1.167 -2.1857  5.7120 -2.4274
  959MOL0     H32323   1.388   7.334   1.174 -2.8190  4.5079  0.2291
  959MOL0     H32324   1.797   7.309   0.812 -1.0926 -0.3321  0.1249
  959MOL0     H32325   2.033   7.317   0.855  1.1653 -1.0954  0.2345
  959MOL0     H32326   3.307   8.094   1.658 -0.1506  0.6112 -1.8367
  959MOL0     H32327   3.429   8.246   1.508 -0.1134 -0.6884 -0.1387
  959MOL0     H32328   4.039   8.418   1.530 -0.0366  0.7019  0.5220
  959MOL0     H32329   4.111   8.641   1.482 -0.4599  0.5992 -0.1023
  959MOL0     H32330   4.023   8.936   1.195 -0.3365  4.1241  1.4547
  959MOL0     H32331   3.863   8.874   1.204  0.3066 -0.5218 -2.7449
  959MOL0     H32332   3.842   8.989   1.421  1.9028 -0.7788  0.6883
  959MOL0     H32333   3.853   9.096   1.282  0.2833 -2.5384 -2.1351
  959MOL0     H32334   4.057   9.033   1.494 -1.0252  2.3931  1.6024
  959MOL0     H32335   4.120   9.067   1.333 -2.2675  1.4183 -4.4662
  959MOL0     H32336   3.908   9.264   1.444  0.0624  1.3929 -0.6186
  959MOL0     H32337   4.042   9.293   1.333  0.2091  0.3460  0.0606
  959MOL0     H32338   4.218   9.353   1.708  1.8287 -1.4316  0.5205
  959MOL0     H32339   3.735   8.712   1.284 -1.7682 -0.2465  0.5368
  959MOL0     H32340   3.602   8.539   1.211  4.0501  1.6434 -0.0324
  959MOL0     H32341   3.628   8.371   1.254  2.8009  0.4156 -1.5493
  959MOL0     H32342   3.552   8.497   1.364  1.3785  0.9373  0.6380
  960MOL0     O32343   3.841   1.328  10.517 -0.2844  0.4871  0.6030
  960MOL0     C32344   3.927   1.415  10.508 -0.1977 -0.2717 -0.3753
  960MOL0     O32345   4.032   1.410  10.422 -0.0519 -0.2327  0.4781
  960MOL0     C32346   4.112   1.519  10.403 -0.0412  0.8705 -0.5040
  960MOL0     C32347   4.091   1.630  10.318  0.8506 -0.0435 -0.0808
  960MOL0     C32348   4.182   1.733  10.297 -0.5177  0.2284 -0.1653
  960MOL0     C32349   4.315   1.724  10.350  0.5699 -0.7537 -0.6004
  960MOL0     O32350   4.391   1.839  10.347 -0.7958  0.0068 -0.0108
  960MOL0     C32351   4.525   1.837  10.399 -0.2157 -0.0392 -0.5388
  960MOL0     C32352   4.606   1.957  10.365 -0.1654  0.1831 -0.0829
  960MOL0     C32353   4.554   2.083  10.433  0.8725  0.0251  0.2255
  960MOL0     C32354   4.590   2.204  10.352 -0.2111  0.2147  0.4472
  960MOL0     C32355   4.551   2.349  10.408 -0.2183  0.0713  0.1543
  960MOL0     C32356   4.628   2.465  10.342  0.7386  0.7654  0.2216
  960MOL0     C32357   4.758   2.484  10.417 -0.0198  0.7152  0.0036
  960MOL0     C32358   4.815   2.616  10.378  0.0393 -0.2538 -0.1064
  960MOL0     N32359   4.784   2.720  10.476  0.0547 -0.0772 -0.1798
  960MOL0     C32360   4.663   2.789  10.498  0.2960 -0.0484 -0.3647
  960MOL0     C32361   4.686   2.907  10.563  0.4983  0.6834 -0.8473
  960MOL0     C32362   4.581   3.014  10.592 -0.3968  0.0209 -0.1283
  960MOL0     C32363   4.512   3.071  10.461 -0.7840  0.9727  0.2909
  960MOL0     C32364   4.596   3.148  10.363  1.0107  0.0953  0.0570
  960MOL0     C32365   4.685   3.266  10.419  0.4843  0.3397  0.6546
  960MOL0     O32366   4.771   3.331  10.321  0.4491 -0.1924  0.3239
  960MOL0     C32367   4.877   3.270  10.259  0.2058 -0.1744 -0.5096
  960MOL0     C32368   4.938   3.150  10.305 -1.0375 -0.2379 -0.4317
  960MOL0     C32369   5.054   3.101  10.244  0.2462  1.4564  0.0709
  960MOL0     C32370   5.117   2.969  10.302 -0.0707  0.2826 -0.6473
  960MOL0     C32371   5.104   3.170  10.125  0.0795  0.2104 -0.1310
  960MOL0     C32372   5.223   3.125  10.044  0.0268  0.1914  0.3453
  960MOL0     O32373   5.277   3.219   9.960  0.8454  0.0276  0.2349
  960MOL0     C32374   5.379   3.192   9.877  0.1083 -0.1405 -0.0788
  960MOL0     C32375   5.473   3.289   9.845  0.2511  0.1319  0.0252
  960MOL0     C32376   5.568   3.260   9.746 -0.0452 -0.0827  0.4897
  960MOL0     C32377   5.568   3.145   9.669  0.6624 -0.2387  0.4112
  960MOL0     O32378   5.662   3.121   9.576 -0.0868 -0.5969 -0.0943
  960MOL0     C32379   5.631   3.031   9.477 -0.1046  0.2198  0.5220
  960MOL0     C32380   5.747   3.039   9.371 -0.7540  0.2054 -0.2376
  960MOL0     C32381   5.704   2.968   9.241  0.2785  0.4332  0.1648
  960MOL0     C32382   5.829   2.908   9.169 -0.8156  0.6546  0.2587
  960MOL0     C32383   5.793   2.866   9.032  0.6868  0.5240 -0.1935
  960MOL0     C32384   5.886   2.773   8.966 -0.3969 -0.2652  0.0102
  960MOL0     C32385   5.871   2.745   8.815  0.1070 -0.3630 -0.7098
  960MOL0     C32386   5.969   2.644   8.768  0.5299 -0.0083  0.1514
  960MOL0    Cl32387   5.963   2.621   8.593 -0.2641 -0.1937  0.2786
  960MOL0     C32388   5.461   3.053   9.697  0.6056 -0.3110 -0.4223
  960MOL0     C32389   5.372   3.077   9.796  0.2691  0.7022 -0.1070
  960MOL0     O32390   5.268   3.010  10.045  0.5818 -0.3785 -0.2913
  960MOL0     C32391   5.041   3.288  10.085  0.8033  1.4250  1.0041
  960MOL0     C32392   4.932   3.339  10.151  0.3030 -0.6656  0.8300
  960MOL0     N32393   4.817   2.894  10.600  0.0708 -0.5836 -0.0100
  960MOL0     N32394   4.872   2.796  10.547 -0.9766  0.4355  0.4678
  960MOL0     C32395   4.348   1.611  10.430  0.1057  0.0312  0.1004
  960MOL0     C32396   4.248   1.509  10.456  0.1475  0.6526 -0.2704
  960MOL0     C32397   3.910   1.531  10.595 -0.3411 -0.0339  0.5909
  960MOL0     C32398   3.840   1.650  10.546 -0.3639  0.5404  0.2808
  960MOL0     C32399   3.835   1.761  10.622  0.2800 -0.6090 -0.2291
  960MOL0     C32400   3.895   1.770  10.753  0.0836  0.6963 -0.1834
  960MOL0     O32401   3.897   1.891  10.816  0.8342 -0.7727  0.3341
  960MOL0     C32402   3.908   1.894  10.961 -0.0041 -0.2109  0.0773
  960MOL0     C32403   3.859   2.028  11.016  0.9302 -0.5522  0.4974
  960MOL0     C32404   3.704   2.033  10.992  1.4373  0.5935 -0.0051
  960MOL0     C32405   3.650   2.173  11.017 -0.5911  0.8802  0.0794
  960MOL0     C32406   3.631   2.201  11.159 -0.0189 -0.4223 -1.0299
  960MOL0     C32407   3.630   2.223  11.283  0.1988 -1.4071  0.0091
  960MOL0     C32408   3.961   1.653  10.799  0.5581 -0.7010  0.1022
  960MOL0     C32409   3.960   1.534  10.726  0.0585 -0.1406 -0.3359
  960MOL0     C32410   4.032   1.417  10.784 -0.4341  0.5408 -0.3060
  960MOL0     H32411   3.993   1.638  10.272  0.9596  2.2365 -0.0249
  960MOL0     H32412   4.163   1.815  10.229  3.0586  0.8366 -0.5912
  960MOL0     H32413   4.582   1.748  10.371 -1.3782 -1.8224  2.3863
  960MOL0     H32414   4.518   1.828  10.508  2.3221 -1.8897 -0.4475
  960MOL0     H32415   4.715   1.952  10.375 -0.1176 -0.4240 -0.8288
  960MOL0     H32416   4.601   1.966  10.256  0.1539 -2.8286 -0.4354
  960MOL0     H32417   4.446   2.091  10.448  1.0255  0.8254  0.9416
  960MOL0     H32418   4.612   2.100  10.523 -1.5926 -0.0920  1.9361
  960MOL0     H32419   4.698   2.189  10.339 -0.5272 -2.5803  0.5939
  960MOL0     H32420   4.541   2.198  10.255  0.4873  1.3911 -0.0104
  960MOL0     H32421   4.562   2.355  10.517  2.4980 -2.1083  0.0948
  960MOL0     H32422   4.445   2.370  10.386 -0.1452  0.1557 -0.1245
  960MOL0     H32423   4.646   2.453  10.235  1.9824 -0.0827  0.5121
  960MOL0     H32424   4.567   2.554  10.361  1.7619  0.8411  4.1692
  960MOL0     H32425   4.839   2.420  10.380 -1.2604 -1.4812  0.9264
  960MOL0     H32426   4.742   2.473  10.524  3.6673 -2.0532  0.4864
  960MOL0     H32427   4.924   2.616  10.369  0.0913 -0.1986  0.4992
  960MOL0     H32428   4.774   2.654  10.283  1.1066 -0.2535 -0.5814
  960MOL0     H32429   4.572   2.758  10.447 -0.1014  4.1203 -2.6433
  960MOL0     H32430   4.626   3.094  10.652 -0.4521  0.1775 -0.2942
  960MOL0     H32431   4.508   2.978  10.664  2.3079 -0.2675  2.6528
  960MOL0     H32432   4.451   2.999  10.405 -0.1087 -0.0893  0.8930
  960MOL0     H32433   4.446   3.146  10.504 -0.7035  2.4763 -2.0287
  960MOL0     H32434   4.666   3.089  10.304 -0.8353 -0.7614 -1.3788
  960MOL0     H32435   4.521   3.194  10.297  1.0427 -0.6149 -0.4845
  960MOL0     H32436   4.619   3.343  10.460 -0.3647  1.6690 -2.8831
  960MOL0     H32437   4.744   3.224  10.502  0.0005 -4.8921 -1.2644
  960MOL0     H32438   4.907   3.114  10.402  0.2940  0.3024  0.2171
  960MOL0     H32439   5.185   2.992  10.384 -0.7602 -1.4226  0.4634
  960MOL0     H32440   5.174   2.898  10.241  1.8993 -0.1527  1.5324
  960MOL0     H32441   5.037   2.907  10.343 -2.9320  1.4102 -4.0325
  960MOL0     H32442   5.450   3.385   9.890 -0.6084  2.2296 -4.3286
  960MOL0     H32443   5.648   3.327   9.716  0.8986 -1.9866 -1.4683
  960MOL0     H32444   5.616   2.931   9.520 -1.6857  1.1720  2.3522
  960MOL0     H32445   5.536   3.062   9.432  0.5765  4.3661  1.5459
  960MOL0     H32446   5.771   3.142   9.344 -0.9349  0.4655  0.5774
  960MOL0     H32447   5.835   2.983   9.402  0.3973  0.6289 -2.4840
  960MOL0     H32448   5.656   3.045   9.180 -0.1050 -0.6484 -0.9432
  960MOL0     H32449   5.635   2.886   9.258 -0.3433  0.6057 -1.3513
  960MOL0     H32450   5.854   2.816   9.222  0.0341  0.3801 -0.5770
  960MOL0     H32451   5.921   2.967   9.169 -0.9803  0.9964 -1.9844
  960MOL0     H32452   5.694   2.820   9.029  2.6712 -4.5286  1.3444
  960MOL0     H32453   5.781   2.954   8.969 -0.8358 -1.0073 -2.1484
  960MOL0     H32454   5.880   2.677   9.017 -2.3050  0.8263  1.9652
  960MOL0     H32455   5.983   2.820   8.983 -1.2990  1.0504  1.8584
  960MOL0     H32456   5.882   2.838   8.758 -1.8366 -0.3100 -1.0547
  960MOL0     H32457   5.767   2.717   8.797  0.1708 -0.8565 -0.3160
  960MOL0     H32458   5.949   2.546   8.812 -2.4009  0.5278  0.2161
  960MOL0     H32459   6.072   2.666   8.797  0.0082  1.0547  1.2936
  960MOL0     H32460   5.448   2.965   9.634  1.2149  0.7973 -2.1802
  960MOL0     H32461   5.284   3.013   9.806 -0.0152  1.2938  1.5033
  960MOL0     H32462   5.071   3.337   9.993  3.0508 -2.0148 -0.2939
  960MOL0     H32463   4.883   3.433  10.128 -0.0820 -1.0417  0.0620
  960MOL0     H32464   4.440   1.606  10.487 -0.2341  1.6908  0.8537
  960MOL0     H32465   4.285   1.424  10.512 -1.7368 -2.4508 -3.3347
  960MOL0     H32466   3.792   1.639  10.449  2.6131 -0.3348 -1.2433
  960MOL0     H32467   3.785   1.855  10.603  0.7223 -0.1995  0.5563
  960MOL0     H32468   3.858   1.809  11.009 -2.2942  1.0641  0.1047
  960MOL0     H32469   4.012   1.875  10.988  0.0849 -0.3969 -0.3876
  960MOL0     H32470   3.921   2.099  10.962  0.5665 -0.5732  0.0496
  960MOL0     H32471   3.874   2.037  11.124  1.7891  0.2366  0.3232
  960MOL0     H32472   3.690   2.011  10.886 -0.0777  2.1649 -0.1943
  960MOL0     H32473   3.648   1.962  11.054  0.3153  0.7803 -0.7680
  960MOL0     H32474   3.555   2.192  10.966 -1.0698  0.8558  0.9513
  960MOL0     H32475   3.722   2.241  10.971 -3.2979  2.8231 -1.6366
  960MOL0     H32476   3.620   2.236  11.389  1.5354  0.9474 -0.0951
  960MOL0     H32477   4.016   1.647  10.892  0.6380  0.0102  0.1031
  960MOL0     H32478   4.131   1.398  10.741 -0.6827 -0.4484 -0.4691
  960MOL0     H32479   4.060   1.425  10.889  1.1100 -2.8891 -0.3071
  960MOL0     H32480   3.967   1.330  10.782  0.9938 -0.8731  4.1362
  961MOL0     O32481   5.842   6.816   0.456 -0.0252  0.7142  0.1951
  961MOL0     C32482   5.834   6.939   0.470 -0.0239  0.2054  0.0828
  961MOL0     O32483   5.918   7.023   0.538 -0.1118  0.0210 -0.1775
  961MOL0     C32484   6.033   6.962   0.573 -0.2546  0.0411  0.6466
  961MOL0     C32485   6.154   7.028   0.550  0.9977 -0.0937  0.4390
  961MOL0     C32486   6.276   6.981   0.591  0.4600  0.5438  0.2225
  961MOL0     C32487   6.274   6.868   0.678  0.0430  1.1365 -0.4842
  961MOL0     O32488   6.386   6.809   0.729 -0.1157 -1.0919 -0.3766
  961MOL0     C32489   6.503   6.885   0.723  0.1638  0.3578 -0.7547
  961MOL0     C32490   6.610   6.817   0.802 -0.2102 -0.0213  0.6629
  961MOL0     C32491   6.739   6.879   0.767  0.0815  0.8671 -0.7022
  961MOL0     C32492   6.863   6.812   0.823  0.2725  1.0280  0.1816
  961MOL0     C32493   6.891   6.670   0.769 -0.6170 -1.1382  0.6642
  961MOL0     C32494   7.013   6.601   0.839 -0.3545 -0.0828  0.2174
  961MOL0     C32495   7.147   6.635   0.767 -0.6060 -0.2005 -0.2722
  961MOL0     C32496   7.275   6.576   0.824  0.6328 -1.0675 -0.1259
  961MOL0     N32497   7.401   6.626   0.757  0.3502 -0.1447 -0.3886
  961MOL0     C32498   7.513   6.658   0.826  0.5743 -0.5415  1.0319
  961MOL0     C32499   7.600   6.717   0.732  0.1868 -0.6451  0.4513
  961MOL0     C32500   7.729   6.782   0.762 -0.3669  0.1355  0.8618
  961MOL0     C32501   7.765   6.889   0.656 -0.4397 -0.4213 -0.0811
  961MOL0     C32502   7.846   7.001   0.718 -0.1059 -0.0818  0.4906
  961MOL0     C32503   7.993   6.950   0.733  0.4725 -0.0033  0.5637
  961MOL0     O32504   7.999   6.860   0.836 -0.2971  0.6455  0.2471
  961MOL0     C32505   8.121   6.811   0.863 -0.1099  0.2747  0.2747
  961MOL0     C32506   8.236   6.887   0.890  0.0987 -0.3936  0.1625
  961MOL0     C32507   8.357   6.825   0.922 -0.6196 -0.2989  0.2119
  961MOL0     C32508   8.472   6.915   0.956 -0.4152  0.3759  1.1702
  961MOL0     C32509   8.370   6.684   0.932  1.1515 -0.2440  1.1988
  961MOL0     C32510   8.504   6.617   0.965  0.6479  0.9030  0.4419
  961MOL0     O32511   8.508   6.487   0.921 -0.0988  0.3568 -0.0155
  961MOL0     C32512   8.622   6.409   0.949  0.8860  0.0374 -0.7968
  961MOL0     C32513   8.648   6.360   1.073 -0.0029 -0.0207 -0.2242
  961MOL0     C32514   8.771   6.300   1.090 -0.4170  0.8285  0.4021
  961MOL0     C32515   8.856   6.268   0.987  0.9426 -0.1558  0.4028
  961MOL0     O32516   8.966   6.202   1.000  0.0867 -0.5300  0.2931
  961MOL0     C32517   8.975   6.110   1.098 -0.2884 -0.6351  0.0634
  961MOL0     C32518   9.091   6.016   1.062 -0.1531  0.1998  0.0245
  961MOL0     C32519   9.076   5.947   0.922  0.3460  1.5856 -1.0275
  961MOL0     C32520   9.164   5.818   0.921 -0.1311 -0.0138  0.1760
  961MOL0     C32521   9.161   5.753   0.782  0.1056 -0.0683 -1.3570
  961MOL0     C32522   9.223   5.616   0.781  0.4577  0.4980 -0.7349
  961MOL0     C32523   9.232   5.542   0.647 -0.4580  0.0813  0.8274
  961MOL0     C32524   9.222   5.394   0.662  0.1514 -0.4640 -0.2448
  961MOL0    Cl32525   9.329   5.327   0.782  0.3008 -0.4333 -0.3392
  961MOL0     C32526   8.829   6.323   0.862  0.1505 -0.1888  0.2497
  961MOL0     C32527   8.710   6.391   0.841 -0.1391 -0.4776 -0.2624
  961MOL0     O32528   8.602   6.681   1.010  0.3319 -0.3301  0.9089
  961MOL0     C32529   8.256   6.598   0.912 -0.4198 -0.3213 -0.2760
  961MOL0     C32530   8.138   6.667   0.872  0.2486  0.3882  0.4996
  961MOL0     N32531   7.524   6.730   0.616  0.4683  0.0765  0.5580
  961MOL0     N32532   7.404   6.681   0.634  0.2523  0.1853 -0.2192
  961MOL0     C32533   6.155   6.819   0.712  0.5717  0.4162 -0.3161
  961MOL0     C32534   6.030   6.872   0.672 -0.0252  0.9342  0.0044
  961MOL0     C32535   5.729   7.007   0.392  0.2945 -0.7010 -0.7446
  961MOL0     C32536   5.727   7.153   0.383  0.0904  0.3060 -0.4432
  961MOL0     C32537   5.633   7.230   0.317  0.1835  0.0897 -0.0449
  961MOL0     C32538   5.532   7.166   0.247 -0.0111 -0.5409 -0.1277
  961MOL0     O32539   5.425   7.236   0.182 -0.1113  0.6570 -0.4643
  961MOL0     C32540   5.440   7.375   0.136  0.4889  1.0674 -0.0129
  961MOL0     C32541   5.347   7.385   0.015 -0.5821 -0.4368 -0.6393
  961MOL0     C32542   5.198   7.408   0.052 -0.1515  0.6099  0.3499
  961MOL0     C32543   5.103   7.420  -0.072 -0.1445 -0.1946 -0.7823
  961MOL0     C32544   5.123   7.300  -0.154 -0.1473  0.2082 -0.3125
  961MOL0     C32545   5.135   7.198  -0.219  0.0464 -0.0329  0.5779
  961MOL0     C32546   5.531   7.025   0.256 -0.3564  0.0195  0.9898
  961MOL0     C32547   5.617   6.940   0.330 -0.6153 -0.5046  0.1229
  961MOL0     C32548   5.585   6.792   0.328 -0.5623 -0.0106 -0.2919
  961MOL0     H32549   6.141   7.120   0.495  2.1109 -0.9955 -1.4486
  961MOL0     H32550   6.355   7.047   0.557 -0.4449  1.9198  0.7027
  961MOL0     H32551   6.488   6.982   0.771  1.1872  0.0019  0.3356
  961MOL0     H32552   6.537   6.891   0.619  0.1217  0.5653 -0.7568
  961MOL0     H32553   6.598   6.821   0.911  1.1711 -0.2163  0.8468
  961MOL0     H32554   6.620   6.711   0.780  1.2260  0.2374 -0.0558
  961MOL0     H32555   6.760   6.893   0.661  3.3143  1.4701 -0.0753
  961MOL0     H32556   6.731   6.980   0.807 -0.2211 -0.2168  2.2591
  961MOL0     H32557   6.945   6.883   0.811  0.2565  0.7956 -1.4443
  961MOL0     H32558   6.851   6.810   0.932  1.4723  1.3190  0.3320
  961MOL0     H32559   6.902   6.675   0.660  0.4326 -0.8446  0.7740
  961MOL0     H32560   6.806   6.601   0.769 -0.6337 -1.2355 -1.8873
  961MOL0     H32561   7.016   6.644   0.939 -2.0850  1.6578 -0.3986
  961MOL0     H32562   7.001   6.493   0.833  2.5028 -0.4267 -0.5135
  961MOL0     H32563   7.162   6.743   0.772  1.4588 -0.3316 -2.0981
  961MOL0     H32564   7.131   6.598   0.666  1.1228  1.0447 -1.0494
  961MOL0     H32565   7.288   6.594   0.931 -1.0975 -4.6338  0.8439
  961MOL0     H32566   7.274   6.466   0.822 -0.5363 -1.0781  0.1058
  961MOL0     H32567   7.534   6.654   0.932 -2.5821  1.0795  1.8380
  961MOL0     H32568   7.818   6.719   0.773 -0.7968 -0.5870  0.2385
  961MOL0     H32569   7.721   6.825   0.862 -2.0648  1.5299  0.1749
  961MOL0     H32570   7.813   6.839   0.572  0.5482  1.4785 -0.7156
  961MOL0     H32571   7.684   6.948   0.612  0.7387 -0.0090 -1.7743
  961MOL0     H32572   7.842   7.088   0.653 -1.5721  1.0229  1.9753
  961MOL0     H32573   7.806   7.034   0.814  1.8909  1.9138  0.7202
  961MOL0     H32574   8.031   6.906   0.640 -0.9185 -0.3632  0.1384
  961MOL0     H32575   8.054   7.039   0.752 -0.1403  0.5713 -0.1190
  961MOL0     H32576   8.224   6.994   0.878 -2.4581 -0.7584 -1.2337
  961MOL0     H32577   8.557   6.911   0.887  0.3837  1.3518  2.0475
  961MOL0     H32578   8.509   6.896   1.058  1.2229  1.9447  0.9307
  961MOL0     H32579   8.441   7.020   0.966 -2.3667 -0.0889  0.3514
  961MOL0     H32580   8.584   6.374   1.159 -0.6296 -0.6380 -0.5864
  961MOL0     H32581   8.800   6.262   1.188 -1.9613 -1.2316  0.1325
  961MOL0     H32582   9.001   6.164   1.190 -2.3690  3.1640 -1.3756
  961MOL0     H32583   8.886   6.052   1.124  0.0329 -0.5690  1.4065
  961MOL0     H32584   9.187   6.069   1.062  0.4677 -0.8841  1.1051
  961MOL0     H32585   9.109   5.945   1.143 -0.2160  3.0953  2.7875
  961MOL0     H32586   9.093   6.014   0.837  0.0561  3.1551  0.0999
  961MOL0     H32587   8.974   5.907   0.917  1.2488 -1.0484 -0.0000
  961MOL0     H32588   9.133   5.760   1.008 -4.3467  4.3040  2.0543
  961MOL0     H32589   9.270   5.841   0.933 -0.5321  2.1169  0.0812
  961MOL0     H32590   9.056   5.746   0.752 -0.2174  3.2186 -1.3800
  961MOL0     H32591   9.225   5.814   0.718  1.7904  1.6750  1.6949
  961MOL0     H32592   9.157   5.557   0.845  0.8896  1.6860  0.8790
  961MOL0     H32593   9.318   5.623   0.836  0.8953 -1.8043 -1.0862
  961MOL0     H32594   9.324   5.562   0.591 -1.3974 -1.1300 -1.2600
  961MOL0     H32595   9.154   5.566   0.575  0.6516  0.5404 -0.2676
  961MOL0     H32596   9.245   5.342   0.568  1.7865  0.7012 -0.5372
  961MOL0     H32597   9.121   5.373   0.696  0.7881  1.3407  3.1915
  961MOL0     H32598   8.895   6.304   0.778 -0.6302  0.4545 -0.5349
  961MOL0     H32599   8.685   6.435   0.744 -2.0763  0.9364  0.8037
  961MOL0     H32600   8.264   6.490   0.918 -0.9465 -0.2757  2.0587
  961MOL0     H32601   8.060   6.598   0.843 -1.4113  2.3103  0.1206
  961MOL0     H32602   6.163   6.750   0.795  0.8582  0.4808 -0.2862
  961MOL0     H32603   5.934   6.847   0.715 -0.6295 -1.0126 -2.2915
  961MOL0     H32604   5.809   7.202   0.435 -0.5759  0.5454  0.3981
  961MOL0     H32605   5.644   7.337   0.311  0.9052  0.0799  0.9096
  961MOL0     H32606   5.407   7.443   0.214 -1.1579  1.0566 -0.6764
  961MOL0     H32607   5.547   7.398   0.125  1.6545 -2.3164  2.3869
  961MOL0     H32608   5.367   7.294  -0.043  0.4620  1.2284 -3.0967
  961MOL0     H32609   5.370   7.466  -0.055 -0.8915 -1.1934 -1.6372
  961MOL0     H32610   5.173   7.323   0.117  3.8803  0.1483  1.5839
  961MOL0     H32611   5.186   7.501   0.108 -0.9356  1.6862 -1.5419
  961MOL0     H32612   5.135   7.509  -0.127  0.9422 -0.8658 -1.2748
  961MOL0     H32613   5.003   7.429  -0.028  0.2919 -2.9017  1.0525
  961MOL0     H32614   5.131   7.100  -0.263  2.7642  0.1846 -0.3165
  961MOL0     H32615   5.457   6.973   0.197  1.0871 -3.1564  1.7810
  961MOL0     H32616   5.511   6.774   0.250  1.1506 -0.0848 -1.9865
  961MOL0     H32617   5.672   6.733   0.296 -1.0726  0.5718 -3.0034
  961MOL0     H32618   5.557   6.760   0.429 -0.8367  0.2079 -0.2994
  962MOL0     O32619   6.102   7.975   4.527 -0.1615  0.9301 -0.1208
  962MOL0     C32620   6.121   8.029   4.635  1.2605  0.7475 -0.0207
  962MOL0     O32621   6.205   8.136   4.656  0.7556 -0.8010  0.4890
  962MOL0     C32622   6.262   8.198   4.548  0.1620  0.0180  0.4987
  962MOL0     C32623   6.198   8.226   4.425  0.3624 -0.3238  0.4212
  962MOL0     C32624   6.252   8.309   4.323 -0.7940  0.4124  0.6011
  962MOL0     C32625   6.379   8.375   4.351  0.3581  0.6648 -1.1853
  962MOL0     O32626   6.445   8.446   4.253 -0.0472  0.9493 -0.4679
  962MOL0     C32627   6.376   8.546   4.170 -0.0848 -0.5603 -0.6359
  962MOL0     C32628   6.468   8.667   4.153 -0.0057  0.1907  0.5286
  962MOL0     C32629   6.493   8.733   4.288 -0.6456  0.7843 -0.5462
  962MOL0     C32630   6.606   8.843   4.289  0.4923 -0.2975  0.3374
  962MOL0     C32631   6.648   8.874   4.426 -0.3599 -0.4632 -0.6915
  962MOL0     C32632   6.746   8.766   4.492 -1.1622 -1.3400 -0.2091
  962MOL0     C32633   6.792   8.804   4.634  0.0506 -0.6294 -0.4555
  962MOL0     C32634   6.880   8.696   4.690 -0.8979 -0.0812  0.2694
  962MOL0     N32635   6.826   8.558   4.699  0.5131 -0.1423 -0.3218
  962MOL0     C32636   6.869   8.449   4.629  1.1853  1.1141 -0.5114
  962MOL0     C32637   6.789   8.346   4.673 -0.8816 -0.1752  0.5736
  962MOL0     C32638   6.781   8.203   4.626  0.2149  0.3625  0.3938
  962MOL0     C32639   6.797   8.097   4.743  0.3337  0.2819  0.4911
  962MOL0     C32640   6.938   8.085   4.780  0.0539  0.5257  0.6832
  962MOL0     C32641   6.960   7.973   4.873  0.6705 -0.2856 -0.3892
  962MOL0     O32642   7.098   7.971   4.909  0.3869  0.3362  0.0414
  962MOL0     C32643   7.170   7.857   4.880  0.5174 -0.2006 -0.7713
  962MOL0     C32644   7.306   7.854   4.898 -1.1015 -0.3114  0.5577
  962MOL0     C32645   7.399   7.746   4.878  0.6402 -0.2540  0.1852
  962MOL0     C32646   7.547   7.776   4.902 -0.3946 -0.0390 -0.1448
  962MOL0     C32647   7.345   7.620   4.852 -0.0759 -0.0458  0.3374
  962MOL0     C32648   7.431   7.502   4.856 -0.0153 -0.2461 -0.0933
  962MOL0     O32649   7.549   7.505   4.784  0.9481 -0.2151  0.6727
  962MOL0     C32650   7.638   7.401   4.800 -0.9886 -0.1633 -0.5488
  962MOL0     C32651   7.730   7.408   4.903  0.2095 -0.5904  0.2976
  962MOL0     C32652   7.823   7.302   4.921 -1.0110 -0.0080 -0.4383
  962MOL0     C32653   7.789   7.180   4.856 -1.2864 -0.5919  0.3569
  962MOL0     O32654   7.865   7.061   4.878  0.2029 -0.5901 -1.6293
  962MOL0     C32655   8.009   7.075   4.883  0.5758  0.7582  1.4859
  962MOL0     C32656   8.073   6.939   4.875  0.4643  0.6544 -0.2254
  962MOL0     C32657   8.087   6.896   4.734 -0.4219 -0.2176  0.7763
  962MOL0     C32658   8.186   6.777   4.719 -0.3765 -1.2141  0.4779
  962MOL0     C32659   8.147   6.645   4.780 -0.1752  0.6748 -0.1519
  962MOL0     C32660   8.254   6.547   4.805 -0.2346  0.9814 -0.7245
  962MOL0     C32661   8.312   6.556   4.950 -1.0413  1.2505  0.1595
  962MOL0     C32662   8.465   6.526   4.945  0.5884 -0.0305  0.6093
  962MOL0    Cl32663   8.559   6.573   5.087  0.0414  0.0766 -0.2506
  962MOL0     C32664   7.696   7.172   4.761 -0.7719  0.4754  0.5386
  962MOL0     C32665   7.638   7.293   4.713 -0.2111 -0.0281  0.3435
  962MOL0     O32666   7.373   7.401   4.896  0.1305 -0.1186  0.6446
  962MOL0     C32667   7.205   7.617   4.820 -0.3583 -1.0489  0.1285
  962MOL0     C32668   7.121   7.725   4.837  0.2397  0.4617 -0.0389
  962MOL0     N32669   6.704   8.389   4.774 -0.0538  1.1504 -0.0231
  962MOL0     N32670   6.730   8.512   4.793 -0.2357 -0.4057  0.2353
  962MOL0     C32671   6.449   8.340   4.474  0.4594  0.6267  0.4579
  962MOL0     C32672   6.388   8.258   4.567  0.4320  0.9904 -0.5351
  962MOL0     C32673   6.062   7.959   4.752  0.0747  0.2603  0.2366
  962MOL0     C32674   6.137   7.981   4.871  0.6468 -0.9443 -0.0948
  962MOL0     C32675   6.112   7.904   4.989 -0.0470 -0.7301 -0.0935
  962MOL0     C32676   6.006   7.819   4.994 -0.4238  0.4737 -0.5956
  962MOL0     O32677   5.972   7.759   5.106  0.4816  1.0451 -0.0803
  962MOL0     C32678   5.994   7.830   5.225  0.1689  0.6426 -0.7242
  962MOL0     C32679   5.934   7.751   5.342  0.2202  0.7999  0.2146
  962MOL0     C32680   5.782   7.734   5.326  0.1193  0.7093  0.3949
  962MOL0     C32681   5.735   7.609   5.389  0.5546 -0.0630 -0.6029
  962MOL0     C32682   5.607   7.562   5.326  0.5603  0.3344 -0.8171
  962MOL0     C32683   5.498   7.531   5.283 -0.8646 -0.0954  1.1467
  962MOL0     C32684   5.928   7.809   4.881  0.0948  1.4700  0.0607
  962MOL0     C32685   5.956   7.870   4.760  0.1177  0.4060 -0.0906
  962MOL0     C32686   5.870   7.835   4.641 -0.4835 -0.0053 -0.8098
  962MOL0     H32687   6.104   8.176   4.405  0.5508 -1.1760  1.6025
  962MOL0     H32688   6.186   8.331   4.240 -2.1637 -2.0889  0.9317
  962MOL0     H32689   6.285   8.571   4.225  0.7275 -1.7255  1.3436
  962MOL0     H32690   6.344   8.511   4.071 -0.0031 -3.2412  0.2314
  962MOL0     H32691   6.557   8.631   4.102 -0.0024 -0.2455  0.8403
  962MOL0     H32692   6.416   8.740   4.089 -0.4015  1.1651  1.9043
  962MOL0     H32693   6.401   8.773   4.333  0.1064  2.3603 -0.3105
  962MOL0     H32694   6.529   8.661   4.362  1.1206  1.9515 -0.2135
  962MOL0     H32695   6.696   8.809   4.236  0.6304 -0.7740  0.8624
  962MOL0     H32696   6.558   8.927   4.238 -1.9344 -1.7044  0.1716
  962MOL0     H32697   6.564   8.916   4.483 -1.2144 -1.1052 -1.4459
  962MOL0     H32698   6.705   8.965   4.405 -1.5887  0.1330 -1.5618
  962MOL0     H32699   6.692   8.671   4.489 -0.5635 -1.7024  0.1878
  962MOL0     H32700   6.834   8.752   4.429 -1.2779 -0.6189 -0.5329
  962MOL0     H32701   6.703   8.820   4.695 -0.7204 -1.8253 -1.2212
  962MOL0     H32702   6.844   8.900   4.626 -0.7101 -0.2339 -0.7002
  962MOL0     H32703   6.970   8.690   4.627 -1.6075 -2.3543 -0.6539
  962MOL0     H32704   6.907   8.726   4.791 -0.1068  3.6993 -0.8865
  962MOL0     H32705   6.950   8.442   4.558  0.6958  0.1637 -1.0017
  962MOL0     H32706   6.849   8.191   4.541 -2.7260  0.7836 -2.2058
  962MOL0     H32707   6.680   8.190   4.588  0.0563  1.6074  0.3304
  962MOL0     H32708   6.735   8.122   4.829 -0.2971  1.9726 -0.4097
  962MOL0     H32709   6.771   7.997   4.706  1.6153 -0.4630  1.5342
  962MOL0     H32710   6.993   8.059   4.689  1.3657 -0.4119  1.7057
  962MOL0     H32711   6.984   8.178   4.816  0.1723  1.1537 -1.0100
  962MOL0     H32712   6.888   7.990   4.954 -1.0256  0.2385 -1.9300
  962MOL0     H32713   6.926   7.880   4.826 -0.9771 -2.1578  3.9377
  962MOL0     H32714   7.339   7.955   4.922  0.4529 -0.4849 -0.6956
  962MOL0     H32715   7.554   7.885   4.907  1.5180 -0.1863  1.3582
  962MOL0     H32716   7.617   7.748   4.822 -1.8989  1.2520 -2.0274
  962MOL0     H32717   7.599   7.740   4.991  0.8569 -1.2882 -1.3281
  962MOL0     H32718   7.751   7.501   4.955  1.5380 -1.8276  2.1082
  962MOL0     H32719   7.903   7.327   4.991  2.0126  0.0155 -3.6288
  962MOL0     H32720   8.051   7.139   4.805 -1.5628  0.1431 -0.2424
  962MOL0     H32721   8.049   7.110   4.978  1.8065 -0.3143  1.3952
  962MOL0     H32722   8.168   6.947   4.930 -1.5826  4.0619  3.2487
  962MOL0     H32723   8.018   6.856   4.921  2.5387 -0.4399  0.4358
  962MOL0     H32724   8.131   6.976   4.672 -0.5538 -1.1507 -0.5709
  962MOL0     H32725   7.997   6.862   4.683 -0.2984  2.9210 -1.8655
  962MOL0     H32726   8.286   6.796   4.759 -0.2162  0.6959 -0.6643
  962MOL0     H32727   8.205   6.760   4.612 -0.0932  0.8881  0.1496
  962MOL0     H32728   8.095   6.672   4.873  2.3905  0.5691  1.4157
  962MOL0     H32729   8.078   6.597   4.710 -1.9889 -0.0267  1.9705
  962MOL0     H32730   8.336   6.554   4.733 -0.0140  1.2536 -0.4438
  962MOL0     H32731   8.222   6.442   4.796 -0.3609  0.8837  0.7103
  962MOL0     H32732   8.249   6.488   5.006 -3.5656  1.3974 -2.2657
  962MOL0     H32733   8.286   6.657   4.982 -4.1257  1.2831 -1.9686
  962MOL0     H32734   8.503   6.590   4.866  3.7761  1.1938  2.9163
  962MOL0     H32735   8.468   6.421   4.915 -0.0742  0.3136 -0.7452
  962MOL0     H32736   7.667   7.081   4.709  1.7154 -0.1322  0.1262
  962MOL0     H32737   7.571   7.293   4.628 -0.1055 -0.6183  0.2572
  962MOL0     H32738   7.167   7.522   4.783 -0.9860  0.0728 -2.2642
  962MOL0     H32739   7.020   7.700   4.805 -0.0843  0.0240  1.2402
  962MOL0     H32740   6.542   8.387   4.506  1.4503 -1.5168  0.8686
  962MOL0     H32741   6.424   8.248   4.669 -4.2663 -3.5466  1.1041
  962MOL0     H32742   6.206   8.064   4.879  0.2579 -0.6495  0.2177
  962MOL0     H32743   6.178   7.925   5.072 -0.3016 -0.5698  0.0708
  962MOL0     H32744   6.096   7.848   5.261  0.5231 -0.1125 -1.3315
  962MOL0     H32745   5.949   7.929   5.214  4.1482  2.8831  0.8416
  962MOL0     H32746   5.961   7.792   5.440 -1.2405 -0.6102  1.2646
  962MOL0     H32747   5.977   7.651   5.332 -0.6552  0.5440 -1.1942
  962MOL0     H32748   5.728   7.816   5.374  0.5601  1.5503 -0.5016
  962MOL0     H32749   5.754   7.745   5.221  2.9394  0.7185 -0.4484
  962MOL0     H32750   5.716   7.630   5.495 -0.9603  3.1549 -1.3867
  962MOL0     H32751   5.806   7.526   5.388  1.1320  0.4327 -1.7848
  962MOL0     H32752   5.409   7.498   5.233 -0.1891  0.7134 -0.6435
  962MOL0     H32753   5.849   7.735   4.886  1.7040 -0.2697  1.8019
  962MOL0     H32754   5.767   7.805   4.666 -0.6589  0.5550 -0.8510
  962MOL0     H32755   5.865   7.924   4.578 -1.0954 -1.2035 -2.5295
  962MOL0     H32756   5.914   7.750   4.589  1.1405  0.5031 -0.3112
  963MOL0     O32757   4.443   5.957   6.588  0.3157 -0.1015 -0.1952
  963MOL0     C32758   4.441   5.850   6.653  0.2916  0.5245  0.7280
  963MOL0     O32759   4.497   5.739   6.612 -0.3660  0.4100 -0.3846
  963MOL0     C32760   4.604   5.742   6.530  1.0053 -0.4643 -0.4010
  963MOL0     C32761   4.713   5.813   6.571 -1.1391  1.2256  0.3362
  963MOL0     C32762   4.836   5.810   6.492  0.4444 -0.0881  0.0443
  963MOL0     C32763   4.842   5.729   6.376 -0.6811  0.1235 -0.2474
  963MOL0     O32764   4.955   5.748   6.294 -0.1254 -0.7891  0.0530
  963MOL0     C32765   4.975   5.672   6.177  0.5030  1.1285  1.0066
  963MOL0     C32766   5.110   5.692   6.116 -1.8237 -0.4806  0.0799
  963MOL0     C32767   5.138   5.846   6.106  0.6015  0.1102  1.1626
  963MOL0     C32768   5.286   5.871   6.061  0.8180 -0.2864 -0.3940
  963MOL0     C32769   5.277   6.015   5.992 -0.2095  0.5263  0.4635
  963MOL0     C32770   5.418   6.057   5.957  0.0468 -0.1658 -0.7724
  963MOL0     C32771   5.487   6.133   6.063  0.4170  0.5195  0.3655
  963MOL0     C32772   5.596   6.230   6.003  0.3853 -0.3543  0.4971
  963MOL0     N32773   5.706   6.151   5.942 -0.3531 -0.3705  0.2162
  963MOL0     C32774   5.821   6.125   6.013 -0.5448  0.7113 -0.0095
  963MOL0     C32775   5.908   6.076   5.923  0.2985  0.8684  0.5545
  963MOL0     C32776   6.055   6.044   5.945  0.0215  0.3719  0.0287
  963MOL0     C32777   6.096   5.916   6.015 -0.5422 -0.2231  0.7690
  963MOL0     C32778   6.053   5.915   6.153  0.0360 -0.2868  0.4745
  963MOL0     C32779   6.131   5.806   6.228  0.8583  0.2239 -0.5634
  963MOL0     O32780   6.134   5.868   6.355 -0.4503  0.0481 -0.0664
  963MOL0     C32781   6.126   5.782   6.462 -0.2497 -0.3003 -0.0890
  963MOL0     C32782   6.232   5.756   6.555 -0.0012 -0.3427 -0.5289
  963MOL0     C32783   6.213   5.696   6.683  0.1512  0.0649  0.5000
  963MOL0     C32784   6.325   5.692   6.769 -0.0924 -0.0901 -0.3780
  963MOL0     C32785   6.080   5.658   6.720  0.5965  0.8199 -0.8584
  963MOL0     C32786   6.030   5.635   6.859 -0.4137  1.3192 -0.6294
  963MOL0     O32787   5.888   5.634   6.877 -0.4514 -0.0156  0.6788
  963MOL0     C32788   5.838   5.637   7.003 -1.1520  0.0972  0.1229
  963MOL0     C32789   5.808   5.527   7.078  0.5167  0.8249  0.4539
  963MOL0     C32790   5.774   5.544   7.213 -0.3588  0.4871  0.2518
  963MOL0     C32791   5.772   5.674   7.271 -0.2264 -0.3022 -0.3083
  963MOL0     O32792   5.723   5.702   7.396 -0.6228  0.1651  0.4767
  963MOL0     C32793   5.774   5.617   7.497 -0.2440  0.4470 -0.2714
  963MOL0     C32794   5.751   5.677   7.639 -0.1052  0.0825  0.5042
  963MOL0     C32795   5.810   5.575   7.748 -0.6083  1.1055  0.1057
  963MOL0     C32796   5.745   5.580   7.887  0.0946  0.9500 -0.0970
  963MOL0     C32797   5.607   5.513   7.876 -0.4704  0.1054 -0.1583
  963MOL0     C32798   5.595   5.414   7.989 -1.4446  0.0091  0.6987
  963MOL0     C32799   5.457   5.382   8.028 -0.2040 -0.4472 -0.7889
  963MOL0     C32800   5.453   5.293   8.156  0.3318 -0.0487 -0.2909
  963MOL0    Cl32801   5.564   5.151   8.142  0.5229 -0.0570  0.0921
  963MOL0     C32802   5.791   5.782   7.183 -0.6992  0.5816  0.5728
  963MOL0     C32803   5.819   5.762   7.056 -0.6750 -0.2742  1.2322
  963MOL0     O32804   6.111   5.621   6.955  0.2802 -0.3362  0.7374
  963MOL0     C32805   5.980   5.659   6.619  0.1283 -0.5476 -0.6448
  963MOL0     C32806   6.005   5.716   6.496 -0.8488 -0.2202  0.1347
  963MOL0     N32807   5.833   6.082   5.796 -0.1258  0.4349 -0.2189
  963MOL0     N32808   5.720   6.140   5.807 -0.0461  0.4872 -0.6341
  963MOL0     C32809   4.734   5.650   6.346  1.0144 -0.1150  0.0572
  963MOL0     C32810   4.620   5.652   6.425 -0.7307  1.2265 -0.0966
  963MOL0     C32811   4.367   5.859   6.779  0.4944 -0.4735 -0.9683
  963MOL0     C32812   4.400   5.968   6.867  0.3536  0.0522  0.9167
  963MOL0     C32813   4.331   5.984   6.984  1.0429 -0.3580  0.4350
  963MOL0     C32814   4.228   5.896   7.017  0.6825  0.4234  0.5076
  963MOL0     O32815   4.140   5.928   7.120  0.5293 -0.3720  0.0804
  963MOL0     C32816   4.011   5.876   7.111  0.6452  0.5332 -0.1484
  963MOL0     C32817   3.917   5.914   7.232 -0.2579 -1.3052 -0.2245
  963MOL0     C32818   3.868   6.063   7.230 -0.3874 -0.4153  0.2974
  963MOL0     C32819   3.747   6.094   7.141  1.0546 -0.2403  0.1349
  963MOL0     C32820   3.626   6.012   7.174  0.2697 -0.0642 -0.4181
  963MOL0     C32821   3.540   5.937   7.209  0.2364 -0.6419 -0.1122
  963MOL0     C32822   4.197   5.787   6.933 -0.8722  0.5220  0.5600
  963MOL0     C32823   4.263   5.771   6.812 -0.2069  0.2595  0.3497
  963MOL0     C32824   4.215   5.670   6.719  0.3322 -0.2025  0.2695
  963MOL0     H32825   4.695   5.867   6.664 -0.7240  1.0149  0.5396
  963MOL0     H32826   4.917   5.878   6.518 -0.6225  0.2871  2.7522
  963MOL0     H32827   4.891   5.690   6.109 -1.3578 -1.4580  2.4303
  963MOL0     H32828   4.971   5.565   6.201 -0.3992  0.0395 -3.2835
  963MOL0     H32829   5.189   5.640   6.170 -0.7657 -0.5456 -1.4526
  963MOL0     H32830   5.102   5.639   6.021 -1.2376 -4.3429  2.0214
  963MOL0     H32831   5.068   5.896   6.039  1.0133 -0.3111  0.4033
  963MOL0     H32832   5.122   5.882   6.209 -3.3340 -1.1457  1.1459
  963MOL0     H32833   5.352   5.863   6.148 -0.5842 -0.3849  0.6962
  963MOL0     H32834   5.299   5.794   5.984 -3.2042 -1.7021  0.0611
  963MOL0     H32835   5.236   6.092   6.058  2.8157  0.3528  2.7851
  963MOL0     H32836   5.213   6.011   5.904  1.3257 -0.2415 -0.6662
  963MOL0     H32837   5.473   5.965   5.932  1.0169 -0.0659  0.8491
  963MOL0     H32838   5.426   6.121   5.869  0.9161  0.9962  0.1211
  963MOL0     H32839   5.539   6.065   6.132 -0.0552  0.2436  0.4474
  963MOL0     H32840   5.423   6.192   6.129  2.3455 -3.7191  7.0501
  963MOL0     H32841   5.558   6.299   5.927  1.4994 -0.2288  0.0448
  963MOL0     H32842   5.641   6.287   6.084 -1.3363 -0.1330  1.3448
  963MOL0     H32843   5.855   6.130   6.116  0.0822  1.1172 -0.2284
  963MOL0     H32844   6.102   6.132   5.990  1.5804  0.2784 -1.3131
  963MOL0     H32845   6.095   6.035   5.844  1.0508  3.1657  0.0792
  963MOL0     H32846   6.070   5.829   5.955  1.7556 -0.2111 -0.3765
  963MOL0     H32847   6.205   5.909   6.004 -0.7413 -0.9035 -1.2513
  963MOL0     H32848   6.075   6.018   6.184 -2.3636  0.8216 -1.2055
  963MOL0     H32849   5.951   5.878   6.162  0.1920 -0.4274  2.0373
  963MOL0     H32850   6.082   5.708   6.233 -1.2266  1.2778  1.6275
  963MOL0     H32851   6.228   5.806   6.176  1.0830  2.5891 -0.2542
  963MOL0     H32852   6.331   5.794   6.537 -0.9003  1.9887 -0.8895
  963MOL0     H32853   6.337   5.592   6.812 -0.8742 -0.1296 -0.2351
  963MOL0     H32854   6.329   5.767   6.849 -0.2239 -1.3989  0.9094
  963MOL0     H32855   6.416   5.716   6.714  2.0825  0.4206  3.0924
  963MOL0     H32856   5.836   5.431   7.036  3.6382  1.7129  0.2407
  963MOL0     H32857   5.745   5.464   7.280  1.4932  0.7725  1.4934
  963MOL0     H32858   5.707   5.531   7.482 -0.3993  1.0890 -4.2583
  963MOL0     H32859   5.876   5.587   7.471  0.0157  1.5931 -0.6342
  963MOL0     H32860   5.812   5.768   7.644  3.7939 -2.1688 -1.4534
  963MOL0     H32861   5.646   5.700   7.657  0.0066  0.1426  1.0829
  963MOL0     H32862   5.914   5.608   7.759 -1.6852  4.6975  0.7495
  963MOL0     H32863   5.812   5.470   7.717  0.6703  1.1868 -0.1576
  963MOL0     H32864   5.739   5.686   7.914 -0.8259  1.0796 -0.7933
  963MOL0     H32865   5.816   5.539   7.960 -0.4040  1.0018  0.4295
  963MOL0     H32866   5.531   5.589   7.893 -0.7419 -0.4493  1.2329
  963MOL0     H32867   5.593   5.472   7.775 -0.3063 -0.7716  0.1604
  963MOL0     H32868   5.646   5.446   8.080 -0.7546  0.4457  0.1631
  963MOL0     H32869   5.648   5.331   7.942 -0.7263  0.4753  0.6721
  963MOL0     H32870   5.414   5.324   7.946 -0.7900  1.2682 -1.7360
  963MOL0     H32871   5.405   5.477   8.041  0.4951 -0.1620  0.0148
  963MOL0     H32872   5.349   5.261   8.169  0.0899  1.6202  2.7744
  963MOL0     H32873   5.472   5.362   8.239  3.0201  1.0108 -1.6559
  963MOL0     H32874   5.792   5.881   7.228  3.3636 -0.0478  2.3664
  963MOL0     H32875   5.825   5.843   6.984 -0.2709 -2.7011 -1.6288
  963MOL0     H32876   5.877   5.629   6.636 -0.4997  1.6348 -0.4046
  963MOL0     H32877   5.933   5.735   6.417  2.0167  1.6342 -2.2852
  963MOL0     H32878   4.721   5.606   6.248  0.7951  3.4149 -1.6689
  963MOL0     H32879   4.526   5.603   6.404 -0.2901  0.3683 -0.1221
  963MOL0     H32880   4.470   6.040   6.826 -0.6822  1.2753  1.2236
  963MOL0     H32881   4.363   6.069   7.043  2.2364 -2.6515  3.3286
  963MOL0     H32882   3.956   5.899   7.020  0.2251  2.3638  0.5258
  963MOL0     H32883   4.000   5.767   7.116 -3.3027  0.7937  0.3667
  963MOL0     H32884   3.978   5.899   7.323  1.7205 -0.7523 -1.3899
  963MOL0     H32885   3.830   5.849   7.224 -2.4955  1.5186 -0.4248
  963MOL0     H32886   3.840   6.096   7.331 -0.1425 -2.3519  1.0387
  963MOL0     H32887   3.950   6.126   7.196  1.0642 -2.1663  0.4336
  963MOL0     H32888   3.780   6.065   7.041 -1.6740 -0.9584 -0.6263
  963MOL0     H32889   3.717   6.198   7.158 -0.5122 -0.5893 -0.3667
  963MOL0     H32890   3.467   5.873   7.255 -2.5782  0.5152 -2.5657
  963MOL0     H32891   4.103   5.734   6.939 -0.6457  0.1572  0.9381
  963MOL0     H32892   4.296   5.598   6.699  0.6750 -0.6752  3.0115
  963MOL0     H32893   4.143   5.615   6.780  1.4937 -0.0848  1.8047
  963MOL0     H32894   4.167   5.716   6.632  0.2200  0.3524  0.6273
  964MOL0     O32895   2.324   9.103   8.971 -0.6263 -0.0773 -0.1594
  964MOL0     C32896   2.402   9.137   8.886 -0.3746 -0.7855 -0.4935
  964MOL0     O32897   2.535   9.155   8.910  0.2228  0.2912  0.2580
  964MOL0     C32898   2.594   9.194   9.025 -0.1156  0.6192  0.2922
  964MOL0     C32899   2.729   9.179   9.028  0.6599  0.2485 -0.0532
  964MOL0     C32900   2.805   9.201   9.140  0.0560 -0.2279 -0.9062
  964MOL0     C32901   2.740   9.232   9.263  0.8707 -0.1672  0.7363
  964MOL0     O32902   2.818   9.256   9.375  1.1899 -0.4656 -0.8276
  964MOL0     C32903   2.759   9.201   9.503  0.5234  0.0643 -0.0519
  964MOL0     C32904   2.867   9.170   9.615 -0.3454 -0.5842  0.1780
  964MOL0     C32905   2.970   9.084   9.542 -0.4692 -0.8466 -0.6264
  964MOL0     C32906   3.094   9.067   9.638 -0.7694  0.0353  0.3281
  964MOL0     C32907   3.203   9.177   9.631  0.4557 -0.2443  0.8271
  964MOL0     C32908   3.322   9.165   9.722  0.0049 -0.2306 -0.5906
  964MOL0     C32909   3.275   9.216   9.872 -0.1876  0.5367 -0.2621
  964MOL0     C32910   3.261   9.104   9.983  0.8049 -0.9130  0.2150
  964MOL0     N32911   3.283   9.160  10.124 -0.6922 -0.0270 -0.0959
  964MOL0     C32912   3.400   9.180  10.174 -0.7208  0.5044 -0.2469
  964MOL0     C32913   3.384   9.262  10.279  0.0593  0.9835  0.8156
  964MOL0     C32914   3.495   9.322  10.357  0.5816 -0.7264 -0.8974
  964MOL0     C32915   3.535   9.457  10.311  0.0247  0.9286 -0.2753
  964MOL0     C32916   3.629   9.450  10.196  0.5840  0.1741  0.4551
  964MOL0     C32917   3.685   9.582  10.146  0.3856 -0.3105  0.1917
  964MOL0     O32918   3.770   9.656  10.237  0.5035  0.1880  1.1087
  964MOL0     C32919   3.817   9.776  10.191  0.0574 -0.2157 -0.3619
  964MOL0     C32920   3.917   9.837  10.273  0.1082  0.3434  0.2914
  964MOL0     C32921   3.986   9.956  10.236 -0.3507  0.8577 -0.7339
  964MOL0     C32922   4.093   9.998  10.333  0.7579 -0.0571  0.1993
  964MOL0     C32923   3.956  10.021  10.117 -0.7494 -0.4052 -0.1799
  964MOL0     C32924   4.012  10.162  10.068 -0.1896 -0.9075 -0.7842
  964MOL0     O32925   3.932  10.231   9.974 -0.9206  0.9428  0.1740
  964MOL0     C32926   3.993  10.340   9.915 -0.2604 -0.1952  0.3727
  964MOL0     C32927   4.107  10.330   9.831 -0.0649 -0.0777  0.8585
  964MOL0     C32928   4.158  10.444   9.775 -0.4066  0.2581  1.0280
  964MOL0     C32929   4.090  10.559   9.789 -0.0518 -0.0587 -0.4463
  964MOL0     O32930   4.159  10.663   9.727  0.0007  0.2050  0.2881
  964MOL0     C32931   4.106  10.795   9.743  0.4477 -0.1674 -0.2312
  964MOL0     C32932   4.200  10.893   9.679 -0.5334  1.2199  0.5672
  964MOL0     C32933   4.331  10.890   9.750 -0.1374  0.3841 -0.2629
  964MOL0     C32934   4.399  11.033   9.726  0.9866  0.5015 -0.0424
  964MOL0     C32935   4.533  11.023   9.800 -0.1913 -0.9125 -0.0854
  964MOL0     C32936   4.589  11.169   9.808 -0.7301 -0.1940 -0.4514
  964MOL0     C32937   4.546  11.243   9.937 -0.3325  0.1110 -0.8124
  964MOL0     C32938   4.595  11.387   9.927  0.0021  0.4834 -0.0040
  964MOL0    Cl32939   4.555  11.483  10.072  0.6193  0.6328  0.3345
  964MOL0     C32940   3.978  10.576   9.869 -0.2570 -0.7119 -0.4545
  964MOL0     C32941   3.934  10.461   9.935  0.5730  0.8198  0.1437
  964MOL0     O32942   4.129  10.197  10.095  0.6088  0.2985 -0.1528
  964MOL0     C32943   3.856   9.965  10.037 -0.3622 -0.7383 -0.1849
  964MOL0     C32944   3.785   9.846  10.073 -0.3402 -0.1296  0.4188
  964MOL0     N32945   3.247   9.274  10.302 -0.1805 -0.1394 -0.7577
  964MOL0     N32946   3.183   9.216  10.203  0.5952  0.0007  0.1806
  964MOL0     C32947   2.600   9.242   9.257  0.4113  0.3657 -0.0448
  964MOL0     C32948   2.526   9.230   9.138 -0.1938 -0.4952 -0.4342
  964MOL0     C32949   2.364   9.181   8.751 -0.1761  0.6977 -0.5394
  964MOL0     C32950   2.446   9.266   8.689 -0.2515  0.9987  1.3075
  964MOL0     C32951   2.420   9.301   8.555 -1.0074  0.5374 -0.2045
  964MOL0     C32952   2.295   9.260   8.494 -0.3212 -0.2764 -0.0365
  964MOL0     O32953   2.246   9.307   8.377  0.0289 -0.4531 -0.2421
  964MOL0     C32954   2.315   9.418   8.310 -0.0291  0.2254  0.3712
  964MOL0     C32955   2.422   9.347   8.220  0.3880  0.1442  0.6100
  964MOL0     C32956   2.535   9.446   8.194  0.2732 -0.8603  0.3937
  964MOL0     C32957   2.630   9.410   8.071 -1.2518  0.0633 -0.6660
  964MOL0     C32958   2.688   9.276   8.086  0.1891  0.0488  0.3643
  964MOL0     C32959   2.730   9.161   8.112 -0.8339 -0.2510  0.2853
  964MOL0     C32960   2.212   9.181   8.562 -0.2868  0.3090 -0.5961
  964MOL0     C32961   2.243   9.132   8.690  0.0283 -0.3707 -0.0509
  964MOL0     C32962   2.159   9.024   8.745 -0.0892 -0.1783 -0.4608
  964MOL0     H32963   2.783   9.153   8.938 -1.6928 -1.2391 -1.1091
  964MOL0     H32964   2.913   9.206   9.128  0.6046  1.6103  3.0773
  964MOL0     H32965   2.702   9.110   9.483  0.9384  0.0651 -1.3199
  964MOL0     H32966   2.687   9.269   9.548  1.5536  1.8769 -1.0641
  964MOL0     H32967   2.917   9.264   9.641  0.9336 -1.7151  1.9665
  964MOL0     H32968   2.821   9.121   9.701 -0.8735 -2.8426 -1.3127
  964MOL0     H32969   2.930   8.989   9.506  0.9830 -1.5976 -0.3373
  964MOL0     H32970   3.008   9.141   9.457 -0.7224 -2.1083 -1.6180
  964MOL0     H32971   3.058   9.056   9.741 -1.9144  1.3547  0.0867
  964MOL0     H32972   3.152   8.978   9.610 -2.2997  0.1790 -4.0482
  964MOL0     H32973   3.147   9.270   9.647 -2.1190 -1.9548  2.4391
  964MOL0     H32974   3.232   9.169   9.526 -2.3536  2.3208 -0.3197
  964MOL0     H32975   3.350   9.059   9.724 -2.5033 -0.9516 -1.2444
  964MOL0     H32976   3.398   9.224   9.670 -0.4076 -1.7633 -3.0840
  964MOL0     H32977   3.174   9.259   9.869 -0.8232 -0.9245 -1.2532
  964MOL0     H32978   3.340   9.293   9.913  0.9726 -0.9632  0.8151
  964MOL0     H32979   3.165   9.055   9.970 -0.4366  1.3913  0.2236
  964MOL0     H32980   3.344   9.033   9.973 -1.2908 -3.5152  0.2247
  964MOL0     H32981   3.497   9.154  10.131  0.0824 -0.2718  1.8762
  964MOL0     H32982   3.579   9.252  10.362  1.6643  0.4644 -1.8889
  964MOL0     H32983   3.444   9.349  10.450 -2.2493  1.9492 -3.0243
  964MOL0     H32984   3.451   9.514  10.272 -3.0759 -2.7703  0.4115
  964MOL0     H32985   3.593   9.499  10.394 -0.1138  0.2092  0.1920
  964MOL0     H32986   3.717   9.390  10.223  0.7060  0.1961  0.1185
  964MOL0     H32987   3.580   9.401  10.112  1.1261 -0.3213  0.4183
  964MOL0     H32988   3.737   9.554  10.054  0.4139  0.6188 -0.0907
  964MOL0     H32989   3.595   9.638  10.121 -0.3245 -0.8696  1.4167
  964MOL0     H32990   3.950   9.794  10.367  2.1332  1.5147  0.1875
  964MOL0     H32991   4.184  10.040  10.289  2.7296 -0.7128  3.3081
  964MOL0     H32992   4.127   9.912  10.392  0.2795  0.5034  1.3288
  964MOL0     H32993   4.062  10.064  10.415 -0.2990  0.2011 -0.3971
  964MOL0     H32994   4.139  10.232   9.799  0.6698  0.6870 -0.8810
  964MOL0     H32995   4.240  10.432   9.705 -1.6887  0.5165 -0.6143
  964MOL0     H32996   4.018  10.811   9.680  1.3243  2.9728 -0.8271
  964MOL0     H32997   4.092  10.828   9.847  0.1503  1.5635 -0.7879
  964MOL0     H32998   4.227  10.860   9.578 -1.3900 -1.0276  1.0340
  964MOL0     H32999   4.156  10.992   9.668  0.1312  1.3927 -0.8301
  964MOL0     H33000   4.397  10.812   9.711 -0.2078 -0.8882  2.0275
  964MOL0     H33001   4.314  10.873   9.856  0.9928 -1.5543 -0.3502
  964MOL0     H33002   4.321  11.097   9.767 -1.3743 -1.6438 -0.8829
  964MOL0     H33003   4.406  11.057   9.620 -2.5304 -0.9527 -0.7577
  964MOL0     H33004   4.507  10.989   9.901 -0.7593  2.9321  1.2642
  964MOL0     H33005   4.604  10.953   9.756  2.3131  0.3841  1.6273
  964MOL0     H33006   4.573  11.230   9.718  1.4034 -0.5905 -1.1560
  964MOL0     H33007   4.697  11.161   9.822 -0.6270  1.2297 -0.2094
  964MOL0     H33008   4.581  11.192  10.027  1.8788  0.3783 -1.4582
  964MOL0     H33009   4.437  11.235   9.944 -0.4821  0.2019 -2.6077
  964MOL0     H33010   4.538  11.430   9.845 -1.4162 -1.2683  0.0062
  964MOL0     H33011   4.701  11.406   9.907 -0.0113  1.7792  1.0696
  964MOL0     H33012   3.933  10.672   9.892 -1.5689 -0.9508 -1.9045
  964MOL0     H33013   3.845  10.480   9.995  1.8702 -1.6231  3.1254
  964MOL0     H33014   3.816  10.014   9.950  0.4678  0.5101  0.1103
  964MOL0     H33015   3.718   9.816   9.993  1.6910  1.4337 -2.0154
  964MOL0     H33016   2.553   9.275   9.350 -2.2897 -1.9746 -0.4522
  964MOL0     H33017   2.419   9.232   9.155 -0.1881 -1.7331 -0.1467
  964MOL0     H33018   2.538   9.302   8.733  1.3759  0.1892 -1.1927
  964MOL0     H33019   2.501   9.349   8.502 -1.2697  1.6363  0.3561
  964MOL0     H33020   2.250   9.487   8.254  0.4061  1.9718  1.8888
  964MOL0     H33021   2.364   9.490   8.377  0.1529  1.2862 -0.8709
  964MOL0     H33022   2.383   9.299   8.130 -0.8659  1.6166  0.3184
  964MOL0     H33023   2.472   9.274   8.283 -0.3840  0.0989  1.1903
  964MOL0     H33024   2.489   9.543   8.172  1.2355 -0.5771 -0.4351
  964MOL0     H33025   2.589   9.467   8.287  1.3577  2.6157 -0.8489
  964MOL0     H33026   2.710   9.485   8.068 -0.4555 -0.7670 -0.7651
  964MOL0     H33027   2.584   9.418   7.972  1.3882 -2.2699 -2.2143
  964MOL0     H33028   2.740   9.056   8.128 -2.1777 -0.4821 -0.2882
  964MOL0     H33029   2.121   9.149   8.512 -0.7089 -0.1043  0.4126
  964MOL0     H33030   2.075   8.995   8.681 -0.7154 -1.4455  0.8655
  964MOL0     H33031   2.227   8.941   8.768  2.4768  1.9597  0.1568
  964MOL0     H33032   2.116   9.066   8.836  0.9400  1.3332 -0.6385
  965MOL0     O33033   7.717  11.144   9.769  0.6215 -0.4123 -0.4389
  965MOL0     C33034   7.663  11.033   9.798 -0.3066 -0.2776  0.9122
  965MOL0     O33035   7.619  10.934   9.702  0.2986  0.2330  0.3772
  965MOL0     C33036   7.609  10.957   9.565  1.0492 -0.8890  0.4222
  965MOL0     C33037   7.614  11.087   9.506 -0.1510  0.2201 -0.0368
  965MOL0     C33038   7.632  11.099   9.360  0.3598 -0.0372 -0.6162
  965MOL0     C33039   7.641  10.982   9.276 -0.8290 -0.8162 -0.4375
  965MOL0     O33040   7.666  11.007   9.140  0.5034 -0.1619  0.0241
  965MOL0     C33041   7.701  10.894   9.062 -0.6781 -0.6035 -0.7309
  965MOL0     C33042   7.686  10.906   8.915  0.8190 -0.2168 -0.2133
  965MOL0     C33043   7.786  11.003   8.846  0.3139 -0.2830 -0.5197
  965MOL0     C33044   7.746  10.999   8.689 -0.2966  0.6139  0.8561
  965MOL0     C33045   7.833  11.100   8.612  0.4152 -0.0581  0.1661
  965MOL0     C33046   7.981  11.059   8.593  0.3033  0.4441 -0.1576
  965MOL0     C33047   8.076  11.169   8.553 -0.4570 -0.9857  0.7433
  965MOL0     C33048   8.119  11.150   8.405  0.0378 -0.4752 -0.7138
  965MOL0     N33049   8.159  11.282   8.362 -2.0132  0.7123  1.1004
  965MOL0     C33050   8.072  11.376   8.310 -0.3392  0.1407 -0.5704
  965MOL0     C33051   8.146  11.473   8.260 -0.4112  0.1083  0.2640
  965MOL0     C33052   8.086  11.586   8.186 -1.2460 -0.8198  0.4443
  965MOL0     C33053   8.098  11.720   8.277 -0.0207 -0.4919  0.0503
  965MOL0     C33054   7.977  11.810   8.287  0.6353  0.0666  0.7892
  965MOL0     C33055   7.964  11.887   8.158 -0.2393  0.4204 -0.3955
  965MOL0     O33056   7.846  11.973   8.151 -0.9890  0.6385  0.5096
  965MOL0     C33057   7.732  11.934   8.083 -0.5300  0.6890 -1.1178
  965MOL0     C33058   7.711  11.829   7.994  0.0518 -0.3897  0.2820
  965MOL0     C33059   7.592  11.816   7.918 -0.0142  0.7193  0.7138
  965MOL0     C33060   7.580  11.688   7.833 -0.2007  0.3663  0.3454
  965MOL0     C33061   7.477  11.894   7.951  0.9923 -0.4779 -0.8545
  965MOL0     C33062   7.339  11.875   7.907  0.1619  0.0871  0.2259
  965MOL0     O33063   7.245  11.965   7.951 -0.1378  0.1167 -0.0936
  965MOL0     C33064   7.133  11.964   7.863 -0.3180  0.5675  0.1407
  965MOL0     C33065   7.026  11.879   7.885 -0.3426 -0.6130 -0.5957
  965MOL0     C33066   6.910  11.895   7.800 -0.0694 -1.3211  0.3894
  965MOL0     C33067   6.903  11.990   7.700 -0.4149  0.6713  0.7734
  965MOL0     O33068   6.787  12.004   7.644  0.2772  0.0586  0.6490
  965MOL0     C33069   6.786  12.051   7.509 -0.5005 -0.7127 -0.2527
  965MOL0     C33070   6.651  12.028   7.449  0.7416 -0.7611  0.8260
  965MOL0     C33071   6.634  12.077   7.298  0.8359  0.2149 -0.2282
  965MOL0     C33072   6.593  12.219   7.290 -0.1185 -0.2745 -0.5367
  965MOL0     C33073   6.610  12.283   7.159  0.4989  0.1391 -0.8575
  965MOL0     C33074   6.496  12.234   7.060 -0.8546 -0.7106  0.1780
  965MOL0     C33075   6.515  12.292   6.919 -0.3447  0.1014  0.7238
  965MOL0     C33076   6.401  12.239   6.829  0.0695  0.6559 -0.2054
  965MOL0    Cl33077   6.428  12.279   6.661  0.2292 -0.2723  0.0881
  965MOL0     C33078   7.014  12.067   7.674 -0.4176  0.3045  0.1499
  965MOL0     C33079   7.128  12.060   7.762  0.2460 -0.0536  0.4369
  965MOL0     O33080   7.316  11.782   7.826  0.8621  0.5006 -0.2871
  965MOL0     C33081   7.501  12.007   8.033  0.0774  0.8017 -0.3145
  965MOL0     C33082   7.627  12.027   8.098 -0.2427 -0.5404  0.1098
  965MOL0     N33083   8.282  11.434   8.273 -0.1244 -0.2897  0.6304
  965MOL0     N33084   8.290  11.325   8.343  0.0759 -0.5945 -0.2039
  965MOL0     C33085   7.621  10.856   9.339  0.3663 -0.5155  0.3166
  965MOL0     C33086   7.610  10.847   9.475 -0.2747  0.7860 -0.0289
  965MOL0     C33087   7.662  10.993   9.940  0.4081  0.6726  0.4920
  965MOL0     C33088   7.770  11.019  10.024 -0.5604  0.1422  0.0329
  965MOL0     C33089   7.764  11.003  10.163  0.2995 -0.0539  0.0655
  965MOL0     C33090   7.647  10.947  10.219 -0.4197 -0.7308  0.5571
  965MOL0     O33091   7.645  10.917  10.351 -0.2247 -0.3295 -0.2867
  965MOL0     C33092   7.614  11.036  10.422  1.1588 -0.2727 -0.3253
  965MOL0     C33093   7.589  10.998  10.574  0.1620 -0.8136  0.3611
  965MOL0     C33094   7.487  11.098  10.631  0.2989 -0.5060 -0.0073
  965MOL0     C33095   7.457  11.085  10.779  0.7654 -0.2291 -0.5056
  965MOL0     C33096   7.375  11.198  10.811  0.6511 -0.7037  0.2346
  965MOL0     C33097   7.289  11.280  10.832  0.0995 -0.3020 -0.0581
  965MOL0     C33098   7.543  10.907  10.134  0.5093  0.8493  0.0669
  965MOL0     C33099   7.539  10.948  10.002 -0.1773 -0.2148 -0.0374
  965MOL0     C33100   7.409  10.929   9.924  0.4649 -0.6105  0.3336
  965MOL0     H33101   7.613  11.177   9.567 -3.2874  1.0090 -1.0828
  965MOL0     H33102   7.631  11.202   9.324 -2.7162 -0.6129 -2.5403
  965MOL0     H33103   7.639  10.808   9.089  2.1620 -1.9585  2.2894
  965MOL0     H33104   7.799  10.853   9.090  0.8223  1.4190 -2.6875
  965MOL0     H33105   7.699  10.812   8.862 -2.7657  1.3236 -4.3825
  965MOL0     H33106   7.583  10.937   8.898  1.8563  2.3185 -2.8223
  965MOL0     H33107   7.769  11.106   8.878  0.8253 -0.2686 -0.2875
  965MOL0     H33108   7.890  10.986   8.874 -0.9327 -3.9407  2.7953
  965MOL0     H33109   7.780  10.902   8.652  1.7816  1.3121  0.8390
  965MOL0     H33110   7.640  11.014   8.668 -0.2279 -0.9961 -0.9535
  965MOL0     H33111   7.825  11.195   8.666 -1.8042 -0.9655  1.5912
  965MOL0     H33112   7.779  11.099   8.517 -2.3996 -0.4051  1.6378
  965MOL0     H33113   8.022  11.018   8.685 -1.5015  1.1388  1.0001
  965MOL0     H33114   7.976  10.991   8.507 -0.0238  0.1354  0.1016
  965MOL0     H33115   8.171  11.161   8.607  1.5822 -0.4595 -2.4440
  965MOL0     H33116   8.027  11.265   8.571 -1.6213 -1.6313  1.1540
  965MOL0     H33117   8.199  11.076   8.411 -2.4360 -3.2980  0.0575
  965MOL0     H33118   8.031  11.113   8.352 -1.3132  0.2379  0.9137
  965MOL0     H33119   7.964  11.372   8.304 -0.3845  1.3635 -0.8383
  965MOL0     H33120   7.980  11.570   8.163 -1.0088 -0.2912 -1.1399
  965MOL0     H33121   8.126  11.600   8.085  0.7531 -1.0739  1.1612
  965MOL0     H33122   8.134  11.696   8.377 -0.3654  2.0947  0.8551
  965MOL0     H33123   8.179  11.784   8.240 -0.7775 -0.1718 -1.1404
  965MOL0     H33124   7.887  11.751   8.304  1.4444 -1.2692  0.5807
  965MOL0     H33125   7.993  11.891   8.358 -0.9835  1.7896 -0.6760
  965MOL0     H33126   8.056  11.947   8.157  0.7417 -0.9372 -3.6349
  965MOL0     H33127   7.972  11.823   8.070 -3.6591 -0.7256 -0.0081
  965MOL0     H33128   7.787  11.755   7.971 -1.1759 -1.9994  1.2742
  965MOL0     H33129   7.531  11.708   7.737  0.8639 -2.1753 -0.8253
  965MOL0     H33130   7.527  11.610   7.888  1.9005 -0.6347  1.0617
  965MOL0     H33131   7.676  11.638   7.817 -0.0259  0.7694  0.1272
  965MOL0     H33132   7.041  11.801   7.959  0.0804  0.6638  0.7016
  965MOL0     H33133   6.827  11.826   7.812 -4.0390  3.1454  2.2135
  965MOL0     H33134   6.811  12.157   7.496  4.0649 -1.8592 -3.5159
  965MOL0     H33135   6.864  11.995   7.456  1.0060  0.3803  0.7213
  965MOL0     H33136   6.630  11.922   7.441 -3.3263 -0.0223 -0.1173
  965MOL0     H33137   6.568  12.074   7.503 -0.7120 -0.9044 -1.1726
  965MOL0     H33138   6.557  12.009   7.259  2.2235 -1.9169  0.5433
  965MOL0     H33139   6.725  12.059   7.241  0.0589 -1.9739 -0.9004
  965MOL0     H33140   6.660  12.280   7.352 -0.1536 -0.5416 -0.2335
  965MOL0     H33141   6.485  12.224   7.308 -0.5302  1.6901 -2.9876
  965MOL0     H33142   6.598  12.391   7.165 -0.0277  0.0296  0.2857
  965MOL0     H33143   6.708  12.256   7.119  0.8964  1.7084 -0.9854
  965MOL0     H33144   6.400  12.260   7.106 -0.3520  0.4418  0.5933
  965MOL0     H33145   6.485  12.125   7.055  0.0669 -0.8804  1.3992
  965MOL0     H33146   6.611  12.260   6.876 -0.4265  0.9711 -0.1455
  965MOL0     H33147   6.523  12.400   6.924 -2.6206  0.6347 -2.8295
  965MOL0     H33148   6.304  12.278   6.864  1.1256  1.7039  1.7546
  965MOL0     H33149   6.383  12.132   6.841 -0.3399  0.4128 -2.5522
  965MOL0     H33150   7.025  12.148   7.603 -1.1259  3.4434  3.2950
  965MOL0     H33151   7.224  12.105   7.739 -0.9870  2.0125 -1.0452
  965MOL0     H33152   7.419  12.064   8.075  2.1770  2.2390  2.1039
  965MOL0     H33153   7.654  12.110   8.163 -1.0962 -0.5833  0.5247
  965MOL0     H33154   7.641  10.766   9.282 -0.1929  0.4946 -1.5556
  965MOL0     H33155   7.603  10.746   9.513  1.1245  0.9666  0.7879
  965MOL0     H33156   7.863  11.045   9.976 -0.2620 -2.8627 -1.2155
  965MOL0     H33157   7.838  11.044  10.232 -1.0013 -1.4041  2.4030
  965MOL0     H33158   7.710  11.088  10.413  1.6430 -1.4165 -2.3028
  965MOL0     H33159   7.538  11.105  10.384  4.5515  2.8930 -1.9209
  965MOL0     H33160   7.682  11.018  10.628 -0.9087  2.8842  1.1514
  965MOL0     H33161   7.556  10.894  10.574  0.4901 -0.9180  0.3319
  965MOL0     H33162   7.527  11.199  10.627 -0.9500  0.1602  2.4839
  965MOL0     H33163   7.396  11.102  10.570 -0.2246  2.3268  0.8563
  965MOL0     H33164   7.551  11.076  10.835  0.3398  0.2102  0.2875
  965MOL0     H33165   7.404  10.990  10.787  1.8706 -0.9545 -1.4755
  965MOL0     H33166   7.208  11.344  10.860 -0.3195 -0.0674 -1.7222
  965MOL0     H33167   7.458  10.850  10.170 -1.1499  3.8666  1.2985
  965MOL0     H33168   7.368  11.014   9.869 -1.0268 -1.1095  0.6316
  965MOL0     H33169   7.419  10.843   9.857 -1.3555 -1.1840  0.7369
  965MOL0     H33170   7.332  10.899   9.995 -1.0161  0.6486 -0.6708
  966MOL0     O33171   9.012   4.003   6.396 -0.0371  0.3794  0.2299
  966MOL0     C33172   8.909   4.071   6.375  0.5990  1.2550 -0.9678
  966MOL0     O33173   8.835   4.067   6.256  0.0740 -0.3214  0.9694
  966MOL0     C33174   8.900   4.046   6.134 -0.5643  1.0711 -0.1461
  966MOL0     C33175   8.825   3.986   6.032  0.9481  0.3171  1.2792
  966MOL0     C33176   8.890   3.955   5.910 -0.1472  0.4539  0.8390
  966MOL0     C33177   9.027   3.987   5.889 -0.4452  0.1080 -0.3688
  966MOL0     O33178   9.084   3.953   5.765 -0.1996 -0.1068 -0.2406
  966MOL0     C33179   9.217   3.984   5.732 -0.6641 -0.9808  0.0716
  966MOL0     C33180   9.302   3.888   5.818  0.6192 -0.3991  0.3179
  966MOL0     C33181   9.454   3.889   5.784 -0.7760 -0.7488 -0.7414
  966MOL0     C33182   9.540   3.820   5.897  0.2468  0.3539  0.1221
  966MOL0     C33183   9.681   3.853   5.872 -0.2742  0.9391 -0.2200
  966MOL0     C33184   9.752   3.898   5.998  0.8491 -0.1878 -0.1716
  966MOL0     C33185   9.891   3.961   5.978  0.2536  0.0842  0.7517
  966MOL0     C33186   9.895   4.125   5.983  0.1096  0.7614  0.5264
  966MOL0     N33187   9.819   4.165   5.859 -0.2561 -0.5439  0.5662
  966MOL0     C33188   9.686   4.212   5.849 -1.4253 -0.6539 -0.4395
  966MOL0     C33189   9.671   4.241   5.721  0.3393  0.1009 -0.7664
  966MOL0     C33190   9.553   4.316   5.677  0.1897  0.8041  0.2081
  966MOL0     C33191   9.527   4.254   5.534  0.5233  0.3477 -0.2721
  966MOL0     C33192   9.393   4.294   5.475 -0.4546  0.0498 -0.0791
  966MOL0     C33193   9.385   4.258   5.329  0.7953 -0.1546 -0.2201
  966MOL0     O33194   9.442   4.359   5.247 -0.1762 -0.1894  0.3879
  966MOL0     C33195   9.378   4.476   5.218  0.3145  0.2569 -0.3812
  966MOL0     C33196   9.243   4.496   5.237  0.2563 -0.8700 -0.2900
  966MOL0     C33197   9.190   4.617   5.205  1.2784 -0.3243  0.4747
  966MOL0     C33198   9.045   4.651   5.231  0.4682 -0.5610 -0.4062
  966MOL0     C33199   9.264   4.721   5.147 -1.3234  0.2318 -0.4418
  966MOL0     C33200   9.214   4.853   5.097  0.5951 -0.3448  0.8920
  966MOL0     O33201   9.314   4.944   5.079 -0.5683  0.2448 -0.5683
  966MOL0     C33202   9.280   5.055   5.003 -0.1874  0.2928  0.4266
  966MOL0     C33203   9.331   5.059   4.869 -0.4984 -0.2717 -0.4681
  966MOL0     C33204   9.302   5.169   4.799 -0.1007  0.1266  0.6231
  966MOL0     C33205   9.243   5.285   4.855 -0.5064 -0.1149 -0.1324
  966MOL0     O33206   9.224   5.402   4.784 -0.4272 -0.6727  0.5648
  966MOL0     C33207   9.298   5.519   4.821 -0.1305  0.1860  0.0318
  966MOL0     C33208   9.227   5.638   4.762 -0.5280 -0.5175  0.7956
  966MOL0     C33209   9.290   5.760   4.824  0.5344  0.0676  0.5825
  966MOL0     C33210   9.259   5.884   4.740 -0.2415 -0.2696 -0.0845
  966MOL0     C33211   9.118   5.926   4.737  0.4078  0.2144 -0.2730
  966MOL0     C33212   9.096   6.057   4.665 -0.3910 -0.5436  0.6297
  966MOL0     C33213   8.949   6.078   4.658  0.1003 -0.2168 -0.5554
  966MOL0     C33214   8.916   6.226   4.624  0.2540 -0.1823 -0.7786
  966MOL0    Cl33215   8.738   6.244   4.641 -0.8005 -0.5967  0.7582
  966MOL0     C33216   9.203   5.284   4.985  0.5661 -0.7131  0.1255
  966MOL0     C33217   9.219   5.170   5.062  0.4164  0.2308  0.6897
  966MOL0     O33218   9.098   4.879   5.090  0.5622 -0.9957  0.4312
  966MOL0     C33219   9.397   4.689   5.117 -0.0959  0.9072  0.2933
  966MOL0     C33220   9.461   4.572   5.160  0.1234  0.7321 -0.5975
  966MOL0     N33221   9.781   4.212   5.658 -0.6965  0.2475 -0.2214
  966MOL0     N33222   9.877   4.166   5.732  0.2286 -0.0536  0.3557
  966MOL0     C33223   9.098   4.060   5.991  0.4572 -0.1901 -0.4704
  966MOL0     C33224   9.042   4.083   6.114  0.1289 -0.1972 -0.1635
  966MOL0     C33225   8.853   4.158   6.479 -0.4919  0.0928 -0.9295
  966MOL0     C33226   8.797   4.278   6.445 -0.0569 -1.2766  0.0847
  966MOL0     C33227   8.729   4.348   6.534 -0.4281 -0.3419 -0.4459
  966MOL0     C33228   8.740   4.328   6.674 -0.8337 -0.1548 -0.5969
  966MOL0     O33229   8.705   4.399   6.791  0.2894  0.4199  0.3059
  966MOL0     C33230   8.623   4.512   6.781 -0.3189 -0.4367  0.1092
  966MOL0     C33231   8.615   4.561   6.923  0.3975 -0.2404  0.4125
  966MOL0     C33232   8.517   4.470   7.002 -0.5313  0.5185  0.8953
  966MOL0     C33233   8.382   4.523   7.043 -0.5902  0.4963 -0.9543
  966MOL0     C33234   8.296   4.556   6.937  0.5323  1.0727 -0.0439
  966MOL0     C33235   8.211   4.588   6.854  0.1426 -0.5868  0.4862
  966MOL0     C33236   8.812   4.209   6.712  0.0581  0.1170  1.0654
  966MOL0     C33237   8.856   4.119   6.616  0.8221  0.2741  0.0758
  966MOL0     C33238   8.912   3.988   6.673  0.6182 -0.7350  0.5984
  966MOL0     H33239   8.721   3.956   6.040  1.7269 -2.6934  1.3240
  966MOL0     H33240   8.836   3.908   5.828  2.0503 -1.4413  0.3675
  966MOL0     H33241   9.237   4.090   5.747 -4.4305 -0.3437  1.6998
  966MOL0     H33242   9.239   3.963   5.627  0.3341  0.2924  0.0018
  966MOL0     H33243   9.286   3.903   5.925  0.3934 -1.2697  0.4105
  966MOL0     H33244   9.266   3.787   5.795 -0.7318 -0.1763  1.3586
  966MOL0     H33245   9.465   3.840   5.687 -1.0359  0.5748 -1.4624
  966MOL0     H33246   9.478   3.995   5.778  2.7468 -1.2374  1.8207
  966MOL0     H33247   9.510   3.863   5.993  0.2902  1.2321 -0.2576
  966MOL0     H33248   9.515   3.714   5.884  0.7304  0.6123 -6.5621
  966MOL0     H33249   9.694   3.910   5.779 -1.6070  2.6179  0.5738
  966MOL0     H33250   9.736   3.759   5.863 -2.4709 -0.5375  1.0018
  966MOL0     H33251   9.683   3.972   6.038  3.3815  1.3712  1.6213
  966MOL0     H33252   9.752   3.817   6.072 -0.3577  1.5503  1.8472
  966MOL0     H33253   9.910   3.922   5.878 -0.4570  0.3673  0.5054
  966MOL0     H33254   9.960   3.923   6.054  1.3489 -0.3996 -0.4475
  966MOL0     H33255   9.862   4.179   6.072  1.7054  0.0948  1.5888
  966MOL0     H33256   9.998   4.157   5.963 -1.1316  2.7122 -3.8739
  966MOL0     H33257   9.620   4.244   5.929  0.5351 -0.2852  1.1165
  966MOL0     H33258   9.586   4.420   5.684  0.9494  0.4944  1.6140
  966MOL0     H33259   9.477   4.285   5.749  1.2655  1.6199  1.7714
  966MOL0     H33260   9.607   4.291   5.468 -0.7147  2.5287 -0.6412
  966MOL0     H33261   9.521   4.145   5.534  0.6465  0.3285 -1.1851
  966MOL0     H33262   9.319   4.240   5.534  0.5144 -1.7956 -0.4659
  966MOL0     H33263   9.378   4.401   5.490 -1.2913 -0.0909  0.0929
  966MOL0     H33264   9.436   4.162   5.311 -0.7862 -1.1443  0.3933
  966MOL0     H33265   9.280   4.238   5.307 -0.0498 -0.0419  3.2071
  966MOL0     H33266   9.187   4.430   5.303 -2.2273  1.0626 -0.3183
  966MOL0     H33267   8.981   4.654   5.142 -2.6667  1.5883  1.6984
  966MOL0     H33268   9.041   4.751   5.274 -0.1799 -0.6493 -0.2524
  966MOL0     H33269   9.001   4.586   5.308 -2.7001 -2.9056 -3.7829
  966MOL0     H33270   9.386   4.976   4.826 -0.3074 -0.1654 -0.4306
  966MOL0     H33271   9.332   5.159   4.695  1.2622 -1.9385  1.1570
  966MOL0     H33272   9.301   5.545   4.927  0.8183  1.8003 -0.3638
  966MOL0     H33273   9.402   5.514   4.786  0.4793 -1.0308  1.8548
  966MOL0     H33274   9.247   5.649   4.655 -0.5546  2.9048  1.0416
  966MOL0     H33275   9.119   5.623   4.777 -0.2221 -3.3551  0.7333
  966MOL0     H33276   9.398   5.748   4.832  0.6347  0.1368 -0.5220
  966MOL0     H33277   9.257   5.764   4.928  3.5736 -2.0072  1.7871
  966MOL0     H33278   9.288   5.877   4.635 -2.7024 -1.7271 -0.7540
  966MOL0     H33279   9.317   5.962   4.789 -3.0684  1.3774  0.9076
  966MOL0     H33280   9.069   5.862   4.663 -0.7637  0.3055  0.4082
  966MOL0     H33281   9.069   5.929   4.835 -3.7000  1.3695 -2.1419
  966MOL0     H33282   9.147   6.059   4.568  0.7828  0.7898  1.2365
  966MOL0     H33283   9.138   6.143   4.717 -0.4747  0.8930 -1.5517
  966MOL0     H33284   8.894   6.056   4.750 -2.2570  2.3186 -1.2181
  966MOL0     H33285   8.910   6.018   4.575 -0.8833  0.8482 -0.8952
  966MOL0     H33286   8.939   6.256   4.521 -1.7271 -0.2361 -1.2889
  966MOL0     H33287   8.966   6.290   4.697 -1.9412  2.1517 -1.2019
  966MOL0     H33288   9.152   5.368   5.033  1.4977 -1.0826  1.8679
  966MOL0     H33289   9.175   5.162   5.160  2.0659  0.6898  1.4976
  966MOL0     H33290   9.459   4.770   5.080 -3.3802  3.5072  0.0166
  966MOL0     H33291   9.563   4.537   5.146 -0.6883 -2.4417  0.6298
  966MOL0     H33292   9.193   4.096   5.954  3.4831 -4.8755  1.7563
  966MOL0     H33293   9.099   4.137   6.189  0.6619 -0.6397 -0.2387
  966MOL0     H33294   8.786   4.306   6.340 -2.2623 -1.6270  0.1677
  966MOL0     H33295   8.683   4.436   6.490 -0.2711 -0.2732 -0.4761
  966MOL0     H33296   8.669   4.585   6.714  0.3207 -1.9291 -1.1320
  966MOL0     H33297   8.525   4.479   6.747 -1.0004  1.5684  0.0164
  966MOL0     H33298   8.587   4.667   6.917  2.4994  0.2915 -2.0015
  966MOL0     H33299   8.709   4.560   6.978  0.8782  2.4251 -0.2132
  966MOL0     H33300   8.507   4.371   6.956 -2.7202 -0.1004  2.5250
  966MOL0     H33301   8.578   4.445   7.090 -0.6607 -0.5423  0.6984
  966MOL0     H33302   8.384   4.604   7.116  0.3367 -0.5537  0.2233
  966MOL0     H33303   8.344   4.434   7.096 -0.3063  0.3430 -1.0090
  966MOL0     H33304   8.138   4.612   6.780  1.6675  1.6380 -0.4330
  966MOL0     H33305   8.799   4.183   6.817 -1.3860  4.1488  2.0631
  966MOL0     H33306   8.935   4.010   6.778  1.8445  3.4125 -0.3423
  966MOL0     H33307   8.832   3.914   6.667  2.5905 -2.9007 -0.5029
  966MOL0     H33308   8.989   3.932   6.619 -0.7258  0.3203 -2.6549
  967MOL0     O33309   7.130   7.491   7.775  1.0207  0.2196 -0.3796
  967MOL0     C33310   7.099   7.565   7.867 -0.3625  0.3630 -0.2291
  967MOL0     O33311   6.976   7.629   7.885  0.5075  0.0263  1.1371
  967MOL0     C33312   6.873   7.611   7.795 -0.0389 -0.1547  1.0666
  967MOL0     C33313   6.832   7.490   7.747  0.0294 -0.2331  0.0239
  967MOL0     C33314   6.732   7.482   7.650 -0.0743  0.2255 -0.2771
  967MOL0     C33315   6.662   7.599   7.606  1.0364  0.9089 -0.6371
  967MOL0     O33316   6.573   7.596   7.509  0.5413 -0.5001 -0.1427
  967MOL0     C33317   6.613   7.528   7.394 -0.1401 -0.3229  0.0221
  967MOL0     C33318   6.508   7.544   7.280 -0.2222  0.0713 -0.6419
  967MOL0     C33319   6.477   7.693   7.245  0.1166  0.4374  0.1194
  967MOL0     C33320   6.360   7.710   7.145  0.5344  0.7018  0.2966
  967MOL0     C33321   6.222   7.738   7.207  0.1566  0.1191  0.4603
  967MOL0     C33322   6.122   7.814   7.119  0.0010 -0.2070  0.6223
  967MOL0     C33323   5.997   7.845   7.205 -0.1089 -0.3994  0.1679
  967MOL0     C33324   6.001   7.973   7.278  0.7570  0.5230 -0.0202
  967MOL0     N33325   5.934   8.076   7.207  0.2008  0.0214 -0.8663
  967MOL0     C33326   5.823   8.148   7.246  0.7159  0.5640  0.4438
  967MOL0     C33327   5.783   8.218   7.137  0.3363 -0.0500  0.3859
  967MOL0     C33328   5.653   8.300   7.116 -0.9740  0.3424 -0.2250
  967MOL0     C33329   5.634   8.407   7.219 -0.0911 -0.1725 -0.1237
  967MOL0     C33330   5.510   8.504   7.194 -1.4621 -0.1681 -0.4330
  967MOL0     C33331   5.386   8.432   7.159  0.0217 -1.1606  0.3916
  967MOL0     O33332   5.334   8.357   7.272 -0.6900  0.1061  0.4892
  967MOL0     C33333   5.222   8.276   7.246  0.3964  0.7130  0.1600
  967MOL0     C33334   5.191   8.217   7.123 -0.5110  0.1917  0.1617
  967MOL0     C33335   5.079   8.140   7.100 -0.4629 -0.5141  0.1520
  967MOL0     C33336   5.078   8.060   6.971  0.2297 -0.2250  0.2452
  967MOL0     C33337   4.983   8.112   7.205 -0.5849  0.1075  1.1628
  967MOL0     C33338   4.869   8.012   7.201  0.5011  0.1225  0.2169
  967MOL0     O33339   4.767   8.036   7.297 -0.2553  0.3450 -0.4471
  967MOL0     C33340   4.698   7.922   7.321 -0.1689 -0.1840 -0.2664
  967MOL0     C33341   4.596   7.871   7.228  0.4491  0.4594 -0.0721
  967MOL0     C33342   4.538   7.752   7.254 -0.4127  1.1907 -0.2409
  967MOL0     C33343   4.569   7.674   7.367  0.3964  0.9460  0.6959
  967MOL0     O33344   4.489   7.562   7.355 -0.0089 -0.0455 -0.3515
  967MOL0     C33345   4.489   7.471   7.462 -0.2595 -0.6767  0.0395
  967MOL0     C33346   4.434   7.530   7.596  0.8392 -0.1715 -0.4314
  967MOL0     C33347   4.303   7.605   7.586  0.6178 -0.5542  0.3939
  967MOL0     C33348   4.269   7.699   7.695 -0.5544  0.3231 -0.9408
  967MOL0     C33349   4.305   7.680   7.838 -0.3261 -0.4882 -0.7485
  967MOL0     C33350   4.209   7.763   7.936 -0.2190  0.7054 -0.1964
  967MOL0     C33351   4.230   7.915   7.917  0.8811  0.3126  0.5164
  967MOL0     C33352   4.166   7.982   8.030  0.9955  0.3837  0.0687
  967MOL0    Cl33353   4.161   8.157   8.016 -0.5624  0.3348 -0.3695
  967MOL0     C33354   4.667   7.726   7.455  0.1975 -0.3033  0.7453
  967MOL0     C33355   4.733   7.855   7.440 -0.4563  0.0450 -0.1828
  967MOL0     O33356   4.858   7.938   7.099  0.5185  0.2894 -0.4114
  967MOL0     C33357   5.016   8.175   7.328 -0.2257 -0.3957  0.7979
  967MOL0     C33358   5.135   8.254   7.344  0.0813  0.5012  0.3595
  967MOL0     N33359   5.885   8.194   7.048  1.1626  0.6415 -0.7080
  967MOL0     N33360   5.976   8.119   7.094  0.5359 -0.4810  0.3846
  967MOL0     C33361   6.688   7.719   7.666  0.0253  0.6110  0.0660
  967MOL0     C33362   6.797   7.727   7.754  0.1487 -0.5706 -0.6588
  967MOL0     C33363   7.204   7.584   7.974 -0.1566 -0.4094 -0.8518
  967MOL0     C33364   7.208   7.703   8.051 -0.1164 -0.8610  0.0658
  967MOL0     C33365   7.312   7.724   8.148  0.7300 -0.7660 -0.3254
  967MOL0     C33366   7.412   7.628   8.164 -0.3770  0.4953 -0.9700
  967MOL0     O33367   7.513   7.619   8.258 -0.1234 -0.1153 -0.5576
  967MOL0     C33368   7.556   7.750   8.310 -0.1462 -0.1485 -0.5553
  967MOL0     C33369   7.645   7.740   8.433 -0.1836  0.2975  0.6186
  967MOL0     C33370   7.592   7.650   8.543 -0.1717 -0.3608  0.6280
  967MOL0     C33371   7.478   7.701   8.627 -0.5675  0.8041  0.3389
  967MOL0     C33372   7.352   7.692   8.553  1.0417  0.3876  0.0673
  967MOL0     C33373   7.254   7.689   8.482 -0.2642  0.8363 -0.2325
  967MOL0     C33374   7.401   7.507   8.097  0.0169 -0.6995  0.1470
  967MOL0     C33375   7.305   7.479   7.999 -0.3760 -0.0968 -0.6151
  967MOL0     C33376   7.333   7.348   7.936 -0.4730  0.1743  0.1803
  967MOL0     H33377   6.877   7.397   7.779 -3.2080 -1.6198  0.9421
  967MOL0     H33378   6.704   7.383   7.616  2.4115 -0.2010 -1.2607
  967MOL0     H33379   6.634   7.423   7.420  1.4315  0.0762  0.4834
  967MOL0     H33380   6.705   7.566   7.348  0.2186 -0.9356  0.2180
  967MOL0     H33381   6.548   7.497   7.189  1.4513  0.4437 -0.1333
  967MOL0     H33382   6.414   7.498   7.309  0.0555  0.8145  1.6008
  967MOL0     H33383   6.452   7.747   7.337 -1.3920  1.2838 -0.7554
  967MOL0     H33384   6.567   7.744   7.212  0.8226 -0.6651  0.2968
  967MOL0     H33385   6.363   7.798   7.080 -2.5099  2.3322  2.1438
  967MOL0     H33386   6.365   7.616   7.088 -2.1086  0.4771  0.2875
  967MOL0     H33387   6.241   7.793   7.300  1.8577 -1.4943  1.1163
  967MOL0     H33388   6.178   7.643   7.237  2.0312 -0.7434  0.6176
  967MOL0     H33389   6.153   7.916   7.096 -1.9602  0.6864  1.6697
  967MOL0     H33390   6.092   7.759   7.030  1.1386  1.5305 -0.8926
  967MOL0     H33391   5.982   7.754   7.264 -7.1187 -1.5879 -2.4420
  967MOL0     H33392   5.916   7.861   7.133 -0.3177 -1.3125  0.1917
  967MOL0     H33393   5.949   7.951   7.372  1.8368 -1.3258  0.1902
  967MOL0     H33394   6.107   7.994   7.293  0.3587  1.9495  1.0748
  967MOL0     H33395   5.765   8.143   7.337  1.1140 -0.8554  0.6387
  967MOL0     H33396   5.573   8.227   7.127  0.9351 -1.7113  0.8848
  967MOL0     H33397   5.648   8.335   7.013 -0.4014 -2.1299 -1.1600
  967MOL0     H33398   5.619   8.352   7.313 -1.4882 -2.5831 -1.6381
  967MOL0     H33399   5.724   8.469   7.226 -2.4299  3.3270  1.9631
  967MOL0     H33400   5.503   8.574   7.279 -1.7289  0.7559 -1.1958
  967MOL0     H33401   5.535   8.564   7.106  0.0450  1.7190  1.1750
  967MOL0     H33402   5.309   8.498   7.117  4.1158  2.0902 -2.8878
  967MOL0     H33403   5.413   8.375   7.069  0.2234  3.4200 -2.7871
  967MOL0     H33404   5.261   8.232   7.041  0.0532 -0.8126  0.4517
  967MOL0     H33405   4.982   8.076   6.921 -0.0274  0.8724  1.0668
  967MOL0     H33406   5.112   7.958   6.992 -0.7029 -0.4952  0.4837
  967MOL0     H33407   5.149   8.097   6.896 -2.0698  1.8981 -1.0336
  967MOL0     H33408   4.554   7.943   7.159  3.2179  0.6916 -1.6305
  967MOL0     H33409   4.449   7.721   7.200  1.9402 -2.9483 -2.2624
  967MOL0     H33410   4.420   7.391   7.436  0.2651 -1.6549  1.5231
  967MOL0     H33411   4.586   7.421   7.472  0.1762 -0.0037 -0.7189
  967MOL0     H33412   4.422   7.456   7.676  0.0832  0.8001  0.3796
  967MOL0     H33413   4.511   7.602   7.627 -1.3416  1.3576  1.8844
  967MOL0     H33414   4.226   7.528   7.574  1.8043 -1.8327  0.7354
  967MOL0     H33415   4.305   7.658   7.491  0.9952 -2.3217 -0.6282
  967MOL0     H33416   4.160   7.703   7.698 -0.5525  1.5205 -1.6159
  967MOL0     H33417   4.303   7.799   7.665 -1.9592  1.6462  1.5639
  967MOL0     H33418   4.304   7.573   7.861  1.4365 -1.0088 -2.6878
  967MOL0     H33419   4.410   7.703   7.858 -0.4871 -2.3933  3.2343
  967MOL0     H33420   4.248   7.726   8.031  3.7371  0.6291 -1.6700
  967MOL0     H33421   4.101   7.745   7.928  0.2205 -2.3651 -0.5294
  967MOL0     H33422   4.186   7.953   7.824  0.2278  1.0865  1.1284
  967MOL0     H33423   4.337   7.941   7.914 -0.0058  4.6788 -0.8658
  967MOL0     H33424   4.226   7.942   8.113  0.9492 -0.5195 -0.3151
  967MOL0     H33425   4.062   7.948   8.040  1.1985 -0.4419 -0.5236
  967MOL0     H33426   4.695   7.654   7.531 -0.6023 -0.6763  0.6949
  967MOL0     H33427   4.812   7.894   7.505 -1.5783  2.1272  0.0075
  967MOL0     H33428   4.955   8.158   7.416  0.7979 -0.0977  1.5794
  967MOL0     H33429   5.151   8.307   7.438  2.4428 -0.1255  0.3740
  967MOL0     H33430   6.621   7.797   7.631 -2.1467 -1.5023 -0.7771
  967MOL0     H33431   6.820   7.817   7.809  3.2581 -1.8282  0.3403
  967MOL0     H33432   7.138   7.785   8.036 -0.6221 -1.2671  0.2082
  967MOL0     H33433   7.317   7.819   8.201 -4.5814  0.1170 -0.8616
  967MOL0     H33434   7.608   7.796   8.227 -0.1695  0.5524 -0.1879
  967MOL0     H33435   7.473   7.813   8.342  0.5639  1.2610 -1.4176
  967MOL0     H33436   7.655   7.838   8.480 -0.5045 -0.0230  1.3893
  967MOL0     H33437   7.746   7.703   8.412 -0.8901 -1.9536  0.8578
  967MOL0     H33438   7.584   7.552   8.495  0.8344  0.9248 -2.4244
  967MOL0     H33439   7.677   7.653   8.611 -0.7912 -0.2600  1.4104
  967MOL0     H33440   7.500   7.800   8.668 -0.2913  1.1394 -0.5831
  967MOL0     H33441   7.472   7.628   8.708  0.0353  1.7015  1.2192
  967MOL0     H33442   7.174   7.697   8.412 -1.4697  2.1585  1.2197
  967MOL0     H33443   7.484   7.441   8.122  2.9619  2.4946 -0.3115
  967MOL0     H33444   7.412   7.298   7.993 -0.2797 -1.9492 -1.7842
  967MOL0     H33445   7.245   7.283   7.926  1.1120 -2.4957  2.1267
  967MOL0     H33446   7.376   7.377   7.839 -1.3812 -1.4317 -0.7506
  968MOL0     O33447   0.046   7.616   4.721  0.4791  0.1032  0.2993
  968MOL0     C33448   0.097   7.506   4.722 -0.0280  0.1350  0.6241
  968MOL0     O33449   0.068   7.408   4.636  0.1790 -0.0304  0.4313
  968MOL0     C33450  -0.052   7.406   4.557 -0.5028  0.9961  0.1072
  968MOL0     C33451  -0.174   7.473   4.584  0.6180 -1.0615  0.6226
  968MOL0     C33452  -0.284   7.464   4.499  0.7093 -0.4563  0.0199
  968MOL0     C33453  -0.283   7.377   4.394 -0.3546 -0.1676 -0.3605
  968MOL0     O33454  -0.393   7.370   4.318  0.7065  0.7267  0.5939
  968MOL0     C33455  -0.447   7.235   4.298 -0.0269  0.3451 -0.7709
  968MOL0     C33456  -0.594   7.256   4.258  0.4407 -0.0386  0.6215
  968MOL0     C33457  -0.680   7.132   4.248 -0.4291 -0.2915 -0.4470
  968MOL0     C33458  -0.653   7.066   4.121  0.0128  0.2727 -0.5351
  968MOL0     C33459  -0.760   6.959   4.083  0.2153 -0.4840 -0.4947
  968MOL0     C33460  -0.757   6.928   3.939  0.6300 -0.2418 -0.3635
  968MOL0     C33461  -0.871   6.839   3.884  0.6416 -0.0077  0.4812
  968MOL0     C33462  -0.875   6.872   3.737  0.3201 -0.1266  0.2395
  968MOL0     N33463  -0.974   6.791   3.665  0.4575  0.1861 -0.4765
  968MOL0     C33464  -0.970   6.759   3.533  0.4259 -0.6514 -0.0788
  968MOL0     C33465  -1.080   6.696   3.500  0.4872  0.4004 -0.4906
  968MOL0     C33466  -1.121   6.657   3.357  0.0553 -0.1438  0.0399
  968MOL0     C33467  -1.257   6.714   3.307 -0.5651  0.2606 -0.3376
  968MOL0     C33468  -1.260   6.864   3.312 -0.1075  0.2088 -0.1771
  968MOL0     C33469  -1.393   6.915   3.257 -0.0041 -0.7218  1.1608
  968MOL0     O33470  -1.384   7.002   3.140 -1.1772 -0.2595 -0.1845
  968MOL0     C33471  -1.486   7.080   3.107 -0.2120  0.9393 -1.1592
  968MOL0     C33472  -1.618   7.050   3.152  0.3002 -0.3954 -0.4761
  968MOL0     C33473  -1.719   7.150   3.149  0.4715  0.2248  0.6094
  968MOL0     C33474  -1.863   7.112   3.182  0.4094 -0.2543 -0.4536
  968MOL0     C33475  -1.697   7.274   3.092  0.1129  0.2452  0.4719
  968MOL0     C33476  -1.796   7.382   3.079  0.5473 -0.6923 -0.0251
  968MOL0     O33477  -1.774   7.453   2.962 -0.5739 -0.5878 -0.2642
  968MOL0     C33478  -1.841   7.575   2.942  0.4616  1.0178  0.2819
  968MOL0     C33479  -1.929   7.591   2.831 -0.5141 -0.0891 -0.1140
  968MOL0     C33480  -1.998   7.714   2.801 -0.6173 -0.4203 -0.0058
  968MOL0     C33481  -1.983   7.817   2.897 -0.3267  0.1291 -0.0796
  968MOL0     O33482  -2.062   7.927   2.875 -0.2996 -0.1893  0.1786
  968MOL0     C33483  -2.132   7.976   2.992  0.7609  1.2179  0.7541
  968MOL0     C33484  -2.249   8.073   2.955  0.3620  0.2880 -0.2501
  968MOL0     C33485  -2.199   8.212   2.898 -0.7198  0.6072  0.0905
  968MOL0     C33486  -2.137   8.192   2.759  0.9539  0.0866 -0.9067
  968MOL0     C33487  -2.146   8.328   2.679 -0.1192  0.3465  0.2833
  968MOL0     C33488  -2.115   8.297   2.537  0.2527  0.0695  0.5392
  968MOL0     C33489  -1.966   8.293   2.505  0.2898  0.7525 -0.2835
  968MOL0     C33490  -1.927   8.239   2.369 -0.0589  0.6178  0.3571
  968MOL0    Cl33491  -2.019   8.316   2.239  0.4620 -0.1611 -0.1755
  968MOL0     C33492  -1.892   7.802   3.006  0.7358  1.1465 -0.9908
  968MOL0     C33493  -1.821   7.687   3.023  0.6100  0.9773  0.7173
  968MOL0     O33494  -1.886   7.402   3.161  1.0509 -0.0633 -0.0012
  968MOL0     C33495  -1.566   7.293   3.029 -0.1330 -0.2772 -0.9916
  968MOL0     C33496  -1.463   7.199   3.034 -0.0138 -0.1796  0.1503
  968MOL0     N33497  -1.141   6.661   3.622  0.6955 -0.0060  0.1788
  968MOL0     N33498  -1.073   6.720   3.717 -0.5592  0.1743 -0.2235
  968MOL0     C33499  -0.168   7.307   4.364 -0.2434  1.3627  1.1029
  968MOL0     C33500  -0.054   7.318   4.441 -0.5487 -0.4121 -0.6206
  968MOL0     C33501   0.201   7.467   4.825 -0.6186  0.4242 -0.2238
  968MOL0     C33502   0.289   7.362   4.810  0.0644  0.3399 -0.9907
  968MOL0     C33503   0.381   7.321   4.903 -0.4433 -0.1637 -0.0958
  968MOL0     C33504   0.402   7.396   5.022 -0.0534  0.0075  0.3773
  968MOL0     O33505   0.495   7.369   5.109 -0.6985 -0.6122 -0.3538
  968MOL0     C33506   0.458   7.282   5.216  0.5765  0.1940  0.2891
  968MOL0     C33507   0.583   7.222   5.284 -0.5598  0.2291 -0.0515
  968MOL0     C33508   0.685   7.139   5.205 -0.4492 -0.0236  0.1471
  968MOL0     C33509   0.613   7.015   5.161  0.3139 -0.4436  1.3978
  968MOL0     C33510   0.606   6.915   5.262 -0.3869  0.8748  0.5580
  968MOL0     C33511   0.595   6.836   5.354  0.7036 -0.7358 -0.3353
  968MOL0     C33512   0.322   7.504   5.042 -0.6111 -0.4440 -0.0200
  968MOL0     C33513   0.225   7.545   4.949 -0.3828  0.2263 -0.7798
  968MOL0     C33514   0.162   7.675   4.982 -0.2850 -0.5388  0.3333
  968MOL0     H33515  -0.178   7.533   4.674  2.1568  1.4831 -0.8885
  968MOL0     H33516  -0.364   7.533   4.525  0.9864  0.0422 -0.4187
  968MOL0     H33517  -0.435   7.177   4.390 -0.8406  0.1014 -0.8106
  968MOL0     H33518  -0.385   7.191   4.219  0.3382 -0.4207 -0.0790
  968MOL0     H33519  -0.640   7.321   4.333 -0.0326 -1.3899  1.5565
  968MOL0     H33520  -0.605   7.312   4.165  3.9355 -0.0765  0.0344
  968MOL0     H33521  -0.653   7.082   4.342  1.8903 -1.4069 -1.6438
  968MOL0     H33522  -0.785   7.165   4.255 -0.0955  0.8978 -0.7803
  968MOL0     H33523  -0.643   7.148   4.049  1.4110  0.8755  0.3026
  968MOL0     H33524  -0.553   7.023   4.128 -0.4039 -0.5912  0.3092
  968MOL0     H33525  -0.853   7.002   4.120  0.9232  0.9276 -0.2656
  968MOL0     H33526  -0.749   6.866   4.140 -3.2807 -0.6486  0.1129
  968MOL0     H33527  -0.759   7.028   3.894  2.0971  0.2037  0.4876
  968MOL0     H33528  -0.660   6.887   3.909  1.0611  1.9313 -2.3187
  968MOL0     H33529  -0.964   6.861   3.938  0.4407 -2.3920  1.2349
  968MOL0     H33530  -0.847   6.732   3.890 -3.3959 -1.3949 -3.0990
  968MOL0     H33531  -0.885   6.980   3.727  1.7309 -0.1236 -1.5689
  968MOL0     H33532  -0.778   6.854   3.691 -0.1829  0.3286 -1.0355
  968MOL0     H33533  -0.888   6.789   3.469 -2.0629  2.4837 -2.1103
  968MOL0     H33534  -1.124   6.547   3.362 -3.6167 -0.2146 -0.9200
  968MOL0     H33535  -1.042   6.684   3.286  3.4125 -4.4713  1.6593
  968MOL0     H33536  -1.269   6.670   3.208  1.2596 -0.3847 -0.3022
  968MOL0     H33537  -1.335   6.668   3.368  0.0724 -1.1016 -0.5154
  968MOL0     H33538  -1.262   6.886   3.419 -4.8582  0.4788 -0.0863
  968MOL0     H33539  -1.171   6.909   3.267  0.6541  0.5163  1.5712
  968MOL0     H33540  -1.453   6.829   3.226 -0.4944  0.0980 -0.2528
  968MOL0     H33541  -1.444   6.984   3.325 -0.7105  2.1834 -2.0258
  968MOL0     H33542  -1.642   6.959   3.206  0.4850  0.5776  1.3181
  968MOL0     H33543  -1.939   7.135   3.106 -1.1289  0.2278  1.1672
  968MOL0     H33544  -1.901   7.150   3.277  0.6768 -1.2339  0.0670
  968MOL0     H33545  -1.879   7.003   3.184 -1.4552 -0.0139  1.9842
  968MOL0     H33546  -1.932   7.515   2.753 -1.8664  0.8354 -0.9970
  968MOL0     H33547  -2.078   7.718   2.727 -0.1129 -0.1097 -0.5542
  968MOL0     H33548  -2.178   7.903   3.060 -0.2561  0.2807 -0.8712
  968MOL0     H33549  -2.061   8.041   3.044  0.0001  2.8933 -0.2254
  968MOL0     H33550  -2.315   8.018   2.888  0.8886 -1.1768  0.3923
  968MOL0     H33551  -2.308   8.099   3.044 -0.3274  0.7242 -0.8325
  968MOL0     H33552  -2.115   8.247   2.959  0.1671  0.6950 -1.1541
  968MOL0     H33553  -2.272   8.293   2.904  1.3283  2.4225  2.6912
  968MOL0     H33554  -2.197   8.109   2.721 -0.3357  0.0681  1.0402
  968MOL0     H33555  -2.034   8.155   2.772  0.8216  0.6024  2.4904
  968MOL0     H33556  -2.243   8.377   2.675 -0.7954 -1.0388 -1.6970
  968MOL0     H33557  -2.067   8.394   2.718 -1.2218  2.8990 -1.5294
  968MOL0     H33558  -2.158   8.383   2.484  3.4663  0.4397 -1.7834
  968MOL0     H33559  -2.171   8.207   2.509 -0.3227 -0.0014  1.8858
  968MOL0     H33560  -1.908   8.235   2.577  0.5037  0.7062 -0.4897
  968MOL0     H33561  -1.934   8.398   2.506 -0.8572  1.1746  2.9976
  968MOL0     H33562  -1.952   8.133   2.361 -0.1120  0.6710 -0.2162
  968MOL0     H33563  -1.819   8.248   2.357 -0.0563  0.1600 -0.0091
  968MOL0     H33564  -1.893   7.879   3.083 -3.2715  1.0381 -0.6932
  968MOL0     H33565  -1.763   7.671   3.113  1.1215  1.6696  0.5152
  968MOL0     H33566  -1.551   7.391   2.985  0.1325  2.5367  4.5034
  968MOL0     H33567  -1.363   7.223   2.999 -0.8500  1.6650 -1.1384
  968MOL0     H33568  -0.158   7.253   4.271 -1.5213  4.4839 -1.0303
  968MOL0     H33569   0.027   7.248   4.418 -1.2322 -1.5770  0.3616
  968MOL0     H33570   0.282   7.294   4.726 -2.4478 -0.4455 -0.2381
  968MOL0     H33571   0.452   7.244   4.877 -0.9614 -0.3402 -1.0631
  968MOL0     H33572   0.414   7.336   5.300 -1.0773  0.5672 -0.7841
  968MOL0     H33573   0.391   7.201   5.186  0.9911 -0.2031  0.4143
  968MOL0     H33574   0.551   7.164   5.372 -1.4766 -0.8877 -1.0728
  968MOL0     H33575   0.631   7.310   5.327 -2.4368  2.0067 -1.3972
  968MOL0     H33576   0.724   7.197   5.121  0.6993  0.3891  0.9402
  968MOL0     H33577   0.769   7.122   5.273  1.1744  0.7168 -1.5963
  968MOL0     H33578   0.661   6.970   5.074  0.2146  0.3118  0.9343
  968MOL0     H33579   0.518   7.050   5.118  1.7826  1.6898 -0.3050
  968MOL0     H33580   0.595   6.755   5.425 -1.6571 -0.7989 -0.3304
  968MOL0     H33581   0.337   7.574   5.124  1.9090 -0.4559 -0.4126
  968MOL0     H33582   0.246   7.742   5.004  0.7626 -0.0050 -4.3677
  968MOL0     H33583   0.103   7.728   4.906  3.2135  0.9916 -1.5690
  968MOL0     H33584   0.103   7.665   5.074 -1.5892  1.5947 -0.2046
  969MOL0     O33585   3.328   9.896   6.123  0.0005  0.1654 -0.2779
  969MOL0     C33586   3.340   9.934   6.237 -0.7016  1.0347 -0.4274
  969MOL0     O33587   3.290  10.050   6.295  0.2485  0.9310  0.3616
  969MOL0     C33588   3.210  10.130   6.216 -0.3559  0.1056 -0.7103
  969MOL0     C33589   3.266  10.226   6.135 -0.0725  0.6459  0.0380
  969MOL0     C33590   3.183  10.300   6.050  0.1985  0.0841  0.2683
  969MOL0     C33591   3.042  10.292   6.057  0.4823  0.3550  0.3629
  969MOL0     O33592   2.979  10.379   5.985  0.1131 -0.5135 -0.4375
  969MOL0     C33593   2.836  10.361   5.977 -0.5229 -0.7160  0.5249
  969MOL0     C33594   2.775  10.471   5.890  0.0054 -0.4737 -0.2298
  969MOL0     C33595   2.633  10.426   5.851  0.3712 -0.6319 -0.2142
  969MOL0     C33596   2.540  10.534   5.820  1.0110 -0.4512 -0.2523
  969MOL0     C33597   2.482  10.611   5.948  1.2861  0.4201  0.5144
  969MOL0     C33598   2.473  10.770   5.917  0.2171 -0.0211  0.6466
  969MOL0     C33599   2.359  10.807   5.832 -0.1887 -0.5663  0.0959
  969MOL0     C33600   2.329  10.957   5.856  0.2273  1.1967 -0.1532
  969MOL0     N33601   2.241  11.020   5.751 -0.0193  0.2502  0.0681
  969MOL0     C33602   2.289  11.076   5.638  0.3011 -0.3982 -0.3641
  969MOL0     C33603   2.179  11.111   5.573  0.4315  0.4834 -0.9402
  969MOL0     C33604   2.183  11.167   5.439  0.0594 -0.8403  0.2370
  969MOL0     C33605   2.261  11.079   5.332  0.2276 -0.5673 -0.4419
  969MOL0     C33606   2.184  10.983   5.255  0.1334 -0.7672 -0.4375
  969MOL0     C33607   2.103  11.062   5.151 -0.7581  0.7016 -0.1149
  969MOL0     O33608   1.978  11.109   5.198  0.7284  0.1598 -0.5431
  969MOL0     C33609   1.861  11.087   5.130  0.2242 -0.3939 -0.4143
  969MOL0     C33610   1.744  11.113   5.203  1.3047  0.3879 -0.2181
  969MOL0     C33611   1.615  11.121   5.136 -0.1639  0.0163  0.5696
  969MOL0     C33612   1.498  11.136   5.232  0.3968 -0.3119  0.9238
  969MOL0     C33613   1.617  11.101   4.994  0.5030  0.4698 -0.4887
  969MOL0     C33614   1.496  11.089   4.911  0.1318  0.5796  0.0362
  969MOL0     O33615   1.503  11.106   4.776  0.2407 -0.2158  0.4190
  969MOL0     C33616   1.407  11.089   4.676  0.3613  0.1356 -0.1305
  969MOL0     C33617   1.440  11.048   4.550 -1.1279 -0.7093  0.4496
  969MOL0     C33618   1.347  11.034   4.446  0.2653  0.2835  0.1330
  969MOL0     C33619   1.212  11.047   4.487 -0.1011  0.2618  0.6442
  969MOL0     O33620   1.102  11.026   4.412 -0.4806 -0.2885  0.3161
  969MOL0     C33621   1.113  11.061   4.274  0.7451  0.4911 -0.4666
  969MOL0     C33622   0.971  11.112   4.220 -0.8783  0.1950 -0.5013
  969MOL0     C33623   0.994  11.157   4.073 -0.4541  0.7477 -0.4795
  969MOL0     C33624   0.875  11.243   4.019  0.4525  0.0035 -0.1374
  969MOL0     C33625   0.890  11.285   3.865  0.6101 -0.3934 -0.6239
  969MOL0     C33626   0.761  11.345   3.801  0.4420  0.5318  0.3328
  969MOL0     C33627   0.771  11.348   3.643 -0.8235 -0.0214 -0.7159
  969MOL0     C33628   0.762  11.205   3.589 -0.0969 -0.4764  0.5239
  969MOL0    Cl33629   0.897  11.102   3.566 -0.5503 -0.2386  0.3414
  969MOL0     C33630   1.178  11.086   4.610  0.8701  0.5087  1.1324
  969MOL0     C33631   1.269  11.111   4.706 -0.7292 -0.4813 -0.0260
  969MOL0     O33632   1.393  11.051   4.965 -0.2907  0.5679  0.3071
  969MOL0     C33633   1.738  11.075   4.930 -0.3834  0.4133  0.0219
  969MOL0     C33634   1.860  11.067   4.991  0.7146  0.6495 -1.3079
  969MOL0     N33635   2.060  11.066   5.634 -0.3388  0.6083 -0.2210
  969MOL0     N33636   2.105  10.996   5.738 -0.7925 -0.1680  0.4796
  969MOL0     C33637   2.987  10.197   6.142 -0.0024  0.3759 -0.2364
  969MOL0     C33638   3.072  10.106   6.210 -0.6418 -1.2012 -0.4047
  969MOL0     C33639   3.421   9.836   6.321  1.1678 -0.0672  0.1030
  969MOL0     C33640   3.416   9.851   6.466 -0.0772 -0.1558 -0.1676
  969MOL0     C33641   3.465   9.754   6.552 -0.6471 -0.8518 -0.0271
  969MOL0     C33642   3.525   9.643   6.502  0.2467 -0.1556 -0.4176
  969MOL0     O33643   3.576   9.536   6.592  0.6114  0.2992  0.9934
  969MOL0     C33644   3.655   9.589   6.700  0.1200  0.8269 -1.2054
  969MOL0     C33645   3.577   9.573   6.829 -0.5819  0.1631 -0.7709
  969MOL0     C33646   3.580   9.435   6.886 -0.5963 -0.4813  0.2403
  969MOL0     C33647   3.552   9.426   7.038  0.2086 -0.2746 -1.0897
  969MOL0     C33648   3.413   9.482   7.055 -0.8989  0.6146 -0.7100
  969MOL0     C33649   3.300   9.530   7.073 -0.7417 -0.4178  0.8637
  969MOL0     C33650   3.541   9.634   6.368 -1.0104 -0.5658 -0.2913
  969MOL0     C33651   3.493   9.723   6.271  0.6284 -0.0789  0.0067
  969MOL0     C33652   3.545   9.712   6.128  1.3890  0.6846  0.8090
  969MOL0     H33653   3.373  10.236   6.119 -0.3688  2.0691 -1.2904
  969MOL0     H33654   3.234  10.371   5.986  2.8376 -0.6980  1.3846
  969MOL0     H33655   2.780  10.360   6.070  1.7214 -1.4213  1.9504
  969MOL0     H33656   2.819  10.271   5.916 -4.2045  0.3374 -0.2147
  969MOL0     H33657   2.775  10.569   5.938 -0.2369  0.4460 -2.0496
  969MOL0     H33658   2.842  10.472   5.804 -0.3203 -0.1463 -0.4827
  969MOL0     H33659   2.633  10.358   5.766  1.6628 -1.6498  0.5608
  969MOL0     H33660   2.589  10.360   5.926 -2.2453  0.3836 -0.7696
  969MOL0     H33661   2.573  10.611   5.749 -1.2285  0.7657 -0.0600
  969MOL0     H33662   2.464  10.481   5.763 -1.1935  2.6133 -0.4074
  969MOL0     H33663   2.543  10.594   6.037  1.5203 -1.3619  0.0514
  969MOL0     H33664   2.380  10.577   5.965 -0.4637  5.0415  0.6455
  969MOL0     H33665   2.467  10.818   6.016 -1.9826 -0.9502  1.0212
  969MOL0     H33666   2.567  10.789   5.864 -1.0623 -4.7266 -4.1427
  969MOL0     H33667   2.277  10.751   5.879  0.3289 -1.2580  0.2014
  969MOL0     H33668   2.382  10.783   5.728 -0.2381 -1.1127  0.2048
  969MOL0     H33669   2.277  10.972   5.951  1.4635  0.2946  0.6849
  969MOL0     H33670   2.418  11.019   5.866  0.0549  1.3727  0.3222
  969MOL0     H33671   2.389  11.085   5.598 -0.0353  0.9912 -0.9673
  969MOL0     H33672   2.237  11.262   5.444 -1.0489 -0.0447 -1.8896
  969MOL0     H33673   2.085  11.196   5.402  1.4504  0.6610 -2.6049
  969MOL0     H33674   2.311  11.155   5.271  0.4632  1.7291  2.3799
  969MOL0     H33675   2.347  11.026   5.372  1.8441  0.9316 -1.7556
  969MOL0     H33676   2.255  10.921   5.199  1.5920  1.3930 -1.1313
  969MOL0     H33677   2.129  10.916   5.321 -2.2512  2.4819  1.1493
  969MOL0     H33678   2.155  11.149   5.107 -2.5283  1.0755 -1.5981
  969MOL0     H33679   2.086  10.986   5.074 -0.2846 -0.2075  0.6747
  969MOL0     H33680   1.756  11.138   5.308  0.6287  2.1520 -0.5273
  969MOL0     H33681   1.468  11.039   5.274 -1.3410 -0.6034 -0.8145
  969MOL0     H33682   1.414  11.179   5.176  1.3079 -0.5945 -0.7311
  969MOL0     H33683   1.535  11.201   5.311  0.6594  0.5248  0.1193
  969MOL0     H33684   1.544  11.035   4.522 -1.3103  0.6754 -1.1055
  969MOL0     H33685   1.375  11.009   4.345  2.1217 -1.8248  1.0707
  969MOL0     H33686   1.184  11.144   4.263  0.4751  0.6647 -0.9666
  969MOL0     H33687   1.134  10.974   4.212 -1.7243  0.0871 -0.8336
  969MOL0     H33688   0.895  11.033   4.215 -0.9535  0.2008  0.3744
  969MOL0     H33689   0.931  11.188   4.286  0.0570 -1.2879  1.9233
  969MOL0     H33690   1.015  11.070   4.010 -2.1925 -1.0634  1.3216
  969MOL0     H33691   1.082  11.222   4.064 -0.0883  0.2018 -0.9540
  969MOL0     H33692   0.872  11.330   4.085 -3.1436  1.7925 -2.3273
  969MOL0     H33693   0.782  11.188   4.036  0.0221  0.5925 -0.5290
  969MOL0     H33694   0.976  11.352   3.854  1.1263 -0.9113  0.1036
  969MOL0     H33695   0.920  11.190   3.821  0.7474 -0.7479  0.2168
  969MOL0     H33696   0.734  11.445   3.836 -3.6839 -0.6786  1.1443
  969MOL0     H33697   0.673  11.288   3.832  0.0459  0.8672 -0.1600
  969MOL0     H33698   0.868  11.387   3.610 -0.1806 -0.4518  0.5920
  969MOL0     H33699   0.686  11.406   3.606  1.9735  3.9114 -1.6516
  969MOL0     H33700   0.736  11.223   3.484 -2.0285 -1.5466  0.7703
  969MOL0     H33701   0.678  11.154   3.636 -0.6316 -0.9853 -0.9272
  969MOL0     H33702   1.074  11.104   4.637  0.7111  1.1625  0.1477
  969MOL0     H33703   1.239  11.133   4.808  1.5170 -1.9525  1.0251
  969MOL0     H33704   1.748  11.072   4.822  0.6382  4.3459 -0.1413
  969MOL0     H33705   1.945  11.026   4.937  0.4363 -4.3509  1.4484
  969MOL0     H33706   2.879  10.185   6.153  0.3495 -4.6771  0.2474
  969MOL0     H33707   3.027  10.023   6.264  0.3875 -2.1996 -1.0400
  969MOL0     H33708   3.339   9.920   6.501 -3.0945 -2.1323 -2.3628
  969MOL0     H33709   3.463   9.777   6.659 -1.5056 -0.9039 -0.0205
  969MOL0     H33710   3.753   9.541   6.695 -0.9351 -1.6423  0.2450
  969MOL0     H33711   3.667   9.697   6.689  1.9709  0.8825  0.7785
  969MOL0     H33712   3.473   9.605   6.823 -0.4131  0.9736  0.2417
  969MOL0     H33713   3.633   9.642   6.894  1.4369 -0.4405 -1.7789
  969MOL0     H33714   3.513   9.364   6.835  0.2212  0.3207 -2.0619
  969MOL0     H33715   3.676   9.391   6.857 -0.6166 -1.0342  0.9904
  969MOL0     H33716   3.634   9.479   7.088 -0.4552 -0.1323 -0.1303
  969MOL0     H33717   3.550   9.322   7.071 -1.9061 -0.0801 -0.4522
  969MOL0     H33718   3.205   9.578   7.073  0.7424  3.0002 -2.8028
  969MOL0     H33719   3.598   9.546   6.341  0.3864  0.5927 -1.2370
  969MOL0     H33720   3.576   9.816   6.115 -1.5951  1.6542  0.5852
  969MOL0     H33721   3.628   9.643   6.109  0.5218  0.0466 -0.9165
  969MOL0     H33722   3.467   9.678   6.059  0.5999 -1.0746  2.4615
  970MOL0     O33723   7.064   8.243   0.414 -0.0811 -0.1940 -0.0484
  970MOL0     C33724   7.008   8.139   0.373  0.4652  0.6669  0.7343
  970MOL0     O33725   7.021   8.013   0.435  0.6375 -0.2627  0.3361
  970MOL0     C33726   7.075   8.021   0.565  0.3385  0.6812  0.5047
  970MOL0     C33727   7.206   7.974   0.601 -0.9215 -0.0302 -0.1913
  970MOL0     C33728   7.264   7.973   0.730  0.0232 -0.1395  0.7014
  970MOL0     C33729   7.176   8.006   0.839 -0.4141 -0.2402 -0.5310
  970MOL0     O33730   7.221   8.002   0.969 -0.4488  0.0894  0.5140
  970MOL0     C33731   7.227   8.131   1.019  0.1197 -0.1144 -0.8576
  970MOL0     C33732   7.306   8.123   1.152  0.2294  0.4653 -0.2219
  970MOL0     C33733   7.215   8.063   1.270 -0.1015 -0.1533  0.5052
  970MOL0     C33734   7.268   8.064   1.415 -0.3803  0.3233  0.1675
  970MOL0     C33735   7.412   8.017   1.436  0.4945  0.1619  0.2537
  970MOL0     C33736   7.440   7.874   1.389  1.0701 -0.1323 -0.5292
  970MOL0     C33737   7.572   7.825   1.442  0.5175 -0.6229  0.0171
  970MOL0     C33738   7.687   7.895   1.371 -0.2308  0.9387 -0.4482
  970MOL0     N33739   7.821   7.859   1.425 -0.1968  0.4566  0.2119
  970MOL0     C33740   7.882   7.909   1.532 -0.7263 -0.3174 -0.6278
  970MOL0     C33741   8.011   7.877   1.534 -0.6177  0.9287 -0.3801
  970MOL0     C33742   8.099   7.902   1.653 -0.0498 -0.7310 -0.4258
  970MOL0     C33743   8.203   8.005   1.640 -0.3491 -0.5237 -0.9911
  970MOL0     C33744   8.330   7.970   1.555  0.1484 -0.7603 -0.1500
  970MOL0     C33745   8.431   8.079   1.569 -0.2541  0.4225  0.6613
  970MOL0     O33746   8.362   8.202   1.521  0.2611  0.0232 -0.6015
  970MOL0     C33747   8.376   8.233   1.385 -0.4702 -0.0882 -0.2443
  970MOL0     C33748   8.354   8.364   1.346 -0.2543  0.2833  0.0032
  970MOL0     C33749   8.347   8.404   1.204  0.9084 -0.0298  0.2091
  970MOL0     C33750   8.304   8.549   1.186  0.5633 -0.6647 -0.6158
  970MOL0     C33751   8.381   8.306   1.104 -0.3968 -0.8110 -0.2929
  970MOL0     C33752   8.374   8.332   0.961 -0.2370 -0.3050 -0.2586
  970MOL0     O33753   8.337   8.227   0.879 -0.1474  1.1997 -0.0742
  970MOL0     C33754   8.353   8.232   0.738  1.2634  0.0807 -0.1617
  970MOL0     C33755   8.458   8.169   0.665  0.7624  0.2936 -0.3327
  970MOL0     C33756   8.461   8.175   0.521 -0.1891 -0.3068 -0.2087
  970MOL0     C33757   8.365   8.256   0.455  0.6735  0.2675 -0.0588
  970MOL0     O33758   8.348   8.276   0.319  0.2639  0.6551  0.0920
  970MOL0     C33759   8.342   8.146   0.251  0.5014 -0.4039 -0.0648
  970MOL0     C33760   8.356   8.166   0.094  0.3475 -0.8636  0.3851
  970MOL0     C33761   8.247   8.248   0.029 -0.6218 -0.0938  1.2919
  970MOL0     C33762   8.281   8.287  -0.122 -0.9573 -0.2792 -0.1049
  970MOL0     C33763   8.157   8.345  -0.199 -0.1516 -0.6319 -0.2830
  970MOL0     C33764   8.200   8.393  -0.339 -0.6804 -0.6001  0.1069
  970MOL0     C33765   8.100   8.484  -0.409  0.7004 -0.0715 -0.9312
  970MOL0     C33766   8.117   8.502  -0.549 -0.0537 -0.1486  0.7456
  970MOL0    Cl33767   8.261   8.599  -0.573 -0.2967 -0.0401 -0.0466
  970MOL0     C33768   8.252   8.312   0.531  0.2277  0.3316  0.2474
  970MOL0     C33769   8.245   8.301   0.674  0.2930  0.3298 -0.6978
  970MOL0     O33770   8.425   8.430   0.915  0.7105 -0.5300 -0.0800
  970MOL0     C33771   8.420   8.186   1.141  0.5019  0.4322 -0.1211
  970MOL0     C33772   8.430   8.152   1.280  0.4396 -0.4794 -0.9700
  970MOL0     N33773   8.041   7.804   1.416  0.1690 -0.6968 -0.6619
  970MOL0     N33774   7.927   7.804   1.348 -0.5755  0.9412 -0.0793
  970MOL0     C33775   7.052   8.058   0.805  0.0480 -0.1766  0.1396
  970MOL0     C33776   7.005   8.078   0.673 -0.1475  0.0657 -0.3860
  970MOL0     C33777   6.908   8.154   0.262 -0.1837 -0.8023 -0.1667
  970MOL0     C33778   6.845   8.036   0.221 -0.4729  0.4102  0.4341
  970MOL0     C33779   6.780   8.032   0.097  0.5245 -0.5732 -0.2509
  970MOL0     C33780   6.740   8.152   0.040 -0.3338 -0.6018  1.2795
  970MOL0     O33781   6.648   8.149  -0.060  0.0596  0.0337  0.7157
  970MOL0     C33782   6.624   8.276  -0.128  0.5864  0.4982  0.4383
  970MOL0     C33783   6.493   8.243  -0.208 -1.0777  0.3460 -0.0256
  970MOL0     C33784   6.372   8.257  -0.122  0.3518 -0.1402 -0.0984
  970MOL0     C33785   6.360   8.131  -0.037  0.5397 -0.2266 -0.6265
  970MOL0     C33786   6.227   8.146   0.030  0.0889 -0.0106 -0.4195
  970MOL0     C33787   6.125   8.161   0.089 -0.1334  0.1596  0.8594
  970MOL0     C33788   6.791   8.276   0.093  0.6495 -0.2188 -0.0168
  970MOL0     C33789   6.876   8.272   0.197 -0.1862  0.2730  0.1881
  970MOL0     C33790   6.949   8.409   0.222  0.0295 -0.6278 -0.2381
  970MOL0     H33791   7.255   7.936   0.512 -3.5374  0.7192 -2.0659
  970MOL0     H33792   7.360   7.941   0.769 -1.1991 -1.5700  2.7422
  970MOL0     H33793   7.134   8.180   1.046  1.0039  1.0093  0.2730
  970MOL0     H33794   7.279   8.204   0.957 -0.7135  1.4906  0.2774
  970MOL0     H33795   7.396   8.065   1.132 -0.3625 -0.0705 -1.4299
  970MOL0     H33796   7.342   8.221   1.186  1.6756  0.3410 -1.3249
  970MOL0     H33797   7.125   8.124   1.283 -0.4936 -0.4763 -0.5563
  970MOL0     H33798   7.182   7.963   1.239 -0.0315  0.2928 -1.0970
  970MOL0     H33799   7.254   8.161   1.464 -0.5250 -1.3286  3.7206
  970MOL0     H33800   7.196   7.999   1.465  0.3847 -1.0411 -0.4455
  970MOL0     H33801   7.435   8.033   1.542 -0.2142 -0.1653  0.4629
  970MOL0     H33802   7.473   8.085   1.376  1.4732 -0.0920  0.9378
  970MOL0     H33803   7.355   7.815   1.423  0.3845  1.2325  0.2406
  970MOL0     H33804   7.427   7.853   1.282 -3.6027 -0.1098 -0.1751
  970MOL0     H33805   7.587   7.716   1.438 -0.4671 -0.7852  0.3289
  970MOL0     H33806   7.580   7.853   1.547  2.5234  1.1691 -0.5635
  970MOL0     H33807   7.672   7.860   1.269 -2.5821 -0.7177  0.4014
  970MOL0     H33808   7.682   8.004   1.376 -2.4718  0.8597 -0.1033
  970MOL0     H33809   7.840   7.966   1.615  1.8671 -1.2398  1.4622
  970MOL0     H33810   8.160   7.810   1.659 -0.6389 -1.2569 -1.8695
  970MOL0     H33811   8.036   7.918   1.740  1.1186  1.8408  0.0301
  970MOL0     H33812   8.157   8.091   1.591 -0.8857 -1.6651 -2.5726
  970MOL0     H33813   8.240   8.032   1.740  2.0310  0.8127 -2.1530
  970MOL0     H33814   8.374   7.878   1.595 -0.2949 -0.6111  0.6804
  970MOL0     H33815   8.303   7.964   1.449  0.2706 -1.4787 -0.1477
  970MOL0     H33816   8.459   8.101   1.672  1.5436  0.3509  0.2212
  970MOL0     H33817   8.520   8.066   1.507  0.1915 -0.0484  1.3866
  970MOL0     H33818   8.327   8.433   1.426 -0.3252 -1.4140  1.5152
  970MOL0     H33819   8.385   8.622   1.192  0.6848 -0.9317  2.8971
  970MOL0     H33820   8.241   8.563   1.274  1.6332  0.4136  0.0169
  970MOL0     H33821   8.243   8.565   1.096  0.0487  1.2735  0.0158
  970MOL0     H33822   8.538   8.120   0.719 -0.5276 -0.4967  0.9050
  970MOL0     H33823   8.539   8.120   0.470 -1.5790 -2.0313 -0.5975
  970MOL0     H33824   8.429   8.087   0.280  1.8651  0.6843 -1.6933
  970MOL0     H33825   8.250   8.090   0.268 -0.0343  0.8085  1.1812
  970MOL0     H33826   8.454   8.213   0.081  0.5311 -0.7335  2.0055
  970MOL0     H33827   8.361   8.075   0.034 -0.0632  0.4892 -1.8361
  970MOL0     H33828   8.242   8.342   0.084 -0.6397  3.0845 -3.5383
  970MOL0     H33829   8.146   8.204   0.028 -1.7053  2.2297 -0.0652
  970MOL0     H33830   8.315   8.196  -0.173 -2.2354 -0.4252 -0.7373
  970MOL0     H33831   8.358   8.365  -0.116 -0.0944 -1.2018  0.9773
  970MOL0     H33832   8.074   8.273  -0.201  0.4152 -1.5290  2.8008
  970MOL0     H33833   8.122   8.435  -0.147 -0.0091  0.7351 -2.4592
  970MOL0     H33834   8.203   8.307  -0.407  1.0862  0.5713 -1.3855
  970MOL0     H33835   8.296   8.445  -0.342 -1.2919  0.7039 -5.0470
  970MOL0     H33836   8.102   8.579  -0.355  3.6305 -0.5752  0.0072
  970MOL0     H33837   8.003   8.439  -0.383  1.8865 -0.9019  2.6777
  970MOL0     H33838   8.030   8.539  -0.604  1.1264 -0.4750 -1.4042
  970MOL0     H33839   8.129   8.414  -0.613  2.1020  0.6404 -0.0096
  970MOL0     H33840   8.170   8.344   0.468  2.5189 -1.5540 -4.0987
  970MOL0     H33841   8.162   8.340   0.733  0.6126 -0.7896  0.5259
  970MOL0     H33842   8.446   8.105   1.074 -0.5698  0.7541 -0.9525
  970MOL0     H33843   8.470   8.052   1.294  0.2243 -0.3892  0.4644
  970MOL0     H33844   6.979   8.085   0.880 -2.3501 -0.8906 -1.8033
  970MOL0     H33845   6.904   8.114   0.655 -0.4427 -0.4963  0.0838
  970MOL0     H33846   6.866   7.939   0.265  0.8165  0.8349  0.7882
  970MOL0     H33847   6.752   7.934   0.060  3.0714 -1.0758 -1.1147
  970MOL0     H33848   6.604   8.357  -0.057  3.4610  1.5295  0.2210
  970MOL0     H33849   6.711   8.301  -0.190  2.2977  2.6684  3.4258
  970MOL0     H33850   6.489   8.141  -0.247 -0.4468 -0.2000  1.2777
  970MOL0     H33851   6.482   8.316  -0.289  0.6202  1.7722  0.9467
  970MOL0     H33852   6.381   8.344  -0.057  4.8331  0.4800 -1.2293
  970MOL0     H33853   6.288   8.274  -0.191 -2.6687  2.1265  3.7337
  970MOL0     H33854   6.438   8.121   0.039  0.2653 -1.8684 -0.5292
  970MOL0     H33855   6.358   8.037  -0.094 -0.1858 -0.8695  0.4209
  970MOL0     H33856   6.033   8.160   0.144 -1.6888 -3.5442 -1.3473
  970MOL0     H33857   6.771   8.376   0.055 -0.9547 -1.1343 -1.7930
  970MOL0     H33858   7.057   8.394   0.227  0.1278  0.1599  0.1187
  970MOL0     H33859   6.927   8.488   0.149  1.6834 -0.0029 -0.0946
  970MOL0     H33860   6.926   8.457   0.318  2.6417  2.2372 -0.8863
  971MOL0     O33861  10.340   1.930   1.474 -0.0990  0.9195  0.2532
  971MOL0     C33862  10.377   1.929   1.592 -1.1444 -0.1029  0.2689
  971MOL0     O33863  10.341   2.022   1.679  0.9527  0.1622 -0.2653
  971MOL0     C33864  10.229   2.093   1.648 -0.5806  0.1400  0.0306
  971MOL0     C33865  10.233   2.224   1.594  0.0782  0.1668 -1.4593
  971MOL0     C33866  10.113   2.297   1.556 -0.8055  0.2481  0.2912
  971MOL0     C33867   9.992   2.234   1.562  0.7625  0.8889 -0.0379
  971MOL0     O33868   9.885   2.318   1.519  0.2686  0.0841  0.4855
  971MOL0     C33869   9.753   2.264   1.536 -0.3611 -0.1277  0.0936
  971MOL0     C33870   9.662   2.354   1.459 -0.1164  0.8116  0.0283
  971MOL0     C33871   9.514   2.326   1.494  0.2009  0.9113 -0.3019
  971MOL0     C33872   9.414   2.411   1.412 -0.3510 -0.6815  0.8688
  971MOL0     C33873   9.283   2.447   1.495  0.2671 -0.0625 -0.2784
  971MOL0     C33874   9.176   2.502   1.398 -0.0095 -0.1704 -0.3509
  971MOL0     C33875   9.058   2.532   1.498  0.3817 -0.4377  0.0448
  971MOL0     C33876   8.938   2.600   1.433  0.1059 -0.1865 -0.2054
  971MOL0     N33877   8.964   2.745   1.403  0.2679  0.0603 -0.6345
  971MOL0     C33878   8.877   2.843   1.448 -0.0870 -0.0001  0.2400
  971MOL0     C33879   8.930   2.960   1.398  0.5164 -0.5709  0.2712
  971MOL0     C33880   8.881   3.098   1.437  0.3145 -0.2566 -0.3364
  971MOL0     C33881   8.988   3.207   1.443 -0.0330 -0.3315  0.8464
  971MOL0     C33882   8.949   3.312   1.547  0.1058  0.8345  0.3583
  971MOL0     C33883   9.019   3.436   1.508  0.2617 -0.5039  1.1499
  971MOL0     O33884   8.965   3.499   1.393  0.2986  0.1318  0.0761
  971MOL0     C33885   8.852   3.574   1.400 -0.3274 -0.6002 -0.4976
  971MOL0     C33886   8.781   3.610   1.513  1.2171  0.6171 -0.2224
  971MOL0     C33887   8.668   3.686   1.503  0.6900 -0.4316 -0.4362
  971MOL0     C33888   8.603   3.753   1.628 -0.0140  0.0762  0.4326
  971MOL0     C33889   8.623   3.733   1.380 -0.1342 -0.8119  1.1694
  971MOL0     C33890   8.502   3.811   1.349 -0.4605  0.1999 -0.4137
  971MOL0     O33891   8.431   3.772   1.243  0.8916 -0.1579 -0.4851
  971MOL0     C33892   8.313   3.824   1.208  0.9491 -0.1968 -0.0257
  971MOL0     C33893   8.285   3.813   1.074  0.8104  0.9011 -0.1864
  971MOL0     C33894   8.155   3.844   1.029  0.2325  0.4530 -0.0267
  971MOL0     C33895   8.056   3.863   1.115  0.7234 -0.8645 -0.1290
  971MOL0     O33896   7.924   3.858   1.074 -0.5806  0.0181 -0.9218
  971MOL0     C33897   7.886   3.733   1.001 -0.8543 -0.3705 -0.8310
  971MOL0     C33898   7.788   3.768   0.893 -0.0852  0.4196 -0.4423
  971MOL0     C33899   7.812   3.688   0.767 -1.2083  0.5256 -0.7265
  971MOL0     C33900   7.715   3.709   0.650 -0.8418 -0.4352 -0.4501
  971MOL0     C33901   7.718   3.849   0.591 -0.0189 -0.3198  0.1287
  971MOL0     C33902   7.856   3.893   0.534 -0.5001 -0.1443 -0.7111
  971MOL0     C33903   7.863   4.037   0.484 -0.6038 -0.5888 -0.2495
  971MOL0     C33904   7.998   4.107   0.492  0.0773 -0.9668 -0.7037
  971MOL0    Cl33905   8.111   4.043   0.377  0.2073 -0.1720 -0.8591
  971MOL0     C33906   8.087   3.885   1.254  0.5958  0.6343  0.6172
  971MOL0     C33907   8.216   3.859   1.301  0.3051 -0.1802  0.0520
  971MOL0     O33908   8.476   3.914   1.411  0.1301  0.1516 -0.1259
  971MOL0     C33909   8.705   3.704   1.264  1.0033 -0.4701  0.2220
  971MOL0     C33910   8.814   3.626   1.275 -0.2537  0.5860  0.5854
  971MOL0     N33911   9.035   2.929   1.319 -0.6652  0.3094 -0.0405
  971MOL0     N33912   9.066   2.805   1.330  0.0177  0.2073  0.3867
  971MOL0     C33913   9.983   2.106   1.623 -1.0138  0.5070 -0.4088
  971MOL0     C33914  10.101   2.039   1.663 -0.4250  0.3249 -0.4874
  971MOL0     C33915  10.482   1.833   1.639 -0.1611 -0.7392 -1.6528
  971MOL0     C33916  10.496   1.818   1.780 -1.0009  0.3229  0.1110
  971MOL0     C33917  10.600   1.733   1.831  0.2553  0.7727  1.1220
  971MOL0     C33918  10.681   1.658   1.745 -0.5545 -0.4602  0.3797
  971MOL0     O33919  10.782   1.591   1.806  0.1359  0.0371 -0.2509
  971MOL0     C33920  10.879   1.542   1.712  0.2002 -0.1042 -0.8139
  971MOL0     C33921  10.985   1.450   1.778  0.9554  0.3254  0.1641
  971MOL0     C33922  10.933   1.310   1.820  0.0794 -0.4367  0.0462
  971MOL0     C33923  10.854   1.306   1.950  0.2002 -0.1656  0.1518
  971MOL0     C33924  10.776   1.183   1.983 -0.4052 -0.2850 -0.4043
  971MOL0     C33925  10.701   1.090   2.021  0.1168 -0.2841  0.5541
  971MOL0     C33926  10.666   1.670   1.604  0.7793 -0.6512  0.6412
  971MOL0     C33927  10.564   1.758   1.550  0.2967  1.0887  1.4954
  971MOL0     C33928  10.552   1.756   1.398  0.0714 -0.2513 -0.4839
  971MOL0     H33929  10.331   2.269   1.582 -0.4762  3.1773  3.0663
  971MOL0     H33930  10.134   2.398   1.521  1.5078  0.7379  2.8262
  971MOL0     H33931   9.736   2.271   1.644  2.1619 -0.5453  0.5739
  971MOL0     H33932   9.752   2.157   1.513 -0.1056 -0.0459 -0.3138
  971MOL0     H33933   9.697   2.454   1.484 -0.2191  1.5448 -2.5140
  971MOL0     H33934   9.677   2.334   1.352 -2.0248 -0.5967 -0.0386
  971MOL0     H33935   9.486   2.221   1.488  2.6450  0.0562  1.3624
  971MOL0     H33936   9.514   2.353   1.600  0.0950  0.9212 -0.3049
  971MOL0     H33937   9.453   2.509   1.381 -1.5130  0.0045  1.4927
  971MOL0     H33938   9.388   2.351   1.325 -2.5737  1.3279  0.0364
  971MOL0     H33939   9.298   2.520   1.575 -1.3493 -0.8983  0.8508
  971MOL0     H33940   9.257   2.353   1.545 -2.7156  0.8996  0.2302
  971MOL0     H33941   9.214   2.585   1.337  1.5012 -0.6477 -0.0969
  971MOL0     H33942   9.142   2.421   1.333 -1.6488 -1.7557  2.2813
  971MOL0     H33943   9.101   2.597   1.575  0.5666 -1.2447  0.6323
  971MOL0     H33944   9.023   2.437   1.538 -2.4532 -0.3641 -1.9851
  971MOL0     H33945   8.930   2.557   1.332 -2.3072  0.8028 -0.5062
  971MOL0     H33946   8.847   2.587   1.493  0.5468  0.2851  0.5857
  971MOL0     H33947   8.792   2.829   1.514 -0.4754  1.3616  0.0405
  971MOL0     H33948   8.840   3.083   1.537 -1.5949  3.9903 -0.2793
  971MOL0     H33949   8.798   3.125   1.371 -1.5487 -3.7663  0.3267
  971MOL0     H33950   9.089   3.178   1.474 -0.5056 -0.7972  2.0231
  971MOL0     H33951   8.990   3.248   1.342  0.1283 -1.9410  0.1741
  971MOL0     H33952   8.841   3.328   1.540  0.2134  1.3381 -0.3155
  971MOL0     H33953   8.975   3.276   1.647  3.2733  0.1926 -0.5713
  971MOL0     H33954   9.000   3.510   1.587 -1.2799  1.4304 -0.9218
  971MOL0     H33955   9.127   3.419   1.501  0.4464 -0.7703  3.5676
  971MOL0     H33956   8.796   3.579   1.617 -3.0802 -0.7449  0.1872
  971MOL0     H33957   8.657   3.841   1.663 -3.2516  2.2490  0.4646
  971MOL0     H33958   8.608   3.670   1.700 -1.6249 -0.8857 -0.4989
  971MOL0     H33959   8.503   3.796   1.620 -0.4116 -1.2101 -3.1224
  971MOL0     H33960   8.353   3.779   0.997  0.4648  1.2196 -0.6411
  971MOL0     H33961   8.148   3.860   0.922  3.4085  4.3587  0.1662
  971MOL0     H33962   7.965   3.668   0.963 -1.6785 -1.4589 -0.7545
  971MOL0     H33963   7.834   3.658   1.061 -0.1065 -3.1012 -3.3457
  971MOL0     H33964   7.690   3.734   0.929  0.7948  0.7945  2.5655
  971MOL0     H33965   7.791   3.876   0.873 -0.2529  0.8368  1.5724
  971MOL0     H33966   7.819   3.580   0.782 -0.9681  0.3023 -2.2987
  971MOL0     H33967   7.917   3.716   0.749 -1.2409  0.6990 -0.6538
  971MOL0     H33968   7.613   3.684   0.678 -0.2412 -2.5669 -0.0028
  971MOL0     H33969   7.730   3.630   0.575 -2.3813 -2.6107  1.3936
  971MOL0     H33970   7.639   3.852   0.516 -2.5526  3.3328  2.5833
  971MOL0     H33971   7.692   3.921   0.669 -2.3191 -1.0713  0.1348
  971MOL0     H33972   7.888   3.823   0.456 -2.2237  0.4980 -2.0605
  971MOL0     H33973   7.916   3.881   0.625 -0.9543 -0.6196 -0.4653
  971MOL0     H33974   7.795   4.093   0.549 -0.4259 -0.5183 -0.1233
  971MOL0     H33975   7.818   4.035   0.384 -1.8040  0.1804  0.2501
  971MOL0     H33976   8.043   4.102   0.592 -1.7370 -3.7290  0.0908
  971MOL0     H33977   7.983   4.213   0.466 -1.2915 -0.6035  1.2770
  971MOL0     H33978   8.014   3.896   1.333 -1.8951 -0.3066 -1.4240
  971MOL0     H33979   8.226   3.844   1.408  0.4585 -1.3241 -0.1077
  971MOL0     H33980   8.682   3.744   1.166  0.2397 -1.2584  0.0632
  971MOL0     H33981   8.878   3.612   1.188 -0.7199  1.3522  0.1073
  971MOL0     H33982   9.887   2.059   1.638 -0.5404 -2.1462 -4.1788
  971MOL0     H33983  10.083   1.938   1.697 -0.4495  0.1641 -0.9828
  971MOL0     H33984  10.448   1.874   1.859 -3.2884 -2.5898  0.9422
  971MOL0     H33985  10.625   1.730   1.937  1.1879 -0.3017  0.8952
  971MOL0     H33986  10.834   1.474   1.640 -0.7414 -0.7618  0.3552
  971MOL0     H33987  10.946   1.615   1.665 -0.0111  1.1678  0.7246
  971MOL0     H33988  11.034   1.504   1.860 -0.4301  2.9073 -0.5826
  971MOL0     H33989  11.061   1.431   1.702 -1.1646  1.6178 -2.4487
  971MOL0     H33990  10.850   1.296   1.751  0.5647  0.0464 -0.6532
  971MOL0     H33991  10.994   1.221   1.800 -0.4926 -0.6321 -0.8930
  971MOL0     H33992  10.790   1.394   1.965  3.8185  2.5505  1.1763
  971MOL0     H33993  10.923   1.310   2.035 -1.2679 -0.4881  1.3903
  971MOL0     H33994  10.630   1.014   2.048 -0.0679 -0.2009  0.3081
  971MOL0     H33995  10.724   1.606   1.537 -0.0349 -0.9982  0.2526
  971MOL0     H33996  10.650   1.726   1.360  0.7730  0.5364  0.6747
  971MOL0     H33997  10.494   1.667   1.370 -1.2838  0.6737 -0.7447
  971MOL0     H33998  10.522   1.843   1.340  1.9069  0.0501 -1.0414
  972MOL0     O33999   3.454   7.380   0.839  0.6773 -0.1671  0.6907
  972MOL0     C34000   3.532   7.349   0.931 -0.3514 -0.5556  1.4030
  972MOL0     O34001   3.543   7.214   0.981 -0.4157 -0.7659 -0.1446
  972MOL0     C34002   3.435   7.127   0.958 -0.5968  0.3860 -0.0327
  972MOL0     C34003   3.310   7.164   1.012  0.2219 -0.7315 -0.7138
  972MOL0     C34004   3.200   7.082   0.992 -0.0534 -0.2729 -0.2962
  972MOL0     C34005   3.207   6.979   0.898  0.4248 -0.1077  0.0525
  972MOL0     O34006   3.093   6.913   0.853  0.2563 -0.1220  0.1349
  972MOL0     C34007   3.090   6.773   0.817 -0.0756  0.3059 -0.7928
  972MOL0     C34008   2.951   6.706   0.839 -0.3583 -0.7711 -0.0858
  972MOL0     C34009   2.938   6.582   0.925  1.2428  1.1872 -0.7572
  972MOL0     C34010   2.788   6.562   0.963  0.0237  0.3157 -0.0280
  972MOL0     C34011   2.679   6.525   0.862  0.1501 -0.3575  0.4741
  972MOL0     C34012   2.699   6.386   0.789  0.2738  0.1749 -0.8402
  972MOL0     C34013   2.578   6.337   0.709 -0.2419 -0.5520 -0.5632
  972MOL0     C34014   2.554   6.420   0.577 -0.1156 -0.3755 -1.1718
  972MOL0     N34015   2.653   6.394   0.468  1.1271  1.2890 -0.1255
  972MOL0     C34016   2.653   6.281   0.396 -0.0857 -0.1801  0.2314
  972MOL0     C34017   2.752   6.303   0.305  0.0594 -0.1589 -0.3445
  972MOL0     C34018   2.777   6.208   0.188 -0.0136 -0.0006 -0.4286
  972MOL0     C34019   2.867   6.076   0.206  0.1200 -1.2039  0.2437
  972MOL0     C34020   2.877   6.001   0.072 -0.0288 -0.2369 -0.1940
  972MOL0     C34021   2.953   5.869   0.099  0.6053  0.2508 -0.7740
  972MOL0     O34022   2.997   5.805  -0.022 -0.5882 -0.3021  0.0399
  972MOL0     C34023   2.927   5.690  -0.062  0.0863 -0.3225 -0.1388
  972MOL0     C34024   2.917   5.671  -0.198  0.5418 -1.0303 -0.6199
  972MOL0     C34025   2.876   5.551  -0.253  0.2852 -0.9552 -0.4277
  972MOL0     C34026   2.892   5.539  -0.403 -0.0966  0.0541 -0.3820
  972MOL0     C34027   2.812   5.457  -0.166 -0.2969 -0.4937  0.4145
  972MOL0     C34028   2.773   5.326  -0.225 -0.7376  0.0469  0.4461
  972MOL0     O34029   2.671   5.262  -0.160 -0.3577  0.3808  0.0348
  972MOL0     C34030   2.641   5.133  -0.198 -0.3951  0.4926 -0.9582
  972MOL0     C34031   2.698   5.020  -0.127  0.4541  1.0151 -0.0093
  972MOL0     C34032   2.676   4.884  -0.178  0.0777 -0.0374 -0.3167
  972MOL0     C34033   2.614   4.873  -0.297 -0.1328  0.9094 -0.1737
  972MOL0     O34034   2.588   4.753  -0.341 -0.2892 -0.3093  0.6767
  972MOL0     C34035   2.702   4.674  -0.375  0.9355  0.8585 -0.7035
  972MOL0     C34036   2.650   4.547  -0.452 -0.7102 -0.2646  0.2784
  972MOL0     C34037   2.765   4.450  -0.473  0.1197  0.6829  0.1349
  972MOL0     C34038   2.862   4.507  -0.576 -0.7279  0.7493  0.0467
  972MOL0     C34039   2.962   4.400  -0.643  1.0611 -0.3634  0.7229
  972MOL0     C34040   3.068   4.459  -0.740  0.5629 -0.1369  1.1294
  972MOL0     C34041   3.162   4.352  -0.809 -0.7647  0.1804 -0.4552
  972MOL0     C34042   3.268   4.289  -0.717  0.2536  0.3367 -0.0361
  972MOL0    Cl34043   3.227   4.142  -0.628  0.0925  0.0823 -0.6776
  972MOL0     C34044   2.543   4.978  -0.352  0.1455 -0.4313 -0.1830
  972MOL0     C34045   2.558   5.106  -0.307 -0.1187  0.3858 -0.0571
  972MOL0     O34046   2.855   5.273  -0.304  1.2938 -0.1722 -0.2830
  972MOL0     C34047   2.805   5.484  -0.032 -0.7340 -0.1490 -0.3411
  972MOL0     C34048   2.866   5.591   0.027 -0.3507  0.1614  1.2908
  972MOL0     N34049   2.808   6.422   0.324  0.4215  0.3316  0.2896
  972MOL0     N34050   2.749   6.480   0.431 -0.5305  0.2735  0.6359
  972MOL0     C34051   3.336   6.943   0.857  1.1264 -0.1561  0.9774
  972MOL0     C34052   3.449   7.008   0.893 -0.0642 -0.2898  0.3281
  972MOL0     C34053   3.635   7.443   0.983 -0.2719  0.1621 -0.8237
  972MOL0     C34054   3.718   7.393   1.097 -0.7551  0.4767  0.0672
  972MOL0     C34055   3.832   7.466   1.143 -0.1085 -0.0569  0.7279
  972MOL0     C34056   3.867   7.587   1.080 -0.7840 -0.4004 -1.1145
  972MOL0     O34057   3.981   7.659   1.117  0.3306  0.8428  0.6562
  972MOL0     C34058   4.097   7.595   1.179 -0.2719  0.5145  0.9475
  972MOL0     C34059   4.201   7.697   1.194 -0.0542  0.7525  0.2444
  972MOL0     C34060   4.315   7.643   1.267  0.8582  0.1228 -0.8985
  972MOL0     C34061   4.450   7.712   1.256 -0.0926 -0.8906 -1.4076
  972MOL0     C34062   4.540   7.618   1.329 -0.1375  0.2153  0.1178
  972MOL0     C34063   4.624   7.555   1.394 -0.0208  0.2227 -0.5612
  972MOL0     C34064   3.785   7.639   0.982  0.4152  0.5660  0.5999
  972MOL0     C34065   3.673   7.570   0.926  0.0274  0.2033  0.0594
  972MOL0     C34066   3.585   7.639   0.828  0.5482 -0.2095 -0.4059
  972MOL0     H34067   3.303   7.261   1.060 -0.7458  0.7152 -3.5476
  972MOL0     H34068   3.103   7.114   1.029  0.9068  1.0474  1.1701
  972MOL0     H34069   3.166   6.720   0.875 -0.6631 -0.2001 -0.4826
  972MOL0     H34070   3.114   6.753   0.712  2.2021  0.2074 -0.3100
  972MOL0     H34071   2.894   6.782   0.893  1.1707 -0.0206  0.5490
  972MOL0     H34072   2.911   6.683   0.740  2.0232 -1.3818 -0.9745
  972MOL0     H34073   2.971   6.496   0.866  0.8575 -1.0956  2.1747
  972MOL0     H34074   2.996   6.601   1.015  1.3819  2.8511 -1.1612
  972MOL0     H34075   2.797   6.480   1.035  0.9682  0.5287  0.1152
  972MOL0     H34076   2.760   6.645   1.030 -2.1787 -1.7910  1.8384
  972MOL0     H34077   2.669   6.602   0.784 -2.4311 -0.1531  0.9008
  972MOL0     H34078   2.582   6.530   0.912 -0.1735  0.6300 -0.1931
  972MOL0     H34079   2.782   6.393   0.718  2.2623 -1.9285  1.1314
  972MOL0     H34080   2.717   6.311   0.866  0.5073  0.6488 -0.4332
  972MOL0     H34081   2.492   6.338   0.777 -0.2481  1.5586 -0.5408
  972MOL0     H34082   2.591   6.229   0.691  0.3362 -0.2864 -1.8239
  972MOL0     H34083   2.454   6.401   0.538 -0.0875 -1.6699 -0.6771
  972MOL0     H34084   2.559   6.526   0.602  0.5657 -1.0147  1.7197
  972MOL0     H34085   2.584   6.197   0.387 -1.5541  1.0355 -0.4471
  972MOL0     H34086   2.827   6.265   0.109  1.4439  2.5220  2.1189
  972MOL0     H34087   2.681   6.174   0.148 -1.2936  1.9408  0.8216
  972MOL0     H34088   2.970   6.103   0.231  0.3325 -1.7825  0.0053
  972MOL0     H34089   2.828   6.006   0.280 -3.1388 -2.7772 -2.6271
  972MOL0     H34090   2.774   5.993   0.036 -0.0842  1.2922 -0.4323
  972MOL0     H34091   2.929   6.058  -0.005 -0.0829 -0.8766 -0.7114
  972MOL0     H34092   3.042   5.877   0.162 -0.6392  0.1436  1.1000
  972MOL0     H34093   2.901   5.806   0.172  3.4568  1.8389  2.9867
  972MOL0     H34094   2.951   5.747  -0.267  3.4453  0.6541  2.4475
  972MOL0     H34095   2.938   5.633  -0.434 -0.1798  0.9896  2.1062
  972MOL0     H34096   2.795   5.513  -0.445 -1.2046  3.4893 -0.2039
  972MOL0     H34097   2.968   5.463  -0.426  0.7910  0.6936  0.4038
  972MOL0     H34098   2.773   5.018  -0.049  0.6853  3.1131 -0.1266
  972MOL0     H34099   2.719   4.795  -0.133  0.2340  0.6449  0.9299
  972MOL0     H34100   2.775   4.732  -0.433 -1.1646  2.7433 -1.5740
  972MOL0     H34101   2.750   4.634  -0.285 -0.9088  2.5099  1.1047
  972MOL0     H34102   2.579   4.492  -0.390 -1.3239 -0.4790 -0.5902
  972MOL0     H34103   2.591   4.576  -0.539  1.3785  3.4101 -0.1122
  972MOL0     H34104   2.724   4.355  -0.510 -1.0763  0.9290  0.7878
  972MOL0     H34105   2.825   4.431  -0.384 -1.1086  0.4717  0.9431
  972MOL0     H34106   2.914   4.597  -0.540 -0.3549  1.0149 -1.1147
  972MOL0     H34107   2.795   4.549  -0.651  0.2204  3.1538  0.4428
  972MOL0     H34108   3.008   4.342  -0.563  1.1356 -5.0359 -2.3330
  972MOL0     H34109   2.900   4.321  -0.686  2.4640 -2.7173  2.8195
  972MOL0     H34110   3.138   4.525  -0.687 -0.8737  0.6187  2.1585
  972MOL0     H34111   3.025   4.516  -0.822  0.4415 -3.0747 -1.0130
  972MOL0     H34112   3.214   4.401  -0.892  1.3403  2.7312  2.1761
  972MOL0     H34113   3.109   4.259  -0.836  0.9593 -2.1164  3.2896
  972MOL0     H34114   3.290   4.360  -0.637  1.5069 -1.8393  1.6715
  972MOL0     H34115   3.355   4.265  -0.779  0.5659  1.3159  0.0021
  972MOL0     H34116   2.483   4.967  -0.441 -0.1113  1.8420 -0.3443
  972MOL0     H34117   2.500   5.176  -0.367  2.7649  2.4007 -0.6693
  972MOL0     H34118   2.779   5.412   0.044  1.1911 -0.7812 -0.2203
  972MOL0     H34119   2.885   5.588   0.134 -2.6861  0.8511  1.7822
  972MOL0     H34120   3.323   6.863   0.785 -4.8505  0.7918  0.5153
  972MOL0     H34121   3.546   6.975   0.858 -0.8860 -1.5064 -0.9058
  972MOL0     H34122   3.702   7.299   1.147 -0.5753  0.3782 -0.0604
  972MOL0     H34123   3.892   7.429   1.226  1.7967 -0.3143 -0.6933
  972MOL0     H34124   4.079   7.541   1.273 -0.7693 -0.8900  0.0823
  972MOL0     H34125   4.143   7.516   1.119 -0.8998  0.9431 -0.1220
  972MOL0     H34126   4.156   7.781   1.248  1.2119  2.6032 -1.4206
  972MOL0     H34127   4.237   7.730   1.095 -0.5652  0.0916 -0.1683
  972MOL0     H34128   4.282   7.628   1.370  1.0045 -1.3085 -1.0328
  972MOL0     H34129   4.333   7.543   1.227 -0.5487 -1.5171  2.2536
  972MOL0     H34130   4.447   7.803   1.317 -0.7709 -1.1889 -0.9890
  972MOL0     H34131   4.477   7.736   1.153  2.9511  0.0389 -0.4867
  972MOL0     H34132   4.698   7.498   1.446 -0.4463 -0.0876 -0.2930
  972MOL0     H34133   3.820   7.733   0.941 -2.5498  1.0104 -1.2061
  972MOL0     H34134   3.478   7.645   0.846  0.6231 -1.3535  0.5634
  972MOL0     H34135   3.616   7.743   0.834 -0.0833 -0.0210 -0.4049
  972MOL0     H34136   3.603   7.613   0.723 -4.8861  2.0431 -2.2288
  973MOL0     O34137   7.822   9.259  10.364 -0.3618  0.1843  0.6191
  973MOL0     C34138   7.873   9.338  10.280 -0.4042  0.6438  0.3019
  973MOL0     O34139   7.818   9.447  10.231 -0.1663  0.7946  0.3054
  973MOL0     C34140   7.690   9.483  10.265  0.7910 -0.4577 -0.1276
  973MOL0     C34141   7.580   9.402  10.247  0.4124 -0.1849  0.4668
  973MOL0     C34142   7.452   9.444  10.285 -0.2632  0.4565 -0.4598
  973MOL0     C34143   7.427   9.572  10.324 -0.0302 -0.7812 -0.2419
  973MOL0     O34144   7.295   9.605  10.339  0.6324 -0.2073 -0.5225
  973MOL0     C34145   7.264   9.721  10.409 -0.2971  0.7532  0.0978
  973MOL0     C34146   7.115   9.747  10.407  0.0969  0.2914 -0.2408
  973MOL0     C34147   7.038   9.656  10.499  0.1059  1.3277  0.1524
  973MOL0     C34148   6.972   9.719  10.622 -0.0540 -0.1204 -0.7839
  973MOL0     C34149   6.837   9.781  10.580  0.6404  0.7141  0.2344
  973MOL0     C34150   6.814   9.909  10.663 -0.3838  1.1428  0.1016
  973MOL0     C34151   6.700   9.979  10.613 -0.7578 -0.3598  0.5280
  973MOL0     C34152   6.638  10.064  10.726 -0.4512  0.1899 -0.8763
  973MOL0     N34153   6.538  10.152  10.676  0.2241 -0.1247 -0.8296
  973MOL0     C34154   6.429  10.110  10.597 -0.3342  0.1435  0.0545
  973MOL0     C34155   6.373  10.225  10.567  0.4934  1.2605  0.4755
  973MOL0     C34156   6.256  10.251  10.484  0.7577  0.4452 -0.5823
  973MOL0     C34157   6.271  10.314  10.352  0.7594 -0.4209 -0.9861
  973MOL0     C34158   6.317  10.208  10.249  0.1787  0.5077 -0.0794
  973MOL0     C34159   6.297  10.254  10.104  1.4626  0.2638  0.5303
  973MOL0     O34160   6.335  10.389  10.073  0.1391 -0.0654 -0.6996
  973MOL0     C34161   6.471  10.404  10.056  0.1000 -0.5769  0.4056
  973MOL0     C34162   6.549  10.349   9.954 -0.9349 -0.4822 -0.3238
  973MOL0     C34163   6.687  10.377   9.939  0.2237  0.7693  0.4934
  973MOL0     C34164   6.759  10.317   9.816 -1.1273 -0.2617 -1.4206
  973MOL0     C34165   6.753  10.458  10.034  0.5731 -1.4413  0.4615
  973MOL0     C34166   6.890  10.498  10.041  0.7885 -0.4193  0.5532
  973MOL0     O34167   6.938  10.547  10.156 -0.3232  0.1993 -0.1346
  973MOL0     C34168   7.079  10.567  10.172 -0.3339 -0.5916 -0.3329
  973MOL0     C34169   7.103  10.669  10.270  0.1136  0.4961 -0.9665
  973MOL0     C34170   7.232  10.682  10.314 -0.4660 -0.5031  0.6850
  973MOL0     C34171   7.335  10.601  10.274  0.6454  0.2713  0.6711
  973MOL0     O34172   7.457  10.614  10.333 -0.2059  0.0772  0.5584
  973MOL0     C34173   7.578  10.576  10.261  0.2154  0.1116  0.4432
  973MOL0     C34174   7.708  10.588  10.348 -0.3713 -0.1982  0.3986
  973MOL0     C34175   7.707  10.484  10.468 -0.1990 -0.2450  0.0980
  973MOL0     C34176   7.850  10.468  10.525 -0.0643 -0.0518 -0.2158
  973MOL0     C34177   7.864  10.384  10.646  0.0644 -0.6054 -0.3796
  973MOL0     C34178   7.811  10.249  10.629 -0.6390  0.1003 -0.1787
  973MOL0     C34179   7.844  10.154  10.750 -0.8920  0.1193  0.5492
  973MOL0     C34180   7.753  10.181  10.875  0.0047 -0.6069  0.3690
  973MOL0    Cl34181   7.585  10.139  10.826 -0.0586  0.4967 -0.0668
  973MOL0     C34182   7.309  10.494  10.180  0.4645 -0.5183  0.0465
  973MOL0     C34183   7.185  10.477  10.133  0.1148  0.7360  0.2553
  973MOL0     O34184   6.958  10.489   9.939  0.0461 -0.0871  0.4506
  973MOL0     C34185   6.672  10.522  10.133 -0.2310 -0.5105  0.1897
  973MOL0     C34186   6.531  10.496  10.140  0.0172  0.3560  0.0256
  973MOL0     N34187   6.443  10.333  10.616  0.6178 -0.6591 -0.3445
  973MOL0     N34188   6.541  10.287  10.691 -0.0756 -0.7158  0.1052
  973MOL0     C34189   7.537   9.657  10.342  0.1551 -0.2879  0.1483
  973MOL0     C34190   7.662   9.613  10.303 -0.9350  0.6301 -0.2185
  973MOL0     C34191   8.013   9.303  10.226  0.8630 -0.1490 -0.3111
  973MOL0     C34192   8.054   9.172  10.240 -0.4110 -0.4534 -0.5013
  973MOL0     C34193   8.188   9.136  10.223 -0.5168  0.1748 -0.8250
  973MOL0     C34194   8.279   9.235  10.185 -0.1415 -0.4669 -0.0828
  973MOL0     O34195   8.418   9.213  10.161  0.3563  0.2749 -0.0041
  973MOL0     C34196   8.479   9.101  10.229 -0.4764  0.0135 -0.0656
  973MOL0     C34197   8.538   9.138  10.366 -0.7414 -0.4306 -0.1672
  973MOL0     C34198   8.697   9.123  10.354 -0.7200 -0.3325 -0.1037
  973MOL0     C34199   8.773   9.145  10.493  0.0461  0.1193 -0.1488
  973MOL0     C34200   8.741   9.044  10.594  0.0125 -0.0200 -0.4316
  973MOL0     C34201   8.718   8.961  10.685 -0.2042 -0.4477  0.3641
  973MOL0     C34202   8.235   9.368  10.158  0.0714  0.4774 -0.3243
  973MOL0     C34203   8.104   9.402  10.178 -0.3572  0.1575 -0.4260
  973MOL0     C34204   8.079   9.545  10.145 -0.1671 -0.0187 -0.5192
  973MOL0     H34205   7.602   9.306  10.202  1.4158  0.0236  0.4989
  973MOL0     H34206   7.377   9.366  10.296 -0.6469  1.2438  4.3522
  973MOL0     H34207   7.298   9.804  10.347 -1.0036  1.8854  1.1786
  973MOL0     H34208   7.318   9.732  10.503  0.1681  0.5959 -0.1520
  973MOL0     H34209   7.107   9.851  10.438 -2.4275 -0.6418  2.8361
  973MOL0     H34210   7.074   9.725  10.307 -0.0339 -3.9946  0.5555
  973MOL0     H34211   6.963   9.601  10.443 -0.8309  2.1538  0.5636
  973MOL0     H34212   7.100   9.573  10.535 -1.8811 -1.2731 -2.0167
  973MOL0     H34213   6.960   9.638  10.695  1.5193  1.1649  1.0303
  973MOL0     H34214   7.047   9.784  10.669 -0.6728 -0.3844  0.6416
  973MOL0     H34215   6.758   9.708  10.593  0.2703  1.2558  1.0801
  973MOL0     H34216   6.850   9.822  10.479 -2.6369  1.3326 -0.0346
  973MOL0     H34217   6.792   9.895  10.769  1.3711  3.4087  0.8276
  973MOL0     H34218   6.904   9.970  10.656 -2.4353  4.6315  1.4370
  973MOL0     H34219   6.622   9.912  10.577 -1.6763  1.6228 -1.4743
  973MOL0     H34220   6.726  10.054  10.537  1.3282 -0.4226  1.0982
  973MOL0     H34221   6.588  10.003  10.802  1.3721  1.2091  1.2711
  973MOL0     H34222   6.705  10.127  10.785 -2.7671  1.4157  0.6140
  973MOL0     H34223   6.409  10.005  10.581  2.3610 -0.4222 -0.0613
  973MOL0     H34224   6.185  10.309  10.544  0.7063  0.4463 -0.6420
  973MOL0     H34225   6.203  10.156  10.470  1.0830  0.0910  0.5118
  973MOL0     H34226   6.172  10.348  10.321 -0.7054 -0.5269  3.0729
  973MOL0     H34227   6.337  10.401  10.363 -0.7137  1.6577 -5.6592
  973MOL0     H34228   6.415  10.171  10.280 -0.3162  1.4528  2.9506
  973MOL0     H34229   6.264  10.113  10.258  1.4077 -0.1448  0.4706
  973MOL0     H34230   6.335  10.175  10.038 -0.6290 -1.2847  1.0634
  973MOL0     H34231   6.190  10.236  10.085  0.9615 -0.4256  3.5160
  973MOL0     H34232   6.505  10.276   9.887  0.8951 -1.0362 -0.9974
  973MOL0     H34233   6.841  10.257   9.857  0.5026  2.9100  0.3220
  973MOL0     H34234   6.801  10.396   9.753  0.5686  1.1095  1.2413
  973MOL0     H34235   6.699  10.240   9.767 -1.3719 -0.0942 -1.3874
  973MOL0     H34236   7.022  10.724  10.316  1.9657  2.9418 -0.3779
  973MOL0     H34237   7.262  10.752  10.392  0.6392 -1.6085  1.2912
  973MOL0     H34238   7.565  10.475  10.221  2.5539  0.1492 -0.6079
  973MOL0     H34239   7.601  10.649  10.182  0.4857  0.0257  0.4436
  973MOL0     H34240   7.793  10.550  10.291  0.6297 -1.7273  2.7502
  973MOL0     H34241   7.716  10.690  10.385 -0.2711  0.1953 -0.6666
  973MOL0     H34242   7.682  10.388  10.421  2.1716 -0.4197 -0.9360
  973MOL0     H34243   7.624  10.508  10.536 -1.2048  0.5368 -1.3458
  973MOL0     H34244   7.876  10.570  10.556 -1.7034  0.6312 -0.9860
  973MOL0     H34245   7.921  10.448  10.444 -1.4835  0.4263 -1.6078
  973MOL0     H34246   7.967  10.378  10.683 -0.0645  0.4245  0.1861
  973MOL0     H34247   7.802  10.425  10.726 -1.1805 -4.4500  0.8788
  973MOL0     H34248   7.841  10.202  10.534  1.6368  2.2475 -0.6230
  973MOL0     H34249   7.703  10.249  10.611 -0.3481  2.1810 -2.4737
  973MOL0     H34250   7.951  10.160  10.769 -0.2654 -0.7801 -2.3163
  973MOL0     H34251   7.820  10.054  10.714 -2.8036  0.8199 -0.2559
  973MOL0     H34252   7.749  10.289  10.896  0.1766 -1.1214  3.4106
  973MOL0     H34253   7.801  10.128  10.957  3.6546 -0.1063 -1.2403
  973MOL0     H34254   7.387  10.432  10.137  1.1180  2.1297 -3.0937
  973MOL0     H34255   7.173  10.384  10.079  1.6478  0.9760 -0.5654
  973MOL0     H34256   6.725  10.578  10.209  0.3593  3.0896 -2.6039
  973MOL0     H34257   6.466  10.549  10.209  1.7543 -0.1721  2.1771
  973MOL0     H34258   7.519   9.759  10.373 -1.9014 -0.9257  1.2134
  973MOL0     H34259   7.750   9.677  10.292 -0.9577  0.8903  0.9563
  973MOL0     H34260   7.993   9.091  10.277 -0.0248 -1.7422 -2.5222
  973MOL0     H34261   8.216   9.033  10.246  0.3577  0.5038 -0.3768
  973MOL0     H34262   8.413   9.014  10.235 -1.3197  0.7261  1.4359
  973MOL0     H34263   8.563   9.071  10.166 -2.2799 -2.6274 -1.4067
  973MOL0     H34264   8.497   9.072  10.443  2.4234 -1.7452  0.5800
  973MOL0     H34265   8.499   9.237  10.389  0.1090 -0.3402  0.9668
  973MOL0     H34266   8.718   9.026  10.309  0.5826  0.3517 -1.0179
  973MOL0     H34267   8.741   9.203  10.295 -0.8498  1.0147  1.5602
  973MOL0     H34268   8.742   9.239  10.540  0.8709  0.7552 -0.8589
  973MOL0     H34269   8.881   9.144  10.477 -0.0262 -0.8658 -0.6260
  973MOL0     H34270   8.704   8.883  10.757 -1.1560 -0.9943 -0.3990
  973MOL0     H34271   8.302   9.446  10.125 -1.6257  1.7646 -0.8945
  973MOL0     H34272   7.981   9.567  10.102 -1.4112 -1.5414  1.3709
  973MOL0     H34273   8.099   9.603  10.235  1.2440 -1.3014  0.0305
  973MOL0     H34274   8.154   9.570  10.070 -0.6827  1.9954 -0.4276
  974MOL0     O34275   1.330   1.224   5.575 -0.0630  0.0151  0.0814
  974MOL0     C34276   1.301   1.108   5.593  0.8825  0.0860 -0.2050
  974MOL0     O34277   1.230   1.032   5.505  0.3236  0.6078  0.6616
  974MOL0     C34278   1.169   1.103   5.409  0.2792 -0.0545 -0.5451
  974MOL0     C34279   1.239   1.121   5.287 -0.4505 -0.2951 -0.8003
  974MOL0     C34280   1.186   1.182   5.173 -0.2078 -0.5825 -0.2808
  974MOL0     C34281   1.063   1.232   5.187  0.8224 -0.3661  0.7623
  974MOL0     O34282   1.011   1.296   5.069 -1.2006  0.3888 -0.4442
  974MOL0     C34283   0.890   1.372   5.088 -0.5096 -0.1611  1.5812
  974MOL0     C34284   0.851   1.443   4.954  0.0184  0.5333  0.0002
  974MOL0     C34285   0.781   1.577   4.971  0.9800  0.0654  0.2785
  974MOL0     C34286   0.769   1.666   4.845 -0.2020  0.8397  0.2406
  974MOL0     C34287   0.688   1.785   4.869 -0.5507  0.1894 -1.8682
  974MOL0     C34288   0.759   1.890   4.955 -0.3347  0.4114  0.4347
  974MOL0     C34289   0.664   2.002   4.995  0.1106  0.1141 -0.0804
  974MOL0     C34290   0.723   2.107   5.072 -1.1141 -0.5875 -0.3981
  974MOL0     N34291   0.787   2.056   5.185 -0.7919  0.0508 -0.2297
  974MOL0     C34292   0.924   2.048   5.196  0.2869  0.4922  0.5143
  974MOL0     C34293   0.944   1.998   5.319  0.2118  0.3137 -0.6893
  974MOL0     C34294   1.073   1.963   5.384 -1.1076 -0.8581 -0.5858
  974MOL0     C34295   1.104   2.057   5.502  0.2582  0.6309  0.1517
  974MOL0     C34296   1.007   2.068   5.625 -0.6663  0.0677  0.0228
  974MOL0     C34297   1.001   1.947   5.709 -0.3036 -0.3986 -0.1754
  974MOL0     O34298   1.120   1.931   5.785  0.0327  0.4678  0.4141
  974MOL0     C34299   1.142   1.811   5.850 -0.0335  1.0062  0.2662
  974MOL0     C34300   1.270   1.772   5.880 -0.7247 -0.1273 -0.2370
  974MOL0     C34301   1.306   1.661   5.961  0.3641 -0.1304  0.4707
  974MOL0     C34302   1.447   1.647   6.005 -1.0887 -0.0979 -0.2454
  974MOL0     C34303   1.200   1.571   6.004  0.7041 -0.2632 -0.2300
  974MOL0     C34304   1.235   1.436   6.072  0.9601  0.3380  0.5343
  974MOL0     O34305   1.338   1.423   6.151 -0.3635 -0.7374 -0.2477
  974MOL0     C34306   1.328   1.387   6.272  1.1563 -0.5715  0.4749
  974MOL0     C34307   1.206   1.378   6.346  0.0224  0.3988 -0.1285
  974MOL0     C34308   1.218   1.325   6.481 -0.1491  1.3835 -0.4539
  974MOL0     C34309   1.337   1.290   6.535 -0.3743 -0.2614  0.1442
  974MOL0     O34310   1.344   1.240   6.658  0.9041  0.0321 -1.0385
  974MOL0     C34311   1.237   1.159   6.711 -0.2581  0.5995  0.5805
  974MOL0     C34312   1.299   1.043   6.798 -0.3976 -0.5687 -0.6206
  974MOL0     C34313   1.370   1.093   6.923  0.1713 -0.3410  0.0545
  974MOL0     C34314   1.432   0.978   6.994 -0.1770 -0.5226  0.5006
  974MOL0     C34315   1.556   1.031   7.083 -0.2874  0.2426 -0.7908
  974MOL0     C34316   1.513   1.055   7.230  0.2613 -0.6081  0.5140
  974MOL0     C34317   1.423   0.953   7.304 -0.0688  0.4667 -0.5032
  974MOL0     C34318   1.466   0.810   7.296  0.2012  0.0440 -1.1411
  974MOL0    Cl34319   1.371   0.716   7.422 -0.0648  0.1568  0.2733
  974MOL0     C34320   1.456   1.290   6.456  0.6101  0.3330 -0.5242
  974MOL0     C34321   1.444   1.325   6.323  0.4300 -0.0070  0.4319
  974MOL0     O34322   1.148   1.350   6.050 -0.1898  0.3039  0.0069
  974MOL0     C34323   1.068   1.607   5.968  0.6389  0.0827 -0.2112
  974MOL0     C34324   1.040   1.724   5.888  0.8315  0.0786 -0.8427
  974MOL0     N34325   0.818   1.971   5.378  0.5488  0.6925 -0.5252
  974MOL0     N34326   0.727   2.008   5.299  0.6434 -0.0607  0.2386
  974MOL0     C34327   0.982   1.220   5.303 -0.1521  0.3130 -0.9572
  974MOL0     C34328   1.039   1.152   5.411 -0.1149  1.1960  1.1360
  974MOL0     C34329   1.347   1.052   5.717  0.2500 -0.3355 -0.0339
  974MOL0     C34330   1.341   1.134   5.836 -0.9051 -0.6962  0.1113
  974MOL0     C34331   1.388   1.085   5.957  0.6365 -0.1741 -0.0808
  974MOL0     C34332   1.423   0.946   5.974 -0.5717 -0.3452 -0.6672
  974MOL0     O34333   1.477   0.885   6.085 -0.6000 -0.3135  0.0443
  974MOL0     C34334   1.490   0.965   6.213 -0.4738 -0.9188 -0.2422
  974MOL0     C34335   1.580   0.860   6.288  0.2787  0.2266 -1.1184
  974MOL0     C34336   1.596   0.887   6.440 -0.6849 -0.1757 -0.0289
  974MOL0     C34337   1.712   0.811   6.507  1.3141 -0.8747  0.8445
  974MOL0     C34338   1.731   0.851   6.646 -0.5790 -0.2211 -0.2645
  974MOL0     C34339   1.746   0.862   6.771 -0.4542  0.2841 -0.1710
  974MOL0     C34340   1.424   0.869   5.861 -0.1343 -0.2433  0.1358
  974MOL0     C34341   1.394   0.916   5.728  0.8042 -0.3487 -0.4913
  974MOL0     C34342   1.387   0.809   5.624  0.5018 -0.7247  0.9382
  974MOL0     H34343   1.337   1.079   5.267 -0.4020 -0.9221  0.6533
  974MOL0     H34344   1.250   1.186   5.086 -1.6505  0.1662 -1.3689
  974MOL0     H34345   0.902   1.446   5.167 -0.1329  0.1706  1.2163
  974MOL0     H34346   0.807   1.312   5.125 -1.3011  0.6714  1.1781
  974MOL0     H34347   0.946   1.471   4.909 -0.0466 -0.1884 -0.6047
  974MOL0     H34348   0.790   1.374   4.896  0.5644 -1.0656  1.2529
  974MOL0     H34349   0.675   1.568   4.996  0.5817  0.3005 -1.2142
  974MOL0     H34350   0.823   1.634   5.054  0.6581  0.6986  0.0199
  974MOL0     H34351   0.867   1.703   4.812 -0.2147  1.3701  0.7910
  974MOL0     H34352   0.728   1.597   4.770  0.0061 -1.6057  2.2123
  974MOL0     H34353   0.591   1.762   4.915 -0.1846 -1.1745 -1.7282
  974MOL0     H34354   0.656   1.825   4.773 -2.0262  0.4595 -1.2820
  974MOL0     H34355   0.788   1.846   5.051  0.1314  0.3414  0.2644
  974MOL0     H34356   0.851   1.923   4.906 -0.4249 -2.0349 -1.5799
  974MOL0     H34357   0.587   1.969   5.066 -0.4364  1.3063 -0.0990
  974MOL0     H34358   0.609   2.050   4.914 -0.3773  3.2813  1.9183
  974MOL0     H34359   0.790   2.159   5.004 -1.8436  1.1495  0.1512
  974MOL0     H34360   0.650   2.182   5.106  0.6531 -0.1011  2.7542
  974MOL0     H34361   0.997   2.076   5.121  0.0900 -1.4008 -0.4381
  974MOL0     H34362   1.156   1.965   5.313 -0.5279 -0.6276  0.0863
  974MOL0     H34363   1.074   1.859   5.418 -0.1367 -0.6886 -0.0450
  974MOL0     H34364   1.200   2.029   5.547 -0.3330 -2.5897 -0.3040
  974MOL0     H34365   1.122   2.151   5.450  0.3565  0.0272 -0.9489
  974MOL0     H34366   1.035   2.148   5.694  0.1641 -0.3398  0.1739
  974MOL0     H34367   0.910   2.087   5.578 -2.2124 -5.5015  0.2243
  974MOL0     H34368   0.911   1.953   5.771  0.7014  2.3537  1.1858
  974MOL0     H34369   0.999   1.851   5.655  5.0173 -1.5818  1.1644
  974MOL0     H34370   1.351   1.839   5.852  0.0158 -1.1275 -0.5919
  974MOL0     H34371   1.506   1.739   5.993  0.2704 -1.0576 -1.2146
  974MOL0     H34372   1.495   1.569   5.946 -0.1320  1.0978 -1.1068
  974MOL0     H34373   1.446   1.627   6.112  0.1433 -3.3976 -0.7224
  974MOL0     H34374   1.102   1.407   6.329  0.5415  2.6335  0.1215
  974MOL0     H34375   1.125   1.314   6.536  0.6458 -0.4175  0.6533
  974MOL0     H34376   1.200   1.234   6.782  0.6054  1.1729  0.4479
  974MOL0     H34377   1.164   1.117   6.642 -0.6987  3.5791 -0.9538
  974MOL0     H34378   1.218   0.973   6.817 -1.0070  0.3987  0.4260
  974MOL0     H34379   1.367   0.999   6.724  2.0912  2.0585 -0.0546
  974MOL0     H34380   1.297   1.145   6.986  2.5996  2.2335  0.9749
  974MOL0     H34381   1.434   1.176   6.891 -0.1281 -1.1133 -2.8548
  974MOL0     H34382   1.474   0.909   6.920  0.0999  0.2249 -0.0603
  974MOL0     H34383   1.362   0.911   7.043  0.5324 -1.4206  0.3230
  974MOL0     H34384   1.626   0.947   7.075 -2.7753 -1.9929 -0.5828
  974MOL0     H34385   1.607   1.117   7.039  1.7650 -0.1948  0.5823
  974MOL0     H34386   1.452   1.146   7.238 -2.1087 -1.8738 -1.5947
  974MOL0     H34387   1.601   1.072   7.292  1.7662  0.1974 -1.7366
  974MOL0     H34388   1.322   0.969   7.264 -0.1343 -0.1642 -0.6065
  974MOL0     H34389   1.418   0.979   7.410  0.0455 -1.1100 -0.0763
  974MOL0     H34390   1.573   0.801   7.315  0.0911  1.8770  0.6372
  974MOL0     H34391   1.446   0.773   7.195 -0.3815 -0.6897 -0.7678
  974MOL0     H34392   1.555   1.257   6.487  2.8824  4.1868 -2.8742
  974MOL0     H34393   1.526   1.316   6.252  0.1811  2.6507 -0.3051
  974MOL0     H34394   0.987   1.547   6.008  0.9605 -0.1335  0.1224
  974MOL0     H34395   0.936   1.743   5.863  0.4730  3.6333  2.3188
  974MOL0     H34396   0.879   1.254   5.306 -0.6270 -0.8715  3.4819
  974MOL0     H34397   0.967   1.154   5.492 -2.9906  2.2920 -1.2213
  974MOL0     H34398   1.307   1.237   5.831 -1.3719 -0.9126 -2.1589
  974MOL0     H34399   1.383   1.159   6.036  0.3060 -0.7360  0.4345
  974MOL0     H34400   1.536   1.064   6.211  1.0369 -1.5625  0.8426
  974MOL0     H34401   1.393   0.972   6.262 -0.7563  2.2585 -1.0679
  974MOL0     H34402   1.681   0.870   6.248  0.2706  1.7928 -0.8081
  974MOL0     H34403   1.545   0.757   6.294  1.0412 -0.0125 -0.6232
  974MOL0     H34404   1.602   0.995   6.453 -0.5100 -0.4493  2.9208
  974MOL0     H34405   1.504   0.870   6.497 -0.1935  2.1617  1.5793
  974MOL0     H34406   1.801   0.834   6.448  0.5706 -0.0129  0.0318
  974MOL0     H34407   1.682   0.706   6.500 -2.1336  0.0666 -1.9110
  974MOL0     H34408   1.778   0.880   6.871  2.0123 -0.4907 -0.7448
  974MOL0     H34409   1.466   0.772   5.882  1.3217  0.3526  0.0755
  974MOL0     H34410   1.417   0.847   5.525 -1.0313 -1.1016  0.3081
  974MOL0     H34411   1.439   0.720   5.660  1.1236 -0.4679  0.6877
  974MOL0     H34412   1.285   0.775   5.605  1.4655 -3.1063 -0.3832
  975MOL0     O34413   7.829   6.538   3.061 -0.0829 -0.0522 -0.0341
  975MOL0     C34414   7.827   6.651   3.010 -0.0192 -1.2095  0.0552
  975MOL0     O34415   7.718   6.719   2.960  0.1702 -0.3598 -0.7982
  975MOL0     C34416   7.609   6.643   2.929 -0.3758  0.5489  0.1714
  975MOL0     C34417   7.602   6.578   2.800  0.5635 -0.5524  0.2294
  975MOL0     C34418   7.480   6.523   2.756 -0.3711 -0.1791 -0.6649
  975MOL0     C34419   7.365   6.509   2.846  0.2342  0.1721  0.5956
  975MOL0     O34420   7.250   6.451   2.807 -0.6172 -0.0698  0.5572
  975MOL0     C34421   7.207   6.340   2.879 -0.1101 -0.8411  0.7203
  975MOL0     C34422   7.086   6.265   2.819  1.4077 -0.1000  1.4144
  975MOL0     C34423   6.958   6.297   2.904  0.7677 -0.1148  0.5369
  975MOL0     C34424   6.829   6.252   2.841  0.4811 -0.8547 -0.4267
  975MOL0     C34425   6.700   6.269   2.930 -0.3198 -0.2261 -0.2770
  975MOL0     C34426   6.669   6.413   2.987 -0.0568  0.2636  0.7428
  975MOL0     C34427   6.652   6.515   2.880 -0.0550  0.5813 -0.5458
  975MOL0     C34428   6.534   6.497   2.776 -0.9960 -0.4670  1.0108
  975MOL0     N34429   6.559   6.584   2.666 -0.9781 -0.4890  0.2880
  975MOL0     C34430   6.664   6.574   2.575 -0.0318 -0.3691 -0.5705
  975MOL0     C34431   6.655   6.686   2.498  0.0504 -0.1313  0.4773
  975MOL0     C34432   6.755   6.721   2.394  0.4018 -0.3770  0.6543
  975MOL0     C34433   6.899   6.667   2.421  0.0183 -0.0616 -0.4490
  975MOL0     C34434   6.964   6.704   2.551  0.3387  0.6290  0.9566
  975MOL0     C34435   6.973   6.852   2.586  0.0864 -0.5660  0.3213
  975MOL0     O34436   7.053   6.925   2.490 -0.8959 -0.1784  0.6918
  975MOL0     C34437   7.079   7.058   2.528  1.4119 -0.8317  0.3945
  975MOL0     C34438   7.007   7.134   2.623 -0.1051  0.3969 -0.3113
  975MOL0     C34439   7.058   7.258   2.670 -0.0638 -0.4267 -0.0642
  975MOL0     C34440   6.965   7.326   2.773  0.1180  0.1726 -0.5859
  975MOL0     C34441   7.189   7.304   2.630  0.3221 -0.1736 -0.5227
  975MOL0     C34442   7.267   7.395   2.724  0.2459  0.9513 -0.2306
  975MOL0     O34443   7.352   7.481   2.663  0.6428  0.2197  0.2026
  975MOL0     C34444   7.444   7.539   2.738  1.1105  0.6905  0.1425
  975MOL0     C34445   7.396   7.657   2.792 -0.1387  0.2044 -0.1202
  975MOL0     C34446   7.484   7.733   2.870  0.4876 -0.3379  0.7818
  975MOL0     C34447   7.617   7.700   2.899 -0.3565 -0.7780  0.3523
  975MOL0     O34448   7.699   7.775   2.982  0.4830  0.0916 -0.0813
  975MOL0     C34449   7.656   7.911   2.983  1.1283  0.2152  0.0726
  975MOL0     C34450   7.776   7.991   3.028 -0.7094 -0.4743  0.1825
  975MOL0     C34451   7.861   8.030   2.907  0.0752 -0.8118  0.5773
  975MOL0     C34452   7.974   8.127   2.962 -0.3065 -0.4415  0.6544
  975MOL0     C34453   8.073   8.165   2.851 -0.2647  0.7677 -0.2866
  975MOL0     C34454   8.108   8.318   2.838  0.2073 -0.0550 -0.3197
  975MOL0     C34455   8.237   8.337   2.756 -0.5031  0.1553 -0.2391
  975MOL0     C34456   8.266   8.484   2.747  0.7274 -0.8607 -0.3416
  975MOL0    Cl34457   8.320   8.544   2.911 -0.2811 -0.3110  0.2053
  975MOL0     C34458   7.662   7.575   2.853  0.0730 -1.7381  0.5685
  975MOL0     C34459   7.576   7.494   2.775 -0.2690  0.2458 -0.4175
  975MOL0     O34460   7.237   7.383   2.843 -0.0152  0.5165  0.1155
  975MOL0     C34461   7.251   7.241   2.520  0.4058 -0.0174 -0.1895
  975MOL0     C34462   7.200   7.117   2.474 -0.1136 -0.4405 -0.3871
  975MOL0     N34463   6.561   6.765   2.549 -0.3656 -0.3209  0.4489
  975MOL0     N34464   6.499   6.709   2.643 -0.6735 -0.5111  0.1013
  975MOL0     C34465   7.375   6.574   2.972  0.3013  0.5004 -0.0297
  975MOL0     C34466   7.496   6.633   3.006 -0.7012  0.7559 -0.3474
  975MOL0     C34467   7.943   6.748   3.016  0.7284  0.9105  0.6430
  975MOL0     C34468   7.914   6.881   3.048 -0.0815 -0.6823 -0.0705
  975MOL0     C34469   8.012   6.978   3.066 -0.1401  0.7400 -0.0477
  975MOL0     C34470   8.147   6.939   3.052  0.0663  0.4088 -1.0243
  975MOL0     O34471   8.253   7.031   3.056 -0.1773  0.7648  0.3034
  975MOL0     C34472   8.249   7.161   2.994 -0.3131  1.0480  0.5711
  975MOL0     C34473   8.242   7.142   2.839 -0.0412  0.0392 -0.6953
  975MOL0     C34474   8.350   7.053   2.772 -0.3950 -0.3286  0.8013
  975MOL0     C34475   8.491   7.077   2.836  0.1117 -0.9971 -0.1162
  975MOL0     C34476   8.589   6.999   2.763 -0.4310 -0.0233  0.0501
  975MOL0     C34477   8.677   6.946   2.698 -0.9770 -0.1465 -0.5688
  975MOL0     C34478   8.179   6.804   3.017  0.5580  0.1214  0.6842
  975MOL0     C34479   8.070   6.709   2.989 -0.6830 -0.6410  0.3738
  975MOL0     C34480   8.117   6.568   2.952 -0.2334  0.2051 -0.0764
  975MOL0     H34481   7.691   6.559   2.740  1.1773 -2.0658  1.5473
  975MOL0     H34482   7.485   6.461   2.668 -2.2751 -1.3649  0.0091
  975MOL0     H34483   7.189   6.362   2.985 -0.2514  2.1918  0.1530
  975MOL0     H34484   7.291   6.271   2.868 -1.0652 -1.7024 -1.9612
  975MOL0     H34485   7.077   6.305   2.717  2.6752 -1.4280  0.7422
  975MOL0     H34486   7.086   6.155   2.823 -0.0993 -0.0880  2.2803
  975MOL0     H34487   6.975   6.243   2.997  1.6711 -0.7875 -0.0019
  975MOL0     H34488   6.946   6.403   2.928 -0.5348 -0.3954  1.2292
  975MOL0     H34489   6.821   6.306   2.746  0.1175  1.7356  0.9742
  975MOL0     H34490   6.835   6.147   2.811 -1.4880 -0.6073 -1.8710
  975MOL0     H34491   6.695   6.195   3.010  0.7097 -0.0653 -0.0428
  975MOL0     H34492   6.623   6.248   2.855 -1.5253  1.1658  0.5069
  975MOL0     H34493   6.574   6.417   3.042 -1.4374  2.0393 -1.5637
  975MOL0     H34494   6.755   6.435   3.050  1.6080 -0.2714 -1.2603
  975MOL0     H34495   6.749   6.519   2.832  2.1318  0.2488  3.3837
  975MOL0     H34496   6.647   6.609   2.935 -2.6111 -0.4696  1.2497
  975MOL0     H34497   6.527   6.394   2.739 -2.1488 -0.5047  1.2937
  975MOL0     H34498   6.433   6.514   2.813 -1.0773  0.7804  0.2944
  975MOL0     H34499   6.731   6.489   2.567 -1.5943 -1.7265  0.1510
  975MOL0     H34500   6.749   6.825   2.362  1.2715 -0.3809  0.4667
  975MOL0     H34501   6.722   6.667   2.304  2.0996 -3.2693  1.6232
  975MOL0     H34502   6.896   6.559   2.403 -1.0456 -0.0198 -0.5658
  975MOL0     H34503   6.960   6.700   2.337  1.5212  1.3540  1.1074
  975MOL0     H34504   6.915   6.653   2.634  1.4123 -4.5290 -1.1749
  975MOL0     H34505   7.061   6.653   2.551 -1.2180 -2.5842  1.6813
  975MOL0     H34506   6.870   6.890   2.582  0.6456  0.9399 -0.7489
  975MOL0     H34507   7.003   6.851   2.691 -1.5049 -0.9785  0.8071
  975MOL0     H34508   6.914   7.098   2.664 -0.2371  0.5004 -0.5196
  975MOL0     H34509   6.871   7.358   2.728  0.7256  1.8559 -0.7400
  975MOL0     H34510   7.010   7.421   2.802  1.1980 -0.0884 -1.3633
  975MOL0     H34511   6.946   7.267   2.864 -0.4763 -2.4368 -2.2931
  975MOL0     H34512   7.295   7.687   2.764  0.0593 -2.3941 -4.4676
  975MOL0     H34513   7.439   7.818   2.920  2.6231  1.3233  0.0480
  975MOL0     H34514   7.624   7.942   2.883  1.3594 -0.9603 -0.3859
  975MOL0     H34515   7.570   7.928   3.048  0.8908  2.0666 -0.6588
  975MOL0     H34516   7.744   8.072   3.094 -0.5923 -1.2955  1.2716
  975MOL0     H34517   7.830   7.916   3.087 -2.4591 -2.9997 -1.2008
  975MOL0     H34518   7.816   8.086   2.824  1.5139  0.9693  0.9321
  975MOL0     H34519   7.907   7.945   2.856  2.0915  0.0392  0.8746
  975MOL0     H34520   8.019   8.074   3.046  1.9275  0.3659  0.0571
  975MOL0     H34521   7.944   8.227   2.995  2.9776  1.0819 -0.4747
  975MOL0     H34522   8.168   8.111   2.861  0.1375  1.6831  1.1241
  975MOL0     H34523   8.053   8.125   2.751 -0.4550 -1.4531  0.5720
  975MOL0     H34524   8.129   8.364   2.935  1.9481  1.8497 -1.5142
  975MOL0     H34525   8.028   8.361   2.778  2.0509  2.0028 -1.4183
  975MOL0     H34526   8.225   8.307   2.652  2.9995  2.0138 -1.3161
  975MOL0     H34527   8.322   8.282   2.797 -1.1651 -0.5720  0.2048
  975MOL0     H34528   8.180   8.543   2.713  0.5980 -1.7113 -1.5683
  975MOL0     H34529   8.353   8.494   2.681 -0.2084  0.2742 -1.4521
  975MOL0     H34530   7.753   7.540   2.902  0.1670 -1.4760  0.5813
  975MOL0     H34531   7.611   7.396   2.743 -4.5229 -2.5231  2.4735
  975MOL0     H34532   7.329   7.291   2.464 -0.9445  3.8605  1.0735
  975MOL0     H34533   7.249   7.062   2.394 -0.6819 -2.0761  0.3509
  975MOL0     H34534   7.285   6.578   3.033  0.5301  1.0229  0.2760
  975MOL0     H34535   7.501   6.691   3.098 -2.3588  0.1979  0.1157
  975MOL0     H34536   7.814   6.919   3.066  0.8864  1.9789  0.2659
  975MOL0     H34537   7.980   7.078   3.089  2.1231  1.1380  1.7254
  975MOL0     H34538   8.157   7.213   3.021 -0.2771  2.9261 -2.3933
  975MOL0     H34539   8.339   7.219   3.019  0.2572  0.4371 -0.0054
  975MOL0     H34540   8.249   7.237   2.785 -0.8111 -1.2089 -3.1220
  975MOL0     H34541   8.147   7.098   2.810  0.1293  0.5293 -2.1066
  975MOL0     H34542   8.318   6.951   2.792  0.3429 -0.2012  2.9237
  975MOL0     H34543   8.356   7.077   2.665 -0.2480 -2.1818  0.3734
  975MOL0     H34544   8.472   7.061   2.943 -0.7938 -0.5818 -0.2024
  975MOL0     H34545   8.524   7.181   2.827  2.4322 -1.7008 -0.4166
  975MOL0     H34546   8.744   6.899   2.628  1.6645  1.6179  0.6117
  975MOL0     H34547   8.279   6.766   2.997 -0.0595 -0.6642 -1.2063
  975MOL0     H34548   8.196   6.581   2.877  0.8645  0.1908  1.0403
  975MOL0     H34549   8.143   6.523   3.048  1.0285  1.7424  0.3528
  975MOL0     H34550   8.035   6.516   2.902  0.1275 -0.4739  0.0224
  976MOL0     O34551   0.199   2.039   8.440 -0.1887  0.7781 -0.6055
  976MOL0     C34552   0.307   1.996   8.388  1.5599 -0.2615 -0.1138
  976MOL0     O34553   0.357   2.034   8.269  0.2728  0.0676  0.5184
  976MOL0     C34554   0.316   2.148   8.208 -0.3684  0.2772 -0.2304
  976MOL0     C34555   0.415   2.227   8.153 -0.3987  0.1691 -0.9881
  976MOL0     C34556   0.388   2.355   8.096  0.1115  0.4362 -0.9333
  976MOL0     C34557   0.251   2.383   8.061 -0.3271 -0.9747  0.2927
  976MOL0     O34558   0.232   2.483   7.978 -0.0487 -0.3466 -0.7249
  976MOL0     C34559   0.102   2.541   7.958  1.0102  0.0057 -0.7489
  976MOL0     C34560   0.103   2.650   7.851 -0.9275  0.4470  0.9693
  976MOL0     C34561  -0.031   2.724   7.857 -0.1361  0.1198  0.4455
  976MOL0     C34562  -0.053   2.807   7.727  1.1103  0.5407 -0.9075
  976MOL0     C34563  -0.202   2.863   7.729 -0.2365  1.1580  0.6766
  976MOL0     C34564  -0.246   2.945   7.605  0.2714  0.8033 -0.8575
  976MOL0     C34565  -0.389   3.000   7.612  0.6873 -0.8838 -0.1444
  976MOL0     C34566  -0.415   3.101   7.506 -0.6187 -0.0998  0.4987
  976MOL0     N34567  -0.553   3.131   7.496  0.5374 -0.1679 -0.6215
  976MOL0     C34568  -0.653   3.050   7.458  0.2509 -0.7802 -1.1260
  976MOL0     C34569  -0.767   3.124   7.452  0.6800 -0.3352  1.1574
  976MOL0     C34570  -0.891   3.054   7.388  0.1842 -0.8116 -0.4909
  976MOL0     C34571  -0.937   2.933   7.477 -0.2970  0.1773 -0.5882
  976MOL0     C34572  -1.022   2.987   7.596 -0.5007  0.5482 -0.3092
  976MOL0     C34573  -1.007   2.899   7.709 -0.5356 -1.2158  0.6630
  976MOL0     O34574  -0.878   2.911   7.773  0.5496  0.1118 -0.2998
  976MOL0     C34575  -0.856   2.850   7.896 -0.1019 -0.3624  0.8891
  976MOL0     C34576  -0.751   2.894   7.983  0.7909  0.4873  0.2806
  976MOL0     C34577  -0.724   2.839   8.111  0.4573  0.0818  1.0750
  976MOL0     C34578  -0.636   2.914   8.212  0.1614 -0.6476  0.9956
  976MOL0     C34579  -0.793   2.724   8.139 -0.6720 -0.2483 -0.2340
  976MOL0     C34580  -0.761   2.648   8.266  0.6065  0.4396  0.5063
  976MOL0     O34581  -0.702   2.526   8.248  0.3837 -0.2082  0.3884
  976MOL0     C34582  -0.651   2.447   8.347  0.0815 -0.1002  0.2904
  976MOL0     C34583  -0.595   2.494   8.464 -0.4683  0.5177 -0.4292
  976MOL0     C34584  -0.568   2.400   8.565  0.3201 -0.0954 -0.5019
  976MOL0     C34585  -0.593   2.264   8.553  0.0523  0.6554  0.1776
  976MOL0     O34586  -0.546   2.169   8.648  0.3601  0.4110 -0.3658
  976MOL0     C34587  -0.650   2.091   8.706 -0.3605 -0.5536 -0.5620
  976MOL0     C34588  -0.612   2.039   8.845 -0.4099  0.4808 -0.3739
  976MOL0     C34589  -0.704   1.932   8.893  0.5580 -0.0976 -0.2714
  976MOL0     C34590  -0.681   1.903   9.046 -0.3523 -0.1686  0.2743
  976MOL0     C34591  -0.777   1.786   9.076  0.0399 -0.4400 -0.0896
  976MOL0     C34592  -0.772   1.735   9.218  0.3446  0.4114 -0.8803
  976MOL0     C34593  -0.819   1.847   9.325  0.5133  0.1967  0.5000
  976MOL0     C34594  -0.802   1.801   9.470  0.1158 -0.0921 -1.1235
  976MOL0    Cl34595  -0.822   1.948   9.572 -0.2545 -0.1847  0.0430
  976MOL0     C34596  -0.645   2.211   8.433 -0.1660  0.0590  0.7804
  976MOL0     C34597  -0.684   2.308   8.334 -0.1530  0.0036 -0.0160
  976MOL0     O34598  -0.790   2.695   8.373 -0.1273  0.5372 -0.4842
  976MOL0     C34599  -0.883   2.663   8.051 -0.1067  1.1934  0.6822
  976MOL0     C34600  -0.916   2.730   7.937 -0.6894 -0.2310 -0.2326
  976MOL0     N34601  -0.737   3.249   7.499 -0.3150  0.2689  0.4883
  976MOL0     N34602  -0.613   3.256   7.519  0.1744  0.0713 -0.7065
  976MOL0     C34603   0.148   2.305   8.112  0.2560 -0.1482 -0.3922
  976MOL0     C34604   0.180   2.193   8.192 -0.4479  0.0813 -0.3583
  976MOL0     C34605   0.386   1.915   8.473  0.0793 -0.7232  0.3135
  976MOL0     C34606   0.523   1.941   8.471 -0.2340 -0.5230  0.2262
  976MOL0     C34607   0.609   1.852   8.536  0.1383  0.0381 -0.3403
  976MOL0     C34608   0.559   1.748   8.618 -0.0949  0.1927 -0.0708
  976MOL0     O34609   0.652   1.670   8.679 -0.3074 -0.5523 -0.0560
  976MOL0     C34610   0.600   1.539   8.725 -0.2149  0.0063 -0.2666
  976MOL0     C34611   0.707   1.439   8.747  0.3161  0.2528  0.2004
  976MOL0     C34612   0.800   1.412   8.626 -0.7344  0.1822  0.2897
  976MOL0     C34613   0.738   1.331   8.520  0.1240 -0.3834  0.6915
  976MOL0     C34614   0.818   1.312   8.398  0.4114  0.0686  0.4783
  976MOL0     C34615   0.884   1.279   8.311 -0.0206  0.5235 -0.3292
  976MOL0     C34616   0.418   1.743   8.640  0.1465 -0.6282 -0.6336
  976MOL0     C34617   0.326   1.824   8.566 -0.3558 -0.0798  1.2247
  976MOL0     C34618   0.179   1.791   8.584  0.2310 -0.6757 -0.9077
  976MOL0     H34619   0.516   2.190   8.136  0.4196  2.6803 -1.9966
  976MOL0     H34620   0.462   2.428   8.063 -1.3668  1.3973 -2.2450
  976MOL0     H34621   0.063   2.579   8.053  1.4807 -1.0494 -0.1155
  976MOL0     H34622   0.033   2.466   7.916  2.2529 -1.7323  0.1568
  976MOL0     H34623   0.181   2.720   7.883  0.2516 -0.0137 -0.7635
  976MOL0     H34624   0.130   2.613   7.753  2.5783  0.1757  1.9229
  976MOL0     H34625  -0.114   2.657   7.877 -0.0503  0.1149  0.8032
  976MOL0     H34626  -0.036   2.795   7.940  2.3823  0.6894  0.2045
  976MOL0     H34627   0.020   2.888   7.731 -0.0272  1.5281  1.6629
  976MOL0     H34628  -0.040   2.748   7.636  0.1948 -1.0593 -0.0538
  976MOL0     H34629  -0.205   2.927   7.818  0.7542  4.1494 -1.2615
  976MOL0     H34630  -0.257   2.769   7.727  1.7693 -0.2679 -4.8859
  976MOL0     H34631  -0.188   3.038   7.601 -0.9115  1.5134 -2.9232
  976MOL0     H34632  -0.237   2.877   7.520  1.8132  1.0261 -0.9110
  976MOL0     H34633  -0.415   3.041   7.710  0.0104 -1.7091  0.0378
  976MOL0     H34634  -0.459   2.915   7.611  0.5159 -0.7473  0.2141
  976MOL0     H34635  -0.366   3.196   7.532  1.8710 -1.8488  2.6985
  976MOL0     H34636  -0.365   3.074   7.413  0.9046  1.3596  0.8455
  976MOL0     H34637  -0.655   2.942   7.444 -0.0746 -0.7608 -1.2292
  976MOL0     H34638  -0.876   3.022   7.284  1.4667 -1.2437 -0.1943
  976MOL0     H34639  -0.964   3.136   7.392 -0.1254 -1.1280  0.7190
  976MOL0     H34640  -0.995   2.861   7.418  0.1252 -0.0999 -0.6763
  976MOL0     H34641  -0.853   2.871   7.511  0.4435  0.5350 -1.7013
  976MOL0     H34642  -0.986   3.084   7.631 -1.6049  0.2462  1.8145
  976MOL0     H34643  -1.122   2.985   7.552  0.2098  4.0828 -2.4566
  976MOL0     H34644  -1.084   2.933   7.779 -0.2862 -2.9250  1.8129
  976MOL0     H34645  -1.023   2.797   7.675 -1.2838 -0.9019  0.0397
  976MOL0     H34646  -0.687   2.974   7.947  1.2660  1.5945  3.2534
  976MOL0     H34647  -0.532   2.904   8.178 -0.4512  1.9719 -2.1161
  976MOL0     H34648  -0.649   2.886   8.317  0.0740 -0.2399  1.0976
  976MOL0     H34649  -0.659   3.021   8.205 -1.7449 -1.0667  0.3307
  976MOL0     H34650  -0.573   2.600   8.479  4.8802 -0.0186 -2.2989
  976MOL0     H34651  -0.527   2.439   8.657 -1.5365  2.1993 -0.5467
  976MOL0     H34652  -0.744   2.147   8.715 -0.7404 -1.2884  0.1528
  976MOL0     H34653  -0.669   2.003   8.644 -3.0563  0.4405 -1.3056
  976MOL0     H34654  -0.510   2.000   8.849 -0.1212  1.3039  1.4445
  976MOL0     H34655  -0.615   2.124   8.914  0.7330 -0.9682  1.5839
  976MOL0     H34656  -0.678   1.842   8.836 -0.1025 -1.9867  2.2607
  976MOL0     H34657  -0.807   1.968   8.883  0.9228  0.7975 -0.9017
  976MOL0     H34658  -0.712   1.991   9.103 -0.3029  0.8437 -1.1963
  976MOL0     H34659  -0.578   1.872   9.067  0.1487  0.5238 -1.0383
  976MOL0     H34660  -0.880   1.816   9.059 -0.1062 -0.9657 -0.1501
  976MOL0     H34661  -0.748   1.694   9.025 -1.4504 -0.2863 -1.2561
  976MOL0     H34662  -0.673   1.697   9.245 -1.5069 -3.4328  1.3451
  976MOL0     H34663  -0.842   1.651   9.221  0.1320  0.4847 -2.5333
  976MOL0     H34664  -0.918   1.888   9.309  1.5743  2.1119 -1.9000
  976MOL0     H34665  -0.760   1.937   9.306  1.1861 -0.6346 -1.7628
  976MOL0     H34666  -0.707   1.747   9.479  0.5263  0.4774 -1.9776
  976MOL0     H34667  -0.890   1.739   9.493 -0.0887  1.1075  1.7933
  976MOL0     H34668  -0.660   2.104   8.423 -2.9913  0.4662 -0.1460
  976MOL0     H34669  -0.725   2.280   8.238  2.7312  4.4514 -2.8954
  976MOL0     H34670  -0.932   2.569   8.074  1.0749  0.8132  1.7156
  976MOL0     H34671  -1.001   2.690   7.881 -0.5759 -4.7260  2.2932
  976MOL0     H34672   0.045   2.328   8.089  0.5646  0.9266 -0.7202
  976MOL0     H34673   0.099   2.135   8.235 -0.5585  0.6788  0.2547
  976MOL0     H34674   0.558   2.021   8.407 -1.9102 -2.6476 -3.6762
  976MOL0     H34675   0.715   1.868   8.520 -0.1541  1.2904 -1.1923
  976MOL0     H34676   0.535   1.548   8.812 -0.8186 -1.4437 -0.5411
  976MOL0     H34677   0.539   1.499   8.644 -1.0186 -0.3094  0.4827
  976MOL0     H34678   0.664   1.342   8.773 -3.5437  0.8931 -2.8878
  976MOL0     H34679   0.765   1.459   8.838 -1.3774 -2.2514  1.9672
  976MOL0     H34680   0.826   1.508   8.583  0.2177 -1.0282 -2.0030
  976MOL0     H34681   0.887   1.364   8.672 -0.7042  1.3417  1.5064
  976MOL0     H34682   0.644   1.378   8.491  1.0717  0.9130 -0.4126
  976MOL0     H34683   0.703   1.231   8.548  0.8652 -0.3491  1.7863
  976MOL0     H34684   0.926   1.257   8.214 -0.3497  0.2682 -0.4176
  976MOL0     H34685   0.384   1.685   8.725 -2.0128  0.2162 -0.8445
  976MOL0     H34686   0.141   1.778   8.482  0.2748  2.5956 -1.4623
  976MOL0     H34687   0.155   1.704   8.645  0.2552  0.2918  0.5384
  976MOL0     H34688   0.128   1.872   8.638  1.1941  2.4758 -4.2680
  977MOL0     O34689  10.351   1.402   4.310 -0.1192  0.6549 -0.0729
  977MOL0     C34690  10.273   1.492   4.269 -0.1577 -0.3712 -0.7187
  977MOL0     O34691  10.216   1.584   4.352  0.1123 -0.9300  0.3857
  977MOL0     C34692  10.213   1.561   4.487  0.8285 -0.0955 -0.6499
  977MOL0     C34693  10.301   1.610   4.581 -0.0949 -0.6653 -0.9590
  977MOL0     C34694  10.269   1.604   4.715  0.0435  0.2405  0.9962
  977MOL0     C34695  10.159   1.531   4.757 -0.7181 -0.8139  0.5360
  977MOL0     O34696  10.123   1.515   4.889 -0.0368  0.8751 -0.2844
  977MOL0     C34697  10.132   1.638   4.976 -0.7394  0.8545  0.7576
  977MOL0     C34698  10.111   1.606   5.125  1.3676  0.9921  0.3163
  977MOL0     C34699   9.963   1.559   5.134  0.0546 -0.1137  0.0906
  977MOL0     C34700   9.921   1.538   5.282 -0.7943 -0.0257  0.4440
  977MOL0     C34701   9.767   1.521   5.303  0.5677 -0.2397  0.8093
  977MOL0     C34702   9.742   1.473   5.439 -0.5171  0.0221 -0.1604
  977MOL0     C34703   9.601   1.433   5.450  1.4125 -0.9111 -0.5773
  977MOL0     C34704   9.580   1.332   5.567  0.4104  0.2360  0.1840
  977MOL0     N34705   9.463   1.242   5.547  0.1656 -0.0001 -0.0636
  977MOL0     C34706   9.406   1.165   5.644  0.8285  0.3662 -0.8540
  977MOL0     C34707   9.294   1.102   5.601 -0.0072 -1.0988 -0.4508
  977MOL0     C34708   9.197   1.000   5.669  0.0008 -0.0767 -0.4570
  977MOL0     C34709   9.075   1.073   5.715  0.4997 -0.3379  0.1291
  977MOL0     C34710   9.090   1.157   5.838 -0.5561 -0.6362  0.1489
  977MOL0     C34711   9.149   1.092   5.956  0.4401  0.6448 -0.3031
  977MOL0     O34712   9.288   1.099   5.974 -0.4003 -0.8344  0.1087
  977MOL0     C34713   9.329   1.092   6.109 -0.3007  0.4342 -0.1146
  977MOL0     C34714   9.334   0.971   6.179 -1.2015  0.1985 -0.7268
  977MOL0     C34715   9.374   0.959   6.316 -0.6530 -0.4119  0.8283
  977MOL0     C34716   9.370   0.824   6.393  0.2176 -0.2254  0.5501
  977MOL0     C34717   9.431   1.079   6.371 -0.1088  0.1617  0.8538
  977MOL0     C34718   9.475   1.066   6.513 -0.3142  0.1602 -0.2737
  977MOL0     O34719   9.602   1.113   6.538  0.4998  0.2591 -0.4847
  977MOL0     C34720   9.653   1.081   6.658 -0.5321  0.0909  0.4070
  977MOL0     C34721   9.773   1.000   6.662  0.6237  0.5206 -0.0989
  977MOL0     C34722   9.831   0.960   6.793  1.0397  0.4953  1.2910
  977MOL0     C34723   9.796   1.022   6.908 -0.0035  0.8326  0.4028
  977MOL0     O34724   9.859   0.988   7.027  0.3976 -0.4070 -0.1096
  977MOL0     C34725   9.977   0.907   7.034 -0.2322  0.1033  0.7229
  977MOL0     C34726   9.929   0.761   7.035  0.0610  0.8202  0.8399
  977MOL0     C34727  10.043   0.663   7.042  0.3392 -0.6342  0.3079
  977MOL0     C34728  10.120   0.650   6.910  1.6286 -0.2887  0.5568
  977MOL0     C34729  10.241   0.566   6.937  0.5061 -0.1929  0.1079
  977MOL0     C34730  10.302   0.529   6.798 -0.3911 -0.0687  0.0819
  977MOL0     C34731  10.415   0.627   6.744 -0.6348 -0.3713  0.1133
  977MOL0     C34732  10.500   0.576   6.635  0.0002 -0.8010 -0.1285
  977MOL0    Cl34733  10.611   0.713   6.568  0.1160  0.2061 -0.2001
  977MOL0     C34734   9.689   1.117   6.902 -0.5209  0.7885 -0.0956
  977MOL0     C34735   9.617   1.144   6.785  0.0668  0.5266 -0.8637
  977MOL0     O34736   9.397   1.031   6.603  0.4258  0.1009  1.0603
  977MOL0     C34737   9.438   1.195   6.299  0.4175 -0.1883  0.8480
  977MOL0     C34738   9.387   1.205   6.174 -0.0767  0.5750  1.1244
  977MOL0     N34739   9.280   1.147   5.473 -0.2970  0.1330 -0.0145
  977MOL0     N34740   9.383   1.229   5.439  0.0685  0.4972 -0.1241
  977MOL0     C34741  10.067   1.484   4.665  0.5819 -0.0999  0.3725
  977MOL0     C34742  10.099   1.497   4.528  0.2931  0.0058  0.9134
  977MOL0     C34743  10.251   1.500   4.124 -0.1295  0.2944 -0.1591
  977MOL0     C34744  10.341   1.450   4.027 -0.7756 -0.3812 -0.4850
  977MOL0     C34745  10.317   1.444   3.891 -0.4618  0.1394 -0.6517
  977MOL0     C34746  10.196   1.499   3.840 -0.0814  0.3448  0.0604
  977MOL0     O34747  10.159   1.493   3.709  0.1079  0.0388  0.4907
  977MOL0     C34748  10.197   1.384   3.625  0.8021 -0.2737 -0.1907
  977MOL0     C34749  10.083   1.376   3.514 -0.2943  0.1893 -0.5052
  977MOL0     C34750  10.125   1.275   3.402 -0.3277  0.0092 -0.1459
  977MOL0     C34751  10.077   1.132   3.442 -0.7942 -0.3523 -0.3207
  977MOL0     C34752  10.089   1.038   3.345 -0.2315  0.9826  0.5719
  977MOL0     C34753  10.110   0.967   3.243 -0.0418  0.0225  0.7343
  977MOL0     C34754  10.108   1.548   3.923  0.1854 -0.3178  0.8853
  977MOL0     C34755  10.127   1.540   4.064  0.1260 -0.9977  0.5874
  977MOL0     C34756  10.010   1.600   4.142  0.5094 -0.2635 -1.0513
  977MOL0     H34757  10.389   1.662   4.545 -0.2933 -0.1118 -0.6541
  977MOL0     H34758  10.337   1.647   4.788 -0.6527 -0.1026  1.8641
  977MOL0     H34759  10.070   1.723   4.947  0.2337  2.3512  2.7678
  977MOL0     H34760  10.230   1.687   4.974 -2.2163  4.2197  1.8300
  977MOL0     H34761  10.173   1.521   5.155 -0.1970 -1.0658 -1.9002
  977MOL0     H34762  10.127   1.687   5.197 -1.5214  0.5592  1.5817
  977MOL0     H34763   9.901   1.632   5.081  0.0894 -0.6668 -0.7359
  977MOL0     H34764   9.953   1.470   5.070  1.8077 -0.9706  0.9485
  977MOL0     H34765   9.966   1.451   5.331  0.4507  0.4285  0.1417
  977MOL0     H34766   9.949   1.627   5.339  1.2415 -1.8850  2.5732
  977MOL0     H34767   9.726   1.452   5.229 -1.5867  1.7147  0.0469
  977MOL0     H34768   9.707   1.610   5.281 -0.5412 -1.5014 -1.7518
  977MOL0     H34769   9.806   1.384   5.444  1.4788  1.4561  1.8741
  977MOL0     H34770   9.781   1.545   5.511  2.4435 -2.0301  0.4625
  977MOL0     H34771   9.579   1.382   5.356  1.8315  1.1513 -1.8528
  977MOL0     H34772   9.546   1.521   5.484  2.3435 -1.3108  2.1871
  977MOL0     H34773   9.672   1.273   5.571  0.6990  0.6106 -0.5907
  977MOL0     H34774   9.571   1.394   5.658 -3.4369  0.0520  0.0895
  977MOL0     H34775   9.448   1.171   5.744 -3.6935  0.2355  1.3525
  977MOL0     H34776   9.244   0.944   5.751  0.6107  3.2399  1.6715
  977MOL0     H34777   9.168   0.918   5.602  2.6621 -1.4308 -0.1159
  977MOL0     H34778   9.039   1.139   5.636 -2.5223 -0.9687  0.8333
  977MOL0     H34779   8.999   0.995   5.729  1.8808 -1.9515 -1.0128
  977MOL0     H34780   9.158   1.240   5.817 -0.5766  0.5144  3.9443
  977MOL0     H34781   8.991   1.195   5.863 -2.0343 -5.1015  2.2269
  977MOL0     H34782   9.103   1.139   6.043 -1.7043 -0.3086 -0.8575
  977MOL0     H34783   9.124   0.985   5.961 -3.6343  1.4820  2.7294
  977MOL0     H34784   9.300   0.886   6.120 -3.2119  0.2117  0.2891
  977MOL0     H34785   9.331   0.739   6.337 -2.7678  1.9212 -0.9178
  977MOL0     H34786   9.314   0.832   6.487 -1.7417  2.2130 -0.7231
  977MOL0     H34787   9.470   0.798   6.428  0.7115  0.1261 -0.5498
  977MOL0     H34788   9.803   0.947   6.572  3.1348 -1.3079  1.6823
  977MOL0     H34789   9.896   0.874   6.788  0.6475  0.1396 -4.2909
  977MOL0     H34790  10.037   0.940   6.949 -0.4585 -0.1565  0.4616
  977MOL0     H34791  10.048   0.923   7.116  0.9563 -1.6804  0.1018
  977MOL0     H34792   9.877   0.744   7.129  1.1668  3.2611  1.9936
  977MOL0     H34793   9.864   0.741   6.949 -0.3749  2.8636  0.6384
  977MOL0     H34794   9.997   0.569   7.072 -4.6981  0.7023 -2.1561
  977MOL0     H34795  10.109   0.704   7.120  3.2678 -4.4057  0.1082
  977MOL0     H34796  10.161   0.745   6.874  3.9131 -1.2204  0.5274
  977MOL0     H34797  10.057   0.603   6.834  4.1355  0.0188 -1.8264
  977MOL0     H34798  10.317   0.602   7.008 -2.0081  0.1397  2.8110
  977MOL0     H34799  10.221   0.474   6.993  0.0700  1.8176  3.6060
  977MOL0     H34800  10.215   0.526   6.731  1.3114  0.4024 -2.2800
  977MOL0     H34801  10.344   0.428   6.801 -2.2815 -0.9095 -0.0073
  977MOL0     H34802  10.475   0.642   6.834 -1.2125 -0.0972  0.4589
  977MOL0     H34803  10.375   0.726   6.719 -1.5462 -0.5899  0.6831
  977MOL0     H34804  10.429   0.529   6.566 -0.6352  1.8961 -1.4500
  977MOL0     H34805  10.556   0.488   6.668  1.2202  1.2586  3.8758
  977MOL0     H34806   9.657   1.147   7.002 -0.6203  1.7668 -0.4034
  977MOL0     H34807   9.528   1.206   6.789 -0.3186  0.0211  3.7856
  977MOL0     H34808   9.476   1.275   6.363 -0.2782 -0.9108  2.2158
  977MOL0     H34809   9.389   1.299   6.119 -0.7411  0.7276  1.3445
  977MOL0     H34810   9.989   1.416   4.699 -0.2202  0.4172 -0.4009
  977MOL0     H34811  10.042   1.446   4.451  1.4632 -0.1372  0.1201
  977MOL0     H34812  10.434   1.410   4.067 -1.3219  0.4954  1.7831
  977MOL0     H34813  10.394   1.394   3.833  1.2415  0.9966  0.7576
  977MOL0     H34814  10.291   1.393   3.570  1.3268 -0.1110  0.7096
  977MOL0     H34815  10.205   1.284   3.668  2.7575 -0.3921 -0.7144
  977MOL0     H34816  10.068   1.475   3.470  0.2490 -0.2354 -1.6709
  977MOL0     H34817   9.987   1.353   3.560 -0.8117 -0.5374 -1.9125
  977MOL0     H34818  10.071   1.303   3.311  1.0212 -2.2397 -1.7587
  977MOL0     H34819  10.233   1.285   3.386 -0.3308 -0.3266 -0.3843
  977MOL0     H34820   9.970   1.142   3.466 -0.6101  0.8270  0.1162
  977MOL0     H34821  10.124   1.108   3.537  0.1829  4.2427  0.6302
  977MOL0     H34822  10.148   0.898   3.170 -1.2117 -1.8529  1.7962
  977MOL0     H34823  10.019   1.584   3.873  2.0556  1.4083 -1.4305
  977MOL0     H34824  10.008   1.560   4.244  0.2609 -1.1532 -1.3977
  977MOL0     H34825  10.008   1.710   4.145 -3.6305 -0.1656 -0.3683
  977MOL0     H34826   9.912   1.569   4.104 -0.4638  1.0120  0.2729
  978MOL0     O34827   4.938   6.378  10.315 -0.4262  0.9191 -0.2286
  978MOL0     C34828   5.025   6.332  10.390  0.0796 -0.4014  0.8850
  978MOL0     O34829   5.132   6.255  10.347  0.3055 -0.0400 -0.8033
  978MOL0     C34830   5.111   6.144  10.277 -0.0362 -0.2354 -0.2068
  978MOL0     C34831   5.183   6.145  10.160  1.2886 -1.2964  0.1219
  978MOL0     C34832   5.161   6.033  10.073 -0.6311 -0.0958  0.8881
  978MOL0     C34833   5.070   5.931  10.100  0.1607 -1.1258 -0.0530
  978MOL0     O34834   5.041   5.835  10.015  0.3855  0.3447  0.0078
  978MOL0     C34835   5.077   5.858   9.871 -0.1285  0.0467 -0.3628
  978MOL0     C34836   5.022   5.755   9.782  0.1659  0.1765 -0.0393
  978MOL0     C34837   5.026   5.794   9.633  0.3314  0.4743 -0.4257
  978MOL0     C34838   4.981   5.673   9.552  0.1412 -0.7197  0.6092
  978MOL0     C34839   4.967   5.708   9.402  0.4359 -0.6424 -0.6776
  978MOL0     C34840   5.089   5.737   9.329 -0.6056 -0.4371  0.2353
  978MOL0     C34841   5.080   5.755   9.181  0.0130  0.2163 -0.0733
  978MOL0     C34842   4.951   5.816   9.121 -0.0928 -0.3290  0.1886
  978MOL0     N34843   4.974   5.873   8.985  0.0526  0.2276 -0.1248
  978MOL0     C34844   5.081   5.948   8.942  0.6933 -0.6218  0.9706
  978MOL0     C34845   5.048   5.989   8.812 -0.8872  0.8537 -0.1096
  978MOL0     C34846   5.128   6.080   8.724  0.6614  1.0117 -0.7707
  978MOL0     C34847   5.140   6.221   8.776  0.6166  0.0144  0.1514
  978MOL0     C34848   5.202   6.324   8.682 -0.2162  0.6426 -0.5472
  978MOL0     C34849   5.344   6.279   8.630  0.2745 -0.2698 -0.5894
  978MOL0     O34850   5.421   6.235   8.744  0.2697  0.2204 -0.0453
  978MOL0     C34851   5.544   6.186   8.703  0.9640  0.0299 -0.3900
  978MOL0     C34852   5.563   6.048   8.703  0.3841  0.0647 -0.2137
  978MOL0     C34853   5.688   5.996   8.671  0.1692 -0.5026  0.1730
  978MOL0     C34854   5.711   5.843   8.674 -0.5158  0.2072 -0.6591
  978MOL0     C34855   5.798   6.086   8.653  0.4199 -0.2366 -0.6536
  978MOL0     C34856   5.937   6.043   8.631 -0.5258 -0.7971  0.5609
  978MOL0     O34857   6.014   6.140   8.570  0.5238 -0.7011 -0.3802
  978MOL0     C34858   6.146   6.140   8.576 -0.7779 -0.8890  0.2876
  978MOL0     C34859   6.208   6.194   8.691  0.6911 -0.5254  0.5535
  978MOL0     C34860   6.345   6.222   8.688  0.6011  0.4583 -0.5073
  978MOL0     C34861   6.420   6.198   8.570  0.7752 -0.1815  0.6333
  978MOL0     O34862   6.548   6.254   8.581  0.0890  0.7743  0.1700
  978MOL0     C34863   6.627   6.260   8.466  0.2113  0.4123  0.5120
  978MOL0     C34864   6.764   6.308   8.499 -0.1991 -0.7912 -0.1962
  978MOL0     C34865   6.832   6.190   8.578  0.5300 -0.7687 -0.1465
  978MOL0     C34866   6.986   6.196   8.563  0.4024  0.0873 -0.6611
  978MOL0     C34867   7.058   6.088   8.656  0.4132  0.8105  0.1705
  978MOL0     C34868   7.212   6.083   8.617  1.2447  0.5466  0.0257
  978MOL0     C34869   7.282   6.193   8.685 -0.3204 -1.2592  0.4309
  978MOL0     C34870   7.432   6.190   8.684 -0.5903 -0.5179  0.1641
  978MOL0    Cl34871   7.515   6.338   8.746 -0.1765 -0.0745  0.3756
  978MOL0     C34872   6.365   6.137   8.459  0.5344  0.1639 -0.2633
  978MOL0     C34873   6.229   6.109   8.464  0.6926  0.4022  0.5103
  978MOL0     O34874   5.980   5.931   8.657 -0.6764 -0.0598  0.0382
  978MOL0     C34875   5.774   6.229   8.659  0.4725  0.5163 -0.0898
  978MOL0     C34876   5.646   6.272   8.673  0.2652  0.2890  0.2690
  978MOL0     N34877   4.925   5.938   8.778 -0.2862  0.3086  0.6101
  978MOL0     N34878   4.882   5.871   8.878  0.4057  1.0696 -0.3211
  978MOL0     C34879   5.000   5.940  10.223 -0.1528  0.4087 -0.3780
  978MOL0     C34880   5.029   6.039  10.318 -0.7851 -0.2431 -0.2203
  978MOL0     C34881   5.045   6.396  10.532 -0.7833 -0.6823 -0.2126
  978MOL0     C34882   5.139   6.334  10.623 -0.2342 -0.6208  0.3534
  978MOL0     C34883   5.166   6.397  10.747  0.6209 -0.1949 -0.6883
  978MOL0     C34884   5.087   6.505  10.791 -0.0555  0.1612  0.7606
  978MOL0     O34885   5.127   6.564  10.905  0.3516 -0.6569 -0.5149
  978MOL0     C34886   5.034   6.628  10.994  0.2790  0.4761 -0.1160
  978MOL0     C34887   5.082   6.655  11.138  0.5608  1.4793  0.5899
  978MOL0     C34888   5.173   6.545  11.175 -0.1238 -0.6809 -0.6970
  978MOL0     C34889   5.105   6.402  11.189  0.5021 -0.2270 -0.6885
  978MOL0     C34890   5.036   6.398  11.319  0.3262 -0.2886  0.7054
  978MOL0     C34891   4.988   6.376  11.430  0.5095  0.5078  0.2203
  978MOL0     C34892   4.981   6.548  10.716  0.4193 -0.2473  0.9137
  978MOL0     C34893   4.972   6.514  10.580 -0.6290  0.0531 -0.7834
  978MOL0     C34894   4.877   6.592  10.487 -0.3873 -0.2873 -0.2688
  978MOL0     H34895   5.256   6.224  10.156 -0.6118  0.5454 -0.0833
  978MOL0     H34896   5.218   6.053   9.982 -2.8961  0.4057 -0.4983
  978MOL0     H34897   5.185   5.866   9.858 -0.4851  3.4066 -2.4562
  978MOL0     H34898   5.029   5.955   9.851 -1.2132  0.7557  4.3624
  978MOL0     H34899   5.081   5.663   9.791  2.0645  1.1871 -1.3372
  978MOL0     H34900   4.915   5.740   9.796  0.2152 -0.2268 -0.0856
  978MOL0     H34901   4.965   5.883   9.613  1.4452  1.5436  0.6781
  978MOL0     H34902   5.129   5.819   9.605  0.5005 -0.5566 -0.7603
  978MOL0     H34903   5.049   5.587   9.556 -1.0011 -1.8556 -1.7812
  978MOL0     H34904   4.881   5.659   9.593 -0.3719  4.4132  1.7166
  978MOL0     H34905   4.899   5.793   9.391  0.1712 -1.1156 -3.3326
  978MOL0     H34906   4.923   5.617   9.360 -0.1764 -0.8763  0.4311
  978MOL0     H34907   5.126   5.833   9.366 -3.5185  1.4968 -1.4988
  978MOL0     H34908   5.155   5.652   9.346  2.9980  2.4128  1.7396
  978MOL0     H34909   5.096   5.653   9.144  1.5359  0.8366 -1.2269
  978MOL0     H34910   5.168   5.817   9.162  0.1256  0.2315  0.4845
  978MOL0     H34911   4.874   5.739   9.119 -0.0583 -0.4189  1.7181
  978MOL0     H34912   4.916   5.896   9.187 -0.8138  2.0999 -2.8803
  978MOL0     H34913   5.170   5.974   8.998  0.6066 -2.8259  2.2606
  978MOL0     H34914   5.074   6.077   8.629  1.0270  2.1899 -1.0244
  978MOL0     H34915   5.226   6.034   8.709 -0.1139 -1.7587  1.6993
  978MOL0     H34916   5.040   6.262   8.791  0.4435  0.6830 -2.4209
  978MOL0     H34917   5.207   6.223   8.863  1.3106  0.2696 -0.3846
  978MOL0     H34918   5.124   6.320   8.605 -2.3867 -1.9957  1.5698
  978MOL0     H34919   5.190   6.418   8.737 -5.0466 -0.2114  0.3190
  978MOL0     H34920   5.334   6.194   8.563 -1.2351 -0.4314 -0.2083
  978MOL0     H34921   5.386   6.367   8.579  0.4624 -1.1761 -2.0502
  978MOL0     H34922   5.480   5.985   8.732 -0.4889 -0.3755 -3.3227
  978MOL0     H34923   5.705   5.800   8.774 -1.9782 -0.0584 -0.8337
  978MOL0     H34924   5.801   5.806   8.625 -0.2213 -0.1228  0.1108
  978MOL0     H34925   5.627   5.803   8.617 -3.0001  1.6634  1.7498
  978MOL0     H34926   6.146   6.211   8.778  1.7913 -0.8624  1.4372
  978MOL0     H34927   6.397   6.264   8.774 -2.8082  1.9784  1.0077
  978MOL0     H34928   6.636   6.159   8.425 -0.7270  0.0074  1.2883
  978MOL0     H34929   6.585   6.333   8.396 -0.7497 -1.0810 -0.5342
  978MOL0     H34930   6.810   6.335   8.404 -0.3124  0.3649  0.0711
  978MOL0     H34931   6.758   6.397   8.562 -1.7844 -1.0885  0.1290
  978MOL0     H34932   6.802   6.092   8.538 -0.1871 -1.4695  1.9792
  978MOL0     H34933   6.805   6.188   8.684 -0.5111 -2.4958 -0.3944
  978MOL0     H34934   7.019   6.296   8.591 -1.6972  0.5736  0.2354
  978MOL0     H34935   7.011   6.188   8.456  2.8313  3.6176 -0.5400
  978MOL0     H34936   7.049   6.117   8.761  1.8131 -2.2532  1.2618
  978MOL0     H34937   7.003   5.994   8.645  2.3304 -0.5537  1.6520
  978MOL0     H34938   7.214   6.086   8.507 -0.1478  0.0023 -0.0405
  978MOL0     H34939   7.259   5.992   8.654 -0.3177  0.6658  2.4741
  978MOL0     H34940   7.251   6.201   8.789  0.9398 -0.4105  0.7682
  978MOL0     H34941   7.252   6.288   8.639  2.1897 -0.7219 -0.3077
  978MOL0     H34942   7.468   6.189   8.581 -1.0034  2.1586 -0.0639
  978MOL0     H34943   7.469   6.097   8.729  2.4488 -1.0855 -3.0565
  978MOL0     H34944   6.409   6.124   8.361 -2.8118 -2.2851 -1.6307
  978MOL0     H34945   6.199   6.062   8.371 -1.5630  1.4820  0.6183
  978MOL0     H34946   5.849   6.307   8.654  1.2053 -0.1809 -0.1385
  978MOL0     H34947   5.624   6.378   8.658 -0.3989  0.0799 -0.2469
  978MOL0     H34948   4.924   5.865  10.245  1.0023 -0.5745  0.4159
  978MOL0     H34949   4.983   6.057  10.415 -1.9007  1.9014 -1.0809
  978MOL0     H34950   5.205   6.253  10.593  1.6864  0.5023  1.3571
  978MOL0     H34951   5.250   6.362  10.806 -0.9721 -0.0731  1.7976
  978MOL0     H34952   5.008   6.720  10.942 -1.9088 -0.2434 -0.4048
  978MOL0     H34953   4.947   6.562  11.000  0.1771  0.3545 -2.1566
  978MOL0     H34954   4.994   6.656  11.204  0.2039 -0.5624  0.2033
  978MOL0     H34955   5.136   6.749  11.149  0.6579  1.3546  1.2161
  978MOL0     H34956   5.255   6.527  11.105  0.8546  1.9194 -0.3280
  978MOL0     H34957   5.198   6.578  11.277 -4.1757 -0.8646  0.5043
  978MOL0     H34958   5.171   6.315  11.195 -2.1547 -2.3190  1.0918
  978MOL0     H34959   5.034   6.377  11.110  0.4523  0.3686 -0.8341
  978MOL0     H34960   4.967   6.348  11.532 -2.8930  1.4381 -0.1102
  978MOL0     H34961   4.927   6.635  10.753 -0.4747 -1.4443  2.5358
  978MOL0     H34962   4.781   6.539  10.486 -0.2156 -0.6953 -2.9460
  978MOL0     H34963   4.869   6.694  10.525 -0.1337  0.1678 -1.3953
  978MOL0     H34964   4.908   6.603  10.383  0.6259  0.2089  0.0742
  979MOL0     O34965   9.532   2.197  10.722 -0.7781 -0.0753  0.8275
  979MOL0     C34966   9.616   2.204  10.810 -0.8341  0.1529  0.5663
  979MOL0     O34967   9.588   2.268  10.928  0.3372  0.2144  0.7014
  979MOL0     C34968   9.494   2.372  10.925  0.0731  0.2618  0.6637
  979MOL0     C34969   9.445   2.413  11.049  0.1804 -0.7461 -0.0813
  979MOL0     C34970   9.368   2.521  11.082 -1.0703  1.0510  0.1214
  979MOL0     C34971   9.332   2.599  10.972  0.1273  0.2493  0.7957
  979MOL0     O34972   9.243   2.707  10.995  0.2505 -0.3454  1.0659
  979MOL0     C34973   9.292   2.823  11.064  0.0297  1.0403  0.7387
  979MOL0     C34974   9.372   2.908  10.972 -0.3460  0.3603  0.1373
  979MOL0     C34975   9.468   2.999  11.044 -0.2571  0.0289 -0.3898
  979MOL0     C34976   9.601   2.917  11.054 -0.6545 -0.5193 -0.0402
  979MOL0     C34977   9.730   2.983  11.112 -0.2681  0.1313  0.7778
  979MOL0     C34978   9.774   3.092  11.019  0.4706 -0.5842  0.7626
  979MOL0     C34979   9.923   3.129  11.063  0.4731 -0.3652  0.4228
  979MOL0     C34980   9.993   3.240  10.983  0.3130 -0.8945 -0.1672
  979MOL0     N34981   9.905   3.354  10.950  0.5735  0.2463 -1.2724
  979MOL0     C34982   9.844   3.433  11.042  0.0181 -0.1189 -0.5038
  979MOL0     C34983   9.745   3.493  10.978  0.6047 -0.3650 -0.4133
  979MOL0     C34984   9.636   3.586  11.043 -0.0977 -0.0135  0.7456
  979MOL0     C34985   9.551   3.670  10.933  0.1338 -0.3122  0.2700
  979MOL0     C34986   9.616   3.775  10.842 -1.0095  0.5155 -0.1982
  979MOL0     C34987   9.532   3.810  10.720 -0.4395  0.7215  0.2732
  979MOL0     O34988   9.393   3.796  10.759  0.3923 -0.3491 -0.1407
  979MOL0     C34989   9.321   3.902  10.819 -0.3342 -0.0187  0.1461
  979MOL0     C34990   9.358   4.032  10.823  0.8451  0.1055  0.0861
  979MOL0     C34991   9.270   4.128  10.872 -0.2437 -0.2052 -0.2241
  979MOL0     C34992   9.319   4.275  10.869  0.1638 -0.1602 -0.6569
  979MOL0     C34993   9.143   4.100  10.922 -0.5174 -0.1555  0.8776
  979MOL0     C34994   9.042   4.196  10.962  0.4114  0.0420  0.1151
  979MOL0     O34995   9.068   4.289  11.059  0.4354  0.2708  0.3835
  979MOL0     C34996   8.982   4.388  11.097  0.8647 -0.6278 -0.3916
  979MOL0     C34997   9.028   4.519  11.121  0.6397 -0.7902 -0.7537
  979MOL0     C34998   8.940   4.625  11.158  0.2402 -0.1124  0.7037
  979MOL0     C34999   8.805   4.600  11.181  0.0209  0.1853  0.0173
  979MOL0     O35000   8.716   4.694  11.228 -0.0606  0.2117 -0.2927
  979MOL0     C35001   8.743   4.825  11.180  0.1405  0.2327  0.1839
  979MOL0     C35002   8.598   4.872  11.153 -0.1647 -0.1561  0.6327
  979MOL0     C35003   8.513   4.788  11.056  0.8022 -0.2200  0.4237
  979MOL0     C35004   8.411   4.876  10.977  0.8899  0.0994 -0.2325
  979MOL0     C35005   8.329   4.794  10.881  1.4033  0.5321  0.1210
  979MOL0     C35006   8.178   4.761  10.906 -0.4805 -0.1961  0.1642
  979MOL0     C35007   8.119   4.662  10.803 -0.1746 -0.6118 -0.0048
  979MOL0     C35008   7.990   4.612  10.839  0.2030  0.2279 -0.3174
  979MOL0    Cl35009   7.945   4.460  10.758  0.4438 -0.1608 -0.0100
  979MOL0     C35010   8.758   4.474  11.153  0.6453 -0.5533  0.2730
  979MOL0     C35011   8.843   4.368  11.118 -0.3732 -0.3941 -1.4032
  979MOL0     O35012   8.928   4.164  10.934  0.0556 -0.3401  0.6993
  979MOL0     C35013   9.110   3.962  10.934  0.4149 -0.8953  0.6948
  979MOL0     C35014   9.198   3.865  10.872 -0.8229 -0.3657 -0.6041
  979MOL0     N35015   9.740   3.453  10.846 -0.2078  0.6284  0.2220
  979MOL0     N35016   9.837   3.360  10.834  0.1816 -0.3944  0.0624
  979MOL0     C35017   9.358   2.546  10.835 -0.5933  0.0976  0.7410
  979MOL0     C35018   9.455   2.447  10.817  0.4704  0.5406  0.6203
  979MOL0     C35019   9.752   2.147  10.777  0.0612 -0.1891 -0.2152
  979MOL0     C35020   9.820   2.095  10.887  0.3903 -0.8922 -1.3257
  979MOL0     C35021   9.954   2.047  10.867 -0.2933 -0.5093  0.3999
  979MOL0     C35022  10.010   2.049  10.742  0.4850  0.2926 -0.5348
  979MOL0     O35023  10.132   1.996  10.713 -0.1915 -0.7145 -0.5430
  979MOL0     C35024  10.241   2.045  10.798 -0.5409  0.2174  0.3281
  979MOL0     C35025  10.385   1.997  10.759 -0.1646 -0.1899  0.2695
  979MOL0     C35026  10.429   2.019  10.613  0.1784 -0.4954 -1.0211
  979MOL0     C35027  10.423   1.903  10.511 -0.2093  0.3622  0.3626
  979MOL0     C35028  10.515   1.788  10.529  0.2702 -0.2545 -0.5032
  979MOL0     C35029  10.590   1.696  10.522  0.0798 -0.3048  0.5247
  979MOL0     C35030   9.937   2.095  10.630 -0.4398 -0.2504  0.5506
  979MOL0     C35031   9.810   2.146  10.651  0.7301  0.1482  0.1774
  979MOL0     C35032   9.730   2.174  10.524  0.0753  0.2198  0.3266
  979MOL0     H35033   9.468   2.353  11.136 -0.2033 -0.2126  0.3949
  979MOL0     H35034   9.330   2.545  11.181 -1.5562 -0.5502  0.3494
  979MOL0     H35035   9.349   2.782  11.148 -0.1155 -0.7466  0.0130
  979MOL0     H35036   9.209   2.881  11.105  0.3476  0.1907  2.6913
  979MOL0     H35037   9.428   2.839  10.909  0.7545  1.0967  0.2740
  979MOL0     H35038   9.292   2.967  10.924  0.1560 -0.0573 -1.2723
  979MOL0     H35039   9.488   3.087  10.983 -1.9134  0.0388 -0.9844
  979MOL0     H35040   9.439   3.033  11.144  1.1105  1.1992 -0.3709
  979MOL0     H35041   9.581   2.829  11.116  1.8762 -0.3171  1.1845
  979MOL0     H35042   9.627   2.875  10.956 -1.0615 -0.3449 -0.2260
  979MOL0     H35043   9.809   2.908  11.120  0.4649  0.9207  1.1408
  979MOL0     H35044   9.708   3.025  11.211  1.5144 -0.9550  1.6911
  979MOL0     H35045   9.774   3.059  10.914 -2.0101  1.1629  0.1143
  979MOL0     H35046   9.707   3.179  11.027 -0.1665 -0.7938 -1.4042
  979MOL0     H35047   9.991   3.044  11.077  1.9714  0.6502 -0.4353
  979MOL0     H35048   9.905   3.168  11.164 -0.4536  2.5999 -0.7785
  979MOL0     H35049  10.082   3.272  11.036  0.2153 -3.6698  1.8863
  979MOL0     H35050  10.025   3.194  10.889 -2.6769 -2.0914 -0.7224
  979MOL0     H35051   9.870   3.442  11.147 -0.1099 -0.9007 -0.3962
  979MOL0     H35052   9.688   3.653  11.111 -0.2300  0.5138  0.3333
  979MOL0     H35053   9.570   3.529  11.109  0.0855 -1.0094  0.1000
  979MOL0     H35054   9.491   3.596  10.880  1.9290 -0.8601 -1.0981
  979MOL0     H35055   9.498   3.743  10.995  0.4204 -0.3346  0.5440
  979MOL0     H35056   9.644   3.868  10.891  2.6092 -0.5392  0.0520
  979MOL0     H35057   9.710   3.728  10.812 -1.2837  0.5118 -1.0908
  979MOL0     H35058   9.550   3.910  10.681 -0.3561  1.0874  1.2254
  979MOL0     H35059   9.551   3.740  10.638  1.5871  0.1455  1.1762
  979MOL0     H35060   9.450   4.066  10.776  1.7602 -0.9218  1.0609
  979MOL0     H35061   9.254   4.348  10.918  0.2259 -1.6502  1.8542
  979MOL0     H35062   9.325   4.304  10.764 -1.8732  1.1245 -0.4877
  979MOL0     H35063   9.423   4.281  10.903 -0.1512  3.1698  0.1181
  979MOL0     H35064   9.133   4.549  11.124  1.1675 -2.6111  0.2144
  979MOL0     H35065   8.978   4.726  11.171 -1.2797  0.4767  0.7896
  979MOL0     H35066   8.791   4.885  11.258  0.4581 -2.0026  1.7983
  979MOL0     H35067   8.781   4.844  11.079 -3.9398 -3.0829 -2.3129
  979MOL0     H35068   8.544   4.890  11.246 -0.3972 -0.8442  0.6377
  979MOL0     H35069   8.609   4.971  11.107  0.4611  0.7861  2.6936
  979MOL0     H35070   8.465   4.716  11.123  0.7339 -0.2690  0.3213
  979MOL0     H35071   8.576   4.726  10.991 -0.4906 -2.5443  1.2646
  979MOL0     H35072   8.459   4.957  10.921 -2.5359  0.1420 -3.4952
  979MOL0     H35073   8.338   4.915  11.049  1.4734  4.1171 -1.5250
  979MOL0     H35074   8.344   4.844  10.785  0.0661  3.0862  1.1449
  979MOL0     H35075   8.384   4.699  10.878  1.1774  0.4313 -1.3269
  979MOL0     H35076   8.120   4.851  10.929  0.7076  0.5207  0.4200
  979MOL0     H35077   8.178   4.714  11.004  0.8386 -0.0128  0.2649
  979MOL0     H35078   8.195   4.586  10.786  1.4171  0.5611  1.5060
  979MOL0     H35079   8.101   4.707  10.704  0.9932 -2.1653 -0.9676
  979MOL0     H35080   7.916   4.688  10.812 -1.1603 -1.8344 -2.8420
  979MOL0     H35081   7.987   4.600  10.948  0.1263 -2.4560 -0.5476
  979MOL0     H35082   8.651   4.458  11.145  0.7079 -2.7576  2.5434
  979MOL0     H35083   8.791   4.277  11.090 -0.8161 -0.5491 -0.1357
  979MOL0     H35084   9.016   3.932  10.980 -1.0280  0.6772 -1.0769
  979MOL0     H35085   9.170   3.760  10.878 -3.8054  0.2881 -1.6069
  979MOL0     H35086   9.306   2.583  10.747  2.5875 -0.7512 -1.6992
  979MOL0     H35087   9.492   2.418  10.719  0.3114  0.5176  0.5664
  979MOL0     H35088   9.771   2.091  10.984 -0.4359  2.1699 -1.5269
  979MOL0     H35089   9.997   2.000  10.955 -0.0007  2.0830  1.7654
  979MOL0     H35090  10.242   2.153  10.786 -1.2127  0.4834  2.3352
  979MOL0     H35091  10.226   2.027  10.905  1.2098  0.3931  0.6321
  979MOL0     H35092  10.398   1.890  10.782  1.9508  0.3994  2.3558
  979MOL0     H35093  10.453   2.049  10.827 -1.8375  0.7651  1.2715
  979MOL0     H35094  10.366   2.105  10.591  0.9470  1.3576  3.1008
  979MOL0     H35095  10.527   2.068  10.605 -1.1092  2.3714 -0.3788
  979MOL0     H35096  10.445   1.948  10.413  3.2106 -1.7719 -0.0261
  979MOL0     H35097  10.321   1.865  10.506 -0.4987  0.8825  1.7636
  979MOL0     H35098  10.653   1.610  10.533 -2.5291 -2.3551  0.4840
  979MOL0     H35099   9.976   2.080  10.530 -2.9622 -1.0371 -0.4047
  979MOL0     H35100   9.787   2.174  10.431  2.1033  2.7095  1.4470
  979MOL0     H35101   9.646   2.105  10.510 -0.0475  0.3476  0.4332
  979MOL0     H35102   9.689   2.275  10.520  3.6387  1.7746 -0.2920
  980MOL0     O35103   1.399   1.045   1.832  0.2866 -0.8810 -0.1684
  980MOL0     C35104   1.387   1.021   1.716  0.8429  0.1052 -0.5448
  980MOL0     O35105   1.306   1.096   1.627  0.3523 -0.0102  0.0276
  980MOL0     C35106   1.234   1.198   1.677 -0.5258  0.1438 -0.0728
  980MOL0     C35107   1.252   1.320   1.622  0.2380  0.8792  0.4588
  980MOL0     C35108   1.180   1.439   1.654 -0.3633 -0.0055 -0.8091
  980MOL0     C35109   1.095   1.430   1.769  0.0923 -0.0328 -0.5657
  980MOL0     O35110   1.032   1.537   1.824  0.1613 -0.5121 -0.5615
  980MOL0     C35111   1.022   1.650   1.742 -0.4406 -0.0783 -0.1070
  980MOL0     C35112   0.937   1.770   1.804 -0.2233 -0.5125 -0.4956
  980MOL0     C35113   0.943   1.915   1.742 -0.7054 -0.5271  0.3808
  980MOL0     C35114   0.949   1.899   1.596  0.1025 -0.0636 -0.2092
  980MOL0     C35115   1.004   2.029   1.530 -0.0697 -0.5329 -0.5243
  980MOL0     C35116   1.007   2.046   1.376  0.3029  0.5974 -0.5965
  980MOL0     C35117   1.084   1.951   1.282 -0.4799 -0.5752 -0.8232
  980MOL0     C35118   1.217   1.896   1.335  0.4461  0.8763 -1.1236
  980MOL0     N35119   1.285   1.788   1.270 -1.0655  0.1605 -0.7447
  980MOL0     C35120   1.219   1.675   1.222  0.2203 -1.0399 -0.4994
  980MOL0     C35121   1.319   1.585   1.206 -0.9699  0.0372  0.2848
  980MOL0     C35122   1.314   1.454   1.135 -0.3531  0.9050 -0.5286
  980MOL0     C35123   1.228   1.350   1.214 -0.1543  0.6069  0.4003
  980MOL0     C35124   1.084   1.349   1.147 -0.9004 -0.9698 -0.4231
  980MOL0     C35125   0.996   1.240   1.213  0.6451  0.3035  0.4125
  980MOL0     O35126   1.019   1.116   1.138 -0.4231 -0.0708 -0.2851
  980MOL0     C35127   1.046   1.004   1.213  1.1101 -0.0046 -0.4395
  980MOL0     C35128   1.009   0.969   1.346 -0.1867 -0.3407  0.4269
  980MOL0     C35129   1.012   0.838   1.394  0.2787 -0.4085  0.3058
  980MOL0     C35130   0.954   0.823   1.536  0.8122 -0.0342  0.4435
  980MOL0     C35131   1.082   0.747   1.319  0.5161  1.0452 -0.4594
  980MOL0     C35132   1.089   0.600   1.356  0.3819 -0.6709 -0.0120
  980MOL0     O35133   0.972   0.533   1.354 -0.2156  0.5224  0.0107
  980MOL0     C35134   0.986   0.405   1.392 -0.5823  0.2569 -0.7992
  980MOL0     C35135   0.983   0.310   1.299 -0.0860  0.2628  0.6429
  980MOL0     C35136   1.011   0.175   1.328  1.0240  0.2413  0.1629
  980MOL0     C35137   1.053   0.144   1.456 -0.6605 -0.4860  0.1277
  980MOL0     O35138   1.095   0.017   1.497 -0.0587 -0.6042  0.2929
  980MOL0     C35139   1.095  -0.093   1.398  0.0751  0.4221 -0.3666
  980MOL0     C35140   1.157  -0.203   1.467  0.3925  0.3081  1.2682
  980MOL0     C35141   1.306  -0.185   1.488  0.3447 -0.3116  0.4794
  980MOL0     C35142   1.358  -0.272   1.595 -0.0545  0.3927  0.6398
  980MOL0     C35143   1.509  -0.271   1.619  0.6681 -0.3328 -0.4141
  980MOL0     C35144   1.555  -0.350   1.738  0.0995  0.3847 -0.8237
  980MOL0     C35145   1.707  -0.360   1.757  0.2550 -0.3269 -0.0913
  980MOL0     C35146   1.742  -0.431   1.891  0.1406 -0.6472  0.5388
  980MOL0    Cl35147   1.725  -0.295   2.021 -0.4954 -0.0163  0.0295
  980MOL0     C35148   1.025   0.236   1.553 -0.1817 -0.7705 -0.8963
  980MOL0     C35149   0.995   0.369   1.523  0.1206  0.5437 -0.7678
  980MOL0     O35150   1.200   0.560   1.393 -0.6854 -0.0692 -0.5434
  980MOL0     C35151   1.125   0.777   1.188  0.1680  0.3053  0.2012
  980MOL0     C35152   1.101   0.904   1.135 -0.0238  0.6537  0.3870
  980MOL0     N35153   1.447   1.643   1.242  0.1621 -0.1814 -0.7937
  980MOL0     N35154   1.420   1.772   1.275  0.2150  1.0317 -0.9624
  980MOL0     C35155   1.074   1.307   1.825  0.0075 -0.1675  0.2483
  980MOL0     C35156   1.139   1.195   1.786 -0.7551  0.3924 -0.0911
  980MOL0     C35157   1.463   0.909   1.656 -0.2774 -0.4949 -0.3818
  980MOL0     C35158   1.413   0.837   1.552  0.8483 -1.1397 -0.1756
  980MOL0     C35159   1.479   0.741   1.486 -1.3446  0.0905  0.5251
  980MOL0     C35160   1.608   0.705   1.527 -0.4183  0.4661 -0.0943
  980MOL0     O35161   1.686   0.597   1.482  0.2152  0.2476 -0.5644
  980MOL0     C35162   1.664   0.546   1.350 -0.4333 -0.5503 -0.5087
  980MOL0     C35163   1.773   0.446   1.310  0.1272  0.3385 -0.2277
  980MOL0     C35164   1.802   0.454   1.153  0.0527 -0.5530  0.0594
  980MOL0     C35165   1.670   0.424   1.089 -0.7791  0.1569  1.1899
  980MOL0     C35166   1.691   0.409   0.945 -0.1189  0.0419 -0.4476
  980MOL0     C35167   1.682   0.406   0.830  0.2674 -0.5292  1.3570
  980MOL0     C35168   1.659   0.770   1.637 -1.1097 -0.4784 -0.0959
  980MOL0     C35169   1.593   0.876   1.700 -0.2036 -0.3239 -0.3918
  980MOL0     C35170   1.676   0.956   1.804  0.3634  0.7252 -0.8649
  980MOL0     H35171   1.335   1.318   1.553  1.4320 -2.3901  1.8162
  980MOL0     H35172   1.209   1.528   1.599 -0.2507  2.3307  2.7138
  980MOL0     H35173   0.980   1.609   1.650 -2.0969 -1.5968  1.2255
  980MOL0     H35174   1.125   1.686   1.732 -0.1249 -0.4148  1.4954
  980MOL0     H35175   0.831   1.749   1.817 -0.3899  0.4217 -0.2225
  980MOL0     H35176   0.971   1.783   1.908 -2.7138  2.6244  0.0731
  980MOL0     H35177   0.849   1.961   1.773  0.3725  0.4673  2.4395
  980MOL0     H35178   1.028   1.973   1.781 -1.6537 -0.6076  2.7114
  980MOL0     H35179   1.023   1.823   1.571  2.0293  1.6300  0.1519
  980MOL0     H35180   0.842   1.876   1.586 -0.4805  0.4829  3.2330
  980MOL0     H35181   1.098   2.059   1.578 -0.6300 -0.9583  0.8793
  980MOL0     H35182   0.942   2.114   1.559 -2.0769 -0.8449 -3.4757
  980MOL0     H35183   0.903   2.035   1.344 -0.0433  2.0800 -0.0369
  980MOL0     H35184   1.029   2.148   1.343  0.7794  0.9641  0.8149
  980MOL0     H35185   1.097   1.997   1.184 -1.3092 -3.1840 -2.2557
  980MOL0     H35186   1.014   1.867   1.270 -3.6977  1.9034 -0.6875
  980MOL0     H35187   1.285   1.979   1.357 -0.4495  1.2594  0.3230
  980MOL0     H35188   1.184   1.856   1.431 -1.2574 -3.1940 -3.1416
  980MOL0     H35189   1.112   1.659   1.214 -0.0260  0.8072 -1.2344
  980MOL0     H35190   1.417   1.417   1.127 -0.3205  0.3401  1.7115
  980MOL0     H35191   1.278   1.456   1.032  3.0250  0.7316 -1.8377
  980MOL0     H35192   1.282   1.258   1.191  2.5255  2.1519  0.0910
  980MOL0     H35193   1.228   1.366   1.322  1.1215  1.2071  0.3331
  980MOL0     H35194   1.049   1.450   1.172  0.4435 -0.9441  1.5931
  980MOL0     H35195   1.086   1.356   1.038  2.0462  2.5339 -0.3608
  980MOL0     H35196   1.025   1.233   1.318 -1.4567  0.1422  1.0296
  980MOL0     H35197   0.892   1.269   1.197  0.2488 -1.3935 -0.2340
  980MOL0     H35198   0.957   1.037   1.413 -0.9769 -0.7917  0.2808
  980MOL0     H35199   1.046   0.794   1.588  0.8722 -1.0622 -0.2171
  980MOL0     H35200   0.876   0.746   1.533 -0.7089  1.4800 -2.1138
  980MOL0     H35201   0.907   0.910   1.583 -2.9798 -1.9222  0.5490
  980MOL0     H35202   0.980   0.337   1.194  2.3876 -1.4329  0.0570
  980MOL0     H35203   1.022   0.104   1.247 -0.8820  0.2303 -0.1368
  980MOL0     H35204   0.991  -0.114   1.373  0.1338  0.3294 -0.5381
  980MOL0     H35205   1.150  -0.057   1.311 -0.0655  0.9960 -0.2189
  980MOL0     H35206   1.113  -0.228   1.564  1.0076 -3.6619  0.6749
  980MOL0     H35207   1.144  -0.290   1.402  1.2637  1.7087 -0.8941
  980MOL0     H35208   1.320  -0.081   1.520  0.8761  0.4935 -2.1771
  980MOL0     H35209   1.354  -0.199   1.391 -1.8603  1.1692 -0.8998
  980MOL0     H35210   1.332  -0.367   1.547  0.1846  0.7357 -0.1882
  980MOL0     H35211   1.315  -0.267   1.696  0.3795 -0.3720  0.8689
  980MOL0     H35212   1.556  -0.299   1.524  1.2238  0.8911 -0.5179
  980MOL0     H35213   1.529  -0.164   1.630  2.1858 -0.5916 -0.5443
  980MOL0     H35214   1.512  -0.449   1.722 -2.2864  1.1093  0.6542
  980MOL0     H35215   1.508  -0.309   1.828 -3.4859 -1.7761 -1.5060
  980MOL0     H35216   1.742  -0.256   1.757 -0.2656 -0.1504  0.3243
  980MOL0     H35217   1.771  -0.410   1.684  4.0339  1.6767  1.5440
  980MOL0     H35218   1.842  -0.469   1.866  0.1974  1.5077 -3.3736
  980MOL0     H35219   1.676  -0.516   1.910  1.5741 -1.4580  2.2130
  980MOL0     H35220   1.042   0.212   1.657 -0.3693  2.5304  0.0298
  980MOL0     H35221   0.993   0.443   1.602  1.1750 -2.7783  2.6416
  980MOL0     H35222   1.165   0.697   1.126 -3.9408 -2.0580  0.2481
  980MOL0     H35223   1.141   0.925   1.037  2.5046  0.4106  1.3083
  980MOL0     H35224   1.020   1.288   1.917  1.9999 -0.5121  1.4007
  980MOL0     H35225   1.136   1.100   1.840  0.7408 -0.8870 -2.0995
  980MOL0     H35226   1.315   0.874   1.523 -0.0487 -4.0013 -1.1285
  980MOL0     H35227   1.434   0.692   1.400 -2.3727 -3.2474  2.7634
  980MOL0     H35228   1.561   0.510   1.344 -1.1836  1.1795  0.9343
  980MOL0     H35229   1.672   0.631   1.282 -2.0144  0.6760  0.7469
  980MOL0     H35230   1.734   0.347   1.336 -0.8423  0.9851  0.8394
  980MOL0     H35231   1.869   0.462   1.360  1.5002 -0.1665 -2.5422
  980MOL0     H35232   1.829   0.554   1.119 -1.7648 -1.1200 -3.5334
  980MOL0     H35233   1.879   0.382   1.123  1.5245  2.0349 -2.9465
  980MOL0     H35234   1.600   0.506   1.109  0.8138  1.6452  0.9585
  980MOL0     H35235   1.620   0.331   1.119  0.4396 -1.9967 -2.7880
  980MOL0     H35236   1.693   0.410   0.724 -2.2963 -3.2323  0.8533
  980MOL0     H35237   1.762   0.753   1.667 -0.9468 -0.1790 -0.4865
  980MOL0     H35238   1.700   1.057   1.770 -0.2718  1.5239  0.9188
  980MOL0     H35239   1.612   0.969   1.892 -0.1869 -0.1679 -1.1126
  980MOL0     H35240   1.765   0.902   1.835 -0.4316  1.8713  4.3771
  981MOL0     O35241   0.755  10.271   9.071  0.5152 -0.2665  0.5635
  981MOL0     C35242   0.666  10.193   9.035  0.6622 -0.3168  0.6868
  981MOL0     O35243   0.679  10.069   9.019 -0.8336  0.0037  0.3044
  981MOL0     C35244   0.762  10.003   9.102 -0.4109 -0.1984 -0.6109
  981MOL0     C35245   0.823   9.896   9.037 -0.6882 -0.1306  1.3172
  981MOL0     C35246   0.910   9.814   9.107  0.1013 -0.5022  0.1468
  981MOL0     C35247   0.926   9.830   9.253  0.2676  0.2070  0.2019
  981MOL0     O35248   1.006   9.764   9.341  0.1765 -0.7229 -0.3921
  981MOL0     C35249   1.033   9.627   9.316  0.0491 -0.7795 -0.0081
  981MOL0     C35250   0.981   9.534   9.430  0.9089 -0.9315  0.3174
  981MOL0     C35251   0.840   9.562   9.466  0.4739  0.5180  0.7403
  981MOL0     C35252   0.747   9.549   9.355  0.2075 -0.2409 -0.4440
  981MOL0     C35253   0.594   9.548   9.388  0.0316  1.6738 -0.2404
  981MOL0     C35254   0.544   9.679   9.429 -0.2549 -0.9242  0.4714
  981MOL0     C35255   0.408   9.672   9.503 -0.6428  0.4276 -0.7397
  981MOL0     C35256   0.352   9.813   9.524 -0.7562 -0.3207 -0.3741
  981MOL0     N35257   0.452   9.916   9.558 -0.9533 -0.0267  0.6519
  981MOL0     C35258   0.484   9.950   9.686  0.0702  0.2606  0.4390
  981MOL0     C35259   0.558  10.065   9.672 -0.6006 -0.0819  0.3265
  981MOL0     C35260   0.630  10.128   9.787  0.4170 -0.2193  0.4211
  981MOL0     C35261   0.546  10.232   9.881 -0.4274  0.7274  0.1218
  981MOL0     C35262   0.621  10.248  10.019  0.6180  0.1949  0.1219
  981MOL0     C35263   0.555  10.335  10.129 -0.1493 -0.3600 -0.2206
  981MOL0     O35264   0.413  10.335  10.112  0.2271 -0.0898  0.3985
  981MOL0     C35265   0.342  10.400  10.204 -0.4026 -0.6386 -1.0872
  981MOL0     C35266   0.199  10.387  10.196 -0.0012  0.4186 -0.2718
  981MOL0     C35267   0.122  10.429  10.304 -0.1495 -0.7399 -0.2354
  981MOL0     C35268  -0.029  10.413  10.295  0.2623 -0.3214  0.4200
  981MOL0     C35269   0.186  10.484  10.419 -0.1119 -0.8330  0.3017
  981MOL0     C35270   0.111  10.520  10.541  1.1477 -0.3203  0.3150
  981MOL0     O35271   0.006  10.611  10.519  0.5341 -0.1053 -0.4323
  981MOL0     C35272  -0.080  10.626  10.622  0.2095  0.5336 -0.1639
  981MOL0     C35273  -0.102  10.758  10.669 -0.1048  0.4727 -0.4339
  981MOL0     C35274  -0.206  10.778  10.758  0.0689 -0.2038  0.0476
  981MOL0     C35275  -0.287  10.677  10.810 -0.0411  0.8541 -0.4986
  981MOL0     O35276  -0.358  10.716  10.928  0.1660  0.0928 -0.4517
  981MOL0     C35277  -0.466  10.627  10.969  0.0449 -0.3189  0.4980
  981MOL0     C35278  -0.431  10.549  11.098  0.6626 -0.7412  0.2927
  981MOL0     C35279  -0.560  10.503  11.154 -0.5260  0.6506 -0.3016
  981MOL0     C35280  -0.529  10.413  11.276 -0.4172 -0.5504 -0.2684
  981MOL0     C35281  -0.650  10.374  11.348  0.4112  0.9708 -0.2446
  981MOL0     C35282  -0.742  10.272  11.271 -0.3369 -0.9389 -0.4808
  981MOL0     C35283  -0.675  10.135  11.236 -0.2114  0.1271  0.2551
  981MOL0     C35284  -0.655  10.042  11.347 -0.6843  0.8196 -0.5031
  981MOL0    Cl35285  -0.818   9.992  11.422 -0.2340 -0.2260  0.0031
  981MOL0     C35286  -0.264  10.547  10.758 -0.1305  0.0423 -1.0229
  981MOL0     C35287  -0.172  10.522  10.660 -0.7632 -0.5331 -0.3851
  981MOL0     O35288   0.146  10.481  10.653 -1.6466  0.5301  0.0977
  981MOL0     C35289   0.323  10.529  10.412 -0.1692  0.4672  0.0233
  981MOL0     C35290   0.403  10.483  10.312 -0.0133 -0.1147 -0.4809
  981MOL0     N35291   0.580  10.089   9.536  1.0401 -0.4468  0.2623
  981MOL0     N35292   0.523   9.999   9.470  0.5125  0.3708 -0.8244
  981MOL0     C35293   0.858   9.939   9.316  0.4598  0.3083  0.1685
  981MOL0     C35294   0.778  10.026   9.238 -0.2229 -0.0397 -0.7407
  981MOL0     C35295   0.538  10.257   8.989 -0.2222 -0.2298  0.4216
  981MOL0     C35296   0.533  10.325   8.863  0.2458  0.2612 -1.1803
  981MOL0     C35297   0.408  10.365   8.816 -0.6380  0.3558 -0.5253
  981MOL0     C35298   0.289  10.358   8.888 -0.1727  0.8513  0.6384
  981MOL0     O35299   0.169  10.407   8.843  0.2313  0.2927  0.0361
  981MOL0     C35300   0.181  10.534   8.769  0.0070  0.2836 -0.6234
  981MOL0     C35301   0.053  10.618   8.807 -0.4883 -0.4339 -0.7844
  981MOL0     C35302   0.048  10.729   8.712  0.4384 -0.0053  0.7075
  981MOL0     C35303  -0.090  10.806   8.731 -0.3891  0.8145 -1.0056
  981MOL0     C35304  -0.103  10.929   8.653  0.1491  0.5389  0.6980
  981MOL0     C35305  -0.131  11.024   8.581 -0.3981  0.8024  0.3966
  981MOL0     C35306   0.295  10.282   9.005 -0.4153 -0.3319 -0.4529
  981MOL0     C35307   0.414  10.231   9.056  0.2128 -0.4562 -0.8194
  981MOL0     C35308   0.413  10.150   9.189 -0.1264  0.0291 -0.0192
  981MOL0     H35309   0.808   9.876   8.932 -0.0594  1.9159  0.7875
  981MOL0     H35310   0.959   9.729   9.060 -0.5360 -0.7168 -0.1443
  981MOL0     H35311   1.139   9.602   9.304 -0.1790 -1.2744 -1.1280
  981MOL0     H35312   0.988   9.597   9.222  0.2844 -1.3224  0.0475
  981MOL0     H35313   0.995   9.430   9.399 -2.4685 -0.5642 -3.3581
  981MOL0     H35314   1.047   9.566   9.511  2.7166  0.7050 -1.6748
  981MOL0     H35315   0.811   9.490   9.543  2.9921 -1.8665 -0.3733
  981MOL0     H35316   0.833   9.659   9.517  0.8245  0.7621  0.3311
  981MOL0     H35317   0.762   9.638   9.294  4.3345 -1.6124 -1.7236
  981MOL0     H35318   0.765   9.463   9.290  1.6104 -0.3784  0.0961
  981MOL0     H35319   0.582   9.477   9.470 -0.3965  0.5811 -1.2290
  981MOL0     H35320   0.524   9.515   9.311 -0.6048 -1.0685  1.3669
  981MOL0     H35321   0.627   9.712   9.492 -0.0200  0.7837 -0.6628
  981MOL0     H35322   0.545   9.743   9.340 -1.7585 -1.2476  0.1822
  981MOL0     H35323   0.428   9.643   9.607 -3.4059 -1.2988 -0.6040
  981MOL0     H35324   0.332   9.601   9.471 -0.0713 -1.3772  1.6458
  981MOL0     H35325   0.305   9.834   9.428  0.5883  0.7484 -0.8263
  981MOL0     H35326   0.275   9.797   9.600 -2.1040 -0.9722 -1.8473
  981MOL0     H35327   0.464   9.898   9.779  1.5925 -4.7016 -1.6495
  981MOL0     H35328   0.721  10.172   9.744  0.8703 -1.4504  0.0894
  981MOL0     H35329   0.666  10.046   9.849 -0.7567 -0.1684  1.2067
  981MOL0     H35330   0.544  10.330   9.831  1.9470 -0.7296 -3.1967
  981MOL0     H35331   0.442  10.200   9.893  0.3650 -1.3795  1.9187
  981MOL0     H35332   0.627  10.145  10.056 -2.3928  1.5064  5.2065
  981MOL0     H35333   0.720  10.287   9.994  0.2867 -0.0895 -1.7787
  981MOL0     H35334   0.585  10.294  10.226  0.8127 -1.1968 -0.8523
  981MOL0     H35335   0.599  10.435  10.125 -0.5387 -0.2155 -1.2871
  981MOL0     H35336   0.154  10.339  10.110  1.2343 -1.4923  0.0825
  981MOL0     H35337  -0.072  10.360  10.380  1.2352  0.9399  1.7585
  981MOL0     H35338  -0.052  10.369  10.197  0.9982  2.2567 -1.0197
  981MOL0     H35339  -0.077  10.511  10.286 -1.1701 -0.6525  3.3859
  981MOL0     H35340  -0.035  10.833  10.630  0.2330  0.0096 -0.7588
  981MOL0     H35341  -0.228  10.879  10.790 -0.9776 -0.7829  1.2698
  981MOL0     H35342  -0.554  10.686  10.995 -1.2209 -1.2572 -1.4870
  981MOL0     H35343  -0.506  10.560  10.893 -2.5230 -0.9390  2.2796
  981MOL0     H35344  -0.362  10.465  11.086 -0.8734 -2.0146 -0.0240
  981MOL0     H35345  -0.384  10.624  11.163 -0.6888  0.6962 -0.3216
  981MOL0     H35346  -0.604  10.443  11.074 -2.3082  2.3969 -0.7080
  981MOL0     H35347  -0.634  10.578  11.185  2.4748  2.6982  2.5353
  981MOL0     H35348  -0.459  10.462  11.346 -1.0645  0.1317 -0.0868
  981MOL0     H35349  -0.477  10.325  11.236  0.4450  0.2406 -0.9507
  981MOL0     H35350  -0.623  10.326  11.443  0.7774 -2.8394 -2.0970
  981MOL0     H35351  -0.714  10.457  11.381  0.4289  1.4988 -1.4860
  981MOL0     H35352  -0.782  10.318  11.180  0.2569  0.6636  0.0283
  981MOL0     H35353  -0.829  10.256  11.336  0.7248  0.2067  1.3011
  981MOL0     H35354  -0.576  10.138  11.189 -0.1371 -0.8225  0.3151
  981MOL0     H35355  -0.730  10.067  11.170  0.9653 -1.5674  0.9395
  981MOL0     H35356  -0.596  10.078  11.432 -1.9111  0.1705  0.6469
  981MOL0     H35357  -0.608   9.948  11.315  3.1288  2.6182 -0.7150
  981MOL0     H35358  -0.327  10.463  10.786 -0.0597  0.0867 -0.7285
  981MOL0     H35359  -0.156  10.424  10.617  0.2548 -0.6980  0.3393
  981MOL0     H35360   0.361  10.584  10.498 -1.1266  2.7843 -0.9520
  981MOL0     H35361   0.510  10.500  10.320 -0.0333 -0.0586 -0.3184
  981MOL0     H35362   0.858   9.951   9.424 -0.3068  0.6349  0.1431
  981MOL0     H35363   0.700  10.090   9.279 -3.6043 -3.6113 -1.0888
  981MOL0     H35364   0.625  10.330   8.806 -1.4187 -2.0822 -4.3618
  981MOL0     H35365   0.400  10.403   8.715 -1.5679 -0.1920 -0.6787
  981MOL0     H35366   0.280  10.575   8.789 -0.9294  0.9939  3.4040
  981MOL0     H35367   0.170  10.507   8.663 -0.7247 -0.2385 -0.4286
  981MOL0     H35368   0.074  10.661   8.906 -0.3344 -0.9238 -0.6039
  981MOL0     H35369  -0.035  10.554   8.812 -2.6438  2.4083  1.7242
  981MOL0     H35370   0.141  10.786   8.721  0.8375 -0.0607 -2.1704
  981MOL0     H35371   0.046  10.692   8.609  1.8152 -1.6612  1.2404
  981MOL0     H35372  -0.098  10.815   8.840  0.9579  0.0095 -0.8127
  981MOL0     H35373  -0.175  10.744   8.700  0.9504 -2.0155  0.5457
  981MOL0     H35374  -0.166  11.115   8.536 -1.1913 -0.3282 -1.3445
  981MOL0     H35375   0.200  10.267   9.055 -1.0480  2.4033 -0.6869
  981MOL0     H35376   0.310  10.141   9.225 -0.4457  2.8226 -0.0443
  981MOL0     H35377   0.454  10.053   9.160  0.7541  0.7327 -1.1990
  981MOL0     H35378   0.472  10.210   9.260  1.9314 -0.3551 -1.3349
  982MOL0     O35379   9.010   7.836   0.402 -0.2946  0.2113  0.9909
  982MOL0     C35380   9.058   7.775   0.310 -0.2020  0.3420 -0.0798
  982MOL0     O35381   9.119   7.833   0.204  0.0056  0.5750  0.7235
  982MOL0     C35382   9.090   7.961   0.174 -0.0363  1.0960  1.1917
  982MOL0     C35383   9.191   8.048   0.138 -0.4558 -0.3791 -0.4310
  982MOL0     C35384   9.180   8.174   0.090  0.5830  0.1936 -0.1196
  982MOL0     C35385   9.043   8.230   0.085 -0.4390  0.1557  0.6157
  982MOL0     O35386   9.035   8.357   0.025 -0.5792 -0.0600 -0.7197
  982MOL0     C35387   8.916   8.395  -0.035 -0.4253  0.2744 -0.1546
  982MOL0     C35388   8.941   8.529  -0.096  0.6099  0.1173  1.2001
  982MOL0     C35389   9.057   8.531  -0.191 -0.4333  1.1906  0.2292
  982MOL0     C35390   9.078   8.674  -0.231 -0.1209 -0.2822  0.9963
  982MOL0     C35391   9.152   8.684  -0.371  0.0190 -0.0203  0.8021
  982MOL0     C35392   9.220   8.819  -0.406  0.1962 -0.0911  0.2712
  982MOL0     C35393   9.260   8.846  -0.556 -0.9118  0.2883  0.1439
  982MOL0     C35394   9.405   8.906  -0.574 -0.3994  0.0416 -0.4192
  982MOL0     N35395   9.421   8.950  -0.715  0.6442 -0.6311 -0.3532
  982MOL0     C35396   9.461   8.867  -0.816  0.9393 -0.2186  0.1904
  982MOL0     C35397   9.463   8.940  -0.931  0.3475 -0.3750 -0.4449
  982MOL0     C35398   9.509   8.876  -1.057  0.3561 -0.2461 -0.0240
  982MOL0     C35399   9.656   8.853  -1.069 -1.7798  0.4045  0.3022
  982MOL0     C35400   9.719   8.993  -1.110 -0.1373  1.2397  0.1777
  982MOL0     C35401   9.871   8.981  -1.111  0.2925  0.2278 -0.0206
  982MOL0     O35402   9.915   9.112  -1.135  0.4615 -0.3347  0.0765
  982MOL0     C35403  10.008   9.134  -1.227 -0.1309 -0.0954 -0.3074
  982MOL0     C35404  10.103   9.033  -1.269 -0.0108 -0.4856 -0.1000
  982MOL0     C35405  10.195   9.053  -1.374 -0.3888  0.6629 -0.0153
  982MOL0     C35406  10.281   8.939  -1.411  0.0885  0.1415  0.2118
  982MOL0     C35407  10.204   9.185  -1.429  0.6002 -0.9964  0.4643
  982MOL0     C35408  10.309   9.221  -1.527  0.6417 -0.0479  0.8326
  982MOL0     O35409  10.254   9.286  -1.639 -0.1792 -0.7386  0.4541
  982MOL0     C35410  10.343   9.324  -1.747  0.2884  0.0346  0.3362
  982MOL0     C35411  10.447   9.246  -1.792 -0.0981  0.3751 -0.1822
  982MOL0     C35412  10.532   9.294  -1.892 -0.7809  0.1904  0.1803
  982MOL0     C35413  10.513   9.408  -1.965  0.5367  0.1894 -0.3278
  982MOL0     O35414  10.609   9.464  -2.050  0.4471 -0.3936 -0.7117
  982MOL0     C35415  10.565   9.567  -2.142 -0.2035  0.1782 -0.7426
  982MOL0     C35416  10.660   9.561  -2.261  0.4686  0.1239  0.7894
  982MOL0     C35417  10.758   9.681  -2.270  0.3438 -0.0554 -0.6805
  982MOL0     C35418  10.886   9.665  -2.178 -0.0675 -0.2585 -0.1561
  982MOL0     C35419  10.859   9.713  -2.028 -0.2551 -0.6306 -0.2317
  982MOL0     C35420  10.982   9.727  -1.937  0.0186  0.0692  0.2387
  982MOL0     C35421  11.089   9.817  -1.992 -0.6438 -0.4375 -0.2082
  982MOL0     C35422  11.057   9.958  -2.045 -0.0601 -0.4954 -0.1111
  982MOL0    Cl35423  10.953  10.049  -1.931  0.4681 -0.3058 -0.2231
  982MOL0     C35424  10.404   9.483  -1.921 -0.1260  0.4777 -0.3983
  982MOL0     C35425  10.325   9.448  -1.805 -0.3092 -0.6324 -0.1287
  982MOL0     O35426  10.425   9.181  -1.507  0.1268 -0.1075 -0.3021
  982MOL0     C35427  10.113   9.284  -1.385  1.2240 -0.1202 -0.4286
  982MOL0     C35428  10.007   9.261  -1.291  0.3933  0.9841  0.8239
  982MOL0     N35429   9.429   9.072  -0.894  0.2631  0.2858  0.5555
  982MOL0     N35430   9.396   9.073  -0.769 -0.2099  0.7411  0.2415
  982MOL0     C35431   8.939   8.147   0.122 -0.5133 -0.3684 -0.2003
  982MOL0     C35432   8.959   8.014   0.160 -0.3550  0.2676  0.4392
  982MOL0     C35433   9.047   7.624   0.318  0.5068  0.1678 -0.8968
  982MOL0     C35434   8.960   7.563   0.409 -1.2896  0.2430  0.4943
  982MOL0     C35435   8.956   7.423   0.428  0.6960  0.0728  0.0529
  982MOL0     C35436   9.037   7.338   0.358  0.1710  0.1037  1.1162
  982MOL0     O35437   9.045   7.197   0.378 -0.8914 -0.5156 -0.2412
  982MOL0     C35438   9.074   7.164   0.514 -0.3577 -0.0014  0.3350
  982MOL0     C35439   9.064   7.010   0.530  0.9605 -0.4074 -0.9574
  982MOL0     C35440   8.914   6.970   0.531  0.2725  0.2273 -0.3920
  982MOL0     C35441   8.853   6.911   0.658  0.0105  0.8847 -0.2318
  982MOL0     C35442   8.711   6.869   0.638 -0.1748  0.1852  0.0865
  982MOL0     C35443   8.591   6.844   0.617  0.0289 -0.0656  0.4314
  982MOL0     C35444   9.118   7.394   0.266 -0.2201  0.9274 -1.1673
  982MOL0     C35445   9.133   7.530   0.249 -0.0406  0.1956  0.4262
  982MOL0     C35446   9.229   7.563   0.133 -0.6102  0.5936 -0.9379
  982MOL0     H35447   9.286   7.997   0.134  0.1468  0.7960 -1.6326
  982MOL0     H35448   9.267   8.221   0.046 -0.0761 -0.1635 -1.8606
  982MOL0     H35449   8.836   8.408   0.039  0.4121  0.9551  0.6511
  982MOL0     H35450   8.882   8.313  -0.098 -0.4647  0.1925 -0.0272
  982MOL0     H35451   8.854   8.550  -0.160  2.4979 -1.9179 -2.3411
  982MOL0     H35452   8.951   8.608  -0.021  3.5920  0.5026  0.5261
  982MOL0     H35453   9.147   8.494  -0.143 -1.1762 -0.0183  0.7357
  982MOL0     H35454   9.056   8.473  -0.283  5.8950  1.6390 -0.5435
  982MOL0     H35455   8.978   8.715  -0.244 -0.4064 -0.3222  2.8069
  982MOL0     H35456   9.123   8.739  -0.155 -0.0497  1.8788 -0.8079
  982MOL0     H35457   9.093   8.639  -0.451  3.2915 -2.6341 -0.4127
  982MOL0     H35458   9.233   8.610  -0.376 -2.1998 -2.5772  0.5011
  982MOL0     H35459   9.154   8.902  -0.378  4.1742  3.2707  0.6355
  982MOL0     H35460   9.308   8.826  -0.342  1.4395 -0.1449 -1.3817
  982MOL0     H35461   9.190   8.916  -0.601  0.9197  2.2424  0.1546
  982MOL0     H35462   9.244   8.749  -0.604  0.6878  0.5335 -0.9533
  982MOL0     H35463   9.411   9.000  -0.519 -1.4713  1.5434 -2.7012
  982MOL0     H35464   9.481   8.833  -0.547 -0.8126 -0.0272  0.6087
  982MOL0     H35465   9.498   8.765  -0.822  2.1864  0.1733  0.8387
  982MOL0     H35466   9.462   8.935  -1.137 -0.5575 -0.4341  0.3563
  982MOL0     H35467   9.450   8.784  -1.063 -0.2037 -0.0065  1.3947
  982MOL0     H35468   9.701   8.827  -0.973  0.2657  2.9182  0.1500
  982MOL0     H35469   9.678   8.787  -1.153 -1.8315  2.9868 -1.8802
  982MOL0     H35470   9.671   9.014  -1.206 -1.3573 -2.1736 -0.0800
  982MOL0     H35471   9.688   9.065  -1.033  0.3605 -0.0997  1.6891
  982MOL0     H35472   9.898   8.947  -1.011  1.7309 -0.1721 -0.5235
  982MOL0     H35473   9.901   8.914  -1.193  0.3883 -0.3105  0.4523
  982MOL0     H35474  10.100   8.932  -1.227 -1.7651 -1.2535 -1.8961
  982MOL0     H35475  10.233   8.841  -1.400  1.5124 -0.9824 -2.4553
  982MOL0     H35476  10.379   8.945  -1.363 -1.3368  0.6405  3.3228
  982MOL0     H35477  10.292   8.925  -1.519 -1.8407  0.2792 -0.0374
  982MOL0     H35478  10.461   9.146  -1.753  3.9421 -0.3417 -2.8481
  982MOL0     H35479  10.610   9.230  -1.933 -0.5982 -1.7027  3.2000
  982MOL0     H35480  10.461   9.552  -2.171 -1.1264 -0.2023  2.4501
  982MOL0     H35481  10.582   9.667  -2.100  2.6586  0.4062 -2.1739
  982MOL0     H35482  10.731   9.478  -2.256  1.5745  0.9556 -0.3276
  982MOL0     H35483  10.584   9.548  -2.339  1.1339 -1.8346  0.4122
  982MOL0     H35484  10.706   9.771  -2.235 -0.5213 -1.7008  2.6307
  982MOL0     H35485  10.785   9.698  -2.375  2.1216 -4.3997 -1.1391
  982MOL0     H35486  10.972   9.726  -2.207  0.4025  0.3925  2.3550
  982MOL0     H35487  10.913   9.560  -2.179 -0.6945 -0.5121  2.1256
  982MOL0     H35488  10.814   9.812  -2.034 -1.1262 -0.9529  0.7548
  982MOL0     H35489  10.782   9.647  -1.989 -2.3563  0.6626 -1.9688
  982MOL0     H35490  11.027   9.630  -1.915 -0.8209 -0.3047  0.3165
  982MOL0     H35491  10.949   9.764  -1.840  0.0259 -1.3216  0.7911
  982MOL0     H35492  11.143   9.775  -2.077 -0.1049  1.6131 -0.9308
  982MOL0     H35493  11.162   9.817  -1.910 -3.3693 -1.1850  2.3862
  982MOL0     H35494  10.998   9.945  -2.136  1.2175  0.9086 -1.1927
  982MOL0     H35495  11.151  10.009  -2.067 -0.0969 -0.7796 -0.9273
  982MOL0     H35496  10.369   9.579  -1.958  0.1076  0.7809  0.1441
  982MOL0     H35497  10.242   9.511  -1.773  1.6026  1.6477  0.6524
  982MOL0     H35498  10.127   9.379  -1.434  1.3815 -0.2889 -0.7117
  982MOL0     H35499   9.941   9.344  -1.265 -0.8642  0.9854 -1.9923
  982MOL0     H35500   8.840   8.192   0.123  0.4169  1.8764 -2.0834
  982MOL0     H35501   8.883   7.938   0.176 -0.0930  0.0629  0.7078
  982MOL0     H35502   8.895   7.629   0.464 -0.3563  1.4465  0.2022
  982MOL0     H35503   8.879   7.391   0.498  2.7212 -3.6684  0.8671
  982MOL0     H35504   9.175   7.198   0.541 -0.7079  3.5614 -2.0904
  982MOL0     H35505   8.997   7.199   0.583 -0.5834 -0.1853  0.1785
  982MOL0     H35506   9.100   6.978   0.629 -1.1935  1.0971  0.3977
  982MOL0     H35507   9.122   6.969   0.447 -2.3784 -1.7409 -2.8082
  982MOL0     H35508   8.846   7.048   0.497  2.4314  2.4580  0.1771
  982MOL0     H35509   8.914   6.881   0.467 -0.3216 -0.5662  0.6731
  982MOL0     H35510   8.850   6.991   0.732 -1.4434  2.4826 -1.9026
  982MOL0     H35511   8.917   6.824   0.675 -2.1233 -1.6258 -3.6558
  982MOL0     H35512   8.488   6.838   0.590  0.7817 -1.2105 -2.5736
  982MOL0     H35513   9.180   7.322   0.213  1.6822  1.3852  0.2844
  982MOL0     H35514   9.292   7.639   0.181 -1.4810 -1.5938  4.3742
  982MOL0     H35515   9.299   7.486   0.100 -0.8008 -0.1037  0.2173
  982MOL0     H35516   9.177   7.590   0.041 -2.5573  2.0507  0.5046
  983MOL0     O35517   9.129   0.745   6.887 -0.3696  0.6202  0.0279
  983MOL0     C35518   9.243   0.723   6.908 -0.2825 -0.0907  1.0126
  983MOL0     O35519   9.332   0.813   6.976 -0.1385 -1.2605  0.0000
  983MOL0     C35520   9.278   0.936   7.006 -0.5617  0.0472  0.1284
  983MOL0     C35521   9.177   0.956   7.107  0.1403  0.1566  0.3383
  983MOL0     C35522   9.148   1.081   7.146  0.1744 -0.5109 -0.0588
  983MOL0     C35523   9.221   1.190   7.083 -0.9482 -0.6002 -0.7198
  983MOL0     O35524   9.201   1.328   7.109 -0.5416  0.0438  0.3843
  983MOL0     C35525   9.156   1.369   7.233 -1.9102  0.2979  0.4904
  983MOL0     C35526   9.260   1.358   7.344 -0.7895  0.1270 -0.0269
  983MOL0     C35527   9.383   1.427   7.296 -0.2853  1.0321 -0.6495
  983MOL0     C35528   9.484   1.435   7.414  0.6081  0.3126  0.4762
  983MOL0     C35529   9.625   1.461   7.378  0.6115 -0.1459 -0.8546
  983MOL0     C35530   9.721   1.438   7.496  0.1574  0.1249 -0.2942
  983MOL0     C35531   9.862   1.472   7.452  0.3200  0.7424 -0.2511
  983MOL0     C35532   9.974   1.414   7.541  0.3427  0.2648  0.9000
  983MOL0     N35533   9.933   1.459   7.680 -0.7398  0.4746 -0.1570
  983MOL0     C35534   9.971   1.578   7.741 -0.3125 -0.2806 -0.5853
  983MOL0     C35535   9.891   1.596   7.849  0.5062 -0.2275  0.3490
  983MOL0     C35536   9.875   1.723   7.925 -0.2471 -0.2352 -0.3562
  983MOL0     C35537   9.742   1.737   8.003 -0.5812  0.3921 -0.5270
  983MOL0     C35538   9.717   1.630   8.114  0.1536 -1.0993 -0.4837
  983MOL0     C35539   9.838   1.596   8.200 -0.4580  0.3590 -0.4365
  983MOL0     O35540   9.813   1.533   8.326 -0.5274  0.3514  0.1285
  983MOL0     C35541   9.914   1.478   8.396  0.1477  0.4507 -0.4968
  983MOL0     C35542   9.888   1.431   8.519  0.0094  0.8858  0.3617
  983MOL0     C35543   9.992   1.385   8.599 -0.9096  0.2597 -0.5556
  983MOL0     C35544   9.958   1.355   8.741  0.5939 -0.4077 -0.1069
  983MOL0     C35545  10.124   1.364   8.551  0.1083  0.1760  0.8485
  983MOL0     C35546  10.239   1.318   8.624 -0.8999  0.6667 -0.7092
  983MOL0     O35547  10.352   1.280   8.550 -0.3251 -0.3726 -0.3139
  983MOL0     C35548  10.475   1.241   8.605 -0.3907  0.2263  0.3101
  983MOL0     C35549  10.584   1.333   8.587  0.7056  0.8250  0.2432
  983MOL0     C35550  10.712   1.301   8.639  0.5843  0.6499  0.0709
  983MOL0     C35551  10.726   1.182   8.714  0.1650 -1.1999  0.3662
  983MOL0     O35552  10.841   1.144   8.777 -0.8602 -0.4207  0.2002
  983MOL0     C35553  10.958   1.231   8.791 -0.4760  0.5798  0.4444
  983MOL0     C35554  11.091   1.150   8.768  0.2092  0.5732  0.3556
  983MOL0     C35555  11.165   1.193   8.640 -0.6525  0.1912 -0.2194
  983MOL0     C35556  11.248   1.323   8.660  0.1266  0.5433  0.0095
  983MOL0     C35557  11.338   1.331   8.786  0.8699 -0.7937  0.0011
  983MOL0     C35558  11.460   1.425   8.778  0.3576 -0.0478  0.8367
  983MOL0     C35559  11.572   1.403   8.884 -0.0002  1.0462  0.5284
  983MOL0     C35560  11.659   1.522   8.897  0.2633  0.1009  0.3638
  983MOL0    Cl35561  11.566   1.670   8.957 -0.0424 -0.1684  0.5196
  983MOL0     C35562  10.620   1.096   8.736 -0.0223 -0.9010 -0.1000
  983MOL0     C35563  10.499   1.128   8.677  0.4159 -0.0554  0.4374
  983MOL0     O35564  10.233   1.307   8.747  0.6148 -0.1384 -0.5142
  983MOL0     C35565  10.143   1.409   8.418 -0.3234 -0.1842 -0.8040
  983MOL0     C35566  10.038   1.460   8.345  0.3241  0.1438  0.4305
  983MOL0     N35567   9.819   1.479   7.864  0.1300 -0.3051  0.1100
  983MOL0     N35568   9.856   1.387   7.773  0.0740 -0.5748 -0.3214
  983MOL0     C35569   9.316   1.163   6.995  0.4777  0.0698  0.1507
  983MOL0     C35570   9.342   1.039   6.951  0.2133  0.4600  0.0176
  983MOL0     C35571   9.284   0.588   6.858 -0.6094  1.0799 -0.1330
  983MOL0     C35572   9.191   0.484   6.875 -0.3673 -1.2114 -0.3423
  983MOL0     C35573   9.230   0.356   6.830 -0.2223  0.2987 -0.0447
  983MOL0     C35574   9.361   0.326   6.800 -0.5864  0.6158 -0.3260
  983MOL0     O35575   9.406   0.195   6.753  0.5936 -0.2590 -0.2341
  983MOL0     C35576   9.359   0.085   6.835  0.0695  0.0409  0.4131
  983MOL0     C35577   9.297  -0.018   6.739  0.3692 -0.2712 -0.9097
  983MOL0     C35578   9.142  -0.014   6.748 -0.1414 -0.4572  1.3533
  983MOL0     C35579   9.085  -0.139   6.676  0.3618 -0.2085  0.2463
  983MOL0     C35580   9.053  -0.244   6.777  1.0669 -0.6162 -0.8470
  983MOL0     C35581   9.026  -0.335   6.848  0.3806 -0.3884  0.4494
  983MOL0     C35582   9.451   0.421   6.783  0.4900 -0.2880  0.7912
  983MOL0     C35583   9.418   0.555   6.819  0.4504  0.1636  0.3080
  983MOL0     C35584   9.528   0.656   6.807  0.4788  0.5572  0.2370
  983MOL0     H35585   9.130   0.868   7.150 -1.6493 -0.9765 -3.5148
  983MOL0     H35586   9.079   1.086   7.230 -0.8941  1.2665 -0.9797
  983MOL0     H35587   9.066   1.313   7.261 -2.3176 -0.1125 -1.5130
  983MOL0     H35588   9.123   1.473   7.236  1.1576  1.3988  0.3575
  983MOL0     H35589   9.235   1.409   7.437 -2.6318 -2.4072  0.9734
  983MOL0     H35590   9.280   1.254   7.368  4.8872  0.9111  0.1231
  983MOL0     H35591   9.433   1.366   7.219 -2.6382  0.0188 -1.4579
  983MOL0     H35592   9.361   1.530   7.265 -2.6476  2.2805  4.2812
  983MOL0     H35593   9.448   1.516   7.478 -1.5409  0.1040 -0.3810
  983MOL0     H35594   9.486   1.333   7.454 -0.4571  0.2928  0.5116
  983MOL0     H35595   9.631   1.565   7.344  1.2208 -0.3768 -1.4578
  983MOL0     H35596   9.653   1.387   7.303 -0.8051 -0.5131 -1.0525
  983MOL0     H35597   9.699   1.499   7.585 -3.0062 -1.8043  0.4130
  983MOL0     H35598   9.724   1.332   7.522  1.6748  0.2793  0.2777
  983MOL0     H35599   9.868   1.581   7.451 -0.0103  0.7755 -1.8562
  983MOL0     H35600   9.868   1.417   7.357 -3.0683 -0.3476  0.0105
  983MOL0     H35601   9.970   1.306   7.526  1.2160  0.3464 -0.0006
  983MOL0     H35602  10.076   1.447   7.520  0.3788 -0.5687 -0.3703
  983MOL0     H35603  10.036   1.651   7.694 -0.9136 -0.9105 -2.5077
  983MOL0     H35604   9.878   1.810   7.858  1.2529  1.1001  1.3452
  983MOL0     H35605   9.956   1.730   7.997 -0.0216 -1.6494 -0.4559
  983MOL0     H35606   9.745   1.830   8.060 -0.5823 -0.4140  0.8353
  983MOL0     H35607   9.659   1.735   7.931  0.3514 -1.1206 -1.6217
  983MOL0     H35608   9.637   1.672   8.176  2.4653  2.5660  0.3455
  983MOL0     H35609   9.668   1.543   8.068 -4.9646  1.0985  0.0579
  983MOL0     H35610   9.908   1.539   8.138 -1.5712  0.1178 -1.5014
  983MOL0     H35611   9.896   1.688   8.216 -0.2633 -0.0327  1.1999
  983MOL0     H35612   9.785   1.432   8.554 -0.0977  0.8242  0.0522
  983MOL0     H35613  10.012   1.423   8.808  0.9738 -0.6069 -0.2087
  983MOL0     H35614   9.995   1.254   8.761  1.7279  0.0078 -0.0457
  983MOL0     H35615   9.851   1.357   8.767 -0.1153 -6.6637 -1.1942
  983MOL0     H35616  10.575   1.421   8.523 -2.7036  2.0286  2.1045
  983MOL0     H35617  10.802   1.358   8.615  1.2019  0.6623  2.1774
  983MOL0     H35618  10.962   1.327   8.739 -0.5744  0.4630  0.2172
  983MOL0     H35619  10.951   1.259   8.896  4.0567 -2.4617  1.8749
  983MOL0     H35620  11.145   1.144   8.863 -0.1887 -1.8544  0.5146
  983MOL0     H35621  11.058   1.048   8.744 -0.2039  1.5113 -3.8866
  983MOL0     H35622  11.095   1.222   8.561  1.0516  1.4307 -1.3274
  983MOL0     H35623  11.238   1.116   8.615  0.4709  0.0970  2.8718
  983MOL0     H35624  11.171   1.399   8.672 -0.8435 -0.6602  1.7893
  983MOL0     H35625  11.310   1.351   8.573 -0.8138  1.4489 -0.3863
  983MOL0     H35626  11.265   1.361   8.862 -2.1848 -5.1761 -0.7875
  983MOL0     H35627  11.373   1.232   8.820 -0.7073 -1.2051  0.5160
  983MOL0     H35628  11.420   1.527   8.774  1.3548  0.3089 -0.9722
  983MOL0     H35629  11.513   1.409   8.684  2.5156 -0.0554  1.9939
  983MOL0     H35630  11.632   1.313   8.869 -2.0238 -0.0527 -1.6017
  983MOL0     H35631  11.511   1.383   8.973 -0.3681 -1.3597 -0.2071
  983MOL0     H35632  11.698   1.552   8.799 -1.7570 -1.5751 -1.0404
  983MOL0     H35633  11.749   1.493   8.953  0.8098  1.6121  0.3304
  983MOL0     H35634  10.628   1.015   8.808  2.8235 -0.6911 -0.0601
  983MOL0     H35635  10.417   1.059   8.695  0.8445 -1.9713 -3.7911
  983MOL0     H35636  10.236   1.406   8.363 -0.4568 -1.1703 -0.9937
  983MOL0     H35637  10.069   1.484   8.244 -0.5308 -1.9582 -0.4016
  983MOL0     H35638   9.375   1.239   6.947 -2.2853  0.8223 -2.3341
  983MOL0     H35639   9.423   1.017   6.883 -0.5153 -0.8034 -0.4895
  983MOL0     H35640   9.086   0.496   6.900 -0.4970 -3.4764  0.4380
  983MOL0     H35641   9.157   0.276   6.831  0.5315 -0.4013  0.1305
  983MOL0     H35642   9.449   0.047   6.884  0.8260  1.6963  0.3869
  983MOL0     H35643   9.294   0.112   6.918  1.2016  1.0148  1.0056
  983MOL0     H35644   9.338  -0.116   6.763  0.2634  0.3126  2.0557
  983MOL0     H35645   9.326  -0.009   6.634 -3.0718 -3.4052 -2.3638
  983MOL0     H35646   9.109  -0.022   6.852 -2.1297  2.6688  1.0749
  983MOL0     H35647   9.094   0.074   6.706  2.0309  0.7043  1.1472
  983MOL0     H35648   9.155  -0.186   6.606 -1.1569 -3.8418  0.9021
  983MOL0     H35649   9.000  -0.125   6.610  0.7618 -1.9723 -0.7252
  983MOL0     H35650   9.004  -0.403   6.928  0.0388  1.7103  2.2422
  983MOL0     H35651   9.548   0.400   6.739  0.3897 -0.5841  0.7081
  983MOL0     H35652   9.606   0.633   6.733  1.7281 -0.4819  1.8093
  983MOL0     H35653   9.497   0.758   6.780 -0.3153  1.1185  3.0050
  983MOL0     H35654   9.572   0.680   6.904 -1.8155  0.3430  1.3889
  984MOL0     O35655  10.945   2.819   2.102  0.1587 -0.1340 -0.0430
  984MOL0     C35656  10.924   2.758   1.996  0.1356 -0.3143 -0.4229
  984MOL0     O35657  10.826   2.791   1.900 -0.4589  0.8222  0.3804
  984MOL0     C35658  10.725   2.892   1.923  0.4912  0.8238  0.0156
  984MOL0     C35659  10.715   2.994   1.825 -0.3398  1.6106  0.1104
  984MOL0     C35660  10.619   3.090   1.836  0.1450  0.2352  0.2448
  984MOL0     C35661  10.516   3.083   1.939 -1.1798  0.1594  0.0951
  984MOL0     O35662  10.424   3.180   1.952  0.4108  0.2921 -0.5454
  984MOL0     C35663  10.284   3.149   1.945  0.5772  0.2737  0.0106
  984MOL0     C35664  10.237   3.147   1.796 -0.0164  0.4030 -0.2301
  984MOL0     C35665  10.226   3.282   1.721 -0.2563 -0.5927  0.4554
  984MOL0     C35666  10.162   3.257   1.582  0.3643  1.0987  0.0485
  984MOL0     C35667  10.012   3.279   1.600 -0.1992 -0.1133  0.9593
  984MOL0     C35668   9.925   3.233   1.486 -0.3930  0.6474 -0.5506
  984MOL0     C35669   9.779   3.260   1.498  0.1525 -0.4761 -0.7011
  984MOL0     C35670   9.728   3.386   1.437 -0.1609 -0.1563 -0.3791
  984MOL0     N35671   9.590   3.407   1.425 -0.5884  0.5623  0.9327
  984MOL0     C35672   9.524   3.416   1.299  0.0017 -0.5898 -1.0445
  984MOL0     C35673   9.398   3.443   1.330 -0.3028 -0.6269 -1.1385
  984MOL0     C35674   9.291   3.462   1.231  0.4566 -0.8854  1.0299
  984MOL0     C35675   9.237   3.336   1.175  0.2141 -0.9349  0.2423
  984MOL0     C35676   9.334   3.251   1.095  0.3994 -0.4334  0.1078
  984MOL0     C35677   9.281   3.152   0.997  0.1560  0.8462 -0.3539
  984MOL0     O35678   9.384   3.110   0.901 -0.0023 -0.3505 -0.2439
  984MOL0     C35679   9.344   3.024   0.793 -0.9323 -0.3808 -0.9253
  984MOL0     C35680   9.227   2.958   0.788  0.5313 -0.4291  0.9796
  984MOL0     C35681   9.186   2.878   0.675 -0.1387  0.3039 -0.0397
  984MOL0     C35682   9.047   2.820   0.689 -0.1633 -0.1863  0.0554
  984MOL0     C35683   9.279   2.868   0.567  0.8135 -0.1352 -0.1166
  984MOL0     C35684   9.248   2.776   0.452 -0.0938 -0.2520 -0.3254
  984MOL0     O35685   9.341   2.771   0.351 -0.4547 -0.6181 -0.2089
  984MOL0     C35686   9.325   2.698   0.232  0.1076 -1.0453  1.1882
  984MOL0     C35687   9.421   2.614   0.178 -0.8125  1.2763 -0.6844
  984MOL0     C35688   9.397   2.535   0.068 -0.2757 -0.1012  1.4874
  984MOL0     C35689   9.272   2.540  -0.000 -0.0722 -0.3788 -0.2295
  984MOL0     O35690   9.263   2.502  -0.125 -0.9417 -1.5335  1.0761
  984MOL0     C35691   9.273   2.359  -0.153 -0.0650 -0.7458  0.2760
  984MOL0     C35692   9.149   2.283  -0.109 -0.4592  0.0175 -0.2457
  984MOL0     C35693   9.097   2.305   0.038  0.3485 -0.4629  0.9425
  984MOL0     C35694   8.996   2.209   0.076  0.8673 -0.4147  0.1493
  984MOL0     C35695   8.984   2.209   0.235 -0.0456  0.6830  0.6600
  984MOL0     C35696   8.949   2.350   0.294  0.7530  0.4028  1.0846
  984MOL0     C35697   8.977   2.354   0.443  1.1387 -0.0146  0.4533
  984MOL0     C35698   8.897   2.465   0.505 -0.2136 -0.0071  0.2843
  984MOL0    Cl35699   8.718   2.448   0.489  0.1856 -0.0479  0.1614
  984MOL0     C35700   9.175   2.635   0.056 -0.2463 -0.1529 -0.9896
  984MOL0     C35701   9.204   2.713   0.169  0.2727 -0.2208 -0.3191
  984MOL0     O35702   9.143   2.715   0.445  0.1457 -0.0448 -0.0344
  984MOL0     C35703   9.399   2.941   0.573 -0.5348  0.0113 -0.2992
  984MOL0     C35704   9.433   3.010   0.687 -0.0977 -0.4622  0.8406
  984MOL0     N35705   9.388   3.437   1.470  0.5605 -0.2803  0.7150
  984MOL0     N35706   9.499   3.405   1.526 -0.9356  0.2871 -0.4454
  984MOL0     C35707  10.534   2.981   2.048 -1.1076 -0.0660 -1.0016
  984MOL0     C35708  10.645   2.887   2.038  0.4890 -0.5224 -0.5614
  984MOL0     C35709  11.015   2.643   1.969  0.2751 -0.1557  0.4130
  984MOL0     C35710  10.986   2.569   1.848 -0.4693  0.4662 -0.9020
  984MOL0     C35711  11.057   2.450   1.833  0.1662  0.4951 -0.1594
  984MOL0     C35712  11.162   2.407   1.910 -0.2547  0.2490 -0.2386
  984MOL0     O35713  11.237   2.299   1.877 -0.3332 -1.0455  0.6893
  984MOL0     C35714  11.227   2.244   1.742 -0.5208  0.0378 -0.9763
  984MOL0     C35715  11.334   2.139   1.744 -0.3464 -0.5840 -0.6314
  984MOL0     C35716  11.308   2.015   1.831  0.5279 -0.0027 -0.9022
  984MOL0     C35717  11.319   2.041   1.984 -0.5598 -0.2822  0.1587
  984MOL0     C35718  11.338   1.921   2.052  0.0708 -0.6064 -0.0503
  984MOL0     C35719  11.347   1.816   2.114  0.3020 -0.3794 -0.9080
  984MOL0     C35720  11.186   2.483   2.025  0.0817  0.2773  0.5256
  984MOL0     C35721  11.119   2.599   2.055 -0.1459  0.6372 -0.8090
  984MOL0     C35722  11.167   2.661   2.185 -0.2545 -0.4397  0.2345
  984MOL0     H35723  10.775   2.985   1.735 -0.5315 -1.2613  0.2083
  984MOL0     H35724  10.603   3.165   1.760  0.3705 -2.8600 -3.1538
  984MOL0     H35725  10.230   3.237   1.979 -1.0265  0.4648 -2.6706
  984MOL0     H35726  10.250   3.062   2.003  1.9768 -0.6579 -0.4956
  984MOL0     H35727  10.308   3.085   1.740 -0.1568  0.5258 -0.5450
  984MOL0     H35728  10.140   3.098   1.785  0.7030 -1.3412  0.7967
  984MOL0     H35729  10.170   3.362   1.770 -0.3769 -0.1019 -0.4754
  984MOL0     H35730  10.325   3.321   1.699 -0.2370  0.3155  2.0296
  984MOL0     H35731  10.189   3.331   1.507  1.4249  1.2477  0.5657
  984MOL0     H35732  10.183   3.163   1.529 -0.3012  1.7373 -1.4026
  984MOL0     H35733  10.003   3.388   1.610  1.7735  0.1889  0.0352
  984MOL0     H35734   9.977   3.221   1.685 -0.2245 -1.2615  0.1857
  984MOL0     H35735   9.957   3.276   1.390  0.7193  1.2978  0.0896
  984MOL0     H35736   9.939   3.125   1.475  2.8979  0.7067  1.6477
  984MOL0     H35737   9.761   3.246   1.605  3.9429  0.5857  0.2033
  984MOL0     H35738   9.726   3.177   1.451  0.3136 -1.1643  0.2974
  984MOL0     H35739   9.770   3.467   1.497 -0.0353 -2.0947  2.3808
  984MOL0     H35740   9.775   3.393   1.339 -0.4226 -1.7224 -0.6459
  984MOL0     H35741   9.565   3.414   1.198  0.9383 -0.4983 -0.6817
  984MOL0     H35742   9.318   3.530   1.150 -1.1011 -2.1951 -0.6838
  984MOL0     H35743   9.208   3.512   1.282  0.0983 -1.5234  1.0842
  984MOL0     H35744   9.193   3.276   1.255 -0.7726  1.0152  1.2304
  984MOL0     H35745   9.161   3.367   1.102 -1.1815 -2.8989  0.7760
  984MOL0     H35746   9.394   3.321   1.035 -1.2033 -1.5555 -3.0109
  984MOL0     H35747   9.402   3.206   1.167  0.2543  0.8542  1.0906
  984MOL0     H35748   9.256   3.059   1.050  0.8254  0.4361 -0.7448
  984MOL0     H35749   9.190   3.194   0.953 -1.1672  0.1892  1.6496
  984MOL0     H35750   9.157   2.959   0.872  1.4750 -0.3712  1.7793
  984MOL0     H35751   8.985   2.839   0.601 -0.3750  1.6104  0.5707
  984MOL0     H35752   8.988   2.863   0.770  0.7422  0.5573  0.3394
  984MOL0     H35753   9.061   2.713   0.707 -0.7950  0.0856  2.3983
  984MOL0     H35754   9.516   2.609   0.230 -1.5695 -2.2928  0.6746
  984MOL0     H35755   9.474   2.466   0.035 -1.4422 -1.7291  2.0093
  984MOL0     H35756   9.297   2.343  -0.259  0.0410 -1.8074  0.4494
  984MOL0     H35757   9.360   2.326  -0.096  1.6117  1.9838 -0.4894
  984MOL0     H35758   9.065   2.321  -0.167 -2.0922 -0.3165  1.8087
  984MOL0     H35759   9.169   2.175  -0.116  0.1833  0.1229 -0.0930
  984MOL0     H35760   9.047   2.403   0.041 -0.3153 -0.5712 -2.4783
  984MOL0     H35761   9.187   2.322   0.098 -0.2442 -2.0294  2.3497
  984MOL0     H35762   9.004   2.104   0.046 -3.9145 -0.7842 -0.6179
  984MOL0     H35763   8.907   2.256   0.032  1.3166  2.8870  2.3846
  984MOL0     H35764   8.898   2.148   0.264  0.2424 -0.2917 -0.4550
  984MOL0     H35765   9.075   2.180   0.289 -0.2421  1.8379  1.6539
  984MOL0     H35766   8.840   2.358   0.284  0.2920 -4.0322  0.4308
  984MOL0     H35767   9.011   2.431   0.255  3.4090 -1.8690  0.2964
  984MOL0     H35768   9.084   2.378   0.448  0.8073  2.7863 -2.3191
  984MOL0     H35769   8.957   2.257   0.488  0.4547  0.1429  0.4970
  984MOL0     H35770   8.922   2.563   0.465 -1.2201 -0.5906 -1.9826
  984MOL0     H35771   8.921   2.460   0.611  0.3501  1.2579  0.2236
  984MOL0     H35772   9.087   2.649  -0.007 -0.9190  0.5970  0.0974
  984MOL0     H35773   9.119   2.769   0.204 -0.9031 -0.5443 -2.4775
  984MOL0     H35774   9.468   2.935   0.490 -0.1736 -0.6821  0.0448
  984MOL0     H35775   9.536   3.042   0.701 -0.3465  0.5118  0.5536
  984MOL0     H35776  10.477   2.976   2.140  1.9747 -0.6943  1.0016
  984MOL0     H35777  10.658   2.814   2.117  2.8041 -0.1557 -0.5311
  984MOL0     H35778  10.907   2.586   1.776 -1.3264 -2.0933 -0.6641
  984MOL0     H35779  11.029   2.405   1.739 -0.4993  2.8361 -1.1760
  984MOL0     H35780  11.125   2.204   1.732 -1.0065  1.4691 -1.9741
  984MOL0     H35781  11.256   2.312   1.662 -0.8554  0.4385 -0.7630
  984MOL0     H35782  11.427   2.181   1.782 -0.7798 -0.6952  0.5959
  984MOL0     H35783  11.352   2.113   1.640  3.8661  1.3936 -0.5995
  984MOL0     H35784  11.211   1.965   1.820 -0.0493  0.8111  0.3405
  984MOL0     H35785  11.383   1.942   1.798 -0.1652 -0.5027 -1.4197
  984MOL0     H35786  11.227   2.085   2.024  0.4051  1.4070  0.6492
  984MOL0     H35787  11.399   2.115   1.999 -1.1524  0.9255 -2.2479
  984MOL0     H35788  11.364   1.726   2.169  1.4125  0.6421  0.4904
  984MOL0     H35789  11.271   2.444   2.080  0.8885  1.9057  0.4945
  984MOL0     H35790  11.248   2.608   2.236  0.6735  0.2795 -0.4489
  984MOL0     H35791  11.206   2.759   2.154 -3.6467  0.1668 -2.9095
  984MOL0     H35792  11.076   2.660   2.246 -1.5530  3.9085 -1.2622
  985MOL0     O35793   6.662   8.412  11.045  0.8284  0.1673  0.1335
  985MOL0     C35794   6.602   8.468  10.951  0.1039  0.3236 -0.5458
  985MOL0     O35795   6.481   8.432  10.896 -0.2464  0.2657 -0.0257
  985MOL0     C35796   6.445   8.311  10.949  0.6763  0.0888 -1.2733
  985MOL0     C35797   6.320   8.302  11.018 -0.1459  0.5246  0.0815
  985MOL0     C35798   6.278   8.183  11.077  0.0326 -0.4199  0.6899
  985MOL0     C35799   6.359   8.066  11.066  0.4228 -0.7005 -0.3237
  985MOL0     O35800   6.331   7.951  11.134 -0.1487  0.5258 -0.5332
  985MOL0     C35801   6.224   7.950  11.217 -0.0589 -0.1385  0.2916
  985MOL0     C35802   6.231   7.825  11.298 -0.1752 -0.0405  0.2249
  985MOL0     C35803   6.212   7.692  11.225 -0.6668  0.5988 -0.4063
  985MOL0     C35804   6.183   7.585  11.329  0.8874 -0.0042 -0.6253
  985MOL0     C35805   6.208   7.449  11.268 -0.3971  1.0196 -0.4278
  985MOL0     C35806   6.233   7.339  11.376 -0.0397  0.8273 -0.0867
  985MOL0     C35807   6.264   7.203  11.323 -0.4374 -0.7826 -0.3040
  985MOL0     C35808   6.405   7.184  11.272  0.3563  0.6192 -0.6818
  985MOL0     N35809   6.485   7.115  11.375  0.1392  0.4555 -0.1381
  985MOL0     C35810   6.515   6.982  11.393 -0.1239  0.1114  0.3065
  985MOL0     C35811   6.605   6.964  11.492  0.1919 -0.0779 -0.2939
  985MOL0     C35812   6.664   6.829  11.536 -0.2499 -0.5184  0.7824
  985MOL0     C35813   6.641   6.796  11.684 -0.8127 -0.4246  0.0490
  985MOL0     C35814   6.489   6.807  11.712 -0.5280 -0.3377  0.4415
  985MOL0     C35815   6.462   6.781  11.860  0.6962  0.1306  0.5866
  985MOL0     O35816   6.527   6.657  11.903 -0.4692 -0.5622 -0.4604
  985MOL0     C35817   6.446   6.557  11.949 -0.0949 -0.0517  0.1713
  985MOL0     C35818   6.465   6.510  12.077 -0.2831  0.9134  0.5117
  985MOL0     C35819   6.392   6.394  12.120 -0.2601  0.4434 -0.4257
  985MOL0     C35820   6.427   6.355  12.268  0.0278 -0.0427 -0.0258
  985MOL0     C35821   6.312   6.322  12.026  0.1085  0.0961 -0.5687
  985MOL0     C35822   6.234   6.190  12.051  0.0370  0.0596  0.7079
  985MOL0     O35823   6.162   6.130  11.951 -0.5910 -0.5459  0.5756
  985MOL0     C35824   6.095   6.012  11.983  0.3290 -0.1639 -0.0113
  985MOL0     C35825   5.957   6.019  11.983  0.0508 -0.1354  0.5302
  985MOL0     C35826   5.885   5.915  12.017  0.4408  0.6072  1.2209
  985MOL0     C35827   5.948   5.797  12.058  0.5761 -0.4052  1.0012
  985MOL0     O35828   5.885   5.683  12.094 -0.8836 -0.0910 -0.8434
  985MOL0     C35829   5.743   5.659  12.077 -0.5600  0.3377  0.5333
  985MOL0     C35830   5.730   5.609  11.940 -0.0263 -0.6920 -0.0628
  985MOL0     C35831   5.599   5.534  11.900 -0.7951 -0.6183  0.1649
  985MOL0     C35832   5.597   5.486  11.751 -0.2171  0.2403 -0.1683
  985MOL0     C35833   5.657   5.343  11.740 -0.1232 -0.5083 -0.0515
  985MOL0     C35834   5.577   5.235  11.815  0.1845  0.4858 -0.9754
  985MOL0     C35835   5.428   5.212  11.761 -0.3655 -0.6018 -0.8295
  985MOL0     C35836   5.376   5.080  11.821 -0.3254 -0.1964 -0.0709
  985MOL0    Cl35837   5.219   5.041  11.731 -0.1754  0.3914  0.3701
  985MOL0     C35838   6.085   5.791  12.062 -1.1710  0.2083  0.0130
  985MOL0     C35839   6.164   5.896  12.023  0.0299 -0.2544 -0.5063
  985MOL0     O35840   6.233   6.151  12.168  0.4479 -0.0394 -0.1873
  985MOL0     C35841   6.298   6.375  11.902  0.2921  0.2403  0.9031
  985MOL0     C35842   6.352   6.500  11.866 -0.2901 -0.4614  0.0582
  985MOL0     N35843   6.634   7.091  11.528  0.5028 -0.4698 -0.1750
  985MOL0     N35844   6.568   7.177  11.460  1.2578  0.1971  0.3295
  985MOL0     C35845   6.473   8.061  10.991  0.7222  0.1311 -0.6209
  985MOL0     C35846   6.514   8.190  10.939  0.8841 -0.0939 -0.2112
  985MOL0     C35847   6.654   8.600  10.915 -0.1971  0.4850  0.3298
  985MOL0     C35848   6.762   8.648  10.984 -0.5949  0.5782 -0.6294
  985MOL0     C35849   6.833   8.759  10.943 -0.5520  0.1270  0.0651
  985MOL0     C35850   6.793   8.838  10.835 -0.4763 -0.1883  0.4636
  985MOL0     O35851   6.864   8.953  10.796  0.0558 -0.4578 -0.0837
  985MOL0     C35852   7.004   8.950  10.804 -0.1835 -0.2168  0.1945
  985MOL0     C35853   7.056   9.046  10.706 -0.0674  0.4246  0.3691
  985MOL0     C35854   7.200   9.092  10.747  0.0105 -0.7632  0.3398
  985MOL0     C35855   7.258   9.192  10.638 -0.4911 -0.3044 -0.0974
  985MOL0     C35856   7.402   9.194  10.621  0.2012  0.4060  1.4095
  985MOL0     C35857   7.524   9.216  10.601 -0.9093  1.0374  0.3419
  985MOL0     C35858   6.676   8.805  10.782 -0.9191  0.1081  0.2609
  985MOL0     C35859   6.603   8.688  10.809 -0.2474  0.2990 -0.4384
  985MOL0     C35860   6.483   8.662  10.726  0.5366  0.1203 -0.6416
  985MOL0     H35861   6.252   8.387  11.021 -2.2563 -1.0622 -0.6477
  985MOL0     H35862   6.195   8.198  11.145  0.3395  1.5533  0.6952
  985MOL0     H35863   6.138   7.946  11.150  0.9861 -1.9891 -1.0038
  985MOL0     H35864   6.216   8.039  11.282 -1.3456  0.7845 -1.0493
  985MOL0     H35865   6.334   7.824  11.332  0.2242 -1.5798 -0.9184
  985MOL0     H35866   6.152   7.820  11.374  0.4972  0.9777  1.0065
  985MOL0     H35867   6.128   7.700  11.156 -0.5223 -1.0422 -0.8216
  985MOL0     H35868   6.301   7.677  11.162 -0.0391  2.5493 -0.0497
  985MOL0     H35869   6.244   7.606  11.417 -1.2019  1.4260  0.5721
  985MOL0     H35870   6.084   7.586  11.375  1.6608  0.1501  1.1255
  985MOL0     H35871   6.298   7.444  11.206 -2.1212 -0.8188 -2.9844
  985MOL0     H35872   6.117   7.425  11.211 -0.9759  4.5088 -1.1801
  985MOL0     H35873   6.314   7.376  11.439  0.2785 -0.9264  0.6025
  985MOL0     H35874   6.139   7.325  11.432  0.3550 -2.0032  0.0549
  985MOL0     H35875   6.185   7.176  11.252  0.5910 -2.3768 -0.9056
  985MOL0     H35876   6.248   7.146  11.415 -1.6261  1.0533  0.6927
  985MOL0     H35877   6.389   7.125  11.181 -1.0480 -0.2895  0.1230
  985MOL0     H35878   6.449   7.282  11.253  1.1810 -0.1178 -2.8893
  985MOL0     H35879   6.459   6.911  11.333  3.1922 -2.4014 -0.1363
  985MOL0     H35880   6.771   6.831  11.513 -0.0840 -0.5530  1.5404
  985MOL0     H35881   6.630   6.749  11.470  3.3756 -1.6963  0.0767
  985MOL0     H35882   6.680   6.696  11.702 -0.0771 -0.2384 -0.4599
  985MOL0     H35883   6.696   6.870  11.743 -3.0792  1.3689  0.0493
  985MOL0     H35884   6.458   6.904  11.672  4.0178  0.6804 -1.2901
  985MOL0     H35885   6.430   6.741  11.649  0.0364 -1.0667  0.6620
  985MOL0     H35886   6.501   6.860  11.924  0.6168  2.2422 -1.8226
  985MOL0     H35887   6.354   6.787  11.878  0.7511  1.0462  0.6615
  985MOL0     H35888   6.547   6.549  12.136 -0.1226  0.3146  0.6911
  985MOL0     H35889   6.460   6.251  12.275  1.0262  0.1262 -1.6139
  985MOL0     H35890   6.335   6.373  12.324 -0.9550  1.1468 -1.9260
  985MOL0     H35891   6.506   6.417  12.310  1.3365 -2.4401  1.2515
  985MOL0     H35892   5.904   6.107  11.946  1.3355  0.7785  0.7789
  985MOL0     H35893   5.777   5.925  12.004  0.2256 -0.3920  2.1257
  985MOL0     H35894   5.709   5.589  12.153 -1.2031 -2.5974 -2.2486
  985MOL0     H35895   5.680   5.747  12.094 -1.0954 -0.1593  1.1372
  985MOL0     H35896   5.732   5.705  11.886  4.1680  1.3397  3.1282
  985MOL0     H35897   5.817   5.554  11.903  1.5882  2.4560 -1.3877
  985MOL0     H35898   5.521   5.608  11.917 -1.7862 -1.2751 -1.2832
  985MOL0     H35899   5.587   5.451  11.970 -0.2502  0.6219  1.7654
  985MOL0     H35900   5.635   5.563  11.682 -0.7862 -0.7593 -1.6603
  985MOL0     H35901   5.495   5.463  11.718 -1.0484  3.0725  0.1805
  985MOL0     H35902   5.673   5.313  11.636 -0.2583  0.4025 -0.3361
  985MOL0     H35903   5.752   5.343  11.795 -1.2176  2.3143  2.0855
  985MOL0     H35904   5.552   5.264  11.917 -1.4847 -0.8303 -0.9638
  985MOL0     H35905   5.625   5.137  11.802 -1.8525 -0.9183  1.3254
  985MOL0     H35906   5.440   5.208  11.653  3.2433 -0.3587 -0.5734
  985MOL0     H35907   5.361   5.292  11.792  0.7980  0.1704 -0.2203
  985MOL0     H35908   5.360   5.086  11.929  2.0197  1.3253  0.2539
  985MOL0     H35909   5.448   4.997  11.812 -1.6087 -1.2048 -1.8566
  985MOL0     H35910   6.123   5.695  12.095 -1.7901  0.8176  2.8078
  985MOL0     H35911   6.272   5.899  12.016  0.0725  0.1527  0.1572
  985MOL0     H35912   6.237   6.322  11.830 -0.2559  1.4115  0.4786
  985MOL0     H35913   6.323   6.548  11.774  0.8283 -1.4512 -0.8498
  985MOL0     H35914   6.528   7.970  10.968  2.7070  0.1931  3.1234
  985MOL0     H35915   6.607   8.197  10.883  0.8888 -1.4835 -0.4159
  985MOL0     H35916   6.799   8.599  11.074 -1.2531  0.3046 -0.5019
  985MOL0     H35917   6.922   8.785  11.000 -2.0463  2.8747  1.3527
  985MOL0     H35918   7.031   8.987  10.903 -1.3897  2.1949 -0.2782
  985MOL0     H35919   7.045   8.850  10.792 -4.8994 -2.6108  1.6818
  985MOL0     H35920   7.001   9.141  10.704  0.8294  1.0164  1.8051
  985MOL0     H35921   7.042   9.003  10.607 -2.5297 -0.1222  0.8956
  985MOL0     H35922   7.195   9.160  10.833 -0.7552  1.9863 -1.7225
  985MOL0     H35923   7.261   9.003  10.762  2.7494  0.7072 -1.1828
  985MOL0     H35924   7.220   9.294  10.649  1.9644  0.8040 -1.0144
  985MOL0     H35925   7.228   9.146  10.543  0.9248 -1.5416  0.0146
  985MOL0     H35926   7.629   9.208  10.579 -0.2565 -0.9508  3.5794
  985MOL0     H35927   6.627   8.868  10.708 -0.2927  0.9298  0.5316
  985MOL0     H35928   6.402   8.661  10.799  2.3205 -0.7468  1.4618
  985MOL0     H35929   6.471   8.731  10.641  1.3414 -0.1076 -0.9497
  985MOL0     H35930   6.469   8.563  10.680 -0.1637 -0.2800  0.3873
  986MOL0     O35931   6.072   7.401   9.356 -0.0888  0.0638 -0.5962
  986MOL0     C35932   6.063   7.289   9.407  0.1401 -1.3529  1.2682
  986MOL0     O35933   6.009   7.270   9.525  0.3115 -0.4179 -0.4823
  986MOL0     C35934   6.034   7.378   9.610 -0.5070 -0.3185 -0.1420
  986MOL0     C35935   5.923   7.441   9.670  0.4749  0.1012 -0.0901
  986MOL0     C35936   5.935   7.528   9.772  0.1642  0.3141 -0.1645
  986MOL0     C35937   6.058   7.567   9.823 -0.8273 -0.1027 -0.1103
  986MOL0     O35938   6.065   7.659   9.923  0.3740  1.2537  0.3967
  986MOL0     C35939   6.184   7.666  10.007 -0.7572 -0.2030  0.1276
  986MOL0     C35940   6.144   7.764  10.133 -0.0271  0.1409  0.3906
  986MOL0     C35941   6.048   7.697  10.233 -0.1966 -0.9423  0.3374
  986MOL0     C35942   6.011   7.805  10.338  0.4672 -0.4700 -0.3509
  986MOL0     C35943   5.873   7.780  10.395 -0.1533  0.0514 -0.8240
  986MOL0     C35944   5.876   7.658  10.487  0.3945  0.2609 -0.3443
  986MOL0     C35945   5.939   7.701  10.619 -0.6656 -0.0889  0.3055
  986MOL0     C35946   5.958   7.589  10.724  0.0266  0.0587  0.5853
  986MOL0     N35947   6.096   7.547  10.756  0.0397 -0.4749 -0.5140
  986MOL0     C35948   6.206   7.528  10.674 -0.2773  0.2398  0.3176
  986MOL0     C35949   6.316   7.495  10.758  0.2672 -0.5218  0.0641
  986MOL0     C35950   6.456   7.451  10.721 -0.5356 -0.6155 -0.7807
  986MOL0     C35951   6.509   7.349  10.830 -0.2989  0.4571  0.1925
  986MOL0     C35952   6.659   7.338  10.820  0.7515 -0.0039  0.9798
  986MOL0     C35953   6.706   7.226  10.911 -0.2868 -0.2898 -0.6038
  986MOL0     O35954   6.631   7.104  10.924  0.0673 -0.0753 -0.0859
  986MOL0     C35955   6.673   7.006  11.014 -0.8149  0.0521 -0.2774
  986MOL0     C35956   6.583   6.910  11.030  0.7602  0.8417 -0.5310
  986MOL0     C35957   6.602   6.790  11.108  0.5156 -0.7877  0.4806
  986MOL0     C35958   6.493   6.688  11.105 -0.0429  0.0670 -0.8744
  986MOL0     C35959   6.737   6.772  11.164 -0.7773 -0.8212  0.3857
  986MOL0     C35960   6.795   6.652  11.228  0.2937  0.3620 -0.5981
  986MOL0     O35961   6.910   6.662  11.306 -0.6356  0.1133  0.0635
  986MOL0     C35962   6.939   6.563  11.391 -0.0342  0.3123  0.4285
  986MOL0     C35963   7.075   6.521  11.394 -0.2420  0.1692  0.4624
  986MOL0     C35964   7.133   6.414  11.456 -0.0827  0.9689  0.0482
  986MOL0     C35965   7.045   6.345  11.543  0.7475  0.3799 -0.5308
  986MOL0     O35966   7.104   6.237  11.601  0.6893  0.1785  0.0023
  986MOL0     C35967   7.029   6.155  11.687  0.6872  0.8248 -0.7702
  986MOL0     C35968   7.096   6.033  11.745 -0.2097  0.5143 -0.7650
  986MOL0     C35969   7.219   6.044  11.831  0.3600  0.3510 -0.0572
  986MOL0     C35970   7.261   5.907  11.896  0.3106  0.4900  0.1569
  986MOL0     C35971   7.414   5.913  11.917  0.9877 -0.5216  0.7888
  986MOL0     C35972   7.469   5.801  11.998  0.1634 -0.1660 -1.4209
  986MOL0     C35973   7.623   5.807  11.973 -0.5007  1.0123 -0.3541
  986MOL0     C35974   7.699   5.684  12.036 -0.1258 -0.1913 -0.1054
  986MOL0    Cl35975   7.690   5.702  12.216 -0.3132 -0.1152  0.1466
  986MOL0     C35976   6.905   6.385  11.551  0.3273 -0.7582  0.5761
  986MOL0     C35977   6.843   6.484  11.467  0.5589 -0.3965  0.0729
  986MOL0     O35978   6.734   6.549  11.196 -0.2136 -0.0469 -0.1388
  986MOL0     C35979   6.829   6.880  11.159 -0.5714  0.2064  0.3352
  986MOL0     C35980   6.797   6.991  11.080 -0.6296 -0.8691  0.5089
  986MOL0     N35981   6.268   7.520  10.886 -0.9792 -0.0470 -0.3238
  986MOL0     N35982   6.143   7.540  10.884 -0.3605 -0.3024  0.2727
  986MOL0     C35983   6.171   7.517   9.751 -0.4816  0.0625 -0.3031
  986MOL0     C35984   6.158   7.421   9.654  0.1090  0.4154 -0.0550
  986MOL0     C35985   6.112   7.166   9.337 -0.2105  0.6815  0.1620
  986MOL0     C35986   6.105   7.042   9.401  0.0086  0.5555 -0.7094
  986MOL0     C35987   6.154   6.924   9.356  0.3275  0.6407 -0.6353
  986MOL0     C35988   6.204   6.920   9.228 -0.1233  0.0089  0.4441
  986MOL0     O35989   6.261   6.808   9.172  0.3604 -0.0427 -0.1970
  986MOL0     C35990   6.195   6.689   9.197  0.5287 -0.8415  0.4084
  986MOL0     C35991   6.287   6.578   9.136  0.6014 -0.9624  0.4147
  986MOL0     C35992   6.214   6.437   9.123 -0.5437 -0.5724 -0.6593
  986MOL0     C35993   6.174   6.356   9.251 -0.1469  0.2682 -0.0910
  986MOL0     C35994   6.288   6.270   9.297 -0.1574 -0.4303  0.1505
  986MOL0     C35995   6.386   6.224   9.346 -0.1112 -0.2427 -0.8450
  986MOL0     C35996   6.218   7.034   9.157  1.0148  0.5899  0.1976
  986MOL0     C35997   6.176   7.158   9.210  0.0137  0.6581  0.3061
  986MOL0     C35998   6.201   7.287   9.133 -1.1025 -0.4488 -0.4903
  986MOL0     H35999   5.825   7.422   9.628 -0.1049 -0.4489  1.4374
  986MOL0     H36000   5.847   7.572   9.817 -1.0915  1.1432 -3.1654
  986MOL0     H36001   6.265   7.712   9.949 -2.5326  3.0196 -0.0194
  986MOL0     H36002   6.202   7.565  10.043 -2.2005  0.5899  3.3978
  986MOL0     H36003   6.235   7.791  10.187  1.7738 -1.5069 -1.6759
  986MOL0     H36004   6.096   7.849  10.083 -1.0200 -1.1482 -0.9381
  986MOL0     H36005   5.951   7.682  10.185 -0.0586  1.4344 -0.7862
  986MOL0     H36006   6.083   7.605  10.281  0.9173  0.0687  1.5423
  986MOL0     H36007   6.096   7.806  10.406  0.2203 -3.6058  0.1685
  986MOL0     H36008   5.992   7.903  10.292 -2.7289 -1.6496 -1.8514
  986MOL0     H36009   5.800   7.761  10.316  0.9622 -3.9326 -1.1186
  986MOL0     H36010   5.848   7.872  10.449 -0.9490  1.6458 -3.6756
  986MOL0     H36011   5.778   7.614  10.508  1.8210 -1.9740  2.2726
  986MOL0     H36012   5.935   7.574  10.450 -1.7913 -1.8376  0.6833
  986MOL0     H36013   5.877   7.781  10.661 -2.6031 -0.6555 -1.3014
  986MOL0     H36014   6.038   7.742  10.598 -1.9690  3.7534  0.9106
  986MOL0     H36015   5.913   7.622  10.818  1.1082  0.3458  1.0142
  986MOL0     H36016   5.894   7.506  10.693 -0.1122  0.0632  0.8562
  986MOL0     H36017   6.210   7.540  10.566  1.1160 -2.5551 -0.0166
  986MOL0     H36018   6.524   7.537  10.718  0.6839 -1.4305  1.3381
  986MOL0     H36019   6.462   7.414  10.618 -0.3077  3.1746 -2.3078
  986MOL0     H36020   6.481   7.370  10.934 -0.3218  1.6789 -0.0398
  986MOL0     H36021   6.459   7.261  10.789 -0.4640  0.9194 -0.6349
  986MOL0     H36022   6.694   7.320  10.718 -0.1904  0.8449  0.4870
  986MOL0     H36023   6.706   7.432  10.849  0.0649  0.2142  1.4023
  986MOL0     H36024   6.799   7.200  10.859 -1.1009  1.9894 -3.4700
  986MOL0     H36025   6.731   7.266  11.009 -0.4678 -1.7962  0.0837
  986MOL0     H36026   6.491   6.924  10.973  0.3912 -0.6457 -0.3491
  986MOL0     H36027   6.391   6.725  11.087 -0.1250 -1.6685 -5.3367
  986MOL0     H36028   6.495   6.621  11.191 -2.2003 -2.8225 -2.8800
  986MOL0     H36029   6.514   6.627  11.017  1.0285  0.3374 -0.8173
  986MOL0     H36030   7.133   6.594  11.337 -0.2093  0.5191  0.9373
  986MOL0     H36031   7.237   6.390  11.435 -0.7411 -0.2992 -2.0828
  986MOL0     H36032   6.987   6.215  11.768  1.0202  0.1196 -0.0681
  986MOL0     H36033   6.937   6.125  11.637 -1.1901  0.5511  2.5686
  986MOL0     H36034   7.021   5.971  11.793  0.3808 -0.6168 -1.2576
  986MOL0     H36035   7.125   5.971  11.659  3.2407  0.9222 -0.0575
  986MOL0     H36036   7.191   6.104  11.917 -0.2370  0.5858 -0.4087
  986MOL0     H36037   7.301   6.084  11.770  0.0769  0.9281 -0.0606
  986MOL0     H36038   7.236   5.827  11.827 -0.6331  3.6107 -3.4992
  986MOL0     H36039   7.207   5.883  11.988  1.0095 -2.6065 -0.1474
  986MOL0     H36040   7.462   5.908  11.819 -0.9483  0.7338 -0.2899
  986MOL0     H36041   7.439   6.007  11.965 -0.5572 -1.4954  3.7456
  986MOL0     H36042   7.429   5.709  11.955 -1.2443  1.0654 -2.9264
  986MOL0     H36043   7.444   5.801  12.104 -1.2771  0.6346 -1.7270
  986MOL0     H36044   7.666   5.900  12.011  1.0437  0.9466 -1.8261
  986MOL0     H36045   7.647   5.805  11.867 -3.3790 -0.0954 -1.0783
  986MOL0     H36046   7.804   5.688  12.008 -0.7763  3.3034 -2.8107
  986MOL0     H36047   7.660   5.586  12.005 -2.2067 -0.4383  2.8555
  986MOL0     H36048   6.829   6.336  11.611 -0.4802  0.5416  0.6537
  986MOL0     H36049   6.740   6.518  11.473  1.0794  1.7085 -1.4029
  986MOL0     H36050   6.929   6.879  11.201 -1.1116  1.0567  1.7045
  986MOL0     H36051   6.872   7.067  11.063 -2.2053  0.4682 -0.7154
  986MOL0     H36052   6.266   7.563   9.773  0.8270 -1.9606 -1.4747
  986MOL0     H36053   6.246   7.384   9.603  0.6487  4.7136 -2.7567
  986MOL0     H36054   6.055   7.051   9.497  1.1505 -3.5383  0.4713
  986MOL0     H36055   6.154   6.849   9.434 -2.3182  0.1306 -1.0186
  986MOL0     H36056   6.178   6.669   9.303 -1.1774 -1.5182  0.0444
  986MOL0     H36057   6.098   6.687   9.145  0.8976  3.1849 -0.7328
  986MOL0     H36058   6.375   6.563   9.199  0.2579 -3.1063  0.4540
  986MOL0     H36059   6.312   6.610   9.035 -0.4648 -1.4801 -0.0268
  986MOL0     H36060   6.129   6.462   9.059 -0.5485 -0.3292 -0.5559
  986MOL0     H36061   6.283   6.376   9.064  2.2762  0.9556  0.8391
  986MOL0     H36062   6.092   6.293   9.213 -1.0448  0.7727  0.9476
  986MOL0     H36063   6.132   6.423   9.327 -0.8438 -0.9256  0.6030
  986MOL0     H36064   6.479   6.184   9.382  0.9342  2.5804 -0.1282
  986MOL0     H36065   6.246   7.032   9.052 -2.1979  0.8476 -0.7920
  986MOL0     H36066   6.107   7.330   9.096 -0.3939 -0.9438 -3.1092
  986MOL0     H36067   6.242   7.366   9.196 -1.2622  1.0762 -2.2217
  986MOL0     H36068   6.261   7.262   9.045 -0.3738  1.1521 -0.4842
  987MOL0     O36069  10.437   2.296  10.919 -0.3316 -0.1418 -0.1690
  987MOL0     C36070  10.466   2.373  10.821 -0.6796  0.9683  0.0209
  987MOL0     O36071  10.391   2.470  10.771  0.7042 -0.0709  0.6703
  987MOL0     C36072  10.265   2.477  10.832  0.1777  0.7496 -0.2107
  987MOL0     C36073  10.245   2.548  10.954  0.8622  0.7267 -0.3225
  987MOL0     C36074  10.118   2.561  11.011  0.4085  0.8868 -0.4059
  987MOL0     C36075  10.010   2.493  10.956  0.2734  0.0182  0.0337
  987MOL0     O36076   9.888   2.522  11.001 -0.4136  0.1163 -0.1011
  987MOL0     C36077   9.824   2.440  11.095 -0.2309  0.0940 -0.1144
  987MOL0     C36078   9.728   2.525  11.181  0.9515  0.0095  0.9053
  987MOL0     C36079   9.797   2.602  11.291 -1.3541 -0.3370  0.5992
  987MOL0     C36080   9.828   2.511  11.419 -0.3762  0.3879 -0.4965
  987MOL0     C36081   9.862   2.599  11.539 -0.1081 -0.3014 -0.0944
  987MOL0     C36082   9.726   2.646  11.596 -0.5152  0.1965  0.1647
  987MOL0     C36083   9.735   2.772  11.679 -0.7333 -0.1815  0.2737
  987MOL0     C36084   9.857   2.780  11.775 -0.1092 -0.8948 -0.1577
  987MOL0     N36085   9.834   2.687  11.886  0.1739  0.0962 -0.4084
  987MOL0     C36086   9.729   2.690  11.971  0.0597 -0.1798  0.6324
  987MOL0     C36087   9.731   2.575  12.046 -0.1014  0.6866  0.0759
  987MOL0     C36088   9.635   2.511  12.144 -0.1006 -0.4016  0.0589
  987MOL0     C36089   9.621   2.613  12.257 -0.2777  0.1503 -0.2810
  987MOL0     C36090   9.753   2.661  12.325 -0.2442  0.2786  0.4303
  987MOL0     C36091   9.786   2.812  12.321 -1.1247  0.6421 -0.0806
  987MOL0     O36092   9.912   2.839  12.386 -0.4757 -0.3810  0.1430
  987MOL0     C36093  10.024   2.769  12.334 -0.3922  0.1289  0.2611
  987MOL0     C36094  10.127   2.737  12.423 -1.1040  0.5973 -0.1583
  987MOL0     C36095  10.247   2.671  12.387  0.0961  0.2369 -0.2817
  987MOL0     C36096  10.345   2.633  12.490  0.2321  0.3275 -0.1371
  987MOL0     C36097  10.251   2.640  12.248 -0.9529  0.3321 -0.4788
  987MOL0     C36098  10.373   2.585  12.181 -0.9299  1.0465 -0.9128
  987MOL0     O36099  10.366   2.571  12.053 -0.1933  0.2756  0.4083
  987MOL0     C36100  10.487   2.572  11.994 -0.3100  0.3933  0.0844
  987MOL0     C36101  10.566   2.454  11.985 -0.1558  0.8840  0.7251
  987MOL0     C36102  10.696   2.461  11.927  0.3154  0.1222  0.8392
  987MOL0     C36103  10.741   2.576  11.870 -0.1198 -0.6830  0.3746
  987MOL0     O36104  10.872   2.570  11.817 -0.4094 -0.7449 -0.4579
  987MOL0     C36105  10.948   2.687  11.850  0.0432 -0.6420 -0.0595
  987MOL0     C36106  11.101   2.675  11.805 -0.2664  0.6080  0.1364
  987MOL0     C36107  11.187   2.787  11.870  1.0918 -0.5297  0.2221
  987MOL0     C36108  11.333   2.765  11.819 -0.6764  0.5456  0.2240
  987MOL0     C36109  11.431   2.867  11.871 -0.1672 -0.6132 -0.8023
  987MOL0     C36110  11.580   2.845  11.831  0.2882 -0.1234  0.4142
  987MOL0     C36111  11.607   2.820  11.679  0.3384 -0.0493  0.0835
  987MOL0     C36112  11.762   2.801  11.646 -1.1106 -0.5509 -0.5163
  987MOL0    Cl36113  11.874   2.935  11.688 -0.4150 -0.1348 -0.1497
  987MOL0     C36114  10.657   2.689  11.863 -0.3480 -0.6911 -0.0658
  987MOL0     C36115  10.525   2.688  11.915  0.8668  0.4977  0.1408
  987MOL0     O36116  10.469   2.542  12.253  0.4358 -0.4400  0.0619
  987MOL0     C36117  10.145   2.662  12.161 -0.4210 -0.6968  0.1170
  987MOL0     C36118  10.040   2.741  12.205  0.6507  0.3864 -0.3624
  987MOL0     N36119   9.845   2.507  11.999  0.0578 -0.1411  0.2034
  987MOL0     N36120   9.909   2.569  11.908 -0.4443 -1.0133 -1.4854
  987MOL0     C36121  10.024   2.428  10.838  0.5243  1.0598 -0.7692
  987MOL0     C36122  10.152   2.422  10.777  0.2009 -0.5056  0.0045
  987MOL0     C36123  10.583   2.323  10.745  0.5940 -0.0833  0.7887
  987MOL0     C36124  10.574   2.341  10.606  1.0511  0.6242  0.0168
  987MOL0     C36125  10.673   2.289  10.526 -0.0873 -0.9787  0.6481
  987MOL0     C36126  10.788   2.242  10.579 -0.0810  1.1639 -0.3250
  987MOL0     O36127  10.898   2.202  10.511 -0.3718  0.1885 -0.2919
  987MOL0     C36128  10.872   2.125  10.393  0.0393 -0.7050 -0.0832
  987MOL0     C36129  10.997   2.126  10.311 -0.9166 -0.0523 -0.1778
  987MOL0     C36130  11.054   2.263  10.277  0.7913 -0.5258 -0.4595
  987MOL0     C36131  10.945   2.348  10.191 -0.8131  0.9930  0.3188
  987MOL0     C36132  10.979   2.493  10.200 -0.8125 -0.1228 -0.2316
  987MOL0     C36133  11.012   2.609  10.189  0.6148  0.7359  0.4098
  987MOL0     C36134  10.804   2.248  10.714 -0.5007  0.2345 -0.5506
  987MOL0     C36135  10.706   2.272  10.796 -0.6988 -0.7030 -0.0191
  987MOL0     C36136  10.731   2.247  10.938  0.2076 -0.2365 -0.4418
  987MOL0     H36137  10.332   2.595  10.998  1.4881  1.2285 -2.0365
  987MOL0     H36138  10.109   2.612  11.106  1.1553 -0.8187  0.6292
  987MOL0     H36139   9.910   2.406  11.154  0.0051  2.5217  1.0338
  987MOL0     H36140   9.781   2.356  11.039 -0.5127  0.4180 -0.3889
  987MOL0     H36141   9.680   2.598  11.115 -2.1341 -0.7560  2.1473
  987MOL0     H36142   9.644   2.465  11.216 -1.4435  1.9720 -1.0070
  987MOL0     H36143   9.885   2.653  11.252 -2.2194  1.8300  1.3374
  987MOL0     H36144   9.732   2.688  11.310 -0.1957  1.3636 -2.4550
  987MOL0     H36145   9.745   2.443  11.438  0.8783 -0.8203  0.8509
  987MOL0     H36146   9.912   2.443  11.399 -2.5711 -2.1195 -1.8157
  987MOL0     H36147   9.926   2.686  11.520  1.1438 -1.2442 -0.3314
  987MOL0     H36148   9.919   2.542  11.612  0.9110  0.1524 -0.5208
  987MOL0     H36149   9.648   2.651  11.521 -1.6150 -0.8106  1.2024
  987MOL0     H36150   9.697   2.563  11.661 -2.6036  0.1729 -0.7282
  987MOL0     H36151   9.647   2.781  11.743  0.6427 -1.7068  2.5328
  987MOL0     H36152   9.741   2.857  11.611  1.7784 -1.8288 -1.7744
  987MOL0     H36153   9.956   2.757  11.733  2.4775  3.5055  2.7359
  987MOL0     H36154   9.876   2.882  11.807  0.2359 -0.7681 -0.7442
  987MOL0     H36155   9.650   2.763  11.988 -1.0796 -1.8975  3.5003
  987MOL0     H36156   9.653   2.410  12.181 -5.8127 -2.6209 -2.0661
  987MOL0     H36157   9.534   2.501  12.102  1.2035 -1.5441 -3.0862
  987MOL0     H36158   9.571   2.705  12.225 -0.2820 -0.7091 -2.9954
  987MOL0     H36159   9.567   2.564  12.338  3.1152  0.8361  2.6295
  987MOL0     H36160   9.743   2.642  12.432 -1.1576  1.3224  0.5400
  987MOL0     H36161   9.837   2.597  12.293 -1.9283 -2.1112  0.5333
  987MOL0     H36162   9.775   2.853  12.220 -3.8206  1.3332  0.3987
  987MOL0     H36163   9.712   2.865  12.383 -0.1345  2.9050 -0.7407
  987MOL0     H36164  10.116   2.764  12.528  0.9782  1.7407 -0.1979
  987MOL0     H36165  10.329   2.665  12.593  0.1809 -2.1835  0.6837
  987MOL0     H36166  10.441   2.680  12.468 -0.6209  0.2359 -5.2824
  987MOL0     H36167  10.358   2.525  12.484  1.0073  0.4861 -2.4707
  987MOL0     H36168  10.542   2.361  12.035  2.6326  0.0127  0.5950
  987MOL0     H36169  10.765   2.377  11.935 -1.9390 -1.9734 -0.5101
  987MOL0     H36170  10.906   2.775  11.801  0.1743  0.4454  1.7030
  987MOL0     H36171  10.941   2.707  11.957  2.9523  3.0822 -0.3852
  987MOL0     H36172  11.142   2.580  11.839 -0.3622  0.1977 -0.8827
  987MOL0     H36173  11.109   2.666  11.697 -2.0523 -2.1855  0.1284
  987MOL0     H36174  11.180   2.779  11.978 -0.8814 -1.8991  0.0579
  987MOL0     H36175  11.138   2.882  11.847  0.3488 -1.0325 -0.3348
  987MOL0     H36176  11.338   2.770  11.710 -2.4704 -0.3396  0.0613
  987MOL0     H36177  11.357   2.667  11.861 -1.9176  0.5180  0.9185
  987MOL0     H36178  11.408   2.969  11.839  0.4925  0.5130  1.9889
  987MOL0     H36179  11.418   2.872  11.979  1.6665  4.7999 -0.5402
  987MOL0     H36180  11.628   2.762  11.882  1.8260 -0.5910 -1.6651
  987MOL0     H36181  11.642   2.929  11.864  1.6517 -1.3238  0.9991
  987MOL0     H36182  11.555   2.893  11.615  1.6814 -0.1671 -1.1992
  987MOL0     H36183  11.567   2.721  11.656  1.4718 -0.7831  1.1585
  987MOL0     H36184  11.757   2.792  11.537 -2.9616  2.4843 -0.7836
  987MOL0     H36185  11.793   2.716  11.709 -2.1464 -0.6415 -0.1092
  987MOL0     H36186  10.687   2.782  11.817 -0.1898 -0.4225  0.5624
  987MOL0     H36187  10.462   2.777  11.919  0.7369  0.4712 -1.0024
  987MOL0     H36188  10.131   2.633  12.057 -1.8627  1.1123 -0.2290
  987MOL0     H36189   9.967   2.783  12.136  1.7931  1.6189 -0.8896
  987MOL0     H36190   9.933   2.396  10.789  0.7464 -0.1927 -0.4111
  987MOL0     H36191  10.157   2.361  10.687  1.1121 -2.7879  1.5126
  987MOL0     H36192  10.489   2.382  10.551  0.1026 -1.0162  0.1700
  987MOL0     H36193  10.671   2.298  10.418 -1.1483  1.6957  0.7994
  987MOL0     H36194  10.856   2.018  10.410 -0.1766 -0.7070 -0.2809
  987MOL0     H36195  10.787   2.157  10.331 -0.4820 -2.1238 -0.1386
  987MOL0     H36196  10.981   2.063  10.223 -1.3619 -3.8221  2.3215
  987MOL0     H36197  11.072   2.064  10.362 -1.7852 -1.6965 -0.8067
  987MOL0     H36198  11.060   2.330  10.364  0.4135  3.2867 -3.1411
  987MOL0     H36199  11.149   2.255  10.224  1.5719 -0.6493  0.9126
  987MOL0     H36200  10.844   2.333  10.229 -0.1073 -0.8815  1.6516
  987MOL0     H36201  10.946   2.316  10.087  1.9080 -2.5557  1.2153
  987MOL0     H36202  11.046   2.710  10.198 -0.5044  0.9479  4.3379
  987MOL0     H36203  10.900   2.214  10.751 -1.3733  0.3041  1.9495
  987MOL0     H36204  10.701   2.335  10.996  0.6227 -1.0264  1.0288
  987MOL0     H36205  10.667   2.161  10.961  0.1064 -0.5119 -1.6893
  987MOL0     H36206  10.839   2.237  10.956  0.7218  3.3434 -0.8792
  988MOL0     O36207   2.662   7.312   7.545  0.8285 -0.3883  0.2275
  988MOL0     C36208   2.651   7.290   7.671  0.5479 -0.1392 -0.0670
  988MOL0     O36209   2.565   7.359   7.754 -0.3472 -0.1919 -0.3985
  988MOL0     C36210   2.449   7.404   7.692  0.2163 -0.3855  0.8431
  988MOL0     C36211   2.359   7.313   7.655  0.0213  0.5277 -0.0450
  988MOL0     C36212   2.239   7.353   7.604  0.2333 -0.4427 -0.3417
  988MOL0     C36213   2.215   7.486   7.571  0.5200 -0.4526  0.7459
  988MOL0     O36214   2.106   7.533   7.509  0.2724 -0.2118  0.3012
  988MOL0     C36215   1.997   7.445   7.456 -0.2719 -0.3311 -0.8039
  988MOL0     C36216   1.909   7.513   7.340 -0.0844 -0.4163  0.2818
  988MOL0     C36217   2.024   7.561   7.237  0.5331 -0.0379 -1.0438
  988MOL0     C36218   2.039   7.702   7.256  0.5486  0.1337 -0.2470
  988MOL0     C36219   2.124   7.760   7.140 -0.5610  0.1623  0.9440
  988MOL0     C36220   2.060   7.750   7.004 -0.5189  0.0380 -1.4488
  988MOL0     C36221   2.154   7.808   6.898 -0.4970  0.8440 -0.1580
  988MOL0     C36222   2.154   7.964   6.880  0.6981 -0.3407 -0.6855
  988MOL0     N36223   2.021   8.013   6.834 -0.2872 -1.0377 -0.3659
  988MOL0     C36224   1.945   7.944   6.748  0.4085 -0.0424  0.3211
  988MOL0     C36225   1.816   7.988   6.775  0.1406 -0.0079 -0.2613
  988MOL0     C36226   1.693   7.941   6.690  0.6709  0.5410  0.2631
  988MOL0     C36227   1.669   8.021   6.570  0.7032 -0.1771  0.6646
  988MOL0     C36228   1.774   8.004   6.472 -0.4317 -0.1182  0.9489
  988MOL0     C36229   1.744   8.046   6.322 -0.1555 -0.1731  0.5527
  988MOL0     O36230   1.814   7.967   6.218  0.4800 -0.1027 -0.2523
  988MOL0     C36231   1.904   8.018   6.128 -0.5065  0.5705 -0.6467
  988MOL0     C36232   1.959   7.910   6.053  0.3840 -0.5017  0.0243
  988MOL0     C36233   2.060   7.937   5.956  0.6563 -0.1972  1.1874
  988MOL0     C36234   2.092   7.824   5.861 -0.5864  0.7304  0.1626
  988MOL0     C36235   2.103   8.070   5.931  1.1568  0.2457  0.5549
  988MOL0     C36236   2.192   8.112   5.824  0.2299 -0.2439 -0.2646
  988MOL0     O36237   2.194   8.244   5.793  0.8000  0.4633 -0.3515
  988MOL0     C36238   2.254   8.299   5.691 -0.3106 -0.0047  0.2350
  988MOL0     C36239   2.244   8.434   5.680  0.0076 -0.2401  0.3534
  988MOL0     C36240   2.323   8.508   5.602  0.1693  0.4082  0.1662
  988MOL0     C36241   2.423   8.440   5.531  0.5604 -0.8979 -0.1099
  988MOL0     O36242   2.513   8.515   5.454 -0.2035  0.4562 -0.6334
  988MOL0     C36243   2.457   8.623   5.367 -0.0732 -0.0200  0.1281
  988MOL0     C36244   2.543   8.746   5.387  1.3725  0.1231 -1.1729
  988MOL0     C36245   2.507   8.823   5.518 -1.0707 -0.5414  0.4074
  988MOL0     C36246   2.411   8.943   5.510  0.8327 -0.1530 -0.3457
  988MOL0     C36247   2.275   8.915   5.438  0.1599 -0.3071 -0.3721
  988MOL0     C36248   2.197   9.049   5.429 -0.9403  0.0462 -0.6850
  988MOL0     C36249   2.053   9.046   5.390  0.6343 -0.0133 -0.2571
  988MOL0     C36250   1.963   8.961   5.485 -0.3361 -0.9308  0.1770
  988MOL0    Cl36251   1.804   8.916   5.397 -0.0427 -0.7285 -0.5032
  988MOL0     C36252   2.435   8.302   5.534  0.1908 -0.2267  1.2166
  988MOL0     C36253   2.338   8.230   5.604  0.0955 -0.3308 -0.4759
  988MOL0     O36254   2.276   8.025   5.799 -0.2828  0.1050 -0.5896
  988MOL0     C36255   2.034   8.170   6.001  0.6393  0.5645 -0.0682
  988MOL0     C36256   1.947   8.152   6.097 -0.3962  0.3409  0.8300
  988MOL0     N36257   1.826   8.084   6.870  0.6787 -0.0503 -0.2121
  988MOL0     N36258   1.944   8.101   6.908 -0.0220  0.1438 -0.0493
  988MOL0     C36259   2.314   7.576   7.602 -0.1217 -0.3071  0.1027
  988MOL0     C36260   2.432   7.536   7.666  0.8354  0.2456  0.5090
  988MOL0     C36261   2.725   7.172   7.721  0.6448 -0.5730 -0.0067
  988MOL0     C36262   2.810   7.098   7.627 -0.5993  0.5638  0.1517
  988MOL0     C36263   2.896   6.990   7.668  0.0226  0.1307  0.8458
  988MOL0     C36264   2.895   6.954   7.801 -0.7569 -0.2022 -0.5710
  988MOL0     O36265   2.968   6.850   7.848  0.1018 -0.1327 -0.3986
  988MOL0     C36266   3.104   6.842   7.800  0.7597 -0.0478 -0.6292
  988MOL0     C36267   3.201   6.778   7.898 -0.2059  0.1187  0.4514
  988MOL0     C36268   3.215   6.863   8.030  1.2720 -0.5505  0.0772
  988MOL0     C36269   3.094   6.856   8.129 -0.9273  0.2315 -0.1884
  988MOL0     C36270   3.074   6.732   8.187 -0.3365  0.2632  0.5268
  988MOL0     C36271   3.073   6.621   8.239  0.3819  0.6043 -1.1247
  988MOL0     C36272   2.826   7.038   7.896  0.3584 -0.4271 -0.5032
  988MOL0     C36273   2.748   7.150   7.860  0.5558  0.9328 -0.6890
  988MOL0     C36274   2.670   7.219   7.976  0.1315 -0.1955  0.8857
  988MOL0     H36275   2.367   7.208   7.682 -0.3488  1.0005  2.0456
  988MOL0     H36276   2.170   7.270   7.589  0.3595 -1.1447  2.4686
  988MOL0     H36277   1.919   7.434   7.532 -0.1992 -1.2359 -0.8535
  988MOL0     H36278   2.037   7.346   7.434 -1.9857 -1.3508  0.4765
  988MOL0     H36279   1.841   7.439   7.298 -0.0590 -0.5655  0.5028
  988MOL0     H36280   1.849   7.599   7.371 -1.9879 -0.6507 -2.4843
  988MOL0     H36281   2.121   7.521   7.267  0.6482  1.4119  0.7008
  988MOL0     H36282   1.992   7.513   7.144 -1.7768 -0.5888 -0.0305
  988MOL0     H36283   1.948   7.763   7.257  0.6784  0.3637 -1.2465
  988MOL0     H36284   2.096   7.706   7.349  0.5345  1.2258 -0.2665
  988MOL0     H36285   2.225   7.719   7.144 -0.6216 -0.0425  0.3813
  988MOL0     H36286   2.135   7.866   7.165 -0.5037  1.1046 -2.5399
  988MOL0     H36287   2.049   7.642   6.991 -1.8664  0.0891 -0.9285
  988MOL0     H36288   1.957   7.789   7.007 -1.7697 -2.4487  4.5632
  988MOL0     H36289   2.135   7.748   6.809  1.2728  2.9517 -2.1180
  988MOL0     H36290   2.258   7.785   6.922 -0.4960  0.2219 -0.7457
  988MOL0     H36291   2.168   7.998   6.983 -0.4823  0.1965 -0.6959
  988MOL0     H36292   2.240   7.995   6.820 -0.1835 -0.1597 -1.8808
  988MOL0     H36293   1.975   7.868   6.676 -4.9994  0.2039 -2.7438
  988MOL0     H36294   1.599   7.932   6.747  0.1448  3.4164  0.0151
  988MOL0     H36295   1.726   7.840   6.663  1.9578  0.5989  1.5226
  988MOL0     H36296   1.581   7.983   6.518  0.6912 -0.0959  0.6260
  988MOL0     H36297   1.655   8.125   6.601  0.1702  0.0717 -0.3890
  988MOL0     H36298   1.857   8.069   6.500  0.1682 -0.1196 -0.6944
  988MOL0     H36299   1.805   7.900   6.454 -0.8486 -0.0296 -0.4460
  988MOL0     H36300   1.639   8.031   6.297  0.5195  0.1258 -2.9148
  988MOL0     H36301   1.784   8.148   6.322  3.1801 -1.3438  0.7243
  988MOL0     H36302   1.909   7.814   6.064 -0.5125 -0.3667 -2.3719
  988MOL0     H36303   2.078   7.849   5.755 -3.5004  1.6565  0.6720
  988MOL0     H36304   2.027   7.738   5.879  0.4013  0.4318  2.5682
  988MOL0     H36305   2.189   7.778   5.881 -1.9461 -3.3050 -1.4546
  988MOL0     H36306   2.160   8.471   5.738 -1.6858  0.7964 -2.5667
  988MOL0     H36307   2.299   8.613   5.591  0.8223  0.4056 -1.6631
  988MOL0     H36308   2.471   8.592   5.263  2.5997  0.6301  0.2194
  988MOL0     H36309   2.352   8.647   5.389 -1.6837 -2.6242 -3.7235
  988MOL0     H36310   2.648   8.716   5.379  1.8828  0.9424  1.4355
  988MOL0     H36311   2.513   8.819   5.312 -1.4152 -1.0638 -1.3114
  988MOL0     H36312   2.605   8.864   5.543 -1.7851 -0.1244  2.7425
  988MOL0     H36313   2.476   8.748   5.592 -0.1815 -0.4503  0.8873
  988MOL0     H36314   2.462   9.026   5.461  0.2279  1.2949  1.3531
  988MOL0     H36315   2.400   8.977   5.613 -1.0233  0.2759 -0.6459
  988MOL0     H36316   2.278   8.868   5.339 -0.9586 -3.4374  0.9285
  988MOL0     H36317   2.225   8.838   5.498  3.9775 -0.4157  3.1380
  988MOL0     H36318   2.249   9.124   5.369  3.8350 -0.6091  2.0925
  988MOL0     H36319   2.206   9.088   5.531 -0.6685 -0.5122 -0.4912
  988MOL0     H36320   2.041   8.993   5.295  0.7024 -1.5472  0.5697
  988MOL0     H36321   2.006   9.145   5.394 -2.6732 -1.4938  0.7075
  988MOL0     H36322   1.921   9.015   5.571 -2.2129 -0.9370 -0.6655
  988MOL0     H36323   2.010   8.867   5.512  0.8323 -0.7072 -0.9883
  988MOL0     H36324   2.516   8.263   5.474 -0.4716  4.1180 -3.0145
  988MOL0     H36325   2.324   8.123   5.601  3.0455 -0.8183  0.1031
  988MOL0     H36326   2.064   8.273   5.980  2.3470 -0.0450 -0.8025
  988MOL0     H36327   1.898   8.235   6.147 -0.8405  0.6569 -0.1058
  988MOL0     H36328   2.302   7.677   7.563 -0.9442 -1.3028 -2.4046
  988MOL0     H36329   2.510   7.605   7.696  0.5350  1.9435 -2.2028
  988MOL0     H36330   2.796   7.125   7.522  1.2217  2.4136  0.3261
  988MOL0     H36331   2.933   6.936   7.582 -3.2345  0.7815 -1.1579
  988MOL0     H36332   3.090   6.784   7.708 -0.0152 -2.8366  1.1385
  988MOL0     H36333   3.143   6.940   7.771  1.6735 -0.6519 -1.4849
  988MOL0     H36334   3.293   6.766   7.840  0.6525  2.0739  1.3227
  988MOL0     H36335   3.171   6.674   7.915 -0.5347  0.3826  1.5192
  988MOL0     H36336   3.312   6.837   8.072  2.3631  1.0077 -1.3200
  988MOL0     H36337   3.225   6.965   7.993  2.1628 -0.4674  0.5412
  988MOL0     H36338   2.997   6.866   8.079  0.0579  0.8512 -2.0517
  988MOL0     H36339   3.117   6.926   8.210  5.8790 -2.8840  1.1960
  988MOL0     H36340   3.058   6.524   8.281 -1.1680  0.9237 -0.8613
  988MOL0     H36341   2.829   6.989   7.992  0.3669  0.2724 -0.1442
  988MOL0     H36342   2.681   7.177   8.076  2.7565 -0.7680  0.4310
  988MOL0     H36343   2.707   7.322   7.976  1.8223 -0.7707  0.0623
  988MOL0     H36344   2.563   7.229   7.952 -0.0130 -2.4130  0.3987
  989MOL0     O36345   1.927   6.889   0.098 -0.2338 -0.3352  0.4507
  989MOL0     C36346   2.008   6.797   0.108  0.7600 -0.2234  0.5222
  989MOL0     O36347   2.141   6.796   0.077  0.1229 -0.0420 -0.7051
  989MOL0     C36348   2.182   6.891  -0.010 -0.3949 -0.3335  0.3448
  989MOL0     C36349   2.192   6.880  -0.151 -0.1496  1.2006  0.1933
  989MOL0     C36350   2.238   6.978  -0.236 -0.2072 -0.8806  0.0096
  989MOL0     C36351   2.290   7.094  -0.177  0.2140  0.0155 -0.0074
  989MOL0     O36352   2.336   7.205  -0.243  1.2265  0.0628 -0.7961
  989MOL0     C36353   2.249   7.239  -0.352 -0.3372  0.1146 -0.2766
  989MOL0     C36354   2.280   7.382  -0.396 -0.2286 -0.4338  0.4172
  989MOL0     C36355   2.435   7.423  -0.410  0.2773 -1.3108 -0.0507
  989MOL0     C36356   2.535   7.313  -0.448  0.8220 -0.2320  0.3160
  989MOL0     C36357   2.667   7.366  -0.505  1.0206 -0.1573  0.1342
  989MOL0     C36358   2.746   7.253  -0.591 -0.1087 -0.9436  0.2901
  989MOL0     C36359   2.810   7.159  -0.486 -0.2879 -0.3293  0.5625
  989MOL0     C36360   2.910   7.220  -0.387 -0.0266  0.2790 -0.0756
  989MOL0     N36361   3.012   7.311  -0.449  1.2722  0.5459  0.0369
  989MOL0     C36362   3.107   7.268  -0.541 -0.0349  0.4827 -0.9534
  989MOL0     C36363   3.195   7.371  -0.562 -0.0124  0.6214 -0.5453
  989MOL0     C36364   3.334   7.381  -0.627 -1.4337  0.4072  0.0925
  989MOL0     C36365   3.443   7.338  -0.529  0.7907 -0.2772 -0.6095
  989MOL0     C36366   3.580   7.336  -0.604  0.1214 -0.1856 -0.6053
  989MOL0     C36367   3.689   7.312  -0.497  0.2125 -0.0492  0.2324
  989MOL0     O36368   3.688   7.428  -0.409  0.6383 -0.1012  0.6137
  989MOL0     C36369   3.790   7.439  -0.318  0.6385  0.4854  0.8881
  989MOL0     C36370   3.916   7.476  -0.362  0.1022 -0.5470  0.3895
  989MOL0     C36371   4.020   7.511  -0.271  0.1088 -0.0937  0.1642
  989MOL0     C36372   4.161   7.530  -0.324  0.5110 -0.0001  0.6153
  989MOL0     C36373   3.988   7.512  -0.136  0.1404  0.4163 -1.3700
  989MOL0     C36374   4.089   7.550  -0.035 -0.7926  0.6960  0.3003
  989MOL0     O36375   4.042   7.642   0.056 -0.6588  0.6199 -0.0653
  989MOL0     C36376   4.132   7.685   0.157  0.1820 -0.3634  0.2135
  989MOL0     C36377   4.137   7.820   0.177 -0.4413 -0.0360 -0.3338
  989MOL0     C36378   4.210   7.879   0.287 -1.1594  0.8327 -0.3622
  989MOL0     C36379   4.297   7.794   0.357 -0.4205  0.0400 -0.3959
  989MOL0     O36380   4.371   7.830   0.466 -0.8600 -0.5338 -0.7260
  989MOL0     C36381   4.391   7.971   0.503 -0.3092  0.3037  0.1021
  989MOL0     C36382   4.499   8.032   0.413 -0.1898 -1.5026 -0.0911
  989MOL0     C36383   4.600   8.114   0.483  0.1986 -0.2466  0.2727
  989MOL0     C36384   4.686   8.031   0.578  0.7758  0.4783 -0.5095
  989MOL0     C36385   4.815   8.103   0.603  0.4716  1.4187  0.0548
  989MOL0     C36386   4.797   8.235   0.685 -1.2506  0.4646  0.7910
  989MOL0     C36387   4.923   8.332   0.687  0.5366  0.2466  0.4599
  989MOL0     C36388   4.977   8.387   0.557  0.5488 -0.3662  0.5550
  989MOL0    Cl36389   4.859   8.456   0.449  0.0336  0.0437 -0.6354
  989MOL0     C36390   4.299   7.657   0.332 -0.0196  0.1491  0.7784
  989MOL0     C36391   4.217   7.606   0.237  0.4402 -0.3853 -0.8633
  989MOL0     O36392   4.203   7.505  -0.041 -0.5251  0.3346  0.0874
  989MOL0     C36393   3.857   7.493  -0.087 -0.2767 -0.1338  0.3656
  989MOL0     C36394   3.760   7.452  -0.175 -0.8073  0.0254  0.0477
  989MOL0     N36395   3.152   7.473  -0.488 -0.0585  0.1211 -0.1740
  989MOL0     N36396   3.047   7.439  -0.416 -1.1159  0.0730  0.0426
  989MOL0     C36397   2.283   7.106  -0.038  0.7926  0.5509 -0.2109
  989MOL0     C36398   2.225   7.009   0.048 -0.5321 -0.4060 -0.1612
  989MOL0     C36399   1.953   6.656   0.145  0.2263  0.6716  0.9340
  989MOL0     C36400   2.020   6.554   0.082  0.6057 -0.2037  0.9954
  989MOL0     C36401   2.003   6.419   0.112  0.2303  0.4038  0.8758
  989MOL0     C36402   1.909   6.378   0.202  0.4841 -0.3454 -0.0158
  989MOL0     O36403   1.908   6.247   0.235  0.8252  0.0013  0.3947
  989MOL0     C36404   1.836   6.185   0.347  0.4882  0.5062 -0.1572
  989MOL0     C36405   1.860   6.034   0.357  0.5114  0.3315  0.2868
  989MOL0     C36406   1.751   5.963   0.445 -0.0735  0.2613 -0.8393
  989MOL0     C36407   1.752   5.805   0.430  0.0154 -0.7225 -0.9649
  989MOL0     C36408   1.869   5.743   0.489  0.4565  0.8983 -0.8689
  989MOL0     C36409   1.956   5.671   0.537 -1.1060 -0.3847 -0.0337
  989MOL0     C36410   1.838   6.479   0.270 -0.1760 -0.1597  0.2735
  989MOL0     C36411   1.853   6.620   0.244 -0.9239 -0.0529  0.3785
  989MOL0     C36412   1.778   6.717   0.320  0.0479  0.3508 -0.9253
  989MOL0     H36413   2.159   6.782  -0.181 -0.6585  2.0863 -2.3897
  989MOL0     H36414   2.238   6.963  -0.344 -3.1569 -1.8455  0.0708
  989MOL0     H36415   2.141   7.238  -0.339 -0.5294 -0.8160 -1.6648
  989MOL0     H36416   2.280   7.168  -0.430 -0.2128  0.1688 -0.2771
  989MOL0     H36417   2.237   7.392  -0.496 -0.1790 -1.8482  0.2374
  989MOL0     H36418   2.233   7.459  -0.334 -1.5506  1.0407 -2.2580
  989MOL0     H36419   2.447   7.490  -0.496 -0.5290 -0.3952  0.5261
  989MOL0     H36420   2.471   7.473  -0.320  0.2963  0.1907 -0.8640
  989MOL0     H36421   2.545   7.228  -0.380  0.4414 -0.9208 -0.4662
  989MOL0     H36422   2.485   7.261  -0.530 -1.9307 -1.1747  2.4607
  989MOL0     H36423   2.732   7.413  -0.432 -1.1750  2.1528  0.7214
  989MOL0     H36424   2.646   7.447  -0.576  4.3152 -0.9218 -1.9434
  989MOL0     H36425   2.671   7.201  -0.650 -0.7459  2.4164 -2.2018
  989MOL0     H36426   2.820   7.312  -0.646  0.6824 -0.2832  1.9979
  989MOL0     H36427   2.846   7.071  -0.539 -2.7897 -2.1507  1.6859
  989MOL0     H36428   2.733   7.122  -0.418  0.8614 -0.0852  2.0593
  989MOL0     H36429   2.861   7.266  -0.300  3.5724  0.9893  1.7654
  989MOL0     H36430   2.966   7.135  -0.346  0.3696  0.8371  0.5745
  989MOL0     H36431   3.114   7.168  -0.582 -0.9462  1.3296 -3.3349
  989MOL0     H36432   3.353   7.484  -0.660  3.4146  0.3210  1.7773
  989MOL0     H36433   3.336   7.307  -0.707 -0.6972 -0.5433  0.9530
  989MOL0     H36434   3.441   7.421  -0.458 -1.0952 -2.7454  2.4460
  989MOL0     H36435   3.427   7.241  -0.482  0.5504  0.0097 -0.1005
  989MOL0     H36436   3.579   7.258  -0.681  4.8837  2.0672 -3.4270
  989MOL0     H36437   3.596   7.434  -0.650  2.7097  0.9008  2.2665
  989MOL0     H36438   3.686   7.220  -0.438  1.1832  0.9006  1.8399
  989MOL0     H36439   3.784   7.299  -0.549 -2.1974 -2.9117 -4.1054
  989MOL0     H36440   3.939   7.484  -0.468 -2.9022  0.1005 -0.3094
  989MOL0     H36441   4.227   7.447  -0.299  4.3105  2.5518 -0.1655
  989MOL0     H36442   4.205   7.624  -0.290 -2.1957  1.6898 -0.2012
  989MOL0     H36443   4.168   7.538  -0.433  2.2008 -0.0069  0.6959
  989MOL0     H36444   4.076   7.880   0.111 -0.3384 -0.9052 -1.2579
  989MOL0     H36445   4.234   7.985   0.290  0.4492  0.4876  0.3708
  989MOL0     H36446   4.303   8.035   0.514 -1.0066 -0.2501 -1.8596
  989MOL0     H36447   4.435   7.964   0.603  2.7330 -3.5417 -1.2366
  989MOL0     H36448   4.542   7.950   0.355  1.2021 -2.8415  2.6364
  989MOL0     H36449   4.440   8.089   0.341 -0.3139 -1.6401 -0.0983
  989MOL0     H36450   4.549   8.194   0.539  1.1249  2.3500 -2.3482
  989MOL0     H36451   4.663   8.170   0.414 -1.8504  1.4225 -0.3465
  989MOL0     H36452   4.714   7.934   0.537  2.3837  0.9008 -0.4809
  989MOL0     H36453   4.639   8.022   0.676  1.3146  0.6536 -0.2293
  989MOL0     H36454   4.881   8.033   0.655 -1.9217 -0.9017  0.1236
  989MOL0     H36455   4.860   8.126   0.506 -1.7687 -1.4097 -1.8046
  989MOL0     H36456   4.777   8.195   0.785 -0.8379 -1.3859  0.1832
  989MOL0     H36457   4.709   8.294   0.658 -0.1497  2.1600  0.8158
  989MOL0     H36458   5.009   8.279   0.727  0.6860  1.5730  2.0007
  989MOL0     H36459   4.899   8.409   0.761 -0.6617  0.9565 -0.6043
  989MOL0     H36460   5.025   8.312   0.495 -2.0105  0.1454 -2.3053
  989MOL0     H36461   5.052   8.466   0.569 -0.4938  0.5986  0.9913
  989MOL0     H36462   4.345   7.584   0.397 -0.8918 -0.4207  0.7783
  989MOL0     H36463   4.213   7.497   0.234  1.1203 -0.4588  0.2465
  989MOL0     H36464   3.827   7.487   0.017 -1.3833 -1.6832 -0.0092
  989MOL0     H36465   3.661   7.433  -0.133 -1.2347  0.8218 -0.5663
  989MOL0     H36466   2.333   7.193   0.003 -0.1250  0.9696  0.0662
  989MOL0     H36467   2.240   7.010   0.155  0.7411  3.5152 -0.1960
  989MOL0     H36468   2.096   6.577   0.008 -2.7852  0.3030 -2.6871
  989MOL0     H36469   2.065   6.342   0.066 -0.5304 -2.5144  4.2045
  989MOL0     H36470   1.849   6.232   0.445 -1.4387 -1.8287  1.3469
  989MOL0     H36471   1.729   6.193   0.324  0.4898  4.8012  0.5235
  989MOL0     H36472   1.954   6.026   0.412  1.1565 -1.9393 -1.0114
  989MOL0     H36473   1.869   5.988   0.258  1.3147 -3.6894  2.0542
  989MOL0     H36474   1.773   5.977   0.551  1.4730 -1.0872 -0.9476
  989MOL0     H36475   1.653   6.000   0.414  0.3085  1.7502 -0.3606
  989MOL0     H36476   1.750   5.776   0.324 -0.9773  1.1458 -1.4958
  989MOL0     H36477   1.671   5.765   0.492  0.3214  2.3770  1.6343
  989MOL0     H36478   2.019   5.594   0.577 -3.2965 -1.3463  1.8004
  989MOL0     H36479   1.765   6.456   0.347 -2.8122  2.0677 -1.3624
  989MOL0     H36480   1.846   6.772   0.385 -0.2470  0.3773 -0.6387
  989MOL0     H36481   1.729   6.780   0.245  0.7393 -0.5290 -2.1615
  989MOL0     H36482   1.703   6.669   0.383  0.2808  2.0040  0.6866
  990MOL0     O36483   1.203   0.520   4.530 -0.0203 -0.0503 -0.5339
  990MOL0     C36484   1.106   0.591   4.567  0.1561  0.2692  0.6618
  990MOL0     O36485   1.119   0.692   4.650 -0.2645 -0.3411 -0.3533
  990MOL0     C36486   1.245   0.721   4.699  0.0063  0.7985 -0.5088
  990MOL0     C36487   1.332   0.780   4.608  0.0922  0.5411  0.6697
  990MOL0     C36488   1.463   0.820   4.636 -0.2303  0.2600  0.7060
  990MOL0     C36489   1.510   0.817   4.775  0.5869 -0.0075  0.6304
  990MOL0     O36490   1.638   0.847   4.818  0.1964 -0.7339 -1.0902
  990MOL0     C36491   1.728   0.879   4.724 -0.5749  0.0638  0.5171
  990MOL0     C36492   1.869   0.858   4.782 -0.5151  0.0395 -0.6730
  990MOL0     C36493   1.899   0.971   4.888  0.2947  0.5782 -1.6828
  990MOL0     C36494   1.955   1.086   4.806 -0.9604  0.0856 -0.8893
  990MOL0     C36495   1.923   1.230   4.870 -0.2624  0.4969  0.2915
  990MOL0     C36496   2.026   1.272   4.984 -0.1258 -0.0061  0.1688
  990MOL0     C36497   2.014   1.424   5.010 -0.3683  0.0510  0.1262
  990MOL0     C36498   2.128   1.471   5.098  0.2468  0.5107 -0.7998
  990MOL0     N36499   2.122   1.608   5.146 -0.7424 -0.6173 -0.8928
  990MOL0     C36500   2.042   1.655   5.245 -0.3802  0.0859  0.4088
  990MOL0     C36501   2.091   1.778   5.280 -0.5929  0.4148  0.8366
  990MOL0     C36502   2.030   1.863   5.385 -0.4624 -0.0889  0.2498
  990MOL0     C36503   2.135   1.906   5.499  1.0417 -0.1275 -0.5246
  990MOL0     C36504   2.054   1.942   5.625  0.0507 -0.6027 -0.2712
  990MOL0     C36505   2.114   1.895   5.761  0.0967  0.3733 -0.6103
  990MOL0     O36506   2.250   1.920   5.765 -0.6152  0.0032  0.5823
  990MOL0     C36507   2.294   2.047   5.795  0.7323 -0.1846 -0.3307
  990MOL0     C36508   2.287   2.144   5.703  0.0135 -0.2753 -0.8765
  990MOL0     C36509   2.335   2.275   5.732 -0.6818  0.3661  0.2352
  990MOL0     C36510   2.357   2.359   5.606  0.1091  0.4681 -0.2643
  990MOL0     C36511   2.372   2.313   5.861  0.0365  0.2957 -0.2238
  990MOL0     C36512   2.430   2.448   5.888 -0.5320 -0.3034 -0.2957
  990MOL0     O36513   2.481   2.457   6.012  0.0529  0.2413  0.2896
  990MOL0     C36514   2.545   2.573   6.035 -0.5054 -0.2971 -0.1160
  990MOL0     C36515   2.663   2.604   5.958 -0.0984  1.0470  0.1137
  990MOL0     C36516   2.740   2.713   5.990 -0.2219  0.0605  1.0345
  990MOL0     C36517   2.702   2.792   6.102 -0.3292 -0.1087  0.3694
  990MOL0     O36518   2.794   2.896   6.135 -0.5295 -0.2504 -0.0311
  990MOL0     C36519   2.805   2.950   6.270  0.7382 -0.0003 -0.3349
  990MOL0     C36520   2.926   2.908   6.342 -0.8660 -0.1864 -0.1734
  990MOL0     C36521   3.057   2.892   6.253  1.2223  0.6511 -0.0103
  990MOL0     C36522   3.100   3.025   6.197 -0.5128 -0.2499  0.4282
  990MOL0     C36523   3.237   3.015   6.131 -0.5279  0.0023 -0.2540
  990MOL0     C36524   3.355   3.018   6.228 -0.0390  0.2233  0.4110
  990MOL0     C36525   3.488   2.977   6.162 -0.0545  0.0314  0.3951
  990MOL0     C36526   3.554   2.855   6.216 -0.1668  0.3820 -0.5481
  990MOL0    Cl36527   3.633   2.892   6.389  0.0643  0.1931  0.4766
  990MOL0     C36528   2.583   2.766   6.175 -0.2592 -1.2662  0.5659
  990MOL0     C36529   2.515   2.648   6.143 -0.1366  0.5461 -2.1769
  990MOL0     O36530   2.411   2.538   5.806  0.2723 -0.0683  0.3450
  990MOL0     C36531   2.361   2.211   5.957  0.9800 -1.0174 -0.9506
  990MOL0     C36532   2.325   2.078   5.928 -0.3829 -0.4553  0.2267
  990MOL0     N36533   2.191   1.808   5.189  0.3301  0.6283  0.5476
  990MOL0     N36534   2.209   1.711   5.111  0.7035 -0.2658 -1.2252
  990MOL0     C36535   1.414   0.761   4.866  1.3246  1.4875  0.0747
  990MOL0     C36536   1.284   0.712   4.834 -0.3021 -0.8108 -0.6543
  990MOL0     C36537   0.970   0.552   4.506  0.5062  0.0987  0.3125
  990MOL0     C36538   0.858   0.624   4.551 -0.1155 -0.3887 -0.7159
  990MOL0     C36539   0.731   0.588   4.504  0.8264  0.0432 -0.0069
  990MOL0     C36540   0.708   0.464   4.438 -0.3271 -0.0140  1.5611
  990MOL0     O36541   0.582   0.431   4.410  0.0714  0.3548  0.4166
  990MOL0     C36542   0.530   0.456   4.277 -0.2859 -0.2675  0.0129
  990MOL0     C36543   0.557   0.338   4.183 -0.0688  0.2096 -0.0897
  990MOL0     C36544   0.484   0.365   4.050  1.2346 -0.1832 -1.4201
  990MOL0     C36545   0.530   0.288   3.932  0.0320 -0.4947 -0.9738
  990MOL0     C36546   0.523   0.144   3.959 -0.4863 -0.1497  0.5100
  990MOL0     C36547   0.524   0.024   3.985 -0.2690 -0.0307 -0.3598
  990MOL0     C36548   0.821   0.398   4.396 -0.4983  0.2833 -0.9520
  990MOL0     C36549   0.951   0.439   4.416 -0.3045 -0.2548 -0.2667
  990MOL0     C36550   1.064   0.352   4.365 -0.4578  0.0283  0.3800
  990MOL0     H36551   1.299   0.796   4.506  0.2271  4.1157  1.0447
  990MOL0     H36552   1.528   0.846   4.553  1.3964  2.1011  2.4716
  990MOL0     H36553   1.710   0.979   4.683 -1.1883 -0.2152  0.0897
  990MOL0     H36554   1.720   0.820   4.633  0.3430  2.8108 -1.4985
  990MOL0     H36555   1.862   0.763   4.835 -0.9307  0.3939 -0.0794
  990MOL0     H36556   1.940   0.861   4.699 -1.0763 -0.5633 -1.1877
  990MOL0     H36557   1.803   0.981   4.940 -0.7131 -1.5544 -2.9751
  990MOL0     H36558   1.980   0.938   4.953 -2.8739 -1.0261  1.8847
  990MOL0     H36559   2.063   1.074   4.810 -0.7408  1.7078 -1.0400
  990MOL0     H36560   1.922   1.085   4.701 -1.6601 -0.0229 -0.6724
  990MOL0     H36561   1.817   1.238   4.897 -0.3311 -1.5942  0.8052
  990MOL0     H36562   1.925   1.309   4.795 -1.9931  2.3108  2.0527
  990MOL0     H36563   2.011   1.220   5.079 -1.0795  1.8284  1.0797
  990MOL0     H36564   2.133   1.261   4.966  0.2358  1.5320  1.1801
  990MOL0     H36565   1.924   1.439   5.070 -0.4527 -4.4556  1.4596
  990MOL0     H36566   2.008   1.478   4.915  1.4050 -0.6314 -0.4353
  990MOL0     H36567   2.143   1.402   5.181  0.9529 -0.1639 -1.4767
  990MOL0     H36568   2.212   1.467   5.028  1.2805  3.1588  0.1636
  990MOL0     H36569   1.949   1.614   5.283 -0.6182 -0.5136 -0.7487
  990MOL0     H36570   1.949   1.801   5.424  0.6638  0.6818  4.2499
  990MOL0     H36571   2.002   1.955   5.333 -1.6954 -0.7267 -0.2561
  990MOL0     H36572   2.209   1.833   5.535  0.2262 -0.4867  0.4740
  990MOL0     H36573   2.190   1.988   5.452 -0.7668  2.9004  2.2538
  990MOL0     H36574   2.043   2.050   5.631  1.6743 -0.3515 -1.1605
  990MOL0     H36575   1.953   1.904   5.608 -0.4610  0.8369 -0.5892
  990MOL0     H36576   2.065   1.950   5.842  3.4321  0.1248  1.7859
  990MOL0     H36577   2.098   1.787   5.769  1.3042  0.2603  0.5076
  990MOL0     H36578   2.250   2.123   5.603 -1.5062 -2.8112  0.1357
  990MOL0     H36579   2.353   2.297   5.516  0.2621 -0.3110  0.2574
  990MOL0     H36580   2.457   2.401   5.617 -0.7997  2.4280  0.9953
  990MOL0     H36581   2.279   2.436   5.599 -0.9978 -0.6638 -0.8757
  990MOL0     H36582   2.691   2.543   5.873 -1.3015  1.5589 -0.6743
  990MOL0     H36583   2.830   2.731   5.932 -2.4021  0.5694 -2.4946
  990MOL0     H36584   2.821   3.055   6.244  2.1381 -0.8332 -3.3270
  990MOL0     H36585   2.719   2.922   6.331  1.8365 -0.2280  1.1674
  990MOL0     H36586   2.953   2.967   6.430  4.0597 -0.9562 -0.8789
  990MOL0     H36587   2.908   2.804   6.373 -0.0725  0.3471  2.2606
  990MOL0     H36588   3.037   2.825   6.169  1.0607  2.7067 -1.7065
  990MOL0     H36589   3.139   2.847   6.310  1.1632  0.7099  0.1197
  990MOL0     H36590   3.100   3.104   6.274 -1.3034  0.3708 -0.1840
  990MOL0     H36591   3.028   3.057   6.121  1.3917  3.1568 -0.1478
  990MOL0     H36592   3.232   2.928   6.065 -1.3203 -0.2116  0.0702
  990MOL0     H36593   3.257   3.103   6.069 -0.3335 -0.5324 -0.9555
  990MOL0     H36594   3.335   2.959   6.318 -2.1062  3.1643  2.0559
  990MOL0     H36595   3.359   3.121   6.262 -0.7650 -0.2789  2.1244
  990MOL0     H36596   3.561   3.058   6.175  0.2122 -0.2607  0.7406
  990MOL0     H36597   3.482   2.960   6.055  0.6793  2.1545 -0.0347
  990MOL0     H36598   3.631   2.828   6.143 -0.5763 -0.3719 -0.7143
  990MOL0     H36599   3.485   2.770   6.225  0.6004 -0.3701 -1.4874
  990MOL0     H36600   2.548   2.839   6.248 -0.8047  0.7049 -1.5598
  990MOL0     H36601   2.426   2.621   6.199  1.0447 -1.6711 -1.2115
  990MOL0     H36602   2.395   2.238   6.057  1.6550 -2.1872 -0.8441
  990MOL0     H36603   2.341   2.002   6.004  0.5950 -0.2795  0.2093
  990MOL0     H36604   1.446   0.760   4.970 -1.4485  1.1203  1.0158
  990MOL0     H36605   1.217   0.659   4.902  0.3780 -4.0091 -2.2517
  990MOL0     H36606   0.855   0.697   4.631 -1.4253 -0.9895 -0.1773
  990MOL0     H36607   0.651   0.650   4.542 -0.0774 -1.5169  0.7592
  990MOL0     H36608   0.423   0.473   4.291 -0.2144 -0.4615  0.8262
  990MOL0     H36609   0.564   0.554   4.241 -4.0810  0.9403 -0.7257
  990MOL0     H36610   0.530   0.246   4.235  3.5905 -0.0779  1.6500
  990MOL0     H36611   0.665   0.331   4.164 -0.1621  0.6610 -0.8278
  990MOL0     H36612   0.376   0.350   4.058  1.0658  1.0023 -1.2605
  990MOL0     H36613   0.499   0.471   4.025  1.7219  0.5279  1.5010
  990MOL0     H36614   0.627   0.329   3.903  0.8520 -1.8675 -0.2733
  990MOL0     H36615   0.460   0.304   3.849 -0.8864 -0.2350 -0.1621
  990MOL0     H36616   0.533  -0.081   4.005  1.7620  0.2965  0.7221
  990MOL0     H36617   0.805   0.305   4.341 -1.4199 -1.0231  1.3692
  990MOL0     H36618   1.148   0.411   4.326 -0.9120  1.3124  1.3151
  990MOL0     H36619   1.098   0.281   4.441  0.6602  0.6761  0.5148
  990MOL0     H36620   1.030   0.301   4.274 -4.0827  3.5272 -0.5012
  991MOL0     O36621   2.335   6.281  10.101 -0.0725 -0.3744  1.1087
  991MOL0     C36622   2.304   6.349  10.193  0.2664  0.6802  0.0299
  991MOL0     O36623   2.325   6.320  10.325 -1.0081  0.0862 -0.1813
  991MOL0     C36624   2.333   6.185  10.360 -0.4602  0.3803  0.2646
  991MOL0     C36625   2.259   6.077  10.305 -0.8844 -0.6258  0.0614
  991MOL0     C36626   2.278   5.943  10.347 -0.1593  0.4696  0.1608
  991MOL0     C36627   2.367   5.912  10.449 -0.2990 -0.0193  0.0833
  991MOL0     O36628   2.390   5.786  10.498 -0.0441  0.1634  0.1977
  991MOL0     C36629   2.404   5.686  10.406 -0.6748  0.5607  0.8215
  991MOL0     C36630   2.478   5.572  10.464 -0.4279  0.4556 -0.0495
  991MOL0     C36631   2.406   5.504  10.577  0.1930 -0.2467 -0.0873
  991MOL0     C36632   2.500   5.413  10.656  0.9276 -0.0139 -0.0514
  991MOL0     C36633   2.428   5.338  10.780  0.0591  0.3059 -0.1504
  991MOL0     C36634   2.514   5.222  10.842  0.2586  0.2056 -0.5465
  991MOL0     C36635   2.664   5.256  10.862  0.1244 -0.1073  0.3221
  991MOL0     C36636   2.738   5.148  10.940  0.3078  1.0507  0.6482
  991MOL0     N36637   2.787   5.042  10.849 -0.4564 -0.0491  0.2221
  991MOL0     C36638   2.717   4.922  10.833  0.3986 -1.0454  0.2879
  991MOL0     C36639   2.762   4.876  10.714  0.7852 -0.8564  0.6202
  991MOL0     C36640   2.729   4.751  10.642  0.3196  0.4119 -0.4145
  991MOL0     C36641   2.575   4.746  10.627 -0.5941 -0.7261  0.3927
  991MOL0     C36642   2.523   4.857  10.525  0.5893  0.1916 -0.2688
  991MOL0     C36643   2.372   4.859  10.516  0.2439 -0.2741 -0.3008
  991MOL0     O36644   2.331   4.973  10.593  0.1861 -0.0739  0.0767
  991MOL0     C36645   2.212   5.025  10.558  0.0375 -0.0873 -0.2939
  991MOL0     C36646   2.168   5.049  10.423 -0.0482  0.2595  0.0609
  991MOL0     C36647   2.046   5.112  10.392 -0.8373 -0.4291  0.4476
  991MOL0     C36648   1.998   5.094  10.253  0.5957  0.8620  0.9615
  991MOL0     C36649   1.957   5.154  10.495 -0.0329 -0.0058 -0.3383
  991MOL0     C36650   1.823   5.197  10.488 -0.1056 -0.4366  0.7627
  991MOL0     O36651   1.798   5.276  10.376 -0.3454  0.8192  0.7220
  991MOL0     C36652   1.667   5.292  10.341  0.0113 -0.3118  0.4262
  991MOL0     C36653   1.562   5.195  10.336 -0.2780  0.1493  0.1837
  991MOL0     C36654   1.432   5.232  10.322  0.8416  0.1286 -0.0936
  991MOL0     C36655   1.397   5.368  10.322 -0.7168  0.3365 -0.1791
  991MOL0     O36656   1.269   5.409  10.307  1.0223 -0.1840  0.6452
  991MOL0     C36657   1.156   5.319  10.289 -0.3932  0.2501 -0.7923
  991MOL0     C36658   1.022   5.398  10.257  0.7902 -0.6250 -0.7692
  991MOL0     C36659   0.966   5.445  10.393 -0.8135 -0.6670 -0.5269
  991MOL0     C36660   0.883   5.570  10.362  0.5291 -0.4920  0.3492
  991MOL0     C36661   0.841   5.624  10.493  0.0662 -0.0466  0.1463
  991MOL0     C36662   0.755   5.749  10.467  0.0471  0.4910  1.2302
  991MOL0     C36663   0.665   5.763  10.587  0.6573 -1.0998  0.3015
  991MOL0     C36664   0.582   5.890  10.577 -0.3674 -0.1661 -0.3094
  991MOL0    Cl36665   0.483   5.877  10.718  0.1342 -0.0970 -0.0558
  991MOL0     C36666   1.489   5.468  10.322 -0.6437  0.4497  0.6689
  991MOL0     C36667   1.620   5.428  10.331 -0.0785  0.6314 -0.0066
  991MOL0     O36668   1.740   5.176  10.573 -0.0430  0.5417 -0.3428
  991MOL0     C36669   1.994   5.124  10.625  0.9347 -0.0254 -0.5605
  991MOL0     C36670   2.122   5.069  10.655 -0.0752 -0.4620  0.4583
  991MOL0     N36671   2.860   4.960  10.666  0.1724  0.1233 -1.8941
  991MOL0     N36672   2.884   5.060  10.752  0.3189 -1.0523  0.2335
  991MOL0     C36673   2.431   6.019  10.514  1.1597  0.7448  0.1178
  991MOL0     C36674   2.425   6.153  10.467 -0.1311  1.0172 -0.9691
  991MOL0     C36675   2.247   6.485  10.188  0.4608 -0.4531  0.8539
  991MOL0     C36676   2.268   6.572  10.297  0.1757  0.3980  0.6077
  991MOL0     C36677   2.212   6.699  10.296 -0.1504 -0.6986  0.0324
  991MOL0     C36678   2.125   6.745  10.186 -1.0734  0.5254 -0.2647
  991MOL0     O36679   2.077   6.873  10.184  0.7159 -0.0087  0.6021
  991MOL0     C36680   2.098   6.965  10.286  0.1474  0.1491 -0.1756
  991MOL0     C36681   2.007   7.089  10.283  0.1671 -0.6790  0.8488
  991MOL0     C36682   2.066   7.200  10.377 -0.4509  0.2369 -0.1049
  991MOL0     C36683   1.970   7.319  10.375 -0.3233 -0.1371 -0.1911
  991MOL0     C36684   2.033   7.417  10.467  0.3118  0.7846  0.1925
  991MOL0     C36685   2.092   7.491  10.545 -0.0658  0.6131 -0.5953
  991MOL0     C36686   2.101   6.651  10.080  0.2331 -0.2953 -0.1587
  991MOL0     C36687   2.167   6.530  10.076 -0.7607  0.6387  0.8137
  991MOL0     C36688   2.146   6.455   9.946 -0.7563  0.0346 -0.1933
  991MOL0     H36689   2.184   6.080  10.226  0.0033 -2.2827 -0.9183
  991MOL0     H36690   2.229   5.863  10.292 -0.0090  1.0285 -0.8126
  991MOL0     H36691   2.455   5.714  10.313  0.1858 -1.1218  0.7317
  991MOL0     H36692   2.314   5.645  10.359  0.0254 -0.5708  0.3907
  991MOL0     H36693   2.493   5.502  10.381  0.3269  2.0902 -1.3486
  991MOL0     H36694   2.568   5.614  10.509 -1.2537  2.3714 -0.1024
  991MOL0     H36695   2.372   5.578  10.648  0.0214 -1.7823  1.4944
  991MOL0     H36696   2.313   5.458  10.544 -0.0476 -0.1101  0.4035
  991MOL0     H36697   2.537   5.334  10.590  1.1984 -0.3040  0.4438
  991MOL0     H36698   2.586   5.469  10.696 -0.5479  1.7461  0.8364
  991MOL0     H36699   2.344   5.289  10.730  1.1961 -1.4501 -0.4383
  991MOL0     H36700   2.382   5.408  10.850  0.8814 -1.6386  2.5311
  991MOL0     H36701   2.467   5.198  10.939  0.4532  3.5135  0.4839
  991MOL0     H36702   2.511   5.131  10.781  0.7948 -0.2512  0.0863
  991MOL0     H36703   2.660   5.341  10.931 -1.0350  0.0282  0.0976
  991MOL0     H36704   2.718   5.280  10.770 -1.7552  4.5834  0.1992
  991MOL0     H36705   2.828   5.190  10.986  1.1760 -0.3965  0.3237
  991MOL0     H36706   2.678   5.093  11.013  0.6939 -2.6019 -1.5282
  991MOL0     H36707   2.644   4.875  10.897 -2.0387  1.1510 -0.7056
  991MOL0     H36708   2.766   4.659  10.688  0.3470  1.0091  0.8178
  991MOL0     H36709   2.780   4.752  10.546  0.0882  1.3502 -0.5348
  991MOL0     H36710   2.552   4.643  10.599  1.0370 -0.7573 -1.0633
  991MOL0     H36711   2.532   4.764  10.725 -3.1373  0.5266 -0.8554
  991MOL0     H36712   2.552   4.955  10.563 -1.1866 -0.0583  1.9342
  991MOL0     H36713   2.579   4.832  10.434  2.1165 -0.2531  0.7591
  991MOL0     H36714   2.331   4.850  10.414  0.0960 -0.9697 -0.1842
  991MOL0     H36715   2.324   4.769  10.555 -0.8225  0.2736 -0.2842
  991MOL0     H36716   2.228   5.020  10.337  0.0844  2.8845 -0.8210
  991MOL0     H36717   2.063   5.155  10.189  2.4104 -3.0346 -1.3721
  991MOL0     H36718   1.892   5.111  10.230  0.3078 -1.0786  0.6055
  991MOL0     H36719   2.014   4.994  10.211  0.3193  1.0254  0.4520
  991MOL0     H36720   1.583   5.090  10.351 -2.1256 -0.2068  0.5128
  991MOL0     H36721   1.350   5.161  10.319 -0.2584  1.1969  1.9892
  991MOL0     H36722   1.173   5.253  10.205  2.0866 -0.3226  0.0799
  991MOL0     H36723   1.153   5.251  10.375  1.8542  0.2346 -0.6830
  991MOL0     H36724   1.051   5.480  10.192 -1.7321  2.7415  1.9836
  991MOL0     H36725   0.952   5.327  10.211 -0.6763 -0.3189  0.8677
  991MOL0     H36726   1.052   5.472  10.455  0.2882  2.3931 -3.0724
  991MOL0     H36727   0.899   5.366  10.427 -2.7316  2.0114  2.4424
  991MOL0     H36728   0.804   5.542  10.291 -0.1259  1.9800  0.0062
  991MOL0     H36729   0.945   5.649  10.318 -1.2984 -0.1093 -1.6859
  991MOL0     H36730   0.793   5.550  10.558  4.3845  0.2399  4.2220
  991MOL0     H36731   0.929   5.645  10.555  1.0990 -3.0756 -0.1113
  991MOL0     H36732   0.695   5.734  10.377 -0.3000  1.1497  1.3431
  991MOL0     H36733   0.827   5.830  10.449  1.2800 -1.4287 -4.2551
  991MOL0     H36734   0.741   5.771  10.665  1.2224 -0.4949 -0.2994
  991MOL0     H36735   0.609   5.674  10.619 -2.4191  1.6993  3.5691
  991MOL0     H36736   0.532   5.882  10.480  1.8508  0.5267 -1.5926
  991MOL0     H36737   0.648   5.977  10.587  0.6504 -0.9538 -0.0469
  991MOL0     H36738   1.471   5.575  10.314  0.3285  0.5840  0.1503
  991MOL0     H36739   1.682   5.517  10.336  0.0462  0.7305 -2.3758
  991MOL0     H36740   1.929   5.150  10.708 -0.2442 -0.4581 -1.3184
  991MOL0     H36741   2.147   5.064  10.761  1.4016 -1.3211  0.0906
  991MOL0     H36742   2.497   5.994  10.597 -1.4369 -0.3560  2.0164
  991MOL0     H36743   2.470   6.234  10.523 -1.9802 -0.1661  2.4989
  991MOL0     H36744   2.343   6.543  10.370  2.2888  1.2150 -1.1454
  991MOL0     H36745   2.242   6.771  10.371 -3.1247  3.1251 -2.0777
  991MOL0     H36746   2.089   6.910  10.380  1.3233 -0.7568 -0.5657
  991MOL0     H36747   2.200   7.003  10.282  0.7467 -0.8007  2.9753
  991MOL0     H36748   1.906   7.065  10.319 -1.0355  4.9259  2.1870
  991MOL0     H36749   2.000   7.137  10.185 -1.6261 -0.7476  0.9154
  991MOL0     H36750   2.084   7.159  10.477 -1.8342 -2.5828 -0.9048
  991MOL0     H36751   2.165   7.228  10.338 -1.1461 -1.0134 -3.0390
  991MOL0     H36752   1.875   7.297  10.425  1.4024  3.4106  5.5517
  991MOL0     H36753   1.965   7.374  10.280 -0.7109  2.4072  1.2211
  991MOL0     H36754   2.149   7.563  10.600  0.8589  0.8926 -1.8505
  991MOL0     H36755   2.032   6.691  10.007 -1.1766 -0.1068  1.2360
  991MOL0     H36756   2.161   6.525   9.863 -0.8312  0.9767  0.5665
  991MOL0     H36757   2.206   6.367   9.922 -1.8265 -1.2285  1.5300
  991MOL0     H36758   2.045   6.415   9.944  0.3531 -3.0046 -2.0922
  992MOL0     O36759   3.252   0.633   3.025 -0.6308  0.6749 -0.2843
  992MOL0     C36760   3.144   0.627   3.070 -0.6278  0.5791 -1.1137
  992MOL0     O36761   3.116   0.610   3.208  0.7976 -0.2134 -0.1180
  992MOL0     C36762   3.216   0.626   3.295  0.1170  1.4269 -0.0061
  992MOL0     C36763   3.331   0.714   3.279  1.1045 -0.1777 -0.3162
  992MOL0     C36764   3.443   0.707   3.357 -0.1167  1.5384  0.3546
  992MOL0     C36765   3.445   0.618   3.468 -0.6093  0.4427  0.5959
  992MOL0     O36766   3.536   0.602   3.567 -0.2737 -0.2453  0.0873
  992MOL0     C36767   3.672   0.646   3.544  0.9281 -0.6470  0.3623
  992MOL0     C36768   3.765   0.635   3.663 -0.7742 -0.6822  0.5562
  992MOL0     C36769   3.732   0.511   3.749  0.5774  0.3374 -0.0035
  992MOL0     C36770   3.827   0.500   3.862  0.0752  0.8171 -0.3329
  992MOL0     C36771   3.801   0.371   3.942 -0.2155 -0.0942 -0.2181
  992MOL0     C36772   3.906   0.345   4.066  0.2656 -0.2290 -0.6396
  992MOL0     C36773   3.896   0.444   4.179  0.8077  0.4014 -0.3593
  992MOL0     C36774   4.015   0.433   4.280 -0.1507  0.6417  1.4014
  992MOL0     N36775   4.153   0.429   4.223  0.0470 -0.3594  0.4999
  992MOL0     C36776   4.221   0.311   4.185  0.4554  0.0416 -0.0774
  992MOL0     C36777   4.340   0.365   4.153 -0.2183  0.1229 -0.4117
  992MOL0     C36778   4.453   0.300   4.088  0.3003  0.7447 -0.2188
  992MOL0     C36779   4.557   0.265   4.195  0.9470  0.0368  0.1930
  992MOL0     C36780   4.669   0.197   4.116 -1.1588  0.0281 -0.1173
  992MOL0     C36781   4.628   0.059   4.051 -0.6305 -0.5373  0.4254
  992MOL0     O36782   4.735  -0.017   3.999 -0.1227 -0.0407  0.3255
  992MOL0     C36783   4.811   0.037   3.899 -0.7887 -0.4532  0.3200
  992MOL0     C36784   4.767   0.140   3.817 -0.3743 -0.3863 -0.0742
  992MOL0     C36785   4.851   0.188   3.713 -0.6547 -0.9341  0.1714
  992MOL0     C36786   4.795   0.291   3.622  0.7008  0.4280  0.2019
  992MOL0     C36787   4.988   0.145   3.691  0.6324 -0.1429 -0.8960
  992MOL0     C36788   5.091   0.232   3.628  0.1519  0.5780  0.6559
  992MOL0     O36789   5.208   0.171   3.594 -0.0706 -0.2776 -0.4100
  992MOL0     C36790   5.310   0.243   3.533  0.0954  1.0056  0.0704
  992MOL0     C36791   5.439   0.182   3.533  0.1811  0.8782  0.6307
  992MOL0     C36792   5.550   0.227   3.467  0.8052 -0.4150  0.1664
  992MOL0     C36793   5.531   0.334   3.381 -0.3265  0.2250 -0.5307
  992MOL0     O36794   5.626   0.397   3.307 -0.1274 -0.1185  0.3780
  992MOL0     C36795   5.765   0.364   3.297  0.1198  0.1137  0.5833
  992MOL0     C36796   5.800   0.245   3.217 -0.5576 -0.5003  0.3974
  992MOL0     C36797   5.765   0.255   3.073  0.5664 -0.6510  0.5273
  992MOL0     C36798   5.774   0.127   3.010 -0.2032  1.6957 -0.4640
  992MOL0     C36799   5.691   0.116   2.872 -0.1188 -0.8042 -0.2324
  992MOL0     C36800   5.539   0.106   2.890 -0.6927  0.2429 -0.6547
  992MOL0     C36801   5.460   0.097   2.764  1.2526  0.4209  0.8675
  992MOL0     C36802   5.318   0.041   2.798  0.0540  0.1361  0.2688
  992MOL0    Cl36803   5.225   0.022   2.652  0.6413  0.2696  0.0836
  992MOL0     C36804   5.409   0.391   3.379  1.7165 -0.4998  0.3265
  992MOL0     C36805   5.294   0.345   3.442 -0.3624 -0.3843 -0.1864
  992MOL0     O36806   5.076   0.353   3.633  0.2378  0.4864  0.2568
  992MOL0     C36807   5.027   0.038   3.773 -0.7791  0.2288 -0.2594
  992MOL0     C36808   4.935  -0.017   3.868 -0.7454 -0.2272 -0.1702
  992MOL0     N36809   4.344   0.505   4.172 -0.0375  0.3134 -0.4248
  992MOL0     N36810   4.227   0.542   4.202 -0.3873 -0.3056 -0.1958
  992MOL0     C36811   3.330   0.543   3.488 -1.3983 -1.0725 -0.2388
  992MOL0     C36812   3.216   0.542   3.400 -0.4808 -0.2841 -0.9887
  992MOL0     C36813   3.028   0.643   2.984 -0.0305  0.3660 -0.5676
  992MOL0     C36814   2.905   0.607   3.028  0.1036 -0.3360 -0.4711
  992MOL0     C36815   2.787   0.633   2.961 -0.1182  0.4374 -0.1047
  992MOL0     C36816   2.785   0.705   2.837  0.8837 -0.8228  0.2518
  992MOL0     O36817   2.663   0.724   2.779  0.2278 -0.0083 -0.3978
  992MOL0     C36818   2.638   0.783   2.657  1.2043 -0.4433  0.5334
  992MOL0     C36819   2.620   0.669   2.546  0.1575 -0.1680  0.2086
  992MOL0     C36820   2.673   0.720   2.407 -0.6582  0.2224 -0.9416
  992MOL0     C36821   2.832   0.740   2.416  0.0262  0.2329 -0.6120
  992MOL0     C36822   2.902   0.713   2.297 -0.2204 -0.0229  0.0987
  992MOL0     C36823   2.963   0.706   2.198  0.1350  0.0414 -0.3128
  992MOL0     C36824   2.907   0.748   2.791  0.0718 -0.4172 -0.2292
  992MOL0     C36825   3.031   0.713   2.856  0.4068 -0.7214  0.0028
  992MOL0     C36826   3.150   0.781   2.790 -0.1868  0.2382  1.1690
  992MOL0     H36827   3.339   0.786   3.198  0.3519  0.0245 -0.2231
  992MOL0     H36828   3.530   0.766   3.334  1.3325 -0.4264  0.5708
  992MOL0     H36829   3.670   0.748   3.504 -0.0062 -0.4894  0.7822
  992MOL0     H36830   3.708   0.579   3.466  0.7816 -1.6623  1.1519
  992MOL0     H36831   3.867   0.610   3.634  0.2169 -1.0177  3.9802
  992MOL0     H36832   3.759   0.726   3.723 -2.7489  0.5851 -1.3781
  992MOL0     H36833   3.627   0.522   3.780 -0.1946  1.0370 -2.6054
  992MOL0     H36834   3.732   0.424   3.684  2.3429 -0.1285  0.5673
  992MOL0     H36835   3.928   0.498   3.820  0.6440 -0.7361  1.0074
  992MOL0     H36836   3.821   0.586   3.929 -2.6432 -0.1617  0.8279
  992MOL0     H36837   3.804   0.285   3.875 -1.2560  0.5768 -1.1807
  992MOL0     H36838   3.697   0.370   3.978 -0.2458 -1.8193 -0.3023
  992MOL0     H36839   3.874   0.243   4.093 -0.6845 -0.5560 -2.8025
  992MOL0     H36840   4.007   0.340   4.025 -0.1398 -1.7259 -1.5407
  992MOL0     H36841   3.806   0.413   4.232 -0.3280 -0.6519 -2.7256
  992MOL0     H36842   3.882   0.549   4.152 -0.2836  1.8101  4.6112
  992MOL0     H36843   4.009   0.520   4.346  0.1647  0.2184  1.9982
  992MOL0     H36844   3.996   0.350   4.349  1.0941 -1.8202 -1.0381
  992MOL0     H36845   4.178   0.212   4.175  1.5207 -0.5191  0.6945
  992MOL0     H36846   4.500   0.369   4.018  0.5841 -1.2419 -2.0785
  992MOL0     H36847   4.422   0.214   4.028 -1.1918  0.0188  1.4739
  992MOL0     H36848   4.578   0.354   4.256 -1.7922 -0.3378  1.8410
  992MOL0     H36849   4.499   0.198   4.259 -0.6331 -1.9885 -3.0750
  992MOL0     H36850   4.712   0.263   4.041  2.3074 -0.4899  1.2611
  992MOL0     H36851   4.744   0.183   4.194 -1.6484 -1.0192  0.1912
  992MOL0     H36852   4.578  -0.008   4.122 -0.1417 -1.1450  0.2068
  992MOL0     H36853   4.569   0.073   3.961  1.6623  1.1966 -0.9257
  992MOL0     H36854   4.668   0.183   3.827 -0.1387  1.0559 -2.9675
  992MOL0     H36855   4.841   0.290   3.523 -0.8769 -1.2304 -0.5799
  992MOL0     H36856   4.816   0.393   3.656  2.3283  0.0183  0.5181
  992MOL0     H36857   4.688   0.279   3.608  0.3238  2.7446  0.7258
  992MOL0     H36858   5.444   0.091   3.592 -1.5535  0.7313  0.6076
  992MOL0     H36859   5.646   0.177   3.468  0.0446 -2.0171 -1.4507
  992MOL0     H36860   5.809   0.444   3.237 -1.9470 -0.8880 -2.4615
  992MOL0     H36861   5.818   0.364   3.393 -0.4660 -0.7348  0.9118
  992MOL0     H36862   5.907   0.224   3.224 -0.9567 -2.9937 -0.0713
  992MOL0     H36863   5.749   0.159   3.263  1.4592 -1.9444  0.0713
  992MOL0     H36864   5.829   0.329   3.024 -0.2198 -0.4149 -0.1734
  992MOL0     H36865   5.664   0.295   3.056  0.7280 -0.2274  0.5552
  992MOL0     H36866   5.752   0.043   3.076 -0.1895 -0.1913 -2.7198
  992MOL0     H36867   5.881   0.114   2.989 -0.8289 -0.6061 -2.7366
  992MOL0     H36868   5.712   0.202   2.808 -0.2093  0.7590  1.7538
  992MOL0     H36869   5.717   0.026   2.815 -0.9356 -0.1930 -1.6220
  992MOL0     H36870   5.499   0.193   2.942  2.4607  0.6005  1.5017
  992MOL0     H36871   5.533   0.013   2.947 -3.4433  0.8626  0.2157
  992MOL0     H36872   5.511   0.029   2.696  2.0706 -0.6086  2.4668
  992MOL0     H36873   5.462   0.196   2.716  3.1701 -1.2543 -2.9262
  992MOL0     H36874   5.270   0.122   2.854 -1.1785 -0.4909  0.1433
  992MOL0     H36875   5.332  -0.049   2.858  1.1304 -0.0917 -0.3017
  992MOL0     H36876   5.396   0.470   3.307 -0.2305  0.1470  1.3282
  992MOL0     H36877   5.198   0.395   3.428 -0.1410  0.1154  0.0832
  992MOL0     H36878   5.129   0.002   3.785 -0.6390 -0.0059 -1.9731
  992MOL0     H36879   4.965  -0.101   3.930 -3.0683  0.1791  1.6924
  992MOL0     H36880   3.323   0.483   3.579 -1.8525 -2.4080 -1.1155
  992MOL0     H36881   3.136   0.469   3.412  0.7259 -1.1732  2.9012
  992MOL0     H36882   2.884   0.583   3.132 -1.4232  2.4460 -0.0374
  992MOL0     H36883   2.695   0.587   2.996 -1.1445  2.0150 -0.6233
  992MOL0     H36884   2.544   0.839   2.660  0.5892 -1.3232 -1.1259
  992MOL0     H36885   2.717   0.846   2.616 -0.2728 -0.6757 -3.0022
  992MOL0     H36886   2.513   0.647   2.536  0.1441 -0.0578  0.1054
  992MOL0     H36887   2.668   0.578   2.581  1.4719  0.0561 -0.9142
  992MOL0     H36888   2.652   0.643   2.333 -2.1443  0.7352 -1.0767
  992MOL0     H36889   2.622   0.816   2.392 -3.2194 -0.9346 -0.1218
  992MOL0     H36890   2.875   0.666   2.485  0.0934 -1.2257 -2.1475
  992MOL0     H36891   2.856   0.841   2.449  0.9392 -0.2794  0.3354
  992MOL0     H36892   3.015   0.711   2.105 -0.0998  0.5117 -0.4184
  992MOL0     H36893   2.922   0.804   2.699 -0.1746  1.2069  0.6811
  992MOL0     H36894   3.158   0.727   2.695 -3.2290 -1.4597  1.7240
  992MOL0     H36895   3.122   0.887   2.786  0.4523  0.4260  1.5690
  992MOL0     H36896   3.241   0.785   2.849 -0.5578  1.5531  1.6822
  993MOL0     O36897   7.350   2.168   5.229  0.5914 -0.8397 -0.2680
  993MOL0     C36898   7.267   2.184   5.142  0.0358 -0.6612 -0.0438
  993MOL0     O36899   7.294   2.147   5.007 -0.5172 -0.8137 -1.0446
  993MOL0     C36900   7.198   2.144   4.912 -0.1521 -0.2639 -0.3376
  993MOL0     C36901   7.225   2.206   4.794 -0.5169 -0.2329  0.4397
  993MOL0     C36902   7.139   2.212   4.687 -0.6119  0.3865  0.6173
  993MOL0     C36903   7.016   2.146   4.695 -1.0059 -0.8440  0.0399
  993MOL0     O36904   6.920   2.139   4.605 -0.2369 -0.4650 -0.4340
  993MOL0     C36905   6.962   2.093   4.472 -0.2534 -0.3132  0.9437
  993MOL0     C36906   7.010   1.949   4.472 -0.1526 -0.5163 -0.4524
  993MOL0     C36907   6.890   1.854   4.506 -0.7051 -1.6440 -1.0710
  993MOL0     C36908   6.938   1.713   4.543  1.4066 -0.5800 -0.0079
  993MOL0     C36909   6.811   1.633   4.567  0.1524  0.7906 -0.3653
  993MOL0     C36910   6.831   1.492   4.634 -0.7952 -0.2070  0.2106
  993MOL0     C36911   6.918   1.396   4.542 -1.4212 -0.0428  1.6692
  993MOL0     C36912   6.858   1.328   4.424 -0.5561  1.2174  1.3008
  993MOL0     N36913   6.951   1.246   4.350 -0.0305  0.1255 -0.8294
  993MOL0     C36914   6.981   1.114   4.367 -0.6817 -0.5800 -0.3355
  993MOL0     C36915   7.087   1.079   4.283  1.7272  0.3473  0.8685
  993MOL0     C36916   7.175   0.962   4.290 -0.5164 -0.0856  0.1552
  993MOL0     C36917   7.113   0.821   4.311  0.0945  0.2366 -0.2165
  993MOL0     C36918   7.217   0.717   4.336  0.3706  0.8900 -0.9246
  993MOL0     C36919   7.159   0.606   4.430 -0.3583 -0.6162  0.2787
  993MOL0     O36920   7.064   0.527   4.359 -1.1763  0.3094  0.2019
  993MOL0     C36921   6.990   0.460   4.451 -0.4340 -0.2492 -0.8525
  993MOL0     C36922   7.039   0.349   4.531 -0.0401 -0.7762  0.1424
  993MOL0     C36923   6.951   0.284   4.616 -1.1722  0.4211 -0.0205
  993MOL0     C36924   7.004   0.157   4.684  0.1250  0.7601 -0.6237
  993MOL0     C36925   6.818   0.330   4.634  0.3139  0.3724  0.5985
  993MOL0     C36926   6.722   0.266   4.731  0.3544 -0.5383  0.4381
  993MOL0     O36927   6.740   0.129   4.769  0.3742  0.8412  0.0996
  993MOL0     C36928   6.643   0.052   4.836  1.6191  0.2827 -0.6877
  993MOL0     C36929   6.567   0.100   4.937  0.8835 -1.0010  0.2156
  993MOL0     C36930   6.460   0.022   4.990 -0.4593  1.2685  0.1170
  993MOL0     C36931   6.436  -0.114   4.946  1.1580 -0.3939 -0.3013
  993MOL0     O36932   6.333  -0.179   5.012 -0.5263  0.0347  0.0370
  993MOL0     C36933   6.302  -0.320   4.988 -0.4397  0.0235  0.3703
  993MOL0     C36934   6.401  -0.402   5.056 -0.2102  0.7235 -0.3878
  993MOL0     C36935   6.376  -0.384   5.206 -0.6722  0.2970  0.2098
  993MOL0     C36936   6.298  -0.509   5.256 -0.4848  0.3536 -0.4075
  993MOL0     C36937   6.265  -0.490   5.408 -0.9825 -0.0530 -0.3093
  993MOL0     C36938   6.190  -0.597   5.482  0.3290  0.4920 -1.7075
  993MOL0     C36939   6.211  -0.739   5.438  0.6023 -0.8470  0.6539
  993MOL0     C36940   6.165  -0.851   5.540  0.8127  0.6070  0.1742
  993MOL0    Cl36941   6.230  -1.016   5.510 -0.4417  0.0992  0.4923
  993MOL0     C36942   6.521  -0.166   4.852 -0.0677  0.1107 -0.8198
  993MOL0     C36943   6.619  -0.089   4.797 -0.0101  0.0297 -0.6592
  993MOL0     O36944   6.622   0.336   4.757  0.0185  0.3243  0.2660
  993MOL0     C36945   6.773   0.442   4.562  0.3008  1.1133 -0.8423
  993MOL0     C36946   6.855   0.501   4.471  0.6017 -0.6406 -0.1734
  993MOL0     N36947   7.103   1.192   4.213 -0.3255  0.6965 -0.2133
  993MOL0     N36948   7.039   1.288   4.254  0.3069  0.9442 -0.0961
  993MOL0     C36949   6.988   2.081   4.820  0.7893  0.4850  0.3288
  993MOL0     C36950   7.073   2.078   4.919 -0.1187 -0.4909 -0.0263
  993MOL0     C36951   7.158   2.264   5.179  1.1005  0.2416  0.4087
  993MOL0     C36952   7.124   2.374   5.110  0.2855  0.1415  0.3421
  993MOL0     C36953   7.009   2.454   5.126  0.1555  1.1004  0.7637
  993MOL0     C36954   6.908   2.414   5.218 -0.9643  0.8281  0.0695
  993MOL0     O36955   6.787   2.485   5.225  0.6415  0.0168  0.6068
  993MOL0     C36956   6.703   2.492   5.339  1.5909  0.1669 -0.5662
  993MOL0     C36957   6.769   2.561   5.467  1.1678 -0.4444  0.7197
  993MOL0     C36958   6.671   2.581   5.588  1.2701 -0.1742  0.4231
  993MOL0     C36959   6.582   2.696   5.559  0.1956 -0.3367 -0.0874
  993MOL0     C36960   6.478   2.709   5.664 -0.4193 -1.3152  0.2114
  993MOL0     C36961   6.386   2.731   5.738 -0.7329  1.0086 -0.6216
  993MOL0     C36962   6.933   2.291   5.278 -0.1815  0.6567 -0.0197
  993MOL0     C36963   7.060   2.219   5.273 -0.4735 -0.0765  0.5992
  993MOL0     C36964   7.075   2.093   5.354  0.2381  0.3233 -0.2866
  993MOL0     H36965   7.324   2.251   4.788 -0.2998 -0.6323  0.9299
  993MOL0     H36966   7.166   2.269   4.598 -3.2622 -0.8335 -1.0973
  993MOL0     H36967   7.038   2.156   4.426 -0.6941 -0.7795 -0.4858
  993MOL0     H36968   6.879   2.091   4.401  0.2506  2.1300  0.2096
  993MOL0     H36969   7.051   1.922   4.374  1.7560  1.9661 -0.4329
  993MOL0     H36970   7.095   1.940   4.540  0.7705 -1.5345 -1.6764
  993MOL0     H36971   6.848   1.891   4.599  2.4095  0.3291 -0.2874
  993MOL0     H36972   6.814   1.853   4.427 -0.4477 -1.0299 -1.3407
  993MOL0     H36973   7.003   1.670   4.467  0.0541 -0.9482 -1.0009
  993MOL0     H36974   6.998   1.719   4.634 -0.9797  3.1218  1.5768
  993MOL0     H36975   6.755   1.624   4.474 -1.0846 -1.0517  0.4863
  993MOL0     H36976   6.748   1.680   4.644  0.1118 -4.9047  3.7210
  993MOL0     H36977   6.883   1.503   4.729 -0.7034 -0.4900  0.1966
  993MOL0     H36978   6.727   1.457   4.641 -2.5481  4.0034 -1.3049
  993MOL0     H36979   6.956   1.312   4.602 -0.6553 -0.0654  1.1617
  993MOL0     H36980   7.002   1.453   4.501 -0.7187 -1.8918  0.3774
  993MOL0     H36981   6.773   1.272   4.466 -2.0805  2.2508 -0.2657
  993MOL0     H36982   6.818   1.399   4.351 -0.6571  1.8115  1.9263
  993MOL0     H36983   6.941   1.053   4.447  1.5535  1.2063  2.3049
  993MOL0     H36984   7.241   0.983   4.375 -1.5641  2.3839  0.4503
  993MOL0     H36985   7.232   0.958   4.197 -1.2902  2.3008 -0.4716
  993MOL0     H36986   7.040   0.817   4.393 -0.9607 -2.1552 -1.1565
  993MOL0     H36987   7.062   0.795   4.218  2.1542  0.3409 -1.4415
  993MOL0     H36988   7.241   0.673   4.239 -2.3648  0.1950 -1.3761
  993MOL0     H36989   7.297   0.758   4.398  0.5983  0.0686 -0.6591
  993MOL0     H36990   7.248   0.547   4.451  0.2964  0.6597  1.2532
  993MOL0     H36991   7.114   0.646   4.522 -0.2391 -0.2917  0.1968
  993MOL0     H36992   7.137   0.308   4.513  0.7563  0.3987  1.5729
  993MOL0     H36993   7.112   0.142   4.680 -0.2472 -6.3664  2.1581
  993MOL0     H36994   6.960   0.060   4.662 -1.2839  0.9452  1.1286
  993MOL0     H36995   6.972   0.170   4.788 -2.3721 -0.2775 -1.1811
  993MOL0     H36996   6.599   0.190   4.988  1.4377 -1.1104  0.0694
  993MOL0     H36997   6.394   0.052   5.070  2.7207  1.0008  3.0471
  993MOL0     H36998   6.203  -0.350   5.023 -0.5915  0.9175  0.7362
  993MOL0     H36999   6.309  -0.356   4.885  0.4355 -2.8586  1.3557
  993MOL0     H37000   6.399  -0.505   5.018  2.1142  0.8305 -0.9539
  993MOL0     H37001   6.505  -0.373   5.037 -0.4448  2.3120  0.6306
  993MOL0     H37002   6.313  -0.296   5.225 -0.9517 -0.3700  2.7157
  993MOL0     H37003   6.475  -0.374   5.250  0.6223 -3.0055 -1.6231
  993MOL0     H37004   6.361  -0.597   5.239  1.6548  1.8707 -0.7469
  993MOL0     H37005   6.200  -0.516   5.207 -0.7341 -0.5099  0.1850
  993MOL0     H37006   6.367  -0.480   5.447 -1.1560 -0.2144  0.1962
  993MOL0     H37007   6.221  -0.390   5.412 -1.2317 -0.1602 -0.3566
  993MOL0     H37008   6.087  -0.571   5.457 -0.6844 -2.6174 -1.2016
  993MOL0     H37009   6.220  -0.591   5.587 -0.1850 -0.5325 -1.4834
  993MOL0     H37010   6.312  -0.765   5.402  0.0123  0.1931 -1.9775
  993MOL0     H37011   6.148  -0.743   5.348  1.7961 -0.1535 -0.2510
  993MOL0     H37012   6.056  -0.864   5.539  0.5833  2.2640 -1.0187
  993MOL0     H37013   6.194  -0.812   5.638 -0.7016  1.2235  0.4146
  993MOL0     H37014   6.498  -0.263   4.808 -1.1752  1.0239 -2.3499
  993MOL0     H37015   6.679  -0.132   4.718  0.2907 -2.6401  0.8974
  993MOL0     H37016   6.668   0.465   4.556 -0.0911 -0.7837 -2.3739
  993MOL0     H37017   6.836   0.585   4.406  1.7664  1.6492  2.2517
  993MOL0     H37018   6.891   2.036   4.841  0.1191  2.0168  0.6559
  993MOL0     H37019   7.047   2.031   5.014  0.6085  1.0526  0.9831
  993MOL0     H37020   7.205   2.402   5.043  0.0194 -0.9513 -0.4623
  993MOL0     H37021   6.992   2.513   5.037  1.1545 -0.6145 -0.6096
  993MOL0     H37022   6.614   2.549   5.314  1.1945  0.8789  2.1834
  993MOL0     H37023   6.683   2.387   5.362  4.5079 -0.2382  0.5138
  993MOL0     H37024   6.806   2.660   5.438  0.8539 -0.0360  1.6636
  993MOL0     H37025   6.848   2.490   5.496  1.7744 -0.4926 -0.9400
  993MOL0     H37026   6.611   2.491   5.599  1.3717 -1.0636 -4.2331
  993MOL0     H37027   6.729   2.598   5.679  0.4401  1.3710  0.6979
  993MOL0     H37028   6.537   2.687   5.460  3.2186 -0.2107 -1.5582
  993MOL0     H37029   6.633   2.792   5.566 -0.3545  0.0642 -1.3477
  993MOL0     H37030   6.309   2.749   5.811 -0.9698  5.4628 -1.6800
  993MOL0     H37031   6.857   2.255   5.346  0.4070 -1.6696 -0.5098
  993MOL0     H37032   7.142   2.015   5.317  1.4499  0.7549  0.9296
  993MOL0     H37033   7.100   2.129   5.454 -0.0258  0.5005 -0.2837
  993MOL0     H37034   6.980   2.040   5.362 -0.8508  1.8167 -2.2411
  994MOL0     O37035   2.767  11.523   6.391 -0.4789  0.6110  1.4607
  994MOL0     C37036   2.660  11.464   6.376  0.4446 -1.2979  0.7600
  994MOL0     O37037   2.634  11.337   6.427 -1.4201  0.5676  0.0197
  994MOL0     C37038   2.715  11.294   6.529 -0.5380  0.0603 -0.0252
  994MOL0     C37039   2.802  11.184   6.501 -0.4737  0.4017 -1.6594
  994MOL0     C37040   2.891  11.132   6.597  1.1338 -0.1691  0.1930
  994MOL0     C37041   2.878  11.185   6.732 -1.1243  0.0866 -0.1326
  994MOL0     O37042   2.950  11.128   6.833  0.1105  0.3141 -0.9706
  994MOL0     C37043   3.029  11.217   6.915 -0.4953  0.7215 -0.0173
  994MOL0     C37044   3.147  11.130   6.973 -0.4497  0.0735  0.2685
  994MOL0     C37045   3.232  11.063   6.871 -0.4141  0.2635 -0.2014
  994MOL0     C37046   3.370  10.995   6.917  0.7911  0.1670  2.0315
  994MOL0     C37047   3.430  10.916   6.790  0.5730  0.5915  0.6819
  994MOL0     C37048   3.578  10.878   6.822 -0.2097  0.8400 -0.1803
  994MOL0     C37049   3.645  10.835   6.694 -0.1328  0.3726 -0.5409
  994MOL0     C37050   3.784  10.771   6.722 -0.3213  0.3437 -0.1775
  994MOL0     N37051   3.869  10.786   6.602  0.1254  0.7171  0.4128
  994MOL0     C37052   3.841  10.719   6.485 -0.3726 -0.7671  0.2974
  994MOL0     C37053   3.959  10.731   6.416 -0.1624 -0.6899 -0.0164
  994MOL0     C37054   3.981  10.716   6.262  0.5173 -0.5257 -0.2359
  994MOL0     C37055   4.058  10.586   6.215 -0.4560 -0.0416 -0.6846
  994MOL0     C37056   4.208  10.595   6.255  0.2753 -0.8007  0.2199
  994MOL0     C37057   4.270  10.456   6.232  0.3113  0.2644 -0.5818
  994MOL0     O37058   4.406  10.463   6.244  0.2752 -0.1873 -0.6916
  994MOL0     C37059   4.479  10.353   6.201  0.9444 -0.4925  0.3525
  994MOL0     C37060   4.612  10.377   6.195  0.8217  0.6248 -0.8057
  994MOL0     C37061   4.704  10.279   6.172  1.0942  0.1446 -0.7479
  994MOL0     C37062   4.850  10.330   6.185  0.1763 -0.7421 -0.5942
  994MOL0     C37063   4.664  10.148   6.138  0.6078  0.0234  0.9973
  994MOL0     C37064   4.763  10.043   6.092 -0.2102 -0.1831 -0.1295
  994MOL0     O37065   4.893  10.071   6.093 -1.0046  0.3066  0.3219
  994MOL0     C37066   4.984   9.986   6.041  0.1381 -0.3256 -0.5926
  994MOL0     C37067   5.040  10.004   5.914  0.3967  0.4634  0.8525
  994MOL0     C37068   5.132   9.911   5.856 -0.2149 -0.3036  0.0742
  994MOL0     C37069   5.178   9.802   5.933 -0.8522  0.3243  0.1480
  994MOL0     O37070   5.276   9.709   5.904 -0.4080 -0.0934  0.3060
  994MOL0     C37071   5.292   9.679   5.767  0.5013 -0.8519 -0.0261
  994MOL0     C37072   5.370   9.555   5.758 -0.5753 -0.7550  0.0468
  994MOL0     C37073   5.515   9.558   5.822  0.7367  0.1809  0.8037
  994MOL0     C37074   5.610   9.597   5.708 -0.2219  0.5008 -0.4133
  994MOL0     C37075   5.763   9.588   5.767  0.1055  0.1133 -0.2489
  994MOL0     C37076   5.876   9.625   5.665  0.5772 -1.3600 -0.3537
  994MOL0     C37077   6.004   9.673   5.738 -0.2427  1.2839  0.2458
  994MOL0     C37078   6.118   9.704   5.638  0.4680 -0.7216  0.0805
  994MOL0    Cl37079   6.160   9.552   5.560  0.1234 -0.3273  0.4349
  994MOL0     C37080   5.125   9.783   6.063 -0.2938  0.1859 -0.1165
  994MOL0     C37081   5.030   9.874   6.113 -0.0326 -0.3939  0.8156
  994MOL0     O37082   4.714   9.942   6.047 -0.2044  0.3630  0.4423
  994MOL0     C37083   4.521  10.129   6.133 -0.0057 -0.4991  0.4732
  994MOL0     C37084   4.434  10.232   6.166  0.6476  0.4631 -0.6728
  994MOL0     N37085   4.052  10.799   6.492  0.5403  0.3455  0.0971
  994MOL0     N37086   4.000  10.829   6.598  0.8317  0.1771 -0.7666
  994MOL0     C37087   2.799  11.295   6.758 -0.1976 -1.0160 -0.2366
  994MOL0     C37088   2.717  11.351   6.656 -0.0521 -0.1029 -0.3053
  994MOL0     C37089   2.544  11.545   6.320  0.5138  0.7204 -0.2593
  994MOL0     C37090   2.421  11.482   6.325  0.8428  0.2197  0.0367
  994MOL0     C37091   2.302  11.545   6.296 -0.3628 -0.4108 -0.3922
  994MOL0     C37092   2.291  11.672   6.239 -0.1155 -0.5513 -0.2381
  994MOL0     O37093   2.164  11.721   6.204 -0.3803  0.2301  0.2593
  994MOL0     C37094   2.154  11.862   6.171  0.1518 -0.2353 -1.3137
  994MOL0     C37095   2.007  11.898   6.194  0.6484  0.5912  0.3720
  994MOL0     C37096   1.937  11.882   6.329  0.2080  0.6377 -0.0675
  994MOL0     C37097   1.790  11.858   6.320  0.0282 -0.4407  0.3948
  994MOL0     C37098   1.723  11.969   6.249  0.4864 -0.2696  0.3230
  994MOL0     C37099   1.656  12.039   6.176 -0.2064 -0.4064 -0.6097
  994MOL0     C37100   2.415  11.735   6.229 -0.0732 -0.1509 -0.1224
  994MOL0     C37101   2.539  11.683   6.273  0.0389  1.0295  0.2188
  994MOL0     C37102   2.670  11.762   6.248 -0.7025 -0.3336  0.5424
  994MOL0     H37103   2.791  11.124   6.411 -1.5071 -2.5329  0.2665
  994MOL0     H37104   2.966  11.056   6.577 -0.0233 -1.6472  1.2355
  994MOL0     H37105   2.961  11.259   6.989 -1.2840  0.9219 -0.8493
  994MOL0     H37106   3.066  11.295   6.847 -0.9819 -0.8629 -2.1968
  994MOL0     H37107   3.206  11.196   7.037  1.0062  0.8009 -1.7378
  994MOL0     H37108   3.119  11.048   7.041  3.5627 -1.8000 -0.0148
  994MOL0     H37109   3.175  10.994   6.808 -1.9140  1.4911 -0.2520
  994MOL0     H37110   3.270  11.137   6.800 -1.8801  1.5298  0.3017
  994MOL0     H37111   3.447  11.065   6.953 -0.1898  1.7040  1.2484
  994MOL0     H37112   3.349  10.925   6.998 -2.1525 -0.3879  0.9239
  994MOL0     H37113   3.429  10.973   6.696  2.5162  0.8727  0.7823
  994MOL0     H37114   3.367  10.827   6.782  1.2229  0.0668  1.3040
  994MOL0     H37115   3.617  10.978   6.847 -2.5225  1.8945 -0.5310
  994MOL0     H37116   3.589  10.805   6.903 -1.3637  2.0315  1.1133
  994MOL0     H37117   3.661  10.923   6.631 -1.4727  1.6581  0.8250
  994MOL0     H37118   3.581  10.769   6.635 -2.0767  3.9921 -2.9007
  994MOL0     H37119   3.834  10.813   6.809 -1.0980  1.9050 -0.4405
  994MOL0     H37120   3.769  10.664   6.741  0.6184  0.0537 -0.9504
  994MOL0     H37121   3.744  10.687   6.447 -1.3989  1.8626  0.4676
  994MOL0     H37122   4.034  10.808   6.236  3.5726 -2.0349  0.2964
  994MOL0     H37123   3.881  10.724   6.217 -0.2493 -1.5389  1.1870
  994MOL0     H37124   4.017  10.494   6.257 -1.6012  1.0073  0.5888
  994MOL0     H37125   4.062  10.576   6.106 -2.2997  0.7368 -0.8553
  994MOL0     H37126   4.251  10.668   6.186 -2.1061  0.9269  0.4174
  994MOL0     H37127   4.229  10.631   6.356  0.1253  2.2865 -0.7452
  994MOL0     H37128   4.236  10.393   6.314 -0.1548  0.3890 -0.6794
  994MOL0     H37129   4.230  10.401   6.147 -0.2767 -2.0792  1.1027
  994MOL0     H37130   4.645  10.479   6.211 -0.0897  0.5303  2.3299
  994MOL0     H37131   4.897  10.278   6.268 -0.3797 -0.1475  0.1173
  994MOL0     H37132   4.851  10.439   6.201  0.7463 -0.4137 -2.6303
  994MOL0     H37133   4.907  10.314   6.093  0.6877  0.5307 -0.5281
  994MOL0     H37134   5.001  10.093   5.867  0.5952  0.4072  0.5803
  994MOL0     H37135   5.178   9.930   5.759 -0.8709  1.8995  0.1429
  994MOL0     H37136   5.194   9.656   5.725 -1.4031 -1.0053  4.0275
  994MOL0     H37137   5.331   9.762   5.707  0.7024  1.1157  2.6390
  994MOL0     H37138   5.315   9.476   5.809  0.5503 -1.0348  0.8412
  994MOL0     H37139   5.371   9.522   5.654  1.3594  1.5441 -0.7415
  994MOL0     H37140   5.545   9.461   5.863 -1.8142  0.1728  2.8659
  994MOL0     H37141   5.527   9.636   5.897 -1.7037  3.0608 -1.5593
  994MOL0     H37142   5.587   9.685   5.648 -3.0285 -0.4787 -0.9445
  994MOL0     H37143   5.592   9.520   5.632 -5.2216  1.6262 -0.7303
  994MOL0     H37144   5.774   9.645   5.859  1.2273 -2.1484  1.1087
  994MOL0     H37145   5.779   9.483   5.792 -0.9165 -0.3405 -1.4087
  994MOL0     H37146   5.845   9.711   5.604 -0.3503 -0.7076  0.9785
  994MOL0     H37147   5.897   9.538   5.602 -0.3155 -1.9311  0.1203
  994MOL0     H37148   6.040   9.593   5.803  0.1492 -2.6061 -4.2392
  994MOL0     H37149   5.991   9.767   5.792  0.1636  1.2469  0.4180
  994MOL0     H37150   6.208   9.736   5.691  0.0185  2.0689 -0.6891
  994MOL0     H37151   6.097   9.783   5.565  0.4758  0.6725  1.5076
  994MOL0     H37152   5.143   9.703   6.135 -2.4987 -1.3511 -1.1806
  994MOL0     H37153   4.987   9.864   6.212 -1.2475 -1.2711  0.2359
  994MOL0     H37154   4.479  10.032   6.107  0.0778 -1.1017  2.4204
  994MOL0     H37155   4.330  10.203   6.175  0.8484 -0.0422  0.0995
  994MOL0     H37156   2.804  11.358   6.846  4.0209  0.5931 -1.3632
  994MOL0     H37157   2.652  11.436   6.672  1.0366  0.2928  2.7783
  994MOL0     H37158   2.406  11.384   6.370  0.0750 -0.9702 -2.6201
  994MOL0     H37159   2.206  11.499   6.318 -0.7596  1.2962  1.8777
  994MOL0     H37160   2.219  11.925   6.233 -1.8930  2.1543 -1.4313
  994MOL0     H37161   2.171  11.891   6.067  0.6673  0.8161 -0.9550
  994MOL0     H37162   1.946  11.834   6.129 -1.0640  1.2245  1.2767
  994MOL0     H37163   1.989  12.003   6.168 -0.7689  0.3995  0.4791
  994MOL0     H37164   1.976  11.805   6.396 -0.0378  0.5680 -0.0040
  994MOL0     H37165   1.959  11.973   6.387  0.8000  1.1547 -1.0788
  994MOL0     H37166   1.742  11.855   6.418 -0.3263  0.1825  0.2490
  994MOL0     H37167   1.776  11.757   6.280  3.5403 -1.2168  0.8269
  994MOL0     H37168   1.595  12.094   6.108  1.1462 -1.5436 -2.8500
  994MOL0     H37169   2.410  11.838   6.196  0.5266  0.0513  0.3805
  994MOL0     H37170   2.731  11.770   6.338 -1.1806  0.9372  0.7772
  994MOL0     H37171   2.739  11.722   6.173  0.5887  2.0945  0.3315
  994MOL0     H37172   2.637  11.859   6.210  1.6108  0.4368  0.3792
  995MOL0     O37173   9.675   6.348   8.749 -0.3855 -0.7779  0.6985
  995MOL0     C37174   9.711   6.290   8.851 -0.9407 -0.8793  0.3619
  995MOL0     O37175   9.841   6.291   8.902  0.3335  0.4612 -0.3866
  995MOL0     C37176   9.947   6.316   8.821 -1.0116 -0.4575 -0.6980
  995MOL0     C37177  10.056   6.357   8.893 -0.4765  0.9011 -0.2166
  995MOL0     C37178  10.173   6.399   8.827 -0.0147 -0.0278  0.1487
  995MOL0     C37179  10.188   6.390   8.687 -0.4766  0.1997 -0.8620
  995MOL0     O37180  10.307   6.423   8.626  0.2105 -0.2547  0.2313
  995MOL0     C37181  10.439   6.418   8.687 -0.7126 -0.2555  1.0017
  995MOL0     C37182  10.553   6.431   8.589 -0.4705 -0.6895  0.2711
  995MOL0     C37183  10.527   6.360   8.457 -0.6162 -0.6060 -0.0745
  995MOL0     C37184  10.642   6.365   8.364  0.0330 -0.0516 -0.8144
  995MOL0     C37185  10.603   6.316   8.228  0.0528  0.2508  0.3299
  995MOL0     C37186  10.702   6.338   8.128 -0.2202 -0.1913 -0.4222
  995MOL0     C37187  10.684   6.237   8.014 -0.3864  0.3606  0.1383
  995MOL0     C37188  10.553   6.248   7.931  0.2803 -0.1696 -0.8393
  995MOL0     N37189  10.512   6.119   7.878 -0.2406  0.1554  0.8171
  995MOL0     C37190  10.404   6.102   7.789 -0.5639 -1.0341 -0.3869
  995MOL0     C37191  10.385   5.969   7.774 -0.2112 -0.4696 -0.4951
  995MOL0     C37192  10.315   5.908   7.656  0.0836 -0.4657 -0.1130
  995MOL0     C37193  10.162   5.886   7.706  0.4921 -1.1102 -0.4290
  995MOL0     C37194  10.094   5.800   7.602 -0.2887 -0.1232  0.3232
  995MOL0     C37195  10.100   5.842   7.452 -0.2999 -0.3691 -0.2896
  995MOL0     O37196  10.221   5.794   7.389 -0.0338 -0.1508 -0.2555
  995MOL0     C37197  10.230   5.664   7.346 -1.2846  0.7357 -0.1259
  995MOL0     C37198  10.358   5.618   7.294  0.2024 -0.0872  0.1023
  995MOL0     C37199  10.380   5.487   7.252 -0.3643  0.1344 -0.0288
  995MOL0     C37200  10.528   5.464   7.197  1.4929  0.1043  0.2793
  995MOL0     C37201  10.275   5.387   7.268  0.1087  0.0543 -1.3895
  995MOL0     C37202  10.281   5.251   7.243  0.3741 -0.0160 -0.0257
  995MOL0     O37203  10.373   5.211   7.154  0.5726 -0.5610 -0.8224
  995MOL0     C37204  10.383   5.081   7.114  0.2103 -0.6746  0.2088
  995MOL0     C37205  10.317   5.040   6.997  0.1808  0.4053 -0.6624
  995MOL0     C37206  10.316   4.911   6.948 -0.1703  1.2234 -0.1915
  995MOL0     C37207  10.397   4.814   7.012 -0.0484 -0.1567 -0.1783
  995MOL0     O37208  10.421   4.680   6.973  0.3206 -0.3644  0.1429
  995MOL0     C37209  10.364   4.630   6.850  0.6101 -0.1432  0.0306
  995MOL0     C37210  10.398   4.489   6.834 -0.1617 -1.1172 -0.1520
  995MOL0     C37211  10.542   4.452   6.786  0.5417 -0.4429  0.4065
  995MOL0     C37212  10.631   4.448   6.905  0.3027 -0.5485  1.5789
  995MOL0     C37213  10.617   4.340   7.007 -0.5171 -1.4060 -0.3525
  995MOL0     C37214  10.617   4.199   6.957  0.0993  0.4112 -0.1062
  995MOL0     C37215  10.688   4.093   7.056  0.7419 -0.6296  0.2323
  995MOL0     C37216  10.839   4.120   7.042  0.0596 -0.2420 -0.2092
  995MOL0    Cl37217  10.922   3.987   7.130  0.3340  0.2253 -0.1503
  995MOL0     C37218  10.450   4.853   7.134 -0.1087  0.1207 -0.3359
  995MOL0     C37219  10.441   4.982   7.193 -0.4425  0.2475 -0.1675
  995MOL0     O37220  10.200   5.180   7.294  0.1627 -0.8615 -0.8088
  995MOL0     C37221  10.154   5.432   7.323  0.3285 -0.8922  0.1953
  995MOL0     C37222  10.131   5.562   7.355 -0.2791 -0.6220  0.2976
  995MOL0     N37223  10.472   5.897   7.858 -0.6184 -0.2630 -0.2464
  995MOL0     N37224  10.527   5.991   7.924 -1.0322 -0.2931  0.7323
  995MOL0     C37225  10.077   6.351   8.616  0.3600  0.0020  0.0365
  995MOL0     C37226   9.956   6.318   8.683 -0.5123 -0.8468 -0.9132
  995MOL0     C37227   9.622   6.209   8.929  0.0581  0.2352 -0.0081
  995MOL0     C37228   9.680   6.089   8.974  0.5143 -0.4381 -0.2461
  995MOL0     C37229   9.605   6.001   9.053 -0.5164  0.3157 -0.7462
  995MOL0     C37230   9.470   6.015   9.073 -0.1982 -0.0482 -0.7358
  995MOL0     O37231   9.400   5.916   9.142  0.3609  0.3778 -0.0357
  995MOL0     C37232   9.435   5.777   9.130 -0.2641  0.8708  0.4897
  995MOL0     C37233   9.339   5.674   9.193  0.4551 -0.1820 -0.4577
  995MOL0     C37234   9.315   5.680   9.344 -0.3386  0.0631 -0.3198
  995MOL0     C37235   9.444   5.700   9.426  1.3325 -0.4690  0.1310
  995MOL0     C37236   9.527   5.581   9.421  0.1328 -0.2565  0.1335
  995MOL0     C37237   9.599   5.482   9.417 -0.0874 -0.2781  0.8896
  995MOL0     C37238   9.412   6.135   9.038 -0.4182 -0.0208  0.0898
  995MOL0     C37239   9.481   6.229   8.958  0.6188  0.4441 -0.3612
  995MOL0     C37240   9.406   6.359   8.914  0.1797 -0.1759  0.1952
  995MOL0     H37241  10.057   6.353   9.002  0.3232  1.4021 -0.1950
  995MOL0     H37242  10.255   6.435   8.889  2.2381 -1.5786 -1.7483
  995MOL0     H37243  10.438   6.319   8.735 -3.5627 -0.5374  0.5431
  995MOL0     H37244  10.445   6.495   8.764 -0.3943  0.5644  0.1696
  995MOL0     H37245  10.564   6.537   8.565 -1.7491 -0.4324  0.7103
  995MOL0     H37246  10.642   6.392   8.638  0.4956  0.1676 -0.7635
  995MOL0     H37247  10.506   6.256   8.482 -2.0684  0.1759  2.2543
  995MOL0     H37248  10.435   6.396   8.409 -1.4355 -0.7559  1.3464
  995MOL0     H37249  10.687   6.465   8.357 -1.2255  0.5572 -0.5117
  995MOL0     H37250  10.717   6.299   8.408  0.4909  1.1263  0.2267
  995MOL0     H37251  10.508   6.361   8.198  0.9136  2.8619  1.2191
  995MOL0     H37252  10.594   6.208   8.243  2.0045 -0.4790 -2.7853
  995MOL0     H37253  10.676   6.436   8.087 -0.0740  0.7140  1.5173
  995MOL0     H37254  10.803   6.353   8.167  0.5018  1.7373 -2.7959
  995MOL0     H37255  10.697   6.144   8.071  1.8586  2.1166  2.7572
  995MOL0     H37256  10.763   6.251   7.940  1.5149 -0.7940  1.8269
  995MOL0     H37257  10.472   6.293   7.990  0.3000  3.8135 -3.4306
  995MOL0     H37258  10.569   6.320   7.850 -0.7393 -0.5503 -1.3972
  995MOL0     H37259  10.368   6.187   7.732 -0.0172 -0.2527  0.4099
  995MOL0     H37260  10.359   5.817   7.616 -2.3152 -1.1679 -1.3474
  995MOL0     H37261  10.300   5.982   7.577 -0.0446 -1.0381 -0.6253
  995MOL0     H37262  10.167   5.840   7.805  1.0070  0.1616  0.1655
  995MOL0     H37263  10.107   5.980   7.720  2.8867  0.0258  2.4480
  995MOL0     H37264  10.131   5.700   7.623  0.5109 -0.3146 -1.7790
  995MOL0     H37265   9.991   5.798   7.638  0.1331 -3.3877  1.6726
  995MOL0     H37266  10.008   5.809   7.403 -0.6447  0.1488 -0.0038
  995MOL0     H37267  10.095   5.951   7.444 -0.1506 -0.5013 -4.1255
  995MOL0     H37268  10.442   5.685   7.297  2.1909 -2.4235 -0.2672
  995MOL0     H37269  10.537   5.370   7.143 -0.5773  2.5209 -4.9990
  995MOL0     H37270  10.596   5.470   7.283  0.8260  0.1963  0.8181
  995MOL0     H37271  10.545   5.543   7.123 -2.9931 -0.3236 -1.4794
  995MOL0     H37272  10.269   5.119   6.941  1.3189  0.2742 -1.8857
  995MOL0     H37273  10.257   4.885   6.861  2.7064  0.0383 -1.9235
  995MOL0     H37274  10.255   4.635   6.865  0.0051 -1.6160 -3.1226
  995MOL0     H37275  10.392   4.698   6.770  0.0335  2.5478  1.9573
  995MOL0     H37276  10.382   4.436   6.928 -0.2383 -0.3820  0.2607
  995MOL0     H37277  10.332   4.460   6.752 -1.4044  3.2320 -0.9667
  995MOL0     H37278  10.576   4.512   6.701 -0.3721 -2.8151 -1.7870
  995MOL0     H37279  10.530   4.350   6.747  1.7267  0.1937 -1.7996
  995MOL0     H37280  10.642   4.547   6.952  1.2702  0.8245 -1.3006
  995MOL0     H37281  10.729   4.437   6.858  0.1247  0.6884  0.8751
  995MOL0     H37282  10.691   4.365   7.083 -1.4747  2.6019 -0.5317
  995MOL0     H37283  10.523   4.362   7.058  2.2366  3.2675  3.4461
  995MOL0     H37284  10.680   4.190   6.868  0.2859 -1.8001  0.2004
  995MOL0     H37285  10.515   4.168   6.932  0.8491 -2.6457  0.2027
  995MOL0     H37286  10.663   3.993   7.020  1.8277 -0.9803  0.4213
  995MOL0     H37287  10.650   4.108   7.157 -1.9692  1.2898 -0.9432
  995MOL0     H37288  10.870   4.211   7.095 -0.7090 -0.3197  0.4026
  995MOL0     H37289  10.863   4.131   6.936  0.1886  0.3548 -0.1232
  995MOL0     H37290  10.513   4.779   7.182 -4.1084 -3.4210  0.0566
  995MOL0     H37291  10.469   5.003   7.296 -1.3467 -1.1085  0.3909
  995MOL0     H37292  10.078   5.357   7.343 -0.8673  0.3267  0.3808
  995MOL0     H37293  10.039   5.588   7.407 -2.7943 -4.3289 -1.8053
  995MOL0     H37294  10.081   6.367   8.509 -2.1907  1.6363  0.1052
  995MOL0     H37295   9.874   6.291   8.618  1.1846 -2.5664 -2.4639
  995MOL0     H37296   9.782   6.057   8.955 -0.0978 -1.4557 -2.1027
  995MOL0     H37297   9.655   5.913   9.093  2.4365  2.4545  0.6847
  995MOL0     H37298   9.419   5.766   9.022 -0.1000  0.5734  0.4946
  995MOL0     H37299   9.529   5.749   9.179 -1.1138 -2.1272  0.5938
  995MOL0     H37300   9.371   5.575   9.159  1.6102 -0.2120  0.6362
  995MOL0     H37301   9.243   5.699   9.148 -0.4952  1.5698  2.3046
  995MOL0     H37302   9.241   5.757   9.366 -0.8899 -0.1219 -1.4252
  995MOL0     H37303   9.275   5.586   9.384  1.8906 -1.5175 -1.5485
  995MOL0     H37304   9.411   5.711   9.530  1.9359 -0.4622  0.3260
  995MOL0     H37305   9.497   5.792   9.398  1.7077 -0.0439  2.0843
  995MOL0     H37306   9.678   5.412   9.430  0.2096  0.4096  3.1648
  995MOL0     H37307   9.305   6.133   9.055 -0.5177 -4.4928  0.1023
  995MOL0     H37308   9.301   6.345   8.887  1.0758 -0.3016 -4.0372
  995MOL0     H37309   9.408   6.435   8.993 -2.0734 -0.8034  0.9329
  995MOL0     H37310   9.454   6.396   8.823  0.0490  2.8746  1.2429
  996MOL0     O37311   3.398   7.571   5.748  0.3140  0.2618  0.4816
  996MOL0     C37312   3.418   7.672   5.683  0.0388 -0.0363  0.0339
  996MOL0     O37313   3.536   7.735   5.683  0.0063  0.2444  0.7793
  996MOL0     C37314   3.635   7.727   5.780  1.3213 -0.7474  0.2456
  996MOL0     C37315   3.758   7.786   5.749  0.7739  0.2802  0.0549
  996MOL0     C37316   3.853   7.782   5.847 -0.1175 -0.3716 -0.6629
  996MOL0     C37317   3.852   7.715   5.967 -0.3745 -0.0876  0.7861
  996MOL0     O37318   3.961   7.723   6.050  0.1461  0.4134  0.3719
  996MOL0     C37319   3.932   7.706   6.188 -0.5699  0.3238 -0.4660
  996MOL0     C37320   4.061   7.755   6.266  0.2899  1.1289  0.4906
  996MOL0     C37321   4.077   7.690   6.407 -0.2087  0.6743 -0.5872
  996MOL0     C37322   3.975   7.750   6.497 -0.3655  0.3998  0.2457
  996MOL0     C37323   3.934   7.644   6.601  0.5142 -0.6715  1.1223
  996MOL0     C37324   3.812   7.672   6.682 -0.3921  0.5652 -0.1925
  996MOL0     C37325   3.773   7.541   6.746 -0.4644  0.4395 -0.4120
  996MOL0     C37326   3.880   7.488   6.840  0.1176  0.5256  0.3844
  996MOL0     N37327   3.812   7.403   6.951  0.6085  0.1624  0.1054
  996MOL0     C37328   3.768   7.271   6.929 -0.7369 -0.1118 -0.2020
  996MOL0     C37329   3.700   7.246   7.045  0.1331  0.1560  0.2608
  996MOL0     C37330   3.641   7.121   7.093 -0.3511  0.0538 -0.4414
  996MOL0     C37331   3.489   7.125   7.055 -0.2923 -0.8487  0.1527
  996MOL0     C37332   3.389   7.207   7.139 -0.0809  0.0175 -0.1254
  996MOL0     C37333   3.421   7.227   7.291  0.4760  0.7747 -0.7350
  996MOL0     O37334   3.294   7.271   7.342  0.4438 -0.4319  0.7572
  996MOL0     C37335   3.284   7.280   7.476 -0.3198 -0.6958 -0.1487
  996MOL0     C37336   3.157   7.315   7.528 -0.1251 -1.1654  0.3284
  996MOL0     C37337   3.143   7.343   7.661 -0.3323  0.2339  0.3069
  996MOL0     C37338   3.013   7.401   7.707  0.0856 -0.5644 -0.5574
  996MOL0     C37339   3.244   7.316   7.754  0.4015  1.1591 -0.0181
  996MOL0     C37340   3.225   7.330   7.904 -0.0793  0.2600 -0.1078
  996MOL0     O37341   3.211   7.217   7.978 -0.0873  0.6196 -0.2357
  996MOL0     C37342   3.226   7.225   8.112 -0.2269  0.2468 -0.8098
  996MOL0     C37343   3.126   7.288   8.193  0.0317  0.3656  0.8806
  996MOL0     C37344   3.124   7.294   8.325 -0.0828 -0.7859 -0.4264
  996MOL0     C37345   3.220   7.227   8.394 -0.5381  0.0339  0.5965
  996MOL0     O37346   3.209   7.230   8.530 -0.4739 -0.0535  0.6675
  996MOL0     C37347   3.182   7.107   8.596  0.2374  0.0380 -0.0932
  996MOL0     C37348   3.064   7.132   8.683 -0.5047 -0.1136 -0.8942
  996MOL0     C37349   2.935   7.146   8.594 -0.3030 -0.4426  1.1186
  996MOL0     C37350   2.809   7.117   8.672 -0.4114  0.4329 -0.1016
  996MOL0     C37351   2.688   7.202   8.619  0.0055  0.2029 -0.4941
  996MOL0     C37352   2.656   7.162   8.468 -0.3100 -0.7085 -0.7210
  996MOL0     C37353   2.587   7.036   8.455  1.1269 -0.4142 -1.0896
  996MOL0     C37354   2.605   6.931   8.345  0.2607  0.1892 -0.4190
  996MOL0    Cl37355   2.783   6.896   8.322 -0.0506  0.5351 -0.3503
  996MOL0     C37356   3.319   7.152   8.324  0.3382  0.4461  0.4682
  996MOL0     C37357   3.321   7.150   8.184 -0.3772 -0.7387  0.8572
  996MOL0     O37358   3.222   7.441   7.950 -0.5540  0.0197 -0.3716
  996MOL0     C37359   3.363   7.265   7.701  0.7838  0.6631 -0.0373
  996MOL0     C37360   3.387   7.255   7.565  0.1131 -0.3418 -1.3093
  996MOL0     N37361   3.701   7.366   7.123  0.2197  0.4541 -0.2204
  996MOL0     N37362   3.771   7.457   7.066  0.4398  0.0767 -0.8181
  996MOL0     C37363   3.730   7.654   5.991  0.3289 -0.1109 -0.5723
  996MOL0     C37364   3.624   7.654   5.904  0.3592  0.5217  0.6715
  996MOL0     C37365   3.307   7.742   5.603 -0.0781 -0.2087 -0.2591
  996MOL0     C37366   3.325   7.876   5.569 -0.0739 -0.8186  0.3061
  996MOL0     C37367   3.236   7.943   5.482  0.2499 -0.4036  0.8243
  996MOL0     C37368   3.126   7.871   5.434  0.3097  0.5742 -0.6711
  996MOL0     O37369   3.025   7.925   5.363  0.4715 -0.2030  0.0885
  996MOL0     C37370   3.041   8.052   5.319 -0.3396 -0.3935  0.8560
  996MOL0     C37371   2.995   8.156   5.436  1.0046  0.5038  0.6736
  996MOL0     C37372   2.837   8.159   5.444  0.5769 -0.3123  0.7548
  996MOL0     C37373   2.784   8.262   5.350 -0.0995 -0.5789 -0.4950
  996MOL0     C37374   2.824   8.398   5.377  0.3420  0.2025 -0.5485
  996MOL0     C37375   2.853   8.509   5.415 -0.0220  0.7835 -0.7949
  996MOL0     C37376   3.112   7.734   5.464  1.1309 -0.1097 -0.0700
  996MOL0     C37377   3.199   7.663   5.545  0.1668 -0.3654  0.2979
  996MOL0     C37378   3.173   7.512   5.561 -0.5622  0.0400 -0.1699
  996MOL0     H37379   3.785   7.835   5.656 -0.2096  2.3129  0.7852
  996MOL0     H37380   3.947   7.825   5.813  1.1548 -2.0471  0.5536
  996MOL0     H37381   3.924   7.598   6.204  0.1730  0.5510  1.8163
  996MOL0     H37382   3.841   7.751   6.229 -0.7899 -0.1215 -0.4605
  996MOL0     H37383   4.141   7.731   6.195  0.1205 -1.5417  1.0964
  996MOL0     H37384   4.064   7.864   6.277 -2.9758  1.3694 -0.0107
  996MOL0     H37385   4.056   7.582   6.406 -0.8697  0.7013  1.9765
  996MOL0     H37386   4.181   7.704   6.437  0.4963  1.5916 -3.2570
  996MOL0     H37387   4.009   7.838   6.551 -3.0298  2.2176 -0.7965
  996MOL0     H37388   3.879   7.775   6.451 -0.3608  0.9126  0.5033
  996MOL0     H37389   4.024   7.635   6.663  0.0335 -1.0335  1.7681
  996MOL0     H37390   3.916   7.552   6.544 -1.6763 -1.0284  2.2852
  996MOL0     H37391   3.815   7.756   6.752  1.3199  0.9189 -0.6475
  996MOL0     H37392   3.737   7.689   6.605  0.2153 -1.9929 -1.4742
  996MOL0     H37393   3.747   7.464   6.673 -0.5163  0.0688 -0.0066
  996MOL0     H37394   3.682   7.562   6.803  0.2328 -1.9695  1.7884
  996MOL0     H37395   3.947   7.427   6.779 -2.2382 -1.3754 -0.4398
  996MOL0     H37396   3.939   7.566   6.891  0.4981  0.8772 -0.5760
  996MOL0     H37397   3.792   7.202   6.848 -1.9369  1.2142 -1.7500
  996MOL0     H37398   3.662   7.117   7.201  2.0507 -0.0193 -0.8688
  996MOL0     H37399   3.696   7.040   7.046 -1.7095 -0.6382 -0.8964
  996MOL0     H37400   3.486   7.166   6.953 -0.4686 -1.6900 -0.1889
  996MOL0     H37401   3.442   7.027   7.044 -6.9056  1.5971  1.7464
  996MOL0     H37402   3.360   7.307   7.107  0.7862  0.3914  0.2053
  996MOL0     H37403   3.293   7.160   7.119  0.0940  0.3818 -1.9932
  996MOL0     H37404   3.427   7.124   7.326  0.4747  0.7522 -0.8012
  996MOL0     H37405   3.513   7.285   7.307 -0.1565  1.1267  2.1677
  996MOL0     H37406   3.087   7.344   7.451  0.3465  2.6415  1.1198
  996MOL0     H37407   3.015   7.507   7.680  1.2675 -1.2840 -3.7213
  996MOL0     H37408   2.999   7.393   7.815 -2.2308 -1.9600 -0.8852
  996MOL0     H37409   2.925   7.363   7.655 -0.5568  1.1562 -0.7879
  996MOL0     H37410   3.058   7.348   8.133  1.2654  0.5095 -0.4236
  996MOL0     H37411   3.047   7.353   8.374  1.3784  0.4511  0.4936
  996MOL0     H37412   3.156   7.029   8.524 -3.9884  0.0116  1.1852
  996MOL0     H37413   3.267   7.068   8.653 -0.7518 -3.2285 -0.6239
  996MOL0     H37414   3.050   7.052   8.757 -1.7926 -2.0790 -3.1446
  996MOL0     H37415   3.073   7.227   8.736 -0.3034 -1.7465  2.2822
  996MOL0     H37416   2.945   7.070   8.516 -0.2169 -0.3081  0.9981
  996MOL0     H37417   2.933   7.246   8.548 -3.2800 -0.9417 -0.0759
  996MOL0     H37418   2.824   7.126   8.780 -2.2224 -0.4412  0.2696
  996MOL0     H37419   2.782   7.011   8.666 -0.2084  0.3980 -0.4320
  996MOL0     H37420   2.598   7.187   8.680  1.0028 -0.3770  0.9073
  996MOL0     H37421   2.720   7.305   8.633 -0.7365  0.6144 -1.6851
  996MOL0     H37422   2.746   7.149   8.408 -2.3999  0.0439 -4.2846
  996MOL0     H37423   2.611   7.254   8.431 -0.6652 -0.2465  0.7812
  996MOL0     H37424   2.481   7.060   8.463  0.6833 -2.6675  1.4079
  996MOL0     H37425   2.609   6.983   8.548 -0.2967  0.5771 -0.1564
  996MOL0     H37426   2.560   6.965   8.252  4.1983  2.0701 -1.8597
  996MOL0     H37427   2.560   6.837   8.376  0.2013  0.2096 -0.4432
  996MOL0     H37428   3.384   7.084   8.378 -1.2224 -0.1599  1.6562
  996MOL0     H37429   3.394   7.094   8.126 -1.4343 -3.1624  1.7391
  996MOL0     H37430   3.450   7.240   7.761  0.2519 -4.3812 -0.8809
  996MOL0     H37431   3.483   7.220   7.529  1.5482  2.4010 -0.3748
  996MOL0     H37432   3.730   7.596   6.083  3.1233  0.6442  0.0179
  996MOL0     H37433   3.538   7.596   5.936 -1.6854  1.7282 -2.2657
  996MOL0     H37434   3.406   7.925   5.623  0.1236 -2.5999  1.7159
  996MOL0     H37435   3.236   8.048   5.456 -2.5275 -1.1249 -2.8148
  996MOL0     H37436   3.139   8.074   5.276 -0.4212  0.0897  0.9045
  996MOL0     H37437   2.966   8.066   5.240 -1.5591  0.6530  2.1309
  996MOL0     H37438   3.033   8.257   5.425 -0.8823  1.1374 -0.5211
  996MOL0     H37439   3.025   8.119   5.535 -2.5325 -1.3323  1.2545
  996MOL0     H37440   2.801   8.058   5.424 -2.9501  0.8165  0.7105
  996MOL0     H37441   2.803   8.197   5.541 -1.9341  3.2826 -1.2667
  996MOL0     H37442   2.677   8.238   5.349 -0.1293 -0.4561 -0.2621
  996MOL0     H37443   2.806   8.222   5.251  1.2205  0.4900 -0.6612
  996MOL0     H37444   2.881   8.600   5.466  0.9272 -0.4721  1.0511
  996MOL0     H37445   3.035   7.680   5.410  1.4825 -1.4350  0.7060
  996MOL0     H37446   3.102   7.479   5.484 -0.0058 -1.2946 -0.1316
  996MOL0     H37447   3.262   7.448   5.563 -0.5265 -0.0423  3.9933
  996MOL0     H37448   3.127   7.500   5.660  0.8569 -1.3523  0.3662
  997MOL0     O37449   3.111   2.529   0.260 -0.7156 -0.0097 -0.1927
  997MOL0     C37450   3.199   2.559   0.334  0.6310  0.4670  0.3071
  997MOL0     O37451   3.322   2.593   0.302 -0.8836 -0.1760 -0.2489
  997MOL0     C37452   3.360   2.584   0.169 -0.1955  0.6342 -0.4994
  997MOL0     C37453   3.404   2.702   0.107 -0.3495 -0.4601  0.0322
  997MOL0     C37454   3.435   2.714  -0.031  0.3998  0.5664 -0.0345
  997MOL0     C37455   3.424   2.593  -0.106 -0.1283 -0.3190  0.3160
  997MOL0     O37456   3.464   2.606  -0.240 -0.0689 -1.1174  0.4439
  997MOL0     C37457   3.372   2.542  -0.335  0.0723  0.5196  0.9354
  997MOL0     C37458   3.237   2.606  -0.333  0.8071  0.3792 -0.8308
  997MOL0     C37459   3.238   2.746  -0.394  0.9145  0.8557  0.9269
  997MOL0     C37460   3.179   2.730  -0.547 -0.2758  0.0598 -1.5122
  997MOL0     C37461   3.168   2.875  -0.592  0.4932  0.2705 -0.3780
  997MOL0     C37462   3.100   2.881  -0.730  0.1992  0.0495 -0.4664
  997MOL0     C37463   3.111   3.022  -0.788  0.7852 -0.8489  0.0196
  997MOL0     C37464   3.055   3.142  -0.718  0.1299 -0.6788  0.1598
  997MOL0     N37465   3.018   3.258  -0.801  0.2672  0.0198 -0.1293
  997MOL0     C37466   3.058   3.379  -0.764  0.1190 -0.7249 -1.0712
  997MOL0     C37467   2.979   3.466  -0.828  0.5575 -0.0377  0.4210
  997MOL0     C37468   2.984   3.609  -0.830 -0.9385 -0.0770  0.0714
  997MOL0     C37469   2.896   3.662  -0.718 -0.2933 -0.0275  0.4387
  997MOL0     C37470   2.745   3.676  -0.772 -0.1717  0.8637 -0.8720
  997MOL0     C37471   2.661   3.700  -0.651  0.3839  0.9295  0.2862
  997MOL0     O37472   2.693   3.827  -0.589 -0.0996 -0.2749  0.5270
  997MOL0     C37473   2.607   3.890  -0.505  0.1609 -0.7343 -1.9808
  997MOL0     C37474   2.506   3.835  -0.431 -0.0388  0.3472  0.1454
  997MOL0     C37475   2.411   3.915  -0.365  0.1074  0.6678 -0.3878
  997MOL0     C37476   2.326   3.843  -0.256  0.2665 -0.2752 -0.5169
  997MOL0     C37477   2.421   4.056  -0.373  0.6093  0.5744 -0.0902
  997MOL0     C37478   2.326   4.151  -0.315  0.3523 -0.3625  1.4953
  997MOL0     O37479   2.365   4.284  -0.309  0.2078 -0.6734  0.6041
  997MOL0     C37480   2.285   4.380  -0.248  0.0324  0.3951  0.5195
  997MOL0     C37481   2.327   4.442  -0.129  0.0535  0.2326 -0.4532
  997MOL0     C37482   2.251   4.553  -0.073  0.3047  0.6274  0.2279
  997MOL0     C37483   2.134   4.597  -0.136  0.5715 -0.4553  0.1382
  997MOL0     O37484   2.057   4.709  -0.099 -0.1607 -0.2799  0.0709
  997MOL0     C37485   2.071   4.745   0.032  0.0272 -0.1127  0.4694
  997MOL0     C37486   1.934   4.783   0.094  0.1415  0.5958 -0.0070
  997MOL0     C37487   1.829   4.675   0.115  0.4729 -0.3925  0.3988
  997MOL0     C37488   1.704   4.740   0.186 -0.4794 -0.6788 -0.4775
  997MOL0     C37489   1.590   4.640   0.182 -0.3365  0.2007 -0.1404
  997MOL0     C37490   1.617   4.507   0.250  0.9345  0.8928  1.1607
  997MOL0     C37491   1.500   4.413   0.213  0.0149  0.2475  0.0975
  997MOL0     C37492   1.541   4.266   0.228  0.4978 -0.1629 -1.1878
  997MOL0    Cl37493   1.662   4.199   0.107  0.4601 -0.4744  0.1414
  997MOL0     C37494   2.103   4.532  -0.263 -0.3790  0.1207  0.1921
  997MOL0     C37495   2.183   4.433  -0.323 -0.0379  0.1348 -0.6148
  997MOL0     O37496   2.210   4.116  -0.275  0.1760  0.3997  0.3785
  997MOL0     C37497   2.528   4.109  -0.441  0.0858  0.1843  0.0634
  997MOL0     C37498   2.619   4.027  -0.511  0.1391 -0.4251 -1.3652
  997MOL0     N37499   2.895   3.391  -0.908  0.1771  0.3347 -0.4611
  997MOL0     N37500   2.925   3.270  -0.895 -1.0176  0.6411 -0.4869
  997MOL0     C37501   3.385   2.475  -0.040  1.0210 -0.2140  0.2753
  997MOL0     C37502   3.356   2.467   0.099  0.1070  0.0123 -0.0384
  997MOL0     C37503   3.171   2.556   0.476 -0.2024  0.0747  0.6019
  997MOL0     C37504   3.236   2.649   0.556 -0.4420  0.2150  0.2318
  997MOL0     C37505   3.228   2.655   0.691 -0.2973 -0.6835  0.1493
  997MOL0     C37506   3.139   2.570   0.755 -0.1460 -0.4381  0.1444
  997MOL0     O37507   3.116   2.587   0.890 -0.6995 -0.7669  0.2774
  997MOL0     C37508   3.213   2.657   0.971  0.5170  0.0253 -0.0084
  997MOL0     C37509   3.168   2.661   1.125 -0.7314 -0.2333  0.5371
  997MOL0     C37510   3.218   2.530   1.193  0.0511 -0.3343 -0.0649
  997MOL0     C37511   3.134   2.517   1.323  0.8725 -0.1919  1.2100
  997MOL0     C37512   3.192   2.410   1.410 -0.0193  0.1373  0.3717
  997MOL0     C37513   3.244   2.347   1.497 -0.8917  0.1559  0.1126
  997MOL0     C37514   3.066   2.477   0.686 -0.1706  0.6809  0.0425
  997MOL0     C37515   3.079   2.470   0.542  0.3490 -0.1312 -0.5531
  997MOL0     C37516   2.986   2.372   0.470 -0.2179  0.4877  0.6638
  997MOL0     H37517   3.407   2.798   0.158 -1.0476  0.3372 -1.3575
  997MOL0     H37518   3.463   2.809  -0.076 -3.5224  1.8265 -0.2014
  997MOL0     H37519   3.372   2.436  -0.308  2.2317 -0.5193 -2.4998
  997MOL0     H37520   3.412   2.536  -0.437 -2.8448 -3.1965 -0.2359
  997MOL0     H37521   3.169   2.546  -0.395  0.6925 -0.4597  0.0904
  997MOL0     H37522   3.198   2.621  -0.232  1.7430 -0.1031 -0.3852
  997MOL0     H37523   3.171   2.813  -0.339 -0.3137  0.1667  0.3093
  997MOL0     H37524   3.334   2.798  -0.391  1.6820 -0.5459  1.2889
  997MOL0     H37525   3.249   2.667  -0.602  2.1756  1.1298  0.1967
  997MOL0     H37526   3.077   2.692  -0.543 -0.8085  1.5350  0.2525
  997MOL0     H37527   3.263   2.930  -0.587  0.3327  0.6091 -1.0116
  997MOL0     H37528   3.105   2.932  -0.523  2.2101 -0.4068  1.8920
  997MOL0     H37529   3.156   2.811  -0.792  1.5883  2.1069 -1.6770
  997MOL0     H37530   2.999   2.842  -0.721  0.1265  0.4955  1.0339
  997MOL0     H37531   3.056   3.010  -0.881  4.2237  0.0741 -2.3301
  997MOL0     H37532   3.213   3.046  -0.821  0.6418 -0.4512 -0.1343
  997MOL0     H37533   2.960   3.117  -0.669 -1.5899  1.0631 -2.0094
  997MOL0     H37534   3.124   3.169  -0.638  0.3479  0.0476 -0.2631
  997MOL0     H37535   3.129   3.408  -0.687 -1.0661  0.5725 -0.4242
  997MOL0     H37536   2.940   3.640  -0.925  0.2895  0.2722 -0.4004
  997MOL0     H37537   3.089   3.641  -0.827 -0.8369 -0.0941  5.0341
  997MOL0     H37538   2.897   3.588  -0.638 -2.1430  1.5897  2.0659
  997MOL0     H37539   2.926   3.757  -0.672 -1.4881  0.5055  0.1464
  997MOL0     H37540   2.726   3.756  -0.845  1.9837  0.2855 -2.1490
  997MOL0     H37541   2.726   3.576  -0.812  5.0822 -0.8000  0.0893
  997MOL0     H37542   2.553   3.700  -0.670  0.3056  0.7015  0.7222
  997MOL0     H37543   2.689   3.620  -0.582  4.2248  1.1038 -0.8538
  997MOL0     H37544   2.511   3.727  -0.426  0.6776  0.3531 -0.3498
  997MOL0     H37545   2.316   3.913  -0.172  4.5949  0.2380 -0.2027
  997MOL0     H37546   2.381   3.759  -0.215 -0.0652  0.2758  1.1565
  997MOL0     H37547   2.229   3.812  -0.297 -1.1616  3.7639 -0.6602
  997MOL0     H37548   2.415   4.409  -0.075 -1.5939 -1.6860  1.2639
  997MOL0     H37549   2.283   4.602   0.018 -0.0518 -4.9725  3.8292
  997MOL0     H37550   2.112   4.674   0.104  3.0748  1.1442  0.1387
  997MOL0     H37551   2.129   4.838   0.042 -0.0834 -0.1078  1.0970
  997MOL0     H37552   1.949   4.830   0.192 -0.2860 -1.5992  1.1972
  997MOL0     H37553   1.886   4.855   0.027 -1.4546  1.8688  2.3246
  997MOL0     H37554   1.885   4.614   0.186  0.9061  1.2393  1.5139
  997MOL0     H37555   1.796   4.616   0.029  0.6908 -0.9303  0.6784
  997MOL0     H37556   1.672   4.826   0.128  0.3211 -0.4073 -0.5364
  997MOL0     H37557   1.733   4.770   0.287  0.9224 -0.1105 -1.0187
  997MOL0     H37558   1.502   4.673   0.238 -0.5706 -0.7132  0.0498
  997MOL0     H37559   1.554   4.633   0.079 -2.0583  0.8752  0.3702
  997MOL0     H37560   1.630   4.503   0.359  2.9692  2.0419  1.0135
  997MOL0     H37561   1.700   4.452   0.206 -3.7920 -4.2501 -2.7716
  997MOL0     H37562   1.487   4.427   0.105  0.6551  0.8202  0.0826
  997MOL0     H37563   1.409   4.435   0.269 -0.4673 -0.8719 -0.2389
  997MOL0     H37564   1.454   4.201   0.244  1.6222 -1.0561  2.0498
  997MOL0     H37565   1.585   4.262   0.327 -0.0288  1.3604 -0.8602
  997MOL0     H37566   2.024   4.575  -0.324 -0.4247  1.1201  0.9088
  997MOL0     H37567   2.162   4.391  -0.420 -2.8171  0.9828 -0.4578
  997MOL0     H37568   2.545   4.215  -0.428  0.3605  0.3768 -1.6432
  997MOL0     H37569   2.704   4.078  -0.556  3.7158 -1.3992  3.4966
  997MOL0     H37570   3.389   2.388  -0.105  0.1915  0.0082 -0.0869
  997MOL0     H37571   3.324   2.381   0.158  0.3231  0.4790  0.7816
  997MOL0     H37572   3.303   2.715   0.502  0.7584 -1.1849 -0.0520
  997MOL0     H37573   3.300   2.718   0.743 -2.0395 -0.9601  3.1124
  997MOL0     H37574   3.307   2.602   0.959  2.4828  2.6981  1.9397
  997MOL0     H37575   3.234   2.756   0.928 -0.4878  0.3052  0.1153
  997MOL0     H37576   3.059   2.666   1.141 -0.9707 -2.9847  0.3274
  997MOL0     H37577   3.215   2.748   1.171 -2.3119  1.1451 -0.3445
  997MOL0     H37578   3.201   2.440   1.133 -1.1462  1.0244 -1.9078
  997MOL0     H37579   3.326   2.531   1.210  0.8029  0.6061 -3.9166
  997MOL0     H37580   3.031   2.492   1.296  1.0367  1.3349 -1.1570
  997MOL0     H37581   3.135   2.605   1.388 -0.7419 -0.9049  2.2848
  997MOL0     H37582   3.311   2.299   1.566 -1.4956 -0.7557  0.0751
  997MOL0     H37583   2.998   2.408   0.735 -3.8111  2.5203 -2.0140
  997MOL0     H37584   2.956   2.292   0.538  1.5620 -1.7270 -1.0182
  997MOL0     H37585   2.901   2.441   0.469 -0.3294  0.7451  5.0940
  997MOL0     H37586   3.028   2.327   0.380  0.5750  2.7614 -0.1897
  998MOL0     O37587   1.123  10.630   6.888  0.0042 -0.7996 -0.0561
  998MOL0     C37588   1.079  10.534   6.822 -0.5594 -1.1565  0.5741
  998MOL0     O37589   0.955  10.472   6.837 -0.2455 -1.1172 -0.5400
  998MOL0     C37590   0.863  10.528   6.931  0.3018  0.5245 -0.4293
  998MOL0     C37591   0.769  10.628   6.897 -0.7779  0.1433 -0.5182
  998MOL0     C37592   0.673  10.659   6.981 -0.3296  0.2912  0.0665
  998MOL0     C37593   0.670  10.609   7.111 -0.2755 -0.1362 -0.3523
  998MOL0     O37594   0.590  10.660   7.204 -1.0427 -0.0795  0.0674
  998MOL0     C37595   0.453  10.695   7.169  0.2190  0.0097 -0.7100
  998MOL0     C37596   0.393  10.828   7.221  0.1471 -0.7576  0.2104
  998MOL0     C37597   0.483  10.953   7.185 -0.3530 -0.3038 -0.3944
  998MOL0     C37598   0.550  10.997   7.313 -0.7449 -0.7007  0.0921
  998MOL0     C37599   0.472  11.076   7.415 -0.2406 -0.3842 -0.0628
  998MOL0     C37600   0.565  11.148   7.516  0.6407  0.2903 -0.7135
  998MOL0     C37601   0.636  11.052   7.614 -0.2697 -0.2804 -0.1078
  998MOL0     C37602   0.548  11.018   7.724  0.7646  0.7257  0.2391
  998MOL0     N37603   0.443  10.917   7.691 -0.1568 -0.9196 -0.0357
  998MOL0     C37604   0.469  10.796   7.638 -0.8217 -0.4121  0.4856
  998MOL0     C37605   0.354  10.728   7.647 -0.6101  0.3059 -0.5171
  998MOL0     C37606   0.309  10.601   7.586 -0.5074 -0.6350 -0.1270
  998MOL0     C37607   0.357  10.470   7.648 -0.5475 -0.4116 -0.4610
  998MOL0     C37608   0.327  10.472   7.797  0.5762  0.1637 -0.2126
  998MOL0     C37609   0.325  10.327   7.849  0.6491 -0.9051 -0.1178
  998MOL0     O37610   0.453  10.273   7.810 -0.5481 -0.5595 -0.0831
  998MOL0     C37611   0.495  10.158   7.866 -0.2002 -0.7986 -0.8786
  998MOL0     C37612   0.494  10.046   7.796  0.2029  0.1998 -0.8561
  998MOL0     C37613   0.511   9.920   7.855  0.5735 -0.7870  0.6422
  998MOL0     C37614   0.512   9.799   7.760  0.3513 -0.1325  0.6591
  998MOL0     C37615   0.522   9.905   7.999  0.5796 -0.8090 -0.1300
  998MOL0     C37616   0.543   9.774   8.073  0.0946  0.9749 -0.4139
  998MOL0     O37617   0.545   9.654   7.996 -0.1296 -0.9528  0.3293
  998MOL0     C37618   0.584   9.543   8.061 -0.4646 -0.8357  0.3556
  998MOL0     C37619   0.679   9.470   7.986 -0.7024 -0.4182 -0.7106
  998MOL0     C37620   0.735   9.355   8.030  0.0456  0.5139  0.6170
  998MOL0     C37621   0.702   9.304   8.164 -0.4766  0.3073  0.2026
  998MOL0     O37622   0.763   9.197   8.225 -0.1487  0.1304  0.6166
  998MOL0     C37623   0.838   9.107   8.137 -0.2782  0.4266  0.3012
  998MOL0     C37624   0.878   8.981   8.225  0.0455 -0.0989  0.3630
  998MOL0     C37625   0.965   9.036   8.338  0.1555 -1.0501 -1.0180
  998MOL0     C37626   1.065   8.957   8.403  0.1716  0.3634  0.5338
  998MOL0     C37627   1.158   8.878   8.306  0.7132 -0.4057  0.5756
  998MOL0     C37628   1.242   8.956   8.195  0.7782  0.3736 -0.3446
  998MOL0     C37629   1.333   8.854   8.107  0.0865 -0.6065  0.2886
  998MOL0     C37630   1.244   8.755   8.023  0.2716  0.4236  0.0422
  998MOL0    Cl37631   1.125   8.822   7.899 -0.3401  0.0851  0.0503
  998MOL0     C37632   0.616   9.380   8.242  0.5935 -0.4386  0.1228
  998MOL0     C37633   0.557   9.497   8.193 -0.7573 -0.3469 -0.0246
  998MOL0     O37634   0.563   9.786   8.198  0.1228 -0.1986 -0.1048
  998MOL0     C37635   0.534  10.025   8.063 -0.7516  0.2834 -0.3455
  998MOL0     C37636   0.514  10.150   8.008  0.3249 -0.6387 -0.3420
  998MOL0     N37637   0.257  10.800   7.719 -0.0053  0.3119  0.6199
  998MOL0     N37638   0.314  10.912   7.741 -0.4076  0.2260  0.1038
  998MOL0     C37639   0.766  10.520   7.153 -0.9124  0.3393 -0.2595
  998MOL0     C37640   0.853  10.468   7.055  0.5458 -0.0051 -0.6867
  998MOL0     C37641   1.186  10.470   6.742  0.2803  0.1336  0.3024
  998MOL0     C37642   1.252  10.564   6.653 -0.0730 -0.0632 -0.0918
  998MOL0     C37643   1.351  10.517   6.568 -0.3072  0.7624  0.4336
  998MOL0     C37644   1.385  10.375   6.569 -0.9096 -0.0205  0.1951
  998MOL0     O37645   1.482  10.340   6.476  0.0889 -0.1760 -0.7505
  998MOL0     C37646   1.499  10.203   6.449 -0.3976  0.4510  0.8423
  998MOL0     C37647   1.575  10.178   6.321 -0.1615 -0.0961 -0.7051
  998MOL0     C37648   1.695  10.264   6.323  0.1418  1.3690 -0.1820
  998MOL0     C37649   1.794  10.223   6.210  0.3048 -0.0766 -0.1875
  998MOL0     C37650   1.893  10.125   6.248 -0.2665  0.1503  0.7300
  998MOL0     C37651   1.963  10.035   6.293  0.0226 -0.4728 -0.0244
  998MOL0     C37652   1.315  10.292   6.657 -0.1269  0.9302  0.2171
  998MOL0     C37653   1.209  10.335   6.734 -1.1104 -0.5241 -0.3237
  998MOL0     C37654   1.144  10.229   6.822 -0.6570 -0.4277 -0.1316
  998MOL0     H37655   0.777  10.687   6.806 -1.5035 -0.5186 -1.0220
  998MOL0     H37656   0.610  10.743   6.954 -0.3643 -0.7495 -3.4647
  998MOL0     H37657   0.397  10.617   7.221  0.7303  0.2653  0.2558
  998MOL0     H37658   0.430  10.684   7.063 -2.5517  0.6676 -0.2410
  998MOL0     H37659   0.291  10.843   7.185  0.7396 -1.1010 -1.6863
  998MOL0     H37660   0.372  10.818   7.328 -1.4631 -1.2548 -0.1169
  998MOL0     H37661   0.558  10.926   7.110 -0.9716  0.3933 -1.2865
  998MOL0     H37662   0.437  11.039   7.136  1.1322  0.8876  0.2208
  998MOL0     H37663   0.588  10.909   7.367 -0.4328  1.0380  2.8664
  998MOL0     H37664   0.644  11.046   7.284 -2.3633  2.7949  0.2986
  998MOL0     H37665   0.403  11.019   7.479 -0.9930  1.2100  0.5975
  998MOL0     H37666   0.421  11.157   7.363  1.2383 -0.2420 -1.3660
  998MOL0     H37667   0.645  11.205   7.468 -0.9040  3.8883  0.5844
  998MOL0     H37668   0.504  11.222   7.569 -0.1181 -1.7105  1.3457
  998MOL0     H37669   0.724  11.095   7.661 -0.7623 -0.5176  1.0751
  998MOL0     H37670   0.684  10.973   7.555  2.2324 -0.3922  1.9266
  998MOL0     H37671   0.607  10.960   7.796 -3.1884 -1.6259  1.9427
  998MOL0     H37672   0.512  11.107   7.776  1.7824  0.8720  0.7186
  998MOL0     H37673   0.561  10.770   7.587 -1.7148 -1.9208 -0.4434
  998MOL0     H37674   0.323  10.604   7.478 -0.6023  1.2076 -0.1155
  998MOL0     H37675   0.201  10.597   7.595 -0.5579  0.1314 -0.3552
  998MOL0     H37676   0.306  10.382   7.609 -2.3313  0.6723 -0.6960
  998MOL0     H37677   0.459  10.446   7.617 -0.4749  0.9468 -1.3584
  998MOL0     H37678   0.402  10.537   7.842 -2.0252  2.5202  1.0418
  998MOL0     H37679   0.228  10.508   7.826  0.0167 -4.6251  5.9300
  998MOL0     H37680   0.322  10.326   7.958  4.1313 -1.6394  0.0771
  998MOL0     H37681   0.233  10.275   7.820 -1.3453  0.3611  3.3852
  998MOL0     H37682   0.473  10.061   7.690 -0.1232 -0.6839 -0.9247
  998MOL0     H37683   0.416   9.747   7.762 -0.7957  1.9189  2.1254
  998MOL0     H37684   0.597   9.732   7.779  0.6163  0.2919  0.9857
  998MOL0     H37685   0.530   9.824   7.655  2.9570 -2.7042  0.3395
  998MOL0     H37686   0.693   9.509   7.886 -1.5660  0.3254 -0.5566
  998MOL0     H37687   0.797   9.304   7.957 -2.1800  0.0588 -1.0631
  998MOL0     H37688   0.771   9.062   8.063  1.4965  0.0902 -1.1611
  998MOL0     H37689   0.919   9.151   8.078 -0.7439 -2.0187 -2.3740
  998MOL0     H37690   0.797   8.932   8.280 -1.0143 -0.5366 -1.5154
  998MOL0     H37691   0.925   8.901   8.168 -0.2427  0.3372 -0.5111
  998MOL0     H37692   0.892   9.050   8.418 -0.6092 -2.2538 -1.4786
  998MOL0     H37693   1.011   9.127   8.298 -2.4758 -0.3040 -2.5753
  998MOL0     H37694   1.020   8.888   8.474 -2.2481  2.3493  1.0799
  998MOL0     H37695   1.131   9.024   8.459 -0.8935  0.3901  1.8027
  998MOL0     H37696   1.232   8.825   8.368 -0.3103 -0.1562  2.0793
  998MOL0     H37697   1.109   8.793   8.258  0.8428  1.0490 -2.3598
  998MOL0     H37698   1.311   9.026   8.244 -2.3816  2.3751  1.6096
  998MOL0     H37699   1.176   9.014   8.130  0.1872 -1.2558 -1.2659
  998MOL0     H37700   1.380   8.792   8.183 -3.3397 -3.6244  0.1953
  998MOL0     H37701   1.406   8.904   8.042  0.2125 -0.5046  0.5052
  998MOL0     H37702   1.181   8.692   8.086  1.2903 -0.7331 -0.0672
  998MOL0     H37703   1.301   8.678   7.970 -0.8002 -0.1398 -0.3230
  998MOL0     H37704   0.596   9.334   8.339  1.5209 -2.6119 -0.6610
  998MOL0     H37705   0.482   9.554   8.246 -0.4154 -1.6372  1.9430
  998MOL0     H37706   0.551  10.032   8.170  0.4485  2.8289 -0.6069
  998MOL0     H37707   0.514  10.243   8.064 -0.4859  0.6673 -2.3606
  998MOL0     H37708   0.769  10.485   7.256 -1.5407 -0.1576 -0.4065
  998MOL0     H37709   0.911  10.378   7.072  1.4098  1.0206  2.4319
  998MOL0     H37710   1.233  10.670   6.668 -1.1280 -0.3835  1.0432
  998MOL0     H37711   1.405  10.575   6.495 -1.6485  2.3832  0.6704
  998MOL0     H37712   1.563  10.150   6.519  1.7631 -1.8361 -2.5702
  998MOL0     H37713   1.409  10.141   6.443 -0.7479  1.0044  0.1804
  998MOL0     H37714   1.511  10.208   6.238  0.0504 -0.0194 -0.8436
  998MOL0     H37715   1.592  10.070   6.321 -4.5249 -0.9528 -1.0459
  998MOL0     H37716   1.659  10.366   6.302 -0.0693  1.1814 -0.7625
  998MOL0     H37717   1.747  10.260   6.419  2.1060 -5.0585 -1.0784
  998MOL0     H37718   1.839  10.318   6.180 -1.9731  0.2502 -3.0013
  998MOL0     H37719   1.749  10.187   6.118 -0.8280 -2.1222  1.0803
  998MOL0     H37720   2.039   9.973   6.336  0.9930  1.4608  1.2286
  998MOL0     H37721   1.343  10.187   6.657  2.1780  1.4978 -0.5396
  998MOL0     H37722   1.149  10.259   6.927 -1.4452  0.7525 -0.4192
  998MOL0     H37723   1.041  10.218   6.788 -0.0046 -0.1683 -2.3573
  998MOL0     H37724   1.185  10.128   6.813 -1.3851 -0.8503  1.0787
  999MOL0     O37725   7.283   2.443   7.874 -0.0217  0.2795 -0.2797
  999MOL0     C37726   7.207   2.346   7.873  0.9382  0.0416 -0.3964
  999MOL0     O37727   7.246   2.220   7.859 -0.5732  0.0250  0.2062
  999MOL0     C37728   7.379   2.198   7.820  0.7950  0.4164  1.1276
  999MOL0     C37729   7.414   2.176   7.686 -0.3687  0.8194  1.0838
  999MOL0     C37730   7.549   2.151   7.648 -0.7192 -0.2231 -0.3534
  999MOL0     C37731   7.647   2.138   7.743 -0.5072  0.0592 -0.2458
  999MOL0     O37732   7.772   2.110   7.716 -0.1299 -0.5225  0.0081
  999MOL0     C37733   7.791   1.979   7.651  0.5065  0.4049  0.5199
  999MOL0     C37734   7.940   1.942   7.628  0.7938  0.9012 -0.6150
  999MOL0     C37735   8.003   2.018   7.508 -0.2569 -0.0791  1.1760
  999MOL0     C37736   8.001   2.161   7.548 -0.5993  0.8988  0.5474
  999MOL0     C37737   8.093   2.240   7.469 -0.0157  0.4952  0.5452
  999MOL0     C37738   8.243   2.220   7.500 -0.0958  0.8718  1.1834
  999MOL0     C37739   8.344   2.273   7.399  0.3353 -0.0634 -0.6979
  999MOL0     C37740   8.341   2.424   7.382  0.6835 -0.4794 -0.5410
  999MOL0     N37741   8.420   2.479   7.273 -1.0525  0.3356 -0.1077
  999MOL0     C37742   8.537   2.545   7.296  0.4660  1.5609 -0.0165
  999MOL0     C37743   8.544   2.626   7.184 -0.3295  0.4154  0.2393
  999MOL0     C37744   8.655   2.721   7.144  0.2007 -0.1907  1.3121
  999MOL0     C37745   8.669   2.749   6.993 -0.2273 -0.2449  0.2950
  999MOL0     C37746   8.723   2.621   6.919  1.0049  0.3431 -0.6505
  999MOL0     C37747   8.763   2.648   6.766 -0.4661 -0.7741 -0.7049
  999MOL0     O37748   8.873   2.732   6.765 -0.0704 -0.0807 -0.6516
  999MOL0     C37749   8.925   2.763   6.647  0.2107  0.9519  0.3451
  999MOL0     C37750   8.885   2.725   6.515 -0.7793  0.4995  0.5886
  999MOL0     C37751   8.955   2.768   6.396  0.4001  0.1246 -0.0453
  999MOL0     C37752   8.928   2.681   6.273  0.0436 -0.1998 -0.2286
  999MOL0     C37753   9.067   2.854   6.408  0.1504 -0.6165  0.0420
  999MOL0     C37754   9.145   2.891   6.284 -0.8013 -0.1800  0.5029
  999MOL0     O37755   9.249   2.972   6.312  0.1321 -0.3680  0.3668
  999MOL0     C37756   9.294   3.067   6.221  0.5217 -0.4501  0.8166
  999MOL0     C37757   9.202   3.151   6.167  0.4400  0.5248  0.4329
  999MOL0     C37758   9.243   3.238   6.066 -0.5664  0.4241 -0.7311
  999MOL0     C37759   9.372   3.232   6.012  0.3562  0.1668 -0.2903
  999MOL0     O37760   9.395   3.334   5.928  0.3392 -0.7619  0.4472
  999MOL0     C37761   9.446   3.292   5.801 -0.4718  0.0144 -0.9845
  999MOL0     C37762   9.433   3.413   5.705 -0.0171  0.4202 -0.4935
  999MOL0     C37763   9.286   3.473   5.683 -0.6818 -0.1604  2.1823
  999MOL0     C37764   9.271   3.564   5.565 -0.5665  0.2460 -0.9431
  999MOL0     C37765   9.126   3.637   5.567 -0.2299  0.2272 -0.3684
  999MOL0     C37766   9.109   3.721   5.441  0.6173 -0.5933 -0.4861
  999MOL0     C37767   8.974   3.796   5.443 -0.5376  0.2857  0.0749
  999MOL0     C37768   8.846   3.707   5.444 -0.3898 -1.0248  0.3065
  999MOL0    Cl37769   8.705   3.799   5.409 -0.0816  0.7373  0.2938
  999MOL0     C37770   9.464   3.138   6.061  1.1532 -1.1858 -0.0007
  999MOL0     C37771   9.428   3.066   6.178 -0.1209 -1.0881  0.1371
  999MOL0     O37772   9.127   2.856   6.169  0.3696  0.4825  0.4178
  999MOL0     C37773   9.105   2.893   6.537 -0.5983 -0.8803 -0.0284
  999MOL0     C37774   9.036   2.849   6.650  0.2677 -0.0230 -0.5663
  999MOL0     N37775   8.442   2.597   7.097 -0.6025 -0.3009 -0.0969
  999MOL0     N37776   8.369   2.508   7.156  0.6352 -0.2000  0.5854
  999MOL0     C37777   7.611   2.155   7.888 -0.1778  0.7510  0.2977
  999MOL0     C37778   7.476   2.185   7.918 -0.4540 -0.3037  0.2158
  999MOL0     C37779   7.067   2.366   7.874  0.0441 -0.6597 -0.7335
  999MOL0     C37780   6.986   2.254   7.822  0.8573  0.0452  0.4943
  999MOL0     C37781   6.850   2.259   7.843 -0.0660 -0.5886  0.6330
  999MOL0     C37782   6.776   2.373   7.891 -0.6612  0.2404  0.5441
  999MOL0     O37783   6.639   2.378   7.901  0.1753 -0.2985  1.0493
  999MOL0     C37784   6.565   2.330   7.790 -0.1657 -1.2345  0.7714
  999MOL0     C37785   6.510   2.455   7.716  0.3967 -0.6192 -0.9791
  999MOL0     C37786   6.402   2.525   7.809 -0.1797  0.0085  0.1682
  999MOL0     C37787   6.302   2.612   7.742  0.0136  0.2986 -0.5003
  999MOL0     C37788   6.368   2.711   7.660 -0.4701  0.1538  0.0911
  999MOL0     C37789   6.414   2.799   7.592 -0.5173 -0.4846  0.3039
  999MOL0     C37790   6.859   2.477   7.931 -0.5656 -0.6761 -0.3703
  999MOL0     C37791   7.003   2.474   7.939 -0.6199 -0.0896 -0.3890
  999MOL0     C37792   7.069   2.587   8.011  0.4881  0.4619 -0.6259
  999MOL0     H37793   7.350   2.188   7.599  0.3830  0.4893  0.4779
  999MOL0     H37794   7.573   2.143   7.543  0.2777 -2.6334 -0.0167
  999MOL0     H37795   7.733   1.977   7.559 -2.1731 -1.5846  2.0725
  999MOL0     H37796   7.747   1.903   7.717 -1.0526 -0.2124 -1.1466
  999MOL0     H37797   7.995   1.961   7.720  0.4612 -3.2859  0.6556
  999MOL0     H37798   7.948   1.835   7.605  0.2855  0.6623  0.2752
  999MOL0     H37799   8.103   1.984   7.479 -0.3705  0.8789 -0.4752
  999MOL0     H37800   7.939   2.003   7.421 -0.0724  0.3016  0.9733
  999MOL0     H37801   7.902   2.203   7.530  0.4365  3.4411  0.2841
  999MOL0     H37802   8.028   2.176   7.653 -0.9653 -0.9108  0.9287
  999MOL0     H37803   8.076   2.346   7.486 -3.3131 -0.1952  2.2942
  999MOL0     H37804   8.073   2.227   7.362  2.2924  1.6595 -0.1052
  999MOL0     H37805   8.277   2.268   7.592 -0.4873  3.8128 -0.0778
  999MOL0     H37806   8.252   2.112   7.507  1.7182  1.0132  1.4655
  999MOL0     H37807   8.320   2.241   7.297 -1.8534  3.2491 -1.3836
  999MOL0     H37808   8.443   2.239   7.433  0.2534 -1.7348 -2.0021
  999MOL0     H37809   8.241   2.464   7.366  1.0470  2.9034  3.8219
  999MOL0     H37810   8.367   2.480   7.473  3.0939  0.4707 -1.7208
  999MOL0     H37811   8.603   2.546   7.383  0.0610 -1.5414  0.4456
  999MOL0     H37812   8.751   2.686   7.184  0.9316 -0.4109 -0.5277
  999MOL0     H37813   8.638   2.815   7.196  1.3677  0.3210  0.7946
  999MOL0     H37814   8.576   2.779   6.943 -1.6113  0.5128  3.1244
  999MOL0     H37815   8.742   2.830   6.993 -0.8285  0.3369 -1.3876
  999MOL0     H37816   8.795   2.568   6.981 -0.2785 -0.3220  0.3170
  999MOL0     H37817   8.636   2.555   6.914  0.8576  0.3588  1.1242
  999MOL0     H37818   8.804   2.553   6.729 -2.4348 -1.5896 -0.9197
  999MOL0     H37819   8.683   2.659   6.693  0.4589 -1.3495 -1.8367
  999MOL0     H37820   8.804   2.654   6.502  1.0210 -1.5181 -0.2601
  999MOL0     H37821   9.015   2.618   6.252  0.6436  0.0892  1.2213
  999MOL0     H37822   8.908   2.735   6.180 -0.7801 -1.5766 -0.8850
  999MOL0     H37823   8.840   2.617   6.287  0.3624 -0.9228 -1.3878
  999MOL0     H37824   9.094   3.156   6.182  0.3331  1.9176 -0.6033
  999MOL0     H37825   9.175   3.320   6.044 -1.0501 -0.3226 -2.1413
  999MOL0     H37826   9.554   3.275   5.805 -0.0610  2.1429 -1.9129
  999MOL0     H37827   9.407   3.194   5.770 -0.6610  0.5961 -2.7153
  999MOL0     H37828   9.493   3.493   5.749  1.6089  0.1854 -2.1668
  999MOL0     H37829   9.472   3.390   5.605 -2.3896 -0.1091 -1.3849
  999MOL0     H37830   9.260   3.523   5.777  0.6513  1.3364  1.7994
  999MOL0     H37831   9.201   3.404   5.678 -3.3327  2.7874  3.0740
  999MOL0     H37832   9.273   3.508   5.472  0.6397  1.0903 -1.4496
  999MOL0     H37833   9.348   3.641   5.576 -0.9019  0.3793  0.7540
  999MOL0     H37834   9.058   3.552   5.569  0.6675 -0.5021  0.0601
  999MOL0     H37835   9.126   3.694   5.661  3.0873 -2.8544  1.7601
  999MOL0     H37836   9.114   3.656   5.354 -1.1153 -2.8436  0.9879
  999MOL0     H37837   9.194   3.790   5.440 -0.7250  1.2833  1.9176
  999MOL0     H37838   8.966   3.856   5.352 -2.8888 -0.4931 -0.3162
  999MOL0     H37839   8.969   3.860   5.531 -2.1658  0.1529  0.1063
  999MOL0     H37840   8.829   3.671   5.546  4.9834  3.8027  3.5070
  999MOL0     H37841   8.857   3.619   5.379 -0.0176 -1.7155  1.2805
  999MOL0     H37842   9.561   3.132   6.012  0.3664 -0.3002 -1.7547
  999MOL0     H37843   9.515   3.021   6.224  1.0280 -0.5273 -1.4009
  999MOL0     H37844   9.193   2.956   6.548  0.5912 -2.5197  0.1910
  999MOL0     H37845   9.069   2.882   6.748  1.3449 -2.1048 -0.1778
  999MOL0     H37846   7.692   2.157   7.961  0.1065  1.9315 -0.0281
  999MOL0     H37847   7.440   2.200   8.020 -1.5592  3.1155 -0.5377
  999MOL0     H37848   7.030   2.164   7.781  0.4472  0.0894 -0.0601
  999MOL0     H37849   6.796   2.168   7.818 -2.2031  0.9998 -0.8806
  999MOL0     H37850   6.617   2.272   7.712 -1.3271 -0.4986 -0.6075
  999MOL0     H37851   6.485   2.266   7.828 -0.6185 -2.2008 -1.5706
  999MOL0     H37852   6.466   2.422   7.621 -0.6901 -0.4546 -0.5444
  999MOL0     H37853   6.583   2.532   7.691  1.7753 -0.6817  2.3327
  999MOL0     H37854   6.359   2.448   7.874  0.6637 -2.6358 -2.1664
  999MOL0     H37855   6.458   2.588   7.879  0.2228 -1.6694  1.4274
  999MOL0     H37856   6.260   2.664   7.828  0.6325 -0.1026  0.0465
  999MOL0     H37857   6.222   2.553   7.696 -0.5877  0.9818 -0.3507
  999MOL0     H37858   6.452   2.878   7.530 -2.5861  2.0598  2.0184
  999MOL0     H37859   6.810   2.561   7.978 -0.2571 -0.5183 -0.3310
  999MOL0     H37860   7.060   2.678   7.951  2.1255  0.5697 -0.7719
  999MOL0     H37861   7.014   2.617   8.100 -0.6945  0.2104 -1.2574
  999MOL0     H37862   7.175   2.571   8.035  0.7164 -0.5656 -2.2163
 1000MOL0     O37863  10.468   5.674   2.224  0.8808  0.1870  0.3488
 1000MOL0     C37864  10.380   5.588   2.232  0.0556  0.2315  0.2712
 1000MOL0     O37865  10.260   5.618   2.302  0.1845 -0.3015 -0.0028
 1000MOL0     C37866  10.248   5.731   2.376  0.0126  0.5560 -0.8793
 1000MOL0     C37867  10.338   5.762   2.483 -1.6034 -0.9054 -0.3369
 1000MOL0     C37868  10.308   5.846   2.582  0.1972 -1.0862 -0.1844
 1000MOL0     C37869  10.186   5.918   2.577  0.3395  0.5829 -0.5436
 1000MOL0     O37870  10.159   6.006   2.683 -0.7950 -0.0801  0.0209
 1000MOL0     C37871  10.051   6.099   2.671 -0.0036 -0.3638 -0.4940
 1000MOL0     C37872  10.091   6.239   2.621  0.1901  0.1130 -0.5330
 1000MOL0     C37873  10.085   6.268   2.474  0.0376  0.0473 -0.5375
 1000MOL0     C37874  10.117   6.411   2.431  0.4726  0.8319 -0.2904
 1000MOL0     C37875  10.084   6.427   2.278  0.1119 -0.2585 -0.5151
 1000MOL0     C37876  10.083   6.583   2.249 -0.3929 -0.3313  0.5687
 1000MOL0     C37877   9.969   6.654   2.314  0.5125 -0.0418 -0.6371
 1000MOL0     C37878   9.951   6.806   2.278  0.3052 -0.2031  0.1347
 1000MOL0     N37879   9.918   6.825   2.136  0.2989  0.2743  0.2863
 1000MOL0     C37880  10.008   6.868   2.042  0.4774  0.2601  0.8089
 1000MOL0     C37881   9.939   6.838   1.928  0.6803  0.5581  1.4837
 1000MOL0     C37882   9.986   6.846   1.780  0.3263  0.3545 -0.1358
 1000MOL0     C37883   9.958   6.974   1.700  0.0610  1.0657 -0.2989
 1000MOL0     C37884   9.967   6.932   1.556  0.0750 -0.0931  0.4914
 1000MOL0     C37885   9.949   7.047   1.451  0.5283  0.1981 -0.9165
 1000MOL0     O37886   9.821   7.111   1.479  0.1436  0.6320  0.7758
 1000MOL0     C37887   9.810   7.224   1.406 -0.2768 -0.8858 -0.4845
 1000MOL0     C37888   9.686   7.284   1.403 -0.1193  0.2427 -0.4278
 1000MOL0     C37889   9.666   7.416   1.349 -0.2616  0.7731 -1.5194
 1000MOL0     C37890   9.534   7.483   1.376  0.2240  0.6727  0.1345
 1000MOL0     C37891   9.776   7.482   1.292  1.2359 -0.1369  0.7665
 1000MOL0     C37892   9.769   7.620   1.242  0.3627  0.3724 -1.2138
 1000MOL0     O37893   9.879   7.670   1.192  0.2919  0.2483 -0.1194
 1000MOL0     C37894   9.867   7.776   1.104  0.4497 -0.7087 -0.3547
 1000MOL0     C37895   9.969   7.877   1.107  0.5379  0.6678 -0.3671
 1000MOL0     C37896   9.989   7.970   1.003 -0.7685 -0.0359  0.2065
 1000MOL0     C37897   9.911   7.964   0.891  1.1114 -0.5298  0.2149
 1000MOL0     O37898   9.929   8.061   0.798  0.5484 -0.4244 -0.0037
 1000MOL0     C37899  10.056   8.059   0.738 -0.2817 -0.6153  0.0334
 1000MOL0     C37900  10.041   8.092   0.586 -0.2181 -1.8383  0.1783
 1000MOL0     C37901  10.172   8.064   0.503  0.4691  0.4282 -0.4327
 1000MOL0     C37902  10.278   8.174   0.511 -0.0559  0.3540  0.1177
 1000MOL0     C37903  10.381   8.162   0.628  2.0681 -0.5071  0.0737
 1000MOL0     C37904  10.489   8.282   0.630 -0.3048  0.4764 -0.0006
 1000MOL0     C37905  10.569   8.283   0.503 -0.6519  0.0919  0.4463
 1000MOL0     C37906  10.531   8.386   0.401  0.7788 -0.0467 -0.3526
 1000MOL0    Cl37907  10.635   8.376   0.260  0.4359 -0.3577 -0.0028
 1000MOL0     C37908   9.813   7.872   0.890 -0.7461  0.6962 -0.1259
 1000MOL0     C37909   9.784   7.772   0.989  0.6165 -0.9695 -1.3727
 1000MOL0     O37910   9.671   7.689   1.260  0.8615 -0.4175  0.1425
 1000MOL0     C37911   9.899   7.418   1.282 -0.7882  0.0738 -0.5237
 1000MOL0     C37912   9.918   7.292   1.341 -0.3589 -0.4086 -0.5785
 1000MOL0     N37913   9.817   6.785   1.956  0.0113 -0.3055 -0.5563
 1000MOL0     N37914   9.810   6.766   2.080 -0.6449  0.3489 -0.3021
 1000MOL0     C37915  10.094   5.880   2.486  0.4213 -0.0781 -0.7276
 1000MOL0     C37916  10.125   5.794   2.377  0.4822  0.0831  0.0008
 1000MOL0     C37917  10.380   5.449   2.176 -0.1166 -0.1127 -0.0902
 1000MOL0     C37918  10.269   5.362   2.212 -0.3204 -0.5146  0.2845
 1000MOL0     C37919  10.255   5.240   2.147 -0.7815 -0.8577 -0.2041
 1000MOL0     C37920  10.357   5.194   2.058  0.4677 -0.3824  0.4433
 1000MOL0     O37921  10.342   5.067   2.025  0.2698  0.6446  0.3662
 1000MOL0     C37922  10.234   5.049   1.924  0.2964  0.4959 -1.0362
 1000MOL0     C37923  10.200   4.903   1.891 -0.2854 -0.5283 -1.3726
 1000MOL0     C37924  10.081   4.902   1.794  0.3681 -0.6580  0.0758
 1000MOL0     C37925  10.061   4.754   1.739 -0.0181 -0.6001 -0.1023
 1000MOL0     C37926  10.181   4.718   1.662  0.6263  0.4950 -0.3436
 1000MOL0     C37927  10.283   4.686   1.606 -0.2394  0.5790 -0.1511
 1000MOL0     C37928  10.461   5.274   2.020  0.1466 -0.3186  0.0244
 1000MOL0     C37929  10.475   5.406   2.079 -1.0416 -0.3050 -0.0985
 1000MOL0     C37930  10.585   5.488   2.030  0.2472 -0.3454 -0.0037
 1000MOL0     H37931  10.433   5.710   2.490 -1.6544 -1.1492 -1.2752
 1000MOL0     H37932  10.381   5.880   2.654  2.0990 -0.9812 -2.0680
 1000MOL0     H37933  10.015   6.107   2.774  2.1076 -1.5281  0.4059
 1000MOL0     H37934   9.976   6.061   2.602  1.4954 -4.2693 -0.2179
 1000MOL0     H37935  10.021   6.311   2.665  1.8555 -0.0616  2.7502
 1000MOL0     H37936  10.188   6.243   2.671  0.2978 -0.0859 -0.7284
 1000MOL0     H37937  10.162   6.209   2.424  0.3333  1.3624 -1.6921
 1000MOL0     H37938   9.994   6.219   2.438 -0.3650  1.0734 -0.9443
 1000MOL0     H37939  10.060   6.478   2.495  1.4598 -0.6433  2.3041
 1000MOL0     H37940  10.222   6.439   2.442 -0.2954  4.3596 -0.7234
 1000MOL0     H37941   9.993   6.379   2.241 -0.0389  0.2124 -0.7658
 1000MOL0     H37942  10.160   6.366   2.229  1.1085 -0.7286  1.5216
 1000MOL0     H37943  10.170   6.631   2.294 -1.8985  2.5238  0.6501
 1000MOL0     H37944  10.077   6.592   2.140 -1.3601 -4.4939  0.1099
 1000MOL0     H37945   9.967   6.655   2.423 -2.9961  0.9309 -0.5895
 1000MOL0     H37946   9.877   6.598   2.295  1.6327 -3.1722  2.2319
 1000MOL0     H37947   9.872   6.856   2.334 -0.0279 -0.3080 -0.2350
 1000MOL0     H37948  10.041   6.863   2.303  1.4796 -2.2559  0.8384
 1000MOL0     H37949  10.105   6.914   2.058 -0.1596  1.6361  0.8965
 1000MOL0     H37950   9.929   6.768   1.728  0.5777  1.5183 -2.2967
 1000MOL0     H37951  10.093   6.827   1.775  0.4661  0.8873  0.7503
 1000MOL0     H37952   9.860   7.012   1.732  0.2445  1.4171 -0.1521
 1000MOL0     H37953  10.024   7.058   1.725 -2.7871  3.3690  0.1338
 1000MOL0     H37954  10.064   6.884   1.542  0.1324 -0.2566  1.4134
 1000MOL0     H37955   9.887   6.860   1.536  0.2716 -0.2529  0.2671
 1000MOL0     H37956  10.041   7.104   1.469 -1.0444  2.2968  1.1837
 1000MOL0     H37957   9.957   7.018   1.346 -0.3175 -0.3964 -0.8249
 1000MOL0     H37958   9.610   7.221   1.447  0.9281 -0.4109  0.5098
 1000MOL0     H37959   9.455   7.416   1.412  2.2365 -2.3924 -0.7557
 1000MOL0     H37960   9.489   7.512   1.281 -2.0255 -0.4731  0.7703
 1000MOL0     H37961   9.557   7.566   1.444 -0.4266  1.4313 -0.5569
 1000MOL0     H37962  10.033   7.883   1.195  3.1018  0.2298 -2.0828
 1000MOL0     H37963  10.068   8.044   1.008 -0.4350 -0.4007  0.4345
 1000MOL0     H37964  10.124   8.121   0.797 -0.6075 -0.8043  0.6142
 1000MOL0     H37965  10.096   7.957   0.735  0.6971 -0.3079  1.7330
 1000MOL0     H37966   9.963   8.033   0.537 -1.3456 -0.4926  0.2979
 1000MOL0     H37967  10.003   8.194   0.574  0.7134 -1.3872  0.9284
 1000MOL0     H37968  10.144   8.041   0.400 -0.1372 -2.6152  0.3330
 1000MOL0     H37969  10.208   7.970   0.546  0.8308  1.0550  0.6891
 1000MOL0     H37970  10.238   8.275   0.504 -0.3377  0.1843 -1.0338
 1000MOL0     H37971  10.342   8.164   0.423  2.6097 -2.8487  2.1723
 1000MOL0     H37972  10.327   8.149   0.722  2.9503  1.0377  0.8300
 1000MOL0     H37973  10.444   8.073   0.615  1.1106 -1.3648  1.0318
 1000MOL0     H37974  10.563   8.260   0.708  1.1644  3.4515 -0.4131
 1000MOL0     H37975  10.443   8.374   0.666  2.5661  1.9932  0.0647
 1000MOL0     H37976  10.585   8.185   0.457  1.9748  1.1336 -1.0760
 1000MOL0     H37977  10.665   8.326   0.533 -1.3213  0.3407  2.3521
 1000MOL0     H37978  10.543   8.483   0.451 -1.5306 -1.4860  3.3609
 1000MOL0     H37979  10.430   8.377   0.360 -0.7170  0.5330  2.8971
 1000MOL0     H37980   9.745   7.860   0.806 -0.0249  1.5244 -0.8389
 1000MOL0     H37981   9.707   7.696   0.979 -0.5628  0.2995 -2.4500
 1000MOL0     H37982   9.994   7.456   1.247 -0.4084  1.2444  1.6177
 1000MOL0     H37983  10.020   7.254   1.339 -0.0883  0.2311  0.4225
 1000MOL0     H37984   9.987   5.900   2.493 -0.2184 -3.3635  0.7315
 1000MOL0     H37985  10.048   5.760   2.309  1.5530  0.2676 -1.3475
 1000MOL0     H37986  10.198   5.393   2.288 -0.5387 -0.6396  0.1337
 1000MOL0     H37987  10.168   5.181   2.175 -0.5960 -0.4357  1.3759
 1000MOL0     H37988  10.144   5.094   1.969  3.0542  3.3272  2.2475
 1000MOL0     H37989  10.258   5.112   1.838 -1.6854  1.6943 -0.7778
 1000MOL0     H37990  10.180   4.837   1.975 -0.7779  0.4236 -0.7187
 1000MOL0     H37991  10.295   4.866   1.850  2.2396  1.7892  1.7976
 1000MOL0     H37992   9.989   4.925   1.849  2.6581  2.6455  2.9979
 1000MOL0     H37993  10.107   4.973   1.716  0.0570 -0.8803 -0.2299
 1000MOL0     H37994   9.965   4.749   1.687 -0.7550 -1.0951  1.2571
 1000MOL0     H37995  10.055   4.693   1.829 -4.5917  0.8098  0.8158
 1000MOL0     H37996  10.377   4.653   1.568  0.3701  3.6026 -1.5124
 1000MOL0     H37997  10.538   5.237   1.954  1.9971 -2.4873  3.0956
 1000MOL0     H37998  10.668   5.490   2.102  0.4694  0.7294 -0.2689
 1000MOL0     H37999  10.631   5.464   1.933  2.1631  0.3594  0.6772
 1000MOL0     H38000  10.549   5.590   2.013  0.9732 -0.2108 -0.8167
 1001MOL0     O38001   7.243   5.223   7.212 -0.3160 -0.8823  0.4932
 1001MOL0     C38002   7.207   5.302   7.290  0.1029 -1.0206  0.0015
 1001MOL0     O38003   7.152   5.421   7.257 -0.9670 -0.1407  0.4081
 1001MOL0     C38004   7.143   5.460   7.125 -0.7215 -0.5055  0.5526
 1001MOL0     C38005   7.258   5.463   7.037 -0.1990 -0.8360  0.7637
 1001MOL0     C38006   7.241   5.502   6.898 -0.3654 -0.5724  0.0051
 1001MOL0     C38007   7.127   5.574   6.864 -0.1451 -0.1184  0.3972
 1001MOL0     O38008   7.104   5.635   6.736 -0.5076 -0.1134  0.6210
 1001MOL0     C38009   7.212   5.681   6.667 -0.1589 -0.5635  0.0940
 1001MOL0     C38010   7.156   5.762   6.551 -1.2000  0.0438  0.8601
 1001MOL0     C38011   7.076   5.689   6.434 -0.1344 -0.6663 -0.9299
 1001MOL0     C38012   7.139   5.720   6.299 -0.4352 -0.3274  0.5565
 1001MOL0     C38013   7.064   5.648   6.192  0.4867  0.5182  0.3915
 1001MOL0     C38014   7.111   5.661   6.050  0.2172 -0.5174  0.5151
 1001MOL0     C38015   7.082   5.812   6.004  0.4276 -0.7322  0.1673
 1001MOL0     C38016   7.206   5.902   5.995 -0.5136 -0.0243 -0.2326
 1001MOL0     N38017   7.166   6.022   5.919 -1.1712  0.2448 -0.3603
 1001MOL0     C38018   7.099   6.128   5.975  0.2552 -1.0153 -0.2698
 1001MOL0     C38019   7.107   6.229   5.877 -0.1633  1.2550 -0.5474
 1001MOL0     C38020   7.040   6.364   5.884  0.2694  0.0184 -0.0837
 1001MOL0     C38021   6.887   6.376   5.848  0.0006 -0.0596 -0.6953
 1001MOL0     C38022   6.830   6.515   5.831  0.6344 -0.4615  0.6310
 1001MOL0     C38023   6.883   6.614   5.929  0.2048  0.1624  0.3320
 1001MOL0     O38024   6.868   6.576   6.069 -0.1488 -0.1105 -0.8126
 1001MOL0     C38025   6.893   6.680   6.160 -0.4994  0.4298  0.3943
 1001MOL0     C38026   7.012   6.668   6.240  0.3797  0.0270  0.5523
 1001MOL0     C38027   7.062   6.775   6.317  1.2456 -0.4078  0.3499
 1001MOL0     C38028   7.175   6.749   6.421  0.0540 -0.7084  0.4403
 1001MOL0     C38029   7.002   6.900   6.294  0.6728 -0.4496  0.2613
 1001MOL0     C38030   7.051   7.018   6.360 -0.6344 -0.1299  0.0687
 1001MOL0     O38031   7.068   7.018   6.494  0.4047  0.0403 -0.6073
 1001MOL0     C38032   7.147   7.116   6.552 -0.2026 -0.1020  0.3270
 1001MOL0     C38033   7.106   7.179   6.672 -0.2003 -0.1723  0.1306
 1001MOL0     C38034   7.174   7.293   6.715  0.1069  0.1392 -0.6045
 1001MOL0     C38035   7.297   7.341   6.661 -0.1154  0.1228 -0.0659
 1001MOL0     O38036   7.365   7.444   6.727  0.1552  0.1265  0.2662
 1001MOL0     C38037   7.444   7.540   6.644 -0.1033  0.6549  0.3259
 1001MOL0     C38038   7.521   7.656   6.702  0.7215  0.5296 -0.2681
 1001MOL0     C38039   7.436   7.742   6.795  0.4508  0.3560  0.6700
 1001MOL0     C38040   7.474   7.885   6.823 -0.0711  0.4889 -0.3076
 1001MOL0     C38041   7.628   7.894   6.865 -0.1861  0.2149  0.3305
 1001MOL0     C38042   7.657   8.036   6.915  0.2824  0.5043 -0.2384
 1001MOL0     C38043   7.674   8.140   6.796  0.6867  0.1692  0.4394
 1001MOL0     C38044   7.787   8.252   6.829  0.0627  0.6979  0.8880
 1001MOL0    Cl38045   7.740   8.344   6.970 -0.1352 -0.0618 -0.1928
 1001MOL0     C38046   7.343   7.260   6.553  0.1838 -1.0045  0.7414
 1001MOL0     C38047   7.273   7.149   6.498  1.2690  0.1588  0.4042
 1001MOL0     O38048   7.071   7.112   6.287  0.4993  0.6017 -0.2177
 1001MOL0     C38049   6.884   6.910   6.216 -0.2381 -0.2115 -0.4152
 1001MOL0     C38050   6.825   6.799   6.154  0.5561 -0.0563 -0.4428
 1001MOL0     N38051   7.168   6.174   5.771 -0.7816 -1.3436  0.1102
 1001MOL0     N38052   7.225   6.061   5.804  0.5043 -0.4846 -0.0556
 1001MOL0     C38053   7.016   5.571   6.954  0.0495  0.7749  0.4190
 1001MOL0     C38054   7.021   5.519   7.077 -0.2264  0.1258 -0.0723
 1001MOL0     C38055   7.228   5.265   7.433 -0.5738 -0.4576 -0.6095
 1001MOL0     C38056   7.225   5.130   7.466  0.9363 -0.9051  0.3420
 1001MOL0     C38057   7.239   5.094   7.600 -0.0241 -0.1431 -1.1219
 1001MOL0     C38058   7.260   5.185   7.699  0.5549 -0.6513 -0.4495
 1001MOL0     O38059   7.284   5.131   7.826 -0.0181 -0.2033  0.1313
 1001MOL0     C38060   7.386   5.203   7.905  0.3106 -0.0935  0.3831
 1001MOL0     C38061   7.520   5.246   7.853 -1.0789  0.2847 -0.3412
 1001MOL0     C38062   7.590   5.134   7.772 -0.2215  0.1510  0.3075
 1001MOL0     C38063   7.705   5.195   7.690 -0.7254  0.5178 -1.0195
 1001MOL0     C38064   7.811   5.104   7.645  0.6783  0.6468 -0.1562
 1001MOL0     C38065   7.907   5.044   7.602 -0.5320  0.2691  0.1727
 1001MOL0     C38066   7.283   5.320   7.671  0.8003  0.5863 -1.0244
 1001MOL0     C38067   7.266   5.364   7.537  0.3793  0.7110  0.0754
 1001MOL0     C38068   7.305   5.503   7.504 -0.0018 -0.4411 -0.2745
 1001MOL0     H38069   7.348   5.412   7.071  0.5693  0.4798  0.7511
 1001MOL0     H38070   7.332   5.512   6.840 -0.4617  0.3750  0.0144
 1001MOL0     H38071   7.258   5.585   6.643  0.4591 -0.5893  1.3141
 1001MOL0     H38072   7.291   5.739   6.715  0.9711 -2.2866  0.4024
 1001MOL0     H38073   7.100   5.843   6.598 -0.3072  1.0952  0.1746
 1001MOL0     H38074   7.243   5.813   6.508 -1.0743  0.9921  2.1663
 1001MOL0     H38075   7.073   5.582   6.456 -1.5069 -0.4377  0.0869
 1001MOL0     H38076   6.977   5.733   6.433 -0.2894 -0.9922 -0.3226
 1001MOL0     H38077   7.132   5.828   6.281 -1.7625 -0.4490  0.2053
 1001MOL0     H38078   7.244   5.692   6.287 -0.7353 -1.2158 -0.0839
 1001MOL0     H38079   6.958   5.660   6.216  0.5530 -2.8222  3.2255
 1001MOL0     H38080   7.085   5.543   6.212  1.0144  0.3037 -1.1777
 1001MOL0     H38081   7.219   5.649   6.051  0.8612  3.5144 -1.3045
 1001MOL0     H38082   7.056   5.603   5.975 -2.6369  1.0959  1.2103
 1001MOL0     H38083   7.000   5.864   6.055  1.2625  0.7721  0.0381
 1001MOL0     H38084   7.051   5.795   5.901  1.1643 -3.8735  0.3779
 1001MOL0     H38085   7.245   5.911   6.096 -2.5541 -1.3047  0.7451
 1001MOL0     H38086   7.279   5.855   5.929  1.5830  2.4018  0.1678
 1001MOL0     H38087   7.057   6.129   6.075  1.0492 -4.2748  0.2021
 1001MOL0     H38088   7.103   6.436   5.831 -1.4242  3.0800  1.7879
 1001MOL0     H38089   7.043   6.390   5.991  1.7212 -5.4168  1.4924
 1001MOL0     H38090   6.877   6.304   5.766 -0.7327 -0.4025 -0.3153
 1001MOL0     H38091   6.832   6.331   5.931  2.4753  1.2841  1.8572
 1001MOL0     H38092   6.849   6.544   5.728  2.2370 -4.0617 -0.2532
 1001MOL0     H38093   6.722   6.502   5.834 -0.1804  4.3670  0.0204
 1001MOL0     H38094   6.986   6.637   5.901  0.9189 -1.4098  1.5750
 1001MOL0     H38095   6.824   6.706   5.916  0.4937  0.6836  2.4584
 1001MOL0     H38096   7.064   6.573   6.245 -1.5029 -1.1604 -1.1636
 1001MOL0     H38097   7.245   6.823   6.381 -0.0079 -1.5176 -1.2491
 1001MOL0     H38098   7.216   6.648   6.409  1.5790 -0.4588  2.8535
 1001MOL0     H38099   7.145   6.761   6.526  0.9715  0.2582  0.6004
 1001MOL0     H38100   7.015   7.155   6.727  0.5085  0.0540  1.4342
 1001MOL0     H38101   7.132   7.344   6.801  0.9576  1.9237 -1.2001
 1001MOL0     H38102   7.527   7.486   6.598 -0.3879  2.5646 -2.6587
 1001MOL0     H38103   7.375   7.587   6.574 -0.9026 -3.1295 -1.6954
 1001MOL0     H38104   7.610   7.621   6.755  1.3543  0.6049 -1.2609
 1001MOL0     H38105   7.557   7.715   6.618 -2.4990  3.5664  0.2390
 1001MOL0     H38106   7.427   7.679   6.885 -1.4127 -3.0908 -1.6919
 1001MOL0     H38107   7.339   7.746   6.746 -0.2248 -2.9486  1.4711
 1001MOL0     H38108   7.407   7.920   6.902  1.3220 -0.2973  1.2936
 1001MOL0     H38109   7.455   7.944   6.733  0.7716  1.1597 -0.0616
 1001MOL0     H38110   7.640   7.821   6.946  0.3652  0.0499  0.0976
 1001MOL0     H38111   7.693   7.856   6.787 -3.7313 -0.9587 -2.3313
 1001MOL0     H38112   7.752   8.035   6.969 -0.3718 -2.1191  1.0257
 1001MOL0     H38113   7.581   8.071   6.984 -0.2371 -2.2708  0.7492
 1001MOL0     H38114   7.581   8.196   6.784  0.6429  0.3604  1.5563
 1001MOL0     H38115   7.708   8.099   6.700  0.0698 -0.2254  0.3780
 1001MOL0     H38116   7.801   8.314   6.740  1.1010  0.1817  0.6791
 1001MOL0     H38117   7.883   8.201   6.843 -0.9705 -1.6003  0.0890
 1001MOL0     H38118   7.435   7.287   6.501 -0.0156 -1.2527  0.2530
 1001MOL0     H38119   7.326   7.099   6.417  1.0601  0.7434 -0.0939
 1001MOL0     H38120   6.826   7.002   6.219 -1.7906 -1.1082  3.3523
 1001MOL0     H38121   6.727   6.805   6.108  1.1250  0.5360 -1.6481
 1001MOL0     H38122   6.928   5.623   6.917  0.0414  0.7283  0.3727
 1001MOL0     H38123   6.943   5.536   7.151  1.4508  1.5607  1.4646
 1001MOL0     H38124   7.198   5.054   7.394  0.2769 -0.3384 -0.0263
 1001MOL0     H38125   7.212   4.991   7.619 -0.3691 -0.1649 -1.7017
 1001MOL0     H38126   7.340   5.288   7.955 -0.2778  1.0130 -1.9340
 1001MOL0     H38127   7.416   5.132   7.984  2.3876  1.7173  1.3087
 1001MOL0     H38128   7.581   5.273   7.940  1.8695 -2.3581 -1.4031
 1001MOL0     H38129   7.510   5.340   7.798  0.6184 -0.5370 -2.1959
 1001MOL0     H38130   7.635   5.053   7.829 -1.2261 -0.7031 -0.0773
 1001MOL0     H38131   7.523   5.085   7.700  2.1031 -3.5364  0.4246
 1001MOL0     H38132   7.759   5.255   7.763 -0.1079 -1.7078  0.4791
 1001MOL0     H38133   7.663   5.257   7.610 -2.0759 -0.5489 -1.2002
 1001MOL0     H38134   7.996   4.993   7.570 -0.6217 -0.9657  1.7405
 1001MOL0     H38135   7.307   5.390   7.750  2.6902  0.7321 -1.6743
 1001MOL0     H38136   7.389   5.539   7.565 -1.0727  0.5718  0.6485
 1001MOL0     H38137   7.333   5.509   7.398 -3.0221  0.2149 -1.1295
 1001MOL0     H38138   7.226   5.577   7.518  0.4083  0.0210 -0.3701
 1002MOL0     O38139   4.947  11.439  10.997 -0.2482  0.1142 -0.7200
 1002MOL0     C38140   4.912  11.553  11.011  1.0504 -0.8286  0.2349
 1002MOL0     O38141   4.787  11.598  11.000 -0.0840 -0.2113 -0.5569
 1002MOL0     C38142   4.700  11.502  10.963  0.1206 -0.5224  0.7297
 1002MOL0     C38143   4.660  11.481  10.828 -0.3498  0.2470  1.2104
 1002MOL0     C38144   4.566  11.383  10.781  0.0836  0.3272 -0.1004
 1002MOL0     C38145   4.526  11.286  10.882 -0.6397 -0.4533  0.1114
 1002MOL0     O38146   4.453  11.178  10.853 -0.0941 -0.7996 -0.3073
 1002MOL0     C38147   4.432  11.147  10.715  0.1552 -0.7814  0.1644
 1002MOL0     C38148   4.316  11.045  10.716  0.1429 -0.2963 -0.6106
 1002MOL0     C38149   4.332  10.919  10.798  0.0031  0.5066 -0.6769
 1002MOL0     C38150   4.230  10.814  10.759  0.1043  0.2608  0.2712
 1002MOL0     C38151   4.138  10.777  10.880  0.2217  0.6448  1.4689
 1002MOL0     C38152   4.011  10.693  10.841 -0.1507  0.0084 -0.5304
 1002MOL0     C38153   4.025  10.584  10.730 -0.1824 -0.2931 -0.7131
 1002MOL0     C38154   4.107  10.463  10.776  0.2213 -0.1833 -0.1106
 1002MOL0     N38155   4.184  10.397  10.669 -0.8281 -0.4422  0.5830
 1002MOL0     C38156   4.246  10.457  10.560  0.6374 -0.1351 -0.4747
 1002MOL0     C38157   4.273  10.358  10.470  0.2828  0.0790 -0.5838
 1002MOL0     C38158   4.326  10.372  10.335 -0.7450  0.2616 -0.6514
 1002MOL0     C38159   4.450  10.270  10.317  0.0177 -0.2519  0.1106
 1002MOL0     C38160   4.563  10.292  10.418 -0.4777 -0.7402  0.4713
 1002MOL0     C38161   4.694  10.253  10.346 -0.4037 -0.0984  0.2291
 1002MOL0     O38162   4.709  10.113  10.307 -0.9660 -0.3805 -0.1873
 1002MOL0     C38163   4.804  10.077  10.217 -0.2444  0.0339  0.0759
 1002MOL0     C38164   4.790   9.948  10.171 -0.0200 -0.2956 -0.0969
 1002MOL0     C38165   4.886   9.887  10.085  0.6124  0.2319  1.0411
 1002MOL0     C38166   4.833   9.753  10.045  0.2688  0.7387 -0.5427
 1002MOL0     C38167   4.994   9.962  10.036  0.0704 -0.3624  1.0428
 1002MOL0     C38168   5.093   9.903   9.934 -0.1438  0.4258 -0.2874
 1002MOL0     O38169   5.111   9.768   9.933  0.6150  0.3176 -0.5808
 1002MOL0     C38170   5.167   9.697   9.828  0.4869  0.8292  0.3646
 1002MOL0     C38171   5.148   9.730   9.691 -0.5753  0.2267 -0.2139
 1002MOL0     C38172   5.212   9.665   9.589  0.0361  0.6132 -0.4180
 1002MOL0     C38173   5.284   9.542   9.616  0.5170  1.1085 -0.3818
 1002MOL0     O38174   5.350   9.465   9.515  0.7561  0.1514 -0.4632
 1002MOL0     C38175   5.286   9.453   9.386 -0.3951  0.2903 -0.2421
 1002MOL0     C38176   5.343   9.333   9.303  0.3421 -0.2640  1.0844
 1002MOL0     C38177   5.480   9.368   9.243 -0.8368  0.3896 -0.2933
 1002MOL0     C38178   5.540   9.250   9.173  0.2994  0.5774  0.5076
 1002MOL0     C38179   5.683   9.283   9.125  0.0612 -0.0129  0.2813
 1002MOL0     C38180   5.734   9.180   9.025 -0.6365  0.3368 -0.4279
 1002MOL0     C38181   5.795   9.068   9.108 -0.1053  0.6756  0.3345
 1002MOL0     C38182   5.850   8.967   9.013  0.5552 -0.7041 -0.0746
 1002MOL0    Cl38183   5.929   8.829   9.097 -0.0808  0.1882  0.0316
 1002MOL0     C38184   5.288   9.498   9.749 -0.0414  0.5613  0.9789
 1002MOL0     C38185   5.230   9.568   9.846  0.5005  1.1920  0.3673
 1002MOL0     O38186   5.148   9.989   9.870 -0.3521 -0.2005 -0.2568
 1002MOL0     C38187   5.002  10.099  10.073 -0.3680 -0.3808 -1.1150
 1002MOL0     C38188   4.917  10.148  10.177  0.3824  0.4088  0.5209
 1002MOL0     N38189   4.235  10.237  10.533  0.0836  0.6553  0.3484
 1002MOL0     N38190   4.185  10.264  10.650  0.5281  0.1582 -0.3711
 1002MOL0     C38191   4.553  11.323  11.019  0.4302 -0.3112 -0.9138
 1002MOL0     C38192   4.633  11.431  11.060 -1.3671  1.1176  0.5989
 1002MOL0     C38193   5.021  11.650  11.031  0.4058 -0.3319 -0.6067
 1002MOL0     C38194   5.006  11.782  10.980 -1.0926  0.9764  0.1341
 1002MOL0     C38195   5.092  11.883  11.012  0.0845 -0.8388 -0.1748
 1002MOL0     C38196   5.197  11.862  11.114  0.0131  0.4097 -0.3476
 1002MOL0     O38197   5.282  11.956  11.157  0.1946 -0.4128  0.1833
 1002MOL0     C38198   5.278  12.088  11.104  0.0303  0.7698 -0.3004
 1002MOL0     C38199   5.407  12.159  11.151 -0.3535  0.6570  0.0098
 1002MOL0     C38200   5.436  12.272  11.052 -0.6582 -0.5312  0.1410
 1002MOL0     C38201   5.537  12.373  11.107 -0.2572  0.3318  0.2579
 1002MOL0     C38202   5.507  12.436  11.229 -0.2230  0.1725 -0.8728
 1002MOL0     C38203   5.472  12.502  11.328  0.3881  0.2122  0.2763
 1002MOL0     C38204   5.220  11.729  11.159 -0.1937 -0.3318  0.4489
 1002MOL0     C38205   5.136  11.625  11.117 -0.5955  0.0336  0.1726
 1002MOL0     C38206   5.163  11.490  11.179 -0.0945  0.3615  0.2277
 1002MOL0     H38207   4.700  11.542  10.749 -0.4682 -1.4366 -0.2113
 1002MOL0     H38208   4.540  11.377  10.676  0.3978 -2.6515 -0.0836
 1002MOL0     H38209   4.531  11.115  10.679  0.5118  0.6669 -0.2115
 1002MOL0     H38210   4.394  11.235  10.662 -0.5484  0.2578  2.2803
 1002MOL0     H38211   4.225  11.100  10.742 -1.9421 -3.3190 -0.9795
 1002MOL0     H38212   4.305  11.009  10.613 -3.7831  1.1506 -0.8505
 1002MOL0     H38213   4.424  10.863  10.777 -0.9387 -1.5674  0.3590
 1002MOL0     H38214   4.329  10.951  10.902 -0.9749  1.1424 -0.8935
 1002MOL0     H38215   4.166  10.837  10.672 -1.5864 -2.7182  0.5924
 1002MOL0     H38216   4.266  10.718  10.720  0.2741  0.4155  0.0399
 1002MOL0     H38217   4.107  10.861  10.943  1.5845  2.0351  0.3717
 1002MOL0     H38218   4.194  10.718  10.953 -0.5403 -1.1007  0.6865
 1002MOL0     H38219   3.960  10.645  10.925  1.0094 -1.0979 -0.4287
 1002MOL0     H38220   3.945  10.773  10.805 -1.3201 -1.7469 -2.5711
 1002MOL0     H38221   4.067  10.628  10.639 -1.2155 -1.3095 -1.7206
 1002MOL0     H38222   3.925  10.543  10.713 -1.1564  0.1599  3.0401
 1002MOL0     H38223   4.174  10.480  10.861  0.1655  2.3595 -0.5025
 1002MOL0     H38224   4.037  10.391  10.818  0.0595  0.9170  1.5781
 1002MOL0     H38225   4.271  10.562  10.543 -2.4309  0.5371 -1.5122
 1002MOL0     H38226   4.366  10.469  10.307  1.5725 -0.6213 -0.6356
 1002MOL0     H38227   4.242  10.359  10.266 -1.6032 -3.9524  0.8757
 1002MOL0     H38228   4.422  10.165  10.317  1.2096 -0.6402  2.4108
 1002MOL0     H38229   4.490  10.282  10.216 -1.4660 -0.9114 -0.5831
 1002MOL0     H38230   4.566  10.397  10.450  0.4795 -1.2360  2.1214
 1002MOL0     H38231   4.543  10.230  10.505 -1.2899 -0.8357  0.2221
 1002MOL0     H38232   4.700  10.314  10.256  4.0933 -0.0011  0.3425
 1002MOL0     H38233   4.781  10.295  10.398 -2.2287  4.1194  0.1744
 1002MOL0     H38234   4.705   9.896  10.214  0.2729  0.0853  0.9729
 1002MOL0     H38235   4.845   9.678  10.123  0.1502  0.5049 -0.7482
 1002MOL0     H38236   4.879   9.717   9.953  2.9446  1.7301  0.3174
 1002MOL0     H38237   4.724   9.764  10.035  0.5970  2.7799 -2.8458
 1002MOL0     H38238   5.094   9.823   9.674  3.0181  2.2038 -2.0185
 1002MOL0     H38239   5.193   9.702   9.489  1.3788 -0.2200 -1.0086
 1002MOL0     H38240   5.178   9.447   9.403 -0.0915 -1.1027  1.5533
 1002MOL0     H38241   5.316   9.548   9.342  1.0057  0.3781  0.8450
 1002MOL0     H38242   5.348   9.243   9.365  0.3226 -0.3856  0.9120
 1002MOL0     H38243   5.265   9.321   9.227  0.9855  4.4006 -0.6447
 1002MOL0     H38244   5.548   9.399   9.323  0.2981 -2.0758 -0.1974
 1002MOL0     H38245   5.465   9.450   9.172  0.0921 -1.2823 -2.5610
 1002MOL0     H38246   5.471   9.211   9.099  1.3237 -0.1435 -0.0925
 1002MOL0     H38247   5.544   9.171   9.249  0.8257 -0.1350 -0.2403
 1002MOL0     H38248   5.677   9.375   9.066 -1.3243 -1.3192 -1.7248
 1002MOL0     H38249   5.746   9.292   9.214  0.5337 -1.9120  0.1768
 1002MOL0     H38250   5.803   9.238   8.963 -0.9227  3.4910  1.9192
 1002MOL0     H38251   5.647   9.150   8.966 -2.5005  3.6473  0.3599
 1002MOL0     H38252   5.715   9.021   9.166 -1.1386 -1.3368 -2.5062
 1002MOL0     H38253   5.873   9.107   9.174 -0.7568 -0.3539  1.7424
 1002MOL0     H38254   5.928   9.016   8.954 -0.5602  1.6135  0.2607
 1002MOL0     H38255   5.774   8.943   8.938 -1.0770  4.4511 -0.4367
 1002MOL0     H38256   5.347   9.409   9.767 -0.1286 -0.4651 -2.9362
 1002MOL0     H38257   5.227   9.531   9.948 -0.8815  1.3475  0.4094
 1002MOL0     H38258   5.070  10.180  10.047 -1.0052  1.0082  1.2633
 1002MOL0     H38259   4.933  10.250  10.209  0.6919 -0.1638  2.3517
 1002MOL0     H38260   4.523  11.259  11.102  0.5472  1.0007  0.1644
 1002MOL0     H38261   4.661  11.426  11.164  1.8150  0.3700 -0.1940
 1002MOL0     H38262   4.930  11.800  10.904  0.2416  5.8530 -0.3988
 1002MOL0     H38263   5.075  11.984  10.975 -2.3684 -0.7524  0.9555
 1002MOL0     H38264   5.279  12.083  10.995 -0.6287  0.7544 -0.3107
 1002MOL0     H38265   5.187  12.140  11.137 -2.3200 -1.3636 -2.8762
 1002MOL0     H38266   5.491  12.089  11.146 -2.3203 -2.5162  4.6124
 1002MOL0     H38267   5.403  12.178  11.258  1.4189  1.3305 -0.0020
 1002MOL0     H38268   5.475  12.220  10.964  3.0339  0.7406  0.8524
 1002MOL0     H38269   5.346  12.332  11.036  0.1167  0.9493  1.1670
 1002MOL0     H38270   5.539  12.452  11.031 -0.5125 -0.5849 -0.7186
 1002MOL0     H38271   5.633  12.321  11.100 -1.1034 -1.2664 -0.0107
 1002MOL0     H38272   5.439  12.559  11.413 -2.1093  3.7710 -2.7626
 1002MOL0     H38273   5.301  11.697  11.223  0.6503  1.9258  0.5897
 1002MOL0     H38274   5.075  11.454  11.233  0.7853 -1.1666  0.6990
 1002MOL0     H38275   5.190  11.418  11.101  1.2774 -1.6664  2.4262
 1002MOL0     H38276   5.244  11.499  11.251 -0.3640  2.5706  0.3099
 1003MOL0     O38277   2.714   4.719   2.797  0.8504 -0.5518 -0.2649
 1003MOL0     C38278   2.671   4.832   2.786 -0.3728  0.0147  0.5669
 1003MOL0     O38279   2.753   4.940   2.773 -0.4974  0.0208 -0.2043
 1003MOL0     C38280   2.889   4.938   2.813  0.4230  0.5613  0.6335
 1003MOL0     C38281   2.976   4.862   2.740  0.2792  0.3036  1.2259
 1003MOL0     C38282   3.112   4.852   2.768 -0.3757  0.8267 -0.5867
 1003MOL0     C38283   3.163   4.926   2.876 -0.2690 -0.2487 -0.4522
 1003MOL0     O38284   3.299   4.927   2.909  0.3930  0.4946 -0.0323
 1003MOL0     C38285   3.392   4.834   2.858 -0.3434  1.0326 -0.5162
 1003MOL0     C38286   3.491   4.882   2.753  0.5132  0.5510 -1.0097
 1003MOL0     C38287   3.557   5.011   2.776  0.1384  0.3369  0.8737
 1003MOL0     C38288   3.617   5.047   2.635  0.0065 -0.1185  0.8630
 1003MOL0     C38289   3.722   5.172   2.640 -0.0694  0.3958 -0.7635
 1003MOL0     C38290   3.854   5.135   2.704 -0.2043 -0.2979 -1.2202
 1003MOL0     C38291   3.909   5.270   2.776 -0.6069  0.5904 -0.0908
 1003MOL0     C38292   3.870   5.281   2.933 -1.2112  0.3387  0.5022
 1003MOL0     N38293   3.929   5.406   2.991  0.6899  0.7317 -1.0467
 1003MOL0     C38294   3.919   5.532   2.942 -0.5652  0.3821 -0.0385
 1003MOL0     C38295   3.987   5.607   3.034  0.1372 -0.6553  0.1634
 1003MOL0     C38296   4.019   5.758   3.024  0.3560  0.0409  0.3692
 1003MOL0     C38297   3.886   5.836   3.040 -0.0083  0.9531 -1.2979
 1003MOL0     C38298   3.886   5.991   3.040  0.2422 -0.3309  0.6391
 1003MOL0     C38299   3.991   6.055   3.127  0.1433 -0.1029 -0.3557
 1003MOL0     O38300   4.124   6.052   3.064 -1.0664  0.1676 -0.9218
 1003MOL0     C38301   4.236   6.071   3.144 -0.5384 -0.6754 -0.7073
 1003MOL0     C38302   4.348   6.111   3.070  0.9946 -0.6464 -0.7015
 1003MOL0     C38303   4.475   6.129   3.129 -0.5865  0.3643  0.0930
 1003MOL0     C38304   4.583   6.162   3.029 -0.4402 -0.1329 -0.2467
 1003MOL0     C38305   4.486   6.105   3.269  0.9615 -0.4629 -1.1530
 1003MOL0     C38306   4.610   6.104   3.332 -0.7809  0.5437  0.3093
 1003MOL0     O38307   4.654   5.981   3.368 -0.4590  0.0504  0.4284
 1003MOL0     C38308   4.779   5.941   3.409  1.0036 -0.5067 -0.3806
 1003MOL0     C38309   4.795   5.824   3.488  0.1001 -0.2057 -0.0428
 1003MOL0     C38310   4.927   5.789   3.538  0.4287 -0.0698  1.4414
 1003MOL0     C38311   5.045   5.856   3.497 -0.7698 -1.4610 -0.6699
 1003MOL0     O38312   5.165   5.819   3.558  0.3202  0.1758  0.5144
 1003MOL0     C38313   5.288   5.877   3.502  0.2868  0.0938 -0.4913
 1003MOL0     C38314   5.415   5.832   3.560  0.1818  0.3732 -0.0929
 1003MOL0     C38315   5.527   5.932   3.525 -0.2838 -0.0680  0.0359
 1003MOL0     C38316   5.668   5.895   3.570  0.0361 -0.3256  0.5788
 1003MOL0     C38317   5.754   6.018   3.558  0.3581  0.0659 -0.2525
 1003MOL0     C38318   5.785   6.056   3.414  0.4375  0.0040 -1.4145
 1003MOL0     C38319   5.880   6.177   3.404  0.8528 -0.5221 -0.1427
 1003MOL0     C38320   6.004   6.189   3.492 -0.5558  0.3637 -0.5436
 1003MOL0    Cl38321   6.130   6.068   3.467 -0.0370  0.1304  0.2723
 1003MOL0     C38322   5.022   5.973   3.414  0.0009  0.0995 -0.5369
 1003MOL0     C38323   4.891   6.013   3.370  0.3540 -0.3081 -0.7137
 1003MOL0     O38324   4.677   6.204   3.346  0.5289  0.6920  0.4861
 1003MOL0     C38325   4.374   6.065   3.349 -0.4244  0.6675  0.2295
 1003MOL0     C38326   4.248   6.039   3.284 -0.8947  0.5757  0.0811
 1003MOL0     N38327   4.044   5.527   3.132 -0.2437 -0.5397  1.0809
 1003MOL0     N38328   3.995   5.414   3.105 -0.6244 -0.4198  0.3159
 1003MOL0     C38329   3.075   5.013   2.954  0.1333  1.5051 -0.3722
 1003MOL0     C38330   2.937   5.008   2.924  0.5651  0.0812 -0.2539
 1003MOL0     C38331   2.522   4.848   2.760 -0.2193  0.2789  0.3982
 1003MOL0     C38332   2.444   4.727   2.738 -0.5583  0.6663  0.1551
 1003MOL0     C38333   2.314   4.722   2.748 -1.1091  0.1853 -0.4352
 1003MOL0     C38334   2.242   4.838   2.776  0.3664  0.7412 -0.6463
 1003MOL0     O38335   2.106   4.814   2.797 -0.2322 -1.1694 -0.0176
 1003MOL0     C38336   2.000   4.912   2.801 -0.1221  0.0818 -0.2464
 1003MOL0     C38337   1.964   4.947   2.944 -0.1765 -0.4659 -0.8723
 1003MOL0     C38338   1.895   4.828   3.010  0.3345 -0.3329  0.0722
 1003MOL0     C38339   1.884   4.831   3.160 -0.0556  0.9221 -0.1265
 1003MOL0     C38340   1.760   4.906   3.195  0.3528 -0.2166 -0.1915
 1003MOL0     C38341   1.660   4.961   3.222  0.5334  0.0302  0.4228
 1003MOL0     C38342   2.308   4.954   2.789 -0.0577 -0.8139 -0.5714
 1003MOL0     C38343   2.447   4.966   2.788 -1.0827  0.7777 -0.9093
 1003MOL0     C38344   2.514   5.102   2.830  1.0393 -0.3657  0.5886
 1003MOL0     H38345   2.934   4.794   2.667  0.6431 -2.1055  3.0951
 1003MOL0     H38346   3.172   4.794   2.698 -0.8810  1.1583 -1.2991
 1003MOL0     H38347   3.333   4.748   2.825  0.3129  0.1382  0.5674
 1003MOL0     H38348   3.449   4.787   2.939 -0.3010 -0.5696 -1.4135
 1003MOL0     H38349   3.575   4.812   2.758 -1.2161 -1.5542 -0.0546
 1003MOL0     H38350   3.428   4.882   2.663  1.4945  1.8997 -1.7313
 1003MOL0     H38351   3.481   5.084   2.808 -2.4382 -1.4105 -0.8685
 1003MOL0     H38352   3.627   5.011   2.860  0.3265 -1.1540  0.7334
 1003MOL0     H38353   3.674   4.963   2.593  0.6255  0.9638 -0.5520
 1003MOL0     H38354   3.538   5.067   2.563 -0.1165  2.7460  1.6629
 1003MOL0     H38355   3.671   5.235   2.713  1.9273  1.3390 -0.0961
 1003MOL0     H38356   3.733   5.229   2.547  0.0371  2.9365  0.7191
 1003MOL0     H38357   3.832   5.053   2.774  0.3770  0.5800  0.0338
 1003MOL0     H38358   3.917   5.084   2.631  2.5459  1.7976 -0.4992
 1003MOL0     H38359   3.875   5.356   2.717 -1.4077  1.7518  1.9524
 1003MOL0     H38360   4.019   5.268   2.778 -0.5796 -0.7013  2.8823
 1003MOL0     H38361   3.762   5.278   2.950 -1.4469 -0.2628 -0.9594
 1003MOL0     H38362   3.917   5.195   2.982  0.0631 -0.8930 -2.6225
 1003MOL0     H38363   3.864   5.563   2.854 -3.9679 -2.1936  0.9954
 1003MOL0     H38364   4.039   5.781   2.919 -3.1740 -1.0241 -0.6567
 1003MOL0     H38365   4.102   5.794   3.086  2.8075  0.9435 -3.0925
 1003MOL0     H38366   3.803   5.809   2.975 -0.0734 -1.2694 -0.3884
 1003MOL0     H38367   3.845   5.809   3.138  1.5037  0.2363 -0.8207
 1003MOL0     H38368   3.901   6.019   2.935 -0.2221 -0.8718  0.4278
 1003MOL0     H38369   3.788   6.024   3.074  0.8959  2.9026 -0.2410
 1003MOL0     H38370   3.958   6.156   3.154 -2.8834  0.0354 -3.7582
 1003MOL0     H38371   3.991   5.995   3.218  0.9242 -0.3996 -0.5387
 1003MOL0     H38372   4.331   6.139   2.966  0.9380  0.3666 -0.4318
 1003MOL0     H38373   4.591   6.269   3.013 -1.1406 -0.4049 -2.9900
 1003MOL0     H38374   4.581   6.106   2.935  2.0435 -0.0154 -0.4252
 1003MOL0     H38375   4.680   6.131   3.068  1.1298  0.7635 -3.1882
 1003MOL0     H38376   4.703   5.771   3.512 -0.5249  1.2560  0.8983
 1003MOL0     H38377   4.933   5.708   3.610 -2.5138  0.2471  2.1841
 1003MOL0     H38378   5.294   5.847   3.396 -1.0709  1.6959 -1.0742
 1003MOL0     H38379   5.286   5.986   3.510  2.2911  0.1094  0.3846
 1003MOL0     H38380   5.407   5.829   3.669 -3.1425  1.1714 -0.2173
 1003MOL0     H38381   5.443   5.730   3.531  0.7102  0.5078 -0.0770
 1003MOL0     H38382   5.499   6.029   3.568 -0.9696  0.4950 -1.5982
 1003MOL0     H38383   5.519   5.938   3.416  4.6491  0.2627 -0.5094
 1003MOL0     H38384   5.709   5.814   3.510 -2.3733 -1.3890  0.2703
 1003MOL0     H38385   5.667   5.858   3.673 -2.3065 -0.1881  0.6617
 1003MOL0     H38386   5.712   6.110   3.598  0.8948 -1.4209  4.2150
 1003MOL0     H38387   5.844   6.005   3.619  0.0982 -1.3334 -0.1419
 1003MOL0     H38388   5.696   6.070   3.351 -0.0930 -2.2130 -1.2487
 1003MOL0     H38389   5.829   5.974   3.356 -1.7650 -0.4560 -2.5509
 1003MOL0     H38390   5.824   6.270   3.419 -0.1557 -1.0799 -0.3447
 1003MOL0     H38391   5.914   6.188   3.300  3.0554  1.2273  0.6844
 1003MOL0     H38392   5.968   6.180   3.595 -0.3764  0.3331 -0.4842
 1003MOL0     H38393   6.053   6.285   3.473  0.2509 -0.5828 -3.8844
 1003MOL0     H38394   5.107   6.030   3.377  0.5640 -2.2329 -3.2481
 1003MOL0     H38395   4.877   6.101   3.308 -3.5700  0.0262  0.3722
 1003MOL0     H38396   4.396   6.033   3.450  1.9716 -0.6882 -0.6278
 1003MOL0     H38397   4.164   6.007   3.344  0.4245 -0.9015  1.2571
 1003MOL0     H38398   3.125   5.068   3.033  1.0533 -0.5743  0.5654
 1003MOL0     H38399   2.875   5.067   2.991  2.2399  0.4971  0.9997
 1003MOL0     H38400   2.490   4.630   2.724 -3.6179 -0.9290  0.2091
 1003MOL0     H38401   2.259   4.629   2.733 -0.3046  0.0405 -2.9209
 1003MOL0     H38402   2.035   5.001   2.747  1.5339 -0.0088  0.6208
 1003MOL0     H38403   1.910   4.876   2.751 -2.0019  2.7467  0.9375
 1003MOL0     H38404   1.879   5.016   2.945  2.6625  3.3641 -1.4969
 1003MOL0     H38405   2.049   4.981   3.004  0.8480 -2.1313 -1.3086
 1003MOL0     H38406   1.796   4.818   2.965  0.6679 -1.3956 -0.4671
 1003MOL0     H38407   1.958   4.741   2.989  1.6315  0.1742  1.6333
 1003MOL0     H38408   1.971   4.862   3.217 -1.6651  0.2437  2.8781
 1003MOL0     H38409   1.870   4.725   3.181  1.0226  1.2784  2.8558
 1003MOL0     H38410   1.562   5.005   3.230 -0.2682 -1.0683 -2.1056
 1003MOL0     H38411   2.252   5.046   2.801 -0.8347 -1.6071  2.5910
 1003MOL0     H38412   2.595   5.089   2.903  0.7874  0.1320  0.9606
 1003MOL0     H38413   2.546   5.152   2.739 -1.6771  0.2877 -0.0966
 1003MOL0     H38414   2.439   5.160   2.885 -2.1466 -1.8755 -1.8429
 1004MOL0     O38415   4.621   5.621   6.016  0.1405 -0.3736 -0.3961
 1004MOL0     C38416   4.540   5.700   6.054 -0.8024 -0.4123  0.3594
 1004MOL0     O38417   4.408   5.675   6.072 -0.0137 -1.2561 -0.0235
 1004MOL0     C38418   4.351   5.559   6.041 -0.4655  1.2227 -0.1331
 1004MOL0     C38419   4.329   5.517   5.906 -0.0914  0.2357  0.1805
 1004MOL0     C38420   4.275   5.395   5.874 -0.5946 -0.5913  0.5913
 1004MOL0     C38421   4.230   5.307   5.975 -1.2422 -0.0344 -0.8302
 1004MOL0     O38422   4.190   5.178   5.957  0.0025 -0.1518  1.0298
 1004MOL0     C38423   4.150   5.132   5.829  1.2798  0.1947  0.0166
 1004MOL0     C38424   4.018   5.050   5.819 -0.3210 -0.2904  0.4335
 1004MOL0     C38425   3.900   5.129   5.882 -0.0114 -0.2208 -0.0022
 1004MOL0     C38426   3.872   5.254   5.792 -0.4764  0.0813 -0.1159
 1004MOL0     C38427   3.733   5.308   5.806  0.3758 -0.0303 -0.1207
 1004MOL0     C38428   3.723   5.440   5.723  0.5282  0.1970 -0.7327
 1004MOL0     C38429   3.578   5.489   5.718 -0.5484 -0.5987 -0.4273
 1004MOL0     C38430   3.475   5.391   5.658  0.4330 -0.4756 -0.0145
 1004MOL0     N38431   3.344   5.461   5.649 -0.0279  0.5695 -0.3093
 1004MOL0     C38432   3.305   5.536   5.547  0.2170  0.0713 -0.0006
 1004MOL0     C38433   3.188   5.583   5.588 -0.0159  0.1937 -0.1000
 1004MOL0     C38434   3.109   5.700   5.532  0.4352 -0.5533  0.1371
 1004MOL0     C38435   3.155   5.826   5.614  0.9823  0.2969  0.3529
 1004MOL0     C38436   3.068   5.942   5.593 -1.2651 -0.3708  0.5460
 1004MOL0     C38437   3.126   6.070   5.659 -0.8910 -0.6884 -0.0391
 1004MOL0     O38438   3.255   6.108   5.596 -0.6011  0.4432 -0.1041
 1004MOL0     C38439   3.340   6.176   5.676 -0.5290  0.0148  0.1452
 1004MOL0     C38440   3.333   6.196   5.813 -0.6511 -0.3465  0.2267
 1004MOL0     C38441   3.444   6.259   5.881 -0.1832 -0.1123  0.1243
 1004MOL0     C38442   3.425   6.259   6.029 -0.2268 -0.6707 -0.3542
 1004MOL0     C38443   3.544   6.328   5.819  0.3603  0.6136  0.2627
 1004MOL0     C38444   3.653   6.407   5.883  0.3275  0.0390  0.4356
 1004MOL0     O38445   3.687   6.383   6.006 -1.1124  0.8858  0.4244
 1004MOL0     C38446   3.817   6.400   6.044  0.5072 -0.0318  0.4877
 1004MOL0     C38447   3.840   6.516   6.108 -1.1260  0.8409  0.1139
 1004MOL0     C38448   3.967   6.538   6.159 -0.6257  0.2804  1.5562
 1004MOL0     C38449   4.071   6.435   6.152 -0.5975  0.2216  0.5453
 1004MOL0     O38450   4.196   6.464   6.200 -0.1783  0.2334  0.0621
 1004MOL0     C38451   4.311   6.375   6.187 -0.8835 -0.1154  0.0910
 1004MOL0     C38452   4.439   6.460   6.248  1.4353 -0.4970 -0.1020
 1004MOL0     C38453   4.462   6.595   6.174 -0.0686 -0.5699 -0.3666
 1004MOL0     C38454   4.505   6.704   6.277  0.6201  0.2820  0.1184
 1004MOL0     C38455   4.584   6.823   6.219  0.0014 -0.1855 -0.8598
 1004MOL0     C38456   4.735   6.787   6.198  0.7873 -0.5357 -0.1979
 1004MOL0     C38457   4.838   6.896   6.146  0.5017  0.1409 -0.2944
 1004MOL0     C38458   4.916   6.995   6.233  0.0519  0.0545  0.7383
 1004MOL0    Cl38459   4.820   7.091   6.337  0.1866 -0.0802  0.0860
 1004MOL0     C38460   4.046   6.311   6.087 -0.3587 -0.6863  0.4483
 1004MOL0     C38461   3.913   6.295   6.034 -0.3601  0.0950  0.4155
 1004MOL0     O38462   3.719   6.473   5.805 -0.6409 -0.8151  0.9036
 1004MOL0     C38463   3.536   6.322   5.675 -0.8422  0.0950  0.1354
 1004MOL0     C38464   3.438   6.253   5.603  0.5946  0.3538 -0.8642
 1004MOL0     N38465   3.158   5.519   5.711 -0.5448 -1.0382  0.3201
 1004MOL0     N38466   3.249   5.438   5.743 -0.0309 -0.1221 -0.1107
 1004MOL0     C38467   4.247   5.343   6.111  1.1642  0.0187  0.8962
 1004MOL0     C38468   4.316   5.464   6.143 -0.7383  0.4486 -0.7934
 1004MOL0     C38469   4.597   5.841   6.067 -0.7277 -1.1664  0.2509
 1004MOL0     C38470   4.720   5.875   5.999 -0.0248 -0.8846 -0.3391
 1004MOL0     C38471   4.773   5.996   6.021 -0.7813  0.4793 -0.2367
 1004MOL0     C38472   4.722   6.092   6.105  0.7052  0.2806 -0.5535
 1004MOL0     O38473   4.773   6.220   6.132 -0.3050  0.9456 -0.6452
 1004MOL0     C38474   4.745   6.312   6.027  0.6123  0.0016 -0.1109
 1004MOL0     C38475   4.826   6.451   6.040  0.8165 -0.1517  0.3266
 1004MOL0     C38476   4.971   6.441   6.034 -0.0127 -0.4768 -0.3566
 1004MOL0     C38477   5.051   6.566   6.001 -0.2955 -0.5625 -0.4785
 1004MOL0     C38478   5.197   6.531   5.985 -0.0671 -0.2051 -0.7946
 1004MOL0     C38479   5.317   6.509   5.972 -0.8175  0.8304 -0.7768
 1004MOL0     C38480   4.599   6.069   6.165  0.0452  0.4017 -0.0232
 1004MOL0     C38481   4.540   5.942   6.145  0.8409  0.7709 -1.2015
 1004MOL0     C38482   4.417   5.918   6.228 -0.0267  0.2026  0.1475
 1004MOL0     H38483   4.333   5.581   5.819 -1.5321  1.4112  0.9369
 1004MOL0     H38484   4.256   5.383   5.768 -4.1538 -2.3422  1.2831
 1004MOL0     H38485   4.235   5.066   5.806  0.9029 -0.5549  0.7352
 1004MOL0     H38486   4.154   5.209   5.751  1.9875  1.9498  1.6945
 1004MOL0     H38487   4.003   5.023   5.714  2.3567  1.1920 -0.4352
 1004MOL0     H38488   4.036   4.958   5.876 -0.9358  0.9391  2.7482
 1004MOL0     H38489   3.812   5.064   5.888 -0.0825  0.0257  3.0191
 1004MOL0     H38490   3.922   5.149   5.987 -0.3025 -3.5159  0.8053
 1004MOL0     H38491   3.959   5.319   5.807 -0.3721 -0.4272  1.6539
 1004MOL0     H38492   3.874   5.219   5.688  4.8077 -1.9030  0.3742
 1004MOL0     H38493   3.709   5.340   5.908 -0.7475 -1.2098  0.0080
 1004MOL0     H38494   3.654   5.242   5.770 -0.2241  0.4977  0.1945
 1004MOL0     H38495   3.785   5.513   5.775 -1.1023  0.7785  0.4617
 1004MOL0     H38496   3.757   5.422   5.620 -1.2244  1.3173 -1.5512
 1004MOL0     H38497   3.584   5.572   5.647 -0.7175 -0.8642 -0.7566
 1004MOL0     H38498   3.532   5.514   5.814 -2.4024 -2.0684 -0.8711
 1004MOL0     H38499   3.504   5.352   5.560 -0.6073  2.7942 -1.7988
 1004MOL0     H38500   3.469   5.306   5.726  0.6739 -2.3413 -2.1789
 1004MOL0     H38501   3.366   5.571   5.464 -1.1604 -3.5291 -2.7768
 1004MOL0     H38502   3.006   5.676   5.560  0.1376 -0.4458 -0.8476
 1004MOL0     H38503   3.119   5.699   5.423 -0.8115 -1.2892  0.0180
 1004MOL0     H38504   3.156   5.813   5.723 -1.3186  3.3640  0.8817
 1004MOL0     H38505   3.258   5.844   5.582  1.4699 -2.5148  0.0310
 1004MOL0     H38506   3.080   5.960   5.485 -0.4759  2.4989  1.0329
 1004MOL0     H38507   2.963   5.918   5.614 -0.9013 -1.9761  0.6045
 1004MOL0     H38508   3.055   6.151   5.639 -0.3575 -0.6493 -1.9460
 1004MOL0     H38509   3.122   6.053   5.767 -2.1109  1.6145  0.3393
 1004MOL0     H38510   3.256   6.157   5.880 -0.5072 -1.7711 -0.4054
 1004MOL0     H38511   3.329   6.217   6.061  0.1550 -0.8299  0.6012
 1004MOL0     H38512   3.433   6.355   6.080 -3.9892  0.2138 -1.1014
 1004MOL0     H38513   3.502   6.197   6.075  1.1794 -0.1399 -1.9057
 1004MOL0     H38514   3.764   6.591   6.125 -0.4901  1.2269  1.3990
 1004MOL0     H38515   3.991   6.633   6.205  0.6904 -0.0627  1.6302
 1004MOL0     H38516   4.304   6.279   6.237  1.3940 -0.3199  0.1003
 1004MOL0     H38517   4.330   6.370   6.079  0.9252  0.4189  0.3587
 1004MOL0     H38518   4.413   6.486   6.351 -0.6298 -2.4926 -0.0185
 1004MOL0     H38519   4.532   6.402   6.251  2.8917  1.7711  1.8787
 1004MOL0     H38520   4.374   6.618   6.114  0.3935 -1.9444 -1.6267
 1004MOL0     H38521   4.550   6.580   6.110  0.0632 -0.7065 -0.1561
 1004MOL0     H38522   4.560   6.659   6.360 -2.1814 -3.4870  0.1748
 1004MOL0     H38523   4.414   6.739   6.328  0.6197  0.7531 -0.2016
 1004MOL0     H38524   4.537   6.866   6.130 -0.2533  0.7114 -0.3012
 1004MOL0     H38525   4.584   6.897   6.299 -0.4475 -2.5858  1.4951
 1004MOL0     H38526   4.735   6.709   6.121  1.5350 -2.9437  2.0732
 1004MOL0     H38527   4.757   6.745   6.297 -1.3488  3.2859  2.1598
 1004MOL0     H38528   4.780   6.951   6.072 -0.8789  1.3877  1.6037
 1004MOL0     H38529   4.921   6.846   6.096  3.9120  4.3919  0.4130
 1004MOL0     H38530   4.980   7.054   6.168  0.1468 -1.8482 -1.0067
 1004MOL0     H38531   4.969   6.917   6.289 -1.1185 -2.7869 -1.8473
 1004MOL0     H38532   4.112   6.226   6.088  2.1974  1.1467 -1.1546
 1004MOL0     H38533   3.890   6.211   5.969  2.8284 -1.3084  0.8943
 1004MOL0     H38534   3.617   6.376   5.626 -0.8993  1.6894  1.7074
 1004MOL0     H38535   3.457   6.245   5.496  1.7636  0.6394 -0.6907
 1004MOL0     H38536   4.217   5.269   6.185 -0.7596 -1.1885 -0.9717
 1004MOL0     H38537   4.341   5.483   6.247 -0.5166 -3.5122  0.0144
 1004MOL0     H38538   4.780   5.808   5.938  2.3815  1.7943 -1.1505
 1004MOL0     H38539   4.870   6.011   5.975  0.9234 -2.4197  2.0285
 1004MOL0     H38540   4.759   6.265   5.930 -0.3751 -1.5250  0.4525
 1004MOL0     H38541   4.639   6.335   6.036  0.7254 -0.3413  3.6823
 1004MOL0     H38542   4.786   6.497   6.131 -2.5560 -1.8154 -0.1640
 1004MOL0     H38543   4.801   6.522   5.960  1.4819  0.2519  0.4602
 1004MOL0     H38544   5.015   6.393   6.122  1.7695 -0.9486 -1.4612
 1004MOL0     H38545   4.991   6.361   5.963  0.9983 -1.2560  0.7675
 1004MOL0     H38546   5.033   6.643   6.077  1.2021  0.8325 -1.4576
 1004MOL0     H38547   5.003   6.602   5.909 -0.9732 -2.0948 -0.7496
 1004MOL0     H38548   5.420   6.480   5.964 -0.5778  2.0727 -2.9732
 1004MOL0     H38549   4.567   6.143   6.238 -1.1507 -1.3290  1.2649
 1004MOL0     H38550   4.326   5.916   6.167  0.1681 -3.6013 -0.2779
 1004MOL0     H38551   4.420   5.813   6.258  1.4116 -0.4971 -2.2365
 1004MOL0     H38552   4.410   5.986   6.314 -0.9584  1.6004 -0.9801
 1005MOL0     O38553  10.905   7.512   4.945  0.1765 -0.7636  0.1103
 1005MOL0     C38554  10.782   7.514   4.933 -0.2728  0.2031 -0.0679
 1005MOL0     O38555  10.690   7.616   4.931  0.1897 -0.8121 -0.1718
 1005MOL0     C38556  10.741   7.742   4.910  0.1201  0.0806  0.3733
 1005MOL0     C38557  10.684   7.824   4.814 -0.3175 -0.4782  0.0935
 1005MOL0     C38558  10.732   7.954   4.783 -0.2720  0.2215 -0.7378
 1005MOL0     C38559  10.855   7.999   4.846  0.5157 -0.3429  0.1784
 1005MOL0     O38560  10.920   8.118   4.797  0.1806  0.2690  0.1379
 1005MOL0     C38561  11.042   8.151   4.866 -0.3952  0.4140 -0.3371
 1005MOL0     C38562  11.091   8.287   4.799 -0.6091 -0.7963  0.6424
 1005MOL0     C38563  11.216   8.341   4.875  1.1974 -0.0856 -0.1889
 1005MOL0     C38564  11.273   8.470   4.805 -0.4609  0.4221 -0.1658
 1005MOL0     C38565  11.398   8.519   4.877 -0.1082 -0.0980 -0.7953
 1005MOL0     C38566  11.459   8.652   4.824  0.2907  0.6355  0.0376
 1005MOL0     C38567  11.542   8.708   4.940 -0.3867  1.0209  0.3636
 1005MOL0     C38568  11.604   8.837   4.903  0.4759  0.0304 -0.7937
 1005MOL0     N38569  11.598   8.931   5.013 -0.3351 -0.9259 -0.1381
 1005MOL0     C38570  11.686   8.915   5.121  0.1197 -1.2908  0.2121
 1005MOL0     C38571  11.662   9.025   5.200  0.1333  0.0247 -0.5549
 1005MOL0     C38572  11.710   9.072   5.328  0.0118  0.0400  0.4513
 1005MOL0     C38573  11.610   9.024   5.441 -1.2986  0.6684 -0.0019
 1005MOL0     C38574  11.649   9.091   5.578 -1.2676  0.2401  0.2810
 1005MOL0     C38575  11.793   9.050   5.610 -0.5466 -0.0509 -0.3491
 1005MOL0     O38576  11.831   8.910   5.607 -0.5709  0.0153 -0.3257
 1005MOL0     C38577  11.890   8.852   5.718 -1.1814 -0.2065  0.5726
 1005MOL0     C38578  11.998   8.908   5.796  0.2051 -0.0671  0.6456
 1005MOL0     C38579  12.057   8.845   5.900 -0.3200 -0.4207 -0.4365
 1005MOL0     C38580  12.170   8.918   5.973 -0.8039 -0.1970  0.2408
 1005MOL0     C38581  12.014   8.710   5.926  0.0381  0.2712 -0.9016
 1005MOL0     C38582  12.086   8.619   6.028  0.1502  0.8488  0.3266
 1005MOL0     O38583  12.206   8.660   6.073 -0.4988  0.3587 -0.6233
 1005MOL0     C38584  12.283   8.585   6.163  1.3461  0.5250  0.0265
 1005MOL0     C38585  12.362   8.667   6.246  0.0795  0.6822  0.5657
 1005MOL0     C38586  12.446   8.601   6.337 -0.0792  0.2807 -0.0610
 1005MOL0     C38587  12.452   8.461   6.354  0.0822 -0.9038  0.3792
 1005MOL0     O38588  12.528   8.399   6.450 -0.1840 -0.1488 -0.2467
 1005MOL0     C38589  12.643   8.467   6.481 -0.3401 -1.3357  0.1794
 1005MOL0     C38590  12.732   8.411   6.599  0.2504 -0.0588  0.0079
 1005MOL0     C38591  12.729   8.252   6.600  0.1995 -0.1722 -0.5136
 1005MOL0     C38592  12.830   8.186   6.515 -0.3390  0.1775 -0.4301
 1005MOL0     C38593  12.800   8.033   6.521  0.4537 -0.1636  0.2164
 1005MOL0     C38594  12.836   7.954   6.641  0.1213 -0.0348  0.7004
 1005MOL0     C38595  12.785   7.809   6.621 -0.5156  0.1879  0.7747
 1005MOL0     C38596  12.872   7.713   6.696 -0.7876  0.1314 -0.1476
 1005MOL0    Cl38597  12.801   7.547   6.696  0.0080  0.2057 -0.0468
 1005MOL0     C38598  12.367   8.391   6.274  1.3099 -1.0316  0.1320
 1005MOL0     C38599  12.282   8.449   6.182 -0.4881  1.1299  0.5632
 1005MOL0     O38600  12.028   8.520   6.056  0.5711  0.0455 -1.0004
 1005MOL0     C38601  11.894   8.661   5.869 -1.0208 -0.9353  0.2944
 1005MOL0     C38602  11.841   8.739   5.767 -0.3193  0.8338 -0.0225
 1005MOL0     N38603  11.576   9.109   5.133 -0.1688  0.0626  0.0077
 1005MOL0     N38604  11.539   9.058   5.017 -0.0482  0.6440  0.1165
 1005MOL0     C38605  10.908   7.912   4.947 -0.3282  0.1197 -0.4820
 1005MOL0     C38606  10.845   7.788   4.975  0.2478  0.2469  0.1040
 1005MOL0     C38607  10.724   7.383   4.937 -0.2205  0.0337 -0.0201
 1005MOL0     C38608  10.646   7.345   5.050  0.2121  0.4899 -0.0419
 1005MOL0     C38609  10.605   7.211   5.064  1.2254  0.9405  0.0123
 1005MOL0     C38610  10.628   7.114   4.972  0.0042  0.4316  0.5891
 1005MOL0     O38611  10.589   6.982   4.980 -0.2687 -0.5122  0.1212
 1005MOL0     C38612  10.548   6.935   5.107 -0.0253 -0.7509  0.3507
 1005MOL0     C38613  10.550   6.786   5.106  0.6198  0.3850 -0.8390
 1005MOL0     C38614  10.499   6.739   5.235  0.0809 -0.4616  0.0143
 1005MOL0     C38615  10.500   6.586   5.252 -0.3606  0.4092 -0.2374
 1005MOL0     C38616  10.404   6.521   5.337  0.4020 -0.5609 -0.6676
 1005MOL0     C38617  10.317   6.461   5.401 -0.1118 -0.0516 -0.5861
 1005MOL0     C38618  10.675   7.156   4.844  0.5394  0.8561 -1.3303
 1005MOL0     C38619  10.727   7.285   4.828  0.0323 -0.1774  0.6602
 1005MOL0     C38620  10.794   7.319   4.701  0.1826 -0.3866  0.4202
 1005MOL0     H38621  10.600   7.781   4.761 -1.8354  1.7041  0.5742
 1005MOL0     H38622  10.673   8.013   4.714  1.2510  1.2889 -1.1806
 1005MOL0     H38623  11.124   8.079   4.866 -1.2332 -0.8738  4.5006
 1005MOL0     H38624  11.016   8.176   4.969  1.2947  1.8802 -0.2015
 1005MOL0     H38625  11.126   8.280   4.696 -4.0313 -0.4751 -0.6719
 1005MOL0     H38626  11.014   8.364   4.790  0.5392  0.2725 -0.4737
 1005MOL0     H38627  11.182   8.371   4.974 -0.7017 -2.6700  0.0420
 1005MOL0     H38628  11.289   8.261   4.895 -0.5339 -1.2903  1.6218
 1005MOL0     H38629  11.285   8.469   4.696 -1.0019  2.3910 -0.2826
 1005MOL0     H38630  11.189   8.535   4.829 -0.5812 -0.0977  0.8720
 1005MOL0     H38631  11.485   8.453   4.886 -0.3166 -0.7087 -2.8208
 1005MOL0     H38632  11.367   8.534   4.981 -1.1835 -0.3443 -1.0744
 1005MOL0     H38633  11.519   8.624   4.737 -2.6671 -3.4356 -0.9933
 1005MOL0     H38634  11.375   8.718   4.800 -1.5145 -1.9807 -1.3532
 1005MOL0     H38635  11.624   8.643   4.971  1.2845  1.1826 -3.2572
 1005MOL0     H38636  11.475   8.734   5.022 -2.4067  0.3684 -1.0070
 1005MOL0     H38637  11.707   8.827   4.865  0.5859  0.1276 -0.5267
 1005MOL0     H38638  11.555   8.891   4.821 -0.9020  0.2909  0.1725
 1005MOL0     H38639  11.774   8.853   5.137  1.7722  0.3794 -1.8628
 1005MOL0     H38640  11.722   9.180   5.324  1.5731 -0.1400 -0.9130
 1005MOL0     H38641  11.807   9.024   5.347  1.0240  1.4391 -1.0012
 1005MOL0     H38642  11.510   9.061   5.415 -0.6217  1.0128 -2.3399
 1005MOL0     H38643  11.613   8.915   5.444 -0.3974  0.6044 -1.9528
 1005MOL0     H38644  11.637   9.200   5.581 -1.4550  0.2083  3.3830
 1005MOL0     H38645  11.572   9.050   5.642 -0.9148 -2.4366 -0.8742
 1005MOL0     H38646  11.852   9.113   5.542 -3.5155  2.6405 -0.6579
 1005MOL0     H38647  11.816   9.094   5.707  1.4560  0.4598 -0.9975
 1005MOL0     H38648  12.039   9.007   5.778  2.1659 -1.2310 -1.9693
 1005MOL0     H38649  12.173   9.025   5.948  0.2152 -0.1168  0.6513
 1005MOL0     H38650  12.270   8.884   5.945 -1.8077 -2.3157 -0.9772
 1005MOL0     H38651  12.163   8.902   6.081 -0.3063 -0.4254  0.2412
 1005MOL0     H38652  12.336   8.772   6.258  0.2813  0.6473  1.4001
 1005MOL0     H38653  12.495   8.668   6.407  1.0772 -2.5216  1.9984
 1005MOL0     H38654  12.706   8.462   6.392  0.6605  0.7030  0.7220
 1005MOL0     H38655  12.627   8.573   6.505 -3.3547 -2.1959  2.6468
 1005MOL0     H38656  12.832   8.455   6.596  0.9284 -1.3719  1.7726
 1005MOL0     H38657  12.688   8.459   6.687 -3.4707  0.5655 -1.9870
 1005MOL0     H38658  12.630   8.214   6.573  1.7165 -4.0503 -1.2187
 1005MOL0     H38659  12.747   8.229   6.706  1.0396  1.6334 -0.2268
 1005MOL0     H38660  12.932   8.204   6.549 -1.0170 -1.2371  2.6728
 1005MOL0     H38661  12.810   8.221   6.413 -1.2590  3.3668  0.7350
 1005MOL0     H38662  12.696   8.012   6.495  1.8895 -4.0154 -3.5370
 1005MOL0     H38663  12.853   8.000   6.431 -1.0472  0.9982 -1.1717
 1005MOL0     H38664  12.778   7.991   6.726 -1.5823 -0.2129 -0.3533
 1005MOL0     H38665  12.945   7.957   6.652 -0.0354 -0.0830  2.6165
 1005MOL0     H38666  12.787   7.781   6.516  0.7504  1.0612  0.5443
 1005MOL0     H38667  12.679   7.802   6.647 -2.6635  2.7890 -5.4323
 1005MOL0     H38668  12.887   7.742   6.800  1.6159  0.5876 -0.5426
 1005MOL0     H38669  12.970   7.722   6.648 -0.6610 -1.4159 -0.2528
 1005MOL0     H38670  12.362   8.283   6.284 -0.8311 -0.9609  0.3058
 1005MOL0     H38671  12.212   8.382   6.133 -3.2437  1.9159  3.0865
 1005MOL0     H38672  11.853   8.563   5.893 -1.5333 -0.9941 -0.7503
 1005MOL0     H38673  11.748   8.705   5.724  0.8914 -0.1284 -2.0002
 1005MOL0     H38674  10.991   7.928   5.014  1.6881 -1.4911 -2.4235
 1005MOL0     H38675  10.875   7.734   5.064 -1.0374 -0.4624  0.1276
 1005MOL0     H38676  10.632   7.412   5.134 -1.1333 -0.1355  0.2661
 1005MOL0     H38677  10.554   7.185   5.156 -1.4537 -0.8548 -1.8357
 1005MOL0     H38678  10.620   6.978   5.177  1.0956  3.2361 -2.8650
 1005MOL0     H38679  10.452   6.977   5.141  0.5902 -1.6228  3.5187
 1005MOL0     H38680  10.651   6.750   5.084 -0.4422 -0.9971 -4.0722
 1005MOL0     H38681  10.485   6.743   5.029 -0.8290 -1.4072  1.2454
 1005MOL0     H38682  10.552   6.783   5.320 -0.6704  0.7937 -0.1512
 1005MOL0     H38683  10.396   6.774   5.241  0.6582  1.2242  0.7138
 1005MOL0     H38684  10.603   6.556   5.275 -0.8038 -0.7285  0.3513
 1005MOL0     H38685  10.489   6.537   5.155 -1.5132 -1.1891  0.6454
 1005MOL0     H38686  10.241   6.411   5.458 -0.7147  2.6739  1.1842
 1005MOL0     H38687  10.684   7.085   4.762 -0.6554 -0.7471 -0.1261
 1005MOL0     H38688  10.884   7.380   4.712 -0.0026 -0.3219  1.6649
 1005MOL0     H38689  10.811   7.229   4.641  0.7235  0.2584 -0.4206
 1005MOL0     H38690  10.719   7.376   4.644  0.0290 -2.7188 -1.9039
 1006MOL0     O38691   2.964  10.844   0.670  0.2368 -0.0730  0.0514
 1006MOL0     C38692   2.975  10.960   0.708  1.2308 -0.6642  0.5621
 1006MOL0     O38693   3.086  11.025   0.755 -0.9764 -0.4180 -0.7414
 1006MOL0     C38694   3.194  10.948   0.781 -0.6029 -0.2569  0.2961
 1006MOL0     C38695   3.204  10.857   0.886 -0.7438  0.2588 -0.4667
 1006MOL0     C38696   3.312  10.761   0.892 -0.3579 -0.0300 -0.8317
 1006MOL0     C38697   3.405  10.760   0.793  0.3793  0.0932 -0.2155
 1006MOL0     O38698   3.515  10.680   0.824  0.2127  0.1973 -0.3248
 1006MOL0     C38699   3.635  10.742   0.804 -0.5363  0.4477 -0.3218
 1006MOL0     C38700   3.744  10.631   0.855  0.8811  0.1464 -0.2764
 1006MOL0     C38701   3.884  10.693   0.888  0.2518  0.0809  0.4714
 1006MOL0     C38702   3.974  10.593   0.967  0.0106  0.0502  0.4113
 1006MOL0     C38703   4.119  10.631   0.968 -0.3290  1.0920 -1.0746
 1006MOL0     C38704   4.206  10.507   1.017  0.1336 -0.7945 -1.0269
 1006MOL0     C38705   4.347  10.566   1.038  0.7868  0.2849  0.2038
 1006MOL0     C38706   4.438  10.452   1.058  1.0381 -0.7451 -0.5581
 1006MOL0     N38707   4.571  10.504   1.094 -0.1369 -0.4944 -0.2878
 1006MOL0     C38708   4.607  10.575   1.205 -0.6404  0.1976 -0.3359
 1006MOL0     C38709   4.739  10.599   1.192 -0.9170 -0.7977  0.1086
 1006MOL0     C38710   4.812  10.683   1.292 -0.2078 -0.4095 -0.2487
 1006MOL0     C38711   4.822  10.825   1.243 -1.2238  0.1739 -0.0701
 1006MOL0     C38712   4.696  10.912   1.258  0.5426  0.8360  0.2365
 1006MOL0     C38713   4.694  10.994   1.392  0.4858  0.1189  0.7461
 1006MOL0     O38714   4.631  10.923   1.500 -0.1395  0.1413  0.8527
 1006MOL0     C38715   4.495  10.923   1.516 -0.1415  0.8595 -0.4253
 1006MOL0     C38716   4.437  10.895   1.645 -0.4474 -0.7941 -0.1758
 1006MOL0     C38717   4.297  10.877   1.667 -0.5289 -0.3226  0.8662
 1006MOL0     C38718   4.252  10.847   1.804  0.5825 -1.1342 -0.3927
 1006MOL0     C38719   4.211  10.914   1.562  0.0899  0.1412  0.0610
 1006MOL0     C38720   4.066  10.937   1.569 -0.2707 -0.0047  0.1518
 1006MOL0     O38721   3.995  10.877   1.673 -0.2865 -0.1066  0.3384
 1006MOL0     C38722   3.859  10.897   1.676 -0.2734 -0.1369  1.3006
 1006MOL0     C38723   3.804  11.000   1.753 -0.3377  0.6293 -0.0308
 1006MOL0     C38724   3.663  11.008   1.773 -0.2189 -0.1921  1.0387
 1006MOL0     C38725   3.574  10.910   1.712  0.7339  1.0071  0.5521
 1006MOL0     O38726   3.441  10.926   1.734  0.0075  0.1423  0.2018
 1006MOL0     C38727   3.349  10.861   1.646 -0.9569 -0.0018  0.3235
 1006MOL0     C38728   3.208  10.929   1.649 -0.6468 -0.3619  0.5439
 1006MOL0     C38729   3.122  10.903   1.770  0.9635  0.2409 -1.1737
 1006MOL0     C38730   3.148  11.013   1.885  0.1155 -0.8198  1.4658
 1006MOL0     C38731   3.023  11.035   1.971 -0.0537  0.2768  0.5346
 1006MOL0     C38732   2.944  10.916   2.019 -0.5393  0.0310 -0.3430
 1006MOL0     C38733   2.843  10.938   2.130  0.4025 -0.7030  0.4457
 1006MOL0     C38734   2.918  10.923   2.267  0.1455  0.5088  0.4116
 1006MOL0    Cl38735   2.785  10.922   2.384 -0.4299  0.2526 -0.5699
 1006MOL0     C38736   3.632  10.812   1.624  0.0703 -0.4180 -0.7508
 1006MOL0     C38737   3.771  10.804   1.611 -0.9494 -0.6355  0.4981
 1006MOL0     O38738   4.011  11.013   1.491 -0.8670 -0.0416 -0.2931
 1006MOL0     C38739   4.269  10.955   1.431 -0.3134 -0.2392  0.8285
 1006MOL0     C38740   4.407  10.959   1.412  0.4743  0.9616 -0.3285
 1006MOL0     N38741   4.788  10.535   1.076  0.1384 -1.1920  0.6287
 1006MOL0     N38742   4.684  10.490   1.020 -0.4159  0.5862  0.2177
 1006MOL0     C38743   3.403  10.859   0.691  0.2786 -0.0908  0.2138
 1006MOL0     C38744   3.295  10.943   0.685 -0.0013  0.7275 -0.4202
 1006MOL0     C38745   2.847  11.041   0.689 -0.1456  0.0540  0.4730
 1006MOL0     C38746   2.860  11.182   0.682  0.4668 -0.2481  1.2082
 1006MOL0     C38747   2.756  11.271   0.659 -0.1310 -0.0815  0.5231
 1006MOL0     C38748   2.626  11.215   0.639  0.0873 -0.3845  0.3708
 1006MOL0     O38749   2.515  11.295   0.619 -0.0395  0.0011 -0.1450
 1006MOL0     C38750   2.525  11.419   0.540  0.0387 -0.2996 -0.3803
 1006MOL0     C38751   2.526  11.533   0.640  0.4818  0.3623 -0.6250
 1006MOL0     C38752   2.388  11.601   0.657 -1.3855  0.9889  0.6502
 1006MOL0     C38753   2.360  11.672   0.791  0.2401  0.9954 -0.1906
 1006MOL0     C38754   2.454  11.783   0.813  0.1048 -0.1843  0.8243
 1006MOL0     C38755   2.539  11.870   0.820  0.8730  0.0861  0.7718
 1006MOL0     C38756   2.606  11.071   0.651  0.6965 -0.2044  1.6852
 1006MOL0     C38757   2.718  10.985   0.669 -0.4229 -0.3407 -0.0918
 1006MOL0     C38758   2.695  10.844   0.682  0.1739  0.7568  0.6089
 1006MOL0     H38759   3.128  10.840   0.961  0.2278  1.0375  0.7199
 1006MOL0     H38760   3.298  10.694   0.976 -4.3766  0.3403 -0.9802
 1006MOL0     H38761   3.644  10.845   0.840  2.2859  0.5480 -1.0346
 1006MOL0     H38762   3.660  10.750   0.698  1.6274  0.1149  0.1102
 1006MOL0     H38763   3.706  10.582   0.945 -0.4421  2.2820  0.4109
 1006MOL0     H38764   3.759  10.556   0.778 -1.0425 -0.2753 -0.2981
 1006MOL0     H38765   3.929  10.701   0.788 -1.2838 -0.8588 -0.3255
 1006MOL0     H38766   3.889  10.792   0.935  1.2751  0.0895  0.3590
 1006MOL0     H38767   3.937  10.591   1.070  1.1504 -2.2038  0.8463
 1006MOL0     H38768   3.952  10.493   0.927 -1.7435  1.1306 -1.5457
 1006MOL0     H38769   4.125  10.701   1.051  1.9482 -2.7118  2.3272
 1006MOL0     H38770   4.146  10.656   0.865  0.8407 -1.0608 -1.3546
 1006MOL0     H38771   4.173  10.467   1.113 -0.7913  0.8316 -0.6274
 1006MOL0     H38772   4.199  10.434   0.935  0.1610 -1.0395 -0.8118
 1006MOL0     H38773   4.347  10.622   1.132  2.9493 -0.5586  0.7621
 1006MOL0     H38774   4.387  10.619   0.952 -0.4664 -1.8423 -1.8198
 1006MOL0     H38775   4.399  10.386   1.136  1.7581  0.4041  0.8197
 1006MOL0     H38776   4.442  10.395   0.965  3.5408 -0.3084 -0.7837
 1006MOL0     H38777   4.530  10.615   1.269  1.2730  0.6252  1.8548
 1006MOL0     H38778   4.909  10.636   1.312 -0.4125 -0.4583  0.6552
 1006MOL0     H38779   4.751  10.671   1.382  0.3921 -2.1491 -0.0322
 1006MOL0     H38780   4.901  10.872   1.302  0.8009 -1.1850 -1.5728
 1006MOL0     H38781   4.859  10.820   1.140  1.4167 -2.2091  0.8533
 1006MOL0     H38782   4.701  10.988   1.179 -0.1139  1.6108  0.9212
 1006MOL0     H38783   4.604  10.855   1.241  0.6389  1.0157 -0.9938
 1006MOL0     H38784   4.798  11.021   1.415  0.6127  0.4405 -0.1534
 1006MOL0     H38785   4.650  11.089   1.363 -0.0638 -1.4461 -4.5641
 1006MOL0     H38786   4.505  10.869   1.726 -0.0404 -2.8641 -1.1266
 1006MOL0     H38787   4.338  10.837   1.871 -0.5554  0.5675  1.4479
 1006MOL0     H38788   4.190  10.757   1.810 -3.2754  1.2716 -0.5718
 1006MOL0     H38789   4.190  10.930   1.841  2.0074 -0.8764  1.6380
 1006MOL0     H38790   3.867  11.081   1.789  0.8385  1.1318 -2.9591
 1006MOL0     H38791   3.615  11.083   1.835 -0.4056 -0.7701  1.6083
 1006MOL0     H38792   3.383  10.873   1.542 -2.4121 -0.7073 -0.2765
 1006MOL0     H38793   3.330  10.756   1.671 -3.8886  0.2260 -0.5100
 1006MOL0     H38794   3.222  11.035   1.630 -3.8673 -0.0380 -0.6143
 1006MOL0     H38795   3.160  10.902   1.555  2.2404  0.4453 -1.2813
 1006MOL0     H38796   3.146  10.807   1.818 -1.3505  0.9890  1.7613
 1006MOL0     H38797   3.018  10.892   1.739 -0.2909  2.2928  1.8625
 1006MOL0     H38798   3.159  11.110   1.835 -2.7666 -0.0008  2.2390
 1006MOL0     H38799   3.246  11.005   1.934  1.2249 -0.8254 -0.6292
 1006MOL0     H38800   3.065  11.086   2.059  1.4171 -0.6907  0.4219
 1006MOL0     H38801   2.967  11.104   1.907  2.7779  2.6227  0.3686
 1006MOL0     H38802   3.016  10.852   2.070 -1.4017  0.3944  1.4244
 1006MOL0     H38803   2.909  10.851   1.938  1.8847 -0.3213 -1.1942
 1006MOL0     H38804   2.772  10.854   2.122 -1.3404  0.7952 -0.5240
 1006MOL0     H38805   2.788  11.031   2.118  0.7205 -0.3905  1.3233
 1006MOL0     H38806   2.988  11.007   2.277 -1.3526  2.3277 -2.6882
 1006MOL0     H38807   2.972  10.828   2.271  2.9611  2.0135  1.4221
 1006MOL0     H38808   3.585  10.729   1.574 -1.2444 -1.0410  1.3903
 1006MOL0     H38809   3.818  10.723   1.555  0.4847 -1.1150  2.3035
 1006MOL0     H38810   4.208  10.983   1.346  1.2362 -1.1230 -0.6503
 1006MOL0     H38811   4.447  10.989   1.316 -0.0696 -0.9616 -1.2155
 1006MOL0     H38812   3.489  10.866   0.625  1.3614  2.3101  1.7214
 1006MOL0     H38813   3.286  10.997   0.591  2.3552 -0.4164 -1.3863
 1006MOL0     H38814   2.955  11.230   0.704  1.0801 -0.1929 -1.2248
 1006MOL0     H38815   2.771  11.378   0.670 -0.9324  0.1230 -0.2965
 1006MOL0     H38816   2.618  11.421   0.482 -1.6362  4.0076 -3.4240
 1006MOL0     H38817   2.439  11.430   0.472 -0.5026  0.8251  0.4580
 1006MOL0     H38818   2.606  11.600   0.606  1.7846 -1.0767 -0.4868
 1006MOL0     H38819   2.562  11.495   0.736 -0.3018  1.1208 -0.0094
 1006MOL0     H38820   2.371  11.666   0.570 -0.1441  0.9799  0.3867
 1006MOL0     H38821   2.320  11.515   0.657 -0.4980  0.2743  1.6048
 1006MOL0     H38822   2.352  11.596   0.869 -1.1013 -0.2732 -1.4754
 1006MOL0     H38823   2.260  11.716   0.791 -2.1054 -3.6956  1.5901
 1006MOL0     H38824   2.605  11.954   0.828  0.1604  0.7541 -0.1689
 1006MOL0     H38825   2.509  11.027   0.632 -0.4013  0.7509  4.5057
 1006MOL0     H38826   2.722  10.783   0.595 -1.2766 -1.2436  1.4689
 1006MOL0     H38827   2.752  10.808   0.767  1.1031 -1.1572 -0.7484
 1006MOL0     H38828   2.592  10.814   0.706  0.4054  0.4448  1.2215
 1007MOL0     O38829   4.485   4.371   2.001 -0.3397 -0.4469  0.6864
 1007MOL0     C38830   4.453   4.457   1.919 -1.0072 -0.1540  0.5772
 1007MOL0     O38831   4.377   4.567   1.938  0.5911  0.7304 -0.6753
 1007MOL0     C38832   4.316   4.596   2.063 -0.3403  0.4785 -0.2821
 1007MOL0     C38833   4.195   4.645   2.067  0.7574 -0.3575  0.6804
 1007MOL0     C38834   4.133   4.698   2.178  0.0080 -0.2376 -0.1742
 1007MOL0     C38835   4.197   4.704   2.301 -1.0480 -0.5367 -1.0068
 1007MOL0     O38836   4.130   4.765   2.406  0.2867  0.6256  0.3742
 1007MOL0     C38837   4.195   4.791   2.536  0.4106 -0.3550 -0.9718
 1007MOL0     C38838   4.268   4.928   2.532 -0.1629  0.1097 -0.6454
 1007MOL0     C38839   4.172   5.038   2.498 -0.5566 -0.3889 -0.3438
 1007MOL0     C38840   4.245   5.168   2.485  0.6468 -1.2964 -0.2611
 1007MOL0     C38841   4.147   5.292   2.479 -0.0323 -0.2161  0.3505
 1007MOL0     C38842   4.214   5.426   2.455  0.4492  0.4109 -0.4685
 1007MOL0     C38843   4.226   5.510   2.585 -1.0089 -0.9880 -0.1728
 1007MOL0     C38844   4.333   5.618   2.572  0.5206 -0.9823  0.1089
 1007MOL0     N38845   4.245   5.733   2.540 -0.8471  0.5211  0.1640
 1007MOL0     C38846   4.233   5.796   2.415 -0.5187  0.1845 -0.7031
 1007MOL0     C38847   4.163   5.911   2.425 -0.0180 -0.0822  0.9001
 1007MOL0     C38848   4.135   6.006   2.302 -0.8940 -0.5462 -0.6108
 1007MOL0     C38849   3.990   6.046   2.291  0.2313  0.2131  0.6087
 1007MOL0     C38850   3.954   6.173   2.354  0.3873  0.2617 -0.8050
 1007MOL0     C38851   3.993   6.174   2.506 -0.0498 -0.3166 -0.2673
 1007MOL0     O38852   3.938   6.300   2.549  0.7543 -0.3759  0.5026
 1007MOL0     C38853   3.974   6.365   2.661  0.0627 -0.2100  0.1959
 1007MOL0     C38854   3.904   6.475   2.701  0.2828 -0.6649 -0.1622
 1007MOL0     C38855   3.908   6.527   2.827 -0.3921 -0.1964 -0.3464
 1007MOL0     C38856   3.811   6.644   2.851 -0.1097  0.2325  0.0732
 1007MOL0     C38857   3.999   6.468   2.922  0.5309 -0.3100  0.6930
 1007MOL0     C38858   4.014   6.521   3.057  0.6681 -0.9157 -0.6173
 1007MOL0     O38859   4.121   6.464   3.109 -0.6413 -0.2792 -0.7554
 1007MOL0     C38860   4.185   6.517   3.218  1.1376  0.4418 -0.7423
 1007MOL0     C38861   4.206   6.426   3.325 -0.0317 -0.1291  0.7541
 1007MOL0     C38862   4.283   6.466   3.432  0.1836  0.7620 -0.0667
 1007MOL0     C38863   4.324   6.595   3.448 -0.4096  0.1441  0.6609
 1007MOL0     O38864   4.372   6.642   3.567 -0.0601  0.4344 -0.3176
 1007MOL0     C38865   4.289   6.604   3.681 -0.6064  0.3217 -0.3149
 1007MOL0     C38866   4.341   6.674   3.811 -0.7364 -0.2299 -0.4976
 1007MOL0     C38867   4.230   6.712   3.906  0.3906 -0.0487  0.5525
 1007MOL0     C38868   4.277   6.727   4.056  0.7169 -0.1028  1.1869
 1007MOL0     C38869   4.160   6.753   4.150 -0.3237 -0.3065 -0.4390
 1007MOL0     C38870   4.199   6.782   4.298 -0.3692  0.6869 -0.0245
 1007MOL0     C38871   4.224   6.633   4.361 -0.7677 -0.4868  0.4173
 1007MOL0     C38872   4.271   6.635   4.511  0.0812  0.3070  0.2354
 1007MOL0    Cl38873   4.340   6.477   4.552 -0.1819  0.0411  0.1303
 1007MOL0     C38874   4.311   6.684   3.345  0.5776  0.5173 -0.5130
 1007MOL0     C38875   4.238   6.645   3.231 -0.6641  0.1883 -0.3265
 1007MOL0     O38876   3.952   6.618   3.110  0.1287  1.2759 -0.3395
 1007MOL0     C38877   4.074   6.357   2.878  0.2556 -0.1650 -0.0048
 1007MOL0     C38878   4.060   6.307   2.759 -0.0121  0.3007  0.3544
 1007MOL0     N38879   4.129   5.918   2.562 -0.1089 -0.7318  0.5699
 1007MOL0     N38880   4.180   5.822   2.628 -0.1334 -0.0155  0.0339
 1007MOL0     C38881   4.327   4.635   2.312 -0.2542  0.9167  0.1573
 1007MOL0     C38882   4.377   4.575   2.193  0.1562 -0.0694 -0.0562
 1007MOL0     C38883   4.494   4.429   1.781  0.4566  0.0189  0.3265
 1007MOL0     C38884   4.518   4.552   1.706 -0.1275 -0.2482  0.6453
 1007MOL0     C38885   4.550   4.543   1.568 -0.6070  0.1651 -0.4020
 1007MOL0     C38886   4.562   4.415   1.505  0.4084  0.2001  0.0618
 1007MOL0     O38887   4.580   4.421   1.374  0.1056  0.6020 -0.8566
 1007MOL0     C38888   4.603   4.300   1.304 -0.5827 -0.1442  0.1396
 1007MOL0     C38889   4.659   4.324   1.157  1.1663 -0.0139 -0.2837
 1007MOL0     C38890   4.781   4.410   1.152 -1.1416  0.2817  0.2467
 1007MOL0     C38891   4.864   4.390   1.034  0.0956 -1.1745  0.2182
 1007MOL0     C38892   4.980   4.476   1.038  0.6488 -0.4510  0.0092
 1007MOL0     C38893   5.084   4.538   1.014 -0.1886 -0.9024 -0.3715
 1007MOL0     C38894   4.525   4.293   1.577 -0.4340 -1.6545  0.0174
 1007MOL0     C38895   4.496   4.301   1.715 -0.2632  0.7282 -0.9550
 1007MOL0     C38896   4.474   4.179   1.801 -0.1747  1.0242  0.1274
 1007MOL0     H38897   4.136   4.658   1.976  0.4904  1.2025  1.0521
 1007MOL0     H38898   4.035   4.741   2.157 -0.3524 -1.7669 -1.9236
 1007MOL0     H38899   4.244   4.700   2.572 -0.9293 -0.9109 -0.4755
 1007MOL0     H38900   4.120   4.802   2.615  1.1484  2.4715 -0.5652
 1007MOL0     H38901   4.327   4.946   2.623 -0.2027  0.9276 -0.7751
 1007MOL0     H38902   4.337   4.919   2.448 -0.1087 -1.0269 -0.4940
 1007MOL0     H38903   4.114   5.005   2.411 -0.2703 -1.5605 -0.1030
 1007MOL0     H38904   4.105   5.055   2.582 -0.7886  0.9081 -0.7712
 1007MOL0     H38905   4.309   5.186   2.572  1.3035 -2.2047 -0.5473
 1007MOL0     H38906   4.310   5.155   2.398  2.2920 -1.8231  0.9822
 1007MOL0     H38907   4.092   5.305   2.573  1.3130  2.2723  0.8909
 1007MOL0     H38908   4.068   5.271   2.406  2.9114 -0.3793 -3.0630
 1007MOL0     H38909   4.306   5.406   2.400 -0.1785 -0.1851 -1.3167
 1007MOL0     H38910   4.145   5.485   2.394 -0.0384  2.5986  1.9965
 1007MOL0     H38911   4.271   5.442   2.657 -0.2948  2.6414  3.1592
 1007MOL0     H38912   4.131   5.542   2.630 -0.6315  1.3148 -0.8427
 1007MOL0     H38913   4.397   5.626   2.661  1.2821  1.8294 -0.5782
 1007MOL0     H38914   4.405   5.597   2.493  0.2085  2.9576 -1.4453
 1007MOL0     H38915   4.278   5.765   2.322  1.2302 -0.7391  0.3911
 1007MOL0     H38916   4.155   5.950   2.211 -0.3955 -0.5068 -0.5246
 1007MOL0     H38917   4.202   6.092   2.308 -1.1752 -0.3929  3.3696
 1007MOL0     H38918   3.974   6.053   2.183  1.6419  0.8484  0.4186
 1007MOL0     H38919   3.923   5.972   2.337  1.1439 -0.4432  0.8980
 1007MOL0     H38920   4.012   6.251   2.302 -0.7302  1.8475  0.2260
 1007MOL0     H38921   3.848   6.194   2.343 -0.3047 -0.9579  2.5533
 1007MOL0     H38922   3.948   6.092   2.562  2.7130 -0.5734  1.7667
 1007MOL0     H38923   4.102   6.174   2.514 -0.1825  0.4560  4.5206
 1007MOL0     H38924   3.831   6.529   2.642  0.0669 -0.4167  0.3350
 1007MOL0     H38925   3.803   6.714   2.767 -0.7365 -0.8733 -0.8127
 1007MOL0     H38926   3.834   6.706   2.939  2.0855 -0.6818  0.2105
 1007MOL0     H38927   3.714   6.600   2.871 -0.3551  1.7360  2.6153
 1007MOL0     H38928   4.175   6.323   3.309 -0.5014  0.4771 -3.6774
 1007MOL0     H38929   4.321   6.396   3.506 -1.0183  0.5724  0.3964
 1007MOL0     H38930   4.184   6.632   3.666 -0.9614 -0.1913  1.0273
 1007MOL0     H38931   4.274   6.496   3.692  1.3717 -0.1583 -1.8099
 1007MOL0     H38932   4.410   6.607   3.864 -1.3755 -1.7975 -1.5555
 1007MOL0     H38933   4.396   6.763   3.781 -3.0491  1.4748  0.0124
 1007MOL0     H38934   4.151   6.637   3.901  0.1160  0.2161  0.8501
 1007MOL0     H38935   4.188   6.807   3.872 -0.2149 -0.4733  0.1066
 1007MOL0     H38936   4.344   6.812   4.045  1.3140 -0.7490 -0.6001
 1007MOL0     H38937   4.323   6.635   4.092 -3.0251 -1.9101  1.8983
 1007MOL0     H38938   4.111   6.840   4.104 -0.4136 -1.1310 -1.9751
 1007MOL0     H38939   4.084   6.674   4.145 -2.0634  1.3550 -1.8257
 1007MOL0     H38940   4.125   6.823   4.366  0.6005  0.6380  1.0946
 1007MOL0     H38941   4.298   6.829   4.299 -0.5070  1.0229 -1.0149
 1007MOL0     H38942   4.298   6.584   4.297  2.4307  3.0897  1.0673
 1007MOL0     H38943   4.132   6.574   4.354 -0.5662 -0.8406  0.7333
 1007MOL0     H38944   4.189   6.662   4.578 -0.2375 -3.6204  1.6616
 1007MOL0     H38945   4.349   6.709   4.535 -0.3448  0.6730  0.4948
 1007MOL0     H38946   4.350   6.784   3.363 -0.0108  0.4822  1.1189
 1007MOL0     H38947   4.223   6.720   3.154  0.3471 -0.2332 -0.9497
 1007MOL0     H38948   4.135   6.300   2.946  1.8762  0.1699 -1.1185
 1007MOL0     H38949   4.109   6.212   2.742 -0.9876 -0.5271  1.9343
 1007MOL0     H38950   4.398   4.635   2.394 -0.1130 -0.5637  0.0608
 1007MOL0     H38951   4.472   4.523   2.185  0.4945  0.7822 -2.3386
 1007MOL0     H38952   4.528   4.655   1.739 -0.1075 -0.5224  1.4984
 1007MOL0     H38953   4.583   4.624   1.504  2.6422 -1.6094 -1.2024
 1007MOL0     H38954   4.680   4.243   1.356  0.4188  1.5272  0.5500
 1007MOL0     H38955   4.514   4.236   1.299 -0.1650 -0.6908 -0.7042
 1007MOL0     H38956   4.575   4.372   1.105  0.2474 -1.4811 -0.2091
 1007MOL0     H38957   4.681   4.229   1.108 -3.7131 -1.5128 -0.1139
 1007MOL0     H38958   4.767   4.516   1.172 -0.0113  0.9270 -1.9893
 1007MOL0     H38959   4.855   4.377   1.225  0.3937 -2.3671 -2.2835
 1007MOL0     H38960   4.806   4.418   0.946 -1.3225  3.0875  2.2414
 1007MOL0     H38961   4.899   4.286   1.029 -1.6869 -1.7952 -0.0613
 1007MOL0     H38962   5.176   4.587   0.990 -0.4552 -1.5026 -2.8890
 1007MOL0     H38963   4.515   4.194   1.532  1.5476 -1.2118 -1.5593
 1007MOL0     H38964   4.568   4.135   1.836 -0.2654  0.4279 -0.3623
 1007MOL0     H38965   4.404   4.190   1.884 -0.0657 -0.2913  0.4111
 1007MOL0     H38966   4.434   4.098   1.740  2.9506  0.5641 -1.5699
 1008MOL0     O38967   0.432   6.785   8.187 -0.3074  0.3921  0.3952
 1008MOL0     C38968   0.555   6.762   8.167 -0.2358  0.3582 -0.9024
 1008MOL0     O38969   0.659   6.832   8.227 -0.5318  0.0698 -0.8604
 1008MOL0     C38970   0.632   6.929   8.320 -0.6836 -0.3647  1.0161
 1008MOL0     C38971   0.521   7.011   8.342  0.0581  0.6890 -0.8282
 1008MOL0     C38972   0.520   7.115   8.436 -0.0803 -0.2646  0.6228
 1008MOL0     C38973   0.628   7.148   8.516  0.7485 -0.0354 -0.2963
 1008MOL0     O38974   0.626   7.245   8.616  0.1712  0.3700  0.1443
 1008MOL0     C38975   0.508   7.310   8.657 -0.7919  0.0289 -0.2689
 1008MOL0     C38976   0.407   7.228   8.744 -0.7355 -0.3785  0.6196
 1008MOL0     C38977   0.320   7.323   8.827 -0.3808  0.4431  0.7799
 1008MOL0     C38978   0.211   7.392   8.750 -0.5826 -0.0274 -0.0098
 1008MOL0     C38979   0.130   7.488   8.830 -0.0208 -0.2845 -0.7563
 1008MOL0     C38980   0.201   7.576   8.939  1.0729 -0.1298  0.2281
 1008MOL0     C38981   0.110   7.665   9.013  0.5277  0.3563 -0.6926
 1008MOL0     C38982  -0.005   7.601   9.089  0.5881 -0.6269 -0.6232
 1008MOL0     N38983   0.036   7.531   9.208 -0.5966  0.2418 -0.5447
 1008MOL0     C38984   0.020   7.577   9.336  1.0462  0.0977 -0.2355
 1008MOL0     C38985   0.034   7.466   9.414 -0.3875 -0.5680 -1.1136
 1008MOL0     C38986   0.040   7.466   9.569  1.2125  0.3734 -0.3391
 1008MOL0     C38987   0.150   7.377   9.634  0.7814 -0.8398  0.4011
 1008MOL0     C38988   0.156   7.405   9.784  0.2212 -0.0065 -0.4935
 1008MOL0     C38989   0.296   7.362   9.840  0.3408 -0.2798  0.0697
 1008MOL0     O38990   0.317   7.437   9.963 -0.2353  0.6801  0.0313
 1008MOL0     C38991   0.280   7.379  10.089 -0.0423 -0.3650  0.2339
 1008MOL0     C38992   0.193   7.267  10.109 -0.0735  0.5403 -0.3732
 1008MOL0     C38993   0.153   7.223  10.235 -1.3267  1.3561 -0.5998
 1008MOL0     C38994   0.047   7.123  10.231  0.3469  0.6538  0.1293
 1008MOL0     C38995   0.210   7.291  10.348  1.3638  0.5213  0.4772
 1008MOL0     C38996   0.174   7.256  10.483  0.2718  0.8538  0.2372
 1008MOL0     O38997   0.239   7.313  10.580 -0.2924 -0.0563  0.5487
 1008MOL0     C38998   0.212   7.297  10.716 -0.0763 -0.1489 -0.8259
 1008MOL0     C38999   0.315   7.315  10.812 -0.3291  0.1569 -0.8239
 1008MOL0     C39000   0.294   7.299  10.951  0.1492  0.2667 -1.2266
 1008MOL0     C39001   0.162   7.300  10.997  0.3459  0.0149 -0.1134
 1008MOL0     O39002   0.137   7.291  11.132  0.3186 -0.4919  0.4606
 1008MOL0     C39003   0.193   7.392  11.220  0.6836 -1.3207 -0.3502
 1008MOL0     C39004   0.087   7.396  11.327  0.0730  0.2388 -0.1747
 1008MOL0     C39005   0.063   7.263  11.391  0.0545  0.5020 -0.4199
 1008MOL0     C39006   0.002   7.277  11.532 -1.0647  0.7407  0.7310
 1008MOL0     C39007  -0.016   7.138  11.612  0.0621 -0.3876  0.6729
 1008MOL0     C39008   0.101   7.038  11.587  1.0721  0.5132  0.7581
 1008MOL0     C39009   0.068   6.948  11.462 -0.2519 -0.3324  0.3080
 1008MOL0     C39010   0.030   6.804  11.495  1.3130 -0.3816 -0.4726
 1008MOL0    Cl39011   0.171   6.713  11.560 -0.0923  0.1664 -0.3275
 1008MOL0     C39012   0.064   7.284  10.902  0.5198 -0.0518 -0.2674
 1008MOL0     C39013   0.080   7.293  10.764 -0.4763 -0.4371 -0.6877
 1008MOL0     O39014   0.077   7.179  10.505 -0.9148 -1.2045  0.2251
 1008MOL0     C39015   0.292   7.400  10.332  0.4490 -0.7190 -0.2345
 1008MOL0     C39016   0.317   7.453  10.207  0.0180  0.5865  0.1721
 1008MOL0     N39017   0.081   7.364   9.334 -0.4635  0.5965  0.8270
 1008MOL0     N39018   0.085   7.410   9.216 -0.6288 -0.7168 -0.2466
 1008MOL0     C39019   0.743   7.067   8.489 -0.2993 -0.0181  0.4479
 1008MOL0     C39020   0.741   6.958   8.403 -1.8738 -0.5106 -0.1865
 1008MOL0     C39021   0.588   6.638   8.089  0.0446 -0.1768 -0.1083
 1008MOL0     C39022   0.726   6.619   8.057  0.1925  0.4989 -0.3799
 1008MOL0     C39023   0.762   6.533   7.961  0.2829  1.1620  0.7961
 1008MOL0     C39024   0.677   6.450   7.896 -0.2880 -0.5592 -1.0526
 1008MOL0     O39025   0.721   6.359   7.805 -0.0225 -0.0952 -0.3729
 1008MOL0     C39026   0.698   6.218   7.836  0.1584  0.0627  0.0410
 1008MOL0     C39027   0.778   6.122   7.744  0.5173 -0.4852  0.0646
 1008MOL0     C39028   0.764   6.158   7.593 -0.1209  0.3253 -0.1066
 1008MOL0     C39029   0.859   6.272   7.540 -0.2007  0.8973 -0.9167
 1008MOL0     C39030   0.912   6.240   7.408  0.3860 -0.0890  0.0858
 1008MOL0     C39031   0.957   6.187   7.310 -0.8176  0.0730  0.4380
 1008MOL0     C39032   0.539   6.463   7.936  0.1922 -0.4115  0.9928
 1008MOL0     C39033   0.493   6.550   8.030  0.4173  0.5003 -0.1025
 1008MOL0     C39034   0.344   6.540   8.063  0.7827  0.5987 -1.1194
 1008MOL0     H39035   0.423   6.997   8.298 -0.0510  2.4263 -1.1933
 1008MOL0     H39036   0.435   7.182   8.422  1.3684  1.6592  0.5771
 1008MOL0     H39037   0.468   7.364   8.571 -2.2929 -2.3335 -1.1514
 1008MOL0     H39038   0.541   7.389   8.725 -0.2031 -0.1242 -0.3711
 1008MOL0     H39039   0.348   7.153   8.691 -0.6048 -0.2405  0.2770
 1008MOL0     H39040   0.459   7.170   8.820 -3.6554 -2.3514  1.2980
 1008MOL0     H39041   0.275   7.271   8.912  1.1673 -0.6691  0.9518
 1008MOL0     H39042   0.389   7.393   8.874  1.2683  0.2654 -1.2333
 1008MOL0     H39043   0.251   7.449   8.665 -2.9799  0.8772 -0.6211
 1008MOL0     H39044   0.148   7.313   8.708 -1.9235  3.7584 -6.4934
 1008MOL0     H39045   0.047   7.429   8.872 -0.2946  1.3076  1.0968
 1008MOL0     H39046   0.076   7.551   8.759 -2.5389 -2.1621 -0.6514
 1008MOL0     H39047   0.264   7.528   9.015 -0.4388 -0.9514  1.0184
 1008MOL0     H39048   0.269   7.643   8.885  1.3154 -0.8477 -0.3755
 1008MOL0     H39049   0.072   7.733   8.936 -1.7038  2.9390  2.4666
 1008MOL0     H39050   0.165   7.729   9.082 -0.4580  1.6609 -1.0841
 1008MOL0     H39051  -0.069   7.683   9.122  1.8650 -0.6152  2.0344
 1008MOL0     H39052  -0.044   7.534   9.012  1.6816 -2.4509  0.3531
 1008MOL0     H39053  -0.024   7.668   9.375 -0.4335 -1.4648  2.0264
 1008MOL0     H39054  -0.058   7.438   9.609  0.7239  1.0832 -1.0174
 1008MOL0     H39055   0.051   7.572   9.594  1.7966  0.8642 -2.4756
 1008MOL0     H39056   0.101   7.280   9.622 -1.1067  0.1838 -0.8161
 1008MOL0     H39057   0.244   7.388   9.578  0.8667  1.2883  0.8829
 1008MOL0     H39058   0.139   7.510   9.813  2.5074  0.2393  0.0933
 1008MOL0     H39059   0.072   7.352   9.830 -2.0744  3.9111  0.3508
 1008MOL0     H39060   0.298   7.254   9.857  0.5027 -0.7244 -2.3892
 1008MOL0     H39061   0.374   7.378   9.765  0.6198  4.1992  1.0306
 1008MOL0     H39062   0.159   7.212  10.021  1.6076  0.4966 -1.0364
 1008MOL0     H39063   0.068   7.042  10.302 -2.5853 -1.4001 -1.1239
 1008MOL0     H39064   0.014   7.072  10.139 -0.5255 -0.9861  1.2990
 1008MOL0     H39065  -0.042   7.176  10.265 -1.1346 -2.6276  1.7800
 1008MOL0     H39066   0.413   7.338  10.772  0.7656 -1.2384  0.8841
 1008MOL0     H39067   0.377   7.296  11.021 -1.9164 -1.7602  1.3377
 1008MOL0     H39068   0.279   7.343  11.266  0.0682 -2.3498 -0.2395
 1008MOL0     H39069   0.216   7.488  11.174 -0.2389 -1.3194 -0.8435
 1008MOL0     H39070   0.124   7.468  11.401  3.5858 -0.0474 -1.4623
 1008MOL0     H39071  -0.003   7.436  11.280  1.3370  0.3330 -2.6701
 1008MOL0     H39072   0.159   7.212  11.405 -0.1727 -1.1167 -3.8101
 1008MOL0     H39073  -0.002   7.196  11.333  1.1116 -1.2734  0.3558
 1008MOL0     H39074  -0.099   7.318  11.527 -0.1935  3.3879  2.5201
 1008MOL0     H39075   0.065   7.347  11.588  0.5265  0.1884 -0.3155
 1008MOL0     H39076   0.009   7.182  11.710  2.8787  0.6773 -0.4105
 1008MOL0     H39077  -0.119   7.102  11.620 -0.8262  2.0715  1.4822
 1008MOL0     H39078   0.105   6.969  11.671  0.9688  1.5433  1.6196
 1008MOL0     H39079   0.200   7.080  11.569  0.9838 -0.6468 -3.6280
 1008MOL0     H39080   0.154   6.948  11.394  0.0228  0.0856  0.6519
 1008MOL0     H39081  -0.019   6.995  11.414  1.5156  2.1291 -0.7206
 1008MOL0     H39082  -0.001   6.762  11.399 -2.6478 -1.1652  0.9545
 1008MOL0     H39083  -0.056   6.802  11.563 -0.2867  1.3014 -2.2972
 1008MOL0     H39084  -0.033   7.294  10.950  1.7128  1.9016  1.9917
 1008MOL0     H39085  -0.004   7.317  10.701 -0.0294 -0.2630 -1.2250
 1008MOL0     H39086   0.340   7.460  10.408  3.1428 -0.6312 -1.8639
 1008MOL0     H39087   0.367   7.549  10.200  0.7921  0.0703 -2.6872
 1008MOL0     H39088   0.832   7.080   8.549 -0.5788  1.3882  0.5879
 1008MOL0     H39089   0.830   6.896   8.403 -2.1278 -0.8846  0.0726
 1008MOL0     H39090   0.806   6.684   8.091  2.3430 -0.9752 -2.2732
 1008MOL0     H39091   0.864   6.532   7.925  0.2483  1.8732  0.6623
 1008MOL0     H39092   0.733   6.196   7.938 -0.0455  1.0239  0.3315
 1008MOL0     H39093   0.591   6.197   7.833  0.2718 -0.4516 -0.5609
 1008MOL0     H39094   0.749   6.018   7.760  3.4588 -1.8094 -2.2738
 1008MOL0     H39095   0.881   6.127   7.778 -0.4010  0.2760  3.0313
 1008MOL0     H39096   0.795   6.065   7.545 -2.8135  0.8987 -3.3795
 1008MOL0     H39097   0.661   6.172   7.559 -0.3343 -4.4723 -2.1568
 1008MOL0     H39098   0.952   6.273   7.597  0.4232  3.7885 -1.8278
 1008MOL0     H39099   0.809   6.367   7.558 -0.5108  0.2380  2.1555
 1008MOL0     H39100   1.009   6.136   7.231  1.9184  1.2112  1.3710
 1008MOL0     H39101   0.468   6.404   7.880  2.8373 -0.5327 -2.5675
 1008MOL0     H39102   0.324   6.551   8.170  1.1912 -0.5609 -0.9128
 1008MOL0     H39103   0.284   6.616   8.013 -0.2153 -1.1874 -2.7739
 1008MOL0     H39104   0.314   6.437   8.041  0.6110 -0.0816  1.7691
 1009MOL0     O39105   2.967   8.620   3.783 -0.1954 -0.6615 -0.3457
 1009MOL0     C39106   3.025   8.713   3.837  0.1814 -0.2296  0.5462
 1009MOL0     O39107   3.098   8.812   3.772 -0.6242  0.5245 -0.3376
 1009MOL0     C39108   3.120   8.797   3.634 -0.3792  0.3144  0.8104
 1009MOL0     C39109   3.045   8.854   3.528 -0.1933  0.3484 -0.6397
 1009MOL0     C39110   3.081   8.827   3.399  0.0337 -0.6667  0.3404
 1009MOL0     C39111   3.195   8.756   3.369  0.1518  0.9646 -0.9181
 1009MOL0     O39112   3.223   8.737   3.238 -0.1410  0.0891 -0.4328
 1009MOL0     C39113   3.321   8.645   3.196  1.0894 -0.8071  0.6095
 1009MOL0     C39114   3.303   8.633   3.046  0.9687 -0.1802 -0.7289
 1009MOL0     C39115   3.396   8.538   2.983  0.0423  0.0532 -0.2317
 1009MOL0     C39116   3.391   8.535   2.835 -0.1305  1.2460  0.0553
 1009MOL0     C39117   3.255   8.551   2.763 -0.0397  0.6300 -0.9781
 1009MOL0     C39118   3.253   8.523   2.610 -0.8179  1.3194 -0.6194
 1009MOL0     C39119   3.154   8.607   2.535  0.7553 -0.3351  0.3366
 1009MOL0     C39120   3.005   8.570   2.554 -0.2621 -0.2403  0.0660
 1009MOL0     N39121   2.923   8.622   2.444 -0.2120 -0.4329  0.2079
 1009MOL0     C39122   2.844   8.536   2.367  0.7575 -0.7663  0.2136
 1009MOL0     C39123   2.770   8.622   2.281 -0.8797  0.3118 -0.0927
 1009MOL0     C39124   2.654   8.591   2.189 -0.3312  0.3331  1.1068
 1009MOL0     C39125   2.529   8.559   2.267  0.1120  0.1980 -1.2301
 1009MOL0     C39126   2.413   8.539   2.177  0.7031  0.8825  0.3304
 1009MOL0     C39127   2.276   8.545   2.246  0.3175 -0.0186 -0.3845
 1009MOL0     O39128   2.181   8.479   2.166 -0.4362 -0.9141 -0.0882
 1009MOL0     C39129   2.053   8.475   2.216  0.1852 -0.1657  1.2117
 1009MOL0     C39130   2.022   8.379   2.310 -0.2592 -0.0128 -0.1270
 1009MOL0     C39131   1.900   8.384   2.381  1.1490  0.2048  0.6748
 1009MOL0     C39132   1.891   8.297   2.504  0.1482  0.1975  0.6271
 1009MOL0     C39133   1.806   8.480   2.333 -0.1022 -0.5785  0.2965
 1009MOL0     C39134   1.669   8.485   2.381  0.1361  0.5091  0.4748
 1009MOL0     O39135   1.576   8.527   2.290  0.4763  0.3386 -0.1803
 1009MOL0     C39136   1.451   8.539   2.336  1.2952 -0.0099 -0.0881
 1009MOL0     C39137   1.344   8.449   2.303 -0.2275 -0.6939  1.3507
 1009MOL0     C39138   1.212   8.465   2.341 -0.4362 -0.4218 -0.1376
 1009MOL0     C39139   1.179   8.577   2.419 -0.5798 -0.1025  0.0761
 1009MOL0     O39140   1.047   8.581   2.452  0.7930  0.0843  0.0590
 1009MOL0     C39141   0.976   8.699   2.403 -0.2124 -1.1974 -0.8149
 1009MOL0     C39142   0.825   8.665   2.391  0.2426 -0.3140  0.2523
 1009MOL0     C39143   0.752   8.790   2.331 -0.3721 -0.3007  0.2987
 1009MOL0     C39144   0.625   8.756   2.261 -1.0110  0.0069  0.0723
 1009MOL0     C39145   0.577   8.862   2.158  0.8264  0.2981  0.1699
 1009MOL0     C39146   0.434   8.821   2.090 -0.0133  0.4479 -0.0824
 1009MOL0     C39147   0.312   8.815   2.188  1.3465  0.3054  0.3925
 1009MOL0     C39148   0.201   8.724   2.128 -0.3300  0.3485 -0.5139
 1009MOL0    Cl39149   0.255   8.561   2.078 -0.1343  0.2871 -0.1937
 1009MOL0     C39150   1.279   8.674   2.446  0.2335  0.3157 -0.2509
 1009MOL0     C39151   1.416   8.658   2.399  0.4020  0.1118 -0.2585
 1009MOL0     O39152   1.645   8.454   2.494 -0.1250 -0.3144  0.4476
 1009MOL0     C39153   1.838   8.560   2.226 -0.6914 -0.7875  1.3089
 1009MOL0     C39154   1.962   8.562   2.167 -0.3499  0.8241 -0.5191
 1009MOL0     N39155   2.801   8.745   2.327 -0.5288 -0.4270  0.1373
 1009MOL0     N39156   2.894   8.749   2.419 -0.4913  0.0317  0.1772
 1009MOL0     C39157   3.259   8.685   3.470  0.6679 -0.8565 -0.4956
 1009MOL0     C39158   3.211   8.695   3.601 -0.4893 -0.9722  0.1611
 1009MOL0     C39159   3.021   8.716   3.988  0.6849 -0.6226  0.5927
 1009MOL0     C39160   3.102   8.825   4.046  0.8293  1.0425  0.0896
 1009MOL0     C39161   3.123   8.818   4.181 -0.6482  0.1977  0.5877
 1009MOL0     C39162   3.077   8.724   4.266  0.0920  0.6395  0.0647
 1009MOL0     O39163   3.111   8.741   4.404 -0.1779 -0.8105 -0.5700
 1009MOL0     C39164   3.057   8.653   4.502  1.6694 -0.2804 -0.3716
 1009MOL0     C39165   3.092   8.705   4.644 -0.0391  0.5681  0.8275
 1009MOL0     C39166   3.220   8.793   4.654 -0.7741  1.3650  0.6964
 1009MOL0     C39167   3.303   8.778   4.784 -0.2318  0.0488 -0.7368
 1009MOL0     C39168   3.208   8.788   4.906 -1.3923  0.0432 -0.0103
 1009MOL0     C39169   3.160   8.793   5.020  0.6223  0.4032 -0.1685
 1009MOL0     C39170   3.000   8.625   4.217  0.5648  0.8191 -0.1711
 1009MOL0     C39171   2.974   8.613   4.076 -0.5396 -0.2444  0.4613
 1009MOL0     C39172   2.903   8.485   4.039  0.6755  0.3133 -1.1159
 1009MOL0     H39173   2.961   8.919   3.551  0.1454 -0.1035  2.3241
 1009MOL0     H39174   3.023   8.866   3.316 -1.8091  1.5406  2.5188
 1009MOL0     H39175   3.293   8.547   3.236  0.6068 -1.5388 -1.3630
 1009MOL0     H39176   3.416   8.692   3.222  1.1932  0.3111 -1.5540
 1009MOL0     H39177   3.201   8.601   3.023  0.4655  2.5449 -2.7940
 1009MOL0     H39178   3.322   8.736   3.014  1.9988 -0.3520 -0.7066
 1009MOL0     H39179   3.498   8.564   3.013 -0.2870  4.5801 -2.2149
 1009MOL0     H39180   3.388   8.440   3.031  5.5228  0.7118  2.7620
 1009MOL0     H39181   3.474   8.593   2.794  2.6413 -3.0568 -1.0060
 1009MOL0     H39182   3.423   8.431   2.824 -0.5006  0.8982  1.9058
 1009MOL0     H39183   3.224   8.654   2.782  2.3294  1.0356  1.3463
 1009MOL0     H39184   3.172   8.496   2.808  0.9713 -0.7418 -0.6927
 1009MOL0     H39185   3.347   8.532   2.553 -0.4744 -2.0736 -0.8113
 1009MOL0     H39186   3.224   8.418   2.598 -0.6769  1.1534  0.4520
 1009MOL0     H39187   3.191   8.602   2.432  4.4192 -5.5713  1.4607
 1009MOL0     H39188   3.173   8.711   2.563  1.3071 -0.4510  0.4028
 1009MOL0     H39189   3.005   8.461   2.562  0.0526 -0.0817  3.4572
 1009MOL0     H39190   2.971   8.599   2.654  0.9680  0.3493  0.3302
 1009MOL0     H39191   2.829   8.430   2.380  3.9569 -0.9614  4.3287
 1009MOL0     H39192   2.683   8.510   2.122 -1.1058  0.1857  0.9478
 1009MOL0     H39193   2.647   8.683   2.130  1.4517 -0.0944  0.1539
 1009MOL0     H39194   2.550   8.469   2.325 -0.9822  1.2368  0.8891
 1009MOL0     H39195   2.512   8.645   2.332  0.1821 -1.9665  1.8991
 1009MOL0     H39196   2.416   8.614   2.097  1.4419  1.1866  0.6356
 1009MOL0     H39197   2.423   8.436   2.141 -4.5817 -0.3524  1.5227
 1009MOL0     H39198   2.285   8.503   2.347  0.3838  0.9991  0.0547
 1009MOL0     H39199   2.254   8.652   2.256  2.0189  0.2974  0.4195
 1009MOL0     H39200   2.091   8.296   2.325  0.1326  0.5390  1.2589
 1009MOL0     H39201   1.845   8.202   2.475  1.8150  0.0259 -1.6922
 1009MOL0     H39202   1.834   8.362   2.571  0.3057  3.4192 -2.1437
 1009MOL0     H39203   1.985   8.274   2.555  1.5001  0.3180 -1.6963
 1009MOL0     H39204   1.379   8.361   2.251 -1.2157 -0.3736  0.0670
 1009MOL0     H39205   1.140   8.389   2.316  0.3963 -1.7805  1.3595
 1009MOL0     H39206   0.991   8.778   2.476  0.2364 -2.6489  0.7372
 1009MOL0     H39207   1.018   8.737   2.309  1.7970  0.4599  0.6604
 1009MOL0     H39208   0.818   8.574   2.331  0.0195  0.6627 -1.2633
 1009MOL0     H39209   0.793   8.654   2.495 -1.0410  0.6342 -0.0187
 1009MOL0     H39210   0.823   8.828   2.257  0.8653 -1.9682  0.5622
 1009MOL0     H39211   0.727   8.872   2.399  1.7077  2.3620 -1.8953
 1009MOL0     H39212   0.555   8.743   2.345 -1.4839  0.0385 -0.3165
 1009MOL0     H39213   0.647   8.658   2.218  1.7254  0.3020  0.6133
 1009MOL0     H39214   0.554   8.953   2.214 -2.5597 -0.6279  0.5023
 1009MOL0     H39215   0.650   8.889   2.081  2.4874 -0.4379  1.4442
 1009MOL0     H39216   0.443   8.724   2.041  2.8429 -0.7440  2.4776
 1009MOL0     H39217   0.415   8.903   2.020 -0.7886 -0.7299 -1.2998
 1009MOL0     H39218   0.270   8.914   2.210 -0.8546 -0.4705 -0.0854
 1009MOL0     H39219   0.352   8.774   2.281  2.4779 -2.1728 -1.0762
 1009MOL0     H39220   0.160   8.769   2.037  2.3798  0.3816 -1.8174
 1009MOL0     H39221   0.131   8.710   2.211  2.8772 -1.9071  2.0611
 1009MOL0     H39222   1.243   8.768   2.486 -2.2897  0.2366 -2.1152
 1009MOL0     H39223   1.486   8.737   2.425 -0.7495  0.2354  2.8909
 1009MOL0     H39224   1.773   8.633   2.178  1.1022 -2.0399 -3.7718
 1009MOL0     H39225   1.980   8.633   2.087 -1.0444  2.0559  0.3830
 1009MOL0     H39226   3.356   8.637   3.458  1.6189  0.2494  2.0348
 1009MOL0     H39227   3.254   8.627   3.673 -0.1982 -2.0463 -0.9926
 1009MOL0     H39228   3.151   8.902   3.986 -0.9868 -0.5909 -3.8151
 1009MOL0     H39229   3.186   8.897   4.223 -2.0326  0.3792  2.4607
 1009MOL0     H39230   2.949   8.648   4.486  1.5575  3.4494 -1.6438
 1009MOL0     H39231   3.111   8.559   4.486  0.8015 -0.8754  0.0989
 1009MOL0     H39232   3.102   8.627   4.721  0.6500  0.4670  0.6408
 1009MOL0     H39233   3.006   8.763   4.681 -1.5010 -0.2342 -1.1350
 1009MOL0     H39234   3.289   8.762   4.575 -3.3716 -0.6272 -0.9104
 1009MOL0     H39235   3.190   8.896   4.634 -1.3025  1.4316  1.7495
 1009MOL0     H39236   3.368   8.866   4.788 -1.5443  1.0149  0.3415
 1009MOL0     H39237   3.366   8.689   4.777 -1.6639 -0.9963 -1.0299
 1009MOL0     H39238   3.103   8.803   5.110 -0.6261 -0.6577 -0.8077
 1009MOL0     H39239   2.948   8.549   4.274  0.9637  2.2001  2.1363
 1009MOL0     H39240   2.955   8.437   3.955 -2.5225 -3.9294 -1.0053
 1009MOL0     H39241   2.900   8.406   4.114  0.4864 -0.1241 -1.5814
 1009MOL0     H39242   2.798   8.490   4.011 -1.1611 -3.0550  3.8974
 1010MOL0     O39243   8.942  10.454   6.507 -0.1965  0.5984  0.0556
 1010MOL0     C39244   8.856  10.382   6.446  0.7516 -0.1961 -0.3304
 1010MOL0     O39245   8.737  10.362   6.498 -0.4476  0.0578 -0.2080
 1010MOL0     C39246   8.695  10.449   6.600  0.1734 -0.7956 -0.0009
 1010MOL0     C39247   8.622  10.560   6.563 -0.4112  0.4346 -0.5288
 1010MOL0     C39248   8.578  10.648   6.657  1.3431 -0.1975 -1.1257
 1010MOL0     C39249   8.587  10.626   6.795 -0.0649 -0.5975 -0.1011
 1010MOL0     O39250   8.527  10.710   6.884  0.0701  0.1682  0.3105
 1010MOL0     C39251   8.524  10.673   7.023 -0.0261 -0.2592  0.0890
 1010MOL0     C39252   8.436  10.773   7.101  0.8842  0.1288  0.0170
 1010MOL0     C39253   8.290  10.760   7.059 -0.4197 -0.0903  0.1580
 1010MOL0     C39254   8.202  10.871   7.118 -0.5200 -0.4027 -0.0676
 1010MOL0     C39255   8.069  10.904   7.035 -0.2264  0.0074  0.5597
 1010MOL0     C39256   7.973  10.793   7.010 -0.1257 -0.4325  0.1632
 1010MOL0     C39257   7.903  10.765   7.144  0.2750  0.1155  0.0456
 1010MOL0     C39258   7.793  10.860   7.182 -0.0478 -0.1456  0.0056
 1010MOL0     N39259   7.794  10.914   7.317  0.1743  0.1502  0.1269
 1010MOL0     C39260   7.809  10.842   7.433 -0.1433  0.4264 -0.4050
 1010MOL0     C39261   7.829  10.942   7.525  0.2105  1.3413 -0.2923
 1010MOL0     C39262   7.857  10.915   7.675  0.3390 -0.2069  0.6099
 1010MOL0     C39263   7.733  10.958   7.753  0.7612 -0.5006  0.2345
 1010MOL0     C39264   7.764  10.944   7.907 -0.4674 -0.8738  0.6936
 1010MOL0     C39265   7.667  11.026   7.998 -0.0438  0.2696 -0.4246
 1010MOL0     O39266   7.721  11.055   8.133 -0.1217 -0.6569  0.5849
 1010MOL0     C39267   7.709  10.945   8.219 -0.0838  0.3554  0.3090
 1010MOL0     C39268   7.587  10.913   8.283  1.2510 -0.0499  0.1137
 1010MOL0     C39269   7.585  10.814   8.384  0.2847  0.1102  0.2557
 1010MOL0     C39270   7.449  10.779   8.436  0.0578  0.1471 -0.0881
 1010MOL0     C39271   7.704  10.744   8.419  0.3166 -0.1193  0.6573
 1010MOL0     C39272   7.714  10.641   8.530  0.1452  0.7061  0.2720
 1010MOL0     O39273   7.796  10.532   8.508 -0.3433  0.1219 -0.0699
 1010MOL0     C39274   7.785  10.420   8.582  0.2605  0.4380  0.6673
 1010MOL0     C39275   7.803  10.404   8.723  0.8337 -0.2219 -0.5053
 1010MOL0     C39276   7.794  10.280   8.785 -0.7065  0.8633 -1.5947
 1010MOL0     C39277   7.779  10.164   8.709  0.7740  0.6770 -0.1913
 1010MOL0     O39278   7.755  10.045   8.747  0.2692 -0.2562 -0.4611
 1010MOL0     C39279   7.693  10.041   8.882 -0.0824  0.6142 -0.7990
 1010MOL0     C39280   7.620   9.906   8.898 -0.3355 -0.6687 -0.0282
 1010MOL0     C39281   7.528   9.888   8.785 -0.1292  0.4197  0.2112
 1010MOL0     C39282   7.415   9.783   8.826  0.7753  0.1422  0.0126
 1010MOL0     C39283   7.323   9.789   8.701  0.2029 -0.1345 -0.6109
 1010MOL0     C39284   7.194   9.708   8.733 -0.9844 -0.1090 -0.7332
 1010MOL0     C39285   7.112   9.680   8.608  0.8101 -0.9617  0.1154
 1010MOL0     C39286   7.037   9.538   8.612  0.2489 -0.0563 -0.3375
 1010MOL0    Cl39287   7.034   9.442   8.458 -0.3014  0.5204 -0.1344
 1010MOL0     C39288   7.779  10.178   8.570  0.8187 -0.0616  0.2892
 1010MOL0     C39289   7.778  10.301   8.506  0.1713  0.0382  1.0151
 1010MOL0     O39290   7.634  10.647   8.626  0.4786  0.6995 -0.2494
 1010MOL0     C39291   7.824  10.781   8.357  0.3154  0.5769  0.3941
 1010MOL0     C39292   7.824  10.876   8.259  0.9954 -0.1169  0.7559
 1010MOL0     N39293   7.811  11.065   7.470 -0.0488  0.0795 -0.2468
 1010MOL0     N39294   7.808  11.047   7.343 -1.0149 -0.9074  0.0078
 1010MOL0     C39295   8.648  10.503   6.834 -0.1710 -0.0110  0.4858
 1010MOL0     C39296   8.715  10.423   6.739 -0.0369  0.7367  0.4745
 1010MOL0     C39297   8.894  10.296   6.330 -0.6680  0.2295 -0.4407
 1010MOL0     C39298   9.031  10.306   6.277  0.4220  0.7022  0.0109
 1010MOL0     C39299   9.077  10.228   6.168  0.5495  0.2450  0.2944
 1010MOL0     C39300   8.992  10.126   6.121 -0.6106  0.1161 -1.6050
 1010MOL0     O39301   9.037  10.033   6.032 -0.9436  0.5539  0.7343
 1010MOL0     C39302   9.133  10.064   5.928 -0.0211 -0.8678 -0.0070
 1010MOL0     C39303   9.282  10.028   5.950 -0.3883 -0.2180  0.2824
 1010MOL0     C39304   9.330   9.909   5.873  0.4765 -0.1076 -0.2956
 1010MOL0     C39305   9.479   9.858   5.886  0.3802 -0.3707  0.3862
 1010MOL0     C39306   9.577   9.925   5.799  0.9705  0.5539  0.1371
 1010MOL0     C39307   9.647   9.981   5.716 -0.6528 -0.0533 -0.6715
 1010MOL0     C39308   8.872  10.100   6.180 -0.6051 -0.1928  0.7839
 1010MOL0     C39309   8.824  10.178   6.291 -0.4200 -0.4782  0.7533
 1010MOL0     C39310   8.701  10.133   6.365  0.3435  0.6333  0.0419
 1010MOL0     H39311   8.623  10.605   6.464 -1.7984  1.0350 -0.2974
 1010MOL0     H39312   8.516  10.727   6.616  1.3147 -0.2811 -1.2426
 1010MOL0     H39313   8.622  10.679   7.071 -0.2519  2.5680  0.3544
 1010MOL0     H39314   8.486  10.571   7.037 -3.5603  0.9622  0.3704
 1010MOL0     H39315   8.459  10.763   7.208 -0.4653  0.2404  0.3360
 1010MOL0     H39316   8.472  10.874   7.079  0.4748  1.0351  2.9647
 1010MOL0     H39317   8.288  10.763   6.949  1.4486 -3.2646 -0.0764
 1010MOL0     H39318   8.248  10.662   7.081 -3.9535  0.9605 -1.2422
 1010MOL0     H39319   8.177  10.845   7.221 -2.1569  0.8469 -0.1012
 1010MOL0     H39320   8.263  10.961   7.118 -1.6366  0.3937 -1.1971
 1010MOL0     H39321   8.104  10.958   6.947 -0.0094  0.5822  0.9890
 1010MOL0     H39322   8.013  10.976   7.096 -0.5193  0.3335 -0.0816
 1010MOL0     H39323   7.905  10.839   6.937 -0.7379  2.3610  2.2904
 1010MOL0     H39324   8.028  10.709   6.967 -0.4731 -0.8540  0.5290
 1010MOL0     H39325   7.984  10.756   7.217  1.8864 -0.7878 -1.7564
 1010MOL0     H39326   7.862  10.664   7.133 -3.0691  1.5833 -2.5468
 1010MOL0     H39327   7.797  10.946   7.115 -1.8769 -0.8379 -1.0694
 1010MOL0     H39328   7.704  10.800   7.159 -0.3981  0.7041 -0.9747
 1010MOL0     H39329   7.796  10.736   7.447 -3.1203  0.5108 -1.8841
 1010MOL0     H39330   7.948  10.972   7.695  1.0748 -1.5165  1.1549
 1010MOL0     H39331   7.881  10.811   7.697  1.7666 -0.3320 -1.2746
 1010MOL0     H39332   7.709  11.061   7.724  0.6214 -1.0622 -1.7888
 1010MOL0     H39333   7.644  10.898   7.732 -1.6890  2.7999  0.3939
 1010MOL0     H39334   7.744  10.840   7.934 -0.2664 -0.3883  2.8832
 1010MOL0     H39335   7.867  10.971   7.934 -0.6639  3.1870 -1.7543
 1010MOL0     H39336   7.639  11.116   7.943  0.3140  1.1548  0.7821
 1010MOL0     H39337   7.580  10.961   8.012  0.5551 -0.0215  2.6308
 1010MOL0     H39338   7.500  10.975   8.261  1.0744  0.3329  1.7501
 1010MOL0     H39339   7.445  10.812   8.540  1.6011  0.6520 -0.1662
 1010MOL0     H39340   7.411  10.680   8.409 -4.6032  1.5458  0.4495
 1010MOL0     H39341   7.376  10.846   8.390 -0.1569 -1.6074 -2.5401
 1010MOL0     H39342   7.827  10.483   8.793  1.2058 -1.2751  0.5845
 1010MOL0     H39343   7.793  10.274   8.893  0.2273 -0.7485 -1.6501
 1010MOL0     H39344   7.773  10.054   8.956 -0.7313  2.4175 -0.3633
 1010MOL0     H39345   7.621  10.121   8.904 -3.2704 -1.9825 -0.9952
 1010MOL0     H39346   7.697   9.831   8.917  1.6029  0.9929 -0.9685
 1010MOL0     H39347   7.565   9.900   8.992  0.2575  0.5972  0.4199
 1010MOL0     H39348   7.583   9.854   8.696  1.6744  1.0352  1.0489
 1010MOL0     H39349   7.482   9.983   8.756 -0.6956 -0.1528 -0.8258
 1010MOL0     H39350   7.362   9.804   8.919 -0.5924  0.1494 -0.7500
 1010MOL0     H39351   7.466   9.687   8.840  3.4426  1.6800  1.8974
 1010MOL0     H39352   7.290   9.893   8.690  0.5547 -0.0812 -1.2166
 1010MOL0     H39353   7.363   9.755   8.605 -1.7790 -1.1486 -1.1276
 1010MOL0     H39354   7.143   9.772   8.806  0.5795  1.0658 -0.6159
 1010MOL0     H39355   7.210   9.616   8.789 -3.9359  1.1634  2.5814
 1010MOL0     H39356   7.171   9.686   8.517  2.5191  2.2802  1.2675
 1010MOL0     H39357   7.031   9.753   8.614  1.8055  0.1876 -0.1604
 1010MOL0     H39358   6.934   9.560   8.642  0.2051  0.0575 -0.5663
 1010MOL0     H39359   7.084   9.469   8.682 -1.3835  1.6927  2.6618
 1010MOL0     H39360   7.757  10.090   8.510  0.7814 -1.7718  2.6372
 1010MOL0     H39361   7.767  10.300   8.398  2.6986 -1.9915  0.6884
 1010MOL0     H39362   7.917  10.732   8.383 -0.9879 -1.9940  0.5926
 1010MOL0     H39363   7.909  10.923   8.210 -0.5081  3.6152  1.3425
 1010MOL0     H39364   8.665  10.483   6.940  1.1303 -1.8062 -0.0041
 1010MOL0     H39365   8.769  10.339   6.780 -1.6675 -0.0454  1.1019
 1010MOL0     H39366   9.101  10.380   6.314  2.0548 -0.3063 -0.9514
 1010MOL0     H39367   9.181  10.232   6.134  0.8509 -0.8992  1.0197
 1010MOL0     H39368   9.092  10.026   5.834  1.9916 -1.1372 -0.8219
 1010MOL0     H39369   9.128  10.173   5.922 -0.4685 -0.8509  0.5278
 1010MOL0     H39370   9.292   9.998   6.055 -0.0195 -0.6572  0.1228
 1010MOL0     H39371   9.348  10.112   5.927 -0.5034  0.1226  1.1718
 1010MOL0     H39372   9.268   9.826   5.911  1.8368 -0.0003  2.3568
 1010MOL0     H39373   9.313   9.928   5.766  2.3818  0.7064 -0.4917
 1010MOL0     H39374   9.485   9.755   5.851 -0.6517 -0.1485 -0.4823
 1010MOL0     H39375   9.510   9.857   5.992 -0.3048  2.4637  0.6946
 1010MOL0     H39376   9.716  10.013   5.640 -1.3134 -3.5553 -2.9992
 1010MOL0     H39377   8.815  10.011   6.154 -0.7370  0.6987 -2.4919
 1010MOL0     H39378   8.729  10.130   6.471  1.5785  1.9285 -0.2175
 1010MOL0     H39379   8.615  10.201   6.361 -0.5203 -0.4187  0.3821
 1010MOL0     H39380   8.675  10.033   6.329 -0.1058  1.4869 -2.1996
 1011MOL0     O39381   9.011   8.409   9.224  0.4457  0.1614 -0.2265
 1011MOL0     C39382   8.956   8.403   9.113 -0.3089  0.3093  0.1713
 1011MOL0     O39383   9.015   8.364   8.988  0.1686  0.4400 -0.2641
 1011MOL0     C39384   9.153   8.339   8.998 -0.2166 -0.1594 -0.9321
 1011MOL0     C39385   9.201   8.214   8.986  0.4707 -0.6817  0.2813
 1011MOL0     C39386   9.333   8.194   8.987 -0.9790  0.0789 -0.1743
 1011MOL0     C39387   9.433   8.293   9.012  0.2031 -0.7628 -0.2786
 1011MOL0     O39388   9.569   8.271   9.036  0.8713  0.4822 -0.2520
 1011MOL0     C39389   9.632   8.234   8.912  0.1921  0.0777  0.1445
 1011MOL0     C39390   9.780   8.247   8.943  0.3358  0.1715  0.0316
 1011MOL0     C39391   9.858   8.253   8.818  0.8891  0.3221 -0.2383
 1011MOL0     C39392   9.901   8.095   8.779 -0.1391  0.5689 -0.0189
 1011MOL0     C39393   9.946   8.088   8.635  0.7850 -0.7949 -0.1257
 1011MOL0     C39394  10.000   7.944   8.609  0.0572  0.4274  0.1730
 1011MOL0     C39395   9.888   7.830   8.610 -0.6983 -0.0356 -0.5049
 1011MOL0     C39396   9.949   7.696   8.577  0.1295  0.4738  0.1755
 1011MOL0     N39397  10.038   7.667   8.687 -0.8238 -0.1019 -0.6162
 1011MOL0     C39398  10.177   7.670   8.680  0.7057  0.0458 -0.2339
 1011MOL0     C39399  10.214   7.646   8.805  0.0389 -0.7955  0.1608
 1011MOL0     C39400  10.369   7.627   8.843  0.3785  1.1220  0.2295
 1011MOL0     C39401  10.435   7.504   8.783  0.2692  0.1678  0.1070
 1011MOL0     C39402  10.486   7.516   8.643  0.0176 -0.0558 -0.1894
 1011MOL0     C39403  10.559   7.389   8.605 -0.4089 -0.1230 -0.2098
 1011MOL0     O39404  10.632   7.402   8.484  0.1910  1.3787 -0.1598
 1011MOL0     C39405  10.673   7.298   8.416 -0.2380 -0.0718 -0.1891
 1011MOL0     C39406  10.752   7.323   8.300  0.3592  0.4608 -0.0467
 1011MOL0     C39407  10.819   7.225   8.223 -0.6642 -0.5258  0.6786
 1011MOL0     C39408  10.894   7.278   8.096  0.6734 -0.1069  0.0126
 1011MOL0     C39409  10.818   7.089   8.266 -0.0140 -0.9021 -0.3886
 1011MOL0     C39410  10.890   6.977   8.201  0.3073 -0.6877  0.3394
 1011MOL0     O39411  10.904   6.985   8.066 -0.0959  0.0430 -0.0438
 1011MOL0     C39412  10.971   6.890   7.992 -0.7804 -0.6716 -0.0764
 1011MOL0     C39413  11.105   6.880   7.973 -0.1147  0.6499 -1.0180
 1011MOL0     C39414  11.163   6.783   7.897 -0.6348 -0.5755  0.8177
 1011MOL0     C39415  11.084   6.700   7.812  0.6767  0.0436 -0.7688
 1011MOL0     O39416  11.131   6.608   7.716 -0.4956 -0.6247 -0.2151
 1011MOL0     C39417  11.264   6.628   7.659  0.1859 -0.4094  1.0722
 1011MOL0     C39418  11.360   6.536   7.734 -0.5632 -0.9398  0.7196
 1011MOL0     C39419  11.516   6.565   7.702  0.1496  0.5386  0.5652
 1011MOL0     C39420  11.560   6.714   7.735  0.0550 -0.7751 -0.0125
 1011MOL0     C39421  11.710   6.740   7.718  0.1369 -0.0134  0.2887
 1011MOL0     C39422  11.751   6.868   7.786 -0.2482  0.4377  0.6599
 1011MOL0     C39423  11.899   6.884   7.793  0.3600  0.4309 -0.5852
 1011MOL0     C39424  11.959   6.951   7.665  0.4408  0.2896 -0.2257
 1011MOL0    Cl39425  11.900   7.114   7.649  0.3587 -0.0016  0.2204
 1011MOL0     C39426  10.939   6.733   7.807 -0.2631  0.3249  0.6998
 1011MOL0     C39427  10.887   6.817   7.906 -0.4928 -0.4782  0.3042
 1011MOL0     O39428  10.935   6.882   8.261  0.2241  0.2460 -0.7531
 1011MOL0     C39429  10.746   7.061   8.389  0.7475  0.1458  0.2352
 1011MOL0     C39430  10.679   7.163   8.461 -0.1540  0.3659  0.1693
 1011MOL0     N39431  10.105   7.652   8.889  0.7608 -0.8966  0.2155
 1011MOL0     N39432   9.996   7.657   8.823 -0.9069  0.7601 -0.6489
 1011MOL0     C39433   9.383   8.424   9.040  0.1882 -1.5493  0.3924
 1011MOL0     C39434   9.240   8.452   9.025 -0.3041  0.5695 -0.3082
 1011MOL0     C39435   8.822   8.458   9.092 -0.2337 -0.4450 -0.9890
 1011MOL0     C39436   8.718   8.364   9.106  0.2243  0.3810  0.0882
 1011MOL0     C39437   8.584   8.399   9.073 -0.4335 -0.0524 -0.4419
 1011MOL0     C39438   8.558   8.511   9.003 -0.2882 -0.1925 -0.2423
 1011MOL0     O39439   8.428   8.540   8.956  0.5858 -0.2549  0.7184
 1011MOL0     C39440   8.312   8.488   9.035  0.2216 -0.3354  0.7369
 1011MOL0     C39441   8.181   8.550   8.991  0.7096  0.8042 -1.1528
 1011MOL0     C39442   8.194   8.701   8.972  0.2333  0.5979  0.7628
 1011MOL0     C39443   8.062   8.774   8.988  1.5451 -0.4396  0.5196
 1011MOL0     C39444   8.081   8.903   8.914  0.8591  0.6251  0.4889
 1011MOL0     C39445   8.103   9.004   8.849  0.2225  0.8987  0.1307
 1011MOL0     C39446   8.665   8.598   8.990 -0.6372 -0.0322  0.0032
 1011MOL0     C39447   8.791   8.577   9.027 -0.1256  0.8478 -0.3162
 1011MOL0     C39448   8.891   8.679   8.988  0.0927  0.5179 -0.2405
 1011MOL0     H39449   9.130   8.135   8.963 -2.2688  2.0850 -1.7987
 1011MOL0     H39450   9.374   8.094   8.981 -1.7851 -0.4110  1.8224
 1011MOL0     H39451   9.596   8.301   8.833 -1.0490  0.4495  0.9912
 1011MOL0     H39452   9.612   8.136   8.868 -1.4268 -0.8749  2.7883
 1011MOL0     H39453   9.793   8.344   8.991  1.4387 -0.5358  1.2320
 1011MOL0     H39454   9.812   8.178   9.022  2.3323 -0.6230 -1.3983
 1011MOL0     H39455   9.808   8.303   8.734  1.1817  1.2425  0.1223
 1011MOL0     H39456   9.940   8.326   8.820  1.3901 -0.1393 -2.1579
 1011MOL0     H39457   9.987   8.063   8.838  0.1828  1.1611 -0.1592
 1011MOL0     H39458   9.816   8.026   8.779  2.4600 -2.8749 -0.6648
 1011MOL0     H39459  10.017   8.168   8.613  0.1552 -0.3862 -0.6886
 1011MOL0     H39460   9.860   8.107   8.571  1.8288  2.2046 -0.7917
 1011MOL0     H39461  10.037   7.945   8.506 -1.3352 -3.2549 -0.5208
 1011MOL0     H39462  10.079   7.915   8.680  1.4228  2.0606 -0.6258
 1011MOL0     H39463   9.817   7.847   8.528 -0.3042 -1.3568 -1.1318
 1011MOL0     H39464   9.843   7.839   8.710  1.8405  2.9288  0.5297
 1011MOL0     H39465   9.865   7.626   8.575  0.7106 -0.2438  0.3667
 1011MOL0     H39466  10.010   7.702   8.486 -0.2167 -0.9926 -0.1781
 1011MOL0     H39467  10.239   7.673   8.592  1.8037 -1.1203  0.4731
 1011MOL0     H39468  10.366   7.614   8.951  1.8476 -0.7590  0.0978
 1011MOL0     H39469  10.432   7.715   8.825 -0.9146  1.8409 -1.0205
 1011MOL0     H39470  10.528   7.471   8.829  2.1224 -0.2656 -3.6696
 1011MOL0     H39471  10.355   7.430   8.793 -0.3211  0.5281 -1.6257
 1011MOL0     H39472  10.406   7.512   8.568  0.9186  0.7056 -1.2319
 1011MOL0     H39473  10.541   7.610   8.631 -1.7388  1.5599  3.0340
 1011MOL0     H39474  10.627   7.368   8.688 -1.2550  1.9591  1.1046
 1011MOL0     H39475  10.484   7.310   8.595 -3.9637  2.9668 -0.3759
 1011MOL0     H39476  10.746   7.428   8.274 -0.4954  1.6654  4.2288
 1011MOL0     H39477  10.853   7.237   8.003 -4.0752 -0.4631  2.0110
 1011MOL0     H39478  10.995   7.235   8.095  1.9527  2.5307 -3.1442
 1011MOL0     H39479  10.911   7.385   8.080  0.7687 -0.0792  0.2967
 1011MOL0     H39480  11.182   6.927   8.035 -0.8740 -1.7724  1.9967
 1011MOL0     H39481  11.269   6.759   7.903 -0.0693  0.1012 -3.3748
 1011MOL0     H39482  11.263   6.592   7.556 -0.0494  0.0369  0.9221
 1011MOL0     H39483  11.291   6.734   7.653  1.4131 -0.7720 -1.1130
 1011MOL0     H39484  11.350   6.546   7.842  0.3192  1.2965  0.6534
 1011MOL0     H39485  11.325   6.434   7.717 -3.2274  0.1334 -0.8140
 1011MOL0     H39486  11.552   6.537   7.602 -0.7204 -0.6081  0.5542
 1011MOL0     H39487  11.583   6.513   7.771 -0.3289  1.1154  1.4915
 1011MOL0     H39488  11.528   6.741   7.836 -0.8546  1.0097 -0.7428
 1011MOL0     H39489  11.508   6.790   7.675 -0.1442 -0.0635  1.0381
 1011MOL0     H39490  11.763   6.651   7.752 -0.9815 -0.9896 -0.4318
 1011MOL0     H39491  11.726   6.749   7.610 -1.8392  3.6059  0.1344
 1011MOL0     H39492  11.720   6.853   7.890  0.4264  2.7071  1.2514
 1011MOL0     H39493  11.704   6.956   7.741 -2.9646 -1.2549 -0.1062
 1011MOL0     H39494  11.937   6.783   7.807 -0.2107  0.2807 -0.0726
 1011MOL0     H39495  11.927   6.949   7.876 -0.3713 -1.2746  1.0656
 1011MOL0     H39496  11.935   6.899   7.572  1.5120 -0.0421 -0.3370
 1011MOL0     H39497  12.068   6.949   7.673  0.5255  2.1965 -0.2889
 1011MOL0     H39498  10.885   6.679   7.730 -0.5643  1.9066 -0.2203
 1011MOL0     H39499  10.781   6.841   7.918 -0.1844  1.1976 -0.0096
 1011MOL0     H39500  10.751   6.969   8.446  1.3665 -2.1921 -3.2391
 1011MOL0     H39501  10.632   7.141   8.556  0.9572 -1.0997  0.4221
 1011MOL0     H39502   9.460   8.495   9.069 -0.0760 -0.2108 -1.9454
 1011MOL0     H39503   9.196   8.551   9.024  1.3665  1.4105  1.9218
 1011MOL0     H39504   8.740   8.261   9.133 -3.1565 -0.6322 -0.6114
 1011MOL0     H39505   8.507   8.325   9.091 -0.2963  0.3336  1.9869
 1011MOL0     H39506   8.311   8.379   9.029  2.0766 -0.3089 -1.1217
 1011MOL0     H39507   8.336   8.500   9.141 -3.3087 -0.2652  1.6365
 1011MOL0     H39508   8.113   8.531   9.074  0.6672  0.7379 -1.2031
 1011MOL0     H39509   8.146   8.514   8.894 -1.3670 -0.6477  0.0519
 1011MOL0     H39510   8.256   8.734   9.056  1.9030  1.7121 -0.8273
 1011MOL0     H39511   8.236   8.717   8.872  1.3909  2.4967  1.4997
 1011MOL0     H39512   8.040   8.782   9.094  5.1944 -0.9386  1.4482
 1011MOL0     H39513   7.972   8.728   8.946  2.5863  0.6520 -3.3888
 1011MOL0     H39514   8.115   9.091   8.789 -0.5912  1.1305  0.2951
 1011MOL0     H39515   8.647   8.695   8.945  2.1781 -2.0062 -6.6670
 1011MOL0     H39516   8.937   8.726   9.075 -1.8768  4.1019 -0.9474
 1011MOL0     H39517   8.979   8.648   8.931  2.1136  1.8418  1.9811
 1011MOL0     H39518   8.852   8.758   8.923  1.4412 -0.6915 -2.6639
 1012MOL0     O39519  11.516   1.023   7.171  0.2349  0.3546 -0.2963
 1012MOL0     C39520  11.593   0.970   7.254  0.5440  0.1719 -0.0908
 1012MOL0     O39521  11.652   0.847   7.245  0.0391 -0.2049  1.0696
 1012MOL0     C39522  11.616   0.731   7.176 -0.1763 -0.3501  0.0916
 1012MOL0     C39523  11.501   0.727   7.084  0.0442  0.3997  0.1190
 1012MOL0     C39524  11.479   0.610   7.015  0.7765  0.1170  0.5529
 1012MOL0     C39525  11.557   0.499   7.030  1.0059 -0.2674  0.1867
 1012MOL0     O39526  11.517   0.397   6.950 -0.1385  0.3815  1.4119
 1012MOL0     C39527  11.619   0.305   6.895 -0.8022  0.0914 -0.0974
 1012MOL0     C39528  11.568   0.221   6.781  0.9378  0.1084 -0.1557
 1012MOL0     C39529  11.537   0.319   6.669 -0.0884 -0.7386 -0.7205
 1012MOL0     C39530  11.653   0.406   6.615  0.4727  0.3265  0.4012
 1012MOL0     C39531  11.622   0.435   6.462 -0.0886 -0.4295 -0.1852
 1012MOL0     C39532  11.668   0.319   6.379  0.0397  0.5214 -0.8051
 1012MOL0     C39533  11.820   0.327   6.354  0.3193  0.1043  0.0745
 1012MOL0     C39534  11.894   0.206   6.293  0.3542 -0.3314 -0.2127
 1012MOL0     N39535  12.042   0.197   6.311 -0.6028 -0.1902 -0.1929
 1012MOL0     C39536  12.136   0.296   6.353 -0.2671  0.2329  1.3570
 1012MOL0     C39537  12.239   0.227   6.392 -0.4909 -0.2863  0.2271
 1012MOL0     C39538  12.375   0.283   6.427 -0.6741 -0.8830  1.1365
 1012MOL0     C39539  12.396   0.343   6.568 -0.5479 -0.3800 -0.2204
 1012MOL0     C39540  12.349   0.229   6.663  0.1306 -0.1219  0.3279
 1012MOL0     C39541  12.349   0.271   6.812 -0.8830 -0.7490 -0.3267
 1012MOL0     O39542  12.473   0.313   6.857 -0.0475  0.5588 -0.5421
 1012MOL0     C39543  12.471   0.357   6.992  0.7445 -0.3361 -0.8839
 1012MOL0     C39544  12.363   0.371   7.079 -0.2659 -0.7818  0.6583
 1012MOL0     C39545  12.367   0.438   7.197 -1.1404 -0.0369 -0.1597
 1012MOL0     C39546  12.240   0.465   7.279 -0.7162  0.0011  0.3125
 1012MOL0     C39547  12.499   0.482   7.248 -0.0152  1.0799 -0.4458
 1012MOL0     C39548  12.517   0.542   7.387  0.6416 -1.4944  0.2631
 1012MOL0     O39549  12.597   0.471   7.473 -0.1432 -0.6100 -0.1476
 1012MOL0     C39550  12.614   0.517   7.599  0.5580  0.0229  0.1858
 1012MOL0     C39551  12.616   0.422   7.695 -0.0632  0.5177 -0.4206
 1012MOL0     C39552  12.642   0.452   7.829 -0.3888 -0.1021 -0.8618
 1012MOL0     C39553  12.651   0.585   7.878 -0.0760 -0.2292  1.0603
 1012MOL0     O39554  12.664   0.618   8.014  0.0890  0.4687  0.2136
 1012MOL0     C39555  12.667   0.757   8.051 -1.2714 -0.1914 -0.4057
 1012MOL0     C39556  12.698   0.786   8.197  0.3614 -0.2372  0.4566
 1012MOL0     C39557  12.693   0.931   8.220 -0.4362  0.8906  0.4919
 1012MOL0     C39558  12.754   0.976   8.358 -0.1938 -0.1381 -0.4187
 1012MOL0     C39559  12.755   1.131   8.383 -0.3024  0.3523  0.8075
 1012MOL0     C39560  12.847   1.161   8.502 -0.2285 -0.0830 -0.7317
 1012MOL0     C39561  12.761   1.140   8.638  0.2306 -0.2498 -0.4430
 1012MOL0     C39562  12.846   1.165   8.763  0.0347 -0.6368 -0.0290
 1012MOL0    Cl39563  12.873   1.333   8.783 -0.2533  0.2241 -0.5100
 1012MOL0     C39564  12.626   0.680   7.782 -0.0982 -1.1127  0.4732
 1012MOL0     C39565  12.617   0.656   7.646  0.4227 -0.2308  0.4254
 1012MOL0     O39566  12.459   0.646   7.413  0.3112 -0.3333 -0.8841
 1012MOL0     C39567  12.611   0.439   7.167 -0.2006 -0.5555  0.0978
 1012MOL0     C39568  12.592   0.391   7.039  0.7146 -0.0506 -0.9409
 1012MOL0     N39569  12.217   0.088   6.382 -0.4779 -0.2295  0.5579
 1012MOL0     N39570  12.104   0.079   6.317  1.0016  0.6699  0.0922
 1012MOL0     C39571  11.656   0.496   7.127  0.1590 -0.5675 -0.6481
 1012MOL0     C39572  11.680   0.608   7.207 -0.0240 -0.3202  1.0509
 1012MOL0     C39573  11.631   1.039   7.376 -0.1457  0.7323 -0.0544
 1012MOL0     C39574  11.649   0.957   7.490  0.4143 -0.2880 -0.3610
 1012MOL0     C39575  11.682   1.025   7.611 -0.5385  1.0981  0.9355
 1012MOL0     C39576  11.706   1.162   7.612  0.0281 -0.5343  0.1837
 1012MOL0     O39577  11.700   1.236   7.729  0.5451  0.0898 -0.0909
 1012MOL0     C39578  11.689   1.152   7.854 -0.6451 -0.1396 -0.4858
 1012MOL0     C39579  11.659   1.247   7.971 -0.1114 -1.1422 -0.1151
 1012MOL0     C39580  11.506   1.297   7.949 -0.3534 -0.0638 -0.5853
 1012MOL0     C39581  11.468   1.406   8.047 -0.0977 -0.2679  1.0015
 1012MOL0     C39582  11.475   1.356   8.184  0.1689 -1.2966  0.2258
 1012MOL0     C39583  11.479   1.310   8.292  0.8627 -0.0007 -0.2848
 1012MOL0     C39584  11.706   1.232   7.493 -0.1373 -1.1991  0.0075
 1012MOL0     C39585  11.667   1.179   7.374  1.1543  0.2351  0.3257
 1012MOL0     C39586  11.656   1.269   7.248 -0.0819  0.1515 -0.4897
 1012MOL0     H39587  11.429   0.806   7.061  2.7544  2.5202 -1.8157
 1012MOL0     H39588  11.389   0.613   6.955  0.5305  1.0759  0.9431
 1012MOL0     H39589  11.639   0.226   6.968 -1.8244 -2.2486 -2.2115
 1012MOL0     H39590  11.701   0.371   6.866 -1.9308  0.2423 -3.2699
 1012MOL0     H39591  11.637   0.147   6.737  0.1860  1.3257 -3.7512
 1012MOL0     H39592  11.478   0.163   6.801 -0.0644  1.1592 -1.4110
 1012MOL0     H39593  11.504   0.251   6.590 -2.9908 -1.9892  1.3810
 1012MOL0     H39594  11.443   0.372   6.686 -0.2609 -0.3870 -2.5462
 1012MOL0     H39595  11.670   0.502   6.664 -1.4135  0.5510  0.6954
 1012MOL0     H39596  11.743   0.348   6.632 -0.6354 -1.0672  1.8137
 1012MOL0     H39597  11.679   0.527   6.450  0.0393 -0.1800  1.8954
 1012MOL0     H39598  11.519   0.451   6.432  0.2005  0.3439 -0.7958
 1012MOL0     H39599  11.640   0.224   6.425  2.8976 -0.3591 -0.6401
 1012MOL0     H39600  11.612   0.327   6.285 -2.4292  1.6388  0.6783
 1012MOL0     H39601  11.862   0.355   6.451 -0.5631 -1.4097  0.9310
 1012MOL0     H39602  11.838   0.412   6.288 -0.5370 -0.7872 -1.3349
 1012MOL0     H39603  11.841   0.118   6.333 -1.0495  0.9099  0.7867
 1012MOL0     H39604  11.870   0.201   6.186  0.7173  1.9525 -0.4428
 1012MOL0     H39605  12.110   0.401   6.366 -3.6078 -0.1198 -1.1991
 1012MOL0     H39606  12.403   0.363   6.357  0.3302 -1.9087  0.3152
 1012MOL0     H39607  12.452   0.207   6.409 -1.7174 -1.6317 -0.4436
 1012MOL0     H39608  12.500   0.371   6.588 -0.4390 -0.7162 -0.3007
 1012MOL0     H39609  12.340   0.436   6.574  0.5529  0.4426 -2.0211
 1012MOL0     H39610  12.250   0.205   6.623 -0.3552  1.1934  0.6861
 1012MOL0     H39611  12.416   0.144   6.647  0.1143  0.0036 -0.4573
 1012MOL0     H39612  12.287   0.361   6.817  0.2618  0.0142  0.4622
 1012MOL0     H39613  12.309   0.192   6.876 -1.8323  1.3265  1.8162
 1012MOL0     H39614  12.264   0.340   7.046 -0.5194  0.5197  0.1579
 1012MOL0     H39615  12.175   0.378   7.270 -0.7773 -0.1041  1.5545
 1012MOL0     H39616  12.195   0.564   7.263 -0.7374  0.6228  3.4607
 1012MOL0     H39617  12.257   0.466   7.387 -0.5332  2.4456  0.3120
 1012MOL0     H39618  12.601   0.316   7.674 -2.4738  0.9150 -1.0526
 1012MOL0     H39619  12.664   0.378   7.904 -1.6508  1.8026  1.5411
 1012MOL0     H39620  12.738   0.812   7.989 -0.1331  0.5779  1.4942
 1012MOL0     H39621  12.567   0.800   8.039 -2.1077 -2.0083 -0.2971
 1012MOL0     H39622  12.628   0.722   8.252 -0.9201 -1.8834 -2.8229
 1012MOL0     H39623  12.802   0.754   8.209  0.9896  1.4922 -0.1637
 1012MOL0     H39624  12.586   0.953   8.221 -0.5856  0.1961  0.1472
 1012MOL0     H39625  12.745   0.996   8.149  0.3756  0.0165  0.2669
 1012MOL0     H39626  12.849   0.928   8.381  0.1984  1.9156  3.0025
 1012MOL0     H39627  12.675   0.947   8.428 -1.7583  2.4289 -0.9742
 1012MOL0     H39628  12.801   1.184   8.299  0.1553 -2.3181 -0.7212
 1012MOL0     H39629  12.653   1.168   8.397 -0.7356 -1.2966  2.3203
 1012MOL0     H39630  12.877   1.264   8.480  3.2496 -1.8361 -6.4765
 1012MOL0     H39631  12.941   1.105   8.502  0.6374  1.3142  0.2787
 1012MOL0     H39632  12.729   1.035   8.641 -2.3013  0.4751  1.2279
 1012MOL0     H39633  12.671   1.203   8.640  2.4094  3.1028  0.0620
 1012MOL0     H39634  12.941   1.111   8.760  1.0286  0.9079  1.7459
 1012MOL0     H39635  12.799   1.125   8.853  2.1765 -1.9807  0.5474
 1012MOL0     H39636  12.607   0.783   7.811  2.8611 -1.2175  3.3098
 1012MOL0     H39637  12.626   0.742   7.580  1.6424  1.2371  2.4053
 1012MOL0     H39638  12.714   0.450   7.199 -0.7793  2.2389  1.3385
 1012MOL0     H39639  12.678   0.372   6.976  0.6601  2.7254 -1.9892
 1012MOL0     H39640  11.729   0.416   7.134  1.9289  1.1157  1.5027
 1012MOL0     H39641  11.744   0.620   7.294 -2.0558  4.4575  2.2395
 1012MOL0     H39642  11.640   0.849   7.492  1.0340 -0.3403  1.4873
 1012MOL0     H39643  11.682   0.953   7.692  0.8201  0.7353  0.6365
 1012MOL0     H39644  11.608   1.081   7.838  1.1554 -2.8455  1.4944
 1012MOL0     H39645  11.771   1.082   7.870 -1.7673 -1.5663 -0.7011
 1012MOL0     H39646  11.729   1.330   7.978 -0.0684 -1.2886  1.7771
 1012MOL0     H39647  11.672   1.183   8.059  2.2087 -0.6483 -0.0408
 1012MOL0     H39648  11.490   1.329   7.845 -1.4127  0.0738 -0.3929
 1012MOL0     H39649  11.435   1.216   7.962 -1.5940  1.3479  2.3995
 1012MOL0     H39650  11.367   1.442   8.023  0.8163  0.8644 -1.4714
 1012MOL0     H39651  11.539   1.484   8.019 -0.0058 -1.3750 -2.2579
 1012MOL0     H39652  11.487   1.263   8.388 -2.1508 -2.2234 -0.9433
 1012MOL0     H39653  11.716   1.339   7.508  1.3352 -1.4000  0.6228
 1012MOL0     H39654  11.676   1.373   7.277 -0.9952 -0.2691  1.8679
 1012MOL0     H39655  11.729   1.246   7.170 -0.8636  2.9338 -2.1854
 1012MOL0     H39656  11.554   1.270   7.208 -1.0001 -0.5592  1.7015
 1013MOL0     O39657   8.839   2.830   8.605  0.0917 -0.4536  0.5690
 1013MOL0     C39658   8.960   2.807   8.591 -0.2479  0.5156 -0.5012
 1013MOL0     O39659   9.016   2.715   8.513  0.4462  0.0672 -0.5925
 1013MOL0     C39660   8.930   2.620   8.459 -0.0086  0.5323  0.2974
 1013MOL0     C39661   8.818   2.654   8.386  0.8934 -0.2366  0.6401
 1013MOL0     C39662   8.762   2.550   8.309  0.6015 -0.0463 -0.6926
 1013MOL0     C39663   8.791   2.417   8.329 -0.0745  0.5444 -0.5959
 1013MOL0     O39664   8.723   2.318   8.255 -0.3177 -0.2570 -0.3858
 1013MOL0     C39665   8.729   2.180   8.299  0.6014  0.1489 -0.2809
 1013MOL0     C39666   8.653   2.087   8.204 -0.4447  0.1729 -0.4324
 1013MOL0     C39667   8.640   1.938   8.245  0.7066  1.0527  0.2639
 1013MOL0     C39668   8.772   1.855   8.264 -0.0531 -0.6232 -0.4537
 1013MOL0     C39669   8.863   1.863   8.135 -0.1074 -0.0284 -0.0265
 1013MOL0     C39670   8.786   1.837   8.003  0.6380  0.3546 -0.3468
 1013MOL0     C39671   8.885   1.853   7.880 -0.9149  0.4557  0.1226
 1013MOL0     C39672   8.997   1.747   7.876 -0.0003 -0.1512 -0.7164
 1013MOL0     N39673   8.952   1.614   7.919 -0.6580 -1.0061  0.1427
 1013MOL0     C39674   8.992   1.544   8.033 -0.1291  0.3085  0.2164
 1013MOL0     C39675   8.910   1.437   8.019 -0.2309 -0.4121  0.1366
 1013MOL0     C39676   8.914   1.319   8.122 -0.3132  0.9452 -0.6879
 1013MOL0     C39677   8.772   1.263   8.145  0.4184 -0.3960  0.0814
 1013MOL0     C39678   8.785   1.141   8.247  0.2001  0.0979  0.0624
 1013MOL0     C39679   8.872   1.166   8.365  0.1967 -0.2226  0.1777
 1013MOL0     O39680   8.832   1.294   8.413 -0.1809 -0.1948  0.2949
 1013MOL0     C39681   8.890   1.339   8.527 -0.9870 -0.5262 -1.0095
 1013MOL0     C39682   8.928   1.260   8.633  1.5821 -0.2600  0.0185
 1013MOL0     C39683   8.969   1.312   8.763  0.2389  0.1812  0.7270
 1013MOL0     C39684   8.971   1.212   8.877 -0.3491  0.5265 -0.2398
 1013MOL0     C39685   9.000   1.451   8.774 -0.0978  0.4172 -0.8015
 1013MOL0     C39686   9.043   1.514   8.897 -0.0944 -0.0248  0.3301
 1013MOL0     O39687   9.051   1.650   8.879 -0.3068  0.8696  0.1422
 1013MOL0     C39688   9.118   1.735   8.958 -0.2715  0.0569  0.2484
 1013MOL0     C39689   9.070   1.865   8.982  0.6040  0.6619 -0.0980
 1013MOL0     C39690   9.134   1.960   9.055 -0.4984  0.5041  0.8345
 1013MOL0     C39691   9.259   1.934   9.110 -0.3891  0.7269 -0.3044
 1013MOL0     O39692   9.330   2.037   9.164  0.1668 -0.7844 -0.1775
 1013MOL0     C39693   9.460   2.012   9.225 -0.6256  0.5761  0.4813
 1013MOL0     C39694   9.494   2.142   9.290  0.1702  0.1736  0.7011
 1013MOL0     C39695   9.448   2.144   9.440 -0.5727 -0.3632 -0.1822
 1013MOL0     C39696   9.311   2.105   9.484  0.0047  0.2931  0.0157
 1013MOL0     C39697   9.203   2.208   9.461 -0.2145 -0.6847  0.3905
 1013MOL0     C39698   9.060   2.152   9.468 -0.1786  0.2078 -0.5767
 1013MOL0     C39699   8.945   2.253   9.441 -0.3927 -0.1667  0.3975
 1013MOL0     C39700   8.927   2.353   9.555 -0.4444  0.9521  0.1854
 1013MOL0    Cl39701   8.815   2.479   9.495 -0.0336  0.0810  0.0417
 1013MOL0     C39702   9.310   1.803   9.093 -0.6554  0.3171 -0.1794
 1013MOL0     C39703   9.243   1.708   9.018 -0.2990 -0.0574  0.0838
 1013MOL0     O39704   9.092   1.444   8.985 -0.3296  0.8746 -1.4812
 1013MOL0     C39705   8.978   1.525   8.652  0.4597 -0.2642 -1.0858
 1013MOL0     C39706   8.910   1.470   8.545  0.9331 -0.3531 -0.0425
 1013MOL0     N39707   8.850   1.437   7.899 -0.1680  0.3994 -0.2780
 1013MOL0     N39708   8.866   1.542   7.841 -0.1935 -0.2849  0.4319
 1013MOL0     C39709   8.901   2.386   8.415 -0.2992 -0.6240 -1.0473
 1013MOL0     C39710   8.965   2.493   8.479  0.1310  0.9997  0.3213
 1013MOL0     C39711   9.054   2.874   8.673  0.7311 -0.5174 -0.7155
 1013MOL0     C39712   9.190   2.839   8.671 -0.3959 -0.0244  0.2164
 1013MOL0     C39713   9.288   2.905   8.752 -1.0025  0.5256  0.6385
 1013MOL0     C39714   9.253   2.987   8.847 -0.1651  0.8594  0.6895
 1013MOL0     O39715   9.351   3.054   8.924  0.8041 -0.4358  0.6156
 1013MOL0     C39716   9.439   3.132   8.844 -0.0484  0.2034  0.3979
 1013MOL0     C39717   9.579   3.079   8.863 -0.2337 -0.3128 -0.4964
 1013MOL0     C39718   9.643   3.142   8.991 -0.2206 -0.9482  1.0806
 1013MOL0     C39719   9.728   3.259   8.939  1.0544 -0.7081 -0.1387
 1013MOL0     C39720   9.855   3.211   8.892 -0.1143  0.6073 -0.0442
 1013MOL0     C39721   9.970   3.175   8.866 -0.1339 -0.0773  1.2144
 1013MOL0     C39722   9.117   3.030   8.848  0.5949 -0.9114 -0.2257
 1013MOL0     C39723   9.017   2.973   8.768  0.1264 -0.1748 -0.6289
 1013MOL0     C39724   8.878   3.038   8.788  0.5117  0.2528 -0.8381
 1013MOL0     H39725   8.792   2.760   8.383 -1.5311 -0.7091  1.8772
 1013MOL0     H39726   8.674   2.574   8.251 -0.4158 -2.0169 -0.0246
 1013MOL0     H39727   8.692   2.186   8.402  2.0448  2.9522  0.1840
 1013MOL0     H39728   8.833   2.145   8.305  0.0034 -1.8248 -0.7385
 1013MOL0     H39729   8.551   2.119   8.178 -0.1001  0.0563 -2.0160
 1013MOL0     H39730   8.714   2.100   8.115  1.8081 -1.6091  0.7567
 1013MOL0     H39731   8.586   1.929   8.340  2.1119  1.6898  1.1619
 1013MOL0     H39732   8.576   1.884   8.174 -1.6910  1.4074  2.0355
 1013MOL0     H39733   8.834   1.900   8.342  3.2172 -4.0723 -0.7944
 1013MOL0     H39734   8.755   1.748   8.279 -2.9746 -0.1387  0.4056
 1013MOL0     H39735   8.945   1.791   8.140  0.2274  0.3475 -0.0962
 1013MOL0     H39736   8.905   1.963   8.139  0.1913 -0.1788  0.6595
 1013MOL0     H39737   8.739   1.738   8.003  2.8120 -0.7492  0.6615
 1013MOL0     H39738   8.704   1.909   8.002 -1.1422 -1.2973  3.6181
 1013MOL0     H39739   8.932   1.952   7.887  0.2422 -0.1749  1.8149
 1013MOL0     H39740   8.825   1.853   7.788 -0.8681 -0.4567  0.0920
 1013MOL0     H39741   9.038   1.733   7.776  1.1017 -0.9385 -0.1778
 1013MOL0     H39742   9.081   1.781   7.938 -0.8341 -1.7961  1.4327
 1013MOL0     H39743   9.056   1.576   8.116  0.8312  2.5276 -1.2910
 1013MOL0     H39744   8.943   1.355   8.221 -2.2939  0.1796  0.2136
 1013MOL0     H39745   8.983   1.243   8.085 -2.7194 -1.4850 -0.4740
 1013MOL0     H39746   8.698   1.328   8.190  0.6411 -1.1378  1.5974
 1013MOL0     H39747   8.721   1.228   8.055 -2.9287  0.3096  1.5541
 1013MOL0     H39748   8.685   1.126   8.288 -0.3084  1.2108 -0.7217
 1013MOL0     H39749   8.823   1.050   8.199 -1.5377 -1.0232  0.7033
 1013MOL0     H39750   8.844   1.088   8.436 -0.1862 -2.2723 -2.0890
 1013MOL0     H39751   8.976   1.159   8.332 -0.3391 -3.1969 -1.2158
 1013MOL0     H39752   8.915   1.153   8.621  1.5725  0.0164 -3.2757
 1013MOL0     H39753   8.950   1.110   8.844 -1.1962  0.9843 -1.2132
 1013MOL0     H39754   8.890   1.247   8.941  1.3125  2.6982  0.8058
 1013MOL0     H39755   9.070   1.213   8.924 -0.6495  5.3770  0.8165
 1013MOL0     H39756   8.972   1.890   8.940  1.2208  4.4650  0.3580
 1013MOL0     H39757   9.084   2.055   9.068 -3.0477 -0.2936 -1.9789
 1013MOL0     H39758   9.451   1.931   9.297 -2.4535  1.5107  1.3700
 1013MOL0     H39759   9.531   1.989   9.144 -1.3221 -0.1163  0.0575
 1013MOL0     H39760   9.603   2.153   9.281  0.3857 -2.8817 -3.1397
 1013MOL0     H39761   9.451   2.226   9.234  0.4524 -0.9667 -1.3428
 1013MOL0     H39762   9.462   2.245   9.479  0.2180  0.1262 -1.6269
 1013MOL0     H39763   9.517   2.083   9.499  2.7476  3.7222  0.6640
 1013MOL0     H39764   9.307   2.084   9.591 -0.8379 -0.5579 -0.1716
 1013MOL0     H39765   9.283   2.012   9.434 -0.4104 -1.1421  2.7204
 1013MOL0     H39766   9.206   2.301   9.519 -0.4736  0.6705 -1.6684
 1013MOL0     H39767   9.213   2.248   9.360 -0.9957 -0.8130  0.2522
 1013MOL0     H39768   9.059   2.118   9.572  0.9012 -2.9203 -1.4477
 1013MOL0     H39769   9.051   2.068   9.398 -1.8108  0.8608 -1.1857
 1013MOL0     H39770   8.852   2.200   9.419  0.7524 -1.2175 -2.2593
 1013MOL0     H39771   8.962   2.307   9.348  0.4408 -1.3279 -0.1422
 1013MOL0     H39772   9.027   2.391   9.577  1.8914 -4.8226  1.4931
 1013MOL0     H39773   8.887   2.311   9.647 -0.1434 -0.4684 -0.3055
 1013MOL0     H39774   9.413   1.780   9.119  0.2642  1.3969 -2.6061
 1013MOL0     H39775   9.289   1.611   9.000  0.9274  0.3997  0.6547
 1013MOL0     H39776   9.004   1.630   8.637 -1.5741  0.6748  1.2345
 1013MOL0     H39777   8.872   1.539   8.470 -0.2794  2.9946  3.3190
 1013MOL0     H39778   8.933   2.289   8.453  2.5127  0.8477  0.6668
 1013MOL0     H39779   9.046   2.487   8.551  1.3981 -0.5784 -1.1546
 1013MOL0     H39780   9.232   2.764   8.604 -0.0908  2.0854 -2.0973
 1013MOL0     H39781   9.389   2.867   8.746 -1.9845 -2.1986 -2.6187
 1013MOL0     H39782   9.431   3.125   8.735  0.1239 -0.0373  0.3996
 1013MOL0     H39783   9.438   3.239   8.864 -0.1231  0.3391 -0.3170
 1013MOL0     H39784   9.638   3.097   8.773 -0.3098 -2.8885 -1.1189
 1013MOL0     H39785   9.588   2.971   8.873  0.5307 -0.1348  0.9423
 1013MOL0     H39786   9.566   3.178   9.059 -0.6177 -1.1049  0.7205
 1013MOL0     H39787   9.700   3.064   9.041  2.1372 -1.3366 -1.8669
 1013MOL0     H39788   9.745   3.337   9.014 -1.7448 -1.1306  1.0538
 1013MOL0     H39789   9.683   3.306   8.852  1.9180 -0.0357 -0.2404
 1013MOL0     H39790  10.070   3.144   8.844 -1.2605 -0.7645 -4.4991
 1013MOL0     H39791   9.082   3.106   8.917 -1.3225 -0.7653 -1.2747
 1013MOL0     H39792   8.816   2.984   8.860  1.3679  0.7335  0.2960
 1013MOL0     H39793   8.893   3.132   8.843 -0.8055 -1.1889  2.2377
 1013MOL0     H39794   8.815   3.041   8.699 -0.4771 -0.9283 -0.2043
 1014MOL0     O39795  11.211  11.406   0.976  0.7221 -0.1500 -0.3664
 1014MOL0     C39796  11.166  11.365   0.869 -0.0163  0.1573 -1.0243
 1014MOL0     O39797  11.087  11.435   0.781 -0.3267  0.3433 -0.8680
 1014MOL0     C39798  11.016  11.537   0.836  0.7371 -1.1446 -1.5567
 1014MOL0     C39799  11.019  11.662   0.772  0.0310 -0.3287 -0.1712
 1014MOL0     C39800  10.941  11.767   0.818 -0.2224  0.7806  0.0392
 1014MOL0     C39801  10.871  11.756   0.941  0.1343 -0.4940 -0.3463
 1014MOL0     O39802  10.806  11.852   1.014  0.0422  0.9104  0.2354
 1014MOL0     C39803  10.718  11.946   0.938 -0.4941  0.2406 -0.8863
 1014MOL0     C39804  10.789  12.073   0.886 -0.6257 -0.5960  0.0171
 1014MOL0     C39805  10.710  12.208   0.884 -0.4176  0.3205 -0.3525
 1014MOL0     C39806  10.660  12.232   0.746  0.2201 -1.4798 -0.7884
 1014MOL0     C39807  10.521  12.171   0.700  0.3392  0.2713  0.3542
 1014MOL0     C39808  10.501  12.180   0.547 -0.6460 -0.0574 -0.0707
 1014MOL0     C39809  10.591  12.091   0.452  1.0414 -0.5102  0.2262
 1014MOL0     C39810  10.595  11.943   0.498 -0.0806 -0.9284 -0.9961
 1014MOL0     N39811  10.677  11.868   0.408 -0.1059 -0.0025  0.7099
 1014MOL0     C39812  10.647  11.834   0.279 -1.0528 -0.2374  0.4821
 1014MOL0     C39813  10.750  11.769   0.219 -0.2552  0.4127 -0.3872
 1014MOL0     C39814  10.764  11.698   0.080 -0.1316 -0.1379 -0.3153
 1014MOL0     C39815  10.867  11.772  -0.001  0.5443  0.8544 -0.9137
 1014MOL0     C39816  10.800  11.888  -0.086 -0.1623 -0.4550  0.2681
 1014MOL0     C39817  10.905  11.970  -0.165 -0.5247  0.4643 -0.5342
 1014MOL0     O39818  10.960  11.879  -0.258 -0.3479 -0.0783 -0.9349
 1014MOL0     C39819  11.057  11.921  -0.343 -0.1503  0.0074  0.3166
 1014MOL0     C39820  11.125  11.835  -0.427  0.0315  0.5695 -0.3969
 1014MOL0     C39821  11.214  11.875  -0.535  0.1484  0.5011 -0.4210
 1014MOL0     C39822  11.266  11.766  -0.619 -0.6224  0.2394  0.9537
 1014MOL0     C39823  11.238  12.009  -0.551  0.8864  0.3765  0.1435
 1014MOL0     C39824  11.313  12.078  -0.669  0.3784 -0.1225 -0.1531
 1014MOL0     O39825  11.328  12.205  -0.654 -0.5001  0.5507  0.0812
 1014MOL0     C39826  11.387  12.276  -0.756  0.3246  0.3833 -0.3275
 1014MOL0     C39827  11.521  12.300  -0.754 -0.0469  0.3185  0.0251
 1014MOL0     C39828  11.585  12.382  -0.854  0.2041  0.0457 -0.1963
 1014MOL0     C39829  11.502  12.434  -0.955  0.4595  0.3124  0.3151
 1014MOL0     O39830  11.563  12.463  -1.079 -0.6573 -0.1499  0.2718
 1014MOL0     C39831  11.682  12.539  -1.074 -0.6734 -0.5736 -0.5955
 1014MOL0     C39832  11.815  12.464  -1.120  0.6238 -0.1010  0.8699
 1014MOL0     C39833  11.944  12.542  -1.099 -0.4972 -0.5979 -0.0484
 1014MOL0     C39834  11.974  12.631  -1.218  0.6609  0.7026 -0.6192
 1014MOL0     C39835  12.107  12.697  -1.202 -0.5042 -0.4508  0.4071
 1014MOL0     C39836  12.148  12.773  -1.332 -0.5056  0.1227  0.2994
 1014MOL0     C39837  12.051  12.891  -1.373  0.3745 -0.4326 -0.4275
 1014MOL0     C39838  12.075  12.947  -1.517  0.3568 -0.1934 -0.5550
 1014MOL0    Cl39839  12.218  13.047  -1.514 -0.0933 -0.5384 -0.2315
 1014MOL0     C39840  11.366  12.409  -0.956  0.2193 -0.9535  0.6198
 1014MOL0     C39841  11.304  12.333  -0.856  0.6659 -0.0781 -0.0714
 1014MOL0     O39842  11.351  12.000  -0.759  0.3914 -0.4461 -1.0759
 1014MOL0     C39843  11.180  12.099  -0.457 -0.0125  1.0019 -0.0647
 1014MOL0     C39844  11.090  12.063  -0.353  0.1270  0.0764 -0.0303
 1014MOL0     N39845  10.838  11.756   0.324  1.1607  0.0857 -0.3587
 1014MOL0     N39846  10.796  11.821   0.432 -0.6128 -0.0586 -0.1546
 1014MOL0     C39847  10.884  11.639   1.016 -0.3489  0.6007 -0.2966
 1014MOL0     C39848  10.940  11.524   0.962 -0.1979 -0.1229 -0.1313
 1014MOL0     C39849  11.213  11.223   0.825  0.2547 -1.1130 -0.1534
 1014MOL0     C39850  11.201  11.182   0.691  0.6129 -0.2272 -0.2489
 1014MOL0     C39851  11.225  11.053   0.651  0.1209  1.2493  0.0150
 1014MOL0     C39852  11.290  10.960   0.734  0.2977  0.0790 -0.1763
 1014MOL0     O39853  11.316  10.841   0.672  0.6187  0.4444 -0.4001
 1014MOL0     C39854  11.420  10.755   0.730  0.5995 -0.0171  0.4450
 1014MOL0     C39855  11.506  10.685   0.619  0.7237  0.1561  1.1803
 1014MOL0     C39856  11.595  10.769   0.530 -0.6654 -1.0726 -0.9442
 1014MOL0     C39857  11.673  10.883   0.598  0.5867 -0.2318  0.3388
 1014MOL0     C39858  11.785  10.915   0.508 -0.4567  0.4819 -0.2742
 1014MOL0     C39859  11.868  10.924   0.420 -0.3311  0.4589 -0.2883
 1014MOL0     C39860  11.312  10.997   0.868  0.4648 -0.5083 -0.8491
 1014MOL0     C39861  11.266  11.127   0.912  0.4670  0.2013  0.9197
 1014MOL0     C39862  11.301  11.146   1.057  0.6059 -0.8161 -0.6783
 1014MOL0     H39863  11.077  11.680   0.682 -1.6951  0.5032 -1.1764
 1014MOL0     H39864  10.951  11.856   0.757 -1.0090  1.9059  1.4567
 1014MOL0     H39865  10.639  11.976   1.007  1.7142  1.8988  1.0909
 1014MOL0     H39866  10.683  11.887   0.853 -0.5144 -0.3195 -0.4888
 1014MOL0     H39867  10.882  12.083   0.942 -1.2822 -0.0732  1.0361
 1014MOL0     H39868  10.826  12.051   0.785 -0.1366  1.7154 -0.3707
 1014MOL0     H39869  10.622  12.214   0.949  0.5005  0.9961  0.8643
 1014MOL0     H39870  10.779  12.288   0.914  0.1358 -1.1966  2.8323
 1014MOL0     H39871  10.633  12.337   0.739  0.5957 -1.2819  0.3917
 1014MOL0     H39872  10.736  12.216   0.669  0.8545  0.2454 -0.5600
 1014MOL0     H39873  10.441  12.228   0.749 -0.9899 -2.1918  1.2543
 1014MOL0     H39874  10.513  12.063   0.720 -1.3403  0.4976  1.1309
 1014MOL0     H39875  10.397  12.158   0.520 -2.0265  4.5339  0.5308
 1014MOL0     H39876  10.513  12.284   0.514  1.2887 -1.0551 -2.9104
 1014MOL0     H39877  10.693  12.130   0.440  1.2230 -0.9174  0.4374
 1014MOL0     H39878  10.537  12.095   0.357  2.2317 -1.4912 -0.5273
 1014MOL0     H39879  10.637  11.941   0.599 -2.3146  2.1897  0.1510
 1014MOL0     H39880  10.498  11.895   0.507  0.7108 -2.2031  2.1893
 1014MOL0     H39881  10.553  11.849   0.227 -1.8271 -2.8132  0.9561
 1014MOL0     H39882  10.667  11.682   0.032 -0.0514 -0.1594 -0.4743
 1014MOL0     H39883  10.802  11.596   0.095 -1.4074 -0.7356 -0.9642
 1014MOL0     H39884  10.929  11.833   0.066 -0.8000  1.7153 -0.4179
 1014MOL0     H39885  10.914  11.691  -0.057 -1.0177 -0.7353 -0.0268
 1014MOL0     H39886  10.723  11.845  -0.150 -2.1675 -1.0916  2.9050
 1014MOL0     H39887  10.746  11.957  -0.020  0.0186  1.4883 -1.5204
 1014MOL0     H39888  10.845  12.046  -0.216 -3.6278 -0.2416  1.7888
 1014MOL0     H39889  10.973  12.015  -0.092  1.8873 -0.9787 -1.7742
 1014MOL0     H39890  11.102  11.733  -0.401 -0.5866  0.1367 -2.5100
 1014MOL0     H39891  11.221  11.672  -0.586 -4.8979  1.8681  0.3885
 1014MOL0     H39892  11.374  11.749  -0.611 -0.7187  0.4401  3.1085
 1014MOL0     H39893  11.235  11.784  -0.723  2.3670 -0.3462 -0.1362
 1014MOL0     H39894  11.576  12.246  -0.678 -1.9368 -0.9450  0.5927
 1014MOL0     H39895  11.692  12.370  -0.849 -0.0990 -3.1991  0.8619
 1014MOL0     H39896  11.655  12.626  -1.136  3.2879  2.0937  0.9960
 1014MOL0     H39897  11.708  12.576  -0.974 -0.6385 -0.3765 -0.6761
 1014MOL0     H39898  11.828  12.372  -1.063 -0.6117  0.5890  2.3239
 1014MOL0     H39899  11.808  12.427  -1.223  0.1203  2.5361 -0.1224
 1014MOL0     H39900  12.024  12.470  -1.085 -0.7576 -0.5816  1.8765
 1014MOL0     H39901  11.937  12.604  -1.009 -0.8063  0.5629 -0.8486
 1014MOL0     H39902  11.892  12.703  -1.218 -0.2719 -0.3247  0.4883
 1014MOL0     H39903  11.981  12.569  -1.308  5.1836 -0.9822  0.6300
 1014MOL0     H39904  12.092  12.772  -1.123 -4.5048  1.9267 -2.2434
 1014MOL0     H39905  12.182  12.623  -1.174  0.0837  0.9192  2.7107
 1014MOL0     H39906  12.148  12.711  -1.423 -1.5485  1.6590 -0.8136
 1014MOL0     H39907  12.250  12.810  -1.321 -0.4443 -0.4930  2.1876
 1014MOL0     H39908  12.062  12.969  -1.297  1.4079  1.4060 -2.3550
 1014MOL0     H39909  11.947  12.858  -1.370 -0.0915  0.8291 -1.4455
 1014MOL0     H39910  11.987  13.003  -1.550 -1.8930 -3.7134 -1.0950
 1014MOL0     H39911  12.080  12.872  -1.597  1.7505  0.1724 -0.8401
 1014MOL0     H39912  11.326  12.449  -1.049  2.8851 -2.5481 -1.3374
 1014MOL0     H39913  11.199  12.309  -0.868  0.5311 -0.6846  2.0257
 1014MOL0     H39914  11.192  12.204  -0.481 -2.0244  1.1679 -0.5302
 1014MOL0     H39915  11.036  12.144  -0.305  1.3323  0.7114  0.2790
 1014MOL0     H39916  10.831  11.614   1.108  0.2496 -0.9896 -0.3413
 1014MOL0     H39917  10.942  11.429   1.014  2.2729 -0.3840 -0.5857
 1014MOL0     H39918  11.153  11.244   0.616 -0.3840 -0.1337  0.4593
 1014MOL0     H39919  11.202  11.016   0.552  0.9214  0.1791  0.2106
 1014MOL0     H39920  11.481  10.813   0.801 -0.4988 -1.0806  2.3461
 1014MOL0     H39921  11.361  10.688   0.792 -0.0651  1.0462  1.0002
 1014MOL0     H39922  11.444  10.616   0.561 -1.2711  3.2826 -0.6891
 1014MOL0     H39923  11.570  10.611   0.670  0.5349 -0.5224  0.4544
 1014MOL0     H39924  11.666  10.698   0.488  1.5649  1.8025 -2.4583
 1014MOL0     H39925  11.542  10.814   0.445 -0.9719 -1.0676 -0.7522
 1014MOL0     H39926  11.700  10.857   0.700 -1.6792 -1.4493  0.6941
 1014MOL0     H39927  11.611  10.972   0.608  1.8601  0.4380  3.6720
 1014MOL0     H39928  11.941  10.910   0.344  1.0284 -1.8875  1.3490
 1014MOL0     H39929  11.360  10.923   0.932 -0.8228 -0.7624 -0.1562
 1014MOL0     H39930  11.336  11.052   1.102  1.9434  0.3819  0.8866
 1014MOL0     H39931  11.382  11.216   1.079  1.3897 -2.3484  1.7588
 1014MOL0     H39932  11.217  11.193   1.107  1.4219  0.0967 -0.1316
 1015MOL0     O39933   0.972  10.150   5.984  0.3681  0.9694  0.7917
 1015MOL0     C39934   0.888  10.118   6.067  0.2023 -0.2396 -0.4801
 1015MOL0     O39935   0.904  10.024   6.152 -0.0316  0.0061 -0.2923
 1015MOL0     C39936   1.022   9.973   6.193 -0.8901  0.3729 -0.3413
 1015MOL0     C39937   1.017   9.841   6.223 -0.5107  1.0914  0.7884
 1015MOL0     C39938   1.138   9.775   6.238  0.5491 -0.1401  0.0868
 1015MOL0     C39939   1.259   9.845   6.252 -0.7832  0.6302  0.1841
 1015MOL0     O39940   1.371   9.768   6.274  0.1855 -0.3075 -0.3783
 1015MOL0     C39941   1.505   9.829   6.293  0.8785 -0.5569 -0.2476
 1015MOL0     C39942   1.600   9.707   6.297  0.0382  0.0309 -0.4822
 1015MOL0     C39943   1.741   9.743   6.341 -0.0101  0.5707 -0.0949
 1015MOL0     C39944   1.808   9.614   6.401 -0.6080 -0.3536 -0.4480
 1015MOL0     C39945   1.947   9.615   6.440 -0.2250  0.5030  0.1098
 1015MOL0     C39946   1.986   9.474   6.516  0.2771  0.5891 -0.1536
 1015MOL0     C39947   2.123   9.478   6.571  0.0570 -0.5634 -0.2478
 1015MOL0     C39948   2.136   9.568   6.696 -0.1213 -0.1174 -0.5533
 1015MOL0     N39949   2.054   9.522   6.817 -0.2954 -0.3964  0.9652
 1015MOL0     C39950   2.115   9.459   6.919 -0.3763  0.3384  0.1814
 1015MOL0     C39951   2.051   9.508   7.031 -0.0582 -0.7091 -0.7038
 1015MOL0     C39952   2.065   9.461   7.172 -0.1245  0.1102 -0.5408
 1015MOL0     C39953   2.212   9.468   7.216  0.1986  0.7615  0.8168
 1015MOL0     C39954   2.249   9.372   7.331  0.5912  0.5597 -0.1420
 1015MOL0     C39955   2.182   9.395   7.464  0.0452  0.3008  0.2795
 1015MOL0     O39956   2.042   9.385   7.461  0.2226  1.5459 -0.3132
 1015MOL0     C39957   1.993   9.257   7.511 -0.9190 -0.2121  1.3001
 1015MOL0     C39958   1.930   9.169   7.430  0.3263  0.1384 -0.1201
 1015MOL0     C39959   1.885   9.041   7.473 -0.2719  0.2718  0.0453
 1015MOL0     C39960   1.806   8.955   7.373  0.3678 -0.5658  0.3179
 1015MOL0     C39961   1.887   9.022   7.607  1.2153 -0.1560 -1.8606
 1015MOL0     C39962   1.827   8.899   7.675  0.3962  0.2982 -0.5096
 1015MOL0     O39963   1.865   8.879   7.807 -0.6018  0.0616 -0.2166
 1015MOL0     C39964   1.794   8.785   7.883 -0.1466 -0.9789  0.3692
 1015MOL0     C39965   1.810   8.648   7.867 -0.1796 -0.3498  0.1474
 1015MOL0     C39966   1.740   8.555   7.950 -0.2695 -0.2396  0.0145
 1015MOL0     C39967   1.665   8.615   8.058 -0.3923 -0.1124 -0.4270
 1015MOL0     O39968   1.579   8.551   8.141 -0.2406 -0.2416 -0.2364
 1015MOL0     C39969   1.544   8.412   8.109  0.5380  0.0993  0.5688
 1015MOL0     C39970   1.431   8.366   8.201 -0.0994  0.6626 -0.5910
 1015MOL0     C39971   1.487   8.335   8.345  0.0340 -0.1517  0.0046
 1015MOL0     C39972   1.384   8.262   8.444 -0.8964 -0.7941  0.3157
 1015MOL0     C39973   1.459   8.229   8.578  0.6813 -0.1763  0.1626
 1015MOL0     C39974   1.517   8.347   8.651  0.0223  0.1393 -0.1411
 1015MOL0     C39975   1.667   8.371   8.633  0.1902 -0.1052  1.0923
 1015MOL0     C39976   1.767   8.286   8.713 -0.2735  0.5753  0.0083
 1015MOL0    Cl39977   1.767   8.295   8.891 -0.0389 -0.7669  0.5063
 1015MOL0     C39978   1.666   8.756   8.081  0.2922 -0.1820  0.7549
 1015MOL0     C39979   1.728   8.833   7.991  0.5410  0.4745 -0.6481
 1015MOL0     O39980   1.744   8.835   7.611  0.1758 -0.0254 -0.4364
 1015MOL0     C39981   1.944   9.121   7.695 -0.4726  0.0897 -0.2443
 1015MOL0     C39982   2.007   9.230   7.646  0.1486 -0.2057  0.8252
 1015MOL0     N39983   1.950   9.599   6.990  0.1362 -0.2508  0.4698
 1015MOL0     N39984   1.943   9.596   6.864 -0.1096  0.5433 -0.1076
 1015MOL0     C39985   1.264   9.987   6.237 -0.5985 -0.4718 -0.4868
 1015MOL0     C39986   1.144  10.049   6.201  0.2187  0.1463 -0.0166
 1015MOL0     C39987   0.760  10.193   6.060  0.3968 -1.0792 -0.9520
 1015MOL0     C39988   0.698  10.215   6.177 -0.3165 -0.5324 -0.9413
 1015MOL0     C39989   0.586  10.300   6.182  0.2049  0.4238 -0.1658
 1015MOL0     C39990   0.539  10.372   6.072 -0.1032  0.9192  0.1346
 1015MOL0     O39991   0.427  10.442   6.066 -0.5333  0.0668  1.0734
 1015MOL0     C39992   0.452  10.566   6.136 -0.4257 -0.4427  1.0445
 1015MOL0     C39993   0.336  10.654   6.171 -0.0184 -0.1802 -0.2334
 1015MOL0     C39994   0.234  10.678   6.053  0.9897  0.9031  0.0756
 1015MOL0     C39995   0.277  10.807   5.973 -0.2229  0.7190 -1.2249
 1015MOL0     C39996   0.249  10.797   5.836 -0.4458  0.1325  0.1592
 1015MOL0     C39997   0.209  10.782   5.719  0.0139 -0.4321 -0.0085
 1015MOL0     C39998   0.598  10.339   5.947 -0.6828 -0.2359 -0.4091
 1015MOL0     C39999   0.708  10.251   5.942 -0.4162  0.1007  0.1345
 1015MOL0     C40000   0.751  10.229   5.797  0.2445 -0.0642 -0.3576
 1015MOL0     H40001   0.930   9.780   6.198  1.3703 -1.2858 -0.3347
 1015MOL0     H40002   1.143   9.667   6.246  1.2146 -0.0497  1.1884
 1015MOL0     H40003   1.505   9.876   6.392 -0.4352 -3.6531  1.3558
 1015MOL0     H40004   1.529   9.893   6.208 -2.7988 -2.1522 -2.7643
 1015MOL0     H40005   1.566   9.639   6.376  1.8067 -1.0871 -0.6271
 1015MOL0     H40006   1.601   9.656   6.200 -1.2840 -1.8116  0.4166
 1015MOL0     H40007   1.814   9.771   6.264 -0.0286 -3.8421 -2.0156
 1015MOL0     H40008   1.734   9.814   6.424 -0.5897  0.2128  0.1645
 1015MOL0     H40009   1.746   9.587   6.487  2.5165 -1.7624  1.5662
 1015MOL0     H40010   1.789   9.536   6.327 -0.4701  0.6775 -1.6070
 1015MOL0     H40011   1.977   9.697   6.505 -3.3709  2.9794 -1.3328
 1015MOL0     H40012   2.018   9.621   6.357  2.0891  0.8266  1.9742
 1015MOL0     H40013   1.915   9.456   6.597 -1.8192  0.1266 -1.9902
 1015MOL0     H40014   1.998   9.383   6.457  4.4934  0.1898  1.0297
 1015MOL0     H40015   2.198   9.518   6.502  0.5446  1.7648  1.5093
 1015MOL0     H40016   2.149   9.376   6.600 -4.6347 -1.5188  1.4548
 1015MOL0     H40017   2.239   9.553   6.728  0.4069 -0.6140 -2.3714
 1015MOL0     H40018   2.114   9.672   6.667  0.8051 -0.3849 -2.3379
 1015MOL0     H40019   2.198   9.389   6.919 -2.0238 -1.7223  1.0867
 1015MOL0     H40020   2.043   9.354   7.178 -1.8697  0.3150 -2.1884
 1015MOL0     H40021   1.996   9.514   7.238  1.8804  1.4786  0.5431
 1015MOL0     H40022   2.276   9.444   7.131  0.5067 -1.9091  1.6983
 1015MOL0     H40023   2.241   9.570   7.242  1.9539  0.1952  1.1892
 1015MOL0     H40024   2.261   9.267   7.304  1.0241  0.9513 -1.5796
 1015MOL0     H40025   2.352   9.405   7.350  0.9484 -0.3170 -0.4957
 1015MOL0     H40026   2.226   9.322   7.533 -1.4033 -1.7243 -0.8230
 1015MOL0     H40027   2.215   9.498   7.483 -1.9727  0.6737  2.1601
 1015MOL0     H40028   1.909   9.209   7.331  0.7577 -0.2722 -0.3851
 1015MOL0     H40029   1.827   8.994   7.273 -1.7644  0.7523  0.3207
 1015MOL0     H40030   1.698   8.956   7.391 -0.2879  1.1500 -2.8996
 1015MOL0     H40031   1.839   8.851   7.372  0.7052 -0.4987  1.7685
 1015MOL0     H40032   1.887   8.616   7.797  0.0797  1.7113 -0.5714
 1015MOL0     H40033   1.751   8.448   7.936 -1.5193 -0.4617  0.6959
 1015MOL0     H40034   1.505   8.414   8.007  0.6031 -2.2879  0.4368
 1015MOL0     H40035   1.619   8.333   8.120  2.8552  2.2962  1.5629
 1015MOL0     H40036   1.339   8.426   8.208 -0.7142 -0.4011  3.5538
 1015MOL0     H40037   1.394   8.274   8.155  2.6709  0.0385 -1.7679
 1015MOL0     H40038   1.505   8.434   8.390  1.1250 -0.4519  0.2396
 1015MOL0     H40039   1.582   8.282   8.340  0.1025 -0.0685  0.3513
 1015MOL0     H40040   1.366   8.166   8.396 -0.1520 -0.4608 -0.6869
 1015MOL0     H40041   1.296   8.322   8.468  0.6793  1.7407  0.2044
 1015MOL0     H40042   1.384   8.195   8.650 -0.0586  1.7337  0.3631
 1015MOL0     H40043   1.530   8.148   8.562 -1.2736 -1.9069 -0.1068
 1015MOL0     H40044   1.491   8.330   8.756 -2.9309  2.4340 -0.3416
 1015MOL0     H40045   1.476   8.437   8.604 -1.1849 -2.1862 -3.9912
 1015MOL0     H40046   1.679   8.472   8.674 -3.5752  1.4255 -1.0709
 1015MOL0     H40047   1.694   8.359   8.528 -0.8525 -2.3589  1.0403
 1015MOL0     H40048   1.868   8.310   8.678 -0.5250  1.0413 -0.4081
 1015MOL0     H40049   1.758   8.178   8.698  0.3626  0.4419  0.5479
 1015MOL0     H40050   1.608   8.811   8.154 -1.7495 -0.2125 -0.7315
 1015MOL0     H40051   1.717   8.941   8.002  0.2249  0.6150 -2.0537
 1015MOL0     H40052   1.954   9.103   7.802  3.5932  1.7354 -0.2013
 1015MOL0     H40053   2.064   9.296   7.711  0.9319  0.7353 -0.7478
 1015MOL0     H40054   1.355  10.045   6.248  0.2773 -2.1687  2.3211
 1015MOL0     H40055   1.158  10.153   6.173 -0.7515  0.3753  0.3233
 1015MOL0     H40056   0.720  10.185   6.279 -2.1372  0.6284 -0.1477
 1015MOL0     H40057   0.522  10.306   6.270  2.0749  0.1294  1.2885
 1015MOL0     H40058   0.503  10.557   6.232 -1.9887  1.1366  2.0862
 1015MOL0     H40059   0.515  10.618   6.063  2.3618 -5.4015 -0.5670
 1015MOL0     H40060   0.376  10.744   6.219  0.2323  0.3104 -1.3445
 1015MOL0     H40061   0.289  10.604   6.256 -1.2238  2.0336  0.4776
 1015MOL0     H40062   0.231  10.594   5.983 -0.2736 -1.5575  2.8387
 1015MOL0     H40063   0.131  10.690   6.088  0.6436 -0.0740 -0.5435
 1015MOL0     H40064   0.383  10.830   5.984 -0.1338 -0.6026  1.5676
 1015MOL0     H40065   0.227  10.894   6.017  1.4828  1.0354  0.2189
 1015MOL0     H40066   0.171  10.761   5.622  4.3275  0.7307 -2.2109
 1015MOL0     H40067   0.565  10.394   5.859 -3.1091  0.9353  1.1340
 1015MOL0     H40068   0.799  10.131   5.790  0.8591  0.0834  1.3155
 1015MOL0     H40069   0.669  10.238   5.727 -0.2433  1.2198  0.3508
 1015MOL0     H40070   0.822  10.306   5.766  0.6009 -0.3086 -0.1618
 1016MOL0     O40071   4.438  11.422   5.826 -0.1450  0.9882 -1.1999
 1016MOL0     C40072   4.443  11.478   5.939  0.0453  0.4208  0.3199
 1016MOL0     O40073   4.518  11.585   5.972 -0.2519 -0.1390 -0.1257
 1016MOL0     C40074   4.624  11.616   5.892 -0.3665 -0.2263  0.0021
 1016MOL0     C40075   4.724  11.517   5.873 -0.2672  0.7694  0.5719
 1016MOL0     C40076   4.843  11.538   5.797  0.0948 -0.3231  0.2211
 1016MOL0     C40077   4.854  11.659   5.728  0.8011  0.0987 -0.8501
 1016MOL0     O40078   4.968  11.680   5.663  1.0681  0.8693  0.5049
 1016MOL0     C40079   5.017  11.810   5.625 -0.2398 -0.1477  0.1295
 1016MOL0     C40080   5.150  11.837   5.706 -0.1172 -0.0799 -0.0399
 1016MOL0     C40081   5.188  11.983   5.679 -0.1016  0.3606 -0.4841
 1016MOL0     C40082   5.332  12.007   5.703  0.4820 -0.7900  0.2437
 1016MOL0     C40083   5.374  12.157   5.675  0.4489  0.6057 -0.1313
 1016MOL0     C40084   5.388  12.181   5.525 -0.0913 -0.8469 -0.2710
 1016MOL0     C40085   5.474  12.088   5.444  0.3257  0.5564 -0.0171
 1016MOL0     C40086   5.500  12.144   5.303  0.0229  0.3884 -0.3127
 1016MOL0     N40087   5.617  12.077   5.237 -0.4272  0.3843  0.4785
 1016MOL0     C40088   5.611  11.947   5.184  0.8431 -0.1880  0.3166
 1016MOL0     C40089   5.739  11.936   5.148 -0.2843  0.0774  0.7013
 1016MOL0     C40090   5.801  11.814   5.079  0.7112 -0.1506 -1.0202
 1016MOL0     C40091   5.905  11.734   5.146 -0.8878 -0.5373 -0.4662
 1016MOL0     C40092   6.031  11.814   5.184  0.0792 -0.2482  0.3249
 1016MOL0     C40093   6.145  11.807   5.087  0.6810  0.3273  0.5409
 1016MOL0     O40094   6.121  11.878   4.964 -0.1281  0.3499  0.6251
 1016MOL0     C40095   6.188  11.996   4.941  0.5610  0.8477 -0.3031
 1016MOL0     C40096   6.132  12.121   4.909 -0.2589  1.0301 -0.7283
 1016MOL0     C40097   6.206  12.240   4.884 -0.0117 -0.2890 -0.4942
 1016MOL0     C40098   6.132  12.361   4.873 -0.0861 -0.0632  0.3865
 1016MOL0     C40099   6.339  12.232   4.889  0.0313  0.6185  0.4108
 1016MOL0     C40100   6.440  12.347   4.870 -0.5413 -0.9759  0.2012
 1016MOL0     O40101   6.559  12.310   4.816 -0.8023 -0.5899 -0.3918
 1016MOL0     C40102   6.667  12.398   4.804 -0.6047  0.1697  0.4744
 1016MOL0     C40103   6.692  12.521   4.857  0.9352  0.2500 -0.0735
 1016MOL0     C40104   6.810  12.592   4.822 -0.0147  0.6588 -0.3065
 1016MOL0     C40105   6.911  12.530   4.742  0.6491 -0.1622 -0.0266
 1016MOL0     O40106   7.030  12.584   4.709 -0.7775 -0.0983  0.1208
 1016MOL0     C40107   7.078  12.685   4.802  0.5170 -0.5957 -0.2860
 1016MOL0     C40108   7.208  12.735   4.747 -0.3913 -0.3809 -0.5830
 1016MOL0     C40109   7.240  12.859   4.829 -0.4450 -0.4864 -0.5142
 1016MOL0     C40110   7.343  12.950   4.760 -0.1261 -1.0173  0.8904
 1016MOL0     C40111   7.277  12.996   4.632 -0.4612  0.2959 -0.4097
 1016MOL0     C40112   7.345  13.126   4.591 -0.5984 -0.2314  0.5672
 1016MOL0     C40113   7.339  13.148   4.443 -0.6634  0.7620  0.6786
 1016MOL0     C40114   7.450  13.066   4.367 -0.6877 -0.0042  0.0843
 1016MOL0    Cl40115   7.431  13.121   4.191  0.3617 -0.2862  0.1835
 1016MOL0     C40116   6.881  12.411   4.682  0.1339 -0.2196 -0.0458
 1016MOL0     C40117   6.763  12.345   4.715 -0.9068 -0.7047 -0.3063
 1016MOL0     O40118   6.405  12.463   4.893  0.9699 -0.0497 -0.5824
 1016MOL0     C40119   6.395  12.105   4.920  0.3462  0.5600  0.0561
 1016MOL0     C40120   6.324  11.995   4.942  0.3648  0.4382 -0.3926
 1016MOL0     N40121   5.810  12.046   5.177 -0.5317 -0.2682 -0.7231
 1016MOL0     N40122   5.738  12.131   5.234 -0.3427  0.3522 -0.4940
 1016MOL0     C40123   4.754  11.761   5.749 -0.9382 -0.8177  0.5039
 1016MOL0     C40124   4.647  11.735   5.833 -0.4537  0.5201 -0.0753
 1016MOL0     C40125   4.347  11.430   6.029 -0.5506  0.3529  0.0458
 1016MOL0     C40126   4.215  11.466   6.013  0.1004 -0.4804 -0.2348
 1016MOL0     C40127   4.121  11.429   6.120  0.1205  0.0007 -0.0104
 1016MOL0     C40128   4.163  11.357   6.235  0.0863  0.2411  0.4948
 1016MOL0     O40129   4.086  11.313   6.335 -0.6636  0.1334 -0.6182
 1016MOL0     C40130   3.943  11.291   6.317  0.5036  0.8678  0.6349
 1016MOL0     C40131   3.880  11.300   6.460  0.3640  0.1936  0.1842
 1016MOL0     C40132   3.922  11.189   6.564  0.4042  0.6736 -0.0737
 1016MOL0     C40133   3.855  11.207   6.697 -0.6385 -0.4484  0.4032
 1016MOL0     C40134   3.709  11.202   6.691 -0.5264  0.2261  0.2816
 1016MOL0     C40135   3.588  11.207   6.683  0.1967  0.5187  0.0086
 1016MOL0     C40136   4.296  11.337   6.253 -0.7481  1.1942  0.4441
 1016MOL0     C40137   4.390  11.372   6.153  0.6881  0.3581  0.6409
 1016MOL0     C40138   4.527  11.348   6.173  0.0571 -0.3123 -0.9658
 1016MOL0     H40139   4.724  11.426   5.932  1.1919  1.8524  2.3428
 1016MOL0     H40140   4.921  11.463   5.788  1.6708  1.2288  0.3627
 1016MOL0     H40141   4.946  11.894   5.630  0.4602  0.5011 -0.5602
 1016MOL0     H40142   5.053  11.807   5.522 -0.1488  2.3203  0.0295
 1016MOL0     H40143   5.129  11.817   5.811 -3.0365  1.5131 -0.2116
 1016MOL0     H40144   5.230  11.780   5.657  0.4453  1.1180 -0.5835
 1016MOL0     H40145   5.158  11.993   5.574 -5.0665 -0.4405  0.6010
 1016MOL0     H40146   5.130  12.056   5.736 -4.7687 -3.1032 -0.2294
 1016MOL0     H40147   5.342  11.990   5.811 -1.1305 -1.3052  0.3366
 1016MOL0     H40148   5.392  11.931   5.652  3.5227  2.8455 -2.2076
 1016MOL0     H40149   5.465  12.179   5.732  0.3878  1.6219 -0.4110
 1016MOL0     H40150   5.300  12.229   5.711  2.7060  1.9983  2.0330
 1016MOL0     H40151   5.284  12.174   5.490 -0.0093  1.2248 -1.0666
 1016MOL0     H40152   5.423  12.284   5.514 -1.9247 -0.1594 -0.0666
 1016MOL0     H40153   5.416  11.996   5.443 -0.2658  0.8686  1.8235
 1016MOL0     H40154   5.566  12.066   5.500 -1.1378 -4.5291  0.9209
 1016MOL0     H40155   5.413  12.127   5.239 -0.0411 -0.4269 -0.0254
 1016MOL0     H40156   5.519  12.251   5.308  1.3865  0.1999 -0.8477
 1016MOL0     H40157   5.524  11.882   5.185  0.1210  0.7476 -0.1263
 1016MOL0     H40158   5.858  11.853   4.994  0.6321  2.5873  0.0739
 1016MOL0     H40159   5.719  11.756   5.037 -0.4244  1.8476 -1.7225
 1016MOL0     H40160   5.871  11.677   5.233 -1.5355 -0.3053 -0.5635
 1016MOL0     H40161   5.935  11.656   5.075  3.0495  2.3578 -2.4191
 1016MOL0     H40162   6.004  11.919   5.198  1.3629  0.7846 -3.6873
 1016MOL0     H40163   6.072  11.768   5.275  1.2721  1.4689  0.6990
 1016MOL0     H40164   6.228  11.860   5.135 -0.2041  2.5825 -0.2550
 1016MOL0     H40165   6.179  11.706   5.064  1.1394  0.8251 -1.1343
 1016MOL0     H40166   6.024  12.119   4.922  0.0493 -0.5633  2.7424
 1016MOL0     H40167   6.175  12.440   4.811 -3.5189  2.3536  0.7736
 1016MOL0     H40168   6.102  12.402   4.970  3.4721 -0.6820  1.8851
 1016MOL0     H40169   6.046  12.334   4.811 -1.0600  1.4997  0.9980
 1016MOL0     H40170   6.618  12.567   4.922  0.0077 -0.4833 -0.5947
 1016MOL0     H40171   6.830  12.687   4.870  1.2801  0.0292  0.4516
 1016MOL0     H40172   7.010  12.770   4.818 -0.9105 -1.7128 -0.1814
 1016MOL0     H40173   7.080  12.647   4.905 -1.3517  2.0495  0.8709
 1016MOL0     H40174   7.285  12.658   4.759  0.4477  0.4195 -0.6916
 1016MOL0     H40175   7.195  12.760   4.641  0.8185  1.5040 -0.3311
 1016MOL0     H40176   7.302  12.836   4.916 -1.6141  2.9246  1.3865
 1016MOL0     H40177   7.155  12.916   4.866  1.5210  1.5653  1.0829
 1016MOL0     H40178   7.427  12.885   4.735 -0.5943 -1.0646 -0.6755
 1016MOL0     H40179   7.375  13.038   4.815  0.7831  1.1735 -2.8028
 1016MOL0     H40180   7.298  12.923   4.553 -1.3633 -0.6679  0.2111
 1016MOL0     H40181   7.169  13.009   4.646 -0.8679 -2.8401  0.1293
 1016MOL0     H40182   7.451  13.120   4.619 -0.8846 -2.6787  1.3176
 1016MOL0     H40183   7.305  13.211   4.647  3.5509  1.0431  1.9985
 1016MOL0     H40184   7.362  13.253   4.426  0.3265  1.0459  3.2527
 1016MOL0     H40185   7.239  13.127   4.405 -0.2929  0.6630 -0.2648
 1016MOL0     H40186   7.417  12.962   4.367 -3.2243  0.5742  4.0362
 1016MOL0     H40187   7.547  13.066   4.417 -0.4858 -2.4469 -0.2124
 1016MOL0     H40188   6.956  12.365   4.619  0.4587  0.9235 -0.5338
 1016MOL0     H40189   6.744  12.256   4.657 -1.6134  0.2847 -1.6502
 1016MOL0     H40190   6.503  12.095   4.922  0.4468  1.6294  2.0069
 1016MOL0     H40191   6.373  11.901   4.963 -0.0129  0.1134 -0.9650
 1016MOL0     H40192   4.751  11.858   5.702 -2.6487  0.3839  2.9231
 1016MOL0     H40193   4.577  11.817   5.846 -1.1707  0.2018 -1.7445
 1016MOL0     H40194   4.182  11.526   5.929  4.4391  1.7501 -0.6240
 1016MOL0     H40195   4.015  11.452   6.111 -0.0002  0.3447  1.8132
 1016MOL0     H40196   3.906  11.375   6.257  1.6951 -1.3656 -3.6475
 1016MOL0     H40197   3.919  11.198   6.265  0.4849  0.2765  1.6762
 1016MOL0     H40198   3.773  11.285   6.448  0.6932 -3.8396  0.9419
 1016MOL0     H40199   3.900  11.401   6.498  1.2186 -0.1363  0.6526
 1016MOL0     H40200   3.904  11.090   6.522  0.7943 -0.1320  1.5831
 1016MOL0     H40201   4.031  11.191   6.572  0.3826 -0.7003  0.7601
 1016MOL0     H40202   3.885  11.304   6.739 -0.9713  0.2799 -1.0032
 1016MOL0     H40203   3.884  11.123   6.762  0.9227 -0.5225 -0.3350
 1016MOL0     H40204   3.484  11.193   6.704  0.7201 -2.7205  0.9921
 1016MOL0     H40205   4.337  11.294   6.344 -0.3064 -2.3457 -1.2448
 1016MOL0     H40206   4.540  11.254   6.228 -0.4951 -0.3950 -0.9718
 1016MOL0     H40207   4.591  11.351   6.084  0.2240 -1.6194 -0.9065
 1016MOL0     H40208   4.567  11.437   6.223  1.0018  0.5584 -3.1259
 1017MOL0     O40209   1.623   3.874   5.190 -1.2577 -0.6239  0.0391
 1017MOL0     C40210   1.650   3.824   5.295 -0.5326 -0.3068  0.6014
 1017MOL0     O40211   1.687   3.890   5.411 -0.1275 -0.1569 -0.1655
 1017MOL0     C40212   1.704   4.028   5.403  0.0129  0.4333 -0.7839
 1017MOL0     C40213   1.821   4.092   5.351 -0.3482 -0.3656 -0.1008
 1017MOL0     C40214   1.820   4.230   5.348  0.6371 -0.2510  1.2341
 1017MOL0     C40215   1.720   4.319   5.395  0.2894  0.2656  0.1002
 1017MOL0     O40216   1.732   4.456   5.410  0.4180 -0.8644  0.2706
 1017MOL0     C40217   1.858   4.518   5.438 -0.2180  0.0903 -0.3969
 1017MOL0     C40218   1.828   4.659   5.509  0.9284 -0.1553 -0.7463
 1017MOL0     C40219   1.941   4.774   5.488  0.5345  1.1355 -0.1956
 1017MOL0     C40220   2.049   4.755   5.604  0.5066  0.1337  0.0167
 1017MOL0     C40221   2.147   4.872   5.605  0.6748  0.0778 -1.2812
 1017MOL0     C40222   2.274   4.831   5.670  0.2168  0.7398 -1.1832
 1017MOL0     C40223   2.375   4.935   5.695 -0.0504  0.0387  0.2016
 1017MOL0     C40224   2.319   5.024   5.815 -0.0932 -0.0723 -0.7878
 1017MOL0     N40225   2.435   5.063   5.891  0.0608 -0.0389  0.5401
 1017MOL0     C40226   2.546   5.132   5.838  0.5163  0.5954  0.0558
 1017MOL0     C40227   2.643   5.127   5.935 -0.2217 -1.4488  0.7674
 1017MOL0     C40228   2.790   5.183   5.915 -0.4308  0.1466  0.3651
 1017MOL0     C40229   2.852   5.240   6.045 -1.1292 -0.7731 -0.9295
 1017MOL0     C40230   3.007   5.250   6.037 -0.3300 -0.1590 -0.0639
 1017MOL0     C40231   3.053   5.338   6.155  0.1387  0.7478  0.2671
 1017MOL0     O40232   3.187   5.377   6.108  0.6791  0.4372 -0.5715
 1017MOL0     C40233   3.290   5.312   6.164  0.5533 -0.4532 -0.1873
 1017MOL0     C40234   3.379   5.221   6.100 -0.1897 -0.3895  1.1575
 1017MOL0     C40235   3.491   5.163   6.165  0.1874 -0.8544 -0.8117
 1017MOL0     C40236   3.585   5.075   6.083 -0.0980 -0.4853 -0.0912
 1017MOL0     C40237   3.525   5.208   6.298  0.1456 -0.0433  0.0532
 1017MOL0     C40238   3.632   5.142   6.373 -0.0758  0.0748  0.1121
 1017MOL0     O40239   3.673   5.022   6.329 -0.5157  0.0598  0.2472
 1017MOL0     C40240   3.789   4.969   6.375  0.0437  0.0335  0.2499
 1017MOL0     C40241   3.885   4.942   6.270  0.2659  0.0718 -0.2333
 1017MOL0     C40242   4.011   4.889   6.307  0.5355  0.3804 -0.0862
 1017MOL0     C40243   4.043   4.851   6.439 -0.4612  0.1427  0.0895
 1017MOL0     O40244   4.169   4.822   6.478  0.3942  0.7237 -0.1561
 1017MOL0     C40245   4.214   4.697   6.424  0.3622 -0.6987 -0.4133
 1017MOL0     C40246   4.113   4.587   6.450 -1.9776  1.2723  0.5145
 1017MOL0     C40247   4.185   4.451   6.449  0.1387  0.0294  1.2529
 1017MOL0     C40248   4.076   4.353   6.463 -0.7100  0.3624 -0.9389
 1017MOL0     C40249   4.123   4.216   6.414 -0.3204 -0.4710  0.7900
 1017MOL0     C40250   4.244   4.153   6.473 -0.0157 -0.1703 -0.3355
 1017MOL0     C40251   4.247   4.002   6.452 -0.0008 -0.4256 -0.1164
 1017MOL0     C40252   4.198   3.930   6.580 -1.1186  0.5621  0.1354
 1017MOL0    Cl40253   4.032   3.976   6.632  0.0199 -0.3754 -0.2584
 1017MOL0     C40254   3.944   4.878   6.540 -0.8741 -0.3058 -0.5099
 1017MOL0     C40255   3.818   4.933   6.514 -0.1459 -0.7710  1.1922
 1017MOL0     O40256   3.668   5.189   6.476 -0.5499  0.7445  1.0037
 1017MOL0     C40257   3.449   5.320   6.347 -0.1314  0.5058 -0.3410
 1017MOL0     C40258   3.332   5.361   6.283 -0.5007 -0.5388  0.7537
 1017MOL0     N40259   2.590   5.067   6.045  0.0558  0.1423 -0.1626
 1017MOL0     N40260   2.468   5.034   6.017 -0.1160  0.2064  0.4834
 1017MOL0     C40261   1.623   4.255   5.461  1.1051 -0.3528  0.1755
 1017MOL0     C40262   1.600   4.119   5.456  0.3159  0.2639 -0.3057
 1017MOL0     C40263   1.662   3.682   5.304  0.4896  1.0676  0.7785
 1017MOL0     C40264   1.652   3.620   5.431 -0.9134  0.0657  0.0765
 1017MOL0     C40265   1.680   3.481   5.451  0.1774  0.1095 -0.2907
 1017MOL0     C40266   1.709   3.406   5.330  0.3466  0.1473  0.7800
 1017MOL0     O40267   1.729   3.267   5.317 -0.3508 -0.3528 -0.1230
 1017MOL0     C40268   1.737   3.184   5.431 -0.3670  0.2548  0.7177
 1017MOL0     C40269   1.739   3.034   5.394 -0.1573  0.7446  0.0837
 1017MOL0     C40270   1.795   2.949   5.505  0.2069 -0.5704 -0.0199
 1017MOL0     C40271   1.809   2.806   5.477  0.3500  0.7293 -0.4494
 1017MOL0     C40272   1.812   2.718   5.598 -0.7886 -0.3183 -0.0049
 1017MOL0     C40273   1.818   2.640   5.687 -0.0460  0.4340  0.8122
 1017MOL0     C40274   1.701   3.464   5.211 -1.1896  0.0764 -0.7086
 1017MOL0     C40275   1.682   3.601   5.189 -0.6757 -0.0734 -0.9500
 1017MOL0     C40276   1.679   3.643   5.048 -0.3293  0.0390  0.1025
 1017MOL0     H40277   1.909   4.048   5.307 -1.3318  0.1831 -2.8377
 1017MOL0     H40278   1.908   4.281   5.309  3.8327 -4.5309  2.1285
 1017MOL0     H40279   1.908   4.529   5.342 -1.1822  0.4176 -0.8718
 1017MOL0     H40280   1.927   4.458   5.499 -0.4564  1.4839  1.3409
 1017MOL0     H40281   1.730   4.698   5.479  0.3713 -1.8949 -1.3160
 1017MOL0     H40282   1.815   4.631   5.614 -1.8053 -2.6448 -1.6262
 1017MOL0     H40283   1.983   4.764   5.387  2.0186 -2.0408  0.5992
 1017MOL0     H40284   1.890   4.870   5.496 -1.6899  0.1693 -1.6816
 1017MOL0     H40285   1.991   4.746   5.696 -1.3443  0.3234 -1.0834
 1017MOL0     H40286   2.102   4.661   5.585 -3.0104 -1.7193 -1.3403
 1017MOL0     H40287   2.091   4.953   5.652 -2.9565 -3.1779  0.5151
 1017MOL0     H40288   2.173   4.880   5.499 -0.5150 -2.2201 -1.7896
 1017MOL0     H40289   2.245   4.791   5.768  0.8942  1.8005 -0.5385
 1017MOL0     H40290   2.327   4.759   5.607  2.9028  0.8693  0.7220
 1017MOL0     H40291   2.392   5.006   5.613  1.6726  0.9960  1.3351
 1017MOL0     H40292   2.475   4.902   5.722  0.3736  0.2405 -1.0434
 1017MOL0     H40293   2.277   5.117   5.775  2.0398  1.1229 -0.3504
 1017MOL0     H40294   2.255   4.966   5.883 -2.4985  3.2953  0.0720
 1017MOL0     H40295   2.555   5.190   5.746  0.0604  2.3972  1.0938
 1017MOL0     H40296   2.782   5.268   5.846  0.3499  1.6616  2.0584
 1017MOL0     H40297   2.852   5.106   5.868 -2.1650 -0.8571 -0.3706
 1017MOL0     H40298   2.817   5.340   6.074 -0.4970 -1.0968  1.1383
 1017MOL0     H40299   2.838   5.184   6.138 -0.2221  4.3682  2.7421
 1017MOL0     H40300   3.062   5.156   6.032  0.5480  0.2862  0.8270
 1017MOL0     H40301   3.035   5.307   5.948 -0.8844  0.8644  0.3982
 1017MOL0     H40302   2.990   5.424   6.181 -0.8253  0.3904 -0.8087
 1017MOL0     H40303   3.060   5.271   6.241 -1.8527 -0.8385 -0.6939
 1017MOL0     H40304   3.350   5.200   5.998 -1.0635  0.4690  1.2077
 1017MOL0     H40305   3.582   4.972   6.119  3.5175 -0.3781  0.9888
 1017MOL0     H40306   3.687   5.116   6.088 -0.7595  1.2492  0.0160
 1017MOL0     H40307   3.547   5.077   5.981 -1.5806  1.1114  0.4494
 1017MOL0     H40308   3.869   4.961   6.164 -2.4563  4.9603  0.7677
 1017MOL0     H40309   4.081   4.874   6.225  1.4335 -2.6192  1.0547
 1017MOL0     H40310   4.234   4.718   6.319  0.7274 -1.2917 -0.4650
 1017MOL0     H40311   4.300   4.654   6.476 -0.6920 -0.4768  1.6312
 1017MOL0     H40312   4.065   4.602   6.547  0.0550  1.6472  1.5272
 1017MOL0     H40313   4.036   4.594   6.372 -1.3764 -1.4828 -0.4080
 1017MOL0     H40314   4.260   4.444   6.528 -1.2458 -0.1685  2.5862
 1017MOL0     H40315   4.236   4.430   6.354 -1.6156 -3.1908  0.8613
 1017MOL0     H40316   3.996   4.379   6.393 -3.5033  0.4225  2.0221
 1017MOL0     H40317   4.034   4.344   6.563  1.3135 -0.4696 -0.1181
 1017MOL0     H40318   4.043   4.143   6.404  1.4225 -2.5997  1.6947
 1017MOL0     H40319   4.138   4.227   6.306 -3.4875 -0.0556  0.2873
 1017MOL0     H40320   4.257   4.175   6.579  2.6431 -1.4199 -0.3091
 1017MOL0     H40321   4.341   4.194   6.444  1.4436  1.4927  5.6721
 1017MOL0     H40322   4.354   3.981   6.449  0.8524  3.4146 -1.2358
 1017MOL0     H40323   4.190   3.976   6.362 -1.0272  1.2802  0.0032
 1017MOL0     H40324   4.272   3.951   6.659  0.0880  2.6491 -1.4408
 1017MOL0     H40325   4.195   3.822   6.569  0.0849  0.3371  1.6370
 1017MOL0     H40326   3.976   4.872   6.643 -2.0938 -2.7858 -0.1929
 1017MOL0     H40327   3.760   4.979   6.593 -1.7907  3.4895 -2.0764
 1017MOL0     H40328   3.489   5.369   6.435  3.3827  4.5633 -3.7808
 1017MOL0     H40329   3.276   5.445   6.322  1.5419  0.5961  1.4295
 1017MOL0     H40330   1.547   4.322   5.500  1.0889  2.4761 -4.0046
 1017MOL0     H40331   1.510   4.082   5.504 -0.4348  1.1991 -0.9564
 1017MOL0     H40332   1.630   3.681   5.518 -1.6721  1.8927 -1.3157
 1017MOL0     H40333   1.676   3.449   5.555 -0.8051 -0.8346 -0.5970
 1017MOL0     H40334   1.839   3.200   5.468 -0.1931 -0.3161  0.5071
 1017MOL0     H40335   1.674   3.211   5.515 -0.1707 -0.2881  1.0449
 1017MOL0     H40336   1.785   3.010   5.297 -1.9801  0.1811 -0.6716
 1017MOL0     H40337   1.635   3.006   5.378  0.2567  0.8563 -4.1716
 1017MOL0     H40338   1.885   2.990   5.551 -0.8993  0.9184  0.9031
 1017MOL0     H40339   1.705   2.953   5.568 -0.5894  0.3269 -1.1551
 1017MOL0     H40340   1.906   2.798   5.426  1.0612  2.0821  0.6045
 1017MOL0     H40341   1.730   2.765   5.414  1.1022  0.2479 -1.1141
 1017MOL0     H40342   1.831   2.564   5.762 -1.9478  0.5735  1.3341
 1017MOL0     H40343   1.711   3.406   5.120  0.2739 -0.3345 -0.3203
 1017MOL0     H40344   1.701   3.562   4.978  1.1180  1.1516 -0.7918
 1017MOL0     H40345   1.578   3.678   5.026 -0.6359 -0.6272  0.4304
 1017MOL0     H40346   1.741   3.727   5.014 -1.3632  1.4924  1.6637
 1018MOL0     O40347   0.283   5.074   5.245  0.0499  0.0822 -0.2519
 1018MOL0     C40348   0.278   4.962   5.193 -0.3529  0.1601  0.8380
 1018MOL0     O40349   0.338   4.929   5.077 -0.2166 -0.4066  0.5616
 1018MOL0     C40350   0.397   5.017   4.989 -0.6108  0.4000 -0.7392
 1018MOL0     C40351   0.414   5.157   5.001  0.4200  0.2420  0.4585
 1018MOL0     C40352   0.495   5.229   4.911  0.4212 -0.2447  0.3949
 1018MOL0     C40353   0.551   5.172   4.796  0.0557 -0.6174  0.7984
 1018MOL0     O40354   0.622   5.242   4.703 -0.4450  0.5467  0.2596
 1018MOL0     C40355   0.588   5.381   4.701  0.1533  1.0459  0.0050
 1018MOL0     C40356   0.637   5.448   4.576 -0.4129 -0.0186 -0.6253
 1018MOL0     C40357   0.607   5.380   4.447 -0.4734  0.0704  0.4934
 1018MOL0     C40358   0.674   5.453   4.326 -0.0528  0.5082  0.6849
 1018MOL0     C40359   0.644   5.366   4.198  0.6705 -0.0778 -0.1284
 1018MOL0     C40360   0.720   5.419   4.070  0.4582  0.6260 -0.5875
 1018MOL0     C40361   0.869   5.439   4.089  0.6643 -0.6405  0.4593
 1018MOL0     C40362   0.928   5.485   3.960  1.4381 -1.1340  0.6674
 1018MOL0     N40363   1.074   5.514   3.972  0.1547 -0.7186 -0.6854
 1018MOL0     C40364   1.154   5.477   4.083  0.9529 -0.4922 -0.3712
 1018MOL0     C40365   1.274   5.530   4.053  0.0762  0.3026  0.6133
 1018MOL0     C40366   1.398   5.500   4.124 -0.1925 -0.0899 -0.1629
 1018MOL0     C40367   1.420   5.347   4.145  0.8152 -0.5603 -0.4665
 1018MOL0     C40368   1.424   5.261   4.019  0.6098 -0.2018  0.0911
 1018MOL0     C40369   1.503   5.312   3.904 -0.1068 -0.2719 -0.4616
 1018MOL0     O40370   1.641   5.347   3.938  0.5927 -0.3065  0.2409
 1018MOL0     C40371   1.718   5.239   3.976 -0.5402 -0.1247  0.0334
 1018MOL0     C40372   1.833   5.277   4.044 -0.0064  0.1040 -0.0671
 1018MOL0     C40373   1.924   5.182   4.091  0.7916 -0.1153 -0.1042
 1018MOL0     C40374   2.047   5.240   4.147  1.0082  0.5596  0.9497
 1018MOL0     C40375   1.889   5.045   4.081 -0.1173 -0.1986  0.1176
 1018MOL0     C40376   1.978   4.934   4.141 -0.5313 -0.5835 -0.2133
 1018MOL0     O40377   1.968   4.810   4.082  0.1853 -0.5066 -0.2575
 1018MOL0     C40378   2.055   4.709   4.124 -0.2685 -0.5053  0.4901
 1018MOL0     C40379   2.001   4.600   4.197 -0.4380  0.1114 -0.1071
 1018MOL0     C40380   2.092   4.504   4.253 -0.5536 -0.0491  0.2502
 1018MOL0     C40381   2.235   4.521   4.220 -0.2062 -0.2599 -0.1874
 1018MOL0     O40382   2.326   4.441   4.277 -0.0693  0.2035  0.2604
 1018MOL0     C40383   2.331   4.416   4.418 -0.6292  0.2015  0.4678
 1018MOL0     C40384   2.456   4.327   4.433  0.2189  0.0957  0.4936
 1018MOL0     C40385   2.443   4.198   4.344  0.5301  0.3051 -0.0057
 1018MOL0     C40386   2.566   4.112   4.365 -0.8463  0.4125 -0.3104
 1018MOL0     C40387   2.563   4.010   4.249 -0.2512 -0.1891 -0.7566
 1018MOL0     C40388   2.677   3.909   4.266  0.4708  0.2736  0.2360
 1018MOL0     C40389   2.668   3.798   4.152 -0.7597 -0.3179 -0.2893
 1018MOL0     C40390   2.807   3.730   4.151  0.1285 -0.2349 -0.2113
 1018MOL0    Cl40391   2.862   3.656   4.306 -0.1734 -0.6208  0.2801
 1018MOL0     C40392   2.281   4.638   4.162 -0.3769 -0.2955  0.3659
 1018MOL0     C40393   2.196   4.732   4.117  0.1052 -1.1835  1.0496
 1018MOL0     O40394   2.044   4.957   4.244 -1.0988  0.2451 -0.1449
 1018MOL0     C40395   1.788   5.011   4.006 -0.6804 -0.1616 -0.1357
 1018MOL0     C40396   1.698   5.103   3.957 -0.1935  0.9264  0.4362
 1018MOL0     N40397   1.273   5.593   3.933 -0.1029 -0.3569 -0.3124
 1018MOL0     N40398   1.150   5.584   3.890  0.2048  0.4944 -0.1565
 1018MOL0     C40399   0.529   5.038   4.778  0.1712  0.2771 -0.6449
 1018MOL0     C40400   0.452   4.961   4.869  0.0654 -0.4467  0.1550
 1018MOL0     C40401   0.222   4.858   5.276 -0.0188  0.7892  0.7457
 1018MOL0     C40402   0.115   4.893   5.363  0.4171 -0.9278 -0.4839
 1018MOL0     C40403   0.059   4.789   5.449  0.1591 -0.8729 -0.1229
 1018MOL0     C40404   0.108   4.663   5.449  0.3134 -1.2070 -0.3781
 1018MOL0     O40405   0.061   4.575   5.544 -0.3988 -0.1024 -0.1868
 1018MOL0     C40406   0.128   4.574   5.670  0.1146  0.1830  0.5346
 1018MOL0     C40407   0.101   4.707   5.754 -0.0551  0.4958  0.2554
 1018MOL0     C40408   0.129   4.688   5.903 -0.2987 -0.0162  0.2593
 1018MOL0     C40409   0.015   4.593   5.967 -0.0935  0.7711 -0.1102
 1018MOL0     C40410   0.065   4.542   6.097 -0.5376 -0.0711  0.4810
 1018MOL0     C40411   0.111   4.516   6.209 -0.3098 -0.5887  0.3845
 1018MOL0     C40412   0.216   4.629   5.361 -0.1593 -0.6340 -0.0904
 1018MOL0     C40413   0.272   4.717   5.264 -0.3995 -0.8843 -0.4287
 1018MOL0     C40414   0.398   4.683   5.189  0.7395 -0.1659 -0.9636
 1018MOL0     H40415   0.386   5.209   5.092 -2.2465  1.0094 -0.7124
 1018MOL0     H40416   0.511   5.336   4.924 -1.6470  0.3253 -1.2690
 1018MOL0     H40417   0.632   5.428   4.790  0.1974 -1.1128  1.1772
 1018MOL0     H40418   0.479   5.382   4.705  0.0075 -3.1497  2.2381
 1018MOL0     H40419   0.589   5.546   4.577  0.6762  0.5361 -0.9067
 1018MOL0     H40420   0.741   5.465   4.604 -0.8316 -2.1110  2.7596
 1018MOL0     H40421   0.627   5.273   4.443  2.0142  0.4839  0.4574
 1018MOL0     H40422   0.498   5.384   4.438 -0.5276 -0.6046  0.8344
 1018MOL0     H40423   0.635   5.555   4.325 -0.7991  0.4015  4.4894
 1018MOL0     H40424   0.778   5.453   4.362 -0.5604  0.7212  2.2223
 1018MOL0     H40425   0.537   5.373   4.177  0.5634 -1.0895  0.0457
 1018MOL0     H40426   0.675   5.262   4.207  2.0214  0.3338  0.2197
 1018MOL0     H40427   0.687   5.344   3.997 -0.4230 -0.2423  0.6687
 1018MOL0     H40428   0.670   5.514   4.047  0.1376  0.4637 -0.5630
 1018MOL0     H40429   0.913   5.340   4.105 -0.7119 -1.8400 -2.4121
 1018MOL0     H40430   0.902   5.501   4.173  2.5232 -0.7221 -0.1621
 1018MOL0     H40431   0.924   5.402   3.889 -0.5349 -1.5753  1.2364
 1018MOL0     H40432   0.876   5.571   3.917  0.6424 -1.3023  1.2459
 1018MOL0     H40433   1.136   5.422   4.174  0.6222  1.5502  0.8561
 1018MOL0     H40434   1.404   5.566   4.211  1.2322  0.2603 -0.5002
 1018MOL0     H40435   1.479   5.540   4.062 -0.1116  2.0294  1.2131
 1018MOL0     H40436   1.502   5.332   4.216  1.0477  1.6413 -0.1879
 1018MOL0     H40437   1.337   5.302   4.201 -0.9369  1.2619 -1.4541
 1018MOL0     H40438   1.454   5.161   4.052 -0.8936 -1.1513 -1.2784
 1018MOL0     H40439   1.321   5.257   3.982 -0.4168 -2.7467  2.7679
 1018MOL0     H40440   1.504   5.227   3.836  0.6474 -0.9411  0.3550
 1018MOL0     H40441   1.456   5.397   3.853 -1.4933  0.2822  1.6113
 1018MOL0     H40442   1.853   5.380   4.073  0.7153 -0.0626  0.0415
 1018MOL0     H40443   2.129   5.185   4.101 -1.9094 -1.7267 -2.0022
 1018MOL0     H40444   2.054   5.226   4.255  1.3963  1.0029  0.9890
 1018MOL0     H40445   2.061   5.342   4.109  1.3243  0.7912  1.6817
 1018MOL0     H40446   1.894   4.607   4.206 -1.2085 -0.5495 -5.3847
 1018MOL0     H40447   2.064   4.428   4.325 -1.0643 -1.1329 -1.0303
 1018MOL0     H40448   2.346   4.514   4.465 -1.7345  1.3295 -1.4209
 1018MOL0     H40449   2.240   4.368   4.456 -0.4124 -1.0050 -0.4827
 1018MOL0     H40450   2.541   4.385   4.396 -0.7240  1.2884  0.0973
 1018MOL0     H40451   2.463   4.287   4.534 -1.3872  0.7052  0.8767
 1018MOL0     H40452   2.443   4.222   4.237 -0.8168  0.7659  0.0873
 1018MOL0     H40453   2.348   4.148   4.364 -0.0465  1.2357 -0.3509
 1018MOL0     H40454   2.560   4.069   4.466 -0.0543 -0.0118 -0.4391
 1018MOL0     H40455   2.658   4.171   4.370 -1.2580  0.9998  0.6875
 1018MOL0     H40456   2.461   3.971   4.241 -0.2395  0.0079 -6.8705
 1018MOL0     H40457   2.579   4.056   4.151  1.1353  1.5884  0.2479
 1018MOL0     H40458   2.655   3.867   4.365 -4.3200  0.1796 -0.6179
 1018MOL0     H40459   2.772   3.964   4.261 -0.6467  2.2076 -1.5290
 1018MOL0     H40460   2.661   3.847   4.055 -1.7062 -5.3257 -3.0733
 1018MOL0     H40461   2.580   3.737   4.173  0.3956 -1.3543  1.9853
 1018MOL0     H40462   2.885   3.800   4.121 -1.6550  2.0134  0.1199
 1018MOL0     H40463   2.810   3.649   4.077  0.7853 -1.7767  1.4189
 1018MOL0     H40464   2.386   4.666   4.162 -0.0542 -1.4687 -0.6935
 1018MOL0     H40465   2.234   4.828   4.082 -0.4456 -0.9403  1.1012
 1018MOL0     H40466   1.758   4.908   3.987  0.5218 -1.2117  2.9980
 1018MOL0     H40467   1.608   5.067   3.907  0.4977 -2.7692  1.5105
 1018MOL0     H40468   0.589   4.990   4.701  2.9310  0.1301  1.4716
 1018MOL0     H40469   0.435   4.854   4.858 -1.3542  0.0108 -4.5878
 1018MOL0     H40470   0.081   4.995   5.379  1.8653 -0.6787  1.4035
 1018MOL0     H40471  -0.023   4.834   5.504 -0.1031  4.4052 -4.0489
 1018MOL0     H40472   0.103   4.483   5.725  1.0048 -1.5214 -1.7164
 1018MOL0     H40473   0.236   4.577   5.650 -0.0620  0.6665 -0.4056
 1018MOL0     H40474   0.001   4.749   5.741 -0.4047 -0.6239 -0.7674
 1018MOL0     H40475   0.173   4.783   5.721 -3.6983  3.0220 -2.7571
 1018MOL0     H40476   0.231   4.648   5.907  0.2226  0.8660 -2.2202
 1018MOL0     H40477   0.138   4.782   5.958 -1.0513  0.3513 -0.2211
 1018MOL0     H40478  -0.009   4.512   5.898  3.2436  0.2679 -0.8773
 1018MOL0     H40479  -0.074   4.655   5.982 -2.2256 -1.5479 -2.2980
 1018MOL0     H40480   0.163   4.481   6.296 -0.8507 -0.6338  0.6971
 1018MOL0     H40481   0.243   4.524   5.353  1.5485 -0.1441 -1.6728
 1018MOL0     H40482   0.396   4.679   5.080 -1.2402  1.1113 -1.0198
 1018MOL0     H40483   0.478   4.750   5.222 -1.6271  1.7459  1.2399
 1018MOL0     H40484   0.424   4.582   5.225  0.6744  0.0526 -0.2837
 1019MOL0     O40485  10.943   6.085   1.145  0.6337  0.4097 -0.0229
 1019MOL0     C40486  11.055   6.042   1.111 -0.1092  1.4873  1.3662
 1019MOL0     O40487  11.117   5.936   1.165 -0.4306 -0.3609  0.1955
 1019MOL0     C40488  11.053   5.888   1.270  0.2140  0.0776 -0.5706
 1019MOL0     C40489  11.057   5.926   1.404  0.0643  0.8047  0.3731
 1019MOL0     C40490  10.980   5.841   1.491 -0.6099  1.0872  0.1725
 1019MOL0     C40491  10.897   5.733   1.455  0.4342 -0.1032 -0.3298
 1019MOL0     O40492  10.831   5.652   1.550 -0.0040 -0.6244 -0.4638
 1019MOL0     C40493  10.688   5.641   1.537  0.1156  0.2647 -0.5899
 1019MOL0     C40494  10.628   5.536   1.644 -0.2510  0.6722 -0.6532
 1019MOL0     C40495  10.702   5.401   1.660  0.4006 -0.8075  1.0168
 1019MOL0     C40496  10.668   5.305   1.541  0.2877 -0.3655 -0.3965
 1019MOL0     C40497  10.761   5.184   1.547  0.3758  0.0974 -0.6910
 1019MOL0     C40498  10.684   5.079   1.640 -0.5516  0.6778  0.7348
 1019MOL0     C40499  10.780   4.966   1.678  0.0665 -0.7433  0.1878
 1019MOL0     C40500  10.700   4.854   1.740  0.8173 -0.9952  0.0340
 1019MOL0     N40501  10.782   4.755   1.799 -1.0535  0.1282  0.7163
 1019MOL0     C40502  10.746   4.686   1.910  0.6611 -0.5011  0.5660
 1019MOL0     C40503  10.843   4.595   1.924  0.0843  0.2944 -0.0541
 1019MOL0     C40504  10.846   4.507   2.051 -0.3624  0.4355 -0.0788
 1019MOL0     C40505  10.902   4.589   2.171 -0.0524 -0.6443  0.0804
 1019MOL0     C40506  11.047   4.646   2.139 -0.1285  0.7745 -0.2509
 1019MOL0     C40507  11.102   4.719   2.261  0.1526  0.2852  0.6433
 1019MOL0     O40508  11.179   4.835   2.226  0.7228  0.1922  0.5402
 1019MOL0     C40509  11.116   4.950   2.184 -0.7183  0.0238  0.1258
 1019MOL0     C40510  11.202   5.053   2.144 -0.5616  0.3284 -0.2359
 1019MOL0     C40511  11.157   5.182   2.106  1.1147 -0.5476 -0.2409
 1019MOL0     C40512  11.266   5.280   2.067  0.9727 -0.9220 -0.3674
 1019MOL0     C40513  11.018   5.207   2.116  0.6089 -0.0866 -0.3112
 1019MOL0     C40514  10.947   5.330   2.088  0.3643 -0.4465  0.3679
 1019MOL0     O40515  11.009   5.450   2.136  0.4835  0.3571  0.6598
 1019MOL0     C40516  10.950   5.575   2.092 -0.4661  0.1967 -0.4722
 1019MOL0     C40517  10.914   5.594   1.960  0.5243  0.1036 -0.8456
 1019MOL0     C40518  10.847   5.715   1.922 -0.5957  0.6918  0.3271
 1019MOL0     C40519  10.841   5.815   2.016 -0.1182 -0.4780  0.6921
 1019MOL0     O40520  10.790   5.935   1.991 -0.1934 -0.0619  0.6842
 1019MOL0     C40521  10.762   5.964   1.856 -0.5803 -0.2628  0.4839
 1019MOL0     C40522  10.713   6.115   1.822  1.1612 -0.2269 -0.6071
 1019MOL0     C40523  10.645   6.176   1.947 -0.1270 -0.3611 -0.6756
 1019MOL0     C40524  10.512   6.117   1.997  0.8230 -0.1622  0.0350
 1019MOL0     C40525  10.461   6.182   2.124 -0.1011 -0.2591 -0.1044
 1019MOL0     C40526  10.537   6.143   2.250 -0.1067  0.5978  0.6289
 1019MOL0     C40527  10.451   6.187   2.359  0.0077  0.5945 -0.0424
 1019MOL0     C40528  10.532   6.175   2.488 -1.4982 -0.8995  0.3096
 1019MOL0    Cl40529  10.446   6.254   2.634  0.4845  0.3295 -0.4081
 1019MOL0     C40530  10.876   5.789   2.148  0.4640 -0.5210 -0.6146
 1019MOL0     C40531  10.935   5.670   2.189  1.0402 -0.3016  0.5589
 1019MOL0     O40532  10.835   5.321   2.030 -1.0166  0.1937  0.0903
 1019MOL0     C40533  10.924   5.108   2.142  0.3489  0.4391  0.4671
 1019MOL0     C40534  10.978   4.978   2.172  1.1679  0.5215 -0.3363
 1019MOL0     N40535  10.943   4.602   1.824 -0.2680  0.3953 -1.6085
 1019MOL0     N40536  10.893   4.694   1.744  0.6140 -0.0754  0.8479
 1019MOL0     C40537  10.897   5.703   1.315 -0.0170  0.2324  0.1511
 1019MOL0     C40538  10.974   5.778   1.225  0.9442 -1.1281  0.0203
 1019MOL0     C40539  11.139   6.108   1.000 -0.6613  0.8557 -0.0286
 1019MOL0     C40540  11.217   6.015   0.926 -0.4029 -0.5023  0.0392
 1019MOL0     C40541  11.283   6.076   0.824 -0.8195 -0.1567  0.7325
 1019MOL0     C40542  11.276   6.212   0.785 -0.5175  0.1590 -0.4861
 1019MOL0     O40543  11.377   6.255   0.690  0.4005 -0.5837 -1.3114
 1019MOL0     C40544  11.420   6.391   0.701 -0.1351 -0.0154  0.5105
 1019MOL0     C40545  11.476   6.435   0.833  0.1941 -0.3193 -0.3433
 1019MOL0     C40546  11.607   6.542   0.837  0.0456 -0.6793  0.8142
 1019MOL0     C40547  11.715   6.491   0.751  0.3833 -0.0850 -0.1717
 1019MOL0     C40548  11.854   6.532   0.779 -0.0760  0.1970  0.1002
 1019MOL0     C40549  11.975   6.556   0.787  0.2207 -0.1959 -0.9196
 1019MOL0     C40550  11.189   6.296   0.850  0.3476  0.9726  0.1935
 1019MOL0     C40551  11.121   6.245   0.965 -1.0207 -0.0542  0.2960
 1019MOL0     C40552  11.033   6.339   1.053 -0.6562 -0.0736  0.5165
 1019MOL0     H40553  11.130   6.004   1.421  0.1901  0.8259 -0.2375
 1019MOL0     H40554  10.983   5.852   1.599 -0.3604 -1.9871  0.5594
 1019MOL0     H40555  10.651   5.615   1.437 -0.6115 -0.9802 -0.0329
 1019MOL0     H40556  10.652   5.740   1.565 -1.0244  0.3689 -2.2710
 1019MOL0     H40557  10.629   5.590   1.738 -0.8260  1.3973 -1.0546
 1019MOL0     H40558  10.524   5.525   1.612 -0.9224  2.2614  0.8665
 1019MOL0     H40559  10.811   5.413   1.663  0.3130  1.4561 -1.4160
 1019MOL0     H40560  10.664   5.356   1.752 -1.1531 -0.1076  0.7507
 1019MOL0     H40561  10.562   5.278   1.538  0.6488 -1.8791 -0.4886
 1019MOL0     H40562  10.688   5.357   1.447  0.0106  3.0571  1.2914
 1019MOL0     H40563  10.857   5.211   1.592 -0.5573 -0.9888  2.2017
 1019MOL0     H40564  10.767   5.145   1.445 -2.1828  0.2311 -0.9682
 1019MOL0     H40565  10.632   5.133   1.720 -1.8395 -1.4061  1.3749
 1019MOL0     H40566  10.608   5.040   1.572  1.4090  0.9850 -1.8089
 1019MOL0     H40567  10.853   5.008   1.748  0.1621 -1.8245  0.7715
 1019MOL0     H40568  10.828   4.943   1.583 -0.0473 -1.1762  0.2312
 1019MOL0     H40569  10.629   4.889   1.814 -1.4222 -0.4240 -2.2344
 1019MOL0     H40570  10.634   4.801   1.670 -1.9948 -1.4892  2.8790
 1019MOL0     H40571  10.648   4.687   1.958 -0.9301 -3.8097 -2.1588
 1019MOL0     H40572  10.912   4.424   2.027 -2.3375 -1.5341  0.9539
 1019MOL0     H40573  10.741   4.480   2.069 -0.4668 -0.4621 -1.7927
 1019MOL0     H40574  10.833   4.671   2.192 -1.0661 -1.6075  0.5994
 1019MOL0     H40575  10.894   4.523   2.258 -0.6563 -2.0585 -0.9963
 1019MOL0     H40576  11.114   4.569   2.098 -1.7435 -0.0645 -1.4788
 1019MOL0     H40577  11.038   4.719   2.058  1.6429 -0.2019 -1.3788
 1019MOL0     H40578  11.022   4.765   2.321  0.1680  2.6203 -0.9723
 1019MOL0     H40579  11.171   4.661   2.323  2.0238  0.8936 -0.7988
 1019MOL0     H40580  11.309   5.034   2.149 -0.4209  1.2920  1.2580
 1019MOL0     H40581  11.366   5.235   2.067 -0.1223 -3.6129  0.3058
 1019MOL0     H40582  11.264   5.372   2.126  0.6823 -2.8582  2.9131
 1019MOL0     H40583  11.240   5.305   1.964 -1.6492 -0.0208  0.4332
 1019MOL0     H40584  10.939   5.509   1.896 -0.1892 -3.0515  2.7078
 1019MOL0     H40585  10.822   5.735   1.818 -0.0535  0.9197  0.2398
 1019MOL0     H40586  10.836   5.937   1.779 -2.6534 -0.8434 -1.4143
 1019MOL0     H40587  10.679   5.897   1.835 -0.5019 -0.3952  0.5960
 1019MOL0     H40588  10.795   6.182   1.797  0.3576  1.2621  0.6406
 1019MOL0     H40589  10.638   6.111   1.742  0.8199 -0.9219 -0.2606
 1019MOL0     H40590  10.634   6.284   1.933 -1.3909 -0.6377 -2.0156
 1019MOL0     H40591  10.713   6.174   2.033 -1.8322  2.1375  0.8456
 1019MOL0     H40592  10.535   6.012   2.018 -1.0255 -0.5993  0.0618
 1019MOL0     H40593  10.437   6.127   1.919  1.4061  2.7122 -0.2589
 1019MOL0     H40594  10.459   6.291   2.111  0.8569 -0.3119 -0.8200
 1019MOL0     H40595  10.360   6.142   2.130 -0.5078  0.6892 -0.3659
 1019MOL0     H40596  10.632   6.197   2.246  0.9330 -1.2410 -0.7518
 1019MOL0     H40597  10.547   6.035   2.260  0.2896  0.4785 -0.8050
 1019MOL0     H40598  10.360   6.125   2.366 -2.6260  4.1934  0.2373
 1019MOL0     H40599  10.415   6.289   2.346  0.9443  0.6838 -2.4576
 1019MOL0     H40600  10.633   6.215   2.479 -0.8399 -2.8054 -1.5053
 1019MOL0     H40601  10.552   6.070   2.509 -0.1335 -0.5555  0.8067
 1019MOL0     H40602  10.854   5.856   2.230  1.9897 -1.2710  0.4560
 1019MOL0     H40603  10.963   5.633   2.287  2.1460 -0.1133  0.3385
 1019MOL0     H40604  10.818   5.128   2.137  0.5678  1.5137 -0.4476
 1019MOL0     H40605  10.915   4.894   2.199  0.1645  1.4783  0.3470
 1019MOL0     H40606  10.837   5.620   1.280 -0.3238  0.3209  0.4685
 1019MOL0     H40607  10.987   5.749   1.121  2.7631  5.0149 -1.9226
 1019MOL0     H40608  11.221   5.907   0.934 -1.3271 -0.4969  0.7219
 1019MOL0     H40609  11.365   6.020   0.780 -0.8037 -0.7763  1.5150
 1019MOL0     H40610  11.500   6.394   0.627  0.5799  0.3572  1.2844
 1019MOL0     H40611  11.352   6.470   0.669  0.6264  1.6988  2.8633
 1019MOL0     H40612  11.506   6.342   0.882 -0.0361 -1.4320 -2.1916
 1019MOL0     H40613  11.403   6.481   0.901 -0.6323  0.0326 -1.4382
 1019MOL0     H40614  11.568   6.640   0.809 -0.5952 -1.5583 -1.6428
 1019MOL0     H40615  11.645   6.571   0.936 -0.4285  1.1190  0.5014
 1019MOL0     H40616  11.684   6.517   0.650 -2.4650 -1.2037  0.2997
 1019MOL0     H40617  11.718   6.381   0.754  5.8710 -0.1898  0.2165
 1019MOL0     H40618  12.081   6.572   0.790 -0.1226  2.2513  0.6810
 1019MOL0     H40619  11.184   6.404   0.843 -3.3787  1.2293  3.4930
 1019MOL0     H40620  10.927   6.320   1.035 -0.1405  0.8929 -5.7364
 1019MOL0     H40621  11.063   6.330   1.158 -2.4581 -2.1699  0.9377
 1019MOL0     H40622  11.038   6.441   1.016 -1.1019 -1.2050 -3.0402
 1020MOL0     O40623   5.238  10.086   4.401  0.4659 -0.1241  0.8050
 1020MOL0     C40624   5.210  10.197   4.450 -0.7344  0.0389 -0.6491
 1020MOL0     O40625   5.127  10.288   4.394 -0.5660 -0.3225  0.2135
 1020MOL0     C40626   5.035  10.240   4.299 -0.2065 -0.4113  0.4447
 1020MOL0     C40627   4.942  10.144   4.326  0.4589  0.0296 -0.6537
 1020MOL0     C40628   4.837  10.129   4.232  0.8619  0.6690 -0.5662
 1020MOL0     C40629   4.817  10.210   4.123  0.0156 -0.3867  0.3096
 1020MOL0     O40630   4.715  10.196   4.033  0.8572 -0.5283 -0.1879
 1020MOL0     C40631   4.731  10.252   3.900  0.3569 -0.5871  0.5434
 1020MOL0     C40632   4.831  10.182   3.808 -0.4235 -0.3039 -0.4022
 1020MOL0     C40633   4.787  10.054   3.753  1.0492 -0.2505 -0.2378
 1020MOL0     C40634   4.740   9.963   3.856  0.0165  0.6046 -0.1331
 1020MOL0     C40635   4.697   9.829   3.789 -0.5309  0.1779 -0.5099
 1020MOL0     C40636   4.555   9.839   3.725 -0.7838  0.8420  0.0962
 1020MOL0     C40637   4.506   9.699   3.671  0.7681 -0.4887 -0.1415
 1020MOL0     C40638   4.374   9.719   3.590  0.0577 -0.2434  0.4730
 1020MOL0     N40639   4.314   9.602   3.521  0.3090  0.6117  0.0267
 1020MOL0     C40640   4.238   9.506   3.591  0.0730 -0.1889  0.5675
 1020MOL0     C40641   4.209   9.403   3.512 -0.3322  0.4639  0.0132
 1020MOL0     C40642   4.129   9.282   3.535 -0.3585  0.2802 -0.5613
 1020MOL0     C40643   4.210   9.189   3.628 -0.4643  0.5357 -0.1587
 1020MOL0     C40644   4.348   9.148   3.579 -0.3138  1.1687  0.4302
 1020MOL0     C40645   4.442   9.144   3.696 -0.4496  1.2028 -0.2664
 1020MOL0     O40646   4.510   9.266   3.729 -0.4853 -0.5623 -0.0775
 1020MOL0     C40647   4.618   9.261   3.807  0.3391  0.0673 -0.5364
 1020MOL0     C40648   4.657   9.149   3.882 -0.2735  0.5501 -0.4158
 1020MOL0     C40649   4.768   9.159   3.968 -0.6968  0.6705 -0.1233
 1020MOL0     C40650   4.803   9.054   4.062  0.3744  0.7161 -0.6378
 1020MOL0     C40651   4.844   9.279   3.976  1.2430 -0.7550 -0.6562
 1020MOL0     C40652   4.969   9.302   4.057  0.1819  0.1082  0.6429
 1020MOL0     O40653   5.080   9.225   4.044  0.4241  0.2831 -0.3826
 1020MOL0     C40654   5.207   9.257   4.091 -0.4548 -0.3924  0.4083
 1020MOL0     C40655   5.293   9.157   4.150  0.8454  0.3183  0.1094
 1020MOL0     C40656   5.413   9.187   4.203 -0.3698  0.2435 -0.1887
 1020MOL0     C40657   5.464   9.314   4.196  0.4891 -0.3220 -0.4932
 1020MOL0     O40658   5.578   9.358   4.246  0.0540  0.6667 -0.1356
 1020MOL0     C40659   5.680   9.260   4.265 -0.9659 -0.0122 -0.0599
 1020MOL0     C40660   5.807   9.314   4.206 -0.5058  0.2072  0.3450
 1020MOL0     C40661   5.875   9.423   4.287 -0.6462  0.7963  0.3756
 1020MOL0     C40662   5.972   9.479   4.182 -0.2304 -0.4452 -0.1264
 1020MOL0     C40663   6.022   9.620   4.228  0.5584  0.5301  0.5246
 1020MOL0     C40664   6.124   9.671   4.131 -0.3586  0.5973  0.8920
 1020MOL0     C40665   6.218   9.763   4.204 -0.5918  0.4014 -0.5863
 1020MOL0     C40666   6.349   9.694   4.253 -1.5624  0.1246 -0.7690
 1020MOL0    Cl40667   6.315   9.579   4.392 -0.4007  0.0618  0.4965
 1020MOL0     C40668   5.380   9.416   4.140 -0.4108 -0.2996  0.3163
 1020MOL0     C40669   5.257   9.392   4.085 -0.2415 -0.3166  0.2500
 1020MOL0     O40670   4.958   9.398   4.133  0.5284  0.5744 -0.2361
 1020MOL0     C40671   4.786   9.393   3.916 -0.0620  0.4469  0.4145
 1020MOL0     C40672   4.683   9.382   3.826 -1.3570  0.2333 -0.9985
 1020MOL0     N40673   4.253   9.451   3.386 -0.9155  0.2113  0.5438
 1020MOL0     N40674   4.309   9.567   3.393 -0.6374 -0.1468 -0.7159
 1020MOL0     C40675   4.924  10.307   4.105  0.5526 -0.1712 -0.2015
 1020MOL0     C40676   5.031  10.319   4.190 -0.4978 -0.3421 -0.1743
 1020MOL0     C40677   5.272  10.224   4.580  0.7507  0.9580 -0.1774
 1020MOL0     C40678   5.406  10.259   4.577  0.1909  0.4066  0.7986
 1020MOL0     C40679   5.475  10.284   4.699  0.7550 -0.1569  0.2271
 1020MOL0     C40680   5.399  10.299   4.822 -0.5370  0.4327  0.4757
 1020MOL0     O40681   5.466  10.336   4.934 -0.0593 -0.2161 -0.4054
 1020MOL0     C40682   5.399  10.337   5.061  0.2467 -0.6877  0.0747
 1020MOL0     C40683   5.487  10.379   5.175  1.0592 -0.5465 -0.4214
 1020MOL0     C40684   5.616  10.281   5.192  0.0138  0.2275  0.7294
 1020MOL0     C40685   5.667  10.290   5.336  0.6235  0.1304 -0.0754
 1020MOL0     C40686   5.697  10.434   5.367 -0.6472 -0.2018 -0.9219
 1020MOL0     C40687   5.689  10.556   5.405 -0.2412 -0.5780  0.4440
 1020MOL0     C40688   5.260  10.271   4.818 -0.4105  0.0579 -1.2157
 1020MOL0     C40689   5.195  10.229   4.703  0.2682  0.5977  0.0575
 1020MOL0     C40690   5.046  10.200   4.701 -0.2188  0.5097  0.6519
 1020MOL0     H40691   4.951  10.080   4.414 -0.4376 -1.5059 -1.6324
 1020MOL0     H40692   4.762  10.054   4.252 -0.1433  1.4655 -1.2738
 1020MOL0     H40693   4.738  10.359   3.919 -0.6524 -0.0420 -1.8090
 1020MOL0     H40694   4.636  10.237   3.849  0.1422  2.5770 -0.1777
 1020MOL0     H40695   4.845  10.249   3.723 -0.3053  0.4983  0.2319
 1020MOL0     H40696   4.923  10.169   3.865 -0.1273 -1.1716 -1.0610
 1020MOL0     H40697   4.708  10.051   3.678 -0.2703 -2.6607  1.0818
 1020MOL0     H40698   4.864   9.994   3.704  0.2472 -1.0274 -0.5882
 1020MOL0     H40699   4.808   9.950   3.940 -2.3885 -1.4807  1.6887
 1020MOL0     H40700   4.655  10.015   3.903  0.9885  4.1973 -1.9653
 1020MOL0     H40701   4.686   9.761   3.874  0.9516  2.7393  1.9325
 1020MOL0     H40702   4.781   9.792   3.730 -0.3453  0.1349 -0.2230
 1020MOL0     H40703   4.489   9.886   3.799 -0.0831  0.4811  0.9695
 1020MOL0     H40704   4.561   9.909   3.641  0.6309  0.0097 -0.5273
 1020MOL0     H40705   4.491   9.633   3.758 -0.3926 -1.5402 -1.1023
 1020MOL0     H40706   4.582   9.668   3.599  0.7992  1.5810 -1.0702
 1020MOL0     H40707   4.296   9.766   3.651 -1.1359  0.8903 -1.7721
 1020MOL0     H40708   4.407   9.783   3.508  1.2723 -0.4134  0.8167
 1020MOL0     H40709   4.219   9.516   3.698  0.8802 -1.4416  0.8453
 1020MOL0     H40710   4.095   9.244   3.438 -0.5571 -1.1024  0.0259
 1020MOL0     H40711   4.039   9.295   3.595  0.6418  0.5501  0.9363
 1020MOL0     H40712   4.214   9.241   3.723  0.4791 -0.7723  0.5509
 1020MOL0     H40713   4.154   9.100   3.657 -1.9079  1.2444 -0.6561
 1020MOL0     H40714   4.353   9.048   3.535  4.2084  0.4663  1.9709
 1020MOL0     H40715   4.389   9.217   3.505  1.1778 -1.8118 -1.7358
 1020MOL0     H40716   4.392   9.108   3.786  1.2481  2.3102  1.1769
 1020MOL0     H40717   4.519   9.071   3.671 -0.0623  0.9316  1.5998
 1020MOL0     H40718   4.597   9.059   3.873 -2.4240  2.0238 -1.8008
 1020MOL0     H40719   4.734   8.970   4.051 -1.3612  2.2050 -1.9115
 1020MOL0     H40720   4.814   9.082   4.167  2.2285 -1.2780 -0.2233
 1020MOL0     H40721   4.903   9.013   4.043 -0.0625  0.6153 -3.0716
 1020MOL0     H40722   5.261   9.054   4.163  0.0059  0.7419  1.7493
 1020MOL0     H40723   5.462   9.103   4.251  2.6646  4.1468  4.5086
 1020MOL0     H40724   5.690   9.251   4.373 -2.4112 -0.3241  0.0601
 1020MOL0     H40725   5.654   9.161   4.226 -0.5522 -0.1326 -0.0421
 1020MOL0     H40726   5.878   9.231   4.201  0.3089  0.7670  2.0000
 1020MOL0     H40727   5.791   9.342   4.101  0.8910 -1.9655 -0.5266
 1020MOL0     H40728   5.933   9.389   4.374 -1.7765 -0.2107  0.7539
 1020MOL0     H40729   5.801   9.501   4.306 -1.3130  0.5467 -1.0737
 1020MOL0     H40730   5.922   9.493   4.085 -0.1430  2.3946  0.1538
 1020MOL0     H40731   6.054   9.409   4.165  1.1392  1.3513 -1.3934
 1020MOL0     H40732   5.943   9.696   4.223  1.1208  1.1020  0.2296
 1020MOL0     H40733   6.054   9.612   4.332  0.4269  0.5437  0.5665
 1020MOL0     H40734   6.082   9.730   4.048 -3.3442  0.3901  2.1210
 1020MOL0     H40735   6.172   9.584   4.087 -0.3187 -0.6729  3.3160
 1020MOL0     H40736   6.157   9.792   4.289 -0.2583  1.4040 -0.6816
 1020MOL0     H40737   6.241   9.853   4.146  0.4152  0.3252 -0.3241
 1020MOL0     H40738   6.419   9.775   4.275 -2.4258  0.4906  0.8054
 1020MOL0     H40739   6.386   9.629   4.173 -3.5454 -1.5138 -0.4100
 1020MOL0     H40740   5.419   9.517   4.140 -0.4761 -0.2585 -0.7841
 1020MOL0     H40741   5.198   9.473   4.044 -1.8403 -1.0717  0.9722
 1020MOL0     H40742   4.840   9.486   3.929 -0.4139  0.2632  4.4820
 1020MOL0     H40743   4.661   9.466   3.761  0.6483  0.7394 -1.0762
 1020MOL0     H40744   4.921  10.368   4.015  1.8016 -0.4275 -0.4349
 1020MOL0     H40745   5.103  10.397   4.168 -2.0793  1.8436  1.8878
 1020MOL0     H40746   5.459  10.240   4.485 -0.8128  0.1021  0.2698
 1020MOL0     H40747   5.582  10.303   4.697  0.5145  1.4121  0.8009
 1020MOL0     H40748   5.316  10.409   5.058  0.1101 -0.8627 -1.3434
 1020MOL0     H40749   5.349  10.242   5.077 -0.2307 -0.5944 -0.7847
 1020MOL0     H40750   5.426  10.379   5.266 -0.4000  3.5389 -1.1952
 1020MOL0     H40751   5.517  10.483   5.167  0.8620 -0.4408  0.1949
 1020MOL0     H40752   5.588  10.178   5.170  0.4725  0.2378  0.0677
 1020MOL0     H40753   5.693  10.318   5.124 -1.4638  2.1822  0.0127
 1020MOL0     H40754   5.756  10.229   5.354  2.4282  3.1473  2.3286
 1020MOL0     H40755   5.587  10.254   5.402 -1.3870 -3.3466 -3.9425
 1020MOL0     H40756   5.687  10.657   5.441 -2.6175 -0.1306 -0.7238
 1020MOL0     H40757   5.206  10.289   4.911 -1.6981  0.6113 -2.0491
 1020MOL0     H40758   5.014  10.159   4.798 -2.3831 -0.4982 -0.4211
 1020MOL0     H40759   5.000  10.293   4.666  3.6761  1.5926 -2.3237
 1020MOL0     H40760   5.025  10.122   4.627 -0.4263 -0.3502  1.5917
 1021MOL0     O40761   1.549   2.001   2.530  0.0900  0.7890 -0.6342
 1021MOL0     C40762   1.607   1.901   2.490  0.4823 -0.7778 -0.1632
 1021MOL0     O40763   1.620   1.787   2.556  0.2175  0.0540 -0.7059
 1021MOL0     C40764   1.561   1.776   2.680  1.9223 -0.2413 -0.3110
 1021MOL0     C40765   1.419   1.762   2.702 -0.2698 -0.0049  0.3467
 1021MOL0     C40766   1.366   1.767   2.835 -0.2876  0.5801 -0.6336
 1021MOL0     C40767   1.451   1.772   2.938  0.6335  0.3625 -0.3785
 1021MOL0     O40768   1.416   1.790   3.074  0.0896 -0.2676 -0.0838
 1021MOL0     C40769   1.281   1.766   3.128 -0.9288  0.8516  0.8499
 1021MOL0     C40770   1.284   1.806   3.275  0.1637 -0.3086  0.5872
 1021MOL0     C40771   1.145   1.814   3.334  0.4603 -0.1842 -0.0861
 1021MOL0     C40772   1.071   1.677   3.325  0.6314  0.1074  0.3891
 1021MOL0     C40773   0.960   1.648   3.426 -0.8253 -0.1658  0.5224
 1021MOL0     C40774   0.854   1.549   3.364  0.3761 -1.0654 -1.3936
 1021MOL0     C40775   0.799   1.461   3.478  1.2585  0.2345 -0.6742
 1021MOL0     C40776   0.735   1.545   3.594 -0.0930 -0.9749  0.0014
 1021MOL0     N40777   0.677   1.460   3.702 -0.7471 -0.0853  0.7749
 1021MOL0     C40778   0.606   1.350   3.683 -0.2775 -0.2809 -0.2235
 1021MOL0     C40779   0.608   1.292   3.809 -0.2592  0.7723  0.0263
 1021MOL0     C40780   0.527   1.175   3.843  0.3689 -0.2815  0.2077
 1021MOL0     C40781   0.411   1.204   3.939  0.5728  0.1782  0.5114
 1021MOL0     C40782   0.453   1.270   4.073 -0.2523 -0.1375  0.1782
 1021MOL0     C40783   0.324   1.289   4.153  0.1405  0.8634 -1.3470
 1021MOL0     O40784   0.347   1.341   4.288  0.4380 -0.0307  0.1496
 1021MOL0     C40785   0.311   1.477   4.310  0.4372  0.9043  0.3755
 1021MOL0     C40786   0.387   1.543   4.409  0.2618 -0.6936  0.1843
 1021MOL0     C40787   0.351   1.670   4.454 -0.3024  1.4836 -0.2193
 1021MOL0     C40788   0.433   1.723   4.573 -0.3979  0.1001 -0.6785
 1021MOL0     C40789   0.254   1.746   4.379  0.2571 -0.6618 -1.3008
 1021MOL0     C40790   0.217   1.886   4.404  0.5302 -0.6206 -0.0890
 1021MOL0     O40791   0.145   1.949   4.301 -0.3032  0.5513  0.6159
 1021MOL0     C40792   0.103   2.076   4.321 -0.6308 -0.4671 -0.0139
 1021MOL0     C40793   0.168   2.187   4.262  0.0154  0.3299 -0.1178
 1021MOL0     C40794   0.127   2.317   4.268  0.0887  0.0913 -0.4241
 1021MOL0     C40795   0.005   2.350   4.333 -0.6089  0.5808 -0.0450
 1021MOL0     O40796  -0.044   2.476   4.349 -0.0116 -0.4860  0.6482
 1021MOL0     C40797  -0.015   2.556   4.236 -0.1060 -0.2364  0.6071
 1021MOL0     C40798  -0.101   2.689   4.256  0.4087  0.5185 -0.8053
 1021MOL0     C40799  -0.085   2.766   4.137  0.2413  0.1199 -0.2741
 1021MOL0     C40800  -0.183   2.882   4.138 -0.4278  0.2396 -0.4916
 1021MOL0     C40801  -0.166   2.990   4.031  0.1015  0.5392 -0.4763
 1021MOL0     C40802  -0.222   2.962   3.892  0.3957  0.3013  0.2740
 1021MOL0     C40803  -0.364   2.914   3.863  1.2226  0.2057 -0.4956
 1021MOL0     C40804  -0.444   2.963   3.742  0.5033  0.1421 -0.4627
 1021MOL0    Cl40805  -0.379   2.888   3.592  0.0566  0.1409 -0.0454
 1021MOL0     C40806  -0.053   2.247   4.409 -0.1404 -0.1503 -0.4809
 1021MOL0     C40807  -0.016   2.113   4.397  0.3535  0.3560  0.2254
 1021MOL0     O40808   0.243   1.945   4.504  0.6176 -0.0543 -0.4134
 1021MOL0     C40809   0.190   1.684   4.276 -0.0132 -0.3406  0.5625
 1021MOL0     C40810   0.206   1.547   4.249  0.5680 -0.6458 -0.6914
 1021MOL0     N40811   0.697   1.358   3.888 -0.1555  0.2206 -0.4780
 1021MOL0     N40812   0.741   1.457   3.824  0.3415  0.3372 -0.2357
 1021MOL0     C40813   1.587   1.782   2.922 -0.1544  0.4550  0.4350
 1021MOL0     C40814   1.645   1.778   2.791  0.1195 -0.4015 -0.5330
 1021MOL0     C40815   1.699   1.897   2.370  0.7116 -0.4359 -0.0327
 1021MOL0     C40816   1.799   1.805   2.363 -0.8298  1.0453 -0.0018
 1021MOL0     C40817   1.900   1.803   2.259 -0.0596  0.0457  0.5781
 1021MOL0     C40818   1.890   1.881   2.145  0.2099 -0.0001  0.0198
 1021MOL0     O40819   2.002   1.884   2.062 -0.0672  0.3418 -0.1218
 1021MOL0     C40820   2.025   2.002   1.992  0.5696 -0.1957  0.7244
 1021MOL0     C40821   2.127   1.998   1.878 -0.5029  0.4169  0.6974
 1021MOL0     C40822   2.171   2.134   1.830 -0.1593  0.3219 -0.4256
 1021MOL0     C40823   2.278   2.135   1.719 -0.0169  0.0085  0.1648
 1021MOL0     C40824   2.394   2.065   1.761  0.6854  0.6864  0.8643
 1021MOL0     C40825   2.500   2.007   1.761  0.3765  0.6578  0.5091
 1021MOL0     C40826   1.781   1.971   2.149  0.2325 -0.7123  0.1643
 1021MOL0     C40827   1.688   1.987   2.260  0.1847 -0.0504  0.2381
 1021MOL0     C40828   1.574   2.085   2.252 -0.1372  0.4001  0.2713
 1021MOL0     H40829   1.362   1.762   2.610 -2.3394 -0.2393  1.5786
 1021MOL0     H40830   1.258   1.771   2.842 -0.3729  1.3968 -2.1675
 1021MOL0     H40831   1.256   1.660   3.127  0.4779  0.4958  0.8307
 1021MOL0     H40832   1.215   1.836   3.077  1.5580  0.2085 -3.8022
 1021MOL0     H40833   1.350   1.743   3.334  0.2850  0.2055  1.0135
 1021MOL0     H40834   1.332   1.904   3.284 -0.9482  0.4242 -0.9714
 1021MOL0     H40835   1.159   1.852   3.436 -0.3046 -1.9829  0.7436
 1021MOL0     H40836   1.092   1.895   3.283 -1.2178 -1.3862 -0.3483
 1021MOL0     H40837   1.023   1.664   3.228  2.5203 -2.8119 -0.3212
 1021MOL0     H40838   1.143   1.594   3.322  1.1960  0.6067 -1.7935
 1021MOL0     H40839   0.912   1.742   3.455 -1.3224  0.0365 -0.8578
 1021MOL0     H40840   1.007   1.608   3.515  1.2180  1.4352  0.2278
 1021MOL0     H40841   0.778   1.610   3.313 -1.8402 -0.9713  1.7786
 1021MOL0     H40842   0.884   1.468   3.296 -0.6065 -2.6392 -0.0333
 1021MOL0     H40843   0.884   1.406   3.518  0.1648 -1.7522 -0.9295
 1021MOL0     H40844   0.728   1.391   3.432  1.0280 -1.0625  1.5447
 1021MOL0     H40845   0.804   1.605   3.653 -2.1623 -0.4798  2.1022
 1021MOL0     H40846   0.661   1.618   3.560 -0.3432 -1.7294 -1.1332
 1021MOL0     H40847   0.556   1.320   3.592  1.1809  3.1621 -2.3844
 1021MOL0     H40848   0.603   1.109   3.887  1.8887  0.2083 -1.5625
 1021MOL0     H40849   0.503   1.131   3.746  1.5538  1.0160 -0.7067
 1021MOL0     H40850   0.353   1.280   3.885 -1.4842 -1.3360  0.5089
 1021MOL0     H40851   0.361   1.109   3.958  1.0187 -1.3199 -4.4057
 1021MOL0     H40852   0.528   1.213   4.128 -2.2554 -2.5969  0.5619
 1021MOL0     H40853   0.482   1.372   4.045  1.4663 -1.0463 -1.5757
 1021MOL0     H40854   0.263   1.360   4.097 -1.3133 -1.0846 -2.3365
 1021MOL0     H40855   0.272   1.193   4.164  1.7286  0.1537  0.7992
 1021MOL0     H40856   0.465   1.485   4.458 -0.0053 -2.0479 -0.9332
 1021MOL0     H40857   0.510   1.791   4.535 -0.9129  1.8674  1.2330
 1021MOL0     H40858   0.488   1.646   4.628 -2.2799 -0.7938  0.0485
 1021MOL0     H40859   0.380   1.773   4.655 -0.2984 -4.2333  2.4327
 1021MOL0     H40860   0.240   2.168   4.183 -0.0128  1.9031 -0.5529
 1021MOL0     H40861   0.175   2.397   4.212 -2.0023  0.6483 -1.5352
 1021MOL0     H40862   0.092   2.580   4.239  0.3490 -1.4876 -2.0919
 1021MOL0     H40863  -0.042   2.494   4.150 -2.8574 -1.3225  2.1181
 1021MOL0     H40864  -0.206   2.672   4.283  0.2823  0.5485 -1.2657
 1021MOL0     H40865  -0.056   2.754   4.332  0.6976 -0.1360 -0.4017
 1021MOL0     H40866  -0.123   2.708   4.052  0.4711 -0.0423 -0.2667
 1021MOL0     H40867   0.021   2.787   4.122  0.4551  0.2293  1.2702
 1021MOL0     H40868  -0.168   2.932   4.234 -0.1599 -0.6302 -0.0723
 1021MOL0     H40869  -0.288   2.851   4.146  0.1650 -1.9833 -0.6954
 1021MOL0     H40870  -0.231   3.070   4.067 -0.1117  1.1358 -2.1330
 1021MOL0     H40871  -0.062   3.024   4.029 -0.5534  3.2280  2.5168
 1021MOL0     H40872  -0.150   2.884   3.867 -0.7338 -0.6902  0.0144
 1021MOL0     H40873  -0.202   3.052   3.833 -0.9111  0.4345  0.0012
 1021MOL0     H40874  -0.415   2.952   3.951  2.1803  1.8743 -0.6093
 1021MOL0     H40875  -0.345   2.806   3.863  0.4937  0.0009  2.6951
 1021MOL0     H40876  -0.438   3.072   3.734  2.2469  0.4651  3.2110
 1021MOL0     H40877  -0.552   2.942   3.745  0.5501 -0.8420 -3.0676
 1021MOL0     H40878  -0.121   2.281   4.486 -0.4400  0.1732 -0.8810
 1021MOL0     H40879  -0.048   2.023   4.449  1.3444 -0.4290 -0.4695
 1021MOL0     H40880   0.114   1.734   4.217 -1.4111 -0.3031  2.3108
 1021MOL0     H40881   0.148   1.492   4.176  2.1586 -0.7461 -1.9334
 1021MOL0     H40882   1.654   1.793   3.007  1.1934  0.4188 -0.5782
 1021MOL0     H40883   1.751   1.794   2.779 -0.0239  1.4274  0.2037
 1021MOL0     H40884   1.832   1.731   2.436 -2.0975 -1.9184 -2.2119
 1021MOL0     H40885   1.981   1.731   2.266 -0.0839 -0.3483 -2.1464
 1021MOL0     H40886   1.939   2.032   1.933  0.1913 -3.1506 -0.3818
 1021MOL0     H40887   2.048   2.078   2.068 -0.1774  0.6897  0.0926
 1021MOL0     H40888   2.087   1.945   1.790  1.0461 -2.1906  1.4486
 1021MOL0     H40889   2.217   1.942   1.906  0.3141  0.5993 -1.3542
 1021MOL0     H40890   2.078   2.185   1.805 -0.3888  0.3138  0.3984
 1021MOL0     H40891   2.202   2.194   1.916  1.3606  0.7534 -1.2377
 1021MOL0     H40892   2.308   2.237   1.690 -1.7471  0.1094 -1.4369
 1021MOL0     H40893   2.249   2.076   1.631 -0.6229 -0.8744  0.9462
 1021MOL0     H40894   2.598   1.963   1.755 -0.1418 -0.6282  1.0877
 1021MOL0     H40895   1.754   2.034   2.065 -3.6455 -2.1051  0.1701
 1021MOL0     H40896   1.601   2.161   2.326 -0.9335  0.5644  0.4024
 1021MOL0     H40897   1.565   2.131   2.153  0.1728  3.6649  1.6311
 1021MOL0     H40898   1.474   2.053   2.283 -0.0197  1.6237  2.0594
 1022MOL0     O40899   6.235   8.958   8.346 -1.1171  0.0388  0.0145
 1022MOL0     C40900   6.313   9.025   8.412 -0.2601  0.0925  1.1463
 1022MOL0     O40901   6.407   9.116   8.363  0.1333 -0.3104  0.3195
 1022MOL0     C40902   6.381   9.166   8.237 -0.8816 -0.0103 -0.3986
 1022MOL0     C40903   6.445   9.106   8.132 -0.4534  0.1431 -0.4747
 1022MOL0     C40904   6.425   9.149   8.000 -0.4973  0.5656  0.1769
 1022MOL0     C40905   6.363   9.272   7.971  0.2701 -0.1862 -0.3863
 1022MOL0     O40906   6.337   9.326   7.846 -0.2957  0.2436  0.2464
 1022MOL0     C40907   6.392   9.259   7.732 -0.6864 -0.1658 -0.7397
 1022MOL0     C40908   6.338   9.329   7.608 -0.1080  0.3987 -0.1427
 1022MOL0     C40909   6.423   9.284   7.481  0.0113 -0.4220 -0.1921
 1022MOL0     C40910   6.353   9.175   7.403 -0.6887 -0.3293  0.3312
 1022MOL0     C40911   6.423   9.123   7.282  0.5103 -0.2768 -0.2578
 1022MOL0     C40912   6.419   9.226   7.161 -0.2940 -1.2451 -1.3565
 1022MOL0     C40913   6.450   9.164   7.025 -0.1952 -0.9509  0.4595
 1022MOL0     C40914   6.324   9.084   6.982 -0.1812 -1.0436 -0.3149
 1022MOL0     N40915   6.325   9.053   6.840  0.8065 -0.0787  0.1306
 1022MOL0     C40916   6.438   9.009   6.772  0.8813  0.3359 -0.2879
 1022MOL0     C40917   6.399   9.033   6.643  0.0890  0.3070 -0.2681
 1022MOL0     C40918   6.492   8.992   6.523  0.0307  0.2809 -0.0607
 1022MOL0     C40919   6.463   8.853   6.470  0.4231  0.4561 -0.1123
 1022MOL0     C40920   6.585   8.796   6.387 -0.3143 -0.4386 -0.2256
 1022MOL0     C40921   6.558   8.654   6.329 -0.8108 -0.3083 -0.1106
 1022MOL0     O40922   6.669   8.602   6.264  1.0509  0.4881 -0.3038
 1022MOL0     C40923   6.721   8.670   6.157  0.4682  0.1878 -0.4601
 1022MOL0     C40924   6.656   8.761   6.073  0.1125 -0.4941  0.7373
 1022MOL0     C40925   6.721   8.806   5.961 -0.5102 -0.4520 -0.5917
 1022MOL0     C40926   6.644   8.910   5.878 -0.2727  0.2102 -0.1239
 1022MOL0     C40927   6.850   8.763   5.930  0.1001  0.5558  0.2017
 1022MOL0     C40928   6.925   8.811   5.811 -0.8409 -0.0671  0.5443
 1022MOL0     O40929   7.019   8.723   5.752  0.0232  0.0511  0.3772
 1022MOL0     C40930   7.079   8.744   5.623  0.2286 -0.0240  0.1010
 1022MOL0     C40931   7.198   8.684   5.607 -0.2092  0.1459  0.2053
 1022MOL0     C40932   7.260   8.673   5.481 -0.2495  0.9341 -0.5255
 1022MOL0     C40933   7.208   8.734   5.368  0.1968 -0.4912  0.2008
 1022MOL0     O40934   7.282   8.722   5.254 -0.2822 -0.4440 -0.6111
 1022MOL0     C40935   7.206   8.770   5.140  0.6558 -0.5537  0.0184
 1022MOL0     C40936   7.291   8.746   5.015  0.6594 -0.4948 -0.2116
 1022MOL0     C40937   7.317   8.603   4.983 -0.0766  0.0090 -0.2810
 1022MOL0     C40938   7.193   8.521   4.973 -0.1179  0.4600  0.5578
 1022MOL0     C40939   7.217   8.372   4.915  0.4245 -1.0125 -0.8515
 1022MOL0     C40940   7.270   8.376   4.773  0.0369 -0.4837  0.7835
 1022MOL0     C40941   7.322   8.243   4.722  0.0771  0.2055 -0.8582
 1022MOL0     C40942   7.364   8.231   4.575  0.5528 -0.6582 -0.0223
 1022MOL0    Cl40943   7.234   8.277   4.459 -0.0786  0.0183  0.1436
 1022MOL0     C40944   7.081   8.804   5.387 -0.8507  0.2834 -0.1956
 1022MOL0     C40945   7.018   8.810   5.515 -0.0536  0.8486  0.1098
 1022MOL0     O40946   6.898   8.923   5.765 -0.2583  0.7670  0.3578
 1022MOL0     C40947   6.906   8.665   6.011  0.0902 -0.0177 -0.4988
 1022MOL0     C40948   6.844   8.613   6.120 -0.1689 -0.6552 -0.4701
 1022MOL0     N40949   6.272   9.092   6.630 -0.9129  0.0723  0.3069
 1022MOL0     N40950   6.229   9.099   6.750  0.4224 -1.0979  0.4793
 1022MOL0     C40951   6.310   9.347   8.082 -0.5169 -0.0224  0.4750
 1022MOL0     C40952   6.308   9.284   8.208 -0.6303  0.1666 -0.3461
 1022MOL0     C40953   6.345   8.966   8.539 -0.2802  0.1147  0.5151
 1022MOL0     C40954   6.370   9.058   8.638 -0.6282 -0.8545  0.2399
 1022MOL0     C40955   6.395   9.021   8.768 -0.6518  0.0156 -0.2852
 1022MOL0     C40956   6.380   8.891   8.813 -1.1290  0.1254  1.6005
 1022MOL0     O40957   6.401   8.871   8.943 -0.3585 -0.5252  0.4402
 1022MOL0     C40958   6.352   8.748   8.986 -0.3389  0.2434 -0.0310
 1022MOL0     C40959   6.334   8.762   9.136 -0.3497 -0.1500  0.6707
 1022MOL0     C40960   6.272   8.631   9.193 -0.4984  0.1251  0.3479
 1022MOL0     C40961   6.264   8.652   9.346 -0.3758 -0.0062 -0.6325
 1022MOL0     C40962   6.198   8.533   9.405 -0.0317  0.2653 -0.4997
 1022MOL0     C40963   6.152   8.432   9.448 -1.0039  0.5479 -1.3020
 1022MOL0     C40964   6.356   8.794   8.710  0.2491 -0.2912  0.1129
 1022MOL0     C40965   6.343   8.827   8.578  0.1685 -0.6683  0.6420
 1022MOL0     C40966   6.339   8.714   8.474  0.3606 -0.0296  0.1022
 1022MOL0     H40967   6.511   9.020   8.137  1.6260  1.5106 -2.5507
 1022MOL0     H40968   6.466   9.097   7.915  2.0478  0.1001  1.5794
 1022MOL0     H40969   6.361   9.154   7.722  2.0916 -1.3390  1.5121
 1022MOL0     H40970   6.501   9.251   7.739 -0.8492 -1.0721  1.4685
 1022MOL0     H40971   6.236   9.295   7.591 -0.9056  1.3493  2.2680
 1022MOL0     H40972   6.351   9.437   7.615 -0.2126  0.3802  0.3790
 1022MOL0     H40973   6.439   9.372   7.418  0.1968  0.0298  0.4740
 1022MOL0     H40974   6.519   9.246   7.518  0.0391 -1.3470 -1.1467
 1022MOL0     H40975   6.339   9.095   7.477 -0.8859 -0.3298  0.2935
 1022MOL0     H40976   6.255   9.211   7.373  0.5771  0.8356 -2.8476
 1022MOL0     H40977   6.362   9.040   7.246  1.8249 -0.5667 -1.9669
 1022MOL0     H40978   6.524   9.087   7.305  1.7755  3.0836 -0.0525
 1022MOL0     H40979   6.323   9.277   7.155  0.0609 -0.7803 -4.3046
 1022MOL0     H40980   6.490   9.307   7.185 -2.0776 -0.0950  0.3863
 1022MOL0     H40981   6.542   9.107   7.011  0.8912  0.4973  1.3756
 1022MOL0     H40982   6.455   9.242   6.949  0.6066 -0.8219  0.6398
 1022MOL0     H40983   6.333   8.989   7.034 -0.5665 -0.6223  0.5512
 1022MOL0     H40984   6.230   9.136   7.005  0.7171  0.0599  1.0969
 1022MOL0     H40985   6.526   8.974   6.826  1.4732  2.0703 -0.0819
 1022MOL0     H40986   6.595   9.016   6.551 -0.3989 -1.5204  3.6459
 1022MOL0     H40987   6.480   9.073   6.450  0.5221  0.4503  0.0428
 1022MOL0     H40988   6.457   8.771   6.541 -1.3400 -1.3836 -2.2187
 1022MOL0     H40989   6.364   8.863   6.423 -1.3818 -0.3647  3.2262
 1022MOL0     H40990   6.607   8.865   6.305 -0.0934  1.5963  1.4506
 1022MOL0     H40991   6.672   8.803   6.453 -1.2505 -1.0042  1.1198
 1022MOL0     H40992   6.524   8.594   6.414  2.0598 -0.2829  1.1592
 1022MOL0     H40993   6.479   8.674   6.256 -0.2829 -0.7166 -0.8024
 1022MOL0     H40994   6.553   8.791   6.091  0.2528  1.2644 -1.1191
 1022MOL0     H40995   6.644   8.894   5.770 -0.7370 -1.0585  0.0523
 1022MOL0     H40996   6.694   9.005   5.899  3.0690 -1.5982  0.9057
 1022MOL0     H40997   6.538   8.929   5.896 -0.8036 -1.6913 -1.0098
 1022MOL0     H40998   7.255   8.636   5.686  1.2413  0.0852 -0.8370
 1022MOL0     H40999   7.360   8.631   5.475 -0.0691  0.3211  3.5728
 1022MOL0     H41000   7.103   8.735   5.130  1.3214 -2.5962 -0.0955
 1022MOL0     H41001   7.207   8.879   5.141  0.8298 -0.5536 -0.0229
 1022MOL0     H41002   7.249   8.786   4.922  0.1590 -1.1643 -0.2751
 1022MOL0     H41003   7.376   8.804   5.051 -1.3539  1.9995  0.7913
 1022MOL0     H41004   7.383   8.556   5.056  4.4542  2.2687 -2.5056
 1022MOL0     H41005   7.369   8.602   4.887  0.1826  0.3055 -0.1461
 1022MOL0     H41006   7.118   8.576   4.915  0.5469 -0.9058 -1.6902
 1022MOL0     H41007   7.149   8.513   5.073  0.8502  1.1045  1.0557
 1022MOL0     H41008   7.298   8.321   4.967  1.5250  1.3789 -0.0400
 1022MOL0     H41009   7.120   8.323   4.928 -1.2425  2.4744  1.3675
 1022MOL0     H41010   7.348   8.447   4.743  0.0833  0.0896  2.1937
 1022MOL0     H41011   7.177   8.390   4.718 -0.1907 -0.0488  1.2697
 1022MOL0     H41012   7.240   8.174   4.742 -0.3181  1.2034  1.2891
 1022MOL0     H41013   7.412   8.207   4.774 -0.4647 -1.6069 -1.1343
 1022MOL0     H41014   7.407   8.132   4.559  2.0017 -0.1097  0.2812
 1022MOL0     H41015   7.446   8.303   4.570 -1.8258  2.3199  0.9353
 1022MOL0     H41016   7.034   8.852   5.302  0.2095  0.0399 -0.9383
 1022MOL0     H41017   6.915   8.844   5.513 -0.1261  0.6891 -2.1760
 1022MOL0     H41018   7.007   8.635   5.984 -0.6335  0.0342 -3.7388
 1022MOL0     H41019   6.893   8.543   6.187 -2.8985 -0.3505  2.0928
 1022MOL0     H41020   6.255   9.437   8.058  4.0611  3.0638  0.4718
 1022MOL0     H41021   6.258   9.335   8.289 -1.6316 -0.1778 -0.7298
 1022MOL0     H41022   6.388   9.163   8.615  0.1210 -0.6305  1.7124
 1022MOL0     H41023   6.420   9.099   8.839  0.2015 -0.0040 -0.5550
 1022MOL0     H41024   6.254   8.733   8.939 -0.7963  1.0112  0.6539
 1022MOL0     H41025   6.428   8.673   8.960 -0.2239  0.4242 -0.2127
 1022MOL0     H41026   6.252   8.830   9.157  0.0859  0.4022  0.5971
 1022MOL0     H41027   6.429   8.788   9.182 -1.0466 -0.3220  2.2695
 1022MOL0     H41028   6.173   8.615   9.149 -0.5388 -0.9468  0.7989
 1022MOL0     H41029   6.330   8.540   9.176 -3.8950 -2.0879 -0.3640
 1022MOL0     H41030   6.208   8.744   9.365 -0.0843 -0.4115  2.6667
 1022MOL0     H41031   6.363   8.674   9.387 -0.0246  0.3415 -1.6372
 1022MOL0     H41032   6.118   8.347   9.504 -0.9832 -0.0319 -2.1518
 1022MOL0     H41033   6.333   8.692   8.739  1.3475 -0.2495  1.1959
 1022MOL0     H41034   6.283   8.728   8.381 -0.2802 -4.3970 -0.3351
 1022MOL0     H41035   6.438   8.694   8.432  0.2147 -1.0631  0.2242
 1022MOL0     H41036   6.292   8.632   8.528  2.0539 -0.6999  0.6121
 1023MOL0     O41037   9.492   4.440   8.736  0.3569  0.2182  0.3061
 1023MOL0     C41038   9.611   4.452   8.725 -0.8787  0.0235 -0.1537
 1023MOL0     O41039   9.673   4.573   8.681  1.0105  0.1681 -0.4029
 1023MOL0     C41040   9.633   4.626   8.557  0.3128  0.8432 -0.8679
 1023MOL0     C41041   9.554   4.557   8.459  1.1036  0.5731 -1.1224
 1023MOL0     C41042   9.532   4.604   8.325  1.0676  0.4537 -0.8005
 1023MOL0     C41043   9.593   4.728   8.286 -0.1068  1.3983  0.2419
 1023MOL0     O41044   9.581   4.794   8.163  0.9161 -0.5463  0.1716
 1023MOL0     C41045   9.556   4.717   8.049  0.6324  0.7016 -1.0998
 1023MOL0     C41046   9.574   4.793   7.919 -0.6124 -0.1273 -0.0483
 1023MOL0     C41047   9.496   4.734   7.800 -0.0206 -0.4290  0.3272
 1023MOL0     C41048   9.573   4.615   7.742 -0.2914 -0.0696 -0.3264
 1023MOL0     C41049   9.506   4.556   7.618 -0.4929  0.2872 -0.4558
 1023MOL0     C41050   9.565   4.618   7.492  0.0955 -0.6396 -0.5329
 1023MOL0     C41051   9.493   4.542   7.383  0.3050 -0.6367 -0.2488
 1023MOL0     C41052   9.540   4.590   7.239  0.0936 -0.6012 -0.4676
 1023MOL0     N41053   9.481   4.503   7.130 -0.9608  0.0900 -0.1481
 1023MOL0     C41054   9.366   4.436   7.125  0.4632 -0.9100  0.1668
 1023MOL0     C41055   9.364   4.367   7.004  0.1876  1.0236  0.5652
 1023MOL0     C41056   9.252   4.279   6.956  0.3264 -0.0661  0.8749
 1023MOL0     C41057   9.156   4.347   6.838 -0.4395  1.3758  0.1263
 1023MOL0     C41058   9.025   4.420   6.865  0.2980  0.0889 -1.0158
 1023MOL0     C41059   9.049   4.542   6.958  0.1304  0.8451  0.7180
 1023MOL0     O41060   9.146   4.625   6.891  0.3489  0.7400 -0.0631
 1023MOL0     C41061   9.175   4.753   6.937  0.7742  0.6032 -0.5990
 1023MOL0     C41062   9.114   4.817   7.045  0.3721  0.2495  0.4717
 1023MOL0     C41063   9.145   4.951   7.084 -0.0260 -0.1027 -0.7653
 1023MOL0     C41064   9.058   4.995   7.199  0.4524 -0.0620  0.1731
 1023MOL0     C41065   9.240   5.018   7.014 -0.4582 -0.1053 -0.3936
 1023MOL0     C41066   9.278   5.152   7.041 -1.3879 -0.5976  0.9753
 1023MOL0     O41067   9.405   5.190   6.991  0.1012 -0.0045  0.1992
 1023MOL0     C41068   9.450   5.313   7.009  0.6340 -0.1661  0.5408
 1023MOL0     C41069   9.375   5.420   6.955  0.1435 -0.4934 -0.5179
 1023MOL0     C41070   9.431   5.547   6.958 -0.6781 -0.9365 -1.1564
 1023MOL0     C41071   9.560   5.574   7.010  0.5004 -0.6141  0.2083
 1023MOL0     O41072   9.633   5.697   7.016  0.0944  0.1851 -0.9321
 1023MOL0     C41073   9.550   5.813   7.007 -0.2733  0.7061  0.6397
 1023MOL0     C41074   9.629   5.920   7.094  0.1134 -0.2173  0.0054
 1023MOL0     C41075   9.635   5.886   7.247  0.7124 -0.0604 -0.9439
 1023MOL0     C41076   9.685   5.994   7.349  0.0347 -0.7131  0.2108
 1023MOL0     C41077   9.686   5.947   7.502  0.3357  0.4064  0.3487
 1023MOL0     C41078   9.776   6.027   7.600  0.0874 -0.6253 -0.3702
 1023MOL0     C41079   9.718   6.173   7.615 -0.4370  0.0125 -0.3894
 1023MOL0     C41080   9.794   6.239   7.734  0.7859  0.0563  0.4780
 1023MOL0    Cl41081   9.979   6.264   7.693  0.4447  0.2710 -0.0235
 1023MOL0     C41082   9.628   5.462   7.066 -0.2165  0.0441  0.6126
 1023MOL0     C41083   9.574   5.333   7.067 -0.3622  0.6341  0.3922
 1023MOL0     O41084   9.205   5.232   7.102  0.3838 -0.2272  0.5511
 1023MOL0     C41085   9.311   4.950   6.907  0.4966 -1.2358 -0.8249
 1023MOL0     C41086   9.277   4.822   6.878 -0.0441 -0.1423 -0.7895
 1023MOL0     N41087   9.487   4.390   6.943  0.4457 -0.1649  0.1876
 1023MOL0     N41088   9.550   4.469   7.018  0.2434  0.5712  0.3028
 1023MOL0     C41089   9.667   4.792   8.383 -0.2211  0.0075  1.1929
 1023MOL0     C41090   9.691   4.746   8.512 -0.2452 -0.6944 -0.2330
 1023MOL0     C41091   9.705   4.337   8.750  0.0091  1.2491 -0.8093
 1023MOL0     C41092   9.841   4.365   8.729  0.4240 -0.2486 -0.5189
 1023MOL0     C41093   9.936   4.263   8.747 -0.1476 -0.5858  0.2221
 1023MOL0     C41094   9.901   4.141   8.790 -0.3665  0.0920  0.7863
 1023MOL0     O41095   9.984   4.033   8.795 -0.4115 -0.3115 -0.1744
 1023MOL0     C41096  10.120   4.052   8.782 -0.7899  0.2120  0.3991
 1023MOL0     C41097  10.157   4.041   8.638  0.2222  1.3669 -0.3587
 1023MOL0     C41098  10.316   4.031   8.623 -0.2998 -0.0817 -1.3595
 1023MOL0     C41099  10.378   4.057   8.487 -0.7033 -0.9249 -0.4929
 1023MOL0     C41100  10.396   4.198   8.456 -0.0660  0.3958 -0.2855
 1023MOL0     C41101  10.441   4.307   8.439  0.5268 -0.3089 -0.9718
 1023MOL0     C41102   9.769   4.108   8.797 -0.0922 -0.0761  0.4809
 1023MOL0     C41103   9.662   4.204   8.790 -1.1038 -0.0498 -0.1465
 1023MOL0     C41104   9.523   4.161   8.813  0.0463 -0.2103 -0.5109
 1023MOL0     H41105   9.502   4.469   8.495  0.2789  1.1686 -0.8234
 1023MOL0     H41106   9.471   4.545   8.257 -2.4190  1.4419  1.2355
 1023MOL0     H41107   9.450   4.691   8.044  0.9507 -0.7487 -0.6004
 1023MOL0     H41108   9.613   4.624   8.051  0.5170  0.6371 -0.7656
 1023MOL0     H41109   9.532   4.893   7.932 -1.6832 -0.6428  0.5525
 1023MOL0     H41110   9.682   4.800   7.904 -0.8377  1.3797 -1.3159
 1023MOL0     H41111   9.398   4.695   7.830 -0.0287  0.9960  2.4516
 1023MOL0     H41112   9.479   4.816   7.730  0.6053  1.7712  2.6040
 1023MOL0     H41113   9.673   4.654   7.723 -1.0207  2.6466  0.9248
 1023MOL0     H41114   9.584   4.547   7.827  1.2953  1.7532  1.0149
 1023MOL0     H41115   9.397   4.569   7.623 -0.9374 -2.7643 -0.6821
 1023MOL0     H41116   9.528   4.449   7.611  0.6590  0.6425 -4.1178
 1023MOL0     H41117   9.537   4.724   7.498 -0.1430 -0.7852  2.7701
 1023MOL0     H41118   9.674   4.608   7.483  0.7710  0.4211  3.8825
 1023MOL0     H41119   9.385   4.559   7.392  0.3730 -1.0064  1.5494
 1023MOL0     H41120   9.509   4.434   7.390  1.5509 -0.6349 -2.1185
 1023MOL0     H41121   9.531   4.698   7.223  3.1467  0.0459  1.3894
 1023MOL0     H41122   9.648   4.577   7.235  0.4555  1.9611 -0.7937
 1023MOL0     H41123   9.287   4.436   7.200  1.6314 -2.7872  1.4942
 1023MOL0     H41124   9.199   4.239   7.042 -0.7809 -0.2483  0.1373
 1023MOL0     H41125   9.290   4.195   6.896  0.4259  0.2377  0.5048
 1023MOL0     H41126   9.226   4.410   6.783  2.5322 -0.8698  1.0452
 1023MOL0     H41127   9.142   4.260   6.773  4.7799 -0.0284  0.4089
 1023MOL0     H41128   8.976   4.455   6.774 -1.5568 -0.1759 -0.1574
 1023MOL0     H41129   8.947   4.355   6.905 -3.1439  3.5021 -1.6209
 1023MOL0     H41130   8.949   4.582   6.977 -0.4262 -0.1090 -0.1431
 1023MOL0     H41131   9.094   4.523   7.056  1.5082  1.7805  0.3026
 1023MOL0     H41132   9.047   4.759   7.108 -1.2371 -1.1527 -2.3490
 1023MOL0     H41133   9.062   5.100   7.229 -0.2650  0.0877 -0.2150
 1023MOL0     H41134   9.066   4.942   7.294  3.6833  2.5573  1.5624
 1023MOL0     H41135   8.954   4.980   7.168  0.1349  2.5914 -0.2862
 1023MOL0     H41136   9.278   5.407   6.907  1.6455 -0.9174 -3.7594
 1023MOL0     H41137   9.367   5.619   6.908 -1.1064 -1.2059 -1.0091
 1023MOL0     H41138   9.545   5.837   6.901  2.7818  0.0753  0.2633
 1023MOL0     H41139   9.448   5.802   7.043 -0.5759  1.4399  0.0371
 1023MOL0     H41140   9.732   5.928   7.058  0.8018 -1.7159  1.5189
 1023MOL0     H41141   9.582   6.018   7.081 -0.8138  0.0048  3.7184
 1023MOL0     H41142   9.705   5.806   7.272 -0.6161 -0.2812  2.7448
 1023MOL0     H41143   9.533   5.853   7.271  0.8108 -3.1049 -3.9444
 1023MOL0     H41144   9.631   6.088   7.341 -0.7793 -1.1709  0.2865
 1023MOL0     H41145   9.784   6.010   7.305 -0.1975  0.0632 -0.0512
 1023MOL0     H41146   9.582   5.950   7.537  0.3744  1.1363  0.4063
 1023MOL0     H41147   9.715   5.842   7.510  1.1682  0.5201 -0.8911
 1023MOL0     H41148   9.881   6.026   7.567  0.0968 -1.5434 -0.3329
 1023MOL0     H41149   9.772   5.976   7.697  1.3747  0.7053  0.4291
 1023MOL0     H41150   9.612   6.163   7.641 -0.2764 -1.3088 -0.1810
 1023MOL0     H41151   9.726   6.241   7.530 -0.2007 -1.8161 -1.8765
 1023MOL0     H41152   9.778   6.185   7.827  2.9885 -1.0773  0.2709
 1023MOL0     H41153   9.759   6.343   7.744 -1.0394 -0.4186 -0.5213
 1023MOL0     H41154   9.721   5.486   7.118 -1.0105  1.4910  1.4445
 1023MOL0     H41155   9.629   5.243   7.092 -1.1106  0.2961  0.8740
 1023MOL0     H41156   9.392   5.004   6.858  0.5488  1.6332  2.1083
 1023MOL0     H41157   9.329   4.777   6.794 -2.5398 -0.5341 -2.2136
 1023MOL0     H41158   9.723   4.882   8.363  0.3627  0.3808  3.9854
 1023MOL0     H41159   9.757   4.810   8.571 -2.3644 -0.9018  2.5179
 1023MOL0     H41160   9.880   4.462   8.701  1.3215 -0.7445 -1.0213
 1023MOL0     H41161  10.041   4.285   8.730  0.2655 -3.4920 -1.7485
 1023MOL0     H41162  10.162   4.137   8.836  3.0355 -2.2264  1.6528
 1023MOL0     H41163  10.174   3.980   8.843  1.5740  3.9436  3.1982
 1023MOL0     H41164  10.128   4.131   8.584 -0.7595  0.9954 -0.4683
 1023MOL0     H41165  10.108   3.948   8.607  0.8986  0.0476  2.2085
 1023MOL0     H41166  10.357   4.084   8.709 -3.3424  1.8146 -0.9323
 1023MOL0     H41167  10.346   3.932   8.659  0.1862  0.9119  1.1390
 1023MOL0     H41168  10.326   4.001   8.409 -2.9526  1.5945 -0.9523
 1023MOL0     H41169  10.485   4.031   8.490  0.6089  3.6913  1.4360
 1023MOL0     H41170  10.480   4.407   8.447  0.8504 -0.4021 -1.3429
 1023MOL0     H41171   9.739   4.008   8.826  0.7236 -0.4691  0.0149
 1023MOL0     H41172   9.527   4.066   8.867  1.0463 -0.6130 -1.2578
 1023MOL0     H41173   9.466   4.229   8.876  1.3487  0.3380  0.1091
 1023MOL0     H41174   9.473   4.152   8.716 -1.4828 -0.4545  0.2697
 1024MOL0     O41175   4.622   2.202   2.979 -0.2441 -0.1349  0.3529
 1024MOL0     C41176   4.684   2.111   3.018  0.3477 -0.3684  0.4439
 1024MOL0     O41177   4.639   2.041   3.120 -0.1765  0.6165 -0.2796
 1024MOL0     C41178   4.584   2.100   3.227  0.3188  1.0712 -1.8707
 1024MOL0     C41179   4.600   2.231   3.265  0.5993  0.1138  0.3750
 1024MOL0     C41180   4.558   2.292   3.386  0.3276  1.1540  0.3350
 1024MOL0     C41181   4.488   2.206   3.478 -0.6237  0.0873  1.1128
 1024MOL0     O41182   4.435   2.261   3.590 -0.7088  0.6937 -0.4204
 1024MOL0     C41183   4.308   2.324   3.561 -0.2139 -0.8264 -1.0662
 1024MOL0     C41184   4.280   2.408   3.680  0.4733 -0.7657 -0.2826
 1024MOL0     C41185   4.389   2.504   3.737  0.1227 -0.5202 -0.1698
 1024MOL0     C41186   4.336   2.598   3.845 -0.9103  0.7481  0.3817
 1024MOL0     C41187   4.439   2.686   3.910 -0.3995 -0.0479  0.3264
 1024MOL0     C41188   4.368   2.795   3.993 -0.6293 -0.0501 -0.4794
 1024MOL0     C41189   4.460   2.878   4.086  0.5076  0.5014  0.0079
 1024MOL0     C41190   4.534   2.781   4.192  0.2779  0.7999 -1.1237
 1024MOL0     N41191   4.448   2.725   4.305  0.3489 -0.0905  0.5686
 1024MOL0     C41192   4.407   2.795   4.414 -0.2570  0.0444  0.6918
 1024MOL0     C41193   4.381   2.704   4.509 -0.9482  0.4327 -1.0506
 1024MOL0     C41194   4.356   2.733   4.655 -0.6852  0.7198 -0.5672
 1024MOL0     C41195   4.324   2.608   4.741  0.4445 -0.3062  0.3157
 1024MOL0     C41196   4.299   2.648   4.889 -0.1276  0.1604 -0.3972
 1024MOL0     C41197   4.238   2.537   4.976  0.6505  0.2890 -1.0044
 1024MOL0     O41198   4.250   2.566   5.124  0.5255  0.3204  0.2670
 1024MOL0     C41199   4.330   2.483   5.195 -0.7029  0.1959 -0.8647
 1024MOL0     C41200   4.462   2.429   5.166 -0.3976 -0.3481  1.2704
 1024MOL0     C41201   4.535   2.341   5.248  0.8043  0.3723  0.1502
 1024MOL0     C41202   4.655   2.285   5.180 -1.2934  0.1773  0.1348
 1024MOL0     C41203   4.478   2.295   5.365 -0.9098 -0.4260 -0.2910
 1024MOL0     C41204   4.545   2.208   5.461 -0.3612  0.0402  0.8021
 1024MOL0     O41205   4.469   2.128   5.535  0.3302 -0.0558 -0.5250
 1024MOL0     C41206   4.527   2.042   5.621  0.2030  0.0935 -0.2884
 1024MOL0     C41207   4.523   2.058   5.758  0.2641 -0.0381 -0.6340
 1024MOL0     C41208   4.573   1.964   5.849 -0.4339 -0.0330  0.2479
 1024MOL0     C41209   4.636   1.857   5.806  0.0764  0.6849 -0.4220
 1024MOL0     O41210   4.684   1.778   5.904 -0.1360 -0.1347 -0.1016
 1024MOL0     C41211   4.778   1.677   5.870 -0.9733  0.5309  0.1918
 1024MOL0     C41212   4.827   1.606   5.996  0.8151 -0.5462 -0.7616
 1024MOL0     C41213   4.931   1.689   6.071  0.3352  0.2499 -0.4385
 1024MOL0     C41214   4.965   1.625   6.209 -0.5859  0.3416 -0.7224
 1024MOL0     C41215   5.068   1.709   6.286 -0.3158 -0.7318  0.0435
 1024MOL0     C41216   5.139   1.633   6.405  1.5054 -0.4445 -0.5052
 1024MOL0     C41217   5.027   1.620   6.509  0.0621  0.1950 -0.4714
 1024MOL0     C41218   5.090   1.570   6.646 -0.7356  0.5389  0.0788
 1024MOL0    Cl41219   5.168   1.414   6.625  0.1145 -0.0384 -0.1300
 1024MOL0     C41220   4.619   1.825   5.669 -0.8691 -0.1408 -0.2992
 1024MOL0     C41221   4.573   1.918   5.573 -0.1118  0.2071  0.8404
 1024MOL0     O41222   4.668   2.225   5.480 -0.5630 -0.5708 -0.5829
 1024MOL0     C41223   4.353   2.350   5.406 -0.2723 -0.2722 -0.5562
 1024MOL0     C41224   4.283   2.446   5.328  0.6331 -0.1166  0.0538
 1024MOL0     N41225   4.391   2.583   4.452  0.1782 -0.0647 -0.1419
 1024MOL0     N41226   4.423   2.598   4.330  0.1299  0.7357 -0.6055
 1024MOL0     C41227   4.456   2.078   3.436  0.2825 -0.1471 -0.5658
 1024MOL0     C41228   4.513   2.027   3.324  1.0650  0.1325  0.1671
 1024MOL0     C41229   4.812   2.072   2.954 -0.9074 -0.1648  0.1997
 1024MOL0     C41230   4.846   2.132   2.829 -0.3748 -0.3846 -0.1204
 1024MOL0     C41231   4.959   2.088   2.751  0.3009  0.3432  0.3503
 1024MOL0     C41232   5.041   1.989   2.796  1.0743 -1.0776  0.4625
 1024MOL0     O41233   5.152   1.940   2.726  0.7229 -0.1271  0.2431
 1024MOL0     C41234   5.203   2.003   2.605 -0.1377 -0.2836  0.6124
 1024MOL0     C41235   5.116   1.981   2.470  0.3514  0.2569 -0.2661
 1024MOL0     C41236   5.187   2.036   2.342 -0.5308 -0.0435  0.6755
 1024MOL0     C41237   5.176   2.190   2.309  0.1231  0.4141 -1.2343
 1024MOL0     C41238   5.194   2.218   2.165  0.3877 -0.1641 -0.2723
 1024MOL0     C41239   5.215   2.247   2.046  0.7036 -0.4937 -0.5385
 1024MOL0     C41240   5.012   1.928   2.914  0.0333 -0.2867  0.5333
 1024MOL0     C41241   4.898   1.961   2.989  0.7615 -0.6230 -0.1936
 1024MOL0     C41242   4.861   1.886   3.113 -0.4286  0.4894 -0.5397
 1024MOL0     H41243   4.656   2.305   3.209 -1.4854  1.4305 -0.1108
 1024MOL0     H41244   4.568   2.400   3.399  1.1820  1.1041  0.1343
 1024MOL0     H41245   4.232   2.245   3.559 -0.3644 -0.7581  0.4400
 1024MOL0     H41246   4.304   2.389   3.474  1.7004 -0.2875 -0.8060
 1024MOL0     H41247   4.194   2.464   3.641  2.8092  1.5827 -2.5003
 1024MOL0     H41248   4.237   2.362   3.769 -1.1999  2.5321  0.8095
 1024MOL0     H41249   4.460   2.435   3.782 -1.5606 -4.8803 -3.5201
 1024MOL0     H41250   4.440   2.561   3.658 -0.7765  0.3544 -0.1459
 1024MOL0     H41251   4.266   2.666   3.795 -1.1693  1.6388  1.8923
 1024MOL0     H41252   4.287   2.538   3.922  1.6717 -1.3025  0.5504
 1024MOL0     H41253   4.500   2.732   3.831  0.3407 -1.9212 -0.2397
 1024MOL0     H41254   4.501   2.630   3.981  0.1914  1.3154  0.9376
 1024MOL0     H41255   4.302   2.854   3.928  0.2003  0.5054 -0.8394
 1024MOL0     H41256   4.303   2.741   4.062  0.5840 -0.3045  0.4935
 1024MOL0     H41257   4.402   2.955   4.136 -1.5805 -0.5364 -0.7163
 1024MOL0     H41258   4.549   2.910   4.030  1.6988  0.1540  1.6126
 1024MOL0     H41259   4.583   2.690   4.156  2.3754  0.4917  2.1546
 1024MOL0     H41260   4.602   2.834   4.259 -1.8371  1.1543  0.8742
 1024MOL0     H41261   4.406   2.901   4.434  1.0338  0.1067  0.4829
 1024MOL0     H41262   4.264   2.792   4.648 -0.0930  1.8058  0.4951
 1024MOL0     H41263   4.449   2.772   4.698 -0.0876 -0.1970 -1.0020
 1024MOL0     H41264   4.237   2.555   4.702 -0.7032  0.7920  1.2818
 1024MOL0     H41265   4.414   2.546   4.753  1.3038  1.3002  3.0719
 1024MOL0     H41266   4.396   2.678   4.929  1.0825 -2.2497 -1.3304
 1024MOL0     H41267   4.240   2.739   4.896 -0.2208 -0.0031  1.6383
 1024MOL0     H41268   4.133   2.530   4.946  1.2686 -1.6954 -2.9858
 1024MOL0     H41269   4.281   2.438   4.958 -3.1032 -2.0020  1.3419
 1024MOL0     H41270   4.498   2.466   5.070  1.6285  0.4808  2.2875
 1024MOL0     H41271   4.625   2.254   5.079 -1.8291  0.5426  0.1777
 1024MOL0     H41272   4.699   2.199   5.230 -2.7125 -0.2952  0.5977
 1024MOL0     H41273   4.726   2.361   5.144 -2.9802  0.6724 -2.4282
 1024MOL0     H41274   4.478   2.149   5.796  1.9230  0.0774  1.1807
 1024MOL0     H41275   4.569   1.983   5.956 -2.3596 -4.1417  1.1030
 1024MOL0     H41276   4.735   1.594   5.814  0.6378 -0.6144  0.5787
 1024MOL0     H41277   4.863   1.715   5.812 -0.2069 -1.1412  0.1701
 1024MOL0     H41278   4.744   1.585   6.064 -0.5072  1.5882 -1.6014
 1024MOL0     H41279   4.871   1.507   5.983  1.8301 -0.4403  1.4990
 1024MOL0     H41280   4.891   1.790   6.085 -0.0725 -0.1356  1.5852
 1024MOL0     H41281   5.023   1.692   6.013  1.5189 -0.2813  1.3378
 1024MOL0     H41282   4.985   1.518   6.200 -1.8894  0.0655 -0.5325
 1024MOL0     H41283   4.876   1.620   6.271 -0.0110 -2.4788  0.0159
 1024MOL0     H41284   5.149   1.741   6.219 -0.5885 -2.2563 -1.0522
 1024MOL0     H41285   5.008   1.795   6.317 -1.2589 -1.1261 -0.6551
 1024MOL0     H41286   5.219   1.690   6.452 -0.4328  0.4877  1.9077
 1024MOL0     H41287   5.178   1.534   6.378  1.6219 -0.3119 -0.8271
 1024MOL0     H41288   4.948   1.555   6.471 -0.8881  3.0019 -3.8312
 1024MOL0     H41289   4.995   1.722   6.530  0.6023  0.8423 -2.5369
 1024MOL0     H41290   5.010   1.545   6.716  1.1795 -2.2347  1.4491
 1024MOL0     H41291   5.161   1.646   6.679 -2.5554  2.2283  0.2723
 1024MOL0     H41292   4.665   1.733   5.632  2.9252  0.8251  1.5150
 1024MOL0     H41293   4.565   1.890   5.469  0.8924 -2.3549  1.3806
 1024MOL0     H41294   4.307   2.319   5.500 -0.1191  1.0141 -0.0376
 1024MOL0     H41295   4.189   2.480   5.369  0.8271 -1.5113  1.7917
 1024MOL0     H41296   4.391   2.015   3.497  3.7778 -0.5552  3.1860
 1024MOL0     H41297   4.484   1.926   3.293 -2.0793  1.3589 -1.3482
 1024MOL0     H41298   4.775   2.208   2.796 -1.2580 -0.3489  1.7541
 1024MOL0     H41299   4.971   2.121   2.648 -0.2168 -2.5874 -0.7547
 1024MOL0     H41300   5.220   2.108   2.633  0.4400 -0.7464  2.0835
 1024MOL0     H41301   5.305   1.974   2.578  0.1683  3.2383 -3.0468
 1024MOL0     H41302   5.013   2.020   2.475  0.0645  0.0075 -3.0273
 1024MOL0     H41303   5.127   1.873   2.463  1.1952  0.0054  3.0916
 1024MOL0     H41304   5.295   2.020   2.351 -0.4058  1.5858  3.0806
 1024MOL0     H41305   5.151   1.981   2.255 -0.1443 -1.1895  1.2134
 1024MOL0     H41306   5.246   2.249   2.369  1.2789 -1.8211 -0.2691
 1024MOL0     H41307   5.085   2.240   2.345  2.0195  2.9557  0.4108
 1024MOL0     H41308   5.230   2.298   1.953 -0.0571 -0.2442 -0.5243
 1024MOL0     H41309   5.078   1.846   2.941  2.3571  0.7592 -1.5159
 1024MOL0     H41310   4.773   1.827   3.085 -0.7468  0.3987  0.5767
 1024MOL0     H41311   4.942   1.820   3.146 -1.0499 -0.8925 -1.6429
 1024MOL0     H41312   4.834   1.943   3.202  0.7122  0.4761 -0.1744
  11.54406  11.54406  11.54406
